FOO
141312
    1MOL0     O    1   4.487  10.904   8.546  0.4898 -0.1866  0.0817
    1MOL0     C    2   4.538  10.793   8.548 -0.6029 -0.5134  0.4758
    1MOL0     O    3   4.473  10.684   8.497  0.7768  0.4435 -0.6973
    1MOL0     C    4   4.339  10.690   8.459 -0.3354  0.0908  0.5784
    1MOL0     C    5   4.312  10.769   8.342  1.2696 -0.0045 -0.6229
    1MOL0     C    6   4.184  10.774   8.291 -0.8649  0.2771 -0.4401
    1MOL0     C    7   4.073  10.709   8.354 -0.0829 -0.6150 -0.6204
    1MOL0     O    8   3.946  10.740   8.312  0.4919  0.3263  0.1789
    1MOL0     C    9   3.836  10.666   8.362  1.2581  0.0622 -0.0582
    1MOL0     C   10   3.815  10.535   8.277 -0.4531  0.7440 -0.5756
    1MOL0     C   11   3.686  10.456   8.323  0.0891 -0.5476  0.4160
    1MOL0     C   12   3.565  10.538   8.275  0.6354  0.6246  0.3052
    1MOL0     C   13   3.435  10.455   8.291  0.2485  0.3409  0.1342
    1MOL0     C   14   3.383  10.456   8.438 -0.3827 -0.5828  0.4744
    1MOL0     C   15   3.262  10.370   8.476 -0.0696  0.8041  0.1209
    1MOL0     C   16   3.248  10.390   8.634  1.0337  0.2064  0.2215
    1MOL0     N   17   3.144  10.324   8.707  0.8112  1.0232  0.8326
    1MOL0     C   18   3.007  10.336   8.669 -0.4159  0.5842 -0.3174
    1MOL0     C   19   2.940  10.255   8.754  0.1963  0.1249  0.3468
    1MOL0     C   20   2.799  10.242   8.741  0.0701 -0.4147  0.2983
    1MOL0     C   21   2.738  10.360   8.824  0.4229  0.7617  0.1661
    1MOL0     C   22   2.732  10.323   8.972  0.6136 -1.3082  0.0251
    1MOL0     C   23   2.627  10.391   9.053  1.0452 -0.2107  0.3992
    1MOL0     O   24   2.591  10.318   9.174  0.3089  0.7878 -0.2594
    1MOL0     C   25   2.499  10.368   9.267 -0.3162 -0.9107  0.1034
    1MOL0     C   26   2.425  10.491   9.246  0.4205 -1.2972  0.0694
    1MOL0     C   27   2.340  10.542   9.344  0.4038 -0.5030 -0.7351
    1MOL0     C   28   2.265  10.665   9.305  0.1876 -0.4255 -0.3765
    1MOL0     C   29   2.326  10.470   9.462 -0.2553  0.0381  0.1835
    1MOL0     C   30   2.238  10.512   9.566 -0.7069  0.9170 -0.9329
    1MOL0     O   31   2.169  10.421   9.623 -0.0530 -0.4761 -0.6945
    1MOL0     C   32   2.113  10.447   9.752  0.8365 -0.4667 -0.5853
    1MOL0     C   33   2.187  10.440   9.866  0.0159 -0.3013 -0.7303
    1MOL0     C   34   2.135  10.482   9.987 -0.6325 -0.0375 -1.3091
    1MOL0     C   35   2.009  10.525   9.998 -0.8556 -0.4050 -0.3583
    1MOL0     O   36   1.973  10.569  10.124 -0.7966  0.1581 -0.3429
    1MOL0     C   37   1.836  10.592  10.144  0.5935  0.8439  0.0207
    1MOL0     C   38   1.826  10.602  10.301  0.1468  0.5486  0.2868
    1MOL0     C   39   1.922  10.706  10.363 -0.1125  0.3032  0.1480
    1MOL0     C   40   1.890  10.738  10.506 -0.0293  0.1704 -0.2104
    1MOL0     C   41   2.022  10.790  10.571 -0.6717  0.1325 -1.3098
    1MOL0     C   42   1.987  10.813  10.720 -0.0448 -0.3497  0.0256
    1MOL0     C   43   2.112  10.833  10.818 -0.5600  0.4257  0.1297
    1MOL0     C   44   2.083  10.822  10.972  0.1246 -0.0182 -0.3473
    1MOL0    Cl   45   1.997  10.959  11.032  0.0260 -0.1805 -0.2002
    1MOL0     C   46   1.921  10.515   9.883 -0.3512  0.4471 -1.0984
    1MOL0     C   47   1.971  10.474   9.762 -1.0010 -0.5084  0.5636
    1MOL0     O   48   2.218  10.627   9.585  1.2049  0.1161  0.1927
    1MOL0     C   49   2.387  10.350   9.479 -0.5729  0.6292 -0.2992
    1MOL0     C   50   2.473  10.296   9.381  0.7095  1.7621 -0.3211
    1MOL0     N   51   3.037  10.212   8.848 -0.2667  0.6489 -0.6138
    1MOL0     N   52   3.159  10.248   8.818 -0.8149  0.3582 -0.1793
    1MOL0     C   53   4.113  10.628   8.468  0.6744  1.3145 -0.2878
    1MOL0     C   54   4.239  10.613   8.521 -0.4673 -0.7977 -0.5608
    1MOL0     C   55   4.665  10.765   8.610 -0.2616  0.3109 -0.2945
    1MOL0     C   56   4.703  10.633   8.622  0.9237 -0.2909 -1.3679
    1MOL0     C   57   4.812  10.594   8.708  0.3725  0.3872  0.6389
    1MOL0     C   58   4.888  10.696   8.776  0.2714  0.3512  0.9225
    1MOL0     O   59   4.998  10.659   8.846  0.2736  0.2429 -0.4560
    1MOL0     C   60   5.123  10.685   8.775 -0.1429 -0.5981 -0.0543
    1MOL0     C   61   5.159  10.565   8.689 -0.1403  0.1315  0.3077
    1MOL0     C   62   5.200  10.447   8.775 -0.0519 -0.7971 -0.2232
    1MOL0     C   63   5.247  10.328   8.689 -0.6765  0.2945  0.6404
    1MOL0     C   64   5.144  10.285   8.599 -0.0110 -0.3280  0.2612
    1MOL0     C   65   5.050  10.256   8.533 -0.7155  0.1008  0.1255
    1MOL0     C   66   4.853  10.828   8.746 -0.1962  0.1018  1.0110
    1MOL0     C   67   4.748  10.863   8.661 -0.4057 -0.3243 -0.0376
    1MOL0     C   68   4.715  11.011   8.648 -0.1630 -0.5188 -0.4031
    1MOL0     H   69   4.380  10.824   8.278  0.4517 -0.8263 -2.2666
    1MOL0     H   70   4.168  10.824   8.196  0.2771  1.0103 -0.2638
    1MOL0     H   71   3.760  10.733   8.321  2.1913  1.3019  0.1953
    1MOL0     H   72   3.830  10.643   8.469 -2.5442  0.9900  0.0918
    1MOL0     H   73   3.812  10.554   8.170  4.5406  1.5660 -0.8075
    1MOL0     H   74   3.897  10.467   8.299 -1.7499 -0.1099  2.1091
    1MOL0     H   75   3.680  10.351   8.295 -4.2616 -0.1287 -0.9323
    1MOL0     H   76   3.687  10.457   8.432 -3.2918  0.2770  0.5615
    1MOL0     H   77   3.570  10.640   8.312  0.7097  0.8262 -0.2420
    1MOL0     H   78   3.575  10.555   8.167  1.4747  1.5508  0.5207
    1MOL0     H   79   3.461  10.355   8.255 -0.5515  0.8452 -2.0036
    1MOL0     H   80   3.347  10.488   8.234 -1.8675 -0.6566  2.5856
    1MOL0     H   81   3.467  10.440   8.507 -1.2568 -2.6079  1.1424
    1MOL0     H   82   3.342  10.557   8.451  3.2177  1.1545 -0.2511
    1MOL0     H   83   3.282  10.265   8.451 -0.6773  1.1492 -2.0194
    1MOL0     H   84   3.161  10.382   8.436 -0.4176  2.1083  1.3213
    1MOL0     H   85   3.330  10.357   8.698 -0.6819 -1.3927  1.7304
    1MOL0     H   86   3.226  10.497   8.643 -0.3974  0.0906 -1.3912
    1MOL0     H   87   2.969  10.398   8.589  1.1813  0.5538 -1.1399
    1MOL0     H   88   2.780  10.144   8.787  1.8062 -2.5188 -3.0989
    1MOL0     H   89   2.767  10.230   8.637 -2.9480  1.1598  0.9319
    1MOL0     H   90   2.800  10.450   8.815  0.3235  0.5861 -3.9212
    1MOL0     H   91   2.638  10.373   8.783  0.8486  0.0959 -1.1533
    1MOL0     H   92   2.724  10.215   8.986 -0.2240 -1.1039  1.3214
    1MOL0     H   93   2.829  10.361   9.005  0.6922 -0.8216 -0.7317
    1MOL0     H   94   2.666  10.489   9.081  0.9432 -1.0661  4.0871
    1MOL0     H   95   2.534  10.388   8.995  0.6284 -0.7880  1.0775
    1MOL0     H   96   2.439  10.545   9.153 -0.9284 -0.3781  0.3623
    1MOL0     H   97   2.304  10.749   9.363  3.2192 -1.9661 -0.0186
    1MOL0     H   98   2.156  10.653   9.316  0.4451 -0.8842  2.5863
    1MOL0     H   99   2.291  10.700   9.205 -2.2214  3.2937  0.0522
    1MOL0     H  100   2.294  10.424   9.855 -0.2811 -2.2727 -1.0336
    1MOL0     H  101   2.195  10.495  10.077 -2.0417  1.8719 -0.5598
    1MOL0     H  102   1.812  10.687  10.094 -0.2457 -1.1929 -3.7758
    1MOL0     H  103   1.771  10.509  10.116 -2.4656  2.4065  1.9019
    1MOL0     H  104   1.726  10.639  10.326 -0.2730 -0.2047 -0.2331
    1MOL0     H  105   1.828  10.507  10.356 -2.3114  1.2301  1.7034
    1MOL0     H  106   1.915  10.795  10.299 -0.2338  1.1525  1.3080
    1MOL0     H  107   2.029  10.680  10.358 -0.8071 -2.8503 -0.4238
    1MOL0     H  108   1.863  10.645  10.558 -0.9245  1.0357  0.9406
    1MOL0     H  109   1.813  10.815  10.510 -0.0964  0.2971 -2.6612
    1MOL0     H  110   2.106  10.719  10.562 -0.4205  0.0248  1.1305
    1MOL0     H  111   2.060  10.882  10.526  0.0098  0.1535 -0.7232
    1MOL0     H  112   1.925  10.730  10.756  1.5438 -1.2165  0.9284
    1MOL0     H  113   1.941  10.912  10.721  0.5253 -0.0862  0.7802
    1MOL0     H  114   2.165  10.923  10.786 -0.4165  0.3263  0.0859
    1MOL0     H  115   2.183  10.756  10.789 -2.8225 -0.9351 -2.2189
    1MOL0     H  116   2.176  10.815  11.030  0.7942  0.8253 -1.2759
    1MOL0     H  117   2.022  10.734  10.996 -1.7351  1.5038  0.7404
    1MOL0     H  118   1.814  10.530   9.895 -0.8112 -2.1980 -1.2981
    1MOL0     H  119   1.915  10.463   9.670  0.4735 -6.6214 -0.0263
    1MOL0     H  120   2.369  10.278   9.558  0.8506 -2.4341 -2.5626
    1MOL0     H  121   2.527  10.203   9.396 -0.7807  0.9746  0.4329
    1MOL0     H  122   4.031  10.582   8.521 -1.9477  2.7541 -2.8035
    1MOL0     H  123   4.266  10.535   8.591  0.6107  0.5741  0.5907
    1MOL0     H  124   4.656  10.555   8.563  1.8725 -1.1753 -0.9945
    1MOL0     H  125   4.841  10.490   8.712  2.6063  0.7007 -2.8140
    1MOL0     H  126   5.118  10.771   8.707  1.4209 -2.0085 -2.0813
    1MOL0     H  127   5.206  10.698   8.845  0.5120 -2.0350 -0.5249
    1MOL0     H  128   5.239  10.593   8.620  0.7785 -3.2790 -0.2015
    1MOL0     H  129   5.074  10.538   8.626 -0.2092  2.0303 -0.4857
    1MOL0     H  130   5.290  10.462   8.836  1.4357 -2.8093 -1.7671
    1MOL0     H  131   5.119  10.413   8.840 -0.3500 -0.2830 -0.3266
    1MOL0     H  132   5.280  10.246   8.754 -0.4849  0.4173  0.6999
    1MOL0     H  133   5.317  10.365   8.613 -2.3323  0.7112 -0.7533
    1MOL0     H  134   4.974  10.221   8.467  0.9325 -1.3078 -1.1296
    1MOL0     H  135   4.906  10.900   8.807  1.5495  0.0931 -0.4149
    1MOL0     H  136   4.615  11.020   8.692  0.8149  0.0674  1.7898
    1MOL0     H  137   4.784  11.072   8.706 -1.0522  0.4755 -0.3513
    1MOL0     H  138   4.727  11.043   8.544 -2.8540 -2.0565 -1.2897
    2MOL0     O  139   0.366   7.986   9.298 -0.1583 -0.8705 -0.2615
    2MOL0     C  140   0.350   7.933   9.192  0.0219 -0.6478  0.8483
    2MOL0     O  141   0.436   7.846   9.131  0.2886 -0.3800  0.0703
    2MOL0     C  142   0.546   7.810   9.204  1.0778  0.6855  1.2193
    2MOL0     C  143   0.536   7.731   9.326  0.8936 -0.3296  0.5574
    2MOL0     C  144   0.645   7.666   9.391 -0.3594 -0.4985 -0.1675
    2MOL0     C  145   0.778   7.692   9.346 -0.0309  1.1738 -0.3490
    2MOL0     O  146   0.890   7.632   9.396 -0.4458 -0.6864  0.3708
    2MOL0     C  147   0.953   7.723   9.485 -1.1612 -0.0415  0.2137
    2MOL0     C  148   0.903   7.715   9.636  0.2017 -0.8921  0.7570
    2MOL0     C  149   0.917   7.592   9.721 -0.5062 -0.3660  0.7621
    2MOL0     C  150   0.838   7.468   9.683  1.0272  0.2533 -0.8071
    2MOL0     C  151   0.851   7.364   9.800  0.6464  0.0028  0.2423
    2MOL0     C  152   0.822   7.222   9.766  0.1335  0.5090  0.4805
    2MOL0     C  153   0.896   7.116   9.843 -0.2677 -0.5595  0.5043
    2MOL0     C  154   0.823   7.111   9.987 -0.0111  0.5461  0.1777
    2MOL0     N  155   0.798   6.974  10.033  0.5184  0.1196 -0.0990
    2MOL0     C  156   0.887   6.879  10.085  0.6555  0.6462  0.6294
    2MOL0     C  157   0.801   6.776  10.134  0.5164 -0.3404  0.0123
    2MOL0     C  158   0.839   6.645  10.190 -0.2652 -0.4555 -0.3888
    2MOL0     C  159   0.881   6.660  10.339  0.3304  0.9201  0.3178
    2MOL0     C  160   0.951   6.536  10.382 -0.8316 -0.6349 -0.1957
    2MOL0     C  161   1.004   6.548  10.526 -0.1817 -0.3476 -0.4448
    2MOL0     O  162   0.900   6.567  10.621  0.3198  0.1998 -0.0215
    2MOL0     C  163   0.932   6.595  10.753 -0.0553 -0.1831 -0.4553
    2MOL0     C  164   1.070   6.589  10.804 -0.4963 -0.6767  0.7380
    2MOL0     C  165   1.090   6.663  10.926 -1.0499 -1.2166 -0.6035
    2MOL0     C  166   1.237   6.718  10.939  0.0837  0.4358  0.8469
    2MOL0     C  167   0.988   6.699  11.013 -0.2160  0.3692  0.1380
    2MOL0     C  168   1.008   6.740  11.153 -0.1742  0.1908  1.0510
    2MOL0     O  169   1.129   6.707  11.211  0.0468 -0.0167  0.1166
    2MOL0     C  170   1.168   6.734  11.341  0.5077  0.5789 -0.0658
    2MOL0     C  171   1.092   6.679  11.442  0.6931 -0.8191  0.1064
    2MOL0     C  172   1.126   6.692  11.579 -1.3209 -0.8021  0.7260
    2MOL0     C  173   1.251   6.743  11.610  1.0466 -0.8047  1.4661
    2MOL0     O  174   1.293   6.754  11.734 -0.3531 -0.1553 -0.5226
    2MOL0     C  175   1.236   6.843  11.839  0.1903 -0.5341  0.7634
    2MOL0     C  176   1.272   6.991  11.829 -0.7585 -0.3679  0.0530
    2MOL0     C  177   1.187   7.103  11.913 -0.4635 -0.2668 -0.2189
    2MOL0     C  178   1.149   7.040  12.049 -0.9155  0.0294 -0.0667
    2MOL0     C  179   1.075   7.139  12.132  0.3701 -1.3717  0.0513
    2MOL0     C  180   1.071   7.080  12.276  0.9842 -0.2569  0.1496
    2MOL0     C  181   0.998   7.169  12.373  0.7717  0.7724  0.8020
    2MOL0     C  182   0.887   7.096  12.446 -0.6624 -0.3756  0.0732
    2MOL0    Cl  183   0.962   6.987  12.561  0.4025  0.3522 -0.1004
    2MOL0     C  184   1.325   6.806  11.503  0.1571 -0.3201  0.1598
    2MOL0     C  185   1.276   6.806  11.372  0.1779 -0.3293  0.2241
    2MOL0     O  186   0.918   6.800  11.214  0.1749  0.1942 -0.2108
    2MOL0     C  187   0.858   6.673  10.968  0.2209 -0.1122 -0.0078
    2MOL0     C  188   0.830   6.615  10.841 -0.9304 -0.4625 -0.0262
    2MOL0     N  189   0.671   6.817  10.106  0.2978  0.4491 -0.0631
    2MOL0     N  190   0.669   6.931  10.045 -0.3518  0.4352 -1.0618
    2MOL0     C  191   0.790   7.772   9.230  0.8869  1.1497 -0.2234
    2MOL0     C  192   0.673   7.836   9.164 -0.0626  0.4005 -0.2026
    2MOL0     C  193   0.215   7.946   9.124 -0.5369  0.5177 -0.1121
    2MOL0     C  194   0.102   7.898   9.196  0.1333 -0.3319 -0.2748
    2MOL0     C  195  -0.026   7.883   9.139 -0.5392  0.6268 -0.4744
    2MOL0     C  196  -0.040   7.939   9.012 -0.4320  0.0125 -0.8591
    2MOL0     O  197  -0.147   7.929   8.933 -0.2208  0.1250  0.5553
    2MOL0     C  198  -0.264   7.859   8.962 -0.5853 -0.4172  0.0685
    2MOL0     C  199  -0.348   7.927   9.059 -0.2490  0.8428 -0.4714
    2MOL0     C  200  -0.498   7.896   9.068  0.2808  0.3590  0.6447
    2MOL0     C  201  -0.567   8.019   9.017 -0.3576  0.0729 -0.1738
    2MOL0     C  202  -0.698   8.008   8.961 -0.2619 -0.8917  0.4070
    2MOL0     C  203  -0.776   8.005   8.868  1.4468  0.1288  0.5780
    2MOL0     C  204   0.069   7.995   8.944  0.5350 -0.6907  0.6638
    2MOL0     C  205   0.198   7.999   8.999  0.0865  0.2234  0.1614
    2MOL0     C  206   0.323   8.041   8.921  0.2663  0.3473  0.1795
    2MOL0     H  207   0.435   7.717   9.365 -0.4740 -1.6136 -3.0129
    2MOL0     H  208   0.625   7.619   9.486 -3.0196 -1.4068 -1.0790
    2MOL0     H  209   0.970   7.826   9.451  1.8198 -0.5692 -0.1634
    2MOL0     H  210   1.052   7.676   9.483 -1.3299 -0.4551  1.0268
    2MOL0     H  211   0.955   7.793   9.691 -2.8278  2.1716 -0.3479
    2MOL0     H  212   0.802   7.758   9.637  1.1713  1.8361 -1.7256
    2MOL0     H  213   1.021   7.567   9.743 -0.2206  0.3557  0.2821
    2MOL0     H  214   0.869   7.621   9.815 -1.9447 -1.5114  0.4143
    2MOL0     H  215   0.733   7.498   9.678  1.4264  1.5628 -3.0508
    2MOL0     H  216   0.874   7.431   9.587 -0.4255 -1.4922 -0.7235
    2MOL0     H  217   0.789   7.377   9.890 -0.2418  2.7278 -0.6720
    2MOL0     H  218   0.958   7.372   9.823  1.0558  0.9888 -1.8620
    2MOL0     H  219   0.715   7.202   9.767  0.1147  0.4468 -1.0451
    2MOL0     H  220   0.843   7.213   9.659 -1.0882 -1.3045  0.3454
    2MOL0     H  221   1.001   7.141   9.858  0.0388 -0.1119 -1.9751
    2MOL0     H  222   0.886   7.017   9.799 -3.4972 -1.1883  2.3121
    2MOL0     H  223   0.897   7.166  10.046  1.6612 -0.0911 -1.2351
    2MOL0     H  224   0.735   7.175   9.986  0.2908  0.9685 -0.6147
    2MOL0     H  225   0.993   6.892  10.065  0.6956 -0.5878 -0.0465
    2MOL0     H  226   0.930   6.620  10.135  1.9580  3.6030  1.0442
    2MOL0     H  227   0.758   6.573  10.172 -0.6313 -0.5304  1.3400
    2MOL0     H  228   0.955   6.740  10.346 -0.0995  1.5245 -1.5554
    2MOL0     H  229   0.791   6.691  10.393 -1.4645 -2.9296 -0.1288
    2MOL0     H  230   0.894   6.442  10.375  3.2614 -3.4726  0.9466
    2MOL0     H  231   1.026   6.511  10.306 -2.4755  1.3149 -2.6245
    2MOL0     H  232   1.054   6.458  10.563 -0.3090 -0.0120  0.5886
    2MOL0     H  233   1.066   6.638  10.530  0.5847 -0.7683 -1.9585
    2MOL0     H  234   1.153   6.559  10.740 -1.7712 -2.5753 -0.1032
    2MOL0     H  235   1.238   6.817  10.987 -0.0438  0.2559  1.2199
    2MOL0     H  236   1.289   6.721  10.842 -1.3489  2.1956  0.0478
    2MOL0     H  237   1.288   6.638  10.992 -1.0942 -1.8694 -1.2453
    2MOL0     H  238   1.000   6.637  11.402  0.2724  0.1683  0.0219
    2MOL0     H  239   1.071   6.657  11.665 -1.6315 -0.5304  0.6416
    2MOL0     H  240   1.128   6.830  11.831 -0.0998  1.4106  1.0905
    2MOL0     H  241   1.271   6.818  11.939 -0.1396 -0.8312  0.8062
    2MOL0     H  242   1.376   7.009  11.858 -1.8316  2.9954  2.3655
    2MOL0     H  243   1.273   7.017  11.722  0.8802 -0.9514 -0.1025
    2MOL0     H  244   1.093   7.140  11.871 -0.3708 -0.7802 -0.9072
    2MOL0     H  245   1.257   7.186  11.923 -0.5517  0.0034 -1.6048
    2MOL0     H  246   1.231   6.997  12.107 -4.1550 -3.6444  2.3254
    2MOL0     H  247   1.077   6.958  12.039  0.7861 -1.5873  0.2668
    2MOL0     H  248   1.130   7.234  12.134  3.4990 -3.0595  2.7862
    2MOL0     H  249   0.973   7.165  12.102  0.2890 -1.2482  0.4289
    2MOL0     H  250   1.175   7.059  12.305  2.1080 -0.5887 -3.6480
    2MOL0     H  251   1.009   6.990  12.266 -0.6526  0.7313  1.0242
    2MOL0     H  252   0.956   7.257  12.325  0.6155 -0.2016 -0.9363
    2MOL0     H  253   1.072   7.210  12.443  4.1424 -2.2735 -0.6541
    2MOL0     H  254   0.820   7.047  12.374 -0.9055  2.5873 -1.8912
    2MOL0     H  255   0.828   7.163  12.508  0.9236  2.0623 -0.9187
    2MOL0     H  256   1.423   6.849  11.521 -0.6191  0.7451  2.2201
    2MOL0     H  257   1.338   6.847  11.294  2.1971 -1.1664  1.3046
    2MOL0     H  258   0.776   6.697  11.034  0.3408  0.5621 -0.0929
    2MOL0     H  259   0.725   6.612  10.813 -2.3690  2.8187  3.9979
    2MOL0     H  260   0.875   7.774   9.163 -2.0118 -1.2905 -4.5050
    2MOL0     H  261   0.676   7.889   9.069 -0.3202  2.6781  1.0078
    2MOL0     H  262   0.124   7.844   9.288 -2.1660  0.7850  1.0143
    2MOL0     H  263  -0.103   7.827   9.193  0.7089  1.3359  2.2070
    2MOL0     H  264  -0.319   7.829   8.872 -1.2203  1.2612 -0.1297
    2MOL0     H  265  -0.232   7.764   9.006  1.6520  1.2053  2.2159
    2MOL0     H  266  -0.319   8.032   9.072  2.8824 -0.0861  0.8093
    2MOL0     H  267  -0.319   7.889   9.158 -1.8726 -0.2779 -0.3755
    2MOL0     H  268  -0.525   7.808   9.009  0.4015  2.2948 -2.5381
    2MOL0     H  269  -0.523   7.874   9.172 -3.3419 -0.6588 -0.3123
    2MOL0     H  270  -0.505   8.064   8.938 -0.0841  0.9598  0.5330
    2MOL0     H  271  -0.581   8.092   9.097 -0.4897 -0.5043  0.3341
    2MOL0     H  272  -0.850   8.014   8.791  0.9867  3.1210  1.2237
    2MOL0     H  273   0.060   8.028   8.841 -1.1711 -3.1064 -0.0419
    2MOL0     H  274   0.365   7.957   8.866  0.3746  1.1965 -1.0895
    2MOL0     H  275   0.302   8.123   8.851 -0.0297 -1.0305 -1.3996
    2MOL0     H  276   0.399   8.077   8.991  0.4857 -0.2530  0.2576
    3MOL0     O  277  10.343   7.687  11.095  0.4018 -0.1215  0.2659
    3MOL0     C  278  10.282   7.581  11.092  0.3308  0.5464 -0.2059
    3MOL0     O  279  10.162   7.546  11.139 -0.2526 -0.2178  0.1312
    3MOL0     C  280  10.103   7.647  11.213 -0.1563 -0.5073 -0.1669
    3MOL0     C  281  10.115   7.651  11.353  0.0955  0.4743 -0.4231
    3MOL0     C  282  10.056   7.753  11.433  1.7148 -0.4315  0.0759
    3MOL0     C  283   9.997   7.862  11.354  1.2366  0.8910  0.4753
    3MOL0     O  284   9.955   7.974  11.416 -0.0465  0.2149  0.1999
    3MOL0     C  285  10.019   8.016  11.542  1.1235 -0.1511  0.3006
    3MOL0     C  286   9.976   8.159  11.573  0.1774 -0.1099  0.2142
    3MOL0     C  287  10.049   8.231  11.694  0.9269  0.4153 -0.1392
    3MOL0     C  288  10.013   8.379  11.685  0.3694 -0.0490  0.9650
    3MOL0     C  289  10.059   8.439  11.819 -0.4609  0.0212 -0.3978
    3MOL0     C  290  10.051   8.594  11.822  0.5548 -0.6528  0.3094
    3MOL0     C  291   9.929   8.673  11.764  0.7359  0.0589  0.2742
    3MOL0     C  292   9.802   8.624  11.825  0.5216 -0.1799  0.7403
    3MOL0     N  293   9.781   8.687  11.957  0.2942 -0.2163 -0.2053
    3MOL0     C  294   9.823   8.620  12.071  0.8943  0.5195  1.0985
    3MOL0     C  295   9.774   8.697  12.169 -0.4429  0.7437 -0.0400
    3MOL0     C  296   9.808   8.676  12.316 -0.1914  0.2508 -0.0425
    3MOL0     C  297   9.705   8.596  12.388 -0.1302 -0.2463 -0.4446
    3MOL0     C  298   9.576   8.684  12.395  0.5601  1.0142  0.6240
    3MOL0     C  299   9.465   8.617  12.470 -0.0856 -0.2617  0.2579
    3MOL0     O  300   9.389   8.522  12.396 -0.7377  0.5021  0.0309
    3MOL0     C  301   9.285   8.458  12.452 -0.1076  0.5290  0.2387
    3MOL0     C  302   9.258   8.455  12.591  0.2493  0.4246  0.0885
    3MOL0     C  303   9.140   8.398  12.639 -0.5934 -0.4431  1.3218
    3MOL0     C  304   9.097   8.434  12.783  0.5358 -0.1841 -0.1244
    3MOL0     C  305   9.050   8.325  12.546 -0.0448 -0.2741 -0.1097
    3MOL0     C  306   8.917   8.254  12.584  0.0269  0.2371  0.8418
    3MOL0     O  307   8.834   8.224  12.489 -0.8353 -0.1114 -0.0375
    3MOL0     C  308   8.703   8.192  12.507 -0.1754 -0.7137  0.9656
    3MOL0     C  309   8.657   8.077  12.443  1.2518 -0.1740  0.0611
    3MOL0     C  310   8.521   8.049  12.427  0.3325 -0.2780  0.3287
    3MOL0     C  311   8.426   8.132  12.483  0.5268 -0.5082  0.1318
    3MOL0     O  312   8.291   8.109  12.458  0.6710  0.3815  0.1576
    3MOL0     C  313   8.192   8.192  12.516  1.0059 -0.0681 -0.9637
    3MOL0     C  314   8.068   8.105  12.542 -0.7217 -0.0725  0.0932
    3MOL0     C  315   7.959   8.092  12.434  0.3607  1.1521 -0.1544
    3MOL0     C  316   8.007   8.053  12.300  0.2521  0.1325 -0.6693
    3MOL0     C  317   7.897   8.035  12.194  1.4077 -0.3868 -0.9358
    3MOL0     C  318   7.949   8.038  12.052  0.4648 -0.7188  0.2412
    3MOL0     C  319   7.852   7.967  11.968 -0.1095  0.7157  0.4767
    3MOL0     C  320   7.842   8.024  11.827 -0.2952  0.3533 -0.4986
    3MOL0    Cl  321   7.692   7.949  11.752  0.3133 -0.1698 -0.3736
    3MOL0     C  322   8.477   8.238  12.567  0.3836  0.1280 -0.2910
    3MOL0     C  323   8.614   8.275  12.576 -0.2383 -1.0191 -0.0126
    3MOL0     O  324   8.909   8.227  12.703  0.6948  0.2689  0.4806
    3MOL0     C  325   9.083   8.316  12.416  0.1572 -0.3545 -0.3758
    3MOL0     C  326   9.193   8.395  12.371  1.1099  0.0708 -0.1187
    3MOL0     N  327   9.718   8.811  12.123  0.1344 -0.7340  0.4297
    3MOL0     N  328   9.717   8.801  11.994  0.3233 -0.4687 -0.4620
    3MOL0     C  329   9.962   7.846  11.216  0.3222  0.6846  0.4059
    3MOL0     C  330  10.023   7.738  11.148  0.3229  1.2058  0.6531
    3MOL0     C  331  10.349   7.481  11.020 -0.2842  1.6890  0.4009
    3MOL0     C  332  10.286   7.452  10.899  0.5456 -0.2432  0.3770
    3MOL0     C  333  10.340   7.347  10.821  0.4298 -0.6400 -0.1119
    3MOL0     C  334  10.450   7.270  10.869  0.1410  0.6702 -0.4513
    3MOL0     O  335  10.470   7.154  10.794  0.6709 -0.4607 -0.8540
    3MOL0     C  336  10.535   7.041  10.852 -0.0305 -0.2953  0.7301
    3MOL0     C  337  10.474   6.911  10.812  0.5275 -0.1097  0.3107
    3MOL0     C  338  10.543   6.803  10.886 -0.5987 -0.3758  0.0721
    3MOL0     C  339  10.533   6.666  10.818 -0.0842 -0.3550 -0.1259
    3MOL0     C  340  10.572   6.551  10.911 -0.1108 -0.5418 -0.3829
    3MOL0     C  341  10.591   6.448  10.977 -0.2141 -0.4720 -0.5319
    3MOL0     C  342  10.512   7.307  10.982  0.0784  0.1221  0.4205
    3MOL0     C  343  10.470   7.420  11.057 -0.1590  0.8012  0.4107
    3MOL0     C  344  10.551   7.466  11.170 -0.2263  0.9970 -0.2895
    3MOL0     H  345  10.177   7.584  11.411  2.8864  3.2741  0.1212
    3MOL0     H  346  10.069   7.761  11.540  1.4025 -3.0169  0.3657
    3MOL0     H  347  10.128   8.010  11.536  1.1481  0.9706 -0.6136
    3MOL0     H  348   9.983   7.945  11.618 -0.0882  1.9361  1.7879
    3MOL0     H  349   9.997   8.220  11.484 -0.4529  1.4130  1.0685
    3MOL0     H  350   9.868   8.157  11.588  0.2523  4.1103  2.7847
    3MOL0     H  351  10.023   8.207  11.797  2.9075 -4.1818 -0.4374
    3MOL0     H  352  10.157   8.214  11.692  1.1937  1.9922 -0.2820
    3MOL0     H  353  10.076   8.434  11.615 -0.5601  1.8205  1.5286
    3MOL0     H  354   9.909   8.389  11.653  0.1237 -1.1380  1.3769
    3MOL0     H  355  10.163   8.420  11.848 -0.8646  1.7157  2.5668
    3MOL0     H  356  10.000   8.399  11.902 -0.0302  2.7505  1.3789
    3MOL0     H  357  10.050   8.625  11.927  0.9685 -0.1252  0.1633
    3MOL0     H  358  10.134   8.625  11.759 -2.7382  5.7282 -1.7793
    3MOL0     H  359   9.930   8.658  11.656  1.2090  1.0689  0.1214
    3MOL0     H  360   9.952   8.779  11.775 -1.1448  0.4928  0.4050
    3MOL0     H  361   9.717   8.647  11.760  0.3588 -0.6318  0.7874
    3MOL0     H  362   9.812   8.516  11.842 -1.3784 -0.3971  0.7977
    3MOL0     H  363   9.880   8.528  12.059 -0.1179  0.1361 -1.6287
    3MOL0     H  364   9.817   8.779  12.352  0.7470 -0.6126  2.3773
    3MOL0     H  365   9.909   8.634  12.314  0.0338  0.8000 -1.3726
    3MOL0     H  366   9.683   8.500  12.340  1.3810 -2.2264  2.5542
    3MOL0     H  367   9.726   8.589  12.495 -0.1929  1.2326 -0.3238
    3MOL0     H  368   9.602   8.780  12.441 -0.9644  1.4500  0.6285
    3MOL0     H  369   9.542   8.695  12.292 -3.0350 -3.7321  0.9170
    3MOL0     H  370   9.499   8.578  12.567  1.9369  1.2539  0.2227
    3MOL0     H  371   9.398   8.700  12.493  0.4621 -0.2027  1.7497
    3MOL0     H  372   9.332   8.496  12.659  1.6268 -1.6989 -0.0447
    3MOL0     H  373   9.024   8.515  12.791  0.5672 -0.2508  0.9677
    3MOL0     H  374   9.189   8.466  12.833 -1.8517  1.1214  3.9749
    3MOL0     H  375   9.053   8.352  12.842 -0.4742  1.8767  2.1571
    3MOL0     H  376   8.730   8.021  12.385  0.0281 -0.7418 -0.9838
    3MOL0     H  377   8.506   7.971  12.353 -1.8624  1.4373 -1.1723
    3MOL0     H  378   8.217   8.215  12.620  0.5647  0.3434 -0.9465
    3MOL0     H  379   8.173   8.287  12.467 -2.0071 -0.1601 -0.1289
    3MOL0     H  380   8.114   8.008  12.564  0.4831  0.5500  0.4095
    3MOL0     H  381   8.021   8.143  12.634 -0.3825  1.4565 -0.3370
    3MOL0     H  382   7.901   8.183  12.415 -0.8023  1.4487  3.8401
    3MOL0     H  383   7.882   8.017  12.453 -1.1535  2.2439 -1.6854
    3MOL0     H  384   8.071   7.964  12.307 -0.4477 -0.2167  2.6064
    3MOL0     H  385   8.082   8.127  12.271  1.0177  0.5828  2.1972
    3MOL0     H  386   7.863   7.933  12.213 -0.4585  0.6934  2.5880
    3MOL0     H  387   7.812   8.104  12.203  0.7041 -1.1927 -1.2604
    3MOL0     H  388   8.032   7.967  12.051  0.8953 -0.2459  1.1493
    3MOL0     H  389   7.990   8.136  12.024  2.5547 -1.1754  1.4487
    3MOL0     H  390   7.754   7.983  12.013 -1.3160  0.4495 -1.9332
    3MOL0     H  391   7.879   7.861  11.975  0.8499  0.8470 -0.8167
    3MOL0     H  392   7.933   8.001  11.771  1.6650 -1.6059  3.0719
    3MOL0     H  393   7.826   8.131  11.817 -4.0195 -0.0729 -0.2471
    3MOL0     H  394   8.400   8.305  12.604 -3.1899 -4.2537  1.0162
    3MOL0     H  395   8.635   8.365  12.633 -1.4023  1.7107 -3.5386
    3MOL0     H  396   9.008   8.282  12.346  1.6196 -0.6454 -1.8692
    3MOL0     H  397   9.201   8.413  12.264 -3.2233  1.4334 -0.4035
    3MOL0     H  398   9.922   7.929  11.159  0.0037  1.3466  1.5704
    3MOL0     H  399  10.008   7.728  11.042 -1.3120  1.1374  0.8700
    3MOL0     H  400  10.210   7.521  10.864  3.8509  3.0830 -0.9152
    3MOL0     H  401  10.290   7.314  10.731 -0.3792  1.7204 -0.5974
    3MOL0     H  402  10.643   7.049  10.835 -0.0425 -0.6365  0.4853
    3MOL0     H  403  10.519   7.037  10.960 -2.2409 -0.7039  0.4411
    3MOL0     H  404  10.488   6.902  10.704  0.2531  0.8123  0.1938
    3MOL0     H  405  10.368   6.922  10.837  1.3711  2.3161  3.6414
    3MOL0     H  406  10.647   6.836  10.889 -1.8539  4.4569 -1.2174
    3MOL0     H  407  10.505   6.799  10.989 -1.8082  4.7649  0.0754
    3MOL0     H  408  10.615   6.664  10.746  0.6532 -1.5739  0.7096
    3MOL0     H  409  10.439   6.650  10.764 -1.1395  1.2689  1.1188
    3MOL0     H  410  10.635   6.372  11.037 -1.3861  0.0212  1.0145
    3MOL0     H  411  10.603   7.254  11.009 -0.9994 -1.8988  0.2850
    3MOL0     H  412  10.634   7.395  11.182  0.9316  1.8778 -2.4785
    3MOL0     H  413  10.583   7.569  11.151 -2.4712  1.4700 -1.8940
    3MOL0     H  414  10.497   7.460  11.264  1.0571  1.1859  0.4885
    4MOL0     O  415   0.186   3.616   8.350  0.6700 -0.5096  0.0546
    4MOL0     C  416   0.135   3.583   8.241  0.4995  0.1113 -1.1736
    4MOL0     O  417   0.031   3.505   8.226  0.1798 -0.7353 -0.4073
    4MOL0     C  418   0.031   3.399   8.316 -0.6032 -0.0256  0.9526
    4MOL0     C  419  -0.086   3.367   8.387  1.1248  0.2416  0.4206
    4MOL0     C  420  -0.080   3.257   8.470 -1.2956 -0.3508 -0.0059
    4MOL0     C  421   0.027   3.176   8.480 -0.5302  0.4139  0.1193
    4MOL0     O  422   0.044   3.077   8.570 -1.1408 -0.4028 -0.1384
    4MOL0     C  423  -0.078   3.030   8.639  1.3865 -1.0985 -0.7799
    4MOL0     C  424  -0.049   2.908   8.723  0.5689  0.3778 -0.3093
    4MOL0     C  425  -0.171   2.878   8.815 -0.6600 -0.1151 -0.1642
    4MOL0     C  426  -0.136   2.782   8.924  1.0402 -0.1245 -0.2444
    4MOL0     C  427  -0.250   2.783   9.030  0.4909  1.5063  0.1711
    4MOL0     C  428  -0.205   2.690   9.150 -1.5227 -0.1645 -0.6678
    4MOL0     C  429  -0.228   2.540   9.114  0.3540  0.7608  0.2060
    4MOL0     C  430  -0.367   2.491   9.156  0.1444  0.7038  0.8051
    4MOL0     N  431  -0.379   2.346   9.157 -0.9182  0.0733 -0.0177
    4MOL0     C  432  -0.357   2.266   9.269 -0.4375 -0.5259  0.4075
    4MOL0     C  433  -0.366   2.137   9.220 -1.0509 -0.0007 -0.1980
    4MOL0     C  434  -0.339   2.014   9.307 -0.2774  0.2603  0.1767
    4MOL0     C  435  -0.457   1.909   9.313  0.6425 -0.4080  0.2811
    4MOL0     C  436  -0.402   1.782   9.392  0.7776  0.4753  0.6458
    4MOL0     C  437  -0.513   1.677   9.411  0.1987  0.9018 -0.8471
    4MOL0     O  438  -0.645   1.707   9.370 -0.1388  0.1885  0.1826
    4MOL0     C  439  -0.743   1.763   9.450 -0.3494 -0.3075  1.0404
    4MOL0     C  440  -0.883   1.771   9.411 -0.1992 -0.0587 -0.0905
    4MOL0     C  441  -0.977   1.847   9.491  0.4626  0.5906  0.6249
    4MOL0     C  442  -1.123   1.851   9.432  0.7066  0.3536  0.4900
    4MOL0     C  443  -0.943   1.889   9.627 -0.1874  0.5206 -0.0723
    4MOL0     C  444  -1.026   1.948   9.722  0.4629  0.6212 -0.2553
    4MOL0     O  445  -0.964   2.010   9.825  0.3021 -0.3794  0.6330
    4MOL0     C  446  -1.028   2.046   9.940  0.2665  0.1486  0.7715
    4MOL0     C  447  -1.129   2.141   9.932 -0.1763  0.9752 -0.6413
    4MOL0     C  448  -1.209   2.172  10.047 -0.0773 -0.3983 -0.4302
    4MOL0     C  449  -1.196   2.100  10.163 -0.3331  0.1117 -0.0945
    4MOL0     O  450  -1.299   2.116  10.255 -0.2473 -0.3338  0.3532
    4MOL0     C  451  -1.268   2.094  10.397  0.4259  0.6443  0.6731
    4MOL0     C  452  -1.235   2.230  10.452  0.4431 -0.7900  0.0541
    4MOL0     C  453  -1.093   2.279  10.410 -0.1061 -0.4378 -0.3607
    4MOL0     C  454  -1.033   2.365  10.518  0.1523 -0.8302 -0.5703
    4MOL0     C  455  -0.882   2.376  10.502  0.3741 -0.8025  1.4693
    4MOL0     C  456  -0.820   2.425  10.626 -0.1270  0.0259  0.2886
    4MOL0     C  457  -0.667   2.415  10.611 -1.5992 -0.6046 -0.2080
    4MOL0     C  458  -0.599   2.450  10.738 -0.4845  0.3978 -0.1552
    4MOL0    Cl  459  -0.620   2.621  10.775 -0.1151 -0.7243  0.2088
    4MOL0     C  460  -1.078   2.011  10.177  0.2843  0.1146  0.6196
    4MOL0     C  461  -0.995   1.987  10.066  0.3210 -0.1847  0.0395
    4MOL0     O  462  -1.144   1.926   9.713  0.5448  0.1754  0.2434
    4MOL0     C  463  -0.802   1.884   9.653  0.4191  0.0855 -0.1995
    4MOL0     C  464  -0.711   1.815   9.575 -0.5687 -0.8617  0.2486
    4MOL0     N  465  -0.397   2.138   9.082 -1.0652 -0.4374  0.0578
    4MOL0     N  466  -0.383   2.262   9.046 -0.0583  0.5318  0.0024
    4MOL0     C  467   0.144   3.206   8.408  0.4173  0.0220  0.3453
    4MOL0     C  468   0.145   3.319   8.324  0.1375  0.3513  0.4168
    4MOL0     C  469   0.178   3.656   8.121  0.6789  0.6564  0.6029
    4MOL0     C  470   0.074   3.689   8.029  0.2086 -0.6030  0.2745
    4MOL0     C  471   0.101   3.771   7.921 -0.0197 -0.2574  0.7472
    4MOL0     C  472   0.229   3.792   7.879 -1.1663 -1.2242 -0.8267
    4MOL0     O  473   0.235   3.852   7.762 -0.5897  0.5239 -0.7141
    4MOL0     C  474   0.359   3.916   7.739 -0.6543 -0.8330  0.8336
    4MOL0     C  475   0.344   3.963   7.596  0.1518  0.5933  0.1516
    4MOL0     C  476   0.229   4.066   7.583 -0.2470 -0.6201  0.3284
    4MOL0     C  477   0.253   4.165   7.470  0.6537  0.1301  0.5506
    4MOL0     C  478   0.156   4.277   7.463 -0.3607 -0.4579  0.2058
    4MOL0     C  479   0.079   4.374   7.445 -0.1726 -1.0416  0.3259
    4MOL0     C  480   0.330   3.767   7.977 -1.0862  0.4220  0.0751
    4MOL0     C  481   0.311   3.687   8.093 -0.1527 -0.4004  0.3847
    4MOL0     C  482   0.433   3.651   8.179 -0.7064 -0.7862  0.4281
    4MOL0     H  483  -0.172   3.434   8.388 -0.7640 -1.8963  3.9371
    4MOL0     H  484  -0.165   3.244   8.537  0.3068 -3.9645  1.6142
    4MOL0     H  485  -0.147   3.002   8.559 -0.3943 -0.4580  0.4623
    4MOL0     H  486  -0.126   3.112   8.693 -0.0049 -1.2378 -1.7643
    4MOL0     H  487  -0.042   2.841   8.637 -0.9671  1.2402 -1.1675
    4MOL0     H  488   0.042   2.906   8.783  0.4452  0.7683 -0.1067
    4MOL0     H  489  -0.206   2.961   8.877 -1.9853  0.2089 -1.3079
    4MOL0     H  490  -0.250   2.836   8.753 -1.2819  1.4777 -0.5143
    4MOL0     H  491  -0.144   2.677   8.893 -4.0641 -0.9499  2.7078
    4MOL0     H  492  -0.040   2.811   8.967  0.2261  0.7491  1.0430
    4MOL0     H  493  -0.352   2.754   9.001  0.0614  0.1852  2.7342
    4MOL0     H  494  -0.261   2.886   9.066  1.6782  1.5659  0.3831
    4MOL0     H  495  -0.099   2.707   9.171 -0.2252 -2.8950 -3.9622
    4MOL0     H  496  -0.259   2.719   9.240 -1.4049 -0.3414 -0.5385
    4MOL0     H  497  -0.159   2.487   9.181  3.1557  2.4927 -1.1688
    4MOL0     H  498  -0.203   2.517   9.010 -1.4634 -1.9653  0.2538
    4MOL0     H  499  -0.369   2.510   9.264 -1.0272 -0.7802  1.0737
    4MOL0     H  500  -0.457   2.543   9.121 -1.3013 -1.2170  1.4763
    4MOL0     H  501  -0.336   2.297   9.371  0.9281 -2.1580  0.6688
    4MOL0     H  502  -0.315   2.049   9.407 -0.8532 -0.0491  0.4265
    4MOL0     H  503  -0.249   1.962   9.275  1.8784  2.1665  2.6615
    4MOL0     H  504  -0.541   1.957   9.364  1.1181  1.1808 -0.3732
    4MOL0     H  505  -0.480   1.893   9.207  0.8889  1.9781 -0.1809
    4MOL0     H  506  -0.320   1.744   9.330 -1.8808  0.8610 -3.5125
    4MOL0     H  507  -0.362   1.810   9.490  1.1906 -2.3021  1.3737
    4MOL0     H  508  -0.485   1.589   9.352 -2.4808  0.7916 -2.0829
    4MOL0     H  509  -0.509   1.646   9.516  0.1996  1.2854 -0.7333
    4MOL0     H  510  -0.917   1.721   9.321 -2.5425 -0.7463  1.0992
    4MOL0     H  511  -1.134   1.789   9.343  0.4939 -1.5859  1.8157
    4MOL0     H  512  -1.143   1.956   9.408 -0.4189  0.2299  0.8368
    4MOL0     H  513  -1.195   1.809   9.503 -0.4563  0.3388 -0.6740
    4MOL0     H  514  -1.155   2.190   9.839 -0.2737  3.8754  0.8131
    4MOL0     H  515  -1.285   2.245  10.019  0.2074 -0.8600 -2.6551
    4MOL0     H  516  -1.362   2.064  10.445  0.1804 -3.2106 -1.7213
    4MOL0     H  517  -1.194   2.019  10.425 -1.8328 -0.3683  4.9070
    4MOL0     H  518  -1.301   2.302  10.403 -1.8654 -2.6375  0.3113
    4MOL0     H  519  -1.259   2.234  10.558  0.7157 -1.7994  0.1554
    4MOL0     H  520  -1.099   2.328  10.312  2.2677 -1.4668 -1.0830
    4MOL0     H  521  -1.030   2.193  10.389  1.0958  0.4979 -0.6803
    4MOL0     H  522  -1.048   2.335  10.622  1.8276  4.0809  1.3877
    4MOL0     H  523  -1.086   2.461  10.511 -1.6530 -1.7191  0.3799
    4MOL0     H  524  -0.851   2.279  10.463  2.9572  0.0438  1.2355
    4MOL0     H  525  -0.866   2.443  10.417 -1.2538 -1.3986  0.6401
    4MOL0     H  526  -0.860   2.371  10.712  0.9553  0.5957  1.1691
    4MOL0     H  527  -0.845   2.528  10.649  0.1467 -0.6025  4.1145
    4MOL0     H  528  -0.624   2.478  10.533 -0.2230 -2.8427 -1.3533
    4MOL0     H  529  -0.636   2.318  10.572  0.3127  1.6503 -5.1299
    4MOL0     H  530  -0.492   2.428  10.728 -0.1527  1.5720  0.6921
    4MOL0     H  531  -0.632   2.378  10.813  0.0638 -2.1082 -2.1678
    4MOL0     H  532  -1.040   1.963  10.266 -0.1379 -2.2049 -0.3955
    4MOL0     H  533  -0.915   1.914  10.063  0.5729  0.1202 -0.9512
    4MOL0     H  534  -0.760   1.927   9.744 -0.5035 -0.9484  0.7326
    4MOL0     H  535  -0.610   1.812   9.613 -0.3604  1.2997 -0.0042
    4MOL0     H  536   0.228   3.143   8.434 -0.2924 -1.4394 -0.6977
    4MOL0     H  537   0.236   3.336   8.268  2.5745  0.6804  4.0958
    4MOL0     H  538  -0.033   3.669   8.040 -0.6889  1.3964 -3.3927
    4MOL0     H  539   0.011   3.791   7.864 -0.0535 -3.8190 -0.7019
    4MOL0     H  540   0.377   4.007   7.797  1.5444  0.8878 -2.2679
    4MOL0     H  541   0.442   3.846   7.752  2.6757  2.5962  0.0487
    4MOL0     H  542   0.323   3.876   7.533  1.2019  0.2876  0.2065
    4MOL0     H  543   0.437   4.005   7.556 -0.0539 -2.3919 -4.0904
    4MOL0     H  544   0.148   3.994   7.564  1.2566 -1.6677 -2.9206
    4MOL0     H  545   0.198   4.128   7.667 -1.7357 -0.0978 -0.5588
    4MOL0     H  546   0.250   4.111   7.375 -2.4486 -0.4777  0.8919
    4MOL0     H  547   0.356   4.199   7.483  0.9844 -0.8868  0.6785
    4MOL0     H  548   0.018   4.460   7.430 -0.5815 -0.9901  2.0604
    4MOL0     H  549   0.436   3.778   7.959 -0.7499  1.1051  2.1715
    4MOL0     H  550   0.425   3.707   8.272  1.5675  1.6454 -0.7052
    4MOL0     H  551   0.444   3.548   8.214  2.4688 -0.3387  1.0790
    4MOL0     H  552   0.525   3.685   8.131 -1.6570 -0.6177 -1.3514
    5MOL0     O  553   9.717   5.051   3.413  0.4148 -0.4330 -0.3714
    5MOL0     C  554   9.824   5.079   3.375 -0.2262 -1.0204 -0.4233
    5MOL0     O  555   9.929   4.988   3.382  0.0951 -0.0302  0.5147
    5MOL0     C  556   9.896   4.851   3.392 -0.3732  0.3616  0.0171
    5MOL0     C  557   9.827   4.782   3.493  0.5446 -0.9483 -0.8929
    5MOL0     C  558   9.815   4.642   3.495  0.3548 -0.7830 -0.2788
    5MOL0     C  559   9.860   4.555   3.401  0.6408  0.5365  0.0251
    5MOL0     O  560   9.846   4.418   3.403  0.2407  0.6650 -0.3032
    5MOL0     C  561   9.904   4.339   3.303 -0.6818  0.8314  0.3977
    5MOL0     C  562   9.877   4.196   3.333 -0.2275 -0.0785  0.6376
    5MOL0     C  563   9.730   4.155   3.350 -0.2540 -0.3801  0.1280
    5MOL0     C  564   9.656   4.122   3.214  0.4394  0.3876  0.1900
    5MOL0     C  565   9.501   4.111   3.241 -0.7861 -0.4085  0.1227
    5MOL0     C  566   9.435   4.120   3.102 -0.6082  0.2977 -0.0204
    5MOL0     C  567   9.294   4.149   3.112  0.3897  0.5227 -0.3952
    5MOL0     C  568   9.248   4.191   2.976 -0.1732 -0.0300 -0.1521
    5MOL0     N  569   9.110   4.209   2.971  0.4131  0.2587  0.0184
    5MOL0     C  570   9.042   4.309   2.903 -0.2255  0.2437 -0.0182
    5MOL0     C  571   8.907   4.277   2.921 -0.2974 -0.0441 -0.6875
    5MOL0     C  572   8.791   4.349   2.853 -0.0530 -0.5594  0.1986
    5MOL0     C  573   8.760   4.487   2.915 -0.5842  0.9731  0.0792
    5MOL0     C  574   8.669   4.584   2.833  0.0455  0.2742  0.2475
    5MOL0     C  575   8.531   4.523   2.786 -0.0266  0.9884  0.0121
    5MOL0     O  576   8.535   4.433   2.677  0.0840  0.0744  0.0072
    5MOL0     C  577   8.448   4.490   2.586 -0.1394  0.4110 -0.4014
    5MOL0     C  578   8.474   4.611   2.518  0.0802 -0.2173 -0.0334
    5MOL0     C  579   8.375   4.663   2.427 -0.0323  0.4225  0.5195
    5MOL0     C  580   8.397   4.804   2.373  0.6210  0.5999 -0.6675
    5MOL0     C  581   8.257   4.598   2.409  0.1288 -0.4396  0.1810
    5MOL0     C  582   8.139   4.636   2.327 -0.8003  0.0238 -1.0769
    5MOL0     O  583   8.014   4.616   2.380 -0.2094  0.1796  0.6055
    5MOL0     C  584   7.901   4.653   2.312  0.0929  0.0895  0.4800
    5MOL0     C  585   7.895   4.776   2.235 -0.5949  0.0421 -0.5394
    5MOL0     C  586   7.772   4.812   2.176  0.0827  0.4997  0.2257
    5MOL0     C  587   7.651   4.733   2.185  0.1098 -0.2313 -0.0526
    5MOL0     O  588   7.530   4.760   2.117  0.2314 -0.3620 -0.7336
    5MOL0     C  589   7.494   4.902   2.129  0.6482  0.1775 -0.7884
    5MOL0     C  590   7.433   4.922   2.266 -0.1775  0.0105 -0.4341
    5MOL0     C  591   7.363   5.058   2.288  0.2111  0.1054  0.1607
    5MOL0     C  592   7.448   5.182   2.250 -0.3054 -0.0403  0.0655
    5MOL0     C  593   7.351   5.303   2.276  0.0606  0.4754 -0.2748
    5MOL0     C  594   7.264   5.328   2.151 -0.2757 -0.1029 -0.4865
    5MOL0     C  595   7.216   5.465   2.154  0.0206 -0.3907 -0.6740
    5MOL0     C  596   7.149   5.517   2.031  0.0514  0.6658 -0.2589
    5MOL0    Cl  597   7.241   5.464   1.890 -0.1928 -0.3730 -0.4500
    5MOL0     C  598   7.673   4.615   2.255 -0.6657  1.7076  0.7312
    5MOL0     C  599   7.790   4.574   2.311 -0.4441  0.2522  0.2200
    5MOL0     O  600   8.172   4.689   2.224 -0.1900 -0.6044 -0.3842
    5MOL0     C  601   8.239   4.474   2.468  0.4011 -0.1213 -0.9732
    5MOL0     C  602   8.337   4.415   2.544  0.1461 -0.7100 -0.2876
    5MOL0     N  603   8.895   4.168   3.013 -0.5908 -0.2340  0.5312
    5MOL0     N  604   9.020   4.129   3.031 -0.4051 -0.0411  0.8414
    5MOL0     C  605   9.928   4.620   3.298  0.4319 -0.1903 -0.3323
    5MOL0     C  606   9.949   4.764   3.297  0.0331  0.9954  0.8565
    5MOL0     C  607   9.846   5.208   3.304  0.2187 -0.4826  0.4390
    5MOL0     C  608   9.934   5.212   3.193  0.8269  0.0125 -0.0065
    5MOL0     C  609   9.950   5.329   3.117  0.4578  0.6757 -0.1931
    5MOL0     C  610   9.915   5.451   3.173 -0.2108  0.3649 -0.3277
    5MOL0     O  611   9.968   5.563   3.120  0.8208  0.3151  0.3887
    5MOL0     C  612   9.951   5.582   2.978 -0.8704 -0.9965 -0.4946
    5MOL0     C  613  10.011   5.723   2.945  0.1119  0.6565  0.3550
    5MOL0     C  614  10.157   5.750   2.965 -0.1031 -0.7801  0.0924
    5MOL0     C  615  10.253   5.647   2.920  0.0507  0.0322 -0.3058
    5MOL0     C  616  10.262   5.525   3.003  1.1849 -0.2397  0.4864
    5MOL0     C  617  10.271   5.425   3.077  0.2691  0.5435  0.2408
    5MOL0     C  618   9.837   5.457   3.288  0.5554  0.6439 -0.8807
    5MOL0     C  619   9.801   5.335   3.353 -0.3550 -0.2629  1.0176
    5MOL0     C  620   9.731   5.351   3.489 -0.4033  1.0432 -1.2413
    5MOL0     H  621   9.804   4.837   3.584  2.1224 -0.7462 -0.5916
    5MOL0     H  622   9.768   4.592   3.579 -0.1040  2.1921  1.3552
    5MOL0     H  623  10.011   4.357   3.288 -0.6409 -0.2813 -0.8390
    5MOL0     H  624   9.851   4.348   3.208 -0.0113 -3.5837 -0.6288
    5MOL0     H  625   9.931   4.135   3.260  0.0515  0.1352  0.6628
    5MOL0     H  626   9.915   4.164   3.430 -2.0973 -0.1636  1.3842
    5MOL0     H  627   9.728   4.062   3.409 -0.5634 -0.3737  0.1291
    5MOL0     H  628   9.683   4.227   3.418  2.4495  0.3022  1.4029
    5MOL0     H  629   9.674   4.215   3.159 -2.2638  0.0687 -1.4242
    5MOL0     H  630   9.701   4.040   3.157  3.6843  1.5274  0.9181
    5MOL0     H  631   9.467   4.205   3.286 -2.7187 -0.4747 -1.0997
    5MOL0     H  632   9.466   4.025   3.299  2.9391 -0.9150  1.9005
    5MOL0     H  633   9.489   4.198   3.048 -0.7599 -0.0550 -0.6887
    5MOL0     H  634   9.444   4.027   3.046  0.8880  1.0462 -1.1119
    5MOL0     H  635   9.265   4.233   3.175 -0.6891  0.6130 -0.9939
    5MOL0     H  636   9.244   4.056   3.142 -0.2280  0.9362 -0.1235
    5MOL0     H  637   9.292   4.287   2.945 -0.9410 -0.1018 -1.5547
    5MOL0     H  638   9.287   4.125   2.898 -1.2065  1.1453 -1.7333
    5MOL0     H  639   9.083   4.388   2.842  2.5192 -1.4898 -0.5840
    5MOL0     H  640   8.703   4.285   2.854 -0.2341 -0.3139  0.9559
    5MOL0     H  641   8.822   4.362   2.749  0.3342 -1.9844  0.1134
    5MOL0     H  642   8.707   4.477   3.010  0.4787 -0.2707  0.5634
    5MOL0     H  643   8.862   4.524   2.930  0.6581 -1.5276 -1.5564
    5MOL0     H  644   8.642   4.667   2.898 -4.3029 -1.9712  1.7537
    5MOL0     H  645   8.721   4.630   2.749  1.3074  2.0402  1.9288
    5MOL0     H  646   8.493   4.465   2.870  2.2778 -2.6948 -1.2498
    5MOL0     H  647   8.461   4.606   2.772 -3.4529 -1.6116  0.6323
    5MOL0     H  648   8.567   4.666   2.530  1.5485 -2.4654 -0.4320
    5MOL0     H  649   8.381   4.812   2.266  0.4451 -1.2684 -0.8200
    5MOL0     H  650   8.495   4.841   2.404  1.1893 -1.4402  0.1458
    5MOL0     H  651   8.324   4.869   2.423  1.9318  0.1713  2.0397
    5MOL0     H  652   7.979   4.844   2.224 -0.1270  0.0116  2.0178
    5MOL0     H  653   7.772   4.907   2.124 -0.3537  0.2540 -0.2318
    5MOL0     H  654   7.574   4.974   2.112  0.7272  0.0399 -0.9986
    5MOL0     H  655   7.415   4.917   2.055  0.0271 -0.5581 -0.3052
    5MOL0     H  656   7.369   4.838   2.293  0.2370 -1.1278 -2.7587
    5MOL0     H  657   7.520   4.909   2.331  1.2128 -0.4008 -2.2707
    5MOL0     H  658   7.335   5.063   2.394 -2.3009  1.6266 -0.4891
    5MOL0     H  659   7.274   5.056   2.224 -0.7193 -1.6731  1.3992
    5MOL0     H  660   7.499   5.188   2.153 -0.1871 -0.0238  0.1289
    5MOL0     H  661   7.521   5.197   2.329 -2.1530  4.4083  1.2516
    5MOL0     H  662   7.290   5.278   2.363 -1.6263 -1.4365 -1.8913
    5MOL0     H  663   7.408   5.391   2.304 -0.3461  0.2893  1.2234
    5MOL0     H  664   7.183   5.255   2.136  1.5649 -1.5967 -4.6567
    5MOL0     H  665   7.325   5.308   2.062 -1.1478  0.3451 -1.2055
    5MOL0     H  666   7.293   5.540   2.175  0.2282 -1.5981  4.1288
    5MOL0     H  667   7.147   5.472   2.239 -1.4045 -0.7096 -1.7592
    5MOL0     H  668   7.143   5.625   2.045  0.1251  0.6532 -0.1259
    5MOL0     H  669   7.046   5.479   2.028 -0.5502  2.2135 -0.2747
    5MOL0     H  670   7.583   4.554   2.262  1.7884 -2.6803 -1.4441
    5MOL0     H  671   7.784   4.486   2.375 -4.3319  0.5514  0.5195
    5MOL0     H  672   8.143   4.422   2.463  1.4784 -2.0781 -2.9735
    5MOL0     H  673   8.320   4.316   2.586 -0.4904 -0.1196  0.9163
    5MOL0     H  674   9.947   4.555   3.213 -1.3111 -0.3710 -0.6213
    5MOL0     H  675   9.983   4.811   3.205 -0.3912 -0.9530 -0.3548
    5MOL0     H  676   9.973   5.115   3.167 -0.1679 -0.6389  0.8811
    5MOL0     H  677  10.026   5.305   3.043 -0.3608 -1.3820 -0.4146
    5MOL0     H  678  10.018   5.512   2.926  2.0423  0.9770  0.3157
    5MOL0     H  679   9.844   5.569   2.961 -1.3192  0.6494  0.8299
    5MOL0     H  680   9.953   5.796   3.001 -1.2160 -0.0457 -0.0560
    5MOL0     H  681  10.000   5.752   2.840 -0.3286  4.8994  1.4226
    5MOL0     H  682  10.173   5.846   2.915 -0.2810  0.1487  1.7497
    5MOL0     H  683  10.194   5.773   3.065  2.9150  0.8623 -1.2524
    5MOL0     H  684  10.352   5.693   2.911 -0.8744  2.4942  1.1037
    5MOL0     H  685  10.221   5.618   2.819 -1.4331 -0.8292  0.3750
    5MOL0     H  686  10.285   5.344   3.145  0.1164  0.0470 -0.3066
    5MOL0     H  687   9.804   5.553   3.327  0.6736  0.8962 -1.3866
    5MOL0     H  688   9.744   5.452   3.530 -2.7273  1.3218 -1.0731
    5MOL0     H  689   9.628   5.358   3.455 -0.2774 -2.0229 -2.5629
    5MOL0     H  690   9.731   5.262   3.553 -0.3930  0.1484 -2.4604
    6MOL0     O  691   9.460  10.281  11.513  0.2416  0.2337  0.0598
    6MOL0     C  692   9.412  10.394  11.521  0.7262  0.7215 -0.3426
    6MOL0     O  693   9.306  10.424  11.593  0.9019 -0.7837  0.3826
    6MOL0     C  694   9.251  10.329  11.671  0.6411  0.2936 -0.2315
    6MOL0     C  695   9.113  10.319  11.664  0.3139 -0.7200  0.5320
    6MOL0     C  696   9.055  10.216  11.724  0.3358  0.3013  0.4913
    6MOL0     C  697   9.128  10.121  11.799  0.0499 -0.2350 -0.2330
    6MOL0     O  698   9.083  10.018  11.869  0.3964  0.0635  0.0446
    6MOL0     C  699   8.944  10.029  11.917  0.4220  0.9618 -0.4028
    6MOL0     C  700   8.918   9.929  12.029  1.0049 -0.3727  0.4518
    6MOL0     C  701   8.966   9.786  11.987  0.0305  0.2233 -0.1453
    6MOL0     C  702   8.918   9.684  12.102  0.9255  0.2948  0.0174
    6MOL0     C  703   8.996   9.689  12.227 -0.0075 -0.9014  0.8850
    6MOL0     C  704   8.915   9.684  12.354  0.2852  0.4140 -0.7638
    6MOL0     C  705   8.795   9.582  12.352  0.2296 -0.3901  0.5411
    6MOL0     C  706   8.747   9.557  12.493  0.2527 -0.1745 -0.0397
    6MOL0     N  707   8.642   9.461  12.504  0.4437  0.2837  0.1572
    6MOL0     C  708   8.555   9.453  12.605  0.0687  0.1983 -0.5327
    6MOL0     C  709   8.470   9.352  12.573 -0.1852  0.5663  0.1354
    6MOL0     C  710   8.377   9.292  12.678  0.0810 -0.3411 -0.4431
    6MOL0     C  711   8.243   9.244  12.634  0.4125  0.2381  0.6983
    6MOL0     C  712   8.174   9.172  12.755 -0.5669  0.0188 -0.0629
    6MOL0     C  713   8.034   9.146  12.739  0.2736 -0.2025  0.0505
    6MOL0     O  714   8.008   9.068  12.628 -0.0119 -0.1130 -0.6885
    6MOL0     C  715   7.873   9.049  12.584  0.4812 -0.1068 -0.0631
    6MOL0     C  716   7.759   9.116  12.629 -0.5882 -0.9323 -1.2417
    6MOL0     C  717   7.619   9.078  12.603 -0.4016  0.6366  0.1052
    6MOL0     C  718   7.511   9.164  12.651  0.3379  0.1346 -0.4048
    6MOL0     C  719   7.597   8.977  12.520  0.4550 -1.3992 -0.2156
    6MOL0     C  720   7.462   8.918  12.492  0.0010  0.0401  0.8421
    6MOL0     O  721   7.470   8.832  12.396 -0.7447  0.6063  0.6462
    6MOL0     C  722   7.352   8.805  12.319  0.1258 -0.3469  0.4028
    6MOL0     C  723   7.265   8.909  12.274  0.0307  0.0455  0.0996
    6MOL0     C  724   7.144   8.892  12.208 -0.3963 -0.6017  0.8392
    6MOL0     C  725   7.104   8.759  12.174  0.6081 -0.3993 -0.2348
    6MOL0     O  726   7.002   8.731  12.093  1.0176  0.3253 -0.4586
    6MOL0     C  727   6.998   8.792  11.964  0.0660 -0.0939 -0.0390
    6MOL0     C  728   6.873   8.867  11.931  0.8886  0.0913 -0.5312
    6MOL0     C  729   6.883   8.950  11.802 -0.2723 -0.4715 -0.2748
    6MOL0     C  730   6.743   8.994  11.758  0.4206  0.2523  0.1108
    6MOL0     C  731   6.748   9.117  11.666 -0.2821 -0.9763 -1.1076
    6MOL0     C  732   6.618   9.142  11.597  0.4013  0.9005 -0.3261
    6MOL0     C  733   6.622   9.258  11.499  0.4994 -0.3055 -0.0034
    6MOL0     C  734   6.478   9.272  11.456  0.1119  0.4420  0.0193
    6MOL0    Cl  735   6.442   9.395  11.335 -0.2616 -0.2577 -0.0963
    6MOL0     C  736   7.178   8.658  12.229 -0.4102 -0.0516 -0.3106
    6MOL0     C  737   7.295   8.680  12.303  0.6551 -0.1946  0.0690
    6MOL0     O  738   7.353   8.959  12.538  0.0157  0.2713  0.4701
    6MOL0     C  739   7.708   8.922  12.463  0.1500 -0.5389 -0.1365
    6MOL0     C  740   7.840   8.946  12.497 -0.2194 -0.6935 -0.1737
    6MOL0     N  741   8.489   9.308  12.441 -0.4544 -0.4072  0.5180
    6MOL0     N  742   8.605   9.370  12.408 -0.1332 -0.1824  0.7023
    6MOL0     C  743   9.270  10.128  11.803  0.3248 -0.0357 -0.0787
    6MOL0     C  744   9.333  10.239  11.744  0.0654 -0.1160  0.3799
    6MOL0     C  745   9.468  10.501  11.435 -0.6124  1.1266 -1.0785
    6MOL0     C  746   9.604  10.475  11.393  0.7499  0.4698  0.1315
    6MOL0     C  747   9.667  10.576  11.313  0.9318 -0.0045 -0.4680
    6MOL0     C  748   9.606  10.692  11.272  0.2015 -0.2850  0.0647
    6MOL0     O  749   9.670  10.784  11.186  0.9364 -0.7138 -0.3419
    6MOL0     C  750   9.807  10.826  11.202  0.1336  0.1234  0.0508
    6MOL0     C  751   9.854  10.877  11.334  0.0506 -0.4007 -0.8500
    6MOL0     C  752   9.972  10.969  11.336  0.0034  0.6716 -0.9975
    6MOL0     C  753  10.084  10.920  11.244  0.3336  0.2352 -0.2006
    6MOL0     C  754  10.146  10.804  11.301 -0.1890  0.6721 -0.3056
    6MOL0     C  755  10.210  10.707  11.350 -0.6263 -1.0764  0.6868
    6MOL0     C  756   9.471  10.704  11.309  0.3629  0.2240 -0.1461
    6MOL0     C  757   9.397  10.612  11.392 -0.2397  0.2772  0.0469
    6MOL0     C  758   9.254  10.637  11.422  0.6445 -0.8156  0.1553
    6MOL0     H  759   9.058  10.387  11.600  0.2492 -0.1996  1.1304
    6MOL0     H  760   8.947  10.208  11.708  0.3057 -0.1623  0.8947
    6MOL0     H  761   8.875  10.008  11.834 -2.6525  4.2105  1.0665
    6MOL0     H  762   8.918  10.128  11.956  2.9696  1.3336  0.5918
    6MOL0     H  763   8.969   9.972  12.116  0.4832  0.2306  0.4682
    6MOL0     H  764   8.811   9.921  12.050  0.6992  0.8109 -0.5166
    6MOL0     H  765   8.912   9.758  11.896  0.2321  3.2910 -1.3277
    6MOL0     H  766   9.074   9.779  11.968  0.3275  0.8925  1.1729
    6MOL0     H  767   8.816   9.714  12.126  0.3570  1.3797 -3.2814
    6MOL0     H  768   8.912   9.578  12.075  0.2043 -0.5235  2.9996
    6MOL0     H  769   9.055   9.781  12.236 -1.1917 -0.0551  0.1743
    6MOL0     H  770   9.066   9.605  12.221 -2.3382 -2.7987 -1.2997
    6MOL0     H  771   8.988   9.650  12.428 -0.4759 -0.3587 -0.3558
    6MOL0     H  772   8.875   9.781  12.382 -1.4964 -1.2836  3.3462
    6MOL0     H  773   8.842   9.494  12.309  1.7223  1.1850 -1.2037
    6MOL0     H  774   8.715   9.613  12.285  0.9592 -1.4577 -0.8789
    6MOL0     H  775   8.828   9.515  12.553  1.6538 -0.1784 -1.8448
    6MOL0     H  776   8.716   9.654  12.533 -1.1077  0.2884 -2.0811
    6MOL0     H  777   8.565   9.490  12.707 -1.3073  0.6282 -0.5274
    6MOL0     H  778   8.358   9.368  12.755 -0.0304 -1.3229  0.5230
    6MOL0     H  779   8.437   9.216  12.728  0.2403  1.1882  1.8517
    6MOL0     H  780   8.179   9.325  12.596 -0.8689 -0.4778  1.2504
    6MOL0     H  781   8.258   9.166  12.559 -0.4152 -0.4319  1.2065
    6MOL0     H  782   8.216   9.072  12.770  1.5455  1.2458  3.3837
    6MOL0     H  783   8.191   9.223  12.850  0.6480  0.4538 -0.4912
    6MOL0     H  784   7.987   9.095  12.824  0.4987 -2.2247 -0.9734
    6MOL0     H  785   7.976   9.238  12.738 -0.7308 -0.6958  3.0815
    6MOL0     H  786   7.771   9.208  12.686 -3.9467 -0.9497 -0.3167
    6MOL0     H  787   7.439   9.103  12.705 -1.7948  1.7628 -1.2623
    6MOL0     H  788   7.464   9.208  12.563  1.1246  0.1247 -0.8401
    6MOL0     H  789   7.546   9.244  12.717  1.0798  0.6219 -1.3528
    6MOL0     H  790   7.303   9.008  12.294  0.6544  0.2302 -1.8234
    6MOL0     H  791   7.093   8.979  12.168 -0.9635 -1.8647 -1.3434
    6MOL0     H  792   7.088   8.852  11.947  0.0336  0.2596  0.9639
    6MOL0     H  793   7.008   8.705  11.899 -2.5794 -3.5853  3.6892
    6MOL0     H  794   6.799   8.787  11.924  2.6707 -1.6487 -0.2130
    6MOL0     H  795   6.847   8.928  12.018  1.2136  2.8926 -2.2602
    6MOL0     H  796   6.928   8.892  11.721  0.9866 -0.6332  0.5020
    6MOL0     H  797   6.951   9.033  11.821 -2.3003  1.6228 -1.6701
    6MOL0     H  798   6.689   9.019  11.850  2.4415  3.9882  0.5002
    6MOL0     H  799   6.694   8.907  11.713  0.4167  0.8213 -1.0051
    6MOL0     H  800   6.770   9.199  11.736  2.6981  0.6979 -3.7611
    6MOL0     H  801   6.826   9.113  11.590 -0.7187 -1.9185 -1.5121
    6MOL0     H  802   6.548   9.168  11.678 -0.0320 -2.2985  0.4552
    6MOL0     H  803   6.585   9.048  11.553  1.8206  0.0794  0.3140
    6MOL0     H  804   6.693   9.244  11.417  1.3478  1.0180  0.4641
    6MOL0     H  805   6.652   9.351  11.549 -3.8506  1.0817  0.4746
    6MOL0     H  806   6.415   9.281  11.545 -2.4940 -5.4794 -0.7526
    6MOL0     H  807   6.446   9.171  11.430  2.5999 -0.5216  0.4805
    6MOL0     H  808   7.132   8.559  12.225  0.8385 -0.8113  1.9655
    6MOL0     H  809   7.360   8.602  12.340  0.9936  0.2409  0.4057
    6MOL0     H  810   7.692   8.840  12.394  2.5195 -2.0792  0.9742
    6MOL0     H  811   7.929   8.890  12.470 -0.3326 -0.5684 -0.8197
    6MOL0     H  812   9.325  10.047  11.850 -1.1632 -1.6260 -0.9729
    6MOL0     H  813   9.442  10.237  11.747  0.0988  0.0125 -0.5184
    6MOL0     H  814   9.648  10.385  11.434 -1.6716 -0.6310  0.5179
    6MOL0     H  815   9.760  10.531  11.278  0.3423 -0.7905 -1.0610
    6MOL0     H  816   9.874  10.752  11.157  0.4868  0.3080  0.2750
    6MOL0     H  817   9.812  10.910  11.132 -2.6486  0.4362  0.1112
    6MOL0     H  818   9.869  10.789  11.397 -3.5304 -0.8159 -0.3468
    6MOL0     H  819   9.769  10.928  11.380 -1.3905  0.0010 -3.6711
    6MOL0     H  820   9.943  11.072  11.314 -1.3802  1.0811  2.1460
    6MOL0     H  821   9.996  10.966  11.443 -1.5908  1.3612 -0.6004
    6MOL0     H  822  10.171  10.987  11.242 -0.4522  1.3044  0.2429
    6MOL0     H  823  10.041  10.909  11.144 -0.3729 -1.4397  0.2724
    6MOL0     H  824  10.265  10.626  11.393  2.2584 -0.9843 -2.4421
    6MOL0     H  825   9.419  10.790  11.269 -1.4045  0.8312  3.0931
    6MOL0     H  826   9.189  10.552  11.402  0.2890 -1.2720  2.8596
    6MOL0     H  827   9.238  10.675  11.524 -0.5500  3.9191 -1.5317
    6MOL0     H  828   9.218  10.713  11.352  2.6822  0.9788  0.9416
    7MOL0     O  829   2.316   1.572  11.159 -0.2567 -0.0151  0.5763
    7MOL0     C  830   2.383   1.493  11.222  0.7222 -0.9813  0.1763
    7MOL0     O  831   2.457   1.400  11.162  0.1174 -0.1030 -0.4049
    7MOL0     C  832   2.499   1.411  11.029  0.0170  0.2963 -0.6318
    7MOL0     C  833   2.468   1.509  10.925  0.8382  0.8855 -0.0200
    7MOL0     C  834   2.514   1.491  10.793 -0.0716  0.0133  0.1398
    7MOL0     C  835   2.594   1.385  10.756 -0.3952  0.7435  0.2024
    7MOL0     O  836   2.624   1.377  10.625  0.1264  0.1879  0.3557
    7MOL0     C  837   2.730   1.291  10.573 -0.2095 -0.4827  0.2268
    7MOL0     C  838   2.700   1.140  10.555 -0.3695 -0.4725  0.0463
    7MOL0     C  839   2.813   1.057  10.488  0.5219  0.0902  0.6856
    7MOL0     C  840   2.821   1.072  10.335  0.9379  0.3982  1.0542
    7MOL0     C  841   2.933   0.987  10.275  0.2496  0.5723 -0.4889
    7MOL0     C  842   2.953   0.996  10.121 -0.3106  1.1582  0.0322
    7MOL0     C  843   2.849   0.905  10.059  0.3576 -0.7875  0.1370
    7MOL0     C  844   2.891   0.890   9.917  0.3788  0.5995 -0.0068
    7MOL0     N  845   2.912   1.019   9.845  0.3548 -0.5365 -0.3478
    7MOL0     C  846   2.844   1.139   9.837  0.4568 -0.3918 -0.4404
    7MOL0     C  847   2.894   1.217   9.738 -0.2028  0.7536  0.8459
    7MOL0     C  848   2.846   1.352   9.692 -0.0398 -0.4301  0.2470
    7MOL0     C  849   2.791   1.353   9.550 -0.5053  0.0407  0.3298
    7MOL0     C  850   2.661   1.273   9.536  0.9620 -0.9301  0.2658
    7MOL0     C  851   2.670   1.195   9.409  0.0308  0.3669  0.8409
    7MOL0     O  852   2.673   1.267   9.292  0.5937  0.1107  0.0361
    7MOL0     C  853   2.655   1.200   9.175  0.3319  0.5846 -0.4909
    7MOL0     C  854   2.664   1.065   9.166  0.4884  0.5991 -0.5764
    7MOL0     C  855   2.647   0.994   9.045  0.3687 -0.1132 -0.3611
    7MOL0     C  856   2.670   0.847   9.063 -0.0800 -0.3610  0.5976
    7MOL0     C  857   2.594   1.066   8.934 -1.0021  0.2575  0.2738
    7MOL0     C  858   2.564   1.011   8.800  0.7755  0.4835 -0.0307
    7MOL0     O  859   2.578   1.095   8.705 -0.1734  0.3584  0.0459
    7MOL0     C  860   2.555   1.049   8.573  0.3843  0.2896 -0.4351
    7MOL0     C  861   2.429   1.053   8.517 -0.3491 -0.0370  0.4241
    7MOL0     C  862   2.405   1.039   8.387 -0.0219 -0.2946 -0.2555
    7MOL0     C  863   2.497   0.989   8.299 -0.4389 -0.3362  0.7300
    7MOL0     O  864   2.460   0.980   8.166  0.1556 -0.1412 -0.2253
    7MOL0     C  865   2.563   0.992   8.070 -0.4153 -0.8322 -0.0431
    7MOL0     C  866   2.499   0.945   7.938 -0.4933  0.1561  0.8076
    7MOL0     C  867   2.435   1.052   7.862  0.2238 -0.3288 -0.2030
    7MOL0     C  868   2.289   1.018   7.827  0.6897  0.7847  0.0586
    7MOL0     C  869   2.225   1.111   7.728  0.4929 -0.0215  0.0540
    7MOL0     C  870   2.081   1.073   7.709  0.9604  0.3944 -0.2341
    7MOL0     C  871   2.008   1.155   7.606  0.3920  0.8718  0.0865
    7MOL0     C  872   1.871   1.106   7.593  1.0462 -0.5398  0.2939
    7MOL0    Cl  873   1.793   1.186   7.450  0.0576  0.1191  0.1135
    7MOL0     C  874   2.625   0.967   8.356  0.4689  0.2140  0.2047
    7MOL0     C  875   2.652   0.986   8.487 -0.7105 -0.4089 -0.6966
    7MOL0     O  876   2.533   0.892   8.785  0.7653  0.6307 -0.0840
    7MOL0     C  877   2.574   1.206   8.948  0.1727 -0.4646 -0.7914
    7MOL0     C  878   2.614   1.270   9.061  0.6763 -0.9537  0.1649
    7MOL0     N  879   2.998   1.140   9.682  0.4490 -0.1765  0.8618
    7MOL0     N  880   3.008   1.027   9.744 -0.5147  0.1090  1.5640
    7MOL0     C  881   2.631   1.293  10.861  0.6066  0.1435  0.3824
    7MOL0     C  882   2.576   1.304  10.989  0.2668 -0.5382 -0.2357
    7MOL0     C  883   2.381   1.490  11.374  0.1919  0.0467 -0.0450
    7MOL0     C  884   2.482   1.406  11.439  0.9080  0.2447 -0.9133
    7MOL0     C  885   2.479   1.379  11.575  0.1358 -0.4295 -0.7098
    7MOL0     C  886   2.383   1.436  11.663  0.7737 -0.0119  0.1235
    7MOL0     O  887   2.405   1.418  11.801 -0.5657 -0.4111 -0.6149
    7MOL0     C  888   2.318   1.473  11.900 -0.7241  0.4054 -0.6884
    7MOL0     C  889   2.193   1.382  11.925 -1.0559  0.5656 -0.7618
    7MOL0     C  890   2.233   1.237  11.968 -0.3800 -0.9512 -0.3818
    7MOL0     C  891   2.316   1.222  12.092 -0.2885  0.2496 -0.3254
    7MOL0     C  892   2.329   1.076  12.126 -0.3891 -1.2876  0.3360
    7MOL0     C  893   2.342   0.956  12.131 -0.5879  0.2407  0.0034
    7MOL0     C  894   2.281   1.509  11.600 -0.8832 -0.3610  0.1731
    7MOL0     C  895   2.278   1.537  11.464  0.1918 -0.0389 -0.0082
    7MOL0     C  896   2.157   1.599  11.413  0.1346 -0.2382  0.5781
    7MOL0     H  897   2.413   1.600  10.948 -1.2160 -0.5161  0.8948
    7MOL0     H  898   2.483   1.563  10.718 -0.9981  1.2380  1.6337
    7MOL0     H  899   2.817   1.295  10.640 -0.2127 -1.6218  0.3295
    7MOL0     H  900   2.769   1.333  10.480 -1.9521  1.3468  0.2493
    7MOL0     H  901   2.670   1.092  10.648  1.5633 -0.3451  0.7964
    7MOL0     H  902   2.623   1.138  10.477 -0.4244  1.2583  0.0120
    7MOL0     H  903   2.911   1.076  10.533  0.5944  1.1044  0.1296
    7MOL0     H  904   2.795   0.953  10.515 -3.9777  1.3546  3.8545
    7MOL0     H  905   2.725   1.043  10.291  1.5490  0.3322 -0.3049
    7MOL0     H  906   2.841   1.175  10.306  1.0852  0.8476  2.6545
    7MOL0     H  907   2.902   0.882  10.288 -2.1859  1.2921 -0.0465
    7MOL0     H  908   3.024   1.016  10.328 -0.5531  4.3717 -0.9169
    7MOL0     H  909   2.941   1.102  10.099 -1.5520  0.9024 -0.6072
    7MOL0     H  910   3.055   0.966  10.095  0.2746  1.5818  1.7272
    7MOL0     H  911   2.759   0.966  10.063  0.5255  0.0488 -3.9432
    7MOL0     H  912   2.833   0.810  10.111  0.5278 -1.6982 -1.4053
    7MOL0     H  913   2.992   0.848   9.922 -0.0541 -0.3296  1.8100
    7MOL0     H  914   2.832   0.816   9.862 -0.6883  2.8096 -2.0252
    7MOL0     H  915   2.761   1.162   9.903 -1.9726 -2.6651 -2.4818
    7MOL0     H  916   2.928   1.423   9.705 -0.0827 -0.6729  2.1235
    7MOL0     H  917   2.768   1.399   9.752  0.7890  1.7301 -0.2964
    7MOL0     H  918   2.772   1.458   9.525 -1.0596 -0.1739 -0.1729
    7MOL0     H  919   2.866   1.316   9.480 -0.1836 -0.1888  0.7934
    7MOL0     H  920   2.637   1.200   9.614  0.5368 -1.5547 -0.4356
    7MOL0     H  921   2.582   1.349   9.531  3.8246  2.3974  1.7154
    7MOL0     H  922   2.760   1.133   9.410  1.0898  1.7708 -1.0813
    7MOL0     H  923   2.583   1.130   9.427  0.5236 -0.1341  1.4810
    7MOL0     H  924   2.690   1.007   9.254  2.5748  1.2743 -0.7085
    7MOL0     H  925   2.656   0.800   8.966  0.3501  3.7832 -1.7202
    7MOL0     H  926   2.599   0.799   9.131 -1.1062  0.0380 -0.1674
    7MOL0     H  927   2.772   0.832   9.100 -0.1535  2.5891  2.3676
    7MOL0     H  928   2.355   1.088   8.589  0.2743  4.5036 -0.7941
    7MOL0     H  929   2.299   1.051   8.364  0.7502  1.4902 -3.5087
    7MOL0     H  930   2.604   1.094   8.067  2.5241 -1.9421 -0.5742
    7MOL0     H  931   2.644   0.926   8.101  0.4309  0.8388  1.4317
    7MOL0     H  932   2.581   0.903   7.879  0.0001 -0.9614  2.2302
    7MOL0     H  933   2.428   0.864   7.958 -3.3048  1.8590 -1.5599
    7MOL0     H  934   2.486   1.065   7.766 -0.9293  0.9526 -0.6824
    7MOL0     H  935   2.435   1.150   7.911  4.3094 -1.0750  1.6986
    7MOL0     H  936   2.230   1.022   7.919  1.7228 -2.3127  0.9843
    7MOL0     H  937   2.291   0.912   7.798 -2.3716  0.3451  1.0536
    7MOL0     H  938   2.237   1.215   7.760  1.9670  0.0410 -0.6115
    7MOL0     H  939   2.279   1.099   7.634  0.8523  1.1902  0.0837
    7MOL0     H  940   2.026   1.067   7.804 -1.0889 -1.4689 -1.4460
    7MOL0     H  941   2.084   0.968   7.677 -3.6989 -0.1321  0.3754
    7MOL0     H  942   2.063   1.138   7.513  1.7057  0.3807  0.9159
    7MOL0     H  943   2.022   1.257   7.644  1.0385  0.9129 -0.2325
    7MOL0     H  944   1.812   1.140   7.678  1.1304  5.4030 -1.5328
    7MOL0     H  945   1.882   1.002   7.561  3.7412  0.2342 -1.7664
    7MOL0     H  946   2.703   0.922   8.295 -3.4851 -3.0043 -3.0220
    7MOL0     H  947   2.742   0.955   8.538 -2.3321  0.4269  3.0713
    7MOL0     H  948   2.533   1.279   8.880  0.3185  3.0310  2.4942
    7MOL0     H  949   2.602   1.377   9.067 -2.6250 -1.1725 -0.3351
    7MOL0     H  950   2.690   1.206  10.834  0.6451  0.6144 -1.1421
    7MOL0     H  951   2.606   1.236  11.069 -1.0603  1.7002  2.3546
    7MOL0     H  952   2.572   1.387  11.382  1.3235  0.4983 -0.3480
    7MOL0     H  953   2.547   1.306  11.618 -1.7228 -1.1541  1.1561
    7MOL0     H  954   2.378   1.486  11.990  1.4347  0.7163 -2.0777
    7MOL0     H  955   2.311   1.579  11.872  3.6786  0.9416 -0.4320
    7MOL0     H  956   2.137   1.370  11.832  1.7652 -1.2308 -2.3850
    7MOL0     H  957   2.133   1.421  12.007 -0.9657  1.6091 -1.1854
    7MOL0     H  958   2.140   1.181  11.982 -0.9164  0.1998  0.9018
    7MOL0     H  959   2.282   1.182  11.888 -2.1662 -3.7462  0.3367
    7MOL0     H  960   2.278   1.270  12.182  1.8772 -1.2700  1.5257
    7MOL0     H  961   2.414   1.271  12.092 -0.2222  0.3760  3.1174
    7MOL0     H  962   2.361   0.851  12.129  0.9431  0.5027 -0.3627
    7MOL0     H  963   2.208   1.566  11.656  0.4162  0.9717  0.5701
    7MOL0     H  964   2.080   1.628  11.485 -0.3231  1.0416 -0.3896
    7MOL0     H  965   2.193   1.699  11.387  3.6533 -0.6812  3.0179
    7MOL0     H  966   2.106   1.557  11.326 -0.0592 -0.3194  0.7277
    8MOL0     O  967   2.718   9.305   9.118  0.5435 -0.7793  0.4535
    8MOL0     C  968   2.607   9.347   9.084 -0.4343  0.0347  0.1219
    8MOL0     O  969   2.486   9.290   9.121  0.4131  0.1247  0.4861
    8MOL0     C  970   2.493   9.231   9.239 -0.3113  0.4922  0.4708
    8MOL0     C  971   2.566   9.115   9.272  0.1103 -0.3459 -0.5851
    8MOL0     C  972   2.558   9.055   9.408  0.6631  0.2068  0.5493
    8MOL0     C  973   2.471   9.114   9.493 -0.0977  0.0110  0.2228
    8MOL0     O  974   2.449   9.047   9.613  0.1822 -0.1103  0.0638
    8MOL0     C  975   2.524   9.104   9.713  0.3468 -0.5405  0.6136
    8MOL0     C  976   2.491   9.032   9.848  0.4267  0.0559  0.3510
    8MOL0     C  977   2.541   8.884   9.859 -0.8212  0.5790  0.0904
    8MOL0     C  978   2.473   8.812   9.982 -0.2560 -1.1574 -0.6074
    8MOL0     C  979   2.504   8.664   9.997 -0.8501  1.0380 -0.1683
    8MOL0     C  980   2.641   8.654  10.057 -0.6418  0.6170  0.4172
    8MOL0     C  981   2.664   8.524  10.138  0.0763 -1.6126  0.4605
    8MOL0     C  982   2.802   8.517  10.211  0.2974  0.3757 -1.1541
    8MOL0     N  983   2.909   8.552  10.111  0.5342  0.3221  0.3161
    8MOL0     C  984   2.957   8.477  10.008 -0.2630  0.0407 -0.3098
    8MOL0     C  985   3.052   8.562   9.955  0.5696  0.2373  0.2405
    8MOL0     C  986   3.114   8.518   9.826 -0.3955  0.1865 -0.1225
    8MOL0     C  987   3.227   8.619   9.795 -0.4034 -0.6250  0.5416
    8MOL0     C  988   3.317   8.580   9.677  0.4882  0.1369  0.5114
    8MOL0     C  989   3.449   8.658   9.678  0.7868 -0.1636  0.2182
    8MOL0     O  990   3.519   8.646   9.800  0.1953  0.3870  0.1326
    8MOL0     C  991   3.640   8.694   9.814  0.3205  0.0145 -0.1796
    8MOL0     C  992   3.734   8.721   9.711  0.0604 -0.7458 -0.8854
    8MOL0     C  993   3.871   8.749   9.733  0.7283 -0.1778  0.0199
    8MOL0     C  994   3.966   8.767   9.616 -0.0659 -0.1091  0.1377
    8MOL0     C  995   3.911   8.761   9.866  0.1081  0.6373 -0.0215
    8MOL0     C  996   4.048   8.793   9.919  0.7015  0.1435 -0.4060
    8MOL0     O  997   4.135   8.865   9.847 -0.3365  0.0574 -0.5815
    8MOL0     C  998   4.241   8.926   9.904  0.9053 -0.0154  0.2692
    8MOL0     C  999   4.367   8.933   9.832  0.2778 -0.8565 -0.0605
    8MOL0     C 1000   4.466   9.013   9.876  0.3972 -0.3048  0.0215
    8MOL0     C 1001   4.452   9.092   9.993 -0.1455 -0.0850 -0.0637
    8MOL0     O 1002   4.564   9.171  10.020  0.2201  0.4598  0.3200
    8MOL0     C 1003   4.534   9.278  10.109 -0.5706 -0.4537  0.5739
    8MOL0     C 1004   4.657   9.381  10.110 -0.0087 -0.5086 -0.2892
    8MOL0     C 1005   4.629   9.514  10.174  0.2223  0.8798 -0.2114
    8MOL0     C 1006   4.721   9.621  10.123 -0.5232 -0.1486 -0.1778
    8MOL0     C 1007   4.869   9.596  10.150 -0.2323  0.4295  0.7458
    8MOL0     C 1008   4.958   9.712  10.112 -0.4323 -0.7309 -0.1763
    8MOL0     C 1009   4.962   9.747   9.962  0.6376  0.0664  1.2020
    8MOL0     C 1010   5.104   9.696   9.906  0.3814  0.2645 -0.3094
    8MOL0    Cl 1011   5.238   9.806   9.968 -0.0446 -0.4348  0.4435
    8MOL0     C 1012   4.329   9.097  10.060 -0.2016  0.8026  0.1749
    8MOL0     C 1013   4.226   9.009  10.013 -0.0361 -0.2329 -0.0951
    8MOL0     O 1014   4.070   8.754  10.038  0.4748 -0.4832  0.8973
    8MOL0     C 1015   3.817   8.743   9.964 -0.4929  0.8225  0.0460
    8MOL0     C 1016   3.688   8.699   9.941  0.5012 -0.2022 -0.7825
    8MOL0     N 1017   3.061   8.676  10.033 -0.9443  0.6822  0.1683
    8MOL0     N 1018   2.978   8.663  10.125 -0.3044 -0.1540 -0.6781
    8MOL0     C 1019   2.395   9.225   9.461  0.1801  0.6854  1.0534
    8MOL0     C 1020   2.405   9.289   9.339  0.0900 -0.9928 -0.3365
    8MOL0     C 1021   2.600   9.444   8.967 -0.5715  0.0264  0.8694
    8MOL0     C 1022   2.712   9.518   8.936  0.0906 -0.1107 -0.8379
    8MOL0     C 1023   2.722   9.603   8.818 -0.9048  0.5586  0.2225
    8MOL0     C 1024   2.623   9.597   8.717  0.3113 -0.2429  0.8698
    8MOL0     O 1025   2.612   9.687   8.607 -0.2913  0.3463  0.2232
    8MOL0     C 1026   2.736   9.759   8.567  0.0780  0.4236 -0.5531
    8MOL0     C 1027   2.723   9.786   8.409 -0.0257 -0.1803  0.0625
    8MOL0     C 1028   2.726   9.670   8.322 -0.4842  0.7357  0.0443
    8MOL0     C 1029   2.715   9.707   8.171 -0.2526 -0.0259  0.3264
    8MOL0     C 1030   2.838   9.674   8.104  0.5744 -0.7111  0.7043
    8MOL0     C 1031   2.936   9.656   8.032 -0.3995 -0.3745 -0.9283
    8MOL0     C 1032   2.501   9.532   8.757 -0.1678  0.5080  0.6884
    8MOL0     C 1033   2.489   9.469   8.883  0.2141  0.2045 -0.5275
    8MOL0     C 1034   2.349   9.429   8.914  1.5108  0.4740 -0.8300
    8MOL0     H 1035   2.634   9.066   9.203 -1.5601 -2.7921 -0.6134
    8MOL0     H 1036   2.614   8.964   9.428 -1.8477 -1.5807 -0.1930
    8MOL0     H 1037   2.500   9.210   9.719 -0.5706 -0.7424  0.6775
    8MOL0     H 1038   2.631   9.102   9.688  0.1699 -1.9254 -0.1168
    8MOL0     H 1039   2.542   9.086   9.928  2.0195 -1.9281  0.7542
    8MOL0     H 1040   2.384   9.026   9.868  0.5495 -1.2704  0.6928
    8MOL0     H 1041   2.515   8.835   9.765  0.7821  0.2533 -0.2093
    8MOL0     H 1042   2.648   8.887   9.878 -1.1739  0.6684  2.3563
    8MOL0     H 1043   2.484   8.861  10.078  1.6797  1.2434 -1.9440
    8MOL0     H 1044   2.365   8.821   9.962  0.0227  3.2360 -0.9201
    8MOL0     H 1045   2.515   8.620   9.898  0.6377 -3.6349  1.7957
    8MOL0     H 1046   2.425   8.609  10.049  0.5269 -2.3714 -1.4128
    8MOL0     H 1047   2.715   8.668   9.978 -0.8815  0.2666  0.1264
    8MOL0     H 1048   2.654   8.742  10.120 -3.9850  1.9756 -0.6122
    8MOL0     H 1049   2.640   8.440  10.072 -2.7960 -1.3839  1.0635
    8MOL0     H 1050   2.588   8.509  10.215  1.6488 -2.3537  1.9081
    8MOL0     H 1051   2.809   8.569  10.307  1.3674 -1.4842 -0.1736
    8MOL0     H 1052   2.828   8.416  10.242  0.3347  0.8387  0.4359
    8MOL0     H 1053   2.927   8.380   9.968  0.4399 -1.2337  2.0173
    8MOL0     H 1054   3.047   8.523   9.739  2.7876 -3.1523 -3.1274
    8MOL0     H 1055   3.139   8.411   9.828 -3.7510 -0.9565 -4.3947
    8MOL0     H 1056   3.181   8.717   9.780 -1.6341 -1.1993  0.4369
    8MOL0     H 1057   3.283   8.618   9.890 -0.1322  1.0992  0.4204
    8MOL0     H 1058   3.336   8.472   9.667 -0.3718 -0.4239  3.7075
    8MOL0     H 1059   3.283   8.619   9.581  1.6109  1.7107  0.7257
    8MOL0     H 1060   3.511   8.624   9.594 -2.1875  1.2708 -2.7987
    8MOL0     H 1061   3.425   8.761   9.649 -1.1656 -1.0862 -1.7659
    8MOL0     H 1062   3.703   8.717   9.607 -1.3922  5.6046 -1.0932
    8MOL0     H 1063   3.960   8.695   9.534 -0.9573 -1.4433  1.3225
    8MOL0     H 1064   4.073   8.764   9.643  0.1169 -0.6060 -0.6191
    8MOL0     H 1065   3.959   8.867   9.574  3.6377 -0.4619 -1.7220
    8MOL0     H 1066   4.362   8.885   9.734 -3.9229  1.9371 -1.4891
    8MOL0     H 1067   4.568   9.021   9.839  0.8705 -0.6949  1.2043
    8MOL0     H 1068   4.442   9.330  10.082 -0.9149 -1.2657  0.1217
    8MOL0     H 1069   4.510   9.241  10.210 -2.5467 -1.3445 -0.1609
    8MOL0     H 1070   4.733   9.327  10.167  0.1527  1.2960  1.3041
    8MOL0     H 1071   4.690   9.410  10.010 -1.2661 -0.1209 -0.6173
    8MOL0     H 1072   4.623   9.498  10.282  1.6557 -1.0754 -0.3718
    8MOL0     H 1073   4.533   9.552  10.138 -0.6038  1.9741  2.8112
    8MOL0     H 1074   4.697   9.713  10.178  2.6129 -1.4621  3.9283
    8MOL0     H 1075   4.702   9.621  10.015 -0.5310  1.7137 -0.2043
    8MOL0     H 1076   4.876   9.582  10.259  0.3755 -0.6943  0.5792
    8MOL0     H 1077   4.905   9.506  10.098  1.6243  0.6412  1.6041
    8MOL0     H 1078   5.057   9.694  10.156 -0.3677 -0.1857 -0.0904
    8MOL0     H 1079   4.909   9.793  10.167  0.7922  1.1557 -1.7035
    8MOL0     H 1080   4.942   9.852   9.940  0.0712 -0.4066 -0.6957
    8MOL0     H 1081   4.897   9.679   9.906  0.8330 -0.9370  2.1532
    8MOL0     H 1082   5.103   9.694   9.796  1.9866 -0.1093 -0.3429
    8MOL0     H 1083   5.121   9.588   9.914 -0.8757  0.0058 -0.7893
    8MOL0     H 1084   4.299   9.164  10.141 -1.7705 -0.0995  0.3828
    8MOL0     H 1085   4.134   9.024  10.069  0.5450  0.2326  0.7716
    8MOL0     H 1086   3.842   8.754  10.069 -2.5234  1.2976  0.5340
    8MOL0     H 1087   3.619   8.667  10.018 -2.1924  1.4051 -2.3304
    8MOL0     H 1088   2.323   9.257   9.536 -0.6474 -0.4332  0.7645
    8MOL0     H 1089   2.345   9.374   9.308 -0.7244 -1.6683 -0.6490
    8MOL0     H 1090   2.791   9.525   9.010 -1.9773  1.7011  1.3476
    8MOL0     H 1091   2.805   9.674   8.813  0.5503 -1.1205 -0.4690
    8MOL0     H 1092   2.746   9.850   8.627  0.5561  0.0220 -0.0195
    8MOL0     H 1093   2.822   9.698   8.593  0.3084  2.0704  3.2183
    8MOL0     H 1094   2.792   9.863   8.375 -2.5093  3.8690  3.2575
    8MOL0     H 1095   2.626   9.832   8.390 -0.3123 -0.3826  0.9379
    8MOL0     H 1096   2.824   9.625   8.340 -0.9610 -0.5889 -0.5126
    8MOL0     H 1097   2.646   9.599   8.345 -2.0418  3.0440  2.2737
    8MOL0     H 1098   2.701   9.814   8.158  3.2903  0.6550  1.2268
    8MOL0     H 1099   2.631   9.655   8.124 -0.4338 -1.1258  1.7835
    8MOL0     H 1100   3.030   9.652   7.980  1.6423  1.8292  2.2260
    8MOL0     H 1101   2.418   9.556   8.692  2.0381  4.6490 -0.9523
    8MOL0     H 1102   2.271   9.482   8.859 -3.2693  2.9450  6.8375
    8MOL0     H 1103   2.334   9.322   8.895 -1.6917 -0.1890  3.7237
    8MOL0     H 1104   2.319   9.456   9.015  4.0176  4.8094 -1.0136
    9MOL0     O 1105   8.814   3.848   7.291  0.7189  0.5017 -0.5479
    9MOL0     C 1106   8.876   3.852   7.397 -0.6710  0.3423  0.0880
    9MOL0     O 1107   8.954   3.952   7.451  0.1783 -0.7501  0.3036
    9MOL0     C 1108   8.952   4.079   7.417  0.1123 -0.9283  0.3382
    9MOL0     C 1109   8.935   4.119   7.290  0.3052 -0.2662  0.1646
    9MOL0     C 1110   8.931   4.255   7.251  0.0714 -0.1773  0.2962
    9MOL0     C 1111   8.923   4.353   7.344 -1.0231 -0.5246 -0.3856
    9MOL0     O 1112   8.917   4.494   7.313 -0.3748 -0.2936  0.5905
    9MOL0     C 1113   8.877   4.530   7.185  0.0081  0.2094 -0.7841
    9MOL0     C 1114   8.985   4.560   7.077  0.4497  0.2091  0.5206
    9MOL0     C 1115   9.078   4.685   7.089 -0.2192  0.2095 -0.3262
    9MOL0     C 1116   9.183   4.660   7.208  0.1706  0.0927 -0.2168
    9MOL0     C 1117   9.287   4.561   7.178  0.0608  0.1973  0.3006
    9MOL0     C 1118   9.412   4.562   7.265  0.6227  0.0879 -0.0653
    9MOL0     C 1119   9.540   4.487   7.210 -0.7203  0.0785  0.4535
    9MOL0     C 1120   9.516   4.329   7.181  0.3884 -0.0177 -0.7551
    9MOL0     N 1121   9.472   4.309   7.037 -0.5669 -0.1553  0.1837
    9MOL0     C 1122   9.557   4.306   6.925 -0.0706 -0.0173 -1.0164
    9MOL0     C 1123   9.471   4.291   6.823 -0.1634 -0.3338 -0.0482
    9MOL0     C 1124   9.503   4.271   6.682  0.1246 -0.4550  0.0808
    9MOL0     C 1125   9.587   4.148   6.642  0.6551  0.1647  0.5511
    9MOL0     C 1126   9.512   4.025   6.607 -0.0102  0.3197  0.4941
    9MOL0     C 1127   9.439   3.967   6.727  0.1449  0.8538  0.2916
    9MOL0     O 1128   9.535   3.899   6.800 -0.7305 -0.0251 -0.1109
    9MOL0     C 1129   9.517   3.896   6.935 -0.4770 -0.2441 -0.5771
    9MOL0     C 1130   9.407   3.928   7.011 -0.8619  0.6460  0.1645
    9MOL0     C 1131   9.402   3.927   7.145  0.2746 -0.1216 -0.3578
    9MOL0     C 1132   9.269   3.969   7.216  0.7302  0.0162  0.3965
    9MOL0     C 1133   9.507   3.883   7.222 -0.4940 -0.2374 -0.0075
    9MOL0     C 1134   9.498   3.844   7.368  1.0381  0.0383  0.2046
    9MOL0     O 1135   9.377   3.792   7.411  0.6326 -1.1409 -0.2013
    9MOL0     C 1136   9.364   3.773   7.544  0.4231 -0.1115  0.6962
    9MOL0     C 1137   9.321   3.872   7.642 -0.2975 -0.1483  0.1573
    9MOL0     C 1138   9.320   3.849   7.783  0.3315  0.2422 -0.3995
    9MOL0     C 1139   9.373   3.731   7.834  0.4922 -0.1497  1.2004
    9MOL0     O 1140   9.366   3.684   7.955  0.6525 -0.3161 -0.7275
    9MOL0     C 1141   9.415   3.759   8.068 -0.3380  0.7858  0.3818
    9MOL0     C 1142   9.575   3.790   8.071 -0.7276 -1.0630 -0.0400
    9MOL0     C 1143   9.609   3.859   8.194 -0.0171  0.0065  0.3594
    9MOL0     C 1144   9.764   3.864   8.219  0.3387  0.6147 -0.3628
    9MOL0     C 1145   9.779   3.908   8.363 -0.4241  0.0223  0.3971
    9MOL0     C 1146   9.920   3.950   8.387  0.3859 -0.2759 -0.9033
    9MOL0     C 1147  10.017   3.835   8.374  0.7024 -0.3073 -0.6859
    9MOL0     C 1148   9.999   3.713   8.476  0.2404  0.0918 -0.8890
    9MOL0    Cl 1149   9.992   3.763   8.651  0.0570 -0.2381 -0.0968
    9MOL0     C 1150   9.409   3.633   7.739  0.8044  0.3463  0.4902
    9MOL0     C 1151   9.414   3.658   7.598  0.0106  0.2992  0.8868
    9MOL0     O 1152   9.598   3.846   7.433 -0.5356 -0.4705 -0.8023
    9MOL0     C 1153   9.618   3.847   7.154 -1.1162 -0.8896  0.5586
    9MOL0     C 1154   9.628   3.853   7.011 -0.5052  0.7907 -0.2468
    9MOL0     N 1155   9.341   4.311   6.862  0.5938 -0.0329  0.1588
    9MOL0     N 1156   9.338   4.319   7.000  0.6825 -1.2500  1.3426
    9MOL0     C 1157   8.929   4.314   7.484  0.4450 -0.1042  0.6995
    9MOL0     C 1158   8.927   4.175   7.515 -0.2253 -0.3273 -0.5030
    9MOL0     C 1159   8.882   3.719   7.466  0.2484 -0.3376  0.1256
    9MOL0     C 1160   9.013   3.668   7.492 -1.0546  0.0415  0.7901
    9MOL0     C 1161   9.042   3.543   7.561 -0.0464  0.1256 -0.3058
    9MOL0     C 1162   8.934   3.452   7.604 -0.3752 -0.0973 -0.2829
    9MOL0     O 1163   8.959   3.337   7.685 -0.0356 -0.4068  0.0911
    9MOL0     C 1164   8.852   3.247   7.709  0.2341  0.4366  0.5368
    9MOL0     C 1165   8.898   3.129   7.796 -0.8776  0.2447 -0.3007
    9MOL0     C 1166   8.949   3.179   7.929  0.0768 -0.6456 -0.1837
    9MOL0     C 1167   9.091   3.133   7.954  0.8493 -0.3014  0.8329
    9MOL0     C 1168   9.106   2.986   7.945 -0.4984 -0.1103  0.2299
    9MOL0     C 1169   9.108   2.864   7.949  0.3232  0.5103 -0.7550
    9MOL0     C 1170   8.805   3.503   7.580  0.5664 -0.5275 -0.4359
    9MOL0     C 1171   8.781   3.631   7.523  0.7755  0.0974  0.6216
    9MOL0     C 1172   8.632   3.661   7.495 -0.1250 -0.4631 -0.5271
    9MOL0     H 1173   8.947   4.042   7.214 -1.3406 -0.0601 -0.3466
    9MOL0     H 1174   8.928   4.269   7.144 -1.7454  1.8297  0.5418
    9MOL0     H 1175   8.812   4.618   7.196  0.9337  0.7486  0.6014
    9MOL0     H 1176   8.806   4.450   7.164 -1.4259  0.3028  2.9180
    9MOL0     H 1177   9.045   4.469   7.072 -2.4343 -1.9356  1.8252
    9MOL0     H 1178   8.941   4.570   6.978  3.5495  2.4922 -0.8268
    9MOL0     H 1179   9.128   4.703   6.993 -0.4863 -0.4522 -0.5998
    9MOL0     H 1180   9.012   4.771   7.102  0.0267  0.0393  2.5572
    9MOL0     H 1181   9.231   4.751   7.243  2.4348 -1.3763  0.6953
    9MOL0     H 1182   9.130   4.612   7.291 -5.0137  0.1822 -3.0392
    9MOL0     H 1183   9.317   4.568   7.073  1.9054 -1.5207  0.6413
    9MOL0     H 1184   9.241   4.462   7.191  0.1605  0.1896  0.6105
    9MOL0     H 1185   9.444   4.664   7.284  0.4696  0.0022  0.6922
    9MOL0     H 1186   9.387   4.515   7.361 -1.0624 -0.9464 -0.9532
    9MOL0     H 1187   9.618   4.505   7.285 -0.9629 -0.8056  0.9368
    9MOL0     H 1188   9.576   4.531   7.116  3.0271  0.6384  1.9839
    9MOL0     H 1189   9.595   4.260   7.211 -0.6686 -1.9942 -2.3119
    9MOL0     H 1190   9.437   4.281   7.239 -1.3050 -0.2487 -3.0878
    9MOL0     H 1191   9.665   4.299   6.924  0.1421 -1.7441  4.4065
    9MOL0     H 1192   9.567   4.350   6.642  3.7083 -2.9008  0.5753
    9MOL0     H 1193   9.407   4.268   6.630 -0.2737 -1.1255  0.8303
    9MOL0     H 1194   9.641   4.166   6.549  0.0197 -3.2142 -0.6121
    9MOL0     H 1195   9.664   4.120   6.714  3.0083 -3.2594 -2.9051
    9MOL0     H 1196   9.433   4.050   6.535  1.5169  2.2496 -0.5959
    9MOL0     H 1197   9.562   3.939   6.559  1.0714  0.8865  0.5798
    9MOL0     H 1198   9.397   4.054   6.778  1.5117  0.7396  1.6800
    9MOL0     H 1199   9.364   3.889   6.711  0.4797  0.5154  0.3548
    9MOL0     H 1200   9.319   3.968   6.961  0.1427  1.5091 -0.9852
    9MOL0     H 1201   9.206   3.879   7.224  1.1531 -0.5117 -1.6682
    9MOL0     H 1202   9.218   4.041   7.151  0.1679 -1.4421 -0.8628
    9MOL0     H 1203   9.279   4.001   7.320 -0.8615 -3.4944  1.8129
    9MOL0     H 1204   9.274   3.969   7.627  0.5836  0.5519  1.6590
    9MOL0     H 1205   9.287   3.918   7.860  1.4195 -0.4766  0.7678
    9MOL0     H 1206   9.364   3.855   8.081 -0.8338  0.1667  4.1162
    9MOL0     H 1207   9.377   3.692   8.146 -3.7157 -2.4567 -3.5574
    9MOL0     H 1208   9.623   3.691   8.065 -3.0209 -2.1800 -1.6861
    9MOL0     H 1209   9.622   3.840   7.986 -0.3641 -0.7889  0.3241
    9MOL0     H 1210   9.549   3.827   8.279 -1.6261 -1.1354 -1.1477
    9MOL0     H 1211   9.580   3.964   8.185 -0.7320 -0.0096  2.1734
    9MOL0     H 1212   9.806   3.944   8.158  0.2246  1.9522  1.2334
    9MOL0     H 1213   9.811   3.768   8.198 -1.2755 -0.3357  0.1614
    9MOL0     H 1214   9.714   3.989   8.398 -0.8070 -1.7226  4.1123
    9MOL0     H 1215   9.740   3.830   8.429 -2.8960  1.3491  0.6161
    9MOL0     H 1216   9.918   3.986   8.490 -3.7401  1.9156 -1.5455
    9MOL0     H 1217   9.948   4.032   8.321 -1.2413 -0.3521 -1.7476
    9MOL0     H 1218  10.118   3.877   8.381 -0.4539  2.5547 -0.0283
    9MOL0     H 1219  10.006   3.806   8.269  0.4323  4.3088 -2.1439
    9MOL0     H 1220  10.071   3.634   8.456  2.6659  2.3222 -1.5204
    9MOL0     H 1221   9.899   3.673   8.454  0.2542 -3.0522  3.4752
    9MOL0     H 1222   9.445   3.534   7.765 -2.7098 -1.1338  0.2746
    9MOL0     H 1223   9.468   3.592   7.531 -1.3367 -1.8980  1.8246
    9MOL0     H 1224   9.701   3.816   7.216  0.2556  0.7177 -0.3855
    9MOL0     H 1225   9.717   3.824   6.956 -0.7375 -0.2662 -0.0816
    9MOL0     H 1226   8.930   4.375   7.573  1.0176 -0.0976  0.6900
    9MOL0     H 1227   8.911   4.157   7.621  0.1389  0.3817 -0.3255
    9MOL0     H 1228   9.102   3.724   7.469 -2.8062  1.6288 -3.1286
    9MOL0     H 1229   9.144   3.513   7.581  1.0553  1.6936 -3.1353
    9MOL0     H 1230   8.764   3.292   7.755  0.3165  1.8236 -0.6125
    9MOL0     H 1231   8.821   3.212   7.610  0.4500  4.1764 -1.0255
    9MOL0     H 1232   8.979   3.078   7.743  1.0170  2.9959 -0.1832
    9MOL0     H 1233   8.815   3.062   7.823 -0.7811 -0.1186 -0.8805
    9MOL0     H 1234   8.962   3.288   7.935 -1.9541 -0.3994  0.7697
    9MOL0     H 1235   8.885   3.154   8.014  2.1403  0.2436  1.7466
    9MOL0     H 1236   9.109   3.152   8.060 -3.4036 -1.7935  2.0263
    9MOL0     H 1237   9.163   3.183   7.888  2.9557 -0.1562  3.1264
    9MOL0     H 1238   9.123   2.758   7.953  0.9904  0.5951 -0.8763
    9MOL0     H 1239   8.719   3.446   7.613 -1.1126  1.4079 -1.2386
    9MOL0     H 1240   8.585   3.579   7.440 -0.3482  0.7315 -2.1939
    9MOL0     H 1241   8.576   3.686   7.586 -0.7461  1.8740 -1.4714
    9MOL0     H 1242   8.616   3.751   7.434  0.0650  2.2856  3.1206
   10MOL0     O 1243   2.942  10.670   7.232  0.3428 -0.5407  0.1794
   10MOL0     C 1244   2.852  10.756   7.247 -0.7171 -0.5636  0.0239
   10MOL0     O 1245   2.727  10.722   7.240 -0.2314 -0.1679  1.0034
   10MOL0     C 1246   2.691  10.583   7.249 -0.3107 -0.6625 -1.1444
   10MOL0     C 1247   2.729  10.495   7.356 -0.0386  0.0971  0.4936
   10MOL0     C 1248   2.681  10.363   7.360 -0.7130  0.2184  0.4626
   10MOL0     C 1249   2.598  10.315   7.259  0.0506 -0.1032 -0.4495
   10MOL0     O 1250   2.532  10.190   7.265 -0.1965 -0.3922  0.8683
   10MOL0     C 1251   2.574  10.086   7.352  0.1207 -0.8159  0.4313
   10MOL0     C 1252   2.505   9.955   7.309  0.2903 -0.9089  0.5521
   10MOL0     C 1253   2.359   9.974   7.355 -0.1032  0.6858  0.1982
   10MOL0     C 1254   2.290   9.841   7.326  0.5009  0.6400  0.7404
   10MOL0     C 1255   2.154   9.822   7.384  0.8928 -0.0742 -0.2497
   10MOL0     C 1256   2.035   9.908   7.324 -0.1396  0.4554  0.3999
   10MOL0     C 1257   2.003   9.872   7.179 -0.8346  0.8497 -0.3084
   10MOL0     C 1258   1.887   9.960   7.141  0.5043  0.0359  0.7810
   10MOL0     N 1259   1.859   9.929   7.007 -0.3034  0.2076  0.8147
   10MOL0     C 1260   1.947   9.928   6.905 -0.1798  0.4730  1.3383
   10MOL0     C 1261   1.890   9.872   6.800 -0.2741  0.1517  0.3701
   10MOL0     C 1262   1.957   9.843   6.669 -0.0506 -0.3827  0.1746
   10MOL0     C 1263   1.895   9.950   6.559  0.3457  0.4141  0.3494
   10MOL0     C 1264   1.965   9.931   6.418 -0.0928 -0.1039 -0.4821
   10MOL0     C 1265   2.117   9.935   6.432 -0.2397 -0.1680  0.8143
   10MOL0     O 1266   2.154  10.063   6.487 -0.0649  0.0959  0.2085
   10MOL0     C 1267   2.272  10.079   6.561  0.4699 -0.1546  0.1611
   10MOL0     C 1268   2.284  10.192   6.634  0.5160 -0.1264 -0.3871
   10MOL0     C 1269   2.398  10.231   6.697 -1.0864 -0.7371 -0.1414
   10MOL0     C 1270   2.413  10.366   6.767  0.5957  0.0570 -0.2984
   10MOL0     C 1271   2.514  10.152   6.702 -0.2495 -0.0885 -0.3952
   10MOL0     C 1272   2.639  10.188   6.769 -0.0493  1.2706  0.1315
   10MOL0     O 1273   2.654  10.178   6.903  0.6290 -0.3302 -0.3219
   10MOL0     C 1274   2.773  10.192   6.971 -0.1381  0.1830  0.4973
   10MOL0     C 1275   2.847  10.313   6.977  0.9721  0.3057  0.4120
   10MOL0     C 1276   2.960  10.317   7.066 -0.5158  0.2089  0.4266
   10MOL0     C 1277   2.999  10.201   7.135 -0.9179 -0.7231  0.2934
   10MOL0     O 1278   3.102  10.215   7.237  0.4017  0.6071  0.0112
   10MOL0     C 1279   3.228  10.278   7.215 -0.8023 -0.2533  0.5619
   10MOL0     C 1280   3.337  10.226   7.317  0.1978  1.2018  0.1669
   10MOL0     C 1281   3.464  10.174   7.253 -0.0572  0.1498 -0.3219
   10MOL0     C 1282   3.450  10.027   7.201 -0.0861 -0.2388 -0.1739
   10MOL0     C 1283   3.576   9.993   7.124 -0.3464 -0.4545 -0.7201
   10MOL0     C 1284   3.597   9.846   7.102 -0.5031 -0.3088  0.1709
   10MOL0     C 1285   3.466   9.764   7.066  0.4499 -0.8641 -0.7299
   10MOL0     C 1286   3.507   9.626   7.029 -0.1443  0.3222 -0.3067
   10MOL0    Cl 1287   3.557   9.611   6.851  0.1083 -0.4457  0.1731
   10MOL0     C 1288   2.931  10.083   7.126 -0.8422 -0.9457  0.2357
   10MOL0     C 1289   2.825  10.076   7.040 -0.3724 -0.2107 -0.0736
   10MOL0     O 1290   2.733  10.214   6.695  0.4327 -0.1287  0.0891
   10MOL0     C 1291   2.495  10.025   6.630 -0.8404 -0.1206  0.0549
   10MOL0     C 1292   2.377   9.992   6.559 -1.3509 -0.4897 -0.4274
   10MOL0     N 1293   1.763   9.845   6.841 -0.2656 -0.2747  0.1796
   10MOL0     N 1294   1.739   9.880   6.970 -0.2841 -1.0281  0.7237
   10MOL0     C 1295   2.552  10.405   7.161  0.2359  0.9874  0.5036
   10MOL0     C 1296   2.600  10.532   7.156 -0.7014 -0.3668  0.7067
   10MOL0     C 1297   2.892  10.898   7.268 -0.2597 -0.2730  0.0615
   10MOL0     C 1298   2.792  11.005   7.256 -0.2198  0.2537 -0.2058
   10MOL0     C 1299   2.824  11.141   7.260  0.2158  0.4952  0.1957
   10MOL0     C 1300   2.950  11.177   7.296  0.3921  0.1115  0.7316
   10MOL0     O 1301   2.955  11.313   7.328  0.2275 -0.6288  0.0996
   10MOL0     C 1302   3.020  11.363   7.444  0.9051  0.6870 -0.6368
   10MOL0     C 1303   3.073  11.510   7.435 -0.3891  0.4089  0.2400
   10MOL0     C 1304   3.171  11.534   7.319  0.0423 -0.2508 -0.2382
   10MOL0     C 1305   3.134  11.658   7.232  0.8052  0.0537 -0.5904
   10MOL0     C 1306   3.197  11.649   7.103 -0.9444 -0.3091 -0.4092
   10MOL0     C 1307   3.246  11.633   6.994  0.6485  0.1924  0.3366
   10MOL0     C 1308   3.052  11.085   7.303  0.6752  1.2975  0.6847
   10MOL0     C 1309   3.028  10.943   7.281  0.5460 -0.2202  0.1390
   10MOL0     C 1310   3.146  10.857   7.294 -0.6917  0.9378 -0.1016
   10MOL0     H 1311   2.791  10.539   7.433 -3.1477  0.6527  2.8939
   10MOL0     H 1312   2.701  10.295   7.442 -0.0026  1.6697  1.5371
   10MOL0     H 1313   2.575  10.117   7.457 -1.0500  2.7075 -0.4700
   10MOL0     H 1314   2.677  10.056   7.332  0.6596  0.3322  1.3659
   10MOL0     H 1315   2.496   9.932   7.203 -0.5751  1.4385  0.0509
   10MOL0     H 1316   2.551   9.868   7.357 -0.6070 -0.8477  1.5732
   10MOL0     H 1317   2.354   9.995   7.462  2.2082  1.6480  0.1911
   10MOL0     H 1318   2.309  10.053   7.297 -0.4256 -0.6596 -1.4255
   10MOL0     H 1319   2.275   9.838   7.218  1.5315 -3.4826  0.5351
   10MOL0     H 1320   2.356   9.757   7.351 -0.9159 -0.9934 -0.6846
   10MOL0     H 1321   2.160   9.841   7.491  0.2779  0.4798 -0.2992
   10MOL0     H 1322   2.128   9.718   7.364 -2.8413  1.4730 -5.9242
   10MOL0     H 1323   1.952   9.886   7.392  0.1360 -1.5307  0.1476
   10MOL0     H 1324   2.073  10.011   7.321  0.9472  0.0495 -1.5382
   10MOL0     H 1325   1.976   9.767   7.188  0.5264  0.5523  0.6199
   10MOL0     H 1326   2.088   9.900   7.117 -1.9168  1.5637 -1.5221
   10MOL0     H 1327   1.798   9.926   7.193 -1.1158 -5.3501 -4.4354
   10MOL0     H 1328   1.911  10.067   7.151  1.5283 -0.1107  0.0527
   10MOL0     H 1329   2.050   9.963   6.901  0.0103 -0.1529 -1.4391
   10MOL0     H 1330   1.939   9.739   6.643 -0.6802 -0.3491  0.4646
   10MOL0     H 1331   2.066   9.856   6.672  0.1960 -1.5105 -2.0905
   10MOL0     H 1332   1.786   9.943   6.561 -0.0111  4.0174  0.7692
   10MOL0     H 1333   1.911  10.049   6.603  0.5654  0.4068  0.2877
   10MOL0     H 1334   1.931   9.837   6.373 -3.5630  1.7246 -2.1187
   10MOL0     H 1335   1.935  10.011   6.349  5.4671  1.1975 -1.8700
   10MOL0     H 1336   2.156   9.839   6.466  0.0497 -1.2191 -2.1955
   10MOL0     H 1337   2.152   9.947   6.329  3.1006 -1.4598  1.6608
   10MOL0     H 1338   2.197  10.256   6.641  1.2218  0.6731  2.7008
   10MOL0     H 1339   2.456  10.442   6.701 -2.4158  2.2349 -0.0065
   10MOL0     H 1340   2.457  10.353   6.866 -2.5017 -1.4773  1.0233
   10MOL0     H 1341   2.311  10.404   6.779  0.6943  0.2770 -0.1451
   10MOL0     H 1342   2.803  10.396   6.922 -2.1053 -2.3909 -1.6037
   10MOL0     H 1343   3.007  10.414   7.086 -0.2546 -0.0251  0.9689
   10MOL0     H 1344   3.261  10.249   7.115  0.7702 -0.7853  1.2109
   10MOL0     H 1345   3.226  10.387   7.228  0.5623 -0.1099 -0.2202
   10MOL0     H 1346   3.362  10.307   7.385  1.6298  1.7175 -0.9244
   10MOL0     H 1347   3.292  10.149   7.381  1.2869  0.6966  0.3477
   10MOL0     H 1348   3.543  10.183   7.327  0.3798  1.1193 -0.8880
   10MOL0     H 1349   3.490  10.238   7.168  2.6155  0.2992  0.5196
   10MOL0     H 1350   3.361  10.011   7.140 -0.2174  3.3847 -1.1260
   10MOL0     H 1351   3.444   9.967   7.292  0.7958 -0.8950 -0.5303
   10MOL0     H 1352   3.565  10.046   7.028  1.9186  2.8668  0.6669
   10MOL0     H 1353   3.666  10.046   7.156  1.0701 -1.4968 -2.7674
   10MOL0     H 1354   3.648   9.798   7.186  0.5783  0.1676 -0.1947
   10MOL0     H 1355   3.661   9.842   7.014 -0.2767 -1.8113  0.3857
   10MOL0     H 1356   3.408   9.820   6.992  0.4545  2.4802  1.5415
   10MOL0     H 1357   3.402   9.767   7.155 -0.1235  2.1507 -1.1416
   10MOL0     H 1358   3.418   9.562   7.038  1.3028 -2.1185 -2.2080
   10MOL0     H 1359   3.594   9.600   7.090  0.1422  2.5307  0.3142
   10MOL0     H 1360   2.952   9.995   7.186 -1.7003 -1.1336  0.2732
   10MOL0     H 1361   2.779   9.978   7.042 -1.3581  0.1908 -1.7013
   10MOL0     H 1362   2.577   9.954   6.621 -0.8736 -0.0119 -1.2304
   10MOL0     H 1363   2.361   9.893   6.516  0.1119 -1.9572  2.1144
   10MOL0     H 1364   2.492  10.361   7.082 -0.1860 -1.0174  1.8622
   10MOL0     H 1365   2.574  10.589   7.067 -2.9377  0.1217  1.6032
   10MOL0     H 1366   2.689  10.973   7.243  0.1940 -0.5788 -1.5898
   10MOL0     H 1367   2.743  11.213   7.248  2.0808  2.4689 -1.3539
   10MOL0     H 1368   2.945  11.366   7.524  1.1240 -0.0993 -0.3944
   10MOL0     H 1369   3.099  11.293   7.471  0.7721  0.8795  0.2994
   10MOL0     H 1370   3.107  11.531   7.536 -1.1781  1.1463  0.3655
   10MOL0     H 1371   2.993  11.585   7.438 -0.3421  0.4416  2.7178
   10MOL0     H 1372   3.272  11.537   7.362  0.5773 -2.6502 -1.1852
   10MOL0     H 1373   3.169  11.439   7.265 -0.1255 -0.9802  1.0144
   10MOL0     H 1374   3.176  11.742   7.288 -2.9813  2.3284 -0.8489
   10MOL0     H 1375   3.025  11.667   7.223  0.6743 -0.4387  0.3780
   10MOL0     H 1376   3.278  11.624   6.892  0.9622  0.7798  0.3732
   10MOL0     H 1377   3.152  11.125   7.322  0.5411  0.8883  2.4318
   10MOL0     H 1378   3.122  10.786   7.374 -0.2072  2.3884  1.4005
   10MOL0     H 1379   3.152  10.805   7.198  0.5843  0.7887  0.0343
   10MOL0     H 1380   3.246  10.902   7.296  0.2857 -0.9902 -1.8165
   11MOL0     O 1381   9.806   0.305  10.989  0.1126  0.0321 -0.6480
   11MOL0     C 1382   9.737   0.217  10.929  0.7038 -1.3511 -0.3025
   11MOL0     O 1383   9.598   0.229  10.924 -1.1810 -0.0393 -0.2226
   11MOL0     C 1384   9.543   0.343  10.972  0.2976 -0.0951 -0.8279
   11MOL0     C 1385   9.529   0.460  10.903 -0.7767  0.0691 -0.4106
   11MOL0     C 1386   9.456   0.569  10.949  0.6038  0.5261  0.0306
   11MOL0     C 1387   9.404   0.564  11.074  0.7382 -0.0074  0.0546
   11MOL0     O 1388   9.328   0.667  11.126 -0.8143 -0.5058  0.3390
   11MOL0     C 1389   9.355   0.803  11.081 -0.2010 -0.8708 -0.5953
   11MOL0     C 1390   9.408   0.881  11.201 -0.1473 -0.4244 -0.5061
   11MOL0     C 1391   9.417   1.033  11.178  0.1143 -0.3495  1.4942
   11MOL0     C 1392   9.429   1.105  11.310  0.1741 -0.0664  1.1100
   11MOL0     C 1393   9.393   1.254  11.292  0.2310  1.7229  1.4746
   11MOL0     C 1394   9.411   1.328  11.428  0.5254 -0.4255  1.0939
   11MOL0     C 1395   9.281   1.352  11.510 -0.6028 -0.6108  0.3387
   11MOL0     C 1396   9.190   1.464  11.452  0.7169 -0.8320 -0.0081
   11MOL0     N 1397   9.248   1.608  11.479 -0.2621 -0.1725 -0.6738
   11MOL0     C 1398   9.358   1.677  11.419 -0.2944  0.7757  0.2980
   11MOL0     C 1399   9.363   1.802  11.467  0.3873 -0.1689  0.2788
   11MOL0     C 1400   9.450   1.913  11.416 -0.0016  0.4638 -0.1846
   11MOL0     C 1401   9.463   1.908  11.254 -0.0999  0.2586 -0.5756
   11MOL0     C 1402   9.548   2.030  11.196  0.6558  0.2708 -0.5623
   11MOL0     C 1403   9.566   2.005  11.051  0.0236  1.3492  0.6329
   11MOL0     O 1404   9.692   2.064  11.015 -0.0224 -0.2892  0.0949
   11MOL0     C 1405   9.729   2.043  10.884 -0.7818 -0.1856 -0.2756
   11MOL0     C 1406   9.666   2.098  10.774 -0.6635 -0.2531 -0.0576
   11MOL0     C 1407   9.714   2.073  10.643 -0.1058 -0.1884 -1.1541
   11MOL0     C 1408   9.630   2.142  10.541  0.1515  0.4695  0.1520
   11MOL0     C 1409   9.824   1.991  10.623 -0.6182  0.3573 -0.2958
   11MOL0     C 1410   9.887   1.958  10.480 -0.4461  0.1710  0.1395
   11MOL0     O 1411   9.977   1.858  10.502 -0.3679  0.5055  0.0172
   11MOL0     C 1412  10.052   1.787  10.411 -0.5443 -0.3270 -0.0801
   11MOL0     C 1413  10.116   1.673  10.450 -0.0677  1.2412 -0.1864
   11MOL0     C 1414  10.204   1.599  10.363  0.0275  0.1221  0.7839
   11MOL0     C 1415  10.230   1.651  10.236  0.4961  0.1217 -0.0223
   11MOL0     O 1416  10.315   1.582  10.152 -0.4323 -1.0924  0.4908
   11MOL0     C 1417  10.402   1.665  10.069  0.0083 -0.3724  1.1461
   11MOL0     C 1418  10.385   1.632   9.922 -0.4292  0.3546 -0.1994
   11MOL0     C 1419  10.434   1.512   9.861 -0.5258  0.4041 -0.1562
   11MOL0     C 1420  10.563   1.543   9.784 -0.4040  0.4596 -1.3319
   11MOL0     C 1421  10.678   1.579   9.877 -0.0929  0.2112 -0.6302
   11MOL0     C 1422  10.690   1.473   9.995  0.7073  0.3582  0.5503
   11MOL0     C 1423  10.808   1.506  10.080  0.4460 -0.2112 -0.7425
   11MOL0     C 1424  10.874   1.394  10.150  0.4148  0.6614  0.5272
   11MOL0    Cl 1425  10.911   1.256  10.046  0.5581 -0.0240 -0.3974
   11MOL0     C 1426  10.154   1.763  10.186  0.0531  0.3313 -0.1372
   11MOL0     C 1427  10.071   1.829  10.272 -0.6557 -0.6984  0.0052
   11MOL0     O 1428   9.830   1.987  10.378 -0.0872  0.7448  0.4028
   11MOL0     C 1429   9.899   1.941  10.734 -0.5244  0.1127 -0.8289
   11MOL0     C 1430   9.849   1.969  10.867  0.4078  0.8459 -0.1781
   11MOL0     N 1431   9.265   1.818  11.558 -0.0290 -0.0234  0.6627
   11MOL0     N 1432   9.197   1.704  11.562 -0.3874  0.7987 -0.8020
   11MOL0     C 1433   9.409   0.446  11.147  0.0134 -0.6473  0.3822
   11MOL0     C 1434   9.480   0.333  11.100 -0.5730  1.1047  0.4105
   11MOL0     C 1435   9.799   0.101  10.865 -0.7049 -1.0770 -0.0963
   11MOL0     C 1436   9.753   0.069  10.737 -0.2020 -0.5302 -0.4700
   11MOL0     C 1437   9.801  -0.047  10.664 -0.1689 -0.2403 -0.8464
   11MOL0     C 1438   9.913  -0.118  10.707 -0.7013 -0.5918  0.5172
   11MOL0     O 1439   9.953  -0.231  10.654 -0.2729 -0.3075  0.0798
   11MOL0     C 1440   9.871  -0.310  10.559  0.2238  0.7585 -0.5359
   11MOL0     C 1441   9.918  -0.449  10.549 -0.7286 -0.4927 -0.2152
   11MOL0     C 1442   9.916  -0.521  10.414  0.3051 -0.6823 -1.0190
   11MOL0     C 1443  10.032  -0.485  10.337  0.9304  0.3306 -0.5333
   11MOL0     C 1444  10.143  -0.551  10.397  0.1845  0.5945  0.3914
   11MOL0     C 1445  10.227  -0.620  10.437 -0.2978 -1.4392 -0.6801
   11MOL0     C 1446   9.969  -0.070  10.830 -0.2343 -0.9420  0.1630
   11MOL0     C 1447   9.914   0.026  10.916  0.2539  0.1936  0.1071
   11MOL0     C 1448   9.974   0.056  11.057 -0.6939 -0.4678  0.2707
   11MOL0     H 1449   9.568   0.466  10.802  1.5880  2.0735  0.5136
   11MOL0     H 1450   9.440   0.648  10.876 -2.4340 -0.2146 -0.2341
   11MOL0     H 1451   9.259   0.845  11.050  0.0798  0.6656  0.5203
   11MOL0     H 1452   9.431   0.796  11.002 -0.7390 -3.2373 -0.9762
   11MOL0     H 1453   9.341   0.864  11.285  3.0694 -1.8346  2.0061
   11MOL0     H 1454   9.508   0.842  11.221  0.6591  0.8734 -1.8008
   11MOL0     H 1455   9.505   1.062  11.120 -0.6204  0.0729  0.5556
   11MOL0     H 1456   9.334   1.079  11.124 -0.0625 -1.3967  0.8608
   11MOL0     H 1457   9.353   1.061  11.376 -1.0754  1.2070  0.5822
   11MOL0     H 1458   9.530   1.089  11.348  1.0702 -1.9362 -1.7458
   11MOL0     H 1459   9.286   1.263  11.271 -0.3273 -1.7173  2.4001
   11MOL0     H 1460   9.466   1.299  11.224  2.7281 -2.4399  1.0601
   11MOL0     H 1461   9.481   1.270  11.490  3.5836  0.3497 -1.3673
   11MOL0     H 1462   9.467   1.421  11.411  0.7732 -0.7580  0.0583
   11MOL0     H 1463   9.308   1.392  11.608 -0.7741  3.3290 -1.0484
   11MOL0     H 1464   9.231   1.258  11.536 -1.5777  0.4980  2.8349
   11MOL0     H 1465   9.196   1.456  11.344  1.9227 -1.1969  0.0717
   11MOL0     H 1466   9.088   1.465  11.492 -0.4768 -1.4087 -2.8131
   11MOL0     H 1467   9.412   1.626  11.340 -1.2496 -0.7251  0.5704
   11MOL0     H 1468   9.550   1.903  11.457  0.2464 -0.6443 -0.9987
   11MOL0     H 1469   9.399   2.005  11.447  0.8215  0.6189  0.7278
   11MOL0     H 1470   9.514   1.816  11.223  0.1609  1.5473 -4.6165
   11MOL0     H 1471   9.361   1.918  11.216 -0.8142  0.1391  1.2321
   11MOL0     H 1472   9.482   2.117  11.199 -0.8384 -0.8102 -0.8508
   11MOL0     H 1473   9.640   2.043  11.254  1.6033  0.1299 -1.9964
   11MOL0     H 1474   9.572   1.898  11.031  1.4238  1.2994  1.2078
   11MOL0     H 1475   9.485   2.036  10.983 -0.0885 -1.8166 -0.8857
   11MOL0     H 1476   9.580   2.156  10.805 -1.1968 -0.3101 -1.3991
   11MOL0     H 1477   9.631   2.105  10.439 -0.8765  3.9048 -1.2630
   11MOL0     H 1478   9.674   2.242  10.532  2.0502 -0.2607  0.7522
   11MOL0     H 1479   9.523   2.139  10.560 -0.1240 -1.0249 -1.4728
   11MOL0     H 1480  10.098   1.635  10.549  3.6656 -0.8574 -0.1185
   11MOL0     H 1481  10.251   1.509  10.401  1.9882 -0.0936 -1.9184
   11MOL0     H 1482  10.383   1.772  10.078 -0.2138  0.0470 -2.7348
   11MOL0     H 1483  10.507   1.653  10.096  0.5077 -0.6870 -0.8412
   11MOL0     H 1484  10.276   1.639   9.912 -0.8939  0.8619  3.5708
   11MOL0     H 1485  10.433   1.718   9.875  2.1201  0.0049  1.5400
   11MOL0     H 1486  10.365   1.474   9.785  0.6039 -1.0761 -0.4870
   11MOL0     H 1487  10.436   1.429   9.931  1.1633  0.9920  0.5339
   11MOL0     H 1488  10.561   1.627   9.715 -2.2013 -0.7625 -2.8373
   11MOL0     H 1489  10.576   1.446   9.735  0.1664 -1.7355  2.6693
   11MOL0     H 1490  10.766   1.589   9.813  1.4031 -2.6617  0.7735
   11MOL0     H 1491  10.660   1.678   9.918 -4.4630 -0.9455  0.7567
   11MOL0     H 1492  10.690   1.372   9.953  2.2613  0.6982 -0.3714
   11MOL0     H 1493  10.602   1.475  10.060  0.7222  2.2323  0.5621
   11MOL0     H 1494  10.776   1.589  10.144 -0.8134 -0.1186 -1.4592
   11MOL0     H 1495  10.891   1.542  10.018  1.0455  0.4537  0.4020
   11MOL0     H 1496  10.812   1.361  10.235 -3.7452  2.7066 -1.4098
   11MOL0     H 1497  10.961   1.440  10.197 -0.0760  2.5352 -0.3092
   11MOL0     H 1498  10.166   1.792  10.082 -0.3308 -0.9679 -0.5671
   11MOL0     H 1499  10.030   1.926  10.246  2.8489  0.8357 -0.4850
   11MOL0     H 1500   9.980   1.869  10.727 -1.4226 -1.1061  0.5934
   11MOL0     H 1501   9.886   1.934  10.963 -4.7255 -1.1769  1.4098
   11MOL0     H 1502   9.353   0.444  11.240  0.7395  2.8850  1.0553
   11MOL0     H 1503   9.493   0.240  11.153 -0.6925  0.5943 -0.4437
   11MOL0     H 1504   9.680   0.146  10.715 -0.2188 -0.6788 -0.9500
   11MOL0     H 1505   9.747  -0.083  10.577  0.7904  1.0724 -2.0353
   11MOL0     H 1506   9.774  -0.319  10.608  2.7634 -1.6884  5.0364
   11MOL0     H 1507   9.869  -0.264  10.460 -1.2974  2.6902  0.3266
   11MOL0     H 1508   9.856  -0.501  10.622 -0.3633  0.2179  0.6169
   11MOL0     H 1509  10.020  -0.452  10.587 -0.4327 -2.6621 -1.0412
   11MOL0     H 1510   9.907  -0.628  10.433 -2.7459 -0.3914 -0.3544
   11MOL0     H 1511   9.827  -0.493  10.356  0.7412  0.2132 -1.2843
   11MOL0     H 1512  10.046  -0.377  10.341  2.1326  0.3526 -3.2156
   11MOL0     H 1513  10.024  -0.521  10.234  1.4289 -1.8321  0.1337
   11MOL0     H 1514  10.308  -0.666  10.489  0.6727 -0.9672 -1.7405
   11MOL0     H 1515  10.055  -0.122  10.871  2.3821  3.0702  0.3235
   11MOL0     H 1516  10.041  -0.021  11.095 -1.9422 -1.1778  1.1349
   11MOL0     H 1517  10.045   0.139  11.048 -0.5058 -0.3404  2.3470
   11MOL0     H 1518   9.898   0.079  11.133 -3.1149 -1.7819 -1.5914
   12MOL0     O 1519   6.143   5.949   9.960  0.4392  0.1884  0.2615
   12MOL0     C 1520   6.159   5.841   9.909  0.0163  1.0023 -0.5535
   12MOL0     O 1521   6.105   5.810   9.795  1.1023  0.6452  0.7674
   12MOL0     C 1522   6.075   5.892   9.697  0.2603  0.1281  0.6085
   12MOL0     C 1523   5.984   5.839   9.597 -0.3468 -0.1889  0.7910
   12MOL0     C 1524   5.957   5.914   9.477  1.1301 -0.6486  0.2519
   12MOL0     C 1525   6.017   6.035   9.460 -0.4012  0.5589 -1.1426
   12MOL0     O 1526   6.022   6.115   9.349 -0.0772 -0.6218  0.4453
   12MOL0     C 1527   5.933   6.090   9.240 -0.4408 -0.3916  0.5171
   12MOL0     C 1528   5.958   6.193   9.124  0.4114 -0.5258  0.6617
   12MOL0     C 1529   6.102   6.209   9.078  0.0913  0.1681 -0.4317
   12MOL0     C 1530   6.179   6.068   9.067 -0.0841 -1.1659 -0.1321
   12MOL0     C 1531   6.326   6.092   9.036  0.6682  0.7626 -0.6621
   12MOL0     C 1532   6.406   5.968   9.024 -0.1533  0.0015  0.3758
   12MOL0     C 1533   6.406   5.876   9.153 -0.5564  0.0194  0.0831
   12MOL0     C 1534   6.442   5.743   9.103  1.0095  0.5514  0.6963
   12MOL0     N 1535   6.435   5.628   9.193  0.1460 -0.3042  0.1803
   12MOL0     C 1536   6.347   5.622   9.305  0.0728  0.3026  0.1851
   12MOL0     C 1537   6.379   5.502   9.362 -0.8954  0.7225  0.3496
   12MOL0     C 1538   6.322   5.440   9.483 -0.5436  0.4834 -0.1773
   12MOL0     C 1539   6.192   5.490   9.545 -0.2997  0.1608  0.2624
   12MOL0     C 1540   6.133   5.372   9.630  0.4520  0.5242  0.2607
   12MOL0     C 1541   6.000   5.399   9.703 -0.9277  0.2835 -0.4664
   12MOL0     O 1542   5.994   5.322   9.819  0.2908 -0.2763  0.7427
   12MOL0     C 1543   5.913   5.207   9.809  0.0796 -0.0738 -0.4286
   12MOL0     C 1544   5.906   5.126   9.925 -1.1097  0.5308  0.1063
   12MOL0     C 1545   5.849   4.999   9.930  0.8994  0.7191 -0.0045
   12MOL0     C 1546   5.835   4.917  10.064  0.2654  0.0589 -0.2189
   12MOL0     C 1547   5.795   4.953   9.811 -0.0019 -0.7750  0.1865
   12MOL0     C 1548   5.718   4.827   9.811 -0.6099  0.2923 -0.5116
   12MOL0     O 1549   5.614   4.804   9.903 -0.4237  0.6686 -0.1784
   12MOL0     C 1550   5.538   4.682   9.887  0.3105 -0.1910 -0.7238
   12MOL0     C 1551   5.447   4.675   9.779 -0.4500 -0.3516 -0.3589
   12MOL0     C 1552   5.382   4.550   9.759 -0.0418 -0.3063 -0.0696
   12MOL0     C 1553   5.398   4.436   9.839  0.3064  0.3150  0.0562
   12MOL0     O 1554   5.338   4.314   9.814 -0.0080  0.4956 -0.3528
   12MOL0     C 1555   5.206   4.312   9.755 -0.1884  0.7041  0.1849
   12MOL0     C 1556   5.123   4.190   9.794  0.6088 -0.7579 -0.1636
   12MOL0     C 1557   5.017   4.146   9.693 -1.3704 -0.6813 -0.4006
   12MOL0     C 1558   4.885   4.212   9.713 -0.0313  0.1316 -0.7267
   12MOL0     C 1559   4.791   4.194   9.593  0.6441 -0.5778 -0.6371
   12MOL0     C 1560   4.836   4.278   9.479  0.6440  0.5377 -0.6589
   12MOL0     C 1561   4.730   4.271   9.368  0.7193  0.4756 -0.0429
   12MOL0     C 1562   4.749   4.391   9.285  0.3431 -0.3708 -0.4686
   12MOL0    Cl 1563   4.686   4.545   9.372  0.0004  0.3361  0.3378
   12MOL0     C 1564   5.482   4.449   9.951  1.1874  0.4818 -0.4962
   12MOL0     C 1565   5.554   4.570   9.980 -0.4646  0.1176  0.8213
   12MOL0     O 1566   5.748   4.748   9.718  0.2372  0.4187  0.5335
   12MOL0     C 1567   5.794   5.027   9.692 -0.1437 -1.0696  0.1570
   12MOL0     C 1568   5.854   5.151   9.694  0.2302 -0.4946  1.1329
   12MOL0     N 1569   6.498   5.459   9.308 -0.1699 -0.1195 -0.6640
   12MOL0     N 1570   6.533   5.539   9.201  0.3224  1.1397 -0.6934
   12MOL0     C 1571   6.103   6.086   9.554 -0.0333  0.7880 -0.2063
   12MOL0     C 1572   6.138   6.019   9.674 -0.2874  0.4465 -0.4194
   12MOL0     C 1573   6.224   5.738   9.997 -0.3920 -0.6745  0.2117
   12MOL0     C 1574   6.225   5.606   9.954 -0.2666 -0.0042 -0.3771
   12MOL0     C 1575   6.278   5.501  10.022  0.8884  0.3941  0.1121
   12MOL0     C 1576   6.347   5.535  10.137  0.1297 -0.2301  0.0527
   12MOL0     O 1577   6.405   5.432  10.204 -0.2335  0.2878 -1.2680
   12MOL0     C 1578   6.516   5.456  10.292  0.3246 -0.5605  0.3728
   12MOL0     C 1579   6.596   5.333  10.303 -0.3295 -0.3096  0.2209
   12MOL0     C 1580   6.666   5.313  10.165  0.2577  0.2485 -0.4489
   12MOL0     C 1581   6.770   5.201  10.141  0.2303 -0.0841  0.0856
   12MOL0     C 1582   6.726   5.074  10.185  0.1746  0.5577  0.0936
   12MOL0     C 1583   6.681   4.975  10.232  0.0751  0.6676  0.6684
   12MOL0     C 1584   6.342   5.658  10.193 -1.1054  0.7010  0.3183
   12MOL0     C 1585   6.287   5.767  10.116  0.0267 -0.5194 -0.8321
   12MOL0     C 1586   6.309   5.911  10.172 -1.1805  0.0296  0.3323
   12MOL0     H 1587   5.950   5.736   9.605  3.4598 -1.5156  2.8822
   12MOL0     H 1588   5.887   5.889   9.397  2.1385  0.1591 -0.9278
   12MOL0     H 1589   5.827   6.094   9.267 -0.3533 -0.1519  0.8329
   12MOL0     H 1590   5.954   5.991   9.196  0.4130 -0.2288  0.5317
   12MOL0     H 1591   5.897   6.165   9.037  0.9014  1.7496 -0.4819
   12MOL0     H 1592   5.918   6.289   9.155 -2.3971 -1.0780 -0.8408
   12MOL0     H 1593   6.103   6.259   8.981  0.1206 -0.9449 -1.0265
   12MOL0     H 1594   6.156   6.264   9.155 -0.8616  2.2035 -1.1504
   12MOL0     H 1595   6.173   6.014   9.162 -1.2573 -1.5592 -0.4165
   12MOL0     H 1596   6.144   6.004   8.985 -3.4357  1.4128 -0.9738
   12MOL0     H 1597   6.359   6.150   9.123 -0.9069  1.0890 -0.2587
   12MOL0     H 1598   6.337   6.153   8.946  1.1742 -1.6252 -2.3041
   12MOL0     H 1599   6.376   5.913   8.935  0.4819  1.2860 -0.6620
   12MOL0     H 1600   6.506   6.008   9.003 -0.6627  0.9262 -0.3571
   12MOL0     H 1601   6.316   5.876   9.213  0.4850 -1.7570  1.7556
   12MOL0     H 1602   6.481   5.913   9.223 -1.1132  1.2250  0.0632
   12MOL0     H 1603   6.361   5.712   9.036  0.3506  1.8332  0.8664
   12MOL0     H 1604   6.537   5.754   9.050  0.1767  1.7042 -0.6360
   12MOL0     H 1605   6.271   5.689   9.345  0.8992  1.1774  0.3337
   12MOL0     H 1606   6.405   5.418   9.551  0.2770 -3.0783 -2.0805
   12MOL0     H 1607   6.299   5.337   9.457 -0.1442 -0.1672  1.9382
   12MOL0     H 1608   6.213   5.580   9.603  0.5165 -0.0270  0.2743
   12MOL0     H 1609   6.115   5.513   9.471  0.2134 -2.9949 -1.4635
   12MOL0     H 1610   6.122   5.281   9.570  2.0122  0.5732 -0.1371
   12MOL0     H 1611   6.212   5.336   9.697  2.3706 -0.7253 -2.5193
   12MOL0     H 1612   6.012   5.503   9.736  1.4333  0.0147 -0.3589
   12MOL0     H 1613   5.910   5.394   9.640  0.3826  0.8266 -2.4911
   12MOL0     H 1614   5.934   5.178  10.016 -1.4632 -2.3496  1.9879
   12MOL0     H 1615   5.740   4.927  10.116 -0.2900 -1.8176 -0.7894
   12MOL0     H 1616   5.910   4.952  10.136 -0.0949 -0.7608  0.5679
   12MOL0     H 1617   5.846   4.809  10.051 -0.4389 -0.1107  0.5516
   12MOL0     H 1618   5.409   4.758   9.721 -0.4754  0.0306  0.1976
   12MOL0     H 1619   5.318   4.539   9.672  3.5095  2.5457 -3.4402
   12MOL0     H 1620   5.155   4.408   9.764 -0.2842  1.1280 -3.4455
   12MOL0     H 1621   5.217   4.314   9.646  2.0914  4.4713  0.3064
   12MOL0     H 1622   5.181   4.110   9.839 -1.7405 -2.2435  0.4026
   12MOL0     H 1623   5.067   4.236   9.876  0.2995 -0.2695 -0.6388
   12MOL0     H 1624   5.019   4.039   9.669  0.9846 -0.7066 -0.2913
   12MOL0     H 1625   5.069   4.171   9.600  2.2491 -3.4426  0.6280
   12MOL0     H 1626   4.908   4.319   9.708 -4.2119  1.1869 -2.1379
   12MOL0     H 1627   4.837   4.194   9.810 -1.0560  0.2135 -1.2006
   12MOL0     H 1628   4.785   4.092   9.553  0.9756 -0.5201 -0.8407
   12MOL0     H 1629   4.693   4.221   9.633  0.5207 -2.7188  0.6553
   12MOL0     H 1630   4.932   4.250   9.434  1.5018  1.2909  0.6270
   12MOL0     H 1631   4.846   4.381   9.516 -0.5795  0.0267  1.2794
   12MOL0     H 1632   4.628   4.274   9.408  0.5079  0.7147 -0.5949
   12MOL0     H 1633   4.724   4.183   9.305 -3.3398  1.1818 -0.9288
   12MOL0     H 1634   4.673   4.373   9.209  0.5416 -1.3291 -0.4510
   12MOL0     H 1635   4.845   4.404   9.233 -0.6646 -0.6156 -2.4646
   12MOL0     H 1636   5.493   4.361  10.013  1.6730  0.9295  0.0611
   12MOL0     H 1637   5.620   4.564  10.066  3.3598 -1.2449 -1.9649
   12MOL0     H 1638   5.738   4.998   9.604 -0.9795 -1.6600  0.8752
   12MOL0     H 1639   5.864   5.203   9.600  0.1321  2.8790  2.8337
   12MOL0     H 1640   6.149   6.179   9.520 -0.8658  1.5407  0.6932
   12MOL0     H 1641   6.226   6.055   9.725  0.5031 -1.6419 -0.1914
   12MOL0     H 1642   6.167   5.578   9.867 -1.4033 -1.1200  0.6992
   12MOL0     H 1643   6.279   5.398   9.989  0.2933  1.0510 -2.0998
   12MOL0     H 1644   6.584   5.527  10.244  1.1716 -3.0245 -2.4251
   12MOL0     H 1645   6.477   5.493  10.387  0.2548 -1.6925  0.8052
   12MOL0     H 1646   6.527   5.254  10.334 -1.6780  1.4330  1.9567
   12MOL0     H 1647   6.666   5.344  10.386 -0.7521  1.6294  0.3652
   12MOL0     H 1648   6.586   5.292  10.093 -1.1707 -1.7903  1.5492
   12MOL0     H 1649   6.718   5.406  10.142  5.3489 -1.7787  1.3660
   12MOL0     H 1650   6.867   5.217  10.189  0.4263  0.2289 -0.3962
   12MOL0     H 1651   6.793   5.197  10.034 -0.5640  4.5566 -0.4979
   12MOL0     H 1652   6.644   4.880  10.266 -0.8106  1.0386  0.7852
   12MOL0     H 1653   6.401   5.681  10.282  0.0864  0.6451 -0.4308
   12MOL0     H 1654   6.209   5.953  10.192  0.2630  2.4281  3.3607
   12MOL0     H 1655   6.360   5.916  10.269 -1.6039  1.3916  0.5018
   12MOL0     H 1656   6.352   5.978  10.097 -3.3514  1.8111  0.5566
   13MOL0     O 1657  11.225   3.109   3.838  0.1040 -1.0535 -0.1507
   13MOL0     C 1658  11.127   3.130   3.907  1.0201  0.6168  0.1782
   13MOL0     O 1659  11.120   3.209   4.012  0.2560  0.5923 -0.4828
   13MOL0     C 1660  11.218   3.277   4.066 -0.4901 -0.0232 -0.3868
   13MOL0     C 1661  11.192   3.407   4.117  0.6353 -0.0183  0.3512
   13MOL0     C 1662  11.289   3.472   4.192 -0.2218 -1.3767 -0.3465
   13MOL0     C 1663  11.408   3.417   4.223  0.0848 -0.0791  0.6434
   13MOL0     O 1664  11.515   3.480   4.287  0.0324  0.2429  0.3549
   13MOL0     C 1665  11.558   3.610   4.249 -0.1238  0.0083  0.2674
   13MOL0     C 1666  11.710   3.617   4.287 -1.1256  0.5722  0.0936
   13MOL0     C 1667  11.798   3.717   4.208 -0.4868  0.3269  0.2145
   13MOL0     C 1668  11.945   3.662   4.205 -0.0327 -0.2416 -0.1550
   13MOL0     C 1669  12.032   3.756   4.125  0.5201  0.2824 -0.3472
   13MOL0     C 1670  12.164   3.688   4.070 -0.2034 -0.5687 -0.0900
   13MOL0     C 1671  12.170   3.593   3.949  0.1285  0.0914  0.4214
   13MOL0     C 1672  12.070   3.483   3.940  0.5622 -0.3974  0.0608
   13MOL0     N 1673  11.935   3.517   3.892  0.3912 -0.1139 -0.0628
   13MOL0     C 1674  11.819   3.494   3.954  0.6182  0.0310 -0.6488
   13MOL0     C 1675  11.733   3.504   3.856 -0.5284  0.3859  0.3441
   13MOL0     C 1676  11.588   3.495   3.878  0.2673  0.2216  0.0663
   13MOL0     C 1677  11.536   3.362   3.803  0.1100 -0.3548 -0.1536
   13MOL0     C 1678  11.399   3.392   3.745  0.5744 -0.4627  0.0525
   13MOL0     C 1679  11.399   3.484   3.613 -0.5810 -0.3218 -0.1413
   13MOL0     O 1680  11.266   3.487   3.555  0.1961  0.8282 -0.7549
   13MOL0     C 1681  11.233   3.573   3.457  0.3760  0.7357  0.1790
   13MOL0     C 1682  11.097   3.567   3.420 -0.0245  0.9946 -0.4486
   13MOL0     C 1683  11.045   3.641   3.307  0.4162  0.3326 -0.3111
   13MOL0     C 1684  10.893   3.630   3.286 -0.0668  0.6643 -0.2824
   13MOL0     C 1685  11.125   3.725   3.233 -0.1555  0.2809  0.0773
   13MOL0     C 1686  11.077   3.815   3.115 -0.0780  0.2690 -0.1935
   13MOL0     O 1687  11.176   3.878   3.046  0.4422 -0.0358 -0.4402
   13MOL0     C 1688  11.135   3.975   2.952 -0.2302  0.3581 -0.0116
   13MOL0     C 1689  11.028   4.072   2.981  0.6828 -0.0351 -0.2795
   13MOL0     C 1690  10.974   4.148   2.873 -0.4448  0.8705  0.2073
   13MOL0     C 1691  11.035   4.141   2.743 -0.0835 -0.4023  0.7684
   13MOL0     O 1692  11.003   4.216   2.634  0.3500 -0.0997  0.2159
   13MOL0     C 1693  10.861   4.238   2.627 -0.7310 -0.2719  0.7057
   13MOL0     C 1694  10.848   4.334   2.501  0.3084 -0.0258  0.4686
   13MOL0     C 1695  10.867   4.269   2.359  0.9739  0.2853 -0.0443
   13MOL0     C 1696  10.742   4.226   2.288 -0.0309  0.1868 -0.0215
   13MOL0     C 1697  10.766   4.156   2.157 -0.0278  1.1503  0.0719
   13MOL0     C 1698  10.784   4.243   2.039  0.2246 -0.2709  0.4052
   13MOL0     C 1699  10.811   4.175   1.897 -0.3613  0.1089 -0.1800
   13MOL0     C 1700  10.701   4.093   1.828 -0.7573 -1.0900 -0.6462
   13MOL0    Cl 1701  10.719   4.079   1.656 -0.0744  0.4061  0.2560
   13MOL0     C 1702  11.139   4.058   2.730 -0.1114 -0.0115 -0.3367
   13MOL0     C 1703  11.191   3.971   2.821  0.7508 -0.1298 -0.1991
   13MOL0     O 1704  10.967   3.802   3.073  0.3246  0.8504  0.0260
   13MOL0     C 1705  11.259   3.730   3.267 -0.4864 -0.7848 -0.7540
   13MOL0     C 1706  11.315   3.658   3.372  0.3723  0.2065 -0.2115
   13MOL0     N 1707  11.790   3.548   3.743  0.3302  0.8345  0.5165
   13MOL0     N 1708  11.918   3.554   3.762  0.5173 -0.6259 -0.2599
   13MOL0     C 1709  11.437   3.297   4.165 -0.3525 -0.1013 -0.8001
   13MOL0     C 1710  11.347   3.222   4.087  0.2405 -1.7973  0.7405
   13MOL0     C 1711  11.005   3.048   3.856 -0.3176 -1.2160  0.2300
   13MOL0     C 1712  10.894   3.025   3.940 -0.1541 -0.6953 -0.1776
   13MOL0     C 1713  10.788   2.941   3.915  0.0696  0.2805 -0.7505
   13MOL0     C 1714  10.768   2.878   3.797 -1.1965 -0.4866  0.7342
   13MOL0     O 1715  10.658   2.794   3.774 -0.2638 -0.5975  0.4226
   13MOL0     C 1716  10.548   2.793   3.869  0.2688  0.2143 -0.0034
   13MOL0     C 1717  10.451   2.919   3.846 -0.6226  0.7487  0.5797
   13MOL0     C 1718  10.394   2.933   3.707 -0.0907 -0.0937 -0.4444
   13MOL0     C 1719  10.325   3.069   3.703 -0.1106  0.6027  0.1151
   13MOL0     C 1720  10.420   3.186   3.715 -0.3819 -1.0073 -1.8350
   13MOL0     C 1721  10.490   3.286   3.730  0.7560 -0.0721  0.7024
   13MOL0     C 1722  10.882   2.892   3.708 -0.4822  0.0288  0.1135
   13MOL0     C 1723  10.989   2.978   3.726 -0.9189  0.6788  0.3787
   13MOL0     C 1724  11.083   2.978   3.605 -0.0750 -0.6343  0.6157
   13MOL0     H 1725  11.092   3.447   4.104 -0.1092 -1.8927  0.0871
   13MOL0     H 1726  11.283   3.577   4.219  1.2874 -1.6290  1.1618
   13MOL0     H 1727  11.497   3.686   4.298  1.3918 -0.2018  2.6512
   13MOL0     H 1728  11.548   3.610   4.140 -2.4121 -2.0552  0.3890
   13MOL0     H 1729  11.722   3.642   4.392 -2.2892 -0.8578  0.5914
   13MOL0     H 1730  11.754   3.518   4.272  1.1241  1.7353 -1.6264
   13MOL0     H 1731  11.757   3.724   4.107  0.4924 -0.0497 -0.2311
   13MOL0     H 1732  11.790   3.810   4.265  0.3308  0.5306  0.0069
   13MOL0     H 1733  11.986   3.669   4.306  0.5323 -1.9053 -0.2469
   13MOL0     H 1734  11.952   3.559   4.168  1.5628 -0.1540 -0.1706
   13MOL0     H 1735  12.059   3.843   4.186 -1.3319 -0.1027  1.1291
   13MOL0     H 1736  11.975   3.802   4.043 -0.5439 -1.9118 -0.9260
   13MOL0     H 1737  12.241   3.764   4.054  3.0905 -3.5135  0.4043
   13MOL0     H 1738  12.196   3.626   4.155 -0.2191 -0.6364 -0.1333
   13MOL0     H 1739  12.268   3.544   3.955 -0.4794 -1.3039 -0.5168
   13MOL0     H 1740  12.163   3.658   3.861 -0.8521  2.1434  1.9458
   13MOL0     H 1741  12.117   3.416   3.868  3.1203 -0.5978  1.7772
   13MOL0     H 1742  12.058   3.422   4.031 -3.4175 -2.2716 -1.4528
   13MOL0     H 1743  11.796   3.460   4.055 -1.3677 -2.0308 -1.7063
   13MOL0     H 1744  11.537   3.578   3.829 -0.3784 -2.3934 -4.2437
   13MOL0     H 1745  11.564   3.494   3.985  0.4061  1.1134  0.1131
   13MOL0     H 1746  11.578   3.324   3.709 -5.5857 -1.7213 -2.5280
   13MOL0     H 1747  11.540   3.278   3.873 -0.9757  1.2346  1.9362
   13MOL0     H 1748  11.359   3.297   3.708 -1.4659  0.2882  0.2308
   13MOL0     H 1749  11.334   3.437   3.820  1.6273 -0.0050  0.7073
   13MOL0     H 1750  11.430   3.582   3.652  1.3200 -1.2683  0.8569
   13MOL0     H 1751  11.475   3.454   3.541 -1.0039 -0.8904 -0.3537
   13MOL0     H 1752  11.036   3.489   3.464  2.8717 -0.8124  0.7398
   13MOL0     H 1753  10.848   3.719   3.330  0.2963  0.6970  0.0234
   13MOL0     H 1754  10.858   3.543   3.343 -1.6063  1.3236 -0.1670
   13MOL0     H 1755  10.865   3.594   3.186  1.1850  0.9361 -0.7495
   13MOL0     H 1756  10.983   4.076   3.080  1.7560  1.0404  0.1898
   13MOL0     H 1757  10.894   4.218   2.896 -1.4366 -0.0568 -0.3521
   13MOL0     H 1758  10.795   4.150   2.625 -2.3662  0.8994 -1.4983
   13MOL0     H 1759  10.814   4.298   2.705 -1.2751 -0.3187  0.4237
   13MOL0     H 1760  10.756   4.392   2.509  1.6864  2.4389 -0.5892
   13MOL0     H 1761  10.928   4.406   2.518 -0.2646 -0.0930  4.2531
   13MOL0     H 1762  10.936   4.186   2.375  0.2455 -0.1823  0.7780
   13MOL0     H 1763  10.913   4.337   2.287  0.5724  1.2519  0.5869
   13MOL0     H 1764  10.676   4.311   2.268  1.2334  0.9908 -0.8707
   13MOL0     H 1765  10.673   4.171   2.354  1.1679 -0.0919  1.0352
   13MOL0     H 1766  10.856   4.095   2.168 -0.1495  1.2631  2.1359
   13MOL0     H 1767  10.679   4.093   2.135  0.8495 -0.3469  0.7476
   13MOL0     H 1768  10.869   4.310   2.050 -0.6350  1.0337 -0.4766
   13MOL0     H 1769  10.695   4.304   2.019  0.0029 -0.8133 -0.3123
   13MOL0     H 1770  10.890   4.104   1.922 -1.0412  0.0894  2.1392
   13MOL0     H 1771  10.846   4.251   1.827 -0.9888  0.4918 -0.0876
   13MOL0     H 1772  10.606   4.144   1.845 -1.0174 -1.5546 -0.6842
   13MOL0     H 1773  10.687   3.994   1.873 -2.3363 -1.1915 -1.3059
   13MOL0     H 1774  11.188   4.053   2.633 -0.2636  3.1463 -0.6780
   13MOL0     H 1775  11.279   3.914   2.792  0.0678 -0.9461 -0.7271
   13MOL0     H 1776  11.320   3.801   3.213 -2.0395  0.4742 -0.9068
   13MOL0     H 1777  11.420   3.666   3.401  0.8739 -0.8066 -1.6226
   13MOL0     H 1778  11.543   3.274   4.159 -0.2990  0.5555 -4.4089
   13MOL0     H 1779  11.376   3.133   4.032  0.8307  0.2116 -2.4748
   13MOL0     H 1780  10.906   3.081   4.033  0.1312  0.8080 -1.0774
   13MOL0     H 1781  10.722   2.930   3.999 -1.1017 -3.4595 -1.9825
   13MOL0     H 1782  10.481   2.708   3.855  0.3735  0.0069  0.7418
   13MOL0     H 1783  10.588   2.791   3.971  0.3249  1.2946  0.0079
   13MOL0     H 1784  10.481   3.015   3.890 -2.1993  1.5205  0.0451
   13MOL0     H 1785  10.374   2.902   3.923 -0.9762  2.6888  0.7044
   13MOL0     H 1786  10.471   2.938   3.630 -0.9262  2.4830 -1.2343
   13MOL0     H 1787  10.324   2.850   3.690 -1.0811  1.0570 -2.2569
   13MOL0     H 1788  10.258   3.077   3.789  0.8442 -0.7068  1.0179
   13MOL0     H 1789  10.254   3.070   3.619 -0.9015 -1.6495  0.6789
   13MOL0     H 1790  10.548   3.374   3.751 -0.6074  0.3955  2.7200
   13MOL0     H 1791  10.883   2.815   3.632 -1.5818 -0.0946  0.2024
   13MOL0     H 1792  11.109   2.880   3.565 -0.6490 -2.1404  3.6812
   13MOL0     H 1793  11.041   3.044   3.527  2.0696 -0.3012 -0.3385
   13MOL0     H 1794  11.180   3.028   3.619 -1.7457  3.2292 -0.3273
   14MOL0     O 1795   4.066   4.507  11.005 -0.8901 -0.5544  0.8267
   14MOL0     C 1796   4.189   4.501  11.024  0.3691  0.5071 -0.6660
   14MOL0     O 1797   4.285   4.594  11.000 -0.1853 -0.6644  0.2533
   14MOL0     C 1798   4.238   4.706  10.937 -0.5146  0.2223 -0.3971
   14MOL0     C 1799   4.250   4.720  10.798 -0.6987 -0.6007 -0.7572
   14MOL0     C 1800   4.202   4.840  10.741  0.2846 -0.4843  0.9696
   14MOL0     C 1801   4.148   4.947  10.818 -0.2142 -0.1503  0.4482
   14MOL0     O 1802   4.109   5.061  10.758 -0.4493  0.2736  0.1989
   14MOL0     C 1803   4.013   5.045  10.654  0.3367  0.4419  1.2441
   14MOL0     C 1804   4.046   5.121  10.535  0.1824  0.6585  0.8354
   14MOL0     C 1805   3.988   5.261  10.533 -0.4146 -0.4928  0.7542
   14MOL0     C 1806   3.999   5.332  10.393 -0.1018  1.1225 -0.1701
   14MOL0     C 1807   3.883   5.431  10.372 -0.2612 -0.2254  0.6307
   14MOL0     C 1808   3.903   5.567  10.426 -0.0936  0.1349  0.6011
   14MOL0     C 1809   3.774   5.650  10.426 -1.0070  0.0305 -0.2177
   14MOL0     C 1810   3.688   5.664  10.292 -0.4040  0.4268 -0.8983
   14MOL0     N 1811   3.562   5.734  10.312  0.6736 -0.0519  0.1185
   14MOL0     C 1812   3.528   5.850  10.384 -0.6768  0.8631  0.4975
   14MOL0     C 1813   3.389   5.848  10.378 -1.1125  1.1675 -0.0414
   14MOL0     C 1814   3.287   5.945  10.436  0.5709  0.1346  0.3854
   14MOL0     C 1815   3.192   6.000  10.332 -0.6360 -0.1258 -0.0208
   14MOL0     C 1816   3.270   6.091  10.243 -0.7949  0.2797 -0.4205
   14MOL0     C 1817   3.189   6.118  10.116 -0.5767  0.7701  0.9476
   14MOL0     O 1818   3.282   6.184  10.022  0.7891  1.0452 -0.0768
   14MOL0     C 1819   3.326   6.095   9.925 -0.5578  0.1903 -0.8744
   14MOL0     C 1820   3.366   5.963   9.953 -0.0856 -0.6043  0.0164
   14MOL0     C 1821   3.414   5.880   9.845 -0.0357  0.1517 -0.2138
   14MOL0     C 1822   3.418   5.727   9.871  0.3892  0.2772 -0.9411
   14MOL0     C 1823   3.438   5.935   9.719 -0.1674 -0.8593  1.2295
   14MOL0     C 1824   3.470   5.847   9.614  0.5641 -0.5310  0.0678
   14MOL0     O 1825   3.581   5.768   9.629  0.7688 -0.5705  0.0058
   14MOL0     C 1826   3.624   5.700   9.512  0.1821 -0.4128  0.4299
   14MOL0     C 1827   3.679   5.573   9.521 -0.5765  0.3658 -0.7848
   14MOL0     C 1828   3.755   5.501   9.424  0.6342 -0.6808  0.7544
   14MOL0     C 1829   3.746   5.566   9.294  0.2972  0.6333 -0.9149
   14MOL0     O 1830   3.815   5.503   9.186 -0.3742 -0.2784  0.0672
   14MOL0     C 1831   3.751   5.521   9.061 -0.4722  0.6201  0.9700
   14MOL0     C 1832   3.798   5.415   8.953 -0.3058 -0.5699 -0.6417
   14MOL0     C 1833   3.753   5.265   8.996 -0.9036 -0.4149 -0.1372
   14MOL0     C 1834   3.601   5.253   9.016 -0.4814  0.1240  0.1597
   14MOL0     C 1835   3.562   5.103   9.040  0.0035  0.6626  0.0825
   14MOL0     C 1836   3.657   5.034   9.134  0.1113  0.3824 -0.3220
   14MOL0     C 1837   3.601   4.898   9.182  0.5402  0.0775  0.2357
   14MOL0     C 1838   3.696   4.813   9.266  0.7420 -0.1905 -0.7245
   14MOL0    Cl 1839   3.697   4.899   9.433 -0.0716 -0.0797 -0.2629
   14MOL0     C 1840   3.683   5.693   9.270 -0.5150 -0.6698  0.1684
   14MOL0     C 1841   3.619   5.756   9.375 -0.3297  1.3544 -0.0849
   14MOL0     O 1842   3.383   5.840   9.522  0.1716  0.2329  0.1612
   14MOL0     C 1843   3.404   6.072   9.696 -1.1324  0.8313  0.4120
   14MOL0     C 1844   3.342   6.147   9.800  0.3428  0.9439 -0.1449
   14MOL0     N 1845   3.343   5.732  10.314 -0.0206 -0.8839  0.3395
   14MOL0     N 1846   3.445   5.665  10.281  0.5925 -0.1555 -0.0754
   14MOL0     C 1847   4.156   4.940  10.956  0.8221 -0.4639 -0.1585
   14MOL0     C 1848   4.205   4.820  11.013  0.0549  1.2192 -0.7489
   14MOL0     C 1849   4.228   4.361  11.067  0.0217 -0.8418  0.4502
   14MOL0     C 1850   4.304   4.294  10.973 -0.3943 -0.3642  0.0264
   14MOL0     C 1851   4.346   4.166  10.999  0.1083  0.2160 -0.2646
   14MOL0     C 1852   4.312   4.100  11.114  0.4092 -0.2703 -0.1139
   14MOL0     O 1853   4.368   3.970  11.109 -1.0441 -0.1119  0.0328
   14MOL0     C 1854   4.308   3.887  11.200 -0.5335  0.4810 -0.4400
   14MOL0     C 1855   4.359   3.749  11.158 -0.2483  0.7577  0.6004
   14MOL0     C 1856   4.482   3.704  11.239  0.4347 -0.3896 -0.0670
   14MOL0     C 1857   4.452   3.629  11.366  0.3156 -0.3465 -0.4396
   14MOL0     C 1858   4.568   3.607  11.456  0.1611  0.8839  0.9564
   14MOL0     C 1859   4.704   3.574  11.585 -0.1127  0.4219  0.3878
   14MOL0     C 1860   4.217   4.162  11.206  0.9104 -0.3223 -0.7219
   14MOL0     C 1861   4.175   4.297  11.183 -0.7369  0.1258 -0.0760
   14MOL0     C 1862   4.089   4.367  11.282 -0.0162  0.5433  0.1477
   14MOL0     H 1863   4.292   4.637  10.742 -0.7316 -0.2497 -1.3193
   14MOL0     H 1864   4.205   4.859  10.634  0.2125 -0.4195  0.9790
   14MOL0     H 1865   3.911   5.056  10.691 -1.6417  3.0433 -4.0589
   14MOL0     H 1866   4.005   4.941  10.623 -0.5952 -0.1246  3.2507
   14MOL0     H 1867   4.150   5.111  10.503  0.4267 -2.8501  2.2809
   14MOL0     H 1868   3.988   5.067  10.458 -2.3380  0.9357  2.4194
   14MOL0     H 1869   3.881   5.257  10.558 -0.0645  0.9833  2.7183
   14MOL0     H 1870   4.046   5.320  10.605  1.2850 -1.5588  0.2951
   14MOL0     H 1871   4.099   5.376  10.389  0.9607 -1.1777 -0.1508
   14MOL0     H 1872   3.980   5.258  10.315 -4.4679 -0.2139  1.8426
   14MOL0     H 1873   3.789   5.388  10.408 -0.7347  1.1962  1.1768
   14MOL0     H 1874   3.880   5.443  10.263 -0.3778 -2.3885  0.3448
   14MOL0     H 1875   3.944   5.571  10.527 -0.8520 -0.0627  0.9166
   14MOL0     H 1876   3.973   5.623  10.362  1.1741 -2.5133 -0.4938
   14MOL0     H 1877   3.796   5.750  10.466  0.1577 -1.4190  3.1065
   14MOL0     H 1878   3.704   5.616  10.503 -1.4733 -0.3667 -0.8092
   14MOL0     H 1879   3.745   5.715  10.213 -0.3199  2.4907  0.4230
   14MOL0     H 1880   3.668   5.562  10.259  0.7605  0.5007 -1.8871
   14MOL0     H 1881   3.593   5.915  10.442  0.2560  2.1462 -1.8244
   14MOL0     H 1882   3.330   6.026  10.495  0.3622  0.9818 -0.6005
   14MOL0     H 1883   3.221   5.885  10.501 -0.7180 -1.9698 -2.6320
   14MOL0     H 1884   3.128   5.926  10.284 -3.2064  1.3313  0.9494
   14MOL0     H 1885   3.130   6.070  10.390  1.5960  2.3128 -0.3868
   14MOL0     H 1886   3.298   6.173  10.310 -2.3287  0.6935 -0.2387
   14MOL0     H 1887   3.363   6.043  10.211 -1.3116 -1.3547  0.3931
   14MOL0     H 1888   3.155   6.024  10.071  1.9592  2.0714 -4.5330
   14MOL0     H 1889   3.103   6.184  10.132 -0.7619  0.7043  0.2616
   14MOL0     H 1890   3.334   5.920  10.048  0.6610  1.6912  1.3733
   14MOL0     H 1891   3.400   5.702   9.976  0.1192  1.5139 -0.6752
   14MOL0     H 1892   3.514   5.686   9.836  1.1620  2.9751 -2.3406
   14MOL0     H 1893   3.331   5.684   9.821  0.9467 -1.9190 -0.1330
   14MOL0     H 1894   3.679   5.527   9.619  0.2132  1.2605 -0.3500
   14MOL0     H 1895   3.815   5.411   9.423 -1.4636 -2.1653 -0.8449
   14MOL0     H 1896   3.641   5.520   9.063 -0.5724 -1.8662 -0.7021
   14MOL0     H 1897   3.782   5.621   9.029  1.4305  0.3060  1.6965
   14MOL0     H 1898   3.766   5.444   8.853  2.0435  0.3977 -1.1955
   14MOL0     H 1899   3.907   5.421   8.941 -0.2542  0.3841  0.2289
   14MOL0     H 1900   3.805   5.243   9.089 -0.5291 -1.3572 -0.5574
   14MOL0     H 1901   3.791   5.201   8.916 -1.8304 -0.7851 -0.3013
   14MOL0     H 1902   3.538   5.298   8.939 -1.9991  0.9153  1.8083
   14MOL0     H 1903   3.576   5.304   9.109 -0.4725 -1.2605  0.9381
   14MOL0     H 1904   3.456   5.108   9.069 -1.1278 -1.4323 -3.0078
   14MOL0     H 1905   3.556   5.053   8.943 -1.2044  0.8165  0.0614
   14MOL0     H 1906   3.679   5.094   9.222 -0.3973  2.6610 -1.6823
   14MOL0     H 1907   3.754   5.018   9.087  0.0233  2.9392 -1.5340
   14MOL0     H 1908   3.567   4.846   9.092 -0.3088  1.6352 -0.3912
   14MOL0     H 1909   3.505   4.917   9.232  1.2315  1.2313  1.1879
   14MOL0     H 1910   3.794   4.801   9.217  1.3281  2.3448 -0.2977
   14MOL0     H 1911   3.646   4.719   9.291 -0.1099  0.6005  0.6943
   14MOL0     H 1912   3.691   5.746   9.176  1.1189  0.5205  0.9409
   14MOL0     H 1913   3.574   5.853   9.354 -0.9013  0.6493 -2.3711
   14MOL0     H 1914   3.415   6.107   9.594 -3.1234  1.0825  0.2443
   14MOL0     H 1915   3.301   6.248   9.793 -0.9918  0.6767  2.4023
   14MOL0     H 1916   4.123   5.020  11.021 -1.2630 -0.1878 -1.4526
   14MOL0     H 1917   4.182   4.806  11.118 -0.7149  0.2051 -1.0384
   14MOL0     H 1918   4.322   4.337  10.875 -0.8529 -1.4060 -0.5350
   14MOL0     H 1919   4.388   4.107  10.918  1.6153  2.6172 -1.3255
   14MOL0     H 1920   4.341   3.906  11.302 -1.6533 -0.1957  0.0676
   14MOL0     H 1921   4.199   3.880  11.198 -0.5809  0.6226  0.8416
   14MOL0     H 1922   4.397   3.744  11.056  2.8389 -2.7115  1.7130
   14MOL0     H 1923   4.282   3.672  11.164 -0.7122  0.8188 -2.6978
   14MOL0     H 1924   4.533   3.629  11.178  1.0555 -1.2524  1.4292
   14MOL0     H 1925   4.558   3.783  11.249  2.9544 -2.6191 -0.3908
   14MOL0     H 1926   4.406   3.530  11.359  3.3210 -1.9456  0.8970
   14MOL0     H 1927   4.380   3.693  11.419 -0.0010  0.2649 -1.5700
   14MOL0     H 1928   4.784   3.556  11.655 -0.4449  1.1916  0.9871
   14MOL0     H 1929   4.183   4.102  11.290 -1.3042  0.8680 -0.6968
   14MOL0     H 1930   4.160   4.374  11.365  1.3280  1.6553 -1.0616
   14MOL0     H 1931   4.058   4.464  11.242  1.9207  1.6518  1.2161
   14MOL0     H 1932   3.999   4.317  11.320  0.3393 -0.7183 -0.6090
   15MOL0     O 1933   0.337   2.106   4.736  0.4819 -1.3250  0.5518
   15MOL0     C 1934   0.410   2.150   4.822  0.2108 -0.6798  0.0466
   15MOL0     O 1935   0.409   2.275   4.865  0.4395 -0.7059  0.1342
   15MOL0     C 1936   0.301   2.357   4.840  0.4349 -0.3226  0.1329
   15MOL0     C 1937   0.252   2.430   4.943 -0.1478 -1.3839 -0.9292
   15MOL0     C 1938   0.154   2.531   4.928 -0.4027  0.0942 -0.1049
   15MOL0     C 1939   0.093   2.550   4.804  0.7582  0.3300  0.3900
   15MOL0     O 1940  -0.010   2.652   4.802 -0.4285  0.0753 -0.8379
   15MOL0     C 1941  -0.089   2.667   4.687 -0.3959 -0.0411  0.2348
   15MOL0     C 1942  -0.196   2.552   4.681 -0.4228 -0.5100  0.6221
   15MOL0     C 1943  -0.277   2.558   4.558 -0.7377  0.0887 -0.4503
   15MOL0     C 1944  -0.381   2.446   4.556 -0.0523  0.5413  0.4193
   15MOL0     C 1945  -0.439   2.433   4.408  0.0951  0.3918  0.0977
   15MOL0     C 1946  -0.556   2.336   4.382 -0.1404  0.3731 -0.0902
   15MOL0     C 1947  -0.503   2.188   4.357  0.3119  0.1769 -0.7133
   15MOL0     C 1948  -0.608   2.079   4.344 -0.5209 -0.2567 -0.1449
   15MOL0     N 1949  -0.682   2.111   4.222  0.0318  1.0175  0.2531
   15MOL0     C 1950  -0.820   2.125   4.221  0.4505  0.3052  0.4283
   15MOL0     C 1951  -0.852   2.182   4.109 -0.1989  0.0070 -0.2179
   15MOL0     C 1952  -0.979   2.248   4.065 -0.5969  0.2462 -0.5617
   15MOL0     C 1953  -0.974   2.397   4.034  0.1794 -0.8743 -0.1822
   15MOL0     C 1954  -0.937   2.498   4.142 -0.0651  0.9507 -0.3895
   15MOL0     C 1955  -0.797   2.562   4.127 -0.0896 -0.9313  0.5691
   15MOL0     O 1956  -0.798   2.649   4.239  0.0755  0.3300  0.0298
   15MOL0     C 1957  -0.687   2.712   4.276  0.0789  0.5825  0.3246
   15MOL0     C 1958  -0.571   2.744   4.200 -0.1886 -0.1329 -0.1546
   15MOL0     C 1959  -0.467   2.817   4.251 -0.2259  0.1533  0.4579
   15MOL0     C 1960  -0.349   2.871   4.169  0.2889  0.1999 -0.0532
   15MOL0     C 1961  -0.474   2.858   4.385 -0.0852 -0.2699  0.9135
   15MOL0     C 1962  -0.371   2.930   4.453  0.3496 -0.2291 -1.1007
   15MOL0     O 1963  -0.408   3.028   4.531 -0.1304 -0.3257  0.2287
   15MOL0     C 1964  -0.323   3.116   4.585 -0.1198  1.1420 -0.2238
   15MOL0     C 1965  -0.286   3.234   4.524  0.3303  0.2253 -0.7274
   15MOL0     C 1966  -0.179   3.305   4.563  0.2820 -0.4395  0.0793
   15MOL0     C 1967  -0.117   3.279   4.683  0.0528  0.5534 -0.0786
   15MOL0     O 1968   0.005   3.344   4.724  0.6677  0.8197 -0.3226
   15MOL0     C 1969   0.064   3.444   4.636 -0.1866  0.5957  0.2376
   15MOL0     C 1970  -0.003   3.574   4.646 -0.6929 -0.3616 -0.0555
   15MOL0     C 1971   0.060   3.678   4.745 -0.3205  0.7308  0.5832
   15MOL0     C 1972   0.179   3.757   4.683  0.3165  0.9813  0.7019
   15MOL0     C 1973   0.214   3.869   4.773 -0.1584 -0.9566 -0.5221
   15MOL0     C 1974   0.339   3.940   4.741  0.1110  0.6476 -0.0451
   15MOL0     C 1975   0.354   4.063   4.833  0.7967  0.9444 -0.0482
   15MOL0     C 1976   0.505   4.113   4.824 -0.3788 -1.1884 -0.1636
   15MOL0    Cl 1977   0.527   4.221   4.675 -0.2261 -0.2228  0.0782
   15MOL0     C 1978  -0.173   3.171   4.754 -0.0705 -0.1499 -0.7378
   15MOL0     C 1979  -0.267   3.088   4.705 -0.2096  0.8398  0.4251
   15MOL0     O 1980  -0.257   2.905   4.447 -0.1664 -0.2358 -0.3143
   15MOL0     C 1981  -0.586   2.833   4.466  0.4919 -0.9165  0.4829
   15MOL0     C 1982  -0.688   2.755   4.408 -0.5609 -0.8627  0.9469
   15MOL0     N 1983  -0.744   2.176   4.032 -0.5749 -0.4471 -0.2196
   15MOL0     N 1984  -0.630   2.132   4.097  0.3234 -0.4305  0.7166
   15MOL0     C 1985   0.137   2.470   4.698  0.5755 -0.0616 -0.8720
   15MOL0     C 1986   0.243   2.382   4.714  0.1182 -0.2062 -0.0436
   15MOL0     C 1987   0.501   2.054   4.894  0.5827 -0.1367  0.3422
   15MOL0     C 1988   0.489   2.044   5.030 -0.6141  0.8888 -1.0098
   15MOL0     C 1989   0.580   1.961   5.099  0.3148  0.4041  0.3815
   15MOL0     C 1990   0.681   1.890   5.038 -0.2304  0.1038 -0.0923
   15MOL0     O 1991   0.756   1.818   5.129 -0.0412 -0.4644 -0.4069
   15MOL0     C 1992   0.884   1.762   5.078 -0.2546 -0.4245 -0.2097
   15MOL0     C 1993   0.933   1.669   5.190  0.4825 -0.3324 -0.2893
   15MOL0     C 1994   0.955   1.745   5.323  0.4031  0.0612  0.0563
   15MOL0     C 1995   1.101   1.784   5.344  0.0709 -0.7935 -0.4496
   15MOL0     C 1996   1.137   1.911   5.291 -0.6959 -0.5208  0.6981
   15MOL0     C 1997   1.193   2.005   5.228  0.4595 -0.0183 -0.1281
   15MOL0     C 1998   0.686   1.906   4.899  0.3263 -0.1835  1.1049
   15MOL0     C 1999   0.611   1.992   4.821 -1.0177  0.1719  0.1263
   15MOL0     C 2000   0.636   2.002   4.666  0.0740  0.9902 -0.2739
   15MOL0     H 2001   0.293   2.413   5.042 -0.6274 -0.6140 -0.5926
   15MOL0     H 2002   0.111   2.574   5.018  0.0698 -0.8523  0.6018
   15MOL0     H 2003  -0.025   2.682   4.600  3.6435 -0.1354  2.9020
   15MOL0     H 2004  -0.148   2.758   4.696 -1.5645 -0.6451 -0.9675
   15MOL0     H 2005  -0.146   2.457   4.703  1.0041  0.6288  2.6401
   15MOL0     H 2006  -0.264   2.567   4.766  1.0463  1.4558  1.5327
   15MOL0     H 2007  -0.326   2.656   4.555 -3.5238 -1.1865 -3.5710
   15MOL0     H 2008  -0.219   2.556   4.465  0.7980  1.8118  0.3998
   15MOL0     H 2009  -0.336   2.352   4.589 -1.6841  0.5676  2.9993
   15MOL0     H 2010  -0.454   2.444   4.637 -0.1940  0.5545  0.2949
   15MOL0     H 2011  -0.350   2.416   4.347 -0.6101 -1.5981 -0.4461
   15MOL0     H 2012  -0.477   2.532   4.380 -1.0407 -0.2971 -0.8764
   15MOL0     H 2013  -0.640   2.339   4.452 -1.0883 -0.8528 -1.1223
   15MOL0     H 2014  -0.600   2.377   4.290 -0.0621  0.1350 -0.2336
   15MOL0     H 2015  -0.436   2.169   4.441  1.4635  2.2843 -1.0764
   15MOL0     H 2016  -0.451   2.198   4.261 -1.6412 -0.8879 -1.9358
   15MOL0     H 2017  -0.556   1.985   4.324  0.1553  0.3280 -1.2738
   15MOL0     H 2018  -0.666   2.065   4.435  0.2032  3.4488  1.0780
   15MOL0     H 2019  -0.890   2.130   4.304 -0.6364 -4.1574  0.0096
   15MOL0     H 2020  -1.041   2.222   4.151  2.3058 -1.0745  1.2828
   15MOL0     H 2021  -1.011   2.195   3.975 -1.4277  3.3277 -2.2604
   15MOL0     H 2022  -0.898   2.396   3.955 -0.2761 -3.7747 -0.6958
   15MOL0     H 2023  -1.065   2.439   3.990  0.8486 -0.8576 -1.6051
   15MOL0     H 2024  -1.014   2.576   4.134 -1.4577 -0.3116  0.2036
   15MOL0     H 2025  -0.945   2.456   4.242 -1.0755  1.9577 -0.0253
   15MOL0     H 2026  -0.729   2.477   4.123  1.9419  0.6055 -3.0192
   15MOL0     H 2027  -0.797   2.622   4.035 -3.7908 -1.3322  0.1490
   15MOL0     H 2028  -0.572   2.702   4.100  1.9741  0.6640 -0.5736
   15MOL0     H 2029  -0.293   2.952   4.217 -2.3664  1.7593  0.5996
   15MOL0     H 2030  -0.376   2.909   4.071  2.8254  2.0729 -0.1239
   15MOL0     H 2031  -0.285   2.786   4.141  0.0962  0.6289 -1.8846
   15MOL0     H 2032  -0.330   3.251   4.426 -0.0089  1.7325 -0.3271
   15MOL0     H 2033  -0.141   3.390   4.509  2.6013  0.9184  3.4682
   15MOL0     H 2034   0.171   3.458   4.656 -0.2695  2.0071 -0.2388
   15MOL0     H 2035   0.069   3.415   4.530  2.5125 -0.5616  0.5808
   15MOL0     H 2036  -0.007   3.617   4.546 -2.0236 -0.5578 -0.1031
   15MOL0     H 2037  -0.107   3.546   4.664 -0.2279 -2.5779 -0.4326
   15MOL0     H 2038   0.090   3.640   4.843  1.2420  0.1297 -0.1069
   15MOL0     H 2039  -0.014   3.758   4.756 -1.8158  0.3348 -4.2575
   15MOL0     H 2040   0.144   3.800   4.589  0.9723  1.1992  0.5546
   15MOL0     H 2041   0.267   3.694   4.670  0.9423  1.8274  0.8130
   15MOL0     H 2042   0.139   3.945   4.795 -1.2099 -2.6601  2.4392
   15MOL0     H 2043   0.228   3.819   4.870  3.7244  0.2406 -0.3292
   15MOL0     H 2044   0.334   3.965   4.635 -1.0538  2.2464  0.3488
   15MOL0     H 2045   0.427   3.875   4.749 -0.3361 -0.1434 -1.2703
   15MOL0     H 2046   0.335   4.010   4.927  0.0661 -1.3251 -1.4044
   15MOL0     H 2047   0.259   4.116   4.819 -1.2538 -1.5817  2.7335
   15MOL0     H 2048   0.586   4.039   4.817  2.8748  1.9887  0.6575
   15MOL0     H 2049   0.525   4.170   4.915 -1.7099 -2.5334  1.0193
   15MOL0     H 2050  -0.127   3.157   4.851  2.4016 -1.3543 -2.0115
   15MOL0     H 2051  -0.302   3.001   4.760 -0.1419 -0.1040 -0.9658
   15MOL0     H 2052  -0.594   2.862   4.571  3.0780 -0.5461  0.6499
   15MOL0     H 2053  -0.784   2.736   4.456 -1.2092  0.5226  0.2477
   15MOL0     H 2054   0.086   2.482   4.602 -0.2652 -0.1815 -0.4487
   15MOL0     H 2055   0.279   2.336   4.622 -0.0749  2.4316 -1.5520
   15MOL0     H 2056   0.409   2.087   5.089  1.2223  2.0454  0.7479
   15MOL0     H 2057   0.560   1.968   5.206 -0.5193  0.6878  0.2166
   15MOL0     H 2058   0.887   1.716   4.979  1.7926  3.3300 -2.1071
   15MOL0     H 2059   0.956   1.845   5.081  0.2247 -0.7338  4.2812
   15MOL0     H 2060   1.018   1.606   5.163  0.0119  0.4019 -3.9128
   15MOL0     H 2061   0.852   1.597   5.206  1.3948 -1.1778  0.6430
   15MOL0     H 2062   0.897   1.836   5.343 -0.4118 -0.4838  0.1931
   15MOL0     H 2063   0.926   1.686   5.411 -1.8595  0.6482 -0.2368
   15MOL0     H 2064   1.173   1.712   5.305 -0.7026 -1.7857 -0.0951
   15MOL0     H 2065   1.110   1.792   5.453 -3.8383  1.0995 -0.0700
   15MOL0     H 2066   1.210   2.094   5.170  1.9486 -0.3593 -0.2547
   15MOL0     H 2067   0.770   1.862   4.846  1.2923  0.6630  1.9081
   15MOL0     H 2068   0.644   1.901   4.625 -0.0105  1.0704 -0.4875
   15MOL0     H 2069   0.566   2.068   4.613 -0.0458 -0.7555 -2.4318
   15MOL0     H 2070   0.731   2.051   4.645  0.9706 -1.5907 -2.9779
   16MOL0     O 2071   3.376   7.323   5.491 -0.4435  0.5597  0.3052
   16MOL0     C 2072   3.454   7.421   5.469  0.3267  1.3440  0.6337
   16MOL0     O 2073   3.413   7.535   5.403  0.0054 -0.0633 -0.5968
   16MOL0     C 2074   3.276   7.548   5.389 -1.1674  0.3409  0.5554
   16MOL0     C 2075   3.194   7.570   5.500 -0.0932  0.1714  0.3446
   16MOL0     C 2076   3.052   7.564   5.477  0.0234 -0.4133 -0.3459
   16MOL0     C 2077   2.999   7.533   5.350  0.0491  0.0235  0.7484
   16MOL0     O 2078   2.860   7.508   5.339  0.1025  0.6422  0.1731
   16MOL0     C 2079   2.768   7.520   5.449 -0.3927  0.5976  0.2787
   16MOL0     C 2080   2.630   7.465   5.404 -0.7725 -0.0282 -0.0859
   16MOL0     C 2081   2.537   7.454   5.528 -0.1658 -0.1755 -0.3673
   16MOL0     C 2082   2.405   7.387   5.485 -0.0722 -0.0511 -0.6146
   16MOL0     C 2083   2.338   7.354   5.624 -0.3732  0.7607  0.6042
   16MOL0     C 2084   2.201   7.285   5.611 -0.7576 -1.6557 -1.3087
   16MOL0     C 2085   2.134   7.287   5.742 -0.2754 -0.1716  1.0037
   16MOL0     C 2086   2.156   7.166   5.830  0.0877  0.3380  0.6110
   16MOL0     N 2087   2.075   7.056   5.772  0.3175 -1.2213  0.0338
   16MOL0     C 2088   2.119   6.969   5.678  0.6137  0.7066  0.3664
   16MOL0     C 2089   2.004   6.905   5.637  0.3734 -0.6307  1.3671
   16MOL0     C 2090   1.989   6.798   5.539 -0.5502  0.7160 -0.3324
   16MOL0     C 2091   2.006   6.670   5.598 -0.6169  0.0254  0.5122
   16MOL0     C 2092   1.864   6.616   5.640 -0.3914  0.5137 -0.4017
   16MOL0     C 2093   1.869   6.493   5.729 -0.5824 -0.5826 -0.7551
   16MOL0     O 2094   1.957   6.512   5.837 -0.2328  0.1674 -0.0719
   16MOL0     C 2095   1.932   6.623   5.918 -1.1672 -0.5126  0.2922
   16MOL0     C 2096   1.812   6.684   5.957  0.0133  0.2095 -0.5038
   16MOL0     C 2097   1.804   6.798   6.031 -0.1288  0.5068 -0.2620
   16MOL0     C 2098   1.665   6.834   6.073 -0.7469  0.7519 -0.3641
   16MOL0     C 2099   1.917   6.867   6.077 -0.6030 -0.0595 -0.1763
   16MOL0     C 2100   1.945   7.003   6.141 -0.7220  0.2883 -0.0626
   16MOL0     O 2101   2.078   7.050   6.148 -0.6726 -0.1630  0.4316
   16MOL0     C 2102   2.119   7.150   6.225  0.3853 -0.1470 -0.8978
   16MOL0     C 2103   2.052   7.170   6.359 -0.0774 -0.9542  0.0920
   16MOL0     C 2104   2.098   7.273   6.444 -0.1402  0.1951  0.2352
   16MOL0     C 2105   2.209   7.338   6.416 -0.6944  0.1231 -0.1272
   16MOL0     O 2106   2.250   7.431   6.511  0.6011 -0.4056 -0.3890
   16MOL0     C 2107   2.295   7.562   6.486 -0.3522 -0.2038 -0.1037
   16MOL0     C 2108   2.417   7.574   6.576  0.6820  0.7555  0.4364
   16MOL0     C 2109   2.374   7.604   6.720 -0.0051  0.2325 -1.1326
   16MOL0     C 2110   2.401   7.747   6.761 -0.2338 -0.4575 -0.4537
   16MOL0     C 2111   2.402   7.759   6.910  1.0329  0.3397 -0.3409
   16MOL0     C 2112   2.480   7.881   6.955  0.1831 -0.2752  0.6664
   16MOL0     C 2113   2.521   7.883   7.102  0.3720 -0.1951  0.4330
   16MOL0     C 2114   2.641   7.787   7.118  0.0068 -0.1507  0.1428
   16MOL0    Cl 2115   2.700   7.796   7.292 -0.2646 -0.3261  0.1435
   16MOL0     C 2116   2.283   7.316   6.295  0.1147 -0.2364 -0.1983
   16MOL0     C 2117   2.244   7.221   6.204  0.2497  0.4911  0.3707
   16MOL0     O 2118   1.840   7.068   6.152 -0.1415 -0.1525  0.5565
   16MOL0     C 2119   2.041   6.796   6.051  1.3043  0.0645 -0.4296
   16MOL0     C 2120   2.039   6.676   5.976 -0.0798 -0.3510  0.4276
   16MOL0     N 2121   1.898   6.961   5.703  1.0828  0.3872 -0.4910
   16MOL0     N 2122   1.942   7.055   5.780 -0.8234  0.2376  0.3238
   16MOL0     C 2123   3.095   7.529   5.245  2.0026  1.1235  0.2883
   16MOL0     C 2124   3.228   7.538   5.264  0.2116  0.5017 -0.4105
   16MOL0     C 2125   3.604   7.410   5.502  0.3944  0.4942  0.4426
   16MOL0     C 2126   3.700   7.505   5.446 -0.2099 -1.1008 -0.7566
   16MOL0     C 2127   3.840   7.509   5.472  0.6075  0.2401  0.8763
   16MOL0     C 2128   3.895   7.413   5.559 -0.5434 -0.5922 -0.0888
   16MOL0     O 2129   4.033   7.410   5.604 -0.2119 -0.3002 -0.2436
   16MOL0     C 2130   4.135   7.496   5.537  0.0670  0.3070  0.1079
   16MOL0     C 2131   4.166   7.472   5.387  0.5937 -0.1593 -0.6039
   16MOL0     C 2132   4.270   7.579   5.328  0.2456 -0.0145  0.3593
   16MOL0     C 2133   4.414   7.593   5.394 -0.7508  0.0700  0.7391
   16MOL0     C 2134   4.491   7.470   5.376  0.2421  0.0310  0.7152
   16MOL0     C 2135   4.553   7.375   5.331 -0.9291  0.3683 -1.4418
   16MOL0     C 2136   3.806   7.321   5.624 -0.1226 -0.5128  0.1566
   16MOL0     C 2137   3.667   7.316   5.588 -0.3327 -0.5457  0.2318
   16MOL0     C 2138   3.597   7.200   5.655 -0.6868  0.3807  1.2234
   16MOL0     H 2139   3.222   7.582   5.604 -0.5593 -0.6451  0.5731
   16MOL0     H 2140   2.991   7.579   5.565 -0.2509  0.4654 -0.6686
   16MOL0     H 2141   2.773   7.627   5.469  2.4532  0.7205 -0.6926
   16MOL0     H 2142   2.806   7.476   5.541  0.5904 -0.7197 -0.7228
   16MOL0     H 2143   2.584   7.523   5.323  0.3197  2.4864  0.9805
   16MOL0     H 2144   2.650   7.363   5.370 -0.3978 -0.6774  1.9709
   16MOL0     H 2145   2.577   7.390   5.608  0.0305 -2.1134 -1.9471
   16MOL0     H 2146   2.523   7.555   5.569 -0.8319 -0.7185  0.8203
   16MOL0     H 2147   2.337   7.453   5.430 -0.7249 -1.6213 -1.7789
   16MOL0     H 2148   2.416   7.294   5.428  0.4280  0.1270 -0.8103
   16MOL0     H 2149   2.332   7.449   5.677  2.3684  0.0650  2.3683
   16MOL0     H 2150   2.405   7.290   5.683 -1.0712 -0.9281 -0.3459
   16MOL0     H 2151   2.145   7.347   5.540 -0.7475  1.2349  1.0096
   16MOL0     H 2152   2.209   7.188   5.562  2.3258 -2.4599  0.4929
   16MOL0     H 2153   2.029   7.288   5.711 -0.3782  0.8160  1.3600
   16MOL0     H 2154   2.148   7.374   5.806 -1.6368  0.0355  1.0586
   16MOL0     H 2155   2.260   7.134   5.844  0.9616  2.5795 -0.3049
   16MOL0     H 2156   2.114   7.189   5.928 -0.3246  0.3918  0.4225
   16MOL0     H 2157   2.219   6.946   5.642  0.5557  0.2397  0.4964
   16MOL0     H 2158   2.074   6.815   5.471 -0.4803  1.2258 -0.1196
   16MOL0     H 2159   1.888   6.802   5.499 -0.7556 -1.9923 -0.2897
   16MOL0     H 2160   2.055   6.600   5.530 -3.0231 -2.9927  1.6225
   16MOL0     H 2161   2.070   6.669   5.686  1.9270 -0.4479 -1.2230
   16MOL0     H 2162   1.817   6.689   5.707 -1.2244  0.0624 -0.4913
   16MOL0     H 2163   1.791   6.595   5.563 -0.6852 -2.4252  0.5630
   16MOL0     H 2164   1.773   6.469   5.775  1.2991 -1.0069  3.4306
   16MOL0     H 2165   1.894   6.402   5.674 -0.9340 -1.9324  1.1953
   16MOL0     H 2166   1.723   6.624   5.940  1.0283 -1.1791 -1.0875
   16MOL0     H 2167   1.641   6.938   6.050 -0.3864  0.5912 -1.5245
   16MOL0     H 2168   1.655   6.819   6.181  6.4283 -0.6957  0.6009
   16MOL0     H 2169   1.581   6.791   6.018 -1.0468 -0.8589  1.2530
   16MOL0     H 2170   1.973   7.100   6.386  1.6951 -2.4990  1.5501
   16MOL0     H 2171   2.050   7.300   6.537  1.6736 -0.6474  1.4558
   16MOL0     H 2172   2.330   7.582   6.384 -0.4986  0.9385  0.0546
   16MOL0     H 2173   2.227   7.642   6.518  0.1389  0.0896  0.2255
   16MOL0     H 2174   2.471   7.479   6.576 -1.0700 -0.3366  2.8378
   16MOL0     H 2175   2.487   7.647   6.534  0.4767  1.3863  1.1654
   16MOL0     H 2176   2.438   7.540   6.782  2.8620  3.6124 -0.2500
   16MOL0     H 2177   2.277   7.576   6.760  1.7069  1.3856  4.7914
   16MOL0     H 2178   2.315   7.800   6.719  1.8699  1.2779 -2.8849
   16MOL0     H 2179   2.484   7.793   6.706 -0.3750 -0.4927 -0.6968
   16MOL0     H 2180   2.298   7.783   6.933  0.6795 -3.5091  3.1643
   16MOL0     H 2181   2.443   7.671   6.960  1.8254 -0.0907 -1.7152
   16MOL0     H 2182   2.424   7.968   6.920 -0.0176 -1.0588 -1.0966
   16MOL0     H 2183   2.576   7.894   6.903  1.9800 -2.0185  3.2477
   16MOL0     H 2184   2.436   7.846   7.159  1.6092 -2.0608  1.1713
   16MOL0     H 2185   2.553   7.986   7.119  1.9595 -0.1642 -2.0556
   16MOL0     H 2186   2.721   7.827   7.055 -0.7724 -0.3436 -0.9811
   16MOL0     H 2187   2.627   7.683   7.086  2.9941  0.2240 -2.8823
   16MOL0     H 2188   2.374   7.372   6.274 -0.3516  0.7861  0.4141
   16MOL0     H 2189   2.305   7.205   6.117 -2.8707 -0.0736 -1.8996
   16MOL0     H 2190   2.138   6.826   6.088  1.0816  0.0411  0.1862
   16MOL0     H 2191   2.140   6.637   5.971  0.5101  1.0989  0.6460
   16MOL0     H 2192   3.060   7.506   5.145  3.1532  0.0117  0.1266
   16MOL0     H 2193   3.295   7.531   5.178 -2.4988  0.5710 -2.6782
   16MOL0     H 2194   3.652   7.589   5.397  0.6695  0.1418  0.4178
   16MOL0     H 2195   3.895   7.598   5.445  0.3176  0.6574  1.6353
   16MOL0     H 2196   4.111   7.602   5.551 -1.7718 -0.1460  0.6524
   16MOL0     H 2197   4.223   7.483   5.600  0.2832  2.0168  0.1986
   16MOL0     H 2198   4.085   7.481   5.314 -0.4541  2.5195  0.7191
   16MOL0     H 2199   4.217   7.376   5.383 -0.8513 -1.0560  0.9016
   16MOL0     H 2200   4.281   7.552   5.223 -2.6227 -2.0059  0.4676
   16MOL0     H 2201   4.227   7.679   5.324 -1.3353 -0.6798 -0.0376
   16MOL0     H 2202   4.405   7.614   5.501  0.0805 -0.2358  0.8713
   16MOL0     H 2203   4.467   7.678   5.350 -2.6414  0.3319 -1.1981
   16MOL0     H 2204   4.618   7.300   5.291 -0.8578 -0.8711  0.8716
   16MOL0     H 2205   3.841   7.240   5.688 -0.0433 -2.2699 -2.0139
   16MOL0     H 2206   3.538   7.137   5.587 -1.4236  0.3792  1.8450
   16MOL0     H 2207   3.674   7.141   5.705  1.0461  0.9257 -0.6491
   16MOL0     H 2208   3.523   7.247   5.721 -0.3818  2.0851  0.3953
   17MOL0     O 2209   7.926   5.034   3.308 -0.6202  0.2105 -0.5107
   17MOL0     C 2210   7.813   5.068   3.281 -0.5448  0.3524 -0.1766
   17MOL0     O 2211   7.773   5.153   3.172  0.1248  0.0948 -0.2151
   17MOL0     C 2212   7.873   5.204   3.089  0.7873 -0.7035 -0.3434
   17MOL0     C 2213   7.962   5.304   3.143  0.1666  0.3585  0.5369
   17MOL0     C 2214   8.061   5.373   3.068  0.2309 -0.4980 -1.1577
   17MOL0     C 2215   8.070   5.344   2.931  0.9413  0.2849  0.6344
   17MOL0     O 2216   8.138   5.415   2.835  0.3831 -0.4605  0.0487
   17MOL0     C 2217   8.201   5.532   2.876 -0.4251  0.1777  0.4033
   17MOL0     C 2218   8.249   5.627   2.756 -0.1641 -0.3000 -0.0761
   17MOL0     C 2219   8.234   5.559   2.622 -0.0669 -0.8074 -0.3176
   17MOL0     C 2220   8.273   5.638   2.500 -0.2199  0.2572 -0.8323
   17MOL0     C 2221   8.179   5.764   2.476  0.1625  0.4947  0.0599
   17MOL0     C 2222   8.240   5.859   2.372 -0.5528 -0.4587 -1.1238
   17MOL0     C 2223   8.342   5.956   2.430 -0.8197 -0.3576  0.6273
   17MOL0     C 2224   8.448   6.008   2.319  0.2887 -0.4442 -0.3201
   17MOL0     N 2225   8.546   5.899   2.308 -0.1348  0.5681 -0.8766
   17MOL0     C 2226   8.568   5.855   2.180  0.4035  0.9658 -0.6623
   17MOL0     C 2227   8.669   5.763   2.200  0.2431  0.4960  0.3454
   17MOL0     C 2228   8.717   5.663   2.098 -0.0611  0.0712 -0.1418
   17MOL0     C 2229   8.749   5.536   2.165 -0.3827 -1.2568  0.2459
   17MOL0     C 2230   8.799   5.441   2.055  0.0642 -0.6617  0.5235
   17MOL0     C 2231   8.820   5.293   2.093 -0.1648  0.1296  0.6665
   17MOL0     O 2232   8.811   5.216   1.972 -0.3430  0.6854  0.3958
   17MOL0     C 2233   8.894   5.110   1.981  0.0023  0.3618 -0.1358
   17MOL0     C 2234   8.858   4.999   2.062 -0.5833 -0.2985  0.1932
   17MOL0     C 2235   8.929   4.877   2.056  0.1690 -0.0291  0.4707
   17MOL0     C 2236   8.862   4.774   2.140 -0.5815 -0.1429  0.7010
   17MOL0     C 2237   9.031   4.865   1.957 -0.4455  0.2902  0.0034
   17MOL0     C 2238   9.092   4.731   1.938 -0.8599 -0.1140  0.0618
   17MOL0     O 2239   9.156   4.719   1.814  0.9561  0.3328 -0.5178
   17MOL0     C 2240   9.198   4.600   1.777 -0.0225  0.5903 -1.0626
   17MOL0     C 2241   9.325   4.580   1.756 -0.3672 -0.2321 -0.2960
   17MOL0     C 2242   9.389   4.461   1.707 -0.5438 -0.5149  0.2363
   17MOL0     C 2243   9.300   4.359   1.667  0.5861  0.3030 -0.5498
   17MOL0     O 2244   9.342   4.242   1.610 -0.4457 -0.9074 -0.0044
   17MOL0     C 2245   9.408   4.276   1.491  0.2816  0.2788  0.9475
   17MOL0     C 2246   9.409   4.165   1.385  0.6056  1.6380 -0.5377
   17MOL0     C 2247   9.266   4.134   1.316 -0.0885 -0.0809 -0.3457
   17MOL0     C 2248   9.281   4.026   1.217 -0.0833  0.0962  0.4349
   17MOL0     C 2249   9.168   4.021   1.102 -0.2109 -0.2109 -0.8390
   17MOL0     C 2250   9.026   3.991   1.160  0.2771 -0.0059  0.1211
   17MOL0     C 2251   8.931   4.118   1.178  0.0038  0.7175  1.1163
   17MOL0     C 2252   8.802   4.078   1.242  0.1152 -0.1718 -0.0317
   17MOL0    Cl 2253   8.715   3.952   1.147 -0.0532 -0.5093 -0.4473
   17MOL0     C 2254   9.161   4.375   1.687 -0.3613 -0.5262  1.0850
   17MOL0     C 2255   9.110   4.492   1.736  0.8163  0.1858  0.1251
   17MOL0     O 2256   9.089   4.644   2.021 -0.4865 -0.1054 -0.4865
   17MOL0     C 2257   9.071   4.985   1.887 -0.4521  0.9496 -0.1459
   17MOL0     C 2258   9.002   5.098   1.898  0.2629 -0.5499  0.1676
   17MOL0     N 2259   8.720   5.797   2.320  0.7246 -0.3999 -0.4595
   17MOL0     N 2260   8.649   5.884   2.382  0.7035 -0.5662 -0.5491
   17MOL0     C 2261   7.991   5.242   2.881 -0.3856 -0.1966 -0.0230
   17MOL0     C 2262   7.893   5.175   2.953  0.1765  0.0160  0.0012
   17MOL0     C 2263   7.706   5.024   3.377 -0.3267 -0.7925  0.1002
   17MOL0     C 2264   7.577   5.082   3.365 -0.1643  0.4649 -1.4939
   17MOL0     C 2265   7.480   5.044   3.449  0.8372 -0.7956 -0.4314
   17MOL0     C 2266   7.503   4.954   3.553 -0.4775 -0.3664  0.3989
   17MOL0     O 2267   7.385   4.929   3.626 -0.4114 -0.0764  0.5598
   17MOL0     C 2268   7.407   4.872   3.752 -0.3305 -0.0025  0.0814
   17MOL0     C 2269   7.277   4.872   3.834 -0.3411  0.3497 -0.2127
   17MOL0     C 2270   7.193   4.994   3.852  0.9733 -0.8055 -0.1905
   17MOL0     C 2271   7.185   5.048   4.005  0.1758  0.7489 -0.4599
   17MOL0     C 2272   7.307   5.109   4.053  0.1897 -0.7899 -0.3673
   17MOL0     C 2273   7.419   5.148   4.083 -0.7012  0.5468  0.5464
   17MOL0     C 2274   7.630   4.897   3.566  0.1441 -0.0402  0.2558
   17MOL0     C 2275   7.728   4.914   3.468 -0.6338  0.4371  0.7781
   17MOL0     C 2276   7.866   4.843   3.494 -0.0463 -0.1512 -0.0983
   17MOL0     H 2277   7.955   5.317   3.251  0.5147 -1.6405  0.8383
   17MOL0     H 2278   8.134   5.445   3.104 -1.8415  1.6896 -1.0463
   17MOL0     H 2279   8.287   5.512   2.941 -1.0105 -0.2355  1.0708
   17MOL0     H 2280   8.145   5.581   2.956 -0.5533  1.0449 -0.2119
   17MOL0     H 2281   8.191   5.720   2.749 -1.2270 -0.9958 -0.6978
   17MOL0     H 2282   8.353   5.651   2.782 -0.6291  1.4059  0.3370
   17MOL0     H 2283   8.302   5.474   2.622 -0.6446 -1.2749 -0.2336
   17MOL0     H 2284   8.133   5.522   2.604  0.9115 -2.5008 -2.8584
   17MOL0     H 2285   8.374   5.675   2.519 -0.5421  0.6839  0.1198
   17MOL0     H 2286   8.279   5.572   2.413  1.3212 -0.0313 -0.5503
   17MOL0     H 2287   8.159   5.832   2.559  1.1198  0.9745 -0.0857
   17MOL0     H 2288   8.085   5.717   2.446  1.3823 -2.6746  0.7933
   17MOL0     H 2289   8.278   5.812   2.281  4.4616  2.0776 -0.6876
   17MOL0     H 2290   8.160   5.925   2.340  1.4446  2.2086 -0.9222
   17MOL0     H 2291   8.397   5.909   2.512 -0.3236  1.0557  1.1252
   17MOL0     H 2292   8.293   6.045   2.470  0.4133  0.2079  0.9314
   17MOL0     H 2293   8.408   6.045   2.224  0.5213  2.1386  0.4843
   17MOL0     H 2294   8.491   6.098   2.365  0.0684 -1.0165  1.0429
   17MOL0     H 2295   8.503   5.864   2.094 -1.2312  1.6254  0.5843
   17MOL0     H 2296   8.808   5.700   2.050  0.5211  1.4545  1.8873
   17MOL0     H 2297   8.656   5.642   2.010  0.6985 -1.3013 -0.3719
   17MOL0     H 2298   8.831   5.537   2.237  0.3456 -3.2345 -0.4763
   17MOL0     H 2299   8.652   5.504   2.204 -0.2880  0.2633  1.8148
   17MOL0     H 2300   8.731   5.437   1.968  2.7104 -1.3122 -1.6638
   17MOL0     H 2301   8.885   5.477   1.998 -0.4292 -0.8002 -0.3334
   17MOL0     H 2302   8.917   5.287   2.143  0.5948  1.2158 -0.5828
   17MOL0     H 2303   8.747   5.260   2.167 -1.1277 -2.3278 -1.1961
   17MOL0     H 2304   8.772   5.016   2.125 -0.7859  0.3854 -0.2611
   17MOL0     H 2305   8.940   4.716   2.191  1.7197 -1.9772 -4.2343
   17MOL0     H 2306   8.811   4.695   2.084  2.2091 -2.6450  1.3725
   17MOL0     H 2307   8.790   4.812   2.214  0.7482  1.7337  1.1081
   17MOL0     H 2308   9.385   4.667   1.782 -2.3524  0.1387  4.0285
   17MOL0     H 2309   9.494   4.462   1.681 -0.9239 -1.0597 -1.4046
   17MOL0     H 2310   9.362   4.362   1.442 -0.4600 -1.1505 -0.9882
   17MOL0     H 2311   9.513   4.303   1.505  0.8239 -0.9680 -0.4251
   17MOL0     H 2312   9.483   4.187   1.307  2.4710  0.1317  0.7042
   17MOL0     H 2313   9.435   4.072   1.437 -4.5932  0.3493  0.3000
   17MOL0     H 2314   9.252   4.219   1.249 -0.0799  0.4542  0.3275
   17MOL0     H 2315   9.189   4.112   1.391 -0.0288 -1.2433 -0.5999
   17MOL0     H 2316   9.304   3.928   1.259  0.4728 -0.5014 -1.1499
   17MOL0     H 2317   9.368   4.055   1.156  1.4622 -2.2359  1.4121
   17MOL0     H 2318   9.165   4.119   1.053  1.7702  1.0547  1.3180
   17MOL0     H 2319   9.197   3.946   1.027  1.5153 -0.6588  0.2017
   17MOL0     H 2320   9.024   3.944   1.259 -4.5420  0.0304  0.2986
   17MOL0     H 2321   8.984   3.916   1.092  2.4881 -0.9821 -0.2586
   17MOL0     H 2322   8.914   4.148   1.074  3.0854 -0.5141  0.1503
   17MOL0     H 2323   8.987   4.186   1.243 -0.8078  0.8990  1.6308
   17MOL0     H 2324   8.743   4.171   1.247 -0.7711 -0.7016 -0.3233
   17MOL0     H 2325   8.830   4.038   1.340  1.5586 -3.2810 -1.6079
   17MOL0     H 2326   9.094   4.299   1.648 -0.0688 -0.2123 -0.0844
   17MOL0     H 2327   9.003   4.507   1.729  0.3075 -2.8727  0.2040
   17MOL0     H 2328   9.154   4.980   1.818  0.3275  1.9928  0.6885
   17MOL0     H 2329   9.018   5.179   1.827 -1.3439  0.9876  1.4698
   17MOL0     H 2330   7.970   5.220   2.776 -1.7971  1.5375 -0.1589
   17MOL0     H 2331   7.840   5.097   2.900 -0.5606  0.1160  0.5658
   17MOL0     H 2332   7.559   5.166   3.298 -0.2970  0.9216 -0.8918
   17MOL0     H 2333   7.388   5.100   3.435  0.6910 -0.4769  1.5648
   17MOL0     H 2334   7.444   4.769   3.750  1.5012  0.5913  0.6385
   17MOL0     H 2335   7.485   4.926   3.808  1.4738 -2.1242 -0.2321
   17MOL0     H 2336   7.298   4.826   3.931 -0.7705 -3.2522 -1.6710
   17MOL0     H 2337   7.211   4.796   3.793 -2.7434  1.8258  0.7110
   17MOL0     H 2338   7.228   5.081   3.796  1.8548  3.2444  5.7772
   17MOL0     H 2339   7.093   4.975   3.813  1.2980 -1.6753 -0.6430
   17MOL0     H 2340   7.153   4.975   4.079  2.8280  1.0003  1.0389
   17MOL0     H 2341   7.118   5.133   4.021  1.8541  1.7323  1.7307
   17MOL0     H 2342   7.508   5.200   4.114 -2.1828  1.1709  4.3922
   17MOL0     H 2343   7.646   4.840   3.657 -1.2342  2.8800  2.5111
   17MOL0     H 2344   7.933   4.912   3.547  1.1321 -0.4000 -1.2166
   17MOL0     H 2345   7.853   4.755   3.558 -0.5092  1.6626  2.4698
   17MOL0     H 2346   7.918   4.815   3.402  0.1268  0.4632 -0.1947
   18MOL0     O 2347   0.327  10.009   1.657  0.2345 -0.2866 -0.0322
   18MOL0     C 2348   0.400  10.077   1.586  0.8441  0.4143 -0.9095
   18MOL0     O 2349   0.511  10.029   1.514  0.0326 -0.4300 -0.8451
   18MOL0     C 2350   0.545   9.901   1.488  0.0144  0.3309 -0.2421
   18MOL0     C 2351   0.449   9.799   1.475 -0.0374  0.8801  0.3822
   18MOL0     C 2352   0.490   9.670   1.434  0.0542 -0.0557 -0.6058
   18MOL0     C 2353   0.628   9.640   1.403  1.4439 -0.3340 -1.2711
   18MOL0     O 2354   0.671   9.519   1.350 -0.7219 -0.5521  0.6495
   18MOL0     C 2355   0.581   9.414   1.318  0.1857  0.4306 -0.7267
   18MOL0     C 2356   0.673   9.296   1.267  0.4778 -0.1154  0.2710
   18MOL0     C 2357   0.597   9.188   1.190 -0.4878 -0.6748  0.2163
   18MOL0     C 2358   0.558   9.234   1.045 -0.3423 -0.0890  0.4161
   18MOL0     C 2359   0.462   9.135   0.968 -0.0840  0.2368  0.1479
   18MOL0     C 2360   0.376   9.229   0.882  0.4518 -0.4246  0.1808
   18MOL0     C 2361   0.289   9.160   0.782  0.1560  0.3480  0.0755
   18MOL0     C 2362   0.180   9.258   0.715 -1.8912  0.2365  0.3556
   18MOL0     N 2363   0.254   9.374   0.656  0.0593  0.2989 -1.3506
   18MOL0     C 2364   0.272   9.492   0.719  0.6487  0.1839 -0.4034
   18MOL0     C 2365   0.357   9.565   0.639  1.5342  0.1643  0.2141
   18MOL0     C 2366   0.439   9.670   0.700  0.9995  0.0447 -0.0377
   18MOL0     C 2367   0.441   9.671   0.860 -0.2927 -0.0997 -0.2072
   18MOL0     C 2368   0.531   9.777   0.919  0.4264 -0.3228  0.7580
   18MOL0     C 2369   0.540   9.751   1.072  0.7600  0.1673 -0.3284
   18MOL0     O 2370   0.423   9.759   1.143  0.2469 -0.0195 -0.9018
   18MOL0     C 2371   0.364   9.877   1.168 -0.6136 -0.8469  0.5479
   18MOL0     C 2372   0.245   9.871   1.238 -0.5614 -0.3238  0.1351
   18MOL0     C 2373   0.173   9.988   1.272 -0.4989 -0.5631 -0.1668
   18MOL0     C 2374   0.054   9.961   1.356 -0.2899  0.4667  0.3458
   18MOL0     C 2375   0.219  10.114   1.229 -0.5062 -1.0800 -0.2706
   18MOL0     C 2376   0.147  10.238   1.257  1.4031  0.2368 -0.8727
   18MOL0     O 2377   0.017  10.239   1.205 -0.1128 -0.4214 -0.3266
   18MOL0     C 2378  -0.071  10.339   1.217 -0.5647 -0.0346  0.1375
   18MOL0     C 2379  -0.038  10.458   1.146 -0.0654 -0.3329 -0.1796
   18MOL0     C 2380  -0.113  10.580   1.165 -0.0504  1.0048  0.0098
   18MOL0     C 2381  -0.228  10.575   1.245  0.1273  0.2458  0.4932
   18MOL0     O 2382  -0.306  10.678   1.255 -0.0241  0.9074  0.0507
   18MOL0     C 2383  -0.361  10.726   1.377  0.8468  1.1665 -0.5635
   18MOL0     C 2384  -0.307  10.867   1.418  0.1791  0.8672 -0.5895
   18MOL0     C 2385  -0.357  10.973   1.305  0.2582  0.7888 -0.2806
   18MOL0     C 2386  -0.385  11.106   1.366 -0.4038 -0.1409 -0.1141
   18MOL0     C 2387  -0.460  11.207   1.271 -0.2946  0.3354  0.1052
   18MOL0     C 2388  -0.443  11.349   1.307  0.2398 -0.4926  0.0696
   18MOL0     C 2389  -0.508  11.450   1.209 -0.5416  0.0216 -0.3424
   18MOL0     C 2390  -0.674  11.448   1.195  0.1948  0.6347  0.8742
   18MOL0    Cl 2391  -0.742  11.587   1.126  0.1312 -0.4060 -0.3467
   18MOL0     C 2392  -0.259  10.449   1.309  0.5234 -0.1353  0.5390
   18MOL0     C 2393  -0.175  10.342   1.299  0.7222 -0.5061 -0.0232
   18MOL0     O 2394   0.204  10.340   1.294  0.2143  0.7859 -0.4739
   18MOL0     C 2395   0.344  10.121   1.172  0.4043  0.0222 -0.3050
   18MOL0     C 2396   0.419  10.010   1.134  1.0409 -0.1816 -0.5974
   18MOL0     N 2397   0.373   9.501   0.518  0.1266 -0.2167  0.4481
   18MOL0     N 2398   0.313   9.387   0.532 -0.0430 -0.4188 -0.2464
   18MOL0     C 2399   0.716   9.744   1.415  0.4807 -0.0182  1.0297
   18MOL0     C 2400   0.678   9.868   1.455  0.1392 -0.3554 -0.5197
   18MOL0     C 2401   0.382  10.221   1.588 -0.0085 -0.3427  0.3433
   18MOL0     C 2402   0.484  10.299   1.551  0.1186  0.3703  0.7220
   18MOL0     C 2403   0.481  10.441   1.558 -0.5082 -0.1758 -0.5308
   18MOL0     C 2404   0.367  10.515   1.602  0.8613 -0.8340  0.2245
   18MOL0     O 2405   0.341  10.651   1.605  0.1186  0.2831 -0.0797
   18MOL0     C 2406   0.410  10.752   1.532 -0.1837  0.7497  0.7408
   18MOL0     C 2407   0.395  10.744   1.386  0.6521  0.8907  0.4674
   18MOL0     C 2408   0.256  10.706   1.332  0.3071 -0.0137 -0.6521
   18MOL0     C 2409   0.243  10.676   1.176 -0.8502 -0.2075  0.3685
   18MOL0     C 2410   0.293  10.775   1.080  0.4463  0.9926 -0.0496
   18MOL0     C 2411   0.344  10.836   0.992 -0.4480 -0.1759  0.4513
   18MOL0     C 2412   0.258  10.427   1.637  0.6315 -0.3231 -0.2459
   18MOL0     C 2413   0.270  10.284   1.634 -0.3131 -0.8671  0.2217
   18MOL0     C 2414   0.149  10.219   1.693 -0.6135  0.2940  0.3288
   18MOL0     H 2415   0.343   9.821   1.488  0.1619  1.4256  1.1598
   18MOL0     H 2416   0.411   9.599   1.410  1.3748 -0.4892 -4.4911
   18MOL0     H 2417   0.519   9.447   1.233  0.4462 -3.0402 -2.4298
   18MOL0     H 2418   0.513   9.404   1.404 -2.5413  1.1932 -2.6358
   18MOL0     H 2419   0.729   9.343   1.186 -3.4353 -0.6289 -3.0823
   18MOL0     H 2420   0.747   9.256   1.337  1.2382 -1.1681 -1.0561
   18MOL0     H 2421   0.656   9.096   1.184 -0.9066 -1.0363  1.3430
   18MOL0     H 2422   0.503   9.161   1.239  0.4318 -0.0639  2.4284
   18MOL0     H 2423   0.508   9.331   1.053  3.0611  1.7992  0.5109
   18MOL0     H 2424   0.648   9.261   0.988 -1.0710 -1.8753 -1.7344
   18MOL0     H 2425   0.388   9.074   1.020  0.2315 -1.9534 -1.7913
   18MOL0     H 2426   0.521   9.064   0.910  0.6639  2.0603 -1.4432
   18MOL0     H 2427   0.320   9.297   0.946 -0.6985  0.1668 -1.3898
   18MOL0     H 2428   0.440   9.296   0.823 -1.2630  0.7446 -0.4374
   18MOL0     H 2429   0.226   9.086   0.832 -0.6996 -1.1791 -2.9770
   18MOL0     H 2430   0.347   9.108   0.704  1.0345 -5.8626  4.1314
   18MOL0     H 2431   0.126   9.200   0.639 -3.3734  2.4882 -0.3905
   18MOL0     H 2432   0.107   9.297   0.785  0.0605  0.2908  2.4906
   18MOL0     H 2433   0.230   9.529   0.812  0.9106 -0.8684  0.1496
   18MOL0     H 2434   0.381   9.760   0.675  0.8924  0.6850  2.3457
   18MOL0     H 2435   0.542   9.680   0.666  0.9529  3.4387  0.4085
   18MOL0     H 2436   0.342   9.706   0.888  0.0313  1.0173 -0.4138
   18MOL0     H 2437   0.457   9.573   0.906  1.1962 -0.0545 -0.5543
   18MOL0     H 2438   0.631   9.776   0.875 -1.0794  3.3980 -3.5134
   18MOL0     H 2439   0.490   9.876   0.897  2.6868  0.3044 -0.8810
   18MOL0     H 2440   0.582   9.652   1.094 -2.2820 -1.2093 -0.2363
   18MOL0     H 2441   0.611   9.828   1.105 -1.3703  1.0516  2.6777
   18MOL0     H 2442   0.222   9.778   1.287 -2.6996  0.0231 -0.1289
   18MOL0     H 2443   0.014  10.058   1.389 -0.7323  0.5602 -0.4507
   18MOL0     H 2444   0.086   9.891   1.434  6.4687  0.8565 -1.4463
   18MOL0     H 2445  -0.013   9.909   1.287  1.2799  0.4304 -1.2185
   18MOL0     H 2446   0.047  10.457   1.079 -1.2654  1.2329 -1.8180
   18MOL0     H 2447  -0.103  10.675   1.113  3.7650  0.4708 -0.4715
   18MOL0     H 2448  -0.470  10.739   1.370  0.6172  0.3549  0.9303
   18MOL0     H 2449  -0.343  10.653   1.456  0.0347 -1.2882 -2.5267
   18MOL0     H 2450  -0.356  10.895   1.511 -0.6624  0.7928 -1.0061
   18MOL0     H 2451  -0.198  10.862   1.426  0.1299 -1.3506 -0.7004
   18MOL0     H 2452  -0.450  10.949   1.252  2.1871 -2.3967 -2.5537
   18MOL0     H 2453  -0.271  10.976   1.238 -0.0039  0.0904 -0.6644
   18MOL0     H 2454  -0.284  11.139   1.392  0.2015 -2.1596  0.2383
   18MOL0     H 2455  -0.433  11.100   1.464  3.0039 -2.0706  1.6146
   18MOL0     H 2456  -0.418  11.194   1.171 -0.7497 -3.3608  0.2626
   18MOL0     H 2457  -0.567  11.188   1.264 -0.3378  0.5890  0.0656
   18MOL0     H 2458  -0.335  11.367   1.308  0.3197 -0.5245 -2.4987
   18MOL0     H 2459  -0.498  11.362   1.401  0.8919 -2.3631  0.7349
   18MOL0     H 2460  -0.453  11.441   1.115  0.2889 -0.6943  0.2016
   18MOL0     H 2461  -0.482  11.552   1.239 -1.0380  0.6612 -1.9530
   18MOL0     H 2462  -0.722  11.418   1.288  2.1987 -2.5472  1.0249
   18MOL0     H 2463  -0.709  11.364   1.134 -1.0406  0.1194  2.2444
   18MOL0     H 2464  -0.351  10.429   1.363  1.8443 -2.4901  2.0625
   18MOL0     H 2465  -0.177  10.254   1.362  0.7202 -0.7107 -0.3076
   18MOL0     H 2466   0.385  10.218   1.145  2.4517 -0.8885 -0.6132
   18MOL0     H 2467   0.517  10.008   1.086  0.2928 -2.0629 -2.2312
   18MOL0     H 2468   0.810   9.705   1.379  0.0676 -1.4673  1.4419
   18MOL0     H 2469   0.745   9.952   1.468  0.8694 -1.1175  0.8572
   18MOL0     H 2470   0.576  10.252   1.518 -0.5944 -0.5487  0.0113
   18MOL0     H 2471   0.561  10.502   1.519  1.7511 -2.6980 -0.1318
   18MOL0     H 2472   0.361  10.842   1.572  0.5091  1.0536  0.9257
   18MOL0     H 2473   0.516  10.757   1.560 -0.8311  0.1002  3.6063
   18MOL0     H 2474   0.463  10.673   1.339 -2.4487  0.1835 -3.4741
   18MOL0     H 2475   0.412  10.844   1.345  2.6878  1.4847  2.5662
   18MOL0     H 2476   0.228  10.613   1.382  1.6063  0.4799  1.0984
   18MOL0     H 2477   0.194  10.790   1.364 -0.3463 -0.6106 -0.3283
   18MOL0     H 2478   0.137  10.665   1.149 -0.9358 -0.1472  0.6787
   18MOL0     H 2479   0.296  10.583   1.153  0.8620  0.8907 -0.2912
   18MOL0     H 2480   0.398  10.895   0.920  1.5695 -1.4052  0.8603
   18MOL0     H 2481   0.161  10.466   1.667  0.4562 -1.1804  0.3236
   18MOL0     H 2482   0.170  10.180   1.793 -2.1390  0.5273  0.7623
   18MOL0     H 2483   0.064  10.286   1.705 -0.4667  1.0379 -2.1706
   18MOL0     H 2484   0.115  10.138   1.628 -0.5473  0.1445  0.4780
   19MOL0     O 2485   6.740   4.826   9.801 -0.2776 -0.3926 -0.1085
   19MOL0     C 2486   6.703   4.783   9.695 -0.3793 -1.5045 -0.0381
   19MOL0     O 2487   6.623   4.675   9.684 -0.3415  0.0736 -0.0318
   19MOL0     C 2488   6.622   4.589   9.792 -0.3750 -0.2577 -0.9787
   19MOL0     C 2489   6.716   4.489   9.795 -0.0510  0.2116  0.1467
   19MOL0     C 2490   6.733   4.423   9.920 -1.1535  0.3043  1.1062
   19MOL0     C 2491   6.653   4.450  10.028  0.8602 -0.2010 -0.3232
   19MOL0     O 2492   6.667   4.391  10.151 -0.6332  0.2933  0.3751
   19MOL0     C 2493   6.795   4.354  10.217 -0.4397 -0.9822 -0.1658
   19MOL0     C 2494   6.876   4.485  10.253  0.3248  0.5285 -0.4239
   19MOL0     C 2495   6.836   4.527  10.393  0.6612  0.6188  0.7437
   19MOL0     C 2496   6.692   4.584  10.394 -0.3830  1.0376  0.5449
   19MOL0     C 2497   6.658   4.664  10.526  0.6760  0.4780 -0.0888
   19MOL0     C 2498   6.703   4.605  10.664 -0.3182  0.4637 -0.0745
   19MOL0     C 2499   6.617   4.477  10.693 -0.5932  0.5744 -0.6733
   19MOL0     C 2500   6.620   4.444  10.838 -0.4110  0.6130  0.4672
   19MOL0     N 2501   6.578   4.299  10.857  0.4031  0.0624  0.7601
   19MOL0     C 2502   6.449   4.245  10.833 -0.6800 -0.7710  0.4323
   19MOL0     C 2503   6.460   4.119  10.874 -0.1272  0.8961  0.0534
   19MOL0     C 2504   6.340   4.031  10.891 -0.8375  0.6924  0.1289
   19MOL0     C 2505   6.307   4.029  11.048 -0.3876  0.3624  0.1341
   19MOL0     C 2506   6.216   4.140  11.088  0.5955 -0.4757 -0.4545
   19MOL0     C 2507   6.079   4.084  11.123 -0.2921 -0.2999 -0.1136
   19MOL0     O 2508   6.005   4.036  11.007 -0.7671  0.0415 -0.2631
   19MOL0     C 2509   5.984   4.114  10.900 -0.7769 -0.0424  0.6857
   19MOL0     C 2510   5.965   4.049  10.775 -0.4522 -0.5788  0.1505
   19MOL0     C 2511   5.951   4.121  10.656 -0.1680 -0.3740 -0.2900
   19MOL0     C 2512   5.939   4.039  10.531 -0.2448 -0.4914  0.2638
   19MOL0     C 2513   5.969   4.264  10.649  0.9944 -0.2384  1.1568
   19MOL0     C 2514   5.975   4.352  10.526 -0.0692 -0.4507 -0.0910
   19MOL0     O 2515   5.980   4.293  10.409  0.3729 -0.7130  0.4706
   19MOL0     C 2516   6.025   4.357  10.293  0.1884  0.3013 -0.3564
   19MOL0     C 2517   6.113   4.462  10.284 -0.8202  0.2410 -0.2458
   19MOL0     C 2518   6.159   4.522  10.165  1.0803  0.4776 -0.2435
   19MOL0     C 2519   6.091   4.486  10.048 -0.0480 -0.4606  0.6428
   19MOL0     O 2520   6.139   4.546   9.936 -0.6226 -0.3901 -0.5014
   19MOL0     C 2521   6.053   4.531   9.825  0.2350 -0.7754 -0.2471
   19MOL0     C 2522   6.091   4.640   9.721  0.1428 -0.2431  0.6511
   19MOL0     C 2523   6.230   4.634   9.671 -0.8409  0.1895  0.0831
   19MOL0     C 2524   6.251   4.693   9.530 -0.4117  0.8712 -0.3242
   19MOL0     C 2525   6.213   4.840   9.540 -0.1758 -0.6297 -0.8980
   19MOL0     C 2526   6.248   4.908   9.403 -0.6262 -0.3712 -1.0324
   19MOL0     C 2527   6.205   5.056   9.398  0.6133  1.1278 -0.6652
   19MOL0     C 2528   6.245   5.112   9.264 -0.1512 -0.0769  0.4590
   19MOL0    Cl 2529   6.169   5.266   9.224 -0.1648 -0.3700  0.0385
   19MOL0     C 2530   6.002   4.380  10.051 -0.1766  0.6844 -0.2070
   19MOL0     C 2531   5.970   4.313  10.167  0.2423  0.2819  0.0981
   19MOL0     O 2532   5.981   4.478  10.544  0.0322 -0.6950 -0.6242
   19MOL0     C 2533   5.989   4.324  10.774 -0.0598 -0.2835 -0.1246
   19MOL0     C 2534   5.998   4.250  10.888 -0.6428  0.0826 -0.0483
   19MOL0     N 2535   6.588   4.081  10.915  0.3740 -1.2590  0.0148
   19MOL0     N 2536   6.655   4.185  10.890 -0.2260  0.4948  0.0246
   19MOL0     C 2537   6.561   4.556  10.028 -0.2876  0.5919 -0.1228
   19MOL0     C 2538   6.541   4.626   9.910 -1.4897  0.6308  0.4942
   19MOL0     C 2539   6.723   4.855   9.572 -0.3846 -1.0786  0.2154
   19MOL0     C 2540   6.603   4.913   9.521  0.7065  0.1344  0.4004
   19MOL0     C 2541   6.605   4.982   9.392  0.2801 -0.6305  0.1070
   19MOL0     C 2542   6.716   4.992   9.314 -0.6523  0.4921  0.3689
   19MOL0     O 2543   6.731   5.057   9.199 -0.1468 -0.5306 -0.2340
   19MOL0     C 2544   6.632   5.144   9.146  0.4125 -0.7196 -0.4470
   19MOL0     C 2545   6.663   5.199   9.012 -0.7444  1.0096 -0.0820
   19MOL0     C 2546   6.676   5.092   8.901 -0.2627 -0.0377  0.6536
   19MOL0     C 2547   6.672   5.145   8.758  0.2793 -0.9715  0.0910
   19MOL0     C 2548   6.679   5.027   8.667  0.3031 -0.7332 -0.3341
   19MOL0     C 2549   6.688   4.928   8.605 -0.3091  0.2714  0.3918
   19MOL0     C 2550   6.846   4.946   9.379  1.3025 -0.2055  0.8946
   19MOL0     C 2551   6.842   4.877   9.505 -0.9472  1.5909  0.7470
   19MOL0     C 2552   6.976   4.826   9.565  0.1061 -0.1733  0.4498
   19MOL0     H 2553   6.787   4.469   9.715  0.5516  0.9277  0.4798
   19MOL0     H 2554   6.806   4.344   9.934 -1.7424 -0.5167 -0.2423
   19MOL0     H 2555   6.854   4.291  10.150  1.5507 -2.2002  2.5492
   19MOL0     H 2556   6.787   4.294  10.308  0.4093 -0.9872 -0.0872
   19MOL0     H 2557   6.984   4.466  10.252  0.0342 -1.4414 -2.6588
   19MOL0     H 2558   6.860   4.573  10.190 -0.3305  1.0420  0.4420
   19MOL0     H 2559   6.853   4.453  10.472  5.1207  0.7162  0.1325
   19MOL0     H 2560   6.912   4.602  10.420  0.1090  0.8763  1.6567
   19MOL0     H 2561   6.667   4.657  10.317 -0.2316  1.3949  0.8334
   19MOL0     H 2562   6.624   4.501  10.376  1.3856 -0.7296  1.5560
   19MOL0     H 2563   6.551   4.685  10.512  0.7443 -0.1835 -1.9424
   19MOL0     H 2564   6.711   4.759  10.513 -1.2453  1.7883  1.0788
   19MOL0     H 2565   6.811   4.587  10.663  0.5397  4.0976  3.0504
   19MOL0     H 2566   6.700   4.685  10.739 -2.2833  0.5531 -0.1936
   19MOL0     H 2567   6.660   4.393  10.638 -1.2714 -0.2210 -0.0236
   19MOL0     H 2568   6.510   4.482  10.669 -0.9772 -0.5954  0.6996
   19MOL0     H 2569   6.722   4.460  10.873  0.9317 -0.7317 -2.5090
   19MOL0     H 2570   6.551   4.512  10.890 -1.6649 -1.4343  1.6732
   19MOL0     H 2571   6.370   4.296  10.779  0.9131  1.2442 -0.1282
   19MOL0     H 2572   6.364   3.931  10.853  1.3201  1.4570 -0.6736
   19MOL0     H 2573   6.253   4.075  10.841 -1.5028 -1.5005 -0.7679
   19MOL0     H 2574   6.267   3.930  11.069  0.8092 -1.2774 -4.2046
   19MOL0     H 2575   6.399   4.051  11.102 -1.6235 -0.5002  2.7377
   19MOL0     H 2576   6.250   4.194  11.177  1.0644 -0.6056 -0.5559
   19MOL0     H 2577   6.212   4.215  11.008 -0.9288 -1.7314 -1.6321
   19MOL0     H 2578   6.097   4.007  11.198  2.1791  1.4776  1.2991
   19MOL0     H 2579   6.041   4.178  11.164 -0.0450  0.1010 -0.7748
   19MOL0     H 2580   5.955   3.941  10.776 -0.5965 -0.5793 -0.9285
   19MOL0     H 2581   5.887   3.943  10.540  0.1959 -0.9595 -1.6211
   19MOL0     H 2582   6.039   4.024  10.489 -0.5919  2.3736 -1.8732
   19MOL0     H 2583   5.877   4.097  10.462  3.2770  2.4640 -0.7113
   19MOL0     H 2584   6.173   4.503  10.365 -1.2921  1.0299 -0.2891
   19MOL0     H 2585   6.235   4.599  10.161  0.9007  0.6363 -0.7634
   19MOL0     H 2586   6.058   4.428   9.791  0.3852 -1.2336  1.0747
   19MOL0     H 2587   5.947   4.548   9.841  0.2881 -1.1908  0.6066
   19MOL0     H 2588   6.034   4.625   9.629  0.8663 -1.2762  0.3583
   19MOL0     H 2589   6.069   4.737   9.767 -1.3305 -0.0536 -0.4008
   19MOL0     H 2590   6.255   4.527   9.674  0.3266  0.4765  1.7694
   19MOL0     H 2591   6.290   4.679   9.750 -2.3870 -0.5917  1.7769
   19MOL0     H 2592   6.180   4.643   9.463 -1.0730  0.5029  0.6238
   19MOL0     H 2593   6.347   4.673   9.482 -0.4521 -0.6101  0.1480
   19MOL0     H 2594   6.108   4.861   9.560 -0.8097 -3.1528 -1.3065
   19MOL0     H 2595   6.255   4.892   9.627 -0.7099  1.5912 -1.8928
   19MOL0     H 2596   6.191   4.851   9.329  1.0039 -0.5191 -2.2116
   19MOL0     H 2597   6.353   4.886   9.384 -0.2050  0.1284  0.5430
   19MOL0     H 2598   6.259   5.111   9.476  3.8044 -1.1159 -1.1233
   19MOL0     H 2599   6.099   5.081   9.408  0.6247  0.9781 -0.1430
   19MOL0     H 2600   6.213   5.048   9.182  0.4040  0.1652  0.0418
   19MOL0     H 2601   6.353   5.133   9.260 -0.5835  2.2555 -0.7531
   19MOL0     H 2602   5.956   4.338   9.962  1.1011 -0.5134 -0.3373
   19MOL0     H 2603   5.892   4.238  10.162 -1.4981  1.4892  4.1001
   19MOL0     H 2604   6.013   4.429  10.783 -0.0697 -0.3808  1.2059
   19MOL0     H 2605   6.040   4.306  10.972  2.0249 -1.0544 -0.5528
   19MOL0     H 2606   6.514   4.590  10.119 -3.5481 -0.0905 -1.4110
   19MOL0     H 2607   6.493   4.723   9.912 -1.6271  0.6346  4.1657
   19MOL0     H 2608   6.511   4.918   9.580  2.1953  3.7144  2.7464
   19MOL0     H 2609   6.516   5.039   9.364 -0.7186 -0.3319  3.5006
   19MOL0     H 2610   6.534   5.097   9.131  0.6737 -0.4174 -3.8248
   19MOL0     H 2611   6.607   5.233   9.205  0.4726  1.1692 -3.1152
   19MOL0     H 2612   6.760   5.249   9.016 -0.3336  0.2406  3.0526
   19MOL0     H 2613   6.583   5.269   8.987  0.2190  1.7538 -1.1339
   19MOL0     H 2614   6.776   5.049   8.909  0.3486  1.2777  0.4455
   19MOL0     H 2615   6.594   5.020   8.906 -1.3011  1.1432  1.1448
   19MOL0     H 2616   6.758   5.212   8.762  1.3063 -2.2968  1.0824
   19MOL0     H 2617   6.580   5.202   8.740  1.2199  1.1765  1.5851
   19MOL0     H 2618   6.716   4.838   8.555  1.2821  2.2290 -2.5429
   19MOL0     H 2619   6.935   4.953   9.317 -0.6074  1.2500 -1.9633
   19MOL0     H 2620   7.030   4.898   9.627  0.2247 -1.7886  2.3005
   19MOL0     H 2621   6.957   4.743   9.633 -0.2710 -0.9004 -0.5341
   19MOL0     H 2622   7.030   4.784   9.480  0.3389  1.4135 -0.2309
   20MOL0     O 2623   3.184   4.266   1.543  0.0765 -0.5099  1.0218
   20MOL0     C 2624   3.261   4.357   1.559  0.3927  0.0447 -0.0150
   20MOL0     O 2625   3.235   4.490   1.524  0.8187 -0.4923  0.4467
   20MOL0     C 2626   3.107   4.530   1.499  0.0171  0.0502 -1.2174
   20MOL0     C 2627   3.040   4.589   1.612  0.1007  0.8895 -0.4704
   20MOL0     C 2628   2.911   4.635   1.594 -1.0179  0.9299 -0.3207
   20MOL0     C 2629   2.846   4.627   1.468 -0.7530  0.2827  0.0988
   20MOL0     O 2630   2.726   4.687   1.437  0.3390  0.0894  0.1601
   20MOL0     C 2631   2.696   4.825   1.472  0.6830 -0.5141  0.1852
   20MOL0     C 2632   2.656   4.866   1.616  0.1041  0.6308  0.8391
   20MOL0     C 2633   2.609   5.001   1.639 -0.5817  0.4331 -0.0886
   20MOL0     C 2634   2.584   5.019   1.797  0.1431 -0.7926  0.4042
   20MOL0     C 2635   2.515   5.149   1.816 -0.3743  0.5702 -0.2616
   20MOL0     C 2636   2.597   5.266   1.782 -0.8136  0.3808 -0.0002
   20MOL0     C 2637   2.526   5.389   1.836  0.2767  0.3284  0.1540
   20MOL0     C 2638   2.423   5.458   1.755  0.1114 -0.1943  0.6012
   20MOL0     N 2639   2.373   5.583   1.816  0.6266  0.4964  0.8466
   20MOL0     C 2640   2.439   5.690   1.811 -0.5112 -0.5177 -0.4590
   20MOL0     C 2641   2.369   5.777   1.881  0.2522 -0.1904  0.7921
   20MOL0     C 2642   2.393   5.923   1.869  0.1166  0.3716 -0.1584
   20MOL0     C 2643   2.427   5.977   1.728 -0.7874 -0.5014  0.3347
   20MOL0     C 2644   2.299   5.956   1.644  0.0612  0.0132 -0.1190
   20MOL0     C 2645   2.293   6.044   1.520  1.0060 -0.0365  0.5182
   20MOL0     O 2646   2.406   6.051   1.440  0.2224 -0.2990  0.5042
   20MOL0     C 2647   2.497   6.153   1.448 -0.2875 -0.1970  0.1435
   20MOL0     C 2648   2.600   6.130   1.358 -0.1059 -0.2217 -0.0905
   20MOL0     C 2649   2.698   6.240   1.332  0.1112  1.0069 -0.2882
   20MOL0     C 2650   2.794   6.214   1.225 -0.5076  0.5677 -0.2946
   20MOL0     C 2651   2.693   6.364   1.411 -0.5235 -0.0982  0.8886
   20MOL0     C 2652   2.788   6.483   1.377  0.1161  0.9776 -0.9882
   20MOL0     O 2653   2.918   6.459   1.333 -0.8126 -0.4297  0.2444
   20MOL0     C 2654   3.000   6.576   1.318 -0.1154  0.6704 -0.7349
   20MOL0     C 2655   3.030   6.626   1.189  0.2119  0.6831 -0.0865
   20MOL0     C 2656   3.120   6.733   1.175 -0.3650 -0.5833  0.2766
   20MOL0     C 2657   3.200   6.779   1.282  0.6354 -0.4273  0.5019
   20MOL0     O 2658   3.283   6.888   1.292  0.0228 -0.6239 -0.8537
   20MOL0     C 2659   3.355   6.922   1.175 -0.1139  0.0501  0.2384
   20MOL0     C 2660   3.475   6.995   1.222 -0.4167 -0.1798  0.3033
   20MOL0     C 2661   3.521   7.114   1.131  0.5629 -0.5345  0.3443
   20MOL0     C 2662   3.557   7.075   0.974 -0.0809 -1.0588 -0.5819
   20MOL0     C 2663   3.593   7.204   0.892 -1.3950  0.3538  0.7905
   20MOL0     C 2664   3.556   7.189   0.742 -0.8424  0.2713  0.1037
   20MOL0     C 2665   3.646   7.097   0.660 -0.0658  0.3028  0.0138
   20MOL0     C 2666   3.609   7.094   0.508  0.1143 -0.0054 -0.0730
   20MOL0    Cl 2667   3.658   7.239   0.417  0.1047 -0.0763  0.2229
   20MOL0     C 2668   3.168   6.722   1.410 -0.5247  0.3210  0.6606
   20MOL0     C 2669   3.060   6.634   1.429 -1.0534 -0.0423  0.2105
   20MOL0     O 2670   2.746   6.589   1.416 -0.4877 -1.0781 -0.2648
   20MOL0     C 2671   2.594   6.372   1.508 -1.3695 -0.1493 -0.0958
   20MOL0     C 2672   2.497   6.274   1.527 -0.7785  0.0427 -0.8862
   20MOL0     N 2673   2.249   5.722   1.918  0.2641  0.1245  0.5509
   20MOL0     N 2674   2.255   5.587   1.884  0.2080  0.5307  0.0906
   20MOL0     C 2675   2.922   4.558   1.363  0.9426  0.7677  0.3267
   20MOL0     C 2676   3.050   4.507   1.380 -0.3866 -0.3159  0.0914
   20MOL0     C 2677   3.401   4.323   1.608 -0.8328 -0.7810  0.4322
   20MOL0     C 2678   3.394   4.247   1.731 -0.4482 -0.4368 -0.1978
   20MOL0     C 2679   3.506   4.208   1.785  0.1642  0.5897  1.2318
   20MOL0     C 2680   3.633   4.229   1.738 -0.2633  1.4678  0.4184
   20MOL0     O 2681   3.750   4.198   1.803 -0.0254 -0.2908  0.5488
   20MOL0     C 2682   3.755   4.156   1.941 -0.8476  0.4282  0.6337
   20MOL0     C 2683   3.746   3.999   1.934  0.7507  0.3181 -0.2723
   20MOL0     C 2684   3.882   3.945   1.894  0.0764  0.1194  0.6434
   20MOL0     C 2685   3.902   3.859   1.770 -0.4352  0.6707  0.1950
   20MOL0     C 2686   3.846   3.910   1.638  0.4665 -0.3003 -0.9873
   20MOL0     C 2687   3.789   3.940   1.536 -0.0673 -1.2066  0.1602
   20MOL0     C 2688   3.643   4.305   1.621  0.7036 -0.3732 -0.2590
   20MOL0     C 2689   3.527   4.342   1.547 -0.6742  0.2660  0.2272
   20MOL0     C 2690   3.553   4.394   1.405  0.7338 -1.0585  0.2889
   20MOL0     H 2691   3.082   4.593   1.712  0.0228 -2.5501 -0.1786
   20MOL0     H 2692   2.857   4.678   1.678  2.1184  2.9931  0.8350
   20MOL0     H 2693   2.618   4.860   1.402  0.8031  3.1176  1.6299
   20MOL0     H 2694   2.786   4.884   1.452  1.3421 -0.7663  2.1985
   20MOL0     H 2695   2.582   4.792   1.647  3.0583 -3.3375 -0.7748
   20MOL0     H 2696   2.746   4.861   1.677  0.2598 -0.2788  0.5554
   20MOL0     H 2697   2.692   5.060   1.601  0.6046 -2.2062 -1.8815
   20MOL0     H 2698   2.524   5.034   1.579  0.1289  0.4638 -1.0934
   20MOL0     H 2699   2.524   4.938   1.840 -1.0232 -0.6598 -0.8925
   20MOL0     H 2700   2.675   5.018   1.858 -1.2515 -2.5102  2.6099
   20MOL0     H 2701   2.480   5.153   1.920  1.8363  3.8260  0.4885
   20MOL0     H 2702   2.418   5.155   1.765 -0.2154  2.4799 -0.3787
   20MOL0     H 2703   2.696   5.257   1.829 -0.7049  1.9120  0.0951
   20MOL0     H 2704   2.620   5.277   1.675  0.3051  1.8102  0.3548
   20MOL0     H 2705   2.602   5.466   1.848  1.7866 -0.3373 -3.5279
   20MOL0     H 2706   2.471   5.376   1.929 -2.8879  0.0721 -1.6156
   20MOL0     H 2707   2.481   5.480   1.665  0.1044  0.0042  0.6432
   20MOL0     H 2708   2.331   5.400   1.741  0.9835 -1.9687  1.9129
   20MOL0     H 2709   2.540   5.707   1.775 -0.6215  0.7558 -0.2044
   20MOL0     H 2710   2.478   5.932   1.937  1.1642 -2.1639 -1.0247
   20MOL0     H 2711   2.304   5.973   1.908  0.0412 -0.1601  0.3737
   20MOL0     H 2712   2.475   6.076   1.735  3.5163 -2.4430  1.5394
   20MOL0     H 2713   2.512   5.925   1.684 -2.1120 -0.6201 -2.2734
   20MOL0     H 2714   2.285   5.851   1.615 -4.0852  1.0267 -2.5484
   20MOL0     H 2715   2.215   5.983   1.709  1.4109  0.9294  1.3294
   20MOL0     H 2716   2.211   6.021   1.451  1.4453  1.2251 -0.4559
   20MOL0     H 2717   2.261   6.138   1.565 -0.1327  0.0357 -0.3991
   20MOL0     H 2718   2.606   6.042   1.294  0.7021  2.1414 -3.5222
   20MOL0     H 2719   2.897   6.235   1.255 -0.1707 -2.3741  0.9364
   20MOL0     H 2720   2.766   6.271   1.136  1.0315 -1.3226 -2.1093
   20MOL0     H 2721   2.795   6.107   1.202 -2.2952  0.0051  1.9026
   20MOL0     H 2722   2.984   6.584   1.101 -0.4812  2.4232 -0.5874
   20MOL0     H 2723   3.133   6.770   1.073 -2.6673 -4.0023 -1.4447
   20MOL0     H 2724   3.384   6.836   1.114 -2.0485  1.2496 -2.5519
   20MOL0     H 2725   3.297   6.985   1.107 -0.6205 -0.3679  0.2675
   20MOL0     H 2726   3.453   7.045   1.317 -2.2477  0.1370 -0.2323
   20MOL0     H 2727   3.561   6.928   1.227  0.8579  1.3235 -0.8375
   20MOL0     H 2728   3.605   7.161   1.184 -0.2307 -2.3961  3.5527
   20MOL0     H 2729   3.446   7.194   1.119 -0.2472 -1.3840 -0.4077
   20MOL0     H 2730   3.471   7.018   0.938 -2.2314  2.3754 -1.4605
   20MOL0     H 2731   3.642   7.007   0.981  1.4785  0.8656  0.2181
   20MOL0     H 2732   3.525   7.284   0.924 -3.1191  0.0418 -1.7482
   20MOL0     H 2733   3.701   7.219   0.892 -1.3264 -0.1406  1.2225
   20MOL0     H 2734   3.577   7.290   0.704  4.3741  0.2189  1.9251
   20MOL0     H 2735   3.454   7.158   0.721 -0.5854 -0.5000 -0.0290
   20MOL0     H 2736   3.648   6.994   0.697  1.7266  0.6360  0.9656
   20MOL0     H 2737   3.744   7.135   0.689 -0.7393  0.7471  1.9254
   20MOL0     H 2738   3.500   7.083   0.506 -0.0978 -0.8011  4.3337
   20MOL0     H 2739   3.661   7.013   0.457  0.8744  1.2428 -1.3612
   20MOL0     H 2740   3.226   6.764   1.492  1.6944  1.6564 -1.4568
   20MOL0     H 2741   3.021   6.598   1.524  2.6373 -2.1460  1.1052
   20MOL0     H 2742   2.598   6.462   1.569 -1.1712  1.0449 -1.7996
   20MOL0     H 2743   2.424   6.300   1.602 -1.1348 -1.0035 -0.8581
   20MOL0     H 2744   2.874   4.531   1.270  0.2878  2.4012  0.1564
   20MOL0     H 2745   3.095   4.467   1.290  0.6888  3.1448 -1.0244
   20MOL0     H 2746   3.299   4.241   1.784 -1.1716  0.3258 -1.3815
   20MOL0     H 2747   3.497   4.148   1.875 -3.8785  1.4956  1.5998
   20MOL0     H 2748   3.853   4.192   1.973  0.0560 -0.3277 -1.1263
   20MOL0     H 2749   3.675   4.200   2.001 -0.5556  0.3897  1.0535
   20MOL0     H 2750   3.672   3.969   1.860  1.3116  2.8414 -1.9658
   20MOL0     H 2751   3.719   3.971   2.036  0.0193  0.7138 -0.3578
   20MOL0     H 2752   3.962   4.019   1.894  2.5653 -2.4190 -0.1026
   20MOL0     H 2753   3.915   3.885   1.979  0.9097 -0.2575  0.0625
   20MOL0     H 2754   3.861   3.759   1.789 -0.8206  1.3064  3.3013
   20MOL0     H 2755   4.010   3.853   1.753 -0.7353  0.2799 -1.7445
   20MOL0     H 2756   3.750   3.974   1.441 -1.2265 -0.8070  0.7558
   20MOL0     H 2757   3.739   4.335   1.580  0.0294  1.8058 -0.3971
   20MOL0     H 2758   3.557   4.316   1.328 -1.7270 -1.1964  0.2279
   20MOL0     H 2759   3.469   4.462   1.387  1.9131  0.2262 -0.5440
   20MOL0     H 2760   3.641   4.457   1.394  0.4004 -0.3811  1.3690
   21MOL0     O 2761   3.033   8.183  10.373 -0.2224  0.2165  0.8135
   21MOL0     C 2762   3.063   8.292  10.422 -0.3295  0.7051 -0.2324
   21MOL0     O 2763   3.177   8.354  10.409 -0.0948  0.6265  0.4385
   21MOL0     C 2764   3.261   8.312  10.311 -0.2185  1.0366 -0.8597
   21MOL0     C 2765   3.359   8.210  10.314  0.0400 -0.3818  0.5451
   21MOL0     C 2766   3.437   8.187  10.203 -0.3573  0.4735  0.6836
   21MOL0     C 2767   3.423   8.259  10.087 -0.9454 -0.3995  0.1034
   21MOL0     O 2768   3.507   8.228   9.982 -1.2438 -0.0822  0.4056
   21MOL0     C 2769   3.509   8.301   9.865 -0.6925  0.6037 -0.8317
   21MOL0     C 2770   3.627   8.257   9.785  0.0247 -0.3410  0.6448
   21MOL0     C 2771   3.642   8.354   9.665  0.2290 -0.1106 -0.3514
   21MOL0     C 2772   3.727   8.288   9.557  0.0019 -1.0569 -0.0191
   21MOL0     C 2773   3.784   8.378   9.452  0.1154  0.1827 -0.3548
   21MOL0     C 2774   3.680   8.436   9.353 -0.0731  0.2305  0.0684
   21MOL0     C 2775   3.730   8.522   9.239  1.1436  0.2195 -0.1920
   21MOL0     C 2776   3.614   8.602   9.176  0.5646  0.8319 -0.7127
   21MOL0     N 2777   3.554   8.697   9.273 -0.0178  0.3430  0.0992
   21MOL0     C 2778   3.614   8.813   9.302 -0.8008 -0.6346 -0.3977
   21MOL0     C 2779   3.524   8.893   9.361 -0.2803  0.7217  0.5427
   21MOL0     C 2780   3.549   9.025   9.413  0.9578 -1.1868  0.1386
   21MOL0     C 2781   3.663   9.028   9.515 -0.3739 -0.1210 -0.1987
   21MOL0     C 2782   3.675   9.172   9.577 -0.1738  0.3230  0.4134
   21MOL0     C 2783   3.782   9.187   9.680 -0.2688 -1.0693 -0.9897
   21MOL0     O 2784   3.910   9.181   9.599 -1.2612 -0.3192 -0.1106
   21MOL0     C 2785   4.003   9.267   9.656 -0.5416 -0.2334  0.4275
   21MOL0     C 2786   4.026   9.397   9.608  0.1705  0.6068  0.2010
   21MOL0     C 2787   4.111   9.486   9.675 -0.8710  1.1100  0.2415
   21MOL0     C 2788   4.142   9.616   9.607 -0.8504 -0.5381  0.2738
   21MOL0     C 2789   4.187   9.435   9.785  0.2604  0.1803  0.5517
   21MOL0     C 2790   4.278   9.533   9.873  0.3825  0.8913  0.1671
   21MOL0     O 2791   4.289   9.658   9.832  0.3879  0.9592 -0.7599
   21MOL0     C 2792   4.379   9.741   9.898 -0.2701 -0.4962 -0.5364
   21MOL0     C 2793   4.358   9.760  10.037 -0.3428  0.0131  0.9110
   21MOL0     C 2794   4.440   9.849  10.108 -0.1561 -0.7357 -1.1518
   21MOL0     C 2795   4.549   9.910  10.037 -0.5694  0.9323 -0.3566
   21MOL0     O 2796   4.653   9.986  10.091 -0.1287 -0.4230 -0.2610
   21MOL0     C 2797   4.618  10.081  10.192  0.7780 -0.4208  1.0118
   21MOL0     C 2798   4.555  10.204  10.128 -0.0658  0.5622 -1.1303
   21MOL0     C 2799   4.654  10.296  10.061 -0.9396 -0.6935 -0.1283
   21MOL0     C 2800   4.611  10.440  10.041 -0.0785  0.3867  0.6172
   21MOL0     C 2801   4.635  10.552  10.148  0.7116 -0.4989 -1.0057
   21MOL0     C 2802   4.776  10.570  10.207  0.5705  0.7218 -0.1502
   21MOL0     C 2803   4.876  10.574  10.102  0.3623 -0.6384 -0.2996
   21MOL0     C 2804   4.993  10.653  10.147 -0.5283  0.0081  0.5944
   21MOL0    Cl 2805   4.951  10.829  10.152 -0.1937 -0.1332 -0.2313
   21MOL0     C 2806   4.574   9.894   9.902  0.3935  0.6704  0.6775
   21MOL0     C 2807   4.476   9.810   9.829  0.1354  0.1055  0.3094
   21MOL0     O 2808   4.339   9.479   9.966  0.7388  0.1862 -0.4553
   21MOL0     C 2809   4.152   9.310   9.844  0.4336 -0.3091  0.2167
   21MOL0     C 2810   4.070   9.228   9.770  0.7375 -0.4234 -0.2165
   21MOL0     N 2811   3.407   8.822   9.375  0.3517 -0.5380 -0.1975
   21MOL0     N 2812   3.431   8.704   9.322 -0.4680 -0.1097  0.2179
   21MOL0     C 2813   3.333   8.365  10.086 -0.4519 -0.0301 -0.2483
   21MOL0     C 2814   3.256   8.390  10.199  0.0692  0.1344 -0.0521
   21MOL0     C 2815   2.948   8.342  10.503 -0.2674 -0.3123 -0.0039
   21MOL0     C 2816   2.831   8.260  10.522 -0.0619  0.4445  0.9752
   21MOL0     C 2817   2.712   8.320  10.577  0.6476 -0.7289 -0.5092
   21MOL0     C 2818   2.706   8.446  10.644 -0.6983  0.2563  0.4242
   21MOL0     O 2819   2.605   8.506  10.707 -0.6542  0.0355  0.7556
   21MOL0     C 2820   2.552   8.607  10.634  0.0523  0.3251 -1.0615
   21MOL0     C 2821   2.427   8.555  10.552  0.9434  0.3316  0.0088
   21MOL0     C 2822   2.379   8.646  10.439  0.0011  0.3360 -0.4818
   21MOL0     C 2823   2.247   8.702  10.481  0.3089  0.1987 -0.2291
   21MOL0     C 2824   2.202   8.799  10.384 -0.4685 -0.0928  0.0615
   21MOL0     C 2825   2.179   8.884  10.301 -0.9176  0.0607  0.7401
   21MOL0     C 2826   2.825   8.519  10.629 -0.7510  0.4284  0.0540
   21MOL0     C 2827   2.943   8.468  10.563  0.7391  0.3323 -0.1428
   21MOL0     C 2828   3.042   8.581  10.518 -0.2051  0.9217  0.7298
   21MOL0     H 2829   3.366   8.138  10.395 -4.8039 -3.7162 -1.4868
   21MOL0     H 2830   3.515   8.112  10.196 -0.6368  0.0588  1.7740
   21MOL0     H 2831   3.525   8.403   9.900 -0.0825 -0.3323  1.8412
   21MOL0     H 2832   3.420   8.295   9.801 -1.0676  4.8381 -0.9867
   21MOL0     H 2833   3.721   8.247   9.840  0.1698  2.2382  0.9887
   21MOL0     H 2834   3.598   8.155   9.756 -2.2330 -0.3066  2.4750
   21MOL0     H 2835   3.546   8.370   9.615  1.7877  2.1265 -2.9027
   21MOL0     H 2836   3.686   8.447   9.702 -0.8206  0.3467 -0.2127
   21MOL0     H 2837   3.816   8.245   9.604 -0.8476 -0.8255  1.8876
   21MOL0     H 2838   3.654   8.215   9.520 -2.7474  0.8230  1.3146
   21MOL0     H 2839   3.840   8.316   9.381  0.5041 -0.7136  0.7211
   21MOL0     H 2840   3.853   8.451   9.496  2.7550 -1.6044 -1.2938
   21MOL0     H 2841   3.633   8.346   9.311 -1.4308  1.2992 -0.7780
   21MOL0     H 2842   3.600   8.484   9.410 -0.7655 -1.0907  0.2646
   21MOL0     H 2843   3.776   8.458   9.163 -0.4399  0.8863 -1.7761
   21MOL0     H 2844   3.806   8.591   9.276 -0.6078  1.6864  0.8582
   21MOL0     H 2845   3.644   8.654   9.084  1.6736 -2.1301 -2.1473
   21MOL0     H 2846   3.544   8.522   9.154 -0.3367  1.5170 -0.4013
   21MOL0     H 2847   3.716   8.843   9.281 -1.2069  0.4094 -0.9395
   21MOL0     H 2848   3.456   9.058   9.460  2.3910  0.0048  2.3085
   21MOL0     H 2849   3.575   9.086   9.326 -1.4180 -0.7455 -0.3325
   21MOL0     H 2850   3.631   8.953   9.588  2.0569 -3.5177 -2.3060
   21MOL0     H 2851   3.760   9.008   9.468  0.4602  0.5022  1.2168
   21MOL0     H 2852   3.682   9.245   9.496 -3.2390 -0.3365 -0.6162
   21MOL0     H 2853   3.579   9.210   9.615 -0.7368  1.5306 -2.0363
   21MOL0     H 2854   3.771   9.285   9.726 -0.2461 -0.9515 -1.2337
   21MOL0     H 2855   3.794   9.114   9.761  0.1477  1.5266  1.4137
   21MOL0     H 2856   3.974   9.435   9.521  0.7152  2.0883  0.5027
   21MOL0     H 2857   4.101   9.692   9.674  1.1543 -0.4831  1.5137
   21MOL0     H 2858   4.093   9.620   9.509  2.7799  0.2404 -1.6947
   21MOL0     H 2859   4.248   9.641   9.598 -1.4153  1.7507 -0.5779
   21MOL0     H 2860   4.281   9.697  10.081 -3.2701  1.2774 -1.9525
   21MOL0     H 2861   4.437   9.870  10.215  1.4324  2.5491 -1.6451
   21MOL0     H 2862   4.547  10.037  10.262 -1.4332 -1.8598 -1.8963
   21MOL0     H 2863   4.709  10.114  10.242  2.5299 -0.6557 -1.8201
   21MOL0     H 2864   4.486  10.169  10.051  0.5089  0.5648 -1.6520
   21MOL0     H 2865   4.493  10.254  10.203  2.2923  0.6718  0.8683
   21MOL0     H 2866   4.694  10.257   9.968 -2.1915  1.4544 -1.6617
   21MOL0     H 2867   4.735  10.310  10.134 -0.3279 -0.4957 -0.8279
   21MOL0     H 2868   4.508  10.432  10.006  0.3564 -1.7431 -0.3300
   21MOL0     H 2869   4.665  10.471   9.951  0.4907  0.6104  1.0320
   21MOL0     H 2870   4.597  10.648  10.111 -1.6193 -0.7962  0.4235
   21MOL0     H 2871   4.569  10.539  10.235  0.7745  0.7216 -0.7605
   21MOL0     H 2872   4.787  10.486  10.277 -3.0816 -1.3975 -1.7825
   21MOL0     H 2873   4.788  10.662  10.264  3.3895  2.0108 -2.5976
   21MOL0     H 2874   4.835  10.605  10.005  3.0017  0.3597 -1.1664
   21MOL0     H 2875   4.910  10.474  10.072  0.0831  0.1024 -3.4967
   21MOL0     H 2876   5.070  10.654  10.069 -2.4375 -1.4855 -1.4587
   21MOL0     H 2877   5.036  10.619  10.241 -2.2644  0.9030  1.7602
   21MOL0     H 2878   4.666   9.931   9.857  0.1222  1.0261  0.4096
   21MOL0     H 2879   4.487   9.799   9.722 -0.8213 -0.1936  0.2349
   21MOL0     H 2880   4.186   9.289   9.945 -0.5844  2.4121  1.2107
   21MOL0     H 2881   4.046   9.130   9.810  0.9656 -1.0274 -1.5104
   21MOL0     H 2882   3.307   8.419   9.996 -1.3489 -1.6818 -1.0339
   21MOL0     H 2883   3.179   8.465  10.187  0.3310  0.8358  2.1832
   21MOL0     H 2884   2.824   8.159  10.484  2.1034  0.1121  1.3368
   21MOL0     H 2885   2.616   8.269  10.579  0.8066 -1.0941  2.1944
   21MOL0     H 2886   2.513   8.678  10.708 -0.3014 -0.7956 -0.1441
   21MOL0     H 2887   2.623   8.661  10.570 -0.3647 -0.7978 -2.5178
   21MOL0     H 2888   2.344   8.519  10.614 -1.0912 -0.1744 -2.8186
   21MOL0     H 2889   2.472   8.465  10.508  2.8296  0.5241  1.3979
   21MOL0     H 2890   2.458   8.721  10.426  1.6347 -1.3114 -0.3339
   21MOL0     H 2891   2.361   8.590  10.348 -4.1866  3.3517 -1.8142
   21MOL0     H 2892   2.260   8.753  10.578  1.1315 -1.0726  0.3597
   21MOL0     H 2893   2.170   8.625  10.482 -0.1920  0.4879 -3.8702
   21MOL0     H 2894   2.175   8.955  10.220  1.3565  0.4670  0.9023
   21MOL0     H 2895   2.833   8.613  10.683 -0.4920  2.3880 -3.1808
   21MOL0     H 2896   3.143   8.551  10.550 -0.1048  0.2160 -0.1947
   21MOL0     H 2897   3.043   8.572  10.409  0.7283 -2.3356  0.8757
   21MOL0     H 2898   3.023   8.684  10.550 -1.1889  1.0285 -0.1442
   22MOL0     O 2899   0.911   9.783  11.539  0.3054  0.5355 -0.2274
   22MOL0     C 2900   0.829   9.803  11.637 -0.2022 -0.7030 -0.6643
   22MOL0     O 2901   0.706   9.880  11.633  0.0341  0.1317  0.9010
   22MOL0     C 2902   0.704   9.969  11.529 -0.5581  1.0918  0.4852
   22MOL0     C 2903   0.787  10.075  11.532  0.1098  0.3837 -0.1230
   22MOL0     C 2904   0.773  10.168  11.436  0.2584 -0.7971  0.0929
   22MOL0     C 2905   0.684  10.158  11.327  0.4708 -0.4678  0.0866
   22MOL0     O 2906   0.688  10.262  11.229  0.7309  0.8131 -0.1163
   22MOL0     C 2907   0.822  10.279  11.160  0.7492 -0.0505  0.0152
   22MOL0     C 2908   0.822  10.284  11.005  0.6171  0.2857  0.9181
   22MOL0     C 2909   0.812  10.148  10.952  1.1490  1.0622 -0.1549
   22MOL0     C 2910   0.789  10.139  10.806 -0.2391  0.7163  0.6077
   22MOL0     C 2911   0.773   9.999  10.762 -0.0251  0.5761  0.7007
   22MOL0     C 2912   0.913   9.950  10.726 -0.4112 -0.0881  0.0609
   22MOL0     C 2913   0.914   9.836  10.627  0.7890  0.0409  0.2192
   22MOL0     C 2914   1.054   9.799  10.574  0.5700  1.3876 -0.0198
   22MOL0     N 2915   1.121   9.911  10.518 -1.0757 -0.1637 -0.7062
   22MOL0     C 2916   1.106   9.959  10.389 -0.2048 -0.2072 -0.3666
   22MOL0     C 2917   1.200  10.049  10.374  0.1320  0.2969  0.2326
   22MOL0     C 2918   1.231  10.131  10.255 -0.3080 -0.5587 -0.2091
   22MOL0     C 2919   1.306  10.057  10.146  0.3990 -0.0549  0.8675
   22MOL0     C 2920   1.210  10.005  10.030  0.9768  0.2889 -1.2901
   22MOL0     C 2921   1.288   9.984   9.896  0.7833 -0.5608 -0.2989
   22MOL0     O 2922   1.412   9.916   9.914 -0.3187  0.0367 -0.1117
   22MOL0     C 2923   1.424   9.784   9.918 -0.9438 -0.1778  0.0648
   22MOL0     C 2924   1.551   9.729   9.920 -0.0054  0.2080 -0.0768
   22MOL0     C 2925   1.576   9.595   9.938  0.3031  0.0993 -0.3488
   22MOL0     C 2926   1.726   9.557   9.966  0.2278 -0.0592 -0.2657
   22MOL0     C 2927   1.469   9.505   9.952 -0.4481 -0.1461 -0.2678
   22MOL0     C 2928   1.487   9.351   9.988  0.1411 -0.4294 -0.7210
   22MOL0     O 2929   1.612   9.316  10.036  1.0008  0.4301  0.8324
   22MOL0     C 2930   1.637   9.213  10.127 -0.7433  0.9010  0.8690
   22MOL0     C 2931   1.545   9.170  10.220  0.6205 -0.2483 -0.7031
   22MOL0     C 2932   1.571   9.103  10.336  0.2820  0.4144 -0.0059
   22MOL0     C 2933   1.703   9.057  10.344 -0.1362 -0.2146 -0.8927
   22MOL0     O 2934   1.723   8.998  10.471  0.2824 -0.2748  0.3856
   22MOL0     C 2935   1.789   8.871  10.466 -0.3332 -1.1337 -0.0534
   22MOL0     C 2936   1.774   8.804  10.602  0.4366  0.0546 -0.8136
   22MOL0     C 2937   1.866   8.679  10.610  0.4921  0.2018 -0.4444
   22MOL0     C 2938   1.835   8.618  10.741 -0.6420 -0.0110  0.3059
   22MOL0     C 2939   1.922   8.490  10.775  0.2754  0.7091 -0.2960
   22MOL0     C 2940   2.068   8.514  10.800  0.6826 -0.5982 -0.0882
   22MOL0     C 2941   2.092   8.626  10.904 -0.0009 -1.0882  0.4824
   22MOL0     C 2942   2.230   8.611  10.975  0.6574  0.6717  0.6921
   22MOL0    Cl 2943   2.210   8.511  11.131  0.4692  0.4018  0.1638
   22MOL0     C 2944   1.802   9.092  10.254 -0.2249  1.2546 -0.1487
   22MOL0     C 2945   1.774   9.167  10.140 -0.3836 -1.0182  0.0847
   22MOL0     O 2946   1.391   9.279   9.988  0.0060 -0.4307  0.9197
   22MOL0     C 2947   1.344   9.550   9.934 -0.4181  0.2620 -0.4852
   22MOL0     C 2948   1.316   9.689   9.925 -0.5235  1.3952 -0.6760
   22MOL0     N 2949   1.288  10.046  10.487  0.0666 -0.3609 -1.1789
   22MOL0     N 2950   1.242   9.961  10.565  0.6873 -0.0604 -0.1110
   22MOL0     C 2951   0.594  10.046  11.320  0.0478  0.6112  1.3213
   22MOL0     C 2952   0.609   9.951  11.423 -0.6274  0.5371  0.2647
   22MOL0     C 2953   0.869   9.751  11.775 -0.0969 -0.2360  0.1082
   22MOL0     C 2954   0.934   9.837  11.862 -0.8368 -0.2633 -0.1741
   22MOL0     C 2955   0.963   9.793  11.994  0.3825 -1.2973 -0.1529
   22MOL0     C 2956   0.929   9.664  12.029  0.1041  0.7635  0.1974
   22MOL0     O 2957   0.957   9.613  12.154 -0.3848 -0.1666 -0.0583
   22MOL0     C 2958   0.843   9.626  12.235 -0.2717  0.9678 -0.6076
   22MOL0     C 2959   0.869   9.602  12.388 -0.6828  0.6202 -0.0723
   22MOL0     C 2960   0.953   9.712  12.460  0.4169  0.0840  0.1911
   22MOL0     C 2961   0.989   9.687  12.620 -0.7131  0.1815  0.5356
   22MOL0     C 2962   0.949   9.804  12.705  0.3608  0.5072 -0.0670
   22MOL0     C 2963   0.939   9.905  12.770  0.7512 -0.8288  0.1501
   22MOL0     C 2964   0.872   9.578  11.939 -0.3079 -0.0307  0.0837
   22MOL0     C 2965   0.825   9.619  11.816 -0.2924 -0.0037  0.4974
   22MOL0     C 2966   0.758   9.514  11.725  0.0223  0.4155 -0.1844
   22MOL0     H 2967   0.858  10.087  11.613 -0.2763  5.6667 -0.2145
   22MOL0     H 2968   0.849  10.246  11.430  0.6234 -0.9600  1.9664
   22MOL0     H 2969   0.887  10.201  11.201 -0.6885 -1.9802 -1.2095
   22MOL0     H 2970   0.874  10.370  11.191  2.0588 -0.7416 -0.0937
   22MOL0     H 2971   0.744  10.353  10.972  0.9486  1.2488  2.0742
   22MOL0     H 2972   0.917  10.329  10.977  1.8124 -3.4397 -1.9139
   22MOL0     H 2973   0.899  10.092  10.988  0.6341  1.3995  1.7788
   22MOL0     H 2974   0.722  10.101  10.994  1.7377  0.2244  0.2045
   22MOL0     H 2975   0.693  10.191  10.799 -0.5561  0.3045  1.7108
   22MOL0     H 2976   0.863  10.195  10.747 -0.5574 -3.1860 -4.1426
   22MOL0     H 2977   0.732   9.986  10.661  0.6081 -0.7411  0.5921
   22MOL0     H 2978   0.717   9.942  10.836 -1.1177  0.8824  0.1376
   22MOL0     H 2979   0.968  10.033  10.682 -1.0504 -0.1003 -0.7923
   22MOL0     H 2980   0.958   9.929  10.823  1.5549  3.6044  0.1079
   22MOL0     H 2981   0.852   9.866  10.542 -0.8561  1.2893  1.7757
   22MOL0     H 2982   0.859   9.756  10.676  0.2361 -0.3855 -1.0520
   22MOL0     H 2983   1.107   9.747  10.655  1.4307 -0.2673 -1.5869
   22MOL0     H 2984   1.050   9.724  10.495 -0.3154  1.3629  0.0403
   22MOL0     H 2985   1.042   9.934  10.305  1.8328 -0.4658 -1.9288
   22MOL0     H 2986   1.299  10.209  10.290  0.8899 -0.7460 -1.9877
   22MOL0     H 2987   1.142  10.179  10.214 -0.9729 -0.1813  1.5969
   22MOL0     H 2988   1.391  10.111  10.103 -1.1202 -1.1989 -4.1853
   22MOL0     H 2989   1.353   9.970  10.193 -1.3712 -0.3163  2.2288
   22MOL0     H 2990   1.155   9.917  10.066  1.2679  0.6955  0.1957
   22MOL0     H 2991   1.127  10.074  10.021  0.1643 -0.1365  1.9312
   22MOL0     H 2992   1.217   9.947   9.821  0.0410  1.5123 -0.6708
   22MOL0     H 2993   1.299  10.086   9.860 -1.1796  0.0466  0.6882
   22MOL0     H 2994   1.634   9.799   9.932 -0.1952  0.0760  2.3834
   22MOL0     H 2995   1.760   9.465   9.917 -0.6439 -1.4556  1.6276
   22MOL0     H 2996   1.748   9.536  10.071  1.2291  0.3807 -0.3773
   22MOL0     H 2997   1.786   9.642   9.931  0.9438 -1.5966 -3.0388
   22MOL0     H 2998   1.446   9.214  10.223  1.6852  2.3752 -0.7860
   22MOL0     H 2999   1.492   9.093  10.410 -0.7133  0.1344 -1.0749
   22MOL0     H 3000   1.751   8.806  10.387 -0.8306 -1.0445  0.1061
   22MOL0     H 3001   1.896   8.885  10.453 -0.5581  0.5872 -0.3657
   22MOL0     H 3002   1.801   8.878  10.677  0.3463 -2.3136  1.7336
   22MOL0     H 3003   1.673   8.767  10.623  1.4677 -0.6862  4.0387
   22MOL0     H 3004   1.971   8.709  10.613  0.2066  1.2998 -0.9498
   22MOL0     H 3005   1.853   8.609  10.526 -1.6368  1.4913 -1.2726
   22MOL0     H 3006   1.739   8.567  10.730  0.1040 -1.1015 -1.8113
   22MOL0     H 3007   1.841   8.692  10.821  1.3363  2.0945 -1.6306
   22MOL0     H 3008   1.884   8.430  10.859  0.9635  1.1400  0.3380
   22MOL0     H 3009   1.919   8.419  10.692 -1.9502  1.1129 -0.6193
   22MOL0     H 3010   2.119   8.544  10.708  2.9583 -0.7989  1.0268
   22MOL0     H 3011   2.105   8.418  10.838 -2.5586 -1.7504  0.4636
   22MOL0     H 3012   2.008   8.611  10.972 -2.0515 -1.1068 -1.9303
   22MOL0     H 3013   2.098   8.726  10.861  0.4739  0.5398  3.9542
   22MOL0     H 3014   2.272   8.708  11.003 -2.0131  1.6179  1.6841
   22MOL0     H 3015   2.298   8.555  10.910 -2.0877 -2.4322  0.2279
   22MOL0     H 3016   1.905   9.081  10.287  0.5222  3.9633 -1.3187
   22MOL0     H 3017   1.865   9.200  10.092 -2.4363  2.2273 -1.9867
   22MOL0     H 3018   1.259   9.484   9.950  1.9417 -2.6449  0.7661
   22MOL0     H 3019   1.213   9.722   9.936 -0.4347  1.3105  0.5060
   22MOL0     H 3020   0.522  10.032  11.240 -0.7312 -1.2539  2.2713
   22MOL0     H 3021   0.539   9.869  11.417 -1.8605  1.5868 -0.1097
   22MOL0     H 3022   0.929   9.941  11.832 -2.7436 -0.5823 -1.1170
   22MOL0     H 3023   1.032   9.852  12.053 -0.6895 -1.1026  0.9337
   22MOL0     H 3024   0.803   9.727  12.220  2.1554  1.9651 -0.9941
   22MOL0     H 3025   0.769   9.556  12.196 -0.5326  1.6143 -1.3035
   22MOL0     H 3026   0.938   9.517  12.383 -0.5842  0.7414 -1.0028
   22MOL0     H 3027   0.776   9.578  12.440 -0.8061 -1.9875 -1.3132
   22MOL0     H 3028   1.044   9.712  12.399  0.2943 -5.4999 -0.5659
   22MOL0     H 3029   0.899   9.805  12.440 -0.6523 -0.9078 -1.9442
   22MOL0     H 3030   1.095   9.661  12.626 -1.2307 -2.2059  0.0774
   22MOL0     H 3031   0.933   9.601  12.658 -0.9396 -0.1369 -0.4983
   22MOL0     H 3032   0.928   9.985  12.841 -0.3089 -2.6794  2.1674
   22MOL0     H 3033   0.838   9.486  11.985 -2.2596  0.0914 -0.9986
   22MOL0     H 3034   0.782   9.415  11.767 -1.5453  1.2191  2.9433
   22MOL0     H 3035   0.649   9.525  11.729  0.0037  1.1813 -1.9512
   22MOL0     H 3036   0.783   9.519  11.619  1.0599  0.5652  0.0582
   23MOL0     O 3037   4.115  10.918   2.333 -0.2350  1.0355 -0.5777
   23MOL0     C 3038   4.113  10.849   2.440  0.2237  0.8274 -0.0786
   23MOL0     O 3039   4.204  10.768   2.491  0.4338 -0.2225  0.0584
   23MOL0     C 3040   4.310  10.738   2.413  0.2193  0.8961 -1.3640
   23MOL0     C 3041   4.344  10.606   2.412 -0.2099  0.0427 -0.3962
   23MOL0     C 3042   4.464  10.570   2.329  0.2156  0.7831  0.0796
   23MOL0     C 3043   4.547  10.660   2.277  0.1613  0.0172  0.2395
   23MOL0     O 3044   4.660  10.610   2.231  0.1059 -0.4874 -0.1219
   23MOL0     C 3045   4.749  10.697   2.169 -1.2130 -1.1562 -0.6164
   23MOL0     C 3046   4.865  10.623   2.113  0.0469  0.9104 -0.5030
   23MOL0     C 3047   4.926  10.522   2.220 -0.3096 -0.1735 -0.1272
   23MOL0     C 3048   5.012  10.423   2.146  0.3490  0.0420 -1.0053
   23MOL0     C 3049   5.100  10.349   2.249  0.9331  0.8660  0.8612
   23MOL0     C 3050   5.196  10.259   2.179 -0.2091  0.1948 -0.3239
   23MOL0     C 3051   5.267  10.161   2.274  0.5532 -0.7744  0.5369
   23MOL0     C 3052   5.380  10.092   2.210  0.2121  0.0546  0.6928
   23MOL0     N 3053   5.364  10.043   2.075 -0.0649  0.7359  0.6475
   23MOL0     C 3054   5.434  10.090   1.969  0.1223  0.3082 -0.8055
   23MOL0     C 3055   5.414  10.005   1.867 -0.3915  0.6337  0.7384
   23MOL0     C 3056   5.460  10.029   1.720 -0.5250  0.0878 -0.8003
   23MOL0     C 3057   5.615  10.015   1.701  0.1393  0.0751 -0.2617
   23MOL0     C 3058   5.656  10.055   1.567  0.3300  0.0570 -0.5510
   23MOL0     C 3059   5.813  10.037   1.539  0.2287 -0.2025 -0.1435
   23MOL0     O 3060   5.840   9.897   1.525 -0.0238 -0.4202 -1.0188
   23MOL0     C 3061   5.966   9.857   1.569  0.2101  0.4399 -0.3277
   23MOL0     C 3062   6.064   9.945   1.548 -0.0641  0.2878  0.9602
   23MOL0     C 3063   6.196   9.915   1.584  0.2977  0.3251 -0.4499
   23MOL0     C 3064   6.297  10.032   1.579  1.2422 -0.4836  0.4741
   23MOL0     C 3065   6.231   9.788   1.624  0.0154  0.0101 -0.1606
   23MOL0     C 3066   6.370   9.747   1.647  0.2190 -0.3292  0.6861
   23MOL0     O 3067   6.379   9.662   1.747  0.2385 -0.2479 -0.3487
   23MOL0     C 3068   6.498   9.607   1.782 -0.2281  0.3626 -0.2022
   23MOL0     C 3069   6.530   9.472   1.754  1.0663 -0.1504  1.0445
   23MOL0     C 3070   6.655   9.428   1.782 -0.0807 -0.3949 -0.2062
   23MOL0     C 3071   6.742   9.516   1.847  1.1023  0.0670  0.6475
   23MOL0     O 3072   6.858   9.456   1.879  0.5718  0.2549 -0.0919
   23MOL0     C 3073   6.924   9.490   2.003  0.1827 -0.4157  0.0569
   23MOL0     C 3074   7.018   9.383   2.055 -0.9835 -0.3375 -0.1082
   23MOL0     C 3075   7.155   9.373   1.984 -0.2863  0.6063 -0.2484
   23MOL0     C 3076   7.251   9.255   2.031  0.0130  0.7395  0.2564
   23MOL0     C 3077   7.306   9.271   2.169 -0.1871  0.1507 -0.0884
   23MOL0     C 3078   7.388   9.147   2.216 -0.0949  0.9946 -0.2638
   23MOL0     C 3079   7.500   9.118   2.120 -1.2915  0.4131  0.6067
   23MOL0     C 3080   7.609   9.017   2.174  0.2331 -0.2087  0.0348
   23MOL0    Cl 3081   7.748   9.094   2.257  0.2969  0.6377 -0.0875
   23MOL0     C 3082   6.711   9.639   1.890 -0.7932  0.2384  0.1679
   23MOL0     C 3083   6.580   9.693   1.863  0.5489  0.6135 -0.2741
   23MOL0     O 3084   6.460   9.790   1.577  1.0106 -0.4488  0.2341
   23MOL0     C 3085   6.127   9.698   1.645 -1.2018  0.4815  0.2373
   23MOL0     C 3086   5.996   9.728   1.610  0.3777  0.2454  0.6418
   23MOL0     N 3087   5.355   9.892   1.910  0.0217  0.1517  0.1724
   23MOL0     N 3088   5.326   9.916   2.034 -0.2910 -0.0078 -0.4278
   23MOL0     C 3089   4.518  10.798   2.282 -0.6447 -0.4356 -1.0257
   23MOL0     C 3090   4.393  10.833   2.345  0.1167  0.1188 -0.5530
   23MOL0     C 3091   3.986  10.860   2.517 -0.2681 -0.4851  1.1198
   23MOL0     C 3092   3.865  10.845   2.443 -0.3622  0.0244  0.9910
   23MOL0     C 3093   3.745  10.836   2.501  0.0945 -1.0139 -1.3381
   23MOL0     C 3094   3.744  10.846   2.642  0.8160 -0.4887  0.4654
   23MOL0     O 3095   3.634  10.843   2.719 -1.2765  0.8301 -0.1338
   23MOL0     C 3096   3.527  10.757   2.675 -0.5913 -0.8121  1.0950
   23MOL0     C 3097   3.457  10.712   2.805  0.1658  0.9214 -0.1390
   23MOL0     C 3098   3.347  10.803   2.842 -0.1845 -0.1849 -0.8073
   23MOL0     C 3099   3.351  10.850   2.997 -0.5901  0.4935 -0.1743
   23MOL0     C 3100   3.228  10.916   3.028 -0.3279 -0.5236 -0.2470
   23MOL0     C 3101   3.114  10.966   3.045 -0.6099 -0.1049  0.1829
   23MOL0     C 3102   3.858  10.875   2.719  0.6159 -0.3453 -0.2811
   23MOL0     C 3103   3.986  10.878   2.656 -0.1437 -0.3540  0.7699
   23MOL0     C 3104   4.106  10.904   2.740 -1.5743 -0.3996 -0.2699
   23MOL0     H 3105   4.278  10.532   2.457 -1.1232  0.9211 -0.2378
   23MOL0     H 3106   4.482  10.464   2.318 -1.0560  0.7317 -2.1462
   23MOL0     H 3107   4.790  10.771   2.239 -1.2752 -0.6224 -1.1367
   23MOL0     H 3108   4.702  10.747   2.084  0.7868  0.0162 -1.1003
   23MOL0     H 3109   4.828  10.573   2.023 -0.1100  0.6375 -0.2887
   23MOL0     H 3110   4.944  10.685   2.070  2.5141 -2.2727 -0.8547
   23MOL0     H 3111   4.981  10.574   2.300 -0.6033 -0.6595  0.3971
   23MOL0     H 3112   4.849  10.464   2.271  1.1022 -2.0039  0.0354
   23MOL0     H 3113   4.942  10.358   2.092  0.2974 -0.1111 -0.7568
   23MOL0     H 3114   5.079  10.463   2.070  0.5663  2.5009  0.3765
   23MOL0     H 3115   5.045  10.289   2.322  2.5678  1.0854  2.3370
   23MOL0     H 3116   5.158  10.418   2.310 -1.9794  2.5283  1.9663
   23MOL0     H 3117   5.137  10.203   2.105 -1.2461 -0.5420  1.0171
   23MOL0     H 3118   5.258  10.324   2.116 -1.2518  2.0725  0.5196
   23MOL0     H 3119   5.196  10.084   2.303  1.3603 -2.3688 -1.5060
   23MOL0     H 3120   5.283  10.206   2.373 -1.5268 -1.3026  1.1474
   23MOL0     H 3121   5.467  10.159   2.206  0.6626 -0.5675 -0.4250
   23MOL0     H 3122   5.403  10.004   2.270  0.4574  0.5690  1.3695
   23MOL0     H 3123   5.473  10.191   1.970  1.3381 -0.1530 -0.0312
   23MOL0     H 3124   5.416  10.123   1.683  0.4388  1.2813  0.9369
   23MOL0     H 3125   5.415   9.959   1.650  1.6752 -0.6649 -1.5306
   23MOL0     H 3126   5.669  10.082   1.769  0.7458 -1.6198  0.9869
   23MOL0     H 3127   5.653   9.913   1.713  3.9553  1.0021 -2.6374
   23MOL0     H 3128   5.594   9.992   1.501 -0.8159  0.7520 -0.1548
   23MOL0     H 3129   5.640  10.161   1.545 -0.8171  0.3017  1.3153
   23MOL0     H 3130   5.829  10.074   1.437 -2.1891  2.0760  0.2143
   23MOL0     H 3131   5.873  10.091   1.613  0.8363 -1.8887  0.6509
   23MOL0     H 3132   6.058  10.051   1.526 -3.6759 -0.1496 -0.8421
   23MOL0     H 3133   6.348  10.035   1.483  0.8555  1.9689  0.2840
   23MOL0     H 3134   6.373  10.032   1.658  0.8958 -0.2330  0.8148
   23MOL0     H 3135   6.257  10.133   1.592  1.7856 -0.5178  2.9349
   23MOL0     H 3136   6.448   9.416   1.708  0.5822  1.4131 -0.0949
   23MOL0     H 3137   6.680   9.323   1.767 -1.3839 -0.3696 -3.5739
   23MOL0     H 3138   6.989   9.572   1.971 -1.6727  0.8094 -0.7116
   23MOL0     H 3139   6.852   9.521   2.079  2.4475 -0.8158  2.5399
   23MOL0     H 3140   7.027   9.394   2.164 -1.8580  3.1999 -0.2775
   23MOL0     H 3141   6.972   9.285   2.037  0.5362 -1.0293 -0.4072
   23MOL0     H 3142   7.212   9.466   1.981 -0.2185  0.6261  1.1252
   23MOL0     H 3143   7.129   9.361   1.878  1.6951  0.4928 -0.7560
   23MOL0     H 3144   7.328   9.236   1.956  0.1505 -0.8669  0.7517
   23MOL0     H 3145   7.191   9.163   2.026  0.8313  0.2690 -2.7389
   23MOL0     H 3146   7.367   9.361   2.182  1.2591 -0.9346  0.8381
   23MOL0     H 3147   7.222   9.284   2.238 -1.4877 -1.1782 -1.3395
   23MOL0     H 3148   7.331   9.054   2.222  0.0607  0.9953  2.0900
   23MOL0     H 3149   7.423   9.187   2.312  2.1463  3.4810 -1.9664
   23MOL0     H 3150   7.556   9.207   2.090 -1.4690  0.0692 -0.8116
   23MOL0     H 3151   7.463   9.072   2.029 -0.7252 -0.2944  0.7200
   23MOL0     H 3152   7.643   8.971   2.080  3.4833  3.8491 -1.0301
   23MOL0     H 3153   7.548   8.950   2.236  0.3439 -0.5923 -0.2629
   23MOL0     H 3154   6.789   9.688   1.947  0.6006 -4.1124  2.3835
   23MOL0     H 3155   6.552   9.794   1.890  2.7442  1.7630 -1.9370
   23MOL0     H 3156   6.142   9.603   1.694  0.9770 -1.3721 -3.5629
   23MOL0     H 3157   5.920   9.652   1.626  3.1885 -3.0874 -0.4988
   23MOL0     H 3158   4.584  10.880   2.254 -0.4955  0.3644  1.4705
   23MOL0     H 3159   4.362  10.935   2.365  0.0923 -0.4578  3.0817
   23MOL0     H 3160   3.865  10.841   2.334 -1.4725  0.2735  0.9702
   23MOL0     H 3161   3.649  10.833   2.449 -1.6276  0.5257  1.5107
   23MOL0     H 3162   3.456  10.803   2.605 -0.7736 -1.7789  0.6291
   23MOL0     H 3163   3.568  10.664   2.635  1.2899 -0.1913  1.5024
   23MOL0     H 3164   3.536  10.690   2.878 -0.0842 -1.4482 -0.5135
   23MOL0     H 3165   3.416  10.612   2.791 -0.4568  0.9393  1.2930
   23MOL0     H 3166   3.351  10.891   2.778 -0.2575  0.8323  0.5509
   23MOL0     H 3167   3.252  10.753   2.819  0.1779 -1.5506  0.5100
   23MOL0     H 3168   3.439  10.908   3.026 -1.4670  0.9417  1.8374
   23MOL0     H 3169   3.356  10.761   3.061  1.0918  1.7158  1.5310
   23MOL0     H 3170   3.026  11.025   3.065  0.7869  1.4169  2.3416
   23MOL0     H 3171   3.840  10.892   2.825 -1.0764 -0.0825 -0.5756
   23MOL0     H 3172   4.123  10.811   2.795 -3.1025 -0.3434  0.3452
   23MOL0     H 3173   4.192  10.918   2.674 -1.8063 -3.0503 -1.2618
   23MOL0     H 3174   4.094  10.983   2.815 -1.5887  0.9228 -1.6080
   24MOL0     O 3175   7.926   6.020   9.627 -0.4932  0.0082 -0.1188
   24MOL0     C 3176   7.906   5.964   9.739 -0.4308  0.3938 -0.5557
   24MOL0     O 3177   7.980   5.856   9.789  0.7783  0.0072 -1.0398
   24MOL0     C 3178   8.107   5.846   9.745  0.8942 -0.1072  0.6247
   24MOL0     C 3179   8.204   5.946   9.756  0.6176 -0.1316  0.0054
   24MOL0     C 3180   8.339   5.927   9.729 -0.8027  0.0320  0.7632
   24MOL0     C 3181   8.379   5.796   9.674  0.1233 -0.1811  0.9042
   24MOL0     O 3182   8.501   5.757   9.629 -0.3246 -0.7372 -0.1768
   24MOL0     C 3183   8.603   5.862   9.627  0.3507  0.1677  0.5321
   24MOL0     C 3184   8.724   5.821   9.538 -0.0520  1.2721  0.3820
   24MOL0     C 3185   8.684   5.740   9.406 -0.3236  0.5371  0.1913
   24MOL0     C 3186   8.815   5.680   9.356 -0.3590  0.1338 -0.1391
   24MOL0     C 3187   8.812   5.572   9.249  0.5377 -0.4483 -0.3850
   24MOL0     C 3188   8.779   5.628   9.109  0.9393 -0.0216  0.6479
   24MOL0     C 3189   8.737   5.509   9.021  0.1989  0.1436 -0.3024
   24MOL0     C 3190   8.610   5.436   9.076  0.7949  0.0393 -0.2490
   24MOL0     N 3191   8.517   5.395   8.965 -0.0407  0.3374 -0.5014
   24MOL0     C 3192   8.389   5.448   8.945 -0.8541 -1.0637  0.5771
   24MOL0     C 3193   8.334   5.365   8.847 -0.3759  0.4490  0.9137
   24MOL0     C 3194   8.216   5.386   8.755 -0.4839 -0.2081  0.1750
   24MOL0     C 3195   8.113   5.474   8.816 -0.7855  0.3381  0.3955
   24MOL0     C 3196   8.040   5.407   8.935 -0.1784  0.4402 -0.4353
   24MOL0     C 3197   7.975   5.522   9.021 -0.4515  0.1011  0.0872
   24MOL0     O 3198   7.880   5.602   8.940 -0.1206  0.2790  0.0000
   24MOL0     C 3199   7.822   5.713   8.985 -0.5557 -1.1159  0.4158
   24MOL0     C 3200   7.839   5.766   9.112  0.0391  0.1846 -0.3739
   24MOL0     C 3201   7.790   5.900   9.135  0.1645  0.3322 -0.1206
   24MOL0     C 3202   7.812   5.952   9.273 -0.3996  0.2645 -0.0409
   24MOL0     C 3203   7.703   5.952   9.033 -0.0728  0.1601 -0.6515
   24MOL0     C 3204   7.647   6.088   9.051  0.4015  0.1865  1.4295
   24MOL0     O 3205   7.510   6.101   9.081  0.1744 -0.2115  0.7289
   24MOL0     C 3206   7.439   6.225   9.082 -0.4849  0.0813 -1.2280
   24MOL0     C 3207   7.311   6.205   9.139 -0.2066 -0.4012 -0.2316
   24MOL0     C 3208   7.223   6.310   9.155 -0.2445  0.0061  0.3181
   24MOL0     C 3209   7.262   6.436   9.105  0.0644 -0.6458  0.3113
   24MOL0     O 3210   7.173   6.539   9.117  0.2855 -0.8187  0.4387
   24MOL0     C 3211   7.051   6.522   9.052  0.3873  0.1688 -0.1699
   24MOL0     C 3212   6.940   6.595   9.129 -0.2955 -0.0117  0.1106
   24MOL0     C 3213   6.968   6.740   9.152 -0.4373 -0.0822 -0.2032
   24MOL0     C 3214   6.851   6.790   9.244  0.6969  0.2765  1.2650
   24MOL0     C 3215   6.897   6.925   9.300 -0.5185  0.1122 -0.1996
   24MOL0     C 3216   6.799   6.983   9.389 -0.3012 -0.3407 -0.5475
   24MOL0     C 3217   6.738   7.118   9.346 -0.1682  1.0631  0.5495
   24MOL0     C 3218   6.635   7.082   9.242 -0.0330 -0.1992  0.3673
   24MOL0    Cl 3219   6.589   7.239   9.182 -0.5569 -0.2139  0.3338
   24MOL0     C 3220   7.390   6.452   9.050  0.8370  0.2144 -0.3292
   24MOL0     C 3221   7.477   6.345   9.038 -0.0218  0.5362  0.3129
   24MOL0     O 3222   7.721   6.180   9.025 -0.1513  0.8807 -0.4596
   24MOL0     C 3223   7.680   5.886   8.907  0.1200 -0.1786 -0.3857
   24MOL0     C 3224   7.744   5.764   8.880 -0.3773 -0.2012  0.4499
   24MOL0     N 3225   8.417   5.260   8.810  0.5284  0.4300  0.3714
   24MOL0     N 3226   8.530   5.284   8.882 -0.6045 -0.9850  1.1120
   24MOL0     C 3227   8.282   5.701   9.654 -0.2331  0.5207  0.0870
   24MOL0     C 3228   8.150   5.727   9.691  0.3981  0.0668 -0.1885
   24MOL0     C 3229   7.767   6.001   9.787 -0.4738  0.7294  0.3976
   24MOL0     C 3230   7.721   5.929   9.897  0.5591 -0.2479  0.3417
   24MOL0     C 3231   7.585   5.934   9.939 -0.3715  0.4779 -0.2220
   24MOL0     C 3232   7.502   6.032   9.891  0.4244 -0.1116 -0.2456
   24MOL0     O 3233   7.378   6.025   9.943  0.4290  0.4642  0.3229
   24MOL0     C 3234   7.364   6.043  10.081 -0.1498  0.2163 -0.1877
   24MOL0     C 3235   7.284   6.183  10.102 -0.2575  0.0056  0.7433
   24MOL0     C 3236   7.235   6.214  10.242 -0.3511 -0.3478  0.5998
   24MOL0     C 3237   7.123   6.125  10.294  0.4652  0.6753  0.4680
   24MOL0     C 3238   7.098   6.150  10.437 -0.6108 -0.5192  0.3437
   24MOL0     C 3239   7.074   6.172  10.554 -0.6309  0.0221  0.2573
   24MOL0     C 3240   7.546   6.119   9.782  0.0562  0.3673  0.0047
   24MOL0     C 3241   7.675   6.104   9.730 -0.2377  1.4347 -0.1028
   24MOL0     C 3242   7.719   6.195   9.619  0.2452  0.2464  0.0013
   24MOL0     H 3243   8.179   6.045   9.794 -1.5951 -0.8576  0.5732
   24MOL0     H 3244   8.410   6.008   9.739  0.8983 -1.2557 -0.4174
   24MOL0     H 3245   8.635   5.886   9.729 -2.9551 -1.9614  2.2500
   24MOL0     H 3246   8.558   5.948   9.577 -1.8350 -2.0850 -1.6605
   24MOL0     H 3247   8.787   5.905   9.506  3.4894 -1.5262 -0.6792
   24MOL0     H 3248   8.792   5.758   9.596 -0.6979 -0.1588 -0.3823
   24MOL0     H 3249   8.622   5.654   9.434  2.5178 -1.5633  0.5265
   24MOL0     H 3250   8.634   5.807   9.337 -0.5909  0.6672  0.5089
   24MOL0     H 3251   8.867   5.767   9.314 -2.7844  1.4267 -0.6648
   24MOL0     H 3252   8.878   5.640   9.436  2.6384 -0.1258 -2.4028
   24MOL0     H 3253   8.751   5.492   9.291  0.2135  0.4633  0.9384
   24MOL0     H 3254   8.913   5.539   9.223  0.0344  0.0274 -3.3089
   24MOL0     H 3255   8.700   5.703   9.099  0.0899 -1.1878 -3.0753
   24MOL0     H 3256   8.877   5.663   9.076  0.9774 -1.3239 -0.7232
   24MOL0     H 3257   8.821   5.439   9.027  0.6847  0.8629  3.2077
   24MOL0     H 3258   8.713   5.540   8.918 -4.7028  1.6452  1.0458
   24MOL0     H 3259   8.625   5.356   9.148 -1.7061 -1.1111 -0.8803
   24MOL0     H 3260   8.556   5.507   9.140  1.1186 -0.5343  0.6691
   24MOL0     H 3261   8.349   5.538   8.991  0.5005 -0.0271 -0.2032
   24MOL0     H 3262   8.177   5.289   8.724 -0.5899  0.3648 -1.6096
   24MOL0     H 3263   8.259   5.440   8.669  1.1918 -0.4264  0.8378
   24MOL0     H 3264   8.168   5.562   8.850 -0.8014 -0.3804  2.4479
   24MOL0     H 3265   8.035   5.512   8.750 -2.0946  4.8056  3.9978
   24MOL0     H 3266   7.962   5.338   8.904  1.3685 -0.5690 -2.3397
   24MOL0     H 3267   8.112   5.358   9.001 -0.1407  0.0965 -0.7293
   24MOL0     H 3268   7.935   5.483   9.115  0.5373 -0.3942  0.3188
   24MOL0     H 3269   8.070   5.576   9.035  1.0906 -2.2422 -0.7644
   24MOL0     H 3270   7.902   5.713   9.183  1.2111  1.8482 -0.1382
   24MOL0     H 3271   7.761   5.899   9.353 -0.7968  0.3896 -0.2094
   24MOL0     H 3272   7.780   6.056   9.284 -2.3759 -0.4443  1.4290
   24MOL0     H 3273   7.918   5.945   9.302 -1.0206  0.9769  2.7714
   24MOL0     H 3274   7.305   6.100   9.164  3.7460 -0.3994  1.4783
   24MOL0     H 3275   7.133   6.288   9.211 -2.0330  0.5085 -2.1685
   24MOL0     H 3276   7.056   6.562   8.951 -0.9139 -0.1646 -0.3843
   24MOL0     H 3277   7.025   6.416   9.040  2.3917 -0.5095  0.9107
   24MOL0     H 3278   6.856   6.585   9.059  0.9350 -3.0037 -1.0764
   24MOL0     H 3279   6.925   6.548   9.227  3.5392  0.3701  1.0407
   24MOL0     H 3280   6.968   6.794   9.057 -0.2783  1.3197  0.5744
   24MOL0     H 3281   7.065   6.757   9.199 -1.3268  2.7772  0.8221
   24MOL0     H 3282   6.830   6.725   9.329 -3.0513  3.5037  3.1354
   24MOL0     H 3283   6.759   6.798   9.186  0.9476 -0.7837  0.7009
   24MOL0     H 3284   6.986   6.920   9.363  0.2460  0.9340 -1.1808
   24MOL0     H 3285   6.929   6.994   9.221 -0.0187  0.1453  0.0273
   24MOL0     H 3286   6.856   7.001   9.481  2.7449 -1.7485 -1.9961
   24MOL0     H 3287   6.716   6.917   9.417 -0.3692 -0.3445 -0.7567
   24MOL0     H 3288   6.816   7.190   9.318 -0.7219  2.3879  2.2194
   24MOL0     H 3289   6.697   7.171   9.433  0.7590 -1.3299  2.5736
   24MOL0     H 3290   6.550   7.029   9.286 -2.6777  1.9927 -1.7182
   24MOL0     H 3291   6.666   7.025   9.154 -2.2605  0.2448 -0.7696
   24MOL0     H 3292   7.413   6.551   9.010 -0.4619  0.2386 -1.0740
   24MOL0     H 3293   7.571   6.368   8.988 -0.1263  0.9487  0.2963
   24MOL0     H 3294   7.616   5.944   8.842 -0.4334  0.8413  1.0283
   24MOL0     H 3295   7.733   5.723   8.779  0.3476  3.7648 -1.4063
   24MOL0     H 3296   8.313   5.611   9.602 -2.1580  0.7428 -1.5576
   24MOL0     H 3297   8.065   5.668   9.658  0.9514 -0.0859 -1.3738
   24MOL0     H 3298   7.789   5.853   9.936  0.8234  0.3962  1.1728
   24MOL0     H 3299   7.548   5.864  10.013 -3.8742  0.1204 -2.0632
   24MOL0     H 3300   7.313   5.968  10.141  1.7096 -0.9802 -0.0300
   24MOL0     H 3301   7.460   6.046  10.133  0.6702 -0.0777 -1.6218
   24MOL0     H 3302   7.191   6.183  10.044 -0.5169 -0.7853  1.1325
   24MOL0     H 3303   7.346   6.258  10.053  0.9871 -2.8780 -2.5234
   24MOL0     H 3304   7.327   6.191  10.298  0.1008  1.1485  0.4987
   24MOL0     H 3305   7.204   6.318  10.246 -4.4802 -1.3531 -0.2098
   24MOL0     H 3306   7.131   6.017  10.273 -2.3393  0.1814  1.4667
   24MOL0     H 3307   7.028   6.161  10.253 -1.1123 -2.2706  1.2553
   24MOL0     H 3308   7.062   6.192  10.659 -0.4472  1.7412 -0.0131
   24MOL0     H 3309   7.470   6.190   9.751 -0.1555 -0.0062 -0.3480
   24MOL0     H 3310   7.729   6.140   9.525 -1.1633 -3.4418  1.8375
   24MOL0     H 3311   7.638   6.266   9.600 -1.2099 -0.7969  1.9495
   24MOL0     H 3312   7.812   6.242   9.652  1.1658 -0.4344 -1.4956
   25MOL0     O 3313   3.732   7.740   8.710 -0.0297 -0.5345  0.6948
   25MOL0     C 3314   3.634   7.742   8.780  0.8332  0.4589  0.2741
   25MOL0     O 3315   3.631   7.801   8.909  0.3361  0.0452 -0.0511
   25MOL0     C 3316   3.737   7.871   8.961 -0.0365  0.2012  0.4326
   25MOL0     C 3317   3.718   7.998   9.035  0.8212  0.4259  0.8385
   25MOL0     C 3318   3.835   8.046   9.080 -0.2868 -0.4946 -0.0660
   25MOL0     C 3319   3.960   7.985   9.086  0.0660  0.1161  1.1733
   25MOL0     O 3320   4.069   8.062   9.121  0.3671 -0.4392  0.0332
   25MOL0     C 3321   4.120   8.017   9.241 -0.2821  0.5601 -0.4781
   25MOL0     C 3322   4.068   8.110   9.355 -0.6702  0.6924  0.4174
   25MOL0     C 3323   4.131   8.246   9.353  0.5758 -0.2905  0.4482
   25MOL0     C 3324   4.271   8.267   9.414 -0.4218 -0.5626 -0.5994
   25MOL0     C 3325   4.284   8.249   9.560  0.5498  0.3780 -0.7365
   25MOL0     C 3326   4.262   8.378   9.637 -0.4407  0.3657 -0.2171
   25MOL0     C 3327   4.320   8.388   9.779 -0.3944 -0.5621 -0.2871
   25MOL0     C 3328   4.283   8.523   9.853  0.4183 -0.9091 -0.3870
   25MOL0     N 3329   4.380   8.558   9.957 -1.0417 -0.2398 -0.5402
   25MOL0     C 3330   4.349   8.600  10.086  0.8933 -0.0669  0.5732
   25MOL0     C 3331   4.462   8.615  10.152  0.6180  0.4566 -0.9596
   25MOL0     C 3332   4.463   8.675  10.287  0.0048  0.1161 -0.5741
   25MOL0     C 3333   4.534   8.814  10.309  0.2855 -0.2482 -0.2021
   25MOL0     C 3334   4.671   8.832  10.233 -0.4527  0.0239  0.2978
   25MOL0     C 3335   4.752   8.949  10.295 -0.7930  0.3021 -0.4514
   25MOL0     O 3336   4.791   8.919  10.430  0.7352  1.2466 -0.6232
   25MOL0     C 3337   4.888   8.999  10.488  0.7548  0.3258  0.7131
   25MOL0     C 3338   4.960   9.097  10.435 -0.1916 -0.4590  1.8365
   25MOL0     C 3339   5.055   9.177  10.508 -0.3202  0.2934 -0.4321
   25MOL0     C 3340   5.129   9.287  10.441 -1.0451 -1.0934 -0.4015
   25MOL0     C 3341   5.082   9.144  10.641  0.3447 -0.3778 -0.3933
   25MOL0     C 3342   5.172   9.217  10.730  0.2375  0.0065  0.5901
   25MOL0     O 3343   5.117   9.262  10.849 -0.2870  0.3926 -0.4459
   25MOL0     C 3344   5.177   9.299  10.968  0.2382  0.5287 -0.0682
   25MOL0     C 3345   5.318   9.323  10.994 -0.5179  0.1958 -0.2642
   25MOL0     C 3346   5.362   9.376  11.118 -0.3460  0.0743  0.1084
   25MOL0     C 3347   5.277   9.400  11.219 -0.0666 -0.5404 -0.5286
   25MOL0     O 3348   5.325   9.429  11.344 -0.0943  0.2666 -0.0257
   25MOL0     C 3349   5.463   9.401  11.377  0.1408 -0.9653 -0.2937
   25MOL0     C 3350   5.477   9.435  11.528 -0.2019 -0.0084  0.5656
   25MOL0     C 3351   5.613   9.410  11.579 -0.3478  0.5170  0.1110
   25MOL0     C 3352   5.621   9.439  11.738 -0.1374  1.0438  1.5937
   25MOL0     C 3353   5.747   9.378  11.796 -0.7412 -0.1331 -0.6362
   25MOL0     C 3354   5.753   9.423  11.944 -0.4170 -0.0093 -0.0872
   25MOL0     C 3355   5.892   9.383  12.005  0.4737 -0.4435  0.6774
   25MOL0     C 3356   5.920   9.229  12.017 -0.6112 -0.1393  0.7642
   25MOL0    Cl 3357   6.096   9.200  12.020  0.1154 -0.2604  0.4806
   25MOL0     C 3358   5.140   9.379  11.198 -0.1298 -0.2457  0.1769
   25MOL0     C 3359   5.089   9.336  11.072  0.4192  0.3637 -0.8377
   25MOL0     O 3360   5.290   9.222  10.699 -0.1830  0.4148 -0.3542
   25MOL0     C 3361   5.020   9.027  10.691 -0.8661  0.2890  1.0636
   25MOL0     C 3362   4.918   8.963  10.620  0.3946 -0.7598 -0.0428
   25MOL0     N 3363   4.560   8.612  10.060 -0.0015 -0.1996  0.6488
   25MOL0     N 3364   4.510   8.581   9.946  0.4976 -0.7184  0.4606
   25MOL0     C 3365   3.969   7.859   9.023 -0.8377 -0.5294  0.2006
   25MOL0     C 3366   3.857   7.808   8.969  0.1798  0.9479  1.0988
   25MOL0     C 3367   3.516   7.660   8.747  0.6883 -0.2579 -0.0375
   25MOL0     C 3368   3.428   7.605   8.850 -0.2369 -0.0936  0.7272
   25MOL0     C 3369   3.318   7.521   8.806 -0.8224  1.7947 -0.0120
   25MOL0     C 3370   3.301   7.492   8.672  0.1510  1.1513  0.0990
   25MOL0     O 3371   3.201   7.410   8.624 -0.8923  0.0173 -0.1859
   25MOL0     C 3372   3.118   7.334   8.708  0.5629 -0.0935  0.1109
   25MOL0     C 3373   3.080   7.194   8.656 -0.6913  0.2769 -0.4555
   25MOL0     C 3374   3.017   7.182   8.522 -0.3600  0.0541  0.1692
   25MOL0     C 3375   2.867   7.199   8.514 -0.7026 -0.5011 -0.0613
   25MOL0     C 3376   2.801   7.076   8.548 -0.7295  0.7237 -0.0218
   25MOL0     C 3377   2.732   6.977   8.566  0.6212  0.0905 -0.3246
   25MOL0     C 3378   3.379   7.558   8.583  0.6698 -0.1354 -0.1278
   25MOL0     C 3379   3.485   7.639   8.612  0.1357  0.5559  0.0145
   25MOL0     C 3380   3.550   7.704   8.484 -0.0102  0.0716 -0.4077
   25MOL0     H 3381   3.638   8.071   9.027  1.0039  0.9119  2.9685
   25MOL0     H 3382   3.830   8.145   9.123  2.9353  1.3166 -3.3013
   25MOL0     H 3383   4.229   8.023   9.235  0.1566 -4.0071 -1.0567
   25MOL0     H 3384   4.105   7.909   9.256  2.4411  0.4206  2.3918
   25MOL0     H 3385   3.968   8.129   9.314 -0.2040  2.3888 -0.0504
   25MOL0     H 3386   4.069   8.065   9.454  2.3204 -0.4040  0.0016
   25MOL0     H 3387   4.145   8.269   9.247 -1.4175  1.9097  0.5802
   25MOL0     H 3388   4.068   8.328   9.388  3.0697  2.1942 -0.5070
   25MOL0     H 3389   4.342   8.204   9.359  0.4626 -1.1849  1.1848
   25MOL0     H 3390   4.299   8.372   9.400  1.5958 -0.9182  0.4749
   25MOL0     H 3391   4.387   8.215   9.573  0.0825 -0.5263  0.9953
   25MOL0     H 3392   4.228   8.163   9.599 -0.5014  0.5546 -1.8076
   25MOL0     H 3393   4.305   8.459   9.577 -2.7941  0.9253 -1.2570
   25MOL0     H 3394   4.154   8.399   9.638 -0.5073  0.0667  1.7219
   25MOL0     H 3395   4.429   8.376   9.776 -0.4606 -1.9351  1.1430
   25MOL0     H 3396   4.287   8.302   9.838  1.7712 -2.0349 -1.1081
   25MOL0     H 3397   4.286   8.609   9.785  1.2558 -0.6564 -0.0497
   25MOL0     H 3398   4.182   8.517   9.894  1.7293  0.1428  3.4191
   25MOL0     H 3399   4.248   8.615  10.123  0.4863  1.1276 -0.9099
   25MOL0     H 3400   4.522   8.598  10.337 -1.8789 -2.4240 -2.0266
   25MOL0     H 3401   4.361   8.676  10.326  1.3116  0.3427  3.3260
   25MOL0     H 3402   4.469   8.891  10.266 -0.8805  0.1821  2.1900
   25MOL0     H 3403   4.555   8.830  10.415  0.9626  0.2615 -0.3998
   25MOL0     H 3404   4.738   8.746  10.232  1.7075  1.5812 -2.0464
   25MOL0     H 3405   4.649   8.851  10.127 -2.2259  2.1623  0.9465
   25MOL0     H 3406   4.838   8.981  10.236  0.8050  1.1261  2.1625
   25MOL0     H 3407   4.684   9.035  10.298  1.5457  2.2273  0.7639
   25MOL0     H 3408   4.956   9.115  10.328 -0.0761  3.0447  2.2960
   25MOL0     H 3409   5.073   9.341  10.365  2.0258 -1.1921 -2.9348
   25MOL0     H 3410   5.212   9.243  10.385  0.3842  0.6357  0.2555
   25MOL0     H 3411   5.160   9.356  10.521  0.3172  0.6488 -2.3245
   25MOL0     H 3412   5.389   9.298  10.916 -1.8929 -1.0996 -1.1627
   25MOL0     H 3413   5.468   9.389  11.135 -0.1155 -1.4411 -0.0856
   25MOL0     H 3414   5.506   9.303  11.357  2.6715  0.2376 -1.2692
   25MOL0     H 3415   5.515   9.475  11.315 -2.9016  2.7923  1.1923
   25MOL0     H 3416   5.459   9.542  11.540 -2.6505 -0.3093  0.1260
   25MOL0     H 3417   5.419   9.376  11.600  0.6481  1.3340  2.4316
   25MOL0     H 3418   5.691   9.471  11.533  1.4731 -2.7051 -1.4183
   25MOL0     H 3419   5.629   9.304  11.560  1.0177  0.6840  0.2421
   25MOL0     H 3420   5.543   9.395  11.801 -0.2757  2.8553  2.7688
   25MOL0     H 3421   5.611   9.547  11.753  3.9766  1.5795  1.4311
   25MOL0     H 3422   5.745   9.269  11.792 -0.7111 -0.1203 -1.0454
   25MOL0     H 3423   5.838   9.423  11.753 -2.0665  1.5446 -1.8268
   25MOL0     H 3424   5.674   9.369  11.997  0.2804 -1.6691 -0.6788
   25MOL0     H 3425   5.728   9.529  11.948 -2.2493 -0.3919 -0.3627
   25MOL0     H 3426   5.889   9.417  12.109 -0.1235 -1.8418  1.1296
   25MOL0     H 3427   5.974   9.425  11.946  0.3163 -1.9906 -0.6935
   25MOL0     H 3428   5.879   9.164  11.939  0.6109  0.9609 -0.8576
   25MOL0     H 3429   5.885   9.207  12.119 -1.8265  0.5159  0.5103
   25MOL0     H 3430   5.066   9.389  11.277  0.8907 -2.2292  1.4819
   25MOL0     H 3431   4.983   9.315  11.058  0.7181 -2.5111  0.5104
   25MOL0     H 3432   5.020   8.989  10.793 -3.1962 -2.6602  0.1229
   25MOL0     H 3433   4.862   8.883  10.666  0.2421 -1.2880 -1.1243
   25MOL0     H 3434   4.062   7.808   9.000 -0.1148  1.3337 -1.2984
   25MOL0     H 3435   3.869   7.706   8.934 -3.1552  1.6401 -2.7680
   25MOL0     H 3436   3.447   7.619   8.955 -1.3865  2.2758  0.6648
   25MOL0     H 3437   3.248   7.491   8.883 -0.5414  0.5771 -0.1953
   25MOL0     H 3438   3.166   7.316   8.804  2.3215 -0.5908 -0.8091
   25MOL0     H 3439   3.019   7.379   8.715  0.6220  0.2886 -1.1566
   25MOL0     H 3440   3.022   7.137   8.729  1.0815  0.5884  1.2968
   25MOL0     H 3441   3.177   7.143   8.654 -0.9239 -0.2583  0.6557
   25MOL0     H 3442   3.072   7.261   8.468 -2.1391  1.5301  0.4166
   25MOL0     H 3443   3.051   7.084   8.487 -0.5586 -0.3442  1.0843
   25MOL0     H 3444   2.848   7.238   8.413 -4.8920 -0.6927  0.4597
   25MOL0     H 3445   2.848   7.279   8.585 -2.1403  0.6792 -1.6727
   25MOL0     H 3446   2.660   6.902   8.595  0.6398  0.7477  1.5655
   25MOL0     H 3447   3.372   7.519   8.482 -2.5448 -2.8056  0.9705
   25MOL0     H 3448   3.605   7.796   8.504 -1.4099  2.0114 -4.5226
   25MOL0     H 3449   3.605   7.624   8.432 -1.8582 -1.0487 -0.7242
   25MOL0     H 3450   3.468   7.738   8.422  0.7407 -0.9239 -2.0282
   26MOL0     O 3451   9.647   9.442   5.644 -0.4709 -0.4575  0.3998
   26MOL0     C 3452   9.635   9.566   5.629 -1.2280  0.1760 -0.2677
   26MOL0     O 3453   9.581   9.647   5.718 -0.3771 -0.5115  0.7263
   26MOL0     C 3454   9.590   9.610   5.849  0.3466 -0.4428  0.1228
   26MOL0     C 3455   9.629   9.710   5.932 -0.6365  0.4467 -0.4889
   26MOL0     C 3456   9.653   9.691   6.067 -0.4590  0.0187 -0.6579
   26MOL0     C 3457   9.619   9.570   6.135  0.1223 -0.5662  0.9320
   26MOL0     O 3458   9.651   9.572   6.270  0.7389 -0.7392 -0.2708
   26MOL0     C 3459   9.709   9.448   6.326 -0.0572 -1.0183 -0.6343
   26MOL0     C 3460   9.846   9.421   6.261  0.6755  0.2750 -0.1119
   26MOL0     C 3461   9.947   9.539   6.247 -0.5283  0.6611 -0.5836
   26MOL0     C 3462  10.100   9.515   6.207  0.7524  0.5610  0.5013
   26MOL0     C 3463  10.171   9.653   6.192 -0.0044  1.0131 -0.5533
   26MOL0     C 3464  10.299   9.651   6.104 -0.9406 -0.2336  0.2413
   26MOL0     C 3465  10.350   9.781   6.059  0.6014  0.3463  0.3696
   26MOL0     C 3466  10.504   9.773   6.016 -0.0739 -0.1265 -0.0334
   26MOL0     N 3467  10.522   9.717   5.878 -0.1191 -0.0837 -0.5223
   26MOL0     C 3468  10.460   9.764   5.760 -0.4199  0.9475 -0.4176
   26MOL0     C 3469  10.500   9.674   5.661  0.0040 -0.4440 -0.5426
   26MOL0     C 3470  10.454   9.688   5.513  0.0211 -0.9267 -0.3925
   26MOL0     C 3471  10.355   9.579   5.461 -0.6819  0.2326 -0.7141
   26MOL0     C 3472  10.252   9.557   5.579 -0.1926 -0.6852  0.6657
   26MOL0     C 3473  10.128   9.638   5.581 -0.4997 -0.0180  0.6819
   26MOL0     O 3474  10.160   9.760   5.644 -0.6485 -0.1806  0.2661
   26MOL0     C 3475  10.052   9.852   5.654  1.2025  0.1853 -0.1630
   26MOL0     C 3476   9.986   9.873   5.779  0.2010  0.6641 -0.2722
   26MOL0     C 3477   9.880   9.952   5.797  0.1713  0.1340  0.2709
   26MOL0     C 3478   9.843   9.976   5.936  0.4206 -0.1126  0.7849
   26MOL0     C 3479   9.823  10.021   5.680 -0.5732  0.2171 -0.3584
   26MOL0     C 3480   9.716  10.124   5.692  0.7043  0.3023  0.0049
   26MOL0     O 3481   9.704  10.218   5.595  0.1674 -0.2821  0.4175
   26MOL0     C 3482   9.590  10.298   5.607 -0.2873 -0.0215 -0.3284
   26MOL0     C 3483   9.585  10.425   5.662  0.4502 -0.1826 -1.0604
   26MOL0     C 3484   9.463  10.493   5.683 -0.4980  0.2454 -0.1514
   26MOL0     C 3485   9.343  10.431   5.641 -0.0443  0.5492  0.0214
   26MOL0     O 3486   9.214  10.490   5.663  0.2782  0.1565 -0.1234
   26MOL0     C 3487   9.209  10.603   5.739  0.1558  1.1418 -0.6837
   26MOL0     C 3488   9.070  10.605   5.816  0.1544 -0.0151  1.1135
   26MOL0     C 3489   9.041  10.752   5.868  0.9243 -0.2187 -0.7067
   26MOL0     C 3490   8.923  10.762   5.963 -0.7110 -0.6535 -0.4188
   26MOL0     C 3491   8.888  10.899   6.019  1.2005  0.3254 -0.1351
   26MOL0     C 3492   8.882  11.015   5.919 -0.5676 -0.1894  0.4056
   26MOL0     C 3493   8.857  11.131   6.012 -0.0580  0.5963  0.5644
   26MOL0     C 3494   8.847  11.258   5.935 -0.4317 -0.5721  0.0466
   26MOL0    Cl 3495   8.682  11.249   5.862  0.2984  0.7924 -0.2783
   26MOL0     C 3496   9.349  10.306   5.586 -0.2413 -0.2110  0.3407
   26MOL0     C 3497   9.471  10.246   5.574  0.7162  0.1882  0.3077
   26MOL0     O 3498   9.634  10.120   5.786 -0.1542  0.0501 -0.7996
   26MOL0     C 3499   9.888   9.992   5.554  0.4683 -0.0093 -0.0505
   26MOL0     C 3500   9.997   9.907   5.544 -0.2156  0.4891 -0.6282
   26MOL0     N 3501  10.597   9.591   5.717  1.1071  0.0458  0.1323
   26MOL0     N 3502  10.602   9.620   5.834  0.2627  0.5948  0.1919
   26MOL0     C 3503   9.570   9.469   6.048 -0.3707 -1.2848 -0.5552
   26MOL0     C 3504   9.551   9.492   5.911  1.5623  0.3278 -0.4629
   26MOL0     C 3505   9.711   9.622   5.508  0.1371  0.5827 -0.1584
   26MOL0     C 3506   9.828   9.551   5.466 -0.3794  1.0186  0.5889
   26MOL0     C 3507   9.892   9.586   5.352  0.5925 -1.5191 -0.0560
   26MOL0     C 3508   9.855   9.697   5.278 -0.8893  0.4136  0.3561
   26MOL0     O 3509   9.942   9.724   5.177 -1.0221  0.5677  0.5810
   26MOL0     C 3510   9.908   9.824   5.081 -0.4066 -1.0158  0.9635
   26MOL0     C 3511  10.007   9.823   4.968 -0.3709 -0.4907 -0.2773
   26MOL0     C 3512   9.946   9.891   4.838 -0.1382  0.5814 -0.4274
   26MOL0     C 3513  10.059   9.911   4.733 -0.2083  0.4625 -0.4173
   26MOL0     C 3514  10.005   9.941   4.596  0.4112  0.1567  0.5021
   26MOL0     C 3515   9.959   9.966   4.486  0.0742  0.3670 -0.0557
   26MOL0     C 3516   9.742   9.774   5.322  0.2043 -0.0623  0.3113
   26MOL0     C 3517   9.670   9.741   5.442 -0.0442 -0.1671  0.7553
   26MOL0     C 3518   9.552   9.837   5.482  0.0441  0.9330 -0.2449
   26MOL0     H 3519   9.657   9.804   5.884 -1.2914  1.8748  1.7818
   26MOL0     H 3520   9.690   9.776   6.123 -0.0594  0.7187 -1.9436
   26MOL0     H 3521   9.648   9.363   6.294 -0.7969  0.3852 -3.2934
   26MOL0     H 3522   9.705   9.453   6.435  1.0560 -4.0632 -0.3654
   26MOL0     H 3523   9.886   9.342   6.325 -1.5584 -1.2597 -0.5081
   26MOL0     H 3524   9.822   9.382   6.162  0.2524 -0.3192  0.2232
   26MOL0     H 3525   9.894   9.603   6.175 -3.6007  0.3118  1.1846
   26MOL0     H 3526   9.953   9.604   6.335  0.8414 -1.3359  0.8692
   26MOL0     H 3527  10.157   9.458   6.280  2.1761 -0.7905 -1.5823
   26MOL0     H 3528  10.092   9.464   6.111  3.4877 -2.4062  1.6919
   26MOL0     H 3529  10.190   9.688   6.294  0.6089 -0.8964  0.0456
   26MOL0     H 3530  10.103   9.722   6.142  1.5835  1.4273 -2.2503
   26MOL0     H 3531  10.385   9.597   6.144  0.2956  1.3989 -0.1164
   26MOL0     H 3532  10.278   9.598   6.011  0.1960 -1.8377  0.8567
   26MOL0     H 3533  10.352   9.844   6.149  1.9744 -1.5269  1.7238
   26MOL0     H 3534  10.278   9.824   5.989 -0.9623 -2.3732  0.1529
   26MOL0     H 3535  10.536   9.877   6.014  1.2654 -0.5212 -2.0656
   26MOL0     H 3536  10.566   9.719   6.088 -3.6724 -1.7298  2.1649
   26MOL0     H 3537  10.394   9.850   5.757 -0.2188  1.1752  0.9522
   26MOL0     H 3538  10.539   9.696   5.444 -0.7781  2.2933 -1.1922
   26MOL0     H 3539  10.401   9.784   5.505  0.7763 -0.4043  0.5525
   26MOL0     H 3540  10.321   9.596   5.359 -2.8658 -1.9336 -0.4442
   26MOL0     H 3541  10.418   9.490   5.455  1.2487  1.6515 -3.3408
   26MOL0     H 3542  10.212   9.455   5.576  0.3352 -0.8821  0.2037
   26MOL0     H 3543  10.294   9.561   5.680 -0.5354  2.9144  0.8119
   26MOL0     H 3544  10.085   9.667   5.484 -0.6022  1.3384  1.1147
   26MOL0     H 3545  10.057   9.577   5.637  0.4268 -0.9774  0.8301
   26MOL0     H 3546  10.033   9.829   5.867 -1.1125 -2.7324 -1.1091
   26MOL0     H 3547   9.734   9.973   5.942  0.4396  0.5009  1.5824
   26MOL0     H 3548   9.889  10.070   5.967 -0.2632  0.1757  0.9556
   26MOL0     H 3549   9.901   9.897   5.986  2.7511 -0.6617 -2.4455
   26MOL0     H 3550   9.674  10.471   5.703  0.4485 -1.2779  0.2492
   26MOL0     H 3551   9.464  10.597   5.713 -1.7790  1.2187 -3.1445
   26MOL0     H 3552   9.278  10.614   5.823  0.0799  1.3847 -0.6502
   26MOL0     H 3553   9.227  10.694   5.681 -1.7681  2.2568  0.3643
   26MOL0     H 3554   8.986  10.573   5.754 -0.6023 -0.4455  2.3351
   26MOL0     H 3555   9.057  10.543   5.905 -1.4067 -3.9595 -1.5651
   26MOL0     H 3556   9.021  10.826   5.790  1.4050  1.9431  1.1294
   26MOL0     H 3557   9.111  10.798   5.938 -1.7495  1.9040  0.7350
   26MOL0     H 3558   8.922  10.700   6.053 -3.4022 -0.2901 -0.1105
   26MOL0     H 3559   8.842  10.719   5.902 -0.3106 -1.5118 -0.3703
   26MOL0     H 3560   8.793  10.888   6.071 -0.1373 -0.8197 -2.6488
   26MOL0     H 3561   8.971  10.924   6.086  1.3375 -2.3565  0.8142
   26MOL0     H 3562   8.801  11.021   5.845  0.0721  2.9954 -0.1969
   26MOL0     H 3563   8.976  11.025   5.864  0.1241  0.2501  1.6548
   26MOL0     H 3564   8.935  11.142   6.088 -1.3729  0.6059  1.9584
   26MOL0     H 3565   8.762  11.105   6.059 -1.4230 -1.1286 -2.8055
   26MOL0     H 3566   8.919  11.282   5.856 -2.7422  2.6967 -1.2996
   26MOL0     H 3567   8.860  11.338   6.009  2.4443  0.8544 -1.8103
   26MOL0     H 3568   9.258  10.254   5.561 -1.5612  0.9138  2.4554
   26MOL0     H 3569   9.480  10.142   5.543  1.6208  0.4372 -0.2920
   26MOL0     H 3570   9.843  10.037   5.466 -0.4455 -1.3159 -0.2820
   26MOL0     H 3571  10.039   9.894   5.445 -3.0578 -4.4573 -1.5303
   26MOL0     H 3572   9.551   9.375   6.099 -0.6282 -0.5265  0.8065
   26MOL0     H 3573   9.528   9.407   5.848  1.1199 -0.8288  1.2187
   26MOL0     H 3574   9.858   9.464   5.523 -1.9279 -1.6382 -2.3484
   26MOL0     H 3575   9.984   9.538   5.321  2.0339  2.0024 -1.7564
   26MOL0     H 3576   9.807   9.808   5.043 -0.3127 -1.1639  0.7690
   26MOL0     H 3577   9.919   9.925   5.122  5.5334 -0.3234 -1.2566
   26MOL0     H 3578  10.027   9.718   4.943 -3.8944 -1.0730 -1.2138
   26MOL0     H 3579  10.092   9.870   5.017 -1.0263  0.9419 -0.4694
   26MOL0     H 3580   9.863   9.833   4.796 -0.1609  1.3884 -1.5518
   26MOL0     H 3581   9.916   9.988   4.878  2.1697  0.9189  0.6104
   26MOL0     H 3582  10.113   9.817   4.721 -0.7386  0.2908 -1.5439
   26MOL0     H 3583  10.131   9.992   4.749 -0.9021  1.1450 -0.6871
   26MOL0     H 3584   9.922  10.019   4.401 -2.5601  2.0025  1.9480
   26MOL0     H 3585   9.703   9.852   5.258  0.8158  1.3865  1.6270
   26MOL0     H 3586   9.463   9.775   5.493  0.3588  0.5316  0.0816
   26MOL0     H 3587   9.569   9.877   5.582  0.7820  1.0887 -0.4260
   26MOL0     H 3588   9.529   9.909   5.403 -2.0979  1.4684  0.7993
   27MOL0     O 3589   1.795   3.558   2.476  0.3615  0.9759  0.0469
   27MOL0     C 3590   1.903   3.585   2.425 -0.1306 -0.1899  0.8047
   27MOL0     O 3591   1.922   3.606   2.291 -0.6159  0.1998  1.0943
   27MOL0     C 3592   1.815   3.599   2.202  0.3362  0.5923  0.1374
   27MOL0     C 3593   1.713   3.698   2.210 -0.6339 -0.6502 -0.7619
   27MOL0     C 3594   1.631   3.715   2.102  0.3990 -0.6083  0.0555
   27MOL0     C 3595   1.641   3.636   1.986  0.3185  0.1043  0.0191
   27MOL0     O 3596   1.529   3.647   1.903 -0.4175  0.3507  0.0777
   27MOL0     C 3597   1.451   3.527   1.898 -0.7305  0.8624 -0.6753
   27MOL0     C 3598   1.308   3.553   1.849 -0.9635  0.5235 -0.2088
   27MOL0     C 3599   1.300   3.568   1.692  0.1848  0.7003 -1.2172
   27MOL0     C 3600   1.155   3.610   1.667 -1.0904  0.1917 -0.8755
   27MOL0     C 3601   1.159   3.630   1.515  0.5197  0.4664 -0.5064
   27MOL0     C 3602   1.221   3.772   1.481 -0.1288  1.1359  0.1683
   27MOL0     C 3603   1.214   3.789   1.326  0.7927  0.5262  1.0603
   27MOL0     C 3604   1.290   3.915   1.290 -1.0049 -0.8693  0.1168
   27MOL0     N 3605   1.220   4.048   1.308  0.1114 -0.1942 -0.3442
   27MOL0     C 3606   1.114   4.082   1.231  1.0973 -0.1113  0.3625
   27MOL0     C 3607   1.070   4.197   1.288  0.3809  0.2955  1.3753
   27MOL0     C 3608   0.943   4.267   1.245  0.1985 -0.1831  0.3080
   27MOL0     C 3609   0.855   4.299   1.376 -0.1041  0.0058  0.2098
   27MOL0     C 3610   0.716   4.333   1.353  0.0982 -0.3019 -0.3384
   27MOL0     C 3611   0.694   4.458   1.258 -0.2560  0.2870 -0.6477
   27MOL0     O 3612   0.556   4.483   1.237  0.1486  0.7766  0.0368
   27MOL0     C 3613   0.485   4.573   1.314 -0.2651 -0.2604  0.1331
   27MOL0     C 3614   0.497   4.592   1.448 -0.3635  1.0890  0.3014
   27MOL0     C 3615   0.416   4.680   1.520  0.1097 -0.9001  0.2825
   27MOL0     C 3616   0.441   4.698   1.669 -0.0292  0.4103 -0.4351
   27MOL0     C 3617   0.321   4.761   1.454  0.2800 -0.2477 -0.4616
   27MOL0     C 3618   0.231   4.861   1.515 -0.2283 -0.1601  0.4605
   27MOL0     O 3619   0.156   4.828   1.620 -0.0149 -0.8092 -0.2625
   27MOL0     C 3620   0.051   4.898   1.658 -0.2960 -0.8683 -0.8517
   27MOL0     C 3621   0.039   4.972   1.774 -0.0088  0.2524  0.2270
   27MOL0     C 3622  -0.068   5.064   1.794  0.7542  0.4843 -0.0156
   27MOL0     C 3623  -0.181   5.057   1.710 -0.8691  0.2377  0.6706
   27MOL0     O 3624  -0.290   5.139   1.731 -0.0795  0.6601  0.3359
   27MOL0     C 3625  -0.360   5.090   1.861  0.3749 -0.9805  0.6792
   27MOL0     C 3626  -0.446   5.210   1.897  0.2776 -1.1038 -0.0928
   27MOL0     C 3627  -0.585   5.221   1.840  0.0770  0.0783 -0.1097
   27MOL0     C 3628  -0.685   5.123   1.891  0.0055 -0.0572 -0.0071
   27MOL0     C 3629  -0.826   5.146   1.853 -0.1779  0.1061  0.7603
   27MOL0     C 3630  -0.873   5.289   1.877 -0.0503 -0.3256 -0.0492
   27MOL0     C 3631  -0.861   5.340   2.022  0.3778  0.4557  0.0236
   27MOL0     C 3632  -0.947   5.257   2.117  0.6595  0.4690 -0.0613
   27MOL0    Cl 3633  -0.993   5.348   2.273 -0.2071 -0.2948  0.3840
   27MOL0     C 3634  -0.174   4.980   1.588  0.1615  0.0559  0.2215
   27MOL0     C 3635  -0.061   4.896   1.570 -1.3793  0.1693  0.2534
   27MOL0     O 3636   0.222   4.973   1.461 -0.2267  0.2198  0.0451
   27MOL0     C 3637   0.315   4.746   1.314 -0.5895 -0.0706 -1.4745
   27MOL0     C 3638   0.389   4.648   1.241 -0.3183  0.6907  0.2564
   27MOL0     N 3639   1.166   4.241   1.382 -0.3105 -0.0317  0.6057
   27MOL0     N 3640   1.251   4.149   1.400  0.4520  0.2833 -0.3917
   27MOL0     C 3641   1.731   3.536   1.985  0.0754  0.3520  0.5437
   27MOL0     C 3642   1.826   3.522   2.085 -0.2536 -0.0105  0.0074
   27MOL0     C 3643   2.014   3.627   2.518 -0.1382  0.2207  0.0771
   27MOL0     C 3644   2.127   3.704   2.471 -0.2256 -0.2026 -0.2389
   27MOL0     C 3645   2.234   3.732   2.556  0.1526  0.0669 -1.0349
   27MOL0     C 3646   2.249   3.691   2.686  0.7530 -0.2085  0.7374
   27MOL0     O 3647   2.361   3.724   2.756 -0.0174 -0.1558  0.8193
   27MOL0     C 3648   2.352   3.751   2.899 -0.2567  0.0940 -0.1304
   27MOL0     C 3649   2.445   3.655   2.967 -0.1285  0.3188  0.3254
   27MOL0     C 3650   2.384   3.518   2.974 -0.8809  0.7403  0.0365
   27MOL0     C 3651   2.490   3.430   3.033 -0.2134  0.1959  1.0034
   27MOL0     C 3652   2.430   3.301   3.048  0.5944  0.8252 -0.6193
   27MOL0     C 3653   2.387   3.192   3.080 -0.1196 -0.6496  0.0216
   27MOL0     C 3654   2.137   3.624   2.738  0.8286  0.0326 -0.3692
   27MOL0     C 3655   2.023   3.591   2.658 -0.6442  0.5652 -0.2422
   27MOL0     C 3656   1.929   3.496   2.726  0.6618  0.2209  0.0380
   27MOL0     H 3657   1.718   3.774   2.288 -0.6698 -1.2972 -0.1176
   27MOL0     H 3658   1.564   3.801   2.101 -0.3287 -1.1137 -2.8561
   27MOL0     H 3659   1.450   3.488   2.000 -1.9674 -1.0389 -1.3614
   27MOL0     H 3660   1.500   3.456   1.831  3.0452  1.0218  1.6801
   27MOL0     H 3661   1.246   3.470   1.886 -1.1532  0.8695  0.2565
   27MOL0     H 3662   1.267   3.641   1.900 -1.9996 -0.2998  0.4218
   27MOL0     H 3663   1.372   3.646   1.666  0.2265  1.0327 -0.1784
   27MOL0     H 3664   1.323   3.474   1.641 -2.4236 -0.3514 -0.5946
   27MOL0     H 3665   1.092   3.529   1.706  1.2521 -1.4480 -0.2210
   27MOL0     H 3666   1.134   3.700   1.725  2.8944 -1.5313  3.9948
   27MOL0     H 3667   1.060   3.622   1.468  1.6892  1.4624 -3.3370
   27MOL0     H 3668   1.223   3.555   1.468 -0.9837 -0.4453 -1.1637
   27MOL0     H 3669   1.190   3.867   1.527  1.9643  3.0114 -2.0157
   27MOL0     H 3670   1.326   3.760   1.509  0.3684  4.8386  0.3732
   27MOL0     H 3671   1.106   3.798   1.313  0.8756 -0.5718 -0.6956
   27MOL0     H 3672   1.237   3.701   1.266 -0.5760 -0.4412  1.8943
   27MOL0     H 3673   1.382   3.929   1.347 -1.4830 -1.2685  1.0152
   27MOL0     H 3674   1.321   3.923   1.186 -1.3710  1.0644  0.1149
   27MOL0     H 3675   1.073   4.031   1.145 -0.5605 -2.0564  2.2107
   27MOL0     H 3676   0.889   4.209   1.169  2.2372  0.3583 -1.6599
   27MOL0     H 3677   0.967   4.363   1.200  2.6148  0.1841  2.1915
   27MOL0     H 3678   0.867   4.218   1.449  1.2692  2.8471  3.3757
   27MOL0     H 3679   0.909   4.381   1.423  2.7806 -0.3093 -2.2528
   27MOL0     H 3680   0.652   4.250   1.320 -2.7560  2.3171 -1.9695
   27MOL0     H 3681   0.679   4.368   1.450  1.0147 -0.5535  0.1099
   27MOL0     H 3682   0.730   4.545   1.313 -2.0387 -0.4558  1.8604
   27MOL0     H 3683   0.755   4.454   1.167  0.8544 -0.0903  0.0852
   27MOL0     H 3684   0.588   4.555   1.493 -0.0599  1.9766  0.4408
   27MOL0     H 3685   0.542   4.666   1.695 -0.7594 -0.3050  1.7150
   27MOL0     H 3686   0.359   4.656   1.728 -1.9551  3.7131 -0.5108
   27MOL0     H 3687   0.432   4.803   1.697  1.7462  0.6159 -0.5004
   27MOL0     H 3688   0.108   4.963   1.858  1.5308 -1.6320 -1.1433
   27MOL0     H 3689  -0.068   5.118   1.888  2.9697 -0.5958  0.6687
   27MOL0     H 3690  -0.417   5.001   1.835  0.4187 -0.4506 -1.3732
   27MOL0     H 3691  -0.291   5.071   1.944  0.6697 -1.1427  0.3984
   27MOL0     H 3692  -0.453   5.211   2.006  0.6963  4.3895  0.1358
   27MOL0     H 3693  -0.395   5.303   1.872  0.9923 -1.1369  1.1610
   27MOL0     H 3694  -0.584   5.223   1.730 -0.4537 -2.1011 -0.2034
   27MOL0     H 3695  -0.626   5.317   1.871 -2.9932 -1.0195 -0.4659
   27MOL0     H 3696  -0.685   5.125   2.000 -3.9019 -0.8259  0.1647
   27MOL0     H 3697  -0.650   5.021   1.873  1.9427  0.5405  0.2102
   27MOL0     H 3698  -0.831   5.118   1.747  0.0676 -1.4173  1.1190
   27MOL0     H 3699  -0.890   5.072   1.901  0.6519 -0.4328  1.0572
   27MOL0     H 3700  -0.975   5.300   1.839  0.5298 -0.3251 -1.7057
   27MOL0     H 3701  -0.821   5.360   1.812 -0.4471 -0.8122 -0.9145
   27MOL0     H 3702  -0.900   5.440   2.006 -1.8450 -0.8253 -4.0246
   27MOL0     H 3703  -0.766   5.359   2.072  0.1855  0.1587  0.5114
   27MOL0     H 3704  -0.896   5.160   2.125  1.1393  0.5733 -1.6190
   27MOL0     H 3705  -1.035   5.238   2.055  0.3211  1.2206  0.1894
   27MOL0     H 3706  -0.243   4.979   1.504 -0.4781 -2.7809  0.6621
   27MOL0     H 3707  -0.053   4.831   1.484  1.3134 -2.0476  1.9880
   27MOL0     H 3708   0.262   4.823   1.259  0.2551  1.1841 -0.5961
   27MOL0     H 3709   0.387   4.632   1.134 -1.8919 -5.1336  0.7744
   27MOL0     H 3710   1.729   3.473   1.896  1.7742 -0.1233  0.8079
   27MOL0     H 3711   1.906   3.452   2.063 -0.6687 -0.4151 -0.2447
   27MOL0     H 3712   2.139   3.725   2.366  3.2210 -2.6361 -0.4876
   27MOL0     H 3713   2.322   3.785   2.524  2.2017 -2.3014  0.2807
   27MOL0     H 3714   2.384   3.854   2.919  2.1759 -0.6496  0.2037
   27MOL0     H 3715   2.254   3.733   2.944 -0.0961 -1.0196 -0.1836
   27MOL0     H 3716   2.462   3.696   3.067 -2.2077 -1.5780  1.5551
   27MOL0     H 3717   2.539   3.644   2.912 -1.1801 -1.8035 -1.1989
   27MOL0     H 3718   2.297   3.523   3.041  0.4580 -0.5584  1.9879
   27MOL0     H 3719   2.347   3.480   2.878 -2.3643 -1.2857  1.3098
   27MOL0     H 3720   2.525   3.468   3.130 -0.3025  0.8615  0.7773
   27MOL0     H 3721   2.567   3.424   2.956 -0.9530  0.0003  0.2678
   27MOL0     H 3722   2.347   3.102   3.121  0.4021 -1.2097 -0.6735
   27MOL0     H 3723   2.146   3.602   2.844 -1.2133 -2.8793 -0.6721
   27MOL0     H 3724   1.961   3.477   2.829 -2.1401 -2.5562  0.5630
   27MOL0     H 3725   1.829   3.538   2.733 -0.2065 -1.5882 -0.6821
   27MOL0     H 3726   1.941   3.411   2.658  0.0815 -0.5116  0.8214
   28MOL0     O 3727  11.195   7.565   1.585  1.4370 -0.5692 -0.2104
   28MOL0     C 3728  11.258   7.479   1.529  0.0205 -0.1706  0.7218
   28MOL0     O 3729  11.273   7.465   1.391 -0.3510  0.7694  0.2382
   28MOL0     C 3730  11.228   7.569   1.309  0.1872 -0.2702  0.6773
   28MOL0     C 3731  11.087   7.587   1.278 -0.2272 -0.2658 -0.5745
   28MOL0     C 3732  11.037   7.687   1.199  1.3603 -0.0506 -0.2956
   28MOL0     C 3733  11.132   7.778   1.149  0.5815 -0.0075  0.1408
   28MOL0     O 3734  11.076   7.887   1.080  0.4868 -0.6036  0.9139
   28MOL0     C 3735  11.161   7.949   0.979  0.3341 -0.0310  0.3979
   28MOL0     C 3736  11.079   8.030   0.874 -0.3307 -0.2510 -0.7515
   28MOL0     C 3737  10.974   7.945   0.799  1.1252  0.3581  0.3175
   28MOL0     C 3738  10.882   8.034   0.713 -0.6257  0.3370 -0.6816
   28MOL0     C 3739  10.804   7.959   0.604 -0.3747 -0.2937 -0.6180
   28MOL0     C 3740  10.685   8.034   0.560 -0.1101  0.1153 -0.7775
   28MOL0     C 3741  10.623   7.975   0.431 -0.2245  0.4153  0.3753
   28MOL0     C 3742  10.516   8.055   0.355 -0.8976 -1.0405 -0.2948
   28MOL0     N 3743  10.397   8.063   0.441  0.7627 -0.2922  0.2400
   28MOL0     C 3744  10.304   8.173   0.451 -1.1793 -0.1271 -0.7058
   28MOL0     C 3745  10.218   8.147   0.543 -0.7943  1.4048 -0.6084
   28MOL0     C 3746  10.121   8.238   0.601  1.1189  0.0289 -0.2164
   28MOL0     C 3747  10.024   8.164   0.690  0.0718 -0.0916 -0.5130
   28MOL0     C 3748   9.952   8.277   0.769  0.2996  0.4247  0.1371
   28MOL0     C 3749   9.866   8.226   0.884 -0.2784  0.7227 -0.9969
   28MOL0     O 3750   9.836   8.332   0.975 -0.0083 -0.3292  0.1998
   28MOL0     C 3751   9.754   8.278   1.069  0.3180 -0.0286 -0.0005
   28MOL0     C 3752   9.802   8.212   1.188  0.4503  0.4770 -0.4784
   28MOL0     C 3753   9.704   8.139   1.267 -0.3512  0.4306  0.5315
   28MOL0     C 3754   9.780   8.054   1.362 -0.3633 -0.1981 -0.1917
   28MOL0     C 3755   9.570   8.135   1.245  0.7776  0.1311  0.3576
   28MOL0     C 3756   9.475   8.042   1.312 -0.0357  0.0203  0.8423
   28MOL0     O 3757   9.447   7.919   1.263  0.3438  0.1050  0.3364
   28MOL0     C 3758   9.392   7.819   1.340  0.8561 -0.0608 -0.0699
   28MOL0     C 3759   9.458   7.702   1.377 -0.4126 -0.5127  0.6584
   28MOL0     C 3760   9.390   7.591   1.435 -1.0979  0.1618 -0.6056
   28MOL0     C 3761   9.254   7.602   1.458 -0.1672 -0.5932 -0.0336
   28MOL0     O 3762   9.176   7.503   1.514 -0.3284 -0.2238 -0.6981
   28MOL0     C 3763   9.204   7.473   1.659 -0.4796  0.3672 -0.7524
   28MOL0     C 3764   9.115   7.539   1.764 -1.9807  0.0316  0.7003
   28MOL0     C 3765   9.147   7.533   1.912  0.4104  0.4300 -0.8027
   28MOL0     C 3766   9.030   7.583   1.999 -0.5953  0.1146 -0.2910
   28MOL0     C 3767   9.057   7.563   2.152 -0.7849  0.2525  0.2326
   28MOL0     C 3768   8.947   7.628   2.233  0.2452  1.1403  0.3982
   28MOL0     C 3769   8.989   7.644   2.381 -0.4282 -0.2657 -0.3709
   28MOL0     C 3770   8.873   7.695   2.461  0.8525 -0.4639 -0.9445
   28MOL0    Cl 3771   8.915   7.706   2.635  0.4951  0.6157  0.7106
   28MOL0     C 3772   9.192   7.731   1.441 -0.6659 -1.1406 -0.5137
   28MOL0     C 3773   9.260   7.833   1.380 -0.1904 -0.4054  0.4610
   28MOL0     O 3774   9.418   8.092   1.400  0.3201  0.1190  0.0236
   28MOL0     C 3775   9.524   8.218   1.143  0.3261 -1.0064 -0.5172
   28MOL0     C 3776   9.612   8.275   1.054  0.1238 -0.0370  0.2082
   28MOL0     N 3777  10.242   8.016   0.586 -0.4492  0.2027  0.9177
   28MOL0     N 3778  10.347   7.967   0.522  0.2413 -0.7105 -0.5612
   28MOL0     C 3779  11.267   7.770   1.188  0.6039 -0.0353 -0.2570
   28MOL0     C 3780  11.315   7.669   1.271  0.6192 -0.3665  0.6657
   28MOL0     C 3781  11.307   7.367   1.621  0.0532  0.7750 -0.1811
   28MOL0     C 3782  11.416   7.291   1.567 -0.1637 -0.9125 -0.0655
   28MOL0     C 3783  11.464   7.182   1.638  0.3445 -0.0112 -0.6362
   28MOL0     C 3784  11.430   7.146   1.764 -0.5417 -0.6273  0.0778
   28MOL0     O 3785  11.503   7.049   1.818  0.7495 -0.4781 -1.1927
   28MOL0     C 3786  11.462   6.980   1.946 -0.2334 -0.1733 -0.0869
   28MOL0     C 3787  11.572   6.885   1.979  0.4116 -0.5419 -0.1678
   28MOL0     C 3788  11.531   6.809   2.109 -0.6548  0.1449  0.0147
   28MOL0     C 3789  11.644   6.764   2.199  0.2164 -0.2236  0.3134
   28MOL0     C 3790  11.697   6.629   2.178 -0.3592 -0.4054  0.2753
   28MOL0     C 3791  11.715   6.509   2.149 -0.2619 -0.7027 -0.9257
   28MOL0     C 3792  11.333   7.228   1.817 -0.1450 -0.8150 -0.5771
   28MOL0     C 3793  11.262   7.327   1.745  0.1221 -0.4066 -0.3324
   28MOL0     C 3794  11.135   7.362   1.821  0.1999 -0.4137  0.0039
   28MOL0     H 3795  11.026   7.511   1.326  0.2696  1.0582  2.3630
   28MOL0     H 3796  10.934   7.696   1.166  1.8022  0.7639 -1.5462
   28MOL0     H 3797  11.234   7.879   0.937  0.2893 -0.2754  0.7238
   28MOL0     H 3798  11.223   8.026   1.025 -0.0533 -0.5603  1.8627
   28MOL0     H 3799  11.026   8.098   0.941 -3.5300 -1.2935 -2.0548
   28MOL0     H 3800  11.155   8.068   0.805 -2.2348  1.5910 -1.9267
   28MOL0     H 3801  11.015   7.876   0.724  3.7286  1.8413  0.2546
   28MOL0     H 3802  10.909   7.884   0.862  2.8096 -0.9323  0.8956
   28MOL0     H 3803  10.822   8.089   0.786 -1.0849 -2.3205  1.0963
   28MOL0     H 3804  10.945   8.109   0.664  1.4640 -0.8313  0.1095
   28MOL0     H 3805  10.766   7.867   0.648  2.4132 -1.5515 -0.5985
   28MOL0     H 3806  10.868   7.942   0.516  2.4587 -1.0257  1.4475
   28MOL0     H 3807  10.604   8.032   0.634  2.5049  1.6671  2.3704
   28MOL0     H 3808  10.715   8.139   0.551  1.5614 -0.1564  1.1402
   28MOL0     H 3809  10.580   7.880   0.465 -1.8275  0.4087 -1.4752
   28MOL0     H 3810  10.700   7.957   0.355 -1.9220  2.3962 -1.9587
   28MOL0     H 3811  10.564   8.150   0.329 -1.0820 -0.8989 -0.1143
   28MOL0     H 3812  10.487   8.012   0.259  0.5930 -2.1659 -0.2859
   28MOL0     H 3813  10.314   8.270   0.403  1.7212  0.4695  0.9157
   28MOL0     H 3814  10.074   8.287   0.515  0.6363  2.9071  1.5680
   28MOL0     H 3815  10.181   8.310   0.656 -2.3099  1.2990  2.1796
   28MOL0     H 3816   9.955   8.113   0.621 -2.7075  2.4089  0.1985
   28MOL0     H 3817  10.080   8.097   0.756  1.0944 -0.4523 -1.7250
   28MOL0     H 3818  10.025   8.354   0.799 -0.5400  1.2951  0.0013
   28MOL0     H 3819   9.884   8.325   0.698  0.5374  2.4499  1.2111
   28MOL0     H 3820   9.770   8.190   0.847 -1.1666 -3.0827  3.9720
   28MOL0     H 3821   9.921   8.145   0.933 -2.7391  0.4654  1.6633
   28MOL0     H 3822   9.907   8.211   1.216 -0.0694  0.8576  1.6662
   28MOL0     H 3823   9.854   8.106   1.424  0.1199 -1.9124  0.7527
   28MOL0     H 3824   9.833   7.973   1.311 -0.1607  0.8822 -1.7625
   28MOL0     H 3825   9.705   8.014   1.430 -3.2499 -0.7147 -3.4369
   28MOL0     H 3826   9.566   7.700   1.368 -0.3657 -1.4129  1.2344
   28MOL0     H 3827   9.442   7.504   1.472 -0.9155  0.1014 -0.9957
   28MOL0     H 3828   9.189   7.365   1.674 -1.6329  0.7000  0.6137
   28MOL0     H 3829   9.309   7.485   1.685 -0.4354 -0.6413 -0.4196
   28MOL0     H 3830   9.131   7.646   1.745 -2.6817 -0.0493 -0.4376
   28MOL0     H 3831   9.016   7.506   1.731 -0.8848 -1.7645 -0.9812
   28MOL0     H 3832   9.236   7.594   1.933 -0.7636  1.5293  1.3254
   28MOL0     H 3833   9.152   7.428   1.941  1.2538  0.9635  1.1443
   28MOL0     H 3834   8.941   7.528   1.967  0.5539 -2.8955  1.1927
   28MOL0     H 3835   9.014   7.686   1.967 -1.8629 -0.9701 -3.5874
   28MOL0     H 3836   9.070   7.457   2.176  1.1260  0.0875 -1.2539
   28MOL0     H 3837   9.149   7.618   2.174 -0.1232 -0.6291 -0.2647
   28MOL0     H 3838   8.867   7.554   2.221  0.2908  0.6841  2.4495
   28MOL0     H 3839   8.911   7.709   2.169  0.4728 -0.5622 -2.0462
   28MOL0     H 3840   9.070   7.717   2.387  0.8555 -1.6160 -0.4085
   28MOL0     H 3841   9.026   7.553   2.431 -1.0750  0.5898  1.7925
   28MOL0     H 3842   8.797   7.616   2.456  1.0731 -0.6832 -0.8516
   28MOL0     H 3843   8.831   7.788   2.421 -1.2359 -1.2547 -0.7216
   28MOL0     H 3844   9.088   7.746   1.468 -1.3706 -3.0168 -1.9358
   28MOL0     H 3845   9.206   7.922   1.348 -0.2522 -1.0436 -1.3243
   28MOL0     H 3846   9.417   8.231   1.126 -0.0651 -2.6691  0.4390
   28MOL0     H 3847   9.577   8.304   0.955  1.3075  0.1500 -0.1729
   28MOL0     H 3848  11.342   7.843   1.158 -1.4803  1.6220 -1.8268
   28MOL0     H 3849  11.420   7.651   1.291  0.8524 -1.9577 -1.6186
   28MOL0     H 3850  11.447   7.320   1.467  1.2178  2.7729  1.2354
   28MOL0     H 3851  11.540   7.112   1.603 -0.7156 -1.3383 -0.3944
   28MOL0     H 3852  11.441   7.047   2.029 -2.6236  0.1478 -0.8589
   28MOL0     H 3853  11.368   6.924   1.940 -1.2811  1.6289 -1.6503
   28MOL0     H 3854  11.657   6.947   2.009 -2.5110  2.1396  3.7788
   28MOL0     H 3855  11.594   6.815   1.898 -1.4694 -1.2893 -0.0947
   28MOL0     H 3856  11.471   6.880   2.168 -1.7775 -1.4210  0.8180
   28MOL0     H 3857  11.467   6.725   2.082  0.7081 -0.4632 -1.4437
   28MOL0     H 3858  11.617   6.762   2.305 -1.0257 -1.7486  0.0094
   28MOL0     H 3859  11.721   6.840   2.187 -1.0474  0.8589 -1.7185
   28MOL0     H 3860  11.743   6.407   2.132 -0.5172 -0.7792 -0.8923
   28MOL0     H 3861  11.285   7.199   1.909 -1.8786  2.2005 -0.4100
   28MOL0     H 3862  11.154   7.447   1.887 -2.5541  0.8641 -0.7007
   28MOL0     H 3863  11.050   7.390   1.758  2.7488  3.7780 -2.0591
   28MOL0     H 3864  11.122   7.274   1.884  0.0109 -2.5965 -2.8918
   29MOL0     O 3865   0.653   7.935   8.245  0.3701 -0.1434  0.3614
   29MOL0     C 3866   0.600   7.941   8.133 -0.5544 -0.2464  0.2917
   29MOL0     O 3867   0.575   8.051   8.056 -0.7683  0.3737  0.0659
   29MOL0     C 3868   0.631   8.162   8.104  0.3771  1.1810  0.3861
   29MOL0     C 3869   0.770   8.180   8.088  0.0202  0.0374 -0.4398
   29MOL0     C 3870   0.824   8.305   8.121  0.0660 -0.5109  0.4337
   29MOL0     C 3871   0.748   8.410   8.185  0.9906  0.0519  0.0339
   29MOL0     O 3872   0.796   8.529   8.225  0.6561 -0.3778  0.2106
   29MOL0     C 3873   0.929   8.549   8.196  0.0756 -0.1456  0.2175
   29MOL0     C 3874   0.955   8.695   8.238 -0.1194 -0.4322 -0.0648
   29MOL0     C 3875   1.039   8.714   8.366 -0.3850  0.6465  0.2656
   29MOL0     C 3876   0.990   8.639   8.492  1.1650 -1.0425  0.4701
   29MOL0     C 3877   0.878   8.724   8.549 -0.8093 -0.4019 -0.0280
   29MOL0     C 3878   0.828   8.677   8.691  0.7863 -0.5033  0.7486
   29MOL0     C 3879   0.719   8.562   8.660 -0.1338  0.5863  0.0516
   29MOL0     C 3880   0.691   8.473   8.781 -0.1559 -0.9359  0.1676
   29MOL0     N 3881   0.659   8.331   8.754 -0.1442 -0.0415  0.4309
   29MOL0     C 3882   0.612   8.279   8.639 -0.5942  0.1134 -0.1355
   29MOL0     C 3883   0.590   8.151   8.663 -0.1443  0.0950 -0.0104
   29MOL0     C 3884   0.522   8.049   8.566  0.7939  0.3991  0.1564
   29MOL0     C 3885   0.365   8.066   8.557  0.0482  0.9025 -0.5826
   29MOL0     C 3886   0.298   8.002   8.419  0.1956 -0.0802  0.9379
   29MOL0     C 3887   0.337   7.855   8.406  0.1156  1.2517  0.3697
   29MOL0     O 3888   0.247   7.777   8.325 -0.6011  0.6437  1.0392
   29MOL0     C 3889   0.263   7.643   8.304 -0.1611  0.5882 -0.4481
   29MOL0     C 3890   0.177   7.578   8.215  0.8118 -0.2691 -0.4721
   29MOL0     C 3891   0.161   7.438   8.203 -0.3301 -0.0415  0.5873
   29MOL0     C 3892   0.065   7.374   8.106 -0.0401  0.6845 -0.2084
   29MOL0     C 3893   0.252   7.360   8.289  0.8845  0.4009  0.4934
   29MOL0     C 3894   0.247   7.210   8.291  0.3928  0.2261 -0.1215
   29MOL0     O 3895   0.136   7.139   8.261  0.3044  0.5612 -0.0202
   29MOL0     C 3896   0.149   7.000   8.239 -0.0701  0.2751 -0.5083
   29MOL0     C 3897   0.210   6.914   8.334  0.1874 -1.1525  0.6875
   29MOL0     C 3898   0.225   6.783   8.305 -0.2709 -0.5680  0.3335
   29MOL0     C 3899   0.186   6.729   8.177 -0.9452 -0.0940  0.0692
   29MOL0     O 3900   0.213   6.599   8.148 -0.4618  0.5034  0.1764
   29MOL0     C 3901   0.139   6.500   8.217  1.5763 -0.9515 -0.1130
   29MOL0     C 3902   0.177   6.355   8.194 -0.4702 -0.9905 -0.1954
   29MOL0     C 3903   0.326   6.334   8.198 -0.3592  0.0059  0.0226
   29MOL0     C 3904   0.356   6.193   8.153  0.2740 -0.4150  1.0969
   29MOL0     C 3905   0.520   6.158   8.166  0.3019  0.0779 -0.3559
   29MOL0     C 3906   0.541   6.004   8.205  0.2030  0.1752  0.6518
   29MOL0     C 3907   0.514   5.970   8.359  0.1172 -0.5151 -1.1823
   29MOL0     C 3908   0.555   5.829   8.393 -0.1303  0.4404 -0.3566
   29MOL0    Cl 3909   0.441   5.735   8.299  0.5217 -0.0099  0.2807
   29MOL0     C 3910   0.121   6.811   8.081  0.1316 -0.6561 -0.9256
   29MOL0     C 3911   0.104   6.952   8.115 -1.3106 -0.4422  0.3595
   29MOL0     O 3912   0.355   7.166   8.291 -1.3489 -0.2538  0.7567
   29MOL0     C 3913   0.347   7.424   8.367  0.9291 -0.6834 -0.7826
   29MOL0     C 3914   0.359   7.566   8.366 -0.2453  0.4883 -0.4437
   29MOL0     N 3915   0.653   8.107   8.778 -0.5236 -0.4935 -0.6195
   29MOL0     N 3916   0.672   8.221   8.846  1.3063  0.5426  0.4392
   29MOL0     C 3917   0.615   8.383   8.199  0.3819  0.1383 -0.0910
   29MOL0     C 3918   0.560   8.253   8.173 -0.0210  0.0089 -0.0792
   29MOL0     C 3919   0.544   7.811   8.083  0.2863  0.3632  0.8591
   29MOL0     C 3920   0.446   7.813   7.983  1.0428  0.6988  0.2629
   29MOL0     C 3921   0.394   7.695   7.931 -0.2431  0.6127 -0.8429
   29MOL0     C 3922   0.452   7.564   7.964 -0.0491  0.3192 -0.1759
   29MOL0     O 3923   0.430   7.454   7.894 -0.4955  0.3068  0.6383
   29MOL0     C 3924   0.530   7.422   7.802  0.4236  0.6384  0.4112
   29MOL0     C 3925   0.553   7.539   7.697 -0.4942 -0.7885  0.4407
   29MOL0     C 3926   0.685   7.511   7.613 -0.7137  0.2310  0.2201
   29MOL0     C 3927   0.805   7.538   7.704 -0.9221  0.7839 -0.8212
   29MOL0     C 3928   0.810   7.652   7.796 -0.4160 -0.1068 -0.8172
   29MOL0     C 3929   0.814   7.755   7.858  0.3589  0.7994 -0.1628
   29MOL0     C 3930   0.543   7.565   8.069 -0.1820  0.0774 -0.0695
   29MOL0     C 3931   0.582   7.685   8.132 -0.3907 -0.2893  0.9123
   29MOL0     C 3932   0.696   7.667   8.239  1.0962  0.5019 -0.3203
   29MOL0     H 3933   0.837   8.111   8.037 -1.1109 -1.7545  0.4322
   29MOL0     H 3934   0.932   8.312   8.108 -0.1123 -0.4743 -1.2905
   29MOL0     H 3935   0.958   8.537   8.091 -2.2319 -0.3242 -0.4587
   29MOL0     H 3936   0.982   8.482   8.264 -3.7307 -1.1318  2.5262
   29MOL0     H 3937   0.998   8.744   8.149 -0.5131 -1.7421 -1.0105
   29MOL0     H 3938   0.861   8.742   8.266 -1.0233 -2.2792  0.1241
   29MOL0     H 3939   1.142   8.689   8.340 -0.8988  1.2902 -2.8141
   29MOL0     H 3940   1.041   8.823   8.378  1.6229  0.6616  0.2010
   29MOL0     H 3941   0.980   8.531   8.483  2.8243 -1.2827  1.1937
   29MOL0     H 3942   1.069   8.657   8.566 -2.3837  0.6188  4.2145
   29MOL0     H 3943   0.793   8.717   8.481 -1.7161 -1.1078  1.1282
   29MOL0     H 3944   0.909   8.829   8.554  0.0416 -0.6911  1.1623
   29MOL0     H 3945   0.910   8.633   8.749  2.3554  0.4201 -0.6805
   29MOL0     H 3946   0.788   8.760   8.750  0.4974 -1.2665  1.6464
   29MOL0     H 3947   0.760   8.509   8.574 -0.9054  1.4772 -0.8926
   29MOL0     H 3948   0.627   8.609   8.624 -0.3976 -1.1903 -1.7930
   29MOL0     H 3949   0.787   8.454   8.831  0.5886 -0.5001 -1.0381
   29MOL0     H 3950   0.624   8.526   8.849 -0.0835 -0.7703  0.1113
   29MOL0     H 3951   0.584   8.332   8.548 -0.2000 -0.1839 -0.4300
   29MOL0     H 3952   0.550   7.949   8.601 -3.5510 -0.3429  2.2589
   29MOL0     H 3953   0.559   8.060   8.464  0.7331 -0.1645  0.0712
   29MOL0     H 3954   0.305   8.029   8.640  0.2168  1.4745 -0.2057
   29MOL0     H 3955   0.370   8.175   8.555  1.9805  0.8557 -2.8519
   29MOL0     H 3956   0.189   8.009   8.416  0.3045  2.0028 -1.5208
   29MOL0     H 3957   0.338   8.040   8.325  1.3348 -1.7999  0.6744
   29MOL0     H 3958   0.438   7.854   8.364 -1.6515 -0.5878 -4.5525
   29MOL0     H 3959   0.348   7.811   8.506 -0.5885  0.7356  0.2305
   29MOL0     H 3960   0.102   7.645   8.174  0.2713  0.0388  0.9582
   29MOL0     H 3961  -0.031   7.346   8.150  0.5118  0.3135  0.7949
   29MOL0     H 3962   0.109   7.283   8.065  5.2815  1.8666  1.9838
   29MOL0     H 3963   0.042   7.443   8.024 -2.5186  0.8876  0.5828
   29MOL0     H 3964   0.266   6.950   8.420  2.4360 -0.8372 -0.8309
   29MOL0     H 3965   0.250   6.701   8.372  0.8057  0.4151  1.1629
   29MOL0     H 3966   0.152   6.529   8.322 -3.2768  1.6415  0.0734
   29MOL0     H 3967   0.034   6.507   8.187  1.1364 -1.5401  1.2092
   29MOL0     H 3968   0.126   6.297   8.272 -4.1410  1.3167 -0.6138
   29MOL0     H 3969   0.134   6.327   8.098  1.8813 -1.5944 -1.1390
   29MOL0     H 3970   0.360   6.350   8.300  2.7042  0.1294 -0.9088
   29MOL0     H 3971   0.373   6.406   8.130 -2.0157  2.4222  1.3256
   29MOL0     H 3972   0.334   6.176   8.047  0.7916 -1.8061  1.1988
   29MOL0     H 3973   0.300   6.128   8.220 -0.2186 -1.1926 -0.0342
   29MOL0     H 3974   0.569   6.172   8.069  0.8314 -1.4015 -0.3191
   29MOL0     H 3975   0.567   6.219   8.244  1.0045 -0.9829  0.0581
   29MOL0     H 3976   0.634   5.963   8.165 -1.6809 -0.6275 -3.3415
   29MOL0     H 3977   0.458   5.952   8.157 -0.2278  0.0141  1.5415
   29MOL0     H 3978   0.406   5.975   8.372  0.2331  2.7007 -0.6787
   29MOL0     H 3979   0.565   6.033   8.433 -3.0353  2.1439 -1.0528
   29MOL0     H 3980   0.526   5.811   8.497  2.0400  2.3528  0.6756
   29MOL0     H 3981   0.658   5.796   8.376 -0.2502 -0.9672  1.3418
   29MOL0     H 3982   0.080   6.769   7.989  0.3987 -1.2445 -0.7728
   29MOL0     H 3983   0.046   7.017   8.051 -2.1470  0.2760  1.8035
   29MOL0     H 3984   0.423   7.356   8.404 -1.0247 -2.2522  0.6129
   29MOL0     H 3985   0.445   7.612   8.413 -1.9270  0.1203  3.4800
   29MOL0     H 3986   0.550   8.456   8.247  0.5181  0.6303 -0.6440
   29MOL0     H 3987   0.461   8.236   8.213  0.1130 -1.1618 -0.1988
   29MOL0     H 3988   0.408   7.905   7.940  0.5666  0.6664  0.6027
   29MOL0     H 3989   0.315   7.702   7.857 -0.2168 -1.0815 -1.0860
   29MOL0     H 3990   0.621   7.398   7.857 -0.6230  0.6248  2.2072
   29MOL0     H 3991   0.517   7.331   7.742  1.8889  2.8473 -3.6511
   29MOL0     H 3992   0.563   7.636   7.746  0.3472  0.3676 -1.8900
   29MOL0     H 3993   0.469   7.549   7.628 -0.0114 -0.0779 -0.0571
   29MOL0     H 3994   0.685   7.408   7.574  1.8317  1.0002 -2.1107
   29MOL0     H 3995   0.690   7.581   7.529  2.3083  0.8411  0.7911
   29MOL0     H 3996   0.899   7.527   7.648 -0.9141  0.2951 -0.7135
   29MOL0     H 3997   0.812   7.448   7.764  0.1056  0.5985 -1.1920
   29MOL0     H 3998   0.834   7.840   7.921  1.3561  2.4902 -2.5866
   29MOL0     H 3999   0.582   7.467   8.095 -1.8958 -0.9352 -1.1053
   29MOL0     H 4000   0.716   7.560   8.227  1.0578  0.2228  1.7444
   29MOL0     H 4001   0.788   7.713   8.200  0.3205  1.2605 -1.2987
   29MOL0     H 4002   0.675   7.691   8.343 -3.0076  2.7862 -1.4590
   30MOL0     O 4003   3.510   3.944   4.494  0.3767 -0.5213 -0.4273
   30MOL0     C 4004   3.588   3.954   4.587 -0.6313  0.1157 -0.0621
   30MOL0     O 4005   3.699   4.025   4.587  0.1894 -0.6246 -0.6819
   30MOL0     C 4006   3.731   4.116   4.488  0.1033  0.2671 -0.0468
   30MOL0     C 4007   3.866   4.130   4.442 -0.9170 -0.4732  0.1901
   30MOL0     C 4008   3.905   4.228   4.350  0.0529  0.6888  0.5887
   30MOL0     C 4009   3.808   4.315   4.293  0.4440  0.5653  0.2244
   30MOL0     O 4010   3.855   4.407   4.211  0.3991 -0.3152  0.2271
   30MOL0     C 4011   3.774   4.525   4.203 -0.1752 -0.9215  0.1668
   30MOL0     C 4012   3.848   4.626   4.114  0.1696 -0.2522 -0.4638
   30MOL0     C 4013   3.902   4.561   3.979  0.5627  0.1475 -0.2168
   30MOL0     C 4014   3.785   4.473   3.914  0.1337 -0.3531  0.2915
   30MOL0     C 4015   3.841   4.417   3.784  0.6989 -0.1849  0.8848
   30MOL0     C 4016   3.717   4.365   3.715  0.3306 -0.3166 -0.6845
   30MOL0     C 4017   3.744   4.253   3.608 -0.6518  0.6787 -1.0110
   30MOL0     C 4018   3.824   4.132   3.662 -0.4270  0.1321  0.0167
   30MOL0     N 4019   3.744   4.058   3.762 -0.0742  0.5539  0.3884
   30MOL0     C 4020   3.619   3.995   3.739  0.2674  0.6230  0.6491
   30MOL0     C 4021   3.583   3.949   3.864  0.7584  1.1802 -0.0892
   30MOL0     C 4022   3.463   3.860   3.904  0.0002 -0.5749 -0.1953
   30MOL0     C 4023   3.368   3.933   3.998 -0.3375  0.0017  0.2693
   30MOL0     C 4024   3.229   3.863   4.035  0.5081  0.0384 -0.0101
   30MOL0     C 4025   3.183   3.909   4.171  0.2281  0.4824 -1.2380
   30MOL0     O 4026   3.054   3.858   4.197 -0.4905  0.7241 -0.7007
   30MOL0     C 4027   2.999   3.878   4.330  0.3844  0.1573  1.0320
   30MOL0     C 4028   2.877   3.821   4.359  0.6290 -0.1551  0.3402
   30MOL0     C 4029   2.823   3.836   4.491 -0.5608  0.6312 -0.2968
   30MOL0     C 4030   2.706   3.749   4.533 -0.7281  0.0770 -0.5301
   30MOL0     C 4031   2.884   3.920   4.593 -0.0154  1.0116  0.1671
   30MOL0     C 4032   2.833   3.936   4.735  0.8909 -0.3290  0.1306
   30MOL0     O 4033   2.910   4.016   4.816 -0.1567 -0.0185  0.3729
   30MOL0     C 4034   2.900   4.017   4.948  1.0531 -0.8944  0.2067
   30MOL0     C 4035   2.999   3.964   5.030 -1.0901 -0.3405 -0.6302
   30MOL0     C 4036   3.011   4.013   5.160 -0.2456  0.0440 -0.6276
   30MOL0     C 4037   2.905   4.070   5.221 -0.6280 -0.5876 -1.0574
   30MOL0     O 4038   2.902   4.079   5.357 -0.1403  0.1041 -0.2207
   30MOL0     C 4039   2.792   3.997   5.408 -0.2210  0.5111 -1.0206
   30MOL0     C 4040   2.791   4.007   5.561 -0.3300  0.0368 -0.0052
   30MOL0     C 4041   2.812   4.152   5.609  0.0846  0.1109  0.2355
   30MOL0     C 4042   2.790   4.154   5.761 -0.5685  0.0247 -0.0142
   30MOL0     C 4043   2.850   4.286   5.829  0.0824  0.5850 -0.6278
   30MOL0     C 4044   2.804   4.293   5.973 -0.3910 -1.0751 -0.4637
   30MOL0     C 4045   2.787   4.439   6.008 -0.2772 -0.2770  0.3067
   30MOL0     C 4046   2.744   4.460   6.149 -0.6436 -0.1976  0.1753
   30MOL0    Cl 4047   2.879   4.406   6.266  0.4200 -0.1787 -0.0544
   30MOL0     C 4048   2.795   4.120   5.151  0.0074 -0.2137  0.4637
   30MOL0     C 4049   2.802   4.097   5.015 -0.0736  0.3683 -0.2446
   30MOL0     O 4050   2.735   3.881   4.773  0.6954 -0.0673  1.2664
   30MOL0     C 4051   3.000   3.982   4.548 -0.3871 -0.5960  0.5320
   30MOL0     C 4052   3.055   3.960   4.423 -0.6601 -0.6589  0.8143
   30MOL0     N 4053   3.676   3.981   3.961 -0.9250  0.8207 -0.4071
   30MOL0     N 4054   3.769   4.043   3.898  0.1570 -0.6409  0.9599
   30MOL0     C 4055   3.675   4.307   4.346  0.6259  0.4691  0.1994
   30MOL0     C 4056   3.637   4.205   4.434 -0.1002 -0.7616 -0.3703
   30MOL0     C 4057   3.559   3.867   4.706 -0.2026  1.0321 -0.1479
   30MOL0     C 4058   3.672   3.845   4.802  0.5925 -0.1664 -0.6862
   30MOL0     C 4059   3.647   3.774   4.917  0.0598 -0.4457  0.2185
   30MOL0     C 4060   3.527   3.710   4.952 -0.3868  0.4912  0.3183
   30MOL0     O 4061   3.506   3.590   5.035 -0.6878 -0.5993  0.3196
   30MOL0     C 4062   3.598   3.568   5.150 -0.0100 -0.2650  0.5687
   30MOL0     C 4063   3.505   3.548   5.273 -0.4022  0.5941 -0.3975
   30MOL0     C 4064   3.583   3.488   5.402  0.4575 -0.7529  0.6095
   30MOL0     C 4065   3.477   3.439   5.502 -0.1899 -0.3143 -0.0773
   30MOL0     C 4066   3.549   3.359   5.605  0.6321  0.7321  0.1388
   30MOL0     C 4067   3.612   3.315   5.692 -0.8097  0.3577  0.0498
   30MOL0     C 4068   3.413   3.748   4.870  0.0145 -0.2694 -0.1370
   30MOL0     C 4069   3.430   3.828   4.752  1.0120 -0.2400 -0.4388
   30MOL0     C 4070   3.303   3.847   4.672  0.1332 -0.9227  0.4150
   30MOL0     H 4071   3.943   4.059   4.469  0.3195  0.5279 -0.5521
   30MOL0     H 4072   4.008   4.234   4.318 -0.1780 -2.0698 -0.9963
   30MOL0     H 4073   3.747   4.573   4.297 -1.5730  1.9137 -1.5558
   30MOL0     H 4074   3.684   4.493   4.150  2.2035 -0.6088 -4.5913
   30MOL0     H 4075   3.781   4.710   4.092 -0.2253  0.1170  1.9280
   30MOL0     H 4076   3.925   4.676   4.174  0.1084  1.6465 -1.8743
   30MOL0     H 4077   3.922   4.646   3.913 -4.4248  0.6819 -1.4361
   30MOL0     H 4078   3.982   4.491   4.006 -0.5036 -0.6772  0.9370
   30MOL0     H 4079   3.753   4.394   3.983  0.9651 -0.7346  0.2510
   30MOL0     H 4080   3.694   4.530   3.893 -1.4278 -3.0602 -0.9851
   30MOL0     H 4081   3.913   4.337   3.806  0.4888 -0.6403 -0.0223
   30MOL0     H 4082   3.882   4.493   3.718  0.4613  2.3138  3.3971
   30MOL0     H 4083   3.644   4.328   3.788 -0.1220  4.0378  1.3969
   30MOL0     H 4084   3.679   4.455   3.667 -0.8878 -0.5551 -0.2052
   30MOL0     H 4085   3.793   4.297   3.521 -1.2225 -1.8788 -2.7361
   30MOL0     H 4086   3.646   4.228   3.566 -0.1812 -1.3061 -1.0144
   30MOL0     H 4087   3.833   4.056   3.583 -4.3007  1.2564 -1.7376
   30MOL0     H 4088   3.926   4.157   3.691  1.2263 -4.6361 -0.7636
   30MOL0     H 4089   3.560   3.978   3.650  0.3428 -0.8657  0.8445
   30MOL0     H 4090   3.512   3.776   3.954  3.7071  1.7176  0.4056
   30MOL0     H 4091   3.411   3.822   3.816  1.2031  3.1932 -2.7583
   30MOL0     H 4092   3.420   3.958   4.090 -1.2196  4.4646 -0.2421
   30MOL0     H 4093   3.335   4.022   3.943 -2.0215 -0.6208  0.2024
   30MOL0     H 4094   3.153   3.877   3.958 -1.0608 -3.7698  0.5946
   30MOL0     H 4095   3.235   3.753   4.039  0.7883  0.0664  0.3149
   30MOL0     H 4096   3.258   3.881   4.246 -1.1776 -0.2691 -0.0609
   30MOL0     H 4097   3.174   4.017   4.184  0.3664  0.1542  2.3408
   30MOL0     H 4098   2.827   3.753   4.290 -0.1004  0.9010 -0.1950
   30MOL0     H 4099   2.735   3.685   4.617 -0.4123  1.7566  0.6858
   30MOL0     H 4100   2.686   3.668   4.462  4.5957 -0.2902 -2.0158
   30MOL0     H 4101   2.619   3.810   4.561  0.3684  1.1334  0.7149
   30MOL0     H 4102   3.091   3.918   4.995 -1.0326 -1.6310  1.0913
   30MOL0     H 4103   3.109   4.014   5.207 -0.5987  1.1253  0.1083
   30MOL0     H 4104   2.695   4.035   5.374 -0.2194  0.9543 -0.5425
   30MOL0     H 4105   2.796   3.893   5.375 -0.7370  0.5963 -1.3555
   30MOL0     H 4106   2.692   3.975   5.596 -1.0740  3.2109  1.1288
   30MOL0     H 4107   2.870   3.941   5.598 -0.7058 -0.2304  0.3413
   30MOL0     H 4108   2.749   4.224   5.556 -0.4051  1.2011  2.2218
   30MOL0     H 4109   2.915   4.182   5.587  0.1533  0.8696  1.4996
   30MOL0     H 4110   2.841   4.068   5.805 -0.0767 -0.8694 -2.2082
   30MOL0     H 4111   2.681   4.144   5.772 -0.6872 -0.5499 -1.4948
   30MOL0     H 4112   2.959   4.282   5.825  0.2716 -2.7782  2.7251
   30MOL0     H 4113   2.815   4.375   5.775  1.2767  1.4169 -0.0581
   30MOL0     H 4114   2.877   4.249   6.041  0.4739  0.5050 -0.3420
   30MOL0     H 4115   2.709   4.240   5.986  0.0637 -2.1969 -1.4894
   30MOL0     H 4116   2.702   4.468   5.945 -2.9546 -0.8255  3.3886
   30MOL0     H 4117   2.871   4.504   5.982 -0.8327  0.3079 -0.0441
   30MOL0     H 4118   2.658   4.396   6.172 -0.2623 -2.6610 -4.1677
   30MOL0     H 4119   2.719   4.564   6.173  0.1335 -0.0964  0.5809
   30MOL0     H 4120   2.721   4.188   5.191  1.2605  0.9526  0.8322
   30MOL0     H 4121   2.736   4.156   4.953  1.5919  0.2007 -2.3191
   30MOL0     H 4122   3.055   4.048   4.615 -0.3793 -1.4044  1.3466
   30MOL0     H 4123   3.151   4.005   4.398 -0.8540  0.3362  1.7573
   30MOL0     H 4124   3.592   4.374   4.325  1.2269  1.7273  1.5817
   30MOL0     H 4125   3.533   4.212   4.465 -0.8220  1.3029 -2.8738
   30MOL0     H 4126   3.766   3.896   4.789 -0.2573  2.0506  1.0575
   30MOL0     H 4127   3.731   3.757   4.983 -0.9397 -2.4052  1.0679
   30MOL0     H 4128   3.667   3.486   5.128 -0.7514 -1.1499  1.4687
   30MOL0     H 4129   3.654   3.656   5.184 -0.2095 -0.6347  1.8897
   30MOL0     H 4130   3.425   3.479   5.245  0.6139  0.2370 -2.6637
   30MOL0     H 4131   3.465   3.646   5.302  0.6541  1.5172 -1.9104
   30MOL0     H 4132   3.656   3.409   5.382  0.1377 -1.1911  1.1413
   30MOL0     H 4133   3.631   3.571   5.454  0.2635 -0.2658  0.0258
   30MOL0     H 4134   3.403   3.376   5.452 -1.7402  1.5833 -0.3266
   30MOL0     H 4135   3.417   3.521   5.545 -1.3016 -1.8460  1.4133
   30MOL0     H 4136   3.666   3.256   5.763 -1.2302  0.5043  0.4943
   30MOL0     H 4137   3.322   3.695   4.898  0.9516 -0.4151  2.9238
   30MOL0     H 4138   3.303   3.795   4.576 -0.9631  0.6399 -0.4869
   30MOL0     H 4139   3.214   3.810   4.724 -1.8498 -0.9735 -2.7718
   30MOL0     H 4140   3.282   3.945   4.629  0.7449 -2.9459 -5.2660
   31MOL0     O 4141   2.942   8.445  11.274 -0.6727 -0.7901 -0.3556
   31MOL0     C 4142   2.876   8.410  11.179  0.3210  0.3545  0.1498
   31MOL0     O 4143   2.745   8.426  11.166  1.0914 -0.1440  0.3115
   31MOL0     C 4144   2.661   8.467  11.271 -0.2885  0.1275  0.4582
   31MOL0     C 4145   2.555   8.557  11.226 -0.6830 -0.2338  0.5138
   31MOL0     C 4146   2.469   8.608  11.327 -0.2869  0.7306 -0.3507
   31MOL0     C 4147   2.499   8.572  11.463 -0.0692  0.9206  0.4276
   31MOL0     O 4148   2.407   8.620  11.548  0.3816 -0.1126 -0.6097
   31MOL0     C 4149   2.419   8.593  11.681  0.1889  0.1939 -0.3561
   31MOL0     C 4150   2.531   8.693  11.732  0.5483 -0.1786 -0.7524
   31MOL0     C 4151   2.560   8.662  11.882  0.8956 -0.7783  0.5196
   31MOL0     C 4152   2.596   8.520  11.920  0.0965  0.5399 -0.1252
   31MOL0     C 4153   2.684   8.515  12.059  0.6421 -0.7189  0.0982
   31MOL0     C 4154   2.727   8.361  12.069  0.5138 -0.2756  0.0104
   31MOL0     C 4155   2.743   8.314  12.207  0.6118 -0.2048 -0.2519
   31MOL0     C 4156   2.849   8.385  12.292 -0.1553 -0.9212 -0.3582
   31MOL0     N 4157   2.861   8.313  12.419  0.6635 -0.4080 -0.3021
   31MOL0     C 4158   2.883   8.176  12.427 -0.3020 -1.2174 -0.1504
   31MOL0     C 4159   2.900   8.160  12.568  0.1701 -0.4529  0.3220
   31MOL0     C 4160   2.924   8.021  12.628 -0.1279 -0.3919  0.6807
   31MOL0     C 4161   3.073   8.007  12.684  0.7208  0.8410 -0.1378
   31MOL0     C 4162   3.190   8.032  12.591 -1.1604  0.6256 -0.2882
   31MOL0     C 4163   3.214   7.912  12.495  0.2892 -0.1336 -0.1554
   31MOL0     O 4164   3.138   7.909  12.378 -0.2771 -0.4479  0.5775
   31MOL0     C 4165   3.155   8.012  12.289 -0.0981  0.1901 -1.0430
   31MOL0     C 4166   3.256   8.114  12.294 -0.7365 -0.3512  0.1524
   31MOL0     C 4167   3.256   8.230  12.212  0.5144  0.5651 -0.5283
   31MOL0     C 4168   3.341   8.351  12.244 -0.6523 -0.4547  0.5587
   31MOL0     C 4169   3.165   8.235  12.108  0.5013  0.4878  0.4666
   31MOL0     C 4170   3.157   8.334  12.006 -0.8877 -0.2784  0.2221
   31MOL0     O 4171   3.045   8.342  11.927 -0.2383  0.9529  0.1338
   31MOL0     C 4172   3.021   8.447  11.838 -0.0284  0.7139  1.2477
   31MOL0     C 4173   3.020   8.425  11.699 -0.2141 -0.2266  0.6704
   31MOL0     C 4174   2.995   8.534  11.612 -0.5424 -0.1421 -0.1630
   31MOL0     C 4175   2.972   8.662  11.661 -0.4524 -0.5262 -0.4237
   31MOL0     O 4176   2.949   8.765  11.574 -0.1587 -0.5255 -0.5593
   31MOL0     C 4177   2.892   8.734  11.447  0.1004  0.1816  0.5740
   31MOL0     C 4178   2.836   8.865  11.378  0.6268  1.1988 -0.4968
   31MOL0     C 4179   2.942   8.969  11.369  0.4436 -0.2530 -0.0647
   31MOL0     C 4180   2.885   9.112  11.370 -0.1863 -0.6405  1.1830
   31MOL0     C 4181   2.841   9.162  11.514 -0.4089  0.1664  0.6919
   31MOL0     C 4182   2.937   9.113  11.630 -0.4883 -0.0600  0.1285
   31MOL0     C 4183   2.897   9.180  11.760 -0.1575 -0.0400  0.9061
   31MOL0     C 4184   2.752   9.184  11.804  0.3489  0.4052 -1.0774
   31MOL0    Cl 4185   2.682   9.027  11.792 -0.2140 -0.1916 -0.0507
   31MOL0     C 4186   2.960   8.682  11.805 -0.0515 -0.4797  0.9637
   31MOL0     C 4187   3.002   8.576  11.889  0.1484 -0.2935 -0.5114
   31MOL0     O 4188   3.259   8.404  11.983  0.4945 -0.8968  0.3628
   31MOL0     C 4189   3.074   8.130  12.088  0.0622  0.4065 -0.7591
   31MOL0     C 4190   3.069   8.019  12.179  0.7782 -0.5154 -0.2777
   31MOL0     N 4191   2.890   8.284  12.632 -0.5728  0.0876  0.8140
   31MOL0     N 4192   2.872   8.371  12.542  0.1718  0.1533  0.2592
   31MOL0     C 4193   2.596   8.470  11.490 -0.2261  0.5698 -0.7640
   31MOL0     C 4194   2.681   8.412  11.396  0.5942  0.5572 -0.2677
   31MOL0     C 4195   2.935   8.359  11.057  0.1523 -0.2442  0.6041
   31MOL0     C 4196   2.848   8.294  10.968  0.0144  0.3084  0.2018
   31MOL0     C 4197   2.891   8.208  10.870  0.2032  0.0593 -0.2352
   31MOL0     C 4198   3.032   8.223  10.829 -0.5207  0.6374  0.8092
   31MOL0     O 4199   3.068   8.143  10.720  0.6151 -0.0450  0.7218
   31MOL0     C 4200   3.206   8.108  10.693 -0.1340 -1.0804 -0.5350
   31MOL0     C 4201   3.269   8.008  10.794 -0.0198  0.3553 -0.7484
   31MOL0     C 4202   3.405   7.980  10.743  0.7557 -0.0210 -0.9064
   31MOL0     C 4203   3.497   7.911  10.846  0.3656  0.3116  0.0319
   31MOL0     C 4204   3.485   7.967  10.986  0.6769  0.0115  0.7033
   31MOL0     C 4205   3.472   8.034  11.089  0.6174 -0.5543 -1.2997
   31MOL0     C 4206   3.112   8.304  10.904  0.1268 -1.1347 -0.9025
   31MOL0     C 4207   3.071   8.375  11.015 -0.2643  0.0766  0.4075
   31MOL0     C 4208   3.169   8.477  11.080 -0.8328  0.1805 -0.9053
   31MOL0     H 4209   2.535   8.591  11.125  0.5720  1.5097  0.8018
   31MOL0     H 4210   2.386   8.676  11.312 -1.8745 -1.0056  0.3310
   31MOL0     H 4211   2.436   8.488  11.704  0.5801  0.7075  1.9552
   31MOL0     H 4212   2.323   8.608  11.732  2.1011  0.3426  3.6316
   31MOL0     H 4213   2.624   8.685  11.674  0.2138 -0.6847 -1.2308
   31MOL0     H 4214   2.496   8.793  11.705 -0.9783 -1.0962 -2.3596
   31MOL0     H 4215   2.633   8.741  11.904 -1.9112  1.6774  1.7284
   31MOL0     H 4216   2.466   8.691  11.930  0.4614  1.1437 -1.3358
   31MOL0     H 4217   2.499   8.472  11.926 -0.8776  2.5253  1.1105
   31MOL0     H 4218   2.668   8.483  11.846 -0.6634 -0.2979 -0.4552
   31MOL0     H 4219   2.605   8.535  12.132  0.9106 -0.3038  0.2775
   31MOL0     H 4220   2.759   8.594  12.053 -0.9579  0.7635 -1.5891
   31MOL0     H 4221   2.638   8.308  12.034  0.0451  0.0535  0.6801
   31MOL0     H 4222   2.824   8.351  12.019  2.6724  2.4022  3.2386
   31MOL0     H 4223   2.782   8.214  12.186  1.2623 -0.2982  1.3092
   31MOL0     H 4224   2.649   8.312  12.262  0.3993 -1.5233 -0.6466
   31MOL0     H 4225   2.943   8.381  12.235 -0.8711  1.3711 -1.8556
   31MOL0     H 4226   2.832   8.491  12.313  3.0042 -0.9423  3.1852
   31MOL0     H 4227   2.893   8.097  12.353  0.8805 -3.9081  2.6357
   31MOL0     H 4228   2.895   7.933  12.569 -1.5755 -0.8149  1.9405
   31MOL0     H 4229   2.853   8.017  12.712  0.0912 -3.8636  0.8283
   31MOL0     H 4230   3.083   8.076  12.769  0.6200  0.3641  0.2661
   31MOL0     H 4231   3.093   7.912  12.735  0.6812  1.9689  2.1235
   31MOL0     H 4232   3.170   8.125  12.537 -0.5146 -0.0812 -1.7946
   31MOL0     H 4233   3.275   8.042  12.659 -1.6321 -1.9627  0.8000
   31MOL0     H 4234   3.321   7.902  12.476  0.4290 -3.2495  1.6448
   31MOL0     H 4235   3.179   7.825  12.551  1.3238 -0.6041 -0.2330
   31MOL0     H 4236   3.342   8.106  12.360 -0.1301 -0.9443 -0.6938
   31MOL0     H 4237   3.289   8.447  12.232  0.5184  0.0425 -0.9164
   31MOL0     H 4238   3.417   8.335  12.167  4.5455 -3.5137  5.5547
   31MOL0     H 4239   3.400   8.340  12.336  1.6026  2.7783 -0.3012
   31MOL0     H 4240   3.029   8.323  11.661 -1.5495 -0.0704 -0.1161
   31MOL0     H 4241   3.000   8.510  11.506  1.0308 -1.9345  0.2651
   31MOL0     H 4242   2.961   8.690  11.375  1.3049  1.5855  0.8354
   31MOL0     H 4243   2.807   8.665  11.454 -0.7660  0.9595 -1.4054
   31MOL0     H 4244   2.789   8.853  11.280 -0.1969  0.5880 -0.0407
   31MOL0     H 4245   2.761   8.903  11.448 -1.1851  0.3814 -1.9339
   31MOL0     H 4246   3.000   8.962  11.277 -0.6988  3.8801 -1.3189
   31MOL0     H 4247   3.024   8.953  11.440  0.8683 -0.6437 -0.6376
   31MOL0     H 4248   2.813   9.125  11.290  1.2584 -1.4513 -0.3180
   31MOL0     H 4249   2.965   9.186  11.353 -1.9712  1.2470  0.6066
   31MOL0     H 4250   2.848   9.271  11.524  1.4547 -0.1281  3.6249
   31MOL0     H 4251   2.737   9.128  11.514 -0.1338 -0.7179 -0.6328
   31MOL0     H 4252   3.037   9.152  11.607  0.2967 -1.1756  1.4863
   31MOL0     H 4253   2.933   9.004  11.631  1.3476 -0.3342 -3.8295
   31MOL0     H 4254   2.934   9.283  11.756  0.0280  0.1249  4.2280
   31MOL0     H 4255   2.961   9.122  11.828  2.4118  0.5457 -0.8387
   31MOL0     H 4256   2.696   9.258  11.745 -1.9449 -1.0720 -0.9077
   31MOL0     H 4257   2.749   9.201  11.912  2.5144 -0.4730 -0.8293
   31MOL0     H 4258   2.938   8.785  11.832 -0.6894  1.0218 -4.1379
   31MOL0     H 4259   3.018   8.591  11.996  0.7447  0.0208 -0.6407
   31MOL0     H 4260   3.002   8.142  12.008 -0.0393  2.0896 -0.4518
   31MOL0     H 4261   2.993   7.941  12.183  0.2879 -0.0341  3.0015
   31MOL0     H 4262   2.626   8.451  11.592 -1.0370  0.2887 -0.5730
   31MOL0     H 4263   2.753   8.332  11.409  1.4206  1.3095 -0.1343
   31MOL0     H 4264   2.743   8.297  10.996  0.0437 -0.9231  0.4640
   31MOL0     H 4265   2.809   8.156  10.821  0.3416 -3.8283  3.1249
   31MOL0     H 4266   3.219   8.065  10.593  2.4619  1.0566 -1.2280
   31MOL0     H 4267   3.266   8.199  10.700 -1.9048  0.0046  3.8858
   31MOL0     H 4268   3.210   7.917  10.810  1.0788 -0.4189 -0.9744
   31MOL0     H 4269   3.279   8.060  10.890  3.2067 -0.5423 -0.4800
   31MOL0     H 4270   3.415   7.918  10.654  1.6162 -3.0549  1.1395
   31MOL0     H 4271   3.461   8.066  10.705  1.8973 -0.4205 -0.1855
   31MOL0     H 4272   3.601   7.908  10.812  0.4072 -0.3360  0.2008
   31MOL0     H 4273   3.464   7.807  10.860 -0.2689  0.3846 -0.8456
   31MOL0     H 4274   3.454   8.101  11.171 -0.1994 -0.0602 -1.8724
   31MOL0     H 4275   3.214   8.316  10.870  0.5689 -0.5025  0.5488
   31MOL0     H 4276   3.210   8.426  11.168 -1.5495  1.3568  0.1359
   31MOL0     H 4277   3.255   8.497  11.015 -0.7709 -0.2291 -0.9550
   31MOL0     H 4278   3.122   8.569  11.116 -1.4949 -0.0721 -1.1051
   32MOL0     O 4279   9.415   6.921   5.161  0.3624  0.0268  0.3789
   32MOL0     C 4280   9.480   6.827   5.199 -0.1116 -0.1623 -0.1510
   32MOL0     O 4281   9.604   6.794   5.156 -0.2683  0.4108  0.0736
   32MOL0     C 4282   9.703   6.875   5.099 -0.0360  0.0915  0.4226
   32MOL0     C 4283   9.785   6.819   5.003  0.5691 -0.6678 -0.2889
   32MOL0     C 4284   9.899   6.899   4.942  0.0575 -0.6549 -0.0560
   32MOL0     C 4285   9.906   7.038   4.965  0.4741  0.4487 -0.3953
   32MOL0     O 4286  10.008   7.117   4.920  0.7658 -0.8003  0.3850
   32MOL0     C 4287  10.065   7.083   4.782 -0.0811  0.3357  0.1776
   32MOL0     C 4288  10.137   7.208   4.724  0.7091 -1.7200 -0.3600
   32MOL0     C 4289  10.214   7.185   4.591  0.3604  0.5520 -0.1504
   32MOL0     C 4290  10.128   7.239   4.473  0.2619 -0.9516  0.1134
   32MOL0     C 4291  10.191   7.240   4.337 -0.5201  1.0281  0.6980
   32MOL0     C 4292  10.106   7.287   4.220 -0.3573 -0.4838  0.1343
   32MOL0     C 4293   9.969   7.221   4.220  0.6323  1.1093 -0.5666
   32MOL0     C 4294   9.886   7.234   4.098 -0.2020  0.2777  1.0889
   32MOL0     N 4295   9.858   7.382   4.082  0.3843  0.6811 -0.4960
   32MOL0     C 4296   9.779   7.447   4.179  0.4841  0.2905  0.8630
   32MOL0     C 4297   9.797   7.575   4.156  0.0224  0.1756  0.8569
   32MOL0     C 4298   9.739   7.692   4.227  0.8589 -1.1579  0.3853
   32MOL0     C 4299   9.831   7.726   4.352  0.7238  0.7529  0.3400
   32MOL0     C 4300   9.796   7.863   4.411 -0.3647 -0.6183 -0.4304
   32MOL0     C 4301   9.893   7.905   4.529 -0.2466 -0.0372  0.1899
   32MOL0     O 4302  10.017   7.965   4.481  0.2072 -0.2077 -0.0936
   32MOL0     C 4303  10.117   8.012   4.569  0.4747  0.6832 -0.2268
   32MOL0     C 4304  10.097   8.019   4.710 -0.1447 -0.1713  0.5847
   32MOL0     C 4305  10.208   8.049   4.795  1.3958  0.4581 -0.0523
   32MOL0     C 4306  10.175   8.038   4.951 -0.4015 -0.0845 -0.0756
   32MOL0     C 4307  10.326   8.100   4.740 -0.2729  0.3137  0.6341
   32MOL0     C 4308  10.439   8.147   4.815  0.3390  0.0489 -1.6366
   32MOL0     O 4309  10.542   8.196   4.745  0.3638 -0.2124  0.3440
   32MOL0     C 4310  10.653   8.233   4.805 -0.4218 -0.7877 -0.2700
   32MOL0     C 4311  10.761   8.135   4.807 -0.5283 -0.2957 -0.0600
   32MOL0     C 4312  10.877   8.168   4.886  0.4726  0.8345  0.1593
   32MOL0     C 4313  10.888   8.291   4.946 -1.0032 -0.7165  0.5666
   32MOL0     O 4314  10.998   8.335   5.026 -0.1362 -0.6450  0.3531
   32MOL0     C 4315  11.096   8.235   5.055  0.6779  0.3482  0.3216
   32MOL0     C 4316  11.218   8.304   5.110  0.9579 -0.1970 -0.3634
   32MOL0     C 4317  11.324   8.218   5.186 -0.8363  0.5247 -0.2254
   32MOL0     C 4318  11.448   8.295   5.237  1.0206 -0.0364  0.7065
   32MOL0     C 4319  11.565   8.206   5.281 -0.3412  0.7050  0.3950
   32MOL0     C 4320  11.530   8.113   5.398  0.1610  0.1324 -0.3288
   32MOL0     C 4321  11.647   8.030   5.455 -0.2942  0.6304 -0.1838
   32MOL0     C 4322  11.775   8.103   5.454 -0.2095 -0.6608  0.1771
   32MOL0    Cl 4323  11.780   8.225   5.584 -0.4382 -0.8255  0.3251
   32MOL0     C 4324  10.790   8.386   4.935 -0.3955 -0.3125 -0.9212
   32MOL0     C 4325  10.665   8.357   4.880  0.0035  0.2243  0.0963
   32MOL0     O 4326  10.437   8.119   4.935 -0.3030  0.3335  0.0447
   32MOL0     C 4327  10.341   8.100   4.590 -0.3363 -0.1259  0.5455
   32MOL0     C 4328  10.234   8.059   4.508  0.7693  0.6624  0.4029
   32MOL0     N 4329   9.891   7.600   4.055  0.7904 -0.1918  0.2527
   32MOL0     N 4330   9.926   7.479   4.004  0.2638 -0.1294  0.4003
   32MOL0     C 4331   9.805   7.094   5.049 -0.3932 -0.2976 -0.2700
   32MOL0     C 4332   9.714   7.016   5.114  0.5361  0.0145  0.3283
   32MOL0     C 4333   9.425   6.744   5.313 -0.1539  0.8955 -0.2027
   32MOL0     C 4334   9.511   6.721   5.420 -0.4027 -0.6047 -0.4652
   32MOL0     C 4335   9.461   6.681   5.550 -1.0839 -0.3635 -0.2425
   32MOL0     C 4336   9.324   6.661   5.576 -0.6201  0.2158  0.2832
   32MOL0     O 4337   9.255   6.606   5.685  0.1481  0.4651 -0.3909
   32MOL0     C 4338   9.312   6.615   5.819 -0.1557  0.5041  0.7282
   32MOL0     C 4339   9.340   6.758   5.865  0.5348  1.3125 -0.3497
   32MOL0     C 4340   9.218   6.842   5.838 -0.4426  0.0197 -1.5783
   32MOL0     C 4341   9.232   6.983   5.889  0.1826 -0.7422  0.8256
   32MOL0     C 4342   9.112   7.057   5.858  0.3040 -0.2695 -0.1583
   32MOL0     C 4343   9.004   7.111   5.832 -0.4132  0.5475  0.4386
   32MOL0     C 4344   9.238   6.684   5.467 -0.0968 -0.2897  0.3118
   32MOL0     C 4345   9.287   6.721   5.335  0.3140  0.6919 -0.6040
   32MOL0     C 4346   9.193   6.744   5.225 -0.9251 -0.3447 -0.1362
   32MOL0     H 4347   9.767   6.712   4.999 -0.9311 -0.5729  1.8387
   32MOL0     H 4348   9.972   6.846   4.881 -0.9432 -2.0677 -0.0753
   32MOL0     H 4349   9.975   7.066   4.722  0.7230 -1.0172 -0.6914
   32MOL0     H 4350  10.133   6.997   4.779  0.2107  0.5649  0.1896
   32MOL0     H 4351  10.063   7.286   4.712  1.6437 -0.9511 -1.4148
   32MOL0     H 4352  10.207   7.249   4.797  1.1368 -0.0986 -1.6285
   32MOL0     H 4353  10.307   7.241   4.601 -0.5671  2.5920 -2.2263
   32MOL0     H 4354  10.251   7.083   4.577 -0.9648  0.2944 -2.0993
   32MOL0     H 4355  10.041   7.173   4.477 -1.1964  0.9420  2.7836
   32MOL0     H 4356  10.089   7.338   4.500  0.2413 -1.4528  2.0726
   32MOL0     H 4357  10.228   7.139   4.322 -1.4544  0.5794  1.3035
   32MOL0     H 4358  10.276   7.308   4.348 -0.5700  0.8908  2.1626
   32MOL0     H 4359  10.091   7.395   4.229 -0.5896 -0.5923  1.2357
   32MOL0     H 4360  10.158   7.264   4.126  1.5357  0.1318  0.9765
   32MOL0     H 4361   9.917   7.258   4.309  1.2850 -3.4748  2.0380
   32MOL0     H 4362   9.987   7.113   4.228  0.9062  0.9376 -2.7637
   32MOL0     H 4363   9.937   7.204   4.006  0.9782  3.9559  0.3748
   32MOL0     H 4364   9.795   7.173   4.101 -1.3997  1.8509 -1.0326
   32MOL0     H 4365   9.709   7.403   4.249 -1.1445 -0.4481 -1.1390
   32MOL0     H 4366   9.637   7.665   4.257 -1.2344  1.9562 -3.0549
   32MOL0     H 4367   9.733   7.773   4.153  0.0060  0.0813  1.7437
   32MOL0     H 4368   9.819   7.649   4.428  0.8482 -0.6184 -0.9643
   32MOL0     H 4369   9.939   7.718   4.335  1.0992  1.1208  2.3127
   32MOL0     H 4370   9.791   7.946   4.341  0.5101  0.3058  0.5725
   32MOL0     H 4371   9.693   7.858   4.448 -0.3831  1.6962 -0.0225
   32MOL0     H 4372   9.844   7.997   4.565  0.7560  1.2200 -1.4818
   32MOL0     H 4373   9.907   7.827   4.603 -1.9925  0.4435  1.0934
   32MOL0     H 4374   9.995   7.994   4.738 -0.3626 -0.4225 -0.3917
   32MOL0     H 4375  10.257   7.980   4.994 -0.4289  0.7332  1.1261
   32MOL0     H 4376  10.082   7.985   4.975 -0.4643  0.5933  1.2707
   32MOL0     H 4377  10.169   8.139   4.991 -0.4717  0.5562 -1.6222
   32MOL0     H 4378  10.747   8.039   4.758 -0.2479 -0.5936  0.4389
   32MOL0     H 4379  10.951   8.091   4.907 -1.5252 -0.9946  0.8881
   32MOL0     H 4380  11.055   8.174   5.135 -0.0191  3.2158  2.2823
   32MOL0     H 4381  11.121   8.172   4.968 -3.6312 -2.1320  0.6116
   32MOL0     H 4382  11.271   8.365   5.037  1.1120  0.2972  0.1501
   32MOL0     H 4383  11.191   8.374   5.190  0.9249 -3.1529  2.4691
   32MOL0     H 4384  11.371   8.149   5.116 -1.7226  0.6018 -0.9135
   32MOL0     H 4385  11.281   8.168   5.273  2.7086  1.4122  2.2722
   32MOL0     H 4386  11.419   8.360   5.320 -1.9571  1.1916 -1.1499
   32MOL0     H 4387  11.481   8.358   5.154  3.1609  0.2914  1.7338
   32MOL0     H 4388  11.604   8.150   5.196 -1.4526  0.3692  0.0934
   32MOL0     H 4389  11.642   8.281   5.302 -1.8424  2.3079  0.4025
   32MOL0     H 4390  11.453   8.041   5.369  0.6081 -1.0362  1.2448
   32MOL0     H 4391  11.475   8.166   5.477 -4.8078 -1.3996 -2.3366
   32MOL0     H 4392  11.672   7.952   5.383  1.6758  0.7527  0.3054
   32MOL0     H 4393  11.618   7.979   5.547  0.8288 -1.1407 -0.7621
   32MOL0     H 4394  11.791   8.144   5.354 -0.8609  2.5199  1.2331
   32MOL0     H 4395  11.857   8.034   5.476  0.1422 -0.4034 -0.3212
   32MOL0     H 4396  10.793   8.484   4.980 -2.3698  0.2807 -1.9831
   32MOL0     H 4397  10.585   8.430   4.897 -1.2354 -1.0529 -0.0954
   32MOL0     H 4398  10.429   8.140   4.541 -2.4748  0.1960 -3.5483
   32MOL0     H 4399  10.238   8.066   4.400 -0.8105 -0.7419  0.2134
   32MOL0     H 4400   9.807   7.200   5.073  2.0761 -0.1290 -0.9402
   32MOL0     H 4401   9.635   7.063   5.172 -1.5256  0.8237 -2.8873
   32MOL0     H 4402   9.618   6.740   5.417 -0.3027 -1.0864  0.0269
   32MOL0     H 4403   9.534   6.672   5.630  0.3213 -2.1885 -1.6382
   32MOL0     H 4404   9.255   6.557   5.891 -1.5148 -1.7939 -2.0159
   32MOL0     H 4405   9.406   6.561   5.804 -1.6209 -2.1344  0.5311
   32MOL0     H 4406   9.419   6.813   5.814  2.0618  0.7615  1.3231
   32MOL0     H 4407   9.360   6.745   5.972  0.3933 -3.3492 -0.6582
   32MOL0     H 4408   9.209   6.850   5.729  0.0647  2.4125 -1.5028
   32MOL0     H 4409   9.126   6.792   5.869 -1.1201  1.8927 -0.4435
   32MOL0     H 4410   9.324   7.029   5.853  0.1035 -0.1575  1.3447
   32MOL0     H 4411   9.256   6.973   5.995  1.3100 -2.9496  0.4172
   32MOL0     H 4412   8.920   7.169   5.801  1.9792  3.3278 -1.4881
   32MOL0     H 4413   9.131   6.671   5.462 -0.3512  1.2838  1.0910
   32MOL0     H 4414   9.115   6.668   5.232  1.1808 -3.0076 -3.1052
   32MOL0     H 4415   9.155   6.847   5.220 -0.0493 -0.0117 -0.0401
   32MOL0     H 4416   9.245   6.724   5.131  1.1186  0.7102  0.7230
   33MOL0     O 4417   5.802  11.148  10.930 -0.1246  0.0487  0.2459
   33MOL0     C 4418   5.769  11.117  11.046  0.1274 -0.3768 -0.0200
   33MOL0     O 4419   5.772  10.991  11.094  0.2733  0.2131 -1.0266
   33MOL0     C 4420   5.849  10.887  11.040  0.6309  0.3687 -0.4763
   33MOL0     C 4421   5.962  10.903  10.954 -0.6098  0.3146 -0.4410
   33MOL0     C 4422   6.011  10.791  10.891 -0.4602 -0.2514  0.7012
   33MOL0     C 4423   5.949  10.669  10.907  0.2527 -0.4305 -0.5820
   33MOL0     O 4424   5.995  10.565  10.842 -0.0778 -0.3392  0.2906
   33MOL0     C 4425   5.947  10.560  10.702 -0.4404 -0.5862 -1.6771
   33MOL0     C 4426   5.895  10.419  10.675  0.6602  0.4004  0.1024
   33MOL0     C 4427   5.791  10.348  10.759  0.2006  0.4453 -2.0466
   33MOL0     C 4428   5.813  10.194  10.782 -0.3859  0.1164  0.0829
   33MOL0     C 4429   5.714  10.125  10.884  0.3328  0.0437  0.3391
   33MOL0     C 4430   5.770   9.986  10.935  0.0631  0.4654  0.9155
   33MOL0     C 4431   5.688   9.919  11.050 -0.1741  0.0259 -1.5011
   33MOL0     C 4432   5.617   9.793  10.992  0.5985 -1.2017  0.8271
   33MOL0     N 4433   5.704   9.672  10.993 -0.1351 -0.0061 -1.1690
   33MOL0     C 4434   5.694   9.560  10.905 -0.4494 -0.5436  0.5473
   33MOL0     C 4435   5.788   9.468  10.948  0.9470 -1.1443 -0.1777
   33MOL0     C 4436   5.833   9.343  10.880  0.1754  1.0895 -0.0623
   33MOL0     C 4437   5.935   9.374  10.767 -0.7192 -0.2383  0.8836
   33MOL0     C 4438   5.857   9.417  10.637 -1.1717  0.1863  0.4225
   33MOL0     C 4439   5.946   9.431  10.514  0.6738 -0.2103 -0.6114
   33MOL0     O 4440   5.976   9.317  10.436 -0.5558  0.1544 -0.4923
   33MOL0     C 4441   6.099   9.310  10.361  0.4278 -0.3149 -0.4590
   33MOL0     C 4442   6.167   9.426  10.332  0.4866 -0.1216 -0.6659
   33MOL0     C 4443   6.273   9.427  10.240 -0.6066 -0.0280 -0.2544
   33MOL0     C 4444   6.327   9.569  10.208 -0.4573  0.3553 -0.6088
   33MOL0     C 4445   6.300   9.308  10.164 -0.2846  0.2839  0.0048
   33MOL0     C 4446   6.387   9.302  10.033 -0.7707 -0.6199 -0.3685
   33MOL0     O 4447   6.409   9.177   9.985 -0.9161 -0.3074 -0.2141
   33MOL0     C 4448   6.479   9.147   9.871  0.0079  0.0769  0.6538
   33MOL0     C 4449   6.448   9.022   9.817  1.3229 -0.9319 -0.6757
   33MOL0     C 4450   6.497   8.971   9.701  0.9231 -0.7504  0.0532
   33MOL0     C 4451   6.593   9.048   9.632  0.2519  0.6384  0.1297
   33MOL0     O 4452   6.625   9.003   9.508 -0.5569  0.3430 -1.0058
   33MOL0     C 4453   6.715   9.082   9.423 -0.1289  0.8945 -0.4835
   33MOL0     C 4454   6.772   8.989   9.316 -0.0853 -1.0611 -0.3009
   33MOL0     C 4455   6.848   8.870   9.385  0.8785  0.0698  0.0428
   33MOL0     C 4456   6.981   8.914   9.444  0.7112  0.0870 -0.2439
   33MOL0     C 4457   7.046   8.799   9.516 -0.8590 -0.9983  0.0591
   33MOL0     C 4458   6.957   8.742   9.647  0.5724 -0.0454 -0.1999
   33MOL0     C 4459   6.951   8.846   9.765 -0.5056  0.0123  0.5464
   33MOL0     C 4460   6.831   8.802   9.848 -0.2312 -0.6442  1.2103
   33MOL0    Cl 4461   6.850   8.626   9.896  0.3536 -0.5782  0.0521
   33MOL0     C 4462   6.632   9.185   9.681  0.5100 -0.2726  0.1149
   33MOL0     C 4463   6.566   9.231   9.803 -0.0380 -0.1711  0.5532
   33MOL0     O 4464   6.407   9.403   9.969 -0.2612  0.1892 -0.4357
   33MOL0     C 4465   6.219   9.190  10.192  1.0977  0.6847 -0.0103
   33MOL0     C 4466   6.134   9.186  10.307 -0.0179 -0.5186 -0.5239
   33MOL0     N 4467   5.866   9.533  11.045 -0.3620  0.0370 -0.3845
   33MOL0     N 4468   5.811   9.650  11.068 -0.2671 -0.3075  0.2201
   33MOL0     C 4469   5.853  10.654  10.995  0.2747 -0.3241  0.1824
   33MOL0     C 4470   5.795  10.759  11.051 -0.1283  0.9547 -0.0312
   33MOL0     C 4471   5.677  11.207  11.122  1.3154 -0.1684 -0.4089
   33MOL0     C 4472   5.558  11.260  11.062 -0.4255  0.1164 -0.5088
   33MOL0     C 4473   5.461  11.340  11.133 -1.0675  1.1101  0.5846
   33MOL0     C 4474   5.494  11.376  11.263 -0.5554  0.0723 -0.1560
   33MOL0     O 4475   5.412  11.458  11.334 -0.2056  0.3899 -0.7348
   33MOL0     C 4476   5.303  11.538  11.275  0.2897  0.5483 -0.4056
   33MOL0     C 4477   5.297  11.666  11.345  0.2782  1.0406  0.0469
   33MOL0     C 4478   5.290  11.650  11.500 -0.3643  0.7791 -0.3174
   33MOL0     C 4479   5.306  11.789  11.566  0.3844  0.2253  0.2039
   33MOL0     C 4480   5.217  11.899  11.530 -1.0254 -0.2843 -0.8420
   33MOL0     C 4481   5.126  11.983  11.505 -0.3355  0.0781 -0.1323
   33MOL0     C 4482   5.605  11.324  11.321 -0.0855 -0.8660  0.2120
   33MOL0     C 4483   5.691  11.234  11.256  0.8249  0.6794 -0.3525
   33MOL0     C 4484   5.795  11.171  11.330 -0.5419  0.3619  0.6615
   33MOL0     H 4485   6.009  11.000  10.945  0.6612 -0.4014 -1.9845
   33MOL0     H 4486   6.105  10.790  10.836 -0.8837 -2.0562 -0.0515
   33MOL0     H 4487   6.026  10.583  10.630  1.5305 -0.8350  0.3195
   33MOL0     H 4488   5.869  10.635  10.685  0.8407  1.8441  1.9221
   33MOL0     H 4489   5.848  10.426  10.576  0.7318 -0.0873  0.0320
   33MOL0     H 4490   5.983  10.355  10.674 -0.2516 -0.8974 -1.9304
   33MOL0     H 4491   5.786  10.393  10.859 -1.7164  2.0060 -2.7791
   33MOL0     H 4492   5.691  10.356  10.715 -1.2942 -1.5466  0.6471
   33MOL0     H 4493   5.817  10.134  10.691  1.7858 -3.4745  2.2791
   33MOL0     H 4494   5.914  10.198  10.824 -0.8720  0.5384  1.2391
   33MOL0     H 4495   5.617  10.112  10.836  1.5717 -1.3138 -1.9779
   33MOL0     H 4496   5.705  10.191  10.971  1.5473  0.5053  0.1373
   33MOL0     H 4497   5.781   9.917  10.851  1.3053  0.6302  0.9122
   33MOL0     H 4498   5.870  10.000  10.978  0.0772 -2.0957  1.9039
   33MOL0     H 4499   5.612   9.987  11.089 -0.9843 -2.6279  2.0442
   33MOL0     H 4500   5.749   9.885  11.134 -1.4559  1.1824 -0.0610
   33MOL0     H 4501   5.518   9.784  11.037  0.0090  0.2089 -0.1079
   33MOL0     H 4502   5.581   9.818  10.892  1.9828  1.7389  0.9499
   33MOL0     H 4503   5.632   9.547  10.817  2.9432 -1.4104 -1.9410
   33MOL0     H 4504   5.754   9.283  10.835  1.0123  0.5187 -0.8178
   33MOL0     H 4505   5.884   9.272  10.946 -0.1556  0.9789  0.0754
   33MOL0     H 4506   6.007   9.447  10.804  1.8596 -1.5696 -1.1555
   33MOL0     H 4507   5.991   9.285  10.737 -2.0202 -0.6934 -0.3288
   33MOL0     H 4508   5.784   9.339  10.613  2.2088 -3.6295  1.3645
   33MOL0     H 4509   5.793   9.505  10.642 -1.4112  0.0987 -0.7481
   33MOL0     H 4510   5.890   9.488  10.439 -0.2494  1.0018  0.9280
   33MOL0     H 4511   6.035   9.482  10.552  1.5956 -0.7322 -2.0067
   33MOL0     H 4512   6.134   9.523  10.367  1.2654 -0.0566 -0.0897
   33MOL0     H 4513   6.264   9.614  10.130  1.6346  4.2418 -0.3161
   33MOL0     H 4514   6.425   9.562  10.159 -0.0630  1.8632 -0.1040
   33MOL0     H 4515   6.339   9.641  10.290 -0.4856  0.8817 -1.0551
   33MOL0     H 4516   6.373   8.962   9.870  0.0282  1.5202  0.4411
   33MOL0     H 4517   6.452   8.878   9.667  1.8251 -0.7115 -1.3151
   33MOL0     H 4518   6.678   9.177   9.384  0.0068  1.7792  1.4165
   33MOL0     H 4519   6.793   9.117   9.491  2.0702 -3.7672 -0.2258
   33MOL0     H 4520   6.697   8.960   9.242  0.9262 -3.4451 -0.4719
   33MOL0     H 4521   6.847   9.046   9.259 -1.1008 -1.0968 -1.7445
   33MOL0     H 4522   6.869   8.801   9.303 -1.2353  0.6362 -1.0440
   33MOL0     H 4523   6.768   8.828   9.447 -0.7152 -0.1499 -2.0397
   33MOL0     H 4524   6.964   8.994   9.516 -0.9707  0.2740 -0.7995
   33MOL0     H 4525   7.040   8.955   9.361  0.2339  0.6485 -0.3117
   33MOL0     H 4526   7.055   8.717   9.444 -0.8733 -1.2502  0.3427
   33MOL0     H 4527   7.145   8.827   9.552 -0.0199 -3.0786 -0.4691
   33MOL0     H 4528   7.002   8.648   9.680 -2.9830 -1.7015  0.2797
   33MOL0     H 4529   6.855   8.732   9.610 -0.3928  1.7194  1.8147
   33MOL0     H 4530   6.934   8.951   9.738 -1.8444  0.5817  3.2564
   33MOL0     H 4531   7.045   8.834   9.820  0.0053 -1.1002 -0.5122
   33MOL0     H 4532   6.739   8.809   9.789  1.0367 -2.1674 -1.0944
   33MOL0     H 4533   6.830   8.860   9.941  0.1078  0.1999  0.7088
   33MOL0     H 4534   6.701   9.244   9.621  0.3592 -0.8733 -0.6756
   33MOL0     H 4535   6.592   9.328   9.844 -0.7496 -0.0827  0.8032
   33MOL0     H 4536   6.240   9.093  10.146  2.4157  1.1259 -0.3772
   33MOL0     H 4537   6.101   9.090  10.346 -0.5506 -0.0319  0.2309
   33MOL0     H 4538   5.813  10.555  11.010  1.0992 -1.4235 -3.8149
   33MOL0     H 4539   5.702  10.749  11.106 -1.5866 -3.5834 -2.7848
   33MOL0     H 4540   5.543  11.238  10.957  1.7955 -1.7174 -0.5098
   33MOL0     H 4541   5.365  11.352  11.084 -0.3777 -0.8361 -1.4018
   33MOL0     H 4542   5.319  11.565  11.170  0.2594 -0.2464 -0.6234
   33MOL0     H 4543   5.211  11.480  11.289 -0.4385  2.3313  3.4030
   33MOL0     H 4544   5.215  11.730  11.311  2.9129  2.4505 -4.4345
   33MOL0     H 4545   5.389  11.719  11.320  0.3474  0.8010 -0.2186
   33MOL0     H 4546   5.198  11.597  11.527  1.0012 -0.6312  1.8488
   33MOL0     H 4547   5.375  11.586  11.526 -1.6446 -1.0566 -0.4277
   33MOL0     H 4548   5.407  11.830  11.555  0.2981  0.2620 -0.5349
   33MOL0     H 4549   5.277  11.775  11.670 -5.1108 -1.0281 -1.1996
   33MOL0     H 4550   5.057  12.064  11.496 -0.1276  0.4485  1.4235
   33MOL0     H 4551   5.624  11.359  11.422  1.4584 -0.5911 -0.1457
   33MOL0     H 4552   5.755  11.085  11.384 -0.8295  0.6554  0.9179
   33MOL0     H 4553   5.886  11.146  11.274 -0.6521 -1.0069  1.0630
   33MOL0     H 4554   5.839  11.236  11.407  1.1897  1.1417 -0.9033
   34MOL0     O 4555   7.143   3.155   7.729 -0.0779  0.1662  0.1410
   34MOL0     C 4556   7.042   3.122   7.666 -0.6674  0.1467 -0.0688
   34MOL0     O 4557   6.987   3.192   7.564 -0.5685 -0.0784  0.4008
   34MOL0     C 4558   7.065   3.282   7.502  0.3413  0.0966  0.0689
   34MOL0     C 4559   7.054   3.421   7.517 -0.0727  0.1214 -0.0671
   34MOL0     C 4560   7.124   3.507   7.439  0.6275 -0.6951  0.7881
   34MOL0     C 4561   7.211   3.466   7.335  0.7472  0.2182 -0.6005
   34MOL0     O 4562   7.270   3.547   7.242 -0.2236 -0.3049  0.3718
   34MOL0     C 4563   7.361   3.501   7.146 -1.1043  0.2229  0.7313
   34MOL0     C 4564   7.455   3.609   7.099  0.2830  0.2023  0.2710
   34MOL0     C 4565   7.383   3.721   7.018 -0.4369 -0.4689  0.9181
   34MOL0     C 4566   7.473   3.838   6.982 -0.1834  0.1467  0.6124
   34MOL0     C 4567   7.475   3.929   7.101 -0.0373 -1.0965  0.1215
   34MOL0     C 4568   7.552   4.062   7.083  0.3533 -1.0206 -0.1265
   34MOL0     C 4569   7.489   4.167   6.999  0.5411  0.3932 -0.0345
   34MOL0     C 4570   7.580   4.295   7.010 -0.3882 -0.6954 -0.1347
   34MOL0     N 4571   7.522   4.416   6.948  0.0580 -0.0033 -0.5078
   34MOL0     C 4572   7.495   4.442   6.812  0.1409  0.3047  0.5672
   34MOL0     C 4573   7.471   4.575   6.819 -0.2483  0.2617  1.0240
   34MOL0     C 4574   7.440   4.670   6.707  0.2824 -0.4554 -0.0724
   34MOL0     C 4575   7.295   4.730   6.706 -0.9935 -0.1452 -0.7004
   34MOL0     C 4576   7.214   4.695   6.574 -0.6062 -0.5411  0.2051
   34MOL0     C 4577   7.206   4.798   6.467 -0.7125  0.1437 -0.4105
   34MOL0     O 4578   7.133   4.907   6.518 -0.4036  0.9406  0.2677
   34MOL0     C 4579   7.111   5.015   6.442 -0.5955 -0.4162  0.0210
   34MOL0     C 4580   7.108   5.145   6.499  0.9274 -0.4681 -0.0401
   34MOL0     C 4581   7.100   5.258   6.418 -0.3551 -0.8611 -0.1750
   34MOL0     C 4582   7.144   5.385   6.484  0.0528  1.0748  0.3430
   34MOL0     C 4583   7.083   5.252   6.283  0.1454  0.2122  0.4341
   34MOL0     C 4584   7.080   5.373   6.200  0.5974 -0.5458 -0.6552
   34MOL0     O 4585   7.131   5.365   6.074  0.1028  0.4038  0.2636
   34MOL0     C 4586   7.120   5.467   5.980  0.0899  0.4904 -0.6836
   34MOL0     C 4587   7.010   5.555   5.961 -0.0218  0.6355  0.7190
   34MOL0     C 4588   7.022   5.653   5.859 -0.1044  0.0755  0.4359
   34MOL0     C 4589   7.143   5.679   5.783 -1.0216  0.9018 -0.0530
   34MOL0     O 4590   7.145   5.779   5.680  0.0485  0.6378 -0.4221
   34MOL0     C 4591   7.262   5.854   5.655 -0.3955  1.5766  1.3297
   34MOL0     C 4592   7.300   5.972   5.743  0.0924  0.1093 -0.5720
   34MOL0     C 4593   7.416   6.047   5.702 -0.3249  0.0238  0.1902
   34MOL0     C 4594   7.479   6.122   5.815 -0.4923 -0.3727  0.2203
   34MOL0     C 4595   7.380   6.216   5.887  1.5186 -0.1681  1.4613
   34MOL0     C 4596   7.445   6.305   5.998  0.4234 -0.9487  0.2047
   34MOL0     C 4597   7.350   6.417   6.030 -0.3653 -0.1883 -0.0293
   34MOL0     C 4598   7.228   6.373   6.119  0.3563 -0.3437  0.8240
   34MOL0    Cl 4599   7.111   6.506   6.163  0.1907  0.4440  0.2485
   34MOL0     C 4600   7.257   5.597   5.817 -0.0367 -0.0869  1.9396
   34MOL0     C 4601   7.237   5.491   5.908  0.3860  0.2835 -0.5749
   34MOL0     O 4602   7.003   5.462   6.246  0.3196  0.2171  0.6163
   34MOL0     C 4603   7.067   5.128   6.231 -0.0826 -0.0276  0.5753
   34MOL0     C 4604   7.098   5.019   6.300 -0.1865 -0.2077 -0.3704
   34MOL0     N 4605   7.470   4.621   6.952 -1.0038 -0.5356 -0.5304
   34MOL0     N 4606   7.496   4.525   7.024  0.1916 -0.1226 -0.9192
   34MOL0     C 4607   7.206   3.324   7.310 -1.0046 -0.5161 -0.6109
   34MOL0     C 4608   7.141   3.236   7.390  0.6534  0.4075 -0.6458
   34MOL0     C 4609   6.965   3.000   7.719  1.0660 -0.1639 -0.3715
   34MOL0     C 4610   6.823   3.002   7.678 -0.1660  0.3051 -0.2969
   34MOL0     C 4611   6.740   2.904   7.725 -0.4096  0.0250 -0.1230
   34MOL0     C 4612   6.784   2.811   7.815  0.0253  0.1740  0.2020
   34MOL0     O 4613   6.697   2.726   7.868 -0.2793  0.0466 -0.5543
   34MOL0     C 4614   6.716   2.580   7.846 -0.2450 -1.0442  0.1577
   34MOL0     C 4615   6.617   2.507   7.929  0.5954  0.1174 -0.6351
   34MOL0     C 4616   6.656   2.361   7.955  0.8838 -0.0512 -0.1527
   34MOL0     C 4617   6.545   2.286   8.026  0.2647  0.2702 -1.0477
   34MOL0     C 4618   6.574   2.144   8.072 -0.4079  0.1460  0.2811
   34MOL0     C 4619   6.598   2.040   8.128  0.8290  0.3222 -0.2115
   34MOL0     C 4620   6.913   2.803   7.854  0.2824  0.1637  0.7066
   34MOL0     C 4621   7.008   2.892   7.804  0.2776 -0.4389 -0.1291
   34MOL0     C 4622   7.144   2.883   7.856 -0.1763 -0.1892  0.5275
   34MOL0     H 4623   6.989   3.455   7.597  1.7118  2.9351  0.3335
   34MOL0     H 4624   7.099   3.610   7.462 -1.1206 -0.7930 -0.4667
   34MOL0     H 4625   7.305   3.453   7.064  0.6536 -1.2244  0.3214
   34MOL0     H 4626   7.415   3.418   7.192 -2.7516 -2.1409 -1.2938
   34MOL0     H 4627   7.508   3.655   7.183  1.9817  3.9387 -2.5722
   34MOL0     H 4628   7.526   3.562   7.030  0.8738 -3.6792  3.1505
   34MOL0     H 4629   7.351   3.681   6.921  0.4396  0.0947  0.3855
   34MOL0     H 4630   7.292   3.759   7.066  1.3014  2.6954  1.9481
   34MOL0     H 4631   7.572   3.798   6.958 -0.6075 -0.8097  0.4140
   34MOL0     H 4632   7.433   3.885   6.892  3.5642  3.4558  0.4222
   34MOL0     H 4633   7.520   3.877   7.186  3.4827 -0.2602 -1.0646
   34MOL0     H 4634   7.374   3.959   7.130  1.2448  3.0547  0.8938
   34MOL0     H 4635   7.571   4.099   7.185  0.3046 -1.8131  0.1768
   34MOL0     H 4636   7.654   4.037   7.054  0.9755 -0.4390  1.4105
   34MOL0     H 4637   7.382   4.180   7.020  0.4766 -2.0053  1.4474
   34MOL0     H 4638   7.499   4.119   6.901 -1.9353 -0.5635  0.1200
   34MOL0     H 4639   7.602   4.321   7.114 -2.1045 -1.0286  0.3525
   34MOL0     H 4640   7.682   4.281   6.972 -0.9738  1.1516 -2.6423
   34MOL0     H 4641   7.514   4.374   6.730  3.0250  0.7137  0.8023
   34MOL0     H 4642   7.449   4.618   6.611 -0.1497 -1.9680  0.6897
   34MOL0     H 4643   7.507   4.755   6.694  0.9704 -0.9684  0.1091
   34MOL0     H 4644   7.249   4.691   6.798  1.5973  0.2033  0.8173
   34MOL0     H 4645   7.296   4.837   6.726  0.7142 -0.3665  0.6313
   34MOL0     H 4646   7.248   4.600   6.532  0.6531 -0.4964  1.0645
   34MOL0     H 4647   7.110   4.685   6.607 -1.7286  2.2662 -2.0653
   34MOL0     H 4648   7.312   4.819   6.450 -0.7889 -0.4381 -1.7130
   34MOL0     H 4649   7.160   4.755   6.378  0.0803 -0.1011 -0.7073
   34MOL0     H 4650   7.128   5.162   6.604 -2.4691  1.5889  0.4344
   34MOL0     H 4651   7.046   5.426   6.513 -0.2379  0.2870  0.5090
   34MOL0     H 4652   7.209   5.449   6.424 -2.2386  0.9053 -2.5127
   34MOL0     H 4653   7.198   5.371   6.578 -1.6921 -4.5074  0.8628
   34MOL0     H 4654   6.925   5.523   6.022 -0.3207 -0.6561 -0.3294
   34MOL0     H 4655   6.942   5.718   5.825  2.2525  2.8649 -0.1870
   34MOL0     H 4656   7.347   5.786   5.648  0.7241  3.0333 -0.0918
   34MOL0     H 4657   7.249   5.907   5.560  2.9076  0.8241  0.3440
   34MOL0     H 4658   7.208   6.031   5.740 -1.1830 -1.7204  0.4878
   34MOL0     H 4659   7.304   5.935   5.846  3.2168  0.7891 -0.3678
   34MOL0     H 4660   7.399   6.124   5.626 -0.4005 -0.2713 -0.0930
   34MOL0     H 4661   7.478   5.969   5.658  2.1938  0.4836  2.6753
   34MOL0     H 4662   7.568   6.172   5.776  0.6032 -3.8615 -2.2698
   34MOL0     H 4663   7.517   6.051   5.890  0.3264  0.4089  0.5697
   34MOL0     H 4664   7.351   6.292   5.815  3.0542 -0.6338  0.2958
   34MOL0     H 4665   7.285   6.173   5.921 -0.1286  1.4596 -0.7780
   34MOL0     H 4666   7.541   6.336   5.956 -0.4722  0.4463 -0.9373
   34MOL0     H 4667   7.457   6.245   6.088  0.2937 -1.4662 -0.1197
   34MOL0     H 4668   7.331   6.472   5.937  3.5028  0.1898 -0.7827
   34MOL0     H 4669   7.406   6.486   6.093 -1.6169 -0.2824  1.2486
   34MOL0     H 4670   7.262   6.319   6.208 -0.0279  1.4372  2.1134
   34MOL0     H 4671   7.164   6.312   6.055 -1.1258  2.0403 -0.1187
   34MOL0     H 4672   7.356   5.620   5.780 -0.9243  1.3444  0.2775
   34MOL0     H 4673   7.332   5.443   5.929 -0.7465 -1.5810  0.6572
   34MOL0     H 4674   7.033   5.114   6.129 -0.9210  2.0482  0.5087
   34MOL0     H 4675   7.079   4.924   6.250  0.1711 -1.1473  1.1932
   34MOL0     H 4676   7.268   3.271   7.237 -0.0238 -0.1114 -0.0896
   34MOL0     H 4677   7.135   3.129   7.372 -3.0653  0.3405  0.1720
   34MOL0     H 4678   6.791   3.086   7.618  1.2798  2.6465  2.0010
   34MOL0     H 4679   6.632   2.909   7.711 -0.5415  0.1307  0.8727
   34MOL0     H 4680   6.697   2.558   7.741  1.2154 -0.6409 -0.2071
   34MOL0     H 4681   6.819   2.552   7.868  0.4577 -1.0036 -2.6620
   34MOL0     H 4682   6.524   2.512   7.873  1.2898 -2.2925 -2.1663
   34MOL0     H 4683   6.613   2.557   8.026  0.6921 -3.3857  1.3425
   34MOL0     H 4684   6.679   2.307   7.862  0.7298  1.4177 -1.0823
   34MOL0     H 4685   6.738   2.355   8.027  0.4213 -2.7237  0.2540
   34MOL0     H 4686   6.459   2.279   7.958 -0.4302 -0.0536 -0.1558
   34MOL0     H 4687   6.514   2.332   8.120 -0.8983 -1.0373 -0.7598
   34MOL0     H 4688   6.616   1.949   8.183 -0.5895  0.9553  1.4091
   34MOL0     H 4689   6.960   2.733   7.922 -0.1990  1.3050  2.2570
   34MOL0     H 4690   7.181   2.978   7.897  0.8903  1.9145 -4.5122
   34MOL0     H 4691   7.162   2.808   7.933 -1.4098 -2.3712 -1.2052
   34MOL0     H 4692   7.211   2.860   7.773 -0.5602  0.4764  0.0219
   35MOL0     O 4693   4.501   7.664   8.394 -0.0605 -0.3013 -0.3196
   35MOL0     C 4694   4.506   7.536   8.405 -0.5806 -0.3019  1.0022
   35MOL0     O 4695   4.519   7.448   8.298  0.9765  0.3428 -0.5328
   35MOL0     C 4696   4.530   7.475   8.162  0.0444  0.2872 -1.0018
   35MOL0     C 4697   4.558   7.603   8.109 -0.3149 -0.3391 -0.5360
   35MOL0     C 4698   4.554   7.628   7.972 -0.7923  0.1580  0.4808
   35MOL0     C 4699   4.547   7.522   7.880  1.1758 -0.0677  0.9182
   35MOL0     O 4700   4.561   7.531   7.741 -0.2682  0.2016 -0.3358
   35MOL0     C 4701   4.560   7.666   7.686  0.5993  0.2075 -0.2149
   35MOL0     C 4702   4.545   7.659   7.534 -0.3781  0.1217 -0.2443
   35MOL0     C 4703   4.676   7.594   7.466 -0.5687  0.4127  0.2253
   35MOL0     C 4704   4.651   7.580   7.311 -0.5080 -0.1643 -0.0445
   35MOL0     C 4705   4.695   7.710   7.249  0.3343  0.3009  0.8384
   35MOL0     C 4706   4.644   7.724   7.105  0.5713  0.5938  0.3425
   35MOL0     C 4707   4.672   7.861   7.036 -0.7398  0.0732  0.2233
   35MOL0     C 4708   4.827   7.887   7.023  0.7524 -0.1994  1.4795
   35MOL0     N 4709   4.855   7.964   6.893  0.0511 -0.5897 -1.3881
   35MOL0     C 4710   4.803   8.093   6.863  0.4425 -0.7203  0.4273
   35MOL0     C 4711   4.850   8.127   6.744 -0.4680  0.5180  0.6253
   35MOL0     C 4712   4.797   8.255   6.674 -0.2872 -0.2929  0.0083
   35MOL0     C 4713   4.863   8.270   6.533 -0.7696  0.2256 -0.8490
   35MOL0     C 4714   4.815   8.403   6.467 -0.4751  1.1962 -0.9844
   35MOL0     C 4715   4.902   8.442   6.348 -0.3072  0.0495  0.0117
   35MOL0     O 4716   5.041   8.414   6.379  0.2475 -0.0916 -0.1335
   35MOL0     C 4717   5.118   8.488   6.307  0.0384 -0.4019  0.1494
   35MOL0     C 4718   5.154   8.450   6.179 -0.2022 -0.1002  0.0767
   35MOL0     C 4719   5.227   8.528   6.093 -0.2755  0.1385  0.2092
   35MOL0     C 4720   5.255   8.471   5.957  0.7335 -0.2282  0.1007
   35MOL0     C 4721   5.269   8.652   6.143  0.4117 -0.0605  0.3782
   35MOL0     C 4722   5.341   8.747   6.070  1.2180  0.0266 -0.7534
   35MOL0     O 4723   5.293   8.872   6.080 -1.2317  0.1385 -0.3898
   35MOL0     C 4724   5.336   8.970   5.993 -1.0462 -0.0545  0.6205
   35MOL0     C 4725   5.468   9.002   5.950 -0.6079 -0.3766  0.3121
   35MOL0     C 4726   5.500   9.100   5.865 -0.2092 -0.8884 -0.6243
   35MOL0     C 4727   5.389   9.176   5.812  0.4761  0.9373 -0.9748
   35MOL0     O 4728   5.397   9.283   5.730 -0.8290  0.0314  0.9328
   35MOL0     C 4729   5.478   9.257   5.610  0.0864  0.1208  0.8636
   35MOL0     C 4730   5.514   9.387   5.552 -0.6478 -0.2782  0.3030
   35MOL0     C 4731   5.605   9.375   5.418 -0.4890 -0.0653  0.6070
   35MOL0     C 4732   5.515   9.328   5.299  0.0493 -0.1816  0.1471
   35MOL0     C 4733   5.588   9.326   5.162 -0.3196  0.3181  0.2114
   35MOL0     C 4734   5.495   9.329   5.049 -0.0485 -0.2211 -1.0329
   35MOL0     C 4735   5.568   9.310   4.920  0.8831 -0.9077  0.3040
   35MOL0     C 4736   5.483   9.278   4.801 -0.3391  0.7824 -0.0099
   35MOL0    Cl 4737   5.590   9.287   4.653  0.1044 -0.3061 -0.1005
   35MOL0     C 4738   5.257   9.145   5.839 -1.0955  0.2393 -1.0247
   35MOL0     C 4739   5.233   9.046   5.933  0.2688 -0.9366 -0.5145
   35MOL0     O 4740   5.442   8.716   6.006 -0.5603 -0.0120  0.1480
   35MOL0     C 4741   5.247   8.684   6.279  0.5093 -0.2236 -0.6995
   35MOL0     C 4742   5.171   8.606   6.360 -0.5342  0.4814 -0.4102
   35MOL0     N 4743   4.935   8.019   6.703  0.1452  0.5744  0.1350
   35MOL0     N 4744   4.937   7.922   6.792 -0.1598  0.5834  0.2473
   35MOL0     C 4745   4.538   7.390   7.935  0.2457 -0.6353 -0.5422
   35MOL0     C 4746   4.526   7.363   8.074  0.3216  1.2265  1.0324
   35MOL0     C 4747   4.493   7.492   8.546  0.6832 -0.9267  0.6943
   35MOL0     C 4748   4.544   7.568   8.657 -0.6058 -0.7647  0.7492
   35MOL0     C 4749   4.537   7.525   8.795  0.3002 -0.4673 -0.3532
   35MOL0     C 4750   4.467   7.409   8.817 -0.0466 -0.0679  0.3422
   35MOL0     O 4751   4.432   7.346   8.931  0.6815 -0.0227  0.1834
   35MOL0     C 4752   4.425   7.429   9.043 -0.0824  0.1122  0.2184
   35MOL0     C 4753   4.293   7.511   9.066 -0.0824 -0.4722 -0.3190
   35MOL0     C 4754   4.295   7.639   9.146 -0.3253  0.2489 -0.8539
   35MOL0     C 4755   4.321   7.609   9.292 -0.2578  0.7600  0.1562
   35MOL0     C 4756   4.342   7.727   9.373  1.1652  0.6433  0.6170
   35MOL0     C 4757   4.361   7.823   9.444  0.5942  0.6112  0.8148
   35MOL0     C 4758   4.416   7.335   8.710  0.0093 -0.3355  1.2396
   35MOL0     C 4759   4.426   7.373   8.576  0.6019 -0.2892 -0.4931
   35MOL0     C 4760   4.358   7.281   8.480  0.0490 -0.6656  0.3343
   35MOL0     H 4761   4.582   7.691   8.168 -0.0195 -1.2959  0.8119
   35MOL0     H 4762   4.559   7.734   7.948 -1.2662 -0.4587 -2.6413
   35MOL0     H 4763   4.644   7.728   7.715  0.6838 -0.8996  2.1602
   35MOL0     H 4764   4.470   7.716   7.724  2.1052  3.2906 -0.4460
   35MOL0     H 4765   4.459   7.596   7.508  0.4727 -2.2952  2.2439
   35MOL0     H 4766   4.515   7.753   7.488 -2.4248  0.6553  1.9738
   35MOL0     H 4767   4.770   7.643   7.493 -0.3820  1.8328 -2.6250
   35MOL0     H 4768   4.700   7.489   7.486 -0.7320 -0.8094 -4.6538
   35MOL0     H 4769   4.718   7.502   7.274 -2.4277 -0.9981 -1.9628
   35MOL0     H 4770   4.548   7.548   7.295  0.2931 -1.9950 -2.1044
   35MOL0     H 4771   4.803   7.717   7.235 -0.0103  0.9531 -2.1618
   35MOL0     H 4772   4.652   7.785   7.316 -0.0441 -1.6096  2.8566
   35MOL0     H 4773   4.685   7.641   7.047  1.4097  1.2938 -0.1069
   35MOL0     H 4774   4.535   7.720   7.114  0.1729  3.1108 -1.8067
   35MOL0     H 4775   4.617   7.944   7.081 -0.2156  0.6803 -0.2345
   35MOL0     H 4776   4.625   7.838   6.939  0.8645 -2.0568 -0.1218
   35MOL0     H 4777   4.860   7.940   7.113  5.1253  2.6395 -1.3796
   35MOL0     H 4778   4.880   7.792   7.012  0.1164 -0.3683 -0.5628
   35MOL0     H 4779   4.728   8.149   6.918 -0.2239 -1.8450  0.6998
   35MOL0     H 4780   4.825   8.345   6.729  1.7511  0.6117 -2.2982
   35MOL0     H 4781   4.688   8.253   6.666 -0.3076  0.4770  0.0380
   35MOL0     H 4782   4.972   8.279   6.545 -0.7415 -2.1054  1.4342
   35MOL0     H 4783   4.841   8.185   6.469 -3.1999 -0.7560  1.1158
   35MOL0     H 4784   4.709   8.404   6.439 -1.0567 -0.8243  0.8803
   35MOL0     H 4785   4.828   8.476   6.548 -1.9270  1.8410 -1.2916
   35MOL0     H 4786   4.880   8.380   6.260  3.2607 -0.8449 -0.3882
   35MOL0     H 4787   4.890   8.547   6.319  1.6737 -0.0520 -1.4013
   35MOL0     H 4788   5.112   8.358   6.138 -2.2014  0.8848 -0.2608
   35MOL0     H 4789   5.242   8.550   5.883 -2.6863 -1.3917 -0.7039
   35MOL0     H 4790   5.187   8.390   5.930 -1.8959  2.6172 -2.6953
   35MOL0     H 4791   5.355   8.427   5.952 -0.1657 -2.2810 -0.9280
   35MOL0     H 4792   5.543   8.941   6.000 -2.1442 -2.1037  0.6367
   35MOL0     H 4793   5.601   9.132   5.842 -0.3784 -0.0327 -0.2323
   35MOL0     H 4794   5.564   9.195   5.640  0.0058  1.2069  3.5877
   35MOL0     H 4795   5.424   9.192   5.541 -1.9697  0.4878  2.0446
   35MOL0     H 4796   5.433   9.451   5.515  1.3854  0.7420 -2.7920
   35MOL0     H 4797   5.573   9.440   5.626  0.6969 -1.7521  0.3468
   35MOL0     H 4798   5.686   9.304   5.436 -0.2634  0.2575  0.8538
   35MOL0     H 4799   5.650   9.473   5.404 -0.6860 -0.0229  0.2602
   35MOL0     H 4800   5.427   9.391   5.311 -2.3053 -3.6627  3.3988
   35MOL0     H 4801   5.470   9.231   5.321  1.4892 -0.8543  0.2868
   35MOL0     H 4802   5.663   9.404   5.146 -0.2316 -0.1894 -2.2849
   35MOL0     H 4803   5.654   9.239   5.164  1.0514  1.3435  0.6533
   35MOL0     H 4804   5.439   9.424   5.049 -0.1701 -0.2581  0.8145
   35MOL0     H 4805   5.413   9.257   5.062 -0.4827  0.2436 -1.1134
   35MOL0     H 4806   5.649   9.241   4.946  2.7873  1.9157  2.4294
   35MOL0     H 4807   5.616   9.403   4.889 -0.7612  0.3358  1.3170
   35MOL0     H 4808   5.398   9.346   4.796 -1.4137  0.3507  5.7320
   35MOL0     H 4809   5.451   9.173   4.804 -0.3155  0.8001  1.6567
   35MOL0     H 4810   5.184   9.210   5.792 -1.9504 -0.6054 -0.8936
   35MOL0     H 4811   5.128   9.026   5.951  0.1811 -0.6351 -0.6953
   35MOL0     H 4812   5.296   8.771   6.323  0.7180 -1.1221  0.9364
   35MOL0     H 4813   5.151   8.641   6.460  1.1674 -1.4095  0.6639
   35MOL0     H 4814   4.556   7.309   7.866  0.5332  1.0642 -2.5880
   35MOL0     H 4815   4.526   7.257   8.095  0.1659  1.4972  2.5366
   35MOL0     H 4816   4.600   7.660   8.641 -2.0978 -0.0133 -0.4009
   35MOL0     H 4817   4.573   7.596   8.868  0.3481  0.1709 -0.9931
   35MOL0     H 4818   4.427   7.358   9.126 -0.8993  0.7495  0.8009
   35MOL0     H 4819   4.514   7.490   9.062  0.0696 -0.5349  1.6754
   35MOL0     H 4820   4.222   7.436   9.103 -2.8145  1.7355 -0.7720
   35MOL0     H 4821   4.274   7.534   8.961  0.1060 -0.7153 -0.4088
   35MOL0     H 4822   4.378   7.703   9.115  0.9606 -0.6890  0.4918
   35MOL0     H 4823   4.200   7.692   9.137 -1.5241 -1.9186 -1.9808
   35MOL0     H 4824   4.412   7.548   9.300  2.1574  3.2287 -4.3703
   35MOL0     H 4825   4.244   7.546   9.337  1.0544 -2.1514 -1.3596
   35MOL0     H 4826   4.366   7.908   9.510 -0.8101  0.0031  1.7640
   35MOL0     H 4827   4.385   7.234   8.736 -0.5052  0.0857  2.3154
   35MOL0     H 4828   4.297   7.338   8.410 -0.1386 -3.8262 -2.3161
   35MOL0     H 4829   4.435   7.228   8.422 -2.2276 -1.3169 -2.3019
   35MOL0     H 4830   4.287   7.212   8.528 -1.0965 -0.7449 -1.4083
   36MOL0     O 4831   2.842   9.269   5.844  0.1792  0.0990  1.0202
   36MOL0     C 4832   2.843   9.325   5.736 -0.9035 -1.1478 -0.1820
   36MOL0     O 4833   2.926   9.291   5.630  0.5942 -0.0520 -0.0322
   36MOL0     C 4834   2.990   9.169   5.658 -0.2196 -0.5754  0.6586
   36MOL0     C 4835   3.098   9.164   5.737  0.0948  0.2919 -0.2659
   36MOL0     C 4836   3.154   9.040   5.778  0.9466  0.0301  0.0901
   36MOL0     C 4837   3.101   8.920   5.738  0.7555  0.9953 -0.4584
   36MOL0     O 4838   3.142   8.795   5.797 -0.4039 -0.1113  0.1904
   36MOL0     C 4839   3.062   8.681   5.752  1.1777  1.1578  0.3077
   36MOL0     C 4840   3.129   8.554   5.814 -0.6713 -0.4514 -0.0561
   36MOL0     C 4841   3.086   8.536   5.961 -0.0756  0.4492 -0.4808
   36MOL0     C 4842   2.941   8.483   5.980 -0.3041  0.0425  0.1310
   36MOL0     C 4843   2.881   8.523   6.115 -0.4795  0.0975  0.5611
   36MOL0     C 4844   2.739   8.471   6.151  0.3244 -1.0422  0.6673
   36MOL0     C 4845   2.743   8.322   6.152  0.6373  0.6870 -0.6699
   36MOL0     C 4846   2.612   8.245   6.194 -0.2097 -0.3578 -0.0530
   36MOL0     N 4847   2.611   8.103   6.143  0.8331  0.0359 -0.2281
   36MOL0     C 4848   2.708   8.010   6.165 -0.4553 -0.2881 -0.9462
   36MOL0     C 4849   2.651   7.889   6.144  0.7306 -0.7560  0.1405
   36MOL0     C 4850   2.734   7.772   6.182 -0.1268 -0.4999  0.1961
   36MOL0     C 4851   2.737   7.661   6.080  0.4802 -0.3850 -1.0939
   36MOL0     C 4852   2.603   7.591   6.056 -0.1569 -0.3801  0.4920
   36MOL0     C 4853   2.600   7.509   5.934  0.5288  0.5636 -0.2527
   36MOL0     O 4854   2.694   7.401   5.926  0.1235 -0.1309 -0.4612
   36MOL0     C 4855   2.643   7.278   5.959  0.3867  0.0055 -0.7243
   36MOL0     C 4856   2.620   7.252   6.084  0.5188 -0.8537  0.4586
   36MOL0     C 4857   2.565   7.122   6.133 -0.3995 -0.1552  0.0473
   36MOL0     C 4858   2.540   7.089   6.280  0.5944  1.0221  0.3439
   36MOL0     C 4859   2.531   7.020   6.034 -1.1790 -0.6735  1.2805
   36MOL0     C 4860   2.493   6.879   6.058 -0.1495 -0.0183 -1.3901
   36MOL0     O 4861   2.481   6.796   5.948 -0.1522 -0.4249  0.3129
   36MOL0     C 4862   2.469   6.657   5.962  0.0558 -0.8901  0.2331
   36MOL0     C 4863   2.384   6.599   6.054  0.0987 -0.2624  0.9034
   36MOL0     C 4864   2.363   6.465   6.051  0.6886 -0.9603  0.0501
   36MOL0     C 4865   2.421   6.384   5.958  0.7376 -0.0651 -0.3269
   36MOL0     O 4866   2.402   6.246   5.969  0.2997 -0.1170  0.0607
   36MOL0     C 4867   2.461   6.159   5.868  0.6048 -0.3382  0.7642
   36MOL0     C 4868   2.438   6.017   5.897  0.7907  0.3243  1.0299
   36MOL0     C 4869   2.455   5.919   5.774  0.1928 -0.0026  0.1004
   36MOL0     C 4870   2.391   5.785   5.813  0.0634  1.0395  0.2647
   36MOL0     C 4871   2.399   5.682   5.699 -0.0650  0.3377 -0.8433
   36MOL0     C 4872   2.351   5.731   5.567  0.1671 -0.2057 -0.3430
   36MOL0     C 4873   2.212   5.794   5.564  0.8332 -0.3214  0.0662
   36MOL0     C 4874   2.140   5.752   5.428  1.0876 -0.5688 -1.0598
   36MOL0    Cl 4875   2.232   5.824   5.281  0.0823 -0.1991 -0.0856
   36MOL0     C 4876   2.500   6.446   5.856 -0.8594 -0.6096 -0.6072
   36MOL0     C 4877   2.519   6.582   5.850  0.6732  0.5156 -0.6931
   36MOL0     O 4878   2.489   6.839   6.178 -0.1461  0.2401 -0.0974
   36MOL0     C 4879   2.556   7.063   5.897 -0.1403  0.4988  0.5776
   36MOL0     C 4880   2.617   7.187   5.863  0.6217  1.2771 -0.7028
   36MOL0     N 4881   2.523   7.910   6.106 -0.8657  0.0132  0.3161
   36MOL0     N 4882   2.492   8.042   6.103  0.6668  0.2031 -0.0777
   36MOL0     C 4883   2.982   8.932   5.646 -0.0284  0.8520 -0.9574
   36MOL0     C 4884   2.933   9.054   5.606 -0.0495 -0.5595  0.4972
   36MOL0     C 4885   2.754   9.450   5.725 -0.3071  0.1351  0.0577
   36MOL0     C 4886   2.763   9.519   5.596 -0.2663  0.5493  0.0590
   36MOL0     C 4887   2.678   9.629   5.573 -0.9589  0.0565 -0.0340
   36MOL0     C 4888   2.598   9.685   5.667 -1.7389  0.3648 -0.2428
   36MOL0     O 4889   2.538   9.810   5.650 -0.4716  0.3841 -0.1942
   36MOL0     C 4890   2.449   9.814   5.532  0.0292 -0.0332 -0.7235
   36MOL0     C 4891   2.312   9.887   5.559 -0.0951  0.6078  0.1822
   36MOL0     C 4892   2.234   9.837   5.684 -0.5488 -0.1133 -0.2480
   36MOL0     C 4893   2.208   9.684   5.688 -0.9139 -0.0136 -0.1907
   36MOL0     C 4894   2.097   9.630   5.615 -0.7352 -0.4172 -0.2483
   36MOL0     C 4895   2.011   9.577   5.543 -0.4432  0.5079  0.0956
   36MOL0     C 4896   2.605   9.624   5.794  0.2614  0.3984 -0.6388
   36MOL0     C 4897   2.668   9.508   5.824 -0.2301  0.8516 -1.1292
   36MOL0     C 4898   2.648   9.443   5.966  0.6729 -1.3672  0.1618
   36MOL0     H 4899   3.153   9.253   5.763 -0.5866  0.9942 -1.1269
   36MOL0     H 4900   3.235   9.040   5.850 -0.2614 -4.1536  1.7766
   36MOL0     H 4901   3.054   8.658   5.645 -0.1661 -0.9983  0.8040
   36MOL0     H 4902   2.964   8.702   5.795  1.2241 -0.4603  1.2709
   36MOL0     H 4903   3.111   8.460   5.761  2.8045 -1.8540  0.9047
   36MOL0     H 4904   3.235   8.579   5.804 -0.7821  0.6196  1.0894
   36MOL0     H 4905   3.152   8.464   6.009 -1.6232 -2.9110 -2.9520
   36MOL0     H 4906   3.089   8.636   6.005 -0.4588  1.6196 -2.9871
   36MOL0     H 4907   2.889   8.530   5.896  0.7742 -0.2301 -0.7175
   36MOL0     H 4908   2.934   8.374   5.976  1.0053 -0.3362  4.0173
   36MOL0     H 4909   2.869   8.631   6.103 -1.4268 -0.0445  0.2081
   36MOL0     H 4910   2.956   8.499   6.191 -0.4001 -3.4120 -0.4636
   36MOL0     H 4911   2.698   8.502   6.247 -2.5105 -0.8337 -0.5036
   36MOL0     H 4912   2.664   8.506   6.079  0.9217 -0.4554  0.3257
   36MOL0     H 4913   2.827   8.272   6.201  0.8445 -0.9998 -2.6288
   36MOL0     H 4914   2.757   8.294   6.047  3.7922  1.0488 -0.4224
   36MOL0     H 4915   2.602   8.254   6.303  0.2638  0.9261 -0.0951
   36MOL0     H 4916   2.518   8.295   6.167 -1.2930 -2.7338 -1.0320
   36MOL0     H 4917   2.807   8.023   6.207 -0.1318 -0.0886 -1.7640
   36MOL0     H 4918   2.711   7.749   6.286 -0.2408  1.8581  0.7530
   36MOL0     H 4919   2.837   7.808   6.182 -0.0059 -0.8219 -0.7386
   36MOL0     H 4920   2.780   7.699   5.987  1.0216 -0.3414 -0.8265
   36MOL0     H 4921   2.801   7.581   6.120 -0.9503 -0.2480  1.7711
   36MOL0     H 4922   2.573   7.533   6.144  0.0776  1.9346  2.1904
   36MOL0     H 4923   2.524   7.666   6.043 -0.2240 -0.2899  1.3291
   36MOL0     H 4924   2.497   7.474   5.920  0.3037  0.1291  2.0446
   36MOL0     H 4925   2.620   7.585   5.858 -4.2748  0.6293 -1.7978
   36MOL0     H 4926   2.658   7.328   6.152 -2.3542 -1.0325  2.4038
   36MOL0     H 4927   2.441   7.043   6.289 -0.1164  2.2799 -0.6418
   36MOL0     H 4928   2.556   7.174   6.348  4.6988  2.2415 -1.8484
   36MOL0     H 4929   2.621   7.025   6.316 -1.0702 -0.3272  1.8809
   36MOL0     H 4930   2.340   6.669   6.124 -3.0460  0.0714 -1.2247
   36MOL0     H 4931   2.304   6.428   6.135 -1.0285  1.3161 -0.0438
   36MOL0     H 4932   2.427   6.174   5.765  3.1821 -2.7603 -0.5942
   36MOL0     H 4933   2.569   6.176   5.863  0.5064  0.0104 -1.0044
   36MOL0     H 4934   2.508   5.997   5.978 -1.1790 -1.8364  2.3047
   36MOL0     H 4935   2.340   5.999   5.941 -0.0051  1.8051 -0.0337
   36MOL0     H 4936   2.561   5.897   5.757 -0.5805 -2.5196 -2.2733
   36MOL0     H 4937   2.399   5.953   5.687 -0.5382 -1.5156 -0.0621
   36MOL0     H 4938   2.289   5.792   5.852 -0.7773 -0.4117 -1.5504
   36MOL0     H 4939   2.446   5.744   5.899  0.3376  0.1739 -0.3096
   36MOL0     H 4940   2.506   5.661   5.690 -0.3931 -1.8392 -0.1041
   36MOL0     H 4941   2.355   5.584   5.718  0.4662 -0.3028 -2.6447
   36MOL0     H 4942   2.363   5.638   5.511  0.6692 -0.4679  0.1869
   36MOL0     H 4943   2.427   5.800   5.530 -1.4250  3.4185  2.3820
   36MOL0     H 4944   2.234   5.901   5.571  1.4659 -0.5486  2.9301
   36MOL0     H 4945   2.160   5.780   5.659  3.4104 -2.3700  1.3028
   36MOL0     H 4946   2.034   5.779   5.419  1.2048 -0.1437 -1.2167
   36MOL0     H 4947   2.138   5.644   5.415 -0.5838 -0.9755  1.7778
   36MOL0     H 4948   2.545   6.381   5.783 -0.3083 -2.1880  1.0488
   36MOL0     H 4949   2.593   6.621   5.781  0.5176  4.2673  0.9849
   36MOL0     H 4950   2.534   7.004   5.809  2.2893  1.1932 -0.5917
   36MOL0     H 4951   2.636   7.213   5.760 -1.0752 -1.3290 -1.7855
   36MOL0     H 4952   2.928   8.844   5.614  0.1901  1.1028 -2.0325
   36MOL0     H 4953   2.843   9.057   5.545  0.3808  0.2640 -0.1255
   36MOL0     H 4954   2.832   9.482   5.521 -1.1084 -3.8178  1.1299
   36MOL0     H 4955   2.670   9.681   5.477 -0.3755 -0.2199 -0.2346
   36MOL0     H 4956   2.498   9.876   5.457  1.2086  1.5297  1.2426
   36MOL0     H 4957   2.420   9.717   5.489  1.8498 -0.7499 -0.4299
   36MOL0     H 4958   2.259   9.851   5.471  0.1881 -1.1310  0.6766
   36MOL0     H 4959   2.322   9.996   5.553  2.1642  0.6689  2.7916
   36MOL0     H 4960   2.306   9.852   5.764 -1.1071 -2.9151  0.8899
   36MOL0     H 4961   2.138   9.888   5.696 -0.7115 -0.6964  1.0271
   36MOL0     H 4962   2.196   9.656   5.793  0.2345 -1.2818 -0.3688
   36MOL0     H 4963   2.290   9.625   5.645 -1.1977  1.0054 -2.2848
   36MOL0     H 4964   1.948   9.537   5.467  1.8713 -1.7466 -0.7804
   36MOL0     H 4965   2.539   9.663   5.870 -2.2202 -0.3113 -2.3290
   36MOL0     H 4966   2.550   9.464   6.009  0.6924 -1.4348  0.2378
   36MOL0     H 4967   2.654   9.334   5.960 -0.1482 -1.3416 -2.9166
   36MOL0     H 4968   2.725   9.482   6.034  0.8763  1.9716 -1.7614
   37MOL0     O 4969   9.900   2.093   7.981  0.7720  0.3708  0.3521
   37MOL0     C 4970   9.802   2.162   7.999  0.7225 -1.4267 -0.4087
   37MOL0     O 4971   9.681   2.149   7.937  0.0460  0.0284 -0.2725
   37MOL0     C 4972   9.655   2.044   7.855 -1.5887 -0.1881 -0.3833
   37MOL0     C 4973   9.714   1.910   7.863  0.2947 -0.3596 -0.4134
   37MOL0     C 4974   9.659   1.804   7.785 -0.3607  0.8723  0.9282
   37MOL0     C 4975   9.552   1.826   7.697  0.1748 -0.9370 -0.2600
   37MOL0     O 4976   9.483   1.726   7.626  0.7302 -0.0297 -0.4521
   37MOL0     C 4977   9.522   1.584   7.639  0.1675 -0.2079  0.0628
   37MOL0     C 4978   9.497   1.513   7.508  0.4383  1.3853  0.3615
   37MOL0     C 4979   9.365   1.444   7.494 -0.1350 -0.3141  0.1774
   37MOL0     C 4980   9.346   1.368   7.355  0.1342  0.0891 -0.0254
   37MOL0     C 4981   9.212   1.297   7.364 -0.1813  1.5154 -0.9001
   37MOL0     C 4982   9.195   1.216   7.235  0.6470 -0.6009  0.2970
   37MOL0     C 4983   9.280   1.092   7.237  0.5397  0.8596  0.1813
   37MOL0     C 4984   9.242   1.011   7.105  0.7063 -0.0340 -0.2198
   37MOL0     N 4985   9.332   0.898   7.095 -0.6282  0.1554 -0.0193
   37MOL0     C 4986   9.448   0.901   7.026  0.4409  1.0927 -0.7004
   37MOL0     C 4987   9.519   0.793   7.047 -0.6833 -0.6004  0.2089
   37MOL0     C 4988   9.643   0.767   6.969  0.2792  0.2322  0.1385
   37MOL0     C 4989   9.618   0.660   6.857 -0.8737  0.3518  0.4301
   37MOL0     C 4990   9.647   0.515   6.904 -0.1399 -0.7488  0.2301
   37MOL0     C 4991   9.694   0.413   6.800  0.2372  0.9734 -0.1837
   37MOL0     O 4992   9.803   0.465   6.722 -0.4124  0.1883 -0.5332
   37MOL0     C 4993   9.853   0.399   6.621 -0.2594  0.2379  0.3233
   37MOL0     C 4994   9.907   0.485   6.524  0.0496 -0.4469 -0.0836
   37MOL0     C 4995   9.939   0.439   6.400 -0.6585  1.2735  0.2019
   37MOL0     C 4996   9.956   0.537   6.298 -1.1459  0.1279 -0.9085
   37MOL0     C 4997   9.961   0.299   6.388 -0.0173 -0.0560  0.4012
   37MOL0     C 4998  10.009   0.231   6.263 -0.2237  0.4328  0.7861
   37MOL0     O 4999  10.023   0.089   6.277 -0.1914 -0.2346  0.5204
   37MOL0     C 5000  10.086   0.019   6.176 -0.4276  0.2403  0.3807
   37MOL0     C 5001  10.066   0.024   6.040 -1.0812  1.0581  0.2389
   37MOL0     C 5002  10.130  -0.071   5.948  0.5527  0.2404 -0.4169
   37MOL0     C 5003  10.228  -0.158   5.996 -0.3813 -0.6715 -0.5547
   37MOL0     O 5004  10.295  -0.250   5.924  0.0716 -0.4842  0.2056
   37MOL0     C 5005  10.232  -0.315   5.813 -0.0461  0.3546  0.0323
   37MOL0     C 5006  10.306  -0.441   5.759  0.2151  0.4351 -0.7551
   37MOL0     C 5007  10.374  -0.524   5.882  1.1367 -0.5737 -0.0619
   37MOL0     C 5008  10.478  -0.618   5.818  0.1187 -0.1455  0.4558
   37MOL0     C 5009  10.582  -0.661   5.924 -0.7097  0.2267 -0.3349
   37MOL0     C 5010  10.684  -0.776   5.872  0.9515  0.0774  0.3234
   37MOL0     C 5011  10.799  -0.786   5.976 -0.1631 -0.0645 -0.1176
   37MOL0     C 5012  10.784  -0.857   6.113  0.2631  0.0264  0.1101
   37MOL0    Cl 5013  10.910  -0.806   6.207 -0.1791  0.1145 -0.0048
   37MOL0     C 5014  10.256  -0.158   6.137  0.9348  0.2017 -0.0210
   37MOL0     C 5015  10.189  -0.070   6.226  0.7640  0.0394 -0.4077
   37MOL0     O 5016  10.037   0.293   6.159 -0.0128  0.5082 -0.9949
   37MOL0     C 5017   9.919   0.206   6.497  0.4082  0.1282  0.1660
   37MOL0     C 5018   9.857   0.264   6.608  0.1788 -0.4651  1.0358
   37MOL0     N 5019   9.441   0.715   7.133 -0.4705  0.2246 -0.1745
   37MOL0     N 5020   9.326   0.775   7.158  0.0288 -0.5353  0.3333
   37MOL0     C 5021   9.501   1.955   7.691  0.3842  0.0608 -0.3147
   37MOL0     C 5022   9.546   2.053   7.772  0.0603 -0.9528  0.5433
   37MOL0     C 5023   9.820   2.277   8.102 -0.3013  0.4692 -0.1399
   37MOL0     C 5024   9.713   2.289   8.200 -0.0414 -0.0124 -1.1245
   37MOL0     C 5025   9.718   2.383   8.302  0.2394  0.1370  0.2105
   37MOL0     C 5026   9.833   2.461   8.311 -0.0011  0.1371 -0.4981
   37MOL0     O 5027   9.848   2.551   8.417 -0.8284  0.1569 -0.0037
   37MOL0     C 5028   9.732   2.616   8.446 -0.7718 -0.1541 -0.1571
   37MOL0     C 5029   9.781   2.754   8.494 -0.0805  0.7730  0.5573
   37MOL0     C 5030   9.831   2.758   8.635 -0.1518 -0.5763  0.7303
   37MOL0     C 5031   9.852   2.908   8.683  0.4413 -0.3640 -0.0796
   37MOL0     C 5032   9.742   3.010   8.679  0.7183  0.2338  0.4428
   37MOL0     C 5033   9.663   3.106   8.708  0.3590  0.1462 -0.0459
   37MOL0     C 5034   9.934   2.444   8.222 -0.8434  0.3143 -0.0351
   37MOL0     C 5035   9.934   2.350   8.125 -0.5653  0.2267 -0.0812
   37MOL0     C 5036  10.060   2.334   8.048  1.0561  0.1706 -0.1720
   37MOL0     H 5037   9.793   1.886   7.933 -0.0289  1.0615  0.4833
   37MOL0     H 5038   9.699   1.703   7.796 -0.1776  0.8533  0.1504
   37MOL0     H 5039   9.460   1.533   7.713  0.4839 -1.7781 -0.7245
   37MOL0     H 5040   9.624   1.565   7.675  0.9508  1.8612 -0.8604
   37MOL0     H 5041   9.497   1.592   7.432  0.6012  0.1470 -0.9783
   37MOL0     H 5042   9.571   1.434   7.492 -1.3680  0.0260 -2.0400
   37MOL0     H 5043   9.352   1.379   7.581 -5.4045  3.2226  2.5483
   37MOL0     H 5044   9.280   1.513   7.485 -1.5026 -1.7467  1.5850
   37MOL0     H 5045   9.348   1.454   7.288  0.3089  1.9075  2.2196
   37MOL0     H 5046   9.434   1.304   7.343 -0.0551 -0.3471  0.8175
   37MOL0     H 5047   9.125   1.360   7.386 -2.6667 -2.1997  1.0481
   37MOL0     H 5048   9.217   1.212   7.433  0.9275 -0.8382 -3.6275
   37MOL0     H 5049   9.088   1.193   7.225  0.7478 -1.3873  0.9117
   37MOL0     H 5050   9.232   1.285   7.159  3.5094 -0.1262  1.9791
   37MOL0     H 5051   9.262   1.032   7.326  0.0238  0.9392  0.1323
   37MOL0     H 5052   9.386   1.115   7.243  1.1957 -1.2583 -1.6927
   37MOL0     H 5053   9.139   0.976   7.106  1.2618 -1.7717 -0.5839
   37MOL0     H 5054   9.245   1.075   7.016 -0.8225  1.3600  0.6850
   37MOL0     H 5055   9.477   0.984   6.962  2.3790  0.7703 -0.2957
   37MOL0     H 5056   9.725   0.732   7.033  2.3993 -1.0811 -3.0574
   37MOL0     H 5057   9.689   0.864   6.947  0.3821  0.6124  1.8790
   37MOL0     H 5058   9.520   0.665   6.809 -0.8068 -3.0436 -0.3491
   37MOL0     H 5059   9.692   0.677   6.779 -1.2226 -2.7043 -0.7142
   37MOL0     H 5060   9.720   0.513   6.986 -0.7627 -0.8105  0.7921
   37MOL0     H 5061   9.556   0.475   6.951 -0.7014  1.6349  1.3241
   37MOL0     H 5062   9.728   0.325   6.856 -3.0000  1.4346  2.7860
   37MOL0     H 5063   9.611   0.377   6.739 -0.3752 -3.4009  2.7519
   37MOL0     H 5064   9.906   0.591   6.546  0.4625 -0.6234  0.8337
   37MOL0     H 5065  10.056   0.535   6.253  0.9472 -1.8388  3.2537
   37MOL0     H 5066   9.959   0.639   6.336  3.2812  0.1442 -0.7300
   37MOL0     H 5067   9.876   0.534   6.224 -2.0462 -3.5313  0.0015
   37MOL0     H 5068   9.999   0.089   5.984 -0.7456  1.5761  0.4258
   37MOL0     H 5069  10.120  -0.050   5.842  0.9139  0.0164 -0.4966
   37MOL0     H 5070  10.135  -0.353   5.848  0.4112 -0.8338  0.0522
   37MOL0     H 5071  10.216  -0.248   5.728 -2.0186 -1.3900 -1.0597
   37MOL0     H 5072  10.237  -0.508   5.707 -0.1716 -0.3443  0.6937
   37MOL0     H 5073  10.376  -0.408   5.682 -0.5040 -0.9040 -2.0299
   37MOL0     H 5074  10.308  -0.593   5.937  1.8233 -1.0011  0.2368
   37MOL0     H 5075  10.421  -0.449   5.947 -0.1385  3.6473 -3.5124
   37MOL0     H 5076  10.521  -0.572   5.729 -0.2110  0.1438  0.4426
   37MOL0     H 5077  10.433  -0.705   5.769  0.4632  0.7080 -1.4577
   37MOL0     H 5078  10.652  -0.579   5.944 -0.3696 -0.1687  0.1315
   37MOL0     H 5079  10.537  -0.707   6.012  1.6367  3.2672  2.7520
   37MOL0     H 5080  10.729  -0.753   5.775  2.1534 -2.2143  0.2713
   37MOL0     H 5081  10.625  -0.868   5.865  1.0650 -0.0660  1.1026
   37MOL0     H 5082  10.841  -0.686   5.989  1.6796 -0.9280  1.0355
   37MOL0     H 5083  10.866  -0.852   5.920 -0.0239 -1.0576  1.1553
   37MOL0     H 5084  10.785  -0.965   6.100  1.0600  0.1691 -1.3093
   37MOL0     H 5085  10.687  -0.822   6.152 -0.4315 -1.3586 -0.3201
   37MOL0     H 5086  10.336  -0.223   6.171  1.9599 -0.4001 -3.2524
   37MOL0     H 5087  10.231  -0.072   6.326  1.2800  0.7419 -0.5988
   37MOL0     H 5088   9.931   0.099   6.486  2.5199  0.2445  0.9444
   37MOL0     H 5089   9.819   0.194   6.682 -3.5022 -1.7440 -1.7612
   37MOL0     H 5090   9.415   1.959   7.626 -0.2774 -0.7640  0.4764
   37MOL0     H 5091   9.484   2.141   7.762 -0.7287 -1.3673  1.5920
   37MOL0     H 5092   9.627   2.223   8.203 -0.7198  0.8203 -1.7051
   37MOL0     H 5093   9.629   2.410   8.358 -2.0286  0.1632 -3.1421
   37MOL0     H 5094   9.669   2.624   8.357  1.8947  0.2701 -2.1318
   37MOL0     H 5095   9.683   2.556   8.524 -1.8344 -1.3266 -1.6538
   37MOL0     H 5096   9.694   2.820   8.487  1.0435  2.4387  1.3954
   37MOL0     H 5097   9.860   2.787   8.425  0.9300 -2.1660  0.1419
   37MOL0     H 5098   9.754   2.716   8.700  1.0962 -0.3941  2.3937
   37MOL0     H 5099   9.929   2.712   8.654  2.2934  3.8542  0.4143
   37MOL0     H 5100   9.936   2.946   8.624  0.6547 -2.4550 -1.2487
   37MOL0     H 5101   9.881   2.901   8.788  0.3862 -3.1031 -0.1822
   37MOL0     H 5102   9.593   3.179   8.744  0.7405  1.0874 -1.1505
   37MOL0     H 5103  10.023   2.506   8.214 -0.2462 -0.6961 -1.7314
   37MOL0     H 5104  10.133   2.403   8.092 -0.5079 -0.7047  4.3584
   37MOL0     H 5105  10.104   2.234   8.059 -2.9582 -1.6480  1.2674
   37MOL0     H 5106  10.053   2.371   7.946 -0.2631 -2.3975 -1.1094
   38MOL0     O 5107   1.452   4.090   2.726  0.8813  0.5608 -0.1482
   38MOL0     C 5108   1.356   4.130   2.658  0.0609  0.2000 -0.3840
   38MOL0     O 5109   1.278   4.049   2.589  0.0094 -0.3208  0.3846
   38MOL0     C 5110   1.156   4.027   2.647 -0.2541 -0.9722  0.5689
   38MOL0     C 5111   1.058   3.967   2.566 -0.4390  0.3844 -0.1609
   38MOL0     C 5112   0.930   3.947   2.615  0.4606  0.1570 -0.7097
   38MOL0     C 5113   0.899   3.968   2.751 -0.3203  0.3100 -0.3652
   38MOL0     O 5114   0.781   3.928   2.808  0.2867 -0.2365 -0.0876
   38MOL0     C 5115   0.661   3.930   2.732 -0.2544  0.6492 -0.2068
   38MOL0     C 5116   0.540   3.925   2.819 -0.7456 -1.3704  0.4445
   38MOL0     C 5117   0.517   4.046   2.908 -0.5927  0.1090 -0.0438
   38MOL0     C 5118   0.508   4.180   2.827  0.5263 -0.0747  0.9305
   38MOL0     C 5119   0.385   4.210   2.740 -0.3360 -0.9936  0.3072
   38MOL0     C 5120   0.391   4.181   2.586  0.3079  0.3629  0.5144
   38MOL0     C 5121   0.519   4.243   2.514  0.3880  0.4759  0.6648
   38MOL0     C 5122   0.523   4.222   2.359  0.7967  0.0373 -0.4767
   38MOL0     N 5123   0.578   4.089   2.340 -0.3654  0.0447 -0.2623
   38MOL0     C 5124   0.661   4.052   2.235 -0.1031 -1.4608  0.7784
   38MOL0     C 5125   0.702   3.928   2.260 -0.5474 -1.1432 -0.3591
   38MOL0     C 5126   0.798   3.850   2.178 -0.0239  0.2921 -0.2879
   38MOL0     C 5127   0.731   3.778   2.060  0.6214 -1.3308 -0.1634
   38MOL0     C 5128   0.840   3.718   1.970  0.6701 -0.2556  0.2924
   38MOL0     C 5129   0.803   3.594   1.891 -0.1034  0.3436 -0.6401
   38MOL0     O 5130   0.707   3.619   1.784  0.5964 -0.4819 -0.1996
   38MOL0     C 5131   0.668   3.523   1.702  0.1986  0.3612  1.1191
   38MOL0     C 5132   0.688   3.387   1.728  0.0974 -0.3005 -0.1385
   38MOL0     C 5133   0.658   3.283   1.633  0.8500 -0.5297  0.4712
   38MOL0     C 5134   0.665   3.141   1.676  0.7422  0.4345 -0.4205
   38MOL0     C 5135   0.601   3.323   1.509  1.0585 -0.1420 -0.8895
   38MOL0     C 5136   0.556   3.220   1.409  0.8210 -0.1313 -0.8721
   38MOL0     O 5137   0.659   3.140   1.370  0.3597 -0.1780  0.9515
   38MOL0     C 5138   0.656   3.042   1.274 -0.3789  0.7284  1.0346
   38MOL0     C 5139   0.768   2.956   1.268 -0.7353  0.1209 -0.5174
   38MOL0     C 5140   0.786   2.856   1.171  0.2744 -0.6018 -0.9396
   38MOL0     C 5141   0.688   2.838   1.071  0.0561  0.7302 -0.2064
   38MOL0     O 5142   0.720   2.742   0.975 -0.2447  0.0653  0.3182
   38MOL0     C 5143   0.611   2.668   0.928 -0.1432 -0.3589 -0.3625
   38MOL0     C 5144   0.659   2.521   0.908  0.3209 -0.2659 -0.0645
   38MOL0     C 5145   0.778   2.498   0.811 -0.0738 -1.2646 -0.2254
   38MOL0     C 5146   0.818   2.340   0.786  0.4147 -0.1176 -0.5196
   38MOL0     C 5147   0.888   2.339   0.648 -0.6850 -0.3162  0.3900
   38MOL0     C 5148   0.930   2.200   0.607  0.1775 -0.2767  0.0444
   38MOL0     C 5149   1.053   2.163   0.683 -0.7359 -0.6924 -0.4023
   38MOL0     C 5150   1.101   2.022   0.655 -1.1205 -0.8509 -0.1088
   38MOL0    Cl 5151   0.989   1.888   0.648 -0.2493  0.5954 -0.5019
   38MOL0     C 5152   0.568   2.914   1.084 -0.0089 -0.5018  0.3499
   38MOL0     C 5153   0.545   3.018   1.179 -0.8235  0.4667 -0.4197
   38MOL0     O 5154   0.437   3.212   1.380  0.7896 -0.1495 -0.2356
   38MOL0     C 5155   0.591   3.463   1.484  0.1591  0.0259 -0.2436
   38MOL0     C 5156   0.611   3.552   1.582 -0.3418 -0.5345 -0.3005
   38MOL0     N 5157   0.612   3.875   2.359 -0.1474 -0.5272  0.1558
   38MOL0     N 5158   0.537   3.975   2.400  0.1110  0.1453 -1.1069
   38MOL0     C 5159   0.994   4.029   2.825 -0.0023  0.6183  0.0025
   38MOL0     C 5160   1.123   4.057   2.774  0.4666  0.2347  0.3604
   38MOL0     C 5161   1.362   4.274   2.617  0.4092  1.0534 -0.3385
   38MOL0     C 5162   1.329   4.304   2.486 -0.3374 -0.4369 -0.2416
   38MOL0     C 5163   1.325   4.442   2.437  0.9582 -0.3675  0.1515
   38MOL0     C 5164   1.355   4.544   2.523 -0.5436  0.2964  0.1702
   38MOL0     O 5165   1.346   4.665   2.463 -0.5582 -0.1047  0.2957
   38MOL0     C 5166   1.298   4.771   2.552 -0.6015 -0.0759 -0.3756
   38MOL0     C 5167   1.151   4.756   2.595 -0.0550 -0.2181 -0.0436
   38MOL0     C 5168   1.105   4.861   2.695 -1.2158  0.2975  0.2384
   38MOL0     C 5169   1.165   4.822   2.831 -0.4769 -0.6142 -1.6922
   38MOL0     C 5170   1.173   4.946   2.911 -0.4736  0.2010  0.7193
   38MOL0     C 5171   1.169   5.059   2.952 -0.3556  0.0202 -0.3693
   38MOL0     C 5172   1.399   4.511   2.658  0.8810  0.0961 -0.0006
   38MOL0     C 5173   1.399   4.378   2.705 -0.6294  1.0798  0.1591
   38MOL0     C 5174   1.437   4.363   2.847 -1.2197 -0.0576 -0.2561
   38MOL0     H 5175   1.094   3.943   2.467  0.9366 -1.5437  0.7384
   38MOL0     H 5176   0.858   3.919   2.538 -0.5957  1.8085 -0.3628
   38MOL0     H 5177   0.647   3.850   2.660 -3.0671  0.2985  0.6128
   38MOL0     H 5178   0.664   4.018   2.667 -1.0009  1.2153  0.4971
   38MOL0     H 5179   0.447   3.903   2.766 -2.2701  0.8657  1.9924
   38MOL0     H 5180   0.553   3.846   2.894 -2.5236 -0.1452  2.1584
   38MOL0     H 5181   0.420   4.036   2.958 -0.8439 -0.2540 -0.5883
   38MOL0     H 5182   0.588   4.046   2.991  0.2919 -2.1487 -0.7193
   38MOL0     H 5183   0.508   4.249   2.911 -1.4132 -2.0330  2.6580
   38MOL0     H 5184   0.603   4.197   2.776  1.3669 -1.9011  1.7629
   38MOL0     H 5185   0.371   4.318   2.754 -1.7976 -0.5475 -3.3220
   38MOL0     H 5186   0.290   4.174   2.778 -0.6868  1.3516  1.8950
   38MOL0     H 5187   0.392   4.075   2.559  0.3146  0.9288 -2.0164
   38MOL0     H 5188   0.297   4.215   2.540 -0.1544  1.3285  2.0924
   38MOL0     H 5189   0.605   4.193   2.559 -2.4684 -2.3073  3.5478
   38MOL0     H 5190   0.532   4.349   2.536 -4.2644  1.3861  0.1174
   38MOL0     H 5191   0.425   4.220   2.310  1.9091 -0.8086 -2.8044
   38MOL0     H 5192   0.586   4.301   2.317 -0.6324  1.0551 -0.7792
   38MOL0     H 5193   0.687   4.111   2.148 -0.9061  1.0271  2.1137
   38MOL0     H 5194   0.839   3.767   2.235 -1.3783 -0.8225 -0.8931
   38MOL0     H 5195   0.878   3.919   2.150  1.6196 -1.3529  0.1898
   38MOL0     H 5196   0.667   3.697   2.095 -0.7831 -1.2499 -2.3945
   38MOL0     H 5197   0.666   3.846   2.004  1.3453 -0.9223 -0.5273
   38MOL0     H 5198   0.883   3.798   1.909 -1.5699  2.5304  2.1567
   38MOL0     H 5199   0.931   3.700   2.029  1.5955  0.0144 -0.9988
   38MOL0     H 5200   0.895   3.554   1.847  0.6010 -0.4953  1.4562
   38MOL0     H 5201   0.774   3.513   1.959  1.4199 -1.6888 -2.2589
   38MOL0     H 5202   0.719   3.357   1.827 -0.8441  0.9501  0.5756
   38MOL0     H 5203   0.710   3.080   1.597  1.8566  2.3181 -1.3098
   38MOL0     H 5204   0.567   3.101   1.702  0.3671 -0.5707 -3.0338
   38MOL0     H 5205   0.729   3.130   1.764  3.0310  4.6715 -1.2609
   38MOL0     H 5206   0.839   2.968   1.349 -0.5054 -0.5892 -0.6057
   38MOL0     H 5207   0.874   2.794   1.166  0.2807 -0.5062 -2.4664
   38MOL0     H 5208   0.532   2.672   1.004 -1.2002  2.2752 -1.4861
   38MOL0     H 5209   0.571   2.715   0.837  3.4311  4.1222  0.0166
   38MOL0     H 5210   0.684   2.489   1.009 -0.2766  4.2570  1.7146
   38MOL0     H 5211   0.575   2.460   0.872  1.7925 -0.6537 -3.1789
   38MOL0     H 5212   0.869   2.549   0.845 -1.6633  0.3973  1.8026
   38MOL0     H 5213   0.753   2.555   0.721 -5.3812  1.0079  2.2175
   38MOL0     H 5214   0.736   2.271   0.764  2.5917 -2.8382 -0.5674
   38MOL0     H 5215   0.861   2.293   0.875 -3.9959 -0.5532  1.6815
   38MOL0     H 5216   0.824   2.377   0.567 -1.1123  0.5977  1.1356
   38MOL0     H 5217   0.973   2.407   0.651  1.1934 -2.5472  3.0767
   38MOL0     H 5218   0.946   2.209   0.500 -3.3812 -2.0196 -0.7504
   38MOL0     H 5219   0.852   2.125   0.618  0.7849 -0.9332 -0.0650
   38MOL0     H 5220   1.035   2.169   0.791  1.1395  0.1610 -0.0944
   38MOL0     H 5221   1.132   2.233   0.652  0.1690 -1.6547 -0.3273
   38MOL0     H 5222   1.188   2.003   0.718  0.2221 -0.0492 -1.6738
   38MOL0     H 5223   1.141   2.014   0.554  4.7178 -5.5403  2.0128
   38MOL0     H 5224   0.482   2.897   1.020  1.4200  3.5442 -3.1701
   38MOL0     H 5225   0.446   3.062   1.178 -1.2119 -0.3423  0.4122
   38MOL0     H 5226   0.549   3.499   1.391 -0.6543  1.2492  0.5780
   38MOL0     H 5227   0.591   3.656   1.558  0.7925 -0.6169 -1.7510
   38MOL0     H 5228   0.970   4.049   2.929  3.9643  0.4770  1.1055
   38MOL0     H 5229   1.196   4.093   2.847 -1.3677  2.0410  1.3868
   38MOL0     H 5230   1.297   4.227   2.416 -2.4233  2.0229 -2.2194
   38MOL0     H 5231   1.299   4.468   2.335 -1.6129 -0.3716  0.7488
   38MOL0     H 5232   1.367   4.787   2.635  1.7832 -0.6238 -2.1394
   38MOL0     H 5233   1.318   4.865   2.499  3.8535  0.6627  2.0754
   38MOL0     H 5234   1.135   4.654   2.632  0.8162 -0.4764 -0.3534
   38MOL0     H 5235   1.086   4.767   2.508  1.2912 -1.3599 -1.2525
   38MOL0     H 5236   1.128   4.961   2.658 -0.6414 -0.8210 -2.7524
   38MOL0     H 5237   0.998   4.840   2.691 -0.7101 -2.5747 -0.7796
   38MOL0     H 5238   1.268   4.788   2.822  1.1972  3.2333  0.6929
   38MOL0     H 5239   1.106   4.745   2.882  1.7302  0.0805  2.2322
   38MOL0     H 5240   1.146   5.158   2.984 -1.5956 -0.4559  0.3249
   38MOL0     H 5241   1.419   4.586   2.734 -0.2929 -3.4440  4.2664
   38MOL0     H 5242   1.424   4.262   2.888 -0.5820  0.4761  1.3495
   38MOL0     H 5243   1.543   4.379   2.870 -1.3523 -0.4011  0.6531
   38MOL0     H 5244   1.377   4.440   2.897 -0.3861  1.9972 -2.2775
   39MOL0     O 5245  10.672   6.418   0.138  0.4353 -0.2221  0.0427
   39MOL0     C 5246  10.674   6.403   0.013  0.9463 -0.5255 -0.7622
   39MOL0     O 5247  10.735   6.301  -0.050 -0.6695  0.4039 -0.3163
   39MOL0     C 5248  10.835   6.228   0.020 -0.3586 -0.3057  0.7408
   39MOL0     C 5249  10.964   6.280   0.028 -0.1069 -0.0771 -0.4586
   39MOL0     C 5250  11.067   6.212   0.098  0.2101  0.1932 -0.2460
   39MOL0     C 5251  11.044   6.079   0.141  0.8219  0.5338 -0.7280
   39MOL0     O 5252  11.143   5.993   0.189  0.0750  0.0145  0.5161
   39MOL0     C 5253  11.198   5.923   0.076 -0.5299 -0.2053 -0.9508
   39MOL0     C 5254  11.351   5.915   0.079 -0.0960  0.0657 -0.5751
   39MOL0     C 5255  11.411   5.814  -0.011 -0.0794  0.0072  0.1751
   39MOL0     C 5256  11.380   5.845  -0.161  0.1531  0.0333 -0.2946
   39MOL0     C 5257  11.480   5.768  -0.261 -0.1703 -0.2717 -1.3356
   39MOL0     C 5258  11.448   5.621  -0.281 -0.4102 -0.7668 -0.3893
   39MOL0     C 5259  11.533   5.566  -0.392 -0.7575  0.7631  0.3991
   39MOL0     C 5260  11.680   5.554  -0.351 -0.0400  0.1219  0.6202
   39MOL0     N 5261  11.756   5.497  -0.454  0.0545  0.7518 -0.3110
   39MOL0     C 5262  11.792   5.557  -0.577 -1.3891 -0.4354 -0.3506
   39MOL0     C 5263  11.835   5.453  -0.645 -0.7243  0.7635  1.4107
   39MOL0     C 5264  11.918   5.467  -0.776 -0.7699  0.2488 -0.0484
   39MOL0     C 5265  11.845   5.508  -0.896  0.1788  0.0870 -0.8426
   39MOL0     C 5266  11.901   5.624  -0.968 -0.1088 -0.1586 -0.2408
   39MOL0     C 5267  11.810   5.684  -1.070  0.3410  1.2931  0.6960
   39MOL0     O 5268  11.675   5.720  -1.025 -0.4126 -0.4330  0.2488
   39MOL0     C 5269  11.661   5.804  -0.917 -0.1657 -0.3954 -0.3901
   39MOL0     C 5270  11.543   5.796  -0.838  0.1698 -0.2124 -0.0133
   39MOL0     C 5271  11.501   5.900  -0.752 -0.8676 -0.9554 -0.9298
   39MOL0     C 5272  11.367   5.888  -0.678  0.4531 -0.7708 -0.6182
   39MOL0     C 5273  11.583   6.005  -0.720  0.3989  0.0827 -0.2151
   39MOL0     C 5274  11.558   6.102  -0.605 -0.2603 -0.6185  0.1870
   39MOL0     O 5275  11.478   6.205  -0.628  0.6955 -0.3825  0.4616
   39MOL0     C 5276  11.429   6.284  -0.531 -0.3888 -0.3199  0.0272
   39MOL0     C 5277  11.395   6.251  -0.391 -0.6258 -0.0730 -0.2950
   39MOL0     C 5278  11.346   6.355  -0.308 -1.1343  0.4679  0.7498
   39MOL0     C 5279  11.319   6.482  -0.368  0.8591  0.4332 -0.2121
   39MOL0     O 5280  11.276   6.571  -0.270 -0.7273  0.2554 -0.4153
   39MOL0     C 5281  11.357   6.691  -0.275 -0.3103 -0.2176 -0.0437
   39MOL0     C 5282  11.347   6.753  -0.132 -0.1848  0.5620 -0.0092
   39MOL0     C 5283  11.443   6.870  -0.100  0.4394  0.6975  1.4680
   39MOL0     C 5284  11.584   6.867  -0.159 -0.6144  0.0276 -1.1837
   39MOL0     C 5285  11.602   6.916  -0.305  0.5452 -0.7496 -0.4004
   39MOL0     C 5286  11.746   6.941  -0.347  0.5222  0.3704 -0.6231
   39MOL0     C 5287  11.820   6.809  -0.373  0.3931 -0.5041 -0.3881
   39MOL0     C 5288  11.967   6.853  -0.402 -0.1467  0.4213 -0.5227
   39MOL0    Cl 5289  12.059   6.720  -0.495 -0.1656 -0.6140  0.3078
   39MOL0     C 5290  11.353   6.515  -0.498 -0.2195 -0.7955  0.2582
   39MOL0     C 5291  11.415   6.416  -0.575 -0.0846 -0.1379 -0.2468
   39MOL0     O 5292  11.612   6.075  -0.497 -0.0476  0.0833  0.3431
   39MOL0     C 5293  11.711   5.998  -0.778  0.9648  0.1976 -0.5721
   39MOL0     C 5294  11.752   5.903  -0.870 -0.4108  0.2206 -0.1402
   39MOL0     N 5295  11.834   5.336  -0.570 -0.1059 -0.4343  0.1141
   39MOL0     N 5296  11.804   5.368  -0.448  1.2017 -0.3147  0.0761
   39MOL0     C 5297  10.914   6.026   0.122 -1.1636  0.3845  0.7921
   39MOL0     C 5298  10.809   6.100   0.063  1.7450  0.0049  0.2375
   39MOL0     C 5299  10.592   6.501  -0.061 -0.2368  0.5261 -0.1638
   39MOL0     C 5300  10.475   6.556  -0.015 -0.1038 -0.2321  0.0785
   39MOL0     C 5301  10.403   6.650  -0.086  0.1280  1.1916 -0.0861
   39MOL0     C 5302  10.443   6.685  -0.217  0.0836  0.2203  0.0765
   39MOL0     O 5303  10.374   6.776  -0.295  0.1715  0.3615  0.1405
   39MOL0     C 5304  10.310   6.719  -0.409  0.3893  0.1799  0.0393
   39MOL0     C 5305  10.205   6.607  -0.376 -0.2622 -0.4365 -0.0907
   39MOL0     C 5306  10.088   6.661  -0.287  0.6617  0.2125  0.4237
   39MOL0     C 5307  10.003   6.538  -0.231  0.9412 -0.0604  0.1142
   39MOL0     C 5308  10.025   6.524  -0.085  0.2985 -0.0927  0.4309
   39MOL0     C 5309  10.020   6.520   0.036 -1.0465 -0.1243  0.0533
   39MOL0     C 5310  10.556   6.615  -0.270  0.2547  0.3282  0.2537
   39MOL0     C 5311  10.640   6.534  -0.195  0.6125 -0.1009  0.4747
   39MOL0     C 5312  10.768   6.476  -0.264 -0.0842 -0.1423 -0.3803
   39MOL0     H 5313  11.004   6.360  -0.033  0.0334 -0.0280 -0.2991
   39MOL0     H 5314  11.165   6.251   0.125  0.2650 -1.2203  1.8510
   39MOL0     H 5315  11.176   5.972  -0.019  1.4726 -0.5024 -1.6217
   39MOL0     H 5316  11.161   5.820   0.078  1.3742 -0.9414 -0.4697
   39MOL0     H 5317  11.400   6.007   0.048 -0.0955 -0.0248 -0.8380
   39MOL0     H 5318  11.375   5.893   0.184  1.7511  0.2316 -0.9404
   39MOL0     H 5319  11.520   5.815  -0.000 -0.3089  1.9618  3.6400
   39MOL0     H 5320  11.376   5.716   0.022 -0.2095 -0.4295 -1.1946
   39MOL0     H 5321  11.274   5.833  -0.181  0.1074 -3.0775  1.1673
   39MOL0     H 5322  11.411   5.949  -0.177 -0.5418  0.2858 -0.0119
   39MOL0     H 5323  11.582   5.766  -0.223 -1.2472 -0.2453  1.8749
   39MOL0     H 5324  11.479   5.820  -0.358  1.0183 -1.1571 -1.8440
   39MOL0     H 5325  11.472   5.573  -0.186 -0.9924  1.7550  1.1211
   39MOL0     H 5326  11.343   5.602  -0.303 -0.4392 -0.8992 -0.1364
   39MOL0     H 5327  11.544   5.627  -0.482  2.5645  0.8930  0.7715
   39MOL0     H 5328  11.493   5.465  -0.406 -0.2830  0.6070  0.1531
   39MOL0     H 5329  11.730   5.650  -0.337 -1.0536  0.8630 -0.6460
   39MOL0     H 5330  11.691   5.481  -0.270 -3.3695  0.5568  1.6243
   39MOL0     H 5331  11.778   5.659  -0.613 -0.1113 -0.5324 -1.1553
   39MOL0     H 5332  11.961   5.366  -0.780 -2.1988 -0.4406  0.8953
   39MOL0     H 5333  11.995   5.538  -0.744 -0.1419  0.1930 -1.3959
   39MOL0     H 5334  11.831   5.424  -0.964  0.2584 -1.2396  0.6998
   39MOL0     H 5335  11.744   5.533  -0.863  0.4027  0.3337 -0.3253
   39MOL0     H 5336  11.921   5.705  -0.897 -2.0850 -0.0244  0.2161
   39MOL0     H 5337  11.989   5.586  -1.021  0.6205  0.6013  0.3896
   39MOL0     H 5338  11.850   5.777  -1.111  1.8683  0.5175  0.3588
   39MOL0     H 5339  11.794   5.603  -1.141 -0.5389  0.6835  1.5611
   39MOL0     H 5340  11.489   5.705  -0.864  0.4103  0.1424 -1.8496
   39MOL0     H 5341  11.382   5.834  -0.585 -0.0751  1.2460  0.6942
   39MOL0     H 5342  11.281   5.852  -0.736 -1.9340  0.5360  1.8965
   39MOL0     H 5343  11.326   5.983  -0.643  1.6235 -0.3361 -0.3847
   39MOL0     H 5344  11.420   6.156  -0.345 -0.7121 -0.2356 -0.5808
   39MOL0     H 5345  11.323   6.337  -0.204  3.5291 -2.7052  1.5432
   39MOL0     H 5346  11.464   6.668  -0.281  0.0556 -0.4339  4.1483
   39MOL0     H 5347  11.327   6.757  -0.357  2.2751  1.5684  0.3410
   39MOL0     H 5348  11.243   6.785  -0.130 -0.4068  0.3061 -2.8221
   39MOL0     H 5349  11.353   6.678  -0.052 -1.6616  1.3295  0.8618
   39MOL0     H 5350  11.451   6.867   0.009 -0.1017  0.4083  1.4996
   39MOL0     H 5351  11.392   6.965  -0.117 -0.9549 -0.2618 -0.0317
   39MOL0     H 5352  11.619   6.764  -0.155 -1.3187 -0.2266  3.3416
   39MOL0     H 5353  11.649   6.918  -0.087 -2.7138 -0.1880  0.9935
   39MOL0     H 5354  11.541   6.870  -0.383  0.0750 -2.0421  0.6926
   39MOL0     H 5355  11.554   7.014  -0.315 -0.1539 -1.1599 -1.2241
   39MOL0     H 5356  11.799   7.003  -0.273  2.0993 -2.2394  0.5606
   39MOL0     H 5357  11.742   7.002  -0.438 -0.2694 -0.0778 -0.8952
   39MOL0     H 5358  11.784   6.765  -0.466  1.2127 -0.9256 -0.5107
   39MOL0     H 5359  11.807   6.746  -0.285  0.0440  0.3083  0.1605
   39MOL0     H 5360  12.028   6.871  -0.314  0.0124  0.6086 -0.6707
   39MOL0     H 5361  11.965   6.939  -0.469 -3.2585  1.8216  1.1687
   39MOL0     H 5362  11.334   6.614  -0.539 -0.8043 -1.6769 -1.7473
   39MOL0     H 5363  11.446   6.425  -0.679  0.3035 -1.0791 -0.2219
   39MOL0     H 5364  11.772   6.076  -0.734 -2.9076  2.0679  2.0540
   39MOL0     H 5365  11.852   5.908  -0.911  0.5685  1.6772  2.2417
   39MOL0     H 5366  10.896   5.927   0.163  3.2054  0.5035  3.5987
   39MOL0     H 5367  10.709   6.061   0.048  0.2206  1.7701  4.3435
   39MOL0     H 5368  10.441   6.541   0.087  0.1810 -0.9163  0.0747
   39MOL0     H 5369  10.321   6.700  -0.035  0.8899  2.9450 -0.5026
   39MOL0     H 5370  10.264   6.796  -0.471 -0.4105  1.3942  2.0477
   39MOL0     H 5371  10.391   6.676  -0.469  0.9448  1.2753 -0.0110
   39MOL0     H 5372  10.249   6.522  -0.323 -0.7705  1.1718  3.1286
   39MOL0     H 5373  10.172   6.567  -0.473  1.4627  1.0019 -1.3311
   39MOL0     H 5374  10.122   6.727  -0.207  0.0315  1.5732 -0.4013
   39MOL0     H 5375  10.020   6.722  -0.348 -1.3220 -3.4167 -1.3568
   39MOL0     H 5376  10.040   6.447  -0.278 -1.4562 -0.8541 -0.3801
   39MOL0     H 5377   9.895   6.550  -0.246  1.0586  0.4009 -0.3845
   39MOL0     H 5378  10.002   6.527   0.141  1.9237 -3.5500  0.9887
   39MOL0     H 5379  10.580   6.625  -0.376  1.0535  0.7341  0.4694
   39MOL0     H 5380  10.757   6.371  -0.294 -0.4823 -0.0511 -0.5559
   39MOL0     H 5381  10.788   6.539  -0.351 -0.0368  1.8085  0.9832
   39MOL0     H 5382  10.851   6.475  -0.193  0.5276 -2.9221 -1.0035
   40MOL0     O 5383   4.908   0.631   3.519 -0.0090  0.3171  0.6902
   40MOL0     C 5384   4.817   0.700   3.484  0.9782  1.4929  0.0922
   40MOL0     O 5385   4.776   0.823   3.542  0.5892 -0.0783  0.2263
   40MOL0     C 5386   4.863   0.865   3.643 -0.4753  0.9895  0.8528
   40MOL0     C 5387   4.967   0.957   3.614 -0.0160  0.9792  0.7531
   40MOL0     C 5388   5.034   1.033   3.713 -0.3802 -0.8010 -0.8084
   40MOL0     C 5389   5.018   0.998   3.846 -0.0117 -0.1673  0.4359
   40MOL0     O 5390   5.097   1.054   3.936 -0.4407  0.7121 -0.1611
   40MOL0     C 5391   5.198   0.971   3.993  0.6827 -0.0213 -0.2325
   40MOL0     C 5392   5.231   1.039   4.127 -0.2055 -0.3525  0.3327
   40MOL0     C 5393   5.277   1.187   4.130  0.2160 -0.3383 -0.3046
   40MOL0     C 5394   5.428   1.205   4.146 -0.4838 -0.5025 -0.2640
   40MOL0     C 5395   5.464   1.353   4.165  0.5735  0.9992  0.4497
   40MOL0     C 5396   5.382   1.450   4.252  0.7215 -0.0098 -0.4050
   40MOL0     C 5397   5.258   1.517   4.186  1.0636 -1.0052  1.0856
   40MOL0     C 5398   5.156   1.586   4.281 -0.3807  0.1198 -0.5238
   40MOL0     N 5399   5.062   1.479   4.332  0.2528 -0.0455  0.6560
   40MOL0     C 5400   4.946   1.442   4.267 -0.0909  0.6253  0.8260
   40MOL0     C 5401   4.924   1.324   4.326 -0.2983 -1.0632 -0.1411
   40MOL0     C 5402   4.827   1.222   4.286 -0.3342  0.3526 -0.0892
   40MOL0     C 5403   4.811   1.210   4.129 -0.3007  0.2817  0.3552
   40MOL0     C 5404   4.716   1.097   4.068  0.8144 -0.9734 -0.7904
   40MOL0     C 5405   4.560   1.127   4.077  0.3505 -0.0437 -0.5291
   40MOL0     O 5406   4.496   1.028   3.996  0.6059 -0.4099 -0.1554
   40MOL0     C 5407   4.360   1.028   3.985  0.6652  0.0770 -0.4650
   40MOL0     C 5408   4.273   1.131   4.025 -1.1428 -0.4213  1.1527
   40MOL0     C 5409   4.134   1.123   4.007 -1.0402  0.5919  0.1686
   40MOL0     C 5410   4.052   1.245   4.054 -0.2479 -0.6301  0.1748
   40MOL0     C 5411   4.080   0.993   3.959  0.4821  0.3857  0.3518
   40MOL0     C 5412   3.941   0.949   3.963  0.5008 -0.2358  0.0134
   40MOL0     O 5413   3.864   1.009   4.057  0.4945 -0.5177  0.7400
   40MOL0     C 5414   3.764   0.928   4.104 -0.1726 -0.0366 -1.2524
   40MOL0     C 5415   3.790   0.830   4.201  0.0628  0.8272  0.4318
   40MOL0     C 5416   3.680   0.754   4.251 -0.0096  0.3052 -0.0200
   40MOL0     C 5417   3.549   0.775   4.203  0.6395 -0.2313  1.0016
   40MOL0     O 5418   3.446   0.699   4.256 -0.3580  0.3519  0.7404
   40MOL0     C 5419   3.346   0.660   4.159  0.3796  0.0829 -0.3061
   40MOL0     C 5420   3.272   0.544   4.223  0.4533 -0.1773 -0.0542
   40MOL0     C 5421   3.362   0.429   4.274  0.0072  0.1670  0.7943
   40MOL0     C 5422   3.447   0.371   4.156  0.4255  0.1276 -0.4443
   40MOL0     C 5423   3.531   0.255   4.206 -0.1019  0.0799 -0.7631
   40MOL0     C 5424   3.655   0.239   4.120 -0.4423  0.1959 -0.0295
   40MOL0     C 5425   3.769   0.146   4.174  0.3658 -0.5464  0.7796
   40MOL0     C 5426   3.710   0.007   4.189  0.1535  0.4954  0.1020
   40MOL0    Cl 5427   3.622  -0.019   4.341  0.2568  0.3301  0.1849
   40MOL0     C 5428   3.527   0.883   4.121 -0.0258 -0.5741  0.3018
   40MOL0     C 5429   3.635   0.967   4.079  0.3316 -0.2700 -0.7576
   40MOL0     O 5430   3.903   0.845   3.898  0.2289 -0.2040 -0.6465
   40MOL0     C 5431   4.176   0.892   3.918  1.2488 -0.4477  0.6174
   40MOL0     C 5432   4.306   0.921   3.915 -1.0527 -0.1793  0.2473
   40MOL0     N 5433   5.012   1.299   4.440  0.2963  0.0803 -0.0370
   40MOL0     N 5434   5.094   1.389   4.435 -0.5191  0.5757 -0.2177
   40MOL0     C 5435   4.921   0.907   3.877 -1.2856 -0.5632 -0.1906
   40MOL0     C 5436   4.843   0.837   3.779  0.5979 -0.7158 -0.5807
   40MOL0     C 5437   4.733   0.660   3.362  0.4364 -0.8151 -0.2224
   40MOL0     C 5438   4.696   0.766   3.269 -0.8487  0.9878  0.1275
   40MOL0     C 5439   4.602   0.746   3.168 -0.2151 -0.8220 -0.0889
   40MOL0     C 5440   4.557   0.616   3.150  0.4238 -0.4276 -0.4080
   40MOL0     O 5441   4.466   0.577   3.049 -0.3854 -0.1258 -0.0327
   40MOL0     C 5442   4.377   0.680   2.993 -0.1657 -0.1624  0.6494
   40MOL0     C 5443   4.239   0.689   3.075 -0.0298 -0.0841 -0.1836
   40MOL0     C 5444   4.179   0.544   3.119  0.3346  0.2390  0.8651
   40MOL0     C 5445   4.176   0.438   3.014 -0.3118  0.2808 -0.1828
   40MOL0     C 5446   4.082   0.328   3.044  0.1933  0.2371  0.1152
   40MOL0     C 5447   4.000   0.243   3.067 -1.1122 -0.2528 -0.6078
   40MOL0     C 5448   4.602   0.512   3.224 -0.1490  0.4044 -0.2182
   40MOL0     C 5449   4.689   0.527   3.334  0.7370 -1.2677  0.0876
   40MOL0     C 5450   4.739   0.401   3.394  0.0247 -0.4611  0.2008
   40MOL0     H 5451   4.983   0.971   3.508  0.9593 -0.7056  0.6464
   40MOL0     H 5452   5.111   1.106   3.690 -0.7426 -0.5348 -1.1688
   40MOL0     H 5453   5.283   0.964   3.924  2.3202  1.8606  1.4722
   40MOL0     H 5454   5.148   0.880   4.026  0.5190  0.3222  0.4823
   40MOL0     H 5455   5.132   1.043   4.174 -2.2139  3.2757 -3.6501
   40MOL0     H 5456   5.290   0.976   4.195  0.7203 -1.8894 -1.8004
   40MOL0     H 5457   5.261   1.251   4.043  2.4068  1.4926  0.5233
   40MOL0     H 5458   5.217   1.226   4.213  1.9100 -2.1375  1.8758
   40MOL0     H 5459   5.459   1.155   4.238  2.4221  1.1628 -0.2338
   40MOL0     H 5460   5.486   1.161   4.065 -1.6340  1.0391 -2.0338
   40MOL0     H 5461   5.450   1.395   4.065 -0.0360 -1.2370 -0.4605
   40MOL0     H 5462   5.570   1.364   4.188  0.8950  1.1389 -1.0421
   40MOL0     H 5463   5.352   1.397   4.343 -0.6971  1.9152  0.3239
   40MOL0     H 5464   5.442   1.535   4.285  1.2548 -0.5191 -0.0558
   40MOL0     H 5465   5.202   1.440   4.133  2.3396 -1.4282  0.3010
   40MOL0     H 5466   5.284   1.591   4.110  1.5404 -3.0921 -0.8945
   40MOL0     H 5467   5.193   1.630   4.374 -0.2491  0.1771 -0.6021
   40MOL0     H 5468   5.091   1.653   4.223 -0.9775 -1.3151 -1.5753
   40MOL0     H 5469   4.894   1.477   4.179 -1.5558  0.8753  1.7555
   40MOL0     H 5470   4.728   1.253   4.323 -0.7647  3.2115 -3.1568
   40MOL0     H 5471   4.857   1.127   4.331  0.9406  0.6061 -0.3769
   40MOL0     H 5472   4.785   1.313   4.102  0.8231  0.2313 -1.0321
   40MOL0     H 5473   4.910   1.194   4.085 -0.0277  1.6841  0.3936
   40MOL0     H 5474   4.723   1.095   3.959 -0.7289 -4.4140 -0.9754
   40MOL0     H 5475   4.748   0.998   4.102  3.1287 -1.0715 -2.9501
   40MOL0     H 5476   4.519   1.105   4.176 -1.2641 -1.0165 -1.3697
   40MOL0     H 5477   4.533   1.233   4.066 -0.1051 -0.0028  0.8329
   40MOL0     H 5478   4.310   1.228   4.057 -2.2663  0.1321  0.8382
   40MOL0     H 5479   3.974   1.219   4.126 -0.7688  0.7592  0.1431
   40MOL0     H 5480   4.007   1.281   3.961  0.3313  1.8198  0.7550
   40MOL0     H 5481   4.114   1.325   4.097  0.0830  0.2746 -1.8806
   40MOL0     H 5482   3.891   0.812   4.239 -0.1696  2.9552  2.2641
   40MOL0     H 5483   3.688   0.675   4.324 -1.2925 -1.3107 -1.5480
   40MOL0     H 5484   3.278   0.744   4.142 -2.0595 -1.4034  1.4261
   40MOL0     H 5485   3.391   0.637   4.062 -0.4676 -1.1514 -0.4208
   40MOL0     H 5486   3.220   0.594   4.305  0.8688  0.9393 -0.4504
   40MOL0     H 5487   3.188   0.500   4.169  0.7135  0.3129 -0.8769
   40MOL0     H 5488   3.297   0.354   4.321 -1.3643  2.1284  2.1540
   40MOL0     H 5489   3.427   0.468   4.353 -0.0685  2.8571 -0.3854
   40MOL0     H 5490   3.512   0.444   4.106 -0.4120  3.0256  2.3801
   40MOL0     H 5491   3.381   0.350   4.072 -0.8353 -1.2082  0.8294
   40MOL0     H 5492   3.561   0.265   4.311 -0.1555 -0.4534 -0.6933
   40MOL0     H 5493   3.461   0.171   4.209  0.1224 -0.1806  3.3917
   40MOL0     H 5494   3.704   0.334   4.096  0.3900 -0.7036 -2.1767
   40MOL0     H 5495   3.618   0.198   4.025 -0.3512 -1.2801  0.5415
   40MOL0     H 5496   3.814   0.184   4.267  0.4327 -0.0434  0.5452
   40MOL0     H 5497   3.849   0.132   4.100  1.1384  0.4921  1.3912
   40MOL0     H 5498   3.794  -0.062   4.180  0.0017  0.3502 -0.1975
   40MOL0     H 5499   3.634  -0.017   4.114  1.9102 -1.8475 -1.0301
   40MOL0     H 5500   3.426   0.911   4.094  0.7596  1.0814 -1.1004
   40MOL0     H 5501   3.608   1.049   4.012  3.9831  1.5050 -0.2587
   40MOL0     H 5502   4.138   0.793   3.896  0.6222 -0.1741  0.4655
   40MOL0     H 5503   4.386   0.864   3.869  1.2563  3.2030 -0.2302
   40MOL0     H 5504   4.923   0.882   3.983  2.7463 -0.2697 -0.0473
   40MOL0     H 5505   4.768   0.770   3.818  0.6690 -1.2371 -1.3354
   40MOL0     H 5506   4.738   0.865   3.280 -0.8415  0.7445  3.3337
   40MOL0     H 5507   4.577   0.837   3.115 -1.5105  0.2729  2.2585
   40MOL0     H 5508   4.411   0.783   2.977 -0.1625 -0.7239 -4.5493
   40MOL0     H 5509   4.363   0.648   2.889  1.0319 -1.8696  0.9797
   40MOL0     H 5510   4.170   0.731   3.001 -0.8170 -2.6825 -1.0322
   40MOL0     H 5511   4.251   0.746   3.167 -0.7855 -0.4276  0.1351
   40MOL0     H 5512   4.231   0.502   3.205  0.6288 -0.1430  0.5026
   40MOL0     H 5513   4.074   0.556   3.149 -0.1273 -0.8732 -0.2166
   40MOL0     H 5514   4.272   0.385   3.014 -1.1666 -1.5614 -3.4531
   40MOL0     H 5515   4.148   0.478   2.916 -0.7575 -2.4251 -1.2503
   40MOL0     H 5516   3.926   0.172   3.098 -1.2648 -0.5318 -1.5753
   40MOL0     H 5517   4.548   0.418   3.220  2.1379 -0.9450 -1.0160
   40MOL0     H 5518   4.848   0.411   3.401  0.0184 -1.3452  2.2090
   40MOL0     H 5519   4.692   0.386   3.492  1.9553 -3.0743  0.8335
   40MOL0     H 5520   4.716   0.308   3.342 -0.4666 -1.3097  1.8724
   41MOL0     O 5521   0.198   3.542  10.387 -0.0629 -0.0936 -0.3922
   41MOL0     C 5522   0.165   3.591  10.500  0.8139 -0.2007 -0.3612
   41MOL0     O 5523   0.164   3.519  10.615 -0.9347  0.7943 -1.1952
   41MOL0     C 5524   0.195   3.386  10.620 -0.2640  0.4948 -0.6135
   41MOL0     C 5525   0.120   3.317  10.718 -0.0822 -0.2449  1.1913
   41MOL0     C 5526   0.133   3.181  10.738  0.0429 -1.0280 -0.2258
   41MOL0     C 5527   0.210   3.102  10.652  0.0654  0.0754  0.3364
   41MOL0     O 5528   0.231   2.973  10.667  0.2117  1.3797  0.0863
   41MOL0     C 5529   0.156   2.901  10.762  1.0028  0.5631 -0.2587
   41MOL0     C 5530   0.021   2.858  10.695 -0.3005 -0.3992  0.1958
   41MOL0     C 5531   0.040   2.742  10.602  0.1037 -0.2436 -1.0045
   41MOL0     C 5532  -0.095   2.684  10.548 -0.1861 -0.2031  0.2296
   41MOL0     C 5533  -0.065   2.536  10.506 -0.4969  0.4483  0.6228
   41MOL0     C 5534  -0.208   2.488  10.447 -0.6348 -1.4226 -0.6912
   41MOL0     C 5535  -0.220   2.333  10.463 -0.2998 -0.0828 -0.0533
   41MOL0     C 5536  -0.357   2.286  10.404 -1.0737 -0.3270 -0.6147
   41MOL0     N 5537  -0.377   2.143  10.408  0.2938  0.0170  0.7148
   41MOL0     C 5538  -0.500   2.082  10.440 -0.1703 -1.5960 -0.9029
   41MOL0     C 5539  -0.480   1.947  10.417  1.2044 -0.7694 -0.7852
   41MOL0     C 5540  -0.577   1.835  10.455 -0.3271 -0.9958 -0.3364
   41MOL0     C 5541  -0.701   1.817  10.366  0.1977  0.4790  0.1250
   41MOL0     C 5542  -0.811   1.757  10.459  0.9453 -0.1299 -0.2062
   41MOL0     C 5543  -0.873   1.878  10.544 -1.0906  0.5994  0.8877
   41MOL0     O 5544  -1.013   1.820  10.571  0.0339 -0.9464  0.2036
   41MOL0     C 5545  -1.083   1.889  10.666  0.3166  0.1209 -0.1961
   41MOL0     C 5546  -1.036   2.000  10.741  0.8205  0.1328  0.6219
   41MOL0     C 5547  -1.112   2.053  10.847  0.0263 -0.6365  0.2838
   41MOL0     C 5548  -1.054   2.190  10.896 -0.5215  0.7117  0.3120
   41MOL0     C 5549  -1.238   1.998  10.878  0.3669 -0.4346  0.6041
   41MOL0     C 5550  -1.345   2.071  10.957 -0.3278  1.6195 -1.0772
   41MOL0     O 5551  -1.340   2.201  10.948  0.2006 -0.5077 -0.1897
   41MOL0     C 5552  -1.443   2.270  11.015 -0.8234  0.1777  0.7757
   41MOL0     C 5553  -1.408   2.324  11.134 -0.0652  0.2203 -0.3926
   41MOL0     C 5554  -1.512   2.393  11.200 -0.0391  0.2035 -0.3004
   41MOL0     C 5555  -1.637   2.405  11.153 -0.2664  0.3234 -1.3088
   41MOL0     O 5556  -1.720   2.450  11.249  0.4221  0.0196 -0.1503
   41MOL0     C 5557  -1.824   2.357  11.287  0.3589  0.5433 -0.5152
   41MOL0     C 5558  -1.895   2.416  11.412 -0.8108 -0.1421 -0.3862
   41MOL0     C 5559  -2.001   2.318  11.485  0.1996 -0.2083  0.1924
   41MOL0     C 5560  -2.006   2.367  11.631  0.4564 -0.3519 -0.7255
   41MOL0     C 5561  -2.078   2.283  11.732  0.5181 -0.3349  0.2843
   41MOL0     C 5562  -2.211   2.211  11.688  0.1104  0.2125 -0.8509
   41MOL0     C 5563  -2.321   2.302  11.638  0.4452 -0.1631 -0.5639
   41MOL0     C 5564  -2.430   2.207  11.599  0.5273  0.0737 -0.7499
   41MOL0    Cl 5565  -2.584   2.299  11.565 -0.0246  0.5195  0.3163
   41MOL0     C 5566  -1.671   2.359  11.028  0.6735  0.5022 -0.1206
   41MOL0     C 5567  -1.571   2.292  10.959 -0.2928 -0.6747  0.0283
   41MOL0     O 5568  -1.429   1.999  11.022 -0.9013  0.3802 -0.5652
   41MOL0     C 5569  -1.272   1.878  10.817 -1.1161  0.0811  0.4168
   41MOL0     C 5570  -1.205   1.838  10.705  0.1992 -0.1829  0.2483
   41MOL0     N 5571  -0.348   1.923  10.394 -0.0196 -1.1035 -0.1608
   41MOL0     N 5572  -0.289   2.041  10.388 -1.0302 -0.3511 -0.3571
   41MOL0     C 5573   0.274   3.165  10.549  0.0083 -0.4018 -0.5268
   41MOL0     C 5574   0.267   3.306  10.537 -1.0725 -0.4272 -0.2451
   41MOL0     C 5575   0.137   3.740  10.502  0.2241  0.5231 -0.0694
   41MOL0     C 5576   0.124   3.802  10.629 -0.0629  0.8633 -0.3387
   41MOL0     C 5577   0.129   3.937  10.649  0.0698 -0.9790  0.8649
   41MOL0     C 5578   0.105   4.025  10.536 -0.1545 -0.6646  0.5076
   41MOL0     O 5579   0.104   4.161  10.571 -0.7958  0.6493 -0.4689
   41MOL0     C 5580   0.055   4.263  10.479 -0.7147 -1.0169 -0.1293
   41MOL0     C 5581  -0.089   4.257  10.459  0.1013  0.4336  0.0638
   41MOL0     C 5582  -0.138   4.365  10.352 -0.0781  0.3776 -0.4035
   41MOL0     C 5583  -0.128   4.305  10.209  0.3247  0.0398 -0.1448
   41MOL0     C 5584  -0.001   4.321  10.146 -0.3000  0.2986  0.5019
   41MOL0     C 5585   0.101   4.347  10.075 -0.6095 -0.9307  0.4482
   41MOL0     C 5586   0.118   3.977  10.409 -0.0202  0.9145  1.0130
   41MOL0     C 5587   0.139   3.832  10.395  0.3068 -0.7913  0.1271
   41MOL0     C 5588   0.171   3.793  10.257  0.9854  0.1720  0.1273
   41MOL0     H 5589   0.072   3.386  10.786  1.9575  3.0076 -0.3996
   41MOL0     H 5590   0.084   3.144  10.827  0.4403  1.3340  1.0691
   41MOL0     H 5591   0.136   2.944  10.860 -1.7672 -1.9950  0.4404
   41MOL0     H 5592   0.220   2.813  10.778  1.1335  0.8517  0.8654
   41MOL0     H 5593  -0.060   2.855  10.768 -3.8533  1.6571 -3.2689
   41MOL0     H 5594  -0.010   2.941  10.632 -0.5748 -0.6884 -0.0575
   41MOL0     H 5595   0.104   2.772  10.519  0.0369  2.1296 -0.2639
   41MOL0     H 5596   0.098   2.671  10.661 -0.4155  0.8452  0.8772
   41MOL0     H 5597  -0.167   2.686  10.629  1.3807  3.8718  1.7516
   41MOL0     H 5598  -0.138   2.732  10.460  1.1209 -2.0634 -1.5246
   41MOL0     H 5599  -0.045   2.476  10.595 -1.9697 -3.1909 -1.2810
   41MOL0     H 5600   0.017   2.519  10.435  0.2281  0.2869  1.4751
   41MOL0     H 5601  -0.293   2.524  10.504  1.6362  0.7287  1.6086
   41MOL0     H 5602  -0.219   2.512  10.340 -1.6267 -1.5414 -0.6170
   41MOL0     H 5603  -0.227   2.318  10.571 -1.2478 -0.9877 -0.2257
   41MOL0     H 5604  -0.141   2.278  10.411 -3.1235 -0.4619 -4.4543
   41MOL0     H 5605  -0.442   2.329  10.458 -2.3737 -2.2092 -1.0409
   41MOL0     H 5606  -0.356   2.326  10.302  3.5188 -3.0187 -1.9145
   41MOL0     H 5607  -0.588   2.136  10.474 -1.9398 -3.3563 -2.3792
   41MOL0     H 5608  -0.612   1.870  10.553  0.4682 -2.5773  0.5634
   41MOL0     H 5609  -0.511   1.748  10.465  2.5123  1.1474  1.2571
   41MOL0     H 5610  -0.733   1.914  10.328 -2.7035 -0.0799  0.8983
   41MOL0     H 5611  -0.678   1.749  10.284 -1.4823  1.5954 -1.3426
   41MOL0     H 5612  -0.883   1.708  10.392 -2.0158  3.9093 -0.3620
   41MOL0     H 5613  -0.771   1.691  10.537  0.1753  0.6168  0.8599
   41MOL0     H 5614  -0.808   1.902  10.629 -1.9890  1.3133  1.3938
   41MOL0     H 5615  -0.879   1.965  10.478  0.9448  0.9958  1.1637
   41MOL0     H 5616  -0.938   2.039  10.716 -0.2710  3.3291  0.8440
   41MOL0     H 5617  -1.069   2.193  11.005 -4.7023 -1.5053  0.0046
   41MOL0     H 5618  -1.102   2.273  10.843 -2.1622  0.7026  1.7176
   41MOL0     H 5619  -0.946   2.200  10.879 -0.7905  0.8116 -1.4969
   41MOL0     H 5620  -1.311   2.300  11.176  1.0666 -0.4752 -3.1942
   41MOL0     H 5621  -1.486   2.450  11.288  0.1115  2.5680 -1.7668
   41MOL0     H 5622  -1.896   2.332  11.209 -0.0366  2.1356 -0.7028
   41MOL0     H 5623  -1.778   2.262  11.315 -0.3479  0.9118  2.0751
   41MOL0     H 5624  -1.808   2.445  11.473 -0.1763  0.2822 -1.4658
   41MOL0     H 5625  -1.951   2.506  11.387 -1.0522  0.3412  1.6942
   41MOL0     H 5626  -1.963   2.215  11.489  3.2759  0.8406  3.5115
   41MOL0     H 5627  -2.097   2.314  11.433  1.1187 -1.1921 -1.5168
   41MOL0     H 5628  -2.046   2.468  11.635  0.1792 -0.4960  0.6656
   41MOL0     H 5629  -1.903   2.376  11.666 -0.1569  2.4075  0.6215
   41MOL0     H 5630  -1.999   2.211  11.755  1.2992 -0.0963 -1.5306
   41MOL0     H 5631  -2.096   2.348  11.818 -2.4962  2.5855 -2.2592
   41MOL0     H 5632  -2.245   2.155  11.775  1.7809 -1.6790 -1.3493
   41MOL0     H 5633  -2.182   2.139  11.611 -0.4633 -0.5688 -0.3449
   41MOL0     H 5634  -2.290   2.366  11.555  0.1528  0.5098 -0.1667
   41MOL0     H 5635  -2.350   2.366  11.722  2.7521  2.3412 -1.5104
   41MOL0     H 5636  -2.453   2.133  11.677 -0.6813 -0.2089 -1.3452
   41MOL0     H 5637  -2.406   2.148  11.510  1.7009  0.3368 -0.6295
   41MOL0     H 5638  -1.775   2.359  10.997  0.2392  0.2739  1.2360
   41MOL0     H 5639  -1.597   2.243  10.866 -0.3598 -1.4205  0.4319
   41MOL0     H 5640  -1.370   1.832  10.817 -0.5539 -1.3308 -2.3835
   41MOL0     H 5641  -1.250   1.752  10.656 -0.6483 -0.4949  1.5136
   41MOL0     H 5642   0.338   3.101  10.490 -0.4039 -1.0733 -0.2532
   41MOL0     H 5643   0.335   3.342  10.460  0.0157 -2.2659 -0.1904
   41MOL0     H 5644   0.120   3.754  10.726 -0.0522 -1.2007 -1.3212
   41MOL0     H 5645   0.122   3.988  10.744 -3.3149  1.7439 -0.6349
   41MOL0     H 5646   0.078   4.364  10.515 -3.2798  0.8982 -3.3407
   41MOL0     H 5647   0.106   4.252  10.383 -0.4661 -2.4725  0.1470
   41MOL0     H 5648  -0.140   4.270  10.555  0.3928 -0.6694  0.3784
   41MOL0     H 5649  -0.125   4.162  10.420  0.9554 -0.2285  0.8536
   41MOL0     H 5650  -0.243   4.390  10.371  0.6587  2.5565  1.1364
   41MOL0     H 5651  -0.083   4.458  10.367 -1.4975  1.2510 -0.4516
   41MOL0     H 5652  -0.196   4.357  10.141  2.5371  3.7538  0.2342
   41MOL0     H 5653  -0.160   4.200  10.213 -0.9338  0.3278 -1.7004
   41MOL0     H 5654   0.192   4.367  10.023 -1.2065 -0.8597 -0.5854
   41MOL0     H 5655   0.099   4.039  10.322 -1.3484  0.5251  1.0098
   41MOL0     H 5656   0.270   3.748  10.244  0.4491 -0.9719 -0.0196
   41MOL0     H 5657   0.104   3.711  10.230  0.8018  0.3408  0.0676
   41MOL0     H 5658   0.160   3.876  10.185  0.5443 -0.1298 -0.1541
   42MOL0     O 5659   6.194   9.003  11.235  0.2107  0.3336 -0.0173
   42MOL0     C 5660   6.219   9.037  11.345 -0.3593 -0.0156  0.3588
   42MOL0     O 5661   6.294   8.962  11.442 -0.5250 -0.7434  0.3524
   42MOL0     C 5662   6.350   8.838  11.389  0.0498 -0.3309 -0.3740
   42MOL0     C 5663   6.273   8.734  11.340  0.6311 -0.5774 -0.0220
   42MOL0     C 5664   6.338   8.613  11.306  0.0743 -0.6286 -0.0658
   42MOL0     C 5665   6.473   8.600  11.306 -0.0426 -0.7618 -0.4836
   42MOL0     O 5666   6.529   8.479  11.284  0.1290 -0.4094  0.3545
   42MOL0     C 5667   6.627   8.471  11.187  0.6316  0.2826  0.6838
   42MOL0     C 5668   6.616   8.335  11.112 -0.2594 -0.0354  0.4064
   42MOL0     C 5669   6.636   8.204  11.199  0.3477 -0.7268 -0.2269
   42MOL0     C 5670   6.765   8.199  11.270 -0.0859  0.2349 -0.6224
   42MOL0     C 5671   6.791   8.054  11.316 -0.2699 -0.3400  0.3639
   42MOL0     C 5672   6.926   8.033  11.391 -0.7249 -0.1812  0.5228
   42MOL0     C 5673   6.926   8.114  11.520 -0.2240  0.4736 -0.7305
   42MOL0     C 5674   7.054   8.078  11.594 -0.1290  0.2421  0.1511
   42MOL0     N 5675   7.063   7.946  11.666 -0.2437  0.1420  0.8256
   42MOL0     C 5676   7.162   7.852  11.675  0.0263 -0.2323 -0.1409
   42MOL0     C 5677   7.127   7.777  11.777  0.7088  0.6292  0.0811
   42MOL0     C 5678   7.212   7.681  11.852  0.2363  1.7463  0.0482
   42MOL0     C 5679   7.174   7.538  11.810 -0.4720  0.3190  0.4490
   42MOL0     C 5680   7.274   7.438  11.866  0.3846 -0.1983  0.3276
   42MOL0     C 5681   7.246   7.279  11.845 -0.7008 -0.1298  0.5310
   42MOL0     O 5682   7.113   7.256  11.917 -0.3723 -0.4587  0.0255
   42MOL0     C 5683   7.061   7.130  11.932  0.1426 -0.6013  0.2551
   42MOL0     C 5684   7.119   7.011  11.871  0.4182  0.0453  0.7057
   42MOL0     C 5685   7.077   6.879  11.904 -0.2033  0.2052  0.3718
   42MOL0     C 5686   7.154   6.761  11.840  0.3580  0.9386 -0.9283
   42MOL0     C 5687   6.966   6.868  11.988 -0.0342  0.6267  0.5562
   42MOL0     C 5688   6.901   6.736  12.027 -0.2132 -0.0335 -0.0506
   42MOL0     O 5689   6.773   6.744  12.059 -0.0053 -0.2797  0.6258
   42MOL0     C 5690   6.717   6.645  12.136 -0.0492 -0.0507 -0.4498
   42MOL0     C 5691   6.595   6.600  12.090 -0.1657 -0.1984 -0.7185
   42MOL0     C 5692   6.538   6.487  12.133 -0.5371  0.0019 -1.1295
   42MOL0     C 5693   6.595   6.430  12.248  0.7359 -0.1075 -0.8314
   42MOL0     O 5694   6.533   6.313  12.298 -0.1063  0.1933  0.3002
   42MOL0     C 5695   6.605   6.228  12.384 -0.6027  0.5551  0.1824
   42MOL0     C 5696   6.544   6.088  12.387  0.2174 -0.7115  0.3405
   42MOL0     C 5697   6.395   6.091  12.402  0.7072  0.2079 -0.3346
   42MOL0     C 5698   6.344   6.138  12.541  0.4557  1.0094 -0.1769
   42MOL0     C 5699   6.194   6.155  12.535 -0.3495  0.0915 -0.0215
   42MOL0     C 5700   6.116   6.194  12.654 -0.9401  0.0595 -0.4218
   42MOL0     C 5701   5.968   6.176  12.638  0.5780 -0.1722 -0.7780
   42MOL0     C 5702   5.907   6.186  12.783  0.1001 -0.9458 -0.8664
   42MOL0    Cl 5703   5.747   6.119  12.770 -0.2734 -0.4191 -0.1563
   42MOL0     C 5704   6.710   6.480  12.308 -0.3394 -0.3789  0.3873
   42MOL0     C 5705   6.783   6.589  12.252  1.1273 -0.2173 -0.2149
   42MOL0     O 5706   6.976   6.641  12.050  0.2564  0.2573 -0.5185
   42MOL0     C 5707   6.901   6.985  12.026  0.5132 -0.8570  0.5950
   42MOL0     C 5708   6.956   7.112  12.015  0.2235 -1.0056 -0.4816
   42MOL0     N 5709   7.003   7.809  11.818 -0.3171 -0.3097 -0.4886
   42MOL0     N 5710   6.966   7.921  11.758  0.8553 -0.2153 -0.3870
   42MOL0     C 5711   6.556   8.710  11.347  0.2839 -0.0070 -0.1230
   42MOL0     C 5712   6.490   8.832  11.378  0.2239  0.4613  0.6159
   42MOL0     C 5713   6.165   9.163  11.395  0.5046  0.1977  0.2352
   42MOL0     C 5714   6.170   9.183  11.540 -0.1609 -0.8181 -0.5721
   42MOL0     C 5715   6.098   9.295  11.591 -0.2538 -0.2648 -0.1302
   42MOL0     C 5716   6.060   9.405  11.509  0.4882 -0.7142 -0.1474
   42MOL0     O 5717   6.008   9.516  11.583 -0.6541  0.0967  0.2316
   42MOL0     C 5718   5.997   9.646  11.526 -0.2232 -0.3767 -0.0923
   42MOL0     C 5719   5.922   9.741  11.631 -0.2754  0.6125  1.1884
   42MOL0     C 5720   5.868   9.870  11.558 -0.4051  0.4930 -1.1920
   42MOL0     C 5721   5.976   9.973  11.528  0.6111  0.0270  0.2928
   42MOL0     C 5722   5.925  10.101  11.464 -0.3924  0.7382  0.2494
   42MOL0     C 5723   5.893  10.215  11.435  0.1490 -0.1284 -0.5159
   42MOL0     C 5724   6.054   9.384  11.374 -0.1360 -0.0669 -0.9835
   42MOL0     C 5725   6.099   9.268  11.314  0.5141  0.5426  0.0855
   42MOL0     C 5726   6.093   9.268  11.162  0.0232 -0.3882 -0.2880
   42MOL0     H 5727   6.165   8.745  11.333  0.7753  3.0965  1.5352
   42MOL0     H 5728   6.287   8.524  11.272  1.1359  0.2565 -4.6884
   42MOL0     H 5729   6.722   8.490  11.237 -0.2644  1.2378  2.0817
   42MOL0     H 5730   6.607   8.543  11.107  1.9499  0.4853  0.5178
   42MOL0     H 5731   6.515   8.323  11.070 -0.0733 -3.1814  0.6576
   42MOL0     H 5732   6.683   8.336  11.026 -0.1968 -0.1242  0.4532
   42MOL0     H 5733   6.564   8.223  11.280 -0.2991  1.3976 -1.2378
   42MOL0     H 5734   6.602   8.109  11.156 -2.6306 -2.4500  4.9450
   42MOL0     H 5735   6.845   8.227  11.202  2.9918  1.7770  3.2458
   42MOL0     H 5736   6.760   8.264  11.358 -4.1994  1.5487 -1.5851
   42MOL0     H 5737   6.781   7.992  11.226 -3.5072 -0.3575  0.6354
   42MOL0     H 5738   6.704   8.021  11.374 -1.4667 -1.1195 -1.7530
   42MOL0     H 5739   6.954   7.931  11.415  3.1937  0.5509 -0.3741
   42MOL0     H 5740   7.002   8.075  11.325 -1.8973  2.1836  0.5428
   42MOL0     H 5741   6.847   8.072  11.583  0.1157 -3.9946 -2.8725
   42MOL0     H 5742   6.930   8.222  11.502 -0.1815  0.5475 -0.2798
   42MOL0     H 5743   7.143   8.092  11.532  0.5782  2.2670  1.5012
   42MOL0     H 5744   7.065   8.163  11.661 -0.2480 -0.6081  1.2749
   42MOL0     H 5745   7.257   7.838  11.624  1.4236 -0.4025  2.3278
   42MOL0     H 5746   7.210   7.685  11.962  2.7243  1.1846  0.1730
   42MOL0     H 5747   7.320   7.690  11.838  0.5137  0.7478  1.3148
   42MOL0     H 5748   7.071   7.518  11.841 -0.5868  1.0716  0.5590
   42MOL0     H 5749   7.177   7.520  11.702 -0.1669  2.4406  0.0658
   42MOL0     H 5750   7.371   7.466  11.823  0.7356 -0.5755  0.8627
   42MOL0     H 5751   7.276   7.465  11.972 -1.4464  2.1430 -0.1514
   42MOL0     H 5752   7.250   7.259  11.738  0.5389 -0.6378  0.6595
   42MOL0     H 5753   7.317   7.211  11.893 -0.5497 -0.0791  0.3789
   42MOL0     H 5754   7.208   7.017  11.809 -0.3049 -0.1336 -0.3665
   42MOL0     H 5755   7.232   6.796  11.772 -1.3020 -1.8629 -4.6009
   42MOL0     H 5756   7.076   6.699  11.796 -0.8519  0.2810  1.8774
   42MOL0     H 5757   7.204   6.703  11.919  1.7855  1.0825 -1.6845
   42MOL0     H 5758   6.554   6.654  12.006 -1.7241  0.3930  0.3760
   42MOL0     H 5759   6.449   6.443  12.089  0.3141 -1.4164 -1.5256
   42MOL0     H 5760   6.708   6.229  12.348  0.5349 -1.0625  3.0880
   42MOL0     H 5761   6.620   6.264  12.486 -0.8532 -1.8851  1.1388
   42MOL0     H 5762   6.570   6.054  12.286 -0.3821 -2.0965  0.6240
   42MOL0     H 5763   6.591   6.030  12.466 -1.0842  0.7098  2.2314
   42MOL0     H 5764   6.360   5.991  12.376 -1.1211  1.4693 -3.3550
   42MOL0     H 5765   6.340   6.162  12.340 -0.4180  0.8687  1.3602
   42MOL0     H 5766   6.388   6.237  12.562 -2.0017  2.0689  0.3132
   42MOL0     H 5767   6.374   6.075  12.625  2.0557  3.6562  1.3784
   42MOL0     H 5768   6.165   6.226  12.456  0.2731  0.6535  0.2454
   42MOL0     H 5769   6.158   6.069  12.478  0.8217  1.1319 -2.5082
   42MOL0     H 5770   6.133   6.296  12.688  1.3931 -0.7921  1.2392
   42MOL0     H 5771   6.160   6.131  12.731 -3.2390 -0.4116  0.5953
   42MOL0     H 5772   5.929   6.085  12.592  0.2557 -0.0336 -0.7845
   42MOL0     H 5773   5.921   6.257  12.582 -0.2604  0.3818  0.6647
   42MOL0     H 5774   5.904   6.294  12.805  0.3123 -1.1554  0.2721
   42MOL0     H 5775   5.968   6.143  12.863 -1.1381 -1.4574 -0.1758
   42MOL0     H 5776   6.757   6.450  12.402 -0.2755  1.4441  0.9835
   42MOL0     H 5777   6.877   6.623  12.294 -0.8132  3.1349  1.9624
   42MOL0     H 5778   6.808   6.988  12.082  0.4544  2.6832  0.5783
   42MOL0     H 5779   6.916   7.188  12.081 -5.0928 -4.0371  0.3962
   42MOL0     H 5780   6.663   8.696  11.353  0.5583  2.2710  1.7726
   42MOL0     H 5781   6.565   8.909  11.395  0.6260 -0.4102  3.3166
   42MOL0     H 5782   6.211   9.111  11.610 -1.6789 -2.4313 -1.2667
   42MOL0     H 5783   6.100   9.317  11.697  0.3782 -1.6631  0.1637
   42MOL0     H 5784   6.100   9.683  11.519  0.6236 -2.2844  1.4576
   42MOL0     H 5785   5.942   9.651  11.431 -0.5929  2.5997  0.1889
   42MOL0     H 5786   5.998   9.770  11.704 -0.5826  0.8412  1.4218
   42MOL0     H 5787   5.834   9.694  11.678 -1.3350  1.2839 -0.0546
   42MOL0     H 5788   5.826   9.838  11.463 -0.5327 -0.3983 -0.8449
   42MOL0     H 5789   5.781   9.916  11.606 -0.1779  1.0416 -1.3082
   42MOL0     H 5790   6.037   9.923  11.453  2.0445 -2.3452  2.8432
   42MOL0     H 5791   6.028  10.000  11.621 -0.3927  0.4330  0.7471
   42MOL0     H 5792   5.861  10.315  11.412 -3.1694 -1.4824 -2.5554
   42MOL0     H 5793   6.008   9.463  11.315  0.6466  0.1624 -1.3022
   42MOL0     H 5794   6.064   9.363  11.118  0.2669 -1.9385 -4.2628
   42MOL0     H 5795   6.191   9.242  11.120 -0.0737  0.2597 -0.9225
   42MOL0     H 5796   6.023   9.187  11.136  1.1772 -1.3256 -0.5649
   43MOL0     O 5797   5.820   5.295   7.364  0.4902  0.1340  0.4391
   43MOL0     C 5798   5.725   5.307   7.281 -0.6516  0.3103  0.2957
   43MOL0     O 5799   5.718   5.413   7.196  0.0239  0.8050 -0.1156
   43MOL0     C 5800   5.768   5.540   7.215 -0.1761  0.1583 -0.7256
   43MOL0     C 5801   5.813   5.615   7.104 -0.0510  0.8566  0.1518
   43MOL0     C 5802   5.860   5.741   7.123 -0.4690 -0.2932  0.3819
   43MOL0     C 5803   5.880   5.793   7.250 -0.6571 -0.8050  0.2144
   43MOL0     O 5804   5.931   5.924   7.252  0.0309 -0.0664  0.0230
   43MOL0     C 5805   5.906   6.008   7.372  0.5030 -0.4433  0.0958
   43MOL0     C 5806   5.766   6.084   7.357 -0.6363  0.0267  0.5016
   43MOL0     C 5807   5.768   6.150   7.209  0.2990  0.0615  0.8795
   43MOL0     C 5808   5.665   6.266   7.193  0.0131 -0.1710 -0.3912
   43MOL0     C 5809   5.511   6.263   7.174  0.0844  0.0205  1.2733
   43MOL0     C 5810   5.429   6.276   7.300  0.3405 -0.6792  0.1263
   43MOL0     C 5811   5.281   6.236   7.274 -0.0422  0.9042  0.9823
   43MOL0     C 5812   5.188   6.263   7.400  0.6557  1.4737  1.1653
   43MOL0     N 5813   5.249   6.182   7.511  0.8215  0.0233 -0.4848
   43MOL0     C 5814   5.303   6.054   7.507  0.5914  0.1154 -0.0418
   43MOL0     C 5815   5.358   6.043   7.631  0.5371 -0.0997  0.2112
   43MOL0     C 5816   5.445   5.935   7.684 -0.5667  0.0392 -0.5320
   43MOL0     C 5817   5.584   5.995   7.683 -0.8243  0.1396 -0.2037
   43MOL0     C 5818   5.674   5.869   7.701  0.4643 -0.0550  1.0079
   43MOL0     C 5819   5.807   5.893   7.759 -0.4514 -0.4610  0.7768
   43MOL0     O 5820   5.901   5.789   7.755 -0.4288 -0.0932 -0.6783
   43MOL0     C 5821   5.859   5.678   7.825  1.0330 -0.6311  0.2309
   43MOL0     C 5822   5.822   5.571   7.753  0.0659  0.6083  0.4293
   43MOL0     C 5823   5.773   5.453   7.801  0.2977  0.5910 -0.1488
   43MOL0     C 5824   5.740   5.357   7.684 -0.1679  0.5694 -0.7313
   43MOL0     C 5825   5.776   5.427   7.934 -0.0919  0.0771  0.0150
   43MOL0     C 5826   5.729   5.295   7.987 -0.6890 -1.1456 -0.7118
   43MOL0     O 5827   5.726   5.292   8.126  0.2336 -0.1384 -0.5459
   43MOL0     C 5828   5.680   5.186   8.209  0.9354  0.6696  0.5381
   43MOL0     C 5829   5.710   5.186   8.348 -1.0506 -0.3747 -0.2748
   43MOL0     C 5830   5.664   5.083   8.439 -0.5875 -0.4650  0.5432
   43MOL0     C 5831   5.582   4.981   8.387  0.5714  0.0280 -0.3127
   43MOL0     O 5832   5.525   4.885   8.467 -0.0094 -0.2581 -0.1892
   43MOL0     C 5833   5.482   4.924   8.596  1.0516 -0.4837  0.0517
   43MOL0     C 5834   5.506   4.828   8.705 -0.0040 -0.7136 -0.0665
   43MOL0     C 5835   5.650   4.838   8.768  0.4124  0.2083 -0.2690
   43MOL0     C 5836   5.669   4.712   8.854  1.2738 -0.3729  0.0235
   43MOL0     C 5837   5.798   4.730   8.925  0.4312  0.7730 -0.1171
   43MOL0     C 5838   5.815   4.628   9.025 -0.3617  0.1293 -0.4775
   43MOL0     C 5839   5.951   4.630   9.095  0.4478  0.5856  0.9721
   43MOL0     C 5840   5.984   4.761   9.164 -0.8778 -0.1871 -0.4044
   43MOL0    Cl 5841   5.920   4.774   9.333 -0.3425 -0.4320 -0.5075
   43MOL0     C 5842   5.545   4.995   8.252 -0.5043  0.0340 -0.1855
   43MOL0     C 5843   5.604   5.080   8.163 -0.6966 -0.3277  1.2201
   43MOL0     O 5844   5.724   5.199   7.910  0.1355  0.4933  0.8390
   43MOL0     C 5845   5.821   5.532   8.020  0.2365 -0.3265  0.8032
   43MOL0     C 5846   5.859   5.654   7.954  0.7179  0.0532 -0.9283
   43MOL0     N 5847   5.335   6.156   7.705  0.1508 -0.0779  0.8877
   43MOL0     N 5848   5.279   6.247   7.630 -0.7568  0.5583 -0.0183
   43MOL0     C 5849   5.830   5.719   7.362  0.1267 -0.7313  0.3471
   43MOL0     C 5850   5.765   5.595   7.340 -0.0298  0.0943  0.5238
   43MOL0     C 5851   5.650   5.185   7.253  0.1185  0.5455  0.9073
   43MOL0     C 5852   5.694   5.063   7.313 -0.1852  0.2169 -0.5689
   43MOL0     C 5853   5.616   4.944   7.298  0.5463 -0.3687 -0.3372
   43MOL0     C 5854   5.509   4.938   7.213 -0.0977 -1.1375 -0.1656
   43MOL0     O 5855   5.472   4.812   7.198  0.2619 -0.0453  0.4678
   43MOL0     C 5856   5.372   4.786   7.101 -0.1025  1.1084  0.2688
   43MOL0     C 5857   5.336   4.638   7.113  0.1575 -1.1066 -0.2337
   43MOL0     C 5858   5.190   4.598   7.051 -0.0066  0.4019  0.2439
   43MOL0     C 5859   5.205   4.580   6.898  0.8513 -0.1874  0.1198
   43MOL0     C 5860   5.078   4.578   6.829 -0.6385 -0.0972  0.1450
   43MOL0     C 5861   4.975   4.576   6.767 -0.2690  0.7489  0.1558
   43MOL0     C 5862   5.478   5.056   7.150  0.7113  0.8203  0.2829
   43MOL0     C 5863   5.528   5.182   7.169 -0.9779  0.5309 -1.1392
   43MOL0     C 5864   5.465   5.305   7.099 -0.0556  0.7195  0.1307
   43MOL0     H 5865   5.821   5.564   7.009 -2.5438 -2.4970  1.5107
   43MOL0     H 5866   5.893   5.800   7.037 -1.9967  2.3271  1.4646
   43MOL0     H 5867   5.979   6.088   7.374  1.0150 -0.8032 -1.9138
   43MOL0     H 5868   5.909   5.951   7.465 -1.2858 -0.3962  0.2151
   43MOL0     H 5869   5.686   6.010   7.364  1.2142 -1.9788  1.8186
   43MOL0     H 5870   5.749   6.162   7.432 -0.4207 -0.2225  0.8152
   43MOL0     H 5871   5.866   6.197   7.194 -0.1917  0.3194 -2.1881
   43MOL0     H 5872   5.741   6.082   7.128 -0.8664  1.2763  0.2070
   43MOL0     H 5873   5.679   6.342   7.271 -0.4046  1.7792 -2.1393
   43MOL0     H 5874   5.691   6.323   7.103 -3.3017 -1.3790 -2.3203
   43MOL0     H 5875   5.488   6.168   7.125  1.2249 -0.0992  0.9443
   43MOL0     H 5876   5.477   6.344   7.109  1.5458  0.2786  0.7989
   43MOL0     H 5877   5.481   6.215   7.375 -0.0571  3.6947  4.4047
   43MOL0     H 5878   5.423   6.379   7.336 -0.1175 -0.7616  0.2878
   43MOL0     H 5879   5.288   6.130   7.248 -0.5046  1.1818 -0.3193
   43MOL0     H 5880   5.244   6.287   7.185 -0.8395  1.2608  1.5017
   43MOL0     H 5881   5.193   6.365   7.440  1.0576 -0.0366  5.6005
   43MOL0     H 5882   5.081   6.246   7.384  0.8299  0.3965  1.1187
   43MOL0     H 5883   5.321   5.976   7.433  2.0823 -0.6028  1.0084
   43MOL0     H 5884   5.430   5.849   7.618 -3.1525  0.9971 -1.3191
   43MOL0     H 5885   5.427   5.898   7.785 -1.0721  1.8272  0.0724
   43MOL0     H 5886   5.612   6.049   7.592  2.2110 -1.5484 -0.3989
   43MOL0     H 5887   5.600   6.064   7.766  2.2527  0.3913 -0.9015
   43MOL0     H 5888   5.626   5.801   7.772  2.5106 -0.0019  2.5387
   43MOL0     H 5889   5.695   5.814   7.609 -0.0154 -0.4223  1.1183
   43MOL0     H 5890   5.860   5.980   7.718 -0.5667 -0.7548 -0.0018
   43MOL0     H 5891   5.787   5.918   7.864 -2.2031 -1.4173  0.7055
   43MOL0     H 5892   5.830   5.574   7.645 -0.8764  0.8075  0.3583
   43MOL0     H 5893   5.638   5.318   7.691  0.1640 -0.2171 -0.0624
   43MOL0     H 5894   5.807   5.271   7.691  0.2092  1.0323  2.2899
   43MOL0     H 5895   5.750   5.393   7.581 -1.2353 -2.0561 -1.8542
   43MOL0     H 5896   5.767   5.269   8.390  1.0234 -2.0016  0.3265
   43MOL0     H 5897   5.688   5.098   8.543  0.3016 -0.4488  0.3415
   43MOL0     H 5898   5.508   5.026   8.626  0.7363 -0.6497  0.9099
   43MOL0     H 5899   5.373   4.919   8.595  1.0944 -3.9263  0.6635
   43MOL0     H 5900   5.434   4.846   8.786 -0.0369 -0.5231 -0.1395
   43MOL0     H 5901   5.499   4.727   8.664  2.9844 -0.8322 -0.4623
   43MOL0     H 5902   5.658   4.929   8.827  0.1071 -0.2303  0.4541
   43MOL0     H 5903   5.725   4.843   8.688 -1.5472  1.0557 -2.1807
   43MOL0     H 5904   5.680   4.618   8.800  1.1708 -0.9067  0.9095
   43MOL0     H 5905   5.581   4.711   8.919  0.8672 -0.4087 -0.5248
   43MOL0     H 5906   5.881   4.738   8.855 -0.0310  2.0504 -0.5457
   43MOL0     H 5907   5.808   4.828   8.973  4.0321  1.3637 -1.7877
   43MOL0     H 5908   5.790   4.525   8.999 -1.9773 -0.0202  1.4432
   43MOL0     H 5909   5.749   4.655   9.109  0.0197 -1.3335  0.3206
   43MOL0     H 5910   6.028   4.609   9.019 -0.4585 -1.0034  0.4525
   43MOL0     H 5911   5.946   4.548   9.168  3.3709 -0.1044  0.5420
   43MOL0     H 5912   5.951   4.852   9.114 -0.7693  1.1705  1.8798
   43MOL0     H 5913   6.094   4.758   9.163 -0.8562  0.3135  0.2187
   43MOL0     H 5914   5.467   4.931   8.211  0.7225 -1.6097 -0.0549
   43MOL0     H 5915   5.573   5.073   8.059 -0.5484  0.1317  1.1450
   43MOL0     H 5916   5.833   5.512   8.126  1.9136 -0.7132  0.5715
   43MOL0     H 5917   5.907   5.723   8.023  2.2349 -0.4620 -1.4376
   43MOL0     H 5918   5.858   5.745   7.464  1.4519  0.9847 -0.4172
   43MOL0     H 5919   5.733   5.539   7.427  1.7333 -0.0068  1.1336
   43MOL0     H 5920   5.773   5.052   7.387 -0.0508 -2.8176 -1.0516
   43MOL0     H 5921   5.630   4.855   7.360  2.4513 -0.7581 -1.2443
   43MOL0     H 5922   5.289   4.850   7.131 -0.9629 -0.6251  1.8385
   43MOL0     H 5923   5.405   4.789   6.997  0.3860 -0.5228  0.3358
   43MOL0     H 5924   5.336   4.614   7.220  0.2891 -0.3004 -0.0480
   43MOL0     H 5925   5.406   4.566   7.070  0.0896 -3.0085  2.5411
   43MOL0     H 5926   5.142   4.517   7.108  1.8572 -1.4142 -0.6053
   43MOL0     H 5927   5.126   4.686   7.058 -0.0702  0.4401 -0.7353
   43MOL0     H 5928   5.236   4.475   6.888 -0.4217 -0.5797  0.1432
   43MOL0     H 5929   5.267   4.659   6.854  0.3211  0.4614  0.5359
   43MOL0     H 5930   4.887   4.571   6.705 -0.0392 -3.2771 -0.1132
   43MOL0     H 5931   5.405   5.047   7.071  3.6620 -2.7688 -2.3840
   43MOL0     H 5932   5.466   5.390   7.167  2.2152  0.2573  0.7553
   43MOL0     H 5933   5.514   5.329   7.004 -4.0470 -1.6951 -2.8599
   43MOL0     H 5934   5.361   5.289   7.071  0.4581 -0.0716 -1.4789
   44MOL0     O 5935   3.522   2.321   9.526  0.0347 -0.2479  0.3425
   44MOL0     C 5936   3.624   2.345   9.462  0.0231 -0.3960 -0.1831
   44MOL0     O 5937   3.636   2.420   9.353 -0.1851 -0.1288  0.1337
   44MOL0     C 5938   3.519   2.467   9.297 -0.0758 -0.7898  0.0233
   44MOL0     C 5939   3.417   2.378   9.250 -0.4373  0.1513  0.6602
   44MOL0     C 5940   3.308   2.430   9.183 -0.0657 -0.7512  0.3899
   44MOL0     C 5941   3.316   2.566   9.141  0.1205  2.0368 -0.2450
   44MOL0     O 5942   3.212   2.588   9.064  0.5567 -0.3050  0.2197
   44MOL0     C 5943   3.156   2.720   9.089 -0.0820  0.0184 -0.2189
   44MOL0     C 5944   3.008   2.714   9.035  0.1122  0.9932 -0.9714
   44MOL0     C 5945   2.915   2.644   9.144  0.1273 -0.1131  0.6205
   44MOL0     C 5946   2.945   2.498   9.157  0.9119  0.2546 -0.1200
   44MOL0     C 5947   2.827   2.434   9.231 -0.0373  0.0413  0.2365
   44MOL0     C 5948   2.873   2.292   9.280 -0.0050  0.3340  0.4642
   44MOL0     C 5949   2.765   2.230   9.369 -0.1432  0.2545  0.1173
   44MOL0     C 5950   2.629   2.243   9.313  0.4340  0.2732 -0.1225
   44MOL0     N 5951   2.522   2.185   9.394 -0.1670  0.0349 -0.2763
   44MOL0     C 5952   2.393   2.139   9.341 -0.0211 -0.4765  0.5492
   44MOL0     C 5953   2.329   2.103   9.456 -0.3201  0.0841  0.2055
   44MOL0     C 5954   2.199   2.032   9.449  0.4083  0.0016 -0.0236
   44MOL0     C 5955   2.089   2.103   9.523 -0.2790 -0.4356  0.1609
   44MOL0     C 5956   2.090   2.077   9.672  0.4807 -0.0804 -0.2491
   44MOL0     C 5957   2.120   1.938   9.720  0.4369  0.5046 -0.7272
   44MOL0     O 5958   2.008   1.857   9.678  0.3736 -0.2540 -0.2170
   44MOL0     C 5959   1.992   1.729   9.734 -0.9624  0.3487  0.1540
   44MOL0     C 5960   1.901   1.642   9.684  0.5154 -0.1468 -0.7674
   44MOL0     C 5961   1.876   1.515   9.742  0.1888  0.2529  0.3490
   44MOL0     C 5962   1.753   1.435   9.680 -0.8549  1.1903 -0.1024
   44MOL0     C 5963   1.971   1.467   9.835 -0.0536  0.2892 -0.0705
   44MOL0     C 5964   1.967   1.326   9.884  0.6260 -0.1588 -0.1962
   44MOL0     O 5965   1.991   1.325  10.023 -0.7318 -0.4166 -0.3381
   44MOL0     C 5966   1.969   1.211  10.102 -0.1177  0.6735  0.0557
   44MOL0     C 5967   1.931   1.230  10.235  0.3792  0.7258 -0.4836
   44MOL0     C 5968   1.927   1.121  10.321  1.0217  0.3557 -0.3445
   44MOL0     C 5969   1.956   0.992  10.276  0.2477 -0.3459 -0.1352
   44MOL0     O 5970   1.946   0.885  10.358 -1.4739  0.5689  0.2740
   44MOL0     C 5971   1.814   0.823  10.350  0.5617  0.1763  0.5495
   44MOL0     C 5972   1.802   0.678  10.406 -0.4650 -0.4685 -0.3534
   44MOL0     C 5973   1.888   0.576  10.331 -0.7227 -0.2049 -0.6228
   44MOL0     C 5974   1.902   0.449  10.410  0.3741  0.1786 -1.3362
   44MOL0     C 5975   1.926   0.322  10.327  0.8577  0.0315 -0.1565
   44MOL0     C 5976   1.901   0.196  10.400  0.0659 -0.3941 -0.0344
   44MOL0     C 5977   1.982   0.073  10.360  1.4145  0.0998  0.6324
   44MOL0     C 5978   1.961   0.019  10.222 -0.3469  0.2649 -0.2598
   44MOL0    Cl 5979   2.009   0.134  10.092  0.5663 -0.0002 -0.0903
   44MOL0     C 5980   1.983   0.972  10.140  0.2044 -0.0112 -0.0483
   44MOL0     C 5981   2.005   1.085  10.057 -0.5659  0.1936  0.1742
   44MOL0     O 5982   1.950   1.230   9.807 -0.0813  0.2689 -0.5062
   44MOL0     C 5983   2.069   1.549   9.888 -0.3873  0.8766  0.4101
   44MOL0     C 5984   2.074   1.679   9.836 -0.5081  0.2843  0.6378
   44MOL0     N 5985   2.406   2.124   9.571 -1.3486 -0.1937 -0.3552
   44MOL0     N 5986   2.525   2.152   9.532 -0.1392 -0.4618 -0.0770
   44MOL0     C 5987   3.415   2.651   9.179 -0.0362 -0.0764  0.3029
   44MOL0     C 5988   3.512   2.600   9.257 -0.0300  0.8171  0.5942
   44MOL0     C 5989   3.758   2.308   9.516 -0.1391 -0.9640  0.0002
   44MOL0     C 5990   3.872   2.373   9.444 -0.2953 -0.0158 -0.2133
   44MOL0     C 5991   4.003   2.367   9.496  0.3102 -0.6650  0.4136
   44MOL0     C 5992   4.027   2.299   9.617 -0.2860 -0.1665 -0.0114
   44MOL0     O 5993   4.155   2.296   9.672  0.0878  0.0553  0.6492
   44MOL0     C 5994   4.249   2.392   9.627 -0.5129  0.3660  0.9586
   44MOL0     C 5995   4.383   2.388   9.707 -1.4334 -0.8754  0.0849
   44MOL0     C 5996   4.370   2.417   9.853 -0.5054 -0.7422 -0.2052
   44MOL0     C 5997   4.417   2.558   9.882  0.1827 -0.3347 -0.0790
   44MOL0     C 5998   4.382   2.608  10.019  0.1646 -0.6233 -0.4321
   44MOL0     C 5999   4.366   2.640  10.135  1.4359 -0.6333 -0.0421
   44MOL0     C 6000   3.921   2.243   9.687 -0.4977  0.0057  0.3385
   44MOL0     C 6001   3.789   2.249   9.638 -0.1856  0.4955 -0.5760
   44MOL0     C 6002   3.683   2.186   9.720 -0.5444 -0.6075  0.3178
   44MOL0     H 6003   3.436   2.272   9.254 -2.0517 -0.1540  0.9989
   44MOL0     H 6004   3.245   2.360   9.130 -1.3106  0.5539  0.0750
   44MOL0     H 6005   3.217   2.791   9.033  1.3111 -1.2122 -0.3120
   44MOL0     H 6006   3.150   2.753   9.193  1.0054  0.4445 -0.2792
   44MOL0     H 6007   2.965   2.815   9.026  3.3748  2.8318  1.8794
   44MOL0     H 6008   3.005   2.656   8.943 -0.4847 -0.9248  0.2028
   44MOL0     H 6009   2.921   2.698   9.238  4.5427  2.2481 -0.7496
   44MOL0     H 6010   2.811   2.650   9.110 -0.0931 -1.7313  0.9388
   44MOL0     H 6011   2.959   2.447   9.061 -2.2376 -1.1118  0.0183
   44MOL0     H 6012   3.034   2.488   9.220 -1.1664 -0.8893  2.8701
   44MOL0     H 6013   2.739   2.433   9.166 -0.5408 -0.8986  0.9137
   44MOL0     H 6014   2.792   2.497   9.313  2.1527  1.4765  0.1506
   44MOL0     H 6015   2.886   2.229   9.191 -1.2419  0.3427  0.2632
   44MOL0     H 6016   2.960   2.298   9.347 -0.7013 -0.3830  1.4561
   44MOL0     H 6017   2.779   2.269   9.470  1.0545 -5.4231  2.4897
   44MOL0     H 6018   2.778   2.123   9.386 -0.7657 -0.1293 -1.6170
   44MOL0     H 6019   2.598   2.347   9.296 -0.6643 -0.4654 -3.6904
   44MOL0     H 6020   2.627   2.178   9.224 -1.7791 -2.2297  1.5942
   44MOL0     H 6021   2.354   2.143   9.240 -0.5282  1.4666  0.7796
   44MOL0     H 6022   2.217   1.929   9.484  0.2026  0.6604  2.1892
   44MOL0     H 6023   2.148   2.033   9.353 -0.8710 -1.2065  0.6038
   44MOL0     H 6024   2.086   2.209   9.498 -0.7700  0.2356  2.7287
   44MOL0     H 6025   1.998   2.057   9.484  0.6139 -1.1207 -1.2091
   44MOL0     H 6026   2.164   2.143   9.720 -0.5723  0.1908  1.0656
   44MOL0     H 6027   1.993   2.114   9.705  1.2470  1.0512  0.8788
   44MOL0     H 6028   2.218   1.913   9.678 -0.2209  0.4509 -2.3013
   44MOL0     H 6029   2.133   1.940   9.828 -3.3035 -1.1109 -0.0952
   44MOL0     H 6030   1.833   1.684   9.611 -1.4660  0.1711  1.1708
   44MOL0     H 6031   1.656   1.481   9.702  0.3908  2.8158  2.6669
   44MOL0     H 6032   1.756   1.342   9.738  1.2630  0.2799 -1.5497
   44MOL0     H 6033   1.764   1.404   9.576 -1.6209 -0.9430  0.4099
   44MOL0     H 6034   1.890   1.326  10.266 -0.2593  0.3928 -0.2726
   44MOL0     H 6035   1.919   1.120  10.430  1.7348  1.5123 -0.2598
   44MOL0     H 6036   1.734   0.883  10.396 -2.4078 -1.9531 -1.4266
   44MOL0     H 6037   1.774   0.811  10.249 -2.6396  0.1695  1.6927
   44MOL0     H 6038   1.862   0.694  10.496 -0.5557 -3.0912  0.2623
   44MOL0     H 6039   1.701   0.649  10.437 -1.1415  3.3822  1.7206
   44MOL0     H 6040   1.988   0.617  10.319 -1.4973  1.6423 -1.1343
   44MOL0     H 6041   1.847   0.564  10.230 -0.2701 -0.7016 -0.7508
   44MOL0     H 6042   1.807   0.442  10.465 -0.0100 -2.7890 -2.2114
   44MOL0     H 6043   1.986   0.452  10.480  0.4227  0.3523 -1.4022
   44MOL0     H 6044   1.870   0.335  10.234  0.6011  3.2998  0.3074
   44MOL0     H 6045   2.031   0.314  10.299  1.2636 -0.7585  1.4744
   44MOL0     H 6046   1.797   0.177  10.373  0.4110 -1.5428 -0.5860
   44MOL0     H 6047   1.917   0.211  10.507 -3.6800  3.7228  0.2355
   44MOL0     H 6048   1.959  -0.007  10.431  1.8675 -0.1734  0.4731
   44MOL0     H 6049   2.090   0.095  10.360  1.5676  0.5812 -4.9781
   44MOL0     H 6050   1.858  -0.018  10.210 -0.7501  2.0260 -3.2106
   44MOL0     H 6051   2.027  -0.067  10.211 -0.7143 -0.1239  0.4906
   44MOL0     H 6052   1.995   0.871  10.103 -1.7521 -0.0886 -0.6017
   44MOL0     H 6053   2.047   1.066   9.959  0.8968  4.1313 -0.1277
   44MOL0     H 6054   2.136   1.511   9.964 -2.7533 -1.5977  1.4380
   44MOL0     H 6055   2.153   1.742   9.876  0.0320  0.5041 -0.7021
   44MOL0     H 6056   3.434   2.749   9.137  0.9800 -0.6338 -0.6174
   44MOL0     H 6057   3.592   2.667   9.287  1.7217  0.8854 -3.4734
   44MOL0     H 6058   3.869   2.432   9.354 -0.5698  1.1927  0.5660
   44MOL0     H 6059   4.090   2.411   9.448  1.8463 -3.4246  0.4787
   44MOL0     H 6060   4.267   2.386   9.519 -4.3180  2.3734  0.0220
   44MOL0     H 6061   4.208   2.493   9.639  2.5991  1.8034  0.4994
   44MOL0     H 6062   4.438   2.474   9.666  1.1850 -1.3357  2.3925
   44MOL0     H 6063   4.433   2.293   9.688 -2.2248 -1.2428 -0.2369
   44MOL0     H 6064   4.269   2.397   9.890 -0.2158 -0.1003  0.9795
   44MOL0     H 6065   4.423   2.348   9.920 -1.1208  0.3229  1.4517
   44MOL0     H 6066   4.364   2.619   9.809  1.2829 -0.2175 -0.8126
   44MOL0     H 6067   4.523   2.574   9.858 -0.3352 -0.5180 -2.7639
   44MOL0     H 6068   4.357   2.640  10.242  1.0906  3.3063  0.0801
   44MOL0     H 6069   3.943   2.202   9.785  1.0259 -1.3602 -0.5143
   44MOL0     H 6070   3.721   2.131   9.807  0.9556 -0.0223  0.0639
   44MOL0     H 6071   3.612   2.261   9.756 -1.0509 -0.2658 -1.3322
   44MOL0     H 6072   3.640   2.111   9.653  1.3779 -1.3446 -0.1492
   45MOL0     O 6073   1.527   7.286   5.396  0.0386 -0.1105 -0.1322
   45MOL0     C 6074   1.529   7.204   5.486  0.1335  0.5810  0.5871
   45MOL0     O 6075   1.539   7.064   5.471 -0.4331 -0.4778 -0.3101
   45MOL0     C 6076   1.538   6.997   5.346 -0.1001  0.0947 -1.2662
   45MOL0     C 6077   1.613   6.876   5.343 -1.1460 -0.8493 -0.1612
   45MOL0     C 6078   1.605   6.798   5.219  0.2325  0.0802 -0.6978
   45MOL0     C 6079   1.542   6.844   5.106  0.5076 -0.5029  0.6450
   45MOL0     O 6080   1.560   6.786   4.978 -0.6333 -0.2333  0.6105
   45MOL0     C 6081   1.642   6.661   4.953  0.0714 -0.2965 -0.5045
   45MOL0     C 6082   1.785   6.700   4.920  0.3213 -0.7823  0.4753
   45MOL0     C 6083   1.871   6.749   5.033 -0.3994 -0.3278  0.1718
   45MOL0     C 6084   2.009   6.786   4.968 -0.8939  0.1020 -1.0602
   45MOL0     C 6085   2.101   6.856   5.061 -0.3684  1.1699 -0.2418
   45MOL0     C 6086   2.149   6.762   5.176 -0.7331 -0.1139  0.6519
   45MOL0     C 6087   2.264   6.821   5.247  0.1786  1.1106  0.3901
   45MOL0     C 6088   2.332   6.740   5.348 -0.0157 -0.1236 -0.7846
   45MOL0     N 6089   2.431   6.816   5.423  0.2466  0.0595  0.0945
   45MOL0     C 6090   2.565   6.835   5.394 -0.5703 -0.1817 -0.4806
   45MOL0     C 6091   2.605   6.923   5.490  0.5385 -0.6665  0.6134
   45MOL0     C 6092   2.732   6.984   5.508  0.0650  0.1188 -0.0301
   45MOL0     C 6093   2.815   6.911   5.618 -0.3623  0.3099  0.2225
   45MOL0     C 6094   2.858   6.764   5.582  0.0812  1.3935  0.4578
   45MOL0     C 6095   2.916   6.677   5.693 -0.4459 -0.2031  0.6820
   45MOL0     O 6096   2.911   6.537   5.658  0.9333 -0.0579  0.4751
   45MOL0     C 6097   2.901   6.443   5.753  0.0556 -0.1568 -0.6644
   45MOL0     C 6098   2.883   6.446   5.894 -0.9944 -0.2951 -0.2986
   45MOL0     C 6099   2.857   6.336   5.974  0.0129 -0.3147 -0.1033
   45MOL0     C 6100   2.820   6.354   6.117 -0.0693  0.9759  0.9842
   45MOL0     C 6101   2.847   6.208   5.914 -0.4857  0.5082  0.2554
   45MOL0     C 6102   2.803   6.077   5.976 -0.2115  0.9411 -0.2345
   45MOL0     O 6103   2.765   5.977   5.890  0.3735 -0.7793  0.0660
   45MOL0     C 6104   2.735   5.848   5.933 -0.5150  0.5045 -0.5780
   45MOL0     C 6105   2.697   5.811   6.060  0.9862 -0.1221 -0.9028
   45MOL0     C 6106   2.680   5.683   6.099  0.2711  0.1679 -0.0392
   45MOL0     C 6107   2.677   5.574   6.014  0.4147  0.1102  0.0126
   45MOL0     O 6108   2.620   5.452   6.037  0.4985 -0.1739 -0.0103
   45MOL0     C 6109   2.571   5.415   6.171 -0.0741  1.1620 -0.6913
   45MOL0     C 6110   2.518   5.268   6.166  0.4078 -0.5386  0.3972
   45MOL0     C 6111   2.446   5.222   6.290 -0.4439 -0.7658  1.1105
   45MOL0     C 6112   2.377   5.086   6.263 -0.5232  0.3390 -1.0973
   45MOL0     C 6113   2.345   5.014   6.399 -0.2919  0.3903 -0.1218
   45MOL0     C 6114   2.308   4.869   6.381  0.1914 -1.1495 -0.5079
   45MOL0     C 6115   2.215   4.827   6.488 -0.1993 -0.2792 -0.5002
   45MOL0     C 6116   2.255   4.696   6.554 -0.3884  0.2554 -0.8919
   45MOL0    Cl 6117   2.235   4.532   6.473  0.1455  0.0905  0.4465
   45MOL0     C 6118   2.718   5.602   5.892 -0.0413  0.7879  0.4672
   45MOL0     C 6119   2.747   5.734   5.847 -0.3704 -0.6165 -0.3294
   45MOL0     O 6120   2.821   6.062   6.098 -0.3821 -0.2778  0.1052
   45MOL0     C 6121   2.882   6.203   5.772 -0.3731 -0.9828  0.2786
   45MOL0     C 6122   2.912   6.317   5.694 -0.3379 -0.0456  0.1107
   45MOL0     N 6123   2.499   6.968   5.562  0.6225 -0.4964 -0.3588
   45MOL0     N 6124   2.399   6.902   5.516 -0.0074 -0.4023  0.5126
   45MOL0     C 6125   1.468   6.958   5.110 -0.0611 -0.4895  0.3134
   45MOL0     C 6126   1.461   7.032   5.230 -0.1118 -0.8821  0.0092
   45MOL0     C 6127   1.545   7.260   5.615 -0.0348 -0.4243  0.4034
   45MOL0     C 6128   1.621   7.185   5.711  0.4637  0.3709 -0.7806
   45MOL0     C 6129   1.678   7.250   5.824  0.8598  0.0046 -0.1766
   45MOL0     C 6130   1.650   7.382   5.856  1.0776 -0.3788 -0.6284
   45MOL0     O 6131   1.710   7.453   5.960  0.3082 -0.0966 -0.0312
   45MOL0     C 6132   1.721   7.420   6.100  0.1765 -1.3551 -0.7956
   45MOL0     C 6133   1.794   7.537   6.170 -0.7546  0.4707  0.8060
   45MOL0     C 6134   1.797   7.527   6.317 -0.3772 -0.1793  0.0717
   45MOL0     C 6135   1.884   7.634   6.384  0.0391 -0.4757  0.4376
   45MOL0     C 6136   1.867   7.633   6.528 -0.0140  0.1383 -0.5953
   45MOL0     C 6137   1.824   7.618   6.640 -0.5885 -1.2141  0.6948
   45MOL0     C 6138   1.554   7.446   5.777  0.1420  0.2502  0.2965
   45MOL0     C 6139   1.507   7.388   5.656 -0.8537 -0.4597 -0.5751
   45MOL0     C 6140   1.416   7.480   5.577  0.0754  0.1577  0.8494
   45MOL0     H 6141   1.681   6.851   5.423 -0.3933 -2.6975 -1.2981
   45MOL0     H 6142   1.662   6.707   5.206 -0.8916 -0.6072 -0.9360
   45MOL0     H 6143   1.600   6.604   4.869  2.8466 -2.5445 -0.5124
   45MOL0     H 6144   1.630   6.585   5.031  1.0800 -0.3126 -0.3501
   45MOL0     H 6145   1.832   6.622   4.858  0.3803  1.9708 -3.2986
   45MOL0     H 6146   1.757   6.778   4.849 -2.2642 -2.2988 -0.2928
   45MOL0     H 6147   1.838   6.838   5.088  1.5596 -0.2858  1.3963
   45MOL0     H 6148   1.879   6.668   5.106 -0.5081  2.4836  3.5803
   45MOL0     H 6149   2.058   6.693   4.937  0.0126 -0.4075  1.6855
   45MOL0     H 6150   1.990   6.859   4.888 -1.0149  3.0504  1.4760
   45MOL0     H 6151   2.052   6.941   5.108 -0.5116 -0.5174  2.9186
   45MOL0     H 6152   2.189   6.891   5.005  0.7519  2.7756  2.3255
   45MOL0     H 6153   2.071   6.742   5.249 -1.3803  0.6814  0.1905
   45MOL0     H 6154   2.162   6.668   5.122 -3.0786 -1.2667  1.9433
   45MOL0     H 6155   2.259   6.923   5.284 -0.1341  0.5732  1.8851
   45MOL0     H 6156   2.336   6.836   5.165 -0.3347 -4.3164 -1.4540
   45MOL0     H 6157   2.255   6.718   5.422  0.2633  1.4242  0.0141
   45MOL0     H 6158   2.389   6.656   5.308  3.2850  1.0981  0.9170
   45MOL0     H 6159   2.622   6.804   5.307  0.4041 -1.5629  0.6027
   45MOL0     H 6160   2.728   7.092   5.523 -0.6970  0.0555  0.2687
   45MOL0     H 6161   2.779   6.974   5.409 -2.4089 -2.8061 -1.0819
   45MOL0     H 6162   2.906   6.968   5.640  0.2702 -0.2436 -0.8762
   45MOL0     H 6163   2.749   6.902   5.705  1.7089 -1.3134  1.7320
   45MOL0     H 6164   2.766   6.718   5.546  0.0085  2.0912 -0.2682
   45MOL0     H 6165   2.922   6.770   5.493 -1.2170 -1.5480 -0.8238
   45MOL0     H 6166   3.017   6.716   5.708 -0.8002  0.6583  0.9377
   45MOL0     H 6167   2.874   6.703   5.791 -0.4331  0.8742  0.4216
   45MOL0     H 6168   2.878   6.543   5.942 -1.9281 -0.2842 -0.4110
   45MOL0     H 6169   2.797   6.456   6.151  1.9677  1.3323  1.4583
   45MOL0     H 6170   2.901   6.318   6.181  0.0360  0.5795  0.6257
   45MOL0     H 6171   2.730   6.292   6.121  1.1102 -1.2572 -2.5569
   45MOL0     H 6172   2.673   5.887   6.133  2.3948 -0.1222 -0.4034
   45MOL0     H 6173   2.654   5.654   6.200 -0.3540  1.4969  0.2043
   45MOL0     H 6174   2.656   5.413   6.240  0.0886  1.4634 -0.8803
   45MOL0     H 6175   2.494   5.485   6.203  0.7760  1.2970  1.1884
   45MOL0     H 6176   2.458   5.260   6.075  0.2836  1.7119  0.2305
   45MOL0     H 6177   2.608   5.206   6.161  2.3436  2.1265  0.0963
   45MOL0     H 6178   2.379   5.301   6.327  0.1264 -0.1989  0.9374
   45MOL0     H 6179   2.515   5.215   6.374  1.5112  3.1729  0.0247
   45MOL0     H 6180   2.449   5.025   6.208 -1.6006 -2.3720  0.2863
   45MOL0     H 6181   2.279   5.096   6.215 -0.6485  4.3748 -0.3808
   45MOL0     H 6182   2.436   5.009   6.459  0.5342 -0.3549 -1.3906
   45MOL0     H 6183   2.267   5.070   6.451  1.8060  3.0958  0.3140
   45MOL0     H 6184   2.396   4.806   6.394  0.6283 -0.2428  1.1404
   45MOL0     H 6185   2.248   4.848   6.292  1.2432  0.1721 -1.5809
   45MOL0     H 6186   2.111   4.824   6.454  0.0054  1.7147 -1.4478
   45MOL0     H 6187   2.224   4.900   6.569 -1.1751  0.4949 -1.0718
   45MOL0     H 6188   2.207   4.690   6.652  0.7944 -3.0344 -0.3891
   45MOL0     H 6189   2.361   4.713   6.576 -1.0737  2.2035  1.4396
   45MOL0     H 6190   2.724   5.525   5.815  1.1275 -1.2948  2.5484
   45MOL0     H 6191   2.775   5.752   5.744 -2.5284 -2.0913 -1.2490
   45MOL0     H 6192   2.864   6.107   5.724 -1.7486 -0.9775  0.7635
   45MOL0     H 6193   2.932   6.318   5.588  4.2810  2.5184  0.7334
   45MOL0     H 6194   1.411   6.990   5.023 -0.5055 -5.3870 -1.5183
   45MOL0     H 6195   1.404   7.124   5.237  1.2633 -0.0616  0.9695
   45MOL0     H 6196   1.670   7.091   5.689 -0.5551 -0.1301 -0.9768
   45MOL0     H 6197   1.745   7.201   5.895  0.0741  2.8787  2.8386
   45MOL0     H 6198   1.620   7.403   6.139  0.4396 -0.1300  0.5191
   45MOL0     H 6199   1.770   7.323   6.108 -0.5738 -1.6303  0.6264
   45MOL0     H 6200   1.747   7.632   6.144  1.9495  2.0430  1.2780
   45MOL0     H 6201   1.896   7.539   6.130 -1.5177 -0.7784 -1.3407
   45MOL0     H 6202   1.694   7.549   6.348 -1.4603 -0.5693 -2.9458
   45MOL0     H 6203   1.841   7.431   6.346  1.6954 -0.6728 -3.9604
   45MOL0     H 6204   1.859   7.737   6.356  1.3594 -0.2154  0.1309
   45MOL0     H 6205   1.989   7.614   6.362  1.0323  2.6917  1.7199
   45MOL0     H 6206   1.776   7.586   6.731  0.4807 -3.6474  0.4655
   45MOL0     H 6207   1.519   7.541   5.815  0.6455  0.1313  1.0955
   45MOL0     H 6208   1.417   7.583   5.614 -0.3799  1.7975 -3.1700
   45MOL0     H 6209   1.440   7.497   5.471 -0.3413  0.8230  0.8510
   45MOL0     H 6210   1.312   7.455   5.599 -0.4904  2.0325  0.5461
   46MOL0     O 6211   5.963   4.106   3.218 -0.4766 -0.2126  0.5302
   46MOL0     C 6212   5.877   4.059   3.299  0.1455 -0.3357  0.7171
   46MOL0     O 6213   5.837   4.120   3.414  0.1283  0.3025 -0.4015
   46MOL0     C 6214   5.903   4.234   3.441 -0.2409 -0.4245  0.9820
   46MOL0     C 6215   5.851   4.358   3.393 -0.6849  0.2472 -0.1507
   46MOL0     C 6216   5.931   4.480   3.411  0.8900 -0.2315 -1.3561
   46MOL0     C 6217   6.059   4.467   3.476  0.6235 -0.7701  0.0634
   46MOL0     O 6218   6.123   4.586   3.481  1.0343 -0.1068  0.1496
   46MOL0     C 6219   6.183   4.640   3.599  0.5800 -0.3272 -0.0113
   46MOL0     C 6220   6.073   4.700   3.687  0.4507 -0.2327 -0.8631
   46MOL0     C 6221   6.128   4.751   3.820 -0.2281 -1.0238  0.3996
   46MOL0     C 6222   6.000   4.777   3.907  0.1215 -0.3970  0.1019
   46MOL0     C 6223   6.026   4.883   4.019  0.6427  0.3100 -0.2564
   46MOL0     C 6224   6.065   4.806   4.146 -0.2170 -0.4510  0.3109
   46MOL0     C 6225   6.053   4.893   4.269 -0.2871 -0.5629  0.6446
   46MOL0     C 6226   6.119   4.843   4.398  0.5660  0.9083 -1.3670
   46MOL0     N 6227   5.998   4.819   4.496 -0.1823  0.2890  0.3175
   46MOL0     C 6228   5.957   4.910   4.590 -0.1374 -0.6679 -0.2823
   46MOL0     C 6229   5.882   4.847   4.680  0.1564  1.2844 -0.0600
   46MOL0     C 6230   5.824   4.904   4.806  0.4417 -0.6236 -0.8580
   46MOL0     C 6231   5.924   4.979   4.888 -0.6399  0.0370 -0.8274
   46MOL0     C 6232   6.018   4.881   4.960 -0.3114 -0.1276 -0.1554
   46MOL0     C 6233   5.987   4.834   5.103 -0.3844 -0.1607 -0.4591
   46MOL0     O 6234   5.894   4.729   5.085 -0.7403  0.5290 -0.3235
   46MOL0     C 6235   5.913   4.598   5.054  0.1125 -0.2963  0.8359
   46MOL0     C 6236   5.805   4.530   4.996 -0.0724  0.3935  0.9109
   46MOL0     C 6237   5.818   4.394   4.961 -0.2576  0.1053  0.1247
   46MOL0     C 6238   5.692   4.333   4.904  0.0129 -0.0570 -0.1737
   46MOL0     C 6239   5.943   4.328   4.975  0.7173 -0.1127  0.0695
   46MOL0     C 6240   5.968   4.195   4.924  0.9611  0.3594 -0.7119
   46MOL0     O 6241   6.089   4.189   4.856  0.7905  0.8634  0.4939
   46MOL0     C 6242   6.151   4.066   4.837  1.1749 -0.0259 -0.5133
   46MOL0     C 6243   6.242   4.073   4.734  0.4367  0.7180 -0.4557
   46MOL0     C 6244   6.312   3.954   4.697  0.3547 -0.6075  0.2868
   46MOL0     C 6245   6.298   3.829   4.760 -0.0844 -0.6853 -0.3574
   46MOL0     O 6246   6.360   3.715   4.721 -0.9349  0.5127  0.1104
   46MOL0     C 6247   6.274   3.618   4.650 -0.6627 -0.6563 -0.7797
   46MOL0     C 6248   6.351   3.497   4.571  0.3243  0.0248 -0.4496
   46MOL0     C 6249   6.455   3.542   4.468 -0.1486  0.5945 -0.0538
   46MOL0     C 6250   6.569   3.444   4.448  0.2926  0.4127 -0.3186
   46MOL0     C 6251   6.708   3.487   4.491  0.3268 -0.1936 -0.5672
   46MOL0     C 6252   6.719   3.481   4.647 -0.5710  0.0271 -0.4812
   46MOL0     C 6253   6.863   3.436   4.692  0.3523 -0.1184 -0.3537
   46MOL0     C 6254   6.894   3.477   4.844  0.1460  0.4511  0.3371
   46MOL0    Cl 6255   6.963   3.640   4.869  0.2593  0.1198 -0.0638
   46MOL0     C 6256   6.199   3.831   4.859 -0.2004  0.2861 -0.0054
   46MOL0     C 6257   6.124   3.943   4.901 -0.5745 -0.4791 -0.2193
   46MOL0     O 6258   5.877   4.115   4.927 -0.2070  0.1270 -0.7463
   46MOL0     C 6259   6.049   4.402   5.041 -0.3257  1.1694 -1.1753
   46MOL0     C 6260   6.023   4.528   5.095  0.0389 -0.8576  0.1533
   46MOL0     N 6261   5.869   4.723   4.636 -0.5189  0.2286  0.1408
   46MOL0     N 6262   5.939   4.704   4.530  0.0544 -0.2586 -0.1753
   46MOL0     C 6263   6.095   4.341   3.519  0.1572 -0.6669  0.1161
   46MOL0     C 6264   6.011   4.228   3.517 -1.2622  0.6483  0.0551
   46MOL0     C 6265   5.793   3.948   3.262  0.2729 -0.1754 -0.2681
   46MOL0     C 6266   5.695   3.911   3.356  0.0212  0.3812 -0.2259
   46MOL0     C 6267   5.626   3.793   3.340 -0.1408 -0.0323 -0.7733
   46MOL0     C 6268   5.652   3.694   3.247  0.0711  0.3711 -0.3281
   46MOL0     O 6269   5.584   3.570   3.237 -0.5859 -0.7489 -0.1069
   46MOL0     C 6270   5.480   3.553   3.332  0.3196  0.0825 -0.3235
   46MOL0     C 6271   5.437   3.413   3.336  0.2014  0.6832  0.3936
   46MOL0     C 6272   5.306   3.377   3.420 -0.0542  0.4742 -0.0492
   46MOL0     C 6273   5.289   3.232   3.415  0.3026 -0.4457 -0.3007
   46MOL0     C 6274   5.148   3.207   3.460  0.5749  0.6136  0.5801
   46MOL0     C 6275   5.035   3.178   3.495  0.0609  0.7183  0.3131
   46MOL0     C 6276   5.741   3.740   3.152 -1.2651  0.8424  0.0566
   46MOL0     C 6277   5.801   3.864   3.145  0.3026  0.6555 -0.3988
   46MOL0     C 6278   5.895   3.883   3.033 -0.2990  0.1797 -0.1193
   46MOL0     H 6279   5.758   4.352   3.338  0.2047 -1.8212 -1.5612
   46MOL0     H 6280   5.893   4.575   3.373 -2.0247 -0.1538  1.3316
   46MOL0     H 6281   6.254   4.718   3.571 -1.3214  1.2907 -0.5475
   46MOL0     H 6282   6.242   4.565   3.653 -3.3146 -1.9626  2.3663
   46MOL0     H 6283   6.027   4.788   3.642 -1.9412 -1.3843 -0.8103
   46MOL0     H 6284   5.991   4.631   3.709 -0.7556  1.0394 -1.2231
   46MOL0     H 6285   6.204   4.679   3.852  1.7333 -0.9431 -3.4688
   46MOL0     H 6286   6.179   4.846   3.804 -3.1087  0.8460  1.6027
   46MOL0     H 6287   5.922   4.810   3.838 -0.3779  0.7689  1.1884
   46MOL0     H 6288   5.954   4.684   3.944  0.2861 -0.4017  0.2946
   46MOL0     H 6289   5.940   4.945   4.044 -1.1160 -2.5792  1.5321
   46MOL0     H 6290   6.098   4.957   3.983 -1.1341  0.4943 -3.8129
   46MOL0     H 6291   5.992   4.725   4.150 -0.9675  0.0875 -1.4030
   46MOL0     H 6292   6.159   4.751   4.132  0.8278  1.4324 -0.5475
   46MOL0     H 6293   5.945   4.901   4.281 -0.6460 -4.3853  1.1534
   46MOL0     H 6294   6.081   4.992   4.233 -1.0135 -0.2894  0.8294
   46MOL0     H 6295   6.176   4.750   4.386  0.4104  0.7533 -0.9532
   46MOL0     H 6296   6.178   4.921   4.447 -1.5155  2.1239 -0.6545
   46MOL0     H 6297   5.977   5.016   4.593 -2.0872 -0.1819 -2.2555
   46MOL0     H 6298   5.787   4.815   4.856 -1.0105  0.3189 -0.1852
   46MOL0     H 6299   5.738   4.964   4.775 -0.3553 -2.1647 -1.7132
   46MOL0     H 6300   5.963   5.047   4.812 -0.0130  0.3841 -0.2085
   46MOL0     H 6301   5.883   5.038   4.971  1.8978  2.8917 -1.4306
   46MOL0     H 6302   6.037   4.794   4.896 -1.5855 -0.3357 -0.2802
   46MOL0     H 6303   6.114   4.933   4.965 -0.3885 -0.1299  3.1241
   46MOL0     H 6304   6.068   4.792   5.163  0.1566  0.9723 -0.3642
   46MOL0     H 6305   5.959   4.917   5.168  0.5542 -1.0412  1.1429
   46MOL0     H 6306   5.702   4.565   4.993 -0.4597 -0.7296 -1.8817
   46MOL0     H 6307   5.603   4.389   4.932 -0.3028 -1.1588  1.1431
   46MOL0     H 6308   5.671   4.231   4.937 -2.9901  0.5172 -0.0177
   46MOL0     H 6309   5.699   4.345   4.795 -0.0827  0.7947 -0.0889
   46MOL0     H 6310   6.283   4.165   4.693  0.8567  0.1537 -1.3289
   46MOL0     H 6311   6.380   3.960   4.613  0.3155 -2.6471  0.0724
   46MOL0     H 6312   6.216   3.569   4.729  0.2675 -0.3574  0.1127
   46MOL0     H 6313   6.212   3.665   4.573 -0.2448  0.5389 -0.4093
   46MOL0     H 6314   6.394   3.431   4.647 -0.7678  1.0768  1.1256
   46MOL0     H 6315   6.268   3.435   4.536 -0.2548  0.4522  0.1521
   46MOL0     H 6316   6.490   3.645   4.481  0.8843  0.1914  0.5360
   46MOL0     H 6317   6.399   3.527   4.376  3.5437 -2.4621 -2.1266
   46MOL0     H 6318   6.570   3.421   4.341  0.4127  1.9665 -0.6790
   46MOL0     H 6319   6.558   3.349   4.500  0.9390  0.8672  0.6853
   46MOL0     H 6320   6.770   3.403   4.458 -1.3166 -1.9292  0.5305
   46MOL0     H 6321   6.735   3.584   4.447  0.4976 -0.1816 -0.4385
   46MOL0     H 6322   6.651   3.406   4.688 -2.5152  1.9440 -0.0556
   46MOL0     H 6323   6.706   3.580   4.693  2.1554 -0.6408  2.0271
   46MOL0     H 6324   6.944   3.472   4.628 -0.2500 -0.3674 -1.2856
   46MOL0     H 6325   6.866   3.327   4.682  1.5048  0.0005 -1.5130
   46MOL0     H 6326   6.964   3.400   4.877 -0.6954  0.8401  3.3429
   46MOL0     H 6327   6.802   3.464   4.902 -0.5464  3.7991  0.1730
   46MOL0     H 6328   6.181   3.738   4.913 -3.8950  1.0286  0.3293
   46MOL0     H 6329   6.048   3.940   4.978 -0.0994 -1.4770  0.2247
   46MOL0     H 6330   6.147   4.365   5.067 -1.8738  0.0014  4.2773
   46MOL0     H 6331   6.104   4.576   5.148  1.1121 -0.8963 -1.3966
   46MOL0     H 6332   6.200   4.338   3.548  0.6746  1.2894 -1.3196
   46MOL0     H 6333   6.060   4.135   3.546 -0.6673  1.1937  0.8302
   46MOL0     H 6334   5.664   3.964   3.446 -1.1272 -2.0061  0.8626
   46MOL0     H 6335   5.550   3.783   3.417  0.3548  0.1939 -0.2475
   46MOL0     H 6336   5.507   3.583   3.434  0.7853  0.2968 -0.5084
   46MOL0     H 6337   5.398   3.614   3.293 -0.3689 -0.6960 -0.1278
   46MOL0     H 6338   5.520   3.363   3.388  0.3050 -0.8150 -1.1133
   46MOL0     H 6339   5.428   3.375   3.234  0.2464  0.0444  0.6180
   46MOL0     H 6340   5.314   3.397   3.527 -0.1823 -0.2491  0.0971
   46MOL0     H 6341   5.220   3.431   3.377  0.2231  2.2970  1.5724
   46MOL0     H 6342   5.366   3.204   3.487 -0.3474  0.3717  0.7466
   46MOL0     H 6343   5.307   3.200   3.312 -0.1930 -3.8584  0.5672
   46MOL0     H 6344   4.931   3.168   3.519  0.0305  2.1252  0.8635
   46MOL0     H 6345   5.775   3.672   3.074 -2.2709 -0.1156  0.4278
   46MOL0     H 6346   5.879   3.816   2.948  4.3783 -0.2909 -0.8894
   46MOL0     H 6347   5.883   3.987   3.000 -2.1237  0.0026 -0.1150
   46MOL0     H 6348   5.996   3.873   3.074 -0.2191 -0.5327 -0.4759
   47MOL0     O 6349  10.042   2.915   3.526 -0.2179 -0.2440 -0.0268
   47MOL0     C 6350   9.985   2.985   3.443 -0.1062  1.0043  0.3071
   47MOL0     O 6351   9.921   3.100   3.475 -0.2044  0.8795  1.0004
   47MOL0     C 6352   9.941   3.150   3.599 -1.2217 -0.1908  0.2992
   47MOL0     C 6353  10.040   3.234   3.621 -0.4035 -0.3949  0.5576
   47MOL0     C 6354  10.062   3.302   3.739 -0.9608  1.1464  0.5296
   47MOL0     C 6355   9.977   3.280   3.844  0.0634  0.1658 -0.4121
   47MOL0     O 6356   9.999   3.344   3.965  0.0263 -0.8382  0.6263
   47MOL0     C 6357   9.891   3.426   4.017 -0.0590 -0.5805 -0.4132
   47MOL0     C 6358   9.945   3.535   4.108 -0.5213  0.0696  0.2531
   47MOL0     C 6359   9.843   3.614   4.208 -0.5045 -0.3320 -0.1279
   47MOL0     C 6360   9.851   3.768   4.214  0.2429  0.3996 -0.0551
   47MOL0     C 6361   9.738   3.820   4.302 -0.6968 -0.6899 -0.0571
   47MOL0     C 6362   9.747   3.960   4.346  0.1254  0.4598 -0.1249
   47MOL0     C 6363   9.632   4.003   4.442  0.3662 -0.0377 -0.4242
   47MOL0     C 6364   9.482   3.980   4.382 -1.0375  0.1940  0.3302
   47MOL0     N 6365   9.455   4.052   4.259 -0.6749 -0.1399  0.1749
   47MOL0     C 6366   9.482   4.176   4.236  0.1521  0.4937 -0.7105
   47MOL0     C 6367   9.436   4.197   4.118  0.2656 -0.1814  0.0210
   47MOL0     C 6368   9.449   4.319   4.028  0.5791 -0.0937 -0.4690
   47MOL0     C 6369   9.579   4.395   4.036 -0.8081 -0.5027  0.2231
   47MOL0     C 6370   9.570   4.501   4.146 -0.1867  1.0921  0.7970
   47MOL0     C 6371   9.693   4.575   4.178  0.3020 -0.2716  0.0026
   47MOL0     O 6372   9.732   4.668   4.083  0.0039 -0.6251 -0.1617
   47MOL0     C 6373   9.866   4.709   4.071 -0.2990 -0.3672  0.6760
   47MOL0     C 6374   9.916   4.744   3.939 -0.3923 -0.2268 -0.2793
   47MOL0     C 6375  10.050   4.794   3.923  0.3080 -0.4361  0.1817
   47MOL0     C 6376  10.082   4.853   3.782  0.0046 -0.3925  1.3177
   47MOL0     C 6377  10.130   4.805   4.038  0.4748 -0.4124 -2.0125
   47MOL0     C 6378  10.269   4.857   4.040 -0.5570  0.1317 -0.6885
   47MOL0     O 6379  10.332   4.876   3.921  0.0194 -0.0768 -0.2788
   47MOL0     C 6380  10.467   4.883   3.934  0.6343 -0.3772 -1.3008
   47MOL0     C 6381  10.545   4.767   3.943  0.8361  0.2583  0.0125
   47MOL0     C 6382  10.685   4.793   3.939  1.3353 -0.6104  0.6517
   47MOL0     C 6383  10.737   4.923   3.929  0.3319  0.3508  0.4234
   47MOL0     O 6384  10.874   4.927   3.940 -0.1303 -0.7932 -0.6978
   47MOL0     C 6385  10.929   5.017   4.034  0.2523  0.4422 -0.1059
   47MOL0     C 6386  11.089   5.003   4.038  0.3328 -0.5972  0.5139
   47MOL0     C 6387  11.123   4.875   4.122  0.1964  0.2481  0.0561
   47MOL0     C 6388  11.074   4.740   4.059 -0.1557 -0.3010 -0.0378
   47MOL0     C 6389  11.152   4.620   4.099  0.8581 -0.3102 -0.2653
   47MOL0     C 6390  11.300   4.625   4.077 -0.1515 -1.1339  1.1234
   47MOL0     C 6391  11.374   4.507   4.150 -0.2272 -0.4017  0.0948
   47MOL0     C 6392  11.359   4.364   4.082 -0.3056  0.2057  0.2909
   47MOL0    Cl 6393  11.452   4.343   3.924 -0.5171 -0.1515  0.3826
   47MOL0     C 6394  10.652   5.033   3.926  1.2532  0.3059  0.4552
   47MOL0     C 6395  10.517   5.017   3.912  0.3642 -0.9429  0.0762
   47MOL0     O 6396  10.321   4.875   4.150  0.0705  0.2906 -0.7990
   47MOL0     C 6397  10.076   4.769   4.166  0.4169 -0.4276 -0.3573
   47MOL0     C 6398   9.949   4.721   4.185  0.2566 -0.7212  0.3153
   47MOL0     N 6399   9.361   4.085   4.082  0.2096 -0.2703 -0.6617
   47MOL0     N 6400   9.378   3.995   4.168  0.3404  0.0525 -0.0245
   47MOL0     C 6401   9.868   3.192   3.831  0.2153  0.2350  0.7332
   47MOL0     C 6402   9.853   3.123   3.708  0.4994 -0.8363  0.3106
   47MOL0     C 6403   9.955   2.935   3.313  0.6008 -0.7131  0.5057
   47MOL0     C 6404   9.826   2.954   3.262  0.3509  0.2904  0.2833
   47MOL0     C 6405   9.781   2.893   3.141 -0.6434 -0.0122  0.0734
   47MOL0     C 6406   9.880   2.826   3.063  0.4661  0.1022  0.2203
   47MOL0     O 6407   9.863   2.758   2.947 -0.0630 -0.9308 -0.0323
   47MOL0     C 6408   9.730   2.736   2.895  0.4781  0.7646 -0.1017
   47MOL0     C 6409   9.744   2.636   2.790 -0.4579  0.4989  0.7861
   47MOL0     C 6410   9.786   2.495   2.848 -0.2665  0.5248  0.0586
   47MOL0     C 6411   9.738   2.378   2.752  0.4881 -0.4366  0.2396
   47MOL0     C 6412   9.739   2.238   2.815  0.6610 -0.5679  0.2469
   47MOL0     C 6413   9.738   2.129   2.883  0.1448 -0.3537 -0.0477
   47MOL0     C 6414  10.012   2.820   3.105  0.1531 -0.0580 -0.5777
   47MOL0     C 6415  10.054   2.871   3.224  0.7061 -0.1423 -0.5249
   47MOL0     C 6416  10.192   2.845   3.256  0.1974 -0.1242 -0.9455
   47MOL0     H 6417  10.098   3.246   3.530 -0.5033  0.4909  0.6038
   47MOL0     H 6418  10.141   3.377   3.738  3.1962 -2.7087 -1.8658
   47MOL0     H 6419   9.830   3.362   4.082  0.3300  0.4773  1.0600
   47MOL0     H 6420   9.831   3.469   3.936  2.7152 -1.0069 -2.8425
   47MOL0     H 6421  10.037   3.507   4.160  1.1805  3.3882 -0.7532
   47MOL0     H 6422   9.983   3.611   4.039 -0.6412  0.7631  0.9408
   47MOL0     H 6423   9.744   3.592   4.166 -1.1297  0.2282  0.9838
   47MOL0     H 6424   9.859   3.563   4.304 -0.4898  1.5824  0.9395
   47MOL0     H 6425   9.950   3.800   4.250  1.2298 -0.5670 -1.7425
   47MOL0     H 6426   9.847   3.822   4.119  1.4150  3.1490  1.3310
   47MOL0     H 6427   9.727   3.760   4.393 -5.8029 -2.1244 -1.2852
   47MOL0     H 6428   9.649   3.804   4.241 -1.4194 -1.5515  1.1663
   47MOL0     H 6429   9.841   3.980   4.399 -0.1438  0.1957  0.4650
   47MOL0     H 6430   9.760   4.023   4.258 -0.2139 -0.9815 -1.2376
   47MOL0     H 6431   9.651   4.109   4.458  1.6185 -0.2251 -0.5406
   47MOL0     H 6432   9.645   3.948   4.536 -0.4327  0.1348 -0.2046
   47MOL0     H 6433   9.468   3.872   4.371  2.2345 -0.1535 -2.0750
   47MOL0     H 6434   9.432   4.021   4.471  2.4650  1.8967  1.6949
   47MOL0     H 6435   9.525   4.259   4.292  1.7424  0.2092 -1.4724
   47MOL0     H 6436   9.360   4.379   4.047 -0.7054 -2.4834  1.6860
   47MOL0     H 6437   9.440   4.274   3.929  1.3170  0.6391 -0.8869
   47MOL0     H 6438   9.663   4.327   4.050 -0.1012  0.5580  1.2587
   47MOL0     H 6439   9.590   4.453   3.944 -2.7111 -0.7300 -0.1892
   47MOL0     H 6440   9.486   4.569   4.128  0.5598  1.5252 -1.3861
   47MOL0     H 6441   9.534   4.454   4.238  2.6508 -1.4908  0.7346
   47MOL0     H 6442   9.681   4.617   4.278  2.5053 -0.6947  0.4879
   47MOL0     H 6443   9.769   4.498   4.190 -2.5249 -3.1332  1.2265
   47MOL0     H 6444   9.847   4.759   3.856 -2.6205 -0.1529  1.4834
   47MOL0     H 6445  10.126   4.777   3.718  0.3634  1.0698 -0.2515
   47MOL0     H 6446  10.148   4.940   3.785 -0.1984 -0.1585 -0.3181
   47MOL0     H 6447   9.998   4.890   3.722  3.5419  2.4026 -2.4754
   47MOL0     H 6448  10.486   4.676   3.952 -2.6346  2.3706  0.5734
   47MOL0     H 6449  10.753   4.709   3.945 -0.6817 -2.6891 -2.4067
   47MOL0     H 6450  10.902   5.116   3.999  1.9861  0.6162 -1.0691
   47MOL0     H 6451  10.877   4.992   4.127 -1.9524 -0.1713 -1.4345
   47MOL0     H 6452  11.137   5.007   3.940  1.9329 -0.4188  1.2662
   47MOL0     H 6453  11.134   5.091   4.086  1.9261 -1.0579 -0.0801
   47MOL0     H 6454  11.073   4.873   4.219 -1.6190 -1.2968 -0.8323
   47MOL0     H 6455  11.226   4.886   4.155  0.0763  1.5866  0.0607
   47MOL0     H 6456  11.073   4.746   3.950 -1.0589 -0.9642 -0.0794
   47MOL0     H 6457  10.967   4.730   4.078 -0.6965 -2.5710 -3.4378
   47MOL0     H 6458  11.136   4.598   4.205 -2.6906  1.1223 -0.3356
   47MOL0     H 6459  11.103   4.538   4.044 -2.7697  0.7890  1.0049
   47MOL0     H 6460  11.343   4.713   4.125 -0.4601 -0.3297 -0.0315
   47MOL0     H 6461  11.313   4.625   3.968 -2.5718 -1.5941  0.7879
   47MOL0     H 6462  11.345   4.485   4.253  1.3386 -0.0454  0.6317
   47MOL0     H 6463  11.481   4.526   4.140  0.1130 -0.2270  3.0830
   47MOL0     H 6464  11.251   4.350   4.074 -1.0334  4.1668  1.1336
   47MOL0     H 6465  11.401   4.289   4.150 -0.2535  0.2335  0.2894
   47MOL0     H 6466  10.694   5.133   3.917 -0.4581  0.8942 -1.4474
   47MOL0     H 6467  10.448   5.097   3.888 -0.8456 -1.8266  0.5198
   47MOL0     H 6468  10.135   4.778   4.257 -1.4025  0.3782  0.8111
   47MOL0     H 6469   9.910   4.690   4.282 -0.6588  0.7241  0.4434
   47MOL0     H 6470   9.806   3.173   3.918 -1.8331  0.4259 -0.5901
   47MOL0     H 6471   9.764   3.065   3.689 -1.0882  2.0517 -2.1045
   47MOL0     H 6472   9.743   2.992   3.322  1.4077  1.5543  0.9838
   47MOL0     H 6473   9.676   2.896   3.116 -0.7127 -2.4677 -0.1394
   47MOL0     H 6474   9.657   2.701   2.968 -0.3055 -1.7690 -1.9912
   47MOL0     H 6475   9.686   2.824   2.846 -1.2884  1.1406  1.9923
   47MOL0     H 6476   9.830   2.654   2.725  0.5380 -2.7858  1.0587
   47MOL0     H 6477   9.655   2.639   2.726 -0.1278  1.2808  0.3378
   47MOL0     H 6478   9.893   2.479   2.865 -0.6558 -1.9153  0.5308
   47MOL0     H 6479   9.740   2.476   2.945  1.0078 -0.7673  0.4494
   47MOL0     H 6480   9.818   2.380   2.677  0.2459  0.0735 -0.0084
   47MOL0     H 6481   9.642   2.386   2.700 -0.4696  1.8583  2.1783
   47MOL0     H 6482   9.731   2.055   2.960 -1.1145 -0.4852 -0.2638
   47MOL0     H 6483  10.072   2.757   3.040  0.0005  0.9522 -1.7122
   47MOL0     H 6484  10.222   2.761   3.193 -0.3618 -0.2427 -1.0609
   47MOL0     H 6485  10.258   2.927   3.227  1.4350 -1.1436 -1.0886
   47MOL0     H 6486  10.209   2.825   3.362  2.2020  0.5398 -1.1100
   48MOL0     O 6487   1.480   1.843   2.456 -0.1372  0.7239 -0.2825
   48MOL0     C 6488   1.501   1.810   2.339  1.2854 -0.1087  0.5772
   48MOL0     O 6489   1.596   1.863   2.264  1.2381 -0.4034  0.2519
   48MOL0     C 6490   1.675   1.966   2.312  0.5104 -0.2111 -0.3234
   48MOL0     C 6491   1.813   1.946   2.322  0.9333  0.0324  0.6131
   48MOL0     C 6492   1.901   2.042   2.376  0.9030 -0.4603  0.2899
   48MOL0     C 6493   1.860   2.165   2.429 -1.4220 -0.3281 -0.9289
   48MOL0     O 6494   1.956   2.236   2.506 -0.6807  0.3706  0.5195
   48MOL0     C 6495   1.921   2.345   2.599  0.3291 -0.1765  0.6369
   48MOL0     C 6496   1.906   2.272   2.735 -1.1602  0.4657  0.7921
   48MOL0     C 6497   2.016   2.165   2.760 -0.0642  0.4426 -0.4721
   48MOL0     C 6498   2.008   2.112   2.896  0.2001  0.4062 -0.0954
   48MOL0     C 6499   2.058   2.220   2.993  1.3032  1.0496 -0.3117
   48MOL0     C 6500   2.038   2.171   3.138  0.3750  0.1968 -0.8798
   48MOL0     C 6501   2.085   2.263   3.246  0.6453 -1.7566 -0.0280
   48MOL0     C 6502   2.230   2.231   3.278  0.2386  0.6614  0.0594
   48MOL0     N 6503   2.310   2.320   3.365 -0.4295  0.3117  0.1955
   48MOL0     C 6504   2.428   2.283   3.420 -1.2876  1.5845  0.0938
   48MOL0     C 6505   2.468   2.387   3.499 -0.0385  0.7972  0.3875
   48MOL0     C 6506   2.606   2.420   3.544 -0.7484 -0.2957 -0.6740
   48MOL0     C 6507   2.689   2.442   3.417 -0.2640  0.1644  0.8701
   48MOL0     C 6508   2.831   2.480   3.450 -0.3445 -0.0909 -0.5264
   48MOL0     C 6509   2.837   2.626   3.504  0.3532 -0.8467 -0.3439
   48MOL0     O 6510   2.837   2.626   3.644 -0.1828  0.6613 -0.2173
   48MOL0     C 6511   2.854   2.741   3.719 -0.6838 -0.4650  0.5541
   48MOL0     C 6512   2.816   2.734   3.846 -0.1601 -0.0149 -0.3737
   48MOL0     C 6513   2.800   2.846   3.927 -0.4107 -0.1910 -0.0331
   48MOL0     C 6514   2.723   2.834   4.055 -0.3341  0.2985 -0.9425
   48MOL0     C 6515   2.857   2.969   3.885  0.4672 -0.2619  0.8281
   48MOL0     C 6516   2.859   3.086   3.970  0.1975 -0.5291  0.5181
   48MOL0     O 6517   2.922   3.080   4.091 -0.4972 -0.3773  0.5069
   48MOL0     C 6518   2.915   3.175   4.191  0.2791 -0.4401  0.9425
   48MOL0     C 6519   2.812   3.269   4.202 -0.6699  0.3887 -0.1182
   48MOL0     C 6520   2.810   3.355   4.316  0.2121  0.8406  1.2832
   48MOL0     C 6521   2.896   3.332   4.422 -0.1389  0.4659  0.7043
   48MOL0     O 6522   2.886   3.416   4.534  0.1150 -0.1499 -0.3967
   48MOL0     C 6523   2.949   3.371   4.651 -0.3851 -0.6832 -0.3961
   48MOL0     C 6524   2.928   3.474   4.757  0.6934 -0.6815 -0.9735
   48MOL0     C 6525   3.004   3.438   4.879 -0.5979 -0.1962 -0.1013
   48MOL0     C 6526   2.979   3.546   4.985  0.1838  0.2960  0.7182
   48MOL0     C 6527   3.030   3.505   5.123  0.1985  0.0949  0.3408
   48MOL0     C 6528   3.019   3.616   5.224 -0.7699  0.1292  0.1212
   48MOL0     C 6529   3.068   3.584   5.366 -1.3027  0.3249 -0.2802
   48MOL0     C 6530   3.073   3.695   5.461 -0.6874 -0.7595 -0.1149
   48MOL0    Cl 6531   3.150   3.645   5.613  0.2888 -0.0339 -0.0007
   48MOL0     C 6532   2.997   3.231   4.407 -0.5124 -0.7533 -0.2756
   48MOL0     C 6533   3.017   3.167   4.290 -0.5853 -0.6246  0.1784
   48MOL0     O 6534   2.795   3.181   3.917 -0.4169 -0.0579  0.2764
   48MOL0     C 6535   2.900   2.978   3.758 -0.2460 -0.6941 -0.1478
   48MOL0     C 6536   2.898   2.863   3.671  0.1374 -0.0012 -0.2002
   48MOL0     N 6537   2.382   2.484   3.476  0.7301 -0.7660  0.2566
   48MOL0     N 6538   2.287   2.446   3.394  0.0851  0.2611  1.1453
   48MOL0     C 6539   1.727   2.190   2.418 -0.2620  0.1921 -0.3446
   48MOL0     C 6540   1.633   2.092   2.362  0.2567 -0.1874  0.6104
   48MOL0     C 6541   1.398   1.748   2.247 -0.5662 -0.0643 -0.1351
   48MOL0     C 6542   1.426   1.759   2.108 -0.2069  0.9709  0.8914
   48MOL0     C 6543   1.340   1.695   2.012 -0.0339 -0.0290 -0.2109
   48MOL0     C 6544   1.222   1.641   2.055 -0.4470 -0.1172  0.7747
   48MOL0     O 6545   1.132   1.576   1.974  0.1462 -0.4189 -0.0960
   48MOL0     C 6546   1.084   1.662   1.867 -0.2574  0.4217 -0.1151
   48MOL0     C 6547   0.986   1.771   1.923 -0.6134  0.7579  0.9460
   48MOL0     C 6548   0.882   1.817   1.814  0.0097  1.1001  0.6717
   48MOL0     C 6549   0.961   1.888   1.708  0.2213  0.1128 -0.2162
   48MOL0     C 6550   0.887   1.941   1.590  0.5749  0.5677 -1.2477
   48MOL0     C 6551   0.841   1.979   1.485  0.5874 -0.5611 -0.7318
   48MOL0     C 6552   1.199   1.624   2.191 -0.5268 -0.3363 -0.1962
   48MOL0     C 6553   1.289   1.675   2.294 -0.5570 -0.9920  0.2396
   48MOL0     C 6554   1.253   1.665   2.445 -0.1739 -0.8756  0.1036
   48MOL0     H 6555   1.849   1.846   2.296  4.5380  0.7663  2.0892
   48MOL0     H 6556   2.006   2.020   2.389  2.4674  5.2872  0.0259
   48MOL0     H 6557   1.831   2.403   2.577  0.2595 -0.4506  0.1712
   48MOL0     H 6558   1.995   2.424   2.608 -0.3668  0.6970 -0.8561
   48MOL0     H 6559   1.920   2.351   2.809 -2.1353 -1.3385  3.0415
   48MOL0     H 6560   1.808   2.227   2.750 -1.1849  0.6161  1.0917
   48MOL0     H 6561   2.008   2.073   2.703 -1.6737  0.1759  0.1296
   48MOL0     H 6562   2.114   2.209   2.738  0.4811  0.4346  1.6751
   48MOL0     H 6563   1.905   2.079   2.915  1.0223 -4.6354 -2.7018
   48MOL0     H 6564   2.053   2.013   2.903 -2.1069 -0.6056  5.1898
   48MOL0     H 6565   2.007   2.316   2.994  0.8530  0.8120 -0.1204
   48MOL0     H 6566   2.164   2.237   2.970  1.2045  3.1476  0.5658
   48MOL0     H 6567   1.929   2.163   3.146  0.4958  0.7464  2.9017
   48MOL0     H 6568   2.084   2.072   3.144 -1.0686 -0.5521 -1.5078
   48MOL0     H 6569   2.025   2.253   3.337 -1.1439  1.5177 -0.7057
   48MOL0     H 6570   2.075   2.368   3.216 -2.6453 -2.0009 -0.0790
   48MOL0     H 6571   2.243   2.124   3.296 -2.9231  0.3622  1.2702
   48MOL0     H 6572   2.281   2.238   3.182 -1.7007  1.3535 -0.9675
   48MOL0     H 6573   2.489   2.196   3.396 -3.4091 -0.1840  0.6900
   48MOL0     H 6574   2.636   2.330   3.598 -1.7144  0.9919  2.2324
   48MOL0     H 6575   2.610   2.500   3.618  3.7923 -1.6782  0.8851
   48MOL0     H 6576   2.687   2.352   3.356 -4.5633 -1.8828  3.5381
   48MOL0     H 6577   2.644   2.531   3.372 -0.5762 -0.2932  0.2691
   48MOL0     H 6578   2.877   2.402   3.511  2.1923  1.3442 -0.4645
   48MOL0     H 6579   2.897   2.471   3.364  1.3205  0.2613  0.6676
   48MOL0     H 6580   2.924   2.673   3.456 -1.2839 -1.0285 -3.8453
   48MOL0     H 6581   2.755   2.687   3.464 -2.4040 -0.6561  4.8596
   48MOL0     H 6582   2.747   2.654   3.872  0.1710 -0.1097  0.2529
   48MOL0     H 6583   2.783   2.867   4.140 -0.9458  1.5842 -0.9842
   48MOL0     H 6584   2.691   2.733   4.080  2.9525 -0.6549 -0.0754
   48MOL0     H 6585   2.638   2.902   4.041 -2.0963 -1.1126  2.0649
   48MOL0     H 6586   2.734   3.265   4.127  0.6339  4.3444 -1.9623
   48MOL0     H 6587   2.731   3.428   4.329 -0.3789  0.4426  0.1145
   48MOL0     H 6588   2.894   3.280   4.677 -2.6785  0.8089  0.1828
   48MOL0     H 6589   3.055   3.344   4.642 -0.8686 -2.5361 -0.9913
   48MOL0     H 6590   2.945   3.576   4.722 -0.3456  0.9366  2.7268
   48MOL0     H 6591   2.820   3.481   4.771  0.9094 -1.7071  1.5940
   48MOL0     H 6592   3.111   3.430   4.857 -1.0187  0.4997 -2.6939
   48MOL0     H 6593   2.971   3.339   4.909 -2.2454  0.9294  2.1050
   48MOL0     H 6594   2.875   3.580   4.990  0.1720  0.1185  2.1993
   48MOL0     H 6595   3.039   3.634   4.957  2.0507 -2.0338 -3.6465
   48MOL0     H 6596   2.976   3.422   5.168 -2.7464  0.2587 -2.4795
   48MOL0     H 6597   3.139   3.506   5.116  0.3457  3.1381  1.4206
   48MOL0     H 6598   2.912   3.639   5.224 -0.4265  2.1177  2.0177
   48MOL0     H 6599   3.065   3.709   5.189 -1.3675 -0.0592 -1.2365
   48MOL0     H 6600   3.169   3.543   5.358 -0.6396  1.6422  0.8519
   48MOL0     H 6601   3.004   3.514   5.419  0.2458 -0.7760  0.2187
   48MOL0     H 6602   2.973   3.733   5.480 -0.0249  1.3006 -0.3985
   48MOL0     H 6603   3.127   3.785   5.427 -0.9991 -1.0905 -1.5742
   48MOL0     H 6604   3.058   3.214   4.495  2.4303  0.9993 -1.7921
   48MOL0     H 6605   3.098   3.096   4.275  1.7004  1.7447  0.6743
   48MOL0     H 6606   2.944   3.067   3.715 -2.1588  1.3150  1.8042
   48MOL0     H 6607   2.938   2.881   3.571  0.8400  1.6318  0.3346
   48MOL0     H 6608   1.688   2.284   2.456 -1.0484  0.4454 -1.7187
   48MOL0     H 6609   1.529   2.122   2.350  0.3873 -0.3932 -1.4420
   48MOL0     H 6610   1.509   1.811   2.062 -1.5799  1.0165 -1.7133
   48MOL0     H 6611   1.365   1.698   1.906 -3.5324 -0.9045 -1.1967
   48MOL0     H 6612   1.171   1.704   1.816  1.3303  0.4559  2.4134
   48MOL0     H 6613   1.033   1.595   1.798  4.5211 -0.7153 -2.9940
   48MOL0     H 6614   1.041   1.856   1.967 -4.1000  2.9758  1.4303
   48MOL0     H 6615   0.930   1.716   1.999 -2.7208 -0.5801 -1.4145
   48MOL0     H 6616   0.829   1.734   1.764  1.4098  0.9143 -0.5761
   48MOL0     H 6617   0.809   1.885   1.858 -0.0148  2.9103 -1.9178
   48MOL0     H 6618   1.045   1.825   1.678  0.1292 -0.8608  1.4729
   48MOL0     H 6619   1.001   1.976   1.759 -0.4308 -0.2171  0.9004
   48MOL0     H 6620   0.807   2.037   1.402  1.5398 -0.5154 -1.1094
   48MOL0     H 6621   1.109   1.570   2.221 -0.0726 -0.2836  1.3487
   48MOL0     H 6622   1.153   1.622   2.453 -1.4347  1.3558 -2.2435
   48MOL0     H 6623   1.332   1.611   2.499 -2.1948 -2.4136  1.6719
   48MOL0     H 6624   1.259   1.769   2.476  3.4957 -0.5311 -1.2498
   49MOL0     O 6625  11.233   5.458   6.002 -0.0200 -0.5531 -0.0512
   49MOL0     C 6626  11.318   5.484   5.917  0.2086 -0.8999  0.7826
   49MOL0     O 6627  11.353   5.617   5.873  0.0561  0.2432  0.7665
   49MOL0     C 6628  11.261   5.717   5.910  0.1770  1.2376  0.6515
   49MOL0     C 6629  11.175   5.762   5.811  0.5808 -0.1053 -0.0192
   49MOL0     C 6630  11.094   5.876   5.831 -1.0771  0.5052  0.9708
   49MOL0     C 6631  11.120   5.942   5.951 -0.1249  0.9289  0.1358
   49MOL0     O 6632  11.061   6.057   5.979 -0.0817 -0.5299  0.6198
   49MOL0     C 6633  10.964   6.063   6.086  0.3435  0.2124 -0.2857
   49MOL0     C 6634  10.819   6.040   6.048 -0.4144 -0.6312 -0.5595
   49MOL0     C 6635  10.778   6.131   5.927  0.0760  0.1590  0.1158
   49MOL0     C 6636  10.738   6.045   5.803  0.8071  0.1645  0.7300
   49MOL0     C 6637  10.655   6.138   5.712  0.5086  0.4830 -0.4023
   49MOL0     C 6638  10.728   6.249   5.646 -0.8080 -0.5270  0.4384
   49MOL0     C 6639  10.859   6.208   5.569  1.3126  0.1794 -0.7499
   49MOL0     C 6640  10.831   6.121   5.451  0.6382  0.3329 -0.0939
   49MOL0     N 6641  10.951   6.070   5.379 -0.9799 -0.5231  0.0526
   49MOL0     C 6642  11.005   6.123   5.260 -0.1844  0.0615 -0.7912
   49MOL0     C 6643  11.128   6.061   5.241 -0.0672  0.6046 -0.2896
   49MOL0     C 6644  11.220   6.092   5.128 -0.6179  1.5047 -0.1695
   49MOL0     C 6645  11.238   5.978   5.023  0.0509 -0.0129 -0.1158
   49MOL0     C 6646  11.157   6.012   4.900  0.7974 -0.4446  1.2079
   49MOL0     C 6647  11.005   5.965   4.916 -0.5893  0.1430  0.5121
   49MOL0     O 6648  10.922   6.009   4.807 -0.0975  0.2126  0.2794
   49MOL0     C 6649  10.796   6.046   4.828  0.6411  0.1401  0.4652
   49MOL0     C 6650  10.726   6.016   4.951  0.0326  0.6997  0.6643
   49MOL0     C 6651  10.597   6.072   4.967 -1.0585  0.7874 -0.0513
   49MOL0     C 6652  10.530   6.043   5.109  0.4773  0.4597 -0.6394
   49MOL0     C 6653  10.524   6.120   4.853 -0.6197 -1.1407 -0.5386
   49MOL0     C 6654  10.382   6.173   4.854 -0.1950 -0.4907 -1.3244
   49MOL0     O 6655  10.347   6.230   4.971  0.4846 -0.6564  0.1930
   49MOL0     C 6656  10.230   6.301   4.981  1.4685 -0.3031 -0.7255
   49MOL0     C 6657  10.194   6.404   4.890 -0.8502  0.1995  0.3512
   49MOL0     C 6658  10.068   6.457   4.897  0.4640 -0.4495 -0.0910
   49MOL0     C 6659   9.974   6.419   5.000 -0.7377  0.1761  0.1307
   49MOL0     O 6660   9.852   6.484   5.006  0.2601  0.0551 -0.5858
   49MOL0     C 6661   9.752   6.414   5.085  1.4034  0.8259  0.4371
   49MOL0     C 6662   9.606   6.443   5.048 -0.8306  0.1085  0.3612
   49MOL0     C 6663   9.563   6.439   4.890 -0.3106  0.3178 -1.3987
   49MOL0     C 6664   9.418   6.413   4.859  0.3822  0.2865 -0.5962
   49MOL0     C 6665   9.318   6.507   4.912 -0.1942 -0.2303  0.1673
   49MOL0     C 6666   9.169   6.466   4.882 -0.7483 -0.1863 -0.7739
   49MOL0     C 6667   9.121   6.452   4.731  0.5577  0.7557 -0.7102
   49MOL0     C 6668   9.021   6.334   4.735 -1.1905  0.0075  0.5925
   49MOL0    Cl 6669   8.931   6.342   4.590  0.5994  0.5870  0.2628
   49MOL0     C 6670  10.017   6.333   5.101 -0.1125 -0.0230  0.3823
   49MOL0     C 6671  10.144   6.275   5.088  0.0589  0.4064 -0.1493
   49MOL0     O 6672  10.311   6.164   4.757  0.1442  0.3258  0.4420
   49MOL0     C 6673  10.588   6.130   4.728 -0.2652  1.1582 -0.1979
   49MOL0     C 6674  10.724   6.098   4.717 -0.0733  0.4763  0.7283
   49MOL0     N 6675  11.152   5.970   5.344  0.9513 -0.0404  0.2636
   49MOL0     N 6676  11.051   5.986   5.425  0.0979 -0.3010  0.3827
   49MOL0     C 6677  11.210   5.888   6.043 -0.6014  0.5247 -0.1987
   49MOL0     C 6678  11.287   5.783   6.026 -0.3129  0.0221 -0.5085
   49MOL0     C 6679  11.410   5.383   5.877 -0.3436 -0.4271 -0.1494
   49MOL0     C 6680  11.491   5.413   5.765  0.6381 -0.5041  0.1482
   49MOL0     C 6681  11.578   5.328   5.709 -0.4110 -0.5861 -0.2039
   49MOL0     C 6682  11.596   5.198   5.761  1.0756 -0.3384 -0.2016
   49MOL0     O 6683  11.678   5.106   5.714 -1.0916  0.4352 -0.2454
   49MOL0     C 6684  11.769   5.124   5.608 -0.7820  0.3082  0.1956
   49MOL0     C 6685  11.860   5.000   5.589  0.1018  0.0094  0.2232
   49MOL0     C 6686  11.783   4.870   5.582 -1.0588  0.3178  1.0954
   49MOL0     C 6687  11.756   4.805   5.720 -0.3167  0.0766 -0.1717
   49MOL0     C 6688  11.876   4.790   5.804  0.4273  0.1045 -0.2071
   49MOL0     C 6689  11.983   4.782   5.867 -0.3771  1.0886  0.1880
   49MOL0     C 6690  11.508   5.161   5.861 -0.1709  0.7309  0.1823
   49MOL0     C 6691  11.412   5.243   5.924  0.1038  0.0279  0.4353
   49MOL0     C 6692  11.339   5.180   6.035  0.6700 -0.4252 -0.2300
   49MOL0     H 6693  11.172   5.712   5.715 -1.4793 -1.3545  0.6351
   49MOL0     H 6694  11.029   5.911   5.752  1.8241 -2.1002 -2.9671
   49MOL0     H 6695  10.970   6.166   6.122  1.0126  0.1700 -0.2612
   49MOL0     H 6696  10.994   5.994   6.165  1.7635 -0.9629 -1.7924
   49MOL0     H 6697  10.801   5.936   6.023  1.3351 -1.3477  0.8800
   49MOL0     H 6698  10.748   6.066   6.127 -2.3025  1.9267 -2.8953
   49MOL0     H 6699  10.693   6.196   5.948  0.1381 -0.0973  1.2063
   49MOL0     H 6700  10.860   6.200   5.904 -0.4681  1.2142  1.2126
   49MOL0     H 6701  10.824   6.004   5.748 -0.5809 -0.5494 -1.0100
   49MOL0     H 6702  10.680   5.962   5.843 -1.1235  1.2535  0.3239
   49MOL0     H 6703  10.576   6.190   5.766  2.6423  3.6019 -0.0303
   49MOL0     H 6704  10.615   6.078   5.630  1.0532 -1.2861  0.5773
   49MOL0     H 6705  10.666   6.296   5.570 -0.3783 -1.5962 -0.6087
   49MOL0     H 6706  10.743   6.326   5.722 -2.4135 -1.0574  1.3688
   49MOL0     H 6707  10.928   6.162   5.641  2.4138  1.2639 -1.0746
   49MOL0     H 6708  10.908   6.295   5.524 -0.8641  0.9950 -1.7107
   49MOL0     H 6709  10.792   6.032   5.502 -0.6977  0.8083 -0.2419
   49MOL0     H 6710  10.755   6.160   5.383  0.3064  0.7165  0.4877
   49MOL0     H 6711  10.970   6.195   5.187 -1.2297  0.3722 -0.0109
   49MOL0     H 6712  11.321   6.113   5.164  0.1843 -2.8391  0.6451
   49MOL0     H 6713  11.181   6.183   5.081 -2.5308  0.7991 -0.0466
   49MOL0     H 6714  11.341   5.965   4.990  0.4523 -1.5114  1.5555
   49MOL0     H 6715  11.220   5.876   5.058 -3.5385  0.0586 -1.3517
   49MOL0     H 6716  11.156   6.117   4.871 -2.3661 -1.4902 -3.6143
   49MOL0     H 6717  11.186   5.947   4.817 -1.6920  0.1749 -0.2370
   49MOL0     H 6718  11.003   5.855   4.918  0.4337  0.0806 -0.5424
   49MOL0     H 6719  10.972   6.015   5.007 -0.1833 -0.0244  0.7527
   49MOL0     H 6720  10.763   5.971   5.043 -1.5451 -2.3922 -0.0830
   49MOL0     H 6721  10.513   6.134   5.167 -0.6871  0.9074 -1.6632
   49MOL0     H 6722  10.601   5.987   5.172  1.2608 -0.0670 -1.9534
   49MOL0     H 6723  10.434   5.994   5.097  1.0319 -1.0860  0.8033
   49MOL0     H 6724  10.270   6.428   4.816 -0.9533 -1.4245 -0.3141
   49MOL0     H 6725  10.038   6.537   4.829  2.1556 -0.3733 -0.7918
   49MOL0     H 6726   9.759   6.305   5.083 -0.3245  0.6934 -1.7801
   49MOL0     H 6727   9.756   6.444   5.191  1.0905  1.0387  0.3891
   49MOL0     H 6728   9.541   6.368   5.094  1.0881 -1.9823 -0.1342
   49MOL0     H 6729   9.591   6.543   5.091 -2.4190  0.6681 -1.3667
   49MOL0     H 6730   9.632   6.375   4.834  0.4803  0.7388 -0.9209
   49MOL0     H 6731   9.580   6.538   4.846  1.6050  0.3596 -0.6485
   49MOL0     H 6732   9.387   6.322   4.911 -0.7365  1.9691  1.8705
   49MOL0     H 6733   9.410   6.402   4.751  3.3118 -1.4428 -0.7594
   49MOL0     H 6734   9.314   6.504   5.021 -2.3286  0.8192  0.1742
   49MOL0     H 6735   9.342   6.607   4.877 -2.2884  0.2424 -0.0437
   49MOL0     H 6736   9.105   6.538   4.935  1.8302  1.9414 -0.3684
   49MOL0     H 6737   9.160   6.367   4.929  1.8212  0.4449  1.2839
   49MOL0     H 6738   9.211   6.444   4.669  1.3245 -1.4222  0.5857
   49MOL0     H 6739   9.072   6.549   4.720  0.5048  0.8046 -0.0740
   49MOL0     H 6740   8.968   6.343   4.830  0.8851  5.0663  1.5860
   49MOL0     H 6741   9.081   6.242   4.740 -2.3165 -0.7327  1.0688
   49MOL0     H 6742   9.960   6.293   5.184  0.5386 -1.1470  0.3043
   49MOL0     H 6743  10.176   6.212   5.171  1.3772 -1.4935 -2.0039
   49MOL0     H 6744  10.547   6.189   4.646  3.3499  3.0062 -0.9062
   49MOL0     H 6745  10.775   6.117   4.623 -2.2836 -3.2467 -1.4660
   49MOL0     H 6746  11.223   5.926   6.144 -1.7709  0.9203 -0.1851
   49MOL0     H 6747  11.368   5.759   6.094 -0.6904  2.0931  0.7629
   49MOL0     H 6748  11.471   5.510   5.721 -0.1234 -0.4319  0.6287
   49MOL0     H 6749  11.630   5.360   5.620  1.0072  0.7251  1.0348
   49MOL0     H 6750  11.720   5.153   5.515 -1.3554 -0.8091  0.1352
   49MOL0     H 6751  11.832   5.206   5.646 -0.5727 -0.7611  2.2523
   49MOL0     H 6752  11.930   5.003   5.673  0.7493  1.3662 -0.3296
   49MOL0     H 6753  11.928   5.009   5.503 -3.9307 -2.2812 -3.6316
   49MOL0     H 6754  11.684   4.889   5.540 -1.9381 -2.5458  1.6439
   49MOL0     H 6755  11.838   4.803   5.515 -2.8780  0.7866 -0.9664
   49MOL0     H 6756  11.713   4.705   5.708 -3.8312  1.7135 -3.3771
   49MOL0     H 6757  11.689   4.860   5.786 -1.1644  0.1703 -1.0918
   49MOL0     H 6758  12.077   4.766   5.917  1.2053  1.8631 -2.3611
   49MOL0     H 6759  11.537   5.064   5.900 -0.7290 -0.2896 -1.7681
   49MOL0     H 6760  11.355   5.244   6.122 -1.0411 -1.3865  0.8385
   49MOL0     H 6761  11.234   5.171   6.009  0.8699  1.0118 -1.6660
   49MOL0     H 6762  11.366   5.074   6.048  0.8212 -0.8468 -3.2330
   50MOL0     O 6763   7.201   4.038   4.863 -0.7883  1.0576 -0.5170
   50MOL0     C 6764   7.320   4.018   4.833  2.0763 -1.2414  0.4196
   50MOL0     O 6765   7.411   4.055   4.916 -1.0753 -0.1287 -0.0894
   50MOL0     C 6766   7.395   4.065   5.052  0.2098 -0.1753 -0.8632
   50MOL0     C 6767   7.314   3.985   5.132 -0.2663  1.0000 -0.3956
   50MOL0     C 6768   7.310   3.989   5.274  0.2639  0.9243 -0.2281
   50MOL0     C 6769   7.392   4.083   5.338 -0.1008 -0.2668 -0.4299
   50MOL0     O 6770   7.394   4.092   5.469 -0.6511 -0.6240 -0.3891
   50MOL0     C 6771   7.269   4.083   5.536 -0.1310 -0.7351 -0.6389
   50MOL0     C 6772   7.282   4.149   5.675 -0.6763  0.0260  0.2251
   50MOL0     C 6773   7.147   4.145   5.749 -0.4580  0.2554  0.0801
   50MOL0     C 6774   7.165   4.220   5.877 -0.1867 -0.4969 -0.0365
   50MOL0     C 6775   7.041   4.223   5.967  1.1669 -0.1727  0.2196
   50MOL0     C 6776   6.986   4.087   6.011 -1.1836  0.2506 -0.4717
   50MOL0     C 6777   6.850   4.102   6.072  0.7565 -0.5161  0.2853
   50MOL0     C 6778   6.803   3.972   6.139  0.4343 -0.4197  0.0376
   50MOL0     N 6779   6.747   3.877   6.046 -0.1037  0.2871  0.3318
   50MOL0     C 6780   6.650   3.898   5.946  0.7063 -0.0562  0.2808
   50MOL0     C 6781   6.635   3.777   5.886  0.3275 -0.0263 -0.0880
   50MOL0     C 6782   6.538   3.747   5.778  0.1654  0.3859 -0.6184
   50MOL0     C 6783   6.399   3.710   5.839 -1.3837 -0.0233  0.1858
   50MOL0     C 6784   6.283   3.699   5.725  0.7288  0.1576  0.3452
   50MOL0     C 6785   6.196   3.577   5.748  0.1162  0.2095 -0.4137
   50MOL0     O 6786   6.274   3.456   5.751  0.4005  0.1950 -0.1306
   50MOL0     C 6787   6.320   3.399   5.637 -1.3156  0.0784  0.3399
   50MOL0     C 6788   6.451   3.343   5.633  0.1105  0.3570 -0.3373
   50MOL0     C 6789   6.500   3.276   5.519  0.0982  0.1707  0.1323
   50MOL0     C 6790   6.641   3.217   5.529  0.2662  0.1104 -0.2299
   50MOL0     C 6791   6.426   3.272   5.403  0.8864 -1.0063  0.1254
   50MOL0     C 6792   6.467   3.201   5.288 -0.4031  0.3408  0.2909
   50MOL0     O 6793   6.412   3.239   5.162  0.4719  0.4911 -0.9811
   50MOL0     C 6794   6.435   3.146   5.061  0.2483 -0.7448 -0.1474
   50MOL0     C 6795   6.340   3.052   5.017  0.1852  0.2401  0.2430
   50MOL0     C 6796   6.360   2.975   4.909  0.6930  0.2276  0.5110
   50MOL0     C 6797   6.480   2.990   4.837  0.3087  0.0031 -0.9246
   50MOL0     O 6798   6.486   2.909   4.724 -0.3571  0.2568  0.1005
   50MOL0     C 6799   6.568   2.956   4.616 -0.4666  0.0960  0.0639
   50MOL0     C 6800   6.534   2.865   4.499  0.2042 -0.8428 -0.3969
   50MOL0     C 6801   6.488   2.949   4.379 -0.1703  0.1212  0.0108
   50MOL0     C 6802   6.612   3.008   4.293 -0.2373 -0.3546 -1.0541
   50MOL0     C 6803   6.578   3.057   4.155 -0.3063 -0.2276  0.4698
   50MOL0     C 6804   6.707   3.099   4.083 -0.0307  0.9794  0.3428
   50MOL0     C 6805   6.698   3.116   3.926  0.1412 -0.3773 -0.9480
   50MOL0     C 6806   6.837   3.117   3.855 -0.1681 -0.6372 -0.5325
   50MOL0    Cl 6807   6.807   3.123   3.673  0.0399 -0.2650  0.1275
   50MOL0     C 6808   6.572   3.088   4.873 -0.0362 -0.5350  0.6452
   50MOL0     C 6809   6.550   3.169   4.985 -0.8839 -0.0107  0.5991
   50MOL0     O 6810   6.528   3.093   5.304  0.2167 -0.2277 -0.2433
   50MOL0     C 6811   6.301   3.340   5.399  0.9813  0.5869 -0.0630
   50MOL0     C 6812   6.252   3.399   5.517  0.5196  0.5296 -0.1005
   50MOL0     N 6813   6.729   3.692   5.941 -0.1070 -0.4015  0.0450
   50MOL0     N 6814   6.787   3.749   6.041 -0.0034  0.3139 -0.3140
   50MOL0     C 6815   7.477   4.168   5.257  0.9804  0.3848 -0.5517
   50MOL0     C 6816   7.481   4.156   5.121  0.5395  0.3184 -0.1623
   50MOL0     C 6817   7.361   4.001   4.695  0.1435 -0.0270  1.0109
   50MOL0     C 6818   7.484   4.052   4.655 -0.4976  1.3266  0.0436
   50MOL0     C 6819   7.543   4.028   4.526 -0.0270 -0.0521 -0.3597
   50MOL0     C 6820   7.462   3.980   4.424 -0.4254 -0.3262 -0.3305
   50MOL0     O 6821   7.525   3.958   4.310 -0.2156  0.0139 -0.4138
   50MOL0     C 6822   7.459   3.951   4.188  0.4238  0.1355  0.3258
   50MOL0     C 6823   7.449   4.085   4.118  0.3876 -0.3172 -0.3174
   50MOL0     C 6824   7.449   4.075   3.962  0.3921 -0.5689 -0.7662
   50MOL0     C 6825   7.592   4.092   3.902 -0.3117  0.4212  0.4908
   50MOL0     C 6826   7.675   3.985   3.941 -0.1726  0.1504  0.2537
   50MOL0     C 6827   7.755   3.894   3.968  1.5970 -0.3488 -0.0261
   50MOL0     C 6828   7.340   3.923   4.465  0.4565  0.2384  0.2801
   50MOL0     C 6829   7.285   3.934   4.595  1.6356  0.1181  0.1930
   50MOL0     C 6830   7.145   3.889   4.614  0.5600  0.2168  0.5106
   50MOL0     H 6831   7.238   3.930   5.077 -1.3575  1.3740  0.6970
   50MOL0     H 6832   7.250   3.920   5.332  0.3930  3.2026  2.9086
   50MOL0     H 6833   7.236   3.980   5.551 -3.9573  0.6140  1.7936
   50MOL0     H 6834   7.196   4.133   5.470  2.2004  0.0902 -2.7440
   50MOL0     H 6835   7.364   4.093   5.723 -1.1688 -2.0034 -1.1536
   50MOL0     H 6836   7.312   4.251   5.653 -1.3085  0.1750  0.0409
   50MOL0     H 6837   7.071   4.191   5.686 -0.8182  0.5056  0.6897
   50MOL0     H 6838   7.127   4.037   5.754 -0.0113  0.2244  1.9086
   50MOL0     H 6839   7.245   4.178   5.938 -0.6356 -1.4655 -0.0928
   50MOL0     H 6840   7.196   4.322   5.855  0.4931 -0.6465  0.2129
   50MOL0     H 6841   6.970   4.269   5.898  2.4931 -0.7509 -1.6106
   50MOL0     H 6842   7.065   4.289   6.051 -1.0550 -2.1306  2.5317
   50MOL0     H 6843   6.982   4.023   5.922 -1.6118  1.4422 -1.3435
   50MOL0     H 6844   7.061   4.040   6.075 -0.9789 -1.2541 -1.7425
   50MOL0     H 6845   6.786   4.145   5.994  3.9398  1.2003 -1.5673
   50MOL0     H 6846   6.850   4.174   6.155  1.5548  1.8674 -1.6408
   50MOL0     H 6847   6.888   3.935   6.195 -0.3630 -2.0098  0.2451
   50MOL0     H 6848   6.718   3.984   6.208 -1.2839  0.5397 -2.0998
   50MOL0     H 6849   6.595   3.990   5.930 -0.1130 -0.5855  0.0167
   50MOL0     H 6850   6.579   3.662   5.723  0.5406  0.6439 -0.7423
   50MOL0     H 6851   6.537   3.824   5.700  3.1666 -0.2638 -1.3917
   50MOL0     H 6852   6.398   3.618   5.898  2.1876 -0.5194 -0.2688
   50MOL0     H 6853   6.374   3.797   5.900 -0.9694 -0.5164  1.0841
   50MOL0     H 6854   6.219   3.786   5.712 -0.0884 -0.6548 -1.3224
   50MOL0     H 6855   6.319   3.691   5.622  0.2808  0.7529  0.1399
   50MOL0     H 6856   6.148   3.574   5.846  0.8953  0.8660  0.0073
   50MOL0     H 6857   6.117   3.587   5.674  1.3003  0.6195 -1.6558
   50MOL0     H 6858   6.517   3.348   5.719 -0.4780 -0.4726  0.1791
   50MOL0     H 6859   6.643   3.107   5.522  0.9235  0.2192 -3.1682
   50MOL0     H 6860   6.677   3.242   5.629 -0.9157 -3.1763  1.1745
   50MOL0     H 6861   6.713   3.233   5.448 -2.0782 -0.3674 -2.5511
   50MOL0     H 6862   6.253   3.048   5.081  0.1721  0.5007  0.2433
   50MOL0     H 6863   6.295   2.894   4.878  1.7710 -0.8588  1.0187
   50MOL0     H 6864   6.535   3.057   4.587  0.4144  0.6719  1.0242
   50MOL0     H 6865   6.677   2.958   4.625 -0.3661  0.1352 -0.9840
   50MOL0     H 6866   6.628   2.810   4.486  1.0820  0.5596 -0.1183
   50MOL0     H 6867   6.460   2.787   4.518 -1.1836  0.3910 -0.5648
   50MOL0     H 6868   6.417   3.027   4.407  1.7528  0.5522  4.6457
   50MOL0     H 6869   6.439   2.877   4.313 -1.5720 -1.2984  2.4580
   50MOL0     H 6870   6.688   2.929   4.291  0.0563 -0.0591 -2.1853
   50MOL0     H 6871   6.656   3.086   4.356 -1.3377 -1.6059  1.4414
   50MOL0     H 6872   6.512   2.987   4.103  0.0706  1.0889 -1.9178
   50MOL0     H 6873   6.527   3.154   4.157  2.7049  1.4732  0.3576
   50MOL0     H 6874   6.768   3.010   4.102 -2.5049 -0.6718  1.0297
   50MOL0     H 6875   6.752   3.187   4.131 -1.1828  1.9077 -0.2204
   50MOL0     H 6876   6.637   3.202   3.895  0.5161  0.2398 -0.0382
   50MOL0     H 6877   6.645   3.031   3.883 -0.8765  0.4149 -1.3216
   50MOL0     H 6878   6.902   3.036   3.889  0.2802  0.2191  0.7236
   50MOL0     H 6879   6.894   3.202   3.894  2.1866 -2.6095  0.5590
   50MOL0     H 6880   6.657   3.115   4.812 -0.1872  3.3544  1.9067
   50MOL0     H 6881   6.617   3.251   5.009  0.9974 -0.6218 -2.1088
   50MOL0     H 6882   6.237   3.333   5.312  0.6136  2.6137 -0.0194
   50MOL0     H 6883   6.151   3.433   5.501  0.4793  0.0077 -0.9887
   50MOL0     H 6884   7.545   4.234   5.309  0.9845  2.2123 -2.7161
   50MOL0     H 6885   7.536   4.227   5.060 -3.2426  3.4051 -0.4084
   50MOL0     H 6886   7.552   4.094   4.729  2.1457 -2.2546 -0.0783
   50MOL0     H 6887   7.643   4.050   4.491 -0.0391 -2.1581 -1.9744
   50MOL0     H 6888   7.515   3.886   4.121 -0.4526  0.8290 -1.1262
   50MOL0     H 6889   7.363   3.899   4.198  0.5133  0.2017  1.7936
   50MOL0     H 6890   7.536   4.147   4.142 -0.0543 -1.0245  3.9753
   50MOL0     H 6891   7.362   4.142   4.150  1.4281  0.3269  1.5243
   50MOL0     H 6892   7.408   3.979   3.929 -0.3582 -0.0915 -1.2448
   50MOL0     H 6893   7.383   4.156   3.928  1.6329  2.7475  3.7056
   50MOL0     H 6894   7.640   4.186   3.929  0.5697  0.5407 -1.3274
   50MOL0     H 6895   7.584   4.086   3.793  3.6677 -0.2639  0.0887
   50MOL0     H 6896   7.817   3.818   4.011 -2.2776 -1.8281  3.7016
   50MOL0     H 6897   7.286   3.879   4.382  1.5658  0.7654 -0.7576
   50MOL0     H 6898   7.145   3.817   4.696  2.6449 -1.8952 -1.1951
   50MOL0     H 6899   7.083   3.979   4.623  0.6411  0.8699 -3.5682
   50MOL0     H 6900   7.104   3.829   4.532 -1.4638  0.4888  1.2692
   51MOL0     O 6901   6.692   2.882   6.894 -0.1958 -0.1813 -0.4812
   51MOL0     C 6902   6.581   2.873   6.842  0.1113  0.3209 -0.2096
   51MOL0     O 6903   6.462   2.928   6.893 -0.1693 -0.2204  0.4292
   51MOL0     C 6904   6.467   2.989   7.013  0.9393 -0.7760  0.2452
   51MOL0     C 6905   6.518   2.936   7.134 -0.8277  0.2331 -0.1146
   51MOL0     C 6906   6.492   2.995   7.262  0.4988 -0.0055  0.2615
   51MOL0     C 6907   6.411   3.103   7.256 -0.4312 -0.2421 -0.8752
   51MOL0     O 6908   6.376   3.176   7.370 -0.5148 -0.3003  1.0494
   51MOL0     C 6909   6.394   3.114   7.493  0.6631  0.4100  0.7532
   51MOL0     C 6910   6.302   3.173   7.596 -0.1902  1.1831  0.5701
   51MOL0     C 6911   6.308   3.091   7.728  0.0754  0.5099  0.3110
   51MOL0     C 6912   6.218   3.132   7.836  0.6130 -0.0129 -0.1607
   51MOL0     C 6913   6.275   3.075   7.966 -0.1167 -1.0315  0.3451
   51MOL0     C 6914   6.188   3.135   8.088 -0.6029  0.9126  0.6256
   51MOL0     C 6915   6.239   3.107   8.230 -0.4146 -0.4919  0.0777
   51MOL0     C 6916   6.189   3.207   8.344  0.1123  0.2443  0.4895
   51MOL0     N 6917   6.279   3.186   8.468  0.3898 -0.4090  0.2684
   51MOL0     C 6918   6.382   3.272   8.501 -0.4361  0.3165 -0.6905
   51MOL0     C 6919   6.407   3.241   8.626 -0.1750 -0.3474 -0.6909
   51MOL0     C 6920   6.512   3.304   8.710 -0.2672  0.2239 -0.0893
   51MOL0     C 6921   6.648   3.236   8.692  0.1614 -0.4078 -1.2209
   51MOL0     C 6922   6.757   3.329   8.731 -0.0564  0.6658  0.7039
   51MOL0     C 6923   6.890   3.263   8.706  1.1934  0.0690  0.5843
   51MOL0     O 6924   6.923   3.250   8.566  0.3239 -0.5465 -0.1799
   51MOL0     C 6925   7.037   3.180   8.545  0.3843 -0.0670  0.7068
   51MOL0     C 6926   7.130   3.229   8.444 -0.4557 -0.0208  0.5730
   51MOL0     C 6927   7.251   3.163   8.421 -0.5270  0.0693 -0.0225
   51MOL0     C 6928   7.356   3.221   8.318 -0.8557  0.2180  0.5835
   51MOL0     C 6929   7.291   3.045   8.498  0.6889  1.2078  0.1802
   51MOL0     C 6930   7.411   2.965   8.469  0.2571 -0.0989 -0.1669
   51MOL0     O 6931   7.493   2.941   8.578  0.1827 -0.5283  0.5152
   51MOL0     C 6932   7.601   2.864   8.536  0.0461  0.4574  0.2542
   51MOL0     C 6933   7.724   2.929   8.504  0.6335 -0.4059  0.0084
   51MOL0     C 6934   7.836   2.856   8.468 -0.8395  0.3494  1.2301
   51MOL0     C 6935   7.838   2.718   8.449 -0.5868  0.2476  0.1856
   51MOL0     O 6936   7.945   2.634   8.417  0.2544  0.2330  0.3450
   51MOL0     C 6937   8.078   2.683   8.393 -0.8185  1.1893 -0.1174
   51MOL0     C 6938   8.150   2.557   8.334 -0.0036  0.6986  1.0503
   51MOL0     C 6939   8.294   2.605   8.307  0.0791  0.4963 -0.4101
   51MOL0     C 6940   8.361   2.664   8.424 -0.0298  0.0464 -0.2152
   51MOL0     C 6941   8.516   2.661   8.407  0.0424 -0.1587  0.5694
   51MOL0     C 6942   8.589   2.725   8.517 -0.1049 -0.1256  0.2089
   51MOL0     C 6943   8.564   2.648   8.657  1.3323  0.0486 -0.8751
   51MOL0     C 6944   8.685   2.645   8.744 -0.3903  0.1310 -0.2823
   51MOL0    Cl 6945   8.782   2.801   8.744 -0.0799  0.1756 -0.0953
   51MOL0     C 6946   7.713   2.656   8.481 -0.7854 -0.0849  1.4538
   51MOL0     C 6947   7.604   2.729   8.539 -0.4248 -0.0880  0.6084
   51MOL0     O 6948   7.427   2.928   8.354 -0.4417 -0.0733 -0.2779
   51MOL0     C 6949   7.195   2.998   8.597 -0.9417  0.5156  1.2371
   51MOL0     C 6950   7.073   3.067   8.614  0.0511  0.9034  0.4140
   51MOL0     N 6951   6.335   3.130   8.660  0.6473  0.3233  0.2783
   51MOL0     N 6952   6.256   3.096   8.565 -1.1140  0.1677 -0.2363
   51MOL0     C 6953   6.353   3.154   7.135 -0.2478 -1.8691  0.4594
   51MOL0     C 6954   6.377   3.098   7.017  0.8045  0.5705 -0.0775
   51MOL0     C 6955   6.561   2.793   6.715 -0.9226  0.3529  0.2871
   51MOL0     C 6956   6.461   2.836   6.625 -0.5732  0.1324  0.1013
   51MOL0     C 6957   6.444   2.774   6.503 -0.5427  0.5254  0.1840
   51MOL0     C 6958   6.521   2.658   6.470  0.2140  0.3544  0.4800
   51MOL0     O 6959   6.491   2.586   6.357  0.3437  0.1432 -0.1811
   51MOL0     C 6960   6.540   2.649   6.234  0.2472 -0.0168 -0.2417
   51MOL0     C 6961   6.690   2.602   6.216 -0.8804  0.2064  0.8962
   51MOL0     C 6962   6.694   2.460   6.159  0.3922  0.6464 -0.8289
   51MOL0     C 6963   6.816   2.437   6.063  0.4219 -0.0037 -0.3607
   51MOL0     C 6964   6.811   2.294   6.022 -0.0970  0.5254 -1.1188
   51MOL0     C 6965   6.803   2.177   5.998 -0.0820  0.2579 -1.0660
   51MOL0     C 6966   6.615   2.608   6.560  0.1540 -0.0015  0.9170
   51MOL0     C 6967   6.634   2.674   6.679 -1.2239 -0.3379 -0.0378
   51MOL0     C 6968   6.737   2.617   6.773 -0.1316 -0.2005 -0.0415
   51MOL0     H 6969   6.586   2.852   7.124 -1.2677  0.0283 -1.7151
   51MOL0     H 6970   6.536   2.950   7.351  1.2219  1.9343  0.9478
   51MOL0     H 6971   6.498   3.121   7.526  0.1158  0.0696  2.6286
   51MOL0     H 6972   6.359   3.011   7.498 -0.0649  0.5761 -0.4105
   51MOL0     H 6973   6.330   3.275   7.624 -2.4642  1.7836  0.9436
   51MOL0     H 6974   6.199   3.184   7.560 -1.2628  3.0525  3.7028
   51MOL0     H 6975   6.283   2.984   7.729 -0.0327  0.4841  2.7545
   51MOL0     H 6976   6.412   3.097   7.761  0.4215  1.3942 -0.8852
   51MOL0     H 6977   6.200   3.240   7.832 -0.4989 -0.0902 -5.6720
   51MOL0     H 6978   6.115   3.094   7.833 -0.0976  1.4913  2.3686
   51MOL0     H 6979   6.376   3.116   7.979  0.3736 -2.6388  1.9908
   51MOL0     H 6980   6.274   2.966   7.975  0.1776 -0.9921  0.9074
   51MOL0     H 6981   6.188   3.243   8.073 -2.1001  0.6513 -1.9124
   51MOL0     H 6982   6.080   3.114   8.095 -0.9017  2.1061 -0.1144
   51MOL0     H 6983   6.348   3.118   8.226 -0.1491 -2.8702 -2.5139
   51MOL0     H 6984   6.216   3.001   8.245  0.0815 -0.8020 -1.1632
   51MOL0     H 6985   6.209   3.311   8.315 -1.0778  0.6516  1.0854
   51MOL0     H 6986   6.083   3.186   8.361 -0.1443  0.7885 -0.3778
   51MOL0     H 6987   6.422   3.349   8.437 -0.2191 -0.3640 -1.3981
   51MOL0     H 6988   6.500   3.300   8.819  0.3565 -2.7744 -0.0310
   51MOL0     H 6989   6.519   3.407   8.674 -0.1168 -0.4555 -2.1338
   51MOL0     H 6990   6.649   3.151   8.761 -2.0098  1.9235  1.9993
   51MOL0     H 6991   6.664   3.218   8.585 -0.0975  1.1629 -1.5451
   51MOL0     H 6992   6.749   3.422   8.673 -0.9830 -0.5210 -1.1682
   51MOL0     H 6993   6.768   3.357   8.836  0.1173  2.5238  0.2380
   51MOL0     H 6994   6.958   3.339   8.747 -2.0088  3.3669  0.2656
   51MOL0     H 6995   6.889   3.167   8.760 -2.5019  0.1270  0.8901
   51MOL0     H 6996   7.125   3.328   8.401  2.7349 -0.1828 -0.4774
   51MOL0     H 6997   7.453   3.232   8.368  0.7924 -1.3034 -1.9899
   51MOL0     H 6998   7.308   3.311   8.278  1.6566  1.7349  0.7222
   51MOL0     H 6999   7.379   3.152   8.236  0.4932 -3.1144  3.4915
   51MOL0     H 7000   7.745   3.034   8.523 -0.4161 -0.4897  1.8169
   51MOL0     H 7001   7.928   2.912   8.454 -0.6678 -0.6478 -3.6909
   51MOL0     H 7002   8.084   2.762   8.317 -3.2733  1.2684 -0.3029
   51MOL0     H 7003   8.114   2.711   8.493 -0.5071 -1.4682  0.5768
   51MOL0     H 7004   8.153   2.469   8.400  1.2685 -0.5009 -0.5158
   51MOL0     H 7005   8.107   2.531   8.237  2.4638  0.9516 -0.1873
   51MOL0     H 7006   8.306   2.663   8.214 -0.3202 -2.1431 -2.2045
   51MOL0     H 7007   8.337   2.510   8.276  0.8200  0.8698 -0.5584
   51MOL0     H 7008   8.336   2.613   8.517  3.1884  1.9709  1.8953
   51MOL0     H 7009   8.338   2.771   8.428 -0.2511 -0.0200  0.2644
   51MOL0     H 7010   8.558   2.563   8.380 -1.3918 -0.5182 -0.4745
   51MOL0     H 7011   8.534   2.718   8.315 -4.0306 -0.4783 -0.6195
   51MOL0     H 7012   8.556   2.829   8.526 -0.5050 -0.4017  2.5804
   51MOL0     H 7013   8.695   2.724   8.490 -0.3923  1.5517 -1.1448
   51MOL0     H 7014   8.521   2.549   8.637 -1.2704  1.0563 -0.6114
   51MOL0     H 7015   8.493   2.708   8.713  2.1041  2.2761 -2.1559
   51MOL0     H 7016   8.759   2.577   8.702 -0.8156 -1.7356  1.7590
   51MOL0     H 7017   8.668   2.613   8.848  2.3481 -0.5494  0.0361
   51MOL0     H 7018   7.719   2.550   8.460  2.2438  0.2235  0.2442
   51MOL0     H 7019   7.510   2.680   8.562 -0.1011 -2.9484 -3.1346
   51MOL0     H 7020   7.191   2.902   8.648 -0.8438  0.0544  0.3984
   51MOL0     H 7021   7.006   3.028   8.690 -2.0919  3.0506 -0.2901
   51MOL0     H 7022   6.279   3.233   7.144  1.2750 -0.3321 -0.2136
   51MOL0     H 7023   6.340   3.139   6.923  2.4974 -1.2346 -1.6328
   51MOL0     H 7024   6.399   2.921   6.651  0.3324 -0.2600  4.3832
   51MOL0     H 7025   6.364   2.807   6.437 -1.8915 -0.3472  1.3287
   51MOL0     H 7026   6.478   2.629   6.146 -1.0475  1.6370  0.2365
   51MOL0     H 7027   6.539   2.758   6.246  0.2194  0.2805 -2.4297
   51MOL0     H 7028   6.732   2.602   6.317 -2.4915 -1.9762  1.6491
   51MOL0     H 7029   6.741   2.661   6.139  0.0530 -3.3869 -1.4734
   51MOL0     H 7030   6.699   2.390   6.243 -1.8473  3.7572  2.1943
   51MOL0     H 7031   6.601   2.444   6.103 -0.1243  1.6329 -0.2878
   51MOL0     H 7032   6.910   2.452   6.117  0.3650  0.5337 -0.4101
   51MOL0     H 7033   6.799   2.502   5.977 -0.8869  2.5198  1.6432
   51MOL0     H 7034   6.783   2.079   5.958  0.8126  0.2325 -1.4576
   51MOL0     H 7035   6.663   2.513   6.540 -1.9554 -1.1395  1.0199
   51MOL0     H 7036   6.840   2.643   6.746 -0.1340 -2.1703 -2.2684
   51MOL0     H 7037   6.705   2.642   6.874  1.1015 -0.9110  0.5503
   51MOL0     H 7038   6.738   2.508   6.761  3.3685 -0.3875  0.7795
   52MOL0     O 7039  11.325   6.973   7.148 -0.2354 -0.2249  0.0031
   52MOL0     C 7040  11.264   6.953   7.045  1.1133 -0.3360 -0.2553
   52MOL0     O 7041  11.260   7.049   6.943  0.0303  0.6742  0.3202
   52MOL0     C 7042  11.353   7.145   6.927  0.1641 -1.1765 -0.8186
   52MOL0     C 7043  11.378   7.239   7.032 -0.1392  1.0889  0.7484
   52MOL0     C 7044  11.469   7.343   7.004  0.1963 -1.1270  0.2440
   52MOL0     C 7045  11.523   7.357   6.878 -1.6247 -1.0322 -0.2331
   52MOL0     O 7046  11.609   7.461   6.862  0.5051  0.9500 -0.0320
   52MOL0     C 7047  11.683   7.469   6.735  0.7057 -0.7968 -0.7947
   52MOL0     C 7048  11.828   7.511   6.748  0.6617 -0.3759  0.0413
   52MOL0     C 7049  11.879   7.534   6.600 -0.9377 -0.4733 -0.4766
   52MOL0     C 7050  11.821   7.658   6.535 -0.2728  0.0478  0.2303
   52MOL0     C 7051  11.857   7.694   6.397 -0.1280  0.0116  0.0185
   52MOL0     C 7052  12.011   7.730   6.383  1.4892  0.2224  1.0205
   52MOL0     C 7053  12.060   7.770   6.244 -0.4437 -0.3895 -0.8196
   52MOL0     C 7054  12.024   7.913   6.205  0.3479 -0.1182  0.5895
   52MOL0     N 7055  12.108   7.955   6.090  0.7002  0.1730  0.6263
   52MOL0     C 7056  12.060   7.960   5.955  0.7480 -0.6176 -0.2367
   52MOL0     C 7057  12.168   8.018   5.903  0.6962  0.1841 -0.1281
   52MOL0     C 7058  12.178   8.053   5.757 -0.4985 -0.5940 -0.0988
   52MOL0     C 7059  12.134   8.205   5.743 -0.7316  0.5069  0.7013
   52MOL0     C 7060  12.150   8.245   5.596 -0.0194 -0.1702  0.2721
   52MOL0     C 7061  12.183   8.392   5.580  0.1596 -0.1286  0.1022
   52MOL0     O 7062  12.304   8.433   5.648  0.0855 -0.0876  0.6263
   52MOL0     C 7063  12.345   8.560   5.634 -0.4263 -0.3845 -0.0731
   52MOL0     C 7064  12.292   8.655   5.539  0.1010 -0.0619  0.0608
   52MOL0     C 7065  12.341   8.784   5.544  0.2905 -0.9769  0.8871
   52MOL0     C 7066  12.257   8.883   5.470  0.6411 -0.9543  0.8393
   52MOL0     C 7067  12.467   8.813   5.605  0.5226 -0.0704  0.1241
   52MOL0     C 7068  12.529   8.948   5.602 -0.5469  0.3469 -0.2666
   52MOL0     O 7069  12.660   8.951   5.656 -0.7032  0.0030  0.4844
   52MOL0     C 7070  12.704   9.078   5.676  0.6366  0.3882 -0.0219
   52MOL0     C 7071  12.714   9.113   5.809 -0.2799  0.7847  0.4368
   52MOL0     C 7072  12.764   9.240   5.832 -0.2969 -0.6029  0.0041
   52MOL0     C 7073  12.820   9.318   5.727 -0.0946  1.1999  0.7209
   52MOL0     O 7074  12.888   9.434   5.756 -0.3780  0.1683  0.1002
   52MOL0     C 7075  12.978   9.427   5.862 -1.1938  0.0133 -0.6747
   52MOL0     C 7076  13.074   9.537   5.842 -0.5187  0.1699  0.1822
   52MOL0     C 7077  13.199   9.536   5.943  0.5372  0.1547 -0.3822
   52MOL0     C 7078  13.315   9.439   5.890  0.2906  0.3512 -0.0499
   52MOL0     C 7079  13.413   9.396   5.995  0.1081 -0.4896 -0.0663
   52MOL0     C 7080  13.538   9.331   5.941  0.3251 -0.3021 -0.1892
   52MOL0     C 7081  13.627   9.270   6.050  0.1229  0.1640 -0.0220
   52MOL0     C 7082  13.750   9.206   5.988 -0.2634 -0.4498  0.9293
   52MOL0    Cl 7083  13.722   9.041   5.913 -0.1338 -0.2148  0.0484
   52MOL0     C 7084  12.830   9.265   5.594 -0.5761 -0.6697 -0.7876
   52MOL0     C 7085  12.770   9.142   5.570  0.7413 -0.6669 -0.1524
   52MOL0     O 7086  12.471   9.042   5.553  0.1955 -0.2952 -0.3940
   52MOL0     C 7087  12.516   8.722   5.692  0.1471  0.3381  0.0993
   52MOL0     C 7088  12.460   8.594   5.695 -0.1184 -0.4123  0.1246
   52MOL0     N 7089  12.269   8.040   5.994  0.2246  0.8080 -0.3901
   52MOL0     N 7090  12.230   8.005   6.106  0.2862 -0.3854  0.4737
   52MOL0     C 7091  11.480   7.267   6.772  0.0287  0.1347 -0.8397
   52MOL0     C 7092  11.399   7.158   6.802 -1.0540  0.3699  0.1954
   52MOL0     C 7093  11.191   6.828   7.031 -0.1388 -0.7352 -0.0759
   52MOL0     C 7094  11.264   6.713   7.034 -0.5494  0.8267  0.2300
   52MOL0     C 7095  11.201   6.583   7.045 -0.3451 -0.7361  0.7005
   52MOL0     C 7096  11.068   6.582   7.033  0.7765  1.0462 -0.6760
   52MOL0     O 7097  11.009   6.462   7.044  0.9081  0.1202 -0.1189
   52MOL0     C 7098  10.866   6.453   7.021  0.1933  0.1824 -0.1777
   52MOL0     C 7099  10.817   6.312   6.993 -0.5629 -0.3250 -0.3850
   52MOL0     C 7100  10.662   6.313   6.984  0.0713  0.1840 -0.0063
   52MOL0     C 7101  10.601   6.179   6.947  0.8458  0.4288  0.2239
   52MOL0     C 7102  10.505   6.134   7.049 -0.5063  0.7807 -0.8061
   52MOL0     C 7103  10.439   6.076   7.135 -0.6426 -0.4876  0.7046
   52MOL0     C 7104  10.993   6.699   7.023  0.0964 -0.2511  0.2519
   52MOL0     C 7105  11.053   6.829   7.021 -0.2984 -0.5841 -0.6571
   52MOL0     C 7106  10.975   6.956   7.023 -0.2857 -0.5065 -0.7526
   52MOL0     H 7107  11.335   7.226   7.131  1.5130 -1.9628  1.1916
   52MOL0     H 7108  11.496   7.426   7.070  1.1510  1.3976 -3.0429
   52MOL0     H 7109  11.617   7.535   6.677 -0.2547  0.6629  1.8121
   52MOL0     H 7110  11.696   7.370   6.690  0.8550 -0.2549 -1.9906
   52MOL0     H 7111  11.846   7.602   6.806  0.5581  1.3507 -2.5088
   52MOL0     H 7112  11.882   7.422   6.783  1.9776  0.5301  0.3787
   52MOL0     H 7113  11.987   7.551   6.609 -1.2925  1.3432  0.8557
   52MOL0     H 7114  11.868   7.441   6.544  0.8751 -0.9611 -0.0971
   52MOL0     H 7115  11.713   7.641   6.540 -0.3531  0.7960  2.3930
   52MOL0     H 7116  11.839   7.747   6.597 -0.0901 -1.7721  2.9684
   52MOL0     H 7117  11.789   7.765   6.350  3.4991  3.1011 -1.1076
   52MOL0     H 7118  11.835   7.602   6.342 -2.0654 -1.2378  2.6850
   52MOL0     H 7119  12.022   7.826   6.435 -1.4184  1.4015 -0.3041
   52MOL0     H 7120  12.078   7.649   6.410  2.0256 -0.0436 -0.9857
   52MOL0     H 7121  12.024   7.700   6.168 -0.4593  1.3117 -2.4540
   52MOL0     H 7122  12.168   7.752   6.250  0.0579  2.3488 -0.2651
   52MOL0     H 7123  11.923   7.904   6.164  0.4521  3.2579 -0.7751
   52MOL0     H 7124  12.030   7.988   6.285 -1.5789  0.7367 -0.0174
   52MOL0     H 7125  11.961   7.937   5.919  1.7713 -2.5650 -1.9925
   52MOL0     H 7126  12.125   7.983   5.691  0.8107 -0.9438 -0.8180
   52MOL0     H 7127  12.280   8.045   5.718 -0.1077 -0.9164  0.9510
   52MOL0     H 7128  12.027   8.205   5.768 -0.9979  0.1710 -0.3925
   52MOL0     H 7129  12.190   8.266   5.815  0.0684 -0.4160  0.8720
   52MOL0     H 7130  12.223   8.177   5.550  1.4999  1.7344 -0.2698
   52MOL0     H 7131  12.054   8.223   5.548 -1.9568  0.8596  3.4022
   52MOL0     H 7132  12.187   8.407   5.472  1.4286 -1.1194 -0.0083
   52MOL0     H 7133  12.097   8.449   5.617 -1.7720 -1.4317 -2.0910
   52MOL0     H 7134  12.218   8.626   5.465 -0.3699  1.9358 -0.3185
   52MOL0     H 7135  12.246   8.967   5.538  3.4423  1.0038 -0.9334
   52MOL0     H 7136  12.159   8.847   5.438  1.1922 -2.3313  0.5854
   52MOL0     H 7137  12.313   8.922   5.384 -2.7091  0.9950 -0.6803
   52MOL0     H 7138  12.679   9.042   5.884 -2.3845 -2.0806 -2.9448
   52MOL0     H 7139  12.750   9.268   5.936  0.4603 -2.4420  0.6386
   52MOL0     H 7140  12.938   9.443   5.963  2.9422  1.6076  0.9508
   52MOL0     H 7141  13.030   9.331   5.872  0.3957  0.8338 -0.8019
   52MOL0     H 7142  13.116   9.527   5.741 -0.2127 -0.9244  0.4056
   52MOL0     H 7143  13.015   9.629   5.844  0.8697  1.0954  0.0702
   52MOL0     H 7144  13.164   9.499   6.039 -2.1775 -1.8282 -2.0121
   52MOL0     H 7145  13.234   9.638   5.962 -2.8945  1.2056  1.0643
   52MOL0     H 7146  13.371   9.486   5.808  2.0830  0.7349  1.3312
   52MOL0     H 7147  13.267   9.345   5.863  2.4172 -0.3349 -1.7614
   52MOL0     H 7148  13.432   9.480   6.063  1.0977 -0.9346  0.2330
   52MOL0     H 7149  13.352   9.333   6.060 -0.0459 -2.0298 -1.6347
   52MOL0     H 7150  13.590   9.404   5.878  1.6652 -0.6562  0.4641
   52MOL0     H 7151  13.499   9.253   5.875  0.1596  1.0284 -1.7280
   52MOL0     H 7152  13.561   9.201   6.104 -0.6035 -1.3108 -2.6074
   52MOL0     H 7153  13.648   9.350   6.121 -1.9370 -0.0585  0.9210
   52MOL0     H 7154  13.830   9.185   6.059  1.2917 -0.1662 -0.6657
   52MOL0     H 7155  13.808   9.257   5.911 -0.9918 -1.2653 -0.1906
   52MOL0     H 7156  12.896   9.317   5.525  0.7457  1.0604  1.6211
   52MOL0     H 7157  12.765   9.102   5.469 -0.2422  0.2769 -0.4883
   52MOL0     H 7158  12.607   8.737   5.750  1.6854 -0.0551 -2.0540
   52MOL0     H 7159  12.506   8.515   5.754  0.6946  0.7919  1.1372
   52MOL0     H 7160  11.510   7.288   6.670 -0.0189 -1.4558 -1.2074
   52MOL0     H 7161  11.372   7.086   6.727  3.0810 -2.0812  0.7518
   52MOL0     H 7162  11.373   6.718   7.031 -0.5878  3.1822  1.0460
   52MOL0     H 7163  11.258   6.492   7.062  0.5840 -0.1744  0.6753
   52MOL0     H 7164  10.816   6.491   7.110 -0.1954 -0.3937 -0.1484
   52MOL0     H 7165  10.824   6.508   6.936 -0.7223  0.6887  0.5877
   52MOL0     H 7166  10.848   6.248   7.076 -0.6194 -3.6470 -2.7413
   52MOL0     H 7167  10.860   6.274   6.900 -1.4862 -3.3893  0.3343
   52MOL0     H 7168  10.614   6.355   7.073  1.3535 -0.3133  0.9476
   52MOL0     H 7169  10.634   6.378   6.901 -2.7393 -0.6420  0.1913
   52MOL0     H 7170  10.681   6.104   6.940 -2.1443 -3.1725  1.0119
   52MOL0     H 7171  10.551   6.172   6.850  1.0774 -2.9848  0.2134
   52MOL0     H 7172  10.376   6.040   7.213 -1.5176 -1.2278 -0.3159
   52MOL0     H 7173  10.885   6.698   7.014  0.0368 -2.4067  0.5149
   52MOL0     H 7174  10.867   6.948   7.014 -0.8922  3.4078  0.7692
   52MOL0     H 7175  11.003   7.012   7.113  2.7561 -3.5248  0.3930
   52MOL0     H 7176  11.008   7.028   6.948 -0.7845  1.4260  0.7936
   53MOL0     O 7177   6.864   0.380  10.419 -1.1085 -0.5721 -0.8755
   53MOL0     C 7178   6.900   0.273  10.473  0.3302 -0.8475 -0.1336
   53MOL0     O 7179   6.986   0.185  10.420  0.3152 -0.6295  0.2097
   53MOL0     C 7180   7.055   0.217  10.308 -0.1148 -0.3544 -0.2793
   53MOL0     C 7181   7.124   0.342  10.292  0.2454  0.8193 -0.3120
   53MOL0     C 7182   7.180   0.381  10.167 -0.3736 -1.1732 -0.1549
   53MOL0     C 7183   7.175   0.294  10.059  1.0688  0.4205 -0.6239
   53MOL0     O 7184   7.226   0.329   9.942  0.1432 -0.0120 -0.1163
   53MOL0     C 7185   7.297   0.447   9.921  0.0100 -1.0734 -1.0208
   53MOL0     C 7186   7.313   0.477   9.773 -0.3496  0.6134 -0.1780
   53MOL0     C 7187   7.393   0.601   9.747 -1.2442 -0.5994 -0.3718
   53MOL0     C 7188   7.438   0.639   9.605  0.1605  0.3741 -0.8204
   53MOL0     C 7189   7.313   0.653   9.514 -0.4160  0.0197  0.7405
   53MOL0     C 7190   7.340   0.717   9.375  0.5830  0.5386 -0.3896
   53MOL0     C 7191   7.248   0.676   9.265  0.5218 -0.6668  0.8099
   53MOL0     C 7192   7.105   0.730   9.281  0.1680 -0.5629  0.4898
   53MOL0     N 7193   7.006   0.670   9.195  0.0743 -0.1847  0.1706
   53MOL0     C 7194   6.985   0.540   9.156  0.1392  0.5362  0.7725
   53MOL0     C 7195   6.899   0.549   9.049  0.2333 -1.0101  0.1273
   53MOL0     C 7196   6.833   0.440   8.966 -0.0065 -0.3829 -0.1069
   53MOL0     C 7197   6.677   0.443   8.976  0.6416  0.2091  0.4532
   53MOL0     C 7198   6.639   0.353   9.090 -0.3817 -0.2405 -0.0653
   53MOL0     C 7199   6.517   0.400   9.159  0.8856  0.4022 -0.9390
   53MOL0     O 7200   6.520   0.348   9.293  0.4270 -0.6351  0.3171
   53MOL0     C 7201   6.435   0.245   9.326 -0.6561 -0.5951  0.6428
   53MOL0     C 7202   6.492   0.133   9.381 -0.3951 -0.5227 -0.0665
   53MOL0     C 7203   6.416   0.029   9.427  0.6026  0.4441 -0.5460
   53MOL0     C 7204   6.491  -0.095   9.461 -0.5068 -0.7054  0.8767
   53MOL0     C 7205   6.271   0.048   9.445  0.6511  0.1518 -1.5624
   53MOL0     C 7206   6.187  -0.063   9.495 -0.5944  0.9479  0.0533
   53MOL0     O 7207   6.094  -0.022   9.566  0.0841  0.2895  0.6789
   53MOL0     C 7208   6.018  -0.104   9.649 -0.0028 -0.3704  0.7351
   53MOL0     C 7209   5.878  -0.111   9.632 -0.4490 -0.3267  0.3675
   53MOL0     C 7210   5.792  -0.193   9.710 -0.3013 -0.1457 -0.9375
   53MOL0     C 7211   5.853  -0.273   9.804 -0.8375 -1.4757 -0.4014
   53MOL0     O 7212   5.784  -0.360   9.888 -0.7310  0.3870 -0.1976
   53MOL0     C 7213   5.713  -0.466   9.811 -0.4885 -0.1699  0.3097
   53MOL0     C 7214   5.644  -0.570   9.899 -0.6950 -0.1183 -0.5663
   53MOL0     C 7215   5.575  -0.680   9.838  0.1409 -0.2566 -0.2937
   53MOL0     C 7216   5.660  -0.785   9.773 -0.1280 -0.0057  0.7454
   53MOL0     C 7217   5.572  -0.886   9.710 -0.2648  0.4004  0.0305
   53MOL0     C 7218   5.658  -1.016   9.679  0.2358  0.4903 -0.5331
   53MOL0     C 7219   5.575  -1.134   9.627 -1.0943  0.0632 -0.5146
   53MOL0     C 7220   5.653  -1.265   9.582  0.1057  0.2996  0.7438
   53MOL0    Cl 7221   5.673  -1.374   9.711 -0.0011 -0.0927 -0.3503
   53MOL0     C 7222   5.987  -0.267   9.827  0.3717  1.1514 -0.1054
   53MOL0     C 7223   6.069  -0.175   9.759 -0.3047  0.0477  0.3954
   53MOL0     O 7224   6.215  -0.182   9.470 -0.9697 -0.5923  0.8451
   53MOL0     C 7225   6.215   0.173   9.405  0.3467 -0.3070  0.0343
   53MOL0     C 7226   6.300   0.273   9.348 -0.3584 -0.6172 -0.7160
   53MOL0     N 7227   6.873   0.680   9.017  0.7745 -0.7897 -1.0947
   53MOL0     N 7228   6.933   0.740   9.114  0.5914 -0.0987  0.8656
   53MOL0     C 7229   7.132   0.164  10.085 -0.7049  0.3484 -0.0621
   53MOL0     C 7230   7.070   0.121  10.207 -0.4008 -0.7489 -0.2547
   53MOL0     C 7231   6.850   0.258  10.617  0.6139  0.1013  0.1892
   53MOL0     C 7232   6.745   0.344  10.657 -0.6353  0.0246  0.4476
   53MOL0     C 7233   6.703   0.357  10.790 -0.4853  0.0813 -0.1680
   53MOL0     C 7234   6.750   0.271  10.887 -0.4421 -0.2400 -0.5373
   53MOL0     O 7235   6.702   0.278  11.009  0.0397  0.4126  0.7128
   53MOL0     C 7236   6.812   0.293  11.110 -0.6452 -0.2399  0.1591
   53MOL0     C 7237   6.738   0.355  11.222  0.5381 -0.4286 -0.4413
   53MOL0     C 7238   6.725   0.504  11.229 -0.4542 -0.5433 -1.2456
   53MOL0     C 7239   6.677   0.557  11.363 -0.1352  0.5471  0.0471
   53MOL0     C 7240   6.530   0.538  11.378 -0.1376 -0.4535 -0.6548
   53MOL0     C 7241   6.414   0.519  11.404 -0.5918  0.2849 -0.4024
   53MOL0     C 7242   6.850   0.173  10.851 -0.4929 -1.1244 -0.2691
   53MOL0     C 7243   6.901   0.173  10.720  0.1347  0.0882  0.8008
   53MOL0     C 7244   7.021   0.089  10.688  0.2634 -0.3464  0.0652
   53MOL0     H 7245   7.127   0.417  10.370 -1.8021 -1.7049  2.4478
   53MOL0     H 7246   7.222   0.481  10.173  2.5372 -2.3614  3.3497
   53MOL0     H 7247   7.389   0.442   9.980 -1.3872 -5.1891  1.2035
   53MOL0     H 7248   7.232   0.531   9.950  0.0538 -0.0799 -3.5372
   53MOL0     H 7249   7.378   0.400   9.730  0.6654  2.0556 -1.3457
   53MOL0     H 7250   7.219   0.471   9.719 -0.4528 -1.6114  0.1504
   53MOL0     H 7251   7.348   0.686   9.800  3.4620  0.7303  2.0740
   53MOL0     H 7252   7.488   0.581   9.797 -0.9167 -0.8728 -1.1020
   53MOL0     H 7253   7.489   0.736   9.610 -2.1749  1.6062  0.7321
   53MOL0     H 7254   7.506   0.567   9.557  2.1011  1.7329 -0.2566
   53MOL0     H 7255   7.233   0.699   9.573  0.6592  1.5523  1.0728
   53MOL0     H 7256   7.293   0.548   9.494  2.6654  0.1805 -5.5567
   53MOL0     H 7257   7.346   0.825   9.391  1.4647  0.2510  1.4835
   53MOL0     H 7258   7.444   0.691   9.351  0.0435 -2.6369  0.3123
   53MOL0     H 7259   7.245   0.567   9.251  1.7909 -0.9232  2.2600
   53MOL0     H 7260   7.293   0.707   9.170 -2.3584 -2.0500 -1.1712
   53MOL0     H 7261   7.075   0.691   9.379 -2.6596 -1.1439 -0.4868
   53MOL0     H 7262   7.085   0.837   9.270  2.9443  0.0723  0.9308
   53MOL0     H 7263   7.023   0.451   9.204  0.3417  1.1794  1.8482
   53MOL0     H 7264   6.878   0.349   9.008  2.7008  1.2539  0.8631
   53MOL0     H 7265   6.872   0.444   8.864  0.8040  0.9433  0.2304
   53MOL0     H 7266   6.657   0.545   9.010 -1.4893  0.6670 -1.8692
   53MOL0     H 7267   6.619   0.418   8.887  2.1311 -0.9434 -0.2445
   53MOL0     H 7268   6.614   0.251   9.062 -2.2961 -0.3148  1.6678
   53MOL0     H 7269   6.720   0.355   9.164  0.2625 -0.6675 -0.7594
   53MOL0     H 7270   6.517   0.508   9.179  2.1785  0.1791  0.3774
   53MOL0     H 7271   6.419   0.379   9.115 -1.3464  0.9370  3.2915
   53MOL0     H 7272   6.600   0.135   9.382 -0.2654  3.5010 -1.8837
   53MOL0     H 7273   6.465  -0.125   9.563 -0.4958 -0.4873  0.9436
   53MOL0     H 7274   6.598  -0.077   9.476 -0.7671 -0.7228  3.2662
   53MOL0     H 7275   6.481  -0.176   9.389 -1.0360  1.3429 -1.4753
   53MOL0     H 7276   5.835  -0.058   9.548  1.0606  3.6301  1.8347
   53MOL0     H 7277   5.687  -0.198   9.686 -0.4604  2.0800 -0.9184
   53MOL0     H 7278   5.638  -0.431   9.739  0.4247 -0.0390 -0.6109
   53MOL0     H 7279   5.796  -0.518   9.763 -1.3041 -3.0918  1.7965
   53MOL0     H 7280   5.717  -0.621   9.963 -0.1874  1.7632  0.4564
   53MOL0     H 7281   5.582  -0.504   9.961 -0.8681  0.9243 -1.7947
   53MOL0     H 7282   5.506  -0.633   9.767 -0.3010  0.1473  0.3912
   53MOL0     H 7283   5.514  -0.734   9.911  2.3876 -0.2395  1.7128
   53MOL0     H 7284   5.725  -0.832   9.848 -0.9110 -2.3821  0.0138
   53MOL0     H 7285   5.727  -0.750   9.694 -2.3073  0.7169 -0.8486
   53MOL0     H 7286   5.491  -0.908   9.781  0.1549 -0.9500  0.1152
   53MOL0     H 7287   5.519  -0.848   9.622  0.7087  0.7633 -0.4124
   53MOL0     H 7288   5.728  -1.032   9.761 -0.0613  2.8737  0.2366
   53MOL0     H 7289   5.721  -0.984   9.595 -1.9641 -1.0727 -2.9596
   53MOL0     H 7290   5.533  -1.094   9.535 -1.4619  0.1879 -0.2949
   53MOL0     H 7291   5.492  -1.172   9.687 -2.0050  2.2941 -0.2309
   53MOL0     H 7292   5.740  -1.234   9.525 -3.4425  0.0480 -5.7614
   53MOL0     H 7293   5.586  -1.315   9.512  1.8832  0.1349 -0.9170
   53MOL0     H 7294   6.029  -0.349   9.884 -1.2978  2.0505  2.6192
   53MOL0     H 7295   6.176  -0.176   9.778 -0.1014 -0.5967 -0.6545
   53MOL0     H 7296   6.109   0.185   9.420  0.5831  0.1589  1.4814
   53MOL0     H 7297   6.266   0.373   9.323 -1.0818 -1.0541 -1.5189
   53MOL0     H 7298   7.155   0.097  10.003  2.3110  0.5888  0.4916
   53MOL0     H 7299   7.036   0.019  10.224 -2.7340  0.2311  1.3877
   53MOL0     H 7300   6.702   0.416  10.588  2.4892  3.2523  1.5747
   53MOL0     H 7301   6.634   0.436  10.818 -1.1020 -1.0983  1.8031
   53MOL0     H 7302   6.862   0.202  11.144 -1.6794 -0.0354  2.4361
   53MOL0     H 7303   6.891   0.357  11.070 -0.4125  0.3126  1.4561
   53MOL0     H 7304   6.791   0.325  11.313  1.8545  1.0709 -0.6737
   53MOL0     H 7305   6.642   0.302  11.229  0.7478 -0.7555 -0.0492
   53MOL0     H 7306   6.821   0.553  11.211 -0.6515 -0.0330 -0.9172
   53MOL0     H 7307   6.661   0.535  11.145 -0.6387 -0.6595 -1.1486
   53MOL0     H 7308   6.706   0.663  11.361  2.5374 -0.1222 -0.1252
   53MOL0     H 7309   6.733   0.512  11.445  3.1526  1.5007 -1.5161
   53MOL0     H 7310   6.311   0.515  11.433 -1.1631 -1.4738 -2.4203
   53MOL0     H 7311   6.889   0.096  10.916 -0.2451 -0.8956 -0.1450
   53MOL0     H 7312   7.095   0.161  10.652 -1.1159  1.3649  0.5009
   53MOL0     H 7313   7.049   0.061  10.789 -0.2272  1.6319  0.8054
   53MOL0     H 7314   6.992   0.002  10.628  1.2562 -0.7287  0.1203
   54MOL0     O 7315   7.321   5.770   6.611 -0.1615 -0.7932 -0.1260
   54MOL0     C 7316   7.402   5.806   6.521  0.4596 -0.7721 -0.1501
   54MOL0     O 7317   7.532   5.819   6.539 -0.2170 -0.8296  0.1661
   54MOL0     C 7318   7.589   5.757   6.652 -0.2354 -0.0418 -0.3129
   54MOL0     C 7319   7.683   5.831   6.728 -0.5199 -1.2580  0.1109
   54MOL0     C 7320   7.730   5.769   6.848  0.5467 -0.5904  0.3003
   54MOL0     C 7321   7.696   5.651   6.903 -0.2558  0.9699 -0.6074
   54MOL0     O 7322   7.741   5.614   7.025 -0.0891  0.7946  0.6638
   54MOL0     C 7323   7.703   5.496   7.084  0.3936  0.3047 -0.8259
   54MOL0     C 7324   7.772   5.487   7.218 -0.4449 -0.3857 -0.2776
   54MOL0     C 7325   7.694   5.387   7.309  0.6014  0.0074  0.3232
   54MOL0     C 7326   7.781   5.345   7.434 -0.9060  0.0099  0.2351
   54MOL0     C 7327   7.707   5.259   7.535 -0.1746 -0.2219  0.2971
   54MOL0     C 7328   7.791   5.189   7.643  0.4538 -0.1498 -1.4162
   54MOL0     C 7329   7.924   5.131   7.594  0.0493  0.1511 -0.1766
   54MOL0     C 7330   7.960   4.992   7.653  0.4217  0.1968 -0.3211
   54MOL0     N 7331   8.103   4.973   7.635  0.0109  0.0152  0.3360
   54MOL0     C 7332   8.170   4.929   7.523  0.6086 -0.3008  0.5801
   54MOL0     C 7333   8.298   4.912   7.563  0.2231  0.4590  0.4234
   54MOL0     C 7334   8.397   4.855   7.466  0.0172  0.1069  0.3069
   54MOL0     C 7335   8.528   4.842   7.525 -0.1557 -0.6263 -0.0484
   54MOL0     C 7336   8.606   4.728   7.459  1.2166  0.3819  0.4781
   54MOL0     C 7337   8.745   4.705   7.519  0.6282 -1.1129  0.0233
   54MOL0     O 7338   8.821   4.834   7.526  0.1157  0.1805 -0.6787
   54MOL0     C 7339   8.963   4.821   7.546  0.1440 -0.1852 -0.2615
   54MOL0     C 7340   9.032   4.942   7.524 -0.4547 -0.1645 -0.4901
   54MOL0     C 7341   9.170   4.937   7.529 -0.5775 -0.6197  0.6244
   54MOL0     C 7342   9.228   5.076   7.498 -0.5620  0.6334 -0.6177
   54MOL0     C 7343   9.239   4.819   7.576  0.0857  0.1804  0.3871
   54MOL0     C 7344   9.382   4.807   7.581 -0.2319  0.2420 -0.6041
   54MOL0     O 7345   9.437   4.718   7.669  0.0417 -0.4256  0.0035
   54MOL0     C 7346   9.569   4.709   7.682  0.7904 -0.1744 -0.0650
   54MOL0     C 7347   9.647   4.762   7.787  1.3580 -0.5257 -1.1491
   54MOL0     C 7348   9.785   4.744   7.785  0.1601  0.2675  0.3822
   54MOL0     C 7349   9.853   4.681   7.682  0.2528 -0.8827 -0.4834
   54MOL0     O 7350   9.984   4.660   7.669  0.3833 -0.2712 -0.0347
   54MOL0     C 7351  10.073   4.739   7.747  1.0605  0.1343 -0.3988
   54MOL0     C 7352  10.217   4.721   7.695 -0.5654 -0.2661  0.2774
   54MOL0     C 7353  10.328   4.757   7.795  0.3463 -0.4105  0.4357
   54MOL0     C 7354  10.461   4.759   7.729 -0.2500 -0.0456  0.1269
   54MOL0     C 7355  10.577   4.773   7.822  0.3688 -0.4807  0.4133
   54MOL0     C 7356  10.701   4.794   7.732  0.8892  0.2331  0.0769
   54MOL0     C 7357  10.827   4.795   7.813 -0.7337  0.1582  0.0765
   54MOL0     C 7358  10.846   4.914   7.916  0.4000  1.8545  0.3908
   54MOL0    Cl 7359  10.870   5.075   7.843 -0.1951 -0.0580  0.0279
   54MOL0     C 7360   9.775   4.631   7.580 -0.3382  0.5526  0.5366
   54MOL0     C 7361   9.636   4.641   7.577  0.6357 -0.6527 -0.3349
   54MOL0     O 7362   9.452   4.863   7.495 -0.2476 -0.1999  0.0001
   54MOL0     C 7363   9.167   4.699   7.598 -0.1390 -0.1645 -0.0247
   54MOL0     C 7364   9.032   4.700   7.586  0.8424  0.0729  0.3264
   54MOL0     N 7365   8.301   4.953   7.696 -0.3695  0.0291 -0.0178
   54MOL0     N 7366   8.184   4.989   7.736 -0.3969  0.5807 -0.2884
   54MOL0     C 7367   7.612   5.577   6.819  0.6467 -0.1735 -0.6325
   54MOL0     C 7368   7.551   5.629   6.702 -0.3795  0.0315  0.4135
   54MOL0     C 7369   7.342   5.843   6.393  0.4880  0.2710  0.0718
   54MOL0     C 7370   7.201   5.820   6.390 -0.0521 -0.4642  0.6079
   54MOL0     C 7371   7.128   5.867   6.284  0.2825  0.6709 -0.0260
   54MOL0     C 7372   7.199   5.928   6.175 -0.1680 -0.2051 -0.2143
   54MOL0     O 7373   7.132   5.991   6.067  0.0024 -0.2345  0.0965
   54MOL0     C 7374   6.989   6.003   6.082 -0.1891 -0.0852  0.3570
   54MOL0     C 7375   6.933   6.053   5.950  0.8231  1.0110 -0.2971
   54MOL0     C 7376   6.782   6.065   5.952  0.5868 -0.5852 -0.4938
   54MOL0     C 7377   6.732   6.174   5.843 -0.0958  0.4329 -0.3310
   54MOL0     C 7378   6.723   6.100   5.719 -0.2366  0.1016 -0.0110
   54MOL0     C 7379   6.716   6.023   5.630 -0.1959 -0.0035 -0.1370
   54MOL0     C 7380   7.331   5.951   6.181 -0.4058  0.0807  0.4216
   54MOL0     C 7381   7.408   5.911   6.288  0.1593 -0.0231  0.2763
   54MOL0     C 7382   7.555   5.953   6.299  1.2019 -0.4624  0.2552
   54MOL0     H 7383   7.717   5.926   6.690 -0.1170 -2.2067 -2.0432
   54MOL0     H 7384   7.804   5.823   6.907  2.7665 -3.9064  0.7950
   54MOL0     H 7385   7.731   5.414   7.017 -0.8766 -0.8698  0.0359
   54MOL0     H 7386   7.598   5.492   7.114  1.7387 -3.3678  5.1511
   54MOL0     H 7387   7.878   5.470   7.199 -0.4836  1.6544 -3.0419
   54MOL0     H 7388   7.767   5.590   7.256  0.5151 -0.0869 -0.9252
   54MOL0     H 7389   7.599   5.429   7.343  0.7558  2.2891 -1.7148
   54MOL0     H 7390   7.678   5.292   7.257  1.0953 -0.6783  1.3929
   54MOL0     H 7391   7.867   5.296   7.387  0.3682  1.6526  0.7520
   54MOL0     H 7392   7.826   5.433   7.480  4.6935 -0.4394 -3.4154
   54MOL0     H 7393   7.658   5.174   7.487  0.0862 -0.1584 -0.0943
   54MOL0     H 7394   7.634   5.324   7.581 -0.1215 -0.7451  1.1439
   54MOL0     H 7395   7.824   5.262   7.718  2.6606 -1.1747 -1.2974
   54MOL0     H 7396   7.726   5.112   7.685 -0.6591  0.9090 -1.1509
   54MOL0     H 7397   8.007   5.202   7.599  0.1681  0.3615 -3.3684
   54MOL0     H 7398   7.915   5.108   7.488 -0.4769 -0.2619 -0.0447
   54MOL0     H 7399   7.934   4.986   7.759 -0.2799 -1.5297 -0.5536
   54MOL0     H 7400   7.916   4.916   7.587  2.9822 -1.2597 -0.5163
   54MOL0     H 7401   8.128   4.917   7.423 -0.6491  0.7505  0.9500
   54MOL0     H 7402   8.378   4.923   7.383 -3.3707  3.5725  3.4901
   54MOL0     H 7403   8.370   4.753   7.436  1.1602 -1.2778  3.5554
   54MOL0     H 7404   8.578   4.939   7.516 -2.2846  0.3244 -4.0304
   54MOL0     H 7405   8.508   4.812   7.628 -4.5293  0.2270 -0.4456
   54MOL0     H 7406   8.557   4.631   7.472  2.5859 -0.2282  1.2383
   54MOL0     H 7407   8.620   4.764   7.357 -1.2763 -0.3055 -0.1685
   54MOL0     H 7408   8.736   4.674   7.623 -0.8645 -1.1232 -0.0939
   54MOL0     H 7409   8.797   4.623   7.468  2.6355  1.4388 -2.3619
   54MOL0     H 7410   8.982   5.033   7.491 -1.6543 -2.0354 -4.5275
   54MOL0     H 7411   9.179   5.154   7.557  0.4580 -0.2169  1.4545
   54MOL0     H 7412   9.238   5.096   7.391 -0.6512  2.1841 -0.3610
   54MOL0     H 7413   9.332   5.074   7.531 -0.2385  2.3604 -1.4459
   54MOL0     H 7414   9.607   4.803   7.879  2.9381  2.0517 -1.5053
   54MOL0     H 7415   9.845   4.800   7.857 -0.4960  1.8581 -0.2639
   54MOL0     H 7416  10.039   4.843   7.749 -0.4248 -0.3396  0.2467
   54MOL0     H 7417  10.060   4.703   7.850  0.3079 -1.3533 -0.9957
   54MOL0     H 7418  10.225   4.619   7.657 -1.5780  0.2114 -1.3078
   54MOL0     H 7419  10.229   4.786   7.608 -0.2698 -0.8445 -0.1216
   54MOL0     H 7420  10.320   4.676   7.868  0.1198 -2.3363 -1.6155
   54MOL0     H 7421  10.300   4.849   7.846 -2.2520 -1.4087  0.9598
   54MOL0     H 7422  10.457   4.844   7.660  1.4383  0.0147  0.0461
   54MOL0     H 7423  10.480   4.668   7.670 -0.3241 -0.2768  0.4552
   54MOL0     H 7424  10.570   4.862   7.885  1.8746  0.9041 -1.2625
   54MOL0     H 7425  10.578   4.678   7.878  0.5643 -0.9812 -0.4221
   54MOL0     H 7426  10.704   4.881   7.667  0.9189  0.7272  0.7238
   54MOL0     H 7427  10.720   4.706   7.670  3.1401  0.5034  0.3242
   54MOL0     H 7428  10.914   4.805   7.747 -0.2072  0.8274  0.8497
   54MOL0     H 7429  10.836   4.707   7.878  1.2750  0.6187  0.4896
   54MOL0     H 7430  10.933   4.900   7.980  0.7962  0.9814 -0.3202
   54MOL0     H 7431  10.753   4.920   7.974  1.2068  3.0759  1.6190
   54MOL0     H 7432   9.827   4.583   7.498 -0.3232  0.1220  0.7994
   54MOL0     H 7433   9.580   4.586   7.502 -0.6395  0.0237  0.0893
   54MOL0     H 7434   9.214   4.603   7.619 -2.5188 -1.5899 -0.7932
   54MOL0     H 7435   8.978   4.607   7.604  1.3750 -0.4177 -0.5265
   54MOL0     H 7436   7.580   5.479   6.853 -1.2743 -0.1355 -2.1264
   54MOL0     H 7437   7.484   5.565   6.644 -0.7065 -1.9070  2.7882
   54MOL0     H 7438   7.138   5.776   6.466  0.8820  0.4354  1.9489
   54MOL0     H 7439   7.023   5.841   6.276  0.3794  0.3979 -0.4910
   54MOL0     H 7440   6.947   5.905   6.106  0.5736 -0.3697  0.5673
   54MOL0     H 7441   6.983   6.070   6.168  0.3088 -0.2137  0.4984
   54MOL0     H 7442   6.951   5.977   5.874  1.0767  0.8486 -0.0773
   54MOL0     H 7443   6.978   6.149   5.923  0.8743  0.2959 -3.0816
   54MOL0     H 7444   6.732   5.969   5.937  1.1197 -1.1077  0.9426
   54MOL0     H 7445   6.748   6.104   6.048 -2.8424 -4.5789  0.2083
   54MOL0     H 7446   6.790   6.266   5.839 -2.0641  1.9397  2.5525
   54MOL0     H 7447   6.628   6.203   5.858  0.3969  0.3931  4.8619
   54MOL0     H 7448   6.717   5.953   5.549  4.4175  0.4354 -0.7073
   54MOL0     H 7449   7.376   6.018   6.107  2.1174 -3.0314 -1.1139
   54MOL0     H 7450   7.622   5.882   6.348  1.7779  0.0325  0.1997
   54MOL0     H 7451   7.603   5.960   6.201  3.8795  0.5764  1.5546
   54MOL0     H 7452   7.566   6.055   6.338 -1.6372 -0.7246  2.0787
   55MOL0     O 7453   9.145  10.656   2.684  0.2931 -0.4638 -0.3930
   55MOL0     C 7454   9.160  10.781   2.686  0.4647  0.5076 -1.2275
   55MOL0     O 7455   9.157  10.859   2.571  0.0756 -0.8382  0.1480
   55MOL0     C 7456   9.127  10.817   2.442 -1.1810  0.3671  0.4837
   55MOL0     C 7457   9.142  10.676   2.396  0.2496  0.4561  0.2922
   55MOL0     C 7458   9.117  10.638   2.258  0.0992 -0.0342 -1.3711
   55MOL0     C 7459   9.092  10.734   2.163 -0.3802 -0.1716 -0.3011
   55MOL0     O 7460   9.055  10.714   2.030  0.5854 -0.3879 -0.5949
   55MOL0     C 7461   9.058  10.581   1.981 -0.5571  0.3965  0.0525
   55MOL0     C 7462   9.052  10.589   1.830  0.2596 -0.1028 -0.8229
   55MOL0     C 7463   9.019  10.446   1.789  0.0236 -0.4668 -0.1264
   55MOL0     C 7464   9.068  10.439   1.645  0.3476 -0.1312  0.4067
   55MOL0     C 7465   9.006  10.307   1.583 -0.3879 -1.2318 -0.0803
   55MOL0     C 7466   8.846  10.294   1.572 -0.0970 -0.0557 -0.1232
   55MOL0     C 7467   8.776  10.414   1.520  0.5116 -0.7941  0.4202
   55MOL0     C 7468   8.790  10.446   1.366 -0.8274  0.5857  0.4158
   55MOL0     N 7469   8.724  10.574   1.329 -0.3847  0.7698  0.8693
   55MOL0     C 7470   8.757  10.700   1.395 -0.4985 -0.6402 -0.1087
   55MOL0     C 7471   8.671  10.789   1.349  0.3327  0.2738 -0.1311
   55MOL0     C 7472   8.661  10.933   1.393  0.1010  0.0351  0.5418
   55MOL0     C 7473   8.756  11.023   1.311  0.3418  0.6878 -0.8450
   55MOL0     C 7474   8.775  11.150   1.400  0.1994  0.4662 -0.0289
   55MOL0     C 7475   8.836  11.277   1.327  0.2549 -0.0673  0.0322
   55MOL0     O 7476   8.741  11.301   1.231  0.1068  0.3135  0.9019
   55MOL0     C 7477   8.775  11.391   1.130 -1.1047  0.7050 -0.8332
   55MOL0     C 7478   8.736  11.522   1.142 -0.5100 -0.0768 -0.6734
   55MOL0     C 7479   8.771  11.615   1.053 -0.7882  0.0500  0.6126
   55MOL0     C 7480   8.719  11.753   1.077 -0.8392 -0.4596  0.3418
   55MOL0     C 7481   8.851  11.578   0.941 -0.0494  0.0682  0.3483
   55MOL0     C 7482   8.888  11.658   0.824 -0.1812 -0.3479  0.0344
   55MOL0     O 7483   8.802  11.764   0.800  0.1524  0.4280 -0.7244
   55MOL0     C 7484   8.815  11.838   0.680 -0.3215  0.1562 -0.1711
   55MOL0     C 7485   8.902  11.941   0.663 -0.2885 -0.4166 -0.0538
   55MOL0     C 7486   8.896  12.034   0.551 -0.1028 -0.4133 -1.3168
   55MOL0     C 7487   8.801  12.010   0.453 -0.1240  0.1185 -0.3291
   55MOL0     O 7488   8.805  12.101   0.345  0.2136  0.6273 -0.2823
   55MOL0     C 7489   8.734  12.059   0.221  0.5606 -0.2031 -0.6325
   55MOL0     C 7490   8.741  12.182   0.124 -1.0308  0.6540  0.0138
   55MOL0     C 7491   8.893  12.205   0.074 -0.4635  0.7466  0.3595
   55MOL0     C 7492   8.892  12.291  -0.056 -0.7457  0.3303 -0.2198
   55MOL0     C 7493   8.852  12.441  -0.029 -0.3018  0.0020 -0.6333
   55MOL0     C 7494   8.872  12.537  -0.150 -0.8940 -0.0779  0.0439
   55MOL0     C 7495   9.017  12.542  -0.189 -0.1972 -0.3871  0.5925
   55MOL0     C 7496   9.058  12.648  -0.291 -0.3088 -0.5690 -0.4687
   55MOL0    Cl 7497   9.027  12.817  -0.234  0.5911 -0.1959  0.1455
   55MOL0     C 7498   8.705  11.910   0.473  0.4344  0.2192  0.5979
   55MOL0     C 7499   8.710  11.828   0.588  0.0023 -0.4351  0.6829
   55MOL0     O 7500   8.981  11.635   0.749 -0.4606 -0.2247  0.3846
   55MOL0     C 7501   8.879  11.436   0.935  0.1697  0.3371 -0.3939
   55MOL0     C 7502   8.853  11.343   1.031  0.1595  0.0604 -0.4953
   55MOL0     N 7503   8.581  10.727   1.270 -0.4384 -0.2877  0.1332
   55MOL0     N 7504   8.613  10.601   1.260  0.6989 -0.1132  0.9044
   55MOL0     C 7505   9.065  10.868   2.218  1.0247 -0.1608  0.7296
   55MOL0     C 7506   9.092  10.909   2.342 -0.4879  0.5819  1.6138
   55MOL0     C 7507   9.209  10.849   2.814 -0.1333  0.8089 -0.0463
   55MOL0     C 7508   9.293  10.958   2.798  0.3940 -1.0421 -0.5778
   55MOL0     C 7509   9.344  11.020   2.909 -1.0315  0.8090 -0.4262
   55MOL0     C 7510   9.315  10.982   3.043  0.3440  0.0308 -0.2419
   55MOL0     O 7511   9.374  11.040   3.153  0.0762  0.1888  0.4400
   55MOL0     C 7512   9.322  11.012   3.290 -0.2391 -0.4671  0.9589
   55MOL0     C 7513   9.415  11.060   3.395 -1.3831 -0.3802 -0.1674
   55MOL0     C 7514   9.563  11.086   3.341  1.0632 -0.0499  0.2344
   55MOL0     C 7515   9.667  11.098   3.454 -0.7471 -1.2504  0.7373
   55MOL0     C 7516   9.780  11.175   3.396  0.0506 -0.0024  1.1428
   55MOL0     C 7517   9.867  11.235   3.344 -0.2508 -0.1700 -1.5712
   55MOL0     C 7518   9.207  10.887   3.061  0.3472 -0.5632 -0.9157
   55MOL0     C 7519   9.164  10.818   2.944  0.3273  0.4150 -0.5873
   55MOL0     C 7520   9.060  10.722   2.971  0.0509  0.7497 -0.5020
   55MOL0     H 7521   9.168  10.595   2.464 -0.6709  0.6148  0.8430
   55MOL0     H 7522   9.136  10.534   2.233  3.5002  0.6628 -2.2156
   55MOL0     H 7523   8.973  10.523   2.018  0.6766 -1.3048  0.3167
   55MOL0     H 7524   9.156  10.539   2.005  1.1615  3.2493 -1.4818
   55MOL0     H 7525   8.959  10.645   1.818  0.6208  1.5618  2.7504
   55MOL0     H 7526   9.145  10.636   1.796 -0.0701  1.1122 -0.1182
   55MOL0     H 7527   9.072  10.366   1.840  0.4311  0.3202  0.7126
   55MOL0     H 7528   8.913  10.423   1.796 -0.3878  1.4934  0.8918
   55MOL0     H 7529   9.040  10.521   1.577  1.5427 -0.5327 -0.6214
   55MOL0     H 7530   9.175  10.419   1.654  1.1250  2.7235 -1.0454
   55MOL0     H 7531   9.039  10.219   1.637 -0.6483 -0.8993  0.6380
   55MOL0     H 7532   9.052  10.312   1.484 -0.6124  2.4052 -0.1681
   55MOL0     H 7533   8.820  10.218   1.499  0.0895 -0.0946 -0.1492
   55MOL0     H 7534   8.799  10.265   1.666 -0.6802  2.4127  0.4333
   55MOL0     H 7535   8.812  10.502   1.574  1.3377 -1.3118  0.7472
   55MOL0     H 7536   8.670  10.410   1.545  0.0753  1.5464 -0.7712
   55MOL0     H 7537   8.896  10.454   1.342 -1.1090 -0.0206 -1.1581
   55MOL0     H 7538   8.756  10.367   1.299 -0.0771  2.1877 -1.9667
   55MOL0     H 7539   8.833  10.720   1.470 -1.2469 -1.4039  0.8796
   55MOL0     H 7540   8.693  10.931   1.498 -0.3863 -3.8180  0.7576
   55MOL0     H 7541   8.557  10.968   1.386  0.1826  0.5034  1.4718
   55MOL0     H 7542   8.858  10.986   1.298  1.0242  0.7942  3.0134
   55MOL0     H 7543   8.714  11.047   1.213 -0.5214 -0.5000 -0.7908
   55MOL0     H 7544   8.677  11.181   1.438 -1.0869  0.2528 -2.8768
   55MOL0     H 7545   8.841  11.117   1.481 -2.5157 -3.5952  0.8676
   55MOL0     H 7546   8.853  11.371   1.381 -1.4619  0.9761 -1.1471
   55MOL0     H 7547   8.928  11.244   1.278  1.6597  1.0892  1.7494
   55MOL0     H 7548   8.679  11.545   1.232  1.8181  2.5569  0.2296
   55MOL0     H 7549   8.654  11.770   1.163 -1.0482 -0.1109  0.1173
   55MOL0     H 7550   8.645  11.766   0.998 -0.2211  1.9703  0.0890
   55MOL0     H 7551   8.794  11.833   1.083 -1.7985  0.5540 -0.7259
   55MOL0     H 7552   8.975  11.966   0.740 -1.3813 -1.2529  1.3140
   55MOL0     H 7553   8.955  12.125   0.553  0.0244 -0.2534  4.2403
   55MOL0     H 7554   8.772  11.971   0.168 -2.3467 -0.1749 -3.0199
   55MOL0     H 7555   8.633  12.040   0.258  0.6425  0.2323 -0.1830
   55MOL0     H 7556   8.674  12.171   0.039 -0.4317  2.5542 -0.7533
   55MOL0     H 7557   8.715  12.274   0.179 -0.2954  0.6759  0.3346
   55MOL0     H 7558   8.942  12.110   0.051  1.6293  1.6072  1.0471
   55MOL0     H 7559   8.951  12.244   0.158  1.1394  0.6654 -0.6643
   55MOL0     H 7560   8.820  12.263  -0.133 -0.1654  2.4841 -1.6331
   55MOL0     H 7561   8.992  12.288  -0.101  0.8914  1.3941  3.0394
   55MOL0     H 7562   8.742  12.439  -0.024 -0.7835 -4.3611 -5.0035
   55MOL0     H 7563   8.908  12.469   0.061 -2.6592  1.2754  0.5538
   55MOL0     H 7564   8.837  12.630  -0.105  2.5914  2.4583 -1.9361
   55MOL0     H 7565   8.804  12.505  -0.229 -1.2683 -4.0882  1.7333
   55MOL0     H 7566   9.057  12.449  -0.229 -2.3905 -2.2465  2.4236
   55MOL0     H 7567   9.068  12.550  -0.092  2.1963  2.5688 -0.7427
   55MOL0     H 7568   8.995  12.628  -0.378 -1.7096  2.9086 -0.4091
   55MOL0     H 7569   9.162  12.642  -0.324  0.0786 -3.3046  0.9557
   55MOL0     H 7570   8.627  11.900   0.399  1.2585  2.3890 -0.6703
   55MOL0     H 7571   8.630  11.757   0.600 -1.6517  0.8966 -1.6909
   55MOL0     H 7572   8.931  11.383   0.855 -0.3726  0.7824 -1.0466
   55MOL0     H 7573   8.878  11.239   1.015 -0.5345 -0.8210  3.1970
   55MOL0     H 7574   9.037  10.927   2.131  2.2745 -1.7759 -0.8556
   55MOL0     H 7575   9.092  11.015   2.364 -2.0247  0.6750  1.2497
   55MOL0     H 7576   9.339  10.987   2.704  1.2927 -1.2429 -0.2089
   55MOL0     H 7577   9.418  11.099   2.902 -1.0287  0.9177  0.7167
   55MOL0     H 7578   9.220  11.051   3.300 -1.5365 -2.9717 -1.3925
   55MOL0     H 7579   9.312  10.905   3.309 -0.5072 -1.0342 -1.8999
   55MOL0     H 7580   9.425  10.983   3.472 -1.1769  0.7047  0.9273
   55MOL0     H 7581   9.375  11.150   3.441  1.4403  0.6800  0.4103
   55MOL0     H 7582   9.584  10.997   3.282 -0.1899 -1.6203  2.0084
   55MOL0     H 7583   9.561  11.168   3.269  1.4681 -2.2199 -2.3775
   55MOL0     H 7584   9.695  11.003   3.500 -1.3672 -0.0446  3.7973
   55MOL0     H 7585   9.624  11.157   3.535  1.2166  0.0570  0.8881
   55MOL0     H 7586   9.946  11.297   3.307 -0.3831  2.1363  1.5344
   55MOL0     H 7587   9.167  10.871   3.160  0.0226  1.9675 -0.5661
   55MOL0     H 7588   8.991  10.697   2.891 -1.8997  0.7205  1.1186
   55MOL0     H 7589   9.107  10.631   3.009  0.3117  2.5837  4.2525
   55MOL0     H 7590   9.002  10.768   3.052  1.2035 -0.3658  1.0351
   56MOL0     O 7591   9.405   0.724   9.505  0.5191  0.1503 -0.2698
   56MOL0     C 7592   9.369   0.826   9.441  0.9198 -0.3137  0.4217
   56MOL0     O 7593   9.441   0.903   9.355 -0.3463  1.0126 -0.1896
   56MOL0     C 7594   9.573   0.878   9.317 -0.2779 -0.5200 -0.0661
   56MOL0     C 7595   9.615   0.843   9.192  0.4331  0.1150 -0.6603
   56MOL0     C 7596   9.748   0.837   9.149 -0.2151 -1.0256  0.2264
   56MOL0     C 7597   9.848   0.880   9.239  0.1197  0.1895  0.2854
   56MOL0     O 7598   9.981   0.879   9.202 -0.3446  0.6592 -0.0790
   56MOL0     C 7599  10.022   0.884   9.066 -0.4788  0.4808  1.5541
   56MOL0     C 7600  10.055   0.738   9.012 -0.5632 -0.1786  0.2945
   56MOL0     C 7601  10.076   0.724   8.857 -0.1941  0.7821  0.0358
   56MOL0     C 7602  10.218   0.759   8.803  0.1408  0.5961 -0.1465
   56MOL0     C 7603  10.236   0.695   8.662 -0.2959  0.1068 -0.3468
   56MOL0     C 7604  10.144   0.759   8.561 -0.1417  0.3217  0.0068
   56MOL0     C 7605  10.093   0.659   8.458  0.6683 -0.2732  0.4103
   56MOL0     C 7606  10.192   0.636   8.346 -0.2892  0.8431  0.7479
   56MOL0     N 7607  10.160   0.526   8.249 -0.2445 -0.0803 -1.4965
   56MOL0     C 7608  10.246   0.458   8.174 -0.0106 -0.3019  0.8812
   56MOL0     C 7609  10.175   0.422   8.065  0.7964  1.3069 -0.3728
   56MOL0     C 7610  10.234   0.367   7.935  0.5030 -1.0482 -1.0882
   56MOL0     C 7611  10.152   0.256   7.877 -1.4208  0.6786  0.2625
   56MOL0     C 7612  10.232   0.171   7.782 -1.0664  0.4804  0.6167
   56MOL0     C 7613  10.177   0.033   7.776  0.7483  0.8476 -0.4173
   56MOL0     O 7614  10.036   0.048   7.738  0.0299  0.1699  0.4464
   56MOL0     C 7615  10.000  -0.005   7.625 -0.3821 -0.1466  0.5914
   56MOL0     C 7616   9.896  -0.088   7.628  0.5508  0.0398 -0.3283
   56MOL0     C 7617   9.847  -0.142   7.514  0.8753 -0.4605  0.6087
   56MOL0     C 7618   9.750  -0.253   7.531  0.0920  0.1089 -0.1033
   56MOL0     C 7619   9.905  -0.108   7.390  0.1817  0.3070 -0.2734
   56MOL0     C 7620   9.865  -0.169   7.262  0.2734  0.5669 -0.1881
   56MOL0     O 7621   9.855  -0.311   7.252 -0.2017 -0.4687 -0.8439
   56MOL0     C 7622   9.790  -0.361   7.144 -0.1102 -0.0167  0.7255
   56MOL0     C 7623   9.867  -0.407   7.037 -0.5038  0.2212  0.0227
   56MOL0     C 7624   9.792  -0.452   6.920 -1.2101 -0.1983 -0.3077
   56MOL0     C 7625   9.651  -0.471   6.924  0.5835  0.5874  0.3100
   56MOL0     O 7626   9.578  -0.509   6.814 -0.3162 -0.0898 -0.5543
   56MOL0     C 7627   9.598  -0.636   6.760 -0.7206  0.4445 -0.0022
   56MOL0     C 7628   9.494  -0.643   6.645  0.9182 -0.4325  0.0140
   56MOL0     C 7629   9.490  -0.522   6.545  0.1434 -0.1721  0.2654
   56MOL0     C 7630   9.614  -0.497   6.456 -0.4816  0.1774  0.6341
   56MOL0     C 7631   9.602  -0.560   6.316  0.7869 -1.2669  0.6857
   56MOL0     C 7632   9.693  -0.493   6.208  0.9207  0.2350 -0.7734
   56MOL0     C 7633   9.844  -0.468   6.236  0.9482 -0.3377  0.5495
   56MOL0     C 7634   9.927  -0.456   6.108 -0.0896 -1.3587  0.0417
   56MOL0    Cl 7635   9.902  -0.291   6.043 -0.6856  0.0358 -0.1759
   56MOL0     C 7636   9.589  -0.429   7.040 -0.3308  0.7499 -0.6857
   56MOL0     C 7637   9.654  -0.376   7.149 -0.0551  0.7520 -0.1742
   56MOL0     O 7638   9.832  -0.102   7.167  0.3490  0.3503 -0.3853
   56MOL0     C 7639  10.004  -0.018   7.385  0.1631  0.2759  0.6715
   56MOL0     C 7640  10.056   0.046   7.506  0.0833  1.2185  0.4360
   56MOL0     N 7641  10.041   0.452   8.081 -0.3457  0.8914 -1.1171
   56MOL0     N 7642  10.036   0.514   8.198 -0.4692 -0.6715 -0.1847
   56MOL0     C 7643   9.806   0.913   9.368 -0.6492 -0.3007  0.1092
   56MOL0     C 7644   9.676   0.906   9.412 -0.8037 -1.0123  0.5737
   56MOL0     C 7645   9.222   0.846   9.444  0.0522 -0.1838 -0.5931
   56MOL0     C 7646   9.174   0.932   9.345  0.8798  0.6240  0.3918
   56MOL0     C 7647   9.043   0.978   9.344  0.5442 -0.5014 -0.5326
   56MOL0     C 7648   8.958   0.936   9.444  0.9154 -0.3401  0.3387
   56MOL0     O 7649   8.832   0.991   9.452  0.2056  0.0245  0.1799
   56MOL0     C 7650   8.731   0.956   9.550 -0.1090  0.3708  0.8672
   56MOL0     C 7651   8.595   0.991   9.500 -0.6705  1.3310  0.0706
   56MOL0     C 7652   8.588   1.126   9.426  1.1414  0.5775  0.2223
   56MOL0     C 7653   8.435   1.147   9.401 -0.1340  0.4491  0.0516
   56MOL0     C 7654   8.384   1.048   9.305  0.5934 -0.7882  0.2056
   56MOL0     C 7655   8.313   0.971   9.241  0.8727  0.4713  0.2098
   56MOL0     C 7656   9.000   0.839   9.546 -0.0519 -0.1806  0.1671
   56MOL0     C 7657   9.135   0.800   9.541 -0.6706  0.1713 -0.6967
   56MOL0     C 7658   9.182   0.715   9.652  0.0658 -0.2714  0.4856
   56MOL0     H 7659   9.547   0.805   9.117 -0.4972 -0.4124  0.4084
   56MOL0     H 7660   9.786   0.796   9.056  3.0621  0.3950  0.7909
   56MOL0     H 7661  10.106   0.953   9.053 -1.3206  1.0197 -2.0366
   56MOL0     H 7662   9.943   0.934   9.010 -0.1633  0.6906  1.2963
   56MOL0     H 7663  10.129   0.693   9.078  2.0851  2.4458 -0.6835
   56MOL0     H 7664   9.961   0.682   9.024 -0.7867 -0.6217 -2.7520
   56MOL0     H 7665  10.056   0.618   8.838 -5.2683  1.0251  2.4266
   56MOL0     H 7666   9.991   0.782   8.819 -2.0138  0.7601  3.6943
   56MOL0     H 7667  10.229   0.867   8.794  2.1426  0.5593  1.3615
   56MOL0     H 7668  10.287   0.727   8.881  0.8455 -1.3669 -1.4806
   56MOL0     H 7669  10.226   0.587   8.676 -1.6186  0.5704  3.5613
   56MOL0     H 7670  10.340   0.714   8.633 -1.1202  1.5406 -2.6780
   56MOL0     H 7671  10.067   0.814   8.614  1.0970  4.3003 -1.9698
   56MOL0     H 7672  10.203   0.831   8.504 -2.6471 -0.2098 -3.5806
   56MOL0     H 7673  10.000   0.691   8.410  0.8949 -1.5227 -0.9336
   56MOL0     H 7674  10.066   0.564   8.504  0.5675  0.0449  1.0227
   56MOL0     H 7675  10.193   0.725   8.283  3.5117  2.4832  2.7885
   56MOL0     H 7676  10.296   0.623   8.376  0.1768  1.5089 -0.5161
   56MOL0     H 7677  10.354   0.468   8.171  0.1080 -1.6054 -0.2448
   56MOL0     H 7678  10.331   0.327   7.967  1.8780  1.4489 -1.8334
   56MOL0     H 7679  10.244   0.449   7.863  1.5694 -0.7893 -0.6681
   56MOL0     H 7680  10.128   0.193   7.963  1.4429  1.0343  1.4164
   56MOL0     H 7681  10.063   0.301   7.831  0.1900  1.3892 -2.3857
   56MOL0     H 7682  10.233   0.210   7.680 -2.4750 -0.1306  0.3529
   56MOL0     H 7683  10.335   0.168   7.820 -1.3430 -0.1780  1.3221
   56MOL0     H 7684  10.233  -0.019   7.698 -1.4294 -1.4527 -0.5851
   56MOL0     H 7685  10.185  -0.033   7.863  2.2127 -0.0520 -1.2029
   56MOL0     H 7686   9.855  -0.121   7.723 -1.1592  1.8132 -0.3967
   56MOL0     H 7687   9.675  -0.227   7.606  0.8937 -1.7991  1.4418
   56MOL0     H 7688   9.816  -0.336   7.559  0.5768  0.8388  0.9873
   56MOL0     H 7689   9.695  -0.286   7.442  0.2116  1.7455 -0.8225
   56MOL0     H 7690   9.975  -0.395   7.044 -0.5258  1.0741 -0.8769
   56MOL0     H 7691   9.847  -0.485   6.832  1.0597  0.5797  0.7354
   56MOL0     H 7692   9.704  -0.659   6.744 -0.8321  0.3801 -0.6842
   56MOL0     H 7693   9.573  -0.706   6.841  1.5200 -0.7628 -0.2584
   56MOL0     H 7694   9.497  -0.743   6.601 -2.8827 -0.7825  0.2056
   56MOL0     H 7695   9.398  -0.642   6.698  0.4458  0.8456 -0.8162
   56MOL0     H 7696   9.478  -0.425   6.595  1.7220  0.4033 -0.4062
   56MOL0     H 7697   9.407  -0.548   6.478 -0.2165 -0.8469  0.9468
   56MOL0     H 7698   9.706  -0.537   6.500  0.4595  0.3868 -1.0528
   56MOL0     H 7699   9.633  -0.389   6.451 -1.4466  0.3197 -0.3336
   56MOL0     H 7700   9.620  -0.668   6.326  0.3769 -1.2636  1.5089
   56MOL0     H 7701   9.502  -0.535   6.280  1.8796  0.9012 -1.0655
   56MOL0     H 7702   9.650  -0.395   6.187 -1.6843 -0.1162  2.0713
   56MOL0     H 7703   9.672  -0.539   6.111 -1.0770 -0.3438 -0.1212
   56MOL0     H 7704   9.873  -0.555   6.295  0.8532  1.3961  3.2933
   56MOL0     H 7705   9.857  -0.384   6.303  0.2890  0.1463  0.0904
   56MOL0     H 7706   9.897  -0.529   6.032  3.2980 -3.9059  0.9415
   56MOL0     H 7707  10.033  -0.470   6.127 -0.1262  2.0598  4.4930
   56MOL0     H 7708   9.481  -0.440   7.046 -0.1463 -0.6502  3.8904
   56MOL0     H 7709   9.607  -0.361   7.246  1.5402  1.3902  0.5423
   56MOL0     H 7710  10.057   0.015   7.297  0.7461 -1.3506  0.3861
   56MOL0     H 7711  10.133   0.122   7.507  3.3777 -1.7913 -0.4060
   56MOL0     H 7712   9.891   0.930   9.434 -0.9715 -0.7481  0.6405
   56MOL0     H 7713   9.656   0.951   9.509 -0.0823  1.2134 -0.2481
   56MOL0     H 7714   9.225   0.976   9.260 -1.0508  1.4667 -0.3962
   56MOL0     H 7715   9.024   1.056   9.271 -1.4197  0.0450  0.4778
   56MOL0     H 7716   8.732   0.847   9.564 -5.6264  0.1977  1.9876
   56MOL0     H 7717   8.734   1.017   9.640  0.5966  1.2189  0.2883
   56MOL0     H 7718   8.530   0.999   9.587 -0.4980  3.1504  0.0587
   56MOL0     H 7719   8.559   0.900   9.450 -0.4733 -1.6625  4.7862
   56MOL0     H 7720   8.622   1.207   9.491 -1.0507  1.1745  0.6849
   56MOL0     H 7721   8.643   1.134   9.331  1.8114 -0.4454  0.5127
   56MOL0     H 7722   8.401   1.248   9.378  1.6743  0.8716 -1.0562
   56MOL0     H 7723   8.387   1.127   9.497  2.5046  1.7346  1.7758
   56MOL0     H 7724   8.248   0.894   9.203 -0.2017  1.0493  0.8452
   56MOL0     H 7725   8.941   0.797   9.627  0.4346  1.5892  1.4934
   56MOL0     H 7726   9.230   0.626   9.608 -0.9915 -1.6472  1.9867
   56MOL0     H 7727   9.256   0.765   9.715 -0.4630 -1.5188  2.1529
   56MOL0     H 7728   9.103   0.684   9.721  0.9633 -1.1815  1.1266
   57MOL0     O 7729  11.032   0.167   9.309 -0.3151  0.3896 -0.4510
   57MOL0     C 7730  11.093   0.264   9.263  0.1764 -0.2838 -0.4845
   57MOL0     O 7731  11.060   0.395   9.279  0.2950  0.5862  0.4912
   57MOL0     C 7732  10.942   0.432   9.337  0.4130 -0.6211  0.2888
   57MOL0     C 7733  10.892   0.564   9.313  0.2059 -0.5578 -0.8052
   57MOL0     C 7734  10.775   0.619   9.377  0.3287  1.0915  0.8303
   57MOL0     C 7735  10.707   0.535   9.464 -0.2499  0.4328  0.0785
   57MOL0     O 7736  10.589   0.593   9.507  0.2120  0.2924  0.2218
   57MOL0     C 7737  10.482   0.524   9.565 -0.9690  0.1784  1.1022
   57MOL0     C 7738  10.353   0.585   9.497  1.1275 -0.1492 -0.1195
   57MOL0     C 7739  10.226   0.513   9.542  0.2919 -0.1795 -0.0833
   57MOL0     C 7740  10.098   0.586   9.483  0.4767  0.9708  0.4650
   57MOL0     C 7741   9.975   0.513   9.530 -0.3434  0.2833  0.5088
   57MOL0     C 7742   9.854   0.601   9.485  0.9410  0.6564  0.2091
   57MOL0     C 7743   9.712   0.531   9.478  0.4404 -0.5258  0.8878
   57MOL0     C 7744   9.693   0.442   9.351 -0.0325 -1.8048  0.0515
   57MOL0     N 7745   9.565   0.376   9.351  0.0071  1.4275  0.2221
   57MOL0     C 7746   9.441   0.423   9.322  0.1961  0.1838 -0.5842
   57MOL0     C 7747   9.353   0.314   9.311  0.9896 -0.6939 -0.8271
   57MOL0     C 7748   9.208   0.314   9.287 -0.8156  0.3450  0.4483
   57MOL0     C 7749   9.172   0.319   9.138 -0.0659 -0.5692  0.0980
   57MOL0     C 7750   9.195   0.454   9.074 -0.6692 -0.1523  0.1132
   57MOL0     C 7751   9.094   0.552   9.130  0.3926  0.7008 -0.0602
   57MOL0     O 7752   8.954   0.502   9.131 -0.2495  0.5152  0.9006
   57MOL0     C 7753   8.876   0.588   9.060 -0.3066  0.5209 -0.3545
   57MOL0     C 7754   8.859   0.721   9.096 -0.0498 -0.2331  0.5384
   57MOL0     C 7755   8.746   0.791   9.045 -0.3876 -0.1895 -0.8721
   57MOL0     C 7756   8.740   0.926   9.112  0.5973  0.1398 -0.2256
   57MOL0     C 7757   8.657   0.731   8.950 -1.0234  0.0223  0.8551
   57MOL0     C 7758   8.534   0.787   8.900 -1.2785 -0.3559 -0.1359
   57MOL0     O 7759   8.471   0.738   8.785 -0.7929 -1.3114 -0.2448
   57MOL0     C 7760   8.349   0.788   8.762  0.6682  0.6731  0.9140
   57MOL0     C 7761   8.240   0.748   8.834 -0.1422  0.2762 -0.0210
   57MOL0     C 7762   8.116   0.765   8.784  0.0244 -0.3630  0.4278
   57MOL0     C 7763   8.099   0.830   8.657  0.4012 -0.3304 -0.7050
   57MOL0     O 7764   7.978   0.858   8.602 -0.0439 -0.0307  0.8397
   57MOL0     C 7765   7.852   0.860   8.676  1.4144 -0.7073  0.2933
   57MOL0     C 7766   7.739   0.889   8.572 -0.1733 -0.8570 -0.1644
   57MOL0     C 7767   7.738   1.043   8.530  0.6740 -0.1943  0.2371
   57MOL0     C 7768   7.639   1.056   8.411  0.5829  0.6662  0.0572
   57MOL0     C 7769   7.498   1.052   8.461 -0.0952  0.1836 -1.0865
   57MOL0     C 7770   7.450   1.156   8.563  0.6238 -0.3676 -0.1629
   57MOL0     C 7771   7.463   1.299   8.504  0.2809 -0.3504 -0.2380
   57MOL0     C 7772   7.338   1.381   8.541  1.2539 -0.3323  0.4739
   57MOL0    Cl 7773   7.304   1.400   8.712 -0.0869  0.4593 -0.3729
   57MOL0     C 7774   8.212   0.882   8.587 -0.2115  0.2604 -0.5149
   57MOL0     C 7775   8.339   0.857   8.640 -0.1625  0.6985  1.3649
   57MOL0     O 7776   8.501   0.885   8.965  0.6098 -0.6908  0.3628
   57MOL0     C 7777   8.687   0.592   8.921  0.9609 -1.0763  0.4640
   57MOL0     C 7778   8.794   0.527   8.975 -0.0536 -0.7475 -0.1493
   57MOL0     N 7779   9.435   0.202   9.338 -0.8413 -0.1213 -0.0643
   57MOL0     N 7780   9.551   0.244   9.380 -0.4812  0.4346  0.6286
   57MOL0     C 7781  10.750   0.409   9.489  0.4144 -0.6941 -0.3806
   57MOL0     C 7782  10.868   0.362   9.437 -0.6693 -0.2811  0.3250
   57MOL0     C 7783  11.227   0.250   9.201  0.1534  0.0914  0.9169
   57MOL0     C 7784  11.322   0.354   9.215  1.0262 -0.1371  0.5705
   57MOL0     C 7785  11.447   0.343   9.156  1.2619 -0.1326 -0.3654
   57MOL0     C 7786  11.476   0.237   9.069  0.1758 -0.2663 -0.9777
   57MOL0     O 7787  11.581   0.231   8.991 -0.9253 -0.3339  0.2969
   57MOL0     C 7788  11.701   0.301   9.014  0.0394  1.1384  0.8582
   57MOL0     C 7789  11.795   0.273   8.910 -0.3159 -0.7392  0.1274
   57MOL0     C 7790  11.931   0.340   8.932 -0.4032 -0.1109  0.7209
   57MOL0     C 7791  12.034   0.334   8.827 -0.5173 -0.0646  0.3938
   57MOL0     C 7792  12.093   0.199   8.819  0.0533 -0.2128  0.2128
   57MOL0     C 7793  12.148   0.093   8.798 -0.3799  0.1164  0.0628
   57MOL0     C 7794  11.376   0.147   9.036 -0.1207 -0.7804  0.3029
   57MOL0     C 7795  11.258   0.149   9.105 -0.8669 -0.8262 -1.0463
   57MOL0     C 7796  11.167   0.041   9.061 -0.4716  0.2379 -0.2657
   57MOL0     H 7797  10.939   0.628   9.239 -1.9087 -1.6091 -3.2113
   57MOL0     H 7798  10.753   0.724   9.359 -1.4767  0.4519 -1.1213
   57MOL0     H 7799  10.479   0.538   9.674  1.1491  1.6783  1.0304
   57MOL0     H 7800  10.494   0.416   9.552  1.6917  0.5913 -0.7989
   57MOL0     H 7801  10.355   0.681   9.551  2.5285 -0.6994  0.8721
   57MOL0     H 7802  10.351   0.602   9.389  0.3795 -0.4279 -0.1492
   57MOL0     H 7803  10.231   0.412   9.502  1.2519 -0.8477  1.6404
   57MOL0     H 7804  10.225   0.516   9.651 -0.8269  1.5363 -0.1057
   57MOL0     H 7805  10.115   0.690   9.513 -2.0009  1.4801  0.2825
   57MOL0     H 7806  10.100   0.583   9.374  1.1657 -1.0983  0.4902
   57MOL0     H 7807   9.979   0.499   9.638  1.2048 -2.0349  0.2056
   57MOL0     H 7808   9.982   0.421   9.472 -1.7591  0.5020 -0.0534
   57MOL0     H 7809   9.848   0.685   9.555 -3.1561 -1.8243  3.3284
   57MOL0     H 7810   9.866   0.631   9.381 -0.7912  0.8818  0.0382
   57MOL0     H 7811   9.640   0.612   9.467 -0.5657 -1.2289  1.9529
   57MOL0     H 7812   9.694   0.475   9.571 -2.1606  2.8629  2.6535
   57MOL0     H 7813   9.703   0.501   9.259  3.1575  0.6609  1.7729
   57MOL0     H 7814   9.772   0.365   9.354  1.1113 -0.7560  4.6167
   57MOL0     H 7815   9.407   0.525   9.309  1.4702  1.0104  1.8303
   57MOL0     H 7816   9.162   0.394   9.344 -1.2875  2.0819 -2.1797
   57MOL0     H 7817   9.157   0.223   9.321  1.3956 -2.6819 -3.3728
   57MOL0     H 7818   9.242   0.252   9.087  0.3206  0.0965 -0.2480
   57MOL0     H 7819   9.072   0.286   9.108 -1.7790  2.6397  1.7715
   57MOL0     H 7820   9.290   0.507   9.068 -0.8756  0.4328  1.6571
   57MOL0     H 7821   9.168   0.442   8.969  3.3600 -2.3020 -0.9013
   57MOL0     H 7822   9.122   0.577   9.233  0.4334  1.4373 -0.2488
   57MOL0     H 7823   9.102   0.645   9.074  0.8103  0.8510  0.2385
   57MOL0     H 7824   8.932   0.776   9.154  0.5616  1.9783 -2.0988
   57MOL0     H 7825   8.712   0.997   9.035 -1.2729 -0.6459 -0.3089
   57MOL0     H 7826   8.832   0.954   9.165 -0.1137 -2.6563  2.8825
   57MOL0     H 7827   8.665   0.931   9.192  1.5717 -2.4146  0.9673
   57MOL0     H 7828   8.249   0.714   8.937 -3.6164  0.0481  0.3178
   57MOL0     H 7829   8.028   0.739   8.841 -1.1197  1.0151 -0.6224
   57MOL0     H 7830   7.837   0.756   8.708  1.4693 -1.9920 -3.4118
   57MOL0     H 7831   7.849   0.925   8.764 -0.1964 -0.2162 -0.0884
   57MOL0     H 7832   7.774   0.834   8.485 -0.9390  0.5635 -1.4090
   57MOL0     H 7833   7.639   0.862   8.606 -1.6393  0.9811 -2.6592
   57MOL0     H 7834   7.836   1.080   8.501 -0.9668  0.3131 -5.8938
   57MOL0     H 7835   7.711   1.105   8.617 -1.6423  2.7835 -2.3716
   57MOL0     H 7836   7.647   0.969   8.345 -1.9828  0.7919 -0.5391
   57MOL0     H 7837   7.652   1.151   8.360  0.0173 -0.2203 -1.8124
   57MOL0     H 7838   7.436   1.062   8.372 -0.3022 -1.7411 -1.2183
   57MOL0     H 7839   7.477   0.954   8.506  1.9335 -0.5983 -1.7081
   57MOL0     H 7840   7.505   1.140   8.656  0.6765  0.4317 -0.0537
   57MOL0     H 7841   7.344   1.140   8.586  0.1669 -2.6562 -3.1455
   57MOL0     H 7842   7.474   1.298   8.395  1.7889 -3.0681 -0.1530
   57MOL0     H 7843   7.552   1.341   8.552 -1.3224  1.0025  1.7378
   57MOL0     H 7844   7.253   1.335   8.489  0.1162 -1.5314  3.2328
   57MOL0     H 7845   7.343   1.484   8.504 -0.0988  0.8594  3.3156
   57MOL0     H 7846   8.196   0.943   8.499 -0.5020  2.5610  1.0523
   57MOL0     H 7847   8.418   0.895   8.576 -0.2474  0.9341  1.3984
   57MOL0     H 7848   8.617   0.539   8.856 -0.0976  1.6073 -0.7118
   57MOL0     H 7849   8.809   0.423   8.950  1.1890 -0.9019  1.1516
   57MOL0     H 7850  10.694   0.351   9.562 -0.7937  0.6939 -0.1760
   57MOL0     H 7851  10.900   0.263   9.470  0.1815 -0.7927 -1.8642
   57MOL0     H 7852  11.311   0.434   9.288  1.0833  0.7176 -0.3475
   57MOL0     H 7853  11.519   0.422   9.174  0.2235  0.9968 -1.0275
   57MOL0     H 7854  11.681   0.408   9.012  5.7299  2.4959 -0.5827
   57MOL0     H 7855  11.740   0.279   9.114 -0.4052  3.5250  1.6054
   57MOL0     H 7856  11.763   0.313   8.814  2.1066 -0.2234 -0.5318
   57MOL0     H 7857  11.807   0.167   8.883 -0.3228 -0.3825 -1.3890
   57MOL0     H 7858  11.908   0.447   8.933  0.5082  0.2557 -3.2791
   57MOL0     H 7859  11.976   0.317   9.029  2.0131 -1.7427 -0.6856
   57MOL0     H 7860  12.109   0.412   8.842 -2.5705  1.9934  0.6846
   57MOL0     H 7861  11.990   0.356   8.729  1.2192  1.3942 -0.1070
   57MOL0     H 7862  12.190  -0.004   8.782 -0.2933  0.6626 -4.0630
   57MOL0     H 7863  11.395   0.069   8.964 -1.8262 -1.4672  0.5562
   57MOL0     H 7864  11.082   0.068   8.998 -2.3421 -1.2993  1.4558
   57MOL0     H 7865  11.232  -0.037   9.021  1.3684  0.3129  2.3117
   57MOL0     H 7866  11.127  -0.005   9.152  1.0868 -0.3974  0.1339
   58MOL0     O 7867   8.156   5.373   0.892  0.2909  0.0560 -0.4581
   58MOL0     C 7868   8.269   5.383   0.924  0.5379  0.6366 -0.6759
   58MOL0     O 7869   8.352   5.479   0.885 -0.9353  0.8246 -0.4070
   58MOL0     C 7870   8.302   5.572   0.799  0.6764  0.4709 -0.7655
   58MOL0     C 7871   8.384   5.611   0.694 -1.0436 -0.4132 -0.6889
   58MOL0     C 7872   8.354   5.732   0.627  0.6961  0.9180  0.0954
   58MOL0     C 7873   8.240   5.805   0.647 -0.8232  1.3859  0.0072
   58MOL0     O 7874   8.210   5.910   0.560 -0.0622  0.0964  0.4810
   58MOL0     C 7875   8.138   5.876   0.440 -0.2707  0.5593  0.6025
   58MOL0     C 7876   7.991   5.817   0.469  0.5991  0.2585 -0.6188
   58MOL0     C 7877   7.893   5.817   0.351 -0.3428  0.7547  0.7118
   58MOL0     C 7878   7.940   5.741   0.232 -0.1791 -0.0390 -0.1027
   58MOL0     C 7879   7.839   5.747   0.119 -0.1522  0.1635  0.0934
   58MOL0     C 7880   7.836   5.627   0.021 -1.0092 -0.2153 -0.0959
   58MOL0     C 7881   7.971   5.585  -0.031  0.4209  0.3831  1.5649
   58MOL0     C 7882   7.947   5.450  -0.118 -0.0317  0.1026 -0.1345
   58MOL0     N 7883   7.850   5.460  -0.226 -0.6232  0.2160 -0.1898
   58MOL0     C 7884   7.776   5.349  -0.263  0.1365  0.1529 -0.0887
   58MOL0     C 7885   7.691   5.392  -0.354 -0.1099 -0.0094  0.2757
   58MOL0     C 7886   7.584   5.303  -0.419 -0.7813 -0.1292  0.3001
   58MOL0     C 7887   7.643   5.209  -0.528  0.6468  1.3295  0.5096
   58MOL0     C 7888   7.544   5.103  -0.580 -0.1526  0.5685  0.3936
   58MOL0     C 7889   7.522   4.987  -0.475  0.6816  0.5178  0.5122
   58MOL0     O 7890   7.630   4.936  -0.401 -0.1544 -0.6760 -0.7962
   58MOL0     C 7891   7.619   4.924  -0.269 -1.6857  0.1937  0.1037
   58MOL0     C 7892   7.495   4.874  -0.211  0.3275 -0.3901  0.4817
   58MOL0     C 7893   7.482   4.848  -0.072 -0.8957 -0.8883 -0.3823
   58MOL0     C 7894   7.360   4.779  -0.036  0.2313  0.3916  0.9728
   58MOL0     C 7895   7.587   4.884   0.012 -0.0251 -0.3089 -1.4707
   58MOL0     C 7896   7.598   4.860   0.163 -0.6610  0.6116 -0.8237
   58MOL0     O 7897   7.516   4.759   0.207  0.6720  0.3072 -0.0206
   58MOL0     C 7898   7.525   4.721   0.345  1.0030 -1.0301 -0.1172
   58MOL0     C 7899   7.635   4.644   0.403 -0.1688  0.0111 -0.0506
   58MOL0     C 7900   7.635   4.610   0.532 -0.1480 -0.2091 -0.2990
   58MOL0     C 7901   7.526   4.647   0.619 -0.1442  0.0121 -0.0780
   58MOL0     O 7902   7.523   4.594   0.748  0.8250 -1.3090 -0.0328
   58MOL0     C 7903   7.636   4.602   0.831 -0.2060 -0.3836  0.6965
   58MOL0     C 7904   7.661   4.750   0.873 -0.2699  0.4839 -0.1572
   58MOL0     C 7905   7.554   4.804   0.964  0.3774  0.2014  0.5939
   58MOL0     C 7906   7.614   4.934   1.027 -0.8297 -1.0297 -0.2530
   58MOL0     C 7907   7.512   4.980   1.125  0.0280 -0.5968 -0.8432
   58MOL0     C 7908   7.552   5.113   1.186 -0.6647 -0.1333 -0.2732
   58MOL0     C 7909   7.482   5.143   1.320  0.3939  0.1546  0.2875
   58MOL0     C 7910   7.338   5.190   1.290  0.5620 -0.5461 -0.3418
   58MOL0    Cl 7911   7.223   5.057   1.285 -0.4839  0.3650 -0.1336
   58MOL0     C 7912   7.414   4.714   0.569  0.0675 -0.0927  0.6837
   58MOL0     C 7913   7.416   4.745   0.435 -0.1708 -0.3413  0.7843
   58MOL0     O 7914   7.678   4.924   0.232 -0.0004  0.6367  0.0052
   58MOL0     C 7915   7.704   4.952  -0.045  0.5107 -0.6196  0.0203
   58MOL0     C 7916   7.722   4.966  -0.185  0.0208  0.5674  0.8804
   58MOL0     N 7917   7.702   5.532  -0.362 -0.3165 -0.5020  0.2549
   58MOL0     N 7918   7.797   5.567  -0.281  0.1001 -0.0897 -0.4876
   58MOL0     C 7919   8.156   5.772   0.754 -0.8284 -0.1981  0.1330
   58MOL0     C 7920   8.185   5.661   0.827 -0.4823  0.8499 -0.0853
   58MOL0     C 7921   8.309   5.277   1.029 -0.6196 -0.2898  0.9046
   58MOL0     C 7922   8.423   5.298   1.101 -0.3550 -0.0457 -0.3911
   58MOL0     C 7923   8.485   5.210   1.184 -0.4335  0.1048  0.8659
   58MOL0     C 7924   8.423   5.087   1.203 -0.2921 -0.1928  0.3858
   58MOL0     O 7925   8.460   4.990   1.297 -0.2625 -0.0690 -0.2350
   58MOL0     C 7926   8.539   5.046   1.400  0.1072 -0.0969 -0.0574
   58MOL0     C 7927   8.594   4.930   1.488  0.6494  0.6326  0.6902
   58MOL0     C 7928   8.711   4.967   1.580 -0.0573 -0.0722  0.2577
   58MOL0     C 7929   8.782   4.842   1.644  0.5176  0.0342  0.1373
   58MOL0     C 7930   8.696   4.723   1.680 -0.0866  0.4068  0.0412
   58MOL0     C 7931   8.625   4.628   1.714 -0.7171 -0.1933  0.8183
   58MOL0     C 7932   8.306   5.061   1.130 -0.0767 -0.2354 -0.3140
   58MOL0     C 7933   8.249   5.149   1.045 -0.4071  0.1998 -0.0877
   58MOL0     C 7934   8.138   5.095   0.971  0.0430 -0.8981  0.5672
   58MOL0     H 7935   8.464   5.544   0.662  0.1497 -0.8946  2.8513
   58MOL0     H 7936   8.420   5.765   0.547  0.0805  2.1342  0.0590
   58MOL0     H 7937   8.197   5.795   0.395 -1.9083 -1.2441  1.5059
   58MOL0     H 7938   8.136   5.969   0.383 -1.7823  0.1241 -0.0975
   58MOL0     H 7939   8.007   5.715   0.507  1.8228  0.6137 -0.1323
   58MOL0     H 7940   7.947   5.887   0.540 -2.7558  1.6280 -3.7174
   58MOL0     H 7941   7.797   5.776   0.382 -0.8523 -0.5912 -2.2422
   58MOL0     H 7942   7.874   5.920   0.317  1.1099  0.6931 -0.4074
   58MOL0     H 7943   8.034   5.782   0.195  0.3584  0.2342  1.4953
   58MOL0     H 7944   7.957   5.635   0.255  0.5508  0.5249  2.2015
   58MOL0     H 7945   7.865   5.832   0.055  2.5698 -0.6399  0.0259
   58MOL0     H 7946   7.737   5.769   0.152 -1.2020  1.6104 -3.6691
   58MOL0     H 7947   7.787   5.546   0.075  2.1343 -2.2857 -0.0437
   58MOL0     H 7948   7.762   5.646  -0.057 -2.2294 -0.7466  0.9137
   58MOL0     H 7949   8.050   5.563   0.042  0.6903 -2.5510  0.5329
   58MOL0     H 7950   8.012   5.660  -0.099  0.8277 -1.8800 -0.8394
   58MOL0     H 7951   8.046   5.426  -0.159 -0.1820  2.0555 -1.7908
   58MOL0     H 7952   7.908   5.373  -0.051  0.9041 -0.4805 -0.2404
   58MOL0     H 7953   7.790   5.246  -0.233 -0.4491  0.0369 -0.2092
   58MOL0     H 7954   7.520   5.374  -0.472  1.2945  1.6917  0.0399
   58MOL0     H 7955   7.531   5.248  -0.341 -1.0935  2.4126  2.0102
   58MOL0     H 7956   7.672   5.281  -0.605  0.0552  0.7568 -0.2633
   58MOL0     H 7957   7.726   5.150  -0.490  1.6640  2.2175 -0.2698
   58MOL0     H 7958   7.451   5.152  -0.608 -1.3223 -1.4789  0.4777
   58MOL0     H 7959   7.586   5.051  -0.667 -1.7094  0.9085 -0.6005
   58MOL0     H 7960   7.442   5.024  -0.411  0.7499  0.0725  0.8673
   58MOL0     H 7961   7.470   4.908  -0.530 -1.2201  2.1891 -0.1887
   58MOL0     H 7962   7.425   4.844  -0.289 -1.7253 -0.6348  2.3394
   58MOL0     H 7963   7.308   4.751  -0.129 -1.6098  1.6161  1.5779
   58MOL0     H 7964   7.294   4.834   0.031 -1.5834  0.5905 -0.8717
   58MOL0     H 7965   7.401   4.685   0.002  0.9631 -0.8319 -2.4180
   58MOL0     H 7966   7.718   4.628   0.334 -1.5078  1.8330 -2.2155
   58MOL0     H 7967   7.720   4.555   0.570 -0.0768  0.7690  1.0043
   58MOL0     H 7968   7.619   4.533   0.914  0.8736  0.8201  1.9408
   58MOL0     H 7969   7.721   4.558   0.778 -1.7231  0.2422 -2.5785
   58MOL0     H 7970   7.758   4.758   0.924 -0.2775  0.5911 -0.1576
   58MOL0     H 7971   7.664   4.818   0.787  1.2917  0.1028 -0.4407
   58MOL0     H 7972   7.523   4.728   1.036  0.4555 -0.9870 -0.5741
   58MOL0     H 7973   7.456   4.819   0.916  0.1377 -0.4708  0.8498
   58MOL0     H 7974   7.646   5.003   0.948 -1.0526 -0.7314 -0.0834
   58MOL0     H 7975   7.709   4.915   1.077  1.3460  2.6752 -2.5576
   58MOL0     H 7976   7.405   4.986   1.104 -1.0043 -0.9618  3.4237
   58MOL0     H 7977   7.517   4.910   1.209  0.8506  1.0060  0.5259
   58MOL0     H 7978   7.548   5.193   1.112  2.2202  3.3984  2.9538
   58MOL0     H 7979   7.660   5.123   1.201 -0.7619  1.4746 -0.4339
   58MOL0     H 7980   7.538   5.225   1.365 -2.8269  3.3060 -0.9418
   58MOL0     H 7981   7.477   5.058   1.387 -0.9060  0.4937  0.6481
   58MOL0     H 7982   7.343   5.257   1.204  0.7050  1.9399  1.4997
   58MOL0     H 7983   7.300   5.256   1.369  2.1876 -0.2307  0.2027
   58MOL0     H 7984   7.319   4.722   0.620 -0.1721  3.2809 -0.0821
   58MOL0     H 7985   7.327   4.798   0.403  0.0954  0.6052  1.5554
   58MOL0     H 7986   7.800   4.960   0.007 -0.6345 -0.4857  2.2395
   58MOL0     H 7987   7.815   4.999  -0.230 -0.6495  2.8752  1.0162
   58MOL0     H 7988   8.074   5.833   0.790 -0.5326  2.5512 -3.3226
   58MOL0     H 7989   8.111   5.639   0.903 -1.8125  1.6571 -1.0919
   58MOL0     H 7990   8.477   5.387   1.070 -0.8336  0.3056 -0.2288
   58MOL0     H 7991   8.587   5.229   1.216  0.6245 -2.3484 -0.7851
   58MOL0     H 7992   8.624   5.102   1.358 -0.9229  1.3875 -0.2357
   58MOL0     H 7993   8.495   5.121   1.467  1.0569 -0.3509  0.8744
   58MOL0     H 7994   8.624   4.849   1.421 -4.0544 -3.0580  2.5087
   58MOL0     H 7995   8.519   4.873   1.543 -0.2934 -0.8062 -1.8816
   58MOL0     H 7996   8.789   5.009   1.516 -1.4191  0.9521 -0.7740
   58MOL0     H 7997   8.682   5.046   1.649 -2.4811  1.1632 -1.9985
   58MOL0     H 7998   8.831   4.875   1.736  2.0187  0.9739 -0.9516
   58MOL0     H 7999   8.862   4.802   1.581  1.8440  0.1718  1.6675
   58MOL0     H 8000   8.561   4.554   1.758  0.0406  0.1772  2.6150
   58MOL0     H 8001   8.272   4.959   1.138 -2.6830  0.3776 -2.3290
   58MOL0     H 8002   8.046   5.151   0.988  0.8915 -0.1862  3.3353
   58MOL0     H 8003   8.171   5.126   0.872  2.4331 -1.4653  1.1238
   58MOL0     H 8004   8.125   4.986   0.978  2.3858 -1.3415 -0.8492
   59MOL0     O 8005   1.898   4.033   7.247 -0.1890 -0.2605  0.3995
   59MOL0     C 8006   2.011   4.060   7.216 -0.1206 -0.6524 -0.5837
   59MOL0     O 8007   2.095   3.972   7.158  0.0428  0.2807  0.2602
   59MOL0     C 8008   2.051   3.869   7.079  0.7394  1.4366  0.5239
   59MOL0     C 8009   1.921   3.856   7.008 -0.6289 -1.5263 -0.8966
   59MOL0     C 8010   1.896   3.749   6.933 -0.0124  0.0851  0.1389
   59MOL0     C 8011   1.992   3.641   6.917  1.3173  0.3433  0.5243
   59MOL0     O 8012   1.950   3.533   6.834 -1.0128  0.3124 -0.3070
   59MOL0     C 8013   1.953   3.419   6.918  0.2197  0.8161  0.2410
   59MOL0     C 8014   1.883   3.294   6.864 -0.8248 -0.1492  0.3007
   59MOL0     C 8015   1.949   3.244   6.734 -0.3834  0.5350  0.7480
   59MOL0     C 8016   1.882   3.131   6.655 -0.3085  0.9394 -0.5112
   59MOL0     C 8017   1.971   3.056   6.548 -0.1942  0.7743 -0.4044
   59MOL0     C 8018   1.874   2.987   6.453 -1.3494 -0.7000  0.4597
   59MOL0     C 8019   1.946   2.922   6.332  0.2463 -0.0290  1.3246
   59MOL0     C 8020   1.983   3.029   6.226 -0.7635  0.4037  0.1614
   59MOL0     N 8021   1.883   3.132   6.208 -0.5763 -0.1927 -0.5367
   59MOL0     C 8022   1.902   3.261   6.235  0.4412 -0.9622 -0.0188
   59MOL0     C 8023   1.793   3.325   6.195 -0.7735 -0.8533  0.7557
   59MOL0     C 8024   1.750   3.464   6.232 -0.1225  0.3295  0.0677
   59MOL0     C 8025   1.666   3.461   6.360  0.2890 -0.1726 -0.0641
   59MOL0     C 8026   1.697   3.553   6.481  0.1472  0.0096 -1.2482
   59MOL0     C 8027   1.719   3.703   6.448 -0.5339 -0.3875  0.0571
   59MOL0     O 8028   1.709   3.771   6.570  0.0588 -0.3116 -0.0684
   59MOL0     C 8029   1.715   3.910   6.578 -0.1098 -0.0276  0.5991
   59MOL0     C 8030   1.695   3.968   6.699  0.7460  0.6535 -0.6168
   59MOL0     C 8031   1.709   4.105   6.720 -0.4977 -0.4515 -0.0752
   59MOL0     C 8032   1.693   4.162   6.857  0.1134  0.0970 -0.2930
   59MOL0     C 8033   1.722   4.191   6.608  0.4493 -0.2194 -0.5735
   59MOL0     C 8034   1.713   4.340   6.606 -0.4721 -0.1938 -1.1089
   59MOL0     O 8035   1.708   4.390   6.489 -0.1469 -0.5273 -0.2355
   59MOL0     C 8036   1.678   4.523   6.475 -0.2195  0.3808 -0.1917
   59MOL0     C 8037   1.777   4.621   6.487 -0.6808  0.8535  0.2310
   59MOL0     C 8038   1.754   4.760   6.460  0.3941  0.0761  0.1812
   59MOL0     C 8039   1.625   4.798   6.437 -0.7446 -0.0680  0.0536
   59MOL0     O 8040   1.601   4.926   6.393  0.4551  0.4952 -0.3029
   59MOL0     C 8041   1.473   4.977   6.369  0.1060  0.3841  0.0032
   59MOL0     C 8042   1.477   5.133   6.397 -0.4458 -0.2181 -0.5210
   59MOL0     C 8043   1.466   5.152   6.554 -0.5142  0.1296  0.5992
   59MOL0     C 8044   1.386   5.281   6.586  0.1253  0.4761  0.4869
   59MOL0     C 8045   1.380   5.326   6.733 -0.7360 -0.8133  0.1146
   59MOL0     C 8046   1.515   5.373   6.783  0.7290 -0.8333 -0.1165
   59MOL0     C 8047   1.495   5.401   6.933 -0.5882 -0.1087  0.4783
   59MOL0     C 8048   1.614   5.441   7.021 -1.1822  0.2896 -0.7508
   59MOL0    Cl 8049   1.697   5.571   6.933  0.4705  0.0862  0.0474
   59MOL0     C 8050   1.521   4.706   6.434 -0.7052  0.5521  0.5793
   59MOL0     C 8051   1.553   4.574   6.441  0.3406  0.3315 -0.3681
   59MOL0     O 8052   1.671   4.401   6.716  0.1228 -0.6165  0.1211
   59MOL0     C 8053   1.738   4.131   6.482 -0.3393 -0.5400  0.0359
   59MOL0     C 8054   1.732   3.995   6.471  0.6141 -0.1481 -0.5993
   59MOL0     N 8055   1.724   3.230   6.131 -0.5621 -0.5026 -0.1972
   59MOL0     N 8056   1.782   3.116   6.126  0.1405 -0.0785 -0.2861
   59MOL0     C 8057   2.117   3.647   6.982 -0.0250  0.1536  0.2300
   59MOL0     C 8058   2.143   3.762   7.070  0.8275  0.5870 -0.6009
   59MOL0     C 8059   2.063   4.195   7.250 -0.0008  0.2606  0.4554
   59MOL0     C 8060   2.203   4.208   7.255  0.4338 -0.5758  0.7400
   59MOL0     C 8061   2.253   4.339   7.259 -0.6165 -0.0300 -0.4151
   59MOL0     C 8062   2.181   4.453   7.267 -0.0452 -0.0121 -0.1189
   59MOL0     O 8063   2.236   4.579   7.278 -0.3215  0.2553 -0.8845
   59MOL0     C 8064   2.177   4.674   7.200  0.8121 -0.8291 -0.3260
   59MOL0     C 8065   2.288   4.776   7.154  0.7573 -0.7348  0.2996
   59MOL0     C 8066   2.355   4.857   7.260  0.0685 -0.1030  0.7761
   59MOL0     C 8067   2.272   4.964   7.344  0.1525  0.2067 -0.4458
   59MOL0     C 8068   2.374   5.055   7.390  0.4784  0.2914 -0.0063
   59MOL0     C 8069   2.457   5.132   7.429  0.2388  0.6531 -0.2353
   59MOL0     C 8070   2.049   4.434   7.276 -0.7734 -0.3980  0.9842
   59MOL0     C 8071   1.984   4.315   7.249 -0.8515 -0.3306  0.8947
   59MOL0     C 8072   1.838   4.308   7.233 -0.3950 -0.4597 -0.2958
   59MOL0     H 8073   1.848   3.936   7.015  0.7958  0.2985 -4.5140
   59MOL0     H 8074   1.800   3.745   6.884 -0.4593  2.7082  0.6673
   59MOL0     H 8075   1.909   3.445   7.015 -2.5579 -0.1681 -0.6599
   59MOL0     H 8076   2.056   3.386   6.934  0.1639  0.5897  0.1335
   59MOL0     H 8077   1.880   3.231   6.954 -1.1375  1.1086  1.2010
   59MOL0     H 8078   1.779   3.310   6.835 -0.6730 -0.4091 -0.4035
   59MOL0     H 8079   1.968   3.328   6.666  0.8030 -0.2825  0.0310
   59MOL0     H 8080   2.049   3.204   6.753 -0.4277  0.9109  1.8693
   59MOL0     H 8081   1.858   3.055   6.730  0.7234  2.7040  1.7492
   59MOL0     H 8082   1.794   3.162   6.598  0.0879 -1.0674 -2.3537
   59MOL0     H 8083   2.030   2.973   6.590  0.3892 -0.0387 -2.6896
   59MOL0     H 8084   2.047   3.121   6.503  1.8616 -0.8162  0.5713
   59MOL0     H 8085   1.831   2.905   6.511 -3.6033  0.0370 -0.0472
   59MOL0     H 8086   1.785   3.046   6.426 -2.2649 -2.0344  0.4793
   59MOL0     H 8087   1.881   2.848   6.285  2.4817 -0.2557 -1.7142
   59MOL0     H 8088   2.037   2.869   6.362 -0.7135 -2.8123 -0.2883
   59MOL0     H 8089   2.070   3.087   6.259  0.1359 -1.4333  1.1482
   59MOL0     H 8090   2.008   2.986   6.129 -1.2695 -0.8735  0.5756
   59MOL0     H 8091   1.970   3.305   6.308 -2.5611  4.1733  0.1571
   59MOL0     H 8092   1.679   3.494   6.153  1.1814 -0.3909 -1.4258
   59MOL0     H 8093   1.827   3.542   6.227  1.3498 -1.1633 -1.8469
   59MOL0     H 8094   1.562   3.490   6.339  0.5438  1.0343  0.2821
   59MOL0     H 8095   1.656   3.357   6.393  0.4018  0.2627  1.4062
   59MOL0     H 8096   1.622   3.532   6.557  1.0230 -1.8851 -0.8495
   59MOL0     H 8097   1.781   3.500   6.528  0.8171  1.0600 -1.2362
   59MOL0     H 8098   1.816   3.717   6.399 -0.4188  0.5435  0.5335
   59MOL0     H 8099   1.639   3.737   6.382 -0.4821  1.6120  0.9523
   59MOL0     H 8100   1.676   3.913   6.791  1.5243  2.3112  0.5829
   59MOL0     H 8101   1.780   4.227   6.874  0.2862  0.2214 -1.5967
   59MOL0     H 8102   1.706   4.087   6.936 -0.6592  2.7295  2.5331
   59MOL0     H 8103   1.599   4.211   6.883 -3.1160 -5.2223 -0.5178
   59MOL0     H 8104   1.880   4.592   6.505 -1.2993 -1.2456  0.6295
   59MOL0     H 8105   1.827   4.840   6.460  1.0989 -0.5424 -1.3070
   59MOL0     H 8106   1.447   4.967   6.263  2.5801  2.5841 -0.9180
   59MOL0     H 8107   1.391   4.933   6.427  0.6181 -0.4573  0.1114
   59MOL0     H 8108   1.572   5.164   6.353 -1.8356  0.0467 -3.5058
   59MOL0     H 8109   1.384   5.170   6.354 -1.7451 -0.9153  1.5196
   59MOL0     H 8110   1.564   5.155   6.602 -1.1224  0.0603  1.8895
   59MOL0     H 8111   1.411   5.063   6.587  0.7926 -0.0233  2.4929
   59MOL0     H 8112   1.283   5.268   6.552 -0.3542 -1.8670  2.5701
   59MOL0     H 8113   1.432   5.368   6.538 -0.7056  1.7844  1.9849
   59MOL0     H 8114   1.311   5.410   6.742  0.7207  0.3527  0.7223
   59MOL0     H 8115   1.336   5.244   6.792 -2.2386 -0.5834 -0.6275
   59MOL0     H 8116   1.536   5.469   6.737 -0.4918 -1.5387 -2.2822
   59MOL0     H 8117   1.589   5.293   6.771  0.1385 -0.9565 -4.5933
   59MOL0     H 8118   1.458   5.304   6.968 -1.6490  0.5284  1.1974
   59MOL0     H 8119   1.414   5.474   6.946 -1.4756 -1.1984  1.2201
   59MOL0     H 8120   1.679   5.355   7.044  0.2403  1.3761 -0.5719
   59MOL0     H 8121   1.578   5.492   7.111  2.2238 -0.0778  1.0016
   59MOL0     H 8122   1.416   4.729   6.419 -0.6003  1.8797  1.6548
   59MOL0     H 8123   1.468   4.510   6.420  0.4129  0.1331 -0.0573
   59MOL0     H 8124   1.741   4.186   6.389 -1.3918 -0.7802 -0.1590
   59MOL0     H 8125   1.740   3.954   6.371 -3.8859 -1.0718 -0.7646
   59MOL0     H 8126   2.201   3.585   6.954 -0.6106  0.8356 -3.5823
   59MOL0     H 8127   2.234   3.751   7.129 -1.6720 -1.1754  3.3112
   59MOL0     H 8128   2.270   4.123   7.250 -0.0597 -0.9380  0.1103
   59MOL0     H 8129   2.359   4.361   7.252 -0.6044 -0.2406 -1.0172
   59MOL0     H 8130   2.132   4.632   7.110 -1.0595  2.6264 -1.1876
   59MOL0     H 8131   2.101   4.729   7.256  1.7626 -1.2194  1.4168
   59MOL0     H 8132   2.249   4.830   7.067  2.5295 -3.1409 -2.1623
   59MOL0     H 8133   2.372   4.719   7.114 -0.7234 -1.4324 -1.9986
   59MOL0     H 8134   2.404   4.784   7.325  0.5464 -1.0167 -0.5726
   59MOL0     H 8135   2.436   4.902   7.203  1.0082 -4.2646 -1.6122
   59MOL0     H 8136   2.207   4.919   7.419 -2.2120 -0.2341 -2.6121
   59MOL0     H 8137   2.208   5.015   7.272  0.3257 -1.0055 -1.4971
   59MOL0     H 8138   2.520   5.211   7.466 -0.7035  0.8965  0.9020
   59MOL0     H 8139   1.991   4.525   7.280  2.0228  1.6059 -0.3229
   59MOL0     H 8140   1.811   4.252   7.143  1.0384  0.0900 -1.1032
   59MOL0     H 8141   1.804   4.275   7.331  1.6891 -0.0263  0.6285
   59MOL0     H 8142   1.786   4.402   7.219 -0.7828 -0.9358 -2.5019
   60MOL0     O 8143   7.494  10.472   6.771  0.5060 -0.2110  0.5171
   60MOL0     C 8144   7.467  10.591   6.770 -0.6121 -0.8047 -0.1923
   60MOL0     O 8145   7.347  10.650   6.729 -0.7911  0.3050  0.3672
   60MOL0     C 8146   7.243  10.556   6.708 -0.0932 -0.6959  0.5729
   60MOL0     C 8147   7.113  10.600   6.737 -0.3972 -0.4509 -0.9577
   60MOL0     C 8148   7.002  10.521   6.702 -0.5763  0.8561 -0.7998
   60MOL0     C 8149   7.016  10.390   6.645  0.3176  0.8233  0.2263
   60MOL0     O 8150   6.916  10.303   6.625 -0.0925 -0.1167 -0.2083
   60MOL0     C 8151   6.777  10.342   6.634 -0.5977  0.0558 -0.2336
   60MOL0     C 8152   6.701  10.231   6.573  0.1926  0.1495 -0.8060
   60MOL0     C 8153   6.547  10.248   6.584 -0.3009  0.6704  0.1665
   60MOL0     C 8154   6.495  10.112   6.642 -0.5153 -0.4257  0.9855
   60MOL0     C 8155   6.347  10.082   6.627  0.6630 -0.0149  0.2820
   60MOL0     C 8156   6.258  10.208   6.678  0.3193 -0.2195 -0.5297
   60MOL0     C 8157   6.103  10.177   6.673  1.1832 -0.6702 -0.8041
   60MOL0     C 8158   6.049  10.112   6.810  0.0119  0.0614 -0.6021
   60MOL0     N 8159   5.903  10.097   6.797  0.8275 -0.7137  0.8705
   60MOL0     C 8160   5.844   9.988   6.727 -0.3436  0.0586  0.0547
   60MOL0     C 8161   5.711  10.007   6.734 -0.4108 -0.2417 -0.2889
   60MOL0     C 8162   5.599   9.943   6.663  0.4177  0.6634 -0.2083
   60MOL0     C 8163   5.607   9.983   6.512 -0.3211 -0.1507 -1.2348
   60MOL0     C 8164   5.485   9.946   6.430  0.7211  0.3238 -0.3819
   60MOL0     C 8165   5.510   9.968   6.285  0.6149  1.3347  1.0948
   60MOL0     O 8166   5.489  10.105   6.258  0.0686  0.1037 -0.3383
   60MOL0     C 8167   5.499  10.155   6.130  0.0884 -0.1604 -1.1687
   60MOL0     C 8168   5.534  10.285   6.121 -0.7683 -0.0613  0.2969
   60MOL0     C 8169   5.556  10.343   5.993  0.9492 -0.2648  0.1596
   60MOL0     C 8170   5.599  10.484   5.993  0.0710  0.3151  0.8622
   60MOL0     C 8171   5.546  10.265   5.875 -0.1698  0.7192  1.0115
   60MOL0     C 8172   5.573  10.314   5.738  0.6783  0.1273  0.7570
   60MOL0     O 8173   5.498  10.254   5.634  0.1985 -0.1528  0.8484
   60MOL0     C 8174   5.536  10.297   5.507  0.7424 -0.0652  0.2743
   60MOL0     C 8175   5.616  10.207   5.444 -0.1679  0.5877 -0.7150
   60MOL0     C 8176   5.652  10.228   5.313  0.0849  0.6061 -0.2255
   60MOL0     C 8177   5.605  10.345   5.240 -0.1303 -0.1340 -0.4864
   60MOL0     O 8178   5.627  10.373   5.103  0.7624  0.2651 -0.6717
   60MOL0     C 8179   5.763  10.364   5.051  0.0581 -0.4564 -0.4224
   60MOL0     C 8180   5.757  10.365   4.895  0.3643 -0.3917 -0.5357
   60MOL0     C 8181   5.661  10.259   4.851 -0.4129 -0.4622  0.5429
   60MOL0     C 8182   5.696  10.218   4.707 -0.2626  0.2591  0.0601
   60MOL0     C 8183   5.715  10.332   4.604  0.0510 -0.6897  0.6948
   60MOL0     C 8184   5.734  10.293   4.457 -0.1800 -0.3440 -0.0820
   60MOL0     C 8185   5.711  10.392   4.347  0.6451 -0.6453 -0.5480
   60MOL0     C 8186   5.796  10.347   4.230 -0.7777 -0.4888  0.1088
   60MOL0    Cl 8187   5.738  10.177   4.179  0.2407  0.2191  0.0947
   60MOL0     C 8188   5.520  10.435   5.316  0.8542  0.0221 -0.1200
   60MOL0     C 8189   5.488  10.412   5.449  0.2158 -0.5180 -1.0114
   60MOL0     O 8190   5.668  10.385   5.725 -0.1053  0.6410 -0.2650
   60MOL0     C 8191   5.501  10.132   5.891 -0.3801  0.9978  0.5630
   60MOL0     C 8192   5.482  10.076   6.014  0.0760 -0.1810  0.0922
   60MOL0     N 8193   5.683  10.127   6.803 -0.8308  0.4952 -0.1903
   60MOL0     N 8194   5.801  10.165   6.853  0.1867 -0.8084  0.8846
   60MOL0     C 8195   7.145  10.351   6.608  0.7119 -0.4729  0.4449
   60MOL0     C 8196   7.254  10.431   6.641  0.8542 -0.4428  0.3689
   60MOL0     C 8197   7.570  10.681   6.829  0.0350 -1.1257 -0.7405
   60MOL0     C 8198   7.677  10.611   6.893 -0.4950 -0.6997  0.5939
   60MOL0     C 8199   7.779  10.678   6.952  0.2457  0.3663  0.2522
   60MOL0     C 8200   7.789  10.819   6.940  0.6223  0.8857  0.1253
   60MOL0     O 8201   7.900  10.873   7.005 -0.2181  0.6465 -0.0067
   60MOL0     C 8202   7.954  10.995   6.977 -0.4968  0.0728  0.4069
   60MOL0     C 8203   8.103  11.001   7.005 -0.2474  0.2764  1.0907
   60MOL0     C 8204   8.191  10.939   6.894 -1.1964 -0.7959  0.5528
   60MOL0     C 8205   8.335  10.899   6.937  0.8798  0.0333 -0.3792
   60MOL0     C 8206   8.394  11.007   7.009  0.1214 -0.2284  1.0391
   60MOL0     C 8207   8.416  11.083   7.095 -0.2258 -0.5255  0.4919
   60MOL0     C 8208   7.693  10.888   6.873 -0.0412 -0.4133  0.7539
   60MOL0     C 8209   7.581  10.823   6.811  0.0603  1.4459  0.5621
   60MOL0     C 8210   7.491  10.915   6.729 -0.1252  0.1734 -0.1901
   60MOL0     H 8211   7.103  10.695   6.788  0.7491  0.2630 -2.0188
   60MOL0     H 8212   6.897  10.549   6.704 -0.3848  2.0020 -3.4784
   60MOL0     H 8213   6.761  10.442   6.592  1.0704  0.7387  0.6342
   60MOL0     H 8214   6.748  10.353   6.739 -0.6520 -1.6616 -0.0400
   60MOL0     H 8215   6.727  10.213   6.468  1.2584  0.9649 -0.6938
   60MOL0     H 8216   6.743  10.144   6.626  1.9043  1.0002 -0.7001
   60MOL0     H 8217   6.516  10.332   6.646  0.8022  1.1813  0.0464
   60MOL0     H 8218   6.512  10.282   6.487  0.4807 -0.8816 -0.7112
   60MOL0     H 8219   6.546  10.034   6.584  4.3095  1.6825  1.9327
   60MOL0     H 8220   6.524  10.086   6.744 -0.1918 -4.0563  0.1383
   60MOL0     H 8221   6.324   9.985   6.672  3.0316 -0.1630  1.3259
   60MOL0     H 8222   6.340  10.078   6.518 -1.4384  1.0147  0.3371
   60MOL0     H 8223   6.293  10.239   6.776 -2.7327  1.6960  0.1095
   60MOL0     H 8224   6.258  10.299   6.617 -1.6831  1.6247  1.9902
   60MOL0     H 8225   6.080  10.104   6.594 -1.6304  0.6829 -1.3766
   60MOL0     H 8226   6.046  10.269   6.659  0.6868 -1.0601 -1.3984
   60MOL0     H 8227   6.100  10.016   6.820 -0.0256 -0.4357 -4.0305
   60MOL0     H 8228   6.073  10.173   6.898 -3.4078 -1.8912  1.9020
   60MOL0     H 8229   5.904   9.909   6.683  0.5462  0.9671 -0.3898
   60MOL0     H 8230   5.508   9.976   6.714  0.4686  0.4054  0.0482
   60MOL0     H 8231   5.607   9.834   6.664 -0.1705  0.5745 -1.7750
   60MOL0     H 8232   5.612  10.092   6.507  0.0561  0.0646  1.8680
   60MOL0     H 8233   5.700   9.949   6.464  1.0841  2.5733 -0.6228
   60MOL0     H 8234   5.450   9.843   6.445  0.7808  0.3505 -0.0541
   60MOL0     H 8235   5.400  10.013   6.445 -0.0888 -0.7091 -0.1997
   60MOL0     H 8236   5.605   9.931   6.245 -0.0641 -0.5210  1.1050
   60MOL0     H 8237   5.431   9.912   6.235  0.6252  2.4523 -0.2174
   60MOL0     H 8238   5.561  10.344   6.207  1.0786 -0.9287  0.3683
   60MOL0     H 8239   5.550  10.538   6.074 -1.6540 -0.8720  0.6520
   60MOL0     H 8240   5.581  10.533   5.897  0.7856 -0.3245  0.3871
   60MOL0     H 8241   5.705  10.487   6.020  0.2169  0.1770  0.3129
   60MOL0     H 8242   5.661  10.125   5.498 -2.6719 -1.0362 -0.9549
   60MOL0     H 8243   5.730  10.167   5.269 -1.0460 -1.4240  0.4565
   60MOL0     H 8244   5.831  10.443   5.084 -0.4098 -0.3975  0.4241
   60MOL0     H 8245   5.794  10.260   5.066 -3.5112 -1.5417  0.3985
   60MOL0     H 8246   5.716  10.462   4.868 -0.5453 -0.4571  0.5375
   60MOL0     H 8247   5.857  10.339   4.858  0.1808 -2.7631  0.4123
   60MOL0     H 8248   5.558  10.296   4.842  0.0683  1.2809  1.6817
   60MOL0     H 8249   5.661  10.175   4.921 -0.7290  0.9011  2.2478
   60MOL0     H 8250   5.607  10.163   4.676  0.3924 -0.7739 -0.0173
   60MOL0     H 8251   5.787  10.158   4.699 -0.0931  0.8025 -3.6491
   60MOL0     H 8252   5.623  10.391   4.592 -0.2824 -1.4219 -0.6333
   60MOL0     H 8253   5.796  10.401   4.626  0.6833 -1.7152  1.6994
   60MOL0     H 8254   5.672  10.204   4.439 -2.6011  1.6008 -2.2132
   60MOL0     H 8255   5.839  10.265   4.463  0.1936  1.2684  2.5371
   60MOL0     H 8256   5.722  10.498   4.371 -2.7156  0.5794 -3.5500
   60MOL0     H 8257   5.607  10.390   4.314  0.6824 -1.1976 -0.6494
   60MOL0     H 8258   5.901  10.354   4.260 -1.0821  1.3181  0.8828
   60MOL0     H 8259   5.776  10.405   4.139  1.3563 -0.6087 -0.4979
   60MOL0     H 8260   5.476  10.515   5.257  1.7723 -0.4568 -1.4932
   60MOL0     H 8261   5.402  10.457   5.497  0.4246 -1.1475 -0.0020
   60MOL0     H 8262   5.491  10.076   5.799  2.2496 -1.0264  1.3988
   60MOL0     H 8263   5.449   9.973   6.024  2.3869 -0.8469  1.8433
   60MOL0     H 8264   7.180  10.261   6.560  4.1822  1.5028 -1.1064
   60MOL0     H 8265   7.347  10.383   6.614  0.3494 -0.9787 -0.4435
   60MOL0     H 8266   7.682  10.502   6.889  0.8121 -0.6345 -0.2828
   60MOL0     H 8267   7.864  10.632   7.001 -0.9335 -1.6928  0.4881
   60MOL0     H 8268   7.946  11.018   6.870  1.0015  0.3809  0.3394
   60MOL0     H 8269   7.892  11.072   7.023  0.8797  2.3897 -1.3905
   60MOL0     H 8270   8.116  10.956   7.104  1.8050 -0.6377  0.4787
   60MOL0     H 8271   8.132  11.107   7.011  0.1621  0.5872 -3.3640
   60MOL0     H 8272   8.141  10.848   6.859 -0.5592 -1.0000  0.1324
   60MOL0     H 8273   8.200  11.003   6.805  0.9131 -1.4485  0.2267
   60MOL0     H 8274   8.401  10.891   6.850 -0.6098  2.5881 -1.8786
   60MOL0     H 8275   8.333  10.803   6.988 -1.5742 -0.0743 -0.5879
   60MOL0     H 8276   8.444  11.168   7.152 -2.2907  0.7774 -0.3188
   60MOL0     H 8277   7.710  10.995   6.869  1.0021 -0.5989 -1.1384
   60MOL0     H 8278   7.534  11.014   6.709  0.0368  0.5178  1.6569
   60MOL0     H 8279   7.460  10.883   6.630  0.9510  1.3751 -0.9458
   60MOL0     H 8280   7.399  10.930   6.786 -0.0141 -0.5465  0.1940
   61MOL0     O 8281   3.477   8.248   9.098  0.3008  0.5584 -0.3507
   61MOL0     C 8282   3.366   8.247   9.056  0.2378 -0.6880  0.6939
   61MOL0     O 8283   3.276   8.143   9.070  0.2120 -0.6613  0.8358
   61MOL0     C 8284   3.296   8.042   9.161  0.6338 -0.5121  0.9229
   61MOL0     C 8285   3.370   8.044   9.277  0.7213 -0.3658  0.6318
   61MOL0     C 8286   3.405   7.932   9.344  1.7880  0.8028 -0.5208
   61MOL0     C 8287   3.362   7.803   9.303  0.9142  0.1320 -1.2175
   61MOL0     O 8288   3.376   7.696   9.390  0.0473 -0.9174 -0.0540
   61MOL0     C 8289   3.441   7.583   9.333 -0.0121 -0.7712 -0.4595
   61MOL0     C 8290   3.587   7.608   9.310  0.7258  0.4883 -0.2573
   61MOL0     C 8291   3.648   7.474   9.256  0.2542 -0.2775 -0.1798
   61MOL0     C 8292   3.803   7.483   9.245  0.8752 -0.8273  0.1972
   61MOL0     C 8293   3.860   7.341   9.257  0.0320  0.0290  0.6163
   61MOL0     C 8294   4.005   7.351   9.219 -0.0987  0.2176 -0.2055
   61MOL0     C 8295   4.074   7.211   9.208 -0.5154  0.5894  0.4906
   61MOL0     C 8296   4.021   7.109   9.105  0.3603 -0.0279  0.6808
   61MOL0     N 8297   3.974   7.176   8.982  0.4591 -0.8410 -0.8206
   61MOL0     C 8298   4.062   7.244   8.894  0.5797 -1.8229 -0.0241
   61MOL0     C 8299   3.988   7.305   8.800  0.7777  0.3406  0.4826
   61MOL0     C 8300   4.020   7.390   8.678 -0.1608  0.2526 -0.1136
   61MOL0     C 8301   4.058   7.534   8.710 -0.9867  0.7491 -0.5598
   61MOL0     C 8302   4.073   7.608   8.581  0.7787 -0.1347 -0.2566
   61MOL0     C 8303   4.080   7.759   8.602 -0.2106  0.7025 -0.1501
   61MOL0     O 8304   4.171   7.789   8.701 -0.0365 -0.4717  0.2495
   61MOL0     C 8305   4.218   7.917   8.719 -0.3324 -0.2601 -0.5659
   61MOL0     C 8306   4.315   7.930   8.822 -0.1796  0.3342  0.8744
   61MOL0     C 8307   4.364   8.056   8.855 -0.6618 -0.5157 -0.6214
   61MOL0     C 8308   4.442   8.060   8.986  0.0219  0.4205  0.2161
   61MOL0     C 8309   4.326   8.168   8.775 -0.7111 -0.5612  0.4149
   61MOL0     C 8310   4.386   8.303   8.812 -0.2161  0.6376  0.5899
   61MOL0     O 8311   4.525   8.306   8.833 -0.2266 -0.3478 -0.8649
   61MOL0     C 8312   4.594   8.409   8.890 -0.1294 -0.4147  0.5647
   61MOL0     C 8313   4.544   8.540   8.922 -0.4694  0.0102 -0.4994
   61MOL0     C 8314   4.624   8.627   8.995 -0.0831  0.0698 -0.3990
   61MOL0     C 8315   4.762   8.606   9.017 -0.3147 -0.5880  0.8541
   61MOL0     O 8316   4.825   8.697   9.095  0.2728 -0.2734  0.0186
   61MOL0     C 8317   4.968   8.690   9.101 -0.4004  0.1933  0.9179
   61MOL0     C 8318   5.015   8.795   9.196  1.2189 -0.6267 -0.4408
   61MOL0     C 8319   5.157   8.782   9.231 -0.1708  0.0789 -0.0801
   61MOL0     C 8320   5.254   8.807   9.119 -0.1410 -0.4274  0.7550
   61MOL0     C 8321   5.395   8.830   9.179  0.7914 -0.0449 -0.0183
   61MOL0     C 8322   5.489   8.797   9.060  0.3974 -0.8459  0.1361
   61MOL0     C 8323   5.638   8.834   9.080 -0.2800  0.9089 -0.9583
   61MOL0     C 8324   5.738   8.819   8.974 -0.4117  0.8221  0.3101
   61MOL0    Cl 8325   5.903   8.891   9.003  0.2059  0.1462  0.4180
   61MOL0     C 8326   4.813   8.497   8.962 -0.2273  0.4876  0.3804
   61MOL0     C 8327   4.730   8.395   8.905 -0.3314 -0.5706 -0.5328
   61MOL0     O 8328   4.316   8.404   8.795  0.1168  0.8056 -0.2083
   61MOL0     C 8329   4.215   8.163   8.684 -0.8458  0.4920 -0.2342
   61MOL0     C 8330   4.176   8.031   8.651 -0.0563 -0.2320  0.6706
   61MOL0     N 8331   3.856   7.254   8.827  0.0707  0.1415  0.9991
   61MOL0     N 8332   3.844   7.185   8.936 -0.5764  0.4135 -0.0257
   61MOL0     C 8333   3.279   7.792   9.187 -0.2996  0.5518  0.9671
   61MOL0     C 8334   3.256   7.915   9.115  0.3849  0.3523  0.7589
   61MOL0     C 8335   3.320   8.366   8.981  1.1458  0.0095 -0.1529
   61MOL0     C 8336   3.183   8.393   8.977  0.5903 -2.3101  0.1151
   61MOL0     C 8337   3.127   8.498   8.911 -0.1106  0.7023  0.5775
   61MOL0     C 8338   3.208   8.580   8.827  0.5371 -1.0651 -1.4667
   61MOL0     O 8339   3.151   8.687   8.768  0.3131 -0.5977  0.0827
   61MOL0     C 8340   3.213   8.745   8.660  0.1065 -0.0656  0.0274
   61MOL0     C 8341   3.107   8.825   8.587 -0.4741 -1.8514  0.4120
   61MOL0     C 8342   3.047   8.936   8.674  0.7831 -0.3516 -0.4106
   61MOL0     C 8343   2.929   9.010   8.619 -0.5139 -0.8403  0.9788
   61MOL0     C 8344   2.861   9.096   8.715 -0.0979  0.2723 -0.0217
   61MOL0     C 8345   2.781   9.135   8.797 -0.4628 -0.8301 -0.0407
   61MOL0     C 8346   3.344   8.558   8.827  0.0538  0.0837  0.0791
   61MOL0     C 8347   3.400   8.446   8.890  0.3005 -0.2022 -1.0339
   61MOL0     C 8348   3.551   8.409   8.878  0.0411 -0.4338 -0.5446
   61MOL0     H 8349   3.409   8.136   9.319  4.1767 -0.9615 -0.8958
   61MOL0     H 8350   3.440   7.946   9.445 -0.6260  0.1508  0.4637
   61MOL0     H 8351   3.385   7.549   9.245 -2.6699  2.6794 -0.2923
   61MOL0     H 8352   3.436   7.517   9.421 -2.1659 -0.3977 -0.2488
   61MOL0     H 8353   3.590   7.685   9.232 -0.3096  0.4626 -0.3447
   61MOL0     H 8354   3.639   7.615   9.406  1.6800 -1.9945 -0.5205
   61MOL0     H 8355   3.648   7.394   9.329  5.2548 -1.1213 -0.7431
   61MOL0     H 8356   3.601   7.435   9.165 -0.9943 -2.6848  1.4201
   61MOL0     H 8357   3.819   7.540   9.153 -2.4988  0.6251  0.3657
   61MOL0     H 8358   3.847   7.549   9.321 -0.3952  4.2451 -2.9507
   61MOL0     H 8359   3.800   7.283   9.187  1.1935  1.2531 -1.5093
   61MOL0     H 8360   3.849   7.296   9.355 -3.6059 -0.1796  0.2290
   61MOL0     H 8361   4.020   7.407   9.127 -2.2525 -1.4878 -1.7033
   61MOL0     H 8362   4.057   7.405   9.299  2.7570 -0.0065 -1.7864
   61MOL0     H 8363   4.090   7.162   9.304 -1.1621  0.7185  0.6727
   61MOL0     H 8364   4.170   7.240   9.165 -0.9415  1.0103 -0.1904
   61MOL0     H 8365   4.096   7.040   9.068 -1.2044 -1.4458  0.0222
   61MOL0     H 8366   3.943   7.044   9.147  1.5765 -1.8138  0.2849
   61MOL0     H 8367   4.167   7.262   8.913  0.9684  1.8922 -4.2367
   61MOL0     H 8368   3.923   7.400   8.627 -1.6399 -3.0737  1.7524
   61MOL0     H 8369   4.091   7.328   8.623 -0.4115  0.2450 -0.4346
   61MOL0     H 8370   3.972   7.574   8.763  0.2576  1.6190  0.8810
   61MOL0     H 8371   4.145   7.542   8.776 -1.2345  0.6345 -0.2146
   61MOL0     H 8372   4.172   7.580   8.541  1.1745 -1.5318  1.5525
   61MOL0     H 8373   3.987   7.583   8.518  1.3073 -0.8075 -0.7388
   61MOL0     H 8374   4.113   7.811   8.511  1.1665  2.3446  1.2324
   61MOL0     H 8375   3.978   7.786   8.633  0.1971  1.6470  0.4020
   61MOL0     H 8376   4.351   7.847   8.882  3.1651  2.0021  1.3929
   61MOL0     H 8377   4.397   8.131   9.057 -1.5241 -2.2358  2.0530
   61MOL0     H 8378   4.546   8.089   8.971  0.1263  0.8743  1.6610
   61MOL0     H 8379   4.442   7.962   9.034 -1.7799  0.2074 -0.1302
   61MOL0     H 8380   4.438   8.564   8.918 -0.4552  0.2755  0.4912
   61MOL0     H 8381   4.579   8.721   9.024 -0.6009  0.5673 -2.6288
   61MOL0     H 8382   4.988   8.593   9.148 -0.1871  1.2138  3.0354
   61MOL0     H 8383   5.018   8.688   9.003  0.2908 -1.5068  1.2549
   61MOL0     H 8384   4.998   8.890   9.144 -4.2575 -1.2445 -0.3493
   61MOL0     H 8385   4.955   8.785   9.287  1.5716 -0.4869 -0.1910
   61MOL0     H 8386   5.162   8.680   9.268 -3.8476  1.1015  4.0660
   61MOL0     H 8387   5.181   8.838   9.322  0.1393 -1.0168  0.5282
   61MOL0     H 8388   5.219   8.876   9.042 -0.6540 -0.2301  1.1523
   61MOL0     H 8389   5.261   8.713   9.064  0.8943 -0.5145  1.0264
   61MOL0     H 8390   5.405   8.932   9.219  3.2904  0.0806 -0.8148
   61MOL0     H 8391   5.402   8.757   9.260  0.4814 -0.8435 -0.6979
   61MOL0     H 8392   5.448   8.858   8.979 -3.2677 -0.7507  1.8744
   61MOL0     H 8393   5.490   8.690   9.036  1.2566 -0.3925 -2.1078
   61MOL0     H 8394   5.660   8.774   9.169 -1.4347  2.8115  0.6832
   61MOL0     H 8395   5.643   8.941   9.100 -0.6724  0.6995  0.3769
   61MOL0     H 8396   5.689   8.875   8.894  0.1844 -0.5660 -1.0572
   61MOL0     H 8397   5.743   8.712   8.954 -2.4227  0.4942  1.3509
   61MOL0     H 8398   4.916   8.472   8.986 -1.0997 -3.0340  0.8780
   61MOL0     H 8399   4.764   8.298   8.869 -0.2651  0.0336 -2.1968
   61MOL0     H 8400   4.179   8.253   8.635 -0.1162  0.7225 -0.3565
   61MOL0     H 8401   4.098   8.014   8.577  0.6944  2.3232 -0.8241
   61MOL0     H 8402   3.245   7.695   9.153 -3.4933  2.2655 -1.3196
   61MOL0     H 8403   3.208   7.915   9.019  0.4049  3.3134  0.6563
   61MOL0     H 8404   3.104   8.346   9.035  1.6911 -0.5741  3.3150
   61MOL0     H 8405   3.020   8.516   8.918 -0.6725 -1.8580 -0.3759
   61MOL0     H 8406   3.291   8.813   8.696 -0.5676  0.3632  0.6965
   61MOL0     H 8407   3.260   8.673   8.591  1.7030 -0.7057  1.7058
   61MOL0     H 8408   3.033   8.768   8.529 -0.0933  0.9884 -3.2291
   61MOL0     H 8409   3.157   8.882   8.509 -1.2296  1.6002  2.2362
   61MOL0     H 8410   3.027   8.900   8.775  0.3218 -1.2463 -0.8117
   61MOL0     H 8411   3.113   9.019   8.699 -1.3105  0.5269  2.9504
   61MOL0     H 8412   2.872   8.937   8.562  0.0391  0.8368 -1.9229
   61MOL0     H 8413   2.976   9.079   8.549  1.4316 -1.6413  1.4186
   61MOL0     H 8414   2.708   9.181   8.860  3.7845  2.9239  2.6844
   61MOL0     H 8415   3.404   8.629   8.773 -2.2582  1.2883 -1.0705
   61MOL0     H 8416   3.608   8.418   8.971 -1.5202  0.5847  0.3521
   61MOL0     H 8417   3.557   8.302   8.854 -2.8953 -0.5351 -1.2028
   61MOL0     H 8418   3.597   8.467   8.797 -0.7333  0.9521 -0.0316
   62MOL0     O 8419   4.170   9.275   8.157 -0.1702 -0.1004 -0.5105
   62MOL0     C 8420   4.144   9.178   8.221 -0.1153  0.9068 -0.4456
   62MOL0     O 8421   4.220   9.117   8.316 -0.3166 -0.4667  0.8755
   62MOL0     C 8422   4.352   9.153   8.321 -0.4039 -0.3148  0.1492
   62MOL0     C 8423   4.404   9.284   8.338  0.8307 -0.3363  0.2075
   62MOL0     C 8424   4.539   9.310   8.379 -0.9243  1.2237 -0.6477
   62MOL0     C 8425   4.630   9.205   8.395  0.4074 -0.1300 -0.1642
   62MOL0     O 8426   4.759   9.224   8.429 -0.8624  0.0754 -0.1326
   62MOL0     C 8427   4.865   9.245   8.333  0.6440  0.1280 -0.2415
   62MOL0     C 8428   4.959   9.360   8.382  0.0284 -0.7068  0.0105
   62MOL0     C 8429   5.037   9.325   8.512  0.4990  0.0704  0.6606
   62MOL0     C 8430   5.150   9.221   8.478 -0.2917 -0.2799 -0.6937
   62MOL0     C 8431   5.272   9.291   8.431  0.7503 -0.6498 -0.4868
   62MOL0     C 8432   5.385   9.186   8.418  0.7440  0.8137 -0.6827
   62MOL0     C 8433   5.521   9.258   8.400  0.7845  0.3601 -0.3600
   62MOL0     C 8434   5.645   9.167   8.435  0.4456 -0.1980  0.7016
   62MOL0     N 8435   5.762   9.244   8.430 -0.3244 -0.1718  0.4905
   62MOL0     C 8436   5.815   9.326   8.533  0.7119  0.0628  0.4540
   62MOL0     C 8437   5.941   9.363   8.480  1.1187  0.1098 -0.8762
   62MOL0     C 8438   6.037   9.449   8.552 -0.3590 -0.5009 -0.7897
   62MOL0     C 8439   5.977   9.572   8.627  0.9753  0.7429 -0.5318
   62MOL0     C 8440   5.897   9.661   8.531 -1.2029  0.4211  0.1702
   62MOL0     C 8441   5.790   9.731   8.604 -0.5317  0.0695 -0.7193
   62MOL0     O 8442   5.835   9.814   8.709  0.0279  0.0657 -0.2166
   62MOL0     C 8443   5.852   9.765   8.839  0.4357  1.2231 -0.6948
   62MOL0     C 8444   5.735   9.727   8.924 -1.0154 -0.0898  1.2509
   62MOL0     C 8445   5.759   9.686   9.057  0.5492  0.2177 -0.2059
   62MOL0     C 8446   5.628   9.660   9.134 -0.2707 -1.3177  1.0195
   62MOL0     C 8447   5.883   9.677   9.120 -0.5943  1.2132 -0.3352
   62MOL0     C 8448   5.913   9.631   9.265 -0.6999  0.2403  0.4363
   62MOL0     O 8449   6.028   9.681   9.325 -0.5233 -0.1900 -0.5987
   62MOL0     C 8450   6.045   9.656   9.462  0.6799 -0.3397  0.3039
   62MOL0     C 8451   6.106   9.540   9.515  0.9989 -0.3352 -0.4416
   62MOL0     C 8452   6.104   9.520   9.651  1.0609  0.1391 -0.7011
   62MOL0     C 8453   6.033   9.609   9.733 -0.3334  0.3702  0.5692
   62MOL0     O 8454   6.034   9.581   9.871  0.4207 -0.0648  0.2659
   62MOL0     C 8455   6.015   9.447   9.915  0.6425  0.3876  0.0525
   62MOL0     C 8456   5.909   9.436  10.022 -0.5823  0.6195 -0.0895
   62MOL0     C 8457   5.920   9.533  10.133  0.1912 -0.4879  0.6241
   62MOL0     C 8458   5.840   9.662  10.125  0.1806 -0.4934 -0.8857
   62MOL0     C 8459   5.835   9.768  10.244 -0.3296 -0.1140 -0.6227
   62MOL0     C 8460   5.981   9.807  10.284  0.3514  0.5246 -1.1705
   62MOL0     C 8461   5.993   9.906  10.402  0.3247  0.3626 -0.3716
   62MOL0     C 8462   5.999   9.850  10.541 -0.1718 -0.5418  0.0806
   62MOL0    Cl 8463   6.133   9.724  10.569  0.2818 -0.0609  0.0108
   62MOL0     C 8464   5.970   9.725   9.678 -1.0105 -0.3984 -0.7251
   62MOL0     C 8465   5.993   9.752   9.541 -0.5077  0.9145  1.1403
   62MOL0     O 8466   5.844   9.538   9.311  0.8626  0.0749  0.8539
   62MOL0     C 8467   6.006   9.722   9.048  0.1897 -0.1048  0.7420
   62MOL0     C 8468   5.982   9.761   8.908 -0.1118 -0.1162 -0.4916
   62MOL0     N 8469   5.961   9.305   8.353  1.0316  0.8690 -0.5761
   62MOL0     N 8470   5.851   9.234   8.324  1.0974 -0.1075  0.1013
   62MOL0     C 8471   4.582   9.082   8.375  0.4068  0.2511  0.1598
   62MOL0     C 8472   4.446   9.052   8.346 -0.8555  0.6608 -0.4725
   62MOL0     C 8473   4.014   9.119   8.195  1.3034  0.5512  0.0065
   62MOL0     C 8474   3.967   9.018   8.281 -0.1821  0.0371 -0.9165
   62MOL0     C 8475   3.844   8.959   8.264 -0.2710 -0.0333  1.0549
   62MOL0     C 8476   3.753   9.003   8.163 -0.1159  0.8016 -0.6231
   62MOL0     O 8477   3.620   8.963   8.159  0.2294 -0.5238  0.1562
   62MOL0     C 8478   3.593   8.827   8.196 -0.3562  0.3875  0.2823
   62MOL0     C 8479   3.462   8.777   8.135 -0.8459 -0.0658 -1.7520
   62MOL0     C 8480   3.347   8.771   8.227 -0.0327 -0.1842 -0.1573
   62MOL0     C 8481   3.230   8.705   8.147  0.1691 -0.6698 -0.1091
   62MOL0     C 8482   3.250   8.562   8.142 -0.3534  0.2871 -0.1209
   62MOL0     C 8483   3.263   8.441   8.153 -0.7737  0.2880  0.5746
   62MOL0     C 8484   3.795   9.112   8.086  1.3121 -0.0458 -0.5468
   62MOL0     C 8485   3.928   9.161   8.092 -0.9983  0.5763  0.1614
   62MOL0     C 8486   3.958   9.258   7.989  1.2530  0.3382 -0.3034
   62MOL0     H 8487   4.346   9.372   8.312  1.4615 -0.4718 -1.8337
   62MOL0     H 8488   4.576   9.404   8.418  0.6838 -0.4600  2.1660
   62MOL0     H 8489   4.822   9.282   8.239 -2.8910  0.1905  1.2323
   62MOL0     H 8490   4.920   9.155   8.306  1.0076  0.4566 -0.6127
   62MOL0     H 8491   5.033   9.390   8.307 -1.0946  0.4963 -0.6668
   62MOL0     H 8492   4.899   9.451   8.391 -3.2268 -2.5807 -1.1784
   62MOL0     H 8493   5.083   9.413   8.557  0.0675  0.3270  0.6092
   62MOL0     H 8494   4.978   9.282   8.593 -0.8768  0.0297 -0.3163
   62MOL0     H 8495   5.161   9.151   8.561  1.0197 -0.4153 -0.9579
   62MOL0     H 8496   5.114   9.153   8.401 -2.4065 -2.2357  1.8303
   62MOL0     H 8497   5.313   9.368   8.497  0.3389  0.1156 -1.1012
   62MOL0     H 8498   5.260   9.348   8.338 -2.2100  0.8004  0.6698
   62MOL0     H 8499   5.390   9.122   8.506 -1.9568 -1.2147 -1.8652
   62MOL0     H 8500   5.372   9.126   8.327  2.7836 -0.7445 -0.0100
   62MOL0     H 8501   5.522   9.342   8.470  2.1340 -1.0576  1.4132
   62MOL0     H 8502   5.526   9.297   8.298  0.6161  1.2078 -0.0523
   62MOL0     H 8503   5.645   9.129   8.537  1.9083 -0.0876  0.7681
   62MOL0     H 8504   5.672   9.098   8.355  0.4771  0.3411  0.2371
   62MOL0     H 8505   5.763   9.343   8.627  3.0924  3.2926  1.3844
   62MOL0     H 8506   6.116   9.486   8.485 -1.4784  1.8985 -0.8988
   62MOL0     H 8507   6.085   9.394   8.634 -0.5854  1.0182  0.4199
   62MOL0     H 8508   5.914   9.538   8.710  0.1792  4.3534  0.5125
   62MOL0     H 8509   6.053   9.625   8.685 -1.3187  0.3188  3.2678
   62MOL0     H 8510   5.961   9.738   8.487  0.4605 -1.1384 -0.2698
   62MOL0     H 8511   5.850   9.600   8.454  0.5141  1.0123 -1.4357
   62MOL0     H 8512   5.756   9.803   8.529  0.9233  0.1498 -1.3222
   62MOL0     H 8513   5.713   9.665   8.647  0.8084 -0.2451  1.3084
   62MOL0     H 8514   5.639   9.745   8.876 -1.1943  0.0706  1.6680
   62MOL0     H 8515   5.646   9.718   9.225  4.5592 -0.0193 -0.4480
   62MOL0     H 8516   5.615   9.553   9.149 -0.3781 -1.3032  1.0287
   62MOL0     H 8517   5.542   9.705   9.083 -0.3036 -0.6105  1.6774
   62MOL0     H 8518   6.163   9.470   9.455  3.1722 -0.0082  1.1244
   62MOL0     H 8519   6.164   9.441   9.694 -2.3122 -1.6366  1.1216
   62MOL0     H 8520   6.005   9.373   9.835  0.1906  0.4325  0.0685
   62MOL0     H 8521   6.108   9.421   9.967  0.0757  1.5890  1.7462
   62MOL0     H 8522   5.805   9.440   9.989 -1.5811  0.0050  2.6521
   62MOL0     H 8523   5.921   9.335  10.064 -0.0224 -0.3133 -2.3411
   62MOL0     H 8524   6.024   9.565  10.143 -0.1964  2.5077 -2.7309
   62MOL0     H 8525   5.899   9.477  10.225  2.1950 -4.2211 -0.9884
   62MOL0     H 8526   5.734   9.642  10.108  0.2317 -1.4622 -0.2094
   62MOL0     H 8527   5.887   9.709  10.039 -1.6300  1.6167 -0.7980
   62MOL0     H 8528   5.784   9.855  10.204  3.7027  2.4112 -0.8566
   62MOL0     H 8529   5.769   9.729  10.322 -0.2341  0.9487  0.0144
   62MOL0     H 8530   6.034   9.848  10.197  0.8017 -0.0436 -1.1653
   62MOL0     H 8531   6.033   9.721  10.326 -0.2741 -0.5360 -2.4693
   62MOL0     H 8532   5.915   9.979  10.379  0.3646  0.1284 -1.3104
   62MOL0     H 8533   6.091   9.953  10.387 -0.1599  2.1411  1.6524
   62MOL0     H 8534   5.903   9.799  10.559 -0.4541  0.2489  0.8824
   62MOL0     H 8535   6.004   9.937  10.606  0.3070  0.1708 -0.8892
   62MOL0     H 8536   5.923   9.789   9.752 -0.4103 -2.1791  1.2819
   62MOL0     H 8537   5.961   9.840   9.486 -0.0443 -0.3328 -1.2272
   62MOL0     H 8538   6.098   9.737   9.103 -0.4764  1.3830  1.5088
   62MOL0     H 8539   6.065   9.799   8.849  0.5955  0.6277  0.9251
   62MOL0     H 8540   4.640   8.994   8.400 -1.2343 -0.9349 -0.0633
   62MOL0     H 8541   4.415   8.949   8.337  1.2345 -0.0626  0.0446
   62MOL0     H 8542   4.019   8.990   8.371 -0.7994  3.1289  0.5257
   62MOL0     H 8543   3.811   8.890   8.340  1.5116  1.5007  3.3868
   62MOL0     H 8544   3.678   8.761   8.176  1.0277  1.4731  2.2068
   62MOL0     H 8545   3.577   8.831   8.304 -1.3936 -1.8594  0.2766
   62MOL0     H 8546   3.480   8.671   8.114 -1.1988 -0.6285  0.5177
   62MOL0     H 8547   3.437   8.830   8.042 -1.6279  2.0070 -0.4262
   62MOL0     H 8548   3.376   8.710   8.313 -2.0352 -2.7353 -1.1681
   62MOL0     H 8549   3.308   8.870   8.254 -2.3284 -0.6950 -1.3231
   62MOL0     H 8550   3.220   8.754   8.050 -3.7012  1.3819  1.1277
   62MOL0     H 8551   3.134   8.732   8.192 -0.3966  1.6238 -2.4354
   62MOL0     H 8552   3.276   8.336   8.174 -0.3373  0.1535 -0.3015
   62MOL0     H 8553   3.723   9.150   8.015  3.1943  0.2649 -2.4035
   62MOL0     H 8554   4.057   9.240   7.945  0.7944  0.6892 -1.4885
   62MOL0     H 8555   3.890   9.265   7.904 -0.0928 -0.4188  0.6766
   62MOL0     H 8556   3.956   9.362   8.022  1.4776  1.2371 -2.9529
   63MOL0     O 8557   9.857   2.238   6.373 -0.3849 -0.6330  0.2587
   63MOL0     C 8558   9.859   2.312   6.277 -0.5247  0.2631  0.6497
   63MOL0     O 8559   9.767   2.410   6.262  0.0690 -0.3141  0.0518
   63MOL0     C 8560   9.670   2.456   6.351 -0.7333  0.1144 -0.6189
   63MOL0     C 8561   9.614   2.583   6.327  0.5561  0.2410 -0.7642
   63MOL0     C 8562   9.517   2.631   6.425  0.2826  0.4992  0.4423
   63MOL0     C 8563   9.477   2.562   6.531 -0.1107  0.2063 -0.5923
   63MOL0     O 8564   9.406   2.629   6.637  0.5111  0.3049 -0.8639
   63MOL0     C 8565   9.278   2.678   6.613  0.6541 -0.3022  0.6216
   63MOL0     C 8566   9.184   2.629   6.728  0.4382 -0.2479 -0.1196
   63MOL0     C 8567   9.042   2.692   6.717 -0.6988 -0.0577 -0.3859
   63MOL0     C 8568   8.964   2.638   6.598 -0.1748  0.8354 -0.3526
   63MOL0     C 8569   8.924   2.493   6.621  0.6231  0.1556 -0.1812
   63MOL0     C 8570   8.810   2.453   6.535 -0.9294 -0.4099  0.1869
   63MOL0     C 8571   8.750   2.318   6.570 -0.4120  0.2825  0.2734
   63MOL0     C 8572   8.689   2.256   6.440 -0.1894 -1.2510  0.4535
   63MOL0     N 8573   8.575   2.335   6.405  0.2845  0.1201  0.4058
   63MOL0     C 8574   8.568   2.424   6.297 -0.2872  0.6728 -0.2536
   63MOL0     C 8575   8.440   2.451   6.286 -0.7046  0.4636  0.2777
   63MOL0     C 8576   8.383   2.538   6.168 -0.2104 -0.3627  0.8349
   63MOL0     C 8577   8.388   2.455   6.039  0.4764 -0.5051  0.7850
   63MOL0     C 8578   8.283   2.514   5.940 -0.2390 -0.0727 -0.2385
   63MOL0     C 8579   8.234   2.399   5.848 -0.2853 -0.2118 -0.2781
   63MOL0     O 8580   8.152   2.309   5.922  0.4922  0.3588 -0.7887
   63MOL0     C 8581   8.076   2.225   5.854  0.2199  0.0936  0.0745
   63MOL0     C 8582   7.976   2.159   5.923 -0.0846  0.5423 -0.9285
   63MOL0     C 8583   7.893   2.067   5.862  0.3458 -0.5826  0.0730
   63MOL0     C 8584   7.786   1.982   5.939  0.4673  0.1121 -0.9071
   63MOL0     C 8585   7.922   2.029   5.728  0.0185 -0.2781  0.4522
   63MOL0     C 8586   7.846   1.917   5.662 -0.7460  0.2120  0.9753
   63MOL0     O 8587   7.782   1.957   5.547  0.2440  0.1409  0.2383
   63MOL0     C 8588   7.699   1.849   5.493  0.1047 -1.0729 -0.3658
   63MOL0     C 8589   7.563   1.847   5.518  0.0104  0.0733 -0.4440
   63MOL0     C 8590   7.494   1.741   5.462  0.2479 -0.1379  1.0030
   63MOL0     C 8591   7.558   1.644   5.391  0.5734  0.4355  0.6081
   63MOL0     O 8592   7.486   1.545   5.331 -0.0762 -0.0368 -0.6516
   63MOL0     C 8593   7.391   1.478   5.420  0.2964  0.2637  0.3399
   63MOL0     C 8594   7.388   1.320   5.398 -0.2251 -0.6237 -0.8655
   63MOL0     C 8595   7.372   1.283   5.258 -1.2021  0.4574 -0.0933
   63MOL0     C 8596   7.494   1.183   5.228  0.6121  0.6137  0.0406
   63MOL0     C 8597   7.476   1.097   5.100 -0.2218  0.6269  0.2094
   63MOL0     C 8598   7.558   0.968   5.098 -0.4964 -0.4118 -0.3757
   63MOL0     C 8599   7.697   0.984   5.149 -0.4771  0.2660 -0.7753
   63MOL0     C 8600   7.773   0.848   5.178 -0.0395 -0.7610  0.1574
   63MOL0    Cl 8601   7.697   0.779   5.317  0.2559 -0.6804 -0.1271
   63MOL0     C 8602   7.685   1.656   5.351  0.4130  0.0725  0.3958
   63MOL0     C 8603   7.758   1.759   5.406 -1.1305 -0.6044  0.0311
   63MOL0     O 8604   7.869   1.798   5.695  0.2890 -0.4393  0.1701
   63MOL0     C 8605   8.021   2.097   5.657 -0.1045  1.1248  0.6664
   63MOL0     C 8606   8.103   2.185   5.725 -0.5507  0.5250 -0.1052
   63MOL0     N 8607   8.375   2.399   6.385 -0.5390  1.1899 -0.0466
   63MOL0     N 8608   8.451   2.316   6.457  0.6277  0.4672  0.2270
   63MOL0     C 8609   9.533   2.435   6.556 -1.5755  0.6945 -0.1117
   63MOL0     C 8610   9.624   2.384   6.469 -0.1403 -0.2133 -0.1246
   63MOL0     C 8611   9.942   2.268   6.161  0.8195 -0.4772 -0.1587
   63MOL0     C 8612   9.878   2.266   6.035 -0.3492 -0.2273  0.2576
   63MOL0     C 8613   9.947   2.209   5.931 -0.0180  0.0793 -0.2123
   63MOL0     C 8614  10.074   2.167   5.943 -0.1648  1.8718  0.9971
   63MOL0     O 8615  10.144   2.103   5.836  0.2144 -0.2931 -0.5188
   63MOL0     C 8616  10.225   2.193   5.757 -0.4027  0.3098 -0.5974
   63MOL0     C 8617  10.194   2.191   5.605  0.1010 -0.2515 -0.1430
   63MOL0     C 8618  10.061   2.248   5.571  0.8257  0.0718  0.4934
   63MOL0     C 8619  10.033   2.230   5.424  0.9557 -0.3409 -0.7480
   63MOL0     C 8620   9.892   2.263   5.392  0.0675  1.2678 -0.6308
   63MOL0     C 8621   9.774   2.292   5.393 -0.4681 -0.2456  0.3953
   63MOL0     C 8622  10.145   2.173   6.059  1.0146  0.8031 -0.5279
   63MOL0     C 8623  10.082   2.226   6.182  0.2830  0.3296  0.0259
   63MOL0     C 8624  10.152   2.224   6.312  1.4681 -1.0299 -1.5060
   63MOL0     H 8625   9.654   2.638   6.243 -0.4445  1.2614 -0.5966
   63MOL0     H 8626   9.486   2.732   6.401  1.2892  0.6101 -0.4480
   63MOL0     H 8627   9.239   2.652   6.515  2.5080 -0.8527 -0.0076
   63MOL0     H 8628   9.294   2.786   6.612  0.7820 -0.2790 -2.2123
   63MOL0     H 8629   9.171   2.521   6.721  1.3266 -0.2859 -1.5165
   63MOL0     H 8630   9.229   2.652   6.825  1.2714 -0.7302 -0.3813
   63MOL0     H 8631   8.990   2.672   6.811 -0.6234 -0.4875 -0.4342
   63MOL0     H 8632   9.056   2.801   6.715  2.2565 -0.3708 -1.3310
   63MOL0     H 8633   8.870   2.694   6.604  1.3642  3.4468  1.2660
   63MOL0     H 8634   9.005   2.657   6.499 -1.2662 -0.6148 -1.1214
   63MOL0     H 8635   8.890   2.464   6.721  1.7870 -0.8227 -0.0403
   63MOL0     H 8636   9.010   2.428   6.602  0.7403  0.4074 -0.5188
   63MOL0     H 8637   8.723   2.520   6.539 -0.5353  0.0669  2.3985
   63MOL0     H 8638   8.848   2.451   6.433  1.6101 -1.5575  1.0834
   63MOL0     H 8639   8.672   2.342   6.642  1.1580  0.8208  1.8749
   63MOL0     H 8640   8.821   2.246   6.612  1.0597  0.9636 -0.9352
   63MOL0     H 8641   8.751   2.252   6.350 -1.5385  0.5811 -0.6415
   63MOL0     H 8642   8.659   2.152   6.453  2.9269 -2.0280  2.5824
   63MOL0     H 8643   8.654   2.466   6.245 -0.2151  0.8270 -0.0130
   63MOL0     H 8644   8.438   2.633   6.167  0.0808 -0.5299  0.1751
   63MOL0     H 8645   8.282   2.571   6.195 -1.4901 -2.0495 -1.4905
   63MOL0     H 8646   8.489   2.452   5.997  0.2236 -0.6541  0.1787
   63MOL0     H 8647   8.376   2.349   6.063  1.3187 -0.7935 -0.0144
   63MOL0     H 8648   8.194   2.547   5.995  0.3995  0.6020  0.4197
   63MOL0     H 8649   8.340   2.594   5.893  3.7318 -2.5670 -0.1242
   63MOL0     H 8650   8.179   2.439   5.763  2.7841 -0.7080 -2.6933
   63MOL0     H 8651   8.324   2.347   5.813  0.5095  0.1687  1.0965
   63MOL0     H 8652   7.946   2.190   6.022  0.8733  0.3087 -0.5574
   63MOL0     H 8653   7.724   1.949   5.855 -0.4299 -1.8937  0.4625
   63MOL0     H 8654   7.731   2.044   6.010  4.1040  0.5624  1.7412
   63MOL0     H 8655   7.836   1.901   5.993  0.9397  2.6813  2.9419
   63MOL0     H 8656   7.517   1.917   5.588  0.8297 -1.2118  1.4601
   63MOL0     H 8657   7.389   1.728   5.486 -0.0232 -3.2819 -1.2641
   63MOL0     H 8658   7.409   1.506   5.524 -2.0088 -0.5173  1.0141
   63MOL0     H 8659   7.290   1.515   5.400  0.0928  0.5225  1.7334
   63MOL0     H 8660   7.477   1.289   5.453  0.0079  2.8228  0.9480
   63MOL0     H 8661   7.308   1.280   5.462 -1.2173 -1.9007 -2.7759
   63MOL0     H 8662   7.389   1.361   5.183 -1.3556 -0.2804 -0.9202
   63MOL0     H 8663   7.280   1.226   5.242 -0.9927  0.3241 -0.9138
   63MOL0     H 8664   7.499   1.119   5.317 -2.2616 -4.2369 -2.8354
   63MOL0     H 8665   7.581   1.244   5.203  0.6037 -0.4530 -3.0358
   63MOL0     H 8666   7.372   1.076   5.075 -0.2946  0.1146  0.9029
   63MOL0     H 8667   7.530   1.152   5.022 -0.9585  0.2967 -0.5523
   63MOL0     H 8668   7.574   0.927   4.997 -0.7011  0.9154 -0.9627
   63MOL0     H 8669   7.506   0.894   5.160  0.3096 -0.9899 -0.3809
   63MOL0     H 8670   7.706   1.051   5.235  1.2252  0.0364 -0.7374
   63MOL0     H 8671   7.748   1.025   5.062 -0.8803 -0.1226 -1.2042
   63MOL0     H 8672   7.881   0.861   5.194 -0.0995 -0.2556  0.1745
   63MOL0     H 8673   7.764   0.781   5.092 -0.0097  3.6292 -3.6683
   63MOL0     H 8674   7.730   1.581   5.286  0.0655  0.1764  0.0293
   63MOL0     H 8675   7.866   1.749   5.399 -0.5737 -0.0162  4.6422
   63MOL0     H 8676   8.045   2.086   5.552  1.7828 -0.3698  1.2087
   63MOL0     H 8677   8.187   2.231   5.674  0.3439 -0.1531  0.7370
   63MOL0     H 8678   9.500   2.377   6.641 -5.6969  1.8943 -0.6476
   63MOL0     H 8679   9.655   2.286   6.505  0.6871 -0.1716 -0.6906
   63MOL0     H 8680   9.778   2.294   6.004  0.9980  2.5771 -1.9652
   63MOL0     H 8681   9.898   2.207   5.834  0.5287 -0.9511 -0.4774
   63MOL0     H 8682  10.215   2.298   5.787 -0.2066 -0.2903  1.8155
   63MOL0     H 8683  10.325   2.162   5.788 -1.0575 -0.2265  1.0784
   63MOL0     H 8684  10.188   2.092   5.559 -1.4448  0.2068 -0.9872
   63MOL0     H 8685  10.270   2.254   5.558 -0.9512  1.4086  0.3052
   63MOL0     H 8686   9.984   2.198   5.629 -0.7958  1.3057 -0.5081
   63MOL0     H 8687  10.046   2.356   5.584  3.0677  1.1566 -3.7247
   63MOL0     H 8688  10.043   2.123   5.406 -2.4409 -0.9603  0.2953
   63MOL0     H 8689  10.096   2.302   5.370 -1.7083  2.0864 -0.9165
   63MOL0     H 8690   9.672   2.324   5.390  0.7444  4.3173  0.2774
   63MOL0     H 8691  10.249   2.142   6.065  1.2700  1.5982 -0.6961
   63MOL0     H 8692  10.106   2.166   6.393 -0.1983  5.8278  3.2964
   63MOL0     H 8693  10.254   2.190   6.295  1.1802 -3.2406  0.6059
   63MOL0     H 8694  10.159   2.325   6.354  2.2689 -3.1773  4.5683
   64MOL0     O 8695   6.168   8.791   5.764 -0.5364  0.9199 -0.5653
   64MOL0     C 8696   6.249   8.716   5.827 -1.2347  0.3001 -0.0894
   64MOL0     O 8697   6.213   8.606   5.896 -0.0678 -0.1617 -0.6738
   64MOL0     C 8698   6.089   8.547   5.874  0.1214  0.1524 -0.3634
   64MOL0     C 8699   6.087   8.450   5.771 -0.0974 -0.9347 -0.2727
   64MOL0     C 8700   5.966   8.390   5.742  0.1172  0.5526  0.2237
   64MOL0     C 8701   5.848   8.422   5.809  1.0233  0.4227 -0.6960
   64MOL0     O 8702   5.746   8.330   5.784  0.2651  0.1685 -0.6206
   64MOL0     C 8703   5.641   8.384   5.711  0.6246 -0.3876  0.2341
   64MOL0     C 8704   5.524   8.268   5.720 -0.7733 -1.0672  0.0038
   64MOL0     C 8705   5.387   8.298   5.646  1.0951 -0.0064  0.5300
   64MOL0     C 8706   5.288   8.178   5.665 -0.2535  0.2610  0.4097
   64MOL0     C 8707   5.162   8.213   5.587  0.0873 -0.9451  0.1330
   64MOL0     C 8708   5.060   8.094   5.572 -0.0177  0.1471  0.0878
   64MOL0     C 8709   4.939   8.146   5.499 -0.5656 -0.6120 -0.2382
   64MOL0     C 8710   4.973   8.154   5.350 -0.0227 -0.4313 -0.0775
   64MOL0     N 8711   4.867   8.237   5.288 -0.3568 -0.6288  0.8311
   64MOL0     C 8712   4.902   8.356   5.225  0.3312 -0.4648  0.0888
   64MOL0     C 8713   4.786   8.405   5.176  0.7372 -0.8878  0.6677
   64MOL0     C 8714   4.777   8.530   5.096  0.5082  0.7951  0.4598
   64MOL0     C 8715   4.839   8.513   4.965  0.1358  0.1256  0.7384
   64MOL0     C 8716   4.748   8.457   4.853  0.2001 -0.3139  0.3575
   64MOL0     C 8717   4.834   8.433   4.715 -0.1813  0.3286 -0.1705
   64MOL0     O 8718   4.952   8.353   4.736  0.7749  0.9340 -0.1444
   64MOL0     C 8719   5.039   8.338   4.633 -0.1033 -0.4481 -0.0330
   64MOL0     C 8720   5.036   8.415   4.518  0.0360 -0.2186  0.1387
   64MOL0     C 8721   5.141   8.398   4.420  0.5139 -0.7105  0.0842
   64MOL0     C 8722   5.130   8.481   4.292  0.1320  0.1230  0.6392
   64MOL0     C 8723   5.243   8.302   4.427 -0.7712 -0.0893 -0.0506
   64MOL0     C 8724   5.353   8.268   4.330  0.1665  0.5343 -0.5653
   64MOL0     O 8725   5.370   8.352   4.219  0.7378  0.5723 -0.6258
   64MOL0     C 8726   5.491   8.344   4.154 -0.0836 -0.0623 -0.1456
   64MOL0     C 8727   5.474   8.284   4.030  0.1555  0.2417 -0.4017
   64MOL0     C 8728   5.572   8.271   3.934 -0.1797  0.8816 -0.2952
   64MOL0     C 8729   5.706   8.307   3.969 -0.5801 -0.2310 -0.1033
   64MOL0     O 8730   5.823   8.282   3.891 -0.4679  0.1272 -0.0843
   64MOL0     C 8731   5.817   8.256   3.746 -0.1883  0.3970  0.4092
   64MOL0     C 8732   5.933   8.271   3.655 -1.7468  0.0501  0.0810
   64MOL0     C 8733   6.063   8.188   3.690  1.1258 -0.0861 -0.2420
   64MOL0     C 8734   6.152   8.193   3.569 -0.0852  0.1817  0.6694
   64MOL0     C 8735   6.255   8.074   3.571  0.4003 -0.7424  1.0951
   64MOL0     C 8736   6.386   8.095   3.485 -0.3493 -0.8680 -0.0831
   64MOL0     C 8737   6.472   7.968   3.490 -0.7360  0.9412  0.3516
   64MOL0     C 8738   6.445   7.855   3.392  0.5447 -0.3271  0.9066
   64MOL0    Cl 8739   6.286   7.790   3.419  0.0337  0.1834  0.4733
   64MOL0     C 8740   5.716   8.378   4.098  0.2895  0.8269 -0.7204
   64MOL0     C 8741   5.613   8.401   4.185 -0.0506 -0.1001 -0.2801
   64MOL0     O 8742   5.420   8.170   4.350  1.0688  0.4316  0.2090
   64MOL0     C 8743   5.244   8.228   4.550 -0.4876 -1.1943  0.6265
   64MOL0     C 8744   5.132   8.239   4.644 -1.4438  0.1537 -0.2386
   64MOL0     N 8745   4.679   8.320   5.208  0.0770 -0.1529  0.5775
   64MOL0     N 8746   4.732   8.223   5.283 -0.7065  0.6294 -0.4441
   64MOL0     C 8747   5.849   8.517   5.913  0.7051 -0.8678  0.8477
   64MOL0     C 8748   5.972   8.582   5.939 -0.5389  0.3994  0.0333
   64MOL0     C 8749   6.393   8.752   5.818  0.1338 -0.2912  0.1671
   64MOL0     C 8750   6.483   8.656   5.873 -1.1619  0.0016 -0.1444
   64MOL0     C 8751   6.617   8.681   5.855  0.4782  0.4211 -0.4100
   64MOL0     C 8752   6.666   8.804   5.799 -0.0347 -0.2813  0.5693
   64MOL0     O 8753   6.795   8.837   5.788 -0.2818  0.3650  0.2756
   64MOL0     C 8754   6.905   8.748   5.825  0.1098  0.2382  0.7958
   64MOL0     C 8755   7.046   8.811   5.829  0.0520  0.7540  0.6394
   64MOL0     C 8756   7.077   8.875   5.690 -0.7039 -0.0660 -0.3585
   64MOL0     C 8757   7.204   8.963   5.705 -0.0940 -0.9466 -0.2367
   64MOL0     C 8758   7.320   8.878   5.732  0.0897 -0.8987 -0.1066
   64MOL0     C 8759   7.395   8.800   5.773  0.4243  0.6626  0.4606
   64MOL0     C 8760   6.579   8.893   5.747 -0.9165 -0.6543  0.3624
   64MOL0     C 8761   6.441   8.869   5.756 -0.1272  0.2516  0.7387
   64MOL0     C 8762   6.363   8.976   5.690 -0.6001  0.1985  0.2427
   64MOL0     H 8763   6.174   8.422   5.712 -0.0904 -5.0265  1.3814
   64MOL0     H 8764   5.969   8.313   5.667  0.2689  1.6914 -0.9735
   64MOL0     H 8765   5.657   8.404   5.605 -1.5842  1.2814  0.1603
   64MOL0     H 8766   5.608   8.474   5.764  1.8221  1.1546 -1.5152
   64MOL0     H 8767   5.566   8.178   5.675 -0.6259 -1.9687  1.8464
   64MOL0     H 8768   5.520   8.248   5.827  2.9749  0.5008  0.5690
   64MOL0     H 8769   5.343   8.387   5.691  2.0306  1.3302 -1.1092
   64MOL0     H 8770   5.397   8.329   5.542 -1.0016  1.8097  0.7837
   64MOL0     H 8771   5.340   8.091   5.625 -0.7620  0.9218 -1.8246
   64MOL0     H 8772   5.267   8.167   5.772 -0.1997  0.7163  0.4693
   64MOL0     H 8773   5.184   8.260   5.491  0.8793  0.6323  1.0447
   64MOL0     H 8774   5.111   8.287   5.649  5.2895  1.8934  1.6239
   64MOL0     H 8775   5.108   8.007   5.527 -0.2248 -1.0671  2.0766
   64MOL0     H 8776   5.028   8.059   5.671  0.2363 -0.4725 -0.0464
   64MOL0     H 8777   4.916   8.248   5.529  3.8762  0.4172  0.4354
   64MOL0     H 8778   4.851   8.085   5.519 -0.0830 -0.0454  4.9259
   64MOL0     H 8779   5.068   8.197   5.317  0.6039 -0.2771  1.8649
   64MOL0     H 8780   4.978   8.054   5.306 -0.9780  0.3463 -2.1305
   64MOL0     H 8781   5.008   8.380   5.223  0.3769 -0.5691  1.1190
   64MOL0     H 8782   4.838   8.611   5.137  0.8782  2.3694 -2.8392
   64MOL0     H 8783   4.678   8.576   5.087 -0.6599 -1.8478 -1.2865
   64MOL0     H 8784   4.868   8.616   4.945 -0.9911  0.5305  1.0949
   64MOL0     H 8785   4.936   8.463   4.966  0.7679  1.3448  1.0706
   64MOL0     H 8786   4.700   8.368   4.892 -2.5956  0.7999 -0.3091
   64MOL0     H 8787   4.666   8.529   4.841  0.2294 -0.6078 -2.2987
   64MOL0     H 8788   4.778   8.375   4.642  0.8949 -1.3201  0.2630
   64MOL0     H 8789   4.870   8.528   4.673  2.8914 -0.6187  0.0900
   64MOL0     H 8790   4.957   8.485   4.493  2.6971  2.4656 -1.3976
   64MOL0     H 8791   5.206   8.559   4.299  0.9529 -0.5847 -0.0908
   64MOL0     H 8792   5.033   8.533   4.286  0.5759  1.3063  2.8174
   64MOL0     H 8793   5.150   8.422   4.202  1.4319 -0.5540  1.3518
   64MOL0     H 8794   5.373   8.254   4.006 -0.1192  1.5687 -0.9691
   64MOL0     H 8795   5.549   8.222   3.840  2.0099 -2.6374  0.7894
   64MOL0     H 8796   5.776   8.155   3.735  3.3407 -1.1170 -0.0946
   64MOL0     H 8797   5.742   8.328   3.713  1.4765  3.4294  2.7970
   64MOL0     H 8798   5.904   8.257   3.550 -1.7968  0.5271  0.0289
   64MOL0     H 8799   5.958   8.378   3.664 -1.5637 -0.1241  1.9361
   64MOL0     H 8800   6.023   8.088   3.712 -2.2525  0.8319 -1.6137
   64MOL0     H 8801   6.097   8.227   3.787 -1.3022 -3.5630  2.2825
   64MOL0     H 8802   6.206   8.288   3.573  0.5149  0.1085 -2.9888
   64MOL0     H 8803   6.102   8.199   3.472  1.8763  4.6618 -0.2933
   64MOL0     H 8804   6.275   8.050   3.676 -3.4108  1.0616  2.3790
   64MOL0     H 8805   6.205   7.982   3.539  2.1390 -1.9377  1.6431
   64MOL0     H 8806   6.437   8.185   3.522 -2.7597  1.0381 -1.1335
   64MOL0     H 8807   6.344   8.111   3.386 -0.6402  1.4600  0.3728
   64MOL0     H 8808   6.471   7.912   3.585 -1.0326 -0.1100 -0.2489
   64MOL0     H 8809   6.577   7.997   3.481 -0.0519 -1.6588 -1.2303
   64MOL0     H 8810   6.535   7.797   3.412  1.2403 -0.5187 -2.2676
   64MOL0     H 8811   6.446   7.887   3.287 -0.7633 -1.9455  0.3413
   64MOL0     H 8812   5.819   8.391   4.129  0.4458 -3.2009  1.0975
   64MOL0     H 8813   5.637   8.452   4.278 -2.3959 -1.8558  1.4048
   64MOL0     H 8814   5.323   8.154   4.558 -2.6268 -3.4412  2.7984
   64MOL0     H 8815   5.149   8.178   4.732 -4.3329 -0.8775 -0.2993
   64MOL0     H 8816   5.756   8.537   5.964 -0.5995 -0.7842 -1.4327
   64MOL0     H 8817   5.970   8.666   6.007  0.7838  2.9552 -2.8535
   64MOL0     H 8818   6.452   8.568   5.928  1.7839 -1.5777 -0.8359
   64MOL0     H 8819   6.689   8.604   5.881  1.4344  2.4193  3.7204
   64MOL0     H 8820   6.882   8.710   5.925 -0.7483 -0.3689  0.3854
   64MOL0     H 8821   6.899   8.661   5.759 -1.9510 -0.6988  2.0818
   64MOL0     H 8822   7.122   8.745   5.872 -0.7217 -2.2355 -2.1466
   64MOL0     H 8823   7.020   8.895   5.894 -1.0559  1.2739 -0.4229
   64MOL0     H 8824   7.098   8.789   5.625  0.7260  0.5744 -0.7919
   64MOL0     H 8825   6.990   8.928   5.651 -1.7452 -0.8246  0.8162
   64MOL0     H 8826   7.189   9.035   5.787 -3.1340 -0.7763 -0.7999
   64MOL0     H 8827   7.209   9.025   5.616 -3.1438 -0.0577  0.0903
   64MOL0     H 8828   7.449   8.712   5.803  1.7862  1.2670 -0.1613
   64MOL0     H 8829   6.621   8.971   5.684 -4.6785  0.6605 -0.8099
   64MOL0     H 8830   6.422   9.068   5.692 -0.3289  0.0297  1.9998
   64MOL0     H 8831   6.340   8.955   5.585  0.3197  2.6289 -0.5141
   64MOL0     H 8832   6.264   8.994   5.734 -1.0194 -2.2975  0.4735
   65MOL0     O 8833  10.758   6.736   5.915 -0.0026  0.4535 -1.0471
   65MOL0     C 8834  10.669   6.729   5.996  0.5421 -0.0306 -0.0290
   65MOL0     O 8835  10.583   6.826   6.028  0.3301 -0.3584  1.1162
   65MOL0     C 8836  10.593   6.961   5.979  0.4091 -0.1536 -0.3611
   65MOL0     C 8837  10.635   7.001   5.848  0.2055 -0.0209 -0.2469
   65MOL0     C 8838  10.627   7.133   5.810  0.9694  0.1846  0.2983
   65MOL0     C 8839  10.575   7.231   5.896 -0.2758  0.3499  0.4200
   65MOL0     O 8840  10.559   7.363   5.843 -0.1114  0.4652 -0.3631
   65MOL0     C 8841  10.553   7.478   5.930  0.3304 -0.5588 -0.3065
   65MOL0     C 8842  10.587   7.603   5.846 -0.2805 -0.4058 -0.0312
   65MOL0     C 8843  10.581   7.734   5.927  0.3900 -0.0870 -0.1565
   65MOL0     C 8844  10.697   7.826   5.879 -0.2007  0.7190 -0.4144
   65MOL0     C 8845  10.692   7.964   5.953 -0.2704  1.4670  0.3972
   65MOL0     C 8846  10.746   8.070   5.852 -0.9820 -0.0350 -0.5985
   65MOL0     C 8847  10.738   8.215   5.910 -0.0505 -0.0739  0.3212
   65MOL0     C 8848  10.770   8.318   5.809 -0.3386 -0.3227  0.1552
   65MOL0     N 8849  10.896   8.288   5.740 -0.9535 -0.2994  0.2505
   65MOL0     C 8850  10.933   8.220   5.625 -0.1672 -0.0731 -0.0577
   65MOL0     C 8851  11.065   8.186   5.629  0.2733  0.6374 -1.0188
   65MOL0     C 8852  11.138   8.102   5.529 -0.5549 -0.1438 -0.0790
   65MOL0     C 8853  11.202   7.979   5.589 -0.9026  0.4425 -0.3064
   65MOL0     C 8854  11.097   7.872   5.651 -0.0702 -0.8651 -0.5511
   65MOL0     C 8855  11.156   7.752   5.730  0.3167 -0.3132 -0.2510
   65MOL0     O 8856  11.217   7.785   5.860 -0.4600  0.9904  0.6373
   65MOL0     C 8857  11.291   7.679   5.919 -0.0945 -0.4483  0.3004
   65MOL0     C 8858  11.408   7.712   5.993  0.7188 -0.7592 -1.0996
   65MOL0     C 8859  11.498   7.614   6.053 -1.1481  0.3311  0.7628
   65MOL0     C 8860  11.617   7.659   6.121 -0.7173 -0.3632 -0.6357
   65MOL0     C 8861  11.475   7.479   6.025 -0.9221  0.3884 -0.7802
   65MOL0     C 8862  11.561   7.373   6.079 -0.4317 -0.0463  0.0407
   65MOL0     O 8863  11.656   7.396   6.181 -0.3306 -0.7883  0.7275
   65MOL0     C 8864  11.734   7.292   6.216 -0.9955  1.3500  0.4557
   65MOL0     C 8865  11.857   7.251   6.150 -0.3780  0.0063 -0.7290
   65MOL0     C 8866  11.933   7.145   6.205 -0.4909  0.0972  0.1413
   65MOL0     C 8867  11.894   7.075   6.323 -0.1017  0.3193 -0.6670
   65MOL0     O 8868  11.962   6.974   6.379  0.5206 -0.4356  0.0112
   65MOL0     C 8869  12.082   7.012   6.447 -0.1364 -0.5650 -0.0416
   65MOL0     C 8870  12.193   6.905   6.477  0.2511 -0.3286  0.8650
   65MOL0     C 8871  12.132   6.775   6.538  0.6223  0.0143  1.1481
   65MOL0     C 8872  12.123   6.658   6.443  0.0349 -0.0079  0.0417
   65MOL0     C 8873  12.104   6.522   6.523  0.2958 -1.1871 -0.6574
   65MOL0     C 8874  12.238   6.484   6.597 -1.0647  0.8475 -0.6065
   65MOL0     C 8875  12.220   6.344   6.667  0.0101  0.2816 -1.2119
   65MOL0     C 8876  12.359   6.312   6.726  0.4069 -0.0512  0.4623
   65MOL0    Cl 8877  12.345   6.136   6.761 -0.0376  0.5441  0.6484
   65MOL0     C 8878  11.767   7.112   6.371  0.0841 -0.6306 -1.0332
   65MOL0     C 8879  11.688   7.215   6.322 -0.2030 -0.1738 -0.0541
   65MOL0     O 8880  11.533   7.266   6.022 -0.1658  1.0661 -0.8019
   65MOL0     C 8881  11.364   7.448   5.947 -0.3397 -0.5839  0.9391
   65MOL0     C 8882  11.288   7.542   5.892  1.2706 -0.9252 -0.9195
   65MOL0     N 8883  11.113   8.253   5.734 -0.3780  0.1324 -0.1135
   65MOL0     N 8884  11.007   8.316   5.801 -0.2432 -0.6893 -0.3563
   65MOL0     C 8885  10.547   7.198   6.027 -0.5983 -0.7398  0.1548
   65MOL0     C 8886  10.542   7.064   6.056  0.3547 -0.3920  0.1317
   65MOL0     C 8887  10.640   6.604   6.077  0.7703 -0.3808 -0.7257
   65MOL0     C 8888  10.506   6.573   6.103 -0.2170  0.3882  1.4567
   65MOL0     C 8889  10.460   6.445   6.147 -0.0037  0.0364 -0.9557
   65MOL0     C 8890  10.556   6.348   6.181 -0.0236 -0.4646  0.7118
   65MOL0     O 8891  10.539   6.229   6.233 -0.6831  0.4707  0.6069
   65MOL0     C 8892  10.407   6.183   6.274 -0.3813  0.2694 -0.4480
   65MOL0     C 8893  10.339   6.122   6.153 -0.2071  0.5430 -0.2191
   65MOL0     C 8894  10.425   6.024   6.066  0.3964 -1.3413 -0.4244
   65MOL0     C 8895  10.361   5.978   5.937  0.4657 -1.1220 -0.4533
   65MOL0     C 8896  10.243   5.901   5.978  0.9669 -0.5212 -0.2237
   65MOL0     C 8897  10.129   5.866   6.012 -0.1649  0.2377 -1.3795
   65MOL0     C 8898  10.693   6.388   6.183  0.6298 -0.3595 -0.3579
   65MOL0     C 8899  10.739   6.504   6.112 -0.6039 -0.5257 -0.1025
   65MOL0     C 8900  10.887   6.511   6.082 -0.0139  0.2368  0.9266
   65MOL0     H 8901  10.679   6.925   5.784 -0.3600 -0.2395 -0.3827
   65MOL0     H 8902  10.665   7.173   5.717  0.5733  2.7063  1.1463
   65MOL0     H 8903  10.622   7.469   6.014 -3.1777  1.7838  3.2165
   65MOL0     H 8904  10.452   7.475   5.972  0.9661 -0.0323  1.3313
   65MOL0     H 8905  10.683   7.577   5.803 -0.9318 -2.7631 -0.1584
   65MOL0     H 8906  10.529   7.614   5.754 -0.9287  1.2556  0.5233
   65MOL0     H 8907  10.481   7.777   5.915  0.6482  0.4539 -0.4133
   65MOL0     H 8908  10.587   7.716   6.035 -1.3393 -0.2464 -0.0683
   65MOL0     H 8909  10.791   7.772   5.889 -1.8357 -2.9164 -2.7642
   65MOL0     H 8910  10.702   7.846   5.772 -0.8710  0.0873 -0.5699
   65MOL0     H 8911  10.742   7.954   6.050 -2.8759  0.9036  1.7868
   65MOL0     H 8912  10.590   7.991   5.980 -1.0109 -1.4425  0.9122
   65MOL0     H 8913  10.851   8.046   5.832 -1.6494 -3.1083 -0.8401
   65MOL0     H 8914  10.690   8.074   5.757  1.9498  1.8698 -2.4078
   65MOL0     H 8915  10.806   8.228   5.994  3.6927 -0.3827 -2.4412
   65MOL0     H 8916  10.642   8.245   5.955  0.3210  0.6043  0.6759
   65MOL0     H 8917  10.688   8.320   5.736 -0.1514 -1.0075 -0.0813
   65MOL0     H 8918  10.777   8.414   5.860  0.3635  0.0928 -0.7039
   65MOL0     H 8919  10.871   8.178   5.546 -0.8063 -4.0068  2.2765
   65MOL0     H 8920  11.226   8.158   5.496 -0.7220 -0.1918 -0.6116
   65MOL0     H 8921  11.085   8.088   5.434  3.4770 -0.0132 -2.5941
   65MOL0     H 8922  11.256   7.920   5.514  0.4212  0.9913  0.1827
   65MOL0     H 8923  11.266   8.003   5.674 -1.3182  3.0737 -0.6516
   65MOL0     H 8924  11.032   7.920   5.724  1.4617 -0.7619  0.8000
   65MOL0     H 8925  11.031   7.827   5.576  0.4711 -2.9590  0.1456
   65MOL0     H 8926  11.076   7.680   5.746  1.7368 -1.5872  1.5443
   65MOL0     H 8927  11.238   7.705   5.675  0.0830  1.1716 -1.9732
   65MOL0     H 8928  11.417   7.818   6.017 -2.6118 -0.3598 -1.1168
   65MOL0     H 8929  11.590   7.639   6.225  0.7948 -3.5389 -0.7665
   65MOL0     H 8930  11.640   7.765   6.106  2.0647 -0.9099 -0.7914
   65MOL0     H 8931  11.705   7.601   6.094 -0.4955 -0.2179 -0.2415
   65MOL0     H 8932  11.870   7.301   6.055  0.8285  1.0052 -0.0677
   65MOL0     H 8933  12.015   7.103   6.147  0.7663  3.5280 -0.7939
   65MOL0     H 8934  12.138   7.084   6.386  1.4183  0.3010  2.2485
   65MOL0     H 8935  12.047   7.045   6.545 -0.1361  0.9381 -0.5299
   65MOL0     H 8936  12.252   6.893   6.386  0.7809  1.6590  0.8974
   65MOL0     H 8937  12.264   6.946   6.549  0.0029 -1.2540  1.6546
   65MOL0     H 8938  12.037   6.777   6.592  1.1336 -2.3056  2.2823
   65MOL0     H 8939  12.201   6.740   6.616  0.5575 -1.0683  0.7265
   65MOL0     H 8940  12.218   6.670   6.389 -0.1416  1.7064  0.0523
   65MOL0     H 8941  12.044   6.664   6.367 -2.5168  2.5046  2.6382
   65MOL0     H 8942  12.017   6.537   6.587  2.2471  1.1988  1.6449
   65MOL0     H 8943  12.082   6.452   6.441 -3.5323 -2.0842  0.9437
   65MOL0     H 8944  12.262   6.543   6.686 -1.8573  2.4000 -1.3844
   65MOL0     H 8945  12.321   6.470   6.527 -3.1516 -1.3407 -2.8534
   65MOL0     H 8946  12.200   6.263   6.597 -3.5100 -2.2985  2.3239
   65MOL0     H 8947  12.150   6.335   6.751  1.3062 -4.4194 -0.3374
   65MOL0     H 8948  12.369   6.367   6.820  0.7156 -1.4152  1.2579
   65MOL0     H 8949  12.435   6.334   6.650  1.3477 -2.6674  0.5421
   65MOL0     H 8950  11.724   7.064   6.458  0.2029  1.7524  0.4133
   65MOL0     H 8951  11.588   7.221   6.365  0.0136  1.8900  0.2413
   65MOL0     H 8952  11.339   7.354   5.898 -2.9406  0.7531 -0.4917
   65MOL0     H 8953  11.212   7.502   5.825  2.2713  0.3759 -2.9380
   65MOL0     H 8954  10.514   7.278   6.093  0.3645 -0.2066  0.0090
   65MOL0     H 8955  10.488   7.036   6.146  2.7475 -1.1145  1.4456
   65MOL0     H 8956  10.421   6.634   6.072 -1.6657 -2.1975 -0.0104
   65MOL0     H 8957  10.360   6.409   6.170  0.1273  1.5628  2.7381
   65MOL0     H 8958  10.419   6.100   6.344 -1.9170  0.4120  0.0009
   65MOL0     H 8959  10.358   6.267   6.324  0.6800  0.4409  0.3417
   65MOL0     H 8960  10.311   6.204   6.087  0.0346  1.0181  0.2600
   65MOL0     H 8961  10.241   6.087   6.188 -0.4195  3.0715  2.1278
   65MOL0     H 8962  10.526   6.065   6.057  0.1653  0.1063  2.3115
   65MOL0     H 8963  10.425   5.933   6.127 -0.0545 -0.5858  0.7313
   65MOL0     H 8964  10.430   5.925   5.871  1.6327  0.5573 -0.6304
   65MOL0     H 8965  10.320   6.073   5.901 -0.3426 -1.5649 -0.7417
   65MOL0     H 8966  10.037   5.835   6.057 -0.3131  2.4762  0.0132
   65MOL0     H 8967  10.770   6.313   6.203  1.8195  1.2050  1.4094
   65MOL0     H 8968  10.897   6.502   5.974 -1.1211 -4.1767  0.9902
   65MOL0     H 8969  10.932   6.602   6.122  3.4513 -1.1316  0.4408
   65MOL0     H 8970  10.928   6.421   6.129 -1.1702 -0.9727 -0.2872
   66MOL0     O 8971   0.660   3.004   7.077 -0.8137 -0.5071 -0.6446
   66MOL0     C 8972   0.677   2.978   7.191  0.3971 -0.1339  0.4706
   66MOL0     O 8973   0.788   2.993   7.256 -0.2917 -0.3122 -0.5822
   66MOL0     C 8974   0.901   3.036   7.177 -0.5978 -0.5693 -0.5751
   66MOL0     C 8975   0.909   3.155   7.097  0.6211 -1.0416 -0.1238
   66MOL0     C 8976   1.029   3.192   7.035  0.3377 -0.6169 -0.2154
   66MOL0     C 8977   1.145   3.112   7.045  0.3520 -1.2440 -1.7419
   66MOL0     O 8978   1.268   3.142   7.004 -0.2165  0.7938 -0.7458
   66MOL0     C 8979   1.310   3.278   7.025  0.6238 -0.1071  1.0380
   66MOL0     C 8980   1.469   3.284   7.009  0.2856  0.9593 -0.1028
   66MOL0     C 8981   1.525   3.419   7.019  0.9405  0.3851 -0.6366
   66MOL0     C 8982   1.516   3.484   7.162  0.7169 -0.2110  0.2919
   66MOL0     C 8983   1.610   3.612   7.154  0.1695 -0.6412 -0.1108
   66MOL0     C 8984   1.578   3.718   7.254  1.2829 -0.6595 -0.2384
   66MOL0     C 8985   1.648   3.683   7.388  0.4085  0.0720  0.2055
   66MOL0     C 8986   1.802   3.712   7.374 -0.0381  0.0523 -0.6738
   66MOL0     N 8987   1.863   3.732   7.505 -1.0117 -0.5135 -0.9121
   66MOL0     C 8988   1.901   3.855   7.551 -0.4499  0.2017  0.9972
   66MOL0     C 8989   2.004   3.825   7.640  1.0340 -0.1808  0.4235
   66MOL0     C 8990   2.103   3.919   7.692  0.1993 -0.2523 -0.9567
   66MOL0     C 8991   2.239   3.891   7.637  0.7576 -0.0454 -0.0339
   66MOL0     C 8992   2.264   3.931   7.492  0.5564  0.0426  0.6417
   66MOL0     C 8993   2.408   3.896   7.462 -0.7923 -0.1980  0.0364
   66MOL0     O 8994   2.420   3.861   7.325 -0.5896  0.2326 -0.0183
   66MOL0     C 8995   2.530   3.786   7.288  0.7032 -0.4023  0.0704
   66MOL0     C 8996   2.521   3.751   7.153 -0.3207 -0.2440  0.8680
   66MOL0     C 8997   2.635   3.686   7.088  0.3685 -0.3382  0.0394
   66MOL0     C 8998   2.624   3.671   6.937 -0.1791  0.1993  0.8863
   66MOL0     C 8999   2.741   3.667   7.160 -0.4279 -0.3193  0.1816
   66MOL0     C 9000   2.858   3.613   7.095 -0.3904  0.2909 -0.0487
   66MOL0     O 9001   2.872   3.482   7.109 -0.2115 -0.5764  0.0752
   66MOL0     C 9002   2.995   3.419   7.089 -1.1034  0.3435  0.1285
   66MOL0     C 9003   3.077   3.399   7.197 -0.4587 -0.7264 -0.8412
   66MOL0     C 9004   3.189   3.322   7.193  0.0118 -0.9393 -0.8191
   66MOL0     C 9005   3.219   3.245   7.080 -0.5786 -0.2379  0.7521
   66MOL0     O 9006   3.333   3.160   7.082  0.0523 -0.3639 -0.0663
   66MOL0     C 9007   3.362   3.078   6.963 -0.4015  0.3818 -0.9158
   66MOL0     C 9008   3.485   2.997   7.011 -0.4420  0.8835 -0.0298
   66MOL0     C 9009   3.509   2.863   6.926 -0.4071 -0.0716  0.4969
   66MOL0     C 9010   3.503   2.909   6.781 -1.6022 -0.4542  0.0537
   66MOL0     C 9011   3.567   2.799   6.687  0.9897 -0.1281  0.1185
   66MOL0     C 9012   3.485   2.660   6.660  0.8276 -0.2684  0.0153
   66MOL0     C 9013   3.553   2.563   6.568 -0.0341 -0.0671 -0.0750
   66MOL0     C 9014   3.485   2.431   6.549  0.2811 -0.1436 -0.2220
   66MOL0    Cl 9015   3.316   2.431   6.477  0.2237 -0.4034  0.5372
   66MOL0     C 9016   3.135   3.256   6.964 -0.5328  0.0604 -0.8749
   66MOL0     C 9017   3.018   3.345   6.974  0.2844  0.7537 -0.0253
   66MOL0     O 9018   2.937   3.689   7.047  0.2028 -0.3883 -0.8506
   66MOL0     C 9019   2.753   3.712   7.288  0.0998 -0.0341 -0.5014
   66MOL0     C 9020   2.651   3.765   7.356 -0.1384  0.4585  0.5715
   66MOL0     N 9021   1.994   3.689   7.661  0.5789  0.0282 -0.5099
   66MOL0     N 9022   1.928   3.636   7.562 -0.6471 -0.5811 -0.5558
   66MOL0     C 9023   1.127   2.996   7.117  0.2592  0.6532  0.5196
   66MOL0     C 9024   1.010   2.962   7.183 -0.7880 -0.7022 -0.2391
   66MOL0     C 9025   0.561   2.931   7.279 -1.0826 -0.7923 -1.2616
   66MOL0     C 9026   0.610   2.855   7.399  0.3949  0.1565  0.2760
   66MOL0     C 9027   0.518   2.800   7.488  0.0709  0.1322 -0.5540
   66MOL0     C 9028   0.382   2.819   7.467 -0.2319 -0.1500  0.5372
   66MOL0     O 9029   0.282   2.771   7.551 -0.4302 -0.2652 -0.0624
   66MOL0     C 9030   0.288   2.635   7.600  0.1594 -0.3650 -0.5095
   66MOL0     C 9031   0.207   2.541   7.507  0.2742  0.3364  0.1863
   66MOL0     C 9032   0.053   2.561   7.523 -1.3719  0.1557 -0.1202
   66MOL0     C 9033   0.007   2.648   7.410 -1.4272  0.7321 -0.3441
   66MOL0     C 9034  -0.139   2.641   7.409 -0.6602 -0.2229  0.2389
   66MOL0     C 9035  -0.257   2.645   7.399 -0.4985  0.1597 -0.1351
   66MOL0     C 9036   0.335   2.887   7.356  0.1763  0.1764  0.4946
   66MOL0     C 9037   0.420   2.940   7.259 -0.7842 -0.2862  0.0618
   66MOL0     C 9038   0.356   3.010   7.141 -0.3920 -0.0061 -0.6212
   66MOL0     H 9039   0.810   3.200   7.093  0.1889 -1.9670 -0.1213
   66MOL0     H 9040   1.015   3.283   6.978 -1.7624 -1.5867 -1.3852
   66MOL0     H 9041   1.275   3.323   7.118 -0.2030  2.7731 -0.5140
   66MOL0     H 9042   1.267   3.329   6.938 -1.1582 -1.1062  1.3007
   66MOL0     H 9043   1.508   3.220   7.089  1.0755  1.6321  0.0736
   66MOL0     H 9044   1.517   3.238   6.922 -1.8292  0.8124 -1.2607
   66MOL0     H 9045   1.627   3.421   6.977  1.6000 -2.5087  0.5817
   66MOL0     H 9046   1.460   3.473   6.950 -1.7891 -2.8973 -0.9271
   66MOL0     H 9047   1.419   3.510   7.206  0.7243 -0.1866  0.2943
   66MOL0     H 9048   1.561   3.420   7.239 -0.4615  0.2640  1.4229
   66MOL0     H 9049   1.591   3.657   7.056  2.5888 -1.5139 -1.0532
   66MOL0     H 9050   1.716   3.586   7.145  0.4326  0.7655 -1.3933
   66MOL0     H 9051   1.608   3.817   7.219 -0.6067 -0.5889 -1.8494
   66MOL0     H 9052   1.470   3.727   7.272  1.5309 -0.2641  1.1342
   66MOL0     H 9053   1.627   3.577   7.409  0.0052 -0.4222 -2.3652
   66MOL0     H 9054   1.609   3.743   7.471  0.6232  0.2063  0.2073
   66MOL0     H 9055   1.853   3.632   7.319  0.7352 -0.7582  1.1222
   66MOL0     H 9056   1.811   3.798   7.307 -2.5878 -0.7758 -2.2216
   66MOL0     H 9057   1.869   3.949   7.508 -0.4589  0.3921  1.4146
   66MOL0     H 9058   2.106   3.919   7.801  0.0342 -0.6377 -0.9516
   66MOL0     H 9059   2.066   4.016   7.657 -0.2278 -0.1713 -0.2888
   66MOL0     H 9060   2.317   3.940   7.695  0.6877  2.9962 -2.2732
   66MOL0     H 9061   2.243   3.782   7.626  2.3745 -0.0570  0.4726
   66MOL0     H 9062   2.195   3.886   7.419 -1.1842  2.2564  0.8293
   66MOL0     H 9063   2.251   4.038   7.476  4.1654  0.4778 -0.2969
   66MOL0     H 9064   2.474   3.979   7.489 -0.8878 -1.2481  4.0754
   66MOL0     H 9065   2.435   3.812   7.526 -0.0912 -1.4884 -1.8445
   66MOL0     H 9066   2.451   3.787   7.078  1.4437 -0.6153 -1.0375
   66MOL0     H 9067   2.606   3.565   6.917  2.5875  0.0696 -1.7510
   66MOL0     H 9068   2.720   3.694   6.890 -0.1188 -2.5413 -0.5677
   66MOL0     H 9069   2.549   3.741   6.898 -0.3086 -0.8130 -0.8122
   66MOL0     H 9070   3.066   3.462   7.285  3.0339  1.7785 -1.9960
   66MOL0     H 9071   3.263   3.333   7.273 -1.2112 -0.9768  0.3523
   66MOL0     H 9072   3.278   3.012   6.938  0.7021 -0.9446 -1.2964
   66MOL0     H 9073   3.392   3.133   6.873  2.0009 -2.3887 -1.9924
   66MOL0     H 9074   3.574   3.059   7.028 -1.3641  1.5082  3.4091
   66MOL0     H 9075   3.477   2.948   7.109  2.0862 -1.5640 -0.9148
   66MOL0     H 9076   3.425   2.795   6.943 -2.1561  1.1541 -2.3997
   66MOL0     H 9077   3.601   2.808   6.945  1.2690  2.2139 -0.5786
   66MOL0     H 9078   3.579   2.988   6.776 -0.3786 -1.3264  2.9392
   66MOL0     H 9079   3.402   2.936   6.751 -2.0430 -1.7764  0.2809
   66MOL0     H 9080   3.573   2.846   6.589 -1.7838  1.6441  0.6711
   66MOL0     H 9081   3.672   2.775   6.706  0.3814 -1.7283  1.7244
   66MOL0     H 9082   3.380   2.676   6.638 -0.3092 -1.1495  3.9462
   66MOL0     H 9083   3.488   2.607   6.756  1.6300  1.7700  1.1641
   66MOL0     H 9084   3.654   2.547   6.607  1.5644  1.3991 -3.2207
   66MOL0     H 9085   3.568   2.599   6.465 -0.7747 -1.2238 -0.6045
   66MOL0     H 9086   3.486   2.401   6.654  0.7180  2.0833  0.4604
   66MOL0     H 9087   3.535   2.360   6.482 -2.8492 -3.8524  0.9704
   66MOL0     H 9088   3.135   3.183   6.883 -2.4445 -1.6761  0.5753
   66MOL0     H 9089   2.941   3.351   6.897  2.0277 -0.8435 -2.0232
   66MOL0     H 9090   2.856   3.708   7.321 -0.1144  3.1691  0.9339
   66MOL0     H 9091   2.677   3.813   7.449  3.2613 -3.9406  2.2439
   66MOL0     H 9092   1.209   2.929   7.140 -0.0720 -0.5092 -1.4775
   66MOL0     H 9093   0.996   2.868   7.234 -0.1617 -1.2085 -0.9864
   66MOL0     H 9094   0.715   2.825   7.395 -0.6513 -4.0225 -0.1175
   66MOL0     H 9095   0.557   2.734   7.565  2.2900 -2.7947 -3.8629
   66MOL0     H 9096   0.389   2.590   7.599 -0.2846 -1.3973 -0.7813
   66MOL0     H 9097   0.239   2.627   7.697 -1.6030 -1.1315 -1.4324
   66MOL0     H 9098   0.231   2.436   7.527  1.0773  0.6408  0.9066
   66MOL0     H 9099   0.237   2.551   7.402 -1.1726  2.6531 -0.0704
   66MOL0     H 9100   0.005   2.463   7.525  0.2177 -0.6777 -0.7122
   66MOL0     H 9101   0.028   2.606   7.620 -0.9363  1.6552 -0.6750
   66MOL0     H 9102   0.034   2.604   7.314  1.4233  0.5760  0.4381
   66MOL0     H 9103   0.043   2.751   7.403  0.4092  0.1816  0.4774
   66MOL0     H 9104  -0.364   2.649   7.400 -0.6704 -2.4444 -0.1162
   66MOL0     H 9105   0.228   2.886   7.336  0.8630 -1.7043 -4.3766
   66MOL0     H 9106   0.344   3.116   7.163 -3.3969 -0.4300  0.3369
   66MOL0     H 9107   0.423   2.995   7.055 -0.3805  0.4836 -0.7009
   66MOL0     H 9108   0.260   2.960   7.121 -1.7690  0.8889  3.0141
   67MOL0     O 9109   2.196   3.876   5.406  0.3955 -0.7024 -0.6572
   67MOL0     C 9110   2.301   3.885   5.347  0.0213  0.5474 -0.7711
   67MOL0     O 9111   2.408   3.967   5.366  0.3272 -0.3704  0.0792
   67MOL0     C 9112   2.418   4.049   5.482  0.7059  0.7388 -0.8984
   67MOL0     C 9113   2.380   3.999   5.608  0.7525  0.2151 -0.7132
   67MOL0     C 9114   2.389   4.074   5.721  0.0221 -0.0064 -0.2122
   67MOL0     C 9115   2.436   4.198   5.709  0.2669 -0.5435  0.6478
   67MOL0     O 9116   2.457   4.288   5.816 -0.5117  0.6320  0.2014
   67MOL0     C 9117   2.415   4.253   5.949 -1.0296 -1.3220 -0.8841
   67MOL0     C 9118   2.383   4.380   6.035  0.4644 -0.4275 -0.5269
   67MOL0     C 9119   2.277   4.470   5.967 -0.6719  0.4179 -0.5158
   67MOL0     C 9120   2.260   4.599   6.035  0.3156 -0.4670  0.5878
   67MOL0     C 9121   2.151   4.674   5.958 -0.0145  0.1838 -0.1420
   67MOL0     C 9122   2.104   4.798   6.038 -0.1630 -0.1609 -0.0813
   67MOL0     C 9123   1.969   4.851   5.985  0.0438 -0.9115  0.3165
   67MOL0     C 9124   1.920   4.984   6.055 -0.5199 -0.2977  1.4159
   67MOL0     N 9125   1.787   5.025   6.002 -0.6827  0.9436 -0.5300
   67MOL0     C 9126   1.689   5.053   6.084  0.2452 -0.1405  0.1746
   67MOL0     C 9127   1.602   5.120   6.002 -1.0498  0.9750  0.3617
   67MOL0     C 9128   1.480   5.192   6.048 -0.4872 -0.2043  0.4926
   67MOL0     C 9129   1.525   5.324   6.116  0.2102 -0.0471  0.3745
   67MOL0     C 9130   1.402   5.399   6.159 -0.6687  1.6777  0.1046
   67MOL0     C 9131   1.418   5.548   6.169 -0.4631  0.8983  0.2940
   67MOL0     O 9132   1.291   5.617   6.172  0.4031 -0.7054  0.4987
   67MOL0     C 9133   1.208   5.608   6.282  0.0150  0.1690 -0.1495
   67MOL0     C 9134   1.076   5.545   6.258 -0.0532 -0.3762 -0.1206
   67MOL0     C 9135   0.986   5.549   6.360  0.3244  0.7042  0.3880
   67MOL0     C 9136   0.841   5.515   6.341  0.3236  0.8110 -1.1693
   67MOL0     C 9137   1.035   5.583   6.493 -0.0814 -0.4883 -0.0046
   67MOL0     C 9138   0.950   5.582   6.611 -0.2791 -0.0619  0.2528
   67MOL0     O 9139   0.834   5.653   6.593  0.3484 -0.3315  0.0948
   67MOL0     C 9140   0.742   5.659   6.694  0.2161 -0.0498 -0.6527
   67MOL0     C 9141   0.714   5.789   6.741  0.0982 -0.1585 -0.9086
   67MOL0     C 9142   0.621   5.802   6.842  0.0530 -0.0105  0.0938
   67MOL0     C 9143   0.563   5.697   6.902  0.3206  0.6468  0.6247
   67MOL0     O 9144   0.470   5.734   6.995 -0.0938 -0.3664  0.5907
   67MOL0     C 9145   0.347   5.660   6.986  0.3607 -1.2681  0.9620
   67MOL0     C 9146   0.252   5.730   7.090 -0.6769 -0.1892 -0.7298
   67MOL0     C 9147   0.122   5.662   7.124 -0.5950  0.8379  1.0335
   67MOL0     C 9148   0.019   5.695   7.023 -0.7393 -0.1222 -0.1251
   67MOL0     C 9149  -0.114   5.615   7.041  0.4088 -0.2029 -1.2882
   67MOL0     C 9150  -0.092   5.456   7.026 -0.1343  0.4740 -1.0596
   67MOL0     C 9151  -0.229   5.391   6.988  0.7392 -0.0455 -0.2683
   67MOL0     C 9152  -0.204   5.246   6.953  0.3822 -0.3107 -0.4716
   67MOL0    Cl 9153  -0.180   5.153   7.101 -0.0898  0.1854 -0.0225
   67MOL0     C 9154   0.600   5.568   6.859  0.7627 -0.1754 -1.2862
   67MOL0     C 9155   0.688   5.544   6.756  0.6946 -0.5860  1.5194
   67MOL0     O 9156   1.003   5.541   6.718  0.3766 -0.0587  0.6516
   67MOL0     C 9157   1.169   5.623   6.511  0.1400  0.0526  0.3043
   67MOL0     C 9158   1.264   5.638   6.410  0.1599 -0.5322 -0.0918
   67MOL0     N 9159   1.653   5.135   5.870  0.6735  0.2178 -0.7077
   67MOL0     N 9160   1.767   5.073   5.881  0.7887 -0.3356  0.0004
   67MOL0     C 9161   2.464   4.258   5.589  0.2771 -0.2631 -0.2878
   67MOL0     C 9162   2.457   4.185   5.475 -1.0393  0.4530  1.1231
   67MOL0     C 9163   2.309   3.792   5.221 -0.0028 -0.2743  0.4496
   67MOL0     C 9164   2.207   3.703   5.202 -0.1142 -0.9014  0.3599
   67MOL0     C 9165   2.202   3.609   5.100  0.1703  0.0156 -0.1858
   67MOL0     C 9166   2.294   3.616   4.996 -0.3404 -0.0090 -0.7328
   67MOL0     O 9167   2.292   3.522   4.890 -1.1253 -0.2345 -0.7658
   67MOL0     C 9168   2.168   3.497   4.826 -0.2411  0.1057 -0.2086
   67MOL0     C 9169   2.140   3.618   4.740 -0.1500 -0.5988 -0.9304
   67MOL0     C 9170   2.026   3.583   4.642 -0.2931 -0.3972 -0.5201
   67MOL0     C 9171   2.066   3.525   4.504  0.0973 -0.0525 -0.2409
   67MOL0     C 9172   2.138   3.397   4.516 -0.2989  0.8633 -0.0190
   67MOL0     C 9173   2.186   3.280   4.503 -0.6119  0.2096 -0.6538
   67MOL0     C 9174   2.412   3.685   5.020 -0.1911  1.0038  0.0145
   67MOL0     C 9175   2.425   3.780   5.127  0.2914  0.7083 -0.3258
   67MOL0     C 9176   2.548   3.866   5.142 -0.0628  0.2673  0.2089
   67MOL0     H 9177   2.330   3.903   5.619  0.0070  0.1576 -3.8732
   67MOL0     H 9178   2.361   4.018   5.810  0.6523 -1.7957 -1.0910
   67MOL0     H 9179   2.493   4.196   6.000 -1.2438  0.4795  1.6594
   67MOL0     H 9180   2.331   4.183   5.953 -1.5445 -0.6440  1.3089
   67MOL0     H 9181   2.339   4.339   6.127  3.9104  1.9178  2.4312
   67MOL0     H 9182   2.468   4.438   6.071  1.3417 -1.9257 -0.1292
   67MOL0     H 9183   2.313   4.496   5.867  2.4152  1.2538  0.6841
   67MOL0     H 9184   2.187   4.409   5.964  1.4669 -3.0433 -0.0802
   67MOL0     H 9185   2.228   4.585   6.138  4.5331 -0.8034  2.0368
   67MOL0     H 9186   2.350   4.662   6.028 -0.6719  1.1322  1.7066
   67MOL0     H 9187   2.060   4.621   5.927 -0.1929  0.6726 -0.4636
   67MOL0     H 9188   2.197   4.709   5.865  2.2790 -0.4552  0.6881
   67MOL0     H 9189   2.079   4.787   6.144 -0.1594 -0.5877 -0.1214
   67MOL0     H 9190   2.187   4.868   6.029 -1.1782  1.4033  1.9826
   67MOL0     H 9191   1.890   4.775   5.989 -2.3566  1.4344  0.6897
   67MOL0     H 9192   1.992   4.874   5.881  0.5962  0.4101  0.7128
   67MOL0     H 9193   1.911   4.966   6.162  2.9291 -2.5473  1.4726
   67MOL0     H 9194   1.995   5.062   6.045  2.1557 -2.6182  2.0860
   67MOL0     H 9195   1.678   5.033   6.191 -1.7992  0.9733  0.2198
   67MOL0     H 9196   1.413   5.133   6.112 -0.6383 -3.5635 -2.4620
   67MOL0     H 9197   1.420   5.223   5.962 -1.6376  0.5867  1.5534
   67MOL0     H 9198   1.596   5.302   6.196  1.9480  3.0415 -0.1499
   67MOL0     H 9199   1.574   5.386   6.040  1.0414 -3.7045 -2.4034
   67MOL0     H 9200   1.332   5.389   6.076 -1.0855  0.2271  0.5940
   67MOL0     H 9201   1.350   5.343   6.237 -1.4715  2.0681 -0.1397
   67MOL0     H 9202   1.490   5.589   6.240  0.2301  1.7743 -0.8812
   67MOL0     H 9203   1.453   5.590   6.074 -1.6829  1.5308  0.1045
   67MOL0     H 9204   1.048   5.521   6.156  1.7275 -3.5113 -0.0102
   67MOL0     H 9205   0.795   5.456   6.422 -1.3453  1.3221 -1.7141
   67MOL0     H 9206   0.825   5.457   6.250  0.2882 -0.8522 -0.1570
   67MOL0     H 9207   0.790   5.611   6.335  1.2073  1.8351  3.4387
   67MOL0     H 9208   0.768   5.872   6.696 -1.0603  0.1962 -1.7090
   67MOL0     H 9209   0.593   5.899   6.881  0.1586 -0.1237  0.4618
   67MOL0     H 9210   0.293   5.674   6.892 -0.9884  0.1018  1.9013
   67MOL0     H 9211   0.359   5.553   7.006 -0.8576 -1.1822  2.2762
   67MOL0     H 9212   0.309   5.736   7.184 -3.8617 -0.3699  1.3765
   67MOL0     H 9213   0.232   5.833   7.059  0.2022  0.4652  0.7569
   67MOL0     H 9214   0.079   5.700   7.218  1.2044  1.1618  1.7767
   67MOL0     H 9215   0.144   5.555   7.127  1.2070  1.1450  0.4191
   67MOL0     H 9216   0.050   5.673   6.920  0.3600  0.8246 -0.0180
   67MOL0     H 9217  -0.003   5.800   7.043  0.5932 -0.1361  1.6656
   67MOL0     H 9218  -0.137   5.629   7.147  4.4555 -2.6764  0.1524
   67MOL0     H 9219  -0.196   5.661   6.984 -0.3199  0.3539  0.1772
   67MOL0     H 9220  -0.053   5.419   7.121  0.2426  2.4537 -0.4101
   67MOL0     H 9221  -0.018   5.435   6.949  0.6489  0.6227 -0.3602
   67MOL0     H 9222  -0.281   5.433   6.902 -0.4242  0.7098  0.7668
   67MOL0     H 9223  -0.301   5.391   7.070 -0.5200  0.1630 -1.3487
   67MOL0     H 9224  -0.120   5.229   6.886  2.1242 -0.2916  1.5974
   67MOL0     H 9225  -0.280   5.194   6.895  0.7696 -0.6868 -0.6483
   67MOL0     H 9226   0.542   5.486   6.900  2.6838 -1.5746 -1.2389
   67MOL0     H 9227   0.703   5.442   6.722 -1.0529 -0.8983  1.6022
   67MOL0     H 9228   1.210   5.652   6.607  0.7952 -0.5746  0.2204
   67MOL0     H 9229   1.363   5.677   6.430  1.4078 -3.7784  0.6423
   67MOL0     H 9230   2.486   4.365   5.592 -1.0415  0.0225 -0.3854
   67MOL0     H 9231   2.488   4.219   5.377  0.1761  0.0507  1.3490
   67MOL0     H 9232   2.121   3.710   5.269 -1.7148  2.3351 -1.7382
   67MOL0     H 9233   2.117   3.542   5.099  0.5734 -0.6776  2.8927
   67MOL0     H 9234   2.162   3.405   4.768 -0.2925  0.7848 -1.3149
   67MOL0     H 9235   2.087   3.492   4.899  0.6348 -0.0715  0.7814
   67MOL0     H 9236   2.224   3.668   4.691  0.8051 -0.2526  0.9655
   67MOL0     H 9237   2.090   3.687   4.808 -1.0845 -0.9464 -1.2399
   67MOL0     H 9238   1.949   3.523   4.692 -1.7835  3.1784  1.9009
   67MOL0     H 9239   1.980   3.680   4.618  1.6681 -0.0478 -3.3010
   67MOL0     H 9240   2.135   3.597   4.458  1.2307 -0.2558  1.0550
   67MOL0     H 9241   1.973   3.514   4.448  0.2701 -0.3303 -0.4737
   67MOL0     H 9242   2.207   3.176   4.489 -1.5921 -0.3882  1.8276
   67MOL0     H 9243   2.475   3.670   4.933 -0.9255  1.6568 -0.6400
   67MOL0     H 9244   2.531   3.974   5.141  0.0472  0.3171  1.6122
   67MOL0     H 9245   2.609   3.838   5.228  1.2194 -0.3234 -0.8599
   67MOL0     H 9246   2.612   3.851   5.055 -1.9365 -0.0918 -1.1646
   68MOL0     O 9247   2.373   0.748   3.398  0.1453 -0.7073  0.0341
   68MOL0     C 9248   2.283   0.830   3.433 -0.2915  0.2025 -0.3851
   68MOL0     O 9249   2.295   0.963   3.430 -0.7177  0.2514  0.0430
   68MOL0     C 9250   2.408   1.029   3.386  0.9480  0.1494 -0.1603
   68MOL0     C 9251   2.467   1.011   3.262 -0.1536  0.8715 -0.5109
   68MOL0     C 9252   2.581   1.079   3.221 -0.5761  0.4728  0.1415
   68MOL0     C 9253   2.645   1.153   3.309  0.2530  0.9704 -0.6804
   68MOL0     O 9254   2.747   1.245   3.288  0.0693 -0.0188  0.2688
   68MOL0     C 9255   2.810   1.219   3.157  0.4189  0.6073 -0.3981
   68MOL0     C 9256   2.954   1.255   3.172  0.7029  0.5339  0.7502
   68MOL0     C 9257   3.036   1.166   3.274 -0.0871  0.6310  0.0280
   68MOL0     C 9258   3.190   1.170   3.262  0.8321 -0.2781  0.1440
   68MOL0     C 9259   3.249   1.313   3.261  0.5092 -0.3741 -0.1868
   68MOL0     C 9260   3.226   1.392   3.385  0.6324 -0.2874  0.0487
   68MOL0     C 9261   3.322   1.512   3.393  0.4996  0.4672  0.3534
   68MOL0     C 9262   3.245   1.647   3.376  0.3336 -0.3188  1.1587
   68MOL0     N 9263   3.212   1.668   3.240  0.9617  0.2324  0.3695
   68MOL0     C 9264   3.299   1.712   3.147  1.1511 -0.0051  0.2452
   68MOL0     C 9265   3.232   1.697   3.025 -1.5472 -0.8030 -0.7216
   68MOL0     C 9266   3.286   1.720   2.882  0.6418 -0.0674 -0.7470
   68MOL0     C 9267   3.284   1.581   2.813  0.0469  1.2023 -0.2215
   68MOL0     C 9268   3.347   1.618   2.677  0.3242 -0.4217 -0.2943
   68MOL0     C 9269   3.405   1.492   2.615 -0.0442 -0.2147 -0.1415
   68MOL0     O 9270   3.467   1.512   2.488 -0.1748  0.1834  0.5321
   68MOL0     C 9271   3.586   1.451   2.460  0.1205 -0.4177  0.1329
   68MOL0     C 9272   3.648   1.511   2.356  0.1881 -0.1061  0.4734
   68MOL0     C 9273   3.771   1.469   2.306 -0.7509  1.2302 -0.0897
   68MOL0     C 9274   3.822   1.572   2.203 -0.5199 -0.3607 -0.5961
   68MOL0     C 9275   3.843   1.361   2.370  0.1408 -0.1281  0.2740
   68MOL0     C 9276   3.978   1.320   2.327 -0.1398  0.1083 -0.0163
   68MOL0     O 9277   4.031   1.380   2.226  1.4175  0.3543 -0.2559
   68MOL0     C 9278   4.144   1.338   2.168  0.6786 -0.3025  0.4304
   68MOL0     C 9279   4.255   1.407   2.173 -1.0468 -0.4394  0.2926
   68MOL0     C 9280   4.362   1.364   2.097 -0.5750 -0.9779  0.1697
   68MOL0     C 9281   4.362   1.242   2.032 -0.6327  0.2539 -0.1896
   68MOL0     O 9282   4.476   1.195   1.968  0.4016 -0.3608 -0.4469
   68MOL0     C 9283   4.526   1.068   2.004  0.7339  0.3162 -0.2769
   68MOL0     C 9284   4.590   1.063   2.142 -0.0006 -0.5159  0.7808
   68MOL0     C 9285   4.627   0.928   2.192  0.4848  0.0814 -0.7650
   68MOL0     C 9286   4.757   0.877   2.127  0.5220 -1.0654 -0.5982
   68MOL0     C 9287   4.815   0.749   2.194 -0.3974  0.7226  0.3682
   68MOL0     C 9288   4.716   0.625   2.202  0.1189  0.1007 -0.5883
   68MOL0     C 9289   4.683   0.577   2.066 -0.1552 -0.3901 -0.0283
   68MOL0     C 9290   4.603   0.444   2.056  0.0418 -0.3083  0.2800
   68MOL0    Cl 9291   4.451   0.471   2.132  0.1284 -0.3503  0.1052
   68MOL0     C 9292   4.238   1.171   2.020  0.8124 -0.3803 -0.5929
   68MOL0     C 9293   4.134   1.215   2.095 -0.5243  0.0644 -0.8697
   68MOL0     O 9294   4.037   1.229   2.389  0.4064 -0.1107  1.0056
   68MOL0     C 9295   3.774   1.287   2.477  0.4904  0.4938 -0.1751
   68MOL0     C 9296   3.641   1.334   2.519  0.1709 -0.3178  2.1499
   68MOL0     N 9297   3.107   1.648   3.063 -0.1573 -0.9245 -0.8461
   68MOL0     N 9298   3.088   1.640   3.190 -0.0923  0.8061 -1.3376
   68MOL0     C 9299   2.591   1.175   3.432  0.3254  1.2808 -1.6390
   68MOL0     C 9300   2.467   1.108   3.479 -0.1745 -0.0182 -0.3230
   68MOL0     C 9301   2.150   0.791   3.489 -0.3157 -0.4208  0.3412
   68MOL0     C 9302   2.057   0.736   3.399  0.3000  0.1238 -0.1517
   68MOL0     C 9303   1.927   0.697   3.448  0.0084 -0.4963 -0.0740
   68MOL0     C 9304   1.890   0.712   3.574  0.3477  0.2616 -0.2225
   68MOL0     O 9305   1.770   0.672   3.607  0.6011  0.0879 -0.3123
   68MOL0     C 9306   1.742   0.622   3.737 -0.4352 -0.3960  0.1265
   68MOL0     C 9307   1.622   0.523   3.732 -0.7139  0.0560 -0.1629
   68MOL0     C 9308   1.663   0.397   3.647  0.1774 -0.0926  0.4235
   68MOL0     C 9309   1.543   0.303   3.644  1.1024 -0.0223  0.7680
   68MOL0     C 9310   1.573   0.194   3.735 -0.3640 -0.4240  0.0512
   68MOL0     C 9311   1.626   0.111   3.812 -0.0392 -0.8642  0.9406
   68MOL0     C 9312   1.986   0.756   3.660  0.3200 -0.4313 -0.2169
   68MOL0     C 9313   2.120   0.792   3.621 -0.2088  0.3531 -0.3054
   68MOL0     C 9314   2.224   0.844   3.727  0.5067  0.3209 -0.0215
   68MOL0     H 9315   2.413   0.953   3.188 -1.0766  0.4328  0.4842
   68MOL0     H 9316   2.607   1.067   3.117 -0.2099  0.2110  0.2635
   68MOL0     H 9317   2.755   1.274   3.080 -4.0044 -0.5649  1.6340
   68MOL0     H 9318   2.825   1.114   3.130 -1.8317 -0.8178  3.2550
   68MOL0     H 9319   2.998   1.253   3.071 -1.3840 -1.4857 -0.2006
   68MOL0     H 9320   2.961   1.356   3.214 -2.0476  1.9442 -1.8271
   68MOL0     H 9321   3.013   1.200   3.375  0.9415 -1.5335  1.0384
   68MOL0     H 9322   3.004   1.062   3.264  4.2991 -1.4374  3.6649
   68MOL0     H 9323   3.247   1.116   3.337  0.7867  1.0794  1.1995
   68MOL0     H 9324   3.228   1.133   3.166 -0.2479 -0.9056 -0.0611
   68MOL0     H 9325   3.219   1.366   3.170 -2.4302 -3.2576 -1.1086
   68MOL0     H 9326   3.357   1.304   3.246  0.4259 -1.6293 -0.1711
   68MOL0     H 9327   3.126   1.434   3.395  1.6028  1.6123  4.0815
   68MOL0     H 9328   3.236   1.330   3.475 -0.2427 -0.7455 -0.1631
   68MOL0     H 9329   3.386   1.514   3.304 -0.8093  3.0795 -0.6455
   68MOL0     H 9330   3.363   1.504   3.494  2.4486  2.1107 -0.2590
   68MOL0     H 9331   3.162   1.646   3.446 -0.8815 -1.1307 -0.2228
   68MOL0     H 9332   3.316   1.728   3.395  0.5035  0.1253 -1.0761
   68MOL0     H 9333   3.402   1.745   3.152  0.3990  3.0808 -1.8322
   68MOL0     H 9334   3.390   1.756   2.882  1.8865 -3.2178  1.4759
   68MOL0     H 9335   3.220   1.793   2.835  1.5579  1.8394  0.7434
   68MOL0     H 9336   3.342   1.508   2.870  0.4446  3.5258  2.5630
   68MOL0     H 9337   3.186   1.533   2.808  0.9126 -0.5840 -0.8725
   68MOL0     H 9338   3.261   1.655   2.619 -2.4160  1.2962  4.3414
   68MOL0     H 9339   3.426   1.693   2.688 -2.3140  2.2649  2.1079
   68MOL0     H 9340   3.466   1.446   2.694 -0.5801 -2.0551 -0.7316
   68MOL0     H 9341   3.328   1.416   2.596  0.9243 -1.2588  0.0214
   68MOL0     H 9342   3.592   1.590   2.307  1.2771  0.6331  0.3892
   68MOL0     H 9343   3.851   1.526   2.109 -2.5243  1.7078 -2.3441
   68MOL0     H 9344   3.904   1.630   2.245  3.0353 -3.9423 -2.0098
   68MOL0     H 9345   3.740   1.638   2.174  0.9952  1.3087 -1.2479
   68MOL0     H 9346   4.262   1.496   2.235  0.7481 -0.1766 -0.2285
   68MOL0     H 9347   4.447   1.431   2.101  0.8045 -2.7154  2.6981
   68MOL0     H 9348   4.455   0.985   1.995  3.9102 -2.6305 -0.5087
   68MOL0     H 9349   4.597   1.052   1.923 -0.2466  1.1883 -1.3286
   68MOL0     H 9350   4.676   1.130   2.131  0.2940 -1.2994 -3.5284
   68MOL0     H 9351   4.513   1.099   2.211 -2.1586  1.6480 -2.4603
   68MOL0     H 9352   4.548   0.856   2.170 -2.3684  1.7667  2.9246
   68MOL0     H 9353   4.631   0.939   2.301 -2.1386 -3.5723 -0.1122
   68MOL0     H 9354   4.822   0.965   2.131  0.6660 -1.0371 -2.4306
   68MOL0     H 9355   4.745   0.858   2.020  1.7369  2.9871 -1.6184
   68MOL0     H 9356   4.913   0.724   2.151 -0.4360  0.9147  0.1691
   68MOL0     H 9357   4.834   0.774   2.299 -1.7770  0.7033  0.6341
   68MOL0     H 9358   4.616   0.654   2.237 -1.5973 -0.4741 -4.4649
   68MOL0     H 9359   4.750   0.532   2.249 -2.1845 -1.1372 -1.2075
   68MOL0     H 9360   4.782   0.570   2.018  0.6917 -2.8237  1.8330
   68MOL0     H 9361   4.614   0.642   2.013  0.1250 -0.9008 -1.0428
   68MOL0     H 9362   4.651   0.370   2.119  1.7173  2.2628  2.2225
   68MOL0     H 9363   4.589   0.406   1.954  2.0341  0.1385 -0.1911
   68MOL0     H 9364   4.237   1.089   1.949 -5.6664  1.1220 -2.9254
   68MOL0     H 9365   4.043   1.156   2.092 -2.7961  2.9920  2.0616
   68MOL0     H 9366   3.810   1.191   2.510 -3.3705 -0.8323  0.7208
   68MOL0     H 9367   3.578   1.270   2.579 -1.3336 -1.3517 -0.3403
   68MOL0     H 9368   2.636   1.250   3.496  1.8387  1.8554 -3.2885
   68MOL0     H 9369   2.439   1.133   3.581  4.7030  0.4290  1.1230
   68MOL0     H 9370   2.077   0.725   3.293  1.9573  2.5385 -0.1696
   68MOL0     H 9371   1.853   0.657   3.380 -1.5398  1.7678  0.1719
   68MOL0     H 9372   1.829   0.575   3.784  1.2332  0.5684 -1.8525
   68MOL0     H 9373   1.734   0.709   3.803  0.7683 -1.2274  1.4254
   68MOL0     H 9374   1.533   0.574   3.694 -2.0784 -1.0484  1.4227
   68MOL0     H 9375   1.593   0.483   3.830  1.4406  0.6196  0.7481
   68MOL0     H 9376   1.690   0.438   3.550 -2.5049  1.0970  0.1004
   68MOL0     H 9377   1.761   0.356   3.676  0.1594  0.3079  1.0725
   68MOL0     H 9378   1.540   0.273   3.539 -2.3761  0.3916  0.6199
   68MOL0     H 9379   1.446   0.346   3.673  1.1864 -0.5738  1.9611
   68MOL0     H 9380   1.681   0.030   3.855  0.3599 -2.6208 -2.5255
   68MOL0     H 9381   1.964   0.763   3.766 -1.5737 -0.3755 -0.5767
   68MOL0     H 9382   2.300   0.767   3.738  0.3159  0.1921  0.4278
   68MOL0     H 9383   2.273   0.934   3.688  0.5958 -0.2834 -1.3590
   68MOL0     H 9384   2.184   0.874   3.825  3.0062 -0.8451  1.4395
   69MOL0     O 9385   1.845   9.963   2.294 -0.4379  0.4403  0.4928
   69MOL0     C 9386   1.838  10.073   2.251 -0.3167 -0.1476  0.2489
   69MOL0     O 9387   1.897  10.122   2.131 -0.0907 -0.0761 -1.1231
   69MOL0     C 9388   1.992  10.056   2.060  0.0599  0.0991 -0.2884
   69MOL0     C 9389   2.100  10.128   1.999  0.3108  0.1081  0.6367
   69MOL0     C 9390   2.206  10.056   1.942 -0.4674  0.1470  0.2595
   69MOL0     C 9391   2.203   9.917   1.927 -0.0928  0.1327  0.4022
   69MOL0     O 9392   2.300   9.841   1.862  0.9394  0.4253 -0.9526
   69MOL0     C 9393   2.424   9.891   1.823  0.4454  0.1981  0.7768
   69MOL0     C 9394   2.500   9.809   1.716  1.2169 -1.1165  0.4339
   69MOL0     C 9395   2.515   9.663   1.765  0.3426  0.0423  0.4653
   69MOL0     C 9396   2.605   9.634   1.883 -0.3229 -0.4585 -0.2931
   69MOL0     C 9397   2.755   9.645   1.838  0.2152  1.1904  0.1012
   69MOL0     C 9398   2.835   9.663   1.968 -0.3046 -0.7125  0.4496
   69MOL0     C 9399   2.973   9.597   1.956  0.2062 -0.0370 -0.3797
   69MOL0     C 9400   3.061   9.661   1.849 -0.2511  0.8258  0.2305
   69MOL0     N 9401   3.205   9.603   1.851  0.2630 -0.8772 -1.0210
   69MOL0     C 9402   3.298   9.627   1.952  0.1211 -0.4706  1.0903
   69MOL0     C 9403   3.404   9.550   1.922 -0.0703  0.0941  0.0798
   69MOL0     C 9404   3.535   9.562   2.000 -0.1685 -0.8994 -0.5751
   69MOL0     C 9405   3.545   9.653   2.116  0.2533 -0.7846  0.6025
   69MOL0     C 9406   3.487   9.619   2.251 -0.1541  1.1379 -0.2415
   69MOL0     C 9407   3.509   9.726   2.353 -0.4984  0.3617 -0.8049
   69MOL0     O 9408   3.638   9.785   2.351  0.4239  0.2037 -0.5724
   69MOL0     C 9409   3.682   9.844   2.470  0.4750  0.5510 -0.6868
   69MOL0     C 9410   3.596   9.894   2.574 -0.0446 -0.4565  0.1743
   69MOL0     C 9411   3.642   9.963   2.683  0.0325 -0.0739 -0.5911
   69MOL0     C 9412   3.539  10.036   2.765 -0.4465 -0.3751 -0.2534
   69MOL0     C 9413   3.777   9.972   2.712  0.4802  0.0229 -0.2430
   69MOL0     C 9414   3.837  10.041   2.829  0.3511  0.7903 -0.4861
   69MOL0     O 9415   3.762  10.050   2.943 -0.2393 -0.1279 -0.8761
   69MOL0     C 9416   3.816  10.068   3.069 -0.5686 -0.0246 -0.3965
   69MOL0     C 9417   3.741  10.017   3.171 -0.3359 -0.1406 -0.4756
   69MOL0     C 9418   3.775  10.032   3.314 -1.1350 -0.1134  0.0049
   69MOL0     C 9419   3.884  10.121   3.344  0.8464  0.3392  0.0286
   69MOL0     O 9420   3.916  10.167   3.466 -0.0979  0.2142  0.7125
   69MOL0     C 9421   3.945  10.048   3.552 -0.7194 -0.6826  0.2722
   69MOL0     C 9422   4.040  10.105   3.653 -0.9269 -0.2607  0.1613
   69MOL0     C 9423   4.091   9.988   3.732  0.6099 -0.3302 -0.0033
   69MOL0     C 9424   4.224   9.912   3.673 -0.2266  0.1698  0.1628
   69MOL0     C 9425   4.349   9.915   3.760 -0.6309 -0.5564  0.5442
   69MOL0     C 9426   4.399  10.059   3.780  0.5214  0.4595 -0.2117
   69MOL0     C 9427   4.537  10.071   3.846  0.3654  0.6831  0.3483
   69MOL0     C 9428   4.591  10.213   3.836  0.0144 -0.2335  1.0517
   69MOL0    Cl 9429   4.624  10.254   3.674 -0.1963  0.2469 -0.5159
   69MOL0     C 9430   3.951  10.179   3.240 -0.8578 -1.0181  0.6115
   69MOL0     C 9431   3.918  10.155   3.104 -0.3535  0.3596 -1.0710
   69MOL0     O 9432   3.957  10.076   2.817 -0.3194 -0.1005 -0.5299
   69MOL0     C 9433   3.859   9.923   2.604  0.4128 -0.6349 -0.1201
   69MOL0     C 9434   3.818   9.868   2.478  0.5257  1.2490  0.3628
   69MOL0     N 9435   3.363   9.463   1.827  0.4829 -0.0583  0.1932
   69MOL0     N 9436   3.246   9.495   1.791  0.3737  0.0150  0.3069
   69MOL0     C 9437   2.080   9.851   1.966 -0.3388 -0.2265  0.2919
   69MOL0     C 9438   1.981   9.915   2.028  0.6153 -0.0951  0.5753
   69MOL0     C 9439   1.739  10.163   2.312  0.2223 -0.2545  0.1451
   69MOL0     C 9440   1.710  10.279   2.238  0.4161 -0.0842  0.0372
   69MOL0     C 9441   1.620  10.374   2.287 -0.7434  0.5608  0.7483
   69MOL0     C 9442   1.560  10.368   2.409  0.1382  0.1750 -0.9914
   69MOL0     O 9443   1.477  10.466   2.455  0.2618 -0.4729  0.1403
   69MOL0     C 9444   1.432  10.575   2.367  0.6874  0.1149  0.8517
   69MOL0     C 9445   1.303  10.636   2.425 -0.9544  0.2086 -0.7821
   69MOL0     C 9446   1.213  10.702   2.316 -0.1744 -0.1415 -0.0796
   69MOL0     C 9447   1.294  10.801   2.223 -0.9513  1.0478  0.0469
   69MOL0     C 9448   1.187  10.852   2.128 -0.1465  0.8198 -0.1687
   69MOL0     C 9449   1.101  10.887   2.043  0.0961 -0.5769 -0.1461
   69MOL0     C 9450   1.586  10.252   2.480 -0.5343 -0.6355  1.4897
   69MOL0     C 9451   1.671  10.146   2.431 -0.0528 -0.6829 -0.6701
   69MOL0     C 9452   1.691  10.022   2.513 -0.5346 -0.2199 -0.2494
   69MOL0     H 9453   2.104  10.237   2.002 -2.1643  0.2926 -0.1143
   69MOL0     H 9454   2.298  10.107   1.915 -1.3874  1.8590  0.2468
   69MOL0     H 9455   2.469   9.903   1.922  0.4326 -1.9530  1.0835
   69MOL0     H 9456   2.424   9.992   1.783  0.8773  0.8709  2.3869
   69MOL0     H 9457   2.430   9.799   1.632 -0.2430  0.7146  1.3783
   69MOL0     H 9458   2.591   9.864   1.691 -2.2032  3.9878 -2.7236
   69MOL0     H 9459   2.409   9.643   1.784  0.4026 -3.1188 -1.8373
   69MOL0     H 9460   2.550   9.597   1.685  2.6930  1.9200 -0.1946
   69MOL0     H 9461   2.589   9.708   1.962  0.9943 -1.2168  0.7205
   69MOL0     H 9462   2.594   9.532   1.922 -1.1285 -0.3647 -0.2606
   69MOL0     H 9463   2.771   9.732   1.774 -1.5420  2.0337  0.7325
   69MOL0     H 9464   2.767   9.549   1.787  1.4982  1.9425 -1.0484
   69MOL0     H 9465   2.836   9.771   1.984 -1.7474  0.1516 -3.8021
   69MOL0     H 9466   2.789   9.616   2.056 -0.0112  1.8779  2.0811
   69MOL0     H 9467   2.961   9.494   1.922  2.9814  0.1528 -2.1835
   69MOL0     H 9468   3.016   9.608   2.057  2.9733 -2.6561 -1.1310
   69MOL0     H 9469   3.012   9.656   1.752  0.4648  0.1719 -0.1144
   69MOL0     H 9470   3.073   9.766   1.874  2.4551  0.7282 -0.3357
   69MOL0     H 9471   3.291   9.698   2.034 -1.0129  1.7753 -0.8049
   69MOL0     H 9472   3.617   9.588   1.932  1.1899  0.6950  1.5477
   69MOL0     H 9473   3.563   9.466   2.042 -2.4631 -0.9924  0.8823
   69MOL0     H 9474   3.650   9.679   2.123  1.0155 -1.9517 -3.8029
   69MOL0     H 9475   3.483   9.741   2.100  2.2190  0.7263  1.0007
   69MOL0     H 9476   3.380   9.594   2.251  0.1760 -0.4089  0.5431
   69MOL0     H 9477   3.536   9.529   2.289 -0.3258  1.5852  1.1117
   69MOL0     H 9478   3.430   9.801   2.339 -2.6192 -1.1039  2.2926
   69MOL0     H 9479   3.479   9.685   2.449  2.1357  1.1000  0.4240
   69MOL0     H 9480   3.492   9.892   2.543  0.5307  0.1794 -2.0061
   69MOL0     H 9481   3.543  10.011   2.871 -1.3913  1.5371  0.2755
   69MOL0     H 9482   3.440  10.002   2.737 -1.7035  0.3680  2.8491
   69MOL0     H 9483   3.554  10.145   2.760  4.0404 -0.8469 -2.8774
   69MOL0     H 9484   3.662   9.946   3.149  1.7103 -2.0714 -2.1531
   69MOL0     H 9485   3.713   9.989   3.392 -0.5717  1.8180  1.6281
   69MOL0     H 9486   3.849  10.007   3.586 -0.7336  0.6443  1.9492
   69MOL0     H 9487   4.001   9.976   3.491  2.9777  1.6014  0.6475
   69MOL0     H 9488   4.112  10.177   3.612 -2.1432  1.6561  1.2223
   69MOL0     H 9489   3.976  10.164   3.719 -1.8343  1.4180 -2.0986
   69MOL0     H 9490   4.016   9.913   3.757 -0.3667  0.1592 -1.3261
   69MOL0     H 9491   4.119  10.033   3.828 -2.1706 -0.2895  0.8635
   69MOL0     H 9492   4.246   9.944   3.571  2.3100 -4.2281 -0.9363
   69MOL0     H 9493   4.196   9.807   3.667 -1.1881  0.2881  1.8395
   69MOL0     H 9494   4.308   9.873   3.852 -1.6540  0.2391  0.4708
   69MOL0     H 9495   4.418   9.844   3.714 -1.1916 -0.0025 -1.2278
   69MOL0     H 9496   4.332  10.109   3.851  0.4486 -1.7766  1.4142
   69MOL0     H 9497   4.396  10.108   3.682 -0.4108 -0.8487 -0.8649
   69MOL0     H 9498   4.604  10.001   3.796 -0.5863  0.0908 -0.1405
   69MOL0     H 9499   4.547  10.042   3.951  3.3725 -0.0823 -0.0665
   69MOL0     H 9500   4.686  10.216   3.890  0.3220 -1.4284  0.5923
   69MOL0     H 9501   4.528  10.295   3.873  0.2934  0.7837 -0.5990
   69MOL0     H 9502   4.040  10.240   3.252  0.1938 -2.4952  0.6938
   69MOL0     H 9503   3.985  10.201   3.032  2.8721  1.1810  2.2139
   69MOL0     H 9504   3.966   9.922   2.622 -0.1620  1.5916  5.4091
   69MOL0     H 9505   3.876   9.817   2.401  0.5518 -1.5746  2.1091
   69MOL0     H 9506   2.068   9.743   1.959 -0.7198 -0.2114  0.6781
   69MOL0     H 9507   1.888   9.865   2.049  0.7318 -0.4063  0.3505
   69MOL0     H 9508   1.770  10.307   2.151 -0.6250  0.7365 -0.4482
   69MOL0     H 9509   1.625  10.464   2.228 -1.8028 -0.9241 -1.7890
   69MOL0     H 9510   1.511  10.646   2.341  1.2753 -0.9441 -0.3614
   69MOL0     H 9511   1.405  10.532   2.270 -1.3245  0.9240  1.0075
   69MOL0     H 9512   1.339  10.711   2.496 -1.0865 -1.6180  1.3071
   69MOL0     H 9513   1.238  10.576   2.490 -0.5283  1.8089  1.1992
   69MOL0     H 9514   1.168  10.620   2.259 -1.0898  0.9440 -0.9343
   69MOL0     H 9515   1.131  10.758   2.361  1.3424  1.1834  1.1716
   69MOL0     H 9516   1.376  10.763   2.163  0.7230  4.5828 -0.1778
   69MOL0     H 9517   1.344  10.871   2.291  1.5115 -0.5320 -0.0510
   69MOL0     H 9518   1.023  10.896   1.970  1.4100  0.0486 -1.5126
   69MOL0     H 9519   1.530  10.242   2.573 -0.0278 -1.3407  1.7258
   69MOL0     H 9520   1.797  10.000   2.527  0.1757  0.8076 -3.2016
   69MOL0     H 9521   1.643  10.010   2.610  1.0618 -3.7734  0.2599
   69MOL0     H 9522   1.632   9.945   2.461 -1.7831 -0.1008  0.9423
   70MOL0     O 9523   3.688   4.611  10.518 -0.3640 -0.4188  0.5123
   70MOL0     C 9524   3.800   4.642  10.569  0.1472  0.4959 -0.4831
   70MOL0     O 9525   3.828   4.754  10.634 -0.3221  0.1413  0.1872
   70MOL0     C 9526   3.740   4.853  10.638 -0.8397 -0.0166 -0.5796
   70MOL0     C 9527   3.721   4.922  10.523 -0.3441 -0.7116  0.4415
   70MOL0     C 9528   3.653   5.042  10.531 -0.4153  0.2347  0.8082
   70MOL0     C 9529   3.594   5.094  10.643 -0.1659  0.1977 -0.0736
   70MOL0     O 9530   3.501   5.190  10.634 -0.3546  0.5852 -0.0811
   70MOL0     C 9531   3.380   5.166  10.707  0.6653 -0.8631 -0.0510
   70MOL0     C 9532   3.278   5.276  10.657 -0.2050  0.8276  0.3048
   70MOL0     C 9533   3.322   5.424  10.667 -1.2076 -0.5233  1.2269
   70MOL0     C 9534   3.198   5.518  10.644 -0.9073 -1.1818  0.4936
   70MOL0     C 9535   3.225   5.663  10.694 -0.9520 -0.0991  0.3265
   70MOL0     C 9536   3.098   5.753  10.702  0.7515  0.1225 -0.7192
   70MOL0     C 9537   2.996   5.710  10.814 -0.6506  1.0057 -1.0355
   70MOL0     C 9538   2.908   5.824  10.858  0.0324 -0.3622 -0.0563
   70MOL0     N 9539   2.816   5.762  10.959  0.7699 -0.0222  0.4833
   70MOL0     C 9540   2.701   5.702  10.919 -0.1806 -0.0045 -0.3715
   70MOL0     C 9541   2.635   5.677  11.033 -0.1903 -0.9442  0.1579
   70MOL0     C 9542   2.487   5.624  11.041  0.1361 -0.3745  0.5827
   70MOL0     C 9543   2.387   5.715  10.956  0.0744 -0.0414  0.5455
   70MOL0     C 9544   2.246   5.666  10.986 -0.8639  0.4572 -0.3813
   70MOL0     C 9545   2.217   5.516  10.948 -0.4584  0.2184  0.5300
   70MOL0     O 9546   2.081   5.485  10.953  0.0409 -0.3680  0.7838
   70MOL0     C 9547   2.055   5.353  10.935  0.2418 -0.0970  0.5221
   70MOL0     C 9548   1.922   5.325  10.896  0.5078  0.6991  0.0784
   70MOL0     C 9549   1.876   5.197  10.838 -0.6265 -1.7006 -0.5777
   70MOL0     C 9550   1.726   5.196  10.798 -0.0731 -0.7224  0.3675
   70MOL0     C 9551   1.976   5.093  10.845  0.8383 -0.2808 -0.0286
   70MOL0     C 9552   1.940   4.949  10.805  1.0842 -0.4569  0.4765
   70MOL0     O 9553   2.055   4.868  10.768  0.0910 -0.6185 -0.2312
   70MOL0     C 9554   2.038   4.737  10.746 -0.3471  0.3036  0.3632
   70MOL0     C 9555   1.991   4.655  10.848  0.3378 -0.4681  0.3106
   70MOL0     C 9556   1.972   4.519  10.839  0.0474  0.6951  0.4266
   70MOL0     C 9557   2.004   4.459  10.715 -0.9464  0.7026 -0.4393
   70MOL0     O 9558   1.959   4.340  10.678 -0.2537  0.3604 -0.4128
   70MOL0     C 9559   1.834   4.296  10.734 -0.0618 -0.4864 -0.8739
   70MOL0     C 9560   1.827   4.152  10.713  0.3882  0.9593  0.1784
   70MOL0     C 9561   1.697   4.098  10.771 -0.7402  0.4144  0.6603
   70MOL0     C 9562   1.571   4.136  10.690  1.2136 -1.2316  0.0780
   70MOL0     C 9563   1.463   4.041  10.740  0.6549 -0.0939  0.4724
   70MOL0     C 9564   1.320   4.072  10.683 -0.6373  0.3804  0.5911
   70MOL0     C 9565   1.214   3.993  10.768  0.1171  0.2012  0.2864
   70MOL0     C 9566   1.065   4.011  10.709 -0.0336 -0.2033  0.1941
   70MOL0    Cl 9567   1.040   3.918  10.576 -0.3004  0.2733  0.4072
   70MOL0     C 9568   2.056   4.532  10.612 -0.3018 -0.5625  0.1294
   70MOL0     C 9569   2.082   4.670  10.627 -0.7992  0.8151  1.7292
   70MOL0     O 9570   1.825   4.909  10.817  0.8089  0.2676 -0.1236
   70MOL0     C 9571   2.108   5.115  10.892 -0.5490 -0.3829 -0.2130
   70MOL0     C 9572   2.149   5.249  10.940  0.0132 -0.2424  0.2278
   70MOL0     N 9573   2.718   5.719  11.143  0.4853  0.5652  0.4059
   70MOL0     N 9574   2.824   5.774  11.103  0.3061  1.0222  0.0436
   70MOL0     C 9575   3.618   5.021  10.759 -0.1415  0.7763 -0.5000
   70MOL0     C 9576   3.689   4.900  10.755 -0.3084 -0.2390  0.1507
   70MOL0     C 9577   3.906   4.545  10.566 -0.6183  0.4198  0.7538
   70MOL0     C 9578   3.908   4.450  10.669  0.4984 -1.1036  0.0093
   70MOL0     C 9579   4.021   4.378  10.679 -0.6188  0.5201  0.3429
   70MOL0     C 9580   4.125   4.376  10.578  0.7722  1.2273  0.6510
   70MOL0     O 9581   4.227   4.287  10.580  0.4725 -0.2471  0.5650
   70MOL0     C 9582   4.195   4.150  10.578  0.8032  0.2047  0.0315
   70MOL0     C 9583   4.328   4.081  10.565  0.1636 -0.1155  0.0039
   70MOL0     C 9584   4.327   3.928  10.556 -0.5522 -0.7323 -0.5332
   70MOL0     C 9585   4.357   3.866  10.421 -0.4086  0.2297 -1.0191
   70MOL0     C 9586   4.236   3.888  10.332  0.1010 -0.0452  0.1818
   70MOL0     C 9587   4.139   3.915  10.265  0.6921  0.2250 -0.1103
   70MOL0     C 9588   4.105   4.456  10.463 -0.4970  1.2179 -0.8044
   70MOL0     C 9589   3.996   4.547  10.461 -0.8864  0.8664 -0.9476
   70MOL0     C 9590   4.002   4.650  10.352 -0.4779  0.0521 -0.6955
   70MOL0     H 9591   3.766   4.893  10.428  0.5645  0.0579  0.6282
   70MOL0     H 9592   3.630   5.081  10.432  0.6053  0.9972  0.8537
   70MOL0     H 9593   3.402   5.184  10.813  2.8060  0.6254 -0.6762
   70MOL0     H 9594   3.339   5.066  10.692 -0.4840 -0.6980  1.7404
   70MOL0     H 9595   3.254   5.246  10.555 -1.4000 -0.7002  0.9887
   70MOL0     H 9596   3.193   5.256  10.723  0.0395 -1.1690  0.1038
   70MOL0     H 9597   3.372   5.429  10.765  0.4295  5.2513  0.4488
   70MOL0     H 9598   3.389   5.456  10.587 -4.2698  0.7435 -0.9993
   70MOL0     H 9599   3.181   5.531  10.536  2.1935  1.8575  0.1609
   70MOL0     H 9600   3.112   5.484  10.702 -0.8754 -0.8503  0.7398
   70MOL0     H 9601   3.302   5.707  10.629 -0.3715 -3.1857 -1.2438
   70MOL0     H 9602   3.271   5.649  10.792 -0.0440 -4.5114 -0.5351
   70MOL0     H 9603   3.140   5.852  10.723  3.0366 -0.9032 -0.1860
   70MOL0     H 9604   3.036   5.752  10.612 -0.2616 -0.9507 -0.0342
   70MOL0     H 9605   3.057   5.677  10.898 -2.1692 -0.8926 -0.6115
   70MOL0     H 9606   2.933   5.626  10.784 -1.2494  0.8693  0.5416
   70MOL0     H 9607   2.972   5.906  10.893 -2.2664  1.5390 -0.0175
   70MOL0     H 9608   2.855   5.865  10.771  2.8684  0.0184 -1.7200
   70MOL0     H 9609   2.671   5.685  10.816  0.5426  2.0889 -0.9767
   70MOL0     H 9610   2.439   5.623  11.140  1.0964 -1.8242  1.0636
   70MOL0     H 9611   2.482   5.518  11.018 -4.8324  0.0324 -1.4791
   70MOL0     H 9612   2.407   5.817  10.990 -4.0994  0.6451  1.4970
   70MOL0     H 9613   2.411   5.714  10.849  2.1823  4.1533  0.7871
   70MOL0     H 9614   2.241   5.682  11.094  1.9663  0.7461 -0.2101
   70MOL0     H 9615   2.189   5.735  10.924  1.0965  4.5532  1.9345
   70MOL0     H 9616   2.259   5.504  10.848 -1.6492  0.4482 -0.0064
   70MOL0     H 9617   2.260   5.455  11.029 -2.0020  0.4359  1.5619
   70MOL0     H 9618   1.864   5.416  10.882  0.5141  0.3545 -2.8830
   70MOL0     H 9619   1.721   5.170  10.691  4.0384 -1.5947  0.2194
   70MOL0     H 9620   1.685   5.296  10.817  0.9728  0.0092 -0.9693
   70MOL0     H 9621   1.665   5.124  10.853 -1.3842  0.5057  0.5813
   70MOL0     H 9622   1.968   4.706  10.941  0.3316 -0.1775  0.1524
   70MOL0     H 9623   1.926   4.481  10.930 -3.3605  0.7607 -1.1100
   70MOL0     H 9624   1.809   4.325  10.836 -3.3742 -2.0211 -1.1058
   70MOL0     H 9625   1.745   4.338  10.684 -3.7609 -3.1041  2.8699
   70MOL0     H 9626   1.847   4.140  10.606 -1.6333 -0.7684 -0.0712
   70MOL0     H 9627   1.913   4.111  10.768 -0.8233  0.4577  1.7663
   70MOL0     H 9628   1.695   4.122  10.878  0.9033  0.3977  0.7197
   70MOL0     H 9629   1.700   3.989  10.779 -1.5950  0.3570  0.3054
   70MOL0     H 9630   1.582   4.118  10.582 -0.4624 -0.5160 -0.2451
   70MOL0     H 9631   1.537   4.238  10.709  0.2943 -1.6005  0.4889
   70MOL0     H 9632   1.480   3.934  10.725 -1.4808 -0.8187  2.4944
   70MOL0     H 9633   1.446   4.062  10.846 -4.1288  1.7109 -0.3897
   70MOL0     H 9634   1.316   4.035  10.580 -0.6639 -0.9332  1.0444
   70MOL0     H 9635   1.307   4.181  10.686 -2.5745  0.2443 -0.6668
   70MOL0     H 9636   1.216   4.031  10.870  1.7475  0.1508  0.3097
   70MOL0     H 9637   1.231   3.885  10.770  1.5916  0.4238  0.9065
   70MOL0     H 9638   1.052   4.116  10.682 -3.1337 -0.6225 -0.2997
   70MOL0     H 9639   0.990   3.976  10.780 -0.0130  0.2379  0.4340
   70MOL0     H 9640   2.074   4.489  10.514 -0.7673  1.0393 -0.6911
   70MOL0     H 9641   2.138   4.726  10.553 -2.0615 -1.7808 -1.4133
   70MOL0     H 9642   2.180   5.034  10.886  0.0810  0.1730 -0.3376
   70MOL0     H 9643   2.249   5.261  10.981  0.4656 -3.4295  0.3003
   70MOL0     H 9644   3.575   5.056  10.852 -0.3442  0.9671 -0.6658
   70MOL0     H 9645   3.716   4.859  10.852  0.3294  1.7439  0.8569
   70MOL0     H 9646   3.832   4.461  10.746  0.6057 -2.4405  0.3309
   70MOL0     H 9647   4.031   4.308  10.760  0.9579 -0.3036 -0.5207
   70MOL0     H 9648   4.138   4.123  10.667 -1.1145 -0.5318 -1.3657
   70MOL0     H 9649   4.124   4.137  10.497 -0.5378 -1.4092  1.3778
   70MOL0     H 9650   4.377   4.119  10.655 -2.9236  1.8403  0.9795
   70MOL0     H 9651   4.380   4.126  10.479  0.8859  1.4048  1.1913
   70MOL0     H 9652   4.394   3.881  10.628 -0.6967 -1.3212 -0.7742
   70MOL0     H 9653   4.230   3.886  10.584 -0.5924 -0.0174  0.4362
   70MOL0     H 9654   4.381   3.759  10.431 -0.1214  0.4592  1.2577
   70MOL0     H 9655   4.450   3.905  10.379  1.2316 -2.3180 -0.0098
   70MOL0     H 9656   4.062   3.961  10.207 -1.2648 -2.0159  0.5556
   70MOL0     H 9657   4.179   4.444  10.385 -1.1234 -2.2646 -1.0138
   70MOL0     H 9658   3.999   4.746  10.405 -0.0886 -0.6930  0.7217
   70MOL0     H 9659   4.098   4.638  10.301  0.9794 -1.3168  2.1653
   70MOL0     H 9660   3.925   4.621  10.280  1.1101 -1.3960 -1.9211
   71MOL0     O 9661   4.531   2.520   1.526 -0.5012  0.3917 -0.3391
   71MOL0     C 9662   4.572   2.444   1.616  0.1747  0.6134  0.1154
   71MOL0     O 9663   4.522   2.317   1.634  0.8712 -0.5412  1.0011
   71MOL0     C 9664   4.407   2.280   1.564 -0.0792 -0.7598  0.2501
   71MOL0     C 9665   4.357   2.316   1.433 -0.1752  0.8534  1.2199
   71MOL0     C 9666   4.259   2.240   1.360  0.7549 -0.7781 -0.3497
   71MOL0     C 9667   4.202   2.128   1.424  0.3464 -0.3154  0.2122
   71MOL0     O 9668   4.108   2.044   1.363 -0.4017  0.1572  0.3829
   71MOL0     C 9669   4.008   2.110   1.289  0.2696  0.6949  0.0524
   71MOL0     C 9670   3.886   2.019   1.286  0.0451  0.0537  0.0697
   71MOL0     C 9671   3.764   2.081   1.224  0.6863  0.5929  1.5877
   71MOL0     C 9672   3.771   2.153   1.086  0.4417 -0.4518  0.7214
   71MOL0     C 9673   3.785   2.059   0.970 -1.0350  0.3554 -0.4128
   71MOL0     C 9674   3.809   2.137   0.842 -0.0485 -0.6544  0.6491
   71MOL0     C 9675   3.855   2.035   0.741  0.8203  0.3864 -0.2066
   71MOL0     C 9676   3.865   2.080   0.584 -0.8207 -0.5613 -0.6754
   71MOL0     N 9677   4.006   2.125   0.557 -0.1644  0.2571  0.2010
   71MOL0     C 9678   4.051   2.237   0.623 -0.0703 -0.3063  0.1303
   71MOL0     C 9679   4.186   2.233   0.603  0.5196  0.4823  0.8735
   71MOL0     C 9680   4.281   2.341   0.657  0.1980 -0.3373 -0.1741
   71MOL0     C 9681   4.417   2.344   0.589  0.1982  0.0011  0.2058
   71MOL0     C 9682   4.504   2.220   0.630  0.1997  1.0963  0.4104
   71MOL0     C 9683   4.641   2.221   0.546 -0.2021  1.0336 -0.4200
   71MOL0     O 9684   4.720   2.326   0.610 -0.2434 -0.3894 -0.2241
   71MOL0     C 9685   4.802   2.322   0.725  0.1110  0.6545 -0.0164
   71MOL0     C 9686   4.854   2.443   0.778  0.4195  0.0704 -1.0870
   71MOL0     C 9687   4.939   2.442   0.892  1.1464 -0.2648 -0.0772
   71MOL0     C 9688   4.998   2.575   0.934  0.2262  0.6426 -0.5727
   71MOL0     C 9689   4.976   2.321   0.949  0.6145 -0.0074  0.6742
   71MOL0     C 9690   5.069   2.308   1.051  0.5524  0.1644 -1.2596
   71MOL0     O 9691   5.075   2.404   1.144 -0.2677  0.1868 -0.3356
   71MOL0     C 9692   5.161   2.405   1.254 -1.0525 -0.0705 -0.3106
   71MOL0     C 9693   5.282   2.328   1.259  0.1063  0.9604  0.2058
   71MOL0     C 9694   5.368   2.344   1.359 -0.5582  0.5995 -0.8969
   71MOL0     C 9695   5.350   2.430   1.469  0.7120 -0.2351  0.2025
   71MOL0     O 9696   5.437   2.446   1.575 -0.3438 -0.5555  0.3666
   71MOL0     C 9697   5.386   2.425   1.702 -0.7672 -0.0783  0.0929
   71MOL0     C 9698   5.442   2.294   1.740  0.7179 -0.4040 -0.6107
   71MOL0     C 9699   5.403   2.276   1.896 -0.7006 -0.5419  0.3799
   71MOL0     C 9700   5.473   2.147   1.951 -0.0107 -0.1500 -0.3794
   71MOL0     C 9701   5.467   2.120   2.099  0.7503  0.1663 -0.7903
   71MOL0     C 9702   5.320   2.138   2.146 -0.1401  0.5326 -0.4912
   71MOL0     C 9703   5.288   2.077   2.284  0.2028  0.0355  0.5227
   71MOL0     C 9704   5.137   2.087   2.313 -0.3853  0.3430 -0.4054
   71MOL0    Cl 9705   5.088   2.255   2.343  0.2735 -0.1401  0.0737
   71MOL0     C 9706   5.236   2.516   1.457  0.2171 -0.7233  1.0259
   71MOL0     C 9707   5.135   2.492   1.355 -0.5087  0.4339 -0.2184
   71MOL0     O 9708   5.120   2.198   1.064  0.5031  0.0892  0.0312
   71MOL0     C 9709   4.917   2.201   0.900  0.5465 -0.6016  0.4656
   71MOL0     C 9710   4.839   2.203   0.790 -0.2758  0.8068 -0.3536
   71MOL0     N 9711   4.211   2.124   0.514  0.2351 -0.3307  0.6127
   71MOL0     N 9712   4.104   2.063   0.483  0.9534 -0.6402 -0.0663
   71MOL0     C 9713   4.236   2.092   1.554 -0.3743 -0.4005  0.3210
   71MOL0     C 9714   4.340   2.168   1.619 -0.7061  0.3448 -0.2216
   71MOL0     C 9715   4.668   2.492   1.724 -0.0665 -0.1310 -0.0727
   71MOL0     C 9716   4.658   2.442   1.860 -0.8968 -0.0510 -0.6722
   71MOL0     C 9717   4.751   2.492   1.954 -0.4402  0.4690 -0.2627
   71MOL0     C 9718   4.850   2.589   1.918 -0.2014  0.2855  1.2569
   71MOL0     O 9719   4.938   2.647   2.006  0.1679  0.0820  0.1953
   71MOL0     C 9720   4.954   2.574   2.128 -0.1697  0.5987 -0.0413
   71MOL0     C 9721   5.079   2.628   2.207 -0.5721  0.9320  0.1335
   71MOL0     C 9722   5.215   2.593   2.147 -0.4619  1.0981 -0.0025
   71MOL0     C 9723   5.240   2.694   2.024  0.3695 -0.9492 -0.5098
   71MOL0     C 9724   5.376   2.717   1.996 -0.5148  0.0753  0.1729
   71MOL0     C 9725   5.494   2.745   1.969 -0.1735  0.6963  0.1287
   71MOL0     C 9726   4.859   2.628   1.779 -0.0599 -0.3337 -0.5954
   71MOL0     C 9727   4.774   2.574   1.679  0.6172  1.3807 -0.8127
   71MOL0     C 9728   4.798   2.627   1.545 -0.6644 -0.8486  0.1490
   71MOL0     H 9729   4.409   2.391   1.374 -0.5619 -0.3769 -0.7447
   71MOL0     H 9730   4.214   2.269   1.266 -0.4636  2.9183  1.1859
   71MOL0     H 9731   4.042   2.130   1.186  0.4625 -1.3936 -0.3363
   71MOL0     H 9732   3.981   2.206   1.334 -0.7198  0.2154  0.5095
   71MOL0     H 9733   3.899   1.920   1.242 -1.1647  0.1632 -0.5716
   71MOL0     H 9734   3.850   2.004   1.388  0.4756 -1.1462  0.0635
   71MOL0     H 9735   3.693   1.998   1.229  0.4406  0.8066  1.7493
   71MOL0     H 9736   3.731   2.161   1.291  0.0553  0.7702  1.0809
   71MOL0     H 9737   3.679   2.210   1.068  3.0608  3.4004 -1.9428
   71MOL0     H 9738   3.858   2.219   1.080 -0.7351  1.0086 -1.5644
   71MOL0     H 9739   3.697   1.996   0.956 -2.2943  2.4460 -2.6145
   71MOL0     H 9740   3.878   2.003   0.986 -0.2260  1.1836 -1.9633
   71MOL0     H 9741   3.713   2.178   0.811 -0.1285  1.6674  3.4831
   71MOL0     H 9742   3.880   2.220   0.849 -2.5533  1.9558 -1.9597
   71MOL0     H 9743   3.786   1.952   0.754  0.5292  0.7918  0.9686
   71MOL0     H 9744   3.956   2.009   0.773  1.7869  3.5793 -0.2585
   71MOL0     H 9745   3.834   1.998   0.519 -0.6021 -1.7121  0.6365
   71MOL0     H 9746   3.807   2.172   0.567 -0.4755  0.4095  2.6887
   71MOL0     H 9747   3.994   2.302   0.689 -2.6121 -1.1599 -1.1224
   71MOL0     H 9748   4.294   2.322   0.764 -2.1595 -1.8160 -0.0846
   71MOL0     H 9749   4.228   2.436   0.658  0.3251 -0.2626  1.0537
   71MOL0     H 9750   4.397   2.368   0.484  0.4613  2.4914  0.6567
   71MOL0     H 9751   4.463   2.440   0.615 -0.4336  0.1069  0.9710
   71MOL0     H 9752   4.526   2.209   0.737 -1.6064 -1.7347  0.5768
   71MOL0     H 9753   4.454   2.124   0.619 -0.5110  1.6239 -1.2206
   71MOL0     H 9754   4.684   2.121   0.558 -1.1400  0.3646 -2.2613
   71MOL0     H 9755   4.621   2.242   0.440 -0.6352  0.4201 -0.4676
   71MOL0     H 9756   4.848   2.540   0.731 -0.0125  0.3878 -0.3954
   71MOL0     H 9757   5.007   2.628   0.839  3.5796  0.2431 -0.5858
   71MOL0     H 9758   5.098   2.566   0.977  1.4090  2.6016 -2.6716
   71MOL0     H 9759   4.938   2.630   1.008  1.0792  0.2393  0.4491
   71MOL0     H 9760   5.313   2.249   1.191 -3.5045 -2.3074  2.0090
   71MOL0     H 9761   5.459   2.286   1.368 -0.4274  1.1376  2.6956
   71MOL0     H 9762   5.435   2.500   1.765  0.9027  0.2202 -1.4791
   71MOL0     H 9763   5.277   2.420   1.703 -0.7025 -4.2302  0.7014
   71MOL0     H 9764   5.397   2.211   1.684  1.6833 -2.3062  1.2629
   71MOL0     H 9765   5.550   2.290   1.730  0.8606 -3.1891  0.9032
   71MOL0     H 9766   5.294   2.279   1.892 -0.7523  2.3591 -4.0564
   71MOL0     H 9767   5.432   2.359   1.960  1.4343 -1.2365  0.3837
   71MOL0     H 9768   5.576   2.176   1.926 -0.3869  0.0689 -1.7428
   71MOL0     H 9769   5.449   2.054   1.900  2.3992 -0.8567 -0.3265
   71MOL0     H 9770   5.504   2.021   2.124  1.0078  0.5767  0.5366
   71MOL0     H 9771   5.540   2.187   2.146  0.5967  1.4413 -2.2763
   71MOL0     H 9772   5.265   2.088   2.066  4.2657 -0.6096 -3.1988
   71MOL0     H 9773   5.310   2.247   2.145  0.1794  0.6721  2.1982
   71MOL0     H 9774   5.346   2.132   2.358  1.6039  2.8564 -2.4226
   71MOL0     H 9775   5.320   1.972   2.281 -0.9783 -0.4008  1.8127
   71MOL0     H 9776   5.118   2.018   2.396 -1.3941 -0.1976 -1.0664
   71MOL0     H 9777   5.096   2.039   2.224  5.2711 -1.7491 -2.3522
   71MOL0     H 9778   5.219   2.584   1.540  0.6261 -1.6195  1.8607
   71MOL0     H 9779   5.045   2.553   1.351 -0.3563  0.7566  0.9450
   71MOL0     H 9780   4.946   2.104   0.940  0.4104 -1.7899 -2.0911
   71MOL0     H 9781   4.817   2.105   0.750  1.1335  0.2529  0.1934
   71MOL0     H 9782   4.187   2.005   1.597  1.2006 -1.3079  0.3437
   71MOL0     H 9783   4.357   2.146   1.724 -1.7650 -0.3946 -0.1889
   71MOL0     H 9784   4.579   2.373   1.890  1.6407 -3.1467 -0.6461
   71MOL0     H 9785   4.735   2.454   2.054  6.0984 -2.3749  0.2281
   71MOL0     H 9786   4.874   2.587   2.202 -2.3126 -1.1954 -1.9028
   71MOL0     H 9787   4.967   2.467   2.111 -1.4603  0.8770 -3.4885
   71MOL0     H 9788   5.074   2.579   2.305 -0.8418 -0.8702 -0.7361
   71MOL0     H 9789   5.071   2.737   2.212  0.0189  0.9350  1.2641
   71MOL0     H 9790   5.289   2.614   2.224 -1.5173 -0.1419  1.4164
   71MOL0     H 9791   5.206   2.488   2.119 -1.8954  1.0929  0.3600
   71MOL0     H 9792   5.189   2.789   2.044 -2.7198 -2.5507 -0.1394
   71MOL0     H 9793   5.190   2.664   1.931 -0.3952  1.1791 -0.8520
   71MOL0     H 9794   5.589   2.782   1.936  0.8260 -2.9480 -1.6072
   71MOL0     H 9795   4.923   2.714   1.760  0.3225  0.0213  1.9525
   71MOL0     H 9796   4.713   2.681   1.503  0.9661  0.2909 -1.8793
   71MOL0     H 9797   4.884   2.695   1.538  0.1470 -1.9119 -0.7246
   71MOL0     H 9798   4.823   2.533   1.494  0.2673 -0.7444  0.3853
   72MOL0     O 9799   5.403   9.855   0.590 -0.6788  0.3911 -0.5387
   72MOL0     C 9800   5.497   9.774   0.600 -0.1754 -0.7035 -0.0343
   72MOL0     O 9801   5.600   9.771   0.519 -0.3993  0.2166  0.3835
   72MOL0     C 9802   5.591   9.837   0.399 -0.1306  0.0523 -0.0363
   72MOL0     C 9803   5.659   9.963   0.379  0.7408 -0.2789  0.0309
   72MOL0     C 9804   5.640  10.027   0.259 -0.1482  0.3224 -1.0900
   72MOL0     C 9805   5.553   9.976   0.163 -0.7499  0.1674 -0.3648
   72MOL0     O 9806   5.512  10.038   0.046 -0.6669 -0.7353  0.0730
   72MOL0     C 9807   5.552  10.176   0.028  0.4994 -0.1103  0.6357
   72MOL0     C 9808   5.531  10.200  -0.123 -0.4348  0.4407  0.1846
   72MOL0     C 9809   5.541  10.353  -0.160 -0.2163 -1.1421  0.0610
   72MOL0     C 9810   5.584  10.392  -0.298  0.2525 -0.4330 -0.5390
   72MOL0     C 9811   5.497  10.315  -0.396  0.7772  0.2039 -0.1535
   72MOL0     C 9812   5.487  10.373  -0.538  0.0695  0.6510 -0.8928
   72MOL0     C 9813   5.387  10.296  -0.612  0.5140  0.0575  0.2433
   72MOL0     C 9814   5.326  10.383  -0.726 -0.4308  0.4304 -0.0335
   72MOL0     N 9815   5.369  10.333  -0.854  0.0699 -0.3350 -0.0237
   72MOL0     C 9816   5.408  10.398  -0.965 -0.3686  0.1387  0.6662
   72MOL0     C 9817   5.395  10.313  -1.076  0.1135 -0.2777 -0.1988
   72MOL0     C 9818   5.417  10.343  -1.221 -0.0288  0.2348  0.3009
   72MOL0     C 9819   5.431  10.208  -1.299  0.2346 -0.9416  0.0252
   72MOL0     C 9820   5.440  10.231  -1.444  0.2724 -0.4414  0.0544
   72MOL0     C 9821   5.316  10.279  -1.505  0.3788 -0.3198  0.1078
   72MOL0     O 9822   5.339  10.327  -1.636  0.4559  0.1131 -0.3144
   72MOL0     C 9823   5.230  10.346  -1.716 -0.1158  0.2708 -0.4729
   72MOL0     C 9824   5.134  10.247  -1.735  0.4166 -0.1174 -0.3085
   72MOL0     C 9825   5.026  10.268  -1.820 -0.2959  0.9320  0.0835
   72MOL0     C 9826   4.912  10.162  -1.814 -0.6008  0.0346  0.4498
   72MOL0     C 9827   5.021  10.386  -1.909  0.1751  0.2146 -0.2805
   72MOL0     C 9828   4.914  10.411  -2.010 -0.0424  0.0938 -0.3275
   72MOL0     O 9829   4.952  10.522  -2.081 -0.5207  0.0313  1.1927
   72MOL0     C 9830   4.875  10.557  -2.186 -0.1571 -0.3530  0.2202
   72MOL0     C 9831   4.911  10.517  -2.317  0.0561 -0.1515  0.3550
   72MOL0     C 9832   4.847  10.579  -2.430 -0.6614 -0.3503 -0.1459
   72MOL0     C 9833   4.738  10.670  -2.405 -0.1626  0.8048  1.0955
   72MOL0     O 9834   4.678  10.727  -2.519  0.4720 -0.3717 -0.4735
   72MOL0     C 9835   4.534  10.742  -2.530 -0.5216 -0.2281  0.0722
   72MOL0     C 9836   4.502  10.822  -2.653 -0.2493  0.0598 -0.8695
   72MOL0     C 9837   4.362  10.885  -2.637  0.1886  2.1177 -0.2319
   72MOL0     C 9838   4.305  10.916  -2.783  0.5871  0.3873  1.3258
   72MOL0     C 9839   4.155  10.958  -2.793  0.4727 -0.2158 -0.2529
   72MOL0     C 9840   4.142  11.025  -2.934  0.2810 -1.1592  0.0114
   72MOL0     C 9841   4.006  11.004  -3.006 -0.0505 -0.2743 -0.3898
   72MOL0     C 9842   3.904  11.103  -2.959 -1.0785  0.1722 -0.5965
   72MOL0    Cl 9843   3.727  11.073  -3.013 -0.0926 -0.5119 -0.3477
   72MOL0     C 9844   4.698  10.699  -2.273 -0.4288  0.1116 -0.1824
   72MOL0     C 9845   4.779  10.655  -2.165  0.2196  0.5425  0.0233
   72MOL0     O 9846   4.803  10.363  -2.010 -0.0259 -0.5581  0.0214
   72MOL0     C 9847   5.124  10.482  -1.883  0.2673 -0.9275 -0.9648
   72MOL0     C 9848   5.224  10.463  -1.787 -0.9493  0.1991  0.6177
   72MOL0     N 9849   5.342  10.203  -1.025 -0.4922 -0.6408 -0.5893
   72MOL0     N 9850   5.330  10.213  -0.902  1.2522 -0.6078 -0.0466
   72MOL0     C 9851   5.494   9.845   0.175 -0.2029  0.2100  0.9822
   72MOL0     C 9852   5.518   9.776   0.293  0.5248 -0.2189  0.6808
   72MOL0     C 9853   5.483   9.676   0.702  0.3892 -0.7079 -0.3945
   72MOL0     C 9854   5.354   9.658   0.770 -0.9461  0.4868  0.5533
   72MOL0     C 9855   5.339   9.562   0.867 -0.5625 -0.3099  0.7265
   72MOL0     C 9856   5.448   9.476   0.898  0.6548  1.0143 -0.6258
   72MOL0     O 9857   5.410   9.368   0.975 -0.0048  0.4903  0.0741
   72MOL0     C 9858   5.496   9.254   1.000 -0.5969  0.8637  0.3232
   72MOL0     C 9859   5.502   9.156   0.884 -0.5942  0.5560 -0.5725
   72MOL0     C 9860   5.378   9.074   0.849 -0.1706 -0.7422 -0.1628
   72MOL0     C 9861   5.356   9.078   0.703  0.2963 -0.0691 -0.1304
   72MOL0     C 9862   5.220   9.021   0.671 -1.3519 -0.6221  0.1124
   72MOL0     C 9863   5.125   8.962   0.634  0.9427 -0.2019  0.6382
   72MOL0     C 9864   5.572   9.499   0.838 -0.3510 -0.5464 -0.3430
   72MOL0     C 9865   5.599   9.598   0.746  0.1922  0.3385  0.0479
   72MOL0     C 9866   5.744   9.627   0.714 -0.9081  0.4677  0.1331
   72MOL0     H 9867   5.699  10.023   0.461 -1.7570  2.4700 -0.5818
   72MOL0     H 9868   5.688  10.122   0.241  1.4342 -0.4474 -1.0648
   72MOL0     H 9869   5.656  10.203   0.048  0.5245  1.3193 -1.1660
   72MOL0     H 9870   5.491  10.243   0.088  1.9833  1.7568  0.1561
   72MOL0     H 9871   5.615  10.149  -0.171 -0.3039  0.5033  0.3466
   72MOL0     H 9872   5.434  10.161  -0.153  0.5759 -1.2710 -1.0436
   72MOL0     H 9873   5.447  10.404  -0.136  0.1604 -0.3396 -0.1503
   72MOL0     H 9874   5.616  10.395  -0.093 -1.3952  0.1948  0.5942
   72MOL0     H 9875   5.575  10.501  -0.311 -2.4744 -0.5597 -0.2727
   72MOL0     H 9876   5.685  10.354  -0.319 -0.4411 -1.9430 -1.2758
   72MOL0     H 9877   5.389  10.313  -0.377  0.4060 -5.1171 -1.2957
   72MOL0     H 9878   5.521  10.209  -0.407 -0.0483  0.1862 -2.5313
   72MOL0     H 9879   5.440  10.472  -0.534 -4.0725 -1.0788 -0.9355
   72MOL0     H 9880   5.587  10.360  -0.579 -0.0907 -2.8540 -0.4825
   72MOL0     H 9881   5.299  10.265  -0.554 -1.6279 -0.6497 -3.1304
   72MOL0     H 9882   5.436  10.208  -0.653 -0.1768  0.1322 -0.7860
   72MOL0     H 9883   5.217  10.374  -0.719 -0.5219  0.3995 -1.3866
   72MOL0     H 9884   5.353  10.489  -0.725  2.1738 -0.1124  2.9818
   72MOL0     H 9885   5.445  10.499  -0.979 -1.6934  0.2836 -2.5018
   72MOL0     H 9886   5.505  10.406  -1.229 -0.0564  0.3849  1.1244
   72MOL0     H 9887   5.331  10.407  -1.243  0.3510  1.6952  2.6937
   72MOL0     H 9888   5.521  10.152  -1.270  0.2176 -0.4091  1.1487
   72MOL0     H 9889   5.348  10.140  -1.279 -0.6569 -0.4885 -1.9299
   72MOL0     H 9890   5.505  10.317  -1.465  0.4947 -0.4380  0.7513
   72MOL0     H 9891   5.471  10.146  -1.506  3.1653  1.1243 -0.8716
   72MOL0     H 9892   5.246  10.196  -1.498  1.1685 -1.0225 -0.2443
   72MOL0     H 9893   5.278  10.365  -1.447 -1.0457 -0.7431 -0.1607
   72MOL0     H 9894   5.135  10.153  -1.682  0.5972  0.0007 -0.0962
   72MOL0     H 9895   4.915  10.112  -1.717 -3.9378 -1.8039 -0.2567
   72MOL0     H 9896   4.907  10.096  -1.901  0.1746  0.7408 -0.1594
   72MOL0     H 9897   4.820  10.221  -1.811 -0.6565 -0.0875  1.9070
   72MOL0     H 9898   5.005  10.463  -2.331  2.2336  3.9118 -3.0013
   72MOL0     H 9899   4.893  10.563  -2.527  2.0415 -1.1251  1.1583
   72MOL0     H 9900   4.494  10.640  -2.528 -0.4020 -0.2618  1.4255
   72MOL0     H 9901   4.497  10.798  -2.443  0.1686 -2.7753  2.1442
   72MOL0     H 9902   4.572  10.906  -2.654 -0.7675  0.5009 -0.4219
   72MOL0     H 9903   4.517  10.759  -2.742  1.7331  1.9252 -1.9518
   72MOL0     H 9904   4.366  10.978  -2.579  1.9506  0.8876  1.7574
   72MOL0     H 9905   4.287  10.833  -2.578 -2.5152  2.7429 -2.8883
   72MOL0     H 9906   4.308  10.820  -2.834 -0.1890  0.5163  1.0118
   72MOL0     H 9907   4.357  10.990  -2.845  1.4494 -0.2424  1.2851
   72MOL0     H 9908   4.085  10.874  -2.796 -1.6967  1.4960 -0.6403
   72MOL0     H 9909   4.115  11.015  -2.710  0.1173  0.8333 -1.1184
   72MOL0     H 9910   4.213  10.984  -3.007 -0.0543  0.3436 -1.2141
   72MOL0     H 9911   4.158  11.133  -2.931 -5.3384 -0.0193 -0.7161
   72MOL0     H 9912   3.978  10.900  -2.985  2.6120 -0.6932  1.7001
   72MOL0     H 9913   4.027  11.028  -3.111  3.1777 -1.2198 -0.0834
   72MOL0     H 9914   3.935  11.205  -2.983 -1.5441  0.5374  0.3037
   72MOL0     H 9915   3.895  11.104  -2.850 -0.3180  0.8598 -0.5402
   72MOL0     H 9916   4.626  10.779  -2.257 -0.4550  0.2775 -1.0685
   72MOL0     H 9917   4.760  10.688  -2.063  0.1486 -0.4074  0.3323
   72MOL0     H 9918   5.114  10.580  -1.927 -2.1304 -2.1083 -3.2968
   72MOL0     H 9919   5.285  10.543  -1.747 -0.8805  1.0078 -1.0050
   72MOL0     H 9920   5.446   9.794   0.093 -0.0612 -2.8237  2.6465
   72MOL0     H 9921   5.480   9.675   0.312 -4.5688  1.6447  2.2680
   72MOL0     H 9922   5.263   9.715   0.754 -0.7128  1.7300  3.1118
   72MOL0     H 9923   5.238   9.553   0.906 -0.6651 -0.0323  0.5349
   72MOL0     H 9924   5.599   9.285   1.019  0.4879  1.2339 -4.7806
   72MOL0     H 9925   5.453   9.199   1.085 -0.6016  1.9797  1.0690
   72MOL0     H 9926   5.570   9.088   0.937  0.1602  1.3126 -0.5586
   72MOL0     H 9927   5.541   9.219   0.804 -0.1488  1.3762  0.2672
   72MOL0     H 9928   5.381   8.973   0.892 -1.1950 -0.5081  0.4925
   72MOL0     H 9929   5.298   9.129   0.898  2.2139  1.4493  1.4945
   72MOL0     H 9930   5.428   9.017   0.648 -0.4320 -0.9982 -0.0824
   72MOL0     H 9931   5.359   9.182   0.668  1.9893  1.4682  3.9272
   72MOL0     H 9932   5.041   8.911   0.592 -0.0352  2.0529 -0.3186
   72MOL0     H 9933   5.654   9.437   0.873 -0.5922  0.6069  2.5383
   72MOL0     H 9934   5.762   9.735   0.714  2.4862  0.0281  1.5772
   72MOL0     H 9935   5.815   9.580   0.782 -0.5767 -1.5449 -1.5287
   72MOL0     H 9936   5.757   9.569   0.623  1.1175 -2.2096  1.9631
   73MOL0     O 9937   5.941   5.152   1.320  0.4908 -0.4851 -0.2236
   73MOL0     C 9938   5.835   5.182   1.377 -0.1454  0.0827 -0.3209
   73MOL0     O 9939   5.825   5.220   1.507  0.5045  0.6203  0.0878
   73MOL0     C 9940   5.934   5.189   1.582  0.7728  0.3018  0.1421
   73MOL0     C 9941   5.996   5.289   1.654 -0.0866  0.2245 -0.5172
   73MOL0     C 9942   6.099   5.252   1.738 -0.5133 -0.5201 -0.4352
   73MOL0     C 9943   6.139   5.128   1.758  0.0369  0.7818 -0.2277
   73MOL0     O 9944   6.245   5.106   1.839  0.2908 -0.1551  0.1624
   73MOL0     C 9945   6.303   4.973   1.854  0.2263 -0.1913  0.5572
   73MOL0     C 9946   6.408   4.968   1.960 -0.3423 -0.2077 -0.6119
   73MOL0     C 9947   6.523   5.066   1.913  0.5145  0.3420 -0.3674
   73MOL0     C 9948   6.655   5.056   1.988  0.2302 -0.2187  0.2384
   73MOL0     C 9949   6.772   5.131   1.913  0.2217 -0.6868 -0.4827
   73MOL0     C 9950   6.911   5.122   1.974  0.0807  0.3930 -0.5644
   73MOL0     C 9951   6.958   4.983   1.964 -1.0927  0.1431  0.7241
   73MOL0     C 9952   7.107   4.981   1.995 -0.5485 -0.4287  0.5471
   73MOL0     N 9953   7.159   4.848   2.000  0.1686 -0.0526 -0.5598
   73MOL0     C 9954   7.222   4.782   1.894 -0.2856 -0.8486  0.4465
   73MOL0     C 9955   7.263   4.664   1.935  0.8896  1.2014 -0.2799
   73MOL0     C 9956   7.317   4.549   1.859 -0.3070 -0.2386 -0.0716
   73MOL0     C 9957   7.440   4.494   1.924 -0.4408  0.1118  0.2338
   73MOL0     C 9958   7.516   4.391   1.844  0.4265  0.0745 -0.7580
   73MOL0     C 9959   7.634   4.349   1.935  0.2830 -0.3410 -0.1754
   73MOL0     O 9960   7.722   4.282   1.849  0.4370  0.6512 -0.5113
   73MOL0     C 9961   7.832   4.238   1.922  0.0913  0.4131 -0.0836
   73MOL0     C 9962   7.886   4.117   1.874 -0.7636 -0.7255 -0.1233
   73MOL0     C 9963   8.008   4.063   1.920 -0.0278 -0.0698  0.4074
   73MOL0     C 9964   8.073   3.950   1.845 -0.6879  0.5695 -0.2269
   73MOL0     C 9965   8.064   4.119   2.040  0.9205 -0.1901  0.6423
   73MOL0     C 9966   8.177   4.046   2.103  0.5873  0.8531 -0.0637
   73MOL0     O 9967   8.272   4.122   2.159  0.1700  1.0772  0.3333
   73MOL0     C 9968   8.387   4.065   2.202 -0.3586  0.0887 -0.5178
   73MOL0     C 9969   8.459   3.953   2.149  0.2725 -0.5372 -0.7493
   73MOL0     C 9970   8.565   3.893   2.217 -0.6379 -0.4510 -0.1263
   73MOL0     C 9971   8.621   3.961   2.328  1.6811 -0.2203 -0.2882
   73MOL0     O 9972   8.727   3.909   2.382  0.9581  0.5379  0.0470
   73MOL0     C 9973   8.823   4.009   2.429 -1.3752  0.1884 -0.0509
   73MOL0     C 9974   8.971   3.958   2.441  0.9212 -1.0177  0.5039
   73MOL0     C 9975   8.986   3.831   2.523  0.3372  0.9428 -0.1717
   73MOL0     C 9976   8.977   3.874   2.669 -0.0387  0.4423 -0.2199
   73MOL0     C 9977   8.990   3.751   2.766  0.2006  0.0108 -0.8306
   73MOL0     C 9978   8.995   3.794   2.905  0.0024  0.3336  0.7627
   73MOL0     C 9979   9.024   3.670   2.994  0.2663 -1.0908 -0.0606
   73MOL0     C 9980   9.051   3.704   3.147 -0.2827  0.9209 -0.3510
   73MOL0    Cl 9981   9.093   3.556   3.237  0.2832 -0.0223 -0.1192
   73MOL0     C 9982   8.541   4.068   2.388 -0.0029  0.5863  0.2674
   73MOL0     C 9983   8.422   4.111   2.326 -1.0398 -0.6739 -0.2582
   73MOL0     O 9984   8.159   3.925   2.142 -0.4535 -1.1086 -0.0441
   73MOL0     C 9985   8.000   4.229   2.101 -0.1602  0.2188 -0.5118
   73MOL0     C 9986   7.900   4.290   2.036  0.1248 -0.2822  0.1453
   73MOL0     N 9987   7.213   4.654   2.065  0.0287  0.0513 -1.0861
   73MOL0     N 9988   7.156   4.762   2.109 -1.1534 -0.2765  0.0710
   73MOL0     C 9989   6.074   5.021   1.697  0.1666  0.1501  0.0630
   73MOL0     C 9990   5.968   5.048   1.610 -1.0696 -0.2678 -0.6139
   73MOL0     C 9991   5.713   5.196   1.286 -0.5855  0.0142  0.0845
   73MOL0     C 9992   5.590   5.135   1.321  0.2064  0.3916 -0.7976
   73MOL0     C 9993   5.476   5.136   1.252 -0.0137 -0.1394 -0.7706
   73MOL0     C 9994   5.486   5.187   1.117  0.4645  0.0613 -1.4433
   73MOL0     O 9995   5.391   5.173   1.024  0.8054 -0.3119  0.5580
   73MOL0     C 9996   5.262   5.124   1.048  0.3498  0.5313  0.4066
   73MOL0     C 9997   5.170   5.241   1.092  0.0150  0.3717  0.2483
   73MOL0     C 9998   5.029   5.215   1.122 -0.5691 -0.6301  0.6746
   73MOL0     C 9999   4.950   5.163   0.994 -0.3672 -0.0153 -0.0237
   73MOL0     C10000   4.943   5.013   1.016  0.1876  0.7360 -0.7378
   73MOL0     C10001   4.916   4.891   1.032 -0.4026 -0.6665  0.2658
   73MOL0     C10002   5.605   5.243   1.075  0.8636  0.5232  0.6638
   73MOL0     C10003   5.715   5.252   1.161  0.5739 -0.4237 -0.8245
   73MOL0     C10004   5.843   5.301   1.094  0.4862  0.1084  0.5768
   73MOL0     H10005   5.956   5.390   1.659  1.8179  1.2066 -2.8378
   73MOL0     H10006   6.151   5.328   1.796 -1.5931  0.4560 -0.7035
   73MOL0     H10007   6.348   4.946   1.758 -0.8173  1.0927 -0.3344
   73MOL0     H10008   6.221   4.908   1.887  0.0081 -0.5784 -0.6901
   73MOL0     H10009   6.361   5.007   2.051  0.3053 -3.6624  1.3728
   73MOL0     H10010   6.439   4.866   1.982 -1.5337 -0.7459 -1.3281
   73MOL0     H10011   6.555   5.057   1.809 -0.1139 -0.5062 -0.4985
   73MOL0     H10012   6.474   5.162   1.927 -0.2744 -0.4583  3.4603
   73MOL0     H10013   6.648   5.111   2.082  3.7899 -0.4972  0.7887
   73MOL0     H10014   6.676   4.949   2.000 -1.2305 -0.6901 -1.0408
   73MOL0     H10015   6.733   5.232   1.919 -1.0005 -1.2307  2.0494
   73MOL0     H10016   6.791   5.100   1.809 -1.2587 -0.2837 -0.8940
   73MOL0     H10017   6.968   5.191   1.912 -0.5422 -0.0398 -1.6407
   73MOL0     H10018   6.919   5.154   2.078 -2.0904  0.5318 -0.4081
   73MOL0     H10019   6.950   4.939   1.864  1.4309 -4.7534  2.3602
   73MOL0     H10020   6.910   4.918   2.038  0.2271 -0.2305  1.2748
   73MOL0     H10021   7.158   5.041   1.919  0.0336  1.7386  2.5263
   73MOL0     H10022   7.120   5.025   2.094  0.7731 -0.7005  0.5100
   73MOL0     H10023   7.242   4.825   1.796  1.9260 -0.7186  0.9026
   73MOL0     H10024   7.349   4.583   1.760  2.2577 -1.5651  0.2135
   73MOL0     H10025   7.241   4.472   1.845 -1.1007  0.8575 -2.3307
   73MOL0     H10026   7.512   4.570   1.956  0.2661 -0.4509 -0.0168
   73MOL0     H10027   7.409   4.449   2.019  1.8816  0.0210  1.0021
   73MOL0     H10028   7.448   4.310   1.814 -0.0460  0.3808 -0.5350
   73MOL0     H10029   7.555   4.436   1.752  2.3945 -0.4804 -0.2269
   73MOL0     H10030   7.686   4.438   1.971  1.0670  0.6138 -3.3485
   73MOL0     H10031   7.595   4.283   2.013  2.0676 -0.2261  0.8575
   73MOL0     H10032   7.843   4.074   1.783 -0.6703 -1.8767  0.3584
   73MOL0     H10033   8.179   3.946   1.872 -0.8136  2.1929  0.6141
   73MOL0     H10034   8.067   3.965   1.737  2.9304  3.8988 -0.1954
   73MOL0     H10035   8.031   3.851   1.869  2.2161 -0.1712  2.6358
   73MOL0     H10036   8.438   3.917   2.048  0.7104 -0.4290 -0.8786
   73MOL0     H10037   8.624   3.813   2.173 -0.9800 -0.6579 -0.2139
   73MOL0     H10038   8.818   4.097   2.363  0.2439  1.8469  1.8821
   73MOL0     H10039   8.798   4.051   2.527 -0.1087  1.2642 -0.1664
   73MOL0     H10040   9.006   3.955   2.338 -2.4372  1.3088 -0.8613
   73MOL0     H10041   9.028   4.030   2.501  1.6986 -2.8191  2.0586
   73MOL0     H10042   9.083   3.783   2.505 -0.5615 -0.2651 -2.1447
   73MOL0     H10043   8.921   3.746   2.502  1.1741  0.3388 -0.3714
   73MOL0     H10044   8.890   3.938   2.687  1.3721  3.2229 -2.5412
   73MOL0     H10045   9.060   3.942   2.686  1.5204 -1.8173  1.9772
   73MOL0     H10046   8.903   3.685   2.756 -0.0605  0.3042 -0.5121
   73MOL0     H10047   9.085   3.700   2.746  0.3978 -1.1120  2.3849
   73MOL0     H10048   8.904   3.843   2.944 -0.9248 -1.2677  0.7096
   73MOL0     H10049   9.076   3.866   2.919 -0.6667  0.7679  2.8051
   73MOL0     H10050   9.116   3.630   2.952 -0.7662 -3.0696 -0.5807
   73MOL0     H10051   8.933   3.610   2.982 -0.7246  0.5508 -1.3859
   73MOL0     H10052   8.959   3.747   3.188  1.2257  0.8355  3.6413
   73MOL0     H10053   9.129   3.781   3.155  2.8247 -1.7983 -2.1451
   73MOL0     H10054   8.566   4.105   2.487 -2.5953  1.1148  0.8097
   73MOL0     H10055   8.365   4.193   2.368  0.1519  1.1469 -2.0056
   73MOL0     H10056   8.042   4.287   2.182 -0.2803 -1.3833  0.7507
   73MOL0     H10057   7.871   4.387   2.076  2.3330  1.0750 -1.2866
   73MOL0     H10058   6.088   4.918   1.726  0.8913  0.9621  2.9432
   73MOL0     H10059   5.922   4.960   1.567 -0.6392 -0.4336 -0.7369
   73MOL0     H10060   5.585   5.074   1.410 -0.7551  2.2844  0.5270
   73MOL0     H10061   5.401   5.077   1.303  3.4119 -2.5354  2.0408
   73MOL0     H10062   5.227   5.084   0.952  1.1367  0.0078  0.3353
   73MOL0     H10063   5.261   5.037   1.114  2.0481 -1.2261 -1.7571
   73MOL0     H10064   5.186   5.325   1.024  1.4025 -0.1702 -0.1301
   73MOL0     H10065   5.216   5.292   1.177  1.0562 -0.3718  0.1578
   73MOL0     H10066   5.020   5.149   1.209  2.2115  1.7769  3.0150
   73MOL0     H10067   4.982   5.311   1.145  0.3544  0.2240 -0.8795
   73MOL0     H10068   5.006   5.187   0.903  0.2840  1.0678  0.6410
   73MOL0     H10069   4.853   5.213   1.004 -1.1940 -1.1001 -2.0322
   73MOL0     H10070   4.893   4.788   1.049 -1.6828 -0.7610 -1.6212
   73MOL0     H10071   5.609   5.264   0.969  1.2448 -2.1713  0.0935
   73MOL0     H10072   5.912   5.357   1.157  2.1556 -1.2742  0.0341
   73MOL0     H10073   5.908   5.219   1.062  1.4685 -0.0151  2.6798
   73MOL0     H10074   5.807   5.363   1.012 -0.2284 -0.1979  0.6418
   74MOL0     O10075   4.895   2.746   6.615 -0.6488 -0.1902  0.4838
   74MOL0     C10076   4.896   2.679   6.508  0.6772 -1.2482  0.4942
   74MOL0     O10077   4.967   2.705   6.394  0.1566 -0.1927  0.1640
   74MOL0     C10078   5.057   2.806   6.387  0.5901 -1.1129 -0.5904
   74MOL0     C10079   5.153   2.834   6.484 -0.0689 -0.1271  0.3996
   74MOL0     C10080   5.247   2.939   6.460  0.3742  0.2280 -0.1014
   74MOL0     C10081   5.245   3.015   6.342  0.0615  1.4910  0.3412
   74MOL0     O10082   5.345   3.103   6.327  0.0313 -0.3212  0.8372
   74MOL0     C10083   5.351   3.186   6.208  0.6519  0.1282 -0.8577
   74MOL0     C10084   5.257   3.309   6.205 -0.7924 -0.3502 -0.8477
   74MOL0     C10085   5.305   3.421   6.115 -0.4901 -0.2346 -0.1103
   74MOL0     C10086   5.349   3.391   5.969 -0.0756  1.0260 -0.2722
   74MOL0     C10087   5.242   3.318   5.891 -1.1820 -0.5685 -0.1682
   74MOL0     C10088   5.288   3.278   5.749 -0.4509 -0.6465  0.6491
   74MOL0     C10089   5.192   3.171   5.704  0.1557  0.0544 -0.6849
   74MOL0     C10090   5.236   3.118   5.569  0.4223  0.1368 -0.4277
   74MOL0     N10091   5.369   3.057   5.563  0.2753  0.6171 -0.7270
   74MOL0     C10092   5.379   2.924   5.604 -0.3160  1.2573  0.4805
   74MOL0     C10093   5.503   2.895   5.564  0.8409  0.7383 -0.7392
   74MOL0     C10094   5.565   2.767   5.595 -1.5321  0.4772  0.2612
   74MOL0     C10095   5.617   2.704   5.469  0.2592 -0.3098  0.3392
   74MOL0     C10096   5.682   2.572   5.466 -0.7156  0.3213  0.3748
   74MOL0     C10097   5.760   2.538   5.335 -0.7923  0.5893 -0.8810
   74MOL0     O10098   5.833   2.419   5.353  0.4305  0.8989 -0.8960
   74MOL0     C10099   5.903   2.367   5.245  0.4233 -0.2442  0.2818
   74MOL0     C10100   5.865   2.383   5.116  1.1217 -0.1658  0.8154
   74MOL0     C10101   5.931   2.330   5.008 -0.3006 -0.7426 -0.4275
   74MOL0     C10102   5.866   2.338   4.876 -0.2383 -0.0062  0.4099
   74MOL0     C10103   6.049   2.263   5.027  0.1521  0.4954 -1.1796
   74MOL0     C10104   6.138   2.186   4.928 -0.0701 -0.2830 -0.1761
   74MOL0     O10105   6.206   2.081   4.990 -0.3981 -0.3466 -0.4041
   74MOL0     C10106   6.289   2.003   4.922 -0.1352 -0.2127 -0.0738
   74MOL0     C10107   6.426   1.995   4.962 -0.5578 -0.1052  0.5122
   74MOL0     C10108   6.507   1.896   4.912 -0.3775  0.5251 -0.2213
   74MOL0     C10109   6.468   1.815   4.805 -0.0033  0.6204 -0.3955
   74MOL0     O10110   6.565   1.725   4.765  0.1185 -0.2533  0.8283
   74MOL0     C10111   6.531   1.598   4.709  0.2727 -0.0885  0.1550
   74MOL0     C10112   6.572   1.598   4.566 -0.8778  0.4628 -0.4718
   74MOL0     C10113   6.516   1.477   4.497  0.0858  0.6038  0.0075
   74MOL0     C10114   6.576   1.340   4.529 -0.3416 -0.2373  0.4496
   74MOL0     C10115   6.696   1.318   4.439 -0.5236  0.2675 -1.4452
   74MOL0     C10116   6.759   1.177   4.467  0.3616  0.2510  0.4187
   74MOL0     C10117   6.878   1.136   4.379 -0.0862  0.0336 -1.3834
   74MOL0     C10118   6.897   0.984   4.391  0.6055 -0.0937 -0.5362
   74MOL0    Cl10119   6.951   0.937   4.563 -0.0578 -0.0806  0.4287
   74MOL0     C10120   6.334   1.825   4.765 -0.2135  0.3679 -0.7807
   74MOL0     C10121   6.239   1.909   4.822 -0.8165 -0.8264 -0.1446
   74MOL0     O10122   6.163   2.243   4.820  0.4407 -0.0255 -0.0037
   74MOL0     C10123   6.099   2.250   5.160 -0.8420  0.7256 -0.7009
   74MOL0     C10124   6.026   2.305   5.269  1.7045  0.6199 -0.1731
   74MOL0     N10125   5.566   3.004   5.507  0.3185  1.4356 -0.4651
   74MOL0     N10126   5.485   3.101   5.495 -0.6837 -0.0489 -0.8492
   74MOL0     C10127   5.141   2.989   6.243 -0.8405  0.0017 -1.1510
   74MOL0     C10128   5.054   2.879   6.272 -0.0132 -0.3044 -0.0648
   74MOL0     C10129   4.816   2.558   6.500  0.3137 -0.6889  0.0258
   74MOL0     C10130   4.841   2.475   6.387 -1.2372  0.7927 -0.1772
   74MOL0     C10131   4.776   2.361   6.367  0.1949  0.1150  0.0570
   74MOL0     C10132   4.678   2.319   6.456 -0.6458  0.0337  0.8624
   74MOL0     O10133   4.607   2.205   6.423 -0.8332 -0.1421 -0.7976
   74MOL0     C10134   4.671   2.078   6.427  0.5823  0.8049 -0.0261
   74MOL0     C10135   4.611   1.975   6.325 -0.4847 -0.2800  0.3616
   74MOL0     C10136   4.603   1.837   6.388  0.0643 -0.2849 -0.5666
   74MOL0     C10137   4.504   1.758   6.309 -0.0451  0.6433  0.0195
   74MOL0     C10138   4.366   1.775   6.354 -0.0902 -0.1577  0.4657
   74MOL0     C10139   4.252   1.809   6.375 -0.7075  0.5297  0.2007
   74MOL0     C10140   4.655   2.386   6.572  0.2076 -0.1276 -0.5909
   74MOL0     C10141   4.725   2.507   6.605 -0.0522 -0.3637  0.6191
   74MOL0     C10142   4.705   2.571   6.737  0.9008 -1.4384 -0.3057
   74MOL0     H10143   5.165   2.765   6.567 -0.8486  1.0540  1.5375
   74MOL0     H10144   5.326   2.945   6.534 -0.8650 -1.0882  1.4083
   74MOL0     H10145   5.333   3.123   6.120  0.8324 -0.5012 -0.4454
   74MOL0     H10146   5.456   3.218   6.208 -0.0154  2.8658  2.2057
   74MOL0     H10147   5.158   3.268   6.186  0.3371 -4.4227  1.0258
   74MOL0     H10148   5.256   3.347   6.307 -0.6304 -1.5261 -0.3939
   74MOL0     H10149   5.222   3.492   6.110  0.1206  0.4959  0.0166
   74MOL0     H10150   5.395   3.470   6.152 -0.9819 -1.4009  2.9148
   74MOL0     H10151   5.371   3.480   5.909  4.3915  0.1183 -0.2704
   74MOL0     H10152   5.435   3.324   5.976 -1.5597 -1.1054 -1.3847
   74MOL0     H10153   5.156   3.381   5.868 -3.0806 -1.7378  3.0958
   74MOL0     H10154   5.206   3.231   5.946 -0.1540  0.0987  1.6520
   74MOL0     H10155   5.285   3.354   5.670 -4.2537 -0.4964  0.7083
   74MOL0     H10156   5.391   3.244   5.760 -0.4572 -0.2239  2.2828
   74MOL0     H10157   5.093   3.220   5.704  1.5679  3.2989  1.7095
   74MOL0     H10158   5.179   3.085   5.769 -2.0216  1.8213  1.4074
   74MOL0     H10159   5.164   3.041   5.539 -0.6665  1.3606 -1.0434
   74MOL0     H10160   5.217   3.199   5.498  1.4345 -0.9546 -1.9884
   74MOL0     H10161   5.318   2.856   5.663  1.3203  0.3647  1.2181
   74MOL0     H10162   5.494   2.691   5.629 -0.5766 -0.2930  0.5912
   74MOL0     H10163   5.651   2.777   5.662 -0.8159 -1.6383 -0.2695
   74MOL0     H10164   5.531   2.701   5.401  1.0777  1.1831 -0.8208
   74MOL0     H10165   5.686   2.780   5.431  1.5090 -1.1752  0.7922
   74MOL0     H10166   5.754   2.580   5.548  1.0835  2.6998 -1.2772
   74MOL0     H10167   5.622   2.485   5.492  3.4326 -2.5440  1.2630
   74MOL0     H10168   5.677   2.537   5.263 -2.2127  1.8108  0.6398
   74MOL0     H10169   5.835   2.615   5.316 -0.7960  1.2044  1.3221
   74MOL0     H10170   5.781   2.449   5.097  1.2160 -0.0616  0.7621
   74MOL0     H10171   5.819   2.432   4.848  1.3931  0.5255 -0.6449
   74MOL0     H10172   5.781   2.270   4.862  1.0741 -2.0715  1.8195
   74MOL0     H10173   5.945   2.324   4.803 -1.9308 -0.9623 -1.3332
   74MOL0     H10174   6.448   2.056   5.049  1.9523 -1.4999  0.9557
   74MOL0     H10175   6.608   1.887   4.950 -0.4462 -0.2564 -0.1994
   74MOL0     H10176   6.587   1.524   4.767  1.1547  1.5677  1.5399
   74MOL0     H10177   6.426   1.574   4.728 -0.2030  0.0348 -2.0152
   74MOL0     H10178   6.532   1.690   4.523 -1.6505  1.9154  2.9794
   74MOL0     H10179   6.681   1.593   4.550 -1.0144  1.0822 -1.7091
   74MOL0     H10180   6.526   1.498   4.390 -0.2462 -2.6301 -0.7443
   74MOL0     H10181   6.407   1.479   4.506 -0.1084  0.9196 -1.9327
   74MOL0     H10182   6.494   1.269   4.519 -2.1188  1.6508  1.0065
   74MOL0     H10183   6.602   1.344   4.635  0.2679  0.8901  0.2776
   74MOL0     H10184   6.676   1.340   4.334 -2.2202  0.0651 -1.1867
   74MOL0     H10185   6.767   1.400   4.456 -1.8407  1.7210 -2.6331
   74MOL0     H10186   6.669   1.116   4.453 -1.6326  3.2123 -0.5588
   74MOL0     H10187   6.777   1.176   4.575  1.0073 -0.1917  0.3132
   74MOL0     H10188   6.952   1.199   4.430 -0.8202 -0.7619  0.7884
   74MOL0     H10189   6.863   1.164   4.275 -0.1345  0.1377 -1.3483
   74MOL0     H10190   6.975   0.955   4.320 -0.4567 -1.2444 -1.2791
   74MOL0     H10191   6.810   0.927   4.357  1.6003 -0.6364 -2.2570
   74MOL0     H10192   6.303   1.759   4.684  0.8417 -0.7925 -0.2676
   74MOL0     H10193   6.135   1.909   4.790 -1.6855 -1.0823  2.4320
   74MOL0     H10194   6.193   2.202   5.185 -0.0343  2.4770 -0.2367
   74MOL0     H10195   6.055   2.286   5.372  1.4779 -1.0982 -0.3988
   74MOL0     H10196   5.118   3.057   6.162  0.3437 -0.0839 -1.5712
   74MOL0     H10197   4.979   2.861   6.195  0.2788 -2.4563  0.0787
   74MOL0     H10198   4.901   2.509   6.303  0.5708  2.5936  1.7022
   74MOL0     H10199   4.781   2.312   6.271 -0.3978 -0.9499  0.5443
   74MOL0     H10200   4.779   2.090   6.416  0.4767  2.3853  0.4047
   74MOL0     H10201   4.654   2.057   6.533  1.3486  4.3042  0.9150
   74MOL0     H10202   4.669   1.966   6.233 -1.5258 -0.9707 -0.2591
   74MOL0     H10203   4.512   2.008   6.291  0.5353  0.2429 -2.3504
   74MOL0     H10204   4.700   1.787   6.398  0.3091  0.1518 -0.7560
   74MOL0     H10205   4.550   1.850   6.484 -1.5710  0.4530 -1.5222
   74MOL0     H10206   4.544   1.656   6.310 -0.8907  0.3070  1.1124
   74MOL0     H10207   4.520   1.786   6.204  2.4987  0.9776  0.4392
   74MOL0     H10208   4.148   1.830   6.389 -0.7994  0.9580 -1.0138
   74MOL0     H10209   4.583   2.355   6.647 -3.7466  0.4122 -3.7838
   74MOL0     H10210   4.661   2.671   6.737  1.7652 -1.0485 -0.1936
   74MOL0     H10211   4.644   2.518   6.811 -2.4680  0.9927 -1.0910
   74MOL0     H10212   4.804   2.565   6.783  2.4503 -1.4424 -3.4372
   75MOL0     O10213   0.132   8.772   6.929  0.7913  0.0142 -0.3632
   75MOL0     C10214   0.203   8.860   6.874  0.0685  0.0674  0.8337
   75MOL0     O10215   0.280   8.852   6.759  0.1173 -0.3896 -0.4888
   75MOL0     C10216   0.262   8.744   6.680  1.1439 -0.6283  0.3606
   75MOL0     C10217   0.169   8.741   6.574  0.7536 -0.1545  0.3509
   75MOL0     C10218   0.162   8.633   6.491  0.7240 -1.1017 -0.2037
   75MOL0     C10219   0.228   8.513   6.521 -0.0128  0.5721  0.2604
   75MOL0     O10220   0.199   8.416   6.428 -0.4656  0.6495  0.2875
   75MOL0     C10221   0.195   8.277   6.467  0.4340 -0.5505 -0.9526
   75MOL0     C10222   0.181   8.186   6.344 -0.9860 -0.4498 -0.1015
   75MOL0     C10223   0.128   8.044   6.361 -0.3331 -0.1552  0.3984
   75MOL0     C10224  -0.013   8.062   6.413 -0.5467 -0.3952 -0.6172
   75MOL0     C10225  -0.100   7.931   6.404  0.0235  0.2242  0.4410
   75MOL0     C10226  -0.239   7.945   6.467  0.7744  0.0658  0.1160
   75MOL0     C10227  -0.236   7.935   6.615  0.3848 -0.2154  0.2435
   75MOL0     C10228  -0.386   7.928   6.664  0.5710 -0.5410  0.2954
   75MOL0     N10229  -0.443   8.069   6.677  0.0786 -1.0482 -0.5140
   75MOL0     C10230  -0.487   8.155   6.580  0.6589 -0.6902  0.0938
   75MOL0     C10231  -0.526   8.259   6.654 -0.8426 -1.3882  0.5663
   75MOL0     C10232  -0.571   8.402   6.608  0.4397  0.2093 -0.7301
   75MOL0     C10233  -0.687   8.458   6.692  0.7255 -0.1927  0.5159
   75MOL0     C10234  -0.798   8.364   6.689  0.2897  0.2920  0.2033
   75MOL0     C10235  -0.935   8.433   6.742  0.2810  0.9329  0.4060
   75MOL0     O10236  -1.049   8.374   6.673 -0.0511  0.3506 -0.1945
   75MOL0     C10237  -1.171   8.438   6.697  1.0895 -0.1529 -0.7145
   75MOL0     C10238  -1.248   8.471   6.589 -0.2499  0.2273  0.0752
   75MOL0     C10239  -1.373   8.531   6.599  0.6786  0.0209  0.5773
   75MOL0     C10240  -1.459   8.556   6.478 -1.3191 -0.5159 -0.0909
   75MOL0     C10241  -1.415   8.582   6.720 -0.3138 -0.4786 -0.2406
   75MOL0     C10242  -1.531   8.651   6.753  0.6029 -0.1724 -0.8637
   75MOL0     O10243  -1.614   8.601   6.853 -0.6362 -0.0632 -0.1944
   75MOL0     C10244  -1.738   8.648   6.857  0.2599 -0.1362  0.6500
   75MOL0     C10245  -1.773   8.744   6.952  0.0559  0.4575  0.2597
   75MOL0     C10246  -1.903   8.791   6.955  0.1021 -0.5232 -0.6761
   75MOL0     C10247  -1.998   8.750   6.870  0.0954 -0.5582  0.0977
   75MOL0     O10248  -2.119   8.814   6.883  0.8914  0.0608 -0.5239
   75MOL0     C10249  -2.237   8.771   6.810 -0.2888  0.3119  0.3466
   75MOL0     C10250  -2.348   8.872   6.842 -0.4149 -0.3693 -0.2839
   75MOL0     C10251  -2.393   8.867   6.991 -0.1473  0.2061 -0.1929
   75MOL0     C10252  -2.508   8.956   7.037 -0.1059 -1.0856  0.0701
   75MOL0     C10253  -2.554   8.925   7.180  0.6787 -0.1755  0.2768
   75MOL0     C10254  -2.681   8.997   7.234 -0.3040  0.5336 -0.1653
   75MOL0     C10255  -2.743   8.937   7.368  0.0814  0.4338  0.1800
   75MOL0     C10256  -2.871   8.851   7.349 -0.5110  0.3791 -0.4238
   75MOL0    Cl10257  -2.999   8.939   7.255  0.2892  0.3558 -0.0216
   75MOL0     C10258  -1.967   8.654   6.782  0.4135 -0.3069  0.2408
   75MOL0     C10259  -1.842   8.594   6.776  0.5690  0.2552  0.7092
   75MOL0     O10260  -1.553   8.746   6.681 -0.2591 -0.5185 -0.6951
   75MOL0     C10261  -1.339   8.548   6.835 -0.8038  1.1360  0.1045
   75MOL0     C10262  -1.212   8.477   6.827  1.1857  0.5481  0.0532
   75MOL0     N10263  -0.492   8.249   6.783 -0.1862 -0.1601  0.3115
   75MOL0     N10264  -0.460   8.126   6.800  0.4675 -0.1432  0.6910
   75MOL0     C10265   0.322   8.513   6.630  0.4274 -0.0140 -0.8245
   75MOL0     C10266   0.338   8.629   6.704 -0.7593  0.5570 -0.2593
   75MOL0     C10267   0.231   8.967   6.961 -0.0415 -1.1056 -0.2365
   75MOL0     C10268   0.368   9.007   6.975 -0.1026  0.6218 -0.8416
   75MOL0     C10269   0.409   9.114   7.055 -1.2459 -0.4354  0.7560
   75MOL0     C10270   0.310   9.181   7.114 -0.5216 -0.7210  0.8115
   75MOL0     O10271   0.363   9.271   7.201 -0.1555 -0.3708 -0.0180
   75MOL0     C10272   0.324   9.256   7.340 -0.3584 -1.0642 -0.7272
   75MOL0     C10273   0.369   9.126   7.413 -0.2809 -0.2839  0.3963
   75MOL0     C10274   0.445   9.159   7.540 -0.6930  0.1612  0.3889
   75MOL0     C10275   0.560   9.063   7.579  1.3156 -1.1800 -0.0031
   75MOL0     C10276   0.517   8.919   7.586  1.0666  0.6905 -0.7022
   75MOL0     C10277   0.489   8.798   7.577 -0.3656  0.2954 -0.6136
   75MOL0     C10278   0.177   9.151   7.111  1.0308  0.9016  0.2222
   75MOL0     C10279   0.132   9.044   7.040  0.0914 -0.8398  0.1866
   75MOL0     C10280  -0.010   9.008   7.045 -0.2482  0.3404  1.4176
   75MOL0     H10281   0.107   8.827   6.554 -1.5330 -1.3227  2.0020
   75MOL0     H10282   0.095   8.630   6.405  2.8302  1.6077 -2.1096
   75MOL0     H10283   0.108   8.272   6.533 -0.8235  0.9925 -2.4025
   75MOL0     H10284   0.294   8.263   6.511  0.6813  1.6750 -0.7011
   75MOL0     H10285   0.124   8.241   6.268  0.6864 -0.2322 -1.2378
   75MOL0     H10286   0.279   8.170   6.299 -1.2320  1.8047 -1.6585
   75MOL0     H10287   0.148   7.994   6.266 -1.5668 -0.3158  0.2100
   75MOL0     H10288   0.189   7.992   6.436  0.1022  0.7051  0.6538
   75MOL0     H10289   0.005   8.087   6.518  1.8135 -4.0648  0.0372
   75MOL0     H10290  -0.067   8.144   6.365 -2.9303 -0.0624  2.4063
   75MOL0     H10291  -0.043   7.843   6.435 -0.2602 -0.7166 -1.5607
   75MOL0     H10292  -0.123   7.909   6.299 -2.4775  2.2077  0.4540
   75MOL0     H10293  -0.281   8.041   6.433  4.0877  0.2970 -4.3225
   75MOL0     H10294  -0.301   7.860   6.435 -0.2919  1.1790 -0.9222
   75MOL0     H10295  -0.190   8.025   6.656  0.1391  0.7561 -1.4970
   75MOL0     H10296  -0.191   7.845   6.657 -2.4512 -1.2153  1.4177
   75MOL0     H10297  -0.451   7.862   6.606 -4.7695 -0.3911  5.1952
   75MOL0     H10298  -0.392   7.878   6.760 -3.1453 -1.8456 -0.4532
   75MOL0     H10299  -0.489   8.152   6.472 -0.3365  4.1252 -0.2065
   75MOL0     H10300  -0.603   8.399   6.504 -2.1271  1.9553 -0.0837
   75MOL0     H10301  -0.479   8.461   6.620  0.5015  0.1755 -1.0253
   75MOL0     H10302  -0.668   8.481   6.798  2.5927  0.5095  0.0794
   75MOL0     H10303  -0.716   8.554   6.649  0.6739 -0.3912  0.1038
   75MOL0     H10304  -0.812   8.327   6.587  1.9909  0.8459 -0.2665
   75MOL0     H10305  -0.794   8.277   6.755  1.2332 -0.9159 -1.3612
   75MOL0     H10306  -0.950   8.427   6.851 -0.9177 -2.1787  0.1743
   75MOL0     H10307  -0.928   8.538   6.712 -0.2863  0.8398 -0.0535
   75MOL0     H10308  -1.194   8.455   6.496 -2.7399  0.1162 -1.4461
   75MOL0     H10309  -1.559   8.516   6.495 -1.4254  0.3540  1.5457
   75MOL0     H10310  -1.407   8.509   6.394  1.0821  1.1173  0.3483
   75MOL0     H10311  -1.460   8.664   6.457  2.5681  0.4407  3.2048
   75MOL0     H10312  -1.706   8.787   7.026 -0.5811  1.5693  0.2136
   75MOL0     H10313  -1.918   8.873   7.023 -0.1616  0.0180 -1.3738
   75MOL0     H10314  -2.216   8.757   6.703 -0.9954 -0.6576  0.3205
   75MOL0     H10315  -2.269   8.673   6.846 -0.2683  0.3509  0.4719
   75MOL0     H10316  -2.308   8.967   6.804  0.9806 -1.4299 -1.6003
   75MOL0     H10317  -2.441   8.851   6.788  0.1154 -2.2598 -0.5326
   75MOL0     H10318  -2.302   8.872   7.052 -1.8488 -0.8373  2.6011
   75MOL0     H10319  -2.436   8.768   7.002 -3.5842  1.6876  1.0743
   75MOL0     H10320  -2.591   8.946   6.967  0.6253 -0.8023 -0.8593
   75MOL0     H10321  -2.480   9.061   7.042 -2.9035 -0.2826 -0.0126
   75MOL0     H10322  -2.565   8.817   7.193 -0.2906 -0.1260 -0.0443
   75MOL0     H10323  -2.477   8.955   7.252 -0.1380  0.6853  0.8327
   75MOL0     H10324  -2.746   8.995   7.146  0.9765 -0.1143 -1.1364
   75MOL0     H10325  -2.643   9.097   7.254 -0.5607  0.2025  2.3074
   75MOL0     H10326  -2.764   9.020   7.436  0.5639  0.0922  0.7553
   75MOL0     H10327  -2.674   8.877   7.427 -2.9849 -1.4022  2.1843
   75MOL0     H10328  -2.919   8.810   7.438  0.2941  0.0772 -0.1144
   75MOL0     H10329  -2.824   8.763   7.303  1.2131  0.4797  1.0293
   75MOL0     H10330  -2.036   8.632   6.701  0.5230 -0.4792  0.1919
   75MOL0     H10331  -1.830   8.506   6.714 -0.1004  0.7563 -0.1539
   75MOL0     H10332  -1.374   8.581   6.933 -2.5365  2.2972 -0.8629
   75MOL0     H10333  -1.154   8.464   6.917 -1.1377 -0.9627  1.4467
   75MOL0     H10334   0.386   8.434   6.668  2.3347  1.6387 -0.4146
   75MOL0     H10335   0.424   8.647   6.767 -0.0503  2.2194 -1.6355
   75MOL0     H10336   0.444   8.952   6.921 -0.8551  1.0526 -2.4077
   75MOL0     H10337   0.515   9.139   7.062  0.0140 -2.8259 -4.4702
   75MOL0     H10338   0.353   9.350   7.387 -1.3155 -1.1667  0.0821
   75MOL0     H10339   0.215   9.261   7.352 -0.4651 -1.2734 -1.5285
   75MOL0     H10340   0.447   9.092   7.345 -1.7785  0.7424 -1.9447
   75MOL0     H10341   0.282   9.060   7.420  1.1728 -2.7410 -2.3895
   75MOL0     H10342   0.502   9.250   7.521  0.2540 -0.7392 -1.4221
   75MOL0     H10343   0.375   9.175   7.622  0.4432 -3.5974  2.3269
   75MOL0     H10344   0.592   9.099   7.677  0.3064 -2.5829  0.8743
   75MOL0     H10345   0.634   9.065   7.498  2.4086  0.9318  0.9571
   75MOL0     H10346   0.472   8.693   7.565 -0.1676  0.1337  0.4353
   75MOL0     H10347   0.109   9.217   7.164 -0.7328 -0.4455 -0.2568
   75MOL0     H10348  -0.021   8.900   7.062 -1.3610  0.3186  0.6495
   75MOL0     H10349  -0.065   9.060   7.124 -0.0311 -0.1743  1.9172
   75MOL0     H10350  -0.051   9.026   6.945  0.6612  0.2123  1.0118
   76MOL0     O10351   1.431  11.242   3.341 -0.2756  0.3134 -0.4208
   76MOL0     C10352   1.508  11.279   3.419 -1.1111 -0.0090 -0.8200
   76MOL0     O10353   1.478  11.340   3.548 -0.1605 -0.3617  0.0583
   76MOL0     C10354   1.356  11.406   3.555  0.1031  0.4205 -1.0077
   76MOL0     C10355   1.348  11.540   3.572 -0.2600  0.8371 -0.2365
   76MOL0     C10356   1.237  11.603   3.615 -0.8302  0.1013 -0.0982
   76MOL0     C10357   1.126  11.523   3.658  0.2897 -0.6017  0.6171
   76MOL0     O10358   1.008  11.569   3.711 -0.3047 -0.2307  0.3657
   76MOL0     C10359   0.967  11.702   3.680  0.0672 -0.2300 -0.0840
   76MOL0     C10360   0.821  11.703   3.645 -0.3776 -0.8507  0.2751
   76MOL0     C10361   0.727  11.643   3.758 -0.4215  0.5575 -0.1148
   76MOL0     C10362   0.575  11.619   3.720 -0.3147 -0.1955  0.0521
   76MOL0     C10363   0.501  11.747   3.665  0.3235 -0.6276  0.5300
   76MOL0     C10364   0.432  11.818   3.780  0.1092  0.5142  0.6970
   76MOL0     C10365   0.356  11.945   3.745  0.3859 -0.2252  0.5718
   76MOL0     C10366   0.442  12.071   3.792  0.6257  0.9849 -0.5907
   76MOL0     N10367   0.582  12.075   3.735  0.4430  0.5211 -1.0241
   76MOL0     C10368   0.704  12.051   3.790  0.8406  0.1389  0.1407
   76MOL0     C10369   0.796  12.096   3.691  0.9673 -0.1630  0.2738
   76MOL0     C10370   0.944  12.102   3.709  0.4061  0.1224  0.0673
   76MOL0     C10371   1.003  12.081   3.570  0.5111  0.2944 -0.8432
   76MOL0     C10372   1.150  12.040   3.574  0.3902  0.5476 -0.7086
   76MOL0     C10373   1.202  11.986   3.446 -0.5518  0.0888 -0.4875
   76MOL0     O10374   1.138  11.861   3.408 -0.0890 -0.2927 -0.0092
   76MOL0     C10375   1.106  11.878   3.279  0.5048  0.2175  0.1150
   76MOL0     C10376   0.966  11.887   3.256 -0.2362 -0.6739  0.5444
   76MOL0     C10377   0.920  11.923   3.132  0.5676  0.3609 -0.5247
   76MOL0     C10378   0.773  11.945   3.108 -0.7944  0.3862  0.0682
   76MOL0     C10379   1.014  11.951   3.031 -0.1522 -0.4140 -0.5560
   76MOL0     C10380   0.975  12.019   2.903 -0.9689 -0.3282  0.1462
   76MOL0     O10381   0.908  12.140   2.905 -0.0151 -0.1754  0.1928
   76MOL0     C10382   0.836  12.192   2.792  0.1989 -0.4115  0.5262
   76MOL0     C10383   0.765  12.111   2.709 -0.0882 -0.1654  0.2961
   76MOL0     C10384   0.689  12.160   2.612  0.2963 -0.8012  0.4177
   76MOL0     C10385   0.661  12.306   2.599  1.2127 -0.6422  0.4077
   76MOL0     O10386   0.580  12.343   2.494  0.2045 -0.0932 -0.0186
   76MOL0     C10387   0.562  12.481   2.465 -0.6784 -0.2971 -0.6975
   76MOL0     C10388   0.540  12.508   2.319  0.2475  0.1978 -0.2121
   76MOL0     C10389   0.402  12.454   2.278  0.4238  0.9288  0.0295
   76MOL0     C10390   0.351  12.493   2.146  0.2045  1.2279  1.2597
   76MOL0     C10391   0.283  12.378   2.064 -0.5529  0.0432  1.3576
   76MOL0     C10392   0.244  12.416   1.919  0.3580  0.9337 -0.0278
   76MOL0     C10393   0.179  12.300   1.836  0.1318  0.3940 -0.2338
   76MOL0     C10394   0.075  12.350   1.743  0.5817  0.8928 -0.1103
   76MOL0    Cl10395   0.143  12.377   1.578 -0.1376 -0.4271 -0.2767
   76MOL0     C10396   0.739  12.392   2.683  0.2264  0.2623  0.1554
   76MOL0     C10397   0.826  12.334   2.770  0.1321  0.8086  0.6070
   76MOL0     O10398   0.997  11.952   2.803  0.2121  0.5606  0.5140
   76MOL0     C10399   1.149  11.938   3.051  0.7361 -0.2845  1.5310
   76MOL0     C10400   1.201  11.903   3.178 -0.6153 -0.2652 -0.1883
   76MOL0     N10401   0.720  12.148   3.587  0.1740 -0.0968 -0.0326
   76MOL0     N10402   0.597  12.112   3.608  0.1293  0.6366  0.9285
   76MOL0     C10403   1.123  11.390   3.620  0.1191  0.2080 -0.0216
   76MOL0     C10404   1.244  11.329   3.577  0.9462 -0.2185  0.3114
   76MOL0     C10405   1.650  11.248   3.390  0.1753  0.2433  0.3917
   76MOL0     C10406   1.741  11.265   3.503  0.7892 -0.0559  0.3980
   76MOL0     C10407   1.873  11.229   3.500  0.3385 -0.7807  0.0112
   76MOL0     C10408   1.929  11.173   3.382  0.6850 -0.2768 -0.1044
   76MOL0     O10409   2.056  11.132   3.363 -0.5648 -0.0044 -0.6998
   76MOL0     C10410   2.135  11.104   3.483 -0.1050 -0.4740  0.2294
   76MOL0     C10411   2.271  11.061   3.426  0.3992  0.8759  0.1289
   76MOL0     C10412   2.391  11.120   3.500 -0.2127  1.2222 -0.7041
   76MOL0     C10413   2.432  11.026   3.620  0.0210 -0.5107 -0.3451
   76MOL0     C10414   2.562  11.064   3.684 -0.6275  0.5759 -0.4342
   76MOL0     C10415   2.677  11.074   3.726 -0.1155 -0.5985  0.1520
   76MOL0     C10416   1.846  11.177   3.268 -0.9145  0.5477  0.1139
   76MOL0     C10417   1.709  11.198   3.272  0.1850  0.0486 -0.2514
   76MOL0     C10418   1.630  11.175   3.142 -0.3034 -0.1758  0.1437
   76MOL0     H10419   1.439  11.595   3.549 -2.0105  2.3944 -4.5232
   76MOL0     H10420   1.245  11.709   3.633 -0.2285  0.2274 -0.9972
   76MOL0     H10421   1.006  11.728   3.581 -0.6190  0.0037 -0.2988
   76MOL0     H10422   0.981  11.786   3.750  2.4923  0.0060 -0.7598
   76MOL0     H10423   0.795  11.808   3.631  2.4196 -0.2868 -1.5240
   76MOL0     H10424   0.812  11.649   3.550 -2.6004  0.2653 -0.2077
   76MOL0     H10425   0.761  11.540   3.768 -3.2893 -0.5762 -1.1238
   76MOL0     H10426   0.737  11.698   3.853 -1.4513  1.3610 -0.4626
   76MOL0     H10427   0.579  11.541   3.644 -0.0981 -2.9010  2.6423
   76MOL0     H10428   0.516  11.574   3.801 -0.6864  0.5214  0.1909
   76MOL0     H10429   0.417  11.716   3.601 -0.9600  1.7538  0.9669
   76MOL0     H10430   0.578  11.803   3.610  1.9141 -2.4016  0.8281
   76MOL0     H10431   0.363  11.742   3.819  2.0948 -0.8595  1.6934
   76MOL0     H10432   0.503  11.834   3.861  0.3653  0.6453  0.4460
   76MOL0     H10433   0.255  11.928   3.785  0.0049 -2.4068 -1.1209
   76MOL0     H10434   0.333  11.951   3.638 -2.8640  4.9240  1.1997
   76MOL0     H10435   0.383  12.158   3.763 -0.3034  0.3545 -0.6400
   76MOL0     H10436   0.448  12.071   3.901 -1.5954 -2.9413 -0.2664
   76MOL0     H10437   0.719  12.002   3.886  1.3843  1.7024  0.8918
   76MOL0     H10438   0.965  12.028   3.787  2.3156 -0.3857 -0.8697
   76MOL0     H10439   0.967  12.197   3.756  2.1584 -1.1653  1.9487
   76MOL0     H10440   0.935  12.010   3.521 -1.8659  3.1571 -1.9934
   76MOL0     H10441   1.007  12.169   3.505  4.3440  2.3111  1.7496
   76MOL0     H10442   1.218  12.122   3.600  0.3003  1.1280 -2.1910
   76MOL0     H10443   1.156  11.966   3.655  2.0821  2.3221  0.8890
   76MOL0     H10444   1.177  12.067   3.377 -2.4943 -0.2207 -0.1999
   76MOL0     H10445   1.312  11.983   3.445 -0.4592  1.1818 -3.4506
   76MOL0     H10446   0.896  11.863   3.336 -2.8734 -3.0973 -2.2618
   76MOL0     H10447   0.752  12.051   3.127  0.0557  0.2996  1.6696
   76MOL0     H10448   0.700  11.885   3.163 -1.3834  0.8590 -0.1903
   76MOL0     H10449   0.747  11.938   3.002  4.1743 -0.6754 -1.3723
   76MOL0     H10450   0.757  12.002   2.711  1.3289 -0.4842 -3.3980
   76MOL0     H10451   0.653  12.084   2.543  1.6141 -2.5486  1.5650
   76MOL0     H10452   0.480  12.523   2.523 -1.0017 -0.5588 -0.9577
   76MOL0     H10453   0.655  12.532   2.493 -0.6381  0.7834 -2.5789
   76MOL0     H10454   0.558  12.614   2.302  4.4315 -0.3314  0.0367
   76MOL0     H10455   0.624  12.462   2.267  0.0516 -1.6052  0.9754
   76MOL0     H10456   0.332  12.479   2.358  0.2084  0.6144 -0.0593
   76MOL0     H10457   0.416  12.345   2.268  0.1062  1.0344 -1.9746
   76MOL0     H10458   0.435  12.524   2.083 -1.2224 -0.9692 -1.9992
   76MOL0     H10459   0.282  12.579   2.142  1.3090  2.1007  0.2238
   76MOL0     H10460   0.344  12.287   2.060 -1.8548 -0.8298 -2.7399
   76MOL0     H10461   0.187  12.354   2.111 -0.4466 -0.9204  1.1133
   76MOL0     H10462   0.334  12.453   1.870  1.7975  1.0852  2.5451
   76MOL0     H10463   0.175  12.499   1.932 -1.3728 -0.6031  1.0801
   76MOL0     H10464   0.140  12.240   1.919  4.2219 -0.7626  1.0493
   76MOL0     H10465   0.253  12.237   1.788  1.3879 -0.5448  2.7142
   76MOL0     H10466   0.015  12.431   1.785 -0.3286  0.4486 -0.5479
   76MOL0     H10467   0.003  12.268   1.738  1.0140  0.2389  2.7468
   76MOL0     H10468   0.720  12.498   2.695 -2.7268 -0.4661  3.4440
   76MOL0     H10469   0.897  12.398   2.819  0.2193  2.4565 -1.5108
   76MOL0     H10470   1.216  11.957   2.967  0.4530 -0.9324  1.1584
   76MOL0     H10471   1.306  11.886   3.201 -0.0556  2.5386 -0.3043
   76MOL0     H10472   1.037  11.327   3.639 -2.3593  2.8245 -1.5642
   76MOL0     H10473   1.253  11.221   3.574  2.9890 -0.1081  0.6373
   76MOL0     H10474   1.707  11.291   3.603  0.9313  0.3722  0.3354
   76MOL0     H10475   1.940  11.240   3.585  3.7986  2.9339 -2.7981
   76MOL0     H10476   2.139  11.194   3.545 -2.2553  0.2419 -0.5793
   76MOL0     H10477   2.103  11.019   3.544  3.0829 -2.5097 -0.6890
   76MOL0     H10478   2.286  11.098   3.325 -1.3753  1.5101  0.0595
   76MOL0     H10479   2.259  10.953   3.425 -0.9101  0.9959 -1.2320
   76MOL0     H10480   2.469  11.129   3.424 -2.1744 -0.6313 -3.0988
   76MOL0     H10481   2.379  11.219   3.545 -0.5948  0.7847  0.1956
   76MOL0     H10482   2.437  10.921   3.589 -0.9686 -0.6745  0.0061
   76MOL0     H10483   2.357  11.041   3.698  3.7296  1.8532  3.1462
   76MOL0     H10484   2.778  11.066   3.761 -0.4490  0.1477  1.3339
   76MOL0     H10485   1.898  11.165   3.174 -0.9106  4.0505 -0.4357
   76MOL0     H10486   1.701  11.128   3.074 -0.3010 -0.0157  0.0344
   76MOL0     H10487   1.545  11.107   3.150  0.1762 -0.6102  2.2463
   76MOL0     H10488   1.591  11.270   3.103  2.0558  0.3216 -1.2669
   77MOL0     O10489   7.297  10.478   9.008  1.0298 -0.1226  1.1773
   77MOL0     C10490   7.382  10.546   8.947  0.5903 -0.0479  0.5535
   77MOL0     O10491   7.357  10.652   8.873  0.9492 -0.4034 -0.5122
   77MOL0     C10492   7.227  10.703   8.881 -0.1426  0.4940  0.1161
   77MOL0     C10493   7.129  10.703   8.981 -1.1071  0.2290  0.6049
   77MOL0     C10494   7.009  10.763   8.958  0.4323  0.3734 -1.1317
   77MOL0     C10495   6.969  10.814   8.835 -0.1739  0.2797  0.5550
   77MOL0     O10496   6.853  10.883   8.809 -0.6271 -0.2157 -0.0715
   77MOL0     C10497   6.729  10.845   8.866 -0.0472  0.6507 -0.1924
   77MOL0     C10498   6.608  10.870   8.778  0.2737  1.5342  0.3274
   77MOL0     C10499   6.568  11.018   8.785 -0.4842 -0.0237 -0.5109
   77MOL0     C10500   6.415  11.034   8.765 -0.5488 -0.8326  0.2188
   77MOL0     C10501   6.394  11.183   8.740 -0.5503 -0.2108  0.2892
   77MOL0     C10502   6.256  11.223   8.777 -0.8662 -0.8991  0.4041
   77MOL0     C10503   6.209  11.347   8.699  0.6298  0.4224 -0.0745
   77MOL0     C10504   6.062  11.398   8.714 -0.2930  0.0493 -1.8216
   77MOL0     N10505   5.993  11.329   8.606 -0.1201 -0.6871  0.2487
   77MOL0     C10506   5.957  11.198   8.584  1.0227  0.7270  0.0520
   77MOL0     C10507   5.896  11.202   8.460  0.5661  0.9829 -0.3247
   77MOL0     C10508   5.813  11.082   8.412  0.4088  0.4092  0.2269
   77MOL0     C10509   5.698  11.077   8.516 -1.5559 -1.1952  0.6606
   77MOL0     C10510   5.581  11.007   8.453  1.1855 -0.2904 -0.3984
   77MOL0     C10511   5.451  11.029   8.542  0.9427  0.3533  0.3889
   77MOL0     O10512   5.435  10.942   8.656 -0.4726  0.1787  0.1043
   77MOL0     C10513   5.357  10.979   8.760 -1.3547 -0.1717 -0.1727
   77MOL0     C10514   5.242  11.060   8.744  0.5573 -0.2052  0.9834
   77MOL0     C10515   5.151  11.083   8.852 -0.0882 -1.3051  0.3318
   77MOL0     C10516   5.040  11.182   8.815  1.1967  0.3308 -1.6127
   77MOL0     C10517   5.173  11.035   8.982  1.0438  0.7190  0.9003
   77MOL0     C10518   5.094  11.059   9.103  0.6160  0.0070 -0.5000
   77MOL0     O10519   5.127  10.990   9.226  0.0388 -0.0992  1.3853
   77MOL0     C10520   5.064  10.983   9.346  0.0470 -1.0047 -0.5919
   77MOL0     C10521   4.952  11.070   9.378  0.9297  0.6694  0.3078
   77MOL0     C10522   4.868  11.045   9.497 -0.3066 -1.5413  0.1945
   77MOL0     C10523   4.916  10.955   9.590  0.1896 -0.9010 -0.7026
   77MOL0     O10524   4.856  10.921   9.713  0.0647 -0.0461  0.3175
   77MOL0     C10525   4.732  10.993   9.745 -0.0285  0.0974 -0.4211
   77MOL0     C10526   4.677  10.949   9.886  0.3597  0.2291  0.9167
   77MOL0     C10527   4.598  11.060   9.957 -1.0956 -0.8973 -0.3455
   77MOL0     C10528   4.526  11.004  10.077 -0.1318 -0.5991  0.3984
   77MOL0     C10529   4.460  11.106  10.168  0.4095 -0.2874  0.3169
   77MOL0     C10530   4.364  11.194  10.087 -0.3447 -0.0903  0.4584
   77MOL0     C10531   4.243  11.107  10.041 -0.0492 -0.3720 -0.9773
   77MOL0     C10532   4.120  11.181   9.985  0.0739 -0.1766  0.9090
   77MOL0    Cl10533   4.176  11.287   9.840 -0.4860 -0.0311 -0.5491
   77MOL0     C10534   5.025  10.873   9.559 -0.3248 -0.7919  0.0916
   77MOL0     C10535   5.093  10.882   9.436 -0.5822  0.7180  0.2441
   77MOL0     O10536   5.011  11.143   9.096  0.5990 -0.1558 -0.3432
   77MOL0     C10537   5.288  10.949   8.994  0.0935 -0.2023 -0.3202
   77MOL0     C10538   5.375  10.927   8.886 -0.0033 -0.0557 -0.5023
   77MOL0     N10539   5.901  11.327   8.410  0.4895  0.4380  0.4270
   77MOL0     N10540   5.968  11.399   8.493 -0.0708 -0.7389  0.3368
   77MOL0     C10541   7.069  10.819   8.736  0.0268  1.2983 -0.1926
   77MOL0     C10542   7.197  10.767   8.753  0.0352  0.3125 -0.6205
   77MOL0     C10543   7.516  10.496   8.962  0.2374 -0.4214  1.0972
   77MOL0     C10544   7.616  10.567   8.888  0.0948 -0.2881 -0.6546
   77MOL0     C10545   7.747  10.528   8.888 -0.6090 -1.0190 -0.7238
   77MOL0     C10546   7.788  10.420   8.963  0.3257  0.1907 -0.2376
   77MOL0     O10547   7.922  10.388   8.976 -0.3030 -0.2069  0.3068
   77MOL0     C10548   7.954  10.285   8.885  0.2274 -0.2521 -0.1969
   77MOL0     C10549   8.105  10.253   8.896  1.1099 -0.4903 -0.3427
   77MOL0     C10550   8.133  10.144   9.010  0.3276  1.2128 -0.2755
   77MOL0     C10551   8.048  10.015   8.994 -0.7911  0.4355  0.3518
   77MOL0     C10552   8.086   9.924   8.877  0.2245  0.4040  0.1250
   77MOL0     C10553   8.119   9.844   8.783 -0.0233 -0.9498 -0.1724
   77MOL0     C10554   7.692  10.340   9.019  0.6140  0.2400 -0.4596
   77MOL0     C10555   7.558  10.365   9.019  0.0379 -0.5651  0.4685
   77MOL0     C10556   7.481  10.273   9.100 -0.3957 -0.6591  0.4857
   77MOL0     H10557   7.148  10.644   9.070 -2.1553 -2.5976 -0.9111
   77MOL0     H10558   6.937  10.785   9.037 -1.0426 -0.9563 -2.0398
   77MOL0     H10559   6.721  10.885   8.967  0.3754 -1.1904  0.5957
   77MOL0     H10560   6.731  10.736   8.869 -2.6712  0.5563  0.8091
   77MOL0     H10561   6.633  10.838   8.676  0.5400 -0.0180  0.8549
   77MOL0     H10562   6.527  10.810   8.820  0.0186  1.2956 -0.4861
   77MOL0     H10563   6.581  11.049   8.889  0.3886 -3.0334  0.4044
   77MOL0     H10564   6.626  11.083   8.719 -0.3615  1.3410  0.8677
   77MOL0     H10565   6.381  10.975   8.679  1.1999  0.0758 -1.1739
   77MOL0     H10566   6.358  11.008   8.855 -1.4806 -1.1212 -0.4399
   77MOL0     H10567   6.427  11.228   8.646 -0.2118  1.3887  1.1431
   77MOL0     H10568   6.458  11.252   8.796  0.7545  2.3351 -3.8647
   77MOL0     H10569   6.189  11.137   8.769  0.9668 -2.7804  3.2272
   77MOL0     H10570   6.257  11.230   8.887 -0.6247  0.3850  0.3264
   77MOL0     H10571   6.237  11.334   8.594  2.1711 -0.6654  0.4324
   77MOL0     H10572   6.267  11.431   8.737 -0.4590  0.5738  1.3383
   77MOL0     H10573   6.026  11.376   8.815 -0.8405  0.5651 -1.8994
   77MOL0     H10574   6.051  11.507   8.709 -0.5503  0.0325 -1.6219
   77MOL0     H10575   5.953  11.115   8.653  0.8073  1.5060  0.9929
   77MOL0     H10576   5.875  10.992   8.407  6.1360  3.6945  2.1370
   77MOL0     H10577   5.779  11.101   8.310  1.5852  0.3243 -0.1989
   77MOL0     H10578   5.735  11.028   8.607  0.5898 -2.3611 -0.7427
   77MOL0     H10579   5.667  11.180   8.536 -1.1907 -1.1845  1.1855
   77MOL0     H10580   5.551  11.025   8.349 -0.7643 -0.4695  0.0894
   77MOL0     H10581   5.610  10.902   8.452  4.6612  0.3677 -5.1183
   77MOL0     H10582   5.460  11.136   8.563  0.8938 -0.1421  3.4268
   77MOL0     H10583   5.360  11.018   8.483  1.4102  2.2593 -0.7633
   77MOL0     H10584   5.220  11.106   8.648 -1.8868  1.3156  2.1831
   77MOL0     H10585   5.050  11.273   8.874 -2.3078  1.4399 -2.4909
   77MOL0     H10586   4.946  11.134   8.841 -0.1748  2.7123 -1.9437
   77MOL0     H10587   5.033  11.197   8.707 -0.4711  0.8816 -1.4525
   77MOL0     H10588   4.921  11.141   9.302 -1.8189  0.7800  1.4265
   77MOL0     H10589   4.773  11.096   9.504  1.8454  2.7459  4.4817
   77MOL0     H10590   4.742  11.102   9.748 -2.3176  0.3603  3.5161
   77MOL0     H10591   4.650  10.969   9.677 -0.0594  0.8513 -0.6595
   77MOL0     H10592   4.616  10.859   9.875 -2.3129  2.1971 -2.7450
   77MOL0     H10593   4.763  10.925   9.949  1.1736  0.1582 -0.1707
   77MOL0     H10594   4.526  11.100   9.885 -2.1632  2.3155  2.2576
   77MOL0     H10595   4.659  11.145   9.988 -2.3443 -0.5207  1.2207
   77MOL0     H10596   4.601  10.958  10.142 -0.9755  0.6904  2.3908
   77MOL0     H10597   4.454  10.929  10.044 -0.1544 -0.4182  0.0364
   77MOL0     H10598   4.395  11.057  10.240  0.5330  1.5723  1.7772
   77MOL0     H10599   4.530  11.175  10.215  1.2458  0.2976 -1.6826
   77MOL0     H10600   4.423  11.235  10.004 -0.6128 -1.3909 -0.3928
   77MOL0     H10601   4.334  11.280  10.147  1.4514  0.1744  1.0396
   77MOL0     H10602   4.209  11.062  10.135  1.0304  0.3446 -0.2180
   77MOL0     H10603   4.277  11.033   9.968  1.9082 -0.3675 -0.1287
   77MOL0     H10604   4.083  11.256  10.056 -2.5960 -2.1617  1.7741
   77MOL0     H10605   4.040  11.113   9.957  1.1887 -0.4014 -2.1708
   77MOL0     H10606   5.067  10.795   9.621  0.2841 -0.6495 -0.1285
   77MOL0     H10607   5.168  10.811   9.403 -1.9144 -0.0884 -1.2505
   77MOL0     H10608   5.313  10.887   9.080  1.4585 -0.8454 -1.1493
   77MOL0     H10609   5.452  10.852   8.893  2.1914  2.1085 -0.1694
   77MOL0     H10610   7.034  10.859   8.641 -0.8043  1.8176  0.3101
   77MOL0     H10611   7.277  10.770   8.680  1.4744  2.0507  0.9028
   77MOL0     H10612   7.587  10.657   8.834  1.5445 -0.6586 -2.1605
   77MOL0     H10613   7.814  10.598   8.839 -1.2883  0.5617  0.5213
   77MOL0     H10614   7.896  10.194   8.901 -1.4455  1.1069  2.0570
   77MOL0     H10615   7.941  10.321   8.783 -0.0855 -1.0644 -0.4527
   77MOL0     H10616   8.167  10.341   8.916  0.8499 -0.0085 -1.5838
   77MOL0     H10617   8.149  10.211   8.805 -1.9202 -1.0052 -1.6652
   77MOL0     H10618   8.240  10.119   9.014 -0.2203 -1.2427  2.1703
   77MOL0     H10619   8.116  10.189   9.109  1.1002  0.8424  0.0373
   77MOL0     H10620   7.944  10.050   8.994 -0.6518  1.2961 -3.4588
   77MOL0     H10621   8.058   9.960   9.088  3.5205  0.4089  0.0684
   77MOL0     H10622   8.157   9.778   8.707 -1.9881 -2.8159  0.3531
   77MOL0     H10623   7.725  10.255   9.078 -2.4481  2.0557  4.4874
   77MOL0     H10624   7.379  10.269   9.062  0.7958 -3.0527 -2.8726
   77MOL0     H10625   7.526  10.174   9.086  1.6935  0.3586 -0.3754
   77MOL0     H10626   7.470  10.291   9.208 -3.0957 -0.2854  0.2187
   78MOL0     O10627  10.789   4.525   1.379  0.7985 -0.3165 -0.1068
   78MOL0     C10628  10.780   4.619   1.463 -1.3914  0.3929 -0.3043
   78MOL0     O10629  10.701   4.617   1.572 -0.1115  0.3357  0.1801
   78MOL0     C10630  10.607   4.517   1.605 -0.5276 -1.0256  0.1284
   78MOL0     C10631  10.553   4.539   1.727  0.0423 -0.2918  0.1058
   78MOL0     C10632  10.488   4.440   1.796  0.2320  0.1198 -0.4075
   78MOL0     C10633  10.456   4.319   1.732 -0.3728 -0.5565  0.5089
   78MOL0     O10634  10.381   4.227   1.801 -0.2269 -0.4671  0.7052
   78MOL0     C10635  10.335   4.105   1.734  0.1769  0.2215  0.4878
   78MOL0     C10636  10.234   4.053   1.831  0.1259  0.0219  0.0641
   78MOL0     C10637  10.280   4.005   1.969 -0.3497  0.4633 -0.0143
   78MOL0     C10638  10.325   3.854   1.971  0.1660 -1.2890 -0.7063
   78MOL0     C10639  10.208   3.760   1.945  0.2303 -0.0560  0.0202
   78MOL0     C10640  10.246   3.615   1.985  0.4247  0.2490 -0.1830
   78MOL0     C10641  10.369   3.557   1.927  0.5175 -0.4073 -0.1512
   78MOL0     C10642  10.412   3.427   1.993  1.1158  0.6356  0.5666
   78MOL0     N10643  10.559   3.413   1.984 -0.6647  0.1356  0.1095
   78MOL0     C10644  10.632   3.344   1.883  0.6062 -0.0692 -0.3310
   78MOL0     C10645  10.761   3.359   1.919 -0.3049  0.3079 -0.0202
   78MOL0     C10646  10.877   3.297   1.847 -0.1027  0.1957 -0.3119
   78MOL0     C10647  10.877   3.151   1.831  0.4063  0.4127  1.0289
   78MOL0     C10648  10.985   3.098   1.734 -0.0968  0.0398  0.5841
   78MOL0     C10649  11.134   3.097   1.779  0.4617 -0.2576 -0.8969
   78MOL0     O10650  11.158   3.015   1.891 -0.7796 -0.3128  0.4147
   78MOL0     C10651  11.279   3.024   1.950  0.0865 -0.1757  0.3899
   78MOL0     C10652  11.392   3.086   1.891 -0.7818  0.1603  0.1621
   78MOL0     C10653  11.504   3.083   1.967 -0.5466  0.2905  0.2854
   78MOL0     C10654  11.617   3.143   1.893  0.4689  1.0519  0.7053
   78MOL0     C10655  11.523   3.010   2.084  0.1215  0.8918  0.8376
   78MOL0     C10656  11.647   2.980   2.157  0.1367 -0.9645 -0.7277
   78MOL0     O10657  11.674   3.067   2.266 -0.0069  0.3231 -0.2500
   78MOL0     C10658  11.797   3.056   2.331  1.3018  0.0082 -0.9808
   78MOL0     C10659  11.868   3.171   2.369 -1.1229 -0.0878 -0.8947
   78MOL0     C10660  11.976   3.164   2.456 -0.3776  0.0741 -0.5455
   78MOL0     C10661  12.030   3.040   2.500  0.1889  0.2628  0.3693
   78MOL0     O10662  12.140   3.047   2.577 -0.4897  0.4330  0.2607
   78MOL0     C10663  12.146   2.964   2.700  0.1653 -0.3609 -0.7692
   78MOL0     C10664  12.271   2.856   2.706 -0.5460 -0.9141  0.3386
   78MOL0     C10665  12.307   2.801   2.838  0.2051  0.3686 -0.1911
   78MOL0     C10666  12.209   2.714   2.918  0.2781 -0.3863 -0.3480
   78MOL0     C10667  12.277   2.663   3.041  0.3543 -0.2167 -0.8486
   78MOL0     C10668  12.166   2.579   3.106  0.1604 -0.6121  0.5952
   78MOL0     C10669  12.205   2.523   3.244  0.5078  0.5703 -0.5481
   78MOL0     C10670  12.110   2.421   3.296 -0.2343  0.1865 -0.1769
   78MOL0    Cl10671  12.101   2.282   3.190 -0.2631 -0.0420 -0.2952
   78MOL0     C10672  11.967   2.924   2.452  0.0193 -0.8359 -0.5269
   78MOL0     C10673  11.853   2.927   2.369 -0.0676 -0.1369 -0.8787
   78MOL0     O10674  11.709   2.880   2.123  0.3534  0.3789 -0.5497
   78MOL0     C10675  11.414   2.928   2.128  0.2519 -0.4073  0.2270
   78MOL0     C10676  11.294   2.939   2.066  0.6439 -0.2653 -0.1766
   78MOL0     N10677  10.769   3.427   2.037  0.3857  0.2691 -1.0041
   78MOL0     N10678  10.647   3.464   2.065 -0.2784  0.3878 -0.6567
   78MOL0     C10679  10.508   4.299   1.604  0.1813 -0.4049 -0.7528
   78MOL0     C10680  10.588   4.397   1.543  0.6515  0.4006  0.1656
   78MOL0     C10681  10.856   4.747   1.438  0.4032  0.2961  0.5192
   78MOL0     C10682  10.848   4.847   1.536  0.7591  0.0335 -0.3635
   78MOL0     C10683  10.927   4.962   1.539  0.5870  0.3386  0.7116
   78MOL0     C10684  11.009   4.993   1.435  0.2436 -0.1003  1.7197
   78MOL0     O10685  11.087   5.102   1.423  0.3023 -0.5080 -0.1694
   78MOL0     C10686  11.010   5.223   1.404  0.2266  0.3348 -0.0543
   78MOL0     C10687  11.100   5.330   1.336 -0.3712  0.8219 -0.2413
   78MOL0     C10688  11.219   5.369   1.421  0.2753  0.1182  0.1378
   78MOL0     C10689  11.267   5.517   1.395  0.5240 -0.0847 -0.2471
   78MOL0     C10690  11.284   5.537   1.253 -0.5911 -0.5406  0.4844
   78MOL0     C10691  11.296   5.534   1.132  0.0199  0.0400 -0.2639
   78MOL0     C10692  11.006   4.908   1.322 -0.1883 -0.0455 -0.1609
   78MOL0     C10693  10.933   4.783   1.326 -0.3781  0.0358 -0.7187
   78MOL0     C10694  10.946   4.694   1.201 -0.4222 -0.1585 -0.1114
   78MOL0     H10695  10.557   4.640   1.766 -2.0535 -0.3881  0.6909
   78MOL0     H10696  10.463   4.465   1.898  3.3875  0.7119  0.3046
   78MOL0     H10697  10.418   4.037   1.713  1.1209  0.8165  2.0909
   78MOL0     H10698  10.285   4.123   1.639  0.5216  1.0771  0.4599
   78MOL0     H10699  10.163   4.136   1.843  1.4410  1.0115  1.3470
   78MOL0     H10700  10.178   3.973   1.782  0.5303  0.9381 -1.9936
   78MOL0     H10701  10.365   4.066   2.002 -1.0862  1.1779  0.5950
   78MOL0     H10702  10.195   4.021   2.036 -1.3887  0.4377 -1.2714
   78MOL0     H10703  10.416   3.848   1.911 -0.2947  0.5355 -1.6522
   78MOL0     H10704  10.347   3.834   2.077  0.1211 -1.1222 -0.6651
   78MOL0     H10705  10.200   3.753   1.836 -3.4778  0.9294  0.0764
   78MOL0     H10706  10.116   3.795   1.994  0.6082 -0.5673  1.1148
   78MOL0     H10707  10.254   3.614   2.094 -1.8328  1.9304  0.0716
   78MOL0     H10708  10.161   3.550   1.960 -0.8259  2.2685 -1.4259
   78MOL0     H10709  10.452   3.627   1.929 -0.1364  0.6170  4.5012
   78MOL0     H10710  10.341   3.534   1.824 -0.5461 -0.0171  0.0328
   78MOL0     H10711  10.380   3.420   2.097  2.5518 -1.5278  0.9322
   78MOL0     H10712  10.358   3.354   1.931 -3.4584  4.3615 -0.4896
   78MOL0     H10713  10.591   3.292   1.797 -1.6687  0.4193  0.3979
   78MOL0     H10714  10.976   3.318   1.887  0.8630 -2.2458 -1.2497
   78MOL0     H10715  10.882   3.326   1.741  1.6764  1.5704  0.1115
   78MOL0     H10716  10.894   3.108   1.930  1.2757 -0.0938  0.6694
   78MOL0     H10717  10.787   3.112   1.782  1.0133  1.8952 -1.4495
   78MOL0     H10718  10.962   2.995   1.705 -1.1303  0.4184 -0.0018
   78MOL0     H10719  10.987   3.165   1.647  0.7037  1.0906  1.3723
   78MOL0     H10720  11.192   3.050   1.699  1.2734 -0.8364  0.0100
   78MOL0     H10721  11.169   3.197   1.802 -0.3156 -0.0175 -0.7091
   78MOL0     H10722  11.394   3.117   1.787 -2.0485  0.5705  0.2436
   78MOL0     H10723  11.650   3.083   1.808 -0.3759 -2.8096  2.8191
   78MOL0     H10724  11.702   3.156   1.961  1.5127  1.5692 -0.6742
   78MOL0     H10725  11.585   3.245   1.870  2.9894  2.1257  1.6332
   78MOL0     H10726  11.840   3.270   2.332 -0.9237 -0.4202 -1.9648
   78MOL0     H10727  12.031   3.255   2.477 -0.9641  0.8345 -2.1872
   78MOL0     H10728  12.158   3.029   2.787 -0.7952 -3.0182  1.5219
   78MOL0     H10729  12.047   2.919   2.717  0.3639  0.4155  3.2470
   78MOL0     H10730  12.255   2.770   2.639  2.2956 -1.0640 -0.2931
   78MOL0     H10731  12.354   2.916   2.668  0.4874 -2.3875  0.1438
   78MOL0     H10732  12.343   2.878   2.906 -0.7622  0.0097  0.7536
   78MOL0     H10733  12.392   2.736   2.815 -0.5442  0.1616 -2.6327
   78MOL0     H10734  12.166   2.635   2.856 -1.2958 -0.2604  0.5245
   78MOL0     H10735  12.129   2.778   2.956  1.4873  2.7576 -2.6636
   78MOL0     H10736  12.359   2.594   3.022 -0.8749 -1.4998 -1.7446
   78MOL0     H10737  12.304   2.744   3.108 -1.3538  0.0927 -0.4722
   78MOL0     H10738  12.141   2.492   3.044 -1.1332 -0.7675  1.2926
   78MOL0     H10739  12.077   2.641   3.122  0.1551 -0.1676 -1.0117
   78MOL0     H10740  12.206   2.609   3.311 -1.5221 -0.4040  0.8278
   78MOL0     H10741  12.300   2.472   3.225  0.4313  0.0481  0.3840
   78MOL0     H10742  12.019   2.481   3.312 -0.3788 -0.3092  0.9654
   78MOL0     H10743  12.136   2.384   3.395  1.3596  0.4075 -0.4922
   78MOL0     H10744  12.007   2.825   2.469 -1.4256 -1.6676 -1.7251
   78MOL0     H10745  11.832   2.828   2.330  1.7972 -1.4792  1.3022
   78MOL0     H10746  11.422   2.865   2.216 -0.1381  1.2267  1.4965
   78MOL0     H10747  11.207   2.885   2.103 -0.1756  0.1675 -1.4021
   78MOL0     H10748  10.480   4.211   1.547 -1.8942 -0.7071  0.6109
   78MOL0     H10749  10.635   4.372   1.449  0.4679  0.7947 -0.0319
   78MOL0     H10750  10.767   4.834   1.607  1.2219 -0.8598  0.0088
   78MOL0     H10751  10.908   5.043   1.609  1.8341  0.4409  0.9626
   78MOL0     H10752  10.923   5.213   1.337 -0.6085  1.4243  0.8329
   78MOL0     H10753  10.969   5.257   1.499  0.0585 -0.5238  0.1894
   78MOL0     H10754  11.024   5.407   1.317 -3.2684 -1.5550  0.9489
   78MOL0     H10755  11.147   5.293   1.244 -2.3917  0.7313 -1.3002
   78MOL0     H10756  11.186   5.343   1.522 -1.6056 -5.2295 -1.5362
   78MOL0     H10757  11.300   5.297   1.405  1.2557  1.5991 -2.2392
   78MOL0     H10758  11.364   5.534   1.441 -1.0371  0.4646  3.1296
   78MOL0     H10759  11.211   5.595   1.446 -0.6813 -1.0495 -0.0400
   78MOL0     H10760  11.308   5.530   1.025  1.3004  1.0939 -0.1837
   78MOL0     H10761  11.071   4.922   1.236  0.4441 -0.6754  0.2055
   78MOL0     H10762  10.979   4.594   1.232 -0.3562  0.4183  1.8312
   78MOL0     H10763  10.849   4.682   1.153  0.3150 -0.9013 -1.4759
   78MOL0     H10764  11.024   4.726   1.130  1.2517 -0.8985  1.3036
   79MOL0     O10765   4.550   6.083   7.893 -0.0179  0.4021 -0.3371
   79MOL0     C10766   4.598   6.165   7.821  0.4741  0.0938  0.2676
   79MOL0     O10767   4.567   6.302   7.812  0.0993  0.5549 -0.0364
   79MOL0     C10768   4.497   6.356   7.915 -0.5573  0.6845  0.3653
   79MOL0     C10769   4.378   6.326   7.973 -0.0019  0.4801  0.2413
   79MOL0     C10770   4.334   6.388   8.091  0.3114 -0.2938  0.1172
   79MOL0     C10771   4.400   6.488   8.147 -0.9766 -0.2155 -0.4309
   79MOL0     O10772   4.381   6.539   8.272  0.0549 -0.3512  0.1578
   79MOL0     C10773   4.276   6.624   8.281 -0.7216 -0.2984 -0.6168
   79MOL0     C10774   4.319   6.770   8.265  0.3066 -0.2171 -0.3477
   79MOL0     C10775   4.238   6.874   8.352 -0.7015  0.1236 -0.2066
   79MOL0     C10776   4.305   6.883   8.493  0.1924  0.5876  0.7417
   79MOL0     C10777   4.212   6.954   8.595  0.3828  0.1068 -0.1989
   79MOL0     C10778   4.088   6.865   8.618 -0.4603 -0.7990 -0.5520
   79MOL0     C10779   4.020   6.906   8.749 -0.4152 -0.2044  0.4577
   79MOL0     C10780   3.947   6.783   8.809  0.7970 -0.0235 -0.5480
   79MOL0     N10781   3.853   6.806   8.906 -0.1948  0.0443 -1.2362
   79MOL0     C10782   3.742   6.879   8.884  0.2587  0.1838  0.6781
   79MOL0     C10783   3.691   6.920   9.005 -0.5994 -0.1854  0.6438
   79MOL0     C10784   3.568   6.993   9.035 -0.3425  0.3890  0.3831
   79MOL0     C10785   3.542   7.121   8.949  0.2210  0.8362  0.5506
   79MOL0     C10786   3.400   7.169   8.951  0.1122 -0.0797  1.0194
   79MOL0     C10787   3.353   7.222   9.076  0.4257  0.6755 -1.0393
   79MOL0     O10788   3.223   7.272   9.058  0.0437 -0.3906 -0.2049
   79MOL0     C10789   3.154   7.299   9.171 -0.4065 -0.6781  0.2712
   79MOL0     C10790   3.153   7.212   9.289  0.8587 -0.7150  0.1619
   79MOL0     C10791   3.072   7.236   9.402 -0.1985 -0.0195  0.8280
   79MOL0     C10792   3.076   7.122   9.502  0.0723  0.4527  0.7803
   79MOL0     C10793   2.995   7.356   9.401 -0.1124 -0.5120  0.6298
   79MOL0     C10794   2.895   7.390   9.515 -0.0241  0.5084  0.2046
   79MOL0     O10795   2.826   7.503   9.493 -0.6081 -0.6128  0.1616
   79MOL0     C10796   2.757   7.555   9.598 -0.2545 -0.7247  0.5381
   79MOL0     C10797   2.673   7.660   9.555  0.5181 -0.5937 -0.0441
   79MOL0     C10798   2.603   7.740   9.649 -0.6714  0.1931  0.7315
   79MOL0     C10799   2.601   7.702   9.788  0.6993 -0.4104  1.2908
   79MOL0     O10800   2.524   7.775   9.871 -0.0279 -0.9016 -0.0027
   79MOL0     C10801   2.439   7.701   9.955 -0.1185 -0.0641  0.1998
   79MOL0     C10802   2.307   7.656   9.876 -0.6034 -0.6603  0.2229
   79MOL0     C10803   2.343   7.531   9.796  0.7581  0.2773  0.2007
   79MOL0     C10804   2.210   7.464   9.733  0.0873 -0.0423 -0.0033
   79MOL0     C10805   2.236   7.337   9.642 -0.0028 -0.6701 -0.4593
   79MOL0     C10806   2.301   7.365   9.510 -0.9780 -0.3311 -0.6814
   79MOL0     C10807   2.390   7.248   9.467  0.4383  0.1747  0.0395
   79MOL0     C10808   2.526   7.212   9.526  0.9387 -0.8301 -0.3118
   79MOL0    Cl10809   2.535   7.195   9.707 -0.1260 -0.1438  0.1626
   79MOL0     C10810   2.684   7.601   9.827 -0.1029 -0.5513 -0.5816
   79MOL0     C10811   2.770   7.536   9.737 -0.4027 -0.1103 -0.5960
   79MOL0     O10812   2.873   7.309   9.604  0.0826  0.0025  0.7193
   79MOL0     C10813   3.009   7.453   9.292 -0.1371  0.1399 -0.3657
   79MOL0     C10814   3.083   7.419   9.178 -0.3388  0.9380 -0.5357
   79MOL0     N10815   3.780   6.881   9.107  0.3870 -1.0793  0.1022
   79MOL0     N10816   3.876   6.819   9.046 -0.1677  0.0569 -0.1351
   79MOL0     C10817   4.507   6.547   8.083 -0.5851 -0.5986 -0.0350
   79MOL0     C10818   4.551   6.478   7.967  0.0623 -0.1753  0.2749
   79MOL0     C10819   4.684   6.122   7.707  0.1478  0.0347  0.3728
   79MOL0     C10820   4.818   6.105   7.723 -0.0390 -0.1634  0.4043
   79MOL0     C10821   4.896   6.059   7.618 -1.0967  0.2201  0.8263
   79MOL0     C10822   4.850   6.029   7.491  1.0948 -1.4945 -0.0040
   79MOL0     O10823   4.928   5.982   7.401  0.6027  0.1069  0.4658
   79MOL0     C10824   4.888   6.017   7.267  0.2388  0.7924  0.2446
   79MOL0     C10825   5.012   6.028   7.182  0.1536 -0.4329  0.2148
   79MOL0     C10826   5.000   5.948   7.047  0.1532 -1.4114 -0.5555
   79MOL0     C10827   5.121   5.957   6.954  0.2996  0.8699 -0.0309
   79MOL0     C10828   5.174   6.092   6.946  1.2493  1.5624 -0.4125
   79MOL0     C10829   5.217   6.203   6.926  0.3507  0.4096  0.1562
   79MOL0     C10830   4.710   6.060   7.467  0.5778 -0.3537 -0.1634
   79MOL0     C10831   4.633   6.107   7.581  0.4473  0.4347  0.5998
   79MOL0     C10832   4.485   6.137   7.556  0.7181 -0.6335 -0.4285
   79MOL0     H10833   4.312   6.254   7.925 -0.3990  3.3738 -4.0048
   79MOL0     H10834   4.243   6.359   8.144 -0.1461  2.4315  1.0200
   79MOL0     H10835   4.233   6.620   8.381  3.6939  1.5592  1.6358
   79MOL0     H10836   4.195   6.599   8.212  0.4859 -4.3517 -0.8527
   79MOL0     H10837   4.428   6.779   8.273  0.5856 -1.6428 -2.1108
   79MOL0     H10838   4.299   6.797   8.161  0.5236  0.3146 -0.2581
   79MOL0     H10839   4.244   6.972   8.303 -1.2811 -1.3940 -3.6188
   79MOL0     H10840   4.136   6.838   8.361 -0.4762 -0.2249  1.2771
   79MOL0     H10841   4.318   6.779   8.525 -0.4758  0.0824 -0.5783
   79MOL0     H10842   4.392   6.943   8.464 -0.8253  1.2508 -1.0883
   79MOL0     H10843   4.172   7.048   8.557 -0.6653  0.4891  1.7021
   79MOL0     H10844   4.270   6.982   8.684 -2.0701 -0.7393  1.7817
   79MOL0     H10845   4.016   6.864   8.535 -1.9326 -1.4542  0.6928
   79MOL0     H10846   4.130   6.764   8.626 -0.1490 -0.7102 -1.0309
   79MOL0     H10847   3.950   6.988   8.735  1.2000  1.3915  1.3321
   79MOL0     H10848   4.083   6.950   8.826 -0.5911 -2.3493  1.9330
   79MOL0     H10849   3.894   6.739   8.724  1.5026  2.1307 -2.2206
   79MOL0     H10850   4.026   6.721   8.853  1.6117  0.7772 -0.8351
   79MOL0     H10851   3.699   6.903   8.788 -1.0971 -4.8183 -0.2729
   79MOL0     H10852   3.576   7.017   9.141  0.9030 -0.9740  0.6246
   79MOL0     H10853   3.485   6.926   9.013  0.3635  0.1066 -1.7262
   79MOL0     H10854   3.609   7.203   8.974  3.0102 -0.7267 -1.3360
   79MOL0     H10855   3.558   7.102   8.843 -0.0566 -2.8496  1.0342
   79MOL0     H10856   3.389   7.239   8.867  1.7078 -3.1604 -2.0091
   79MOL0     H10857   3.332   7.085   8.933 -1.3267  0.7463  2.3566
   79MOL0     H10858   3.364   7.157   9.164  1.7744 -0.6882 -2.1691
   79MOL0     H10859   3.421   7.306   9.091 -0.2816  0.7204  3.0525
   79MOL0     H10860   3.215   7.123   9.293  0.7174 -0.9648 -1.9082
   79MOL0     H10861   3.179   7.098   9.528  0.2669 -0.1922 -0.5079
   79MOL0     H10862   3.025   7.032   9.466  1.2129  0.4524 -0.9566
   79MOL0     H10863   3.030   7.137   9.600  0.3399  1.4432  0.7689
   79MOL0     H10864   2.663   7.672   9.448 -0.2249 -1.6883 -0.1148
   79MOL0     H10865   2.557   7.837   9.631 -0.0364  1.2536  4.1856
   79MOL0     H10866   2.496   7.627  10.012  2.9631  0.3399 -2.1424
   79MOL0     H10867   2.400   7.768  10.032  0.3084  1.5435 -0.9434
   79MOL0     H10868   2.219   7.644   9.940 -2.8489  1.9922 -2.0575
   79MOL0     H10869   2.274   7.732   9.804 -2.2102 -0.8277  0.7408
   79MOL0     H10870   2.396   7.457   9.856  0.3929 -0.2197 -0.0827
   79MOL0     H10871   2.404   7.557   9.709  4.8965 -1.8797  2.1545
   79MOL0     H10872   2.145   7.523   9.668 -1.5254 -1.1840  0.5197
   79MOL0     H10873   2.142   7.430   9.811 -0.5955 -2.6638 -1.6259
   79MOL0     H10874   2.304   7.277   9.703 -0.7964  1.7642  3.0835
   79MOL0     H10875   2.146   7.275   9.637  1.1086 -2.2873 -2.1975
   79MOL0     H10876   2.368   7.452   9.512 -0.2235 -0.8868 -1.2538
   79MOL0     H10877   2.222   7.383   9.437 -1.5363  3.4322  0.6280
   79MOL0     H10878   2.415   7.281   9.366  0.8834  0.3118  0.1921
   79MOL0     H10879   2.315   7.168   9.464 -1.7012  2.0949 -1.0755
   79MOL0     H10880   2.599   7.288   9.498 -1.7178  0.9285 -3.0812
   79MOL0     H10881   2.565   7.119   9.484  1.5911 -1.0407  0.7384
   79MOL0     H10882   2.682   7.581   9.933 -5.3245  1.9713  0.1226
   79MOL0     H10883   2.838   7.462   9.778 -1.5768 -0.4301  0.9115
   79MOL0     H10884   2.965   7.551   9.280  0.1138  0.1030 -1.7671
   79MOL0     H10885   3.082   7.495   9.100  0.3737  2.8089  1.1710
   79MOL0     H10886   4.564   6.630   8.123  1.3554 -0.2212 -3.1877
   79MOL0     H10887   4.645   6.505   7.920 -0.4825 -1.4451 -1.6842
   79MOL0     H10888   4.857   6.132   7.821 -2.4647  3.7882  0.5245
   79MOL0     H10889   5.001   6.036   7.633 -0.5590  0.7652 -1.5753
   79MOL0     H10890   4.822   5.940   7.225 -0.0919 -1.2242  4.0731
   79MOL0     H10891   4.848   6.119   7.266 -1.1722  0.2621  0.8190
   79MOL0     H10892   5.097   5.982   7.233  0.4019 -0.3017 -0.0828
   79MOL0     H10893   5.024   6.136   7.167 -3.1614  0.3562  2.1026
   79MOL0     H10894   4.995   5.841   7.067 -0.6529 -1.0815  1.2097
   79MOL0     H10895   4.907   5.977   6.999  0.0225 -0.9148 -0.0078
   79MOL0     H10896   5.093   5.917   6.857  1.2082  1.5176 -0.5818
   79MOL0     H10897   5.200   5.889   6.988  0.2742  0.8598  0.0074
   79MOL0     H10898   5.277   6.292   6.918 -1.0119  1.3718  0.2263
   79MOL0     H10899   4.666   6.062   7.368 -0.1306  1.2250  0.1514
   79MOL0     H10900   4.453   6.237   7.585 -4.1785 -1.0785 -3.2413
   79MOL0     H10901   4.462   6.145   7.449 -0.2534  1.4971 -0.1091
   79MOL0     H10902   4.429   6.061   7.611 -1.0219  1.0327  0.1874
   80MOL0     O10903   8.768   2.939   4.419  0.1465 -0.2767 -0.7221
   80MOL0     C10904   8.680   2.955   4.501 -0.5538 -1.1896  0.7645
   80MOL0     O10905   8.701   3.009   4.626  0.0074 -0.3597  0.2910
   80MOL0     C10906   8.829   3.011   4.684  1.0419 -0.8455 -1.2135
   80MOL0     C10907   8.913   2.903   4.664  0.0776 -0.3507 -0.2711
   80MOL0     C10908   9.039   2.911   4.713 -1.2630  0.0681  0.5032
   80MOL0     C10909   9.087   3.023   4.795 -0.1093  0.2105 -0.4694
   80MOL0     O10910   9.224   3.029   4.831 -0.7350 -0.7013  0.3668
   80MOL0     C10911   9.311   2.903   4.835  0.9447 -0.6611 -0.3038
   80MOL0     C10912   9.446   2.936   4.895 -0.5094  0.3108  1.3181
   80MOL0     C10913   9.432   3.007   5.031  0.0431 -0.0256  0.1096
   80MOL0     C10914   9.507   2.926   5.146 -0.7335 -0.3778 -0.4527
   80MOL0     C10915   9.460   2.970   5.278 -0.8738  0.6349 -0.0512
   80MOL0     C10916   9.510   3.095   5.332 -0.3708  0.2204  0.5655
   80MOL0     C10917   9.670   3.105   5.345 -0.2929 -0.3860 -0.0351
   80MOL0     C10918   9.707   3.243   5.395 -1.0386  0.1006 -0.2003
   80MOL0     N10919   9.710   3.344   5.282  0.0353 -0.4847 -0.1986
   80MOL0     C10920   9.704   3.476   5.320  0.0917  0.6394  0.7199
   80MOL0     C10921   9.719   3.536   5.193 -0.5684 -0.2166  0.8525
   80MOL0     C10922   9.721   3.681   5.162 -1.0950  0.6246 -0.0074
   80MOL0     C10923   9.862   3.745   5.165 -0.1824  0.3020 -0.3688
   80MOL0     C10924   9.879   3.893   5.165  1.2297 -0.5458  0.3906
   80MOL0     C10925  10.021   3.938   5.200 -0.8702 -0.1228  0.0702
   80MOL0     O10926  10.018   4.067   5.255  0.3037  0.3731 -0.2033
   80MOL0     C10927  10.035   4.075   5.390  0.4188  0.1400 -0.0209
   80MOL0     C10928  10.048   3.967   5.470 -0.7645  0.5233 -0.2751
   80MOL0     C10929  10.080   3.989   5.610  0.0245  0.8734 -0.6909
   80MOL0     C10930  10.099   3.863   5.693  0.1136  0.7865  0.5740
   80MOL0     C10931  10.078   4.118   5.666 -0.5704 -0.2998 -0.2858
   80MOL0     C10932  10.113   4.151   5.807  0.4095  0.0659 -0.4610
   80MOL0     O10933  10.073   4.268   5.858  0.3454 -0.3377 -0.2008
   80MOL0     C10934  10.064   4.299   5.990 -0.7967 -0.1320  0.2315
   80MOL0     C10935  10.122   4.420   6.031  0.4304  0.3620  0.1433
   80MOL0     C10936  10.111   4.476   6.162 -0.3498  0.4471 -0.1755
   80MOL0     C10937  10.039   4.410   6.258  2.0019  0.4229  0.4640
   80MOL0     O10938  10.039   4.457   6.387 -0.2523 -0.3805 -0.4674
   80MOL0     C10939   9.997   4.377   6.493  0.0743  0.2268  0.6682
   80MOL0     C10940   9.997   4.462   6.621  0.2671 -0.4885 -0.3377
   80MOL0     C10941   9.976   4.369   6.743  0.3443  0.6091  0.4369
   80MOL0     C10942   9.975   4.450   6.871 -0.0641  0.2594  0.1203
   80MOL0     C10943   9.960   4.376   7.003 -0.0139 -0.2632 -0.7465
   80MOL0     C10944   9.921   4.464   7.134  0.0181  0.1367 -0.5360
   80MOL0     C10945   9.968   4.608   7.138  1.0948 -1.1548 -0.2166
   80MOL0     C10946   9.942   4.681   7.267 -0.3631  0.4499 -0.0683
   80MOL0    Cl10947   9.952   4.858   7.218 -0.1831  0.0250  0.5439
   80MOL0     C10948   9.990   4.281   6.214 -0.7271 -0.3329 -0.0896
   80MOL0     C10949   9.992   4.226   6.082 -0.4958  0.1660 -0.2537
   80MOL0     O10950  10.152   4.054   5.872 -0.0334  0.6829 -0.0290
   80MOL0     C10951  10.055   4.223   5.580  0.7789 -0.2536 -0.2500
   80MOL0     C10952  10.047   4.199   5.444 -0.6660  0.0609 -0.0005
   80MOL0     N10953   9.737   3.438   5.099  0.7736  0.3617 -0.3303
   80MOL0     N10954   9.724   3.321   5.147 -0.5948  0.3261 -0.0909
   80MOL0     C10955   9.001   3.127   4.827  0.1156  0.4626  1.0710
   80MOL0     C10956   8.872   3.118   4.773  0.1414 -0.2157 -0.2902
   80MOL0     C10957   8.547   2.904   4.470  0.9229 -0.4286  0.5288
   80MOL0     C10958   8.451   2.877   4.570  0.0322 -0.1602 -0.4225
   80MOL0     C10959   8.324   2.823   4.545  0.0804  0.2711  0.4106
   80MOL0     C10960   8.279   2.808   4.414 -0.0410 -0.1109 -0.6731
   80MOL0     O10961   8.165   2.744   4.385 -0.8504 -0.6418  0.5763
   80MOL0     C10962   8.064   2.716   4.476 -0.2620  1.3478  0.1866
   80MOL0     C10963   8.000   2.838   4.538  0.4310 -0.8784  1.1789
   80MOL0     C10964   7.906   2.918   4.438 -0.6158  0.0338 -0.4716
   80MOL0     C10965   7.861   3.043   4.509  0.2902 -0.9250  0.4341
   80MOL0     C10966   7.770   3.129   4.426  0.4066  0.7372 -0.2201
   80MOL0     C10967   7.706   3.209   4.364  0.5659  0.2374 -0.5106
   80MOL0     C10968   8.363   2.835   4.309 -0.6189  0.1163  0.1408
   80MOL0     C10969   8.488   2.898   4.337  0.2163 -0.7853  0.0167
   80MOL0     C10970   8.570   2.935   4.215  0.3148  0.2646 -0.1750
   80MOL0     H10971   8.876   2.817   4.608 -4.1516  1.0267  0.0378
   80MOL0     H10972   9.114   2.835   4.695 -0.0105  1.2071  0.7658
   80MOL0     H10973   9.323   2.857   4.736 -0.7129 -3.3774  0.6475
   80MOL0     H10974   9.261   2.827   4.897  0.3964 -0.5594 -0.6151
   80MOL0     H10975   9.501   2.842   4.905 -2.8157 -0.8957  4.0262
   80MOL0     H10976   9.497   3.002   4.824  0.4142 -0.1016  1.5725
   80MOL0     H10977   9.469   3.110   5.035  0.1270 -0.0907  1.3729
   80MOL0     H10978   9.326   3.017   5.054 -0.4568 -3.2489 -0.2753
   80MOL0     H10979   9.478   2.820   5.137  0.1252 -0.8615  1.8242
   80MOL0     H10980   9.615   2.937   5.130 -1.0477  0.4992 -2.1652
   80MOL0     H10981   9.480   2.884   5.343 -2.2685  1.2153  1.2317
   80MOL0     H10982   9.351   2.984   5.275 -0.7733  1.1804 -1.2843
   80MOL0     H10983   9.473   3.180   5.274  0.7326 -0.6777 -1.5691
   80MOL0     H10984   9.472   3.101   5.434  2.4140 -2.1833  1.9331
   80MOL0     H10985   9.718   3.086   5.249  2.7780  0.4334  1.2120
   80MOL0     H10986   9.710   3.026   5.410 -1.8272 -0.1703  1.2189
   80MOL0     H10987   9.649   3.287   5.476 -1.2394  2.0049 -1.3115
   80MOL0     H10988   9.805   3.236   5.443 -0.0689  2.7034 -1.5541
   80MOL0     H10989   9.709   3.528   5.415 -4.1999 -1.5916  2.4657
   80MOL0     H10990   9.654   3.733   5.231 -0.8129  1.8114 -0.5936
   80MOL0     H10991   9.689   3.689   5.058 -1.2683 -0.5236 -0.0544
   80MOL0     H10992   9.907   3.718   5.261  1.8667  0.9713 -1.0781
   80MOL0     H10993   9.931   3.719   5.085  1.3134  1.2332  0.5643
   80MOL0     H10994   9.850   3.938   5.069 -0.2607 -0.1131  1.0169
   80MOL0     H10995   9.813   3.920   5.248  2.3512  2.9238  0.3055
   80MOL0     H10996  10.071   3.860   5.258 -0.6170  0.2026  0.2909
   80MOL0     H10997  10.083   3.947   5.110 -0.4693  1.9421  0.5205
   80MOL0     H10998  10.050   3.866   5.432 -0.5307  1.3389 -2.6203
   80MOL0     H10999  10.203   3.849   5.724 -0.7320 -1.6718  2.8037
   80MOL0     H11000  10.064   3.770   5.647  0.7403  1.0166 -0.3735
   80MOL0     H11001  10.043   3.866   5.787  0.7220 -0.0613  0.9847
   80MOL0     H11002  10.169   4.475   5.950  1.4675  2.7901  2.2558
   80MOL0     H11003  10.154   4.566   6.204 -2.8927  0.3938  2.9194
   80MOL0     H11004   9.905   4.326   6.464  0.4184  1.3302 -2.7889
   80MOL0     H11005  10.073   4.298   6.500  1.7093  1.7759  1.4244
   80MOL0     H11006  10.096   4.506   6.639  0.1513  0.3320 -1.5871
   80MOL0     H11007   9.923   4.543   6.617 -1.0866 -1.7144 -2.4066
   80MOL0     H11008  10.063   4.303   6.746  0.8517  1.3068  2.5419
   80MOL0     H11009   9.881   4.317   6.729  0.2273  1.3210 -1.8341
   80MOL0     H11010   9.886   4.513   6.870 -0.1484  0.1516 -0.8885
   80MOL0     H11011  10.068   4.506   6.878 -0.3370  1.0805 -2.0094
   80MOL0     H11012   9.879   4.302   7.002  1.4668 -1.9555 -1.9676
   80MOL0     H11013  10.043   4.308   7.024 -0.3290 -0.5372 -0.3595
   80MOL0     H11014   9.959   4.409   7.220  1.2387 -3.6987 -3.2529
   80MOL0     H11015   9.812   4.470   7.145 -0.2673 -2.6195 -1.1628
   80MOL0     H11016   9.921   4.656   7.052  0.4904 -2.9611 -0.9413
   80MOL0     H11017  10.073   4.628   7.114  1.0644  0.9459  1.0767
   80MOL0     H11018  10.007   4.646   7.348 -0.3773  3.1035  1.1990
   80MOL0     H11019   9.843   4.672   7.313  0.8109 -0.8279  2.4270
   80MOL0     H11020   9.935   4.225   6.289 -0.4855 -1.3066 -0.6209
   80MOL0     H11021   9.944   4.131   6.061 -1.1544  0.0057  1.7439
   80MOL0     H11022  10.057   4.329   5.603 -0.3649 -0.2256 -0.2474
   80MOL0     H11023  10.041   4.288   5.382  0.8629 -0.5307 -1.0643
   80MOL0     H11024   9.029   3.216   4.882 -2.4859  0.5775  2.3877
   80MOL0     H11025   8.799   3.197   4.791 -1.6524 -1.4460 -1.7440
   80MOL0     H11026   8.476   2.892   4.675 -2.0651  0.1130  0.0761
   80MOL0     H11027   8.263   2.793   4.630 -0.0696  0.2173  0.2836
   80MOL0     H11028   7.986   2.658   4.426  0.7825  0.8019 -0.8672
   80MOL0     H11029   8.101   2.652   4.557 -2.6475  0.0051  0.3098
   80MOL0     H11030   8.088   2.895   4.570  0.8457 -1.4395  1.0405
   80MOL0     H11031   7.946   2.815   4.630 -2.4490  0.7521  0.0387
   80MOL0     H11032   7.968   2.949   4.353  0.7174  0.9400  0.8015
   80MOL0     H11033   7.817   2.863   4.405 -0.8006  1.4282 -2.5335
   80MOL0     H11034   7.947   3.106   4.534 -0.1783 -0.2408  0.3651
   80MOL0     H11035   7.806   3.009   4.597 -2.1581  0.6439 -0.3629
   80MOL0     H11036   7.651   3.285   4.312 -1.9097 -2.8579 -2.8722
   80MOL0     H11037   8.330   2.820   4.207 -1.2853  1.2290  0.1702
   80MOL0     H11038   8.511   2.928   4.123 -2.3787  0.1215  1.4616
   80MOL0     H11039   8.601   3.039   4.219 -0.5938  0.5192  0.6923
   80MOL0     H11040   8.652   2.864   4.200  0.3242  0.4743 -1.1673
   81MOL0     O11041   0.338   6.235   5.071 -0.4312  0.7073 -0.0256
   81MOL0     C11042   0.260   6.145   5.050 -0.7579 -0.1556  0.6887
   81MOL0     O11043   0.284   6.022   5.094  0.3221 -0.5929 -0.8478
   81MOL0     C11044   0.412   5.970   5.114  0.0712  0.1324 -0.0621
   81MOL0     C11045   0.499   5.949   5.014 -0.7419 -0.4649 -0.0048
   81MOL0     C11046   0.619   5.872   5.036 -0.7451 -0.8097 -0.5646
   81MOL0     C11047   0.639   5.809   5.154 -0.1185 -0.7120 -0.3703
   81MOL0     O11048   0.764   5.751   5.196  0.5612  0.4768  0.2002
   81MOL0     C11049   0.880   5.825   5.162  0.0335 -0.1908  0.2971
   81MOL0     C11050   0.995   5.771   5.253 -0.2336  0.3312 -0.0302
   81MOL0     C11051   1.027   5.627   5.226  0.0402 -0.4430  0.4589
   81MOL0     C11052   1.094   5.594   5.105 -0.4892 -0.2709  0.2028
   81MOL0     C11053   1.168   5.462   5.110  1.1172  0.0967 -0.6735
   81MOL0     C11054   1.068   5.341   5.090 -0.3040  0.0402 -0.5312
   81MOL0     C11055   1.153   5.210   5.104  0.8200 -0.1788  0.1097
   81MOL0     C11056   1.077   5.085   5.062 -0.0127  0.4174 -0.5383
   81MOL0     N11057   0.949   5.063   5.122 -0.1542 -1.0534  0.5924
   81MOL0     C11058   0.927   5.042   5.251 -1.1685  0.4028 -0.6472
   81MOL0     C11059   0.793   5.055   5.274  0.3723 -0.1355  0.4569
   81MOL0     C11060   0.723   5.048   5.404  1.0168 -0.2209  0.2229
   81MOL0     C11061   0.716   4.894   5.438  0.5328  0.9033 -0.3870
   81MOL0     C11062   0.662   4.869   5.585 -0.4336 -0.5073  0.4767
   81MOL0     C11063   0.770   4.925   5.682  0.4608 -0.0654  0.2791
   81MOL0     O11064   0.743   4.879   5.810  0.2569  0.3987 -0.3265
   81MOL0     C11065   0.825   4.931   5.910  0.1358 -0.3844 -0.3967
   81MOL0     C11066   0.919   5.036   5.905 -0.3408  0.4618 -0.4192
   81MOL0     C11067   0.979   5.098   6.020  0.5670 -0.7354  1.3665
   81MOL0     C11068   1.062   5.225   5.994  0.3978  0.4804 -1.0214
   81MOL0     C11069   0.956   5.037   6.148  0.5143 -0.0606  0.1388
   81MOL0     C11070   0.999   5.094   6.274  0.1296  0.3777 -0.0665
   81MOL0     O11071   0.923   5.067   6.381  0.5159 -0.5387 -0.0736
   81MOL0     C11072   0.963   5.101   6.511  0.3517 -0.1334 -0.3396
   81MOL0     C11073   1.070   5.031   6.579 -0.4117 -0.6411  0.2594
   81MOL0     C11074   1.074   5.032   6.721 -0.5856 -0.2174 -0.2650
   81MOL0     C11075   1.006   5.126   6.796 -1.4898  0.3026  0.4937
   81MOL0     O11076   1.029   5.122   6.933  1.0638  0.1698 -0.3047
   81MOL0     C11077   0.947   5.214   7.012 -0.0902  1.0178 -0.9215
   81MOL0     C11078   0.989   5.195   7.153 -0.4802 -0.8475 -0.0758
   81MOL0     C11079   1.133   5.244   7.174  0.2577  0.2306 -0.0471
   81MOL0     C11080   1.182   5.231   7.320 -0.1792 -0.1078  0.4681
   81MOL0     C11081   1.323   5.256   7.323 -0.0120  0.3548 -0.3716
   81MOL0     C11082   1.380   5.308   7.456 -0.1728 -0.4371 -0.0588
   81MOL0     C11083   1.526   5.359   7.452  0.0015  0.4407 -0.3729
   81MOL0     C11084   1.541   5.508   7.419 -0.4332 -0.3835 -0.1941
   81MOL0    Cl11085   1.714   5.555   7.432  0.1084  0.0004 -0.0523
   81MOL0     C11086   0.922   5.213   6.729 -0.5476  0.6296 -0.2666
   81MOL0     C11087   0.894   5.192   6.588 -0.0559 -0.0896 -0.4219
   81MOL0     O11088   1.109   5.156   6.283 -0.7312  0.2230 -0.0848
   81MOL0     C11089   0.876   4.930   6.152 -1.0509  0.7614  1.2636
   81MOL0     C11090   0.806   4.879   6.037  0.4138  0.1388 -0.1189
   81MOL0     N11091   0.730   5.082   5.151 -0.9509  0.5629  0.1958
   81MOL0     N11092   0.824   5.072   5.062  0.6570  0.3727 -0.2154
   81MOL0     C11093   0.540   5.831   5.255 -0.7697  1.4898  0.7294
   81MOL0     C11094   0.426   5.905   5.234 -1.0123 -0.0044  0.3389
   81MOL0     C11095   0.151   6.159   4.950  0.1894 -0.3351  0.4692
   81MOL0     C11096   0.093   6.040   4.904  0.1589  0.2999  0.9255
   81MOL0     C11097  -0.007   6.050   4.812  0.0013 -0.6301  0.8034
   81MOL0     C11098  -0.065   6.168   4.763 -1.0789 -0.4579  0.2776
   81MOL0     O11099  -0.163   6.168   4.667 -0.0175 -0.2333  0.8396
   81MOL0     C11100  -0.198   6.292   4.601  0.5394 -0.4148  0.7520
   81MOL0     C11101  -0.321   6.359   4.677 -0.4588  0.1116 -0.1340
   81MOL0     C11102  -0.471   6.332   4.630 -0.3453 -0.6243  0.0051
   81MOL0     C11103  -0.572   6.406   4.722 -1.3449  0.4921  0.0687
   81MOL0     C11104  -0.558   6.551   4.700  0.0471 -0.2697  0.5252
   81MOL0     C11105  -0.580   6.676   4.697 -0.4844 -0.7964  0.4903
   81MOL0     C11106  -0.009   6.286   4.814 -0.3787 -0.2969 -1.2792
   81MOL0     C11107   0.098   6.292   4.905  0.2526 -0.3774 -0.3807
   81MOL0     C11108   0.150   6.426   4.957  0.5224 -0.4711  0.2173
   81MOL0     H11109   0.481   5.991   4.916 -2.2961 -0.6051  0.1945
   81MOL0     H11110   0.683   5.863   4.949 -0.5032  0.3451 -0.5277
   81MOL0     H11111   0.860   5.932   5.172 -0.1240  0.0567 -2.0308
   81MOL0     H11112   0.923   5.807   5.062  2.7759  2.9756  0.7107
   81MOL0     H11113   1.095   5.815   5.244 -0.2042  1.1879  3.1336
   81MOL0     H11114   0.963   5.791   5.356  2.7782  1.3623  0.8138
   81MOL0     H11115   1.087   5.598   5.314 -2.0198 -1.7108  1.5175
   81MOL0     H11116   0.940   5.561   5.236 -0.5360  0.5509  2.8061
   81MOL0     H11117   1.028   5.601   5.018  2.6376  2.4677 -2.2691
   81MOL0     H11118   1.165   5.674   5.078  0.2296 -1.4050 -1.4328
   81MOL0     H11119   1.226   5.446   5.201  0.0510  3.6467  0.8277
   81MOL0     H11120   1.222   5.451   5.016  0.6974 -2.1469 -0.6912
   81MOL0     H11121   0.984   5.342   5.160 -0.6802 -1.1504 -0.9340
   81MOL0     H11122   1.018   5.346   4.992 -0.2721  0.0973 -0.5443
   81MOL0     H11123   1.183   5.194   5.208  0.1129 -0.6590  0.2442
   81MOL0     H11124   1.248   5.230   5.055  2.8134 -0.1286  3.6409
   81MOL0     H11125   1.061   5.098   4.954 -0.6030 -3.7099 -1.1131
   81MOL0     H11126   1.142   4.998   5.073  1.3308  1.4620  0.1894
   81MOL0     H11127   1.007   5.023   5.322 -0.2288  2.4093 -1.1032
   81MOL0     H11128   0.619   5.081   5.400  0.2826 -1.8452  2.7988
   81MOL0     H11129   0.777   5.110   5.476 -1.5023 -0.6917  2.6894
   81MOL0     H11130   0.637   4.851   5.375 -0.6077  1.0558  0.8837
   81MOL0     H11131   0.809   4.839   5.427 -0.3500 -0.9524  0.8116
   81MOL0     H11132   0.565   4.913   5.609 -1.9473 -1.6595 -2.8802
   81MOL0     H11133   0.658   4.761   5.599  2.1071 -1.1696 -2.6185
   81MOL0     H11134   0.871   4.900   5.648 -0.4246  0.4148 -3.1598
   81MOL0     H11135   0.766   5.034   5.690 -0.0153 -0.2213  2.7738
   81MOL0     H11136   0.938   5.075   5.805  4.1562  0.1282  0.0804
   81MOL0     H11137   1.166   5.215   6.028  0.3969 -0.3218 -1.2253
   81MOL0     H11138   1.018   5.301   6.059  1.8315  0.6750 -0.2513
   81MOL0     H11139   1.061   5.253   5.888  2.2159 -2.3153 -1.8945
   81MOL0     H11140   1.114   4.960   6.510 -1.3410  1.1181 -2.2831
   81MOL0     H11141   1.146   4.972   6.777 -1.6417  1.2058  2.8847
   81MOL0     H11142   0.967   5.319   6.988  4.0959  0.3714 -1.1200
   81MOL0     H11143   0.842   5.189   6.996 -0.2198  1.4865 -0.8299
   81MOL0     H11144   0.922   5.239   7.227  0.7291 -0.4209  0.8006
   81MOL0     H11145   0.983   5.088   7.176 -1.0022 -0.6514  0.7405
   81MOL0     H11146   1.130   5.347   7.139 -5.1492  1.7447  3.5584
   81MOL0     H11147   1.195   5.189   7.103 -0.1143  1.4746 -1.3941
   81MOL0     H11148   1.170   5.130   7.360  5.2075 -1.2447  0.0824
   81MOL0     H11149   1.133   5.315   7.371 -0.5814 -0.7428  1.1324
   81MOL0     H11150   1.381   5.168   7.293 -0.5807 -1.2566  2.8121
   81MOL0     H11151   1.352   5.337   7.255  0.2345  0.3971 -0.2152
   81MOL0     H11152   1.379   5.212   7.510 -2.2899  0.3959  1.5271
   81MOL0     H11153   1.314   5.383   7.501  1.1066  1.5420 -1.3412
   81MOL0     H11154   1.586   5.302   7.381 -1.4299 -2.3039  0.4609
   81MOL0     H11155   1.572   5.357   7.551  1.1253  1.0384 -0.8670
   81MOL0     H11156   1.480   5.572   7.483  3.0618  3.2509 -0.0732
   81MOL0     H11157   1.507   5.518   7.315 -3.8265  0.1893  0.8458
   81MOL0     H11158   0.863   5.284   6.787 -1.9500 -1.6316  1.2932
   81MOL0     H11159   0.804   5.240   6.551 -1.0135 -0.5832  1.1419
   81MOL0     H11160   0.872   4.858   6.233  0.7976  0.8910  1.5061
   81MOL0     H11161   0.737   4.798   6.060  1.2711 -0.3761  0.7123
   81MOL0     H11162   0.545   5.783   5.352  2.3685 -2.0512 -0.9037
   81MOL0     H11163   0.351   5.918   5.311 -0.9980 -0.7602  0.4889
   81MOL0     H11164   0.123   5.940   4.931  0.1026 -0.2778 -0.9872
   81MOL0     H11165  -0.036   5.956   4.766 -3.0059  0.4281  0.2934
   81MOL0     H11166  -0.117   6.363   4.583 -1.3042  1.8537  0.9084
   81MOL0     H11167  -0.226   6.258   4.501  0.3475  0.7489  0.4017
   81MOL0     H11168  -0.312   6.467   4.666  0.6863  0.3242  2.2977
   81MOL0     H11169  -0.313   6.323   4.780 -3.9565 -0.8447 -0.1027
   81MOL0     H11170  -0.493   6.372   4.531 -3.1143  3.9192  2.1546
   81MOL0     H11171  -0.496   6.228   4.654  0.8984 -0.5371  1.9740
   81MOL0     H11172  -0.560   6.381   4.827 -1.0062  3.2864  0.7577
   81MOL0     H11173  -0.675   6.381   4.693 -1.9837 -0.2483  2.7263
   81MOL0     H11174  -0.585   6.779   4.670  3.5301 -0.8279 -1.0442
   81MOL0     H11175  -0.054   6.382   4.789  0.9021  1.0751  1.2793
   81MOL0     H11176   0.103   6.454   5.052 -1.2081  2.4109 -1.3607
   81MOL0     H11177   0.259   6.425   4.965  0.7004  4.1435  0.5573
   81MOL0     H11178   0.129   6.506   4.886  2.8205 -2.5754 -3.1106
   82MOL0     O11179   9.209   3.286   2.665 -0.2367 -0.8922  0.3308
   82MOL0     C11180   9.141   3.211   2.739 -0.7941 -0.8312  0.0772
   82MOL0     O11181   9.205   3.139   2.832 -0.0924  0.4595 -0.1415
   82MOL0     C11182   9.322   3.187   2.880  0.7439  0.5129  1.0088
   82MOL0     C11183   9.316   3.308   2.949 -0.6785 -0.1220  0.5693
   82MOL0     C11184   9.437   3.356   2.984 -0.2270  0.0731  0.0365
   82MOL0     C11185   9.560   3.299   2.964  0.0782  0.1846 -0.4420
   82MOL0     O11186   9.670   3.355   3.020 -0.4213  0.5643 -0.0332
   82MOL0     C11187   9.778   3.267   3.064 -0.1580  0.7226 -0.2369
   82MOL0     C11188   9.885   3.343   3.144  0.2007 -1.0198  0.8917
   82MOL0     C11189  10.014   3.257   3.168 -1.5624  0.0021 -0.3408
   82MOL0     C11190  10.142   3.326   3.231 -0.3672 -0.9981 -0.2258
   82MOL0     C11191  10.258   3.220   3.224  0.1731  0.1744  0.0212
   82MOL0     C11192  10.400   3.277   3.263  0.0844 -0.4311 -0.0422
   82MOL0     C11193  10.404   3.437   3.290 -0.6976 -0.2800 -0.2141
   82MOL0     C11194  10.552   3.493   3.289 -0.1174 -0.1135  0.1765
   82MOL0     N11195  10.565   3.627   3.222 -0.0488  0.3045 -1.0681
   82MOL0     C11196  10.580   3.652   3.091 -0.3142  0.4952  0.2822
   82MOL0     C11197  10.563   3.781   3.080 -0.4545 -0.1428 -0.2606
   82MOL0     C11198  10.581   3.857   2.950  0.0062  0.4690 -1.0045
   82MOL0     C11199  10.447   3.888   2.878 -0.8639 -0.6707 -0.6679
   82MOL0     C11200  10.461   3.985   2.766  1.1418 -0.4555  0.3700
   82MOL0     C11201  10.511   4.129   2.812 -0.6253  0.4825  0.7853
   82MOL0     O11202  10.524   4.204   2.689 -0.0689  0.2201  0.7270
   82MOL0     C11203  10.422   4.254   2.613 -0.7487  1.0719 -0.2142
   82MOL0     C11204  10.423   4.291   2.474 -0.9049  0.1323 -0.0416
   82MOL0     C11205  10.312   4.336   2.403  0.5424  0.0795 -0.2562
   82MOL0     C11206  10.321   4.374   2.243 -0.8049  0.3100 -0.2739
   82MOL0     C11207  10.191   4.349   2.471 -0.3080 -0.3688 -0.4384
   82MOL0     C11208  10.061   4.402   2.422 -0.3929  0.0814 -0.3461
   82MOL0     O11209   9.943   4.329   2.422 -0.1984  0.3797  0.1250
   82MOL0     C11210   9.829   4.380   2.359 -0.1400  0.1306 -0.4402
   82MOL0     C11211   9.815   4.403   2.219  0.7786 -0.4002 -0.2246
   82MOL0     C11212   9.693   4.434   2.170  0.8740 -0.5631  0.0402
   82MOL0     C11213   9.581   4.461   2.256  0.1654  0.2613 -0.2830
   82MOL0     O11214   9.462   4.513   2.196 -0.1098 -0.1181 -0.2387
   82MOL0     C11215   9.402   4.437   2.088  1.0080 -0.2324  0.4072
   82MOL0     C11216   9.319   4.314   2.146 -0.3694  0.1149  0.5269
   82MOL0     C11217   9.264   4.232   2.019 -0.3387 -0.1964  0.4357
   82MOL0     C11218   9.182   4.112   2.063 -0.9995  0.1518 -0.2859
   82MOL0     C11219   9.114   4.057   1.932  0.4355 -0.3274 -0.8989
   82MOL0     C11220   8.963   4.082   1.958  0.2741  0.1850 -0.0765
   82MOL0     C11221   8.876   4.101   1.831 -0.0221 -0.0463  0.1265
   82MOL0     C11222   8.836   3.966   1.776 -0.6585 -0.8677 -0.4709
   82MOL0    Cl11223   8.795   3.983   1.602  0.0027  0.1567  0.3389
   82MOL0     C11224   9.608   4.456   2.392 -0.7836  0.2386  0.2757
   82MOL0     C11225   9.727   4.411   2.439  0.7932 -0.1277  0.1557
   82MOL0     O11226  10.071   4.512   2.364  0.3918  0.1796 -0.6520
   82MOL0     C11227  10.189   4.323   2.612 -0.6479 -0.5809 -0.2837
   82MOL0     C11228  10.298   4.279   2.679 -0.1680  0.0097  0.6707
   82MOL0     N11229  10.528   3.835   3.205 -0.1230 -0.2421 -1.1406
   82MOL0     N11230  10.534   3.743   3.292 -0.5012  0.6116  0.6869
   82MOL0     C11231   9.554   3.173   2.902  0.4900  0.6090 -0.0788
   82MOL0     C11232   9.433   3.109   2.861 -0.5589 -0.0683 -0.5094
   82MOL0     C11233   9.006   3.170   2.705  0.2425  0.0416  0.0932
   82MOL0     C11234   8.942   3.090   2.799 -0.0514 -0.0977 -0.7298
   82MOL0     C11235   8.811   3.048   2.775  0.2622 -0.3667  0.0450
   82MOL0     C11236   8.739   3.088   2.660  0.0125 -0.1186  0.6452
   82MOL0     O11237   8.609   3.066   2.636  0.1157  0.3080 -0.7310
   82MOL0     C11238   8.513   3.017   2.724 -0.0813  0.6784 -0.7220
   82MOL0     C11239   8.391   2.987   2.632  0.2607 -0.2047  0.1868
   82MOL0     C11240   8.391   2.843   2.572  0.7502  0.4339  1.1883
   82MOL0     C11241   8.522   2.791   2.490 -0.2375 -0.3531 -0.2862
   82MOL0     C11242   8.502   2.655   2.448 -0.1584  0.6950 -0.3967
   82MOL0     C11243   8.488   2.544   2.393 -0.4454  0.0156 -0.0333
   82MOL0     C11244   8.819   3.149   2.562 -0.4675 -1.0133 -0.0134
   82MOL0     C11245   8.949   3.194   2.579  0.4525  0.7259  0.3466
   82MOL0     C11246   9.001   3.265   2.457 -0.3663  0.7727 -0.0325
   82MOL0     H11247   9.221   3.347   2.984 -0.4327  0.4111  0.6618
   82MOL0     H11248   9.451   3.448   3.041  1.5139 -1.0048  1.4843
   82MOL0     H11249   9.826   3.223   2.976 -1.2563  3.0253 -2.0952
   82MOL0     H11250   9.745   3.190   3.133 -3.1908  2.3961  0.3519
   82MOL0     H11251   9.913   3.438   3.096  3.1889 -1.6159  1.2065
   82MOL0     H11252   9.857   3.375   3.245  1.8479 -0.5303  1.2347
   82MOL0     H11253   9.980   3.166   3.219  0.4907  0.2366  1.5985
   82MOL0     H11254  10.059   3.227   3.073  0.6434  0.3525  0.5291
   82MOL0     H11255  10.160   3.415   3.169  0.2896  0.4100  1.8513
   82MOL0     H11256  10.120   3.371   3.329 -1.6544  3.2146 -2.2209
   82MOL0     H11257  10.256   3.181   3.122 -2.6122 -1.9489  0.7708
   82MOL0     H11258  10.236   3.139   3.294 -1.0133  0.7678  0.3600
   82MOL0     H11259  10.439   3.235   3.356 -0.3058  0.8722  0.7320
   82MOL0     H11260  10.468   3.267   3.178  1.3721  0.6844  0.8228
   82MOL0     H11261  10.355   3.468   3.382 -0.5189 -0.7926  0.0601
   82MOL0     H11262  10.359   3.489   3.205 -0.5050  0.3328  0.0593
   82MOL0     H11263  10.582   3.519   3.391  0.3039 -2.1357  0.6033
   82MOL0     H11264  10.628   3.425   3.251 -0.3672  0.3661 -1.2473
   82MOL0     H11265  10.594   3.581   3.010 -2.9900  2.2915 -1.9399
   82MOL0     H11266  10.648   3.808   2.878  1.2268 -0.4201  0.6559
   82MOL0     H11267  10.644   3.943   2.974 -0.9277  0.7583  0.5143
   82MOL0     H11268  10.411   3.795   2.834  2.5791 -1.9153 -1.1840
   82MOL0     H11269  10.375   3.915   2.957 -0.0984  0.2690 -0.2720
   82MOL0     H11270  10.544   3.950   2.705  0.9185  0.6733 -0.6135
   82MOL0     H11271  10.362   3.982   2.718  1.0846  0.1984  0.4337
   82MOL0     H11272  10.449   4.178   2.888 -0.6171 -1.2975  2.0013
   82MOL0     H11273  10.610   4.110   2.855 -0.7028 -0.8690  0.3743
   82MOL0     H11274  10.515   4.299   2.418 -1.5451  3.6897 -0.8362
   82MOL0     H11275  10.330   4.481   2.221 -0.9347  0.0226 -1.8522
   82MOL0     H11276  10.231   4.332   2.197  0.0548 -1.6705 -0.2131
   82MOL0     H11277  10.399   4.314   2.196 -2.0887 -2.4189  0.8524
   82MOL0     H11278   9.889   4.362   2.151  1.0694 -0.1035 -0.0850
   82MOL0     H11279   9.681   4.460   2.065  0.3831  0.8396  0.4267
   82MOL0     H11280   9.330   4.502   2.038  1.7870 -0.1477 -0.6375
   82MOL0     H11281   9.475   4.404   2.014  1.8261  1.1074  0.5870
   82MOL0     H11282   9.389   4.255   2.205 -0.1588 -1.9724 -1.6392
   82MOL0     H11283   9.234   4.346   2.206 -1.5638  1.8425 -1.9133
   82MOL0     H11284   9.341   4.186   1.956 -4.3912 -2.9303 -3.0934
   82MOL0     H11285   9.202   4.293   1.952  1.1797  0.0599 -0.7976
   82MOL0     H11286   9.115   4.127   2.149 -0.0115  2.7727  0.1093
   82MOL0     H11287   9.252   4.047   2.115  0.9051  3.7788  2.1322
   82MOL0     H11288   9.135   4.125   1.849 -0.2838  0.9254 -0.0860
   82MOL0     H11289   9.132   3.952   1.911  1.7698 -0.4174  0.4336
   82MOL0     H11290   8.955   4.165   2.029  3.4221  0.8814 -0.3932
   82MOL0     H11291   8.925   3.998   2.017 -1.1731  1.8157  1.4612
   82MOL0     H11292   8.947   4.140   1.758 -0.0167  1.6955  1.0134
   82MOL0     H11293   8.794   4.173   1.843  1.0143  0.8752  2.1879
   82MOL0     H11294   8.756   3.918   1.834 -1.7629 -1.2781 -2.2481
   82MOL0     H11295   8.922   3.899   1.782  0.7202  0.7339 -1.2891
   82MOL0     H11296   9.529   4.465   2.467 -1.7528 -1.9388 -0.4160
   82MOL0     H11297   9.738   4.386   2.544 -0.6393  1.7617  0.8096
   82MOL0     H11298  10.104   4.362   2.666 -0.7682  0.9297 -1.5089
   82MOL0     H11299  10.291   4.278   2.787 -0.0794 -2.6940  0.7107
   82MOL0     H11300   9.646   3.120   2.876 -0.7026  0.0359 -3.6773
   82MOL0     H11301   9.433   3.016   2.805 -2.1298 -1.4592  1.6517
   82MOL0     H11302   8.988   3.059   2.892 -0.1492  1.0104 -0.2953
   82MOL0     H11303   8.764   3.003   2.861  1.4761 -0.9909  0.3968
   82MOL0     H11304   8.556   2.924   2.761  1.3456  0.3476 -3.0044
   82MOL0     H11305   8.499   3.084   2.809  1.1147  2.5455 -1.9317
   82MOL0     H11306   8.411   3.055   2.549  0.7729  1.1783  1.3927
   82MOL0     H11307   8.294   3.004   2.680 -1.2909  1.1165 -3.1423
   82MOL0     H11308   8.411   2.787   2.664  5.8939 -0.1562  0.0066
   82MOL0     H11309   8.298   2.819   2.520  1.0695  4.4377 -1.6789
   82MOL0     H11310   8.608   2.794   2.558 -0.9336  0.7320  0.5737
   82MOL0     H11311   8.539   2.858   2.405 -1.4029  1.7830  1.0909
   82MOL0     H11312   8.470   2.446   2.355 -2.6013 -0.4439  1.9580
   82MOL0     H11313   8.769   3.169   2.468 -0.1620  1.5857  0.2747
   82MOL0     H11314   8.939   3.241   2.370 -2.5706  1.0073  1.3879
   82MOL0     H11315   8.997   3.374   2.465 -3.7704  1.2263 -4.1886
   82MOL0     H11316   9.101   3.227   2.438 -1.1202 -0.6737 -1.3617
   83MOL0     O11317   8.868   0.769   5.094 -0.8006 -0.3597  0.3170
   83MOL0     C11318   8.955   0.857   5.080  0.2286  0.8619  0.6264
   83MOL0     O11319   9.005   0.908   4.963 -0.4245  0.1264 -0.6114
   83MOL0     C11320   8.944   0.881   4.844 -0.1408 -0.5008  0.5310
   83MOL0     C11321   8.816   0.845   4.825 -0.0160  0.8693 -0.2306
   83MOL0     C11322   8.773   0.815   4.696 -0.2496 -0.6863 -0.4783
   83MOL0     C11323   8.861   0.798   4.589  0.8518  0.2439  0.3118
   83MOL0     O11324   8.792   0.759   4.464 -0.3572 -0.4785  0.2308
   83MOL0     C11325   8.877   0.727   4.350 -0.3744 -0.4474  0.3070
   83MOL0     C11326   8.890   0.851   4.259 -0.0890  0.3732 -0.2804
   83MOL0     C11327   8.981   0.809   4.136  0.0396 -0.5700 -0.1668
   83MOL0     C11328   8.974   0.930   4.044 -0.1842 -0.1160  0.3122
   83MOL0     C11329   9.077   0.918   3.932 -0.3176  0.8660  0.1922
   83MOL0     C11330   9.066   1.020   3.827 -0.9994 -0.1708  1.0777
   83MOL0     C11331   9.072   1.179   3.850  0.2908  0.5432  0.7228
   83MOL0     C11332   9.216   1.233   3.830 -0.9081  0.3794 -0.0396
   83MOL0     N11333   9.229   1.379   3.854  0.0019  0.6960 -0.0575
   83MOL0     C11334   9.160   1.443   3.953  0.0701 -0.0449  0.3888
   83MOL0     C11335   9.198   1.574   3.934  0.2958  0.7758 -0.3250
   83MOL0     C11336   9.150   1.704   4.002 -1.1003 -0.4506 -0.1597
   83MOL0     C11337   9.098   1.807   3.897  0.6353  0.3314  0.4458
   83MOL0     C11338   8.965   1.741   3.835  0.5595 -0.5988 -0.0760
   83MOL0     C11339   8.922   1.830   3.714  0.4599 -0.3088 -0.0524
   83MOL0     O11340   8.896   1.967   3.752 -0.4389  0.3663 -0.0261
   83MOL0     C11341   8.881   2.056   3.648  0.7365  1.5974 -0.1992
   83MOL0     C11342   8.924   2.187   3.675 -0.5757 -0.1764 -0.0004
   83MOL0     C11343   8.948   2.284   3.578  1.1919 -0.4918  0.3204
   83MOL0     C11344   9.005   2.418   3.627  0.7219  0.2100 -0.0484
   83MOL0     C11345   8.920   2.250   3.446 -0.2629 -1.0766  0.9201
   83MOL0     C11346   8.917   2.355   3.334  0.0569  0.3875 -0.2541
   83MOL0     O11347   8.878   2.293   3.206 -0.9700 -0.2971 -0.4132
   83MOL0     C11348   8.873   2.367   3.090 -0.2687  0.1547  0.0099
   83MOL0     C11349   8.753   2.395   3.021  0.9209  1.0293 -0.5278
   83MOL0     C11350   8.752   2.488   2.915  0.1236  0.1433 -0.7185
   83MOL0     C11351   8.872   2.541   2.867  0.6899 -0.4800 -0.1487
   83MOL0     O11352   8.844   2.624   2.763 -1.0075 -0.1100 -0.4997
   83MOL0     C11353   8.958   2.688   2.702 -0.0618 -0.4892 -1.0493
   83MOL0     C11354   8.918   2.738   2.561  0.3967  1.3243  0.0269
   83MOL0     C11355   8.869   2.627   2.453  0.0661 -0.0543 -0.6082
   83MOL0     C11356   8.955   2.494   2.447  0.0505  0.2461  0.0474
   83MOL0     C11357   8.953   2.429   2.307 -0.5420 -0.3275  0.0184
   83MOL0     C11358   8.829   2.338   2.283  0.3098 -0.1328  0.0895
   83MOL0     C11359   8.832   2.273   2.141 -0.3251  0.4519  0.0924
   83MOL0     C11360   8.738   2.162   2.115 -0.5100  0.8800 -0.7473
   83MOL0    Cl11361   8.741   2.021   2.233  0.2166 -0.4717 -0.3798
   83MOL0     C11362   8.990   2.509   2.920 -0.0708  0.2464 -0.3803
   83MOL0     C11363   8.989   2.430   3.036  0.1128  0.4760  0.6268
   83MOL0     O11364   8.954   2.474   3.356  0.1991 -0.0517 -0.0425
   83MOL0     C11365   8.871   2.121   3.419 -0.0217 -0.2885  0.1264
   83MOL0     C11366   8.867   2.023   3.517 -0.0963  0.2058  0.7994
   83MOL0     N11367   9.294   1.579   3.833  0.6747 -0.4704 -0.4417
   83MOL0     N11368   9.316   1.467   3.795  1.6680  0.6954  0.1916
   83MOL0     C11369   9.002   0.836   4.605 -0.4956 -0.3260  0.0076
   83MOL0     C11370   9.044   0.877   4.740  0.7183 -0.3928 -0.2547
   83MOL0     C11371   9.016   0.901   5.206 -0.5840 -0.1230 -0.1058
   83MOL0     C11372   8.987   0.823   5.331 -0.1021 -0.9020 -0.0771
   83MOL0     C11373   9.052   0.862   5.453  0.8513 -1.0515 -0.8362
   83MOL0     C11374   9.130   0.976   5.469 -0.5030 -1.2434  0.7376
   83MOL0     O11375   9.184   1.009   5.593 -0.1300  0.5299  0.5335
   83MOL0     C11376   9.235   1.141   5.623 -0.8587 -0.2326  0.2215
   83MOL0     C11377   9.311   1.148   5.757  0.2633 -0.0543 -0.0412
   83MOL0     C11378   9.392   1.028   5.787 -0.7368 -0.3171 -0.0141
   83MOL0     C11379   9.489   0.980   5.680 -1.0575  0.8090  0.6743
   83MOL0     C11380   9.580   0.888   5.742  0.0280  0.8989  0.1759
   83MOL0     C11381   9.660   0.815   5.795  0.0284 -0.8069  0.1004
   83MOL0     C11382   9.150   1.049   5.349  0.2941  0.3409 -0.1969
   83MOL0     C11383   9.101   1.015   5.218  0.0965  0.4614  0.5947
   83MOL0     C11384   9.141   1.106   5.104  0.6405  0.2468 -0.8330
   83MOL0     H11385   8.753   0.835   4.913  0.1618  2.3057  0.0738
   83MOL0     H11386   8.677   0.767   4.677  0.1905 -0.1620 -5.1724
   83MOL0     H11387   8.823   0.650   4.295 -1.1846  1.4133 -1.6490
   83MOL0     H11388   8.971   0.679   4.379 -1.0570 -2.6345 -0.8667
   83MOL0     H11389   8.785   0.862   4.231  0.0487 -1.2902 -1.6645
   83MOL0     H11390   8.928   0.939   4.311  1.5365  0.4521 -1.5117
   83MOL0     H11391   9.084   0.797   4.171  0.4549  1.8736 -0.3827
   83MOL0     H11392   8.950   0.722   4.078  3.7194 -1.6185 -0.7844
   83MOL0     H11393   8.877   0.938   3.995  1.0899 -0.7837 -2.5624
   83MOL0     H11394   8.992   1.022   4.100  0.5290  0.6252 -1.0716
   83MOL0     H11395   9.069   0.820   3.884  1.8332  1.7846 -2.2950
   83MOL0     H11396   9.182   0.927   3.962  0.8061 -3.5720 -1.6078
   83MOL0     H11397   9.133   0.983   3.750 -0.5594 -1.8476  2.2016
   83MOL0     H11398   8.964   1.005   3.790 -0.7351 -0.7519  0.5710
   83MOL0     H11399   9.032   1.208   3.948 -1.5634 -0.5262  0.3328
   83MOL0     H11400   9.011   1.232   3.777 -0.1873  1.6340  1.8686
   83MOL0     H11401   9.281   1.174   3.895  0.6667 -0.2800 -2.1105
   83MOL0     H11402   9.264   1.213   3.734 -0.1831 -1.6657  0.7017
   83MOL0     H11403   9.089   1.398   4.022 -0.2712 -1.1866 -0.6654
   83MOL0     H11404   9.235   1.737   4.063 -1.6230 -1.9780  1.4885
   83MOL0     H11405   9.075   1.682   4.078 -0.3785  1.3520  1.1266
   83MOL0     H11406   9.071   1.895   3.957 -1.9630 -0.4669  0.5662
   83MOL0     H11407   9.170   1.832   3.819  2.6450  1.6065  2.5765
   83MOL0     H11408   8.983   1.642   3.794 -0.4562 -0.2759 -1.3762
   83MOL0     H11409   8.882   1.741   3.906  1.6011  2.9547  1.4142
   83MOL0     H11410   9.011   1.841   3.652  1.2626  1.8631  1.3715
   83MOL0     H11411   8.830   1.789   3.670 -1.0704  1.7291  1.0824
   83MOL0     H11412   8.941   2.231   3.773  0.0862  1.6454 -0.8782
   83MOL0     H11413   9.041   2.415   3.730  0.8194  0.6594 -0.0673
   83MOL0     H11414   8.928   2.495   3.635  0.8544  0.4476 -0.8781
   83MOL0     H11415   9.080   2.454   3.555 -0.7111  2.7715 -0.3774
   83MOL0     H11416   8.664   2.350   3.064  1.8825  0.5593  1.0618
   83MOL0     H11417   8.653   2.515   2.879 -0.6451 -1.3012  0.1983
   83MOL0     H11418   8.999   2.770   2.762  3.1078 -1.5826 -1.5309
   83MOL0     H11419   9.037   2.613   2.691 -0.8235 -1.2535 -1.4308
   83MOL0     H11420   8.840   2.814   2.558 -3.0173 -1.9394 -1.2373
   83MOL0     H11421   9.003   2.788   2.514  0.8281  2.2245  1.6702
   83MOL0     H11422   8.853   2.669   2.353 -1.9367  2.9574  0.8335
   83MOL0     H11423   8.773   2.592   2.492 -0.0428  1.6342  0.7537
   83MOL0     H11424   8.926   2.428   2.529  7.0747 -2.2081  1.1911
   83MOL0     H11425   9.060   2.511   2.471 -0.0337  1.5634 -0.4249
   83MOL0     H11426   8.970   2.503   2.228 -0.4249  1.0378  1.2815
   83MOL0     H11427   9.042   2.365   2.304  1.1974  1.9882 -1.7316
   83MOL0     H11428   8.737   2.388   2.315 -2.8060 -4.3928 -1.2632
   83MOL0     H11429   8.834   2.249   2.346  0.8399 -0.3850 -0.3020
   83MOL0     H11430   8.932   2.227   2.137  0.0194  1.0104  1.5065
   83MOL0     H11431   8.824   2.353   2.067 -0.1833 -1.1086 -1.6787
   83MOL0     H11432   8.757   2.121   2.015  0.3175 -0.9127  0.0986
   83MOL0     H11433   8.635   2.198   2.121 -0.7496 -0.0138  1.3641
   83MOL0     H11434   9.079   2.551   2.876 -2.0724  2.6962 -2.4294
   83MOL0     H11435   9.080   2.400   3.086  1.6762  2.3104 -0.9282
   83MOL0     H11436   8.854   2.094   3.315 -0.8166  1.8500 -0.3524
   83MOL0     H11437   8.843   1.921   3.488 -0.8656  0.1857  1.4585
   83MOL0     H11438   9.074   0.823   4.525 -1.9455  1.3483 -1.6473
   83MOL0     H11439   9.148   0.902   4.761  0.6515 -0.4396  0.1428
   83MOL0     H11440   8.928   0.733   5.323 -1.1209 -0.4711  2.0147
   83MOL0     H11441   9.029   0.794   5.534  0.7338  0.7839  0.7605
   83MOL0     H11442   9.308   1.169   5.546 -1.7759  1.9142  0.0537
   83MOL0     H11443   9.164   1.223   5.634 -0.9625 -0.1339 -0.9960
   83MOL0     H11444   9.242   1.147   5.841 -2.1527 -0.6291 -1.9055
   83MOL0     H11445   9.382   1.231   5.760  0.0026  0.2030 -0.6956
   83MOL0     H11446   9.460   1.049   5.870 -1.0946 -0.2199  0.2574
   83MOL0     H11447   9.329   0.941   5.806 -2.0610  0.8494  1.2063
   83MOL0     H11448   9.553   1.060   5.642 -0.2395 -1.4764 -3.4692
   83MOL0     H11449   9.436   0.944   5.591 -0.1363  1.5964 -0.2275
   83MOL0     H11450   9.745   0.757   5.826  1.7408  0.5457 -1.7903
   83MOL0     H11451   9.206   1.141   5.366  0.9145 -0.2447  1.0637
   83MOL0     H11452   9.205   1.189   5.133  1.1240  1.2271 -4.2065
   83MOL0     H11453   9.199   1.049   5.030  1.6282  0.3700 -0.1688
   83MOL0     H11454   9.043   1.133   5.064 -0.1711 -1.5318 -0.1798
   84MOL0     O11455   9.319   5.132   4.884 -0.4418  0.4994  0.1756
   84MOL0     C11456   9.400   5.213   4.856  0.6974 -0.7029  0.1632
   84MOL0     O11457   9.382   5.342   4.867  0.8897  0.0100  0.2195
   84MOL0     C11458   9.274   5.385   4.940 -0.2983  0.6338 -0.8308
   84MOL0     C11459   9.220   5.326   5.052 -0.3926 -0.3923  0.6902
   84MOL0     C11460   9.094   5.370   5.107  1.5159  0.2500  0.8271
   84MOL0     C11461   9.033   5.485   5.053  1.0604 -0.6720  1.6320
   84MOL0     O11462   8.913   5.533   5.095  0.3030 -0.8154 -0.5449
   84MOL0     C11463   8.901   5.524   5.240  0.2407  0.6705  0.3522
   84MOL0     C11464   8.782   5.600   5.297 -0.2648 -0.5260 -0.0411
   84MOL0     C11465   8.648   5.542   5.250 -0.7379  0.1301 -0.4049
   84MOL0     C11466   8.530   5.637   5.251 -0.7259  0.3573 -0.0359
   84MOL0     C11467   8.507   5.713   5.382  0.9801 -1.1304  0.5200
   84MOL0     C11468   8.394   5.816   5.360  0.1063 -1.1012 -0.2304
   84MOL0     C11469   8.362   5.890   5.491 -0.9505 -0.7703 -0.4496
   84MOL0     C11470   8.286   5.795   5.596 -0.5320 -0.2664  1.4005
   84MOL0     N11471   8.370   5.745   5.701  0.0030 -0.7657 -0.6536
   84MOL0     C11472   8.385   5.612   5.737 -0.1879  1.1079 -0.2209
   84MOL0     C11473   8.466   5.611   5.843  0.1846 -0.3647 -1.0205
   84MOL0     C11474   8.499   5.499   5.926 -0.4344  0.8062  0.6227
   84MOL0     C11475   8.627   5.530   6.000 -0.5325 -0.3667 -0.4178
   84MOL0     C11476   8.709   5.405   6.038 -0.7046 -0.1062  1.0567
   84MOL0     C11477   8.726   5.399   6.190  0.1062  0.0073 -0.0332
   84MOL0     O11478   8.795   5.515   6.238 -0.1756 -0.2657 -0.3983
   84MOL0     C11479   8.905   5.484   6.321  0.2819  0.9325 -0.1889
   84MOL0     C11480   8.900   5.418   6.445 -0.3292 -0.5020 -0.6007
   84MOL0     C11481   9.009   5.405   6.526  1.0414  0.1451 -0.1461
   84MOL0     C11482   8.979   5.317   6.639  0.1770  0.3126 -0.1213
   84MOL0     C11483   9.135   5.455   6.479 -0.1001 -0.5176  0.1990
   84MOL0     C11484   9.263   5.447   6.559  0.0456  0.0215 -1.2790
   84MOL0     O11485   9.381   5.474   6.488  0.0529 -0.4583  0.4468
   84MOL0     C11486   9.491   5.504   6.570  0.5985 -0.7229  0.7804
   84MOL0     C11487   9.501   5.600   6.671 -0.1708  0.3148  0.2629
   84MOL0     C11488   9.623   5.627   6.725 -0.3006  0.0678 -0.7993
   84MOL0     C11489   9.736   5.567   6.683 -0.1840 -0.2939 -1.2976
   84MOL0     O11490   9.859   5.613   6.733 -0.1154  0.6375 -0.2761
   84MOL0     C11491   9.957   5.522   6.758  0.1945 -0.1176 -0.9130
   84MOL0     C11492  10.061   5.568   6.862 -0.7812  0.7856 -1.0906
   84MOL0     C11493  10.006   5.659   6.968  0.0582 -0.3500 -0.0617
   84MOL0     C11494  10.121   5.684   7.064 -0.4377 -0.1758 -0.3850
   84MOL0     C11495  10.106   5.818   7.139 -0.6508 -0.2803 -0.5341
   84MOL0     C11496  10.014   5.800   7.256  0.1642 -0.8059  0.0534
   84MOL0     C11497  10.074   5.709   7.371  0.2162  0.0170  0.2624
   84MOL0     C11498  10.091   5.788   7.497  0.9584 -0.2151 -0.2821
   84MOL0    Cl11499   9.919   5.806   7.565 -0.2022 -0.3463 -0.4894
   84MOL0     C11500   9.727   5.466   6.593  0.6102  0.0767 -0.6865
   84MOL0     C11501   9.606   5.443   6.526 -0.6962 -0.2762  0.4567
   84MOL0     O11502   9.264   5.409   6.681 -0.2032 -0.1098 -0.1550
   84MOL0     C11503   9.140   5.519   6.355  0.8425 -0.2577 -0.4609
   84MOL0     C11504   9.029   5.529   6.286  0.1722 -0.2134  1.1677
   84MOL0     N11505   8.500   5.747   5.872  0.1590  0.3873  0.8084
   84MOL0     N11506   8.433   5.826   5.789 -0.2814  0.4129 -0.1602
   84MOL0     C11507   9.090   5.545   4.944  0.4087 -0.4629  0.0649
   84MOL0     C11508   9.212   5.500   4.894 -0.5959 -0.8645  0.0608
   84MOL0     C11509   9.505   5.171   4.755  0.1304  1.6588 -0.1932
   84MOL0     C11510   9.556   5.257   4.663  0.2364  0.1981  1.0413
   84MOL0     C11511   9.622   5.213   4.554 -0.5688 -0.0424 -0.0387
   84MOL0     C11512   9.674   5.086   4.548 -0.7315  0.0630  0.1633
   84MOL0     O11513   9.747   5.033   4.442 -0.1584  0.1584  0.3713
   84MOL0     C11514   9.754   5.123   4.330  0.2790  0.6559 -0.8020
   84MOL0     C11515   9.862   5.067   4.251  0.3013 -0.7656  0.5889
   84MOL0     C11516   9.879   5.167   4.132 -0.6121  0.3851 -0.4938
   84MOL0     C11517   9.935   5.113   4.003 -0.2316  0.0149 -0.5476
   84MOL0     C11518   9.968   5.218   3.908  0.1082  0.2710  0.1927
   84MOL0     C11519   9.986   5.307   3.824 -0.4507  0.2151 -0.7066
   84MOL0     C11520   9.641   4.995   4.648  0.4072  0.4660 -0.2376
   84MOL0     C11521   9.556   5.036   4.752  0.4277 -0.0088  0.6444
   84MOL0     C11522   9.516   4.928   4.846  1.0814 -0.7435 -0.4367
   84MOL0     H11523   9.268   5.241   5.100 -1.7680 -1.8140 -0.3399
   84MOL0     H11524   9.062   5.320   5.198  1.8675  3.1871  2.7326
   84MOL0     H11525   8.995   5.556   5.286  2.2102  0.5389 -3.2348
   84MOL0     H11526   8.881   5.422   5.271  1.3506  1.0079  2.3548
   84MOL0     H11527   8.793   5.614   5.405  0.9470  1.1893 -0.3430
   84MOL0     H11528   8.803   5.695   5.247 -0.2352 -1.4041 -1.7767
   84MOL0     H11529   8.672   5.489   5.157  2.2796 -3.7951  2.3155
   84MOL0     H11530   8.630   5.458   5.317 -0.3662 -0.6835 -1.2999
   84MOL0     H11531   8.547   5.721   5.183 -5.3535  2.0986  0.6096
   84MOL0     H11532   8.444   5.590   5.203 -0.4426 -0.3080  0.0873
   84MOL0     H11533   8.592   5.776   5.410  0.9202 -0.4245 -0.7956
   84MOL0     H11534   8.482   5.645   5.464  0.4047  2.1882  3.3253
   84MOL0     H11535   8.411   5.891   5.282 -3.0365  0.0472  0.0336
   84MOL0     H11536   8.303   5.766   5.326 -3.1429  4.5545 -1.1842
   84MOL0     H11537   8.306   5.980   5.466 -0.1381 -0.8041 -2.6063
   84MOL0     H11538   8.445   5.937   5.544 -0.8513 -1.0015 -0.3955
   84MOL0     H11539   8.204   5.859   5.631 -0.4480 -0.4702  1.9759
   84MOL0     H11540   8.252   5.710   5.536  2.2457 -0.8419  0.4933
   84MOL0     H11541   8.341   5.523   5.693 -0.1340  2.7560 -4.0179
   84MOL0     H11542   8.519   5.408   5.867  1.2836  1.0066  0.8667
   84MOL0     H11543   8.414   5.484   5.994 -0.3909  3.9109  1.5060
   84MOL0     H11544   8.690   5.600   5.944 -0.8454  0.0038 -0.3076
   84MOL0     H11545   8.592   5.585   6.088  0.0560 -2.0254  0.9146
   84MOL0     H11546   8.679   5.315   5.983 -0.5633  0.2270  0.4360
   84MOL0     H11547   8.807   5.422   5.993 -1.7542  0.7454 -1.0241
   84MOL0     H11548   8.625   5.402   6.231 -0.4341 -2.4568 -0.9951
   84MOL0     H11549   8.774   5.302   6.207 -0.7425 -1.1774 -3.6008
   84MOL0     H11550   8.805   5.375   6.476  1.4746 -2.6452  2.5714
   84MOL0     H11551   9.068   5.255   6.655 -0.2770 -0.1828  0.5598
   84MOL0     H11552   8.889   5.254   6.642  0.2505  0.0236 -2.2910
   84MOL0     H11553   8.986   5.374   6.732  2.5799  0.6384 -0.4435
   84MOL0     H11554   9.419   5.640   6.730 -1.5498  0.3300 -1.5665
   84MOL0     H11555   9.630   5.709   6.796 -1.6001  0.4975 -1.1379
   84MOL0     H11556   9.916   5.426   6.792 -2.4610  0.4470 -2.2286
   84MOL0     H11557  10.007   5.493   6.665  0.5655 -2.0920 -0.1495
   84MOL0     H11558  10.104   5.478   6.907  2.0263  0.2304 -4.4961
   84MOL0     H11559  10.154   5.604   6.819  1.2814 -0.0462  2.2604
   84MOL0     H11560   9.923   5.604   7.014  0.0517 -0.5103 -0.2625
   84MOL0     H11561   9.972   5.750   6.918 -2.4249 -1.4747 -0.5594
   84MOL0     H11562  10.217   5.691   7.012  1.1624 -0.0596  2.3581
   84MOL0     H11563  10.136   5.592   7.121  1.3774 -0.5552 -1.4218
   84MOL0     H11564  10.205   5.849   7.174 -1.0928  0.7971 -0.2262
   84MOL0     H11565  10.064   5.891   7.070  0.6060  1.1422  0.1573
   84MOL0     H11566   9.916   5.768   7.222  0.1938 -0.1802 -0.6609
   84MOL0     H11567   9.989   5.899   7.295 -3.0425 -1.0274 -1.1880
   84MOL0     H11568  10.173   5.673   7.339  0.5531  0.1437  1.1276
   84MOL0     H11569  10.027   5.612   7.385 -1.5636  1.0836  2.3204
   84MOL0     H11570  10.135   5.887   7.480 -0.8287  1.0856  2.1053
   84MOL0     H11571  10.156   5.745   7.574 -1.0133  0.4877  1.9102
   84MOL0     H11572   9.824   5.423   6.568  0.5925  1.3262 -3.3343
   84MOL0     H11573   9.589   5.382   6.438  1.3078  1.1441 -1.0147
   84MOL0     H11574   9.232   5.558   6.311  1.3761  0.7517  1.4295
   84MOL0     H11575   9.026   5.569   6.185 -0.3205 -0.4909  1.0678
   84MOL0     H11576   9.038   5.620   4.886  1.0012 -0.0099  0.1117
   84MOL0     H11577   9.255   5.543   4.804 -0.7509 -0.2238  0.2843
   84MOL0     H11578   9.519   5.359   4.661  0.6906  0.3612  0.2269
   84MOL0     H11579   9.626   5.288   4.477  2.0378  1.1420  1.1212
   84MOL0     H11580   9.661   5.118   4.272 -2.0219 -2.4692  2.6512
   84MOL0     H11581   9.778   5.225   4.361  0.4949  0.0782  1.1019
   84MOL0     H11582   9.826   4.968   4.220 -2.0017  0.6487 -1.6313
   84MOL0     H11583   9.961   5.063   4.299  2.0763  0.6223 -2.6503
   84MOL0     H11584   9.788   5.225   4.115 -0.4938  0.3726 -1.2361
   84MOL0     H11585   9.944   5.247   4.168 -0.3207  0.4126 -1.0630
   84MOL0     H11586   9.865   5.043   3.957 -0.2747  1.7117 -3.2447
   84MOL0     H11587  10.029   5.067   4.034  1.1219  2.2292 -1.1954
   84MOL0     H11588   9.992   5.368   3.736 -2.2506 -0.8644 -1.6227
   84MOL0     H11589   9.690   4.899   4.635 -0.8707 -0.3063  0.4114
   84MOL0     H11590   9.408   4.916   4.841  0.9681 -0.0624  0.2882
   84MOL0     H11591   9.561   4.833   4.814 -0.4929 -1.1209 -1.6447
   84MOL0     H11592   9.540   4.956   4.949 -0.2177  1.0536 -0.5830
   85MOL0     O11593   2.581   6.617   8.418 -0.9822 -0.9783  0.1219
   85MOL0     C11594   2.635   6.517   8.466  0.6471  0.1467  0.5311
   85MOL0     O11595   2.636   6.399   8.410 -0.3961 -0.3678 -1.0126
   85MOL0     C11596   2.611   6.372   8.280  0.6284  0.7304 -0.5574
   85MOL0     C11597   2.578   6.235   8.251 -0.5030  0.9279 -0.0862
   85MOL0     C11598   2.567   6.180   8.118  0.1491 -0.3601  0.2250
   85MOL0     C11599   2.551   6.275   8.016 -0.9549 -0.2737  0.4261
   85MOL0     O11600   2.523   6.227   7.889  0.2885  0.0918  0.0856
   85MOL0     C11601   2.548   6.301   7.773 -0.2549  0.7333  0.4522
   85MOL0     C11602   2.427   6.386   7.715  0.0751  0.1988  0.0268
   85MOL0     C11603   2.362   6.314   7.598 -0.4706 -0.1071  0.2526
   85MOL0     C11604   2.257   6.411   7.554 -0.9555  0.2537 -0.0505
   85MOL0     C11605   2.148   6.356   7.467  0.9285 -1.3978 -1.3471
   85MOL0     C11606   2.050   6.470   7.432 -1.1525 -0.7523  0.7147
   85MOL0     C11607   1.935   6.403   7.362  0.1771  0.2287 -0.3370
   85MOL0     C11608   1.969   6.372   7.214 -0.0092  0.0797  0.4342
   85MOL0     N11609   1.844   6.345   7.155 -0.0279  0.0401 -0.5728
   85MOL0     C11610   1.750   6.246   7.192 -0.1213 -0.5003 -0.2166
   85MOL0     C11611   1.641   6.282   7.120  0.2242  0.2423  0.9092
   85MOL0     C11612   1.509   6.204   7.118  0.2358  0.4031  0.5814
   85MOL0     C11613   1.490   6.081   7.015 -0.8803 -1.0957  0.5635
   85MOL0     C11614   1.557   5.958   7.066  0.2309 -0.0587  0.0673
   85MOL0     C11615   1.480   5.881   7.177 -0.4448 -0.0678 -0.6208
   85MOL0     O11616   1.513   5.934   7.309 -1.3757 -0.1518  0.6784
   85MOL0     C11617   1.632   5.916   7.375  0.6543 -0.0324  0.0574
   85MOL0     C11618   1.733   5.834   7.329 -0.3407 -0.1657  0.0119
   85MOL0     C11619   1.856   5.833   7.386 -0.3352 -0.2033  0.5393
   85MOL0     C11620   1.965   5.751   7.314  0.8662 -0.9857  0.5789
   85MOL0     C11621   1.881   5.916   7.491  0.4640 -1.0746 -0.5190
   85MOL0     C11622   2.016   5.947   7.561  0.3128 -0.8225  0.2374
   85MOL0     O11623   2.116   5.863   7.530 -0.0380  0.0114  0.5457
   85MOL0     C11624   2.256   5.882   7.559  0.9216  0.7078 -0.6260
   85MOL0     C11625   2.290   5.907   7.697  0.1297  0.3546  0.0795
   85MOL0     C11626   2.424   5.913   7.737 -0.4730  0.1851 -0.0647
   85MOL0     C11627   2.533   5.912   7.642  1.0523  0.2013  1.1598
   85MOL0     O11628   2.672   5.924   7.669  0.1679 -0.2667 -0.3662
   85MOL0     C11629   2.705   5.926   7.808 -0.7794 -0.2295  0.5469
   85MOL0     C11630   2.855   5.956   7.827 -0.1300 -0.3080 -0.0650
   85MOL0     C11631   2.950   5.856   7.760 -0.4236 -0.2454  0.5179
   85MOL0     C11632   3.088   5.926   7.764 -0.1105 -0.7961 -0.0500
   85MOL0     C11633   3.184   5.850   7.676 -0.5373  0.0371  0.0571
   85MOL0     C11634   3.323   5.918   7.668  0.3873  0.5029  0.0846
   85MOL0     C11635   3.449   5.825   7.640  0.8446  0.3327 -0.3787
   85MOL0     C11636   3.579   5.909   7.639 -0.4846  0.4077  0.7721
   85MOL0    Cl11637   3.705   5.793   7.605 -0.3833  0.2524 -0.0974
   85MOL0     C11638   2.499   5.894   7.510  0.6658 -0.1591  1.0334
   85MOL0     C11639   2.363   5.886   7.471  0.2402  0.6689 -0.3300
   85MOL0     O11640   2.021   6.049   7.632 -0.3524 -0.3547  0.4297
   85MOL0     C11641   1.778   5.991   7.549  0.3754 -0.5991 -0.0194
   85MOL0     C11642   1.651   5.985   7.493  0.0240 -0.7299  0.0735
   85MOL0     N11643   1.676   6.388   7.023  0.5139 -0.1282 -0.3224
   85MOL0     N11644   1.800   6.414   7.044 -0.0533 -0.5657  0.2551
   85MOL0     C11645   2.563   6.413   8.044  0.2472  1.0414 -0.2196
   85MOL0     C11646   2.601   6.462   8.172 -0.2490 -0.4451 -0.1074
   85MOL0     C11647   2.696   6.527   8.606  0.5053 -0.6961 -0.1760
   85MOL0     C11648   2.825   6.468   8.624  0.5918 -0.1564 -0.0832
   85MOL0     C11649   2.890   6.471   8.747  0.1254 -0.3984 -0.2232
   85MOL0     C11650   2.823   6.534   8.855 -0.6544 -0.1205 -0.0111
   85MOL0     O11651   2.879   6.551   8.980  0.0577  0.0015  0.4790
   85MOL0     C11652   2.898   6.431   9.055 -0.1476 -0.6556  0.5071
   85MOL0     C11653   2.846   6.461   9.191  1.0052  0.4663  0.0071
   85MOL0     C11654   2.696   6.436   9.207 -0.1951 -0.6415  0.5422
   85MOL0     C11655   2.684   6.411   9.359  0.4861 -0.2543  0.0740
   85MOL0     C11656   2.544   6.412   9.395  0.4066  0.2157  0.1747
   85MOL0     C11657   2.425   6.422   9.435 -0.1865  0.3253  0.6053
   85MOL0     C11658   2.697   6.585   8.840 -0.5141 -0.4631 -0.3540
   85MOL0     C11659   2.628   6.584   8.720 -0.9037 -0.9959  0.0159
   85MOL0     C11660   2.496   6.663   8.721  0.0320  0.2097  0.0111
   85MOL0     H11661   2.556   6.172   8.337 -0.9672 -2.2249 -2.3342
   85MOL0     H11662   2.540   6.076   8.104 -1.4840  0.2769 -1.9763
   85MOL0     H11663   2.591   6.236   7.696  1.6944  0.6441  1.5638
   85MOL0     H11664   2.631   6.372   7.779  0.8847 -0.4163 -0.7868
   85MOL0     H11665   2.366   6.406   7.803  3.1849  0.8674  2.2096
   85MOL0     H11666   2.473   6.483   7.696  1.4345 -0.0964  1.6023
   85MOL0     H11667   2.433   6.283   7.520 -1.6390  1.1309 -1.3863
   85MOL0     H11668   2.309   6.226   7.633 -1.0845  0.2426  0.2053
   85MOL0     H11669   2.216   6.460   7.643 -2.2396  0.5053 -0.7568
   85MOL0     H11670   2.310   6.485   7.494  2.7951 -2.2568 -0.1214
   85MOL0     H11671   2.097   6.274   7.520 -1.9080  1.3516  0.5420
   85MOL0     H11672   2.182   6.312   7.373 -1.7352 -0.7417 -2.7237
   85MOL0     H11673   2.006   6.530   7.512  1.6972 -0.0571  1.8862
   85MOL0     H11674   2.109   6.535   7.367 -0.3337 -0.8855  1.3065
   85MOL0     H11675   1.848   6.469   7.361  1.6465  2.2636 -0.3084
   85MOL0     H11676   1.899   6.313   7.413  1.1807 -0.4201 -0.7378
   85MOL0     H11677   2.005   6.462   7.165  1.8656 -0.6800  0.3411
   85MOL0     H11678   2.042   6.294   7.190  1.2716  1.7117 -1.1965
   85MOL0     H11679   1.753   6.170   7.270 -0.2616  2.3070  2.7437
   85MOL0     H11680   1.443   6.286   7.088  2.1257  2.7943  2.5031
   85MOL0     H11681   1.481   6.176   7.220 -1.0754 -1.2356 -0.1780
   85MOL0     H11682   1.385   6.062   6.994 -0.8802  0.5655 -1.2512
   85MOL0     H11683   1.540   6.104   6.921 -2.3358  0.1604  0.0692
   85MOL0     H11684   1.567   5.891   6.980  0.0679 -0.0605  0.0495
   85MOL0     H11685   1.663   5.967   7.090  0.4440 -0.1065 -0.8321
   85MOL0     H11686   1.374   5.882   7.152  0.1265  1.9776 -3.5712
   85MOL0     H11687   1.504   5.774   7.176 -1.6105 -0.3542  0.0206
   85MOL0     H11688   1.701   5.764   7.253 -2.8151 -0.4239  1.1607
   85MOL0     H11689   2.021   5.824   7.255  0.3447 -2.4426 -1.8747
   85MOL0     H11690   1.917   5.686   7.239  2.7168 -2.1425  0.3315
   85MOL0     H11691   2.025   5.694   7.385  2.2984 -0.6002 -0.2876
   85MOL0     H11692   2.212   5.927   7.770 -0.2308 -0.7297  0.0177
   85MOL0     H11693   2.465   5.931   7.836 -1.2248  2.2285 -0.0662
   85MOL0     H11694   2.660   6.008   7.865  2.8894  1.2482  1.5772
   85MOL0     H11695   2.685   5.830   7.856  0.9412 -0.6472  0.4922
   85MOL0     H11696   2.858   6.059   7.790 -0.0809 -0.0162  0.7303
   85MOL0     H11697   2.878   5.963   7.934 -2.4253  1.4928  0.4118
   85MOL0     H11698   2.918   5.837   7.657 -1.7778  2.7448  0.2880
   85MOL0     H11699   2.941   5.765   7.820  0.5032 -0.2302  0.6928
   85MOL0     H11700   3.122   5.924   7.869  0.1212  1.1091 -0.0452
   85MOL0     H11701   3.079   6.030   7.731  2.6789  0.0611  1.4726
   85MOL0     H11702   3.189   5.758   7.736 -0.2423 -0.0801 -0.1433
   85MOL0     H11703   3.140   5.816   7.582  1.6879 -1.5194 -0.5232
   85MOL0     H11704   3.343   5.971   7.761 -0.4580  0.5708  0.2398
   85MOL0     H11705   3.321   5.996   7.591  0.5310  0.9761  0.5545
   85MOL0     H11706   3.435   5.769   7.547 -0.0720 -1.5959  0.8715
   85MOL0     H11707   3.460   5.750   7.719 -0.0296 -0.4581 -0.9824
   85MOL0     H11708   3.593   5.959   7.735  1.4176  0.3033  0.5887
   85MOL0     H11709   3.571   5.980   7.555  0.0247 -3.6154 -3.0520
   85MOL0     H11710   2.569   5.891   7.427  2.4026 -0.8148  2.4807
   85MOL0     H11711   2.351   5.859   7.367 -2.3515  0.3039 -0.0060
   85MOL0     H11712   1.780   6.043   7.644  1.1259 -0.0664 -0.3148
   85MOL0     H11713   1.567   6.040   7.535 -0.7286 -0.2579 -1.9306
   85MOL0     H11714   2.564   6.495   7.974 -0.7840  1.3428  0.0967
   85MOL0     H11715   2.628   6.567   8.179 -0.1334 -0.5841  2.5795
   85MOL0     H11716   2.883   6.419   8.547  3.5731 -1.0243  2.5313
   85MOL0     H11717   2.992   6.432   8.745  0.4259  0.4030 -1.1415
   85MOL0     H11718   2.861   6.335   9.016 -2.7185  0.4516  0.0598
   85MOL0     H11719   3.007   6.421   9.048  0.2164  2.2369  0.9518
   85MOL0     H11720   2.862   6.565   9.222  0.1518  0.5262  0.2846
   85MOL0     H11721   2.896   6.401   9.268  0.3564  0.5604  0.5115
   85MOL0     H11722   2.643   6.531   9.195  0.5642  0.1255  2.8861
   85MOL0     H11723   2.654   6.356   9.145 -2.3179  0.1137  0.9050
   85MOL0     H11724   2.731   6.479   9.431 -0.7150  0.1219  0.5157
   85MOL0     H11725   2.728   6.311   9.373  0.5081 -0.4053 -0.9667
   85MOL0     H11726   2.318   6.419   9.444 -0.0362  0.2565  3.7569
   85MOL0     H11727   2.660   6.626   8.934  2.8899  1.8456  0.1591
   85MOL0     H11728   2.409   6.603   8.695 -1.0757  2.3128 -1.4645
   85MOL0     H11729   2.478   6.713   8.816  1.5512 -0.1293  0.5130
   85MOL0     H11730   2.498   6.734   8.638  0.3542  1.8072  1.3319
   86MOL0     O11731  10.176   9.115   1.641  0.8407 -0.2214  0.3548
   86MOL0     C11732  10.182   9.013   1.576  0.3973  0.5448 -0.1691
   86MOL0     O11733  10.104   8.984   1.473  0.3723  0.1053  0.6602
   86MOL0     C11734   9.979   9.033   1.477  0.3874  0.7543 -0.4233
   86MOL0     C11735   9.953   9.159   1.431 -0.0613 -0.2022  0.1289
   86MOL0     C11736   9.821   9.213   1.428 -0.8735  0.2982  0.5697
   86MOL0     C11737   9.706   9.120   1.447 -0.6630 -0.3360 -0.0379
   86MOL0     O11738   9.577   9.149   1.414  0.3988  0.2885 -0.2423
   86MOL0     C11739   9.550   9.279   1.370  1.4090  0.6777 -0.1882
   86MOL0     C11740   9.407   9.267   1.343 -0.0904  0.4882  0.0930
   86MOL0     C11741   9.345   9.402   1.323  0.1634  0.2019 -0.4470
   86MOL0     C11742   9.204   9.391   1.272 -0.0402 -0.0889 -1.1130
   86MOL0     C11743   9.186   9.357   1.125 -0.2581 -0.2766  0.5108
   86MOL0     C11744   9.191   9.498   1.043  0.3597  0.9280  0.3576
   86MOL0     C11745   9.225   9.502   0.888 -0.4881  0.1854 -0.6189
   86MOL0     C11746   9.359   9.460   0.846 -1.0741 -0.7233 -0.5787
   86MOL0     N11747   9.456   9.547   0.911 -0.2799 -0.2934 -0.8032
   86MOL0     C11748   9.514   9.659   0.863  0.1026 -0.1689  0.3188
   86MOL0     C11749   9.606   9.699   0.950  0.0671  0.6132 -0.4365
   86MOL0     C11750   9.692   9.817   0.950 -0.1548  0.2715  0.7485
   86MOL0     C11751   9.653   9.909   1.068  0.6885  0.3657  1.2421
   86MOL0     C11752   9.518   9.979   1.046 -0.4657 -0.1139 -0.2096
   86MOL0     C11753   9.485  10.065   1.165 -0.6872  0.0621  0.4547
   86MOL0     O11754   9.342  10.083   1.173 -0.2818 -0.4586  0.4014
   86MOL0     C11755   9.305  10.205   1.130  0.0546 -0.8189  0.6449
   86MOL0     C11756   9.364  10.289   1.043 -0.7735  1.3406  1.0600
   86MOL0     C11757   9.327  10.406   0.984  0.8402  0.0638  1.2696
   86MOL0     C11758   9.422  10.463   0.872  0.4125  0.2294 -1.0077
   86MOL0     C11759   9.198  10.448   1.031  1.0312 -0.0965 -0.4566
   86MOL0     C11760   9.126  10.567   0.976 -0.0611  0.2560 -0.3584
   86MOL0     O11761   9.030  10.627   1.066 -0.0120  0.4346  0.1776
   86MOL0     C11762   8.956  10.731   1.017  0.5851 -0.0539 -0.2874
   86MOL0     C11763   9.013  10.850   0.972 -0.7060 -0.5204  0.0392
   86MOL0     C11764   8.925  10.959   0.944  0.1475  0.2497  0.9320
   86MOL0     C11765   8.797  10.948   0.945  0.3042  0.1940 -0.2285
   86MOL0     O11766   8.720  11.052   0.912 -0.1216 -0.3569 -0.1677
   86MOL0     C11767   8.601  11.032   0.839 -0.1264 -0.0904 -0.0880
   86MOL0     C11768   8.501  11.145   0.853 -0.2674 -0.2213 -0.2912
   86MOL0     C11769   8.458  11.179   0.998 -0.2996  1.0318  0.2927
   86MOL0     C11770   8.330  11.269   1.002 -0.3812  0.8691 -0.2833
   86MOL0     C11771   8.366  11.405   0.931  0.5043  0.3212  0.7593
   86MOL0     C11772   8.254  11.512   0.942  0.0715 -0.2867 -0.4004
   86MOL0     C11773   8.319  11.639   0.883 -0.2657 -0.6644  0.9271
   86MOL0     C11774   8.240  11.765   0.925 -0.3215  0.2518 -0.6456
   86MOL0    Cl11775   8.337  11.909   0.875  0.2177  0.2274 -0.4591
   86MOL0     C11776   8.738  10.833   1.003 -0.4112  0.1592  0.6388
   86MOL0     C11777   8.818  10.726   1.032  0.1792  1.3455 -0.7447
   86MOL0     O11778   9.155  10.610   0.867 -1.0620 -0.5070  0.4037
   86MOL0     C11779   9.129  10.379   1.131 -0.2328  0.3496  0.5597
   86MOL0     C11780   9.188  10.262   1.185 -1.0486 -0.6197  0.1963
   86MOL0     N11781   9.620   9.602   1.051 -0.4066 -0.1555  1.0171
   86MOL0     N11782   9.532   9.505   1.021  0.4361  0.0879 -0.4565
   86MOL0     C11783   9.740   8.999   1.502  0.1274 -0.2718  0.0272
   86MOL0     C11784   9.871   8.950   1.516 -0.7125  0.0781  0.1468
   86MOL0     C11785  10.272   8.910   1.614  1.2868  0.2718  0.7253
   86MOL0     C11786  10.322   8.910   1.742  0.3179  0.2937 -0.5158
   86MOL0     C11787  10.436   8.840   1.785  0.5770 -0.0126  0.5537
   86MOL0     C11788  10.485   8.741   1.703  0.2460  0.1377 -0.0473
   86MOL0     O11789  10.595   8.661   1.731  0.3772  0.5077 -0.3448
   86MOL0     C11790  10.560   8.556   1.820 -0.7536  0.4404 -0.5997
   86MOL0     C11791  10.678   8.474   1.873  0.0781 -0.2755 -0.2158
   86MOL0     C11792  10.759   8.414   1.759 -0.3780 -0.4874  0.0814
   86MOL0     C11793  10.895   8.350   1.805 -0.8666 -1.0526 -0.0137
   86MOL0     C11794  10.865   8.239   1.888 -0.4695 -0.6431  0.0359
   86MOL0     C11795  10.848   8.132   1.941 -1.3397 -0.0862 -0.3364
   86MOL0     C11796  10.435   8.730   1.578 -0.6460 -0.0310  1.1404
   86MOL0     C11797  10.333   8.811   1.534 -0.0035 -0.2823 -0.3590
   86MOL0     C11798  10.297   8.795   1.385 -0.1992 -0.6007  0.1810
   86MOL0     H11799  10.031   9.227   1.398 -1.3242  1.2241 -0.0451
   86MOL0     H11800   9.813   9.314   1.388 -0.1684 -0.0722 -0.5751
   86MOL0     H11801   9.597   9.301   1.273  0.7265 -1.1406 -0.9792
   86MOL0     H11802   9.577   9.350   1.449  5.7320 -0.7396 -0.1522
   86MOL0     H11803   9.401   9.197   1.259  1.2342 -0.2135  0.5628
   86MOL0     H11804   9.353   9.224   1.428  1.9562  2.6692  2.6372
   86MOL0     H11805   9.340   9.465   1.412  1.1747  1.2825 -1.1391
   86MOL0     H11806   9.412   9.462   1.261  0.0901  1.6486  0.8268
   86MOL0     H11807   9.151   9.313   1.328 -0.4850  0.8953 -0.1256
   86MOL0     H11808   9.145   9.480   1.295 -1.9949 -1.3337 -1.0536
   86MOL0     H11809   9.092   9.309   1.097 -1.8733  2.5966  0.6033
   86MOL0     H11810   9.272   9.298   1.094  1.4256  2.3747 -0.1775
   86MOL0     H11811   9.091   9.541   1.039 -1.3972 -2.7342  0.9049
   86MOL0     H11812   9.260   9.573   1.083  1.5224  0.4827 -0.7414
   86MOL0     H11813   9.213   9.604   0.852 -3.2121 -1.0607 -3.7918
   86MOL0     H11814   9.154   9.436   0.837 -0.2361  0.9966 -2.0777
   86MOL0     H11815   9.395   9.361   0.875  1.5604  0.9906  2.6462
   86MOL0     H11816   9.367   9.462   0.737  1.2902 -3.5580 -0.5811
   86MOL0     H11817   9.493   9.709   0.769  1.6427 -1.1336 -0.5868
   86MOL0     H11818   9.686   9.869   0.854 -1.0824  1.4814  1.4369
   86MOL0     H11819   9.789   9.773   0.975 -0.3011  0.6974  2.1617
   86MOL0     H11820   9.653   9.841   1.154 -0.0763 -2.9717 -1.1961
   86MOL0     H11821   9.739   9.977   1.078 -0.5737  1.9366  1.8485
   86MOL0     H11822   9.525  10.046   0.961 -3.3025  3.8109  2.3197
   86MOL0     H11823   9.436   9.908   1.034 -0.0681 -0.6453  0.1475
   86MOL0     H11824   9.522  10.015   1.255  0.3987 -1.6224 -0.8563
   86MOL0     H11825   9.541  10.158   1.159  2.4439 -1.7227 -0.7888
   86MOL0     H11826   9.451  10.253   0.989 -1.5644 -0.9354  1.2177
   86MOL0     H11827   9.393  10.441   0.769  1.2957  0.7959 -1.3864
   86MOL0     H11828   9.526  10.429   0.877  0.6293  1.0310  1.4310
   86MOL0     H11829   9.422  10.573   0.873  1.0879  0.2602 -2.6128
   86MOL0     H11830   9.118  10.868   0.990 -0.6208 -1.4049  0.4719
   86MOL0     H11831   8.960  11.059   0.923  0.9491 -0.1411  0.3279
   86MOL0     H11832   8.623  11.023   0.733  0.4320 -0.8338  0.0904
   86MOL0     H11833   8.553  10.941   0.875  2.3393 -0.3733  2.9042
   86MOL0     H11834   8.537  11.232   0.799 -1.3479  0.0383 -0.6092
   86MOL0     H11835   8.408  11.117   0.804  0.1500 -2.2656 -0.0101
   86MOL0     H11836   8.544  11.231   1.041 -0.8517 -1.2741  4.8560
   86MOL0     H11837   8.448  11.087   1.056  1.5583 -0.1582 -1.1729
   86MOL0     H11838   8.293  11.288   1.103  0.4704  0.8011  0.0478
   86MOL0     H11839   8.251  11.208   0.958 -1.8682  0.5380  2.6152
   86MOL0     H11840   8.459  11.442   0.976  1.5450 -1.4313  0.1492
   86MOL0     H11841   8.392  11.392   0.825 -3.4832  3.9356 -0.9723
   86MOL0     H11842   8.217  11.515   1.044 -0.2556  2.7839 -0.4930
   86MOL0     H11843   8.177  11.472   0.876  0.9814 -2.0952 -0.4185
   86MOL0     H11844   8.343  11.633   0.776  1.0636  3.2505  0.8797
   86MOL0     H11845   8.414  11.655   0.933  0.7850  0.6501 -1.3488
   86MOL0     H11846   8.223  11.778   1.032 -0.6280  0.3190 -0.7017
   86MOL0     H11847   8.142  11.779   0.878  0.1210  0.3473 -1.5691
   86MOL0     H11848   8.631  10.825   1.018 -1.0171  1.8189 -2.0924
   86MOL0     H11849   8.763  10.633   1.044  1.7847  0.0294 -2.9485
   86MOL0     H11850   9.031  10.402   1.172  0.3727  1.6635  1.3412
   86MOL0     H11851   9.133  10.200   1.256 -1.7999 -2.7484 -2.1138
   86MOL0     H11852   9.661   8.926   1.517  1.0028 -0.9265  1.7605
   86MOL0     H11853   9.898   8.852   1.553  1.6449  0.1688 -1.1773
   86MOL0     H11854  10.273   8.982   1.807  0.3372 -2.4400  2.8068
   86MOL0     H11855  10.475   8.874   1.881  0.9975  3.6032 -0.7144
   86MOL0     H11856  10.516   8.607   1.906 -0.2201  0.8931 -0.5883
   86MOL0     H11857  10.492   8.488   1.768  0.8226  1.0745 -3.7784
   86MOL0     H11858  10.628   8.390   1.923 -1.0112  0.3253 -0.2869
   86MOL0     H11859  10.739   8.532   1.943  0.6642 -1.2725  0.1332
   86MOL0     H11860  10.691   8.341   1.714 -0.6084 -1.1920  1.5185
   86MOL0     H11861  10.782   8.499   1.694 -0.0228 -0.3704  0.3570
   86MOL0     H11862  10.936   8.433   1.864 -1.5966  0.7109 -1.8721
   86MOL0     H11863  10.957   8.318   1.721 -1.7944 -0.2018 -1.0510
   86MOL0     H11864  10.854   8.035   1.986 -0.0602 -0.2366 -0.7885
   86MOL0     H11865  10.483   8.658   1.512 -2.0352 -0.6796  0.7989
   86MOL0     H11866  10.319   8.694   1.349 -2.7014 -0.2575 -2.7292
   86MOL0     H11867  10.195   8.806   1.346  0.5290  0.8320 -1.4406
   86MOL0     H11868  10.356   8.878   1.344  1.8312 -1.2464  1.6569
   87MOL0     O11869   8.907   3.670  10.794 -0.6633 -0.5292 -0.1903
   87MOL0     C11870   8.962   3.781  10.834  0.7553  0.9775 -0.1582
   87MOL0     O11871   9.015   3.877  10.759 -0.2277 -0.3931  0.7849
   87MOL0     C11872   8.992   3.871  10.625  0.4364 -0.3794  0.0184
   87MOL0     C11873   8.865   3.846  10.573  0.6238 -0.0941 -0.4992
   87MOL0     C11874   8.843   3.844  10.436  0.4002 -0.3021  0.0029
   87MOL0     C11875   8.948   3.880  10.349  0.6912  0.1335 -0.1310
   87MOL0     O11876   8.953   3.879  10.217 -0.7875  0.3480 -0.9026
   87MOL0     C11877   8.839   3.846  10.147 -0.0940  0.1621 -0.6883
   87MOL0     C11878   8.876   3.784  10.013  0.7106  0.0129 -0.7992
   87MOL0     C11879   8.757   3.786   9.914  0.2992  0.9813  0.6575
   87MOL0     C11880   8.799   3.734   9.774  0.1152  0.0311 -1.2112
   87MOL0     C11881   8.746   3.834   9.671 -0.2533  0.3879  0.2094
   87MOL0     C11882   8.829   3.961   9.671 -0.0852  0.1621 -0.7007
   87MOL0     C11883   8.970   3.940   9.630  1.0980 -0.2903 -0.1499
   87MOL0     C11884   9.034   4.072   9.578  1.6722 -0.5247  0.5131
   87MOL0     N11885   8.992   4.095   9.438 -0.7999  0.3339  0.3156
   87MOL0     C11886   8.891   4.178   9.403  1.8440 -0.3723  0.2636
   87MOL0     C11887   8.864   4.138   9.277 -0.2653 -0.0800 -0.7677
   87MOL0     C11888   8.739   4.179   9.202  0.0410  0.5978  0.3239
   87MOL0     C11889   8.769   4.287   9.092  0.2830  0.1479 -0.6977
   87MOL0     C11890   8.783   4.427   9.149 -0.7844 -0.4978  0.2481
   87MOL0     C11891   8.791   4.535   9.033  0.1309 -1.0856  0.2639
   87MOL0     O11892   8.918   4.534   8.965  0.7397  0.3101 -0.1729
   87MOL0     C11893   8.944   4.629   8.874  0.8164 -0.2538 -0.9056
   87MOL0     C11894   8.855   4.716   8.811  0.4441 -0.0575 -0.2509
   87MOL0     C11895   8.884   4.827   8.725 -0.3944 -0.1309  0.1428
   87MOL0     C11896   8.768   4.920   8.690 -0.0589  0.1479 -0.2117
   87MOL0     C11897   9.020   4.835   8.684  1.0647 -0.1199  0.7772
   87MOL0     C11898   9.075   4.946   8.596 -0.0114  1.1009  0.5038
   87MOL0     O11899   9.204   4.948   8.547  0.2433  1.0426 -0.2444
   87MOL0     C11900   9.241   5.063   8.483  0.1650 -0.8172  0.6746
   87MOL0     C11901   9.332   5.153   8.538 -0.3133  0.0489 -0.7556
   87MOL0     C11902   9.369   5.271   8.472  0.8698  0.2252 -0.2730
   87MOL0     C11903   9.303   5.308   8.349 -0.3717  0.0211  0.1215
   87MOL0     O11904   9.324   5.420   8.273  0.3449 -0.2845  0.4030
   87MOL0     C11905   9.428   5.507   8.302  0.4577 -0.2545  0.1252
   87MOL0     C11906   9.477   5.597   8.179 -0.2559 -0.0473 -0.9518
   87MOL0     C11907   9.360   5.674   8.115 -0.2298  0.4877  0.3882
   87MOL0     C11908   9.400   5.698   7.958  0.5635  0.6916  0.0630
   87MOL0     C11909   9.388   5.570   7.861 -0.0669 -0.0480  0.0969
   87MOL0     C11910   9.399   5.609   7.715 -0.0865 -1.0815 -0.9931
   87MOL0     C11911   9.377   5.492   7.623  0.9051 -0.0518  0.8404
   87MOL0     C11912   9.397   5.537   7.476 -0.8574  0.2879 -0.0474
   87MOL0    Cl11913   9.332   5.427   7.352 -0.2363  0.1770  0.0244
   87MOL0     C11914   9.213   5.216   8.303  0.4514 -1.1069 -0.8220
   87MOL0     C11915   9.188   5.092   8.358  0.9717 -0.6484 -0.3675
   87MOL0     O11916   8.998   5.039   8.582  0.3649  0.2576  0.1709
   87MOL0     C11917   9.110   4.740   8.738 -1.0812 -0.5189  0.0764
   87MOL0     C11918   9.076   4.635   8.827  0.2288  0.3964 -0.0222
   87MOL0     N11919   8.954   4.039   9.236  0.0751  0.2074 -0.4425
   87MOL0     N11920   9.035   4.016   9.339 -0.1676  0.2745 -1.1145
   87MOL0     C11921   9.067   3.915  10.407  0.7254 -0.3122 -0.1872
   87MOL0     C11922   9.093   3.912  10.538 -0.7655  0.1796  0.5625
   87MOL0     C11923   8.995   3.782  10.973  0.2806 -0.1732 -0.7885
   87MOL0     C11924   8.949   3.887  11.044  0.2201  0.2975 -0.4694
   87MOL0     C11925   8.968   3.898  11.187 -0.1716 -0.2114 -0.4316
   87MOL0     C11926   9.023   3.790  11.253  0.4834 -0.5423 -0.0955
   87MOL0     O11927   9.046   3.814  11.387  0.7921  0.2025 -1.0020
   87MOL0     C11928   9.024   3.703  11.478 -1.0339 -0.1210 -0.4755
   87MOL0     C11929   8.907   3.749  11.554  0.1519  0.1581  0.1654
   87MOL0     C11930   8.771   3.740  11.475 -0.1794  0.0364 -0.0497
   87MOL0     C11931   8.704   3.593  11.460 -0.0484 -0.0768 -0.3764
   87MOL0     C11932   8.658   3.545  11.589  0.3142  0.0467  0.4328
   87MOL0     C11933   8.604   3.496  11.686 -0.2423 -0.4867 -0.3965
   87MOL0     C11934   9.073   3.681  11.186  0.3530 -0.6557 -0.1437
   87MOL0     C11935   9.052   3.677  11.044 -0.3313 -0.0106 -1.6146
   87MOL0     C11936   9.101   3.558  10.959  0.6959  0.1690 -0.3452
   87MOL0     H11937   8.783   3.831  10.643  2.1488 -0.1828  1.3393
   87MOL0     H11938   8.751   3.817  10.386 -0.0011 -0.9711  1.0647
   87MOL0     H11939   8.778   3.934  10.123 -3.2645 -1.6759 -0.0563
   87MOL0     H11940   8.777   3.768  10.193  0.7071  0.9595  1.8677
   87MOL0     H11941   8.947   3.851   9.962  0.8064  0.3811 -0.2025
   87MOL0     H11942   8.921   3.684  10.015  0.2959 -0.1612  0.2230
   87MOL0     H11943   8.682   3.717   9.955  0.6163  0.7086  0.7853
   87MOL0     H11944   8.714   3.886   9.912 -0.6829  0.5630 -0.3753
   87MOL0     H11945   8.905   3.709   9.773 -0.0080 -1.6507  3.2979
   87MOL0     H11946   8.738   3.645   9.759 -1.8665  1.4846 -2.1613
   87MOL0     H11947   8.642   3.850   9.700 -0.6680 -1.6018 -0.0007
   87MOL0     H11948   8.764   3.799   9.569  0.7564  2.5732 -0.4131
   87MOL0     H11949   8.787   4.034   9.602 -1.5495  0.8143  0.8047
   87MOL0     H11950   8.832   4.004   9.772 -1.1558  1.4619 -1.1869
   87MOL0     H11951   8.973   3.861   9.555 -5.0605 -0.5333 -0.6991
   87MOL0     H11952   9.023   3.918   9.723 -1.5589 -0.0112  1.5508
   87MOL0     H11953   8.998   4.161   9.632 -2.8676 -3.4081  2.9574
   87MOL0     H11954   9.142   4.066   9.591  2.2645  0.4655 -3.0497
   87MOL0     H11955   8.831   4.252   9.456  1.8879 -1.5079  1.9538
   87MOL0     H11956   8.666   4.217   9.274 -1.8583 -4.1757  1.2848
   87MOL0     H11957   8.695   4.088   9.161 -0.2669  1.3602 -1.0821
   87MOL0     H11958   8.856   4.263   9.030 -0.1038  0.3751 -1.3342
   87MOL0     H11959   8.680   4.291   9.028 -0.9763 -1.2221  0.8735
   87MOL0     H11960   8.702   4.451   9.218  0.5779  0.7369  1.4769
   87MOL0     H11961   8.870   4.436   9.215 -0.5990 -1.0962  0.0956
   87MOL0     H11962   8.707   4.516   8.966 -0.3112  0.0515  0.4729
   87MOL0     H11963   8.783   4.630   9.088  0.3073 -2.1845  2.2961
   87MOL0     H11964   8.750   4.700   8.832  0.8934 -2.1264  0.6492
   87MOL0     H11965   8.723   4.904   8.592 -1.6758 -1.3198  0.7186
   87MOL0     H11966   8.776   5.028   8.709 -1.2230 -0.1776  2.7401
   87MOL0     H11967   8.693   4.881   8.759  0.1034  1.2421  0.6156
   87MOL0     H11968   9.375   5.125   8.634 -1.0400  1.4803  0.0336
   87MOL0     H11969   9.438   5.333   8.529 -1.9920  0.9768  2.6584
   87MOL0     H11970   9.407   5.574   8.385  1.7801  0.3829 -0.0292
   87MOL0     H11971   9.516   5.444   8.314 -0.0421 -1.2618 -1.1906
   87MOL0     H11972   9.553   5.670   8.206  2.2776 -2.5351 -0.9198
   87MOL0     H11973   9.529   5.525   8.115  0.2388  0.1447 -0.7712
   87MOL0     H11974   9.326   5.767   8.162 -1.7955 -0.9246  2.1899
   87MOL0     H11975   9.268   5.617   8.130 -0.2334  0.2645 -0.4266
   87MOL0     H11976   9.499   5.744   7.953  1.7271 -1.6060  0.4567
   87MOL0     H11977   9.328   5.770   7.920  1.1230  0.8420 -0.7291
   87MOL0     H11978   9.472   5.501   7.879  1.3048  1.7677  1.0991
   87MOL0     H11979   9.292   5.520   7.877 -1.8031  3.5537  2.3112
   87MOL0     H11980   9.505   5.628   7.699 -0.0330 -1.1899 -0.7751
   87MOL0     H11981   9.332   5.693   7.697 -0.9553 -2.2029 -3.4101
   87MOL0     H11982   9.276   5.450   7.627 -0.1843  1.4991 -3.8398
   87MOL0     H11983   9.443   5.407   7.645 -0.4422 -0.6553  2.8446
   87MOL0     H11984   9.503   5.551   7.450 -1.0764  1.4533 -0.3551
   87MOL0     H11985   9.344   5.632   7.480  1.9021  1.8942  1.5409
   87MOL0     H11986   9.159   5.237   8.211  3.5238  0.2382 -2.4825
   87MOL0     H11987   9.116   5.036   8.299 -1.5219  3.1068 -1.2486
   87MOL0     H11988   9.214   4.751   8.708 -1.3653 -3.0833 -2.2578
   87MOL0     H11989   9.148   4.564   8.866 -0.3098 -2.2386 -3.3798
   87MOL0     H11990   9.136   3.933  10.325 -0.6935  1.8621 -0.9836
   87MOL0     H11991   9.196   3.925  10.570 -1.2948 -1.3023  3.1142
   87MOL0     H11992   8.908   3.971  10.990  2.6506  0.8828 -1.5289
   87MOL0     H11993   8.944   3.992  11.235  0.3183 -1.2215  1.9544
   87MOL0     H11994   8.996   3.609  11.429  2.7352 -0.3371 -2.6059
   87MOL0     H11995   9.108   3.690  11.547 -0.7899  0.6514 -0.6151
   87MOL0     H11996   8.924   3.852  11.588  1.5079 -0.7832  2.6534
   87MOL0     H11997   8.895   3.696  11.649  2.2053 -0.0815  0.3339
   87MOL0     H11998   8.697   3.793  11.536 -0.2178 -1.0740  0.8968
   87MOL0     H11999   8.775   3.799  11.383 -4.8380  3.0936  1.3465
   87MOL0     H12000   8.769   3.516  11.417 -0.9622 -1.5095  0.7302
   87MOL0     H12001   8.625   3.588  11.385 -0.3061 -0.1879 -0.0958
   87MOL0     H12002   8.554   3.434  11.758 -1.5290 -0.6058 -1.3612
   87MOL0     H12003   9.133   3.605  11.236 -0.0819  1.2851  3.6789
   87MOL0     H12004   9.156   3.588  10.869  0.7543  1.3296  0.0685
   87MOL0     H12005   9.167   3.502  11.025 -2.8948 -4.2206  0.0422
   87MOL0     H12006   9.023   3.488  10.927 -1.1167  2.2027 -0.6798
   88MOL0     O12007   7.133   2.695   1.493  0.1790 -0.0090  0.2877
   88MOL0     C12008   7.231   2.623   1.513 -1.0961 -0.7445 -0.0664
   88MOL0     O12009   7.339   2.674   1.586  0.2377  0.2613 -0.2439
   88MOL0     C12010   7.342   2.796   1.641 -0.6730 -1.1289  0.4082
   88MOL0     C12011   7.403   2.800   1.764  0.4598 -0.0383 -0.9254
   88MOL0     C12012   7.413   2.924   1.834 -0.5103 -0.0537 -0.1702
   88MOL0     C12013   7.352   3.041   1.788 -0.0715  0.9022  0.1692
   88MOL0     O12014   7.355   3.152   1.868  0.4940  0.4214  0.4062
   88MOL0     C12015   7.279   3.266   1.839  0.1227 -0.7164  0.2760
   88MOL0     C12016   7.310   3.379   1.947  0.0313 -0.4187  0.1200
   88MOL0     C12017   7.433   3.464   1.918 -0.2739  0.2870 -0.3519
   88MOL0     C12018   7.464   3.544   2.053 -0.2181  0.5822 -0.4015
   88MOL0     C12019   7.571   3.658   2.032 -0.5894  0.3287 -0.5705
   88MOL0     C12020   7.596   3.726   2.159  0.0319 -1.2694 -0.4076
   88MOL0     C12021   7.716   3.830   2.149 -0.6923 -0.7865  0.2796
   88MOL0     C12022   7.742   3.897   2.291 -0.2895 -0.3476  0.0917
   88MOL0     N12023   7.679   4.029   2.304  0.0215  0.6434  0.4901
   88MOL0     C12024   7.546   4.036   2.305 -0.3236  1.1278 -0.3733
   88MOL0     C12025   7.523   4.168   2.299 -0.2134  0.0514  0.7550
   88MOL0     C12026   7.383   4.225   2.311  0.2154  0.1025 -0.0630
   88MOL0     C12027   7.373   4.374   2.316 -0.7046  0.4668  0.9823
   88MOL0     C12028   7.242   4.432   2.362 -0.0035 -1.2647 -0.5282
   88MOL0     C12029   7.255   4.585   2.376  0.1667  0.2659  0.1039
   88MOL0     O12030   7.307   4.636   2.492 -0.0356  0.1138 -0.3598
   88MOL0     C12031   7.214   4.659   2.584  0.2736 -0.3810  0.6307
   88MOL0     C12032   7.164   4.558   2.664 -1.0621 -0.1425  0.0264
   88MOL0     C12033   7.066   4.591   2.760 -0.5715  0.2351  1.0710
   88MOL0     C12034   7.016   4.472   2.833  0.2282 -0.0807  0.2868
   88MOL0     C12035   7.023   4.723   2.778 -0.3812 -0.1004 -0.1843
   88MOL0     C12036   6.930   4.781   2.885  0.1952  0.6602 -0.0128
   88MOL0     O12037   6.916   4.919   2.883  0.5162 -0.3770  0.2363
   88MOL0     C12038   6.785   4.966   2.864  0.8497  0.3647  0.2491
   88MOL0     C12039   6.671   4.888   2.845 -0.0156  0.3688 -1.1893
   88MOL0     C12040   6.554   4.955   2.819  0.4270 -0.1237  0.1095
   88MOL0     C12041   6.549   5.096   2.810 -0.0158 -0.7294  0.1294
   88MOL0     O12042   6.432   5.158   2.783 -0.1255  0.5323 -0.5613
   88MOL0     C12043   6.412   5.206   2.649 -0.6263 -0.5426 -0.9408
   88MOL0     C12044   6.349   5.342   2.636  0.7877  0.4378  0.3460
   88MOL0     C12045   6.421   5.462   2.688  0.0955  0.4742  1.5010
   88MOL0     C12046   6.548   5.502   2.600  0.8407  0.1862 -0.6875
   88MOL0     C12047   6.637   5.591   2.673  0.4403 -0.0826 -0.2960
   88MOL0     C12048   6.603   5.739   2.691  0.2664 -0.0725 -0.1091
   88MOL0     C12049   6.714   5.809   2.775  0.2620 -1.2354 -0.1870
   88MOL0     C12050   6.762   5.934   2.689  0.2865 -0.0330  0.1278
   88MOL0    Cl12051   6.866   6.035   2.777 -0.1237 -0.2602 -0.1646
   88MOL0     C12052   6.663   5.175   2.824  0.1522 -0.0238 -0.8870
   88MOL0     C12053   6.778   5.109   2.854 -0.0410 -0.7237 -0.4524
   88MOL0     O12054   6.867   4.708   2.960  0.3299  0.5972 -0.1593
   88MOL0     C12055   7.069   4.823   2.681 -1.4757  0.4878 -0.8325
   88MOL0     C12056   7.163   4.781   2.598  0.5215  0.0905  0.2331
   88MOL0     N12057   7.633   4.233   2.276 -0.3828  0.0468 -0.5777
   88MOL0     N12058   7.725   4.152   2.286 -0.3528  0.4142 -0.5129
   88MOL0     C12059   7.293   3.035   1.658 -0.0439  0.6412 -1.1221
   88MOL0     C12060   7.287   2.915   1.583 -0.5075 -0.3253  0.0195
   88MOL0     C12061   7.232   2.482   1.477  0.0850  0.5791 -0.4204
   88MOL0     C12062   7.328   2.400   1.537  0.9648  1.5589 -0.1043
   88MOL0     C12063   7.322   2.254   1.535  0.3280  0.4576 -0.0625
   88MOL0     C12064   7.219   2.194   1.471 -0.0297  0.9966 -0.1855
   88MOL0     O12065   7.189   2.061   1.479  0.8081 -1.0828 -0.4967
   88MOL0     C12066   7.278   1.979   1.407  0.1748 -0.5197  0.2309
   88MOL0     C12067   7.240   1.838   1.426 -0.6387  0.0539 -0.2191
   88MOL0     C12068   7.321   1.754   1.317  0.3421  0.6986 -0.2585
   88MOL0     C12069   7.288   1.606   1.328 -0.2355  0.2857  1.0581
   88MOL0     C12070   7.152   1.567   1.285  0.6279  0.0875 -0.6252
   88MOL0     C12071   7.029   1.543   1.259 -0.7090 -0.8969  0.3629
   88MOL0     C12072   7.129   2.269   1.395 -0.2358  0.8596  0.3454
   88MOL0     C12073   7.135   2.414   1.395 -1.3396 -0.1889 -0.4322
   88MOL0     C12074   7.019   2.499   1.339 -0.2282  0.3099  0.7373
   88MOL0     H12075   7.439   2.708   1.810  1.5759  0.7411 -0.1835
   88MOL0     H12076   7.449   2.941   1.935 -0.1017  0.2898 -0.3676
   88MOL0     H12077   7.171   3.250   1.842 -0.0070  0.2076  1.2477
   88MOL0     H12078   7.310   3.311   1.744 -0.0296  0.4624  0.7643
   88MOL0     H12079   7.231   3.454   1.952  2.1397  2.0387 -1.1315
   88MOL0     H12080   7.334   3.336   2.045 -0.9004 -0.6950  0.2350
   88MOL0     H12081   7.510   3.387   1.903  0.9225  0.3977  3.8407
   88MOL0     H12082   7.440   3.521   1.825  1.9588 -0.9607 -1.0407
   88MOL0     H12083   7.372   3.594   2.083 -1.1750 -1.7900  0.7900
   88MOL0     H12084   7.502   3.485   2.136  0.2717  3.2857  1.4378
   88MOL0     H12085   7.540   3.722   1.949  0.7737 -0.7405 -1.9851
   88MOL0     H12086   7.666   3.609   2.009 -0.6451  0.5203 -1.2355
   88MOL0     H12087   7.501   3.778   2.176 -1.0807 -3.3958  0.2252
   88MOL0     H12088   7.613   3.653   2.239 -0.3964 -1.0579 -0.1206
   88MOL0     H12089   7.709   3.909   2.074  0.5667  0.6729  1.6228
   88MOL0     H12090   7.799   3.762   2.129  0.7664  1.2121 -0.8241
   88MOL0     H12091   7.705   3.827   2.366 -0.3357  1.8281  2.2103
   88MOL0     H12092   7.849   3.919   2.304 -0.5867  1.2118  0.1498
   88MOL0     H12093   7.483   3.948   2.311 -0.0848  0.9900  0.2240
   88MOL0     H12094   7.336   4.175   2.396 -0.5639  0.6564 -0.1566
   88MOL0     H12095   7.324   4.192   2.225 -0.3247 -1.0252  0.7188
   88MOL0     H12096   7.449   4.406   2.388  0.8232  3.2848 -1.6420
   88MOL0     H12097   7.391   4.421   2.218 -3.7303  1.1870  0.6820
   88MOL0     H12098   7.170   4.410   2.283 -2.7604 -0.1270  1.4915
   88MOL0     H12099   7.205   4.380   2.451  2.2554 -4.1998 -1.1561
   88MOL0     H12100   7.320   4.619   2.295  2.3720 -0.6084  1.4319
   88MOL0     H12101   7.152   4.618   2.359 -1.3878 -3.0834  1.9176
   88MOL0     H12102   7.201   4.458   2.642  4.4004  1.7188 -0.6332
   88MOL0     H12103   6.909   4.483   2.811  0.2113 -2.6389 -1.4433
   88MOL0     H12104   7.034   4.457   2.940  0.8225  0.0378  0.2052
   88MOL0     H12105   7.041   4.378   2.783 -0.4229 -0.2106  0.1954
   88MOL0     H12106   6.674   4.780   2.852 -2.7766 -0.0081 -3.8872
   88MOL0     H12107   6.459   4.904   2.801  0.2283  0.6921 -1.3230
   88MOL0     H12108   6.507   5.204   2.596  0.8371  0.3129  1.5040
   88MOL0     H12109   6.339   5.142   2.598 -0.2509 -0.9738 -0.9464
   88MOL0     H12110   6.335   5.355   2.528 -1.5692  0.3107  0.5881
   88MOL0     H12111   6.261   5.343   2.701 -3.3077  2.7287 -4.4981
   88MOL0     H12112   6.462   5.435   2.786  2.9481  0.2327  0.3395
   88MOL0     H12113   6.358   5.549   2.709  2.2403  2.2245  1.0547
   88MOL0     H12114   6.527   5.552   2.505  0.6482 -0.5846 -1.0500
   88MOL0     H12115   6.607   5.412   2.581  2.1734  1.6517 -4.5137
   88MOL0     H12116   6.662   5.547   2.770 -0.3088 -0.9841 -0.4982
   88MOL0     H12117   6.734   5.590   2.623  0.8356  1.8637  0.3572
   88MOL0     H12118   6.511   5.742   2.750  0.6298  0.7860  0.4356
   88MOL0     H12119   6.595   5.786   2.592 -4.0788 -0.9801 -0.3949
   88MOL0     H12120   6.807   5.755   2.791  3.5981  3.2423 -2.2052
   88MOL0     H12121   6.669   5.850   2.866 -0.8649  3.8052 -2.6026
   88MOL0     H12122   6.680   6.001   2.661  0.3192  0.3097  0.8412
   88MOL0     H12123   6.817   5.889   2.606  0.4068 -2.7203  1.5357
   88MOL0     H12124   6.649   5.281   2.843  2.8954  0.1719  0.4569
   88MOL0     H12125   6.867   5.172   2.864 -0.2111 -0.0578 -2.5780
   88MOL0     H12126   7.028   4.923   2.680 -3.7767 -0.3610  1.0278
   88MOL0     H12127   7.211   4.860   2.540 -1.4158  1.7552  0.7947
   88MOL0     H12128   7.258   3.127   1.614  1.6799  0.7031 -2.4836
   88MOL0     H12129   7.236   2.910   1.487  0.8143 -2.8051 -0.6418
   88MOL0     H12130   7.408   2.441   1.599  0.2290  0.7472  1.4351
   88MOL0     H12131   7.401   2.192   1.576  0.0494 -1.5904 -2.3599
   88MOL0     H12132   7.271   2.011   1.303  2.4290 -1.4390 -0.2573
   88MOL0     H12133   7.382   1.998   1.435  0.1797 -1.4690  0.9082
   88MOL0     H12134   7.133   1.816   1.411 -0.4688 -2.2737  1.3655
   88MOL0     H12135   7.271   1.823   1.529 -2.0858  0.0594  0.2375
   88MOL0     H12136   7.281   1.791   1.222  1.3493  2.2661 -0.0998
   88MOL0     H12137   7.428   1.773   1.323  0.4907  0.2061 -1.0305
   88MOL0     H12138   7.278   1.582   1.434  0.0072 -1.7564  0.6627
   88MOL0     H12139   7.368   1.542   1.288 -1.2808 -0.7376  0.5640
   88MOL0     H12140   6.927   1.522   1.237 -0.6875 -0.9033  0.2709
   88MOL0     H12141   7.057   2.209   1.340  1.0794 -0.0636 -0.4153
   88MOL0     H12142   7.066   2.575   1.275 -1.7789  0.4965 -0.2158
   88MOL0     H12143   6.953   2.440   1.274 -0.4704  3.2807 -1.9548
   88MOL0     H12144   6.948   2.540   1.410 -1.2443  2.5421 -1.4178
   89MOL0     O12145   4.895   0.405   0.983 -0.2760 -0.5494 -0.0104
   89MOL0     C12146   4.902   0.520   0.950 -0.0247 -0.5326 -0.6385
   89MOL0     O12147   4.796   0.586   0.886 -0.5168  0.3798 -0.3002
   89MOL0     C12148   4.698   0.529   0.811 -0.0830  1.0180 -0.2386
   89MOL0     C12149   4.585   0.471   0.869  0.1596  0.0678  0.0078
   89MOL0     C12150   4.468   0.434   0.803  0.1996  1.0273 -0.3350
   89MOL0     C12151   4.466   0.454   0.658  0.3428 -0.1270  0.2316
   89MOL0     O12152   4.373   0.401   0.569 -0.5856 -0.4772 -0.1685
   89MOL0     C12153   4.344   0.258   0.595 -0.7604  0.1373 -0.3835
   89MOL0     C12154   4.414   0.168   0.488 -0.8196  0.3020  0.2306
   89MOL0     C12155   4.557   0.141   0.528 -0.1024 -0.2183  0.6473
   89MOL0     C12156   4.600   0.018   0.451 -0.3551 -0.0349 -0.3730
   89MOL0     C12157   4.743  -0.026   0.489  0.2604  0.5540 -0.1226
   89MOL0     C12158   4.764  -0.092   0.629  0.4708 -0.3137  0.0429
   89MOL0     C12159   4.686  -0.223   0.632  0.3777  1.2004 -0.0055
   89MOL0     C12160   4.732  -0.315   0.750  0.3676  0.3991  0.0911
   89MOL0     N12161   4.867  -0.361   0.738 -0.2941 -0.8130 -0.2485
   89MOL0     C12162   4.942  -0.390   0.624 -0.5032  0.2816 -0.0944
   89MOL0     C12163   5.063  -0.419   0.676 -1.2297  0.3236 -0.6112
   89MOL0     C12164   5.200  -0.463   0.625 -0.6153  0.0365 -0.3800
   89MOL0     C12165   5.303  -0.352   0.620 -0.7081 -0.2117 -0.6318
   89MOL0     C12166   5.441  -0.399   0.676 -0.8153 -0.4525  0.3845
   89MOL0     C12167   5.564  -0.305   0.637 -0.2770  0.2373  0.1580
   89MOL0     O12168   5.529  -0.165   0.660  0.4625  0.3898  0.4539
   89MOL0     C12169   5.523  -0.061   0.566 -0.8166  0.2575  0.9945
   89MOL0     C12170   5.539  -0.089   0.428  0.9391  0.3048 -0.8619
   89MOL0     C12171   5.572   0.012   0.337 -0.7078 -0.3976 -0.2898
   89MOL0     C12172   5.583  -0.026   0.194 -0.2950 -0.4892  1.0656
   89MOL0     C12173   5.584   0.153   0.382  0.5361  0.9525 -0.0533
   89MOL0     C12174   5.613   0.274   0.301 -0.2199 -0.4038 -0.4611
   89MOL0     O12175   5.656   0.379   0.379 -0.2627  0.1494  0.9518
   89MOL0     C12176   5.612   0.503   0.352 -0.4654  0.1574  0.3469
   89MOL0     C12177   5.512   0.537   0.257  0.4788  0.1422  0.5959
   89MOL0     C12178   5.461   0.661   0.243  0.3915  0.6337  0.1261
   89MOL0     C12179   5.500   0.767   0.322 -0.1955 -0.9098  0.4787
   89MOL0     O12180   5.450   0.899   0.301 -0.4122  0.3293 -0.9497
   89MOL0     C12181   5.483   0.988   0.411  0.1884  0.0171 -1.1293
   89MOL0     C12182   5.416   1.128   0.408  0.3810  1.1592  0.8477
   89MOL0     C12183   5.259   1.118   0.435  0.4306 -1.1437  0.8163
   89MOL0     C12184   5.196   1.260   0.433  0.0886 -0.0494  0.7404
   89MOL0     C12185   5.053   1.265   0.479 -0.9770  0.1440  0.5012
   89MOL0     C12186   5.004   1.407   0.495  0.1164  0.4966 -0.7505
   89MOL0     C12187   4.870   1.402   0.565 -0.7439 -0.3599 -0.3401
   89MOL0     C12188   4.806   1.536   0.599  0.3698  0.6487  0.8566
   89MOL0    Cl12189   4.881   1.603   0.750 -0.2423 -0.0406  0.5038
   89MOL0     C12190   5.605   0.736   0.418  0.0433 -0.5123  0.2955
   89MOL0     C12191   5.661   0.607   0.427  0.9663  0.5162  0.4782
   89MOL0     O12192   5.586   0.276   0.181 -0.4002  0.5158  0.0183
   89MOL0     C12193   5.554   0.173   0.522  0.2041  0.1396  0.3652
   89MOL0     C12194   5.529   0.068   0.608 -0.5163  0.6489  0.2484
   89MOL0     N12195   5.059  -0.418   0.816 -0.0942 -0.1096 -0.7715
   89MOL0     N12196   4.935  -0.389   0.848 -1.2128  0.6529  0.4185
   89MOL0     C12197   4.569   0.516   0.589  0.4566  0.7138  0.2830
   89MOL0     C12198   4.683   0.555   0.671 -0.0685  0.4062 -0.2669
   89MOL0     C12199   5.017   0.592   0.999  0.5183  0.3316 -1.8259
   89MOL0     C12200   5.073   0.679   0.914  0.1568  0.1113 -0.0748
   89MOL0     C12201   5.170   0.763   0.955  0.5076 -0.7147 -0.6016
   89MOL0     C12202   5.226   0.773   1.083  1.1878  0.2871  0.3741
   89MOL0     O12203   5.297   0.876   1.118 -0.2407  0.1823 -0.3042
   89MOL0     C12204   5.307   0.918   1.260  0.1657 -0.3291  0.2742
   89MOL0     C12205   5.371   1.054   1.269  0.4310 -0.1684 -0.5328
   89MOL0     C12206   5.418   1.089   1.410 -0.0482 -0.1706 -0.4403
   89MOL0     C12207   5.547   1.033   1.459 -0.3098 -0.8402  0.1763
   89MOL0     C12208   5.651   1.074   1.361  0.2961 -0.4580 -0.7229
   89MOL0     C12209   5.743   1.105   1.290  0.4089  0.3591  0.0639
   89MOL0     C12210   5.171   0.685   1.172 -0.4621  0.4382  0.0972
   89MOL0     C12211   5.062   0.592   1.134 -1.1116  0.1056 -0.1084
   89MOL0     C12212   5.016   0.500   1.247  0.4317  0.0837  0.7260
   89MOL0     H12213   4.600   0.444   0.973 -0.6934 -1.1030 -0.1493
   89MOL0     H12214   4.393   0.377   0.856  1.0312 -0.8925 -1.1136
   89MOL0     H12215   4.238   0.236   0.585 -0.8430  1.2420 -2.9990
   89MOL0     H12216   4.363   0.223   0.697 -0.6670 -1.7619 -1.0146
   89MOL0     H12217   4.355   0.077   0.476  1.0556 -0.5883 -4.5585
   89MOL0     H12218   4.410   0.234   0.400 -2.4814  3.8813  2.7329
   89MOL0     H12219   4.636   0.216   0.526  2.8302 -3.0323  1.3130
   89MOL0     H12220   4.557   0.106   0.631  0.3747 -2.8464 -0.1663
   89MOL0     H12221   4.517  -0.053   0.463  0.4373 -1.1447 -1.3164
   89MOL0     H12222   4.605   0.040   0.344 -1.1589  0.2136 -0.3675
   89MOL0     H12223   4.805   0.063   0.481 -0.4264  0.8618 -2.9881
   89MOL0     H12224   4.768  -0.099   0.411  0.1475 -2.1830  2.2163
   89MOL0     H12225   4.868  -0.092   0.662 -0.3349  0.8252  2.8555
   89MOL0     H12226   4.721  -0.023   0.702  2.6562  1.1063  0.0966
   89MOL0     H12227   4.711  -0.276   0.540 -0.0113  2.2554 -0.7212
   89MOL0     H12228   4.577  -0.212   0.625  0.1456 -0.9333 -0.5000
   89MOL0     H12229   4.724  -0.262   0.845  1.2771  0.9687 -0.1388
   89MOL0     H12230   4.664  -0.400   0.757  1.4236 -0.3262  2.1638
   89MOL0     H12231   4.927  -0.392   0.517  2.8022 -0.6220 -0.6373
   89MOL0     H12232   5.175  -0.491   0.522 -2.3371  0.6402 -0.1514
   89MOL0     H12233   5.244  -0.537   0.692 -1.8018  1.0745  1.6343
   89MOL0     H12234   5.327  -0.325   0.517  0.2014 -0.1501 -0.4080
   89MOL0     H12235   5.267  -0.265   0.677 -0.4511 -1.7239  2.0391
   89MOL0     H12236   5.448  -0.414   0.784  1.8496 -3.1702 -0.0330
   89MOL0     H12237   5.451  -0.499   0.634 -0.7635 -0.7524  1.1050
   89MOL0     H12238   5.643  -0.329   0.708 -1.4909  1.7268  2.1133
   89MOL0     H12239   5.596  -0.319   0.533  1.0563  0.8899  0.4663
   89MOL0     H12240   5.524  -0.186   0.381  1.2935  0.4699 -1.3223
   89MOL0     H12241   5.511   0.027   0.130 -1.7037 -1.1228  2.0738
   89MOL0     H12242   5.561  -0.132   0.178 -2.7621 -0.7363  4.8004
   89MOL0     H12243   5.684  -0.009   0.157 -1.0238 -0.4334 -1.0133
   89MOL0     H12244   5.464   0.463   0.194  2.4061  1.0351 -2.0805
   89MOL0     H12245   5.377   0.674   0.175 -2.9649 -2.6030  3.1870
   89MOL0     H12246   5.453   0.960   0.513  3.6274 -0.0442  0.0252
   89MOL0     H12247   5.590   1.011   0.403  0.2464 -0.4148 -1.5886
   89MOL0     H12248   5.455   1.194   0.486  2.2117  0.1854  0.8011
   89MOL0     H12249   5.444   1.175   0.314  3.9122 -1.0133  0.6411
   89MOL0     H12250   5.250   1.072   0.534  2.3594 -1.1246  1.0453
   89MOL0     H12251   5.211   1.063   0.354 -1.1784  2.8889 -1.2636
   89MOL0     H12252   5.206   1.308   0.335  3.7371  0.6558  1.3259
   89MOL0     H12253   5.255   1.324   0.499  0.1294 -0.9631  1.6099
   89MOL0     H12254   4.995   1.214   0.401  1.2243 -0.7279 -0.6462
   89MOL0     H12255   5.054   1.212   0.575  2.2241  1.8861  1.5631
   89MOL0     H12256   4.994   1.465   0.403 -1.6466  1.5113  0.0215
   89MOL0     H12257   5.069   1.447   0.573 -1.2642 -2.2428  2.0516
   89MOL0     H12258   4.876   1.345   0.657  0.8970  0.4418  0.0855
   89MOL0     H12259   4.807   1.352   0.490  2.0836  0.5785 -3.6168
   89MOL0     H12260   4.697   1.528   0.603  0.3722 -0.8971 -0.9066
   89MOL0     H12261   4.806   1.609   0.518  0.3213 -1.5886 -1.2692
   89MOL0     H12262   5.660   0.805   0.480 -1.1164  0.1161  0.6547
   89MOL0     H12263   5.738   0.594   0.502  0.1825  0.2142  1.2475
   89MOL0     H12264   5.557   0.275   0.558 -1.6420  0.4178 -0.1249
   89MOL0     H12265   5.513   0.083   0.714  1.1819 -0.8503  0.7535
   89MOL0     H12266   4.575   0.532   0.482  1.5465  3.8928  0.7192
   89MOL0     H12267   4.751   0.612   0.609  0.1923 -2.2053 -2.5613
   89MOL0     H12268   5.041   0.688   0.811 -1.7817  1.0710  0.5578
   89MOL0     H12269   5.227   0.824   0.887  3.3381  1.5158  3.3339
   89MOL0     H12270   5.209   0.910   1.308  0.8549 -1.3195  1.5933
   89MOL0     H12271   5.368   0.842   1.311  0.7779 -1.2740 -1.7304
   89MOL0     H12272   5.286   1.118   1.246  1.2320  1.1955  0.2044
   89MOL0     H12273   5.450   1.077   1.196  1.2553 -0.7958  0.1372
   89MOL0     H12274   5.422   1.198   1.406 -0.0444 -0.1963 -1.7513
   89MOL0     H12275   5.336   1.066   1.479  1.3092  0.8625  1.5871
   89MOL0     H12276   5.536   0.925   1.474 -0.2700 -0.4041  4.9277
   89MOL0     H12277   5.575   1.076   1.556  1.0649  4.1777 -2.1300
   89MOL0     H12278   5.818   1.148   1.226 -0.5377  1.9597 -0.0257
   89MOL0     H12279   5.209   0.679   1.274  0.9219  0.7669 -0.3746
   89MOL0     H12280   4.907   0.502   1.249  0.4432  0.5887  0.7772
   89MOL0     H12281   5.064   0.403   1.228 -1.1741 -0.2520 -2.0180
   89MOL0     H12282   5.042   0.534   1.348 -2.4721  1.5078  1.0916
   90MOL0     O12283  11.519   6.559   4.274 -0.2587 -0.2185 -0.3088
   90MOL0     C12284  11.439   6.627   4.203 -0.3385  0.6014  0.0463
   90MOL0     O12285  11.383   6.750   4.236 -0.4616 -1.2484 -0.1017
   90MOL0     C12286  11.398   6.791   4.373 -0.3742  0.0410  0.0288
   90MOL0     C12287  11.496   6.882   4.401 -0.3035 -0.0807 -0.0017
   90MOL0     C12288  11.507   6.947   4.529 -0.3075 -0.6410  0.9187
   90MOL0     C12289  11.429   6.898   4.636  1.0699  0.5731  0.2371
   90MOL0     O12290  11.408   6.956   4.761  0.2053  0.4441  0.5464
   90MOL0     C12291  11.479   7.077   4.783  0.1243  0.0869 -0.1732
   90MOL0     C12292  11.437   7.132   4.919  0.3329  0.4147 -0.4910
   90MOL0     C12293  11.296   7.179   4.904 -0.5683 -0.6558  0.1252
   90MOL0     C12294  11.260   7.273   5.014  1.1675 -0.2512  0.4717
   90MOL0     C12295  11.152   7.382   4.974 -0.3088  0.5180  0.5645
   90MOL0     C12296  11.015   7.305   4.976  0.7903  0.4667  0.9012
   90MOL0     C12297  10.900   7.393   4.941  0.2362 -0.4254 -0.0993
   90MOL0     C12298  10.912   7.435   4.793  0.6963  0.3149 -0.2634
   90MOL0     N12299  10.839   7.561   4.775 -0.0015 -0.0981 -0.0081
   90MOL0     C12300  10.710   7.589   4.805  0.9538  0.7824  0.0890
   90MOL0     C12301  10.696   7.722   4.800  0.0565 -0.5010  0.6036
   90MOL0     C12302  10.584   7.810   4.842  0.1610  0.3260  0.3358
   90MOL0     C12303  10.474   7.746   4.931  0.6916  0.5659 -0.0059
   90MOL0     C12304  10.506   7.727   5.072 -0.5288 -0.6499 -0.4472
   90MOL0     C12305  10.552   7.852   5.145  0.8967 -0.6060 -0.2743
   90MOL0     O12306  10.556   7.836   5.289 -0.2700 -0.3081 -0.0773
   90MOL0     C12307  10.653   7.760   5.345 -0.5296 -0.2422 -0.3124
   90MOL0     C12308  10.791   7.781   5.317  0.6165  0.1353 -0.0315
   90MOL0     C12309  10.901   7.696   5.367  1.4353  0.1902 -0.3231
   90MOL0     C12310  11.040   7.722   5.310  0.3520  0.2279  0.3674
   90MOL0     C12311  10.866   7.599   5.466 -0.2336 -0.2601  0.0711
   90MOL0     C12312  10.956   7.483   5.504  0.1523  0.4330  0.6230
   90MOL0     O12313  10.974   7.449   5.639 -0.2464  1.3670  0.4081
   90MOL0     C12314  11.031   7.328   5.681  0.8219 -0.1530 -1.7914
   90MOL0     C12315  11.021   7.305   5.820 -0.3960 -0.2335  0.4832
   90MOL0     C12316  11.081   7.197   5.883  0.0450 -0.1303  0.1661
   90MOL0     C12317  11.156   7.095   5.807  0.3509 -0.8024 -0.5000
   90MOL0     O12318  11.221   6.985   5.855 -0.0079  0.6256 -0.8263
   90MOL0     C12319  11.293   7.001   5.981  0.2985 -0.2373 -0.8389
   90MOL0     C12320  11.399   6.889   6.007 -0.2675 -0.2917 -0.4071
   90MOL0     C12321  11.345   6.757   6.065 -0.0706 -0.1072 -0.0863
   90MOL0     C12322  11.274   6.768   6.206  0.4687  0.3871  0.2395
   90MOL0     C12323  11.373   6.808   6.312 -0.3832 -0.9035 -0.1342
   90MOL0     C12324  11.304   6.807   6.447 -0.3124 -0.5458  1.1942
   90MOL0     C12325  11.403   6.829   6.547 -0.7006  0.0722  0.2662
   90MOL0     C12326  11.370   6.782   6.691  0.6137  0.4312 -0.4546
   90MOL0    Cl12327  11.319   6.611   6.696 -0.0037 -0.5892 -0.2091
   90MOL0     C12328  11.154   7.123   5.673 -0.5458 -0.8476  1.0141
   90MOL0     C12329  11.099   7.235   5.608 -0.1819 -0.2519  0.2732
   90MOL0     O12330  11.004   7.423   5.405  0.3824  0.5461  0.0739
   90MOL0     C12331  10.732   7.593   5.513  0.2634 -0.2521 -0.4393
   90MOL0     C12332  10.631   7.677   5.455 -0.4340  0.1436 -0.0453
   90MOL0     N12333  10.818   7.772   4.749 -0.0943 -0.4532  0.3706
   90MOL0     N12334  10.897   7.678   4.730  0.3354 -0.0412 -0.2627
   90MOL0     C12335  11.338   6.790   4.608  0.9166 -0.6760  0.1584
   90MOL0     C12336  11.317   6.742   4.476  0.2287  0.0124  0.3171
   90MOL0     C12337  11.380   6.561   4.073 -0.0401  0.6520 -0.0858
   90MOL0     C12338  11.266   6.623   4.017 -0.1831 -0.1027 -0.7117
   90MOL0     C12339  11.198   6.569   3.911 -0.7480  0.9178 -0.6750
   90MOL0     C12340  11.231   6.441   3.862 -0.2785 -0.0429  0.2172
   90MOL0     O12341  11.145   6.385   3.774  0.6312 -0.8611  0.2542
   90MOL0     C12342  11.142   6.246   3.733  0.2743  0.1274 -1.1752
   90MOL0     C12343  11.050   6.224   3.617  0.7321  0.7535  0.5802
   90MOL0     C12344  10.900   6.259   3.653 -0.2637  0.0242 -0.5447
   90MOL0     C12345  10.797   6.177   3.571 -0.2625  0.7974 -0.1355
   90MOL0     C12346  10.796   6.203   3.425  0.4426 -0.2297 -1.0843
   90MOL0     C12347  10.793   6.266   3.326  0.1990 -0.6466 -0.3098
   90MOL0     C12348  11.345   6.372   3.911 -0.1977 -0.1343 -0.8759
   90MOL0     C12349  11.415   6.426   4.023 -0.6924 -0.1506  0.7019
   90MOL0     C12350  11.538   6.351   4.069  0.0953 -0.3939  0.6732
   90MOL0     H12351  11.555   6.927   4.322 -2.0851  1.7125 -0.3819
   90MOL0     H12352  11.584   7.021   4.551 -0.0792 -0.5393 -0.1817
   90MOL0     H12353  11.461   7.138   4.695  1.4485 -2.0595 -2.0533
   90MOL0     H12354  11.585   7.053   4.797 -0.3819 -2.6503 -0.4650
   90MOL0     H12355  11.446   7.055   4.996  1.6934  2.7972  1.9008
   90MOL0     H12356  11.509   7.213   4.930 -0.1409  0.7770 -0.0222
   90MOL0     H12357  11.290   7.222   4.804  1.6707 -4.2600 -1.8106
   90MOL0     H12358  11.232   7.090   4.906  0.6571 -1.5663  0.7825
   90MOL0     H12359  11.242   7.223   5.109  3.6306  0.2872  1.2932
   90MOL0     H12360  11.348   7.336   5.029  1.8084 -0.4816 -1.8436
   90MOL0     H12361  11.188   7.423   4.879 -0.5225  0.0717  0.2886
   90MOL0     H12362  11.143   7.464   5.046 -1.9742  0.8017  0.0573
   90MOL0     H12363  11.025   7.232   4.895  0.7527  1.9142 -0.4470
   90MOL0     H12364  11.006   7.251   5.071  0.0093 -1.4458 -0.1962
   90MOL0     H12365  10.902   7.479   5.009  0.2827  0.6495 -1.4230
   90MOL0     H12366  10.806   7.341   4.961  0.5555 -0.0832  2.8090
   90MOL0     H12367  11.014   7.439   4.755  0.8144 -0.7496 -0.0769
   90MOL0     H12368  10.871   7.354   4.732  0.3643 -0.6576  1.1981
   90MOL0     H12369  10.632   7.525   4.845  2.3937  0.1166  1.9642
   90MOL0     H12370  10.547   7.841   4.744  0.2893  0.6391  0.3837
   90MOL0     H12371  10.628   7.899   4.886  0.1373 -0.5691  2.2537
   90MOL0     H12372  10.388   7.810   4.910  0.7516  1.3524  1.9520
   90MOL0     H12373  10.441   7.648   4.894  0.4053  1.3313 -1.9074
   90MOL0     H12374  10.425   7.681   5.130 -1.6979  0.3493 -1.2375
   90MOL0     H12375  10.589   7.655   5.082 -0.7390 -0.6917  1.2453
   90MOL0     H12376  10.645   7.883   5.096 -0.1163 -2.3020 -3.5630
   90MOL0     H12377  10.474   7.927   5.127  0.9942 -0.0798  1.3684
   90MOL0     H12378  10.813   7.857   5.242 -0.5753  0.6896  0.1502
   90MOL0     H12379  11.051   7.677   5.211 -2.5430 -2.0605  0.9565
   90MOL0     H12380  11.111   7.669   5.374  1.1653  0.7767 -0.0718
   90MOL0     H12381  11.058   7.830   5.304  1.8821  0.0047  0.4925
   90MOL0     H12382  10.964   7.376   5.879  0.9091  0.5326  0.8727
   90MOL0     H12383  11.068   7.198   5.990  2.0496  1.8393  0.4679
   90MOL0     H12384  11.350   7.093   5.964 -1.2741  0.3057 -3.9168
   90MOL0     H12385  11.219   7.008   6.061  2.1940 -0.6016  1.0336
   90MOL0     H12386  11.444   6.876   5.908 -2.5527  0.8874 -1.6823
   90MOL0     H12387  11.476   6.920   6.078  2.5089 -0.2971 -3.1928
   90MOL0     H12388  11.433   6.695   6.052 -0.0625  0.3556 -2.9015
   90MOL0     H12389  11.276   6.715   5.992  1.6391  0.1700 -1.9537
   90MOL0     H12390  11.233   6.675   6.245 -1.4942  1.5981  1.2123
   90MOL0     H12391  11.206   6.852   6.221  0.2811 -0.2689  3.7784
   90MOL0     H12392  11.464   6.751   6.294  1.2920  2.1541 -2.4221
   90MOL0     H12393  11.395   6.915   6.307  0.5751 -1.0615  0.4170
   90MOL0     H12394  11.264   6.706   6.464 -0.0757 -0.7071  0.8068
   90MOL0     H12395  11.230   6.886   6.465  1.6386  1.3645  1.2002
   90MOL0     H12396  11.434   6.933   6.564 -1.6983  0.8536 -2.2357
   90MOL0     H12397  11.488   6.767   6.518  0.5147  0.4217  2.7764
   90MOL0     H12398  11.290   6.848   6.725 -0.8788 -3.1422  3.9642
   90MOL0     H12399  11.461   6.796   6.750  1.6876 -3.6937 -0.8103
   90MOL0     H12400  11.207   7.054   5.608 -0.2693  0.2197  0.0716
   90MOL0     H12401  11.107   7.240   5.500 -0.4858  0.6404  0.2924
   90MOL0     H12402  10.697   7.520   5.584  0.3105 -0.4106 -0.5786
   90MOL0     H12403  10.528   7.665   5.485 -1.0905 -0.1974 -2.3012
   90MOL0     H12404  11.268   6.754   4.683 -0.4609 -0.8290 -1.1592
   90MOL0     H12405  11.229   6.688   4.440 -0.4483  1.1753  0.1900
   90MOL0     H12406  11.227   6.715   4.059  2.4286  1.1630 -0.8836
   90MOL0     H12407  11.116   6.628   3.873 -2.1588  0.9897  2.1795
   90MOL0     H12408  11.237   6.204   3.699 -0.5237 -1.7622 -1.1519
   90MOL0     H12409  11.110   6.194   3.824 -0.6929  0.4305 -1.3346
   90MOL0     H12410  11.051   6.117   3.592 -2.4797  1.1624 -1.8984
   90MOL0     H12411  11.083   6.290   3.536 -1.0796 -1.4759 -2.2079
   90MOL0     H12412  10.875   6.252   3.760 -3.4315  3.4654 -0.8716
   90MOL0     H12413  10.882   6.364   3.629 -1.7579 -0.4026 -1.4157
   90MOL0     H12414  10.698   6.215   3.596 -1.3901 -1.6817 -0.5887
   90MOL0     H12415  10.791   6.072   3.601 -1.3222  1.6239  3.0480
   90MOL0     H12416  10.775   6.339   3.250 -0.4385 -0.5564 -0.0747
   90MOL0     H12417  11.394   6.287   3.865  0.3389 -1.0112  1.2181
   90MOL0     H12418  11.549   6.253   4.021 -1.8866 -1.9756  3.1595
   90MOL0     H12419  11.624   6.418   4.076 -0.0837 -0.1063  0.1762
   90MOL0     H12420  11.516   6.314   4.170  0.3898 -0.9789  0.5295
   91MOL0     O12421   8.232  11.199  10.221 -0.3473  0.4666 -0.2714
   91MOL0     C12422   8.180  11.142  10.127 -0.4478 -0.6038  0.4210
   91MOL0     O12423   8.251  11.052  10.040 -0.2355 -0.1433  0.2677
   91MOL0     C12424   8.387  11.042  10.053 -1.0119 -0.9369 -0.0030
   91MOL0     C12425   8.466  11.149  10.023 -1.3426 -0.4815 -0.5959
   91MOL0     C12426   8.608  11.136  10.051  0.8414 -0.0246  0.6322
   91MOL0     C12427   8.661  11.019  10.105  0.1289 -0.2209 -0.2483
   91MOL0     O12428   8.793  11.003  10.136  0.2028  0.1048 -0.8164
   91MOL0     C12429   8.856  11.132  10.159 -0.1590 -0.2113  0.4053
   91MOL0     C12430   8.976  11.129  10.264  0.4133  0.4883 -0.4703
   91MOL0     C12431   9.093  11.055  10.197  0.6190  0.3828 -1.0067
   91MOL0     C12432   9.211  11.056  10.298  0.4978 -0.4369 -0.2094
   91MOL0     C12433   9.334  11.010  10.230  0.3249  0.2143  1.2670
   91MOL0     C12434   9.337  10.854  10.241 -0.4076 -0.2746  0.3238
   91MOL0     C12435   9.468  10.789  10.206  0.8072 -0.6029 -0.4797
   91MOL0     C12436   9.583  10.846  10.279 -1.1469  1.6988  0.3996
   91MOL0     N12437   9.711  10.789  10.252  0.8092  0.7130 -0.0704
   91MOL0     C12438   9.776  10.694  10.327 -0.0347  0.4113  0.0674
   91MOL0     C12439   9.885  10.662  10.247 -0.3438  0.2622 -0.6310
   91MOL0     C12440   9.981  10.550  10.260  0.4117  0.2806 -0.0153
   91MOL0     C12441  10.019  10.525  10.403  0.7203  1.0291  0.6932
   91MOL0     C12442  10.077  10.650  10.468  0.2362  0.0652  0.6174
   91MOL0     C12443  10.132  10.610  10.606  0.0129  0.4685 -0.2159
   91MOL0     O12444  10.185  10.720  10.686 -0.2003  0.2256  0.0418
   91MOL0     C12445  10.102  10.812  10.753  0.3069  0.6580  0.1147
   91MOL0     C12446  10.171  10.916  10.819 -0.5460 -0.3515  0.7780
   91MOL0     C12447  10.097  11.015  10.882 -0.7985  0.4855  1.2442
   91MOL0     C12448  10.178  11.117  10.960 -0.2342 -0.6564 -0.6650
   91MOL0     C12449   9.956  11.013  10.886 -0.4129  0.3222  0.5132
   91MOL0     C12450   9.874  11.116  10.950  0.2817 -0.3888  0.7127
   91MOL0     O12451   9.749  11.133  10.886  0.2373 -0.0395 -0.2760
   91MOL0     C12452   9.655  11.196  10.968  0.3230 -0.0228  0.1378
   91MOL0     C12453   9.588  11.146  11.073  0.7239 -0.3883 -0.5570
   91MOL0     C12454   9.492  11.230  11.135  0.1443  0.0733  0.4049
   91MOL0     C12455   9.471  11.363  11.103 -0.3880  0.2365  0.4633
   91MOL0     O12456   9.410  11.441  11.195 -0.2761  0.5550 -0.5540
   91MOL0     C12457   9.315  11.539  11.146  0.2702  0.8631  1.0377
   91MOL0     C12458   9.211  11.456  11.056  0.4245  0.0405 -1.1594
   91MOL0     C12459   9.092  11.533  11.013 -0.3333 -0.6160  0.4222
   91MOL0     C12460   8.982  11.456  10.938 -0.2437  0.2114 -0.0802
   91MOL0     C12461   8.858  11.542  10.912  0.3990 -0.0534  0.1353
   91MOL0     C12462   8.762  11.463  10.812 -0.6496 -0.1222 -0.1360
   91MOL0     C12463   8.621  11.517  10.839 -0.7482 -0.4319  0.3863
   91MOL0     C12464   8.521  11.464  10.739 -1.0118  0.1832 -0.2689
   91MOL0    Cl12465   8.388  11.572  10.757 -0.1147 -0.1866 -0.5279
   91MOL0     C12466   9.548  11.416  10.993  0.3793 -0.1082 -0.2089
   91MOL0     C12467   9.629  11.321  10.926  0.2000  0.0036  0.3144
   91MOL0     O12468   9.897  11.141  11.067 -0.9177  0.5145  0.2216
   91MOL0     C12469   9.894  10.902  10.814  0.6389 -0.8017 -0.0425
   91MOL0     C12470   9.960  10.807  10.737  0.3190  0.0990 -0.2159
   91MOL0     N12471   9.901  10.741  10.134 -0.0990 -0.1571 -0.4451
   91MOL0     N12472   9.790  10.821  10.142 -0.2915 -0.0359 -0.9153
   91MOL0     C12473   8.569  10.920  10.139 -1.0490 -0.4582  0.1076
   91MOL0     C12474   8.431  10.932  10.111 -1.0679  0.6617  0.3971
   91MOL0     C12475   8.040  11.168  10.094 -0.2034  0.7661  0.3356
   91MOL0     C12476   7.992  11.070   9.999  0.3839 -0.0716  0.2042
   91MOL0     C12477   7.862  11.071   9.959 -0.1964  0.4790 -0.0528
   91MOL0     C12478   7.782  11.160  10.019  0.2232  0.9244 -0.1188
   91MOL0     O12479   7.651  11.189   9.963  0.1870  0.1426  0.2990
   91MOL0     C12480   7.537  11.154  10.057 -0.3550  0.5440 -0.8994
   91MOL0     C12481   7.522  11.008  10.116  0.0565  0.0386  0.2003
   91MOL0     C12482   7.484  10.920   9.999  1.2123  0.1768  0.0100
   91MOL0     C12483   7.524  10.778  10.029  0.8028 -0.4731 -0.3496
   91MOL0     C12484   7.662  10.757   9.972  0.0027 -0.3979 -0.3539
   91MOL0     C12485   7.779  10.738   9.950  0.4317  0.5951  0.0850
   91MOL0     C12486   7.828  11.255  10.114  0.0440 -0.4007  1.2445
   91MOL0     C12487   7.958  11.264  10.152 -0.1299 -0.2575  0.2809
   91MOL0     C12488   7.994  11.373  10.241  0.0411 -0.1692 -0.5181
   91MOL0     H12489   8.432  11.235   9.967 -0.2244  0.0277 -0.5240
   91MOL0     H12490   8.675  11.215  10.016  2.3269 -1.1348  0.8863
   91MOL0     H12491   8.794  11.213  10.198  0.7238  1.7209 -1.8896
   91MOL0     H12492   8.897  11.167  10.063 -2.0104 -1.5411 -0.9465
   91MOL0     H12493   8.994  11.232  10.298 -2.4349  1.1366 -0.6140
   91MOL0     H12494   8.939  11.072  10.350  2.1906  1.7274  1.1892
   91MOL0     H12495   9.057  10.955  10.173  0.4895  0.3147 -0.5554
   91MOL0     H12496   9.114  11.098  10.099 -2.1586 -0.5176 -2.0916
   91MOL0     H12497   9.240  11.159  10.319 -0.3056 -0.4975  1.3249
   91MOL0     H12498   9.212  11.002  10.393  0.0677  1.3310  0.8392
   91MOL0     H12499   9.421  11.064  10.269  2.2750 -0.9301 -1.1827
   91MOL0     H12500   9.332  11.026  10.121 -0.7413 -2.3591  0.8278
   91MOL0     H12501   9.316  10.827  10.345  0.5682 -0.5677  0.4535
   91MOL0     H12502   9.258  10.804  10.185 -0.6154 -3.5278  3.1971
   91MOL0     H12503   9.474  10.803  10.098  0.2231 -3.7058 -1.0086
   91MOL0     H12504   9.455  10.682  10.225 -0.9705 -0.1576  1.0992
   91MOL0     H12505   9.604  10.953  10.270 -2.8795  2.2990  2.4587
   91MOL0     H12506   9.557  10.834  10.385 -3.4160  2.3937 -0.0332
   91MOL0     H12507   9.743  10.644  10.418 -0.6133  2.4101  1.0142
   91MOL0     H12508  10.075  10.580  10.212  1.4524 -1.2726  0.9451
   91MOL0     H12509   9.942  10.462  10.208 -0.5584  0.1081  0.9633
   91MOL0     H12510   9.929  10.502  10.461 -1.0043  0.9663 -1.8118
   91MOL0     H12511  10.087  10.440  10.408  3.6404  3.3108  2.9878
   91MOL0     H12512  10.158  10.687  10.405  0.6686 -0.7616  0.6752
   91MOL0     H12513   9.995  10.719  10.489 -0.1436 -0.7656  1.9975
   91MOL0     H12514  10.053  10.559  10.662 -0.8596  1.0546 -0.8904
   91MOL0     H12515  10.207  10.530  10.605 -0.0538  0.1493  4.2316
   91MOL0     H12516  10.280  10.913  10.824  0.2758  4.8084 -4.1286
   91MOL0     H12517  10.164  11.218  10.922  2.0531  1.0242  2.4882
   91MOL0     H12518  10.285  11.095  10.957  0.2304  1.3712 -0.3512
   91MOL0     H12519  10.154  11.116  11.067 -0.8198 -0.2127 -0.7910
   91MOL0     H12520   9.582  11.040  11.094 -2.5541 -0.1139  0.3381
   91MOL0     H12521   9.446  11.191  11.225  0.7342  1.9406  1.5454
   91MOL0     H12522   9.269  11.591  11.230 -2.6263 -2.9428  2.0754
   91MOL0     H12523   9.363  11.613  11.082 -0.7762  0.3150 -0.4420
   91MOL0     H12524   9.267  11.425  10.967  2.1382 -0.9296  0.1884
   91MOL0     H12525   9.179  11.369  11.113  1.6273  0.0612 -0.4058
   91MOL0     H12526   9.125  11.620  10.954 -1.3701 -0.6991 -0.3058
   91MOL0     H12527   9.051  11.581  11.102  1.8137  1.6923  0.2678
   91MOL0     H12528   8.956  11.356  10.973 -0.1648 -0.1352 -0.9876
   91MOL0     H12529   9.019  11.432  10.838  1.1626  2.1252 -0.0859
   91MOL0     H12530   8.811  11.564  11.008  0.7042 -0.8407  0.4705
   91MOL0     H12531   8.879  11.638  10.865  0.3388  0.3820  0.9816
   91MOL0     H12532   8.761  11.358  10.841 -2.8997 -0.1371 -0.0754
   91MOL0     H12533   8.793  11.476  10.708  2.3208 -0.6370  0.6114
   91MOL0     H12534   8.639  11.624  10.825 -0.7869 -0.6866 -2.1441
   91MOL0     H12535   8.591  11.480  10.938 -0.4193  1.1774  1.1143
   91MOL0     H12536   8.507  11.356  10.747 -0.0025  0.0857  0.3911
   91MOL0     H12537   8.561  11.483  10.639 -0.6355  0.0652 -0.1461
   91MOL0     H12538   9.566  11.519  10.964 -1.9669  1.2863  2.7222
   91MOL0     H12539   9.678  11.359  10.837 -3.6054 -1.2974 -2.5789
   91MOL0     H12540   9.786  10.912  10.802  0.1732 -1.1343  3.0042
   91MOL0     H12541   9.903  10.730  10.686  1.3245 -0.1224 -1.0457
   91MOL0     H12542   8.599  10.826  10.185 -0.6891  0.1052  1.0517
   91MOL0     H12543   8.358  10.856  10.135  0.5277 -0.6111  1.4742
   91MOL0     H12544   8.061  10.996   9.959  2.4836 -0.5358  4.1398
   91MOL0     H12545   7.831  11.019   9.870 -0.0592 -0.2127  0.2977
   91MOL0     H12546   7.549  11.226  10.138 -3.5813 -1.8502  2.0129
   91MOL0     H12547   7.443  11.174  10.006  0.1764  2.4186 -1.2169
   91MOL0     H12548   7.445  10.995  10.193 -4.5985 -0.6994 -4.0784
   91MOL0     H12549   7.625  10.986  10.146 -0.1633 -3.5528 -1.1811
   91MOL0     H12550   7.376  10.930   9.984  1.3767 -1.0399 -2.4539
   91MOL0     H12551   7.522  10.965   9.907 -1.0392  4.0374  0.7488
   91MOL0     H12552   7.446  10.714   9.987 -1.4730  0.3614  2.2940
   91MOL0     H12553   7.522  10.755  10.136  0.7118 -3.2421 -0.8551
   91MOL0     H12554   7.882  10.718   9.932  0.1270 -1.2939  0.2186
   91MOL0     H12555   7.754  11.331  10.135  0.4991  0.6111 -0.5530
   91MOL0     H12556   8.084  11.411  10.192  0.6373 -1.6332 -0.6182
   91MOL0     H12557   7.913  11.447  10.243 -0.0814 -0.3109  1.2082
   91MOL0     H12558   8.015  11.323  10.335 -0.1787 -1.9517 -1.3724
   92MOL0     O12559   6.829   6.323   3.190  0.3024 -0.1206  0.0830
   92MOL0     C12560   6.946   6.312   3.233  1.3257  0.0473 -0.0205
   92MOL0     O12561   7.030   6.423   3.256  0.3572  0.1279 -0.1010
   92MOL0     C12562   7.006   6.538   3.190  0.1346  0.1524 -0.8558
   92MOL0     C12563   6.889   6.615   3.212  0.3123  0.4985 -0.6423
   92MOL0     C12564   6.869   6.738   3.146  1.2281  0.2499 -0.3661
   92MOL0     C12565   6.969   6.792   3.062 -0.3994 -0.3182 -0.3401
   92MOL0     O12566   6.960   6.920   3.013 -0.4803 -0.0330 -0.4359
   92MOL0     C12567   7.077   7.000   2.990 -0.1849  1.1080 -1.1892
   92MOL0     C12568   7.048   7.137   3.031  0.4839  0.7201 -0.4152
   92MOL0     C12569   7.134   7.242   2.960 -0.5003 -0.2509 -1.0551
   92MOL0     C12570   7.159   7.366   3.049  0.2017 -0.0603  0.6885
   92MOL0     C12571   7.023   7.448   3.063  0.3740  0.0035  0.0635
   92MOL0     C12572   7.052   7.595   3.032  0.2325 -0.3926  0.9275
   92MOL0     C12573   6.918   7.677   3.009  0.3239 -0.6735 -0.4373
   92MOL0     C12574   6.935   7.834   3.010  0.5619 -0.4607  0.0074
   92MOL0     N12575   7.037   7.888   2.916 -0.1740  0.2900  0.1671
   92MOL0     C12576   7.017   7.917   2.784  0.1287  0.3206 -0.4483
   92MOL0     C12577   7.138   7.963   2.749  0.1393 -0.1309 -0.2462
   92MOL0     C12578   7.197   8.012   2.614  0.0225 -0.4556 -0.3172
   92MOL0     C12579   7.231   7.897   2.513  0.5299 -0.1373 -1.2063
   92MOL0     C12580   7.346   7.816   2.579  0.3977 -0.1867  0.9992
   92MOL0     C12581   7.376   7.675   2.521  0.1536 -1.3079 -0.8934
   92MOL0     O12582   7.278   7.591   2.578 -0.2013  1.1867  1.0916
   92MOL0     C12583   7.339   7.478   2.627 -0.2514 -0.0895  0.1739
   92MOL0     C12584   7.398   7.480   2.753 -0.0190 -0.6368 -0.2237
   92MOL0     C12585   7.466   7.368   2.804  0.4305 -0.0528 -0.5231
   92MOL0     C12586   7.538   7.364   2.942  0.3270  0.1778  0.3581
   92MOL0     C12587   7.467   7.246   2.728  0.6582  0.8407  0.2946
   92MOL0     C12588   7.541   7.116   2.760 -0.5567  0.1112 -0.6410
   92MOL0     O12589   7.560   7.073   2.886  0.4637 -1.2321 -0.2071
   92MOL0     C12590   7.627   6.954   2.917  0.7497 -0.3746  0.3447
   92MOL0     C12591   7.711   6.949   3.020 -0.0162 -0.2691 -0.3465
   92MOL0     C12592   7.797   6.841   3.051  0.4954 -0.5676 -1.0914
   92MOL0     C12593   7.781   6.719   2.992  0.0134  0.4401  0.9765
   92MOL0     O12594   7.852   6.608   3.027 -0.3111  0.2019  0.1797
   92MOL0     C12595   7.920   6.557   2.913 -0.6800  0.3470  0.4648
   92MOL0     C12596   7.990   6.429   2.954 -0.5404  0.4233  0.3156
   92MOL0     C12597   8.076   6.427   3.075 -0.2708  0.1966  0.6329
   92MOL0     C12598   8.209   6.486   3.035  0.7393  0.7762  0.7614
   92MOL0     C12599   8.297   6.497   3.150 -0.3884  1.3404 -0.2285
   92MOL0     C12600   8.249   6.601   3.246 -0.2671  0.3780 -0.5262
   92MOL0     C12601   8.366   6.642   3.347 -0.1796 -0.8024  0.5890
   92MOL0     C12602   8.456   6.531   3.413  0.3011 -0.4940 -0.1832
   92MOL0    Cl12603   8.360   6.414   3.496  0.3298 -0.2863  0.6459
   92MOL0     C12604   7.684   6.718   2.893  0.2071  0.3693  0.5464
   92MOL0     C12605   7.610   6.831   2.858 -0.6173 -0.5081  0.1008
   92MOL0     O12606   7.586   7.055   2.661  0.8756  0.2959  0.5763
   92MOL0     C12607   7.409   7.253   2.604  0.0444  0.1741  0.6819
   92MOL0     C12608   7.353   7.366   2.546 -0.5547  0.6545 -0.4157
   92MOL0     N12609   7.221   7.961   2.864  0.6581  0.2632 -0.4049
   92MOL0     N12610   7.163   7.916   2.966 -0.3015 -0.4633  0.1823
   92MOL0     C12611   7.090   6.713   3.045  0.2747 -0.3793 -0.2038
   92MOL0     C12612   7.103   6.582   3.102  1.1661 -0.5221  0.6364
   92MOL0     C12613   6.996   6.174   3.266 -0.0303 -0.0096 -0.1554
   92MOL0     C12614   7.122   6.175   3.324  0.5106  0.0703 -0.0842
   92MOL0     C12615   7.180   6.053   3.369  0.2967 -0.2230 -0.2368
   92MOL0     C12616   7.120   5.932   3.328 -0.4150  0.8133 -0.4433
   92MOL0     O12617   7.180   5.810   3.367 -0.0995  0.1467  0.6545
   92MOL0     C12618   7.104   5.695   3.358  0.0110  0.3489  0.5322
   92MOL0     C12619   7.179   5.577   3.411  0.3134  0.6989  0.2978
   92MOL0     C12620   7.292   5.528   3.317 -0.9780  0.4826  0.2237
   92MOL0     C12621   7.419   5.612   3.335  0.2229 -0.1686 -0.6132
   92MOL0     C12622   7.531   5.524   3.307 -0.5760 -1.2731 -0.7038
   92MOL0     C12623   7.630   5.459   3.280  0.5394 -0.3649 -0.7004
   92MOL0     C12624   7.001   5.937   3.255  0.6163  0.0535 -0.3279
   92MOL0     C12625   6.937   6.056   3.228 -0.0857  0.2233  0.0794
   92MOL0     C12626   6.807   6.048   3.155  0.1204  0.2031  0.7423
   92MOL0     H12627   6.830   6.587   3.299  1.3449 -0.4097 -0.2178
   92MOL0     H12628   6.779   6.798   3.159  2.0038  1.3484  0.1299
   92MOL0     H12629   7.107   6.991   2.885  0.1338 -0.3789 -1.0046
   92MOL0     H12630   7.168   6.958   3.035 -0.2321 -2.1883 -3.7802
   92MOL0     H12631   6.941   7.157   3.020 -0.3298 -1.8022  1.9662
   92MOL0     H12632   7.061   7.138   3.139  1.5115 -0.1596 -0.5097
   92MOL0     H12633   7.228   7.193   2.933 -2.2324 -4.8365  0.3022
   92MOL0     H12634   7.091   7.258   2.860 -4.4622  1.9463  0.7917
   92MOL0     H12635   7.200   7.331   3.145  1.3457 -2.5288 -0.6011
   92MOL0     H12636   7.236   7.417   2.991  0.8297 -2.0720 -0.3304
   92MOL0     H12637   7.004   7.444   3.171  0.2261  0.1614  0.0426
   92MOL0     H12638   6.943   7.406   3.000 -1.9139  4.0027 -0.0579
   92MOL0     H12639   7.108   7.625   3.121 -0.5085 -1.2057  1.6869
   92MOL0     H12640   7.125   7.610   2.952  0.0064 -3.2960  0.0699
   92MOL0     H12641   6.850   7.652   3.090  1.4726 -1.5134  0.3018
   92MOL0     H12642   6.862   7.634   2.925 -1.2243 -2.7003  1.5312
   92MOL0     H12643   6.842   7.882   2.979 -0.6054 -1.4269  1.8071
   92MOL0     H12644   6.955   7.879   3.108  3.0925 -0.1268 -0.5854
   92MOL0     H12645   6.928   7.905   2.722  2.2667 -1.2530 -3.4859
   92MOL0     H12646   7.289   8.067   2.636 -0.2491 -0.3467  0.6069
   92MOL0     H12647   7.133   8.085   2.562  0.9639 -0.8665 -2.1494
   92MOL0     H12648   7.140   7.838   2.507 -0.1610  0.7482 -0.0317
   92MOL0     H12649   7.254   7.937   2.414 -0.1673 -0.0220 -1.3284
   92MOL0     H12650   7.437   7.874   2.558  0.0770 -0.3376 -0.9326
   92MOL0     H12651   7.347   7.820   2.688  0.2461  2.5093  0.9868
   92MOL0     H12652   7.377   7.684   2.412 -1.8688 -2.0784 -1.0041
   92MOL0     H12653   7.477   7.656   2.559  0.2965  1.6913  0.6265
   92MOL0     H12654   7.388   7.575   2.804 -0.6844  0.0250 -1.5158
   92MOL0     H12655   7.551   7.468   2.972  1.0288  0.8885 -2.1597
   92MOL0     H12656   7.637   7.318   2.936 -0.8408 -2.3263 -2.4344
   92MOL0     H12657   7.480   7.303   3.012  0.1800  0.1727  0.2339
   92MOL0     H12658   7.729   7.039   3.079 -0.6810 -1.3866  1.6294
   92MOL0     H12659   7.868   6.850   3.132  0.8750  1.7159 -1.5945
   92MOL0     H12660   7.854   6.527   2.831 -0.5317 -1.5254  0.9849
   92MOL0     H12661   7.999   6.627   2.883 -0.7622  0.5478  0.7191
   92MOL0     H12662   7.911   6.355   2.967 -0.4071  0.0883 -0.6769
   92MOL0     H12663   8.038   6.386   2.866 -1.1333  1.5616 -0.6031
   92MOL0     H12664   8.085   6.328   3.119 -0.2202  1.1110  2.8248
   92MOL0     H12665   8.035   6.481   3.161 -1.1367 -3.6448  2.8617
   92MOL0     H12666   8.194   6.591   3.007 -1.7088  0.5963  1.1768
   92MOL0     H12667   8.253   6.425   2.956  1.0980  1.5166  0.3733
   92MOL0     H12668   8.290   6.397   3.194 -0.0257  2.3062  2.1361
   92MOL0     H12669   8.400   6.511   3.114 -0.6578  1.7799 -0.8461
   92MOL0     H12670   8.175   6.545   3.304  0.4482 -2.1812 -1.9210
   92MOL0     H12671   8.209   6.694   3.204 -1.7372  2.0617  3.9841
   92MOL0     H12672   8.324   6.703   3.427 -0.5259  2.1158 -1.6750
   92MOL0     H12673   8.436   6.716   3.309  1.0592 -1.7763  0.8838
   92MOL0     H12674   8.531   6.570   3.483 -0.5415  0.5394  0.1624
   92MOL0     H12675   8.515   6.482   3.335  1.7796 -1.3509  1.4036
   92MOL0     H12676   7.661   6.628   2.838  0.2276  0.0088  1.1204
   92MOL0     H12677   7.541   6.819   2.774 -2.0510  2.7997  0.6723
   92MOL0     H12678   7.415   7.174   2.530 -1.6013 -0.5315  1.2380
   92MOL0     H12679   7.304   7.365   2.450 -2.6417 -4.6762  0.3457
   92MOL0     H12680   7.170   6.750   2.981  0.5680  2.6796  1.7315
   92MOL0     H12681   7.196   6.530   3.084  2.1608  1.5044 -0.4574
   92MOL0     H12682   7.173   6.267   3.351  1.9898 -0.4000 -1.1691
   92MOL0     H12683   7.266   6.056   3.435  2.2517  0.9756 -2.6258
   92MOL0     H12684   7.019   5.717   3.423 -0.1752 -0.0573  0.4325
   92MOL0     H12685   7.078   5.674   3.254  0.9736  0.5219  0.2488
   92MOL0     H12686   7.116   5.489   3.427  3.8594 -2.1772 -0.2434
   92MOL0     H12687   7.220   5.605   3.509  1.5969  0.4017 -0.1303
   92MOL0     H12688   7.308   5.424   3.348  0.0236  1.1772  2.1637
   92MOL0     H12689   7.261   5.533   3.212 -0.9187  2.1819  0.2639
   92MOL0     H12690   7.423   5.652   3.437  3.2172  0.1190 -0.7510
   92MOL0     H12691   7.417   5.700   3.270  0.6604 -1.4142 -2.4016
   92MOL0     H12692   7.705   5.400   3.232  0.0700  0.7446 -2.9235
   92MOL0     H12693   6.957   5.843   3.222 -2.2276  0.5073  1.8055
   92MOL0     H12694   6.773   5.948   3.124 -2.0216  0.5177  1.8469
   92MOL0     H12695   6.728   6.088   3.219 -0.7919 -0.0755 -0.1797
   92MOL0     H12696   6.804   6.112   3.067  1.4259  1.8485  1.8431
   93MOL0     O12697   5.181   3.597   4.144  0.3169 -0.0171  0.1135
   93MOL0     C12698   5.255   3.604   4.244  0.1550 -0.1231  0.3663
   93MOL0     O12699   5.388   3.654   4.242  0.3254  0.2159 -0.3638
   93MOL0     C12700   5.426   3.761   4.164  0.4291  0.6609  0.6156
   93MOL0     C12701   5.560   3.782   4.172 -0.4448  0.6812  0.6062
   93MOL0     C12702   5.616   3.895   4.105 -0.5639  0.4767 -0.8411
   93MOL0     C12703   5.538   3.987   4.028 -0.2666  0.6919  0.3547
   93MOL0     O12704   5.590   4.102   3.978 -0.1506 -0.4868  0.4347
   93MOL0     C12705   5.719   4.146   4.015 -0.0553 -0.6466 -0.3293
   93MOL0     C12706   5.748   4.284   3.965 -0.5364 -0.4989 -0.7735
   93MOL0     C12707   5.654   4.354   3.870  0.3168  0.9166  0.8651
   93MOL0     C12708   5.681   4.497   3.848  0.4302  0.2482  0.0081
   93MOL0     C12709   5.596   4.533   3.717  0.5958 -0.2145  0.1869
   93MOL0     C12710   5.610   4.684   3.669  0.1110  0.0817 -0.6213
   93MOL0     C12711   5.514   4.710   3.552  0.5266 -0.1079  0.0733
   93MOL0     C12712   5.526   4.848   3.492 -1.1497 -0.8402 -0.4784
   93MOL0     N12713   5.673   4.881   3.469  0.5309  0.3807 -0.0530
   93MOL0     C12714   5.751   4.828   3.366  1.1633 -0.1630  0.4265
   93MOL0     C12715   5.866   4.898   3.383  0.2353  0.8710  0.7858
   93MOL0     C12716   5.987   4.903   3.283  0.3711  0.2742  0.3723
   93MOL0     C12717   6.121   4.930   3.353 -0.1096  0.8449  0.9381
   93MOL0     C12718   6.242   4.896   3.272 -0.2701  0.3324 -0.2294
   93MOL0     C12719   6.267   4.744   3.269 -0.1247 -0.1853  0.3579
   93MOL0     O12720   6.342   4.710   3.153 -0.2351  0.1829 -0.0764
   93MOL0     C12721   6.422   4.601   3.172  0.3384 -0.5974  0.4760
   93MOL0     C12722   6.384   4.476   3.220  0.3727 -0.0943  0.1760
   93MOL0     C12723   6.479   4.368   3.234 -1.0417  0.0034  0.2782
   93MOL0     C12724   6.427   4.233   3.279  0.6577  0.4012  0.5886
   93MOL0     C12725   6.617   4.391   3.196 -0.3209  0.5081  1.2727
   93MOL0     C12726   6.725   4.295   3.176  0.3780 -1.5633  0.4032
   93MOL0     O12727   6.845   4.345   3.140  0.1778 -0.2651  0.1510
   93MOL0     C12728   6.954   4.259   3.130 -0.4184  0.1542 -0.4922
   93MOL0     C12729   7.051   4.258   3.233  0.0796 -0.5621 -0.2922
   93MOL0     C12730   7.168   4.180   3.229  0.8447 -0.3480 -0.3216
   93MOL0     C12731   7.191   4.101   3.116  1.0927  0.0646  0.7326
   93MOL0     O12732   7.302   4.038   3.116  0.2635  0.3916 -0.0127
   93MOL0     C12733   7.332   3.950   3.006  0.1722  0.3313  0.4654
   93MOL0     C12734   7.472   3.890   3.037 -0.8701  0.1865 -0.0123
   93MOL0     C12735   7.477   3.758   3.110 -1.0447 -0.0437 -0.5858
   93MOL0     C12736   7.440   3.643   3.018  0.2813  0.0818 -0.0199
   93MOL0     C12737   7.382   3.527   3.098 -0.6163  0.2469  0.2613
   93MOL0     C12738   7.383   3.400   3.014 -0.3028  0.2234 -0.7194
   93MOL0     C12739   7.309   3.281   3.074  0.1974 -0.4796  0.7177
   93MOL0     C12740   7.340   3.155   2.991  0.4175 -0.5436 -0.2480
   93MOL0    Cl12741   7.520   3.129   3.001 -0.0059  0.3403 -0.2536
   93MOL0     C12742   7.095   4.098   3.012  1.2126 -0.1569 -0.7478
   93MOL0     C12743   6.977   4.178   3.017 -0.6768 -0.8346 -0.0390
   93MOL0     O12744   6.702   4.177   3.193  0.1295  0.8243 -0.4088
   93MOL0     C12745   6.649   4.522   3.156  0.2527  0.7606 -0.5218
   93MOL0     C12746   6.563   4.623   3.145  1.0064 -0.4063 -0.5419
   93MOL0     N12747   5.872   4.978   3.493 -0.3286  0.6920 -0.5973
   93MOL0     N12748   5.757   4.950   3.555 -0.6153 -0.8862  0.8283
   93MOL0     C12749   5.405   3.962   4.011 -0.1071  0.1147 -0.6944
   93MOL0     C12750   5.349   3.852   4.087 -0.4933  0.3272 -1.1363
   93MOL0     C12751   5.201   3.553   4.378  0.7221 -0.4674  0.0079
   93MOL0     C12752   5.272   3.579   4.492 -0.1478 -0.5766  0.4811
   93MOL0     C12753   5.250   3.536   4.614  0.2680 -0.0507  0.7474
   93MOL0     C12754   5.132   3.461   4.631 -0.5453 -1.7761 -0.4021
   93MOL0     O12755   5.119   3.431   4.762 -0.8864 -0.3996 -0.5679
   93MOL0     C12756   5.046   3.318   4.794  0.5921 -0.5395 -0.4954
   93MOL0     C12757   5.078   3.280   4.934  0.3825  0.5915 -0.1453
   93MOL0     C12758   4.971   3.187   4.991 -0.5140  0.6669 -0.4457
   93MOL0     C12759   4.981   3.177   5.144 -0.7923 -0.4990  0.1083
   93MOL0     C12760   5.096   3.101   5.190  0.2056  0.0679 -0.4278
   93MOL0     C12761   5.193   3.043   5.224 -0.4086  0.1763 -0.6709
   93MOL0     C12762   5.049   3.425   4.529 -0.6459  0.5394  0.2044
   93MOL0     C12763   5.093   3.460   4.396  0.5397  0.3745  0.3419
   93MOL0     C12764   5.029   3.405   4.263 -0.3346  0.1575 -0.2452
   93MOL0     H12765   5.624   3.721   4.236 -0.1783  1.5736  1.2034
   93MOL0     H12766   5.721   3.916   4.121 -1.1470  4.6842 -1.2459
   93MOL0     H12767   5.796   4.079   3.975  0.8258  1.3693 -2.2541
   93MOL0     H12768   5.728   4.155   4.124  2.8026 -0.7703 -0.4615
   93MOL0     H12769   5.764   4.345   4.054  0.7688 -1.0126 -0.6255
   93MOL0     H12770   5.850   4.296   3.929 -0.0855  1.3960  0.9332
   93MOL0     H12771   5.671   4.301   3.776  0.6836  0.8780  0.9539
   93MOL0     H12772   5.549   4.351   3.902 -0.2982  2.8054 -0.7762
   93MOL0     H12773   5.665   4.560   3.936 -1.5010  0.6864 -0.6168
   93MOL0     H12774   5.787   4.498   3.820  0.8667 -4.6453  0.7569
   93MOL0     H12775   5.490   4.510   3.732  1.6079 -4.4645  2.2266
   93MOL0     H12776   5.618   4.463   3.636  0.8049  0.5168 -0.3993
   93MOL0     H12777   5.578   4.742   3.756  2.4076 -0.9648  1.0539
   93MOL0     H12778   5.717   4.704   3.660  0.2886  1.2888  2.6423
   93MOL0     H12779   5.415   4.693   3.596  1.0355  0.1762  1.3646
   93MOL0     H12780   5.546   4.641   3.472  1.0477 -1.5174  1.4453
   93MOL0     H12781   5.460   4.836   3.406 -3.0499  0.8824  0.6363
   93MOL0     H12782   5.486   4.933   3.548 -0.3998 -0.4944 -0.4479
   93MOL0     H12783   5.741   4.764   3.279  4.1393 -0.3191  0.0669
   93MOL0     H12784   5.975   4.986   3.213  1.6448  0.1511 -0.0129
   93MOL0     H12785   5.987   4.819   3.213  0.6645  2.9346 -3.0605
   93MOL0     H12786   6.129   5.032   3.392  0.5867  0.4138  1.9766
   93MOL0     H12787   6.125   4.867   3.443  1.7064 -0.8831 -0.2659
   93MOL0     H12788   6.223   4.948   3.178 -0.0082  4.2404  1.7029
   93MOL0     H12789   6.332   4.930   3.325  0.6999 -2.3500  0.0082
   93MOL0     H12790   6.313   4.714   3.364  0.7157 -0.7522 -0.2161
   93MOL0     H12791   6.166   4.702   3.266 -0.6069  0.9895 -0.5513
   93MOL0     H12792   6.283   4.466   3.259 -0.5453  0.4088 -1.9641
   93MOL0     H12793   6.379   4.188   3.192  1.2733  0.4171  0.2373
   93MOL0     H12794   6.353   4.230   3.360 -1.0366  1.3294 -0.8518
   93MOL0     H12795   6.503   4.159   3.308  1.6627 -0.0401 -2.7818
   93MOL0     H12796   7.045   4.310   3.329 -0.1936 -0.6077 -0.2851
   93MOL0     H12797   7.236   4.198   3.311 -0.8638  1.4828  0.7754
   93MOL0     H12798   7.255   3.880   2.975  1.8592 -1.1754 -0.5103
   93MOL0     H12799   7.338   4.018   2.920 -2.3443  0.7218  0.5173
   93MOL0     H12800   7.526   3.883   2.943 -1.4522 -2.0278 -0.2487
   93MOL0     H12801   7.527   3.963   3.097 -1.6233  2.5324 -2.0284
   93MOL0     H12802   7.410   3.758   3.197 -0.6680 -0.9367 -0.2918
   93MOL0     H12803   7.579   3.752   3.148 -0.2260 -3.6082 -2.9516
   93MOL0     H12804   7.532   3.619   2.963  0.1490  1.6991 -1.0061
   93MOL0     H12805   7.371   3.681   2.942  2.9802  1.3336 -2.0587
   93MOL0     H12806   7.442   3.514   3.189 -0.2774  3.2268  0.5669
   93MOL0     H12807   7.278   3.549   3.125 -1.0761 -0.4492 -0.8718
   93MOL0     H12808   7.486   3.382   2.980 -0.1284  1.3216 -0.8277
   93MOL0     H12809   7.323   3.420   2.924  0.3679  1.0489 -0.9982
   93MOL0     H12810   7.204   3.311   3.074 -0.0428 -1.2849  1.5823
   93MOL0     H12811   7.339   3.256   3.176 -2.6317 -2.4766  1.1716
   93MOL0     H12812   7.302   3.159   2.889 -2.4801  1.3946  0.7551
   93MOL0     H12813   7.294   3.067   3.038 -4.1607 -0.6992 -4.2173
   93MOL0     H12814   7.121   4.034   2.929  0.0438  0.6607 -1.7778
   93MOL0     H12815   6.901   4.189   2.941  1.8233  1.2562 -2.4524
   93MOL0     H12816   6.751   4.546   3.128 -0.2346  1.7454 -1.5325
   93MOL0     H12817   6.597   4.719   3.105  0.0095  1.2934  2.4267
   93MOL0     H12818   5.346   4.038   3.960 -0.7487  1.2043  1.5245
   93MOL0     H12819   5.241   3.838   4.080 -0.6715  0.4184  0.9075
   93MOL0     H12820   5.352   3.652   4.487 -0.2208 -0.5629 -2.2835
   93MOL0     H12821   5.316   3.574   4.691  1.3403  2.1397 -1.1125
   93MOL0     H12822   4.943   3.354   4.786  1.8364  3.0392 -2.8355
   93MOL0     H12823   5.058   3.237   4.721 -2.4524 -0.6070 -1.0725
   93MOL0     H12824   5.101   3.370   4.992  0.2728  0.0209  0.7997
   93MOL0     H12825   5.172   3.224   4.926  0.2991  0.4831 -0.3540
   93MOL0     H12826   4.873   3.233   4.975 -1.7884 -0.7669  2.4632
   93MOL0     H12827   4.979   3.090   4.941 -0.1962  1.6115 -2.3326
   93MOL0     H12828   4.893   3.125   5.182 -0.4380 -2.1514 -1.2336
   93MOL0     H12829   4.980   3.282   5.175  1.2194  0.0348 -1.4214
   93MOL0     H12830   5.274   2.983   5.261 -1.9551 -1.4506  0.1939
   93MOL0     H12831   4.967   3.354   4.530  1.0310 -1.5429 -0.5216
   93MOL0     H12832   5.114   3.379   4.199 -0.0594  2.3332 -0.8315
   93MOL0     H12833   4.978   3.313   4.293  0.0884 -0.4670 -1.3805
   93MOL0     H12834   4.963   3.479   4.217 -0.1837 -0.2110 -1.0853
   94MOL0     O12835  11.081   7.344   2.608  0.5922  0.1175 -0.2495
   94MOL0     C12836  11.146   7.398   2.518  0.5861 -0.1575  0.0508
   94MOL0     O12837  11.285   7.409   2.521 -0.8067  0.7855 -0.4566
   94MOL0     C12838  11.348   7.370   2.634 -1.2582  0.3367  0.4309
   94MOL0     C12839  11.382   7.231   2.636  0.6133  1.2641  0.2362
   94MOL0     C12840  11.454   7.177   2.749  0.0958  0.4637 -0.2423
   94MOL0     C12841  11.503   7.265   2.859 -0.5167  0.8349 -0.0669
   94MOL0     O12842  11.595   7.228   2.959 -0.4598  0.4045 -0.4497
   94MOL0     C12843  11.606   7.092   2.982  0.0526  0.3971 -1.0186
   94MOL0     C12844  11.674   7.076   3.115  0.6593  0.0447  0.2555
   94MOL0     C12845  11.589   7.140   3.226 -0.8385  1.3730  0.2671
   94MOL0     C12846  11.614   7.071   3.363  0.6460  0.6760 -1.1384
   94MOL0     C12847  11.540   7.132   3.481  0.5872  0.2136  0.3631
   94MOL0     C12848  11.565   7.285   3.495 -0.8094  0.0203 -0.4835
   94MOL0     C12849  11.554   7.324   3.641 -0.0676  0.0711 -1.0557
   94MOL0     C12850  11.564   7.471   3.649 -0.2209 -0.2048  1.0369
   94MOL0     N12851  11.561   7.527   3.785 -0.6140  0.2689  0.4749
   94MOL0     C12852  11.450   7.583   3.851  0.1339 -0.1303 -0.8233
   94MOL0     C12853  11.496   7.652   3.962  0.2209 -0.5595 -0.2948
   94MOL0     C12854  11.429   7.720   4.075 -0.3392 -0.7657 -0.4043
   94MOL0     C12855  11.344   7.849   4.040 -0.8253  0.8124 -0.6542
   94MOL0     C12856  11.219   7.821   3.951 -0.8321 -0.7040 -0.4171
   94MOL0     C12857  11.118   7.942   3.959  0.8078 -0.2761 -0.0650
   94MOL0     O12858  11.185   8.051   3.896 -0.8059 -0.6103 -0.1887
   94MOL0     C12859  11.141   8.184   3.897  0.2678  0.7371 -0.1687
   94MOL0     C12860  11.099   8.233   3.777  0.2601 -0.4329 -0.0729
   94MOL0     C12861  11.050   8.365   3.773  0.0263 -0.7253 -0.8176
   94MOL0     C12862  10.995   8.404   3.640  0.0082  0.4305 -0.3730
   94MOL0     C12863  11.045   8.448   3.894  0.5659 -0.2519  0.2570
   94MOL0     C12864  10.985   8.587   3.890  1.0252  1.0329  1.0976
   94MOL0     O12865  10.960   8.648   4.015 -0.7037  0.2732  0.1654
   94MOL0     C12866  10.953   8.782   4.027 -0.3111 -0.9355  0.3553
   94MOL0     C12867  10.860   8.837   4.119 -0.5106 -0.9260  0.4926
   94MOL0     C12868  10.855   8.977   4.140  0.5130 -0.1279  0.3928
   94MOL0     C12869  10.935   9.057   4.064  0.6508  0.8304 -0.3004
   94MOL0     O12870  10.917   9.187   4.106  0.5238  0.0657  0.5110
   94MOL0     C12871  11.028   9.281   4.091  0.6030  1.4060  0.7615
   94MOL0     C12872  11.122   9.246   4.199 -0.4887 -1.2507 -0.1690
   94MOL0     C12873  11.103   9.319   4.329  0.0395 -0.6124 -0.1997
   94MOL0     C12874  10.974   9.271   4.402 -0.6704 -0.2974 -0.4348
   94MOL0     C12875  10.963   9.328   4.543  0.2224  0.7209  0.1225
   94MOL0     C12876  10.847   9.266   4.606  1.0539  0.0749  0.7058
   94MOL0     C12877  10.706   9.299   4.564  0.7543  0.7271  0.2358
   94MOL0     C12878  10.688   9.450   4.547  0.5229 -0.5687  0.5012
   94MOL0    Cl12879  10.754   9.540   4.693 -0.1526  0.2234 -0.2198
   94MOL0     C12880  11.030   9.008   3.973  0.4620 -0.0059  0.4124
   94MOL0     C12881  11.043   8.873   3.951 -0.0970 -0.0931  0.0120
   94MOL0     O12882  10.957   8.638   3.780 -0.6140 -0.0368  0.6365
   94MOL0     C12883  11.102   8.392   4.010  0.6505  0.5309 -0.0467
   94MOL0     C12884  11.145   8.264   4.011 -0.5599  0.0491 -0.9726
   94MOL0     N12885  11.636   7.642   3.956 -0.5790  0.0860  0.3363
   94MOL0     N12886  11.675   7.573   3.856 -0.3079  0.0311 -0.5045
   94MOL0     C12887  11.476   7.402   2.842  0.2595 -0.1106  0.4575
   94MOL0     C12888  11.404   7.455   2.734 -0.2114 -0.5596  0.9289
   94MOL0     C12889  11.078   7.468   2.410  0.1080 -0.3091 -0.0046
   94MOL0     C12890  10.946   7.514   2.429  0.3105 -0.2588  0.1601
   94MOL0     C12891  10.881   7.600   2.331  0.2442  0.0715 -0.6765
   94MOL0     C12892  10.959   7.621   2.217  0.9850 -0.9249  0.4010
   94MOL0     O12893  10.908   7.683   2.099  0.1540  0.1835 -0.1480
   94MOL0     C12894  10.769   7.711   2.089 -0.4041  0.8911  0.5945
   94MOL0     C12895  10.741   7.713   1.933 -0.0659 -1.0076 -0.1599
   94MOL0     C12896  10.599   7.743   1.904 -0.0517  0.0735  0.6460
   94MOL0     C12897  10.509   7.616   1.877  0.5978 -0.2409 -0.2608
   94MOL0     C12898  10.496   7.520   1.979 -0.3512 -0.1729 -0.1343
   94MOL0     C12899  10.494   7.419   2.051  1.0218  0.4939  0.6487
   94MOL0     C12900  11.078   7.567   2.188 -1.0892  0.5524 -0.2280
   94MOL0     C12901  11.144   7.488   2.278 -0.7357  0.1549 -0.0570
   94MOL0     C12902  11.281   7.422   2.238 -0.9279 -1.3095  0.1142
   94MOL0     H12903  11.341   7.174   2.553 -2.4477  1.2646  1.5890
   94MOL0     H12904  11.494   7.076   2.739  1.5951  0.9499  0.4314
   94MOL0     H12905  11.673   7.052   2.905  0.3202  0.4835 -0.8312
   94MOL0     H12906  11.509   7.044   2.997 -0.5866  2.3559  1.9502
   94MOL0     H12907  11.686   6.968   3.128  0.0366 -0.3676 -2.0909
   94MOL0     H12908  11.771   7.126   3.111 -0.2526  1.8049 -1.3921
   94MOL0     H12909  11.601   7.248   3.239 -2.6449  1.2643  3.9456
   94MOL0     H12910  11.482   7.133   3.205 -1.2053  2.3784  1.6669
   94MOL0     H12911  11.584   6.965   3.358 -1.1027  0.9552  1.5346
   94MOL0     H12912  11.721   7.068   3.387  0.1347 -3.6543  1.9354
   94MOL0     H12913  11.590   7.084   3.565  0.4074 -0.3763  0.1391
   94MOL0     H12914  11.433   7.110   3.477  0.8275 -0.8585 -0.7211
   94MOL0     H12915  11.668   7.303   3.464 -1.1180 -0.7555 -2.0645
   94MOL0     H12916  11.491   7.334   3.431 -1.7240  0.6854  1.0164
   94MOL0     H12917  11.627   7.273   3.705 -2.1859 -0.2979  1.1993
   94MOL0     H12918  11.456   7.297   3.681  1.8286 -2.3437  2.5160
   94MOL0     H12919  11.661   7.505   3.612 -1.3515 -0.3102 -2.2939
   94MOL0     H12920  11.493   7.520   3.583 -0.0740 -2.1994 -0.7051
   94MOL0     H12921  11.345   7.573   3.824 -0.3719  1.1959  0.4835
   94MOL0     H12922  11.512   7.750   4.140  1.6761 -1.3218 -2.5780
   94MOL0     H12923  11.359   7.651   4.122 -1.4203 -1.7485 -3.2161
   94MOL0     H12924  11.310   7.903   4.128 -1.1733 -0.3089 -0.0877
   94MOL0     H12925  11.414   7.908   3.979  1.8986 -0.1042  1.4173
   94MOL0     H12926  11.262   7.810   3.851 -0.3678 -0.0126 -0.2997
   94MOL0     H12927  11.174   7.724   3.977  0.4278 -1.5529 -1.3024
   94MOL0     H12928  11.023   7.916   3.910 -1.1594  0.9854  2.7534
   94MOL0     H12929  11.084   7.968   4.060 -3.3013  3.2682 -2.0093
   94MOL0     H12930  11.087   8.159   3.698  0.3730 -0.0815 -0.4228
   94MOL0     H12931  10.886   8.413   3.642 -0.2058 -1.5335 -0.9477
   94MOL0     H12932  11.029   8.335   3.562  1.8403 -1.3461  1.8456
   94MOL0     H12933  11.047   8.492   3.603 -0.6245  1.1699  0.4614
   94MOL0     H12934  10.808   8.765   4.182 -0.7065 -0.2582  1.1122
   94MOL0     H12935  10.802   9.024   4.223 -0.9015 -2.4564  0.8951
   94MOL0     H12936  11.077   9.273   3.993 -2.3460 -0.1451 -0.7238
   94MOL0     H12937  10.994   9.385   4.095 -2.1812  0.6343 -0.5895
   94MOL0     H12938  11.136   9.139   4.216 -0.7562 -0.7945  3.7689
   94MOL0     H12939  11.219   9.278   4.161 -0.3613 -0.7379  0.5646
   94MOL0     H12940  11.109   9.428   4.315  0.2400 -0.3244  1.8037
   94MOL0     H12941  11.190   9.300   4.392  0.5181  0.0079 -0.6581
   94MOL0     H12942  10.983   9.162   4.402  1.1642 -0.2109  1.1466
   94MOL0     H12943  10.883   9.297   4.347 -1.3123  2.5889  1.7480
   94MOL0     H12944  11.055   9.313   4.600  1.5729 -0.0426 -2.1315
   94MOL0     H12945  10.945   9.436   4.533 -0.9747  0.4071 -1.3700
   94MOL0     H12946  10.856   9.288   4.713 -1.7955  0.3628  0.9712
   94MOL0     H12947  10.860   9.157   4.606  3.0185  0.2789  0.2908
   94MOL0     H12948  10.640   9.257   4.640 -0.6117 -0.5666 -1.5832
   94MOL0     H12949  10.677   9.245   4.474 -4.3208  1.3317  1.2195
   94MOL0     H12950  10.583   9.477   4.538  0.3934 -1.2401 -0.0697
   94MOL0     H12951  10.732   9.482   4.452 -0.3105 -1.1656 -0.0986
   94MOL0     H12952  11.099   9.066   3.912  1.3341 -0.8752  0.5456
   94MOL0     H12953  11.127   8.845   3.889  1.9085 -0.1933  2.5740
   94MOL0     H12954  11.098   8.449   4.102  0.3827  2.9072 -1.4450
   94MOL0     H12955  11.183   8.227   4.106 -0.4157  0.4810 -0.8579
   94MOL0     H12956  11.525   7.477   2.903 -2.5900  3.3851 -1.1830
   94MOL0     H12957  11.392   7.563   2.733  0.5447 -0.3919 -2.3544
   94MOL0     H12958  10.907   7.495   2.529 -0.1175 -1.5574 -0.2397
   94MOL0     H12959  10.778   7.634   2.331  0.7813  1.8178 -1.7010
   94MOL0     H12960  10.713   7.627   2.130 -2.6295  0.3729 -3.0657
   94MOL0     H12961  10.735   7.798   2.146 -2.2449 -1.6275  3.6462
   94MOL0     H12962  10.767   7.617   1.888 -0.3180  0.6809 -4.2945
   94MOL0     H12963  10.796   7.796   1.890 -1.3450 -0.2587 -0.4106
   94MOL0     H12964  10.544   7.787   1.988 -2.5656 -1.7101  0.0559
   94MOL0     H12965  10.587   7.803   1.814 -1.7425 -1.8099 -0.4752
   94MOL0     H12966  10.550   7.555   1.796  1.5392 -1.7231  1.2761
   94MOL0     H12967  10.413   7.656   1.843  0.8135 -1.1942 -2.1428
   94MOL0     H12968  10.492   7.337   2.120  1.8992 -2.4670 -2.5715
   94MOL0     H12969  11.118   7.587   2.089 -3.8259  1.0494 -1.3256
   94MOL0     H12970  11.293   7.325   2.288 -1.4264 -2.0632 -1.1841
   94MOL0     H12971  11.295   7.404   2.131  1.3883  0.5371  0.0130
   94MOL0     H12972  11.371   7.485   2.246  0.5670 -3.3432  0.1930
   95MOL0     O12973   8.781   3.457   4.510 -0.3769 -0.4162  0.0093
   95MOL0     C12974   8.813   3.434   4.392 -0.6296 -0.5899  0.4591
   95MOL0     O12975   8.766   3.482   4.282 -0.1286  0.3235  0.8212
   95MOL0     C12976   8.648   3.557   4.275  0.1254  0.2404 -0.1946
   95MOL0     C12977   8.608   3.641   4.386 -0.5303 -0.6792  0.0619
   95MOL0     C12978   8.482   3.704   4.374  0.0245 -0.7839 -0.6897
   95MOL0     C12979   8.408   3.694   4.263  0.6391  0.2876 -0.4990
   95MOL0     O12980   8.296   3.773   4.265 -0.2314  0.0871 -0.0760
   95MOL0     C12981   8.251   3.817   4.139  0.7079 -0.0945 -0.1228
   95MOL0     C12982   8.244   3.973   4.139 -0.5622  0.2787 -0.2406
   95MOL0     C12983   8.157   4.026   4.249 -1.0159  0.2809 -0.4359
   95MOL0     C12984   8.016   3.976   4.246 -0.9546 -0.1914  1.2366
   95MOL0     C12985   7.993   3.841   4.314  0.6706 -0.1222 -0.3938
   95MOL0     C12986   7.839   3.839   4.337 -0.0486 -0.0994 -0.4854
   95MOL0     C12987   7.790   3.699   4.393 -0.1238 -0.5340  0.0194
   95MOL0     C12988   7.782   3.581   4.292  0.0788  0.8999  0.1463
   95MOL0     N12989   7.912   3.523   4.240 -0.7681  0.0703 -0.3547
   95MOL0     C12990   7.985   3.440   4.318 -0.2757 -0.1274 -0.2463
   95MOL0     C12991   8.078   3.387   4.231  0.1389 -0.3125  0.0649
   95MOL0     C12992   8.188   3.292   4.272  0.1114 -0.8240  0.0824
   95MOL0     C12993   8.281   3.344   4.388 -0.9662  0.0590 -0.0660
   95MOL0     C12994   8.380   3.228   4.422 -0.0586 -0.3823 -1.0127
   95MOL0     C12995   8.415   3.230   4.569  1.0142 -0.1659 -0.6407
   95MOL0     O12996   8.300   3.196   4.648  0.7178  0.1854 -0.0940
   95MOL0     C12997   8.298   3.170   4.783 -0.2864 -0.1283  0.4394
   95MOL0     C12998   8.179   3.118   4.831  0.6165 -0.2736 -0.6237
   95MOL0     C12999   8.169   3.102   4.977  0.2296 -0.5289  0.7192
   95MOL0     C13000   8.024   3.061   5.011  0.0645  0.0259 -0.6872
   95MOL0     C13001   8.278   3.122   5.064 -0.1352 -0.0823  0.0865
   95MOL0     C13002   8.286   3.103   5.211 -0.4397 -0.2539  0.6519
   95MOL0     O13003   8.402   3.113   5.279 -0.4961  0.0022  0.1984
   95MOL0     C13004   8.398   3.083   5.409  0.1135  0.0947 -0.2779
   95MOL0     C13005   8.469   3.174   5.494 -0.3131  0.3273  0.4155
   95MOL0     C13006   8.487   3.142   5.628 -0.3678 -0.1720 -0.5205
   95MOL0     C13007   8.435   3.026   5.684  0.1857 -0.4877  0.5322
   95MOL0     O13008   8.465   3.018   5.818  0.2424  0.0373 -0.1149
   95MOL0     C13009   8.367   2.952   5.899 -0.0817  0.6921  0.3998
   95MOL0     C13010   8.321   3.053   6.002  0.6632 -0.2649 -0.8947
   95MOL0     C13011   8.439   3.126   6.078  0.1127 -0.4545 -0.3718
   95MOL0     C13012   8.403   3.270   6.112 -0.5271 -0.1872 -0.2584
   95MOL0     C13013   8.524   3.335   6.189 -0.2608  0.2431  0.3418
   95MOL0     C13014   8.500   3.481   6.212 -1.7806 -1.0622  0.3554
   95MOL0     C13015   8.635   3.559   6.259  0.4871 -0.2228  0.6348
   95MOL0     C13016   8.636   3.712   6.226  1.0572 -0.2605  1.0226
   95MOL0    Cl13017   8.599   3.748   6.057  0.2398  0.0515 -0.1265
   95MOL0     C13018   8.368   2.936   5.607 -0.3210 -0.3830  1.0059
   95MOL0     C13019   8.344   2.965   5.467 -0.2413 -0.6405  0.0172
   95MOL0     O13020   8.180   3.069   5.261 -0.0989 -0.2552 -0.6235
   95MOL0     C13021   8.396   3.169   5.005 -1.1733 -0.8573  0.3645
   95MOL0     C13022   8.404   3.187   4.868 -0.9843 -0.1195  0.2701
   95MOL0     N13023   8.053   3.443   4.107 -0.3950  0.1632 -0.4321
   95MOL0     N13024   7.960   3.540   4.113 -0.0638  0.1190 -1.2774
   95MOL0     C13025   8.449   3.613   4.160  0.3072  0.0933 -0.1166
   95MOL0     C13026   8.566   3.541   4.164  0.5439  0.0890  0.4674
   95MOL0     C13027   8.930   3.342   4.372  0.7498 -0.4005  0.6565
   95MOL0     C13028   8.918   3.249   4.272  0.3246  0.1093  0.8048
   95MOL0     C13029   9.016   3.153   4.259  0.4879  0.0181  0.3159
   95MOL0     C13030   9.124   3.141   4.345  0.1758  0.1564 -0.5404
   95MOL0     O13031   9.199   3.026   4.358 -0.4384  0.0839 -0.5636
   95MOL0     C13032   9.170   2.910   4.280  1.3777  0.7415 -0.4130
   95MOL0     C13033   9.253   2.783   4.317  0.6391  0.0925 -0.3436
   95MOL0     C13034   9.394   2.805   4.259  0.0082 -0.6176 -0.7852
   95MOL0     C13035   9.505   2.710   4.318 -0.0849  0.4979 -0.6647
   95MOL0     C13036   9.547   2.746   4.456  0.0595  0.2203  0.2167
   95MOL0     C13037   9.599   2.748   4.564 -0.4717 -0.6121 -0.5812
   95MOL0     C13038   9.136   3.233   4.447 -0.2569  0.4856  1.0496
   95MOL0     C13039   9.047   3.335   4.455  0.9104 -0.2552 -0.7275
   95MOL0     C13040   9.056   3.430   4.570  0.4411 -0.1042 -0.4815
   95MOL0     H13041   8.667   3.656   4.475 -0.0724 -0.5616 -0.2590
   95MOL0     H13042   8.451   3.769   4.456 -4.7440  0.1253 -2.8261
   95MOL0     H13043   8.151   3.783   4.114  0.3230 -1.0663  2.4163
   95MOL0     H13044   8.316   3.784   4.057  0.5870 -1.8188  0.4328
   95MOL0     H13045   8.347   4.009   4.150 -1.4309  2.9425 -0.2834
   95MOL0     H13046   8.210   4.015   4.044 -1.3377 -1.7392 -0.9157
   95MOL0     H13047   8.196   4.009   4.350 -0.5722 -0.6738 -0.7527
   95MOL0     H13048   8.160   4.135   4.236  1.6592 -0.0783 -4.7932
   95MOL0     H13049   7.956   4.052   4.298  0.1951  0.3095  1.8634
   95MOL0     H13050   7.981   3.972   4.143 -2.7572  0.7462  1.7508
   95MOL0     H13051   8.058   3.835   4.401  0.4223  2.1075  0.0163
   95MOL0     H13052   8.009   3.759   4.243  0.7386  1.1678 -1.9482
   95MOL0     H13053   7.828   3.915   4.415  0.7920 -1.0831  0.6288
   95MOL0     H13054   7.781   3.881   4.254 -0.8984  1.2006  0.7204
   95MOL0     H13055   7.684   3.719   4.413  0.1209  1.3909 -0.4297
   95MOL0     H13056   7.836   3.670   4.488 -0.5242  2.9425  1.4332
   95MOL0     H13057   7.730   3.494   4.332  2.2418  0.2808  1.8327
   95MOL0     H13058   7.729   3.614   4.202 -1.2513 -2.0618 -0.2713
   95MOL0     H13059   7.974   3.431   4.425 -2.8188  0.2687 -0.3962
   95MOL0     H13060   8.245   3.280   4.180 -1.9784 -1.5655 -1.1669
   95MOL0     H13061   8.150   3.193   4.297  0.8513 -1.0631  0.3035
   95MOL0     H13062   8.348   3.420   4.347  1.5076 -2.0315 -0.1281
   95MOL0     H13063   8.225   3.376   4.476  0.9410 -0.0021  1.2422
   95MOL0     H13064   8.343   3.126   4.415  0.6939 -0.6895 -0.6486
   95MOL0     H13065   8.474   3.240   4.367 -0.6569 -2.3099 -2.5803
   95MOL0     H13066   8.488   3.152   4.594  0.7624 -0.5996 -1.2445
   95MOL0     H13067   8.460   3.328   4.587 -1.5870  1.0404 -0.2616
   95MOL0     H13068   8.103   3.089   4.760 -3.1993  1.7808  2.2129
   95MOL0     H13069   7.960   3.050   4.923 -2.0783 -2.3827  1.0229
   95MOL0     H13070   7.986   3.132   5.085  1.7722  1.3267 -0.9838
   95MOL0     H13071   8.028   2.963   5.060  2.4346  1.2228  1.7982
   95MOL0     H13072   8.499   3.256   5.430  1.1904 -1.6455 -1.5666
   95MOL0     H13073   8.542   3.212   5.692 -2.1197 -0.0017  0.8640
   95MOL0     H13074   8.278   2.911   5.851 -0.5380 -0.1904  1.9362
   95MOL0     H13075   8.425   2.867   5.936  0.7470  0.1310 -1.9902
   95MOL0     H13076   8.259   3.134   5.964  0.3523  1.3335  2.7111
   95MOL0     H13077   8.258   2.995   6.069  0.9814  0.2463 -0.1398
   95MOL0     H13078   8.530   3.126   6.017 -0.9970  3.5383 -2.3940
   95MOL0     H13079   8.461   3.071   6.170  1.4845  0.9816  0.1924
   95MOL0     H13080   8.314   3.271   6.174 -0.2837 -1.5021  0.1450
   95MOL0     H13081   8.383   3.322   6.017 -1.5419 -5.7140 -3.5103
   95MOL0     H13082   8.544   3.278   6.280 -0.8504 -2.1977 -0.9527
   95MOL0     H13083   8.621   3.323   6.139 -0.1969  1.9221  0.0090
   95MOL0     H13084   8.433   3.500   6.297  1.1260 -0.9091  2.7655
   95MOL0     H13085   8.475   3.523   6.115  3.6060 -2.8951 -2.2415
   95MOL0     H13086   8.713   3.513   6.198 -0.3346 -0.3254 -0.3521
   95MOL0     H13087   8.662   3.541   6.364 -0.0419  1.4600  1.0882
   95MOL0     H13088   8.735   3.754   6.248  0.3307  2.3672 -0.3285
   95MOL0     H13089   8.555   3.762   6.279 -0.7781 -0.6875 -1.2053
   95MOL0     H13090   8.322   2.851   5.657 -3.3776 -1.1755 -2.7343
   95MOL0     H13091   8.279   2.904   5.404 -2.2080 -0.6479  1.9105
   95MOL0     H13092   8.494   3.184   5.051  0.0540 -1.0068 -2.0204
   95MOL0     H13093   8.500   3.216   4.826 -0.4724  1.1906  2.2131
   95MOL0     H13094   8.386   3.596   4.073  1.0216  2.7892 -1.2849
   95MOL0     H13095   8.592   3.464   4.092 -3.2424 -1.4952  0.5792
   95MOL0     H13096   8.833   3.252   4.205  1.7371  3.3163 -1.0349
   95MOL0     H13097   8.994   3.071   4.191 -0.3257  0.1582  0.4074
   95MOL0     H13098   9.067   2.881   4.304  2.3337 -0.2917  3.0524
   95MOL0     H13099   9.184   2.917   4.172  0.6313 -0.8696 -0.6579
   95MOL0     H13100   9.207   2.694   4.273  0.0517 -0.0620  0.5660
   95MOL0     H13101   9.246   2.775   4.425 -1.0606 -0.3113 -0.4598
   95MOL0     H13102   9.396   2.811   4.150 -0.6890  0.4608 -0.7500
   95MOL0     H13103   9.426   2.907   4.281  1.9946 -1.1645 -0.9318
   95MOL0     H13104   9.596   2.722   4.258 -1.5226 -0.7812 -3.3099
   95MOL0     H13105   9.470   2.607   4.307  2.8636 -0.8016  1.0397
   95MOL0     H13106   9.632   2.754   4.666 -1.2517  1.5892 -0.4114
   95MOL0     H13107   9.196   3.208   4.534  1.0951  2.2896  0.6702
   95MOL0     H13108   9.019   3.530   4.547 -2.0641 -0.4546  1.6864
   95MOL0     H13109   9.010   3.393   4.662  0.0266 -1.1932 -1.1046
   95MOL0     H13110   9.163   3.454   4.580 -0.2625  3.7560 -0.7706
   96MOL0     O13111  10.739   0.242   5.517 -0.2592  0.5123 -0.5148
   96MOL0     C13112  10.651   0.250   5.434 -0.3722  0.2110  0.9183
   96MOL0     O13113  10.677   0.256   5.294  0.5369  0.3569  0.1029
   96MOL0     C13114  10.810   0.229   5.255 -0.0324 -0.4734  0.0812
   96MOL0     C13115  10.851   0.321   5.161  0.1654 -0.9211  0.9472
   96MOL0     C13116  10.983   0.307   5.106 -0.7294  0.6006 -0.1551
   96MOL0     C13117  11.069   0.200   5.133  0.4837 -0.7987  0.9013
   96MOL0     O13118  11.192   0.181   5.073 -0.3836  0.3882 -0.6275
   96MOL0     C13119  11.233   0.059   5.013 -0.5370  0.3565 -0.6646
   96MOL0     C13120  11.381   0.081   4.974 -0.0355  0.2079 -0.4970
   96MOL0     C13121  11.472   0.053   5.099 -0.6719 -1.1739  1.5073
   96MOL0     C13122  11.458   0.163   5.206 -0.1884 -0.4845 -0.7527
   96MOL0     C13123  11.553   0.144   5.324 -1.2802  0.1034 -0.5943
   96MOL0     C13124  11.682   0.219   5.305 -0.5821 -0.0421  0.1449
   96MOL0     C13125  11.778   0.203   5.433  0.0955  0.8449  0.5109
   96MOL0     C13126  11.925   0.234   5.403  0.0785 -0.3397  0.3420
   96MOL0     N13127  12.029   0.219   5.507 -0.5266  0.0878  0.7412
   96MOL0     C13128  12.145   0.292   5.510  0.2997 -0.1002  0.4926
   96MOL0     C13129  12.216   0.227   5.611  0.4298 -0.4926  0.3289
   96MOL0     C13130  12.350   0.270   5.656 -0.2321 -0.6815  0.2914
   96MOL0     C13131  12.351   0.342   5.789  0.1089 -0.3134 -0.0902
   96MOL0     C13132  12.354   0.489   5.759  0.4173  0.0362 -0.3317
   96MOL0     C13133  12.365   0.554   5.899  1.5079 -0.5805  0.2274
   96MOL0     O13134  12.246   0.546   5.975 -0.6750 -0.4470 -0.5510
   96MOL0     C13135  12.213   0.647   6.051 -0.5749  0.5131 -1.1047
   96MOL0     C13136  12.276   0.781   6.057  0.5249 -0.5203  0.7953
   96MOL0     C13137  12.241   0.869   6.155  0.7363  0.0151 -0.1299
   96MOL0     C13138  12.304   0.998   6.165 -0.4851  0.7626 -0.2243
   96MOL0     C13139  12.140   0.830   6.245 -0.2759 -0.4293 -0.6952
   96MOL0     C13140  12.125   0.915   6.366  0.1605  0.4537  1.6717
   96MOL0     O13141  12.243   0.945   6.432  0.0878 -0.0263  0.6330
   96MOL0     C13142  12.248   1.045   6.522 -0.2600 -0.4663 -0.3401
   96MOL0     C13143  12.194   1.175   6.508  0.2127  0.5171  0.5369
   96MOL0     C13144  12.204   1.280   6.596  0.6602  0.3000 -0.4322
   96MOL0     C13145  12.268   1.251   6.718 -0.7182 -0.5754 -0.8083
   96MOL0     O13146  12.283   1.344   6.819 -0.8824 -0.2644  0.2739
   96MOL0     C13147  12.170   1.428   6.860 -0.4594 -1.2065  0.0450
   96MOL0     C13148  12.191   1.578   6.824 -0.0409 -0.3763 -0.8521
   96MOL0     C13149  12.319   1.640   6.896 -0.0929  0.5259 -0.5774
   96MOL0     C13150  12.365   1.750   6.807 -0.3285 -0.5224  0.2363
   96MOL0     C13151  12.484   1.836   6.854  0.8284 -0.4249  0.1565
   96MOL0     C13152  12.458   1.932   6.975 -0.0889  0.1339 -0.2751
   96MOL0     C13153  12.586   2.014   7.026 -0.9251  0.2226  0.9450
   96MOL0     C13154  12.583   2.043   7.180 -0.6895 -0.9020  1.3748
   96MOL0    Cl13155  12.433   2.135   7.204 -0.6670 -0.1204 -0.1845
   96MOL0     C13156  12.307   1.121   6.741 -0.3431 -1.0407 -0.8265
   96MOL0     C13157  12.295   1.020   6.653 -0.3937 -0.0770 -0.2601
   96MOL0     O13158  12.012   0.956   6.395 -0.0154  0.7319  0.6264
   96MOL0     C13159  12.069   0.708   6.234 -0.0247 -0.1797  0.8660
   96MOL0     C13160  12.111   0.619   6.134 -0.5729  0.6282 -0.6513
   96MOL0     N13161  12.147   0.126   5.666  0.4173  1.0440 -0.0112
   96MOL0     N13162  12.032   0.120   5.601  0.6405 -0.0701 -0.7399
   96MOL0     C13163  11.011   0.114   5.231 -0.4525  1.0462  0.2196
   96MOL0     C13164  10.884   0.117   5.290  1.1232 -0.3775 -0.2338
   96MOL0     C13165  10.513   0.269   5.495  0.6456  0.1309  1.0902
   96MOL0     C13166  10.489   0.219   5.625  0.0375 -0.1424  0.9900
   96MOL0     C13167  10.375   0.246   5.699  0.3229 -0.1330  0.0925
   96MOL0     C13168  10.265   0.312   5.637 -0.1349  0.0412 -0.5553
   96MOL0     O13169  10.137   0.325   5.692 -0.2169 -0.4035  0.0456
   96MOL0     C13170  10.128   0.331   5.837 -0.3662 -0.5067  1.2488
   96MOL0     C13171  10.189   0.453   5.891 -0.2344  0.7484  0.3327
   96MOL0     C13172  10.115   0.575   5.839 -0.5667 -0.2143  0.2672
   96MOL0     C13173  10.167   0.708   5.905  0.6146  1.4146  0.2374
   96MOL0     C13174  10.089   0.822   5.852 -0.1765  0.8072 -0.3640
   96MOL0     C13175  10.032   0.919   5.809  0.6751  0.3291 -0.0541
   96MOL0     C13176  10.279   0.352   5.507 -0.9430  0.3893 -0.1031
   96MOL0     C13177  10.398   0.339   5.434 -1.3580  0.8108 -0.0318
   96MOL0     C13178  10.393   0.359   5.282 -0.1259 -0.3226 -0.2720
   96MOL0     H13179  10.786   0.396   5.116  1.7291  1.6554  2.6684
   96MOL0     H13180  11.024   0.375   5.032 -1.0385  2.4156  1.2575
   96MOL0     H13181  11.168   0.057   4.925  0.8855  0.6816 -1.7609
   96MOL0     H13182  11.227  -0.030   5.075 -0.0679  1.2509  0.7053
   96MOL0     H13183  11.410   0.010   4.896  0.9041  0.3192 -0.2673
   96MOL0     H13184  11.410   0.175   4.928  1.7919 -1.5184 -3.1929
   96MOL0     H13185  11.458  -0.047   5.142  0.8163 -2.1887 -0.1759
   96MOL0     H13186  11.576   0.047   5.064  0.7302  1.1882  4.7593
   96MOL0     H13187  11.480   0.257   5.154  5.9059 -2.1500 -1.9955
   96MOL0     H13188  11.351   0.160   5.230 -0.6930 -2.6281 -2.8415
   96MOL0     H13189  11.572   0.041   5.356 -2.2639  0.9240  3.1198
   96MOL0     H13190  11.503   0.190   5.410  0.4204  3.2659 -1.1706
   96MOL0     H13191  11.730   0.191   5.211  4.4793 -0.8555  2.6155
   96MOL0     H13192  11.673   0.328   5.311  0.8472  0.0781  0.5502
   96MOL0     H13193  11.777   0.095   5.448  2.1472  0.2380 -2.6191
   96MOL0     H13194  11.738   0.267   5.512 -2.8849 -0.3538  0.0815
   96MOL0     H13195  11.951   0.184   5.310 -1.6195  2.2811 -1.6936
   96MOL0     H13196  11.944   0.338   5.376  2.3351 -0.7978  0.0005
   96MOL0     H13197  12.157   0.378   5.444  1.9105 -0.4123  0.3473
   96MOL0     H13198  12.387   0.329   5.571 -3.0349  0.7176 -0.0692
   96MOL0     H13199  12.413   0.182   5.669  1.5928  0.7150  1.3688
   96MOL0     H13200  12.268   0.315   5.855 -0.6273  0.3261 -0.7373
   96MOL0     H13201  12.442   0.317   5.846 -0.7602  2.1827  2.6970
   96MOL0     H13202  12.441   0.507   5.694  1.4766  2.2589  1.5445
   96MOL0     H13203  12.270   0.529   5.702 -0.2538 -1.1894 -0.2410
   96MOL0     H13204  12.447   0.500   5.949  1.1905 -1.3196 -0.0279
   96MOL0     H13205  12.409   0.651   5.877 -0.8574  0.6086  0.4789
   96MOL0     H13206  12.354   0.822   5.994 -1.4136  0.3770 -1.1503
   96MOL0     H13207  12.397   0.990   6.223 -0.4922 -2.0163 -0.4688
   96MOL0     H13208  12.227   1.064   6.205 -0.9866  1.0752 -1.6407
   96MOL0     H13209  12.333   1.041   6.068 -0.8116  0.6040 -0.3953
   96MOL0     H13210  12.146   1.195   6.413 -3.1158  0.6049  2.0945
   96MOL0     H13211  12.165   1.380   6.582 -2.3952 -0.6024  0.7860
   96MOL0     H13212  12.087   1.391   6.799 -2.2525 -0.6777  2.0352
   96MOL0     H13213  12.157   1.397   6.964 -1.3095 -1.7454 -0.2042
   96MOL0     H13214  12.191   1.578   6.714 -1.4960 -0.2173 -0.8788
   96MOL0     H13215  12.101   1.634   6.852  0.0518 -0.2079 -0.8894
   96MOL0     H13216  12.403   1.571   6.898  0.7643  1.4992  3.0040
   96MOL0     H13217  12.298   1.670   6.999  0.0296  0.4957 -0.5435
   96MOL0     H13218  12.280   1.811   6.778 -1.2583  0.4620  4.3447
   96MOL0     H13219  12.395   1.695   6.718 -3.0736 -1.7931  0.0033
   96MOL0     H13220  12.554   1.759   6.888  0.2263 -1.2048 -0.3350
   96MOL0     H13221  12.531   1.896   6.776 -2.6541 -0.0312 -1.8277
   96MOL0     H13222  12.413   1.886   7.063 -0.4007  2.3661  0.8240
   96MOL0     H13223  12.389   2.010   6.942 -2.3784 -1.4145  0.6542
   96MOL0     H13224  12.602   2.098   6.958 -0.2884  0.5942  1.5322
   96MOL0     H13225  12.672   1.949   7.003  1.7910  2.8714  2.7816
   96MOL0     H13226  12.673   2.103   7.197 -1.2258 -0.5656  3.2907
   96MOL0     H13227  12.586   1.951   7.238  4.1976 -2.3612 -0.6887
   96MOL0     H13228  12.351   1.082   6.832 -0.0497 -2.5644 -1.5929
   96MOL0     H13229  12.337   0.922   6.672  0.5088 -0.1191 -2.2099
   96MOL0     H13230  11.988   0.679   6.300 -0.1176  1.2561  1.4214
   96MOL0     H13231  12.068   0.519   6.128 -1.9070  1.2351 -1.6520
   96MOL0     H13232  11.078   0.034   5.262 -1.1877 -0.7839 -2.5387
   96MOL0     H13233  10.850   0.057   5.373  1.7723 -2.2517 -1.2799
   96MOL0     H13234  10.579   0.177   5.669  2.2727  0.3529 -2.6621
   96MOL0     H13235  10.376   0.224   5.806  0.9129  0.6049  0.2464
   96MOL0     H13236  10.023   0.333   5.866 -0.0247 -0.7414  2.5661
   96MOL0     H13237  10.179   0.241   5.871  0.1875 -0.2019  1.2328
   96MOL0     H13238  10.296   0.471   5.873 -0.0110  0.1871  1.0723
   96MOL0     H13239  10.171   0.448   5.998  0.8541  0.9040  0.5399
   96MOL0     H13240  10.135   0.576   5.731  1.7314 -3.2314  0.5231
   96MOL0     H13241  10.010   0.565   5.866 -0.6260 -0.2225  0.0310
   96MOL0     H13242  10.267   0.725   5.864  0.4480 -1.6052 -1.7238
   96MOL0     H13243  10.165   0.711   6.014  4.9215  2.8535  0.4483
   96MOL0     H13244   9.976   1.001   5.769  3.7276  1.6641 -1.9722
   96MOL0     H13245  10.200   0.405   5.456  1.5858  3.1312 -1.4726
   96MOL0     H13246  10.435   0.458   5.262  2.1434 -0.7230  2.0099
   96MOL0     H13247  10.451   0.292   5.219 -1.1656  1.2890 -3.1230
   96MOL0     H13248  10.285   0.360   5.263 -0.4144  0.6044  1.2032
   97MOL0     O13249   2.814   5.191   2.590 -0.0302 -0.2759  0.3925
   97MOL0     C13250   2.915   5.200   2.654  0.2049  0.4082 -0.1129
   97MOL0     O13251   3.008   5.306   2.651 -0.3193 -0.3614 -0.4829
   97MOL0     C13252   2.981   5.407   2.564  0.1737  0.1597  0.3796
   97MOL0     C13253   3.086   5.437   2.485 -0.2494 -0.4434  0.6157
   97MOL0     C13254   3.090   5.564   2.423  0.0344  0.2131 -0.3448
   97MOL0     C13255   2.984   5.661   2.441  0.1051  0.0823 -0.1996
   97MOL0     O13256   2.986   5.775   2.371  0.7013  0.7606 -0.2989
   97MOL0     C13257   2.868   5.858   2.357  0.0304  0.4502  0.7715
   97MOL0     C13258   2.783   5.808   2.232 -0.3084 -0.2045 -0.2386
   97MOL0     C13259   2.853   5.737   2.118  0.3720  0.8333  0.5978
   97MOL0     C13260   2.766   5.745   1.995 -0.6795  0.2594 -0.2676
   97MOL0     C13261   2.858   5.730   1.871 -0.2124 -0.0748 -0.3127
   97MOL0     C13262   2.916   5.593   1.841  0.2742  0.2901 -0.0146
   97MOL0     C13263   3.013   5.596   1.725  0.3526 -0.0738  0.8891
   97MOL0     C13264   3.096   5.461   1.719  0.3271  0.5350  1.3292
   97MOL0     N13265   3.204   5.485   1.618  0.4351  0.0968  0.3934
   97MOL0     C13266   3.315   5.411   1.615  0.9483 -0.1145 -0.6988
   97MOL0     C13267   3.381   5.455   1.505 -0.7418 -0.1821 -0.3274
   97MOL0     C13268   3.504   5.407   1.442 -0.3963  0.4303  0.6856
   97MOL0     C13269   3.492   5.311   1.327 -0.2392  1.5642 -0.3490
   97MOL0     C13270   3.468   5.167   1.378 -0.8678  0.2778 -0.8346
   97MOL0     C13271   3.601   5.103   1.406  0.0775 -0.2562  0.0799
   97MOL0     O13272   3.670   5.079   1.284  0.6777 -0.7633 -0.3561
   97MOL0     C13273   3.639   4.969   1.214  0.2057 -1.1510 -0.2006
   97MOL0     C13274   3.722   4.936   1.102  0.8032 -0.1955 -1.2350
   97MOL0     C13275   3.704   4.816   1.027  0.1220 -0.0006 -0.8373
   97MOL0     C13276   3.801   4.797   0.913 -0.2127 -0.5741 -0.7743
   97MOL0     C13277   3.606   4.724   1.067  0.4524 -0.5839  0.7520
   97MOL0     C13278   3.580   4.597   0.998 -0.6079 -0.3656 -0.8290
   97MOL0     O13279   3.512   4.511   1.066 -0.0914 -0.2591  0.0569
   97MOL0     C13280   3.467   4.397   0.997 -1.6085  0.5874 -0.1085
   97MOL0     C13281   3.354   4.388   0.929  0.1162  0.1889  0.1977
   97MOL0     C13282   3.316   4.280   0.844  0.2755  0.2772  0.5961
   97MOL0     C13283   3.400   4.167   0.861 -0.8617 -0.6944  0.1734
   97MOL0     O13284   3.375   4.061   0.780 -0.1868 -0.2738  0.2829
   97MOL0     C13285   3.454   3.945   0.810  0.0171  1.1349  0.3807
   97MOL0     C13286   3.414   3.824   0.737 -0.5025 -0.0139  0.8402
   97MOL0     C13287   3.283   3.759   0.788  0.6086 -0.4325  0.7157
   97MOL0     C13288   3.317   3.657   0.898  0.3743 -0.4610 -0.0113
   97MOL0     C13289   3.180   3.613   0.948  0.9165 -0.7043  0.3354
   97MOL0     C13290   3.175   3.481   1.037  0.4056 -0.8229 -0.4331
   97MOL0     C13291   3.222   3.501   1.180  0.0267  0.0551  0.5303
   97MOL0     C13292   3.222   3.373   1.267  0.7786 -0.3837 -0.4995
   97MOL0    Cl13293   3.359   3.267   1.207  0.2171 -0.1060  0.5316
   97MOL0     C13294   3.517   4.166   0.952 -0.2728 -0.1427  0.0265
   97MOL0     C13295   3.553   4.291   1.002  0.9602  0.0200  0.3555
   97MOL0     O13296   3.626   4.568   0.887 -0.1545 -0.1990  0.0859
   97MOL0     C13297   3.534   4.756   1.181  0.5383  0.1839  0.0377
   97MOL0     C13298   3.549   4.867   1.256  0.7963 -0.6418  0.7461
   97MOL0     N13299   3.307   5.547   1.435  0.6355 -0.4245 -0.4305
   97MOL0     N13300   3.203   5.565   1.501  0.2259  0.4350 -0.2956
   97MOL0     C13301   2.875   5.623   2.522  0.7744 -0.0887  0.7458
   97MOL0     C13302   2.870   5.490   2.578 -0.2241 -0.2565 -1.0939
   97MOL0     C13303   2.949   5.095   2.752  0.6428  0.1172 -0.2117
   97MOL0     C13304   3.088   5.069   2.774 -0.3528 -0.1039  0.2721
   97MOL0     C13305   3.127   4.975   2.866 -0.9518 -0.1160  0.7852
   97MOL0     C13306   3.037   4.918   2.954 -0.5854 -0.4781 -0.5693
   97MOL0     O13307   3.098   4.834   3.037  0.6348  0.5569  0.6674
   97MOL0     C13308   3.028   4.800   3.159 -0.1197  0.1010 -0.0324
   97MOL0     C13309   3.119   4.747   3.271  0.1741 -0.6047 -0.8545
   97MOL0     C13310   3.165   4.606   3.242 -0.2081  0.2329  0.3569
   97MOL0     C13311   3.051   4.502   3.282 -0.2959  0.7100  0.6540
   97MOL0     C13312   3.007   4.496   3.423 -0.8882  0.5244 -0.3106
   97MOL0     C13313   2.977   4.495   3.538  0.1813 -1.7793 -0.7163
   97MOL0     C13314   2.901   4.947   2.940  0.0140  0.2184  0.8957
   97MOL0     C13315   2.853   5.028   2.837 -0.7712 -0.5929 -0.3394
   97MOL0     C13316   2.705   5.069   2.832  0.1593 -0.4940 -0.3236
   97MOL0     H13317   3.168   5.367   2.474 -0.7928 -0.9034 -0.7364
   97MOL0     H13318   3.184   5.587   2.374 -0.3034  5.1738  0.8458
   97MOL0     H13319   2.904   5.956   2.323 -1.5954  0.7089 -0.3640
   97MOL0     H13320   2.814   5.874   2.451  0.8326 -1.1277  1.5294
   97MOL0     H13321   2.716   5.734   2.277 -0.7841  0.4474  0.1338
   97MOL0     H13322   2.720   5.886   2.189 -0.4390  1.9036  3.4128
   97MOL0     H13323   2.951   5.781   2.098 -0.2640  1.5905 -1.0901
   97MOL0     H13324   2.867   5.634   2.153 -1.4601  1.2299  2.7185
   97MOL0     H13325   2.691   5.666   2.002 -0.2989 -0.0479  0.4313
   97MOL0     H13326   2.719   5.842   1.973 -2.9966 -0.9179 -0.8042
   97MOL0     H13327   2.936   5.807   1.867 -1.1427  0.8472 -1.0027
   97MOL0     H13328   2.784   5.749   1.793 -1.5942  0.7832  1.1616
   97MOL0     H13329   2.969   5.558   1.930 -1.3238  0.3289  0.9862
   97MOL0     H13330   2.849   5.507   1.825  0.7054 -0.0440 -0.0430
   97MOL0     H13331   3.085   5.674   1.752  0.7223 -0.2872  0.5267
   97MOL0     H13332   2.969   5.615   1.627  2.2068 -0.3713 -0.0449
   97MOL0     H13333   3.146   5.444   1.815  2.4502 -2.3217 -0.1378
   97MOL0     H13334   3.035   5.373   1.697  1.6884 -0.8052  2.6815
   97MOL0     H13335   3.357   5.338   1.684  1.4686 -0.8422 -1.7622
   97MOL0     H13336   3.581   5.377   1.514  0.7098  0.6039 -0.3866
   97MOL0     H13337   3.547   5.499   1.402 -0.8120 -0.2924 -1.5883
   97MOL0     H13338   3.396   5.325   1.277 -0.3327 -1.1077 -1.0835
   97MOL0     H13339   3.578   5.325   1.261  1.2651  1.6981  1.5266
   97MOL0     H13340   3.423   5.172   1.477  2.1988  0.4348  0.6766
   97MOL0     H13341   3.412   5.096   1.316 -3.0478 -0.8313  2.1591
   97MOL0     H13342   3.664   5.166   1.470 -0.1429 -2.8717  3.1377
   97MOL0     H13343   3.589   5.013   1.467  1.2914  1.2272  2.6860
   97MOL0     H13344   3.802   5.008   1.090  0.8338  0.4209  1.7882
   97MOL0     H13345   3.857   4.704   0.927 -0.5592 -0.5569  0.9017
   97MOL0     H13346   3.872   4.881   0.913  0.1208 -0.7898  1.3474
   97MOL0     H13347   3.754   4.802   0.815 -0.0795  0.1805 -0.8109
   97MOL0     H13348   3.287   4.473   0.933 -1.2577 -0.8733  0.7558
   97MOL0     H13349   3.228   4.284   0.781  1.0052  1.4301 -0.4076
   97MOL0     H13350   3.555   3.969   0.774  0.1996  1.4409  1.0908
   97MOL0     H13351   3.464   3.914   0.914  0.6137  0.3407  0.1002
   97MOL0     H13352   3.414   3.842   0.629  2.7559 -1.9892  0.3895
   97MOL0     H13353   3.487   3.743   0.724 -0.7366 -0.0778 -0.1042
   97MOL0     H13354   3.210   3.733   0.711 -1.4774  2.3670  1.5915
   97MOL0     H13355   3.226   3.840   0.833  0.7916  1.0231 -1.5213
   97MOL0     H13356   3.384   3.695   0.977 -1.0052  0.5886  0.7042
   97MOL0     H13357   3.374   3.575   0.854  1.4372 -1.6909  3.3463
   97MOL0     H13358   3.130   3.692   1.006 -2.3709 -1.9157 -0.6211
   97MOL0     H13359   3.114   3.589   0.864  0.7228 -2.0559  0.8482
   97MOL0     H13360   3.232   3.402   0.987 -0.9235 -3.6717  2.2101
   97MOL0     H13361   3.071   3.448   1.036 -0.2243  0.9357  0.8420
   97MOL0     H13362   3.137   3.548   1.231 -0.4614  0.4198 -0.5914
   97MOL0     H13363   3.316   3.556   1.191 -0.1305  0.4310  0.0318
   97MOL0     H13364   3.126   3.323   1.250 -0.9817  2.7139 -0.4122
   97MOL0     H13365   3.235   3.408   1.370 -1.0975 -1.7173  0.2465
   97MOL0     H13366   3.584   4.082   0.966 -0.0416  0.2449  1.4528
   97MOL0     H13367   3.646   4.290   1.058  0.0985  1.3308  1.9199
   97MOL0     H13368   3.477   4.672   1.220 -0.4510 -0.3015 -2.2883
   97MOL0     H13369   3.490   4.876   1.346  0.5570 -2.5873  0.8163
   97MOL0     H13370   2.782   5.677   2.530 -0.5607 -2.3882  1.7708
   97MOL0     H13371   2.794   5.467   2.652  0.2504 -0.3552 -0.6245
   97MOL0     H13372   3.163   5.110   2.707  1.6268 -0.8710  1.9207
   97MOL0     H13373   3.234   4.957   2.869 -0.6669  0.1934 -2.6911
   97MOL0     H13374   2.973   4.888   3.195 -0.9088  0.2929 -1.6183
   97MOL0     H13375   2.948   4.729   3.137 -0.6437  0.9868 -1.0719
   97MOL0     H13376   3.064   4.743   3.365 -1.8877 -2.2358 -2.0123
   97MOL0     H13377   3.205   4.813   3.276 -1.0334  0.9200  0.7927
   97MOL0     H13378   3.204   4.582   3.143 -0.0204  1.1142  0.2021
   97MOL0     H13379   3.251   4.585   3.307  0.3940  0.6518 -0.2863
   97MOL0     H13380   3.088   4.403   3.254 -1.8729  0.5675 -1.1786
   97MOL0     H13381   2.965   4.523   3.218  1.5159  0.3937 -2.0526
   97MOL0     H13382   2.948   4.498   3.641  0.5841  0.4916 -0.6279
   97MOL0     H13383   2.831   4.891   3.001 -1.3786 -2.8464 -3.0646
   97MOL0     H13384   2.657   5.071   2.733  0.8375 -0.4430 -0.6545
   97MOL0     H13385   2.639   5.013   2.900 -2.4435 -0.9441 -3.0104
   97MOL0     H13386   2.701   5.172   2.869  0.9102 -0.6907  0.3349
   98MOL0     O13387   9.297   8.560  10.175 -0.1216 -0.2061 -0.0765
   98MOL0     C13388   9.336   8.565  10.059 -0.6714 -0.1058  1.2373
   98MOL0     O13389   9.374   8.463   9.977 -0.4074  0.2126 -0.1914
   98MOL0     C13390   9.384   8.336  10.026  0.3059 -0.0338  0.4080
   98MOL0     C13391   9.506   8.301  10.085  0.2680  0.7635 -0.0517
   98MOL0     C13392   9.519   8.174  10.150 -0.2378 -0.3116  0.3420
   98MOL0     C13393   9.411   8.076  10.140 -0.5879 -0.1572 -0.4365
   98MOL0     O13394   9.404   7.948  10.192 -0.2827  0.0577  0.4789
   98MOL0     C13395   9.493   7.903  10.284 -1.0426  0.2051 -0.8052
   98MOL0     C13396   9.479   7.946  10.429 -0.3537  0.0716  0.2419
   98MOL0     C13397   9.362   7.887  10.512  0.4351  0.1636 -1.0410
   98MOL0     C13398   9.372   7.946  10.655  0.1276  0.3680 -0.3727
   98MOL0     C13399   9.282   7.894  10.763 -0.8754 -0.0646 -1.4480
   98MOL0     C13400   9.132   7.886  10.730  0.3276 -0.2139 -0.0795
   98MOL0     C13401   9.041   7.851  10.845  0.2702 -0.6409  0.4748
   98MOL0     C13402   9.031   7.713  10.902  0.3736  0.6386  0.2059
   98MOL0     N13403   8.921   7.686  10.987  0.4249 -0.2582  0.2918
   98MOL0     C13404   8.937   7.701  11.118 -1.1582 -0.0875 -0.5824
   98MOL0     C13405   8.841   7.632  11.171  0.2426 -0.2384 -0.4346
   98MOL0     C13406   8.807   7.620  11.310 -0.4373 -0.0691 -0.4341
   98MOL0     C13407   8.781   7.753  11.372  0.7081  0.1183 -0.1201
   98MOL0     C13408   8.741   7.733  11.517  0.5490 -0.0859  0.1984
   98MOL0     C13409   8.615   7.657  11.533 -0.4184  0.0128 -0.0326
   98MOL0     O13410   8.644   7.522  11.584  0.6501  0.0718  0.0621
   98MOL0     C13411   8.527   7.444  11.588 -0.0909 -0.2530 -0.8423
   98MOL0     C13412   8.466   7.402  11.475  0.3014  0.3864 -0.2591
   98MOL0     C13413   8.349   7.323  11.471 -0.7392  0.1922  0.4187
   98MOL0     C13414   8.313   7.247  11.345  0.6674 -0.5120  0.3811
   98MOL0     C13415   8.273   7.313  11.588 -0.6869 -0.0088 -0.0667
   98MOL0     C13416   8.142   7.252  11.603  0.7919 -0.7858  0.9855
   98MOL0     O13417   8.108   7.212  11.725 -0.1748  0.0600 -0.2888
   98MOL0     C13418   7.983   7.167  11.754  0.6247  0.8822 -0.1938
   98MOL0     C13419   7.948   7.043  11.700 -0.4338  0.2850 -0.0318
   98MOL0     C13420   7.817   7.009  11.679 -1.1617 -0.2849  0.6405
   98MOL0     C13421   7.723   7.103  11.723  1.0867  0.3276  0.1975
   98MOL0     O13422   7.587   7.070  11.728  0.2534  0.1669  0.0579
   98MOL0     C13423   7.533   6.998  11.615 -0.5754 -0.0388  0.8295
   98MOL0     C13424   7.396   7.044  11.557 -0.8047 -0.3994 -0.2060
   98MOL0     C13425   7.412   7.166  11.478 -0.5484 -0.6703 -0.3325
   98MOL0     C13426   7.311   7.173  11.365 -0.2376 -0.6205  0.3672
   98MOL0     C13427   7.177   7.233  11.422 -0.6820  0.1796  0.9338
   98MOL0     C13428   7.064   7.186  11.325 -1.2674 -0.5719  0.0814
   98MOL0     C13429   6.922   7.250  11.370  0.5359  1.0270 -0.2693
   98MOL0     C13430   6.824   7.228  11.252 -0.2673 -0.3744  0.2155
   98MOL0    Cl13431   6.677   7.316  11.276  0.0364 -0.3158  0.2478
   98MOL0     C13432   7.758   7.225  11.784  0.8650 -0.1737 -0.0303
   98MOL0     C13433   7.886   7.258  11.805 -0.0972  0.3865 -0.0046
   98MOL0     O13434   8.062   7.279  11.510 -0.1437  0.5761 -1.0464
   98MOL0     C13435   8.332   7.359  11.707  0.9333 -0.7264 -0.5709
   98MOL0     C13436   8.460   7.426  11.710 -1.0141 -0.2366 -0.0497
   98MOL0     N13437   8.758   7.582  11.069 -0.3468  0.1166  1.5282
   98MOL0     N13438   8.806   7.622  10.957  0.3206  0.8093  0.0196
   98MOL0     C13439   9.291   8.117  10.083 -0.7658  0.6069 -0.8169
   98MOL0     C13440   9.282   8.246  10.033  0.2070 -0.3503  0.4646
   98MOL0     C13441   9.334   8.702  10.009 -0.8531 -1.1553 -0.4985
   98MOL0     C13442   9.307   8.719   9.867  0.0051 -0.3556  0.4740
   98MOL0     C13443   9.305   8.837   9.799  0.8979 -0.2884 -0.6998
   98MOL0     C13444   9.340   8.953   9.864 -0.3410 -0.1207 -0.6242
   98MOL0     O13445   9.334   9.086   9.824 -0.1175 -0.0200 -0.6767
   98MOL0     C13446   9.240   9.133   9.725 -0.2876 -0.0345  0.0523
   98MOL0     C13447   9.115   9.206   9.770 -0.2591 -0.7444  0.3821
   98MOL0     C13448   9.039   9.124   9.871 -0.3453 -0.3073  0.5185
   98MOL0     C13449   8.910   9.202   9.893  0.5263  0.0007  1.6894
   98MOL0     C13450   8.827   9.211   9.772 -0.2137 -0.7631  0.1654
   98MOL0     C13451   8.756   9.210   9.671 -0.1746  0.4507 -0.2644
   98MOL0     C13452   9.377   8.939  10.003  0.0323 -0.5003 -0.6791
   98MOL0     C13453   9.368   8.817  10.082  0.6704 -0.3902 -0.1893
   98MOL0     C13454   9.417   8.809  10.225  0.2698 -0.0625  0.0052
   98MOL0     H13455   9.581   8.379  10.095  0.2887  0.5125  2.0888
   98MOL0     H13456   9.605   8.144  10.210 -1.7630 -3.9123  1.0061
   98MOL0     H13457   9.596   7.926  10.256 -0.9336  0.9398  0.1329
   98MOL0     H13458   9.486   7.794  10.285  0.2771  0.0932 -0.0978
   98MOL0     H13459   9.568   7.907  10.479 -0.7566  1.6891  2.3824
   98MOL0     H13460   9.482   8.055  10.430  3.1612  0.1233 -1.7721
   98MOL0     H13461   9.269   7.925  10.469  1.0263  2.5169 -0.3930
   98MOL0     H13462   9.351   7.778  10.511 -1.3446  0.2971 -3.1874
   98MOL0     H13463   9.472   7.927  10.696 -0.3015 -1.4288 -0.1023
   98MOL0     H13464   9.374   8.055  10.650 -0.3588  0.4510  1.0216
   98MOL0     H13465   9.287   7.953  10.855  0.5593 -3.2405  0.6889
   98MOL0     H13466   9.322   7.801  10.806  1.4868 -0.4639 -4.2604
   98MOL0     H13467   9.099   7.986  10.699 -0.7168 -1.1433 -2.1572
   98MOL0     H13468   9.123   7.815  10.647 -0.3048  2.0129 -2.0478
   98MOL0     H13469   8.946   7.877  10.797  0.0692  0.2153  1.3118
   98MOL0     H13470   9.054   7.933  10.916  0.9030 -0.5084  0.2153
   98MOL0     H13471   9.023   7.646  10.815 -2.1601  2.4764 -1.0935
   98MOL0     H13472   9.127   7.695  10.952 -0.3897 -1.5781  0.9791
   98MOL0     H13473   9.021   7.749  11.167 -1.0274 -2.2066  1.4227
   98MOL0     H13474   8.882   7.565  11.367  2.5789  4.2349  0.3022
   98MOL0     H13475   8.718   7.556  11.316  0.3451 -1.0853  0.9142
   98MOL0     H13476   8.868   7.820  11.364  0.3127  0.6653  0.1114
   98MOL0     H13477   8.706   7.817  11.324 -0.3489 -0.5026  0.6728
   98MOL0     H13478   8.816   7.677  11.573 -1.9936 -0.7863  3.1274
   98MOL0     H13479   8.722   7.834  11.555 -1.3966 -0.0788 -0.6788
   98MOL0     H13480   8.562   7.711  11.612  0.8897  1.1615  0.0940
   98MOL0     H13481   8.554   7.649  11.443 -1.5832  2.3125  0.4788
   98MOL0     H13482   8.519   7.432  11.385  2.3439 -0.7461  0.4925
   98MOL0     H13483   8.374   7.279  11.260 -0.2147 -0.1987 -0.1466
   98MOL0     H13484   8.207   7.243  11.320  0.7421 -1.1664  0.1233
   98MOL0     H13485   8.331   7.144  11.377 -1.0017 -0.6900  0.8471
   98MOL0     H13486   8.030   6.983  11.663 -1.2097 -0.3380 -0.8115
   98MOL0     H13487   7.793   6.919  11.623  1.1235  0.3004 -1.4488
   98MOL0     H13488   7.605   6.998  11.533 -2.6441 -3.5572 -1.3128
   98MOL0     H13489   7.523   6.893  11.646  0.6935 -0.4331 -0.0092
   98MOL0     H13490   7.357   6.959  11.500 -4.9650  0.1439  1.5120
   98MOL0     H13491   7.326   7.052  11.641 -0.0735 -3.9441  0.9156
   98MOL0     H13492   7.507   7.168  11.424  0.8399 -4.2096  1.6862
   98MOL0     H13493   7.388   7.256  11.535 -2.7930 -0.4206 -1.5436
   98MOL0     H13494   7.300   7.074  11.320 -1.3836 -1.0288  1.4785
   98MOL0     H13495   7.350   7.234  11.283  0.2717  0.2842  1.2534
   98MOL0     H13496   7.167   7.186  11.520 -1.8984  1.3228  1.3792
   98MOL0     H13497   7.185   7.342  11.425  4.9379  0.0353  3.8091
   98MOL0     H13498   7.059   7.077  11.314  0.4800 -0.5657 -0.9911
   98MOL0     H13499   7.088   7.213  11.222 -1.9618  1.0728  0.3232
   98MOL0     H13500   6.924   7.359  11.382  0.4341  0.9983  0.0231
   98MOL0     H13501   6.888   7.195  11.458  0.4380 -0.0401 -0.9669
   98MOL0     H13502   6.798   7.124  11.228  0.4708 -0.4788 -0.1582
   98MOL0     H13503   6.867   7.283  11.168 -1.6668  0.3949 -0.0296
   98MOL0     H13504   7.683   7.288  11.828  2.7151  2.3852 -0.3187
   98MOL0     H13505   7.915   7.355  11.843  2.9872  0.4372 -2.0601
   98MOL0     H13506   8.287   7.351  11.805 -0.7884 -0.4790 -1.3152
   98MOL0     H13507   8.498   7.462  11.805 -0.7893  0.7040 -0.4866
   98MOL0     H13508   9.209   8.047  10.076 -0.1021 -0.4702  1.4121
   98MOL0     H13509   9.191   8.273   9.981  0.8082 -2.5176 -1.8698
   98MOL0     H13510   9.281   8.629   9.812  2.7990 -0.7953 -0.3091
   98MOL0     H13511   9.274   8.849   9.695 -1.3303  0.2127 -0.0325
   98MOL0     H13512   9.305   9.205   9.675 -0.6323  1.0675  1.1486
   98MOL0     H13513   9.217   9.057   9.649  0.5508 -1.0346  0.7795
   98MOL0     H13514   9.064   9.223   9.675  2.4188  3.4002 -0.5690
   98MOL0     H13515   9.150   9.302   9.808  1.1431 -0.9132 -0.4117
   98MOL0     H13516   9.030   9.020   9.840 -2.2645  0.3405 -1.3436
   98MOL0     H13517   9.099   9.119   9.963  1.8249  0.4884 -0.7943
   98MOL0     H13518   8.935   9.301   9.934  2.9571 -1.6079  4.4855
   98MOL0     H13519   8.855   9.154   9.975 -1.1325 -1.5097 -0.1998
   98MOL0     H13520   8.691   9.197   9.587 -0.0466 -0.8847 -0.1777
   98MOL0     H13521   9.421   9.026  10.052  0.4622 -1.8022  1.3925
   98MOL0     H13522   9.335   8.773  10.288  0.6122 -1.2106 -0.1911
   98MOL0     H13523   9.505   8.747  10.240  2.5947  3.1910  0.8961
   98MOL0     H13524   9.441   8.912  10.254 -1.5877 -0.0280  1.6761
   99MOL0     O13525   9.925   0.817   3.971  0.2502  0.0752 -0.1140
   99MOL0     C13526   9.846   0.750   4.043 -0.3467  0.1960  0.4921
   99MOL0     O13527   9.724   0.706   4.011 -0.0418  0.2361  1.0215
   99MOL0     C13528   9.679   0.727   3.883  0.5956  0.2344  0.6578
   99MOL0     C13529   9.737   0.653   3.780  0.0871 -1.0932  0.3501
   99MOL0     C13530   9.687   0.668   3.652  1.4654 -0.2206  0.9241
   99MOL0     C13531   9.565   0.739   3.628  0.0815  0.1292  0.5376
   99MOL0     O13532   9.510   0.741   3.505 -0.5115 -0.2081 -0.1677
   99MOL0     C13533   9.387   0.664   3.497  0.3106  0.2113  0.3155
   99MOL0     C13534   9.387   0.594   3.363 -0.7262 -0.6421 -0.1802
   99MOL0     C13535   9.283   0.488   3.330 -0.2587  0.9273  0.1695
   99MOL0     C13536   9.343   0.385   3.236 -0.0774  0.6211 -0.2392
   99MOL0     C13537   9.242   0.291   3.170 -0.8919 -0.4273 -0.4771
   99MOL0     C13538   9.311   0.193   3.075  0.9445 -0.3835 -0.1194
   99MOL0     C13539   9.211   0.123   2.984  0.5559 -0.6690  0.5839
   99MOL0     C13540   9.228   0.138   2.830  0.2025 -0.3780 -0.6344
   99MOL0     N13541   9.245   0.275   2.778  0.4571 -0.0146 -0.6344
   99MOL0     C13542   9.364   0.341   2.778 -0.4727 -0.4595  0.5638
   99MOL0     C13543   9.338   0.452   2.697  0.0531 -0.6558 -0.6637
   99MOL0     C13544   9.431   0.561   2.666 -0.1352  0.1339 -0.4015
   99MOL0     C13545   9.419   0.695   2.733 -0.1570  0.0171  0.2510
   99MOL0     C13546   9.411   0.683   2.886  0.2298  0.7003 -0.2356
   99MOL0     C13547   9.550   0.685   2.964 -0.1242  0.5469  0.4913
   99MOL0     O13548   9.655   0.775   2.904 -0.3625 -0.1392  0.1303
   99MOL0     C13549   9.663   0.906   2.941  1.2974  0.4736 -0.0884
   99MOL0     C13550   9.763   0.987   2.884 -0.8224  0.5037  0.2615
   99MOL0     C13551   9.783   1.118   2.939 -0.0939 -0.2089  0.5001
   99MOL0     C13552   9.878   1.212   2.876 -0.4465 -0.5316 -0.1985
   99MOL0     C13553   9.703   1.169   3.047 -0.5794  1.1932  1.0015
   99MOL0     C13554   9.717   1.305   3.092  0.8997  0.4223  0.7548
   99MOL0     O13555   9.829   1.337   3.158 -0.2723  0.1063 -0.2741
   99MOL0     C13556   9.863   1.466   3.192 -0.1482  0.0240 -0.8740
   99MOL0     C13557   9.784   1.584   3.184 -0.0923  0.2017 -0.5412
   99MOL0     C13558   9.834   1.709   3.210  0.4603  0.3697  0.5623
   99MOL0     C13559   9.953   1.725   3.276 -0.3533 -0.3345 -1.5072
   99MOL0     O13560  10.005   1.842   3.315 -0.2238 -0.7951 -0.0241
   99MOL0     C13561   9.912   1.951   3.345  0.1053  0.2884  0.3933
   99MOL0     C13562   9.995   2.061   3.410  0.0840 -0.0216 -0.2109
   99MOL0     C13563   9.902   2.161   3.478 -0.1208  0.2299 -0.4146
   99MOL0     C13564   9.850   2.122   3.617 -0.1754 -0.9954  1.2022
   99MOL0     C13565   9.746   2.218   3.652 -0.4136  0.1043 -1.3618
   99MOL0     C13566   9.656   2.159   3.760  0.0348 -0.4966 -0.3319
   99MOL0     C13567   9.572   2.272   3.825 -0.7530  0.2082 -1.0332
   99MOL0     C13568   9.470   2.219   3.925  0.0995 -0.6204  1.2514
   99MOL0    Cl13569   9.345   2.127   3.845  0.1565  0.1354 -0.5810
   99MOL0     C13570  10.026   1.606   3.305  0.0213 -0.0595 -0.5507
   99MOL0     C13571   9.989   1.484   3.250  0.3805  1.5209  0.3965
   99MOL0     O13572   9.612   1.380   3.068 -0.3503 -0.2674  0.0580
   99MOL0     C13573   9.605   1.089   3.104  0.7109  0.4677 -0.3263
   99MOL0     C13574   9.587   0.961   3.052 -0.3590  1.0697 -0.1252
   99MOL0     N13575   9.209   0.438   2.644 -0.5165  0.7654  0.2765
   99MOL0     N13576   9.151   0.337   2.709 -0.1239 -0.0026  0.2468
   99MOL0     C13577   9.504   0.815   3.729 -0.3822  0.8412  0.0933
   99MOL0     C13578   9.563   0.803   3.856 -0.6617  0.3154  0.8791
   99MOL0     C13579   9.885   0.709   4.178 -1.0373 -0.2206  0.0748
   99MOL0     C13580   9.890   0.570   4.207 -0.7212 -0.7088 -0.7415
   99MOL0     C13581   9.917   0.525   4.341 -0.2724  1.0585  0.4559
   99MOL0     C13582   9.950   0.614   4.443  0.3062  0.3621  0.2470
   99MOL0     O13583   9.977   0.556   4.568 -0.0481 -0.7204  0.8482
   99MOL0     C13584   9.952   0.622   4.689  0.1944 -0.0425 -0.0255
   99MOL0     C13585   9.806   0.664   4.706  0.0768  0.2854  0.1737
   99MOL0     C13586   9.798   0.740   4.839  0.0726 -0.1608  0.3403
   99MOL0     C13587   9.749   0.664   4.960 -0.3714 -0.8965  0.5716
   99MOL0     C13588   9.734   0.746   5.075  0.7842 -0.4797  0.2518
   99MOL0     C13589   9.736   0.821   5.173 -0.6719 -0.5975 -0.0531
   99MOL0     C13590   9.947   0.749   4.412  0.2384 -0.0783  0.1048
   99MOL0     C13591   9.924   0.796   4.283 -0.4676 -0.7415  0.2410
   99MOL0     C13592   9.937   0.942   4.260 -0.3417 -0.0309 -0.1380
   99MOL0     H13593   9.819   0.583   3.793 -0.4993 -1.8156  0.1593
   99MOL0     H13594   9.741   0.613   3.576 -2.6528 -1.4936 -1.4029
   99MOL0     H13595   9.299   0.729   3.499  0.5243  0.5117  0.0052
   99MOL0     H13596   9.386   0.597   3.584  2.6154 -0.6385 -0.2296
   99MOL0     H13597   9.377   0.671   3.286 -0.7465  0.6737  1.0976
   99MOL0     H13598   9.484   0.544   3.359 -0.4139  0.0118 -1.1808
   99MOL0     H13599   9.247   0.426   3.413  0.9675  1.3054  1.0027
   99MOL0     H13600   9.196   0.531   3.279 -0.6949 -0.7317 -0.5502
   99MOL0     H13601   9.408   0.434   3.162  1.8083 -0.3539  0.7055
   99MOL0     H13602   9.409   0.321   3.295 -1.9757  1.2655  2.7681
   99MOL0     H13603   9.171   0.355   3.117  0.5798  0.4071 -1.5248
   99MOL0     H13604   9.183   0.244   3.249  0.2538  0.5238  1.0169
   99MOL0     H13605   9.378   0.254   3.014 -1.0053 -0.0387 -2.0213
   99MOL0     H13606   9.369   0.125   3.139 -0.0434 -2.6065 -1.4838
   99MOL0     H13607   9.109   0.159   3.003 -0.0555 -2.2541  0.5368
   99MOL0     H13608   9.211   0.017   3.011 -0.1841 -0.9260 -0.3566
   99MOL0     H13609   9.311   0.077   2.795  0.0885 -0.3671 -0.9223
   99MOL0     H13610   9.138   0.108   2.776  0.0565  1.8260 -1.7437
   99MOL0     H13611   9.463   0.311   2.812  0.4871  0.6522 -1.0697
   99MOL0     H13612   9.444   0.577   2.558  1.5402  0.0904 -0.2357
   99MOL0     H13613   9.524   0.521   2.708 -0.8670 -0.8810  0.2947
   99MOL0     H13614   9.499   0.759   2.696 -0.9781 -0.4945 -2.6863
   99MOL0     H13615   9.336   0.744   2.680  0.1119 -3.4366 -3.9144
   99MOL0     H13616   9.349   0.770   2.907  0.4806  0.9702 -0.6057
   99MOL0     H13617   9.352   0.601   2.929  3.2382 -0.8216  1.2713
   99MOL0     H13618   9.547   0.688   3.073  0.2738  1.8292  0.4829
   99MOL0     H13619   9.595   0.585   2.957  1.0511  1.1811 -3.3946
   99MOL0     H13620   9.818   0.963   2.794  0.4480 -2.4810  1.6822
   99MOL0     H13621   9.867   1.320   2.884  3.0116 -0.1345  0.8075
   99MOL0     H13622   9.880   1.184   2.770  3.3142  1.9557 -0.9718
   99MOL0     H13623   9.977   1.200   2.922 -0.3217  2.1901  0.3693
   99MOL0     H13624   9.681   1.580   3.150 -0.0763 -1.6999 -0.4692
   99MOL0     H13625   9.768   1.793   3.193 -1.3019 -1.2878 -1.3657
   99MOL0     H13626   9.876   1.996   3.252 -0.0172 -0.0136  0.2942
   99MOL0     H13627   9.826   1.930   3.408  1.0606 -3.2057  0.7306
   99MOL0     H13628  10.064   2.020   3.484 -0.7786 -3.7680 -1.2884
   99MOL0     H13629  10.060   2.115   3.340 -2.0917  2.9389 -0.1693
   99MOL0     H13630   9.816   2.183   3.415 -1.3580  1.1711  1.5112
   99MOL0     H13631   9.943   2.262   3.489 -1.0782  0.4088  2.4061
   99MOL0     H13632   9.931   2.115   3.691  0.6965  0.9373  0.5138
   99MOL0     H13633   9.800   2.025   3.615 -3.6183  0.5004  3.9505
   99MOL0     H13634   9.798   2.306   3.689 -0.1122 -0.5218 -0.2395
   99MOL0     H13635   9.695   2.247   3.560  0.4261  2.3745 -1.1499
   99MOL0     H13636   9.715   2.113   3.840  0.3447  0.1222 -0.2011
   99MOL0     H13637   9.597   2.076   3.719 -0.5614 -1.3766  2.1223
   99MOL0     H13638   9.508   2.319   3.750  1.8859  0.8794 -3.0310
   99MOL0     H13639   9.635   2.349   3.871 -0.1936 -0.4667 -0.6448
   99MOL0     H13640   9.421   2.303   3.975  0.8641 -0.3422  1.5514
   99MOL0     H13641   9.515   2.161   4.006  3.5513  1.0085  0.6748
   99MOL0     H13642  10.111   1.618   3.372  0.9941 -0.3077 -1.7077
   99MOL0     H13643  10.056   1.399   3.256 -1.2220  0.2116  0.3532
   99MOL0     H13644   9.551   1.133   3.188  2.5654  1.0039  0.6265
   99MOL0     H13645   9.531   0.885   3.107 -1.1154  1.6436 -0.0820
   99MOL0     H13646   9.420   0.880   3.705 -1.0258 -0.9289 -3.1218
   99MOL0     H13647   9.513   0.848   3.941 -0.7303 -3.7655  3.2607
   99MOL0     H13648   9.859   0.498   4.133 -2.8439 -0.9119  0.2945
   99MOL0     H13649   9.927   0.419   4.363 -0.2801  1.1082  0.7096
   99MOL0     H13650   9.971   0.542   4.761  2.7551 -1.9832 -2.6322
   99MOL0     H13651  10.026   0.699   4.709  3.0393 -2.3591 -0.9210
   99MOL0     H13652   9.740   0.577   4.701  2.5506 -1.6531 -0.5229
   99MOL0     H13653   9.787   0.734   4.624  5.1189  0.6965 -0.9593
   99MOL0     H13654   9.885   0.805   4.852  0.0440  0.5236 -2.3620
   99MOL0     H13655   9.716   0.804   4.808 -1.4052 -1.7770  0.7736
   99MOL0     H13656   9.821   0.585   4.985  0.9642  0.3813  0.8478
   99MOL0     H13657   9.648   0.624   4.944 -2.0846  1.9416  3.1073
   99MOL0     H13658   9.725   0.890   5.254  0.9743  2.2653 -2.0961
   99MOL0     H13659   9.962   0.820   4.494 -1.4711  0.4319  0.0262
   99MOL0     H13660  10.012   0.998   4.316 -1.4353  2.8414 -1.3648
   99MOL0     H13661   9.956   0.974   4.157  1.8633 -1.7229 -0.3171
   99MOL0     H13662   9.839   0.981   4.290 -0.8046 -1.7338  0.6802
  100MOL0     O13663  10.603   4.904   6.954 -1.0543 -0.7770 -0.0461
  100MOL0     C13664  10.519   4.818   6.934  0.0677 -0.3806  1.1759
  100MOL0     O13665  10.440   4.765   7.029 -0.4045  0.1362 -0.5274
  100MOL0     C13666  10.433   4.839   7.143  0.0152 -0.3227  0.3431
  100MOL0     C13667  10.310   4.898   7.182  0.0515  0.7213  0.4131
  100MOL0     C13668  10.294   4.972   7.298  0.1303  0.6503 -0.8880
  100MOL0     C13669  10.414   5.023   7.364 -0.0698  0.7502  0.1524
  100MOL0     O13670  10.412   5.115   7.470  0.3303 -0.3430 -0.4960
  100MOL0     C13671  10.284   5.134   7.549 -0.4020 -0.4347  0.3230
  100MOL0     C13672  10.314   5.206   7.679 -0.4674  0.2878 -0.0722
  100MOL0     C13673  10.302   5.357   7.660  0.2400  0.3536  0.4323
  100MOL0     C13674  10.262   5.417   7.794  0.2183 -0.3092  0.0815
  100MOL0     C13675  10.208   5.564   7.767 -0.1055 -0.2370 -0.3339
  100MOL0     C13676  10.178   5.636   7.903 -0.1938 -1.3501  0.8942
  100MOL0     C13677  10.082   5.763   7.882  0.0729  0.1077 -0.7898
  100MOL0     C13678   9.936   5.728   7.875  0.1084  0.0098 -0.4207
  100MOL0     N13679   9.896   5.703   8.015  0.8119 -0.6000  0.4896
  100MOL0     C13680   9.860   5.589   8.087  1.1627  0.1325  0.1683
  100MOL0     C13681   9.839   5.628   8.210  0.0469 -0.8735 -0.3176
  100MOL0     C13682   9.836   5.545   8.342 -0.4172 -0.0286  0.1179
  100MOL0     C13683   9.981   5.544   8.397  0.8538 -0.2062 -0.1167
  100MOL0     C13684  10.081   5.491   8.298  0.2319  1.0768  0.2878
  100MOL0     C13685  10.214   5.464   8.370 -0.0204  0.1982  1.0601
  100MOL0     O13686  10.304   5.395   8.283 -0.1642  0.6555  0.4302
  100MOL0     C13687  10.433   5.375   8.319 -0.9582  0.2615  0.4151
  100MOL0     C13688  10.482   5.386   8.447  0.0248  0.2812  0.5716
  100MOL0     C13689  10.627   5.382   8.463  0.1136 -0.3887 -0.2011
  100MOL0     C13690  10.664   5.394   8.611 -0.4505 -0.2740  0.6712
  100MOL0     C13691  10.716   5.375   8.350 -0.4254 -0.1221  0.3929
  100MOL0     C13692  10.865   5.358   8.358 -0.0835 -0.1452  0.1942
  100MOL0     O13693  10.941   5.384   8.245 -0.6472 -0.4813 -0.6467
  100MOL0     C13694  11.069   5.335   8.238 -0.1560  0.4966 -0.1074
  100MOL0     C13695  11.089   5.258   8.120 -0.6138 -0.0931  0.8383
  100MOL0     C13696  11.217   5.201   8.104  0.2513  1.0386  0.4932
  100MOL0     C13697  11.332   5.231   8.177  0.2807 -0.5054 -0.7070
  100MOL0     O13698  11.447   5.179   8.141 -0.5053 -0.0728 -0.2912
  100MOL0     C13699  11.539   5.134   8.244 -1.4226 -0.5992 -0.1897
  100MOL0     C13700  11.671   5.075   8.188 -0.1997  0.0514 -0.5751
  100MOL0     C13701  11.769   5.064   8.304 -0.8535 -0.4689 -0.3670
  100MOL0     C13702  11.774   4.923   8.369  0.1944  0.0269  0.8581
  100MOL0     C13703  11.876   4.911   8.477 -0.1467 -0.1651 -1.0067
  100MOL0     C13704  12.024   4.949   8.448 -1.6863 -0.4979  0.1625
  100MOL0     C13705  12.081   4.872   8.330  0.8023 -0.4565  1.2424
  100MOL0     C13706  12.226   4.895   8.304 -0.6052  0.6241 -0.3660
  100MOL0    Cl13707  12.283   5.061   8.317  0.0454 -0.7160  0.4399
  100MOL0     C13708  11.305   5.306   8.291 -0.8550 -0.3528 -0.7990
  100MOL0     C13709  11.181   5.361   8.323  0.5205 -0.3185  0.1735
  100MOL0     O13710  10.905   5.296   8.459 -0.0689 -0.5800 -0.2691
  100MOL0     C13711  10.658   5.372   8.221  0.3483 -0.1760 -1.3838
  100MOL0     C13712  10.521   5.362   8.204  0.6128 -0.3993  0.3735
  100MOL0     N13713   9.854   5.761   8.220 -0.2254 -0.7169 -0.1440
  100MOL0     N13714   9.870   5.806   8.094 -0.2490 -0.1929 -1.1330
  100MOL0     C13715  10.535   4.957   7.328  0.0645  0.2973  0.2828
  100MOL0     C13716  10.542   4.853   7.231 -0.0949  0.2104 -0.8645
  100MOL0     C13717  10.520   4.757   6.801 -0.4197  0.4850  0.3032
  100MOL0     C13718  10.649   4.743   6.742 -0.2961 -0.3970  0.2467
  100MOL0     C13719  10.653   4.671   6.619  0.4918 -1.2081 -0.0770
  100MOL0     C13720  10.546   4.631   6.553 -0.6680  0.5823  0.2284
  100MOL0     O13721  10.560   4.562   6.431 -0.2401 -0.5633 -0.2902
  100MOL0     C13722  10.453   4.477   6.367 -0.3902 -0.6942 -0.5035
  100MOL0     C13723  10.522   4.395   6.267 -0.6467  0.7219  0.0392
  100MOL0     C13724  10.536   4.470   6.124  0.0847  0.7172 -0.2535
  100MOL0     C13725  10.630   4.381   6.034  0.2790  0.5584  0.4707
  100MOL0     C13726  10.554   4.284   5.949 -0.0811 -0.4857 -0.6040
  100MOL0     C13727  10.488   4.192   5.906  0.2807  0.2376 -0.0619
  100MOL0     C13728  10.425   4.652   6.606 -0.3508  0.2143  0.8470
  100MOL0     C13729  10.406   4.720   6.725  0.3411  0.5473  0.1175
  100MOL0     C13730  10.262   4.758   6.758  0.7043  0.5014 -0.3595
  100MOL0     H13731  10.219   4.883   7.124  1.0544  1.8737 -1.5609
  100MOL0     H13732  10.201   5.019   7.326  0.3471 -0.5279  2.3447
  100MOL0     H13733  10.251   5.032   7.572  1.7515 -1.1983  0.2436
  100MOL0     H13734  10.208   5.191   7.494  3.0739  3.4015 -0.9795
  100MOL0     H13735  10.238   5.171   7.749 -1.4920  1.1939 -0.7106
  100MOL0     H13736  10.420   5.191   7.703  0.6259  3.5517 -2.1606
  100MOL0     H13737  10.396   5.402   7.625 -0.7331  1.4761 -0.8786
  100MOL0     H13738  10.234   5.392   7.582  1.9877  0.7306 -1.0036
  100MOL0     H13739  10.194   5.346   7.843  1.3282 -1.2808  0.2604
  100MOL0     H13740  10.351   5.442   7.851 -1.6053  2.4079  1.9857
  100MOL0     H13741  10.122   5.569   7.700  0.0465 -3.0734 -0.8902
  100MOL0     H13742  10.290   5.622   7.724 -0.7123  1.6421  0.9570
  100MOL0     H13743  10.131   5.566   7.972  0.0065 -3.8541 -1.3510
  100MOL0     H13744  10.277   5.666   7.938  1.8613 -1.4549 -4.0817
  100MOL0     H13745  10.106   5.794   7.780 -3.0860 -2.4120 -2.4952
  100MOL0     H13746  10.108   5.831   7.963  0.0352 -0.2526 -0.4763
  100MOL0     H13747   9.882   5.814   7.837 -1.3264 -1.0900 -0.9685
  100MOL0     H13748   9.913   5.641   7.813 -4.7350  0.6614  0.1123
  100MOL0     H13749   9.854   5.484   8.059  1.0542  0.4200 -0.9502
  100MOL0     H13750   9.818   5.439   8.322  0.0049 -0.1536  0.3970
  100MOL0     H13751   9.769   5.593   8.414  3.5201  0.2291  4.0791
  100MOL0     H13752  10.011   5.643   8.431 -1.0322  0.6755 -0.9022
  100MOL0     H13753   9.971   5.478   8.484 -1.1404 -2.8535 -2.1535
  100MOL0     H13754  10.037   5.395   8.271  0.0530  1.6025 -1.3834
  100MOL0     H13755  10.101   5.555   8.212 -0.8485  0.6300 -0.3187
  100MOL0     H13756  10.280   5.543   8.406  4.3194 -1.4988 -2.2676
  100MOL0     H13757  10.177   5.398   8.450 -5.0334 -2.5861 -2.9432
  100MOL0     H13758  10.415   5.396   8.532 -0.3179  2.9311  0.0651
  100MOL0     H13759  10.574   5.376   8.670 -1.8683  1.0305 -0.9572
  100MOL0     H13760  10.694   5.499   8.616  1.1563 -0.5501 -1.3572
  100MOL0     H13761  10.742   5.329   8.651  0.4335  1.1392  1.3207
  100MOL0     H13762  11.016   5.242   8.041 -0.0417  0.8505  0.0891
  100MOL0     H13763  11.240   5.141   8.017 -0.6243 -2.0596  2.2410
  100MOL0     H13764  11.559   5.222   8.306 -1.3725 -1.8415  1.6467
  100MOL0     H13765  11.489   5.066   8.314  0.3129  0.8102  2.6006
  100MOL0     H13766  11.648   4.971   8.162  3.0969 -1.2658  1.1936
  100MOL0     H13767  11.719   5.129   8.105  0.9890  0.4173  0.3249
  100MOL0     H13768  11.738   5.138   8.378 -0.9640  1.1526 -1.9567
  100MOL0     H13769  11.869   5.095   8.270 -1.2983 -0.9413 -2.2187
  100MOL0     H13770  11.796   4.855   8.286  2.5042  0.8226  0.7442
  100MOL0     H13771  11.677   4.916   8.418 -0.9740 -0.0243 -1.3126
  100MOL0     H13772  11.850   4.949   8.576  0.9009  0.6365 -1.0315
  100MOL0     H13773  11.866   4.805   8.505 -2.3310 -0.1632 -1.5649
  100MOL0     H13774  12.083   4.921   8.535 -0.2013 -3.2800 -1.5921
  100MOL0     H13775  12.036   5.057   8.436  4.0384 -0.7131  1.4386
  100MOL0     H13776  12.030   4.924   8.248  2.9426  0.8983  0.6974
  100MOL0     H13777  12.065   4.764   8.337  1.6293 -0.6373  0.4947
  100MOL0     H13778  12.244   4.849   8.206 -0.5843  1.2976 -0.6787
  100MOL0     H13779  12.285   4.833   8.373  0.4497 -0.8427 -2.4652
  100MOL0     H13780  11.385   5.337   8.357  2.0344 -1.0495 -3.7411
  100MOL0     H13781  11.167   5.421   8.413  1.8612  0.1573  0.0995
  100MOL0     H13782  10.714   5.371   8.127  0.1689  0.9999 -1.5189
  100MOL0     H13783  10.480   5.343   8.105  0.7598 -2.8620  0.7167
  100MOL0     H13784  10.627   4.975   7.384 -0.0835 -0.0070  0.6248
  100MOL0     H13785  10.632   4.797   7.209  0.9280  1.1818  0.5906
  100MOL0     H13786  10.745   4.752   6.792 -0.6773 -0.9454  1.1160
  100MOL0     H13787  10.748   4.646   6.574  1.2496  2.3756 -0.8243
  100MOL0     H13788  10.417   4.411   6.447  2.7604 -1.8242  0.1169
  100MOL0     H13789  10.367   4.530   6.325 -0.5711 -0.7405 -0.1954
  100MOL0     H13790  10.468   4.302   6.247  0.2491  0.3067 -0.5084
  100MOL0     H13791  10.618   4.366   6.310 -2.6614 -2.2430  2.9695
  100MOL0     H13792  10.434   4.481   6.087  0.1279  1.3292 -0.2039
  100MOL0     H13793  10.578   4.569   6.146 -3.4230  1.9534  1.6754
  100MOL0     H13794  10.706   4.339   6.100 -1.1699  0.6349  2.2756
  100MOL0     H13795  10.677   4.449   5.962  1.2458  0.6281  1.1562
  100MOL0     H13796  10.447   4.104   5.859 -0.1842 -0.0487  0.8717
  100MOL0     H13797  10.344   4.646   6.534  0.4729 -0.2051 -0.0661
  100MOL0     H13798  10.207   4.789   6.669 -1.8639 -0.2524  0.8553
  100MOL0     H13799  10.201   4.683   6.810  2.5303 -0.8928 -0.1310
  100MOL0     H13800  10.267   4.841   6.829  0.8422 -0.3611  0.6671
  101MOL0     O13801   6.931  10.964   5.017  0.1390  0.1345  0.5775
  101MOL0     C13802   6.993  11.034   5.085 -0.0675 -0.0967  0.0406
  101MOL0     O13803   7.062  10.992   5.199 -0.7551  0.1806  0.0232
  101MOL0     C13804   7.051  10.862   5.248  0.3462  0.5244 -0.5434
  101MOL0     C13805   6.929  10.788   5.242  0.0072  0.2638 -0.2298
  101MOL0     C13806   6.917  10.658   5.293 -0.3879 -0.0971  0.0206
  101MOL0     C13807   7.030  10.593   5.345 -0.6206 -0.1532  0.6697
  101MOL0     O13808   7.037  10.464   5.392 -0.8723 -0.6069  0.2959
  101MOL0     C13809   6.957  10.359   5.341 -0.0489 -0.6800 -0.1856
  101MOL0     C13810   6.970  10.341   5.190  1.0004  0.1733 -0.6639
  101MOL0     C13811   6.873  10.214   5.164  0.2007 -0.1649 -0.0022
  101MOL0     C13812   6.899  10.141   5.023 -0.5037  1.0169  0.5688
  101MOL0     C13813   6.798  10.036   4.991  0.3667  0.7267 -0.6053
  101MOL0     C13814   6.825   9.978   4.856 -0.3760 -0.3290  0.1390
  101MOL0     C13815   6.725   9.881   4.815 -0.0456  0.2228  0.5925
  101MOL0     C13816   6.756   9.796   4.691 -1.1529 -0.1319 -0.0686
  101MOL0     N13817   6.875   9.711   4.702 -0.9544 -0.2332 -0.5176
  101MOL0     C13818   6.913   9.630   4.597 -0.9802  0.0927  0.5869
  101MOL0     C13819   7.020   9.565   4.645  0.9815  0.6395  0.0538
  101MOL0     C13820   7.088   9.470   4.555  0.8738 -0.0744 -0.4675
  101MOL0     C13821   7.127   9.522   4.416  0.6000 -0.0350 -0.1383
  101MOL0     C13822   7.242   9.439   4.353  0.2356  0.7004  1.0462
  101MOL0     C13823   7.203   9.292   4.314 -0.8447 -0.0981 -0.2893
  101MOL0     O13824   7.102   9.286   4.222  0.3597  0.4794  0.5984
  101MOL0     C13825   7.054   9.153   4.193 -1.1360 -0.1254 -0.0891
  101MOL0     C13826   7.023   9.050   4.286  0.3676  0.0976  0.3696
  101MOL0     C13827   7.001   8.918   4.240 -0.1326 -0.4191 -1.5699
  101MOL0     C13828   6.987   8.825   4.368 -0.0906  1.1464  0.2228
  101MOL0     C13829   6.991   8.886   4.107 -0.3497  0.1478  0.2991
  101MOL0     C13830   6.971   8.753   4.047  0.2474 -0.1258  0.4632
  101MOL0     O13831   6.929   8.657   4.126 -0.7943 -0.6111 -0.1171
  101MOL0     C13832   6.877   8.538   4.080  0.4344 -0.1567  0.6316
  101MOL0     C13833   6.936   8.463   3.982  1.2720  1.1262  0.2845
  101MOL0     C13834   6.876   8.342   3.947  0.9756  0.5952  0.2627
  101MOL0     C13835   6.778   8.283   4.036  0.3184  0.8038 -0.4146
  101MOL0     O13836   6.707   8.161   4.015 -0.3145  0.1840 -0.6630
  101MOL0     C13837   6.659   8.144   3.885 -0.0823 -1.0381 -0.5842
  101MOL0     C13838   6.511   8.080   3.887  0.1462  0.3155  0.5232
  101MOL0     C13839   6.508   7.972   4.001 -0.6621  0.8931 -0.3627
  101MOL0     C13840   6.461   7.835   3.957 -0.1198 -0.2498 -0.0798
  101MOL0     C13841   6.560   7.775   3.861 -0.4455  0.9072 -0.0147
  101MOL0     C13842   6.532   7.624   3.830 -1.0714 -0.6545 -0.0488
  101MOL0     C13843   6.394   7.605   3.775 -0.1882 -0.9366 -0.0042
  101MOL0     C13844   6.348   7.464   3.790  0.6697  0.3288 -0.2922
  101MOL0    Cl13845   6.273   7.437   3.958 -0.1488 -0.5501  0.3307
  101MOL0     C13846   6.736   8.351   4.141  0.6257 -0.6789  0.1587
  101MOL0     C13847   6.784   8.479   4.173  0.0361 -0.3264 -0.2979
  101MOL0     O13848   6.990   8.740   3.925 -0.2048  0.5329 -0.7079
  101MOL0     C13849   7.012   8.994   4.014 -0.7854  0.6255  0.1876
  101MOL0     C13850   7.050   9.123   4.055  0.3782  1.1347 -1.3146
  101MOL0     N13851   7.026   9.580   4.781  0.4820  0.8179 -0.7289
  101MOL0     N13852   6.956   9.682   4.812 -0.2985  0.6914  0.2735
  101MOL0     C13853   7.143  10.669   5.354  0.1006 -0.9573 -0.6306
  101MOL0     C13854   7.151  10.801   5.312 -0.3396 -0.2956 -0.3683
  101MOL0     C13855   7.021  11.177   5.045  1.4286  0.2886  0.7403
  101MOL0     C13856   7.117  11.258   5.099  0.7993 -0.2676 -0.8719
  101MOL0     C13857   7.118  11.396   5.073 -0.4544 -0.0171  0.4137
  101MOL0     C13858   7.033  11.459   4.988 -0.0852 -0.0195  0.5752
  101MOL0     O13859   7.022  11.592   4.972 -0.2218 -0.4347 -0.1136
  101MOL0     C13860   7.133  11.674   4.997 -0.5791 -0.1653 -0.7456
  101MOL0     C13861   7.138  11.782   4.890 -0.1366  0.0860 -0.1000
  101MOL0     C13862   7.055  11.898   4.933 -0.1258 -0.6580  0.2741
  101MOL0     C13863   7.130  11.992   5.033  0.1024 -0.2814 -0.1228
  101MOL0     C13864   7.045  12.111   5.059 -0.2252 -0.7943  0.7974
  101MOL0     C13865   6.976  12.196   5.113  0.3710  0.4870  1.0568
  101MOL0     C13866   6.946  11.381   4.925  0.0090  0.9604  0.1727
  101MOL0     C13867   6.941  11.242   4.946 -0.4070  0.6065 -0.0028
  101MOL0     C13868   6.841  11.163   4.861  0.3493 -0.6606  0.6775
  101MOL0     H13869   6.838  10.830   5.199  0.4115 -1.4546 -3.0533
  101MOL0     H13870   6.826  10.600   5.283  0.9799 -2.1912 -1.0175
  101MOL0     H13871   6.852  10.363   5.370 -0.4238 -1.2649 -1.3876
  101MOL0     H13872   7.005  10.268   5.379 -1.5698 -0.8492  1.4297
  101MOL0     H13873   6.917  10.423   5.142  0.3609  0.2837  0.1875
  101MOL0     H13874   7.077  10.335   5.168  1.0737 -0.7092 -0.1637
  101MOL0     H13875   6.889  10.134   5.238  5.9113 -2.2597 -2.9088
  101MOL0     H13876   6.765  10.233   5.162 -0.5158 -3.5138  0.4001
  101MOL0     H13877   6.890  10.217   4.945  0.4081  2.0548  1.4463
  101MOL0     H13878   7.000  10.100   5.037 -0.0205  2.7776  2.6038
  101MOL0     H13879   6.695  10.074   5.000 -0.6787 -2.2278  1.8471
  101MOL0     H13880   6.817   9.955   5.062  3.4566  1.5700 -0.3366
  101MOL0     H13881   6.811  10.062   4.788  0.7696 -0.5468 -0.3934
  101MOL0     H13882   6.929   9.944   4.851 -0.8204 -1.8011  0.4620
  101MOL0     H13883   6.639   9.941   4.784 -0.8646 -0.0892  2.1683
  101MOL0     H13884   6.706   9.818   4.902 -0.7739 -0.3129  0.0539
  101MOL0     H13885   6.673   9.726   4.676  0.2527 -1.5736 -1.5665
  101MOL0     H13886   6.763   9.855   4.599 -1.3770 -2.1939 -1.4967
  101MOL0     H13887   6.866   9.646   4.500 -1.7570 -0.0194  0.9336
  101MOL0     H13888   7.016   9.388   4.543  2.7365 -2.1166  1.6151
  101MOL0     H13889   7.177   9.427   4.602 -0.8471 -1.5970  1.6246
  101MOL0     H13890   7.046   9.513   4.343  0.6492  0.5234 -0.2646
  101MOL0     H13891   7.174   9.620   4.410 -1.5473  0.9575 -2.6923
  101MOL0     H13892   7.272   9.478   4.255  0.2989  0.4638  0.9691
  101MOL0     H13893   7.333   9.437   4.413  0.8919 -4.4957  0.3619
  101MOL0     H13894   7.286   9.244   4.262  1.1354  3.6462 -0.9261
  101MOL0     H13895   7.173   9.244   4.408  0.1686  0.4942  0.3512
  101MOL0     H13896   7.015   9.079   4.391 -0.3493  0.8449  0.1261
  101MOL0     H13897   6.988   8.892   4.454  2.1695 -1.9184  2.8195
  101MOL0     H13898   7.062   8.746   4.375 -1.6949 -0.4127  0.6311
  101MOL0     H13899   6.889   8.777   4.359 -0.2083  1.6940 -2.0628
  101MOL0     H13900   7.018   8.497   3.919  1.4116  2.0709  0.9570
  101MOL0     H13901   6.903   8.269   3.871 -0.4992  2.4398 -2.1499
  101MOL0     H13902   6.639   8.241   3.839  0.0179  0.5239  2.3835
  101MOL0     H13903   6.731   8.095   3.820 -0.9047 -1.3850 -1.2442
  101MOL0     H13904   6.443   8.157   3.925 -0.6300 -0.4833  0.7918
  101MOL0     H13905   6.470   8.030   3.799  0.0498 -2.6692  2.1378
  101MOL0     H13906   6.437   8.006   4.077 -0.5111 -1.8293  1.0992
  101MOL0     H13907   6.605   7.965   4.050 -0.8056  2.4989  0.2151
  101MOL0     H13908   6.370   7.846   3.897 -1.7884  1.2747  2.5486
  101MOL0     H13909   6.439   7.776   4.046 -2.7740 -2.1501 -1.8457
  101MOL0     H13910   6.576   7.829   3.767  1.4811  1.9802  0.8784
  101MOL0     H13911   6.655   7.773   3.914  0.2217 -0.3860 -1.1933
  101MOL0     H13912   6.544   7.570   3.924 -1.0396  0.7824  0.7894
  101MOL0     H13913   6.608   7.595   3.757 -0.3858  0.3639  0.2497
  101MOL0     H13914   6.392   7.625   3.667  1.4077  0.9097  0.2531
  101MOL0     H13915   6.312   7.658   3.823  0.4093 -1.3039  1.4712
  101MOL0     H13916   6.426   7.387   3.780 -0.6412 -1.8828  3.8755
  101MOL0     H13917   6.276   7.442   3.711 -0.8998  3.0228  0.2438
  101MOL0     H13918   6.661   8.318   4.212  0.7671 -0.9510  0.1806
  101MOL0     H13919   6.750   8.544   4.253  1.9172 -0.9538  1.0776
  101MOL0     H13920   7.022   8.971   3.909 -1.0660  0.0675  0.2750
  101MOL0     H13921   7.099   9.189   3.984  0.6231  0.1480 -2.0896
  101MOL0     H13922   7.225  10.629   5.412 -0.6865  0.5001  1.6198
  101MOL0     H13923   7.244  10.850   5.342 -1.1025 -0.6476  2.8994
  101MOL0     H13924   7.163  11.232   5.194 -0.8043  1.6746  0.5499
  101MOL0     H13925   7.180  11.454   5.140 -0.6330 -0.2135  0.7522
  101MOL0     H13926   7.123  11.716   5.098 -1.3629 -1.6832 -0.1611
  101MOL0     H13927   7.228  11.618   4.992 -0.4774  0.1174 -2.5635
  101MOL0     H13928   7.101  11.741   4.795  0.0568 -1.3893  0.4371
  101MOL0     H13929   7.242  11.811   4.877 -0.0955  0.1268  0.3029
  101MOL0     H13930   7.040  11.962   4.846  1.7281  3.5654  2.7666
  101MOL0     H13931   6.958  11.866   4.973 -0.7815  0.5362 -0.3283
  101MOL0     H13932   7.228  12.022   4.995  1.4803  0.1841  3.4974
  101MOL0     H13933   7.146  11.942   5.128  0.9942  0.1437 -0.0459
  101MOL0     H13934   6.912  12.275   5.147  1.4438  2.2288 -0.7545
  101MOL0     H13935   6.877  11.427   4.855  0.5494  0.0506 -1.0045
  101MOL0     H13936   6.883  11.068   4.828  0.9692 -1.6142  3.9116
  101MOL0     H13937   6.745  11.138   4.908 -1.2630 -1.6622 -2.7605
  101MOL0     H13938   6.804  11.220   4.775 -2.6638 -1.2900  1.4429
  102MOL0     O13939   2.755   3.174   5.966 -0.2909 -0.3809 -0.4062
  102MOL0     C13940   2.834   3.103   6.022 -1.0632  0.5304  1.2105
  102MOL0     O13941   2.822   3.048   6.140 -0.0834  0.4218 -0.6734
  102MOL0     C13942   2.696   3.038   6.192  0.5066  1.1225  0.5020
  102MOL0     C13943   2.699   3.035   6.329 -0.4883  0.0673 -0.2525
  102MOL0     C13944   2.588   2.991   6.402 -0.1917  0.2176 -0.7235
  102MOL0     C13945   2.472   2.951   6.335  0.5711 -0.5054 -0.4158
  102MOL0     O13946   2.355   2.927   6.400  0.5731 -0.9293 -0.4763
  102MOL0     C13947   2.342   2.957   6.540  0.4443  0.1130 -0.6008
  102MOL0     C13948   2.344   2.825   6.611  0.2770  0.6828  0.3046
  102MOL0     C13949   2.362   2.842   6.759  0.6045 -0.3390  0.6553
  102MOL0     C13950   2.234   2.859   6.832  0.9072 -0.0118  0.3766
  102MOL0     C13951   2.212   2.966   6.938 -0.0252  0.7010 -0.7479
  102MOL0     C13952   2.292   2.941   7.066  0.2145 -0.4306  0.3148
  102MOL0     C13953   2.289   3.053   7.171  0.4527 -0.8090  0.5266
  102MOL0     C13954   2.158   3.121   7.193  0.6494 -0.3535 -0.5131
  102MOL0     N13955   2.056   3.019   7.221 -0.8655  1.2857 -1.4432
  102MOL0     C13956   2.059   2.932   7.324 -0.5466  0.2534 -0.0886
  102MOL0     C13957   1.972   2.845   7.308 -0.1785  1.0418  0.1044
  102MOL0     C13958   1.947   2.714   7.375  0.1415  0.7340 -0.5543
  102MOL0     C13959   1.825   2.731   7.476 -0.1885 -0.4209  0.5726
  102MOL0     C13960   1.799   2.592   7.538 -1.0906  0.0843 -0.1900
  102MOL0     C13961   1.709   2.594   7.662 -0.0115 -0.3886 -0.4845
  102MOL0     O13962   1.683   2.465   7.715 -1.2722  0.3436 -0.1539
  102MOL0     C13963   1.766   2.407   7.809  0.5715  0.0353 -0.2722
  102MOL0     C13964   1.700   2.320   7.899 -0.1971  0.6978 -0.5483
  102MOL0     C13965   1.766   2.260   8.004 -1.1186 -0.0894 -0.3932
  102MOL0     C13966   1.681   2.170   8.094  0.8338  0.3615  0.3110
  102MOL0     C13967   1.914   2.275   8.006  0.3469  0.4933 -0.2322
  102MOL0     C13968   1.989   2.210   8.120  0.5729 -0.5834  1.2416
  102MOL0     O13969   2.122   2.229   8.104 -0.1939 -0.1643  0.6041
  102MOL0     C13970   2.215   2.158   8.179 -0.4490 -0.3042 -0.7950
  102MOL0     C13971   2.179   2.037   8.253  0.6182  0.3564  0.0516
  102MOL0     C13972   2.275   1.965   8.327  0.9323  0.2067  0.2667
  102MOL0     C13973   2.395   2.023   8.338  0.2685  0.0858 -0.2366
  102MOL0     O13974   2.483   1.945   8.416 -0.0306  0.1410 -0.4711
  102MOL0     C13975   2.628   1.947   8.421  0.5495  0.0124 -0.0548
  102MOL0     C13976   2.662   1.799   8.471 -0.0652 -0.8008  0.4468
  102MOL0     C13977   2.817   1.771   8.477 -0.3495 -0.4747  0.5807
  102MOL0     C13978   2.858   1.734   8.334 -0.2267  0.6252  0.3829
  102MOL0     C13979   3.010   1.707   8.326 -0.1311 -0.1138  0.2310
  102MOL0     C13980   3.042   1.682   8.181  0.1743  0.1816 -0.0814
  102MOL0     C13981   3.192   1.663   8.150  0.5156  0.3892 -0.3611
  102MOL0     C13982   3.266   1.795   8.133 -0.2281 -0.1642  0.0787
  102MOL0    Cl13983   3.436   1.754   8.081  0.1788 -0.1687 -0.0549
  102MOL0     C13984   2.434   2.134   8.263  0.1295 -0.3614  0.4348
  102MOL0     C13985   2.341   2.201   8.183 -0.3592 -0.3606  0.6788
  102MOL0     O13986   1.936   2.184   8.223  1.0631  0.2391  0.3390
  102MOL0     C13987   1.980   2.357   7.917 -0.2863 -0.9554  0.3056
  102MOL0     C13988   1.905   2.428   7.820 -0.2791 -0.5103  0.8660
  102MOL0     N13989   1.900   2.877   7.192  0.0079  0.5143  0.0339
  102MOL0     N13990   1.950   2.987   7.150  0.0644  0.2084  0.3022
  102MOL0     C13991   2.461   2.960   6.197 -0.6269 -0.0490 -0.6044
  102MOL0     C13992   2.581   2.998   6.126 -0.3911  0.6048 -0.4300
  102MOL0     C13993   2.959   3.063   5.954  0.1991 -0.2923  0.2991
  102MOL0     C13994   3.001   2.931   5.984  0.1786 -0.7421  0.4074
  102MOL0     C13995   3.106   2.871   5.917  0.6639 -0.8287  0.2622
  102MOL0     C13996   3.170   2.942   5.825 -0.2424  0.0536  0.2310
  102MOL0     O13997   3.277   2.876   5.767 -0.4975  0.0579 -0.8730
  102MOL0     C13998   3.394   2.956   5.732 -0.5529  0.6881 -0.1392
  102MOL0     C13999   3.500   2.851   5.692 -0.2938 -0.1230  0.5283
  102MOL0     C14000   3.617   2.935   5.643 -0.1694  0.7061  0.9185
  102MOL0     C14001   3.753   2.861   5.628  0.0419 -0.9670  0.9043
  102MOL0     C14002   3.747   2.735   5.551  1.5515 -0.2837  0.7722
  102MOL0     C14003   3.728   2.626   5.500 -0.0180  1.0945  1.0024
  102MOL0     C14004   3.136   3.085   5.797 -0.3656 -0.2979 -0.1898
  102MOL0     C14005   3.024   3.141   5.860  0.1964  0.1422  0.5832
  102MOL0     C14006   2.986   3.292   5.836  0.4363  0.1078  0.2034
  102MOL0     H14007   2.788   3.072   6.379 -1.4588  2.4785 -0.1642
  102MOL0     H14008   2.590   2.978   6.510 -2.0770 -1.4997 -0.8248
  102MOL0     H14009   2.249   3.014   6.546  1.1498  1.1698  2.3017
  102MOL0     H14010   2.421   3.009   6.595  0.4630 -2.2583  1.8266
  102MOL0     H14011   2.250   2.773   6.588 -0.0523  0.5658  1.7895
  102MOL0     H14012   2.433   2.775   6.570 -1.1089 -1.1619 -0.6117
  102MOL0     H14013   2.408   2.751   6.800 -1.7307 -1.4927  0.8424
  102MOL0     H14014   2.428   2.927   6.780 -0.3479  0.2025  1.5329
  102MOL0     H14015   2.162   2.898   6.760 -1.0412 -0.0592  2.1882
  102MOL0     H14016   2.192   2.765   6.871  0.7037 -0.4456 -0.8324
  102MOL0     H14017   2.105   2.980   6.958  0.2533  0.7400  0.8968
  102MOL0     H14018   2.245   3.056   6.886 -0.1893 -0.1806 -2.4281
  102MOL0     H14019   2.253   2.850   7.113  0.2534 -1.0033 -0.7260
  102MOL0     H14020   2.397   2.918   7.044  0.0386 -2.5965  1.4625
  102MOL0     H14021   2.370   3.124   7.155  1.8712 -2.2866  0.9439
  102MOL0     H14022   2.311   2.999   7.263 -2.7763 -4.9261 -0.7831
  102MOL0     H14023   2.155   3.194   7.274  0.0476 -0.6811 -0.2311
  102MOL0     H14024   2.149   3.175   7.098 -2.2971 -0.0999 -0.1767
  102MOL0     H14025   2.129   2.929   7.407  0.2246  1.6145 -0.6534
  102MOL0     H14026   2.032   2.686   7.438 -0.1950  1.1316  0.0903
  102MOL0     H14027   1.918   2.641   7.299 -1.6847  0.9807 -0.1398
  102MOL0     H14028   1.842   2.810   7.551 -0.2155 -0.0623  0.2053
  102MOL0     H14029   1.739   2.767   7.419 -0.1484 -1.1158  0.0643
  102MOL0     H14030   1.757   2.537   7.454 -0.5822  2.4975 -2.1201
  102MOL0     H14031   1.897   2.548   7.559  0.1574  2.3412 -0.9599
  102MOL0     H14032   1.735   2.663   7.742  1.1649 -1.1564 -0.1752
  102MOL0     H14033   1.608   2.625   7.632 -1.7892 -2.7389  2.4444
  102MOL0     H14034   1.592   2.315   7.898 -0.1598 -0.7930  0.5438
  102MOL0     H14035   1.725   2.074   8.122  0.1635  0.7470  3.0795
  102MOL0     H14036   1.585   2.143   8.048  0.8007 -2.7777  1.9673
  102MOL0     H14037   1.657   2.229   8.183 -0.5946  3.4143 -1.9345
  102MOL0     H14038   2.081   1.992   8.264  2.4501 -3.5554  3.3057
  102MOL0     H14039   2.274   1.867   8.374  2.3480  0.1021  0.1299
  102MOL0     H14040   2.665   1.960   8.319 -2.3356 -0.8891 -1.3133
  102MOL0     H14041   2.652   2.029   8.490 -0.9393  2.4744 -2.2272
  102MOL0     H14042   2.610   1.789   8.566 -1.0547  0.5165  0.0815
  102MOL0     H14043   2.605   1.727   8.412 -0.0531 -0.9868  0.6636
  102MOL0     H14044   2.842   1.694   8.550  1.0499 -1.0554 -0.4594
  102MOL0     H14045   2.872   1.860   8.507 -0.4155  0.1468 -1.0092
  102MOL0     H14046   2.835   1.814   8.263 -0.7438 -0.2593 -0.4734
  102MOL0     H14047   2.806   1.642   8.306  1.4977 -1.3462  3.1485
  102MOL0     H14048   3.073   1.793   8.350  2.1478 -1.9556  1.2441
  102MOL0     H14049   3.043   1.626   8.392 -2.4871 -0.3337  1.2491
  102MOL0     H14050   3.001   1.768   8.129  2.1085  0.7689 -0.7403
  102MOL0     H14051   2.981   1.595   8.154 -0.5811  0.1338  1.6469
  102MOL0     H14052   3.206   1.604   8.058  0.5122 -1.3181  0.6931
  102MOL0     H14053   3.225   1.598   8.232  0.6300 -1.2326 -1.6391
  102MOL0     H14054   3.275   1.842   8.232 -2.8669 -1.6159  1.0974
  102MOL0     H14055   3.232   1.868   8.058  1.8317  1.7764  0.9044
  102MOL0     H14056   2.536   2.171   8.270  0.1452  0.4889 -2.7889
  102MOL0     H14057   2.366   2.281   8.114  1.1179 -0.9276  0.4980
  102MOL0     H14058   2.086   2.380   7.913 -0.7883  2.7291  3.0488
  102MOL0     H14059   1.953   2.496   7.750 -1.6666  1.0366  1.3531
  102MOL0     H14060   2.365   2.939   6.150 -1.1586  1.2445 -0.1481
  102MOL0     H14061   2.586   2.993   6.018  1.6282  0.0881 -0.3547
  102MOL0     H14062   2.959   2.867   6.061  2.9156 -2.2458  0.8139
  102MOL0     H14063   3.146   2.776   5.954 -0.3468  0.0287  3.9721
  102MOL0     H14064   3.368   3.016   5.643 -0.1908  0.7157 -0.2285
  102MOL0     H14065   3.426   3.025   5.811 -0.7205 -1.8203  2.2348
  102MOL0     H14066   3.474   2.783   5.610  7.4730 -3.7283  0.1018
  102MOL0     H14067   3.517   2.787   5.779 -2.8574  0.5103  1.5960
  102MOL0     H14068   3.592   2.960   5.539 -3.0347 -3.3200  0.4181
  102MOL0     H14069   3.630   3.027   5.701  2.1594  0.9459  0.1214
  102MOL0     H14070   3.777   2.834   5.731 -1.2777 -0.5943  1.3375
  102MOL0     H14071   3.829   2.931   5.592 -1.4086  0.9955  1.4509
  102MOL0     H14072   3.685   2.539   5.455  0.8151  0.8440  0.6764
  102MOL0     H14073   3.197   3.144   5.729  0.2840 -0.6549  0.0790
  102MOL0     H14074   2.901   3.295   5.767  0.6248  2.0521  0.0135
  102MOL0     H14075   2.964   3.339   5.932  0.3206 -2.4528  1.5169
  102MOL0     H14076   3.073   3.344   5.796  2.1017 -0.4388  2.8609
  103MOL0     O14077   8.577   6.825   8.517  0.5361  0.1481  0.4528
  103MOL0     C14078   8.503   6.758   8.448  0.3851 -0.4342  0.4351
  103MOL0     O14079   8.373   6.731   8.477 -0.1420  0.5560  0.5935
  103MOL0     C14080   8.322   6.759   8.597  0.1734  1.2974  0.0074
  103MOL0     C14081   8.287   6.885   8.634  0.2311 -0.2306 -1.0750
  103MOL0     C14082   8.246   6.915   8.769  0.1521  0.9228  0.6794
  103MOL0     C14083   8.232   6.808   8.861  0.1386  0.3782  0.1099
  103MOL0     O14084   8.197   6.834   8.992 -0.4693  0.1378 -0.4617
  103MOL0     C14085   8.179   6.731   9.087  0.2393 -0.0171 -0.4471
  103MOL0     C14086   8.161   6.806   9.222  1.1760 -0.2242 -0.1562
  103MOL0     C14087   8.274   6.877   9.280  0.3268  0.3851  0.9979
  103MOL0     C14088   8.242   6.950   9.414  0.2249  0.8165 -0.8061
  103MOL0     C14089   8.269   6.852   9.536 -0.3907  0.1576  0.1637
  103MOL0     C14090   8.248   6.916   9.670 -0.0459  0.0781 -0.9300
  103MOL0     C14091   8.298   6.837   9.788 -0.4183 -0.4841  0.3763
  103MOL0     C14092   8.452   6.811   9.794  0.2468  0.3651  0.0996
  103MOL0     N14093   8.498   6.806   9.929  1.0088  0.7468  0.3727
  103MOL0     C14094   8.443   6.729  10.031  0.1972  0.1982  0.1333
  103MOL0     C14095   8.520   6.755  10.135  0.6790  0.2359 -0.8680
  103MOL0     C14096   8.487   6.690  10.278  0.6950 -0.9043  0.1454
  103MOL0     C14097   8.460   6.541  10.276  0.4996 -0.0401 -0.4566
  103MOL0     C14098   8.407   6.489  10.414 -0.1588  0.3655  0.6636
  103MOL0     C14099   8.270   6.550  10.439 -0.1340  0.0317 -0.2267
  103MOL0     O14100   8.217   6.472  10.547 -0.4710 -0.1669  0.0951
  103MOL0     C14101   8.100   6.509  10.604  0.3338  0.2222  0.6909
  103MOL0     C14102   8.065   6.446  10.726  0.3828 -0.1197 -0.1607
  103MOL0     C14103   7.934   6.464  10.782  0.4612 -0.5684 -0.4542
  103MOL0     C14104   7.897   6.400  10.909  0.4606  0.7437 -0.8105
  103MOL0     C14105   7.844   6.545  10.707  0.6321  0.0357  0.1244
  103MOL0     C14106   7.699   6.553  10.744  0.2104  0.6605 -0.0414
  103MOL0     O14107   7.620   6.583  10.637 -0.0629  0.0992 -1.0955
  103MOL0     C14108   7.484   6.587  10.652 -0.4750 -0.3588  0.9982
  103MOL0     C14109   7.415   6.496  10.572 -0.8690  0.2777  0.4162
  103MOL0     C14110   7.275   6.490  10.560  0.3814 -1.1302  0.4268
  103MOL0     C14111   7.201   6.588  10.630  0.7728  0.4406  0.2337
  103MOL0     O14112   7.061   6.576  10.628 -0.3344 -0.1508  0.0318
  103MOL0     C14113   6.991   6.674  10.539 -0.8356  0.7088  0.2180
  103MOL0     C14114   6.842   6.654  10.550  0.4997 -0.0004  0.0438
  103MOL0     C14115   6.801   6.522  10.473 -0.1944 -0.2706  0.4519
  103MOL0     C14116   6.800   6.401  10.555  0.4721  0.8452  0.1967
  103MOL0     C14117   6.729   6.287  10.481  0.4134 -0.0903  0.8901
  103MOL0     C14118   6.655   6.200  10.570 -0.6779  0.5892 -0.7596
  103MOL0     C14119   6.570   6.110  10.492  0.0980  0.1313 -0.2210
  103MOL0     C14120   6.544   5.991  10.577  1.6490  0.1396 -0.0154
  103MOL0    Cl14121   6.504   5.842  10.494  0.3991 -0.3458 -0.3985
  103MOL0     C14122   7.271   6.680  10.716 -0.1204 -0.4139 -0.0612
  103MOL0     C14123   7.415   6.686  10.723  0.9279  0.9130 -0.8011
  103MOL0     O14124   7.654   6.524  10.861  0.2798 -0.4523 -0.2806
  103MOL0     C14125   7.878   6.599  10.583 -1.1385  0.3959 -0.6086
  103MOL0     C14126   8.010   6.594  10.534  0.8406  0.6252  0.3515
  103MOL0     N14127   8.627   6.831  10.091  0.8962  0.0160  0.3915
  103MOL0     N14128   8.616   6.859   9.970 -0.0705  0.3792 -0.9018
  103MOL0     C14129   8.266   6.673   8.825  0.4808 -0.2832 -0.1231
  103MOL0     C14130   8.302   6.661   8.687  0.5032  0.4744 -0.5300
  103MOL0     C14131   8.563   6.676   8.339  0.8807 -0.1973 -0.2708
  103MOL0     C14132   8.478   6.585   8.272 -0.1138  0.6939 -0.9238
  103MOL0     C14133   8.516   6.514   8.165  0.1792  0.1767  1.6188
  103MOL0     C14134   8.651   6.525   8.120 -0.0858 -0.3569  0.7603
  103MOL0     O14135   8.709   6.465   8.012 -0.1464  0.1877  0.0509
  103MOL0     C14136   8.638   6.354   7.958 -1.0855  0.0870 -0.0773
  103MOL0     C14137   8.551   6.387   7.836 -0.6135 -0.5018  0.3854
  103MOL0     C14138   8.451   6.280   7.805 -0.2104  0.3825 -0.8677
  103MOL0     C14139   8.513   6.137   7.764  1.2343  0.2474 -0.2478
  103MOL0     C14140   8.628   6.149   7.660  0.4059  0.5767  0.7181
  103MOL0     C14141   8.708   6.161   7.572 -0.1556  0.5037 -0.3762
  103MOL0     C14142   8.730   6.624   8.180 -0.0336  0.7074 -0.2674
  103MOL0     C14143   8.702   6.690   8.295 -0.0985  0.9149 -0.0221
  103MOL0     C14144   8.798   6.787   8.360 -0.4242 -0.2780  0.1222
  103MOL0     H14145   8.298   6.971   8.569 -0.2841  3.1910  2.9921
  103MOL0     H14146   8.236   7.023   8.781  1.8677  1.0777  0.9726
  103MOL0     H14147   8.273   6.676   9.098  2.0070  2.7079 -0.9100
  103MOL0     H14148   8.093   6.667   9.064 -0.5310  0.9663 -0.3456
  103MOL0     H14149   8.083   6.876   9.190 -0.5758 -3.0058 -2.4309
  103MOL0     H14150   8.118   6.732   9.291 -1.3281  1.7518  0.5514
  103MOL0     H14151   8.353   6.801   9.287 -1.2215 -1.2022  1.9981
  103MOL0     H14152   8.304   6.951   9.204  0.7308 -2.4379 -1.8017
  103MOL0     H14153   8.301   7.040   9.429  1.3437 -0.3544  3.0221
  103MOL0     H14154   8.136   6.972   9.431  0.1924 -0.3302  0.6667
  103MOL0     H14155   8.376   6.832   9.525 -0.5902 -2.2200  1.7713
  103MOL0     H14156   8.211   6.764   9.507 -1.0238  1.6110 -3.5462
  103MOL0     H14157   8.303   7.011   9.671  3.2397 -1.5324 -3.8380
  103MOL0     H14158   8.142   6.937   9.684  0.2761  0.1209  2.0938
  103MOL0     H14159   8.256   6.736   9.782  1.1747 -1.1446 -0.0256
  103MOL0     H14160   8.269   6.881   9.884  2.5474 -1.9852  2.1054
  103MOL0     H14161   8.497   6.724   9.744 -0.5376 -1.6634  2.6875
  103MOL0     H14162   8.492   6.898   9.741 -0.3390  1.2671  1.0992
  103MOL0     H14163   8.360   6.659  10.032  1.0279 -0.8412 -0.8055
  103MOL0     H14164   8.392   6.734  10.311  0.7095 -0.7664  0.0038
  103MOL0     H14165   8.566   6.729  10.343  1.0908  2.2513 -2.0307
  103MOL0     H14166   8.384   6.511  10.203 -0.5527  0.2418  0.5043
  103MOL0     H14167   8.551   6.485  10.253  1.0405  0.7537 -0.2856
  103MOL0     H14168   8.396   6.380  10.416 -1.1868  0.4656  0.8953
  103MOL0     H14169   8.476   6.526  10.491  3.0054 -0.0981 -1.7211
  103MOL0     H14170   8.283   6.654  10.470 -0.2494  0.0264 -0.1597
  103MOL0     H14171   8.205   6.549  10.352 -0.5149 -1.8239  0.0402
  103MOL0     H14172   8.137   6.386  10.780  0.5315  1.5084  1.5424
  103MOL0     H14173   7.981   6.347  10.956 -0.7040  1.0069  1.7416
  103MOL0     H14174   7.820   6.324  10.894 -0.1056  1.2068 -0.3069
  103MOL0     H14175   7.871   6.473  10.986 -0.3288 -1.8011  1.4979
  103MOL0     H14176   7.483   6.435  10.515  0.4007  2.6172 -0.6910
  103MOL0     H14177   7.221   6.410  10.512  0.6289  1.2012 -4.2956
  103MOL0     H14178   7.011   6.772  10.583  0.7330  1.0760 -1.2221
  103MOL0     H14179   7.034   6.677  10.439  3.2099  1.9241  1.7917
  103MOL0     H14180   6.808   6.633  10.652  1.3594 -2.7585 -0.1490
  103MOL0     H14181   6.779   6.732  10.507 -1.9044 -2.2582 -0.7669
  103MOL0     H14182   6.852   6.500  10.379 -1.7298 -1.8136 -0.0800
  103MOL0     H14183   6.694   6.534  10.452 -0.2665 -3.5645 -1.6835
  103MOL0     H14184   6.743   6.414  10.648 -0.5797 -0.5496 -0.2187
  103MOL0     H14185   6.902   6.369  10.581 -1.1498 -3.5006  2.0954
  103MOL0     H14186   6.662   6.331  10.408  1.1394  0.3811  0.4927
  103MOL0     H14187   6.804   6.234  10.422  0.9139  0.7356  0.7647
  103MOL0     H14188   6.590   6.264  10.631 -2.6281 -2.0427  0.1164
  103MOL0     H14189   6.731   6.142  10.622 -2.0823  0.1648  0.9040
  103MOL0     H14190   6.617   6.059  10.409 -2.8281 -2.2040 -0.6262
  103MOL0     H14191   6.473   6.155  10.468  0.1785  0.9503  0.9138
  103MOL0     H14192   6.476   6.022  10.657  1.2231 -0.8903  0.0456
  103MOL0     H14193   6.633   5.962  10.633  2.2699  2.1946  0.1359
  103MOL0     H14194   7.204   6.744  10.772  0.1982  2.4184 -2.6257
  103MOL0     H14195   7.471   6.763  10.775  1.2846  0.1918 -0.0942
  103MOL0     H14196   7.809   6.661  10.525 -1.7810 -1.0143 -1.4129
  103MOL0     H14197   8.041   6.652  10.447 -0.6466  0.9594 -0.0008
  103MOL0     H14198   8.256   6.589   8.892  1.5541 -0.3468 -0.0244
  103MOL0     H14199   8.339   6.562   8.661  3.1559  0.9880  0.9963
  103MOL0     H14200   8.371   6.594   8.289  0.1662 -0.7484  2.2813
  103MOL0     H14201   8.433   6.457   8.123  1.9566  0.2746 -2.5841
  103MOL0     H14202   8.718   6.284   7.932  1.7957  3.4410 -0.9892
  103MOL0     H14203   8.577   6.305   8.035  0.2282 -0.8961  0.3802
  103MOL0     H14204   8.622   6.418   7.759 -0.9845  4.5422  1.7354
  103MOL0     H14205   8.503   6.484   7.847  3.1717  1.6218 -0.0563
  103MOL0     H14206   8.387   6.277   7.893 -1.3637 -0.2305 -1.7121
  103MOL0     H14207   8.369   6.297   7.735 -1.1011  1.2914  0.3711
  103MOL0     H14208   8.448   6.061   7.720  1.2978 -0.2236  0.4707
  103MOL0     H14209   8.545   6.096   7.860 -0.5771 -2.0196 -0.5292
  103MOL0     H14210   8.773   6.178   7.488  4.4590 -0.4260  2.6204
  103MOL0     H14211   8.834   6.635   8.151  0.4073 -2.9171 -0.5742
  103MOL0     H14212   8.765   6.889   8.338  1.5276  0.5082  0.5315
  103MOL0     H14213   8.806   6.768   8.467 -1.9028  0.8547  0.4589
  103MOL0     H14214   8.891   6.772   8.303 -1.8443 -0.2515 -2.3308
  104MOL0     O14215   7.801  11.478   6.381  0.5942 -0.4425 -0.7738
  104MOL0     C14216   7.692  11.491   6.437 -0.5251 -0.4024 -0.3368
  104MOL0     O14217   7.627  11.395   6.507  0.5948  0.0072 -0.0395
  104MOL0     C14218   7.666  11.270   6.490  0.7498 -0.2498  0.1745
  104MOL0     C14219   7.762  11.218   6.584 -0.4303 -0.4717  0.6047
  104MOL0     C14220   7.809  11.085   6.558 -0.2812 -0.4781 -0.2071
  104MOL0     C14221   7.771  11.017   6.437  0.1799 -0.3469 -0.6067
  104MOL0     O14222   7.821  10.894   6.399 -0.1378  1.1888 -0.6476
  104MOL0     C14223   7.928  10.833   6.473 -0.2507  0.8374 -0.2160
  104MOL0     C14224   7.883  10.748   6.594 -0.3160 -0.1609  0.3495
  104MOL0     C14225   7.827  10.607   6.547 -0.1098  0.3796 -0.1782
  104MOL0     C14226   7.686  10.619   6.478 -0.2080  0.5745  0.1441
  104MOL0     C14227   7.694  10.604   6.329  1.0060 -0.1354  0.4974
  104MOL0     C14228   7.564  10.664   6.259 -0.3507  0.2462 -0.9815
  104MOL0     C14229   7.434  10.602   6.320  0.0558 -1.0973 -0.5506
  104MOL0     C14230   7.307  10.674   6.278 -0.1555 -0.3904  0.2400
  104MOL0     N14231   7.298  10.805   6.354 -0.0922 -0.0772  0.1210
  104MOL0     C14232   7.211  10.820   6.458  0.4501 -0.5454 -0.3140
  104MOL0     C14233   7.175  10.951   6.464  0.8757 -0.6139  0.1840
  104MOL0     C14234   7.089  11.037   6.569 -0.1628  1.3661  0.5153
  104MOL0     C14235   7.016  10.954   6.674 -0.2437 -0.5540  0.0513
  104MOL0     C14236   6.893  11.028   6.731 -0.5565 -0.1720  0.5344
  104MOL0     C14237   6.832  10.933   6.832  0.2227 -0.6624 -0.1117
  104MOL0     O14238   6.759  10.833   6.771  0.8590  0.3883  0.6382
  104MOL0     C14239   6.622  10.863   6.757  0.3459 -0.1171 -1.4031
  104MOL0     C14240   6.583  10.913   6.636 -1.2457 -0.0462 -0.6449
  104MOL0     C14241   6.458  10.970   6.611 -1.2423 -0.1594 -0.4343
  104MOL0     C14242   6.439  11.024   6.475  0.5668  0.3320  0.0081
  104MOL0     C14243   6.363  10.962   6.714  0.1555 -0.6881 -0.1884
  104MOL0     C14244   6.216  11.008   6.707  0.3175 -0.3713  0.5840
  104MOL0     O14245   6.204  11.112   6.614  0.2794  0.3207  0.0468
  104MOL0     C14246   6.087  11.117   6.536 -0.1394 -0.4393 -0.5794
  104MOL0     C14247   6.046  11.239   6.484 -0.4055  0.6930  0.2001
  104MOL0     C14248   5.915  11.256   6.432 -0.3759  0.1147 -0.0082
  104MOL0     C14249   5.830  11.147   6.419 -0.0549 -0.5802 -0.6764
  104MOL0     O14250   5.701  11.168   6.369 -0.0470 -0.4023 -0.2900
  104MOL0     C14251   5.604  11.065   6.373  0.0092 -0.1099 -0.2065
  104MOL0     C14252   5.471  11.111   6.309 -0.7660  0.1811  0.5059
  104MOL0     C14253   5.399  11.211   6.390 -0.4244 -0.5789 -0.5942
  104MOL0     C14254   5.253  11.242   6.349 -0.0541 -0.4526  0.1642
  104MOL0     C14255   5.236  11.256   6.190 -0.0945 -0.3064  0.2373
  104MOL0     C14256   5.318  11.366   6.122  0.1570  0.1571 -0.2146
  104MOL0     C14257   5.236  11.492   6.113  0.0395 -0.7510  0.1818
  104MOL0     C14258   5.312  11.610   6.044  0.1216 -0.4759  0.1926
  104MOL0    Cl14259   5.471  11.641   6.122 -0.1979  0.0603  0.3313
  104MOL0     C14260   5.876  11.022   6.443 -0.2642  0.1694 -0.4617
  104MOL0     C14261   6.007  11.002   6.490 -0.2449 -0.2415 -0.5055
  104MOL0     O14262   6.129  10.975   6.789  0.1780 -0.5028 -0.8297
  104MOL0     C14263   6.402  10.924   6.844  0.3204  0.3817  0.0316
  104MOL0     C14264   6.533  10.877   6.864  0.0608 -0.2622  0.1078
  104MOL0     N14265   7.254  11.012   6.362 -0.1302  0.1022 -0.6403
  104MOL0     N14266   7.338  10.925   6.310 -0.6832  0.5605  0.1742
  104MOL0     C14267   7.664  11.065   6.360 -0.1717  0.8875  0.0315
  104MOL0     C14268   7.604  11.193   6.392 -0.6009 -0.2534  0.1610
  104MOL0     C14269   7.635  11.621   6.430 -0.5250 -0.0148 -0.5111
  104MOL0     C14270   7.543  11.657   6.535 -1.5931 -0.0488  0.5290
  104MOL0     C14271   7.475  11.780   6.530 -0.3055  0.1657 -0.1802
  104MOL0     C14272   7.494  11.867   6.430  0.4689 -0.0751  0.0903
  104MOL0     O14273   7.419  11.987   6.420 -0.4019  0.4566  0.0384
  104MOL0     C14274   7.380  12.048   6.550  0.6030 -0.5039 -0.5125
  104MOL0     C14275   7.335  12.197   6.519  0.0539  0.4137  0.8384
  104MOL0     C14276   7.213  12.216   6.425  0.3520 -0.0170  0.1118
  104MOL0     C14277   7.072  12.224   6.481  0.0424 -0.0982  0.4620
  104MOL0     C14278   7.068  12.305   6.605 -0.3542 -0.1584  0.9952
  104MOL0     C14279   7.052  12.381   6.692  0.2244  0.0098 -0.3331
  104MOL0     C14280   7.582  11.837   6.333 -0.3492  0.2053  0.4755
  104MOL0     C14281   7.656  11.715   6.326 -0.2342  0.0736  0.3792
  104MOL0     C14282   7.723  11.671   6.199  0.1542 -0.3706 -0.1313
  104MOL0     H14283   7.778  11.278   6.672  3.2328 -0.6578  0.2208
  104MOL0     H14284   7.864  11.027   6.632  0.1416 -0.2135 -0.3105
  104MOL0     H14285   8.007  10.905   6.497 -1.6718  2.3359  0.1263
  104MOL0     H14286   7.973  10.763   6.401  0.4851 -1.0124  1.8944
  104MOL0     H14287   7.974  10.722   6.649  0.9946  2.8517 -0.2271
  104MOL0     H14288   7.810  10.804   6.652 -1.3505 -2.3243  1.2605
  104MOL0     H14289   7.900  10.545   6.493 -0.0338 -2.4310  2.8214
  104MOL0     H14290   7.807  10.557   6.642  2.8718  1.1830  0.9621
  104MOL0     H14291   7.626  10.535   6.514 -1.7025  0.2285 -2.8733
  104MOL0     H14292   7.647  10.718   6.501 -2.2631 -0.4385  1.2408
  104MOL0     H14293   7.707  10.497   6.309 -0.7785 -0.6267  1.7743
  104MOL0     H14294   7.786  10.653   6.295  1.1704 -0.2917  0.7085
  104MOL0     H14295   7.570  10.772   6.280  2.9069  0.4513 -2.4097
  104MOL0     H14296   7.578  10.664   6.151  0.1094  2.2224 -0.9562
  104MOL0     H14297   7.434  10.586   6.428 -0.6288  0.4410 -0.2988
  104MOL0     H14298   7.431  10.499   6.284  0.6207 -1.6312  0.8423
  104MOL0     H14299   7.319  10.686   6.170 -1.0007  2.2264  0.3785
  104MOL0     H14300   7.220  10.614   6.307 -2.7057  2.2497 -1.4304
  104MOL0     H14301   7.172  10.737   6.516  1.6373 -0.5747  0.4842
  104MOL0     H14302   7.014  11.094   6.513 -1.3271 -2.0150 -1.6218
  104MOL0     H14303   7.152  11.114   6.616 -1.2881  2.0868  0.8959
  104MOL0     H14304   6.992  10.856   6.631  1.2617 -1.7873  1.8301
  104MOL0     H14305   7.086  10.926   6.753 -1.5958 -1.1690  1.0857
  104MOL0     H14306   6.920  11.124   6.777  0.6869  0.9084 -2.2421
  104MOL0     H14307   6.829  11.045   6.644  0.1405 -2.5174 -0.4945
  104MOL0     H14308   6.909  10.888   6.896 -0.9597  0.6823  2.4032
  104MOL0     H14309   6.785  10.999   6.906 -0.6610  2.0612 -2.8875
  104MOL0     H14310   6.663  10.917   6.563 -0.4059  0.7337  0.2902
  104MOL0     H14311   6.426  11.133   6.474 -3.6989 -0.0000  0.6852
  104MOL0     H14312   6.342  10.991   6.437  0.0543  1.3551  0.3854
  104MOL0     H14313   6.520  10.991   6.410  2.7441  2.0286  1.7055
  104MOL0     H14314   6.121  11.317   6.499  2.1077 -1.4576 -0.4229
  104MOL0     H14315   5.869  11.350   6.402 -2.2870 -0.8356 -0.1936
  104MOL0     H14316   5.643  10.969   6.337 -1.1879 -0.9364  0.6038
  104MOL0     H14317   5.587  11.040   6.479  0.0832 -3.2730 -0.8263
  104MOL0     H14318   5.501  11.153   6.212 -3.3402 -0.4889 -0.6723
  104MOL0     H14319   5.398  11.030   6.302 -0.4529 -0.3526  2.7488
  104MOL0     H14320   5.457  11.304   6.395 -0.0211 -0.8687  0.2361
  104MOL0     H14321   5.387  11.176   6.493 -1.8191 -1.6138 -1.0662
  104MOL0     H14322   5.220  11.331   6.404 -0.2142  1.6829 -3.0940
  104MOL0     H14323   5.192  11.159   6.386  0.8650 -1.4941 -0.5779
  104MOL0     H14324   5.258  11.160   6.140  0.1524 -1.0516  1.7242
  104MOL0     H14325   5.129  11.275   6.179 -0.3752 -1.4575  0.8436
  104MOL0     H14326   5.347  11.342   6.019  4.3696 -1.7957  1.1969
  104MOL0     H14327   5.416  11.368   6.171 -0.9868 -2.6302  2.5307
  104MOL0     H14328   5.189  11.512   6.210  0.4252 -2.4625  0.7609
  104MOL0     H14329   5.157  11.462   6.044 -0.4195  0.1823  0.2863
  104MOL0     H14330   5.248  11.697   6.065 -2.3058 -2.1670  0.1787
  104MOL0     H14331   5.326  11.578   5.941  1.0675 -2.6174  0.9420
  104MOL0     H14332   5.817  10.931   6.439 -0.5405  0.2577  0.9206
  104MOL0     H14333   6.046  10.905   6.516 -2.7216 -1.5399 -1.2721
  104MOL0     H14334   6.339  10.920   6.932 -1.0549 -2.3638 -0.9703
  104MOL0     H14335   6.557  10.835   6.961 -0.1601 -0.3552  0.1243
  104MOL0     H14336   7.620  11.003   6.283  0.1223  3.2154 -2.1223
  104MOL0     H14337   7.523  11.236   6.334 -1.4683  4.5528  4.3008
  104MOL0     H14338   7.519  11.587   6.614 -1.2975  0.2645  0.9031
  104MOL0     H14339   7.406  11.796   6.613  2.6084 -1.1677  2.7532
  104MOL0     H14340   7.288  12.011   6.596 -0.5538  2.4067 -0.2689
  104MOL0     H14341   7.464  12.038   6.619  0.3792 -0.3193 -0.2159
  104MOL0     H14342   7.425  12.242   6.475  0.8064 -0.9004  0.9731
  104MOL0     H14343   7.318  12.242   6.617 -0.8904  2.2103 -0.0977
  104MOL0     H14344   7.224  12.311   6.370  1.1458 -1.8234 -3.1455
  104MOL0     H14345   7.201  12.139   6.349 -0.0324  3.5141 -3.8150
  104MOL0     H14346   7.053  12.121   6.512 -1.1097 -0.4640 -1.3220
  104MOL0     H14347   6.994  12.251   6.409 -1.7654  1.3332  2.7798
  104MOL0     H14348   7.055  12.451   6.773 -3.3452  1.1394 -0.9744
  104MOL0     H14349   7.589  11.888   6.237 -2.2293 -1.5418 -0.6466
  104MOL0     H14350   7.830  11.653   6.210 -0.2691 -1.7036  2.3549
  104MOL0     H14351   7.670  11.584   6.159  1.9534 -1.8488  0.5697
  104MOL0     H14352   7.709  11.751   6.125 -0.9637 -0.9861 -0.6160
  105MOL0     O14353   0.922   2.148   9.420 -0.3939 -0.2590 -0.0713
  105MOL0     C14354   1.031   2.179   9.384 -0.6436 -0.2957 -0.1231
  105MOL0     O14355   1.079   2.187   9.252  0.1237  0.2498 -0.3332
  105MOL0     C14356   1.047   2.089   9.166 -0.1720 -0.0081  0.6820
  105MOL0     C14357   1.054   2.116   9.023  0.2866  0.3484  0.4518
  105MOL0     C14358   1.013   2.031   8.922  0.5354  0.3413 -0.1273
  105MOL0     C14359   0.985   1.898   8.957  0.6718  1.0289 -0.6804
  105MOL0     O14360   0.966   1.812   8.850 -0.1502 -0.9407 -0.4181
  105MOL0     C14361   0.994   1.678   8.871  1.1658  0.6690 -0.4207
  105MOL0     C14362   1.006   1.599   8.736 -1.2057 -0.1427  0.6866
  105MOL0     C14363   1.103   1.683   8.646  0.9680 -0.6221 -0.0695
  105MOL0     C14364   1.235   1.701   8.714 -0.2173 -0.8666  0.4426
  105MOL0     C14365   1.324   1.781   8.617 -0.4708  0.4049 -0.5561
  105MOL0     C14366   1.473   1.753   8.637 -0.1617  0.4439 -0.5676
  105MOL0     C14367   1.504   1.752   8.788 -0.4739  0.3589  0.3517
  105MOL0     C14368   1.657   1.729   8.795 -0.1396 -0.7179 -0.0422
  105MOL0     N14369   1.712   1.595   8.832  0.3360  0.1893 -0.6621
  105MOL0     C14370   1.732   1.551   8.960 -0.7234 -0.7205 -0.6186
  105MOL0     C14371   1.762   1.423   8.947  0.1271 -0.4565 -0.4649
  105MOL0     C14372   1.789   1.318   9.055 -0.4702  1.1720  0.6267
  105MOL0     C14373   1.666   1.256   9.123 -0.0740  0.1117  0.1918
  105MOL0     C14374   1.703   1.153   9.234  0.0623  0.3226  0.7693
  105MOL0     C14375   1.589   1.118   9.321 -0.0627  0.0958  0.1519
  105MOL0     O14376   1.541   1.224   9.399 -0.0797  0.6750  0.3244
  105MOL0     C14377   1.405   1.211   9.427  0.2898  0.3287 -0.1844
  105MOL0     C14378   1.332   1.094   9.460 -0.1441  0.2609 -0.3289
  105MOL0     C14379   1.196   1.094   9.486 -0.4029  0.0949  0.0002
  105MOL0     C14380   1.134   0.964   9.534 -0.5088 -0.2960 -0.1396
  105MOL0     C14381   1.119   1.205   9.480  0.5394 -0.1036  0.0257
  105MOL0     C14382   0.968   1.205   9.475  0.4905  0.5407  0.9771
  105MOL0     O14383   0.905   1.267   9.581 -0.8856 -0.0989 -0.1694
  105MOL0     C14384   0.771   1.303   9.579  0.8083 -0.0093  0.1149
  105MOL0     C14385   0.683   1.315   9.468 -0.1964 -0.4621  0.0731
  105MOL0     C14386   0.551   1.345   9.496 -0.1403  0.3356 -0.2190
  105MOL0     C14387   0.501   1.348   9.626  0.7417 -0.2275  0.6199
  105MOL0     O14388   0.366   1.361   9.653 -0.0851 -0.1656  0.4980
  105MOL0     C14389   0.322   1.375   9.780  0.4513 -0.6534 -0.8711
  105MOL0     C14390   0.173   1.343   9.771 -1.0672 -0.0138 -0.0500
  105MOL0     C14391   0.120   1.239   9.865  0.5814  0.7861 -0.2344
  105MOL0     C14392  -0.030   1.208   9.831  0.3588  0.3505 -0.4846
  105MOL0     C14393  -0.142   1.313   9.871 -0.6335  0.1240 -0.1533
  105MOL0     C14394  -0.282   1.274   9.817  0.5056 -0.5141  0.1131
  105MOL0     C14395  -0.400   1.372   9.860 -0.3977 -0.0304  0.2236
  105MOL0     C14396  -0.388   1.504   9.781 -0.0889 -0.4912 -0.2477
  105MOL0    Cl14397  -0.500   1.645   9.807  0.1978  0.1140  0.5796
  105MOL0     C14398   0.595   1.349   9.731  0.5233  0.2195  0.7792
  105MOL0     C14399   0.728   1.311   9.707  0.7097 -0.3401  0.1752
  105MOL0     O14400   0.913   1.149   9.377  0.1362  0.3101 -0.5998
  105MOL0     C14401   1.187   1.324   9.458 -0.3505  0.1819 -0.6924
  105MOL0     C14402   1.326   1.327   9.438 -0.3869 -0.3598 -0.3131
  105MOL0     N14403   1.758   1.387   8.813  0.3005  0.3190  0.3925
  105MOL0     N14404   1.728   1.491   8.741 -0.1800 -0.3600  0.6365
  105MOL0     C14405   0.993   1.857   9.099  0.5310 -0.6218  0.3253
  105MOL0     C14406   1.003   1.955   9.207  0.9905 -0.7900 -0.6324
  105MOL0     C14407   1.116   2.242   9.486  0.6059 -0.3806 -0.1065
  105MOL0     C14408   1.193   2.358   9.447  0.0681 -0.6220  0.0193
  105MOL0     C14409   1.274   2.422   9.533 -0.0317  0.4024  0.1801
  105MOL0     C14410   1.294   2.373   9.665 -0.5844 -0.0196 -0.2106
  105MOL0     O14411   1.376   2.426   9.758  0.4158 -0.0143 -0.6025
  105MOL0     C14412   1.464   2.536   9.719  0.1298 -0.6611  0.0793
  105MOL0     C14413   1.555   2.552   9.839  0.4727  0.0555  0.3532
  105MOL0     C14414   1.646   2.676   9.820 -0.2606  0.4515 -0.0821
  105MOL0     C14415   1.675   2.735   9.687 -0.0631 -0.0417  0.4054
  105MOL0     C14416   1.751   2.653   9.602  0.1128 -1.0138  0.3966
  105MOL0     C14417   1.814   2.570   9.553 -0.4116  0.0562 -0.9627
  105MOL0     C14418   1.203   2.272   9.721 -1.3351 -1.2400 -0.1955
  105MOL0     C14419   1.115   2.208   9.630 -0.3653 -0.6456 -0.7819
  105MOL0     C14420   1.027   2.094   9.682  0.6495 -0.7039 -0.2563
  105MOL0     H14421   1.100   2.209   8.989 -1.0232  1.3839  1.4269
  105MOL0     H14422   1.010   2.054   8.816  1.7549  0.4068 -0.1557
  105MOL0     H14423   0.914   1.632   8.929  2.8886 -1.0058  0.7394
  105MOL0     H14424   1.082   1.659   8.933 -0.8293  0.8928  2.7366
  105MOL0     H14425   1.049   1.500   8.755  2.2256  1.0244 -0.4024
  105MOL0     H14426   0.913   1.574   8.684  0.4500 -2.6825 -1.3042
  105MOL0     H14427   1.113   1.620   8.557 -0.7660 -2.8423  1.2123
  105MOL0     H14428   1.052   1.776   8.619  2.3054 -0.4236 -2.1168
  105MOL0     H14429   1.234   1.746   8.814 -2.7544 -1.8365  0.9289
  105MOL0     H14430   1.282   1.605   8.738 -0.5302 -1.0289  0.4182
  105MOL0     H14431   1.296   1.887   8.614 -0.2675  0.5563  1.3734
  105MOL0     H14432   1.301   1.740   8.519 -0.7475  2.2044 -1.2903
  105MOL0     H14433   1.496   1.657   8.591 -5.7924 -0.8273 -1.4576
  105MOL0     H14434   1.537   1.827   8.589 -2.5618  2.1044 -1.4107
  105MOL0     H14435   1.450   1.673   8.841  0.2248 -0.2509  0.1747
  105MOL0     H14436   1.473   1.850   8.824 -2.2344 -0.0020 -0.1075
  105MOL0     H14437   1.710   1.749   8.701  2.6526 -2.0314  1.1307
  105MOL0     H14438   1.698   1.793   8.874 -1.0083 -2.5273  1.9672
  105MOL0     H14439   1.732   1.618   9.046  1.0156 -0.0256 -1.1160
  105MOL0     H14440   1.840   1.369   9.137  1.4609 -2.5271  1.9779
  105MOL0     H14441   1.849   1.234   9.018  1.4947  2.7776 -0.0438
  105MOL0     H14442   1.597   1.331   9.165 -2.0278 -1.1763 -0.5724
  105MOL0     H14443   1.610   1.207   9.042  1.6582  1.0339 -1.6460
  105MOL0     H14444   1.742   1.072   9.171 -2.1655 -1.6258  1.7457
  105MOL0     H14445   1.771   1.198   9.306 -0.2581  1.1776  0.5447
  105MOL0     H14446   1.510   1.072   9.260  0.4868 -0.8767  0.1625
  105MOL0     H14447   1.621   1.050   9.400  0.8229 -1.1412 -1.2316
  105MOL0     H14448   1.386   1.001   9.477 -0.2614  0.6523  2.8866
  105MOL0     H14449   1.158   0.871   9.483  2.5258 -0.7638  1.9221
  105MOL0     H14450   1.024   0.971   9.533 -0.6552 -1.1632  2.5335
  105MOL0     H14451   1.163   0.941   9.637  0.3386 -0.0630 -0.3182
  105MOL0     H14452   0.728   1.304   9.370  1.3362 -0.5171  0.7513
  105MOL0     H14453   0.484   1.347   9.411  0.6079 -1.7738 -0.9333
  105MOL0     H14454   0.363   1.303   9.851 -1.4132  0.7860  1.8638
  105MOL0     H14455   0.341   1.481   9.799  1.2231 -0.5058 -2.3530
  105MOL0     H14456   0.119   1.436   9.790 -0.1438  0.1247  2.2054
  105MOL0     H14457   0.152   1.316   9.667 -1.2940  1.4904 -0.4110
  105MOL0     H14458   0.137   1.267   9.970  1.1246  0.0078 -0.0995
  105MOL0     H14459   0.182   1.149   9.858  2.8963  2.2424  0.2860
  105MOL0     H14460  -0.064   1.114   9.875  0.0132  0.0429 -1.3856
  105MOL0     H14461  -0.028   1.188   9.724  1.5419 -0.8420 -0.2680
  105MOL0     H14462  -0.143   1.312   9.980 -1.2083  0.2624 -0.1579
  105MOL0     H14463  -0.114   1.415   9.844 -3.0179  1.2753  1.4687
  105MOL0     H14464  -0.288   1.169   9.850  2.4313 -0.7266 -0.1289
  105MOL0     H14465  -0.268   1.271   9.709 -0.9989  0.1443 -0.1271
  105MOL0     H14466  -0.399   1.411   9.962 -1.6047  4.5207 -1.2449
  105MOL0     H14467  -0.490   1.333   9.812 -1.2670 -0.1759  1.9293
  105MOL0     H14468  -0.377   1.488   9.674 -3.0626 -0.4232 -0.6632
  105MOL0     H14469  -0.286   1.539   9.797  0.1425 -0.8405 -0.9233
  105MOL0     H14470   0.574   1.348   9.838  0.5829 -1.9062  0.8141
  105MOL0     H14471   0.802   1.295   9.784  0.4350 -1.4542  0.2246
  105MOL0     H14472   1.137   1.420   9.460  2.1433  1.6423  3.0526
  105MOL0     H14473   1.395   1.410   9.424  1.9290 -2.0767  0.2511
  105MOL0     H14474   0.964   1.760   9.138 -1.3755  1.3180  4.3209
  105MOL0     H14475   0.962   1.940   9.307 -4.7137 -1.5304 -2.6916
  105MOL0     H14476   1.206   2.393   9.345  1.2780 -1.8829 -0.3024
  105MOL0     H14477   1.327   2.508   9.494  1.1101 -0.0174  0.7470
  105MOL0     H14478   1.505   2.523   9.619 -5.5015  1.2629 -2.9406
  105MOL0     H14479   1.396   2.620   9.703  2.1231  0.7142 -1.6171
  105MOL0     H14480   1.612   2.460   9.846 -0.5469 -0.9245 -2.5160
  105MOL0     H14481   1.501   2.561   9.934 -0.6389  0.3751 -0.2811
  105MOL0     H14482   1.599   2.752   9.883  2.5216  1.0878  1.3744
  105MOL0     H14483   1.734   2.651   9.880 -1.5263  1.9799  2.5748
  105MOL0     H14484   1.726   2.831   9.700  1.9902 -1.1990  1.3525
  105MOL0     H14485   1.579   2.757   9.640 -0.2677  0.6079  1.1004
  105MOL0     H14486   1.863   2.484   9.511 -0.8778 -0.6441 -0.1238
  105MOL0     H14487   1.204   2.242   9.826 -0.7090 -0.1842  0.1190
  105MOL0     H14488   0.926   2.127   9.707  1.0600  0.0699  0.4308
  105MOL0     H14489   1.023   2.011   9.611  0.8624  0.1069 -1.2239
  105MOL0     H14490   1.067   2.057   9.778 -1.1870  2.2305  1.8095
  106MOL0     O14491   8.456   6.781   2.165  0.3464  0.1124  0.3734
  106MOL0     C14492   8.375   6.826   2.244 -0.3132  0.6716 -1.2262
  106MOL0     O14493   8.248   6.849   2.217 -0.2487 -0.3000  0.5592
  106MOL0     C14494   8.182   6.808   2.103 -0.7462 -0.7753  0.0946
  106MOL0     C14495   8.238   6.710   2.010  0.0555 -0.1654  0.3289
  106MOL0     C14496   8.159   6.682   1.895  1.0613  0.6072  0.4291
  106MOL0     C14497   8.033   6.740   1.871  0.5107  0.3978 -1.2189
  106MOL0     O14498   7.968   6.705   1.758 -0.2364 -0.4368  0.0164
  106MOL0     C14499   7.825   6.737   1.742  0.2630  0.1304 -0.5232
  106MOL0     C14500   7.767   6.657   1.624  0.6765  0.5429 -0.3417
  106MOL0     C14501   7.642   6.727   1.575 -0.1651 -0.2780 -0.1286
  106MOL0     C14502   7.601   6.659   1.442  0.2097  0.5415  0.2470
  106MOL0     C14503   7.540   6.767   1.361 -0.0163 -0.2191  0.5437
  106MOL0     C14504   7.490   6.727   1.221  0.0615  0.5307  0.8702
  106MOL0     C14505   7.602   6.691   1.130 -0.5462  0.1212  0.3410
  106MOL0     C14506   7.551   6.692   0.984 -0.5368  0.4197 -0.8486
  106MOL0     N14507   7.645   6.654   0.874  0.8131 -1.1025 -0.9731
  106MOL0     C14508   7.645   6.531   0.806 -0.3994  0.5249 -0.1856
  106MOL0     C14509   7.761   6.546   0.745  0.0770 -0.4395 -0.5787
  106MOL0     C14510   7.808   6.425   0.669  0.1688  0.2349  0.6956
  106MOL0     C14511   7.896   6.332   0.750  0.5376 -0.5525  1.7303
  106MOL0     C14512   7.961   6.223   0.666  0.6629  1.1653 -0.7244
  106MOL0     C14513   8.057   6.130   0.755  0.5559  0.0798  0.4971
  106MOL0     O14514   7.983   6.071   0.863  0.4842 -0.6134 -0.2211
  106MOL0     C14515   8.053   6.016   0.966  0.6152  0.0662 -0.4339
  106MOL0     C14516   8.190   6.010   0.988 -0.0915 -0.0247  0.1047
  106MOL0     C14517   8.253   5.957   1.106  0.4008 -0.4885 -0.2766
  106MOL0     C14518   8.406   5.969   1.119  0.1965  0.1234 -1.6712
  106MOL0     C14519   8.166   5.924   1.214  0.6564 -0.0655  0.1130
  106MOL0     C14520   8.211   5.894   1.347 -0.9094 -0.1763 -0.9941
  106MOL0     O14521   8.111   5.904   1.440  0.5281 -0.3420  0.4724
  106MOL0     C14522   8.134   5.840   1.562 -0.2346  0.6593 -0.5856
  106MOL0     C14523   8.116   5.700   1.575  0.0830  0.7978  0.1577
  106MOL0     C14524   8.135   5.645   1.699 -0.3795  0.0194  0.0780
  106MOL0     C14525   8.168   5.716   1.812  0.3874  0.6582  0.4527
  106MOL0     O14526   8.185   5.668   1.944  0.6340 -0.0955 -0.4044
  106MOL0     C14527   8.068   5.603   2.002  0.6473 -0.2994  0.4115
  106MOL0     C14528   8.001   5.675   2.122  0.6370 -0.0020 -1.1669
  106MOL0     C14529   7.950   5.810   2.065  0.0061  0.0664 -0.9133
  106MOL0     C14530   7.838   5.866   2.164  0.3196  0.5075  0.1315
  106MOL0     C14531   7.815   6.008   2.119  0.6582  0.0494 -0.3032
  106MOL0     C14532   7.713   6.072   2.217  0.7295  0.6525  0.5286
  106MOL0     C14533   7.667   6.210   2.169  1.1188 -0.0022  0.1450
  106MOL0     C14534   7.581   6.271   2.275  0.2498 -0.1625 -0.8461
  106MOL0    Cl14535   7.473   6.399   2.200  0.4274 -0.1969  0.0489
  106MOL0     C14536   8.200   5.844   1.796  0.1464  1.4221  0.2494
  106MOL0     C14537   8.177   5.910   1.674 -0.3865 -0.4275 -0.2104
  106MOL0     O14538   8.326   5.852   1.375 -0.7711  0.5204  0.1461
  106MOL0     C14539   8.027   5.930   1.190  0.0906  0.3542  0.1712
  106MOL0     C14540   7.972   5.978   1.072 -0.4525 -0.8128 -0.5046
  106MOL0     N14541   7.830   6.658   0.762  0.5234  0.1550  0.1305
  106MOL0     N14542   7.752   6.730   0.832 -0.1463  0.7972 -0.2436
  106MOL0     C14543   7.978   6.836   1.968 -0.5465  0.5646 -0.3133
  106MOL0     C14544   8.057   6.872   2.080 -0.1637  0.6463 -0.1711
  106MOL0     C14545   8.424   6.884   2.367 -0.4567 -0.4789 -0.1532
  106MOL0     C14546   8.356   6.995   2.420 -0.2968 -0.5315  0.2591
  106MOL0     C14547   8.415   7.074   2.521  0.2334  0.1793  0.9114
  106MOL0     C14548   8.528   7.028   2.589 -0.7581 -0.0486  0.2496
  106MOL0     O14549   8.591   7.106   2.690  0.0396 -0.1883 -0.8155
  106MOL0     C14550   8.507   7.176   2.786  0.9075  0.8970 -0.2958
  106MOL0     C14551   8.517   7.331   2.784  0.4581  0.6532 -0.0598
  106MOL0     C14552   8.661   7.381   2.797 -0.2138 -0.5322  0.3518
  106MOL0     C14553   8.691   7.399   2.935  0.5293 -0.7590 -0.5127
  106MOL0     C14554   8.705   7.279   3.017  0.4194  0.1802  0.2545
  106MOL0     C14555   8.704   7.182   3.086  0.5591  0.1486  0.2286
  106MOL0     C14556   8.599   6.923   2.537  0.6608  0.3983 -0.9530
  106MOL0     C14557   8.557   6.850   2.421  0.0880  0.2402  0.4382
  106MOL0     C14558   8.637   6.729   2.385 -1.1338  0.8749  0.4828
  106MOL0     H14559   8.324   6.643   2.016 -1.7637 -2.8282 -1.0765
  106MOL0     H14560   8.195   6.613   1.819 -2.3867  0.8921 -1.7074
  106MOL0     H14561   7.813   6.844   1.726  2.0978  0.3854 -0.3462
  106MOL0     H14562   7.774   6.704   1.833 -2.0813  1.9377 -1.0857
  106MOL0     H14563   7.840   6.648   1.543  1.1540 -0.2160  0.1561
  106MOL0     H14564   7.739   6.561   1.670  3.6724 -1.5117 -2.4030
  106MOL0     H14565   7.567   6.702   1.651 -0.7706 -0.3104 -0.7298
  106MOL0     H14566   7.671   6.831   1.561  1.7333 -0.7165  0.2060
  106MOL0     H14567   7.681   6.611   1.385  1.0109  3.0379 -0.8898
  106MOL0     H14568   7.522   6.584   1.450  0.3807  0.0675 -1.9181
  106MOL0     H14569   7.596   6.860   1.351  1.6284 -1.4902 -5.7482
  106MOL0     H14570   7.444   6.795   1.407 -0.8123 -1.2631 -0.4445
  106MOL0     H14571   7.424   6.641   1.216 -0.8590  1.2199 -4.1429
  106MOL0     H14572   7.428   6.812   1.192  0.9964  1.1737  0.6807
  106MOL0     H14573   7.650   6.596   1.156 -1.0504  0.0080  0.8817
  106MOL0     H14574   7.678   6.769   1.144  0.3610 -1.0325  2.2776
  106MOL0     H14575   7.460   6.630   0.988 -1.1079  1.2773  1.7298
  106MOL0     H14576   7.529   6.798   0.970  2.1301  1.1597  0.0416
  106MOL0     H14577   7.571   6.452   0.814 -2.4267  2.4051  1.1196
  106MOL0     H14578   7.861   6.465   0.582  1.7687 -3.7590 -0.3873
  106MOL0     H14579   7.724   6.377   0.618  0.6204  0.0359  0.1253
  106MOL0     H14580   7.977   6.390   0.796 -1.2814 -0.1901  4.7738
  106MOL0     H14581   7.833   6.293   0.831 -0.2618  0.1718  1.4701
  106MOL0     H14582   7.890   6.154   0.618  1.8417 -1.7318  1.3462
  106MOL0     H14583   8.019   6.270   0.587  3.4786  1.8340  1.5822
  106MOL0     H14584   8.088   6.050   0.687 -1.5752  1.1209 -1.8572
  106MOL0     H14585   8.142   6.191   0.788 -0.0354  1.5769 -0.6566
  106MOL0     H14586   8.261   6.058   0.921 -0.0531 -1.7148 -1.1201
  106MOL0     H14587   8.432   6.034   1.204 -1.5454 -2.6300  1.2127
  106MOL0     H14588   8.460   6.002   1.030  4.3735 -2.6420 -0.4457
  106MOL0     H14589   8.451   5.872   1.142 -3.6750 -1.8868 -1.7571
  106MOL0     H14590   8.093   5.627   1.498 -1.3820 -0.9460  2.1108
  106MOL0     H14591   8.118   5.539   1.713 -0.2278  0.2377  2.3537
  106MOL0     H14592   7.988   5.600   1.928 -0.0221  2.9086  0.8322
  106MOL0     H14593   8.086   5.498   2.028 -3.9756 -1.6565 -0.9961
  106MOL0     H14594   7.922   5.604   2.146  1.0890  0.2756  1.4082
  106MOL0     H14595   8.058   5.680   2.215 -1.6028 -0.7322  0.3050
  106MOL0     H14596   7.910   5.801   1.963  1.2305 -2.5584 -1.2659
  106MOL0     H14597   8.033   5.881   2.061 -0.0664  0.1811 -0.3970
  106MOL0     H14598   7.864   5.861   2.270 -1.8730 -0.9273  0.6670
  106MOL0     H14599   7.750   5.802   2.150 -0.7588  2.0320 -0.2832
  106MOL0     H14600   7.917   6.046   2.119  1.1939 -1.0380  2.9765
  106MOL0     H14601   7.771   6.009   2.019 -1.2240  0.7693  0.4964
  106MOL0     H14602   7.763   6.078   2.314  0.9853  0.0049  0.4391
  106MOL0     H14603   7.622   6.013   2.228  1.6384 -0.5605  1.9462
  106MOL0     H14604   7.600   6.206   2.082  1.1674  0.8316  0.0598
  106MOL0     H14605   7.755   6.271   2.144  0.3606  0.2221 -2.2783
  106MOL0     H14606   7.652   6.321   2.342 -2.2131  5.8851 -2.0431
  106MOL0     H14607   7.518   6.204   2.334  1.4699  0.5094  1.3306
  106MOL0     H14608   8.252   5.884   1.883  0.2065 -1.0274  1.4113
  106MOL0     H14609   8.210   6.014   1.675  2.5804 -1.2899  0.2079
  106MOL0     H14610   7.945   5.921   1.260 -3.3681  1.2108 -3.4091
  106MOL0     H14611   7.865   5.991   1.056 -0.8224  0.0699  2.1768
  106MOL0     H14612   7.885   6.888   1.948  0.5575  2.7215 -0.0466
  106MOL0     H14613   8.025   6.946   2.154 -0.6789 -1.3630  1.7319
  106MOL0     H14614   8.257   7.018   2.382 -1.5937  0.1371  3.6986
  106MOL0     H14615   8.363   7.158   2.565 -1.6063 -1.1192  1.2981
  106MOL0     H14616   8.403   7.151   2.763  0.9810 -2.4979  2.1596
  106MOL0     H14617   8.521   7.126   2.883 -1.4482 -1.4017 -1.0150
  106MOL0     H14618   8.451   7.366   2.863 -0.9493  0.2103 -0.9993
  106MOL0     H14619   8.482   7.365   2.686  0.4405  2.4367  0.5487
  106MOL0     H14620   8.735   7.319   2.745  1.4062  1.4066  0.1986
  106MOL0     H14621   8.661   7.482   2.755 -4.3939 -0.1104  0.9776
  106MOL0     H14622   8.615   7.465   2.977 -0.1550 -1.3520 -0.8041
  106MOL0     H14623   8.787   7.452   2.931 -1.3774  2.9610 -3.5378
  106MOL0     H14624   8.716   7.093   3.145 -0.7150  1.1364  2.0717
  106MOL0     H14625   8.687   6.887   2.590  0.0201 -0.6491 -0.5832
  106MOL0     H14626   8.716   6.766   2.319 -0.8432 -0.1910  0.2128
  106MOL0     H14627   8.672   6.685   2.479 -0.9438  1.4576  0.6875
  106MOL0     H14628   8.587   6.644   2.337  0.1906 -0.0906  0.7577
  107MOL0     O14629   8.596   4.860   0.885 -0.1093 -0.2213 -0.4166
  107MOL0     C14630   8.607   4.980   0.846  0.4631  0.6685  0.3691
  107MOL0     O14631   8.512   5.034   0.755 -0.1975  0.8453  0.4549
  107MOL0     C14632   8.476   4.969   0.638  0.6894  0.5437  0.8709
  107MOL0     C14633   8.356   5.026   0.579 -0.0275 -0.0531  0.2079
  107MOL0     C14634   8.299   4.974   0.467  0.0897 -0.1145  0.7935
  107MOL0     C14635   8.356   4.859   0.412 -1.0272 -0.3717 -0.3752
  107MOL0     O14636   8.307   4.805   0.296 -0.2481 -0.6204  0.0637
  107MOL0     C14637   8.177   4.767   0.300 -0.9317  0.0364  0.0815
  107MOL0     C14638   8.138   4.688   0.174  0.0464 -0.5614 -0.1425
  107MOL0     C14639   7.979   4.681   0.163 -0.7929 -0.4933  0.0526
  107MOL0     C14640   7.926   4.624   0.030 -0.2455 -0.1786  0.2067
  107MOL0     C14641   7.788   4.560   0.037  0.4234 -0.7861 -0.9849
  107MOL0     C14642   7.755   4.476  -0.079  0.0781  0.2351 -0.4951
  107MOL0     C14643   7.699   4.578  -0.185 -1.0735 -0.5898 -0.3276
  107MOL0     C14644   7.649   4.511  -0.311  0.1455  0.1416  0.0285
  107MOL0     N14645   7.750   4.451  -0.399  0.0079  0.5420 -0.9740
  107MOL0     C14646   7.727   4.342  -0.473 -0.7622 -0.2556  0.3943
  107MOL0     C14647   7.842   4.322  -0.540 -0.0336  0.5163 -0.4094
  107MOL0     C14648   7.882   4.197  -0.614  0.0911  0.0070 -0.4802
  107MOL0     C14649   7.967   4.226  -0.738 -0.3164 -0.3208 -0.4754
  107MOL0     C14650   8.000   4.108  -0.823 -0.2124 -0.3838  0.2943
  107MOL0     C14651   8.062   3.991  -0.741 -0.0685  0.3782  0.2546
  107MOL0     O14652   8.142   3.909  -0.833 -0.0552 -0.4660  0.2909
  107MOL0     C14653   8.206   3.797  -0.780  0.0146  0.1543 -0.3583
  107MOL0     C14654   8.318   3.749  -0.852  0.3913 -0.1507 -0.2231
  107MOL0     C14655   8.398   3.645  -0.797  0.5026 -0.3880 -0.7020
  107MOL0     C14656   8.525   3.602  -0.865  0.7950 -0.6874 -0.3854
  107MOL0     C14657   8.365   3.592  -0.671  0.4891  0.0931 -0.1374
  107MOL0     C14658   8.446   3.492  -0.606  0.2161  0.4231  0.1480
  107MOL0     O14659   8.534   3.544  -0.517  0.1513 -0.2874  0.1305
  107MOL0     C14660   8.602   3.446  -0.456 -0.9467  0.1782 -0.8619
  107MOL0     C14661   8.560   3.376  -0.342 -0.5756  1.2077 -0.2953
  107MOL0     C14662   8.643   3.271  -0.291 -0.0998 -0.5554 -0.3045
  107MOL0     C14663   8.782   3.249  -0.323  0.4232  0.2748 -2.0340
  107MOL0     O14664   8.864   3.152  -0.261  0.2697 -0.3703 -0.6801
  107MOL0     C14665   8.936   3.202  -0.145 -0.4879  0.3088 -0.2953
  107MOL0     C14666   8.862   3.176  -0.019  0.6579  0.0723 -0.9428
  107MOL0     C14667   8.928   3.209   0.111  0.1276 -0.3646 -0.8498
  107MOL0     C14668   8.989   3.356   0.100  0.7982  0.1396 -0.0769
  107MOL0     C14669   9.037   3.402   0.241  0.0180 -0.3335 -0.0967
  107MOL0     C14670   9.166   3.323   0.289  0.0748  0.7056  0.4059
  107MOL0     C14671   9.237   3.388   0.409  0.5157 -0.3769 -0.0101
  107MOL0     C14672   9.355   3.301   0.453 -0.3831 -0.0952  0.1819
  107MOL0    Cl14673   9.466   3.409   0.552 -0.2293 -0.1112 -0.3222
  107MOL0     C14674   8.827   3.327  -0.433 -0.3325 -0.2221 -0.2397
  107MOL0     C14675   8.738   3.431  -0.497 -0.3227  1.0499  0.5003
  107MOL0     O14676   8.414   3.371  -0.625  1.1483 -0.1560 -0.8455
  107MOL0     C14677   8.244   3.632  -0.606 -0.7571  0.0675 -0.0505
  107MOL0     C14678   8.177   3.736  -0.654  0.8730 -0.0638 -0.2583
  107MOL0     N14679   7.927   4.423  -0.511  0.0464  0.0175 -0.4739
  107MOL0     N14680   7.874   4.502  -0.424  0.1745 -0.7850 -0.2644
  107MOL0     C14681   8.472   4.797   0.469 -1.1349 -0.5207 -0.8684
  107MOL0     C14682   8.539   4.855   0.579  0.0370  0.5339 -0.0860
  107MOL0     C14683   8.690   5.084   0.913  0.2341  0.0623 -0.8050
  107MOL0     C14684   8.693   5.213   0.861  0.3355  0.6151  0.3937
  107MOL0     C14685   8.771   5.323   0.925 -0.5395  0.7320 -1.0354
  107MOL0     C14686   8.846   5.288   1.042 -0.4999 -0.4842  0.1691
  107MOL0     O14687   8.911   5.376   1.121 -0.1931 -0.1783  0.6710
  107MOL0     C14688   8.911   5.521   1.088  0.6924  0.3345  0.5664
  107MOL0     C14689   8.779   5.596   1.112  0.4567  0.0859 -0.4704
  107MOL0     C14690   8.787   5.636   1.259  1.5947 -0.1096  0.6906
  107MOL0     C14691   8.672   5.740   1.287 -0.8805  0.5030 -0.2556
  107MOL0     C14692   8.724   5.863   1.224  0.1257  0.8454 -0.1970
  107MOL0     C14693   8.787   5.962   1.200  0.7018 -1.1994 -0.0164
  107MOL0     C14694   8.836   5.158   1.090 -0.4246  0.1658  0.3857
  107MOL0     C14695   8.748   5.062   1.037  0.6643  1.3796 -0.4586
  107MOL0     C14696   8.729   4.934   1.123 -0.6624  0.3254 -0.6977
  107MOL0     H14697   8.326   5.116   0.631  0.7784  2.2417 -3.0108
  107MOL0     H14698   8.205   5.019   0.436 -0.6454  0.2406  3.3206
  107MOL0     H14699   8.117   4.857   0.322  0.2393  1.2011 -1.2987
  107MOL0     H14700   8.176   4.689   0.376  3.2419 -1.1805 -0.8839
  107MOL0     H14701   8.191   4.731   0.089  1.2578  2.5645  2.0386
  107MOL0     H14702   8.179   4.587   0.170 -2.7209 -1.9211  1.9871
  107MOL0     H14703   7.945   4.627   0.251  0.9082  1.1458  1.8063
  107MOL0     H14704   7.935   4.779   0.183  0.6194 -0.2285  2.1293
  107MOL0     H14705   7.929   4.712  -0.035 -0.2483 -1.3603 -1.4515
  107MOL0     H14706   7.988   4.545  -0.013 -0.1703 -1.4034  2.3920
  107MOL0     H14707   7.709   4.635   0.053  1.9887  0.4580  1.4722
  107MOL0     H14708   7.799   4.492   0.122 -1.1407  2.7617  2.3543
  107MOL0     H14709   7.843   4.421  -0.112  0.7997  0.5956  0.7837
  107MOL0     H14710   7.673   4.414  -0.041 -1.2150  2.5302  0.6900
  107MOL0     H14711   7.775   4.649  -0.218  1.4625 -2.0105  2.0199
  107MOL0     H14712   7.614   4.638  -0.154 -2.8681 -2.7278 -0.8757
  107MOL0     H14713   7.588   4.425  -0.284  1.5848 -0.4661  1.5308
  107MOL0     H14714   7.581   4.579  -0.364 -2.2523 -0.7685  1.8187
  107MOL0     H14715   7.640   4.277  -0.468 -0.4974 -0.5187  2.8139
  107MOL0     H14716   7.786   4.168  -0.657  1.1167 -1.8616 -1.6608
  107MOL0     H14717   7.934   4.120  -0.555  2.6350  0.7635 -1.5940
  107MOL0     H14718   7.907   4.286  -0.807  0.4149  1.0539  0.0477
  107MOL0     H14719   8.065   4.267  -0.712 -0.5201  0.8636 -1.4676
  107MOL0     H14720   7.901   4.087  -0.866 -0.1115  0.2987 -0.2976
  107MOL0     H14721   8.061   4.139  -0.908  1.1451 -0.2033  1.3069
  107MOL0     H14722   8.129   4.018  -0.659 -0.2360  1.2880  0.1048
  107MOL0     H14723   7.984   3.935  -0.691 -1.2855  2.6605  1.0740
  107MOL0     H14724   8.359   3.786  -0.946  3.0291 -0.9849  0.4930
  107MOL0     H14725   8.522   3.495  -0.889  2.5281 -0.1576 -3.5275
  107MOL0     H14726   8.604   3.621  -0.792  1.5490  1.7423 -1.7348
  107MOL0     H14727   8.554   3.658  -0.954 -1.7066  1.9357  0.3096
  107MOL0     H14728   8.462   3.392  -0.298  1.5268  2.1517  4.7805
  107MOL0     H14729   8.601   3.205  -0.215  0.4515 -0.3708  0.1686
  107MOL0     H14730   9.034   3.156  -0.135 -0.5894  0.5180  2.4365
  107MOL0     H14731   8.941   3.310  -0.161 -0.0056  0.0169 -2.4789
  107MOL0     H14732   8.764   3.224  -0.014 -0.8090 -2.7712  1.0518
  107MOL0     H14733   8.833   3.070  -0.016 -1.5464  0.6444  1.8050
  107MOL0     H14734   9.012   3.140   0.120 -0.2249 -0.5035  2.2469
  107MOL0     H14735   8.861   3.196   0.196  1.2031  0.9538  0.2500
  107MOL0     H14736   8.911   3.426   0.069  2.6122  1.9210 -0.7897
  107MOL0     H14737   9.065   3.358   0.022 -0.8248  0.9271 -1.6961
  107MOL0     H14738   9.066   3.505   0.260  0.7133 -0.3431 -1.0086
  107MOL0     H14739   8.951   3.374   0.303  1.2177  0.4212  2.0008
  107MOL0     H14740   9.241   3.331   0.210 -3.1723  0.9378 -2.9250
  107MOL0     H14741   9.142   3.220   0.318 -0.5560  0.3877 -1.1560
  107MOL0     H14742   9.155   3.394   0.481  0.5561 -0.2336  0.0232
  107MOL0     H14743   9.271   3.489   0.385  0.3593  0.6650  3.6011
  107MOL0     H14744   9.405   3.275   0.359  1.4241  1.7668  0.5482
  107MOL0     H14745   9.336   3.208   0.508  0.5684 -0.3696  0.0717
  107MOL0     H14746   8.924   3.320  -0.483 -0.9564 -0.4616 -1.4474
  107MOL0     H14747   8.781   3.488  -0.578 -1.9186 -1.1474 -2.0753
  107MOL0     H14748   8.223   3.585  -0.511  1.6959 -1.7825 -0.3021
  107MOL0     H14749   8.096   3.762  -0.586  0.1326 -1.8444 -0.4032
  107MOL0     H14750   8.512   4.709   0.419  1.4522 -1.1758  2.0077
  107MOL0     H14751   8.626   4.819   0.634  1.3314  2.1826 -0.9747
  107MOL0     H14752   8.655   5.245   0.765  0.9581  1.3715  0.3893
  107MOL0     H14753   8.772   5.422   0.880 -1.9218  1.7284  1.0005
  107MOL0     H14754   8.994   5.567   1.144  1.6367  0.5341 -0.9294
  107MOL0     H14755   8.920   5.539   0.980 -1.5501 -0.5438  0.1888
  107MOL0     H14756   8.689   5.541   1.084  1.9566 -2.3352 -0.8746
  107MOL0     H14757   8.767   5.686   1.050  0.8658 -0.4764 -1.3793
  107MOL0     H14758   8.762   5.550   1.322 -0.3805  1.2524  1.8642
  107MOL0     H14759   8.885   5.675   1.285  1.4794 -0.5018  1.7400
  107MOL0     H14760   8.664   5.756   1.395 -1.6221 -0.8645 -0.0891
  107MOL0     H14761   8.573   5.719   1.247 -0.4716 -1.8216 -0.1935
  107MOL0     H14762   8.832   6.059   1.189 -3.3156  0.8579 -0.5897
  107MOL0     H14763   8.886   5.146   1.186  2.2727  1.8358 -0.7000
  107MOL0     H14764   8.780   4.850   1.075  2.5707  3.1060 -2.4878
  107MOL0     H14765   8.770   4.934   1.225 -2.5834 -4.0185  0.3175
  107MOL0     H14766   8.623   4.906   1.120 -0.0903 -2.2862  0.4128
  108MOL0     O14767   2.895   7.140   4.986 -0.1958 -0.0713 -0.1700
  108MOL0     C14768   2.878   7.162   5.112 -0.8590 -0.0383  0.1033
  108MOL0     O14769   2.785   7.241   5.161  0.2997  0.2491  0.6248
  108MOL0     C14770   2.682   7.286   5.076  0.7923 -0.0776  0.0691
  108MOL0     C14771   2.712   7.401   5.005  0.4115 -0.8911  0.7969
  108MOL0     C14772   2.616   7.447   4.910 -0.5434 -0.3347  0.1941
  108MOL0     C14773   2.491   7.384   4.891  0.0847 -0.0835  0.2321
  108MOL0     O14774   2.401   7.433   4.803  0.7095 -0.0007  0.0832
  108MOL0     C14775   2.356   7.569   4.808 -0.3022 -0.0606  0.0065
  108MOL0     C14776   2.242   7.591   4.908 -0.0303  0.6661  0.6541
  108MOL0     C14777   2.290   7.671   5.033  0.7445 -0.4517  0.9150
  108MOL0     C14778   2.182   7.697   5.136  0.6149  0.0457 -0.5360
  108MOL0     C14779   2.221   7.777   5.262 -0.1184  0.3964  1.0938
  108MOL0     C14780   2.108   7.777   5.366  0.6730 -0.3337  0.0640
  108MOL0     C14781   2.132   7.789   5.521  0.6112 -0.6547 -0.4891
  108MOL0     C14782   2.177   7.668   5.587 -0.8674  0.3826  0.3990
  108MOL0     N14783   2.192   7.670   5.730 -0.5506  0.4122  0.1016
  108MOL0     C14784   2.093   7.696   5.820 -0.7931 -0.9276  0.6603
  108MOL0     C14785   2.155   7.698   5.942 -0.1981 -0.7688 -0.0074
  108MOL0     C14786   2.104   7.728   6.083 -0.5401 -1.0309  0.0723
  108MOL0     C14787   2.184   7.827   6.165 -0.3026  0.5198  1.0727
  108MOL0     C14788   2.109   7.876   6.287  0.8050  0.6005  0.4430
  108MOL0     C14789   2.181   7.985   6.373 -0.3690 -0.1741 -0.3485
  108MOL0     O14790   2.304   7.929   6.425 -0.5600 -0.2820  0.2393
  108MOL0     C14791   2.386   8.013   6.496  0.0849 -0.3255 -0.1921
  108MOL0     C14792   2.528   8.012   6.474  0.2857  0.4555 -0.6153
  108MOL0     C14793   2.623   8.076   6.557  0.3231  0.4500  0.3378
  108MOL0     C14794   2.760   8.031   6.536  0.7727 -0.3816  0.0610
  108MOL0     C14795   2.575   8.151   6.668 -0.3966 -0.4670  0.4023
  108MOL0     C14796   2.670   8.240   6.746 -0.4449 -0.2909 -0.4145
  108MOL0     O14797   2.626   8.296   6.855 -0.5571 -0.4665 -0.0979
  108MOL0     C14798   2.726   8.342   6.942  0.2518 -0.1370  0.2080
  108MOL0     C14799   2.835   8.264   6.985 -0.4405 -0.0943 -0.4539
  108MOL0     C14800   2.949   8.327   7.049 -0.8628  0.1954 -0.8773
  108MOL0     C14801   2.949   8.466   7.087  0.5567  0.8958 -0.8593
  108MOL0     O14802   3.052   8.504   7.169  0.1473 -0.5938  0.4542
  108MOL0     C14803   3.033   8.595   7.272 -0.0346 -0.1272  0.2366
  108MOL0     C14804   3.115   8.719   7.243  0.7202 -0.5136 -0.6195
  108MOL0     C14805   3.108   8.824   7.361  0.6241 -0.1194  0.4783
  108MOL0     C14806   3.118   8.967   7.299  0.4641 -0.9794  0.2830
  108MOL0     C14807   3.151   9.079   7.407  0.3119 -1.1915  0.5940
  108MOL0     C14808   3.139   9.227   7.354  0.7343 -0.8600 -0.2610
  108MOL0     C14809   3.258   9.260   7.273 -0.3400  0.1675  0.0491
  108MOL0     C14810   3.254   9.411   7.224  0.1963 -0.5028 -0.6680
  108MOL0    Cl14811   3.294   9.530   7.355  0.1381  0.4933  0.4287
  108MOL0     C14812   2.841   8.537   7.050 -0.1776 -0.9310  0.1240
  108MOL0     C14813   2.737   8.476   6.979 -0.0301 -0.2022  0.0902
  108MOL0     O14814   2.782   8.266   6.689  1.0738  0.3347  1.3942
  108MOL0     C14815   2.436   8.151   6.689  0.6986 -0.0646 -0.0380
  108MOL0     C14816   2.346   8.087   6.606  0.0510  0.0597 -0.2739
  108MOL0     N14817   2.284   7.651   5.932 -0.4264 -0.0802 -0.3070
  108MOL0     N14818   2.302   7.633   5.807  0.1204 -0.1003  0.0112
  108MOL0     C14819   2.467   7.267   4.966  0.0147 -0.6116 -0.1315
  108MOL0     C14820   2.557   7.221   5.064  0.0403  0.8724  0.4367
  108MOL0     C14821   2.975   7.101   5.196  0.7537  0.8939 -0.0628
  108MOL0     C14822   3.041   7.182   5.296 -0.0838  0.2907 -0.4212
  108MOL0     C14823   3.135   7.122   5.380 -0.5837  1.1277  0.2806
  108MOL0     C14824   3.165   6.980   5.366 -0.1721  0.0221  0.1756
  108MOL0     O14825   3.259   6.918   5.443 -0.1008 -0.4205  0.1372
  108MOL0     C14826   3.249   6.909   5.589  0.1151  0.3085 -0.4076
  108MOL0     C14827   3.393   6.864   5.629 -0.2015 -1.0461 -0.2321
  108MOL0     C14828   3.412   6.721   5.661  0.2131  0.8872 -0.5533
  108MOL0     C14829   3.400   6.617   5.555  0.5825 -0.6913  0.2946
  108MOL0     C14830   3.500   6.628   5.439  0.1819  0.2297  0.2529
  108MOL0     C14831   3.595   6.636   5.365 -0.2568 -0.4332 -0.6952
  108MOL0     C14832   3.091   6.899   5.271 -0.8472 -0.0265 -0.6097
  108MOL0     C14833   3.002   6.961   5.185  0.2521 -0.0432  0.2798
  108MOL0     C14834   2.917   6.871   5.103  0.5570  1.1230  0.2248
  108MOL0     H14835   2.806   7.455   5.011 -0.4286  0.5420  1.7302
  108MOL0     H14836   2.648   7.531   4.849  0.0768 -1.2493 -0.7741
  108MOL0     H14837   2.326   7.591   4.705 -1.1040 -0.6778  0.1011
  108MOL0     H14838   2.434   7.643   4.833  4.0258 -4.0155 -0.3457
  108MOL0     H14839   2.154   7.642   4.867 -1.4983 -1.2191  1.2834
  108MOL0     H14840   2.197   7.495   4.935  0.4853  1.0019  2.9695
  108MOL0     H14841   2.367   7.607   5.078 -0.8771 -0.9615  3.1399
  108MOL0     H14842   2.331   7.767   5.003  1.4026 -0.6075  1.2808
  108MOL0     H14843   2.112   7.774   5.101  2.3909  1.9222 -0.1750
  108MOL0     H14844   2.129   7.603   5.157  0.0594  0.3232 -0.6592
  108MOL0     H14845   2.245   7.880   5.236  0.0089  0.3822  1.1546
  108MOL0     H14846   2.313   7.728   5.296  1.2359  1.2566 -1.1362
  108MOL0     H14847   2.040   7.858   5.337  0.2658 -1.1502 -1.3555
  108MOL0     H14848   2.047   7.687   5.356 -3.2438  1.8681  2.0386
  108MOL0     H14849   2.033   7.810   5.562 -0.1180  0.7739 -2.8085
  108MOL0     H14850   2.197   7.873   5.544  0.3955 -0.5153 -0.3871
  108MOL0     H14851   2.106   7.591   5.558 -2.0467  1.5397  0.0851
  108MOL0     H14852   2.276   7.647   5.546 -0.5023  0.2426  1.3270
  108MOL0     H14853   1.989   7.717   5.796 -0.6514  0.8009  1.4286
  108MOL0     H14854   2.100   7.638   6.144 -0.5946  0.0391  1.6891
  108MOL0     H14855   2.010   7.784   6.074  1.3464  2.2825 -0.3411
  108MOL0     H14856   2.280   7.779   6.188 -0.2307  0.3158  0.3828
  108MOL0     H14857   2.210   7.914   6.104  1.0578 -0.3677  0.3350
  108MOL0     H14858   2.015   7.923   6.255  1.8812  2.5524 -0.0586
  108MOL0     H14859   2.079   7.795   6.354  0.3732 -0.9917 -1.6011
  108MOL0     H14860   2.201   8.067   6.303 -0.9834 -0.9031 -1.4076
  108MOL0     H14861   2.111   8.008   6.454  1.0014  0.7473  0.6354
  108MOL0     H14862   2.562   7.934   6.408  0.1583  1.1355 -1.4956
  108MOL0     H14863   2.767   7.928   6.502  0.2251  0.3689 -2.5841
  108MOL0     H14864   2.817   8.027   6.629 -0.7266 -0.4904  1.0031
  108MOL0     H14865   2.800   8.094   6.455  0.3768 -0.3375 -0.1079
  108MOL0     H14866   2.841   8.161   6.953  2.4768 -1.2608  3.0996
  108MOL0     H14867   3.027   8.265   7.093 -1.3957 -0.3893 -0.7346
  108MOL0     H14868   2.931   8.633   7.287  0.2742 -0.2739  3.3261
  108MOL0     H14869   3.080   8.557   7.363 -0.6501 -0.1136  0.5645
  108MOL0     H14870   3.220   8.693   7.229  0.3316 -1.0660 -2.9469
  108MOL0     H14871   3.067   8.765   7.156  1.1723  2.0420  0.3879
  108MOL0     H14872   3.197   8.806   7.421  0.0042 -1.3367  1.0685
  108MOL0     H14873   3.019   8.824   7.424  0.1847  0.4215 -0.1324
  108MOL0     H14874   3.021   8.995   7.257 -0.6933  2.4209  4.6079
  108MOL0     H14875   3.187   8.973   7.214 -1.0249 -3.9114 -1.2970
  108MOL0     H14876   3.083   9.065   7.492 -1.4121 -0.8301 -0.6757
  108MOL0     H14877   3.253   9.064   7.444  1.2506  0.9593 -0.8656
  108MOL0     H14878   3.137   9.306   7.430  1.7851 -1.8485  0.8219
  108MOL0     H14879   3.044   9.232   7.300 -0.5405  2.4873  1.9269
  108MOL0     H14880   3.253   9.188   7.190 -1.5481 -0.5539  0.7251
  108MOL0     H14881   3.349   9.235   7.327  2.1161  0.8191 -3.4443
  108MOL0     H14882   3.156   9.434   7.180  1.0703  1.6860 -1.5994
  108MOL0     H14883   3.329   9.429   7.147  2.7857 -2.3062  1.2815
  108MOL0     H14884   2.841   8.643   7.073  1.8446 -0.2727 -2.3839
  108MOL0     H14885   2.653   8.534   6.942  0.7269  0.0215 -1.3778
  108MOL0     H14886   2.401   8.218   6.767  0.8180  0.2353 -0.2405
  108MOL0     H14887   2.240   8.073   6.624 -0.9591  0.7731 -4.5666
  108MOL0     H14888   2.373   7.216   4.948 -0.7932  1.0968 -1.0925
  108MOL0     H14889   2.555   7.128   5.119  3.0924  0.7911  0.5854
  108MOL0     H14890   3.022   7.289   5.301  0.6881  0.4386 -0.4901
  108MOL0     H14891   3.192   7.186   5.446  2.0402  0.2535 -0.9682
  108MOL0     H14892   3.241   7.010   5.631 -1.3296 -0.4825  1.3826
  108MOL0     H14893   3.177   6.844   5.641  2.9700 -1.9375  1.0273
  108MOL0     H14894   3.403   6.921   5.721 -0.3677 -1.6500  0.1706
  108MOL0     H14895   3.459   6.891   5.547  0.5543 -0.1718  0.6461
  108MOL0     H14896   3.515   6.711   5.697 -0.3529  0.1367  0.9482
  108MOL0     H14897   3.340   6.704   5.741 -0.7005 -1.1880 -1.7195
  108MOL0     H14898   3.303   6.635   5.506  0.1916  2.0402  1.8533
  108MOL0     H14899   3.404   6.516   5.595 -0.9283 -0.1196  2.0766
  108MOL0     H14900   3.691   6.646   5.318  1.5789  0.1361  2.8432
  108MOL0     H14901   3.099   6.791   5.271  4.7958  0.0700 -0.7201
  108MOL0     H14902   2.981   6.787   5.078  0.5411  1.2531 -0.2717
  108MOL0     H14903   2.838   6.829   5.166 -0.9746  1.3596 -1.4591
  108MOL0     H14904   2.880   6.903   5.005 -1.2726  0.6452  0.7146
  109MOL0     O14905   2.506  11.284   5.061 -0.8345 -0.1720  0.0593
  109MOL0     C14906   2.440  11.249   5.155 -0.8831 -0.0648 -0.4247
  109MOL0     O14907   2.409  11.121   5.171  0.2488  0.2093  0.2467
  109MOL0     C14908   2.480  11.019   5.115  0.7358  0.3303 -0.4583
  109MOL0     C14909   2.422  10.921   5.027  0.1210  0.8122  0.3991
  109MOL0     C14910   2.488  10.810   4.981  0.0239  0.0720  0.7286
  109MOL0     C14911   2.619  10.785   5.025 -0.3286  1.0249  0.0001
  109MOL0     O14912   2.698  10.679   4.977  0.1058  1.1384 -0.0207
  109MOL0     C14913   2.677  10.637   4.843  0.7861  0.6258  0.6044
  109MOL0     C14914   2.682  10.480   4.839 -0.2039  0.4679 -0.8095
  109MOL0     C14915   2.828  10.441   4.870  1.3039 -0.7448 -0.0779
  109MOL0     C14916   2.836  10.285   4.859 -0.3783  0.5884  0.2938
  109MOL0     C14917   2.984  10.266   4.895  0.5752  0.7506 -0.1864
  109MOL0     C14918   3.008  10.114   4.922 -0.7024 -0.4627  0.4334
  109MOL0     C14919   3.153  10.071   4.948  0.1491  0.5544 -0.4799
  109MOL0     C14920   3.205  10.133   5.077 -0.1438 -0.1208  0.8518
  109MOL0     N14921   3.316  10.057   5.143  0.0731  0.2907 -0.0438
  109MOL0     C14922   3.438  10.039   5.089 -0.0898 -0.7492  1.1122
  109MOL0     C14923   3.513   9.998   5.188 -0.2069 -0.7255 -0.3390
  109MOL0     C14924   3.663   9.992   5.194  0.2513  1.1473  0.3086
  109MOL0     C14925   3.728  10.124   5.160  0.0921 -0.2833 -0.3866
  109MOL0     C14926   3.871  10.137   5.216  0.4421  0.7128  0.8906
  109MOL0     C14927   3.971  10.042   5.164 -0.2563  0.0765  0.0533
  109MOL0     O14928   3.995  10.063   5.028  0.0918  0.0685  0.5153
  109MOL0     C14929   4.063   9.961   4.960 -0.1013 -0.3239 -1.3251
  109MOL0     C14930   4.036   9.932   4.832  0.7821 -0.8023  0.0836
  109MOL0     C14931   4.097   9.828   4.755  0.4636  0.1752  0.0711
  109MOL0     C14932   4.061   9.816   4.614 -0.8949 -0.6241  0.3680
  109MOL0     C14933   4.187   9.743   4.826  0.2896  0.8373  0.5244
  109MOL0     C14934   4.254   9.626   4.758 -0.9588 -0.4931  0.8454
  109MOL0     O14935   4.377   9.592   4.808 -0.2925 -0.4310  0.1846
  109MOL0     C14936   4.457   9.504   4.752  0.4299 -0.1962  0.2036
  109MOL0     C14937   4.421   9.375   4.731 -0.5029  0.7221 -0.1767
  109MOL0     C14938   4.517   9.282   4.716  1.1842  0.3311  0.2258
  109MOL0     C14939   4.656   9.318   4.705  0.1766  0.0171 -0.8882
  109MOL0     O14940   4.754   9.217   4.685  0.1888  0.0734  0.3596
  109MOL0     C14941   4.719   9.117   4.594  1.4715  0.0479 -0.3414
  109MOL0     C14942   4.843   9.048   4.538  0.6052 -0.7434 -0.5070
  109MOL0     C14943   4.900   8.936   4.620 -0.2176 -0.2071 -0.4087
  109MOL0     C14944   5.037   8.893   4.585  0.7590  0.3044  1.4981
  109MOL0     C14945   5.067   8.755   4.643 -0.3543  0.4022  0.0034
  109MOL0     C14946   5.207   8.719   4.599  0.7390  0.9764 -0.3470
  109MOL0     C14947   5.307   8.788   4.693 -1.1279  0.2711 -0.7829
  109MOL0     C14948   5.454   8.783   4.642 -0.1312  0.0746  0.8253
  109MOL0    Cl14949   5.571   8.844   4.771  0.3388  0.4174  0.0992
  109MOL0     C14950   4.696   9.450   4.743 -0.5980 -0.4791  0.0572
  109MOL0     C14951   4.589   9.540   4.767  0.6456  0.2608 -0.0133
  109MOL0     O14952   4.201   9.567   4.668  0.1295  0.0564  0.3477
  109MOL0     C14953   4.210   9.766   4.960  0.1532 -0.3331 -0.6457
  109MOL0     C14954   4.145   9.873   5.027 -0.5272 -0.8383  0.6071
  109MOL0     N14955   3.442  10.015   5.306 -0.3874 -0.1484 -0.2849
  109MOL0     N14956   3.324  10.047   5.277  0.6352 -0.1997  0.0747
  109MOL0     C14957   2.677  10.872   5.110  0.1993 -1.1189 -0.4729
  109MOL0     C14958   2.614  10.986   5.158  0.5605  0.4359 -0.2580
  109MOL0     C14959   2.394  11.335   5.264  0.7020 -0.6703  0.7030
  109MOL0     C14960   2.318  11.282   5.367 -0.4233 -0.0219 -0.1305
  109MOL0     C14961   2.268  11.367   5.468  0.4124 -0.8831 -0.5976
  109MOL0     C14962   2.298  11.502   5.472  0.2883 -0.2128 -0.2529
  109MOL0     O14963   2.260  11.586   5.577  0.2952  0.3809 -0.1119
  109MOL0     C14964   2.296  11.727   5.582 -0.1750 -0.2298 -0.3219
  109MOL0     C14965   2.248  11.792   5.706  0.0594 -0.7156  0.2509
  109MOL0     C14966   2.255  11.949   5.709  0.2694 -0.3975  0.2175
  109MOL0     C14967   2.409  11.991   5.692  0.2819  0.0039 -0.1114
  109MOL0     C14968   2.422  12.129   5.718 -0.2715 -0.3519 -0.1981
  109MOL0     C14969   2.458  12.246   5.725  0.4062 -0.1769 -1.4081
  109MOL0     C14970   2.390  11.548   5.373 -0.7242  0.4963 -0.0313
  109MOL0     C14971   2.429  11.471   5.266  0.1709 -0.3624 -0.2459
  109MOL0     C14972   2.533  11.538   5.180 -0.2069 -0.5470 -0.0045
  109MOL0     H14973   2.316  10.932   5.010  0.2657  0.2620 -1.0748
  109MOL0     H14974   2.432  10.747   4.914  1.2302 -0.9930  0.6991
  109MOL0     H14975   2.761  10.663   4.778  0.5976 -0.7119 -0.2319
  109MOL0     H14976   2.587  10.673   4.792  2.9943 -0.6175 -4.8386
  109MOL0     H14977   2.614  10.447   4.918  1.8053 -2.0046  0.0332
  109MOL0     H14978   2.643  10.444   4.743 -3.5505  0.6640  0.3524
  109MOL0     H14979   2.898  10.475   4.793 -0.0441 -0.6572 -1.3273
  109MOL0     H14980   2.858  10.479   4.968 -0.1676  2.1046 -0.6350
  109MOL0     H14981   2.776  10.230   4.933 -2.4523 -2.0304 -3.0744
  109MOL0     H14982   2.806  10.245   4.762  0.8020  4.0136 -1.6356
  109MOL0     H14983   3.024  10.333   4.972  0.2918  1.0917 -0.3307
  109MOL0     H14984   3.033  10.284   4.799 -3.0261 -4.8670 -3.7051
  109MOL0     H14985   2.946  10.074   5.002  2.4019 -1.6145  2.4398
  109MOL0     H14986   2.977  10.058   4.833  1.4386 -1.5754  0.3362
  109MOL0     H14987   3.214  10.085   4.858  0.6977  0.6133 -0.1019
  109MOL0     H14988   3.142   9.962   4.952 -4.7103  0.8754  1.1065
  109MOL0     H14989   3.228  10.237   5.051 -1.7250  0.1491  0.4811
  109MOL0     H14990   3.127  10.137   5.153 -1.2227 -2.4209 -0.0627
  109MOL0     H14991   3.468  10.060   4.986  0.7850  0.3722  1.5773
  109MOL0     H14992   3.693   9.910   5.128 -2.8703 -3.5782  4.0462
  109MOL0     H14993   3.694   9.966   5.295  1.2736  0.3738 -0.1940
  109MOL0     H14994   3.731  10.136   5.051 -1.7210  0.5406 -0.3687
  109MOL0     H14995   3.675  10.201   5.216 -0.1879  0.2952 -1.4120
  109MOL0     H14996   3.908  10.236   5.190 -2.7559  1.3328 -2.0214
  109MOL0     H14997   3.860  10.137   5.324  1.6990 -0.8300  1.0686
  109MOL0     H14998   4.067  10.066   5.210 -0.5831  1.4430  0.0843
  109MOL0     H14999   3.940   9.939   5.184  1.2637  0.0421  2.6682
  109MOL0     H15000   3.974  10.006   4.783  0.2481  1.5426  3.8748
  109MOL0     H15001   4.145   9.820   4.544 -4.2430  1.0053 -4.0519
  109MOL0     H15002   3.987   9.887   4.577 -0.5921 -1.2520 -1.5520
  109MOL0     H15003   4.011   9.718   4.608 -1.8978 -0.0528 -1.9530
  109MOL0     H15004   4.316   9.348   4.738  0.0478 -1.3962  0.7131
  109MOL0     H15005   4.484   9.179   4.713 -1.3862  1.1105 -1.1103
  109MOL0     H15006   4.660   9.044   4.649 -0.1057  1.7776  0.3847
  109MOL0     H15007   4.646   9.157   4.524  0.6384  1.2360  1.1307
  109MOL0     H15008   4.813   8.998   4.445  0.6750 -1.4297 -0.1656
  109MOL0     H15009   4.914   9.124   4.506 -0.2713  1.2615  1.9812
  109MOL0     H15010   4.836   8.847   4.619 -0.4121 -0.0647 -0.7255
  109MOL0     H15011   4.899   8.977   4.721  2.6483  0.0012 -0.3814
  109MOL0     H15012   5.108   8.966   4.625  1.3443  1.0601 -0.7701
  109MOL0     H15013   5.052   8.885   4.477 -2.0400  0.0203  1.0550
  109MOL0     H15014   5.058   8.739   4.751 -0.1326  1.2416  0.1543
  109MOL0     H15015   5.000   8.685   4.592 -2.3715  2.8532 -0.9317
  109MOL0     H15016   5.222   8.729   4.491  1.6928 -1.2082 -0.4661
  109MOL0     H15017   5.212   8.614   4.627  0.1494  0.9741 -0.2302
  109MOL0     H15018   5.315   8.729   4.784  2.3225 -0.5875 -1.5120
  109MOL0     H15019   5.292   8.893   4.719  1.4178  0.2582  1.0275
  109MOL0     H15020   5.455   8.835   4.545  0.9857  1.6705  1.6481
  109MOL0     H15021   5.468   8.676   4.624 -1.4014  0.0736 -0.3251
  109MOL0     H15022   4.798   9.486   4.746 -0.7159 -0.1060 -0.2907
  109MOL0     H15023   4.616   9.642   4.793  1.4981 -0.3690  1.7309
  109MOL0     H15024   4.276   9.696   5.010 -0.1089 -0.4199 -0.4153
  109MOL0     H15025   4.154   9.873   5.135 -1.6722  1.9047  0.8144
  109MOL0     H15026   2.777  10.844   5.141  0.0809 -1.2791 -0.2303
  109MOL0     H15027   2.659  11.046   5.237  0.8578  2.7824 -2.0962
  109MOL0     H15028   2.297  11.176   5.374  0.0647 -0.1203 -0.1439
  109MOL0     H15029   2.208  11.337   5.553  2.6927  3.1331  2.8153
  109MOL0     H15030   2.402  11.752   5.589 -0.7177  1.8005  3.2414
  109MOL0     H15031   2.262  11.780   5.493 -0.7019  1.4074  0.8044
  109MOL0     H15032   2.313  11.762   5.790  4.6649  0.3845 -2.5564
  109MOL0     H15033   2.147  11.757   5.728 -0.5553 -0.3576 -1.8615
  109MOL0     H15034   2.187  11.974   5.628 -2.8251 -1.0314  2.4388
  109MOL0     H15035   2.205  11.989   5.798 -0.1900 -3.4977  1.4489
  109MOL0     H15036   2.449  11.966   5.593 -1.3988 -2.5460 -0.2582
  109MOL0     H15037   2.460  11.928   5.766  0.7318 -0.3344 -0.6912
  109MOL0     H15038   2.509  12.332   5.761 -0.0744 -1.2164  2.2136
  109MOL0     H15039   2.443  11.643   5.384 -0.7182  0.2223  3.4098
  109MOL0     H15040   2.622  11.478   5.157  1.3363  1.7916 -0.5112
  109MOL0     H15041   2.476  11.554   5.089 -1.2890  1.6747  0.9847
  109MOL0     H15042   2.564  11.638   5.212 -0.3179 -0.3039 -0.6600
  110MOL0     O15043   8.690   2.248   1.122  0.4869  0.1427  0.6250
  110MOL0     C15044   8.577   2.304   1.145 -0.8258 -0.5519 -0.2920
  110MOL0     O15045   8.465   2.298   1.061  0.2275 -0.6516 -0.6306
  110MOL0     C15046   8.498   2.274   0.937  0.5761  0.2004  0.3204
  110MOL0     C15047   8.571   2.377   0.866 -0.2760  0.0353  0.0582
  110MOL0     C15048   8.626   2.360   0.742  0.0124 -0.4671 -0.4757
  110MOL0     C15049   8.595   2.236   0.668  0.0246  0.0270 -0.1523
  110MOL0     O15050   8.656   2.225   0.548 -0.0364 -0.3192  0.1600
  110MOL0     C15051   8.630   2.114   0.465 -0.1400  0.2542  0.2137
  110MOL0     C15052   8.704   2.116   0.324 -0.9292 -0.3934  0.7565
  110MOL0     C15053   8.856   2.085   0.342  1.0857  0.0135 -0.7052
  110MOL0     C15054   8.945   2.206   0.375  0.1111 -1.2538  0.6418
  110MOL0     C15055   9.083   2.176   0.429 -0.4611 -0.2593  0.2535
  110MOL0     C15056   9.169   2.308   0.465  1.0698  0.0690  0.0241
  110MOL0     C15057   9.289   2.266   0.545 -0.4230  0.5587 -0.4289
  110MOL0     C15058   9.373   2.388   0.591  0.0298 -0.3426  0.6854
  110MOL0     N15059   9.448   2.363   0.705 -0.1643  0.4575 -0.5950
  110MOL0     C15060   9.401   2.327   0.825 -0.0234  0.5026  0.0410
  110MOL0     C15061   9.510   2.307   0.901 -0.0905 -0.6437  0.0379
  110MOL0     C15062   9.512   2.256   1.040 -0.4045 -0.2201 -0.4152
  110MOL0     C15063   9.553   2.104   1.060  0.1054 -0.0123  0.1478
  110MOL0     C15064   9.679   2.093   1.139 -0.1144 -0.1236  0.5124
  110MOL0     C15065   9.681   2.144   1.290  0.5129 -0.1310  0.0181
  110MOL0     O15066   9.583   2.084   1.379 -0.5148  0.2718  0.5597
  110MOL0     C15067   9.587   1.954   1.425  0.5715 -0.5211  0.4934
  110MOL0     C15068   9.478   1.922   1.505 -0.4183  0.1610 -0.2379
  110MOL0     C15069   9.482   1.792   1.574 -0.7275 -0.6434  0.7353
  110MOL0     C15070   9.394   1.789   1.691  0.5182  0.8389 -0.6008
  110MOL0     C15071   9.573   1.689   1.536  0.7560  0.1361 -0.2999
  110MOL0     C15072   9.569   1.547   1.597  0.2915  0.2499 -0.5368
  110MOL0     O15073   9.574   1.445   1.510  0.7087  0.4948 -0.1034
  110MOL0     C15074   9.518   1.316   1.514  0.7888 -0.5119  0.2891
  110MOL0     C15075   9.429   1.268   1.610 -0.0225  0.8597  0.1498
  110MOL0     C15076   9.380   1.135   1.593  0.6732 -0.0949 -0.9017
  110MOL0     C15077   9.418   1.050   1.488  0.0629 -0.1816  0.0427
  110MOL0     O15078   9.378   0.913   1.487  0.2495  0.1959  0.0525
  110MOL0     C15079   9.240   0.890   1.512  0.4013  0.0909  0.1712
  110MOL0     C15080   9.181   0.782   1.422  0.1352 -0.4257 -0.0655
  110MOL0     C15081   9.202   0.643   1.501 -0.1636 -0.4304  0.6965
  110MOL0     C15082   9.096   0.616   1.607 -0.6548 -0.7234  0.3639
  110MOL0     C15083   9.119   0.483   1.676 -0.7934  0.0223 -0.0493
  110MOL0     C15084   9.015   0.442   1.784 -0.7148 -0.1908  0.3796
  110MOL0     C15085   9.071   0.319   1.857 -0.2704 -0.2990 -0.3850
  110MOL0     C15086   8.959   0.262   1.954 -0.4158  0.9926 -0.6365
  110MOL0    Cl15087   9.012   0.117   2.046 -0.1538 -0.2825 -0.0107
  110MOL0     C15088   9.499   1.100   1.393 -0.2003  0.1867 -0.0450
  110MOL0     C15089   9.556   1.235   1.410  0.4586 -0.0198 -0.1602
  110MOL0     O15090   9.549   1.533   1.722  0.2840 -0.1315  0.8443
  110MOL0     C15091   9.670   1.728   1.442  0.0345 -0.4073  0.0157
  110MOL0     C15092   9.678   1.855   1.386  0.3039 -1.0875  0.5351
  110MOL0     N15093   9.625   2.336   0.827 -1.0211  0.9593  0.1112
  110MOL0     N15094   9.581   2.376   0.715  0.4853  0.3994  0.1633
  110MOL0     C15095   8.528   2.135   0.746 -0.1367  0.6469  0.6004
  110MOL0     C15096   8.477   2.155   0.874  0.1734 -1.3301  0.4754
  110MOL0     C15097   8.569   2.372   1.282  0.2228 -1.3939 -0.6090
  110MOL0     C15098   8.694   2.391   1.352 -0.7210 -0.5210 -1.1719
  110MOL0     C15099   8.704   2.427   1.492  1.5423 -0.4763  0.2620
  110MOL0     C15100   8.577   2.452   1.561 -0.2816  0.2989  0.7083
  110MOL0     O15101   8.565   2.494   1.696  0.1075  0.1029  0.0030
  110MOL0     C15102   8.671   2.511   1.793  0.3725 -0.2171  0.3104
  110MOL0     C15103   8.618   2.621   1.879 -0.6330 -0.3247 -0.5531
  110MOL0     C15104   8.710   2.663   1.994 -0.6314  0.3985 -0.6001
  110MOL0     C15105   8.628   2.749   2.091  1.0629  0.0959  0.1567
  110MOL0     C15106   8.715   2.829   2.185 -0.5805  0.3505 -0.9321
  110MOL0     C15107   8.795   2.884   2.258  0.2811 -0.8062 -1.1217
  110MOL0     C15108   8.462   2.427   1.489 -0.5912  0.6396  0.2266
  110MOL0     C15109   8.452   2.411   1.353  0.0545  0.5508  0.5111
  110MOL0     C15110   8.314   2.376   1.294  0.1847  0.3032 -0.5388
  110MOL0     H15111   8.581   2.477   0.907 -0.9690  0.2536 -0.2905
  110MOL0     H15112   8.684   2.443   0.703  1.3500 -1.5184 -0.7875
  110MOL0     H15113   8.523   2.112   0.443 -1.3016 -0.2445  4.8126
  110MOL0     H15114   8.657   2.022   0.518  2.3622  0.2787 -0.8882
  110MOL0     H15115   8.666   2.037   0.257 -3.7496  0.6996  0.9406
  110MOL0     H15116   8.687   2.213   0.276  0.9623 -0.7693 -0.8549
  110MOL0     H15117   8.877   2.015   0.423 -0.8514  0.4224  0.2079
  110MOL0     H15118   8.880   2.021   0.256 -2.2540 -1.8555 -0.4345
  110MOL0     H15119   8.949   2.263   0.281  3.1757 -4.4840 -1.4524
  110MOL0     H15120   8.901   2.271   0.450  2.7634  1.9823 -0.3844
  110MOL0     H15121   9.136   2.116   0.354 -1.7370 -0.5622 -0.4418
  110MOL0     H15122   9.066   2.108   0.513 -0.9426  0.3132  0.6311
  110MOL0     H15123   9.199   2.362   0.375  2.8652  2.1373  1.7681
  110MOL0     H15124   9.105   2.381   0.516  2.2220  2.4861 -1.7857
  110MOL0     H15125   9.349   2.186   0.500  0.7037  1.2889 -0.2731
  110MOL0     H15126   9.255   2.232   0.643  1.5490 -1.5821 -0.3883
  110MOL0     H15127   9.428   2.441   0.513 -2.1411  1.2611  0.1711
  110MOL0     H15128   9.291   2.448   0.633 -0.9624 -2.4377  1.8670
  110MOL0     H15129   9.304   2.294   0.861 -0.6056 -1.9949 -3.2699
  110MOL0     H15130   9.411   2.276   1.076 -0.6620 -0.4862 -0.9728
  110MOL0     H15131   9.580   2.321   1.095  1.4859 -0.1055 -2.7251
  110MOL0     H15132   9.467   2.052   1.104  0.3060  0.6056  1.3207
  110MOL0     H15133   9.565   2.066   0.959 -2.9113 -0.6064 -0.1003
  110MOL0     H15134   9.712   1.989   1.141 -1.6444 -0.7365 -2.0085
  110MOL0     H15135   9.759   2.144   1.084 -0.0481  0.4352  1.1138
  110MOL0     H15136   9.779   2.146   1.338 -0.0129  2.1292  1.1467
  110MOL0     H15137   9.652   2.250   1.289  0.3930 -0.1172  2.0617
  110MOL0     H15138   9.413   2.003   1.537  0.2245  0.6700 -0.1911
  110MOL0     H15139   9.455   1.775   1.780 -2.6628  0.9969  1.8044
  110MOL0     H15140   9.321   1.707   1.686  0.1952  0.8950  1.7340
  110MOL0     H15141   9.325   1.874   1.697 -1.9434 -1.0463 -0.3076
  110MOL0     H15142   9.401   1.325   1.698  0.8941 -1.0363  1.7433
  110MOL0     H15143   9.305   1.087   1.656  0.2029 -0.7491 -1.9377
  110MOL0     H15144   9.214   0.888   1.619  2.0124  0.3151  0.5918
  110MOL0     H15145   9.189   0.980   1.476 -1.8658 -1.3157 -0.3577
  110MOL0     H15146   9.076   0.806   1.401 -0.2375 -2.5222 -0.8990
  110MOL0     H15147   9.230   0.774   1.324 -1.5476 -3.1858 -0.8103
  110MOL0     H15148   9.298   0.644   1.553 -0.9894  0.9632  2.3065
  110MOL0     H15149   9.204   0.559   1.431  0.7189 -0.0889  0.2869
  110MOL0     H15150   9.002   0.626   1.553 -0.6584  1.6485  0.7292
  110MOL0     H15151   9.100   0.695   1.683 -1.9361 -2.0802  1.9377
  110MOL0     H15152   9.135   0.400   1.607  0.6098 -0.6603  1.0421
  110MOL0     H15153   9.219   0.493   1.721 -0.6551  1.3147 -0.6134
  110MOL0     H15154   8.911   0.438   1.751 -1.2773 -0.5613  2.0811
  110MOL0     H15155   9.008   0.517   1.863  0.9812  0.2798  0.1089
  110MOL0     H15156   9.162   0.348   1.909 -1.9088  1.1541  1.8920
  110MOL0     H15157   9.094   0.235   1.790  2.6634  1.2687 -1.5127
  110MOL0     H15158   8.868   0.235   1.899  0.3353 -2.6976 -0.2956
  110MOL0     H15159   8.930   0.343   2.022 -1.4460 -0.5410  0.8187
  110MOL0     H15160   9.533   1.031   1.316  3.0205  0.1114  1.3043
  110MOL0     H15161   9.629   1.270   1.337 -0.7140 -2.0031 -2.4326
  110MOL0     H15162   9.748   1.673   1.391 -1.1847  0.7289 -3.3362
  110MOL0     H15163   9.763   1.858   1.318  1.8443 -4.9670  1.9860
  110MOL0     H15164   8.515   2.035   0.708  0.4837  1.1085 -0.8787
  110MOL0     H15165   8.435   2.069   0.924  0.2831 -1.2100  0.7728
  110MOL0     H15166   8.783   2.384   1.290  0.7293  1.9386  0.4570
  110MOL0     H15167   8.798   2.463   1.534  0.9758 -0.1552  1.2831
  110MOL0     H15168   8.692   2.422   1.852 -1.6207 -2.4613 -2.1182
  110MOL0     H15169   8.768   2.536   1.748  0.6776 -0.9102  0.5706
  110MOL0     H15170   8.520   2.590   1.916 -0.9479  0.9057 -0.3208
  110MOL0     H15171   8.608   2.710   1.815  1.5913 -0.7591 -1.6106
  110MOL0     H15172   8.769   2.589   2.050  1.9426  0.7099 -2.6909
  110MOL0     H15173   8.792   2.720   1.949 -0.3805 -1.0570 -2.0991
  110MOL0     H15174   8.544   2.696   2.135  0.0329 -0.1580 -1.9875
  110MOL0     H15175   8.579   2.827   2.031  0.5745 -1.9753 -2.2804
  110MOL0     H15176   8.857   2.942   2.323 -2.5038  1.0645  0.0638
  110MOL0     H15177   8.372   2.413   1.549 -1.3121 -2.7094 -1.4212
  110MOL0     H15178   8.291   2.269   1.303 -0.6978  0.6242  1.6521
  110MOL0     H15179   8.244   2.441   1.347  0.0801  1.5145 -2.0923
  110MOL0     H15180   8.297   2.417   1.194 -0.2602  2.5655  0.4049
  111MOL0     O15181   0.255   8.445   7.611  0.2754  0.5611 -0.3381
  111MOL0     C15182   0.333   8.454   7.706  0.0714  0.3958 -0.3706
  111MOL0     O15183   0.455   8.394   7.709  0.1039  0.8249 -0.0914
  111MOL0     C15184   0.471   8.281   7.635  1.1436  1.0887 -0.8753
  111MOL0     C15185   0.452   8.291   7.496 -0.5516 -0.8297  0.5300
  111MOL0     C15186   0.443   8.175   7.413  0.8348 -0.4435 -0.1515
  111MOL0     C15187   0.469   8.051   7.471  0.9266  0.2169  0.4535
  111MOL0     O15188   0.450   7.938   7.396 -0.7921 -0.7998  0.1358
  111MOL0     C15189   0.416   7.814   7.461  0.1840 -0.4964 -0.0459
  111MOL0     C15190   0.336   7.733   7.357  0.2005  0.6657 -0.2876
  111MOL0     C15191   0.206   7.795   7.314 -0.7040  1.1970 -0.4732
  111MOL0     C15192   0.149   7.736   7.178 -0.2631  0.1831  0.5160
  111MOL0     C15193   0.004   7.788   7.162  0.1892  0.5326  0.3298
  111MOL0     C15194  -0.043   7.743   7.015 -0.8941  0.0697 -0.7906
  111MOL0     C15195  -0.188   7.785   6.984 -0.2333  0.3610 -0.0771
  111MOL0     C15196  -0.283   7.749   7.095  0.7572  0.2014 -0.0202
  111MOL0     N15197  -0.419   7.783   7.061 -0.0474  0.4629  0.9287
  111MOL0     C15198  -0.481   7.894   7.096  0.5780  0.0133 -0.5482
  111MOL0     C15199  -0.588   7.901   7.017 -0.0467  0.1330 -0.1642
  111MOL0     C15200  -0.685   8.009   7.014  0.2636  0.3767 -0.3438
  111MOL0     C15201  -0.840   7.975   7.038 -0.1147 -0.4286  0.3618
  111MOL0     C15202  -0.892   7.920   6.907 -0.3869  0.8922  0.2469
  111MOL0     C15203  -1.042   7.896   6.886 -0.1065  0.0108 -1.3441
  111MOL0     O15204  -1.085   7.794   6.981 -0.3328  0.0835  0.6945
  111MOL0     C15205  -1.036   7.673   6.958  0.3503 -0.6199 -0.3857
  111MOL0     C15206  -1.036   7.585   7.068  0.0363  0.1868 -0.6139
  111MOL0     C15207  -0.997   7.451   7.066  0.2690  0.1655 -0.9575
  111MOL0     C15208  -1.019   7.374   7.202 -1.2937 -0.7791  1.0402
  111MOL0     C15209  -0.966   7.389   6.946  0.2022 -0.8367 -0.6054
  111MOL0     C15210  -0.943   7.238   6.933 -0.3856  0.1635 -1.0029
  111MOL0     O15211  -0.926   7.185   6.802 -0.0978 -0.8234 -0.1265
  111MOL0     C15212  -0.880   7.058   6.783 -0.1124 -0.2022 -0.1404
  111MOL0     C15213  -0.957   6.949   6.844 -0.3168 -0.1916  0.3230
  111MOL0     C15214  -0.911   6.824   6.809  0.3364  0.5669  0.4002
  111MOL0     C15215  -0.799   6.796   6.728  0.0878  0.2552  0.5621
  111MOL0     O15216  -0.751   6.676   6.702 -0.5142 -0.0640  0.1541
  111MOL0     C15217  -0.828   6.557   6.669  0.1838 -0.9741 -0.4527
  111MOL0     C15218  -0.722   6.459   6.619 -0.2476 -0.9324  0.8156
  111MOL0     C15219  -0.595   6.513   6.534 -0.1368  0.0102  0.1756
  111MOL0     C15220  -0.550   6.404   6.439  1.1139  0.4609  0.6171
  111MOL0     C15221  -0.422   6.436   6.383 -0.2170 -0.3937 -1.2648
  111MOL0     C15222  -0.336   6.325   6.315  0.3001  0.6849 -0.7475
  111MOL0     C15223  -0.205   6.386   6.253 -0.8736  0.3010  0.3885
  111MOL0     C15224  -0.108   6.270   6.239  0.1636  1.7396  0.2106
  111MOL0    Cl15225  -0.019   6.231   6.398 -0.0892  0.1423 -0.2590
  111MOL0     C15226  -0.726   6.902   6.683 -0.5660  1.1754 -0.4737
  111MOL0     C15227  -0.764   7.032   6.717  0.1044 -0.0032  0.0650
  111MOL0     O15228  -0.913   7.178   7.041  0.1211  0.2798  0.7466
  111MOL0     C15229  -0.971   7.478   6.826  0.5922  0.4222  0.5218
  111MOL0     C15230  -1.012   7.616   6.832 -1.3098 -0.6662  0.6358
  111MOL0     N15231  -0.590   7.791   6.936  0.1920  0.1618  0.3772
  111MOL0     N15232  -0.488   7.714   6.964  0.3439 -0.6635 -0.2557
  111MOL0     C15233   0.497   8.046   7.610  1.1343 -1.0208 -0.1823
  111MOL0     C15234   0.490   8.160   7.692  0.4158  0.9093  0.3000
  111MOL0     C15235   0.309   8.555   7.806 -0.8331 -0.0303  0.4396
  111MOL0     C15236   0.430   8.583   7.887  0.0248  0.0338  0.1006
  111MOL0     C15237   0.416   8.689   7.977 -1.0123  0.5779 -0.4242
  111MOL0     C15238   0.303   8.762   7.982  0.3788 -0.9576  0.7625
  111MOL0     O15239   0.311   8.874   8.070 -0.8571  0.1554  0.8776
  111MOL0     C15240   0.207   8.963   8.102  0.4488  0.5163  0.0498
  111MOL0     C15241   0.280   9.089   8.163 -0.0287  0.9219  0.2799
  111MOL0     C15242   0.346   9.189   8.062  1.1039  0.5073 -0.0019
  111MOL0     C15243   0.458   9.137   7.967 -0.1522 -0.2945  0.3912
  111MOL0     C15244   0.545   9.242   7.912  0.8065  0.0350  0.0452
  111MOL0     C15245   0.618   9.331   7.890 -0.7264  0.6834 -0.1189
  111MOL0     C15246   0.186   8.729   7.912  0.1951 -0.1498 -0.6312
  111MOL0     C15247   0.184   8.615   7.834  0.6076 -0.7603  0.2065
  111MOL0     C15248   0.053   8.565   7.764  0.1575  0.1115 -0.5684
  111MOL0     H15249   0.431   8.391   7.459  0.3742  0.5495  3.4670
  111MOL0     H15250   0.420   8.185   7.307 -1.2579 -0.2291  0.2837
  111MOL0     H15251   0.360   7.817   7.555  1.0315 -0.5890  0.4796
  111MOL0     H15252   0.516   7.778   7.485  1.5560  0.4283 -3.6813
  111MOL0     H15253   0.400   7.715   7.270  5.2878 -0.8376  3.2666
  111MOL0     H15254   0.329   7.632   7.397  2.1252  0.3487 -0.6217
  111MOL0     H15255   0.135   7.786   7.397  0.0540 -0.1758  0.0522
  111MOL0     H15256   0.230   7.900   7.298  0.7129  0.6484 -2.2384
  111MOL0     H15257   0.210   7.773   7.095 -2.7769 -1.2187 -2.1338
  111MOL0     H15258   0.150   7.627   7.167 -1.4968  0.3995 -3.4432
  111MOL0     H15259  -0.003   7.896   7.172 -1.2136  0.5078 -0.2165
  111MOL0     H15260  -0.061   7.743   7.238  1.4649 -1.6954  0.2037
  111MOL0     H15261   0.033   7.790   6.951  2.2681  0.2442  2.7182
  111MOL0     H15262  -0.029   7.634   7.011 -0.5032 -0.1305  2.6088
  111MOL0     H15263  -0.218   7.742   6.888  2.9220 -0.3485 -0.8574
  111MOL0     H15264  -0.172   7.893   6.979  1.8662  0.2551  2.2311
  111MOL0     H15265  -0.276   7.640   7.092  1.0613  0.2329 -0.4695
  111MOL0     H15266  -0.257   7.791   7.193  1.5843 -0.9721  0.2929
  111MOL0     H15267  -0.440   7.969   7.164  0.9604 -1.7091  1.2083
  111MOL0     H15268  -0.678   8.058   6.917 -0.8455  0.2198 -0.5157
  111MOL0     H15269  -0.643   8.089   7.075  2.2704 -2.4683  2.3938
  111MOL0     H15270  -0.858   7.909   7.124 -3.9412 -2.3275 -1.6472
  111MOL0     H15271  -0.890   8.069   7.064 -2.4247 -1.4684 -0.1470
  111MOL0     H15272  -0.862   7.990   6.828  0.5168  1.4222  1.0407
  111MOL0     H15273  -0.838   7.826   6.893  1.0645  1.8520 -0.9705
  111MOL0     H15274  -1.090   7.991   6.911 -0.2560 -0.4069  0.0410
  111MOL0     H15275  -1.057   7.869   6.781  2.0836  0.8191 -1.9285
  111MOL0     H15276  -1.060   7.644   7.156 -0.4066  1.8644 -1.8088
  111MOL0     H15277  -0.929   7.315   7.220 -0.8273 -0.4562 -0.1580
  111MOL0     H15278  -1.106   7.307   7.201 -2.2750  0.4635 -0.2382
  111MOL0     H15279  -1.013   7.452   7.279 -2.8357  0.8777 -0.4367
  111MOL0     H15280  -1.050   6.965   6.897 -2.5608  1.1497 -3.6610
  111MOL0     H15281  -0.959   6.733   6.844  2.1972 -1.2247 -1.3658
  111MOL0     H15282  -0.880   6.530   6.761 -1.4766  0.8553 -0.7925
  111MOL0     H15283  -0.899   6.578   6.588 -1.8996 -2.0163  1.0159
  111MOL0     H15284  -0.679   6.400   6.701  0.5029 -4.9239 -2.1195
  111MOL0     H15285  -0.772   6.380   6.563 -2.1610 -1.1751  2.7559
  111MOL0     H15286  -0.521   6.544   6.608 -1.7800  0.8905  1.5460
  111MOL0     H15287  -0.624   6.599   6.474  1.9820  0.2587 -0.5756
  111MOL0     H15288  -0.621   6.380   6.360 -1.2081  1.0908  2.3826
  111MOL0     H15289  -0.541   6.309   6.493 -5.0471 -1.8388 -1.5136
  111MOL0     H15290  -0.438   6.517   6.311  2.6505 -0.5316 -2.1453
  111MOL0     H15291  -0.350   6.476   6.455  0.0450 -1.7684 -0.7280
  111MOL0     H15292  -0.399   6.279   6.239 -0.7667 -0.3003  0.6620
  111MOL0     H15293  -0.315   6.239   6.380 -0.4890 -0.2180 -1.6396
  111MOL0     H15294  -0.159   6.462   6.316  3.1775 -1.1480 -0.5577
  111MOL0     H15295  -0.237   6.411   6.151  0.5666 -0.7933 -0.3655
  111MOL0     H15296  -0.025   6.289   6.170 -0.1152 -1.1680 -1.0492
  111MOL0     H15297  -0.158   6.179   6.206  1.8970  2.0232 -3.8122
  111MOL0     H15298  -0.635   6.886   6.625 -2.9662  0.1112 -4.3796
  111MOL0     H15299  -0.708   7.117   6.678 -0.1150  1.1760  2.2021
  111MOL0     H15300  -0.957   7.428   6.730  2.5443  0.5368  0.7145
  111MOL0     H15301  -1.006   7.668   6.737  2.6790 -1.4080  0.2992
  111MOL0     H15302   0.517   7.952   7.661 -0.8483 -1.0243  0.6777
  111MOL0     H15303   0.502   8.158   7.800  0.5325  2.9667  0.3641
  111MOL0     H15304   0.522   8.528   7.871  0.1639  0.0268  0.9036
  111MOL0     H15305   0.499   8.719   8.040 -1.6738  1.8084 -0.1226
  111MOL0     H15306   0.152   8.997   8.013 -1.4182 -0.9742  0.5753
  111MOL0     H15307   0.133   8.928   8.173  0.5837  0.7144  0.2908
  111MOL0     H15308   0.355   9.053   8.234 -0.0345 -1.0157 -0.6540
  111MOL0     H15309   0.208   9.142   8.227  1.4550 -0.7880  3.5950
  111MOL0     H15310   0.265   9.232   8.002 -1.1636  2.0723  3.7876
  111MOL0     H15311   0.385   9.265   8.130 -0.5552  1.4052 -0.0059
  111MOL0     H15312   0.412   9.071   7.893  0.3627 -0.9624  0.6457
  111MOL0     H15313   0.526   9.074   8.026  1.3176  0.1085 -0.8236
  111MOL0     H15314   0.690   9.410   7.896  0.1789 -0.0798 -0.7323
  111MOL0     H15315   0.100   8.794   7.925 -0.2958 -0.6082 -1.4647
  111MOL0     H15316   0.055   8.456   7.771  2.6704  0.1378  0.1858
  111MOL0     H15317  -0.032   8.609   7.817  0.2663  0.6314 -0.8264
  111MOL0     H15318   0.057   8.606   7.663  0.9521  0.2453 -0.4839
  112MOL0     O15319  11.068  10.782  11.372  0.4055  0.0636  0.2151
  112MOL0     C15320  11.170  10.821  11.326  0.9881  0.4026  0.5147
  112MOL0     O15321  11.264  10.892  11.392  0.7198  0.3545  0.6304
  112MOL0     C15322  11.244  11.017  11.437  0.0284 -0.9534  0.1008
  112MOL0     C15323  11.119  11.088  11.430 -0.4639 -0.4090  0.0535
  112MOL0     C15324  11.113  11.221  11.484 -0.6236  0.0071 -0.0886
  112MOL0     C15325  11.216  11.271  11.562 -0.1357  0.5534  0.9941
  112MOL0     O15326  11.229  11.388  11.625  0.3145 -0.1752 -0.0652
  112MOL0     C15327  11.183  11.500  11.546  0.1083  0.0085 -0.3166
  112MOL0     C15328  11.261  11.624  11.581 -0.2167  0.3852  0.1205
  112MOL0     C15329  11.327  11.679  11.449  0.5539 -0.4182  1.0054
  112MOL0     C15330  11.389  11.816  11.475 -0.6182  0.6133 -0.4731
  112MOL0     C15331  11.412  11.886  11.351  0.6519 -0.6649 -0.3436
  112MOL0     C15332  11.521  11.816  11.267  0.3497 -0.1363 -0.8648
  112MOL0     C15333  11.659  11.823  11.342  0.3070 -0.2888  0.2398
  112MOL0     C15334  11.776  11.782  11.240 -0.4856  0.1910 -1.0862
  112MOL0     N15335  11.770  11.641  11.225  0.4982  0.4474 -0.4330
  112MOL0     C15336  11.690  11.565  11.148  0.3579 -0.0542  0.0126
  112MOL0     C15337  11.726  11.434  11.173  0.2452 -0.3056  0.8935
  112MOL0     C15338  11.649  11.317  11.115  0.1904  0.2848 -0.0002
  112MOL0     C15339  11.506  11.318  11.170  0.2720  0.0615  0.0127
  112MOL0     C15340  11.426  11.204  11.115 -0.6741  1.0413 -0.0295
  112MOL0     C15341  11.277  11.238  11.129 -0.6960  0.0492  0.0049
  112MOL0     O15342  11.239  11.351  11.049 -0.2618 -0.8767  0.2189
  112MOL0     C15343  11.162  11.452  11.102  0.2745  0.6481  0.3353
  112MOL0     C15344  11.040  11.423  11.159 -0.4967  0.4262 -0.0907
  112MOL0     C15345  10.951  11.520  11.200  0.6868 -0.5901 -0.0447
  112MOL0     C15346  10.806  11.482  11.248  0.7873  0.2871 -0.2393
  112MOL0     C15347  10.998  11.653  11.185 -0.4596 -0.3032 -0.1783
  112MOL0     C15348  10.909  11.768  11.219 -0.0670  0.5493 -0.0616
  112MOL0     O15349  10.884  11.853  11.113  0.4503  0.5133 -0.1068
  112MOL0     C15350  10.801  11.961  11.117  0.8200 -0.0354  0.1550
  112MOL0     C15351  10.839  12.067  11.041  0.0567 -0.6985 -0.1216
  112MOL0     C15352  10.759  12.177  11.010 -0.1740  0.0856 -0.8025
  112MOL0     C15353  10.632  12.185  11.058  0.6483  0.2059 -0.7364
  112MOL0     O15354  10.566  12.303  11.036  0.0588 -0.5175  0.3709
  112MOL0     C15355  10.482  12.360  11.139 -0.4274  1.5317 -0.1843
  112MOL0     C15356  10.446  12.502  11.084 -0.5331  0.0552 -0.8002
  112MOL0     C15357  10.391  12.579  11.200  0.0714 -0.6840 -1.0190
  112MOL0     C15358  10.367  12.721  11.147 -0.3434 -0.2127  0.2756
  112MOL0     C15359  10.312  12.806  11.264  0.4358  1.2846  0.9423
  112MOL0     C15360  10.425  12.882  11.337  0.3001  0.2158  0.0097
  112MOL0     C15361  10.367  12.953  11.458  0.5996  0.1267  0.0529
  112MOL0     C15362  10.475  12.993  11.566 -0.7628  0.1618  0.1376
  112MOL0    Cl15363  10.528  12.852  11.672  0.1176  0.2185  0.3480
  112MOL0     C15364  10.594  12.080  11.141  0.4328 -0.7673  0.0284
  112MOL0     C15365  10.670  11.965  11.163  0.9483  0.1777  0.1243
  112MOL0     O15366  10.884  11.792  11.332  0.4626  0.3800  0.2514
  112MOL0     C15367  11.131  11.684  11.134  0.1421  0.4630 -0.1968
  112MOL0     C15368  11.207  11.578  11.093 -0.4090 -0.6456  0.6331
  112MOL0     N15369  11.818  11.432  11.262 -0.4651  0.6642 -0.8237
  112MOL0     N15370  11.839  11.559  11.300 -0.9016  0.0074 -0.8110
  112MOL0     C15371  11.332  11.199  11.565 -0.1119 -1.6414  0.1181
  112MOL0     C15372  11.348  11.082  11.496 -0.8235 -0.7867 -0.0129
  112MOL0     C15373  11.205  10.754  11.202 -0.0885  0.0349  0.7138
  112MOL0     C15374  11.337  10.712  11.177 -0.1355 -0.0533  1.0342
  112MOL0     C15375  11.385  10.636  11.063  1.1262  0.2389 -0.1207
  112MOL0     C15376  11.287  10.610  10.967  1.2467 -0.1258  0.2311
  112MOL0     O15377  11.304  10.533  10.850 -0.2415  0.3213 -0.0961
  112MOL0     C15378  11.429  10.469  10.815 -0.0364  0.3828 -0.0616
  112MOL0     C15379  11.462  10.349  10.900 -0.0730 -0.3476  0.4649
  112MOL0     C15380  11.345  10.273  10.959  0.1900 -0.1790 -1.0640
  112MOL0     C15381  11.386  10.126  11.001  0.3075  0.5543  0.3705
  112MOL0     C15382  11.323  10.081  11.129  0.7188 -0.1410 -0.0573
  112MOL0     C15383  11.264  10.051  11.230  0.3151 -0.1010  0.1546
  112MOL0     C15384  11.152  10.650  10.986 -0.5164  0.4153 -0.0507
  112MOL0     C15385  11.109  10.714  11.104 -0.2199  0.4901 -0.0259
  112MOL0     C15386  10.973  10.773  11.107 -0.2859  0.3863 -0.4326
  112MOL0     H15387  11.026  11.050  11.390 -2.7697  2.7154  2.0139
  112MOL0     H15388  11.022  11.280  11.475 -0.1622  1.0009  1.4006
  112MOL0     H15389  11.082  11.525  11.580 -0.0093 -1.3169  0.4091
  112MOL0     H15390  11.183  11.477  11.440 -2.1007 -0.0997 -0.3421
  112MOL0     H15391  11.194  11.700  11.622 -0.7130 -0.1819  0.3698
  112MOL0     H15392  11.332  11.604  11.661 -0.2213  3.3691  1.0093
  112MOL0     H15393  11.399  11.610  11.404  0.3777 -3.1787  4.4940
  112MOL0     H15394  11.253  11.693  11.369  1.7677  1.4482  0.1565
  112MOL0     H15395  11.319  11.872  11.537 -3.4339 -2.7291 -0.3228
  112MOL0     H15396  11.479  11.807  11.537 -0.6793 -1.2689 -0.5864
  112MOL0     H15397  11.447  11.989  11.364  0.4963 -0.7469  0.8266
  112MOL0     H15398  11.317  11.888  11.297  0.5535 -2.0781 -0.2556
  112MOL0     H15399  11.486  11.715  11.244  1.0656 -0.9875  1.4439
  112MOL0     H15400  11.524  11.871  11.173 -2.0864  1.6584 -0.0298
  112MOL0     H15401  11.656  11.746  11.420 -0.5318 -0.1904  0.3125
  112MOL0     H15402  11.677  11.922  11.385 -2.1662  0.3722 -0.1078
  112MOL0     H15403  11.778  11.840  11.148  0.5107 -0.8313 -1.7347
  112MOL0     H15404  11.874  11.805  11.283  0.3518 -0.7988 -2.3842
  112MOL0     H15405  11.625  11.607  11.072  0.3478  3.1736  1.6564
  112MOL0     H15406  11.701  11.231  11.158  0.5431  1.2648  1.6240
  112MOL0     H15407  11.654  11.318  11.006 -0.3160  0.3517 -0.0256
  112MOL0     H15408  11.506  11.306  11.279 -5.5663  1.4561  0.5161
  112MOL0     H15409  11.474  11.421  11.150  5.4418  1.7953 -0.8268
  112MOL0     H15410  11.434  11.198  11.006 -0.1125  1.9242 -0.0465
  112MOL0     H15411  11.447  11.111  11.169  2.3724  0.1984 -2.3602
  112MOL0     H15412  11.228  11.143  11.105  1.3476 -0.8435 -0.8719
  112MOL0     H15413  11.261  11.246  11.237 -3.5824 -0.1985 -0.3320
  112MOL0     H15414  11.015  11.318  11.165  1.7000 -0.5718 -4.5100
  112MOL0     H15415  10.744  11.567  11.279  0.3839  0.6812 -1.9912
  112MOL0     H15416  10.813  11.401  11.321  1.7300  1.9851  1.6345
  112MOL0     H15417  10.760  11.438  11.159  1.6028  1.1610 -1.1116
  112MOL0     H15418  10.937  12.061  10.995 -1.7988 -0.7011 -4.5943
  112MOL0     H15419  10.804  12.256  10.950  0.9359 -2.1938 -3.2010
  112MOL0     H15420  10.390  12.301  11.150  0.2193  0.8638  2.0098
  112MOL0     H15421  10.529  12.371  11.237  1.7085  1.7687 -1.1793
  112MOL0     H15422  10.534  12.553  11.043 -0.5736 -1.1457 -2.4750
  112MOL0     H15423  10.374  12.502  11.002 -0.0954 -0.0001 -1.1902
  112MOL0     H15424  10.446  12.593  11.293  0.0855  0.7674 -1.2285
  112MOL0     H15425  10.293  12.541  11.231 -0.2067  0.7695 -0.0232
  112MOL0     H15426  10.305  12.718  11.057  1.7591  1.4206 -1.3307
  112MOL0     H15427  10.450  12.785  11.117 -2.6576  2.5342 -0.7740
  112MOL0     H15428  10.241  12.881  11.227 -0.1714  1.5880  2.6355
  112MOL0     H15429  10.251  12.738  11.324 -1.4298  2.7958  0.8586
  112MOL0     H15430  10.467  12.954  11.266  2.4984 -0.4676  0.5374
  112MOL0     H15431  10.514  12.819  11.352  2.8606  2.9052 -2.5865
  112MOL0     H15432  10.302  12.881  11.508  0.0354 -1.0607 -2.2341
  112MOL0     H15433  10.312  13.043  11.432 -4.2105 -2.4963  0.1296
  112MOL0     H15434  10.422  13.058  11.636 -1.5418  0.5441 -0.7814
  112MOL0     H15435  10.556  13.047  11.516 -1.0297 -0.4285 -0.9532
  112MOL0     H15436  10.493  12.083  11.180 -0.1140  2.8477 -1.3042
  112MOL0     H15437  10.620  11.883  11.214  1.0956  0.1424  0.2141
  112MOL0     H15438  11.165  11.787  11.139  0.3399  0.3450  1.2089
  112MOL0     H15439  11.309  11.599  11.060  0.2321  2.5619  3.8979
  112MOL0     H15440  11.413  11.237  11.626 -0.8177 -0.9935  0.6763
  112MOL0     H15441  11.441  11.026  11.502  2.2002  3.7813  2.9381
  112MOL0     H15442  11.409  10.722  11.258  1.5195 -1.2394 -0.2157
  112MOL0     H15443  11.486  10.600  11.050  1.5548  1.9579 -2.1121
  112MOL0     H15444  11.426  10.433  10.711  0.2650  2.1948 -0.7198
  112MOL0     H15445  11.504  10.548  10.819 -0.4486  0.8999 -1.7102
  112MOL0     H15446  11.524  10.373  10.987  1.0133 -1.5417  0.0520
  112MOL0     H15447  11.514  10.279  10.834  0.2816  0.6341 -0.3249
  112MOL0     H15448  11.299  10.323  11.044  2.1258  0.2232 -0.1979
  112MOL0     H15449  11.257  10.267  10.894  0.0150 -0.5676 -0.7983
  112MOL0     H15450  11.494  10.128  11.021  0.1792 -2.9726  2.2136
  112MOL0     H15451  11.367  10.050  10.924 -0.0883  2.0712 -1.0848
  112MOL0     H15452  11.225  10.036  11.328  0.0031  1.2372  0.2567
  112MOL0     H15453  11.085  10.633  10.902 -1.7038  2.2431  0.4824
  112MOL0     H15454  10.965  10.867  11.162  2.9249 -0.6318  2.0434
  112MOL0     H15455  10.939  10.778  11.003  3.5629 -2.2998 -2.0506
  112MOL0     H15456  10.910  10.697  11.156  1.0053 -1.5604 -1.6687
  113MOL0     O15457   6.906  10.835   7.307 -0.1654 -0.1691  0.3689
  113MOL0     C15458   6.911  10.947   7.267 -0.5625 -0.1288 -0.2203
  113MOL0     O15459   6.820  11.047   7.304 -0.1324  0.1031  0.6209
  113MOL0     C15460   6.714  11.026   7.396 -0.6382 -0.6574  0.0130
  113MOL0     C15461   6.678  10.913   7.477  0.5161 -0.1690  0.0398
  113MOL0     C15462   6.573  10.915   7.563 -0.0137 -0.3134  0.2226
  113MOL0     C15463   6.490  11.029   7.586 -1.1635 -0.1589  0.5963
  113MOL0     O15464   6.391  11.030   7.681  0.4330  0.1288  0.0969
  113MOL0     C15465   6.330  11.155   7.730 -1.0694 -0.5614  0.0911
  113MOL0     C15466   6.203  11.171   7.657  0.7577 -0.8562  0.2062
  113MOL0     C15467   6.097  11.200   7.767  0.5281  0.8162  0.3564
  113MOL0     C15468   6.049  11.081   7.846  0.3222  0.0732  0.5807
  113MOL0     C15469   5.956  11.119   7.971 -0.0223 -0.9880  0.0523
  113MOL0     C15470   5.831  11.215   7.928 -0.3855 -0.0333 -0.2328
  113MOL0     C15471   5.734  11.225   8.043 -1.0295  0.4546  0.4187
  113MOL0     C15472   5.600  11.278   7.998  0.2829 -0.9907 -0.6207
  113MOL0     N15473   5.515  11.294   8.126 -0.6793  0.6669  0.6552
  113MOL0     C15474   5.505  11.406   8.205 -0.3346 -1.1613 -0.3908
  113MOL0     C15475   5.415  11.374   8.302  0.0741  0.0982  0.3907
  113MOL0     C15476   5.350  11.459   8.402 -0.4347  0.6712  0.4243
  113MOL0     C15477   5.331  11.601   8.347  0.7185  0.9889  0.1558
  113MOL0     C15478   5.226  11.673   8.440 -1.0723 -0.1559 -0.1977
  113MOL0     C15479   5.195  11.809   8.375 -0.9699 -0.5445 -0.2669
  113MOL0     O15480   5.306  11.899   8.370 -0.5320 -0.2937  0.2464
  113MOL0     C15481   5.299  11.995   8.274 -0.9777  0.1393  0.9997
  113MOL0     C15482   5.427  12.037   8.220 -0.3158  1.0157  0.6470
  113MOL0     C15483   5.433  12.145   8.123  0.2022  0.4130 -0.5053
  113MOL0     C15484   5.572  12.183   8.081 -0.7164  0.0175 -0.5701
  113MOL0     C15485   5.315  12.202   8.068 -0.5370  1.2354 -0.4514
  113MOL0     C15486   5.317  12.298   7.959 -0.4081 -0.9271 -0.2620
  113MOL0     O15487   5.194  12.360   7.939  0.0692  0.3182  0.1318
  113MOL0     C15488   5.184  12.451   7.843  0.4956  0.4922 -0.7185
  113MOL0     C15489   5.214  12.415   7.707 -0.1748 -0.9767 -0.4075
  113MOL0     C15490   5.175  12.507   7.610  0.1668 -0.6209  0.9810
  113MOL0     C15491   5.105  12.627   7.635  0.2800  0.1237  0.6720
  113MOL0     O15492   5.066  12.710   7.535 -0.2314 -0.0182  0.9019
  113MOL0     C15493   4.926  12.737   7.513 -0.2506 -0.4065 -0.6987
  113MOL0     C15494   4.907  12.892   7.478 -0.1851 -0.2755 -0.4755
  113MOL0     C15495   4.777  12.917   7.413  0.6571  0.0568 -0.0424
  113MOL0     C15496   4.739  13.060   7.431  0.4239  0.4092 -0.1388
  113MOL0     C15497   4.608  13.075   7.351 -0.0564  0.6767 -0.1609
  113MOL0     C15498   4.541  13.206   7.381 -0.3072  0.1462  0.4424
  113MOL0     C15499   4.641  13.315   7.329  0.0362 -0.4882  0.5242
  113MOL0     C15500   4.570  13.448   7.317 -0.0102 -1.4958  0.2321
  113MOL0    Cl15501   4.512  13.510   7.469  0.2956 -0.1389 -0.6215
  113MOL0     C15502   5.080  12.658   7.762  0.3745 -0.9370 -0.3468
  113MOL0     C15503   5.120  12.568   7.865  0.6726  0.4839  0.2285
  113MOL0     O15504   5.424  12.327   7.904 -0.3353 -0.7179 -0.5032
  113MOL0     C15505   5.193  12.160   8.127  1.0050  0.4982  0.3771
  113MOL0     C15506   5.185  12.062   8.224  0.4274  0.2928  0.2561
  113MOL0     N15507   5.384  11.236   8.280  0.1243 -0.4829 -0.0622
  113MOL0     N15508   5.436  11.193   8.174 -0.7191 -1.7089 -0.2938
  113MOL0     C15509   6.517  11.137   7.492 -0.7169 -1.2135 -0.0986
  113MOL0     C15510   6.630  11.129   7.400  0.1904 -0.4834  0.1969
  113MOL0     C15511   7.012  10.992   7.166  0.1697 -1.4952 -0.3251
  113MOL0     C15512   6.991  11.116   7.096 -1.1290 -1.0466  0.0097
  113MOL0     C15513   7.090  11.163   7.008 -0.7459  0.1542  0.0829
  113MOL0     C15514   7.212  11.099   6.999 -0.6325 -0.5945 -0.2980
  113MOL0     O15515   7.316  11.149   6.918  0.2730 -0.2405  0.6663
  113MOL0     C15516   7.423  11.211   6.994  0.5737  0.5918  0.2282
  113MOL0     C15517   7.500  11.299   6.903  0.1202 -0.4147 -0.3763
  113MOL0     C15518   7.414  11.426   6.863 -0.6074  0.7904 -0.0315
  113MOL0     C15519   7.343  11.494   6.982  0.5756  0.2158 -0.1839
  113MOL0     C15520   7.272  11.616   6.939 -0.8188  0.6607 -0.4429
  113MOL0     C15521   7.194  11.699   6.904  0.1797  0.5842 -0.1820
  113MOL0     C15522   7.230  10.981   7.065 -0.2619 -0.8542 -0.0888
  113MOL0     C15523   7.135  10.919   7.147  0.5663  0.1638  0.2520
  113MOL0     C15524   7.165  10.786   7.220 -0.1364  1.1437 -0.3844
  113MOL0     H15525   6.725  10.817   7.455  0.0300 -0.7636  1.5007
  113MOL0     H15526   6.539  10.821   7.605  1.5288  0.3677  3.2510
  113MOL0     H15527   6.393  11.243   7.723 -2.4875  0.6544  1.6283
  113MOL0     H15528   6.317  11.140   7.838 -4.0099  1.9064  0.2171
  113MOL0     H15529   6.209  11.254   7.585 -0.2797 -2.3065 -1.6669
  113MOL0     H15530   6.161  11.083   7.608 -2.3104 -0.0459  1.1655
  113MOL0     H15531   6.148  11.274   7.829 -0.9902  2.6820 -0.5104
  113MOL0     H15532   6.013  11.243   7.711  2.1665 -1.9974 -4.9459
  113MOL0     H15533   5.999  11.016   7.774 -1.9255  0.5871  1.5775
  113MOL0     H15534   6.135  11.021   7.876  1.4591  0.5683 -1.5113
  113MOL0     H15535   6.013  11.168   8.050  1.9418 -2.3197 -0.4840
  113MOL0     H15536   5.911  11.025   8.002 -1.0915 -0.3886  0.3747
  113MOL0     H15537   5.866  11.317   7.912 -1.0266  0.7378  2.6748
  113MOL0     H15538   5.777  11.189   7.837  0.7366 -0.7202 -0.7282
  113MOL0     H15539   5.780  11.277   8.127  1.7505  0.9374 -1.2650
  113MOL0     H15540   5.703  11.123   8.068 -0.6836 -0.7653 -3.4612
  113MOL0     H15541   5.605  11.383   7.966 -1.1972 -0.2191  1.4057
  113MOL0     H15542   5.544  11.214   7.930 -1.7391 -0.5762  0.5781
  113MOL0     H15543   5.548  11.504   8.186  1.2313 -1.6097  0.6263
  113MOL0     H15544   5.406  11.455   8.496  5.4479 -0.8662 -2.6094
  113MOL0     H15545   5.249  11.418   8.414 -0.5559  0.6018 -0.6937
  113MOL0     H15546   5.423  11.659   8.359  1.3740  0.2325 -0.9717
  113MOL0     H15547   5.283  11.588   8.249 -1.3504  1.8434  1.0024
  113MOL0     H15548   5.150  11.600   8.469  1.6013 -1.6859  3.7237
  113MOL0     H15549   5.265  11.682   8.542  1.4813 -0.5308 -1.0584
  113MOL0     H15550   5.159  11.801   8.272  2.8238 -0.3162 -1.7632
  113MOL0     H15551   5.113  11.861   8.425  1.4353  0.9086  2.4685
  113MOL0     H15552   5.506  11.998   8.282 -0.8341 -0.6160  0.3126
  113MOL0     H15553   5.603  12.274   8.133  4.4231 -0.3318 -2.4281
  113MOL0     H15554   5.580  12.204   7.974 -1.1591  1.6319 -0.3061
  113MOL0     H15555   5.647  12.108   8.108 -0.4085  0.6988  0.5295
  113MOL0     H15556   5.256  12.320   7.673  4.9247  1.1219 -0.9020
  113MOL0     H15557   5.195  12.486   7.505  0.8082  1.2027  0.7010
  113MOL0     H15558   4.868  12.665   7.455  0.6618 -0.2293 -1.8712
  113MOL0     H15559   4.878  12.718   7.610  0.8802 -0.6126 -0.1557
  113MOL0     H15560   4.925  12.953   7.567  1.7646  3.0078 -2.8767
  113MOL0     H15561   4.985  12.915   7.404  0.7315  0.2584  0.6144
  113MOL0     H15562   4.699  12.862   7.466 -2.8013  4.1030 -0.4031
  113MOL0     H15563   4.785  12.883   7.309  1.9085 -0.4776  0.2062
  113MOL0     H15564   4.819  13.127   7.397  3.3488 -1.1314  3.0530
  113MOL0     H15565   4.710  13.075   7.535 -1.4517 -1.2071 -0.3558
  113MOL0     H15566   4.615  13.072   7.241  1.0606 -0.6201 -0.0853
  113MOL0     H15567   4.536  12.996   7.374 -1.6827  2.5154  1.3331
  113MOL0     H15568   4.514  13.206   7.487 -3.7131 -3.6213 -0.2159
  113MOL0     H15569   4.446  13.221   7.328  1.0506 -1.2760 -2.6267
  113MOL0     H15570   4.672  13.280   7.230  4.0633  2.3439  0.5423
  113MOL0     H15571   4.732  13.326   7.389  0.7238 -0.2224 -0.5462
  113MOL0     H15572   4.481  13.433   7.254  1.3253 -4.0842 -1.2065
  113MOL0     H15573   4.621  13.528   7.263  1.5352 -3.9766 -2.2785
  113MOL0     H15574   5.012  12.742   7.776  0.9302 -0.2130 -1.7099
  113MOL0     H15575   5.102  12.589   7.970 -2.8657 -3.0134  0.5272
  113MOL0     H15576   5.101  12.215   8.111  0.3514  0.1140  2.4850
  113MOL0     H15577   5.091  12.036   8.272 -0.1129  2.1189  0.2827
  113MOL0     H15578   6.457  11.226   7.478 -1.4891 -1.0833  3.1429
  113MOL0     H15579   6.661  11.209   7.333  2.8817 -0.9217  0.7943
  113MOL0     H15580   6.908  11.181   7.122  0.8515  0.7232  2.4400
  113MOL0     H15581   7.064  11.250   6.948  0.1848  1.9147  2.0695
  113MOL0     H15582   7.398  11.270   7.082 -1.1356  0.5700 -0.2167
  113MOL0     H15583   7.491  11.135   7.035 -2.3375 -2.2215  0.2523
  113MOL0     H15584   7.531  11.242   6.814 -0.7708 -0.5121 -0.6322
  113MOL0     H15585   7.580  11.346   6.960 -2.3822  1.9504  1.4302
  113MOL0     H15586   7.485  11.497   6.819 -0.3038  0.9520  0.7003
  113MOL0     H15587   7.344  11.400   6.783 -1.6473  0.6793  0.8979
  113MOL0     H15588   7.421  11.511   7.057  0.1920 -2.7935  1.0541
  113MOL0     H15589   7.270  11.433   7.037 -1.0374  2.5058  0.3621
  113MOL0     H15590   7.124  11.766   6.859  1.4130  1.4541 -0.8671
  113MOL0     H15591   7.329  10.940   7.051  1.0416  0.6593  3.5560
  113MOL0     H15592   7.103  10.709   7.174  0.7874  1.3357 -2.0150
  113MOL0     H15593   7.269  10.755   7.207 -0.6277 -2.2882  2.5543
  113MOL0     H15594   7.139  10.787   7.326 -1.7384 -1.3978 -0.6788
  114MOL0     O15595   1.867   8.471   9.809 -0.4051 -0.1085  0.4219
  114MOL0     C15596   1.976   8.530   9.796  0.4419 -0.5417 -0.6441
  114MOL0     O15597   2.070   8.527   9.893 -0.7248  0.0099 -0.8725
  114MOL0     C15598   2.028   8.488  10.024 -0.4797 -0.1785  0.8439
  114MOL0     C15599   2.010   8.351  10.047  0.2960 -0.8029  0.6705
  114MOL0     C15600   1.972   8.307  10.176 -0.0565  0.2970  0.0640
  114MOL0     C15601   1.949   8.394  10.277 -0.3032 -0.5449 -0.1652
  114MOL0     O15602   1.947   8.356  10.409 -0.3696  0.1216 -0.7376
  114MOL0     C15603   1.841   8.270  10.447 -0.1218 -0.5875  0.0476
  114MOL0     C15604   1.694   8.313  10.434 -0.4564  0.0210  0.2164
  114MOL0     C15605   1.585   8.215  10.473  1.5673  0.1616 -0.5218
  114MOL0     C15606   1.588   8.175  10.626  0.7603 -0.0702  0.2388
  114MOL0     C15607   1.646   8.037  10.653 -0.3572  0.2746  0.2838
  114MOL0     C15608   1.650   7.998  10.798 -0.6716 -0.1620 -0.1445
  114MOL0     C15609   1.680   7.851  10.804  0.8621  0.7320  0.0110
  114MOL0     C15610   1.731   7.807  10.946 -0.4990 -0.2614 -0.2994
  114MOL0     N15611   1.792   7.919  11.030  0.1158  1.2678  0.0745
  114MOL0     C15612   1.926   7.966  11.029 -0.0008 -0.1381  0.8093
  114MOL0     C15613   1.914   8.056  11.133 -0.5034  0.9356  0.3351
  114MOL0     C15614   2.030   8.156  11.151  0.1539 -0.4709 -0.9268
  114MOL0     C15615   2.066   8.153  11.296  0.8247 -0.7733  0.1180
  114MOL0     C15616   2.152   8.274  11.337 -1.0712  0.3153  0.2361
  114MOL0     C15617   2.202   8.247  11.477 -0.6801 -0.6535  0.6673
  114MOL0     O15618   2.089   8.262  11.566  0.2457 -0.6508 -1.3492
  114MOL0     C15619   2.031   8.386  11.605 -1.2248  0.1430  0.3014
  114MOL0     C15620   1.942   8.387  11.712 -0.4175  0.1541  0.6733
  114MOL0     C15621   1.875   8.501  11.744  0.5626  0.1363  0.8074
  114MOL0     C15622   1.767   8.487  11.849 -0.6062  0.3985  0.0537
  114MOL0     C15623   1.913   8.624  11.690 -0.7174 -0.0059  0.2835
  114MOL0     C15624   1.829   8.746  11.715  0.3144 -1.1432 -0.7003
  114MOL0     O15625   1.695   8.736  11.701  0.0765  0.3167  0.0564
  114MOL0     C15626   1.626   8.854  11.671  0.2872 -0.5920  0.2228
  114MOL0     C15627   1.559   8.927  11.771  0.6696 -0.1921 -0.0157
  114MOL0     C15628   1.465   9.027  11.733  0.4126  0.1317 -0.3601
  114MOL0     C15629   1.444   9.055  11.603 -0.0924 -0.0832  0.2477
  114MOL0     O15630   1.350   9.150  11.580 -0.3321  0.2780  0.3607
  114MOL0     C15631   1.289   9.148  11.450  0.1090 -0.1906  0.6327
  114MOL0     C15632   1.144   9.192  11.443  0.3616 -0.2547 -0.5984
  114MOL0     C15633   1.099   9.207  11.295  0.8274  0.6460  0.8376
  114MOL0     C15634   0.953   9.240  11.287  0.6594  0.2080 -0.5094
  114MOL0     C15635   0.896   9.258  11.146  0.1129 -0.4641 -0.3446
  114MOL0     C15636   0.891   9.115  11.070  0.2554 -0.6633  0.1035
  114MOL0     C15637   0.811   9.007  11.140 -0.6826 -1.2466 -0.5281
  114MOL0     C15638   0.890   8.886  11.186  0.3701  0.6175 -1.1882
  114MOL0    Cl15639   0.885   8.761  11.056  0.1589 -0.1821 -0.3374
  114MOL0     C15640   1.514   8.987  11.505  0.2847 -0.0031 -0.0414
  114MOL0     C15641   1.606   8.888  11.534 -0.2567 -0.6538 -0.2166
  114MOL0     O15642   1.888   8.855  11.737 -0.5554 -0.4245 -0.5922
  114MOL0     C15643   2.023   8.629  11.601  0.3279  0.5757 -0.6432
  114MOL0     C15644   2.072   8.511  11.553 -0.2402 -0.1077  0.2489
  114MOL0     N15645   1.795   8.050  11.199  0.6410  0.6171  0.2976
  114MOL0     N15646   1.726   7.960  11.140 -0.5452  0.5845 -0.6090
  114MOL0     C15647   1.963   8.531  10.247  0.7726  0.8726 -0.0447
  114MOL0     C15648   2.000   8.582  10.127 -0.0960 -0.3765  0.1902
  114MOL0     C15649   2.002   8.609   9.676  0.5800  0.1835  0.3913
  114MOL0     C15650   2.102   8.697   9.672 -0.4911 -0.6519 -0.5591
  114MOL0     C15651   2.147   8.764   9.564  0.0680 -0.2476 -0.2787
  114MOL0     C15652   2.067   8.773   9.458 -0.2194 -0.2390  0.1482
  114MOL0     O15653   2.089   8.855   9.348 -0.0446 -0.2374 -0.4260
  114MOL0     C15654   2.208   8.943   9.334 -0.1272 -0.5226 -0.0119
  114MOL0     C15655   2.186   9.032   9.212 -1.0610 -0.7259  0.0285
  114MOL0     C15656   2.059   9.117   9.224 -0.4261 -0.2398 -0.2703
  114MOL0     C15657   2.061   9.214   9.107 -0.9735 -0.5019  0.1485
  114MOL0     C15658   1.938   9.290   9.108  0.3627 -0.3220 -0.1280
  114MOL0     C15659   1.849   9.373   9.120 -0.7425  0.9062  0.2371
  114MOL0     C15660   1.956   8.691   9.454  0.2935  0.7634 -0.2776
  114MOL0     C15661   1.927   8.601   9.551 -0.0252  0.8928  0.0059
  114MOL0     C15662   1.803   8.513   9.527 -0.4830  0.3820 -0.6969
  114MOL0     H15663   2.028   8.284   9.963  0.2077  2.3045 -2.0508
  114MOL0     H15664   1.976   8.203  10.206  4.0493 -0.1717 -1.4013
  114MOL0     H15665   1.870   8.235  10.547  0.9252 -2.1095 -0.7482
  114MOL0     H15666   1.842   8.177  10.390 -2.1936 -1.2369  0.9823
  114MOL0     H15667   1.684   8.408  10.488 -1.6139  1.6111 -2.5969
  114MOL0     H15668   1.684   8.340  10.329  0.5827 -0.4758 -0.0263
  114MOL0     H15669   1.494   8.274  10.460  2.3946  0.9563 -3.3983
  114MOL0     H15670   1.575   8.129  10.407 -2.1810  1.6165 -2.1628
  114MOL0     H15671   1.651   8.241  10.687 -0.6448 -0.1665  1.8570
  114MOL0     H15672   1.488   8.182  10.669  1.2781  0.8530  1.3454
  114MOL0     H15673   1.748   8.028  10.616  0.7732 -2.6370  3.5200
  114MOL0     H15674   1.587   7.972  10.588 -0.2664  3.6266 -3.4974
  114MOL0     H15675   1.721   8.061  10.853 -2.4911  2.4887 -0.6160
  114MOL0     H15676   1.549   8.016  10.836 -1.1757 -1.8338 -0.6226
  114MOL0     H15677   1.756   7.819  10.733 -0.1614 -1.9442 -0.0241
  114MOL0     H15678   1.596   7.786  10.776  0.6927  1.9604 -2.6464
  114MOL0     H15679   1.649   7.772  11.010  1.8233  0.7622  3.5972
  114MOL0     H15680   1.797   7.720  10.944 -2.8973 -2.1718 -2.3426
  114MOL0     H15681   2.008   7.929  10.969 -3.0620 -0.7407 -3.4530
  114MOL0     H15682   1.989   8.253  11.119  0.7744 -0.1312 -0.7131
  114MOL0     H15683   2.118   8.129  11.092  1.7212  2.4518 -0.1449
  114MOL0     H15684   1.974   8.151  11.355  0.3154  1.7666 -0.4591
  114MOL0     H15685   2.122   8.061  11.318  0.5142 -0.7065  1.2406
  114MOL0     H15686   2.241   8.281  11.274 -0.7752  1.2706  0.7396
  114MOL0     H15687   2.096   8.367  11.344 -1.6410 -0.1485  3.9401
  114MOL0     H15688   2.236   8.143  11.478 -0.2369 -0.5406 -0.8138
  114MOL0     H15689   2.283   8.313  11.509 -1.4286  1.4866 -1.5733
  114MOL0     H15690   1.925   8.298  11.771  2.8912 -0.3740  1.0464
  114MOL0     H15691   1.786   8.565  11.924 -2.9238 -0.3700  1.5644
  114MOL0     H15692   1.769   8.396  11.910  2.5701  0.7900  0.6775
  114MOL0     H15693   1.670   8.509  11.803 -0.0833  4.2292  0.4708
  114MOL0     H15694   1.567   8.916  11.879  1.6873  1.3588  0.0918
  114MOL0     H15695   1.405   9.075  11.810 -0.5383 -0.7963 -0.5122
  114MOL0     H15696   1.342   9.217  11.384 -2.1399  1.3101  0.2569
  114MOL0     H15697   1.289   9.047  11.410 -1.0633  0.4956 -1.2254
  114MOL0     H15698   1.088   9.120  11.503  1.2478 -0.2256  0.2973
  114MOL0     H15699   1.135   9.277  11.511 -0.3438 -1.9253  1.5530
  114MOL0     H15700   1.102   9.108  11.247 -2.5530 -0.0599  1.8178
  114MOL0     H15701   1.154   9.283  11.240  1.7378  0.2471  1.1826
  114MOL0     H15702   0.934   9.338  11.333 -2.4554 -0.2659 -0.5692
  114MOL0     H15703   0.885   9.176  11.344  2.7925  0.2378  2.2902
  114MOL0     H15704   0.802   9.312  11.152  0.3947  0.0321 -0.3058
  114MOL0     H15705   0.962   9.328  11.095 -0.4410  0.6550  0.4393
  114MOL0     H15706   0.994   9.085  11.050 -0.2898 -1.5643 -1.4971
  114MOL0     H15707   0.836   9.132  10.977  1.9966 -0.1495 -0.8727
  114MOL0     H15708   0.725   8.973  11.081 -0.7563  0.9821 -1.8243
  114MOL0     H15709   0.758   9.056  11.222 -2.6626 -1.9956 -1.3054
  114MOL0     H15710   0.842   8.844  11.275 -0.9552 -0.5447 -2.3930
  114MOL0     H15711   0.987   8.932  11.208 -1.3446  3.5788  1.0036
  114MOL0     H15712   1.496   9.020  11.403 -0.7649  1.9840  0.7544
  114MOL0     H15713   1.656   8.836  11.453  0.1821 -0.5839  0.0052
  114MOL0     H15714   2.046   8.723  11.551  3.4624  0.0477 -0.3644
  114MOL0     H15715   2.154   8.511  11.482  0.7764  0.3877  1.3750
  114MOL0     H15716   1.950   8.609  10.321  2.1387  0.2600  0.8793
  114MOL0     H15717   2.020   8.687  10.113 -1.1664  0.1668  2.3917
  114MOL0     H15718   2.167   8.705   9.759  0.9070 -2.0527 -1.4347
  114MOL0     H15719   2.245   8.811   9.558  0.7207 -1.6114 -0.6669
  114MOL0     H15720   2.225   9.000   9.425 -0.3426 -2.0561  1.0365
  114MOL0     H15721   2.285   8.868   9.313  1.7321 -0.1543  4.4340
  114MOL0     H15722   2.175   8.958   9.132  0.0985 -1.0574  0.1602
  114MOL0     H15723   2.267   9.102   9.191 -0.4094 -1.4461  0.1173
  114MOL0     H15724   1.967   9.058   9.226  0.2275 -1.2742  0.1677
  114MOL0     H15725   2.072   9.178   9.314  0.7746  0.5520 -0.9607
  114MOL0     H15726   2.070   9.157   9.015 -1.0787 -2.0854  1.0810
  114MOL0     H15727   2.140   9.286   9.128 -1.5251 -0.3303  1.8399
  114MOL0     H15728   1.756   9.427   9.115 -1.9589 -1.1684 -1.6975
  114MOL0     H15729   1.906   8.713   9.360  0.9019  0.7645 -0.6105
  114MOL0     H15730   1.833   8.413   9.559 -0.6196  0.6288  0.2101
  114MOL0     H15731   1.726   8.545   9.597  2.1498  1.9025  1.6956
  114MOL0     H15732   1.775   8.509   9.421 -0.5385  0.8259 -0.7007
  115MOL0     O15733   0.494   7.456   4.558 -0.6164 -1.3048  0.2990
  115MOL0     C15734   0.534   7.350   4.599  0.7291 -0.1967  0.7662
  115MOL0     O15735   0.658   7.305   4.581 -0.4684  0.4212  0.5241
  115MOL0     C15736   0.761   7.383   4.530  0.6630 -0.7261 -1.3235
  115MOL0     C15737   0.878   7.370   4.603  0.2818 -0.0439 -0.0006
  115MOL0     C15738   0.993   7.433   4.561  0.9136 -0.2339  1.2455
  115MOL0     C15739   0.993   7.529   4.450 -0.5077  0.2420 -0.5391
  115MOL0     O15740   1.106   7.592   4.410 -0.5174 -0.0642  0.1377
  115MOL0     C15741   1.228   7.583   4.486  0.2048 -0.4480  1.0206
  115MOL0     C15742   1.320   7.686   4.428  0.1525  0.4306 -0.0262
  115MOL0     C15743   1.281   7.835   4.438 -0.0562 -1.0645  0.6527
  115MOL0     C15744   1.384   7.925   4.361  0.0281 -0.4890 -0.1644
  115MOL0     C15745   1.343   8.074   4.371 -0.0602 -0.4422 -0.4895
  115MOL0     C15746   1.439   8.175   4.315 -0.3386  0.8264  0.5871
  115MOL0     C15747   1.375   8.307   4.297 -0.2300 -1.3808 -0.0197
  115MOL0     C15748   1.355   8.387   4.422  0.1770  1.3043  0.3533
  115MOL0     N15749   1.249   8.483   4.417 -0.3494  1.2933  0.5444
  115MOL0     C15750   1.113   8.471   4.462  0.7944  0.0687  0.2074
  115MOL0     C15751   1.073   8.609   4.479 -0.6139 -0.5031 -0.5022
  115MOL0     C15752   0.927   8.653   4.499  0.5647  0.6865  0.0559
  115MOL0     C15753   0.892   8.750   4.391 -0.0008 -0.4495  0.1924
  115MOL0     C15754   0.738   8.784   4.386 -0.1514 -0.0228 -0.5280
  115MOL0     C15755   0.687   8.895   4.284 -0.8270  0.0126  0.2224
  115MOL0     O15756   0.721   8.868   4.143 -0.3522  1.0394  0.2801
  115MOL0     C15757   0.658   8.943   4.046  0.2085 -0.2536  0.9101
  115MOL0     C15758   0.683   8.922   3.914  0.0393 -0.0763 -0.2996
  115MOL0     C15759   0.649   9.005   3.811  0.3049 -0.6288 -0.0507
  115MOL0     C15760   0.658   8.958   3.666 -0.8059  0.8393 -0.6569
  115MOL0     C15761   0.558   9.114   3.843 -0.3147 -0.1267  0.5328
  115MOL0     C15762   0.495   9.209   3.735  0.0292 -0.1220 -0.5747
  115MOL0     O15763   0.382   9.279   3.769 -1.0914  1.3419  0.0253
  115MOL0     C15764   0.297   9.304   3.671  0.4215  0.5457 -1.0362
  115MOL0     C15765   0.271   9.436   3.639  0.0616 -0.0396 -0.3903
  115MOL0     C15766   0.171   9.470   3.557 -0.4169 -0.0493 -0.3314
  115MOL0     C15767   0.075   9.379   3.514 -0.7688 -0.2249  0.1959
  115MOL0     O15768  -0.032   9.407   3.429  0.0397 -0.1978 -0.2599
  115MOL0     C15769  -0.007   9.481   3.306  1.0962  1.0118 -0.1168
  115MOL0     C15770  -0.146   9.531   3.257  0.0247  0.4616 -1.0096
  115MOL0     C15771  -0.134   9.613   3.126  0.1211 -0.1681 -0.3874
  115MOL0     C15772  -0.254   9.600   3.037  0.4257  0.0442 -0.5241
  115MOL0     C15773  -0.373   9.695   3.085 -0.8909  0.5241  0.5169
  115MOL0     C15774  -0.342   9.826   3.014 -0.0696 -0.0125  0.0387
  115MOL0     C15775  -0.453   9.924   3.042  0.0516  0.4791 -0.1114
  115MOL0     C15776  -0.413  10.060   2.983 -1.1930 -0.6817  0.2820
  115MOL0    Cl15777  -0.519  10.188   3.021 -0.0331  0.0886 -0.2588
  115MOL0     C15778   0.090   9.249   3.560  0.0815  0.2152  0.3833
  115MOL0     C15779   0.206   9.207   3.626 -0.3944  0.3683  0.5464
  115MOL0     O15780   0.558   9.227   3.632 -0.0199 -0.3003  0.3872
  115MOL0     C15781   0.516   9.123   3.977 -0.1203  0.8144  0.8723
  115MOL0     C15782   0.571   9.043   4.074  0.2128 -0.1686 -0.3003
  115MOL0     N15783   1.179   8.698   4.459  0.2916  0.1591  0.6544
  115MOL0     N15784   1.280   8.619   4.421  0.0561  0.2357 -0.6078
  115MOL0     C15785   0.883   7.546   4.380  1.1461 -0.3041 -0.7213
  115MOL0     C15786   0.766   7.465   4.411 -0.0655  0.8841  0.1151
  115MOL0     C15787   0.450   7.261   4.675  0.0034 -0.5948 -0.5108
  115MOL0     C15788   0.440   7.132   4.632 -0.3784  0.2368 -0.5271
  115MOL0     C15789   0.389   7.030   4.719  0.4174  0.0147 -0.6572
  115MOL0     C15790   0.338   7.067   4.847 -0.1613  0.5325 -0.7528
  115MOL0     O15791   0.278   6.983   4.939  0.0186  0.8295 -0.3224
  115MOL0     C15792   0.292   6.843   4.914  0.0614 -0.7919  0.7295
  115MOL0     C15793   0.276   6.784   5.048 -0.2463  1.1362 -0.2306
  115MOL0     C15794   0.398   6.817   5.144  0.4845  0.7589  0.0419
  115MOL0     C15795   0.401   6.963   5.180  0.3658 -0.2234 -0.0482
  115MOL0     C15796   0.458   6.987   5.311 -0.1431 -0.3574 -0.1844
  115MOL0     C15797   0.518   6.992   5.416 -0.4967 -0.2121 -0.4704
  115MOL0     C15798   0.341   7.207   4.883  0.3017 -0.2470 -0.5773
  115MOL0     C15799   0.404   7.304   4.802 -0.3446 -0.1932  0.0000
  115MOL0     C15800   0.444   7.443   4.848 -0.2951 -0.1101 -0.2062
  115MOL0     H15801   0.880   7.299   4.685  1.3005  0.6352  0.5911
  115MOL0     H15802   1.080   7.398   4.617 -1.1266 -3.1110  2.9039
  115MOL0     H15803   1.264   7.484   4.458  0.2691  0.4119 -2.4719
  115MOL0     H15804   1.205   7.598   4.592  1.3132  0.8415  1.1144
  115MOL0     H15805   1.418   7.657   4.466 -0.9879 -0.8277  2.1553
  115MOL0     H15806   1.332   7.662   4.322 -0.8810 -0.8926  0.1385
  115MOL0     H15807   1.184   7.855   4.391  0.6949 -0.1409 -0.5581
  115MOL0     H15808   1.276   7.854   4.546  1.6528  1.1151  0.4154
  115MOL0     H15809   1.486   7.919   4.402 -0.5299  0.4740  1.4808
  115MOL0     H15810   1.377   7.905   4.254 -0.2696 -0.1096 -0.2179
  115MOL0     H15811   1.326   8.107   4.474 -0.6514  1.3168 -1.1280
  115MOL0     H15812   1.249   8.098   4.320  1.2323  0.7811 -2.3994
  115MOL0     H15813   1.529   8.181   4.377 -0.3836  1.1259  0.6251
  115MOL0     H15814   1.477   8.129   4.224 -2.9345 -3.6426  1.4632
  115MOL0     H15815   1.274   8.296   4.255 -0.4258  0.6309 -0.2054
  115MOL0     H15816   1.416   8.361   4.211 -2.1413  0.4536  0.1258
  115MOL0     H15817   1.330   8.318   4.504  0.5128 -2.4622 -2.4658
  115MOL0     H15818   1.451   8.434   4.446  0.2029  1.3235  0.2101
  115MOL0     H15819   1.051   8.382   4.461  2.1926 -0.9485  0.7639
  115MOL0     H15820   0.917   8.706   4.594  2.1940  0.7693  0.2067
  115MOL0     H15821   0.859   8.568   4.491  2.4228 -0.7588 -1.3116
  115MOL0     H15822   0.946   8.845   4.400  3.2914 -2.2913  1.6664
  115MOL0     H15823   0.933   8.720   4.295 -2.5786  2.9854 -2.2625
  115MOL0     H15824   0.684   8.692   4.366  0.9145 -1.2815  1.9569
  115MOL0     H15825   0.702   8.816   4.484 -0.2006 -1.2033 -0.1477
  115MOL0     H15826   0.579   8.899   4.297 -0.7550  0.6726  0.6390
  115MOL0     H15827   0.735   8.990   4.307 -0.7500  0.5380 -1.8692
  115MOL0     H15828   0.732   8.833   3.875 -1.9489 -1.6680  0.6477
  115MOL0     H15829   0.722   9.025   3.607 -0.8072  0.9930 -0.4865
  115MOL0     H15830   0.563   8.946   3.615  0.2489 -1.2542 -2.2336
  115MOL0     H15831   0.704   8.859   3.675 -1.0773  0.6664 -1.1825
  115MOL0     H15832   0.350   9.504   3.671  2.1485 -1.3735 -2.4347
  115MOL0     H15833   0.167   9.572   3.520  0.7138  0.3791  0.6787
  115MOL0     H15834   0.051   9.572   3.321 -1.0625  2.0343  3.1554
  115MOL0     H15835   0.029   9.414   3.228 -0.2343 -1.3782  1.2065
  115MOL0     H15836  -0.207   9.440   3.246  0.6176 -0.0451 -0.2518
  115MOL0     H15837  -0.184   9.590   3.341 -1.4272 -1.6235 -0.0848
  115MOL0     H15838  -0.052   9.578   3.062  0.8672  0.1357  0.3771
  115MOL0     H15839  -0.114   9.719   3.144  2.2152 -0.5959  0.0716
  115MOL0     H15840  -0.298   9.500   3.032 -1.9894  1.0997 -1.9865
  115MOL0     H15841  -0.215   9.621   2.937  3.1130 -1.9413 -0.0059
  115MOL0     H15842  -0.474   9.669   3.052 -0.5821  1.9929 -1.8887
  115MOL0     H15843  -0.362   9.707   3.193  0.5201 -0.9253  0.5657
  115MOL0     H15844  -0.328   9.805   2.907  1.3595  1.1591 -0.0274
  115MOL0     H15845  -0.246   9.862   3.051 -1.7837  2.4293  2.5450
  115MOL0     H15846  -0.454   9.930   3.151  2.2966  2.5531 -0.1137
  115MOL0     H15847  -0.550   9.892   3.003  0.1288  2.5238 -2.2380
  115MOL0     H15848  -0.405  10.055   2.874  0.9293 -0.8213  0.4047
  115MOL0     H15849  -0.313  10.085   3.021 -0.2784 -0.5694 -2.0095
  115MOL0     H15850   0.011   9.175   3.549 -1.3236  1.6228  0.5361
  115MOL0     H15851   0.231   9.102   3.637  3.0998  1.0398  0.1423
  115MOL0     H15852   0.426   9.180   3.998 -1.3799 -0.1728 -1.4379
  115MOL0     H15853   0.528   9.043   4.174 -1.7272  1.1158 -1.0852
  115MOL0     H15854   0.893   7.608   4.292  0.7947  0.4685 -0.2261
  115MOL0     H15855   0.679   7.483   4.348 -0.7179  0.4125  0.8572
  115MOL0     H15856   0.480   7.101   4.536 -0.4947 -0.9012 -0.2149
  115MOL0     H15857   0.383   6.928   4.683 -3.0233 -0.5058  0.9577
  115MOL0     H15858   0.208   6.806   4.854  0.6341 -1.0368  0.0676
  115MOL0     H15859   0.384   6.803   4.869  0.0369  0.4845 -0.5264
  115MOL0     H15860   0.276   6.675   5.037 -0.2708  0.9053  1.7624
  115MOL0     H15861   0.176   6.796   5.090 -0.7550 -2.2547 -0.1619
  115MOL0     H15862   0.393   6.765   5.240  1.6710  0.8979  0.1974
  115MOL0     H15863   0.492   6.785   5.098 -0.4521  1.0387 -2.1764
  115MOL0     H15864   0.305   7.014   5.183  1.6577  2.3845  0.0456
  115MOL0     H15865   0.472   7.021   5.121  0.1999  0.1877  0.1512
  115MOL0     H15866   0.584   6.999   5.500 -0.0199  2.7703 -0.9820
  115MOL0     H15867   0.321   7.241   4.984  0.3019 -2.0544  0.0571
  115MOL0     H15868   0.405   7.525   4.786 -3.4191 -0.8705  0.6085
  115MOL0     H15869   0.412   7.464   4.950  1.4968 -0.2481  0.4156
  115MOL0     H15870   0.552   7.450   4.864 -0.6244 -1.2280  3.4883
  116MOL0     O15871   3.976   9.442   0.268 -0.0852 -0.2747 -0.7265
  116MOL0     C15872   3.916   9.427   0.377 -0.4531  0.4169 -0.4178
  116MOL0     O15873   3.793   9.476   0.403  0.0241 -0.4580  0.4257
  116MOL0     C15874   3.721   9.523   0.301 -0.0928 -0.9357  0.9053
  116MOL0     C15875   3.686   9.656   0.312  0.3217 -0.0184 -0.5560
  116MOL0     C15876   3.632   9.727   0.209 -0.1662  0.5448 -0.6703
  116MOL0     C15877   3.610   9.663   0.081 -0.1347  0.3995 -0.7489
  116MOL0     O15878   3.560   9.740  -0.019  0.5652 -0.2849  1.0219
  116MOL0     C15879   3.654   9.790  -0.112  0.0099  0.4711  0.2322
  116MOL0     C15880   3.594   9.915  -0.184 -0.4541 -0.3595 -0.0067
  116MOL0     C15881   3.522  10.015  -0.089  0.3306 -0.0898 -0.6375
  116MOL0     C15882   3.429  10.109  -0.173  0.2526  0.5843  0.3849
  116MOL0     C15883   3.511  10.192  -0.271 -0.7113  0.0489  1.1538
  116MOL0     C15884   3.408  10.289  -0.340 -0.8608  0.4042 -0.3302
  116MOL0     C15885   3.478  10.336  -0.470  0.1284 -0.7815 -0.1161
  116MOL0     C15886   3.383  10.429  -0.551 -0.3257 -0.6418 -0.6033
  116MOL0     N15887   3.273  10.365  -0.618  0.9585 -0.0148 -0.6192
  116MOL0     C15888   3.255  10.323  -0.739 -0.2095  1.6637  0.3069
  116MOL0     C15889   3.121  10.318  -0.765  0.2417  0.3537  0.8368
  116MOL0     C15890   3.061  10.298  -0.900  0.7080 -0.5668 -0.1496
  116MOL0     C15891   3.071  10.417  -0.996  0.8415 -0.8087 -0.0564
  116MOL0     C15892   2.978  10.392  -1.117 -0.2122 -0.3062 -0.2270
  116MOL0     C15893   2.976  10.515  -1.216 -0.8717  0.0133 -0.6330
  116MOL0     O15894   2.914  10.617  -1.138 -0.8352  0.3472  0.7223
  116MOL0     C15895   2.878  10.733  -1.197 -0.3747 -0.5256  0.8200
  116MOL0     C15896   2.821  10.829  -1.112 -0.7469 -0.3015  0.2454
  116MOL0     C15897   2.796  10.966  -1.158 -0.0961  1.1992  0.2129
  116MOL0     C15898   2.751  11.063  -1.060 -0.0804  0.1850 -0.0756
  116MOL0     C15899   2.809  10.996  -1.297 -0.5569 -0.4395  0.6024
  116MOL0     C15900   2.783  11.136  -1.353  0.2732  0.5145 -0.6465
  116MOL0     O15901   2.855  11.176  -1.465 -0.0192  0.2051  0.7801
  116MOL0     C15902   2.839  11.305  -1.522  0.2680  1.0359 -0.1005
  116MOL0     C15903   2.826  11.308  -1.660 -0.7157  0.1244 -0.9346
  116MOL0     C15904   2.819  11.424  -1.737 -0.3544  0.6259  0.1162
  116MOL0     C15905   2.826  11.547  -1.668  0.5317  0.2521  0.8688
  116MOL0     O15906   2.826  11.671  -1.726  0.4140  0.2286  0.6452
  116MOL0     C15907   2.744  11.674  -1.841  0.0455  1.0208  0.8113
  116MOL0     C15908   2.752  11.814  -1.902 -0.2623  0.5373 -0.5479
  116MOL0     C15909   2.684  11.841  -2.036 -0.3117  0.7412 -0.1256
  116MOL0     C15910   2.761  11.766  -2.149 -0.7014  0.2822  0.0847
  116MOL0     C15911   2.705  11.771  -2.292 -0.8190  1.0175 -0.7689
  116MOL0     C15912   2.766  11.654  -2.372  0.6027  0.0576 -0.1012
  116MOL0     C15913   2.728  11.657  -2.520  0.5801 -0.0723  0.6497
  116MOL0     C15914   2.781  11.534  -2.584 -0.1723 -0.1235 -0.3678
  116MOL0    Cl15915   2.955  11.530  -2.532  0.3738  0.5188 -0.0839
  116MOL0     C15916   2.833  11.545  -1.527  0.0156  0.6603 -1.0091
  116MOL0     C15917   2.843  11.424  -1.454  0.0517 -0.9792  0.9542
  116MOL0     O15918   2.694  11.203  -1.305  0.2645 -0.2186 -0.9363
  116MOL0     C15919   2.865  10.894  -1.374 -0.2807  0.4531  0.6503
  116MOL0     C15920   2.891  10.762  -1.328  0.2261  1.1507 -1.1352
  116MOL0     N15921   3.065  10.316  -0.638  0.5659 -0.7356  0.1100
  116MOL0     N15922   3.155  10.347  -0.552 -0.5241 -0.9462  0.2214
  116MOL0     C15923   3.640   9.524   0.069  0.2844  0.2347  0.4181
  116MOL0     C15924   3.695   9.457   0.175  0.5768  0.3795  0.2377
  116MOL0     C15925   3.992   9.376   0.488  0.2347  0.4567 -0.6668
  116MOL0     C15926   4.092   9.284   0.465 -0.2638 -0.0115 -0.0035
  116MOL0     C15927   4.158   9.210   0.575 -0.6142  0.1609  1.0898
  116MOL0     C15928   4.141   9.259   0.705 -0.3084 -0.4961  0.5054
  116MOL0     O15929   4.195   9.202   0.819  0.0437  0.5474  0.6269
  116MOL0     C15930   4.293   9.094   0.805 -0.2509  0.4479  0.6934
  116MOL0     C15931   4.432   9.142   0.748 -0.6269  0.0680 -1.5879
  116MOL0     C15932   4.478   9.267   0.826 -0.5230 -0.1674  0.0030
  116MOL0     C15933   4.603   9.322   0.766 -0.2784  0.1696 -0.5378
  116MOL0     C15934   4.666   9.425   0.855  0.5469 -0.4050  0.1973
  116MOL0     C15935   4.731   9.506   0.922  0.0674 -0.3906  0.1156
  116MOL0     C15936   4.038   9.349   0.725 -0.1341  0.4842  0.4057
  116MOL0     C15937   3.954   9.395   0.628 -0.1064 -0.5210 -0.3900
  116MOL0     C15938   3.842   9.491   0.668 -0.0809 -0.1324 -0.8861
  116MOL0     H15939   3.695   9.693   0.414 -0.8220  0.0649 -0.4795
  116MOL0     H15940   3.584   9.824   0.220 -2.4586 -0.3642 -1.8892
  116MOL0     H15941   3.669   9.709  -0.185  1.2905 -0.6715  1.7061
  116MOL0     H15942   3.741   9.815  -0.051  0.0849 -1.4488  0.9635
  116MOL0     H15943   3.672   9.966  -0.240 -1.1152 -0.8350 -1.4289
  116MOL0     H15944   3.517   9.876  -0.252  0.6645  0.3670 -1.7622
  116MOL0     H15945   3.451   9.963  -0.024  2.4013 -1.2184  0.8138
  116MOL0     H15946   3.598  10.060  -0.025  0.0141  0.1235 -0.4039
  116MOL0     H15947   3.359  10.052  -0.234  1.9687 -1.1209 -0.0723
  116MOL0     H15948   3.384  10.174  -0.098 -0.6776  2.6167 -1.7944
  116MOL0     H15949   3.553  10.123  -0.345 -0.2037  0.0390  1.4514
  116MOL0     H15950   3.591  10.249  -0.224 -0.2093  0.0410  0.3247
  116MOL0     H15951   3.320  10.228  -0.362 -0.1057 -0.0461 -2.3047
  116MOL0     H15952   3.392  10.372  -0.271  0.5421 -1.1809  2.0503
  116MOL0     H15953   3.510  10.249  -0.529  4.3592 -0.3175  1.1887
  116MOL0     H15954   3.567  10.392  -0.441 -0.9603 -0.6497  3.4940
  116MOL0     H15955   3.330  10.493  -0.480  0.9127  1.4406 -1.4517
  116MOL0     H15956   3.428  10.502  -0.620 -0.1926 -0.5028 -0.3713
  116MOL0     H15957   3.335  10.305  -0.810  0.9396  0.7430  1.7859
  116MOL0     H15958   2.953  10.295  -0.880  0.4128 -1.4271 -1.6380
  116MOL0     H15959   3.085  10.204  -0.951  2.4210  1.0418 -2.5456
  116MOL0     H15960   3.033  10.508  -0.950  4.5529  1.4029 -0.9358
  116MOL0     H15961   3.173  10.441  -1.027  0.5078  4.1333  1.7996
  116MOL0     H15962   3.024  10.309  -1.170 -2.0854  0.4523 -3.3123
  116MOL0     H15963   2.870  10.377  -1.105 -0.3800  1.4797  0.9242
  116MOL0     H15964   3.077  10.544  -1.246 -1.7332  2.6159 -1.3118
  116MOL0     H15965   2.915  10.472  -1.295 -0.2833  0.7976 -1.5408
  116MOL0     H15966   2.822  10.810  -1.005  2.6658 -1.6378  0.1067
  116MOL0     H15967   2.825  11.143  -1.057  3.1299 -2.5076 -1.7413
  116MOL0     H15968   2.743  11.013  -0.963 -1.9801 -0.2632 -0.4038
  116MOL0     H15969   2.655  11.110  -1.087 -0.6704 -1.1737 -0.4530
  116MOL0     H15970   2.804  11.213  -1.707 -3.2110 -0.2979  0.8813
  116MOL0     H15971   2.817  11.410  -1.845 -1.0954  1.7675 -0.0291
  116MOL0     H15972   2.788  11.604  -1.912  2.6832  3.5947 -0.3281
  116MOL0     H15973   2.640  11.650  -1.821  0.5354 -0.2073  1.9741
  116MOL0     H15974   2.706  11.878  -1.826  0.2468 -0.7167  0.8731
  116MOL0     H15975   2.858  11.844  -1.907 -0.4687  1.3132 -0.4975
  116MOL0     H15976   2.686  11.945  -2.070  1.3740  1.2217  1.2819
  116MOL0     H15977   2.582  11.804  -2.026 -0.1345  0.4327  0.6477
  116MOL0     H15978   2.768  11.659  -2.128  1.9934 -0.5031 -3.8576
  116MOL0     H15979   2.863  11.805  -2.154  1.1488 -4.1017 -1.9838
  116MOL0     H15980   2.599  11.751  -2.277 -0.6147  0.5517  0.1180
  116MOL0     H15981   2.717  11.870  -2.338  0.3333  1.0490 -0.4332
  116MOL0     H15982   2.740  11.555  -2.334  2.4266  0.1808  1.6366
  116MOL0     H15983   2.874  11.664  -2.359  0.5179  1.4774 -0.3540
  116MOL0     H15984   2.764  11.752  -2.562  2.5047 -0.9873  0.1257
  116MOL0     H15985   2.618  11.654  -2.526  0.5240  1.0221  0.8691
  116MOL0     H15986   2.775  11.522  -2.693  3.2113  0.8544 -0.7628
  116MOL0     H15987   2.735  11.447  -2.537 -3.3248  1.1805 -0.7957
  116MOL0     H15988   2.839  11.637  -1.469  0.3128 -0.5606  1.0175
  116MOL0     H15989   2.868  11.429  -1.348  4.3746  4.8766  0.1756
  116MOL0     H15990   2.904  10.910  -1.474  3.4211 -1.1606  1.6673
  116MOL0     H15991   2.945  10.701  -1.399  2.7428  0.5142  1.1772
  116MOL0     H15992   3.621   9.478  -0.027  2.4786  0.0708  0.0083
  116MOL0     H15993   3.727   9.356   0.154 -1.3109 -0.2708  0.3155
  116MOL0     H15994   4.112   9.247   0.365  2.1996  0.8171  0.1105
  116MOL0     H15995   4.228   9.128   0.560  1.1448  1.9373 -1.3274
  116MOL0     H15996   4.311   9.051   0.904 -0.2439 -1.1179  0.0459
  116MOL0     H15997   4.245   9.009   0.756  0.9606  0.4191 -0.4991
  116MOL0     H15998   4.429   9.165   0.641 -1.4452  1.0151 -1.3754
  116MOL0     H15999   4.504   9.060   0.758 -1.1706 -0.6199 -2.9443
  116MOL0     H16000   4.409   9.351   0.823  1.3829  1.4480 -0.8237
  116MOL0     H16001   4.491   9.245   0.932  1.4278  0.1744 -0.1294
  116MOL0     H16002   4.601   9.334   0.657  0.8119 -3.3209 -1.0871
  116MOL0     H16003   4.680   9.245   0.766 -0.2211  0.2027 -1.9040
  116MOL0     H16004   4.797   9.571   0.977  0.3434 -0.0572 -0.5976
  116MOL0     H16005   4.017   9.378   0.828  2.2981 -0.1910  1.1660
  116MOL0     H16006   3.839   9.591   0.623  2.2404  1.8034  2.7032
  116MOL0     H16007   3.748   9.435   0.661  0.5148 -1.0944 -1.3331
  116MOL0     H16008   3.856   9.515   0.774 -2.5106 -2.8886  0.1866
  117MOL0     O16009   5.821   7.023   2.654 -0.3495 -0.1506 -0.1864
  117MOL0     C16010   5.712   7.059   2.610 -0.2498 -0.6092  0.0804
  117MOL0     O16011   5.622   6.967   2.561 -0.0966  0.0875 -0.8596
  117MOL0     C16012   5.598   6.873   2.658 -0.2310 -0.9583  0.3489
  117MOL0     C16013   5.579   6.741   2.611 -0.0276  0.8854 -0.2549
  117MOL0     C16014   5.548   6.642   2.711 -0.4862 -0.4089 -0.3151
  117MOL0     C16015   5.545   6.671   2.847 -0.0157 -0.1428 -0.6373
  117MOL0     O16016   5.524   6.564   2.927  0.2008 -0.0874  0.4754
  117MOL0     C16017   5.508   6.591   3.064 -0.0923  0.0565 -0.1835
  117MOL0     C16018   5.552   6.468   3.138  0.6126 -0.8548 -0.4458
  117MOL0     C16019   5.492   6.344   3.076 -0.0829 -0.3890 -0.6127
  117MOL0     C16020   5.582   6.233   3.128  0.0553 -0.1574 -1.2104
  117MOL0     C16021   5.542   6.182   3.269  0.5154 -0.9546  0.7814
  117MOL0     C16022   5.615   6.054   3.326 -0.0157 -0.4602 -1.2874
  117MOL0     C16023   5.577   5.923   3.265 -0.6784  0.6616 -0.2424
  117MOL0     C16024   5.629   5.800   3.347 -0.6797 -0.3116  0.2320
  117MOL0     N16025   5.780   5.800   3.359 -0.8369 -0.2302 -0.3855
  117MOL0     C16026   5.865   5.771   3.255  0.3670  0.0664 -0.7924
  117MOL0     C16027   5.979   5.827   3.289  0.0972  0.3274  0.0764
  117MOL0     C16028   6.104   5.815   3.210 -0.3736 -0.2498 -0.9594
  117MOL0     C16029   6.167   5.678   3.240  0.0377  0.0456 -0.1479
  117MOL0     C16030   6.317   5.690   3.261 -0.2487 -0.0203 -0.2428
  117MOL0     C16031   6.416   5.744   3.145 -0.4986  0.2573  0.1071
  117MOL0     O16032   6.408   5.891   3.142 -0.4236  0.0668  0.1445
  117MOL0     C16033   6.414   5.956   3.020  0.0614  0.1087  0.2130
  117MOL0     C16034   6.340   5.912   2.906  0.2193  0.9687  0.3190
  117MOL0     C16035   6.348   5.981   2.785 -0.2749 -0.3118 -0.2108
  117MOL0     C16036   6.285   5.923   2.665 -0.1883 -0.2678  0.1200
  117MOL0     C16037   6.437   6.094   2.784  0.3363 -0.2480  0.1608
  117MOL0     C16038   6.455   6.170   2.661 -0.6117  0.0584  0.2417
  117MOL0     O16039   6.563   6.251   2.667 -0.5993 -0.4561 -0.2025
  117MOL0     C16040   6.619   6.325   2.564 -0.1563 -0.1680  0.7440
  117MOL0     C16041   6.546   6.370   2.452 -0.7648 -0.5125  0.3274
  117MOL0     C16042   6.610   6.447   2.361 -0.4732  0.1956  0.1497
  117MOL0     C16043   6.743   6.490   2.376  0.2393  0.5894  0.0804
  117MOL0     O16044   6.784   6.568   2.269 -0.1427 -0.0757  0.7188
  117MOL0     C16045   6.923   6.593   2.250  0.5329  0.0378  0.0697
  117MOL0     C16046   7.012   6.472   2.221 -0.0575 -0.3206  0.2682
  117MOL0     C16047   6.967   6.414   2.085 -0.0267 -0.1316  0.1228
  117MOL0     C16048   7.044   6.284   2.059  0.2233 -0.1008 -0.6753
  117MOL0     C16049   7.175   6.321   1.981 -0.7724 -0.0063 -0.6379
  117MOL0     C16050   7.246   6.204   1.924  0.7498 -0.3417  0.2937
  117MOL0     C16051   7.260   6.087   2.011  0.2538 -0.1223  0.3429
  117MOL0     C16052   7.344   5.980   1.930 -0.9568 -1.5083  0.6165
  117MOL0    Cl16053   7.460   5.886   2.037  0.0603  0.3527  0.5946
  117MOL0     C16054   6.807   6.447   2.488 -0.9565  0.1753  0.7466
  117MOL0     C16055   6.754   6.364   2.579 -0.1857 -0.3284  0.1691
  117MOL0     O16056   6.379   6.162   2.564  0.3895  0.2303 -0.9772
  117MOL0     C16057   6.513   6.129   2.895 -0.7775 -0.7087 -0.0780
  117MOL0     C16058   6.488   6.072   3.008  0.8492 -0.8748 -0.3099
  117MOL0     N16059   5.967   5.887   3.413  0.6608 -0.0914 -0.0327
  117MOL0     N16060   5.845   5.870   3.458 -0.4731  0.0539  0.1200
  117MOL0     C16061   5.537   6.806   2.882 -0.1174 -0.0632  0.7889
  117MOL0     C16062   5.572   6.910   2.793  0.7857  0.1727 -0.6562
  117MOL0     C16063   5.702   7.213   2.586 -0.1229  0.0770  0.2452
  117MOL0     C16064   5.579   7.276   2.582 -0.7639 -0.4203  0.3446
  117MOL0     C16065   5.563   7.406   2.532  0.5435 -0.1881  0.7351
  117MOL0     C16066   5.672   7.492   2.518 -0.4003 -0.7618 -0.8174
  117MOL0     O16067   5.667   7.628   2.482 -0.6063 -0.2689  0.2546
  117MOL0     C16068   5.555   7.704   2.513 -0.2976 -0.1402  0.7975
  117MOL0     C16069   5.439   7.680   2.422 -0.6276 -0.3329  0.7781
  117MOL0     C16070   5.361   7.810   2.412 -0.9517  0.1984  0.3238
  117MOL0     C16071   5.396   7.881   2.272 -0.3153  0.0805 -0.2945
  117MOL0     C16072   5.282   7.975   2.246 -0.0435 -0.7064  0.2346
  117MOL0     C16073   5.176   8.026   2.216  0.1083 -0.1155 -0.4833
  117MOL0     C16074   5.798   7.434   2.531 -0.6694  0.0972 -1.3825
  117MOL0     C16075   5.822   7.298   2.564  0.1990  0.6125 -0.6650
  117MOL0     C16076   5.968   7.245   2.568  0.4772  0.2895  0.0550
  117MOL0     H16077   5.577   6.724   2.504  0.4945 -4.5826  0.3165
  117MOL0     H16078   5.518   6.542   2.681  0.6399 -1.6356  2.3302
  117MOL0     H16079   5.402   6.608   3.081  0.3944  3.6292 -0.1051
  117MOL0     H16080   5.563   6.677   3.104 -0.7887  1.4266 -2.0360
  117MOL0     H16081   5.659   6.463   3.114  0.9036  0.0948  0.5386
  117MOL0     H16082   5.527   6.483   3.244 -2.9874  1.3664 -1.4197
  117MOL0     H16083   5.389   6.328   3.109  0.1705  2.9481  2.2787
  117MOL0     H16084   5.485   6.331   2.967 -1.3024 -0.4395 -0.5486
  117MOL0     H16085   5.591   6.155   3.053 -3.0039  2.0287 -4.1539
  117MOL0     H16086   5.686   6.263   3.148 -0.3455  0.7927 -0.4515
  117MOL0     H16087   5.434   6.170   3.279  0.5733 -0.2408  2.9680
  117MOL0     H16088   5.566   6.269   3.332 -0.7628  1.2441 -1.5679
  117MOL0     H16089   5.723   6.065   3.317  0.0675 -1.9694 -2.6576
  117MOL0     H16090   5.600   6.056   3.434 -0.0307  0.5691 -1.3009
  117MOL0     H16091   5.608   5.902   3.162 -1.0562  2.9447 -0.8744
  117MOL0     H16092   5.469   5.902   3.262 -0.5585  0.0787 -2.4349
  117MOL0     H16093   5.589   5.797   3.448  2.8503 -0.3209  1.7936
  117MOL0     H16094   5.588   5.715   3.292 -1.1102 -0.2706  0.4910
  117MOL0     H16095   5.841   5.724   3.160 -1.3955  2.1923 -1.4741
  117MOL0     H16096   6.173   5.899   3.220  0.4039 -0.9195 -0.5883
  117MOL0     H16097   6.081   5.811   3.103 -0.1293 -1.4009 -0.9820
  117MOL0     H16098   6.125   5.624   3.325 -0.0201 -0.1950 -0.3269
  117MOL0     H16099   6.149   5.612   3.155  1.1561  1.0986 -1.2419
  117MOL0     H16100   6.339   5.731   3.360 -1.2534 -0.9481  0.3952
  117MOL0     H16101   6.345   5.584   3.260  1.5243  0.4124 -0.6135
  117MOL0     H16102   6.521   5.717   3.156 -0.7831 -1.3114 -0.7343
  117MOL0     H16103   6.372   5.700   3.055  1.4131 -0.6978 -0.4045
  117MOL0     H16104   6.274   5.826   2.918  0.3603  0.9101  0.6911
  117MOL0     H16105   6.360   5.880   2.598 -0.5613 -0.4346 -0.1945
  117MOL0     H16106   6.225   5.987   2.599 -1.2636  0.6932  1.9539
  117MOL0     H16107   6.222   5.843   2.703  0.8380 -0.4305  1.5649
  117MOL0     H16108   6.443   6.344   2.429 -0.9640 -0.2684  0.9311
  117MOL0     H16109   6.571   6.482   2.266  1.9849  2.2004 -0.2376
  117MOL0     H16110   6.945   6.672   2.179  1.4747 -0.5294 -0.2804
  117MOL0     H16111   6.958   6.647   2.338  0.4135  2.4422 -1.2732
  117MOL0     H16112   7.115   6.509   2.226  0.6683 -2.3021  1.4283
  117MOL0     H16113   7.007   6.397   2.301  1.7478  1.6859  2.4074
  117MOL0     H16114   6.982   6.485   2.003  0.5932  0.0091  0.3501
  117MOL0     H16115   6.863   6.380   2.077 -0.3153  1.1015 -2.6227
  117MOL0     H16116   6.991   6.221   1.987  0.3559 -1.5551  0.4681
  117MOL0     H16117   7.074   6.231   2.150 -2.3787 -0.8437 -0.1608
  117MOL0     H16118   7.150   6.396   1.905 -1.2474 -1.0987 -1.5935
  117MOL0     H16119   7.251   6.371   2.042  0.6371 -2.0817 -0.5991
  117MOL0     H16120   7.340   6.241   1.883  1.2638 -2.2752 -0.4160
  117MOL0     H16121   7.172   6.182   1.847 -0.4845  1.6322  0.8525
  117MOL0     H16122   7.163   6.041   2.036 -0.2422 -0.1586 -1.5042
  117MOL0     H16123   7.311   6.110   2.105 -2.0101 -0.2087  1.6760
  117MOL0     H16124   7.407   6.026   1.854 -0.8082 -1.7878  0.5680
  117MOL0     H16125   7.281   5.918   1.867 -4.0172  0.6505  1.3208
  117MOL0     H16126   6.907   6.487   2.500  0.5618 -3.3065  0.8794
  117MOL0     H16127   6.816   6.322   2.658  1.2728 -1.0362 -1.2912
  117MOL0     H16128   6.591   6.205   2.896 -3.1476  2.1282 -3.0646
  117MOL0     H16129   6.534   6.095   3.104  0.3091 -1.3908  0.0842
  117MOL0     H16130   5.504   6.838   2.981  3.1522  2.2352  1.2785
  117MOL0     H16131   5.586   7.015   2.819  1.0769 -0.1001  0.3093
  117MOL0     H16132   5.488   7.227   2.616 -0.8071 -2.0359 -1.8712
  117MOL0     H16133   5.462   7.446   2.529  0.4172  0.1056  4.4323
  117MOL0     H16134   5.510   7.683   2.610  0.9517  1.9312  1.8897
  117MOL0     H16135   5.599   7.804   2.512 -0.3845 -0.1049  0.2549
  117MOL0     H16136   5.376   7.607   2.474 -0.8419 -1.3718 -0.8519
  117MOL0     H16137   5.458   7.640   2.322 -2.0592  0.1022  0.3054
  117MOL0     H16138   5.256   7.784   2.394 -0.9133  1.7650 -2.9829
  117MOL0     H16139   5.377   7.879   2.496  0.9721  3.2336 -2.2889
  117MOL0     H16140   5.397   7.813   2.186 -0.4244 -0.1085 -0.1486
  117MOL0     H16141   5.488   7.940   2.266 -3.3212  5.3610 -1.2613
  117MOL0     H16142   5.077   8.065   2.201  0.0075  2.0127  3.9460
  117MOL0     H16143   5.881   7.498   2.504  0.1758 -1.0151 -1.4801
  117MOL0     H16144   6.024   7.327   2.521 -2.2863  3.2280  1.5126
  117MOL0     H16145   6.018   7.217   2.662  0.2923 -0.3906 -0.0454
  117MOL0     H16146   5.979   7.151   2.513 -1.3387 -0.2568  0.5773
  118MOL0     O16147  10.268   7.243   1.624  0.5257 -0.7258  0.0709
  118MOL0     C16148  10.348   7.205   1.551 -0.0054 -0.8588 -0.0536
  118MOL0     O16149  10.425   7.089   1.550 -0.6621 -0.2872 -0.2163
  118MOL0     C16150  10.417   7.011   1.660  0.0562  0.9158  0.4290
  118MOL0     C16151  10.310   6.922   1.656 -0.1584 -0.0160  0.3782
  118MOL0     C16152  10.288   6.846   1.772 -0.1857  0.3400 -0.1115
  118MOL0     C16153  10.381   6.836   1.877 -1.0339 -0.5499  0.5312
  118MOL0     O16154  10.379   6.743   1.977  0.2558 -0.4191 -0.1103
  118MOL0     C16155  10.250   6.714   2.031 -0.2158 -0.2985 -0.6364
  118MOL0     C16156  10.276   6.629   2.161  1.1113 -0.2603  0.1814
  118MOL0     C16157  10.166   6.526   2.176 -0.9184  1.0350 -0.2793
  118MOL0     C16158  10.029   6.582   2.216 -0.2236 -0.2628 -1.1014
  118MOL0     C16159   9.908   6.482   2.208 -0.7423 -0.4608  0.0601
  118MOL0     C16160   9.907   6.358   2.287  0.0399  0.1666 -0.6672
  118MOL0     C16161   9.765   6.303   2.313  0.0568 -0.0016 -0.7269
  118MOL0     C16162   9.699   6.382   2.424 -0.8478  0.5824  0.0322
  118MOL0     N16163   9.563   6.340   2.436  0.2859  0.2647 -0.2447
  118MOL0     C16164   9.452   6.398   2.390  0.9367  0.4923  0.8043
  118MOL0     C16165   9.347   6.315   2.427  0.5779  0.0367 -0.3991
  118MOL0     C16166   9.211   6.346   2.379  0.6942 -0.0901  0.0372
  118MOL0     C16167   9.128   6.353   2.506 -0.9856 -0.6126  0.2776
  118MOL0     C16168   8.988   6.406   2.484 -0.1827 -1.2969 -0.1755
  118MOL0     C16169   8.914   6.331   2.380  0.7032  0.2101 -0.1730
  118MOL0     O16170   8.773   6.364   2.394 -0.0331 -0.2378  0.5913
  118MOL0     C16171   8.696   6.302   2.490  0.0382  0.2935 -0.0739
  118MOL0     C16172   8.731   6.187   2.559 -0.9760  1.7055  0.9790
  118MOL0     C16173   8.650   6.123   2.655 -0.4078  0.6127  0.5113
  118MOL0     C16174   8.707   6.002   2.726 -0.6376  0.2065 -0.5386
  118MOL0     C16175   8.522   6.175   2.688  0.5420  0.4226 -0.5724
  118MOL0     C16176   8.437   6.113   2.796 -0.7301  0.3743 -0.6466
  118MOL0     O16177   8.327   6.190   2.814 -0.4685  0.1616  0.0562
  118MOL0     C16178   8.218   6.122   2.866  0.4811  0.4410 -0.4025
  118MOL0     C16179   8.124   6.055   2.787  0.3619 -0.0373  0.3359
  118MOL0     C16180   8.010   5.989   2.834 -0.5116  0.0167 -0.2533
  118MOL0     C16181   7.997   5.983   2.972 -0.7630  0.1765 -0.7957
  118MOL0     O16182   7.893   5.918   3.027 -0.3542 -0.1947 -0.9927
  118MOL0     C16183   7.779   5.872   2.950 -0.1566 -0.5009 -0.1107
  118MOL0     C16184   7.819   5.729   2.906 -0.2287  0.7645 -0.8677
  118MOL0     C16185   7.716   5.657   2.822 -0.1018 -0.2673 -0.4354
  118MOL0     C16186   7.777   5.580   2.707 -0.3115  0.5581 -0.0756
  118MOL0     C16187   7.670   5.490   2.639  0.1042 -0.2112 -0.3251
  118MOL0     C16188   7.558   5.559   2.555 -0.2306 -0.3918  0.3459
  118MOL0     C16189   7.608   5.627   2.432 -0.9493 -1.0686 -0.1021
  118MOL0     C16190   7.498   5.718   2.381  0.3987  1.1362  0.0920
  118MOL0    Cl16191   7.463   5.847   2.492  0.0560 -0.0766  0.4554
  118MOL0     C16192   8.092   6.040   3.064  0.1575 -0.1445  0.0856
  118MOL0     C16193   8.199   6.111   3.008 -0.9520  0.5516  0.0821
  118MOL0     O16194   8.469   6.012   2.869 -0.9659  0.0408 -0.1012
  118MOL0     C16195   8.475   6.286   2.614  0.4455  0.0331  0.3281
  118MOL0     C16196   8.559   6.347   2.515  0.4938  0.1184  0.7757
  118MOL0     N16197   9.397   6.195   2.475 -0.7921  0.7319  0.7958
  118MOL0     N16198   9.532   6.218   2.481  0.1112  0.6157 -0.1088
  118MOL0     C16199  10.495   6.920   1.867 -0.4676 -0.3108  0.2273
  118MOL0     C16200  10.509   7.013   1.769 -1.2021 -0.9168 -0.7399
  118MOL0     C16201  10.384   7.304   1.447 -0.4556 -0.5923 -0.3119
  118MOL0     C16202  10.382   7.437   1.485 -0.0559 -0.1423  0.2588
  118MOL0     C16203  10.418   7.542   1.401  0.7300  0.4634  0.5706
  118MOL0     C16204  10.448   7.513   1.272  0.6962 -0.0225  0.0227
  118MOL0     O16205  10.485   7.626   1.188 -0.0611  0.2036 -0.4171
  118MOL0     C16206  10.574   7.614   1.071 -0.6530  1.0320 -0.7088
  118MOL0     C16207  10.505   7.658   0.940  0.6463  0.3333 -0.0169
  118MOL0     C16208  10.475   7.808   0.946 -0.5902  0.3294  0.2907
  118MOL0     C16209  10.385   7.867   0.839  0.0674  1.0516 -0.5936
  118MOL0     C16210  10.241   7.819   0.860  0.4567 -0.1699  0.0197
  118MOL0     C16211  10.130   7.765   0.870  0.2391 -0.5608  0.1473
  118MOL0     C16212  10.445   7.379   1.228 -0.9502  0.7474  0.3312
  118MOL0     C16213  10.412   7.273   1.314  0.2755 -0.2025 -0.5491
  118MOL0     C16214  10.430   7.140   1.272  0.6884  0.0463 -0.1963
  118MOL0     H16215  10.236   6.949   1.581 -2.3024 -0.9853  2.0451
  118MOL0     H16216  10.194   6.791   1.771  0.1266 -0.1994  0.1554
  118MOL0     H16217  10.193   6.662   1.953  1.3247 -1.3454 -1.1177
  118MOL0     H16218  10.203   6.807   2.063  1.5921 -0.1779  2.0192
  118MOL0     H16219  10.370   6.575   2.148  1.1100  0.2032 -2.2186
  118MOL0     H16220  10.296   6.696   2.246  1.1810  1.9900 -1.5188
  118MOL0     H16221  10.147   6.456   2.094 -0.6964  1.0697 -0.3598
  118MOL0     H16222  10.208   6.450   2.242 -2.1126  0.6403  0.0521
  118MOL0     H16223  10.052   6.614   2.318 -2.6626  1.3103 -0.9670
  118MOL0     H16224  10.000   6.669   2.157 -4.8569 -0.0440  1.0417
  118MOL0     H16225   9.898   6.462   2.101 -0.2502 -0.3146 -0.0194
  118MOL0     H16226   9.830   6.554   2.235  0.5814  1.4919 -1.0507
  118MOL0     H16227   9.966   6.286   2.229 -0.1914 -0.3279 -0.2905
  118MOL0     H16228   9.940   6.381   2.389 -4.6450  1.4080  0.7963
  118MOL0     H16229   9.765   6.198   2.343  0.8763 -1.0487 -4.0171
  118MOL0     H16230   9.702   6.307   2.224  0.3592  2.1097 -0.9094
  118MOL0     H16231   9.760   6.366   2.513 -0.1738  4.1848  0.4017
  118MOL0     H16232   9.701   6.489   2.401 -0.1330  0.8837  1.3737
  118MOL0     H16233   9.444   6.493   2.337  3.4482  1.0831  1.3492
  118MOL0     H16234   9.172   6.269   2.311 -0.9156  1.7654 -1.2447
  118MOL0     H16235   9.203   6.442   2.327 -3.8419  0.6598  1.7043
  118MOL0     H16236   9.129   6.261   2.566 -1.9360 -0.2311  0.8888
  118MOL0     H16237   9.179   6.418   2.578 -0.7069  0.8882 -1.2077
  118MOL0     H16238   8.934   6.395   2.578 -1.6845  0.5754 -0.7452
  118MOL0     H16239   8.999   6.510   2.451  0.9493 -0.7442  1.7803
  118MOL0     H16240   8.943   6.369   2.281  1.4113  3.4142  1.1284
  118MOL0     H16241   8.926   6.223   2.394 -1.0819 -0.0248 -0.1963
  118MOL0     H16242   8.826   6.140   2.536 -0.7334  2.6577 -0.0784
  118MOL0     H16243   8.736   6.012   2.831  0.3855  0.4677 -0.8338
  118MOL0     H16244   8.796   5.968   2.673  1.0008  1.4188  1.3034
  118MOL0     H16245   8.644   5.912   2.730  3.0644 -2.5694  1.4793
  118MOL0     H16246   8.147   6.049   2.681  0.4237 -0.3348  0.3649
  118MOL0     H16247   7.944   5.930   2.771  0.0960 -2.6425  1.4073
  118MOL0     H16248   7.702   5.875   3.028  0.7992 -1.5500  0.9270
  118MOL0     H16249   7.752   5.935   2.865  1.8769  1.2538  0.4311
  118MOL0     H16250   7.913   5.742   2.852 -1.1274 -0.8104 -2.9957
  118MOL0     H16251   7.839   5.665   2.993 -0.7740  0.2975 -1.0795
  118MOL0     H16252   7.647   5.728   2.774  0.0800 -0.5170 -1.0711
  118MOL0     H16253   7.655   5.598   2.891 -1.2427 -0.3321 -1.4698
  118MOL0     H16254   7.857   5.520   2.752 -0.3594  0.6259  0.1001
  118MOL0     H16255   7.821   5.647   2.632  0.0122  0.2122 -0.1965
  118MOL0     H16256   7.719   5.413   2.579  1.0324  0.7350 -0.8302
  118MOL0     H16257   7.620   5.439   2.722  1.6737  2.4947  2.5205
  118MOL0     H16258   7.512   5.622   2.631 -0.8242 -3.2752  2.5470
  118MOL0     H16259   7.492   5.477   2.525  1.6820 -0.4953 -4.4044
  118MOL0     H16260   7.641   5.548   2.364  0.2688  0.2708 -1.1245
  118MOL0     H16261   7.693   5.688   2.461  0.2007 -2.2272 -0.9410
  118MOL0     H16262   7.415   5.648   2.370  2.0871 -0.8763 -0.5908
  118MOL0     H16263   7.529   5.769   2.289 -0.4349  1.5138  0.0137
  118MOL0     H16264   8.076   6.041   3.171  1.6115 -0.1507  0.3141
  118MOL0     H16265   8.266   6.163   3.077  0.3082  3.2567 -2.9463
  118MOL0     H16266   8.376   6.325   2.637  1.0740  3.3035 -1.8216
  118MOL0     H16267   8.516   6.427   2.457  1.5903 -0.4142 -0.8510
  118MOL0     H16268  10.570   6.906   1.944 -2.6215 -0.0013  2.5220
  118MOL0     H16269  10.595   7.079   1.765 -1.5496 -0.5009 -1.4737
  118MOL0     H16270  10.353   7.475   1.583  1.4676  2.3717 -0.1933
  118MOL0     H16271  10.410   7.641   1.445 -0.1879  0.2330  0.9449
  118MOL0     H16272  10.661   7.681   1.077 -0.1774  0.3629  0.0951
  118MOL0     H16273  10.622   7.516   1.056  1.2282  1.8951 -0.6501
  118MOL0     H16274  10.414   7.596   0.939 -1.2292  2.9259  0.1110
  118MOL0     H16275  10.554   7.639   0.844  1.8652  0.6084  0.5371
  118MOL0     H16276  10.432   7.827   1.044 -1.8796  3.2227 -0.7140
  118MOL0     H16277  10.566   7.867   0.934  0.1002 -0.9347 -0.9900
  118MOL0     H16278  10.424   7.842   0.740 -1.9907  4.6120 -2.4984
  118MOL0     H16279  10.385   7.975   0.855 -1.4799  0.6755  2.8596
  118MOL0     H16280  10.026   7.741   0.865 -0.1415  1.1560 -1.0227
  118MOL0     H16281  10.473   7.351   1.127 -3.1804 -1.2793  0.1748
  118MOL0     H16282  10.346   7.073   1.287  1.7725 -0.6845  3.6320
  118MOL0     H16283  10.452   7.142   1.165 -0.9098  4.2965 -0.6470
  118MOL0     H16284  10.511   7.094   1.330  0.6054  0.0172 -0.1046
  119MOL0     O16285   0.393   8.132  10.956 -0.0866  0.1873 -0.8027
  119MOL0     C16286   0.468   8.055  10.899  0.2314 -1.1199 -0.4852
  119MOL0     O16287   0.589   8.100  10.852  1.0154 -0.4679 -0.7189
  119MOL0     C16288   0.599   8.228  10.791 -0.2697  0.0670 -0.8074
  119MOL0     C16289   0.711   8.304  10.821 -0.2618  1.1449 -0.7430
  119MOL0     C16290   0.735   8.426  10.752  0.8711  0.1101  0.0080
  119MOL0     C16291   0.643   8.476  10.672 -0.4210  0.3633  0.6188
  119MOL0     O16292   0.658   8.597  10.613 -0.2488  1.0204 -0.5243
  119MOL0     C16293   0.645   8.694  10.716 -0.0084  0.6769  0.3243
  119MOL0     C16294   0.604   8.821  10.652  0.0939 -0.3435  0.2092
  119MOL0     C16295   0.454   8.840  10.670  1.4291 -0.6346  0.7179
  119MOL0     C16296   0.363   8.755  10.582  0.7591 -0.7254  0.4858
  119MOL0     C16297   0.247   8.833  10.526 -0.3069  0.0473 -0.3277
  119MOL0     C16298   0.150   8.874  10.627  0.0358 -0.6908  0.4486
  119MOL0     C16299   0.027   8.955  10.566 -0.8939  0.2066 -0.2014
  119MOL0     C16300  -0.099   8.864  10.557 -0.9866 -1.2221 -0.6132
  119MOL0     N16301  -0.224   8.938  10.516  0.2614  0.0778 -0.7820
  119MOL0     C16302  -0.238   8.984  10.388 -0.0031 -0.3680  0.2418
  119MOL0     C16303  -0.334   9.079  10.397 -0.1119  0.1019 -0.6619
  119MOL0     C16304  -0.408   9.128  10.274 -0.0894  0.4690  0.3609
  119MOL0     C16305  -0.512   9.027  10.228  0.6583  0.1265  0.3000
  119MOL0     C16306  -0.597   9.082  10.107 -0.8488  0.2351 -0.7765
  119MOL0     C16307  -0.719   9.003  10.081  0.1281  0.3667  0.4597
  119MOL0     O16308  -0.692   8.865  10.062  0.8777  0.1991 -0.1784
  119MOL0     C16309  -0.794   8.798   9.985 -0.3385  0.4028  0.1192
  119MOL0     C16310  -0.924   8.780  10.014 -0.3495  0.8827 -0.7283
  119MOL0     C16311  -1.020   8.727   9.926 -1.1092  0.6999 -0.3829
  119MOL0     C16312  -1.162   8.741   9.970  0.2762 -0.1904 -0.0215
  119MOL0     C16313  -0.979   8.679   9.801 -0.4494 -0.4552  0.2244
  119MOL0     C16314  -1.083   8.616   9.711  0.2984  0.0881 -0.8610
  119MOL0     O16315  -1.060   8.625   9.580 -0.3399  0.5554  0.7498
  119MOL0     C16316  -1.154   8.575   9.498  0.3347  0.2559  0.1742
  119MOL0     C16317  -1.234   8.668   9.436 -0.6177 -0.1984  0.2305
  119MOL0     C16318  -1.330   8.628   9.347  0.8017 -0.5410  0.0272
  119MOL0     C16319  -1.348   8.491   9.328 -0.0374 -0.3662 -0.4265
  119MOL0     O16320  -1.456   8.438   9.259 -1.1672  0.4894 -0.2561
  119MOL0     C16321  -1.579   8.496   9.239 -0.0118  0.6671  0.1896
  119MOL0     C16322  -1.698   8.405   9.281 -0.4806  0.6904  0.4062
  119MOL0     C16323  -1.832   8.434   9.216  0.3659 -0.4573  0.5666
  119MOL0     C16324  -1.936   8.320   9.263 -0.1987 -0.6543  0.2929
  119MOL0     C16325  -1.928   8.190   9.182 -0.1013  0.9496 -0.3534
  119MOL0     C16326  -2.057   8.098   9.169  0.3760  0.7355  0.6816
  119MOL0     C16327  -2.152   8.132   9.047  0.2664  0.2163  0.4055
  119MOL0     C16328  -2.081   8.158   8.919  0.9503 -0.2379 -0.0864
  119MOL0    Cl16329  -2.218   8.127   8.809 -0.2608 -0.2612  0.1762
  119MOL0     C16330  -1.283   8.391   9.399  0.5037  0.2728 -0.6746
  119MOL0     C16331  -1.185   8.435   9.480 -0.4601 -0.8466  0.1347
  119MOL0     O16332  -1.161   8.531   9.760 -0.2266 -0.2478  0.0765
  119MOL0     C16333  -0.842   8.683   9.767 -0.6480 -0.4355  0.2525
  119MOL0     C16334  -0.752   8.740   9.861 -0.3913  0.1733 -0.5516
  119MOL0     N16335  -0.385   9.083  10.527 -0.3658 -1.2745  0.1612
  119MOL0     N16336  -0.303   9.010  10.606  0.4154  0.2439  1.0479
  119MOL0     C16337   0.523   8.406  10.649  0.7185 -0.4984  0.0935
  119MOL0     C16338   0.499   8.280  10.711  0.3737  0.3512 -0.6373
  119MOL0     C16339   0.442   7.904  10.894 -0.0217 -0.2667  0.5056
  119MOL0     C16340   0.556   7.815  10.884 -0.3136 -0.1799  0.2738
  119MOL0     C16341   0.535   7.680  10.885 -0.1690  0.5834  0.4530
  119MOL0     C16342   0.412   7.624  10.907  0.8394  0.3918 -0.6558
  119MOL0     O16343   0.406   7.485  10.908  0.0188 -0.3518  0.6001
  119MOL0     C16344   0.293   7.413  10.964 -0.8946 -0.8341 -0.0849
  119MOL0     C16345   0.315   7.261  11.003  0.3709 -0.1961 -0.2752
  119MOL0     C16346   0.366   7.180  10.883 -0.4375 -0.2306  0.4628
  119MOL0     C16347   0.248   7.188  10.780  0.3926 -0.8991 -0.3733
  119MOL0     C16348   0.294   7.098  10.672 -0.0288  0.1557 -0.0382
  119MOL0     C16349   0.320   7.021  10.577 -0.2540 -0.6857  0.2840
  119MOL0     C16350   0.301   7.702  10.919 -0.3465  0.1068 -0.8896
  119MOL0     C16351   0.313   7.846  10.904 -0.3189  0.7877  0.1076
  119MOL0     C16352   0.186   7.921  10.890  0.3037  0.4234  1.1357
  119MOL0     H16353   0.787   8.251  10.877 -0.1110  1.6271 -0.4877
  119MOL0     H16354   0.824   8.488  10.761  1.2600 -0.0525 -2.0752
  119MOL0     H16355   0.739   8.696  10.773  0.0834 -0.4791  0.2469
  119MOL0     H16356   0.583   8.664  10.801  3.3089 -0.4027  2.5692
  119MOL0     H16357   0.651   8.910  10.694 -1.8059  0.9700 -0.3714
  119MOL0     H16358   0.633   8.812  10.547  1.4406 -0.8778  0.6018
  119MOL0     H16359   0.421   8.840  10.774 -1.9435  1.6597 -0.1926
  119MOL0     H16360   0.444   8.942  10.632 -0.4729 -0.9295  0.3292
  119MOL0     H16361   0.420   8.703  10.505  1.3910 -0.7223  0.9497
  119MOL0     H16362   0.329   8.671  10.643 -1.7705  0.3948  0.7865
  119MOL0     H16363   0.197   8.778  10.445  0.6077  0.7841 -1.4311
  119MOL0     H16364   0.287   8.921  10.474  1.3448 -1.4320 -1.7278
  119MOL0     H16365   0.115   8.793  10.691 -0.4387 -0.2298  0.7790
  119MOL0     H16366   0.205   8.940  10.695  1.9450  0.5310 -2.0914
  119MOL0     H16367   0.050   8.993  10.465  0.7500 -4.7111 -1.9966
  119MOL0     H16368  -0.001   9.035  10.635  0.1524 -0.5825  1.1862
  119MOL0     H16369  -0.079   8.782  10.488 -2.3423 -1.6337 -0.5435
  119MOL0     H16370  -0.095   8.818  10.657  1.4058 -0.1142 -0.1162
  119MOL0     H16371  -0.170   8.970  10.304 -0.7391 -1.8428 -0.1364
  119MOL0     H16372  -0.339   9.151  10.192 -1.3660  0.1763 -0.8318
  119MOL0     H16373  -0.468   9.216  10.298  0.2530  0.5816  0.8290
  119MOL0     H16374  -0.454   8.935  10.212 -1.7046 -1.9974  2.8251
  119MOL0     H16375  -0.581   9.010  10.311  0.3141  1.5609  0.3235
  119MOL0     H16376  -0.625   9.185  10.131  0.7971  0.8656 -1.4290
  119MOL0     H16377  -0.542   9.069  10.013 -0.7061 -4.7013 -0.3013
  119MOL0     H16378  -0.787   9.013  10.165 -1.7748 -0.3967 -0.9118
  119MOL0     H16379  -0.761   9.042   9.988  2.5222 -0.1644 -0.9299
  119MOL0     H16380  -0.976   8.829  10.096 -2.0375 -0.8206 -0.7093
  119MOL0     H16381  -1.212   8.643   9.976 -0.1332 -0.2128 -2.7476
  119MOL0     H16382  -1.224   8.799   9.902  0.6050 -1.5717 -1.5700
  119MOL0     H16383  -1.168   8.773  10.075 -1.5661 -2.2206  0.5651
  119MOL0     H16384  -1.202   8.771   9.450  0.8795 -0.9319  3.1258
  119MOL0     H16385  -1.401   8.692   9.295  0.4909 -1.2590 -0.4375
  119MOL0     H16386  -1.596   8.594   9.284  2.1187  1.0023  0.3408
  119MOL0     H16387  -1.587   8.504   9.130  0.7247  4.4608  0.3040
  119MOL0     H16388  -1.677   8.302   9.251 -0.2105  0.1608  2.2470
  119MOL0     H16389  -1.712   8.410   9.390  3.7250  3.1211  1.0308
  119MOL0     H16390  -1.846   8.443   9.108 -4.5242 -1.1167  0.9104
  119MOL0     H16391  -1.872   8.532   9.244  1.5116  0.4449 -0.8035
  119MOL0     H16392  -2.032   8.373   9.258  0.2791  0.2543  0.5178
  119MOL0     H16393  -1.922   8.294   9.368 -0.5570 -2.4693 -0.0839
  119MOL0     H16394  -1.891   8.207   9.080  1.1602 -0.3345 -0.1583
  119MOL0     H16395  -1.842   8.131   9.216  0.1787  0.1612 -2.3141
  119MOL0     H16396  -2.120   8.099   9.259  1.2891  0.8718  1.3297
  119MOL0     H16397  -2.032   7.993   9.148  1.8636  1.6727 -2.9500
  119MOL0     H16398  -2.222   8.215   9.066  2.5352  2.9223 -2.1612
  119MOL0     H16399  -2.222   8.050   9.027 -0.7486  0.4021  2.7755
  119MOL0     H16400  -1.999   8.092   8.891  0.5004 -0.8559  0.0240
  119MOL0     H16401  -2.044   8.261   8.925 -0.4185  0.2705  0.1066
  119MOL0     H16402  -1.316   8.287   9.401  0.2772  0.3087 -1.9521
  119MOL0     H16403  -1.124   8.356   9.523  2.3797  0.2953 -1.4860
  119MOL0     H16404  -0.795   8.641   9.678 -0.6861 -0.8721  0.4347
  119MOL0     H16405  -0.649   8.751   9.830 -0.4770 -0.4412 -1.0819
  119MOL0     H16406   0.444   8.441  10.584 -2.3281 -3.4388  1.8406
  119MOL0     H16407   0.407   8.222  10.709 -0.6255  1.8752 -0.1362
  119MOL0     H16408   0.658   7.850  10.875  0.4815 -2.1059  1.1185
  119MOL0     H16409   0.619   7.616  10.863  0.5892  0.6276  2.8646
  119MOL0     H16410   0.278   7.460  11.061 -2.9560 -2.3951  0.4062
  119MOL0     H16411   0.205   7.431  10.903  1.0928  1.0378 -2.6323
  119MOL0     H16412   0.222   7.223  11.045 -1.8674  2.4359 -2.4752
  119MOL0     H16413   0.395   7.248  11.077  0.7574 -4.2089 -1.1263
  119MOL0     H16414   0.463   7.220  10.853 -0.7028 -1.1400 -1.7434
  119MOL0     H16415   0.388   7.076  10.908 -0.7590 -0.7064 -1.1425
  119MOL0     H16416   0.243   7.292  10.748 -1.3421 -0.6729  0.5019
  119MOL0     H16417   0.151   7.165  10.826  0.8799 -3.1992 -0.3473
  119MOL0     H16418   0.313   6.939  10.508 -0.6075 -1.8917  1.6887
  119MOL0     H16419   0.200   7.663  10.925 -0.0437 -0.5054  2.2074
  119MOL0     H16420   0.106   7.863  10.936  1.2017 -0.8457  1.1385
  119MOL0     H16421   0.183   8.019  10.938 -0.4420  0.0896  1.7824
  119MOL0     H16422   0.162   7.932  10.784  0.8286  3.6296  1.2391
  120MOL0     O16423   1.637  10.824   9.307 -0.0393  0.4334 -0.4030
  120MOL0     C16424   1.756  10.849   9.344  0.6653 -0.4289  0.0758
  120MOL0     O16425   1.870  10.849   9.262  0.5505  0.5696 -0.4317
  120MOL0     C16426   1.861  10.841   9.122  0.0003 -0.0876 -0.8041
  120MOL0     C16427   1.953  10.767   9.043 -0.7358 -0.2501  0.3966
  120MOL0     C16428   1.944  10.762   8.906 -0.1261 -0.5828  0.6638
  120MOL0     C16429   1.852  10.840   8.829 -0.3176  0.4315 -0.1810
  120MOL0     O16430   1.838  10.834   8.694  0.1917 -0.1816  0.2164
  120MOL0     C16431   1.938  10.788   8.611  0.2463  1.0194  0.3778
  120MOL0     C16432   1.927  10.856   8.473 -0.2787  0.8555 -0.2854
  120MOL0     C16433   2.020  10.976   8.456  0.6065 -0.0122 -0.5394
  120MOL0     C16434   2.107  10.944   8.334  0.5794  0.4644  0.7398
  120MOL0     C16435   2.206  11.052   8.293 -0.2922 -0.3290 -0.8512
  120MOL0     C16436   2.142  11.162   8.217 -0.3941  0.2939 -1.3327
  120MOL0     C16437   2.247  11.270   8.204  0.6542 -0.8482  0.5767
  120MOL0     C16438   2.367  11.249   8.116  0.0416  0.5832  0.0973
  120MOL0     N16439   2.323  11.282   7.981  0.6062 -0.2423 -0.3193
  120MOL0     C16440   2.298  11.200   7.877 -0.4027 -0.0352  0.2500
  120MOL0     C16441   2.303  11.281   7.766 -0.4690  0.0823  0.1747
  120MOL0     C16442   2.272  11.223   7.636 -0.3379 -0.2989  0.4417
  120MOL0     C16443   2.276  11.332   7.524  0.5243 -0.5413  0.6241
  120MOL0     C16444   2.411  11.327   7.438  0.4203  0.3348 -0.5752
  120MOL0     C16445   2.530  11.343   7.521 -0.3091  0.7307 -0.7385
  120MOL0     O16446   2.519  11.467   7.588  1.5035 -0.1370  0.2527
  120MOL0     C16447   2.574  11.580   7.540 -0.4921 -0.7464 -0.5519
  120MOL0     C16448   2.588  11.670   7.636 -0.5210  0.3811  0.3463
  120MOL0     C16449   2.669  11.782   7.620 -0.3952 -0.7680  0.6663
  120MOL0     C16450   2.714  11.866   7.733 -0.8442  0.4281 -0.3873
  120MOL0     C16451   2.733  11.795   7.497 -0.5573  0.0551  1.1137
  120MOL0     C16452   2.838  11.901   7.461 -0.6965  0.4076 -0.0522
  120MOL0     O16453   2.933  11.935   7.553  0.7628  0.0833  0.2475
  120MOL0     C16454   2.996  12.056   7.554 -0.7032  0.1193 -0.4556
  120MOL0     C16455   2.937  12.173   7.509 -0.8886 -0.2499  0.3469
  120MOL0     C16456   3.015  12.288   7.511  0.5504  0.0504 -0.1140
  120MOL0     C16457   3.150  12.288   7.556  0.7579  0.3530 -0.9009
  120MOL0     O16458   3.237  12.387   7.565 -0.3625  0.0015  0.2600
  120MOL0     C16459   3.196  12.510   7.510 -0.2064 -0.0369 -0.3605
  120MOL0     C16460   3.322  12.595   7.513  1.1424  0.0856  0.2595
  120MOL0     C16461   3.415  12.553   7.397 -0.9047  0.2878 -0.9014
  120MOL0     C16462   3.356  12.579   7.266  0.1630  0.5695 -0.9005
  120MOL0     C16463   3.458  12.560   7.152  0.2434 -0.0122 -0.4040
  120MOL0     C16464   3.420  12.591   7.002  0.0384 -0.3309 -0.2778
  120MOL0     C16465   3.373  12.729   6.991 -0.6985  0.2234 -0.0058
  120MOL0     C16466   3.382  12.784   6.844 -0.1797  0.2443  0.0461
  120MOL0    Cl16467   3.271  12.673   6.740 -0.4064 -0.4378  0.0640
  120MOL0     C16468   3.213  12.170   7.601 -0.3115 -0.6655  0.3382
  120MOL0     C16469   3.126  12.060   7.612 -0.5119  0.2791 -0.2255
  120MOL0     O16470   2.819  11.959   7.357 -0.5063 -0.5083  0.1013
  120MOL0     C16471   2.702  11.704   7.392  0.2302 -0.2524 -0.6341
  120MOL0     C16472   2.621  11.599   7.411  0.4819  0.6808  0.8449
  120MOL0     N16473   2.333  11.412   7.795  0.1689  0.3853  0.4141
  120MOL0     N16474   2.342  11.413   7.925  0.0657 -0.9136  0.2456
  120MOL0     C16475   1.763  10.921   8.903  0.7640 -0.4449  0.1217
  120MOL0     C16476   1.765  10.925   9.049 -0.4818  0.7269 -0.5165
  120MOL0     C16477   1.780  10.871   9.484  0.0741  0.6251  0.4914
  120MOL0     C16478   1.905  10.838   9.532  0.5608  0.4788 -0.6296
  120MOL0     C16479   1.948  10.868   9.665  0.8762  0.7529 -0.1479
  120MOL0     C16480   1.849  10.906   9.755  0.9745 -0.5481 -0.6464
  120MOL0     O16481   1.876  10.932   9.888  0.0041  0.0563  0.6742
  120MOL0     C16482   1.985  11.022   9.931  0.0992 -0.6622  0.0975
  120MOL0     C16483   1.962  11.157   9.881 -0.1563 -0.1066  0.2385
  120MOL0     C16484   2.013  11.278   9.961 -1.3639 -0.3000 -0.5570
  120MOL0     C16485   2.166  11.290   9.988 -0.6695  0.2771  0.5149
  120MOL0     C16486   2.203  11.205  10.103 -0.0900  1.4111 -0.5469
  120MOL0     C16487   2.224  11.140  10.207 -1.0460 -0.3936 -0.2729
  120MOL0     C16488   1.725  10.943   9.706 -0.4308 -0.5038 -0.4461
  120MOL0     C16489   1.684  10.931   9.572  0.2978 -0.1396  0.2698
  120MOL0     C16490   1.542  10.976   9.529 -0.0867  0.2361 -0.7932
  120MOL0     H16491   2.026  10.702   9.090  3.1863  3.3058 -0.0611
  120MOL0     H16492   2.013  10.688   8.867  0.0875  1.1870 -2.7239
  120MOL0     H16493   1.910  10.684   8.590  1.2914  0.5818  1.1115
  120MOL0     H16494   2.037  10.796   8.656 -0.0597  4.5482  0.7077
  120MOL0     H16495   1.948  10.786   8.392  0.1968  2.0020 -1.1821
  120MOL0     H16496   1.825  10.896   8.469 -0.5595  0.6129  2.2662
  120MOL0     H16497   1.967  11.071   8.441 -3.1124 -1.6537  0.8539
  120MOL0     H16498   2.082  10.985   8.546 -3.2605  0.8660  2.3538
  120MOL0     H16499   2.164  10.857   8.368  1.8292  1.9392  2.6467
  120MOL0     H16500   2.052  10.931   8.240 -3.0885  1.7368  2.5010
  120MOL0     H16501   2.281  11.008   8.226 -0.6924 -1.6544 -0.4527
  120MOL0     H16502   2.239  11.093   8.389 -3.2380 -1.1368  0.6176
  120MOL0     H16503   2.110  11.128   8.118  2.2983 -1.5307 -1.6669
  120MOL0     H16504   2.062  11.209   8.275  2.3676  1.8416  1.5489
  120MOL0     H16505   2.277  11.299   8.305 -3.5325 -1.2821  2.1654
  120MOL0     H16506   2.191  11.361   8.178  3.2710  0.4221 -0.9703
  120MOL0     H16507   2.444  11.315   8.159  0.4830  0.2096 -0.1151
  120MOL0     H16508   2.406  11.148   8.125  3.5947  1.7721 -0.2871
  120MOL0     H16509   2.273  11.095   7.887  2.9796 -0.9098  0.8020
  120MOL0     H16510   2.177  11.168   7.642 -0.7547  0.0147 -2.0159
  120MOL0     H16511   2.342  11.145   7.604 -1.1163 -0.2290 -1.6028
  120MOL0     H16512   2.189  11.303   7.463  0.8695 -1.4323  0.5393
  120MOL0     H16513   2.256  11.436   7.551  2.0243  1.0878 -3.6571
  120MOL0     H16514   2.410  11.230   7.386 -0.3965 -0.1504  0.3035
  120MOL0     H16515   2.415  11.405   7.362  0.9908  1.9883  1.0704
  120MOL0     H16516   2.540  11.254   7.584  0.2627  0.1881 -1.5647
  120MOL0     H16517   2.622  11.345   7.461 -0.5163 -0.4212 -1.1329
  120MOL0     H16518   2.538  11.660   7.731 -2.7610  1.5271 -0.6256
  120MOL0     H16519   2.814  11.830   7.759 -1.7842 -1.0424  1.3900
  120MOL0     H16520   2.642  11.857   7.815 -0.8938  0.3678 -0.4375
  120MOL0     H16521   2.707  11.973   7.709 -0.1099  1.3415  2.9766
  120MOL0     H16522   2.830  12.169   7.494 -1.1100 -2.6071  2.0420
  120MOL0     H16523   2.966  12.383   7.495  1.5193  0.8663  1.5508
  120MOL0     H16524   3.142  12.495   7.416  0.2644 -1.7307 -0.3929
  120MOL0     H16525   3.117  12.553   7.573  0.7126  0.3526  0.5475
  120MOL0     H16526   3.289  12.698   7.495 -0.3080 -0.5435 -1.0022
  120MOL0     H16527   3.370  12.594   7.611  0.4366 -2.1071  0.6301
  120MOL0     H16528   3.425  12.444   7.395 -0.6682  0.3028 -0.5491
  120MOL0     H16529   3.511  12.604   7.409 -1.0490  0.1202  1.4982
  120MOL0     H16530   3.311  12.679   7.266 -0.1958  0.4369  0.9762
  120MOL0     H16531   3.274  12.510   7.245 -1.2799  1.2386  2.0061
  120MOL0     H16532   3.530  12.636   7.183  0.6171 -0.9258  1.0707
  120MOL0     H16533   3.499  12.459   7.160 -0.1434 -0.3044 -1.8568
  120MOL0     H16534   3.342  12.524   6.965 -2.1194  1.2201  1.2030
  120MOL0     H16535   3.509  12.581   6.939 -1.8333  0.2578 -3.1880
  120MOL0     H16536   3.427  12.796   7.059  1.0048  1.0156 -2.0174
  120MOL0     H16537   3.270  12.744   7.024  0.5217  2.3344  3.3427
  120MOL0     H16538   3.488  12.775   6.817 -0.1274 -2.4090  0.8219
  120MOL0     H16539   3.350  12.887   6.827 -2.9510 -0.9443 -2.9236
  120MOL0     H16540   3.318  12.175   7.631 -0.1781 -0.7310 -0.1176
  120MOL0     H16541   3.175  11.969   7.642  1.0907  0.5233 -1.9185
  120MOL0     H16542   2.747  11.720   7.295  2.8569  0.6326  0.6393
  120MOL0     H16543   2.593  11.538   7.326 -2.9551  2.9924  0.1186
  120MOL0     H16544   1.691  10.985   8.853  3.0847  1.5015 -0.9615
  120MOL0     H16545   1.691  10.966   9.118  1.6573  0.6874  1.9613
  120MOL0     H16546   1.975  10.788   9.466 -0.1281  3.3715 -3.8353
  120MOL0     H16547   2.047  10.842   9.701  1.1862 -1.5514 -2.3135
  120MOL0     H16548   1.989  11.011  10.040 -2.2150  0.6278  0.3984
  120MOL0     H16549   2.078  10.985   9.888 -0.0131 -2.3255  1.1831
  120MOL0     H16550   1.853  11.167   9.878 -0.0030  2.0546  0.4674
  120MOL0     H16551   1.987  11.177   9.776 -1.1496  1.0348  0.1971
  120MOL0     H16552   1.969  11.369   9.921  1.1787  1.1333 -0.2793
  120MOL0     H16553   1.965  11.270  10.059 -0.8418 -1.5108 -0.3791
  120MOL0     H16554   2.186  11.394  10.014 -0.7114  1.9213 -4.8435
  120MOL0     H16555   2.211  11.270   9.890 -1.3232 -0.1621  0.2915
  120MOL0     H16556   2.230  11.095  10.304 -2.7002  2.0978  1.1338
  120MOL0     H16557   1.655  10.991   9.774  2.8216  2.5732  1.0413
  120MOL0     H16558   1.545  11.041   9.442  2.4620  5.5556  2.7639
  120MOL0     H16559   1.478  10.887   9.527 -0.4527  0.4180  0.9704
  120MOL0     H16560   1.491  11.036   9.605  0.1649  1.1593 -1.3381
  121MOL0     O16561   1.967   4.496   1.774 -0.2079 -0.2971  0.0344
  121MOL0     C16562   1.889   4.434   1.841  0.9254 -0.3470 -1.2255
  121MOL0     O16563   1.901   4.298   1.869  0.3725 -0.0248 -0.1322
  121MOL0     C16564   2.021   4.233   1.828 -0.4221 -0.6061  0.1723
  121MOL0     C16565   2.078   4.239   1.697  0.3802 -0.9830  0.0185
  121MOL0     C16566   2.193   4.175   1.650  0.2253 -0.4004 -0.3931
  121MOL0     C16567   2.254   4.093   1.751  0.2778  1.1276  0.3812
  121MOL0     O16568   2.357   4.006   1.712  0.0918  0.3840 -0.1027
  121MOL0     C16569   2.310   3.894   1.636 -0.1889 -0.0985  0.6180
  121MOL0     C16570   2.222   3.789   1.705  0.3298  0.1219 -0.5305
  121MOL0     C16571   2.307   3.698   1.793 -0.9531 -0.3265 -0.5302
  121MOL0     C16572   2.225   3.599   1.878  1.0696  0.1561  1.0631
  121MOL0     C16573   2.307   3.482   1.924 -0.1277 -0.0243  0.5284
  121MOL0     C16574   2.343   3.383   1.807  0.5569 -0.5002 -0.1240
  121MOL0     C16575   2.365   3.244   1.868  0.3793  0.2229 -0.2234
  121MOL0     C16576   2.410   3.145   1.756  0.2568  1.0719  0.3718
  121MOL0     N16577   2.418   3.008   1.821  0.5320 -0.3704 -0.6175
  121MOL0     C16578   2.528   2.949   1.881 -0.6555  0.4844 -0.1110
  121MOL0     C16579   2.482   2.829   1.926 -0.2830 -0.0406 -0.3900
  121MOL0     C16580   2.564   2.713   1.982  0.5159 -0.9273  0.3043
  121MOL0     C16581   2.605   2.607   1.877 -1.6094  0.7191  0.3494
  121MOL0     C16582   2.749   2.621   1.825  0.1537  1.1862 -0.9249
  121MOL0     C16583   2.812   2.765   1.789  0.0196  0.2785 -0.6485
  121MOL0     O16584   2.747   2.824   1.675  0.7375 -0.1127  0.3668
  121MOL0     C16585   2.792   2.950   1.632  0.1117  0.9864  0.8281
  121MOL0     C16586   2.920   3.005   1.642  0.2112  0.9959 -0.2924
  121MOL0     C16587   2.948   3.134   1.587  0.4673  0.0322 -0.3466
  121MOL0     C16588   3.098   3.162   1.604 -0.7780 -0.4532 -0.8797
  121MOL0     C16589   2.851   3.218   1.538 -0.7513  0.2330 -0.1921
  121MOL0     C16590   2.876   3.350   1.477  0.4910  0.1625  0.4689
  121MOL0     O16591   2.769   3.416   1.426 -0.3052  0.0163 -0.3246
  121MOL0     C16592   2.777   3.555   1.411  0.4507  0.9701  0.3487
  121MOL0     C16593   2.848   3.618   1.312  0.1236  0.3734  0.0997
  121MOL0     C16594   2.826   3.756   1.288 -0.7649 -0.1622 -0.0127
  121MOL0     C16595   2.737   3.823   1.368  0.1294  0.0896 -0.4520
  121MOL0     O16596   2.717   3.956   1.353  0.8397  1.3323  0.1416
  121MOL0     C16597   2.793   4.028   1.453  0.5122 -0.2155 -0.6745
  121MOL0     C16598   2.766   4.179   1.456  1.2880 -1.0535 -1.0041
  121MOL0     C16599   2.615   4.216   1.476 -0.0423 -0.6337  0.6323
  121MOL0     C16600   2.586   4.370   1.476  0.2769  0.6422  0.0423
  121MOL0     C16601   2.435   4.418   1.469  1.2266 -0.1202  0.5358
  121MOL0     C16602   2.423   4.555   1.517 -0.1419  0.2338 -0.1346
  121MOL0     C16603   2.273   4.587   1.528  0.4466  0.8941  0.1822
  121MOL0     C16604   2.235   4.716   1.595 -0.1995  0.5045  0.6520
  121MOL0    Cl16605   2.315   4.840   1.475 -0.0744 -0.0292 -0.0744
  121MOL0     C16606   2.660   3.750   1.463  0.6842 -0.9425  0.2956
  121MOL0     C16607   2.682   3.611   1.490  0.2523 -0.7623 -0.3279
  121MOL0     O16608   2.991   3.389   1.475  0.2789  0.1757 -0.0972
  121MOL0     C16609   2.721   3.166   1.542 -0.2234  0.2223 -0.0905
  121MOL0     C16610   2.697   3.036   1.580 -0.3147 -0.4625  0.5120
  121MOL0     N16611   2.341   2.824   1.889 -0.5657  0.9752 -0.6230
  121MOL0     N16612   2.312   2.931   1.834 -0.3523  0.5165  0.7706
  121MOL0     C16613   2.194   4.070   1.875 -0.0009 -0.3890 -0.1604
  121MOL0     C16614   2.084   4.143   1.916  0.0743 -1.2752  0.2312
  121MOL0     C16615   1.756   4.512   1.881 -0.3123  0.4928  0.1281
  121MOL0     C16616   1.657   4.426   1.931  0.1571  0.1856  0.2648
  121MOL0     C16617   1.529   4.477   1.955  0.1180  0.1010  0.1920
  121MOL0     C16618   1.503   4.617   1.943  0.0263 -0.8447 -0.6510
  121MOL0     O16619   1.384   4.690   1.980  0.0457  0.6260 -0.7653
  121MOL0     C16620   1.277   4.607   2.023  0.8100  0.2924 -0.5790
  121MOL0     C16621   1.148   4.693   2.026  0.2996 -0.4978  1.0310
  121MOL0     C16622   1.168   4.809   2.133 -0.2570  0.3544  0.5232
  121MOL0     C16623   1.056   4.911   2.118 -0.5089  0.2524  0.5141
  121MOL0     C16624   0.912   4.859   2.132 -0.6781 -0.7493  0.8921
  121MOL0     C16625   0.800   4.812   2.160  0.0392  0.0854 -1.1141
  121MOL0     C16626   1.607   4.699   1.891  0.2073 -0.3050  0.1038
  121MOL0     C16627   1.729   4.652   1.861 -0.1313 -0.4341  0.7595
  121MOL0     C16628   1.835   4.760   1.827 -0.5973  0.6289  0.3033
  121MOL0     H16629   2.026   4.297   1.622  3.8788  1.4563 -0.7272
  121MOL0     H16630   2.237   4.165   1.551  1.9828 -1.9701  0.4863
  121MOL0     H16631   2.392   3.842   1.585 -1.5038  0.4529 -2.2523
  121MOL0     H16632   2.258   3.923   1.544 -0.8770 -1.1805  0.6409
  121MOL0     H16633   2.132   3.816   1.761  0.8541 -1.4064  1.1461
  121MOL0     H16634   2.183   3.736   1.618  0.9802 -0.8953 -0.2207
  121MOL0     H16635   2.378   3.642   1.731  4.1015  0.5102  3.6940
  121MOL0     H16636   2.364   3.754   1.868  0.9273 -0.6795 -1.6183
  121MOL0     H16637   2.180   3.657   1.959 -2.8537  2.3177 -2.3311
  121MOL0     H16638   2.155   3.558   1.805  2.6187  2.3301 -1.8409
  121MOL0     H16639   2.263   3.419   2.002 -0.4222  1.8294  1.9235
  121MOL0     H16640   2.392   3.530   1.972  1.2709 -0.6976 -1.1504
  121MOL0     H16641   2.263   3.384   1.733  0.3853 -0.7710  0.0612
  121MOL0     H16642   2.427   3.427   1.752 -0.1817  1.1965  0.0435
  121MOL0     H16643   2.272   3.218   1.919  1.0946  0.2343  1.1410
  121MOL0     H16644   2.440   3.257   1.947  1.4073 -0.7917 -1.0025
  121MOL0     H16645   2.343   3.123   1.672  2.1128 -2.9059 -0.3103
  121MOL0     H16646   2.508   3.178   1.722 -0.5896  5.3644  1.5041
  121MOL0     H16647   2.625   2.997   1.881  1.4934 -3.3990  1.0777
  121MOL0     H16648   2.498   2.660   2.051 -3.6906 -0.5774 -3.0657
  121MOL0     H16649   2.651   2.753   2.035  0.7304 -0.1798 -0.5880
  121MOL0     H16650   2.594   2.506   1.919  2.1335 -0.6059 -1.4105
  121MOL0     H16651   2.542   2.617   1.788 -1.6652  2.2617  0.5471
  121MOL0     H16652   2.816   2.576   1.899 -0.6324  3.3989  1.2917
  121MOL0     H16653   2.755   2.546   1.746 -2.4840  1.4424 -1.4416
  121MOL0     H16654   2.819   2.835   1.873 -2.4888  1.0008 -0.9572
  121MOL0     H16655   2.914   2.742   1.757  0.1404 -2.1710  1.2173
  121MOL0     H16656   2.996   2.935   1.675  0.2967  1.4098  0.4028
  121MOL0     H16657   3.143   3.188   1.508 -1.4208 -0.5021 -1.2003
  121MOL0     H16658   3.155   3.073   1.628  3.6639  2.5504  0.9274
  121MOL0     H16659   3.131   3.230   1.683  1.7958  1.5152 -3.4430
  121MOL0     H16660   2.910   3.560   1.245 -0.8425 -2.8160  1.7527
  121MOL0     H16661   2.887   3.803   1.212 -0.1933 -1.0543 -0.1231
  121MOL0     H16662   2.760   3.986   1.549 -0.8085 -1.1044 -1.4883
  121MOL0     H16663   2.897   4.013   1.423 -0.0978 -0.5666 -2.7324
  121MOL0     H16664   2.828   4.221   1.536 -0.7231 -1.7204  1.0004
  121MOL0     H16665   2.797   4.230   1.364  0.5521  2.1807  0.3735
  121MOL0     H16666   2.586   4.178   1.574 -2.6681  0.2176  0.2598
  121MOL0     H16667   2.563   4.166   1.394 -1.1676  0.2314  0.8099
  121MOL0     H16668   2.639   4.407   1.388  0.2603  3.1904  1.0140
  121MOL0     H16669   2.622   4.415   1.569 -3.4223  3.3319  0.3905
  121MOL0     H16670   2.409   4.420   1.363 -3.2254 -0.6159  1.4123
  121MOL0     H16671   2.374   4.342   1.519  0.5371  0.9602  1.3820
  121MOL0     H16672   2.464   4.619   1.439 -1.2391  0.0115 -0.9146
  121MOL0     H16673   2.479   4.573   1.609 -1.5459  1.1220  0.5868
  121MOL0     H16674   2.236   4.497   1.577  1.7206 -0.9974 -2.0791
  121MOL0     H16675   2.230   4.591   1.427 -1.5520  0.7457  0.9896
  121MOL0     H16676   2.288   4.722   1.690  2.3480 -0.9820 -0.5860
  121MOL0     H16677   2.126   4.726   1.605 -0.3048  0.2111 -0.1115
  121MOL0     H16678   2.589   3.799   1.528  0.7776  3.6806 -2.6613
  121MOL0     H16679   2.630   3.549   1.562  1.3703  1.9693  3.0896
  121MOL0     H16680   2.639   3.232   1.514 -0.2106  0.4684  0.4339
  121MOL0     H16681   2.598   2.996   1.561  0.0390 -0.8103 -0.6638
  121MOL0     H16682   2.232   3.998   1.947 -1.3571 -2.0927 -1.0632
  121MOL0     H16683   2.038   4.124   2.012 -0.1962 -1.3531  0.0857
  121MOL0     H16684   1.675   4.327   1.971 -0.0627  0.1777  0.3511
  121MOL0     H16685   1.451   4.423   2.009 -0.2933  1.0225  0.5470
  121MOL0     H16686   1.250   4.526   1.955 -2.1558  0.6486  0.0420
  121MOL0     H16687   1.297   4.567   2.123 -2.4063  0.7379  0.3601
  121MOL0     H16688   1.075   4.622   2.066  0.1375 -1.2336 -0.5133
  121MOL0     H16689   1.120   4.728   1.927  0.9486 -0.7015  0.7696
  121MOL0     H16690   1.169   4.773   2.236  0.1639 -3.0028 -0.5429
  121MOL0     H16691   1.269   4.851   2.123  0.4561 -1.5528 -0.7894
  121MOL0     H16692   1.062   4.954   2.017 -0.6510 -0.6365  0.1205
  121MOL0     H16693   1.066   4.993   2.190 -0.7524  1.8069 -1.1323
  121MOL0     H16694   0.699   4.780   2.175  0.1698  0.9893  2.5051
  121MOL0     H16695   1.598   4.806   1.876  1.8875 -0.4235 -2.4054
  121MOL0     H16696   1.897   4.729   1.743  3.0599 -1.6197  3.4953
  121MOL0     H16697   1.791   4.858   1.807  0.6807  1.3925  1.1042
  121MOL0     H16698   1.900   4.783   1.911 -1.4243  2.7969  0.4097
  122MOL0     O16699   4.383   1.145   5.630  0.1314  0.0498  0.9162
  122MOL0     C16700   4.434   1.031   5.614 -0.1430 -0.9612  0.3179
  122MOL0     O16701   4.386   0.913   5.655  0.1361 -0.4357  0.7491
  122MOL0     C16702   4.255   0.911   5.719 -0.3519 -0.2275  0.5816
  122MOL0     C16703   4.150   0.830   5.665 -0.1997  0.1026  0.8476
  122MOL0     C16704   4.022   0.821   5.713 -0.6226 -0.4989 -0.7956
  122MOL0     C16705   3.989   0.882   5.839 -0.0260 -0.3374 -0.4902
  122MOL0     O16706   3.862   0.867   5.877 -0.8681  0.4450 -0.3639
  122MOL0     C16707   3.826   0.871   6.021 -0.5724 -0.0614  0.0883
  122MOL0     C16708   3.691   0.792   6.021  0.2993 -0.3929  0.2784
  122MOL0     C16709   3.706   0.653   5.959 -1.2195  0.7453  0.0708
  122MOL0     C16710   3.589   0.572   6.010 -0.7992  0.8110 -0.6079
  122MOL0     C16711   3.596   0.436   5.928 -0.3114  0.8281 -0.0214
  122MOL0     C16712   3.499   0.333   5.993 -0.1162  0.0005  0.1875
  122MOL0     C16713   3.534   0.198   5.913 -0.1754 -0.1879 -0.1368
  122MOL0     C16714   3.418   0.095   5.942  0.7125  0.5998  0.0222
  122MOL0     N16715   3.429  -0.029   5.876 -1.3228  0.1661  0.2025
  122MOL0     C16716   3.539  -0.112   5.886  0.3383  0.7016  0.3801
  122MOL0     C16717   3.501  -0.227   5.819  0.3389 -0.7950 -0.0836
  122MOL0     C16718   3.577  -0.360   5.805  0.8571  0.0062 -0.9013
  122MOL0     C16719   3.672  -0.373   5.690  0.2846  0.0964  0.0480
  122MOL0     C16720   3.802  -0.305   5.686 -0.0068 -0.4791 -0.2956
  122MOL0     C16721   3.901  -0.324   5.798  0.0482  0.1695 -0.2601
  122MOL0     O16722   3.856  -0.276   5.929 -0.2052 -0.1177 -0.3614
  122MOL0     C16723   3.933  -0.178   5.988 -0.0172  0.0448 -0.3032
  122MOL0     C16724   3.930  -0.046   5.929 -0.0395  0.1768  0.8514
  122MOL0     C16725   4.020   0.049   5.974 -0.2790  0.2985 -1.0225
  122MOL0     C16726   4.023   0.175   5.896  0.7914 -1.0370  0.5410
  122MOL0     C16727   4.098   0.032   6.093 -0.2884  0.5286 -0.0991
  122MOL0     C16728   4.181   0.138   6.147  0.7075  0.4950  1.0355
  122MOL0     O16729   4.280   0.095   6.234  0.3452  0.8381  0.1704
  122MOL0     C16730   4.359   0.177   6.305 -0.4755  0.3938  0.9363
  122MOL0     C16731   4.372   0.319   6.300 -1.2516  0.2174  0.8162
  122MOL0     C16732   4.461   0.384   6.388  0.4319  0.1297  0.3291
  122MOL0     C16733   4.539   0.308   6.474  0.2391 -0.7135  1.7334
  122MOL0     O16734   4.621   0.384   6.548  0.3176  0.1599 -0.0795
  122MOL0     C16735   4.627   0.345   6.687  0.3665 -0.6939 -1.1529
  122MOL0     C16736   4.640   0.445   6.798  0.4196  1.2651 -0.2422
  122MOL0     C16737   4.616   0.367   6.929  0.3637  0.0095  0.2145
  122MOL0     C16738   4.666   0.431   7.063 -0.2605  0.0700  0.8458
  122MOL0     C16739   4.815   0.451   7.080 -0.3322  0.2222  0.2256
  122MOL0     C16740   4.895   0.322   7.075  1.0372 -0.0870  0.1171
  122MOL0     C16741   5.040   0.334   7.130  0.0072 -0.1204 -0.7027
  122MOL0     C16742   5.145   0.261   7.046  0.1074  0.0530  0.5318
  122MOL0    Cl16743   5.122   0.082   7.051  0.0553 -0.0895  0.2747
  122MOL0     C16744   4.530   0.166   6.475 -0.0562  0.0012  1.2726
  122MOL0     C16745   4.441   0.109   6.392  0.2279  0.1432  1.3190
  122MOL0     O16746   4.142   0.251   6.127 -0.5716 -0.0038 -0.3495
  122MOL0     C16747   4.091  -0.099   6.142  0.2691  0.4410  0.6594
  122MOL0     C16748   4.018  -0.205   6.102  1.1042 -0.2731 -0.6206
  122MOL0     N16749   3.374  -0.220   5.775 -0.1194 -0.4170  0.0383
  122MOL0     N16750   3.336  -0.097   5.798 -0.5282 -0.6004 -0.1582
  122MOL0     C16751   4.093   0.962   5.896 -0.5950  0.1336  0.6457
  122MOL0     C16752   4.222   0.967   5.840  0.8163  0.2415 -0.6242
  122MOL0     C16753   4.569   1.034   5.551  0.1853 -1.0579 -0.0744
  122MOL0     C16754   4.614   1.158   5.497  0.8708  1.3661 -0.8362
  122MOL0     C16755   4.733   1.183   5.432  0.6243  0.0080  0.1462
  122MOL0     C16756   4.818   1.081   5.431  0.5219  0.2716 -0.1585
  122MOL0     O16757   4.941   1.110   5.384  0.0410  0.8414  0.3746
  122MOL0     C16758   5.026   1.147   5.490  0.4864 -0.5353 -0.7274
  122MOL0     C16759   5.161   1.194   5.445 -0.6119  0.0814 -0.1324
  122MOL0     C16760   5.252   1.086   5.377 -0.4406  1.1428 -0.2395
  122MOL0     C16761   5.405   1.132   5.361  0.6614 -0.4108 -0.0079
  122MOL0     C16762   5.443   1.096   5.224 -0.0883  0.7792  0.9674
  122MOL0     C16763   5.485   1.093   5.113  0.2545 -0.1177  0.4919
  122MOL0     C16764   4.787   0.951   5.476 -0.1165  0.6124 -0.5109
  122MOL0     C16765   4.661   0.921   5.522  1.3903  0.1650 -0.1996
  122MOL0     C16766   4.616   0.775   5.541 -0.2600 -0.8407 -0.5056
  122MOL0     H16767   4.168   0.769   5.577 -1.4903  0.1033  0.5696
  122MOL0     H16768   3.958   0.757   5.652 -3.9815 -0.4476  2.3311
  122MOL0     H16769   3.808   0.976   6.049 -2.0503 -0.1348 -0.4846
  122MOL0     H16770   3.905   0.826   6.082  0.0095 -1.7976 -1.8614
  122MOL0     H16771   3.669   0.775   6.127  3.1928 -0.6063  0.9408
  122MOL0     H16772   3.608   0.846   5.974 -0.3146  2.6151  4.2281
  122MOL0     H16773   3.705   0.660   5.850  2.8818 -1.2722 -0.2828
  122MOL0     H16774   3.798   0.599   5.982 -2.5400 -2.3487 -1.2719
  122MOL0     H16775   3.591   0.554   6.118 -0.0438  0.0046 -0.7440
  122MOL0     H16776   3.495   0.623   5.989 -1.4410 -0.8884 -2.1726
  122MOL0     H16777   3.696   0.394   5.934 -1.2390 -1.4764  0.3484
  122MOL0     H16778   3.578   0.460   5.823 -0.8305  1.2694  0.1618
  122MOL0     H16779   3.522   0.318   6.099  1.9629  1.8553  0.0612
  122MOL0     H16780   3.396   0.366   5.978  0.1369  0.8065  0.1499
  122MOL0     H16781   3.636   0.167   5.937  0.8083  1.7338 -1.5604
  122MOL0     H16782   3.530   0.226   5.808  0.2265 -1.5118 -0.5230
  122MOL0     H16783   3.400   0.075   6.048 -2.1737  2.0643 -0.0999
  122MOL0     H16784   3.323   0.139   5.909 -1.0478 -2.0531  1.1465
  122MOL0     H16785   3.632  -0.108   5.941  0.8341 -3.1175  0.1096
  122MOL0     H16786   3.492  -0.428   5.796 -0.2691  1.4456 -1.5543
  122MOL0     H16787   3.630  -0.377   5.900  1.1534  0.1371 -1.0435
  122MOL0     H16788   3.698  -0.479   5.681  2.3590  0.6720 -1.3099
  122MOL0     H16789   3.612  -0.331   5.609  1.5301  1.1483 -0.3548
  122MOL0     H16790   3.850  -0.337   5.593  1.9126  3.2741 -0.8077
  122MOL0     H16791   3.777  -0.201   5.661 -2.7287 -1.5793 -2.7692
  122MOL0     H16792   3.926  -0.430   5.813 -0.6366  0.2840  1.9416
  122MOL0     H16793   3.999  -0.282   5.772 -0.1117  0.3479 -0.5859
  122MOL0     H16794   3.865  -0.038   5.843  0.8741  1.7707  0.2611
  122MOL0     H16795   3.997   0.268   5.948 -1.3509  1.1066 -3.8735
  122MOL0     H16796   3.948   0.176   5.817 -0.6910 -5.3006  1.6677
  122MOL0     H16797   4.128   0.174   5.865  2.5009 -0.5116  5.3547
  122MOL0     H16798   4.312   0.377   6.232 -0.1365 -0.4714 -0.8154
  122MOL0     H16799   4.472   0.492   6.385 -2.1819  0.5261  1.8811
  122MOL0     H16800   4.537   0.290   6.717  0.2526  1.6721  3.9839
  122MOL0     H16801   4.710   0.274   6.693  2.2371  1.4767  0.8789
  122MOL0     H16802   4.737   0.495   6.797  0.3423  1.4941  1.1834
  122MOL0     H16803   4.558   0.518   6.797 -1.1674 -0.4199 -2.0726
  122MOL0     H16804   4.671   0.273   6.925  0.2602 -0.0921 -4.3509
  122MOL0     H16805   4.509   0.344   6.933  0.3807  0.0212  0.8115
  122MOL0     H16806   4.626   0.361   7.137 -6.0423 -0.7508 -2.4213
  122MOL0     H16807   4.611   0.523   7.084 -2.5537 -1.3781  1.6072
  122MOL0     H16808   4.855   0.533   7.020 -2.5889  0.2701 -1.3259
  122MOL0     H16809   4.817   0.488   7.183 -1.2114 -0.7958  0.6340
  122MOL0     H16810   4.901   0.286   6.972 -2.8617 -0.4281 -0.1073
  122MOL0     H16811   4.844   0.252   7.142  1.1413 -0.2423  0.0358
  122MOL0     H16812   5.050   0.282   7.226  3.7210 -0.3529 -1.0874
  122MOL0     H16813   5.068   0.438   7.149 -1.2334  0.2273 -0.6833
  122MOL0     H16814   5.236   0.291   7.100  1.4364 -1.4314 -0.7703
  122MOL0     H16815   5.139   0.289   6.941 -3.0938 -1.2986  0.2431
  122MOL0     H16816   4.600   0.112   6.537 -0.6807 -0.4263  1.6065
  122MOL0     H16817   4.437   0.000   6.396 -0.1053  0.1862  3.7147
  122MOL0     H16818   4.154  -0.136   6.222  0.3358  0.2559  0.5219
  122MOL0     H16819   4.026  -0.301   6.152  1.8036 -0.8250 -1.7369
  122MOL0     H16820   4.068   1.031   5.976 -1.0684 -1.5275  1.9780
  122MOL0     H16821   4.299   1.021   5.894  0.2718 -2.0987  2.8676
  122MOL0     H16822   4.553   1.247   5.504  0.4353  1.0109  0.2070
  122MOL0     H16823   4.767   1.276   5.388  1.4594 -0.7153 -0.7767
  122MOL0     H16824   4.984   1.234   5.542  1.6895 -0.4670  0.1909
  122MOL0     H16825   5.048   1.062   5.556  1.7000  0.1185 -0.2604
  122MOL0     H16826   5.218   1.240   5.525 -3.0875  1.3882  0.9717
  122MOL0     H16827   5.137   1.256   5.359  1.5634 -2.7668 -3.0834
  122MOL0     H16828   5.240   0.984   5.414 -1.3973 -0.3661 -4.1726
  122MOL0     H16829   5.209   1.077   5.276  0.7715 -1.5564 -0.6005
  122MOL0     H16830   5.460   1.069   5.431  2.9762 -1.3259 -2.4862
  122MOL0     H16831   5.423   1.237   5.387 -1.2613 -1.0289  4.6626
  122MOL0     H16832   5.518   1.091   5.011  1.9083  0.9451  0.9831
  122MOL0     H16833   4.863   0.874   5.473  1.0326  1.6873  0.2544
  122MOL0     H16834   4.698   0.704   5.525 -0.2672 -0.2279 -4.2844
  122MOL0     H16835   4.586   0.764   5.645  1.2343  1.1717  0.2156
  122MOL0     H16836   4.536   0.750   5.471 -1.7787  2.0459  0.0266
  123MOL0     O16837   5.175   8.160   3.803  0.1905  0.3337  0.2705
  123MOL0     C16838   5.133   8.098   3.710 -0.0938 -0.9487  0.0684
  123MOL0     O16839   5.075   8.160   3.597 -0.6632  0.3118 -0.4139
  123MOL0     C16840   5.116   8.288   3.561  1.0300 -0.1370 -0.3530
  123MOL0     C16841   5.025   8.359   3.479 -0.6581  0.9201 -0.1689
  123MOL0     C16842   5.057   8.492   3.441  0.5638 -0.5841  0.7398
  123MOL0     C16843   5.179   8.555   3.466  0.5743 -1.2588 -0.7325
  123MOL0     O16844   5.225   8.679   3.418 -0.8412 -0.1042  1.0189
  123MOL0     C16845   5.140   8.783   3.380  0.4453 -0.1135 -0.3795
  123MOL0     C16846   5.048   8.841   3.494 -0.3130  0.2431 -0.2787
  123MOL0     C16847   5.143   8.889   3.602 -0.2262 -0.3490 -0.1989
  123MOL0     C16848   5.247   8.996   3.575  0.4549 -0.5521  0.2871
  123MOL0     C16849   5.191   9.119   3.501 -0.3137 -0.7453 -0.1478
  123MOL0     C16850   5.303   9.231   3.524  0.3805  0.1133  0.0089
  123MOL0     C16851   5.275   9.356   3.451 -0.4847 -0.3492 -0.4105
  123MOL0     C16852   5.401   9.457   3.449 -0.3503 -0.5946 -0.4025
  123MOL0     N16853   5.357   9.587   3.388 -0.5949 -0.5643  0.2803
  123MOL0     C16854   5.313   9.610   3.261  0.3215  0.5444  0.1021
  123MOL0     C16855   5.290   9.746   3.241  0.1041 -0.1253 -0.5002
  123MOL0     C16856   5.247   9.801   3.111 -0.2442 -0.1569 -0.2082
  123MOL0     C16857   5.345   9.906   3.048 -0.5886  0.1339 -0.3264
  123MOL0     C16858   5.309   9.938   2.907 -0.3867  0.8628 -0.5713
  123MOL0     C16859   5.212  10.053   2.886 -0.4418 -0.6351 -0.6480
  123MOL0     O16860   5.229  10.082   2.749 -0.6539  0.5086  0.3385
  123MOL0     C16861   5.121  10.058   2.668  0.0966  0.6182  0.2701
  123MOL0     C16862   5.000  10.137   2.672 -1.0649  0.0858 -0.2155
  123MOL0     C16863   4.894  10.114   2.590 -0.9463 -0.5277  0.7036
  123MOL0     C16864   4.781  10.212   2.600  0.5956  0.7577 -0.0871
  123MOL0     C16865   4.888  10.021   2.496  0.4687  0.1943  0.0852
  123MOL0     C16866   4.783  10.000   2.400 -0.4663 -0.2516 -0.3471
  123MOL0     O16867   4.836   9.998   2.272 -0.0227 -0.3197  0.5239
  123MOL0     C16868   4.762   9.963   2.169  1.5280 -0.2771 -0.2907
  123MOL0     C16869   4.740  10.055   2.071 -0.0195  0.1794 -0.0381
  123MOL0     C16870   4.663  10.026   1.961  1.0431 -0.0609  0.2234
  123MOL0     C16871   4.594   9.908   1.949 -0.7582  0.2093 -0.0057
  123MOL0     O16872   4.520   9.884   1.839 -0.1400 -0.4304  0.1273
  123MOL0     C16873   4.420   9.974   1.796 -0.0294  0.7281 -0.4211
  123MOL0     C16874   4.307   9.874   1.746  0.4170  0.2733  0.2575
  123MOL0     C16875   4.222   9.818   1.856  0.0755  0.4001  0.4955
  123MOL0     C16876   4.136   9.922   1.925  0.5699 -0.3438 -0.3818
  123MOL0     C16877   4.036   9.862   2.021 -0.0313 -0.3459 -0.6062
  123MOL0     C16878   3.932   9.955   2.098 -0.3602  0.5049 -0.1531
  123MOL0     C16879   3.825   9.985   1.993 -0.9629 -0.7078 -0.3024
  123MOL0     C16880   3.694  10.046   2.057  0.8031 -0.4523  0.6287
  123MOL0    Cl16881   3.564  10.078   1.936  0.0508 -0.2387  0.4392
  123MOL0     C16882   4.608   9.815   2.048  0.1718  0.9734 -0.8565
  123MOL0     C16883   4.680   9.846   2.167 -0.1555 -0.3102 -0.1393
  123MOL0     O16884   4.660   9.990   2.423  0.0560 -0.4802 -0.7051
  123MOL0     C16885   4.998   9.925   2.505 -0.0758  0.1543  0.5981
  123MOL0     C16886   5.108   9.943   2.595  0.6761  0.0224 -0.4781
  123MOL0     N16887   5.317   9.808   3.364 -0.2292  0.0835  1.0446
  123MOL0     N16888   5.356   9.712   3.452  0.5189 -0.5211 -0.9538
  123MOL0     C16889   5.268   8.477   3.539  0.5345 -0.8595 -0.2672
  123MOL0     C16890   5.245   8.341   3.582  0.3339 -1.0333  0.8131
  123MOL0     C16891   5.122   7.950   3.736 -0.1393  0.4690  0.1303
  123MOL0     C16892   5.006   7.885   3.695 -0.3064 -0.6471 -0.4615
  123MOL0     C16893   4.997   7.750   3.702 -0.0924  0.2236  0.0636
  123MOL0     C16894   5.102   7.671   3.746  0.0940 -0.0634  0.1649
  123MOL0     O16895   5.076   7.541   3.740  0.8685  0.6287  0.3905
  123MOL0     C16896   5.168   7.449   3.802  0.7731  0.8895  0.1280
  123MOL0     C16897   5.083   7.326   3.857  0.2807  0.1119 -0.1180
  123MOL0     C16898   5.021   7.237   3.744  0.2297  0.6618  0.4929
  123MOL0     C16899   5.129   7.192   3.650  0.0296 -0.4640  0.2218
  123MOL0     C16900   5.077   7.084   3.556  0.3911 -1.1689  0.6057
  123MOL0     C16901   5.039   6.995   3.485 -0.4332  0.3644  1.1638
  123MOL0     C16902   5.219   7.734   3.781  0.0679 -0.2027  0.4518
  123MOL0     C16903   5.231   7.876   3.774 -0.8911 -0.2900  0.7437
  123MOL0     C16904   5.371   7.950   3.798  0.9856  0.0862 -0.3349
  123MOL0     H16905   4.925   8.320   3.459 -0.6680 -1.0486  3.0414
  123MOL0     H16906   4.982   8.543   3.382  0.4399 -3.4092 -1.8025
  123MOL0     H16907   5.088   8.751   3.290  1.7780 -0.1128 -1.1788
  123MOL0     H16908   5.202   8.865   3.343 -0.1824  0.4694 -0.1653
  123MOL0     H16909   4.984   8.919   3.451  0.4557 -0.9398 -3.9449
  123MOL0     H16910   4.979   8.765   3.532 -1.6735  3.3193  4.2491
  123MOL0     H16911   5.075   8.917   3.682  1.2208 -3.6890  2.4659
  123MOL0     H16912   5.190   8.796   3.636 -0.5488 -0.0900  0.9873
  123MOL0     H16913   5.299   9.020   3.669 -0.0546  1.5707  0.0869
  123MOL0     H16914   5.332   8.964   3.515  0.6393 -1.8951  1.2324
  123MOL0     H16915   5.101   9.158   3.549  0.9036  1.2584  0.5940
  123MOL0     H16916   5.174   9.092   3.396 -1.9975 -2.4021  0.4824
  123MOL0     H16917   5.333   9.256   3.626  2.1562  1.0428 -0.7133
  123MOL0     H16918   5.401   9.200   3.488  0.7593  0.9204  0.3378
  123MOL0     H16919   5.192   9.409   3.499 -0.6132 -1.9293  1.2164
  123MOL0     H16920   5.247   9.342   3.346  0.3263  0.9376 -0.8197
  123MOL0     H16921   5.426   9.466   3.555  0.0763  0.8010 -0.5972
  123MOL0     H16922   5.476   9.409   3.385  0.1601 -0.2967 -0.0322
  123MOL0     H16923   5.301   9.539   3.179  0.4850  1.7960 -1.0444
  123MOL0     H16924   5.156   9.861   3.119  1.2445  2.4479 -1.5228
  123MOL0     H16925   5.229   9.716   3.045 -0.7536 -0.4089  0.2537
  123MOL0     H16926   5.350   9.999   3.105  1.4902 -1.2518  1.9406
  123MOL0     H16927   5.446   9.864   3.051 -1.0299 -0.9424  0.1265
  123MOL0     H16928   5.398   9.958   2.846 -0.3527 -0.2595 -0.9061
  123MOL0     H16929   5.278   9.838   2.876  0.9534  0.3766 -0.4208
  123MOL0     H16930   5.110  10.023   2.912 -0.2017  0.0451  1.2862
  123MOL0     H16931   5.233  10.141   2.948 -0.5145 -1.8728  1.2015
  123MOL0     H16932   5.002  10.222   2.739 -1.2944  0.3266 -0.5080
  123MOL0     H16933   4.803  10.291   2.673 -1.4786  1.2830  0.0313
  123MOL0     H16934   4.694  10.149   2.623  1.4474 -0.4473 -0.0998
  123MOL0     H16935   4.761  10.261   2.504  1.4865  1.4108  0.0536
  123MOL0     H16936   4.783  10.154   2.069 -3.2565  1.7473  1.2848
  123MOL0     H16937   4.657  10.104   1.887  1.5539 -2.1214 -2.1262
  123MOL0     H16938   4.387  10.044   1.873  1.3979 -0.0920  0.9765
  123MOL0     H16939   4.461  10.041   1.719  0.8724  2.3821  1.4152
  123MOL0     H16940   4.243   9.911   1.665 -2.0346  1.0347  2.4245
  123MOL0     H16941   4.352   9.783   1.705 -0.3385 -0.3071  0.7049
  123MOL0     H16942   4.282   9.771   1.934  1.1121  0.2996 -0.3336
  123MOL0     H16943   4.148   9.747   1.817 -0.1898  0.6076  0.6190
  123MOL0     H16944   4.082   9.972   1.844  2.0353 -1.8726 -2.4208
  123MOL0     H16945   4.194   9.996   1.981  0.6938 -0.9002  0.2326
  123MOL0     H16946   3.983   9.776   1.978  0.9503 -0.3660 -1.8209
  123MOL0     H16947   4.100   9.803   2.087  0.9105  0.7089 -0.5423
  123MOL0     H16948   3.978  10.044   2.141 -0.9914  0.5573  0.4265
  123MOL0     H16949   3.880   9.895   2.173 -0.4367 -1.0210 -1.3763
  123MOL0     H16950   3.802   9.893   1.937 -0.6809 -0.9473 -0.0298
  123MOL0     H16951   3.857  10.063   1.923  0.4980  0.5618  1.7012
  123MOL0     H16952   3.709  10.144   2.105 -0.8242  0.3152 -0.3368
  123MOL0     H16953   3.662   9.969   2.128 -1.8965 -0.5585 -0.6019
  123MOL0     H16954   4.543   9.728   2.043  2.1758 -0.6893  0.0420
  123MOL0     H16955   4.688   9.776   2.249  1.9222  2.0573  1.8648
  123MOL0     H16956   4.976   9.834   2.450 -0.9596 -0.3593  1.7543
  123MOL0     H16957   5.175   9.864   2.627  1.9614  0.4084 -2.1354
  123MOL0     H16958   5.368   8.519   3.546 -0.1750  1.2178 -1.7417
  123MOL0     H16959   5.319   8.282   3.636 -2.6445 -2.2894  3.8374
  123MOL0     H16960   4.919   7.940   3.658  0.4509 -0.9609 -2.8683
  123MOL0     H16961   4.906   7.698   3.671 -1.3208  2.9277 -1.2190
  123MOL0     H16962   5.244   7.413   3.732  1.2999 -2.3794  2.1474
  123MOL0     H16963   5.230   7.500   3.877  2.4438  1.5201 -1.6039
  123MOL0     H16964   5.001   7.355   3.924 -0.0535 -1.0440 -0.0090
  123MOL0     H16965   5.151   7.258   3.908  0.1163  0.2129  0.2386
  123MOL0     H16966   4.980   7.148   3.792 -0.5819 -1.3744 -3.5587
  123MOL0     H16967   4.938   7.276   3.685 -2.1467 -1.7390  1.9982
  123MOL0     H16968   5.220   7.159   3.702  1.1886  1.7078 -0.2924
  123MOL0     H16969   5.164   7.278   3.593  1.4675 -0.5277  0.9517
  123MOL0     H16970   5.004   6.905   3.438 -0.4256 -0.0152  1.8629
  123MOL0     H16971   5.303   7.672   3.812  0.2948 -0.2750 -0.2869
  123MOL0     H16972   5.357   7.990   3.899 -1.9080 -2.6684  0.5353
  123MOL0     H16973   5.451   7.877   3.785  0.8197  0.0345 -1.0969
  123MOL0     H16974   5.393   8.042   3.743  0.2895  0.2390 -0.3686
  124MOL0     O16975   3.611  11.372   6.401 -0.5281  0.8709  0.6377
  124MOL0     C16976   3.566  11.386   6.288  0.1755  1.3616  0.6974
  124MOL0     O16977   3.588  11.490   6.205 -0.0822  0.1344 -0.7458
  124MOL0     C16978   3.633  11.610   6.268 -0.7903 -0.4486  0.5184
  124MOL0     C16979   3.566  11.664   6.372 -0.1895 -0.0094 -0.0101
  124MOL0     C16980   3.619  11.777   6.440 -0.5603  0.2188  1.1786
  124MOL0     C16981   3.734  11.835   6.389 -0.1167 -0.0329 -0.9956
  124MOL0     O16982   3.783  11.948   6.458  0.1195 -0.3728  0.7611
  124MOL0     C16983   3.913  12.009   6.449  0.6244  0.8524 -0.1945
  124MOL0     C16984   3.923  12.134   6.526 -0.4730 -0.1462  0.0586
  124MOL0     C16985   3.826  12.246   6.481 -0.8676  1.1743  0.4693
  124MOL0     C16986   3.854  12.379   6.550 -0.2707  0.1915 -0.5216
  124MOL0     C16987   3.761  12.497   6.530 -0.5383  0.5738 -0.4511
  124MOL0     C16988   3.707  12.509   6.392 -0.4722 -0.6478 -0.1369
  124MOL0     C16989   3.568  12.584   6.411  0.2646 -0.5013  0.4234
  124MOL0     C16990   3.498  12.633   6.283  0.9820  0.1295  0.1178
  124MOL0     N16991   3.356  12.604   6.285 -0.1925 -0.3984  0.7174
  124MOL0     C16992   3.257  12.682   6.333 -0.5787 -0.5559 -0.2871
  124MOL0     C16993   3.143  12.625   6.290 -0.3935  0.0433 -0.9842
  124MOL0     C16994   3.006  12.678   6.337  0.3341 -0.0119 -0.0463
  124MOL0     C16995   2.900  12.677   6.216  0.5052  0.4853 -0.2360
  124MOL0     C16996   2.771  12.745   6.242 -0.2731 -0.1873  0.3697
  124MOL0     C16997   2.661  12.739   6.139  0.2429 -1.0993 -0.1953
  124MOL0     O16998   2.608  12.612   6.128  0.4259 -0.2553 -0.4514
  124MOL0     C16999   2.484  12.586   6.179  0.1946 -0.3331 -0.5102
  124MOL0     C17000   2.424  12.651   6.294 -0.3546  1.3606  0.7517
  124MOL0     C17001   2.288  12.615   6.334 -0.8364  0.6636 -0.4687
  124MOL0     C17002   2.236  12.694   6.454  0.7055 -0.4148 -0.7114
  124MOL0     C17003   2.221  12.509   6.270  0.0921 -0.0841  0.5865
  124MOL0     C17004   2.080  12.475   6.295 -0.5819  0.3380 -0.0939
  124MOL0     O17005   2.012  12.455   6.182  0.4674  0.1400  0.2734
  124MOL0     C17006   1.881  12.398   6.182 -0.9426 -0.1250 -1.0003
  124MOL0     C17007   1.782  12.413   6.272  0.3914  0.2559  0.6596
  124MOL0     C17008   1.663  12.351   6.260  0.8405  0.4442  0.3805
  124MOL0     C17009   1.632  12.254   6.163 -0.8156  0.3130 -0.7168
  124MOL0     O17010   1.519  12.176   6.162  0.9145 -0.5971  0.0580
  124MOL0     C17011   1.402  12.258   6.138 -0.5815 -0.5530 -0.2368
  124MOL0     C17012   1.285  12.173   6.089 -0.1908 -0.0115 -0.6275
  124MOL0     C17013   1.313  12.096   5.963  0.1505 -0.6785  0.9659
  124MOL0     C17014   1.183  12.038   5.901 -0.3227 -0.3919  0.2672
  124MOL0     C17015   1.239  11.999   5.755 -1.2147  0.1928  0.2123
  124MOL0     C17016   1.126  11.921   5.679  0.3889 -0.8008 -0.2299
  124MOL0     C17017   1.155  11.879   5.535 -0.9969  1.2506  0.1524
  124MOL0     C17018   1.303  11.839   5.502 -0.2975  0.1410  0.1370
  124MOL0    Cl17019   1.398  11.979   5.486  0.5349 -0.0759 -0.1153
  124MOL0     C17020   1.724  12.233   6.072 -0.3905  0.0470  0.4728
  124MOL0     C17021   1.847  12.306   6.078 -0.8765  0.0543  0.9348
  124MOL0     O17022   2.035  12.479   6.412 -0.4384  0.5732  0.9250
  124MOL0     C17023   2.284  12.444   6.170 -0.1729  0.9815 -0.4591
  124MOL0     C17024   2.416  12.475   6.126  0.4304  0.6458 -0.0707
  124MOL0     N17025   3.164  12.522   6.208  0.1630 -0.0301  0.2162
  124MOL0     N17026   3.299  12.515   6.205 -0.4752 -0.7607  0.7970
  124MOL0     C17027   3.809  11.780   6.290  1.0226 -0.0684  0.5986
  124MOL0     C17028   3.759  11.665   6.224  0.2972 -0.4017 -0.1855
  124MOL0     C17029   3.506  11.260   6.232  0.3033 -0.8650  0.2067
  124MOL0     C17030   3.586  11.160   6.171 -0.2759 -0.8477  0.2741
  124MOL0     C17031   3.526  11.034   6.140  0.0701 -0.3057  0.3025
  124MOL0     C17032   3.390  11.012   6.166  0.4249 -0.6712 -1.2551
  124MOL0     O17033   3.337  10.884   6.162 -0.7128 -0.7074  0.7774
  124MOL0     C17034   3.270  10.878   6.036  0.9987 -0.0451  1.2144
  124MOL0     C17035   3.117  10.863   6.058 -0.4361 -0.4578  0.4855
  124MOL0     C17036   3.087  10.748   6.159  0.3587  0.0013 -0.0878
  124MOL0     C17037   2.937  10.738   6.161 -0.5585 -0.0183 -0.8988
  124MOL0     C17038   2.876  10.708   6.035 -0.2781 -0.1717  0.9013
  124MOL0     C17039   2.805  10.671   5.941 -0.7074  0.0752  0.1529
  124MOL0     C17040   3.309  11.114   6.200  0.2377 -0.6003 -0.8655
  124MOL0     C17041   3.364  11.244   6.231 -0.0347 -0.3153 -0.8318
  124MOL0     C17042   3.269  11.361   6.278 -0.1333 -0.1343  0.4002
  124MOL0     H17043   3.473  11.616   6.401 -1.4098  0.3366 -3.0068
  124MOL0     H17044   3.559  11.813   6.523  3.5663  1.0720  4.0865
  124MOL0     H17045   3.934  12.025   6.343  2.9882  1.7638  0.3469
  124MOL0     H17046   3.985  11.939   6.493 -1.6202 -0.4194  1.6612
  124MOL0     H17047   3.912  12.117   6.634  0.1238  2.3599  0.5889
  124MOL0     H17048   4.027  12.163   6.510  0.2893 -3.2075 -1.1855
  124MOL0     H17049   3.841  12.261   6.374  0.8097 -2.9855 -0.0557
  124MOL0     H17050   3.723  12.214   6.500 -0.6104  1.1626  1.9654
  124MOL0     H17051   3.850  12.357   6.657 -1.4820 -2.1920 -1.0029
  124MOL0     H17052   3.953  12.418   6.522 -0.2224  1.6110  1.3980
  124MOL0     H17053   3.805  12.593   6.558 -0.3554  1.5148 -3.5160
  124MOL0     H17054   3.672  12.477   6.590 -2.0508  1.9804 -2.0971
  124MOL0     H17055   3.778  12.563   6.330 -0.1946 -0.3992  0.3958
  124MOL0     H17056   3.685  12.411   6.347  3.5003 -2.1826  0.8439
  124MOL0     H17057   3.589  12.667   6.478 -0.5412 -0.4231  0.5844
  124MOL0     H17058   3.501  12.527   6.476  3.5616 -1.2315  3.4593
  124MOL0     H17059   3.536  12.734   6.262  0.1902  0.4633  0.2618
  124MOL0     H17060   3.539  12.578   6.198  1.1276 -0.2666  0.4463
  124MOL0     H17061   3.266  12.765   6.402 -0.5623 -2.6140  2.2936
  124MOL0     H17062   3.020  12.780   6.374  0.0259  0.1201 -0.2846
  124MOL0     H17063   2.962  12.614   6.414 -0.9775 -0.1897 -0.9053
  124MOL0     H17064   2.940  12.719   6.124 -0.7254  0.0815 -0.9853
  124MOL0     H17065   2.868  12.578   6.182  0.4779 -0.0343  1.2399
  124MOL0     H17066   2.736  12.711   6.340 -0.3337 -2.1533 -0.3081
  124MOL0     H17067   2.792  12.852   6.255  2.7403 -0.5939 -0.3584
  124MOL0     H17068   2.597  12.825   6.164 -0.4633 -0.4323 -3.7813
  124MOL0     H17069   2.707  12.764   6.043  2.9230  0.1780  1.3069
  124MOL0     H17070   2.478  12.732   6.342  1.2331  0.7408  0.0754
  124MOL0     H17071   2.285  12.791   6.468  0.2998 -0.2573 -0.3893
  124MOL0     H17072   2.250  12.638   6.547 -1.3290  1.9817  1.1632
  124MOL0     H17073   2.134  12.731   6.452  1.3207  1.3829 -0.4526
  124MOL0     H17074   1.800  12.489   6.347  0.3039 -1.5482  2.5979
  124MOL0     H17075   1.585  12.364   6.335  0.1372 -0.6106 -0.1375
  124MOL0     H17076   1.372  12.307   6.231  1.5208 -1.6359  1.0921
  124MOL0     H17077   1.430  12.339   6.070  0.4313 -0.3659  0.3926
  124MOL0     H17078   1.262  12.105   6.172  1.6444 -1.5426 -1.2972
  124MOL0     H17079   1.194  12.230   6.070 -1.8320 -2.7399 -1.5387
  124MOL0     H17080   1.387  12.018   5.984 -0.0518 -0.2893  3.4272
  124MOL0     H17081   1.351  12.170   5.893 -1.5667 -2.5715 -2.2089
  124MOL0     H17082   1.108  12.118   5.909  1.9632  1.7184  3.1377
  124MOL0     H17083   1.151  11.944   5.948  0.6486 -2.7154 -3.3614
  124MOL0     H17084   1.274  12.092   5.710 -1.0142  0.4900  0.9666
  124MOL0     H17085   1.331  11.941   5.761 -0.1576  1.7041 -0.7289
  124MOL0     H17086   1.034  11.981   5.681  0.6576 -0.3230 -1.2260
  124MOL0     H17087   1.108  11.826   5.728 -1.2240 -1.1018 -1.3295
  124MOL0     H17088   1.125  11.955   5.462  0.3276  1.3139 -0.3616
  124MOL0     H17089   1.105  11.782   5.530  1.6380 -0.3149  1.7098
  124MOL0     H17090   1.295  11.785   5.407  0.5828 -2.7500  1.5847
  124MOL0     H17091   1.340  11.770   5.579 -1.9566 -2.2111 -1.0524
  124MOL0     H17092   1.685  12.159   6.002 -0.0565 -3.4367  3.6148
  124MOL0     H17093   1.921  12.274   6.005 -1.3521 -0.7559  0.7965
  124MOL0     H17094   2.238  12.373   6.102 -0.6060  0.9726 -0.1576
  124MOL0     H17095   2.448  12.433   6.031 -0.5284  0.7550 -0.4539
  124MOL0     H17096   3.898  11.829   6.252 -1.9557  2.7816 -3.6681
  124MOL0     H17097   3.796  11.613   6.136 -1.1085 -0.7565 -0.6005
  124MOL0     H17098   3.694  11.174   6.171 -0.1866 -1.2448  2.4074
  124MOL0     H17099   3.587  10.956   6.096 -0.4230 -0.0939 -0.8132
  124MOL0     H17100   3.284  10.950   5.956  3.5751 -2.3689 -0.6289
  124MOL0     H17101   3.307  10.788   5.985 -1.0438 -0.1831 -0.1428
  124MOL0     H17102   3.073  10.848   5.959 -0.9754 -3.5742  1.1077
  124MOL0     H17103   3.072  10.954   6.099  1.1483  0.2751  0.6708
  124MOL0     H17104   3.136  10.653   6.134  0.9345 -1.0225  4.1750
  124MOL0     H17105   3.114  10.780   6.260 -1.6916  2.2753 -0.1750
  124MOL0     H17106   2.886  10.831   6.187  1.8838  0.5412  2.4997
  124MOL0     H17107   2.906  10.658   6.228  0.2380 -0.3054 -0.8612
  124MOL0     H17108   2.743  10.636   5.861 -3.0705  2.1571  0.9313
  124MOL0     H17109   3.202  11.103   6.199 -0.1816  2.4484  0.1208
  124MOL0     H17110   3.315  11.401   6.369  3.2340 -0.4385 -1.0326
  124MOL0     H17111   3.266  11.429   6.193  0.6432 -0.0572  0.4302
  124MOL0     H17112   3.164  11.332   6.289  0.3349 -1.1096  2.9730
  125MOL0     O17113   5.186   3.242   7.425  0.4791 -0.4336 -0.5343
  125MOL0     C17114   5.142   3.348   7.475 -0.1487  0.3775  0.4620
  125MOL0     O17115   5.196   3.418   7.578 -0.1044 -0.1613  0.5186
  125MOL0     C17116   5.326   3.388   7.616 -0.0058  0.1828 -0.4480
  125MOL0     C17117   5.435   3.354   7.537  0.2680 -0.3699  0.9777
  125MOL0     C17118   5.562   3.329   7.590 -0.1046 -0.4772 -0.1942
  125MOL0     C17119   5.591   3.332   7.723  0.5850 -0.0896 -0.1892
  125MOL0     O17120   5.719   3.302   7.759 -1.4595 -0.0761 -0.4851
  125MOL0     C17121   5.732   3.201   7.861 -0.9941 -0.1488 -0.0571
  125MOL0     C17122   5.854   3.227   7.939  0.3363 -1.1185 -1.1497
  125MOL0     C17123   5.840   3.354   8.028 -0.4383 -0.1527  0.3818
  125MOL0     C17124   5.758   3.344   8.151 -0.2419  0.2255 -0.5620
  125MOL0     C17125   5.710   3.478   8.201  0.2777  0.6757 -0.5394
  125MOL0     C17126   5.805   3.596   8.231  0.3090 -0.0238 -0.1089
  125MOL0     C17127   5.920   3.553   8.315 -0.6368  0.3697 -0.1650
  125MOL0     C17128   5.987   3.670   8.376  0.2240 -0.3439  0.6029
  125MOL0     N17129   6.121   3.641   8.435 -0.0265 -0.9369  0.1326
  125MOL0     C17130   6.235   3.695   8.382  0.3535 -0.0083 -0.3628
  125MOL0     C17131   6.331   3.649   8.461  0.0068  1.4996  0.3800
  125MOL0     C17132   6.484   3.674   8.447  0.4024  0.7266  0.3077
  125MOL0     C17133   6.529   3.798   8.525  0.1025 -0.8019  0.1940
  125MOL0     C17134   6.559   3.754   8.667 -0.3100  0.4880 -0.5414
  125MOL0     C17135   6.706   3.699   8.672 -0.2842 -0.0795 -0.6046
  125MOL0     O17136   6.717   3.645   8.811  0.0623  0.3822 -0.6501
  125MOL0     C17137   6.840   3.671   8.874  0.9334 -0.5886  0.1565
  125MOL0     C17138   6.852   3.738   8.987  0.6956 -1.2827  0.6394
  125MOL0     C17139   6.968   3.780   9.058 -0.2611  0.5722 -0.2376
  125MOL0     C17140   6.944   3.848   9.197 -0.0199  0.3817 -0.8306
  125MOL0     C17141   7.093   3.738   8.999 -0.3614  0.2024  0.0271
  125MOL0     C17142   7.225   3.765   9.055  0.1443  0.2332  0.1825
  125MOL0     O17143   7.335   3.713   8.991 -0.0439 -0.2359  0.5588
  125MOL0     C17144   7.414   3.622   9.068 -0.4634  0.3013  0.8937
  125MOL0     C17145   7.447   3.626   9.211  0.5508 -0.1507 -0.3853
  125MOL0     C17146   7.528   3.514   9.276  0.3903  0.1960  0.3176
  125MOL0     C17147   7.571   3.411   9.182 -1.1715 -1.5809 -0.2555
  125MOL0     O17148   7.624   3.292   9.231  0.3184  0.4755 -0.1927
  125MOL0     C17149   7.583   3.240   9.359  0.6405  0.1042 -0.5130
  125MOL0     C17150   7.460   3.157   9.328  0.4118 -1.0448 -1.0932
  125MOL0     C17151   7.330   3.241   9.313  0.1778 -0.0124 -0.2514
  125MOL0     C17152   7.285   3.292   9.449  0.1696 -0.5489 -0.8725
  125MOL0     C17153   7.133   3.337   9.438 -0.5221  0.9677 -0.0881
  125MOL0     C17154   7.115   3.461   9.351  0.4392 -0.2085 -0.2164
  125MOL0     C17155   6.970   3.521   9.376  0.3335 -0.2561 -0.1325
  125MOL0     C17156   6.962   3.604   9.504 -0.2524  1.0179  0.8781
  125MOL0    Cl17157   6.787   3.641   9.528 -0.2768  0.3883  0.4620
  125MOL0     C17158   7.558   3.423   9.043 -0.2012  0.7337 -0.2995
  125MOL0     C17159   7.477   3.517   8.992  0.4546 -0.5108  0.0524
  125MOL0     O17160   7.234   3.823   9.165 -0.0934  0.2326  0.0694
  125MOL0     C17161   7.079   3.681   8.867 -0.3844 -0.3034  0.1195
  125MOL0     C17162   6.960   3.650   8.802  0.5201 -0.0650 -1.0056
  125MOL0     N17163   6.281   3.567   8.555  0.4701  0.6722 -0.2942
  125MOL0     N17164   6.143   3.557   8.541 -0.7012  0.3489  0.4426
  125MOL0     C17165   5.484   3.368   7.809  0.1956  0.1027  0.3023
  125MOL0     C17166   5.358   3.399   7.752 -0.6588  0.2642  0.0062
  125MOL0     C17167   5.008   3.405   7.417  0.9550 -0.7965  0.3021
  125MOL0     C17168   4.966   3.536   7.454 -0.4722  0.2292 -0.1333
  125MOL0     C17169   4.838   3.577   7.414 -0.7167 -0.3058  0.4433
  125MOL0     C17170   4.749   3.501   7.352  0.0452 -0.8008 -0.9185
  125MOL0     O17171   4.628   3.550   7.319  0.5849  0.6465  1.1412
  125MOL0     C17172   4.523   3.466   7.267  0.6793 -0.1430 -0.3043
  125MOL0     C17173   4.525   3.439   7.118 -1.2456 -0.2978 -0.3917
  125MOL0     C17174   4.434   3.330   7.053  0.1847 -0.3700  0.6180
  125MOL0     C17175   4.476   3.187   7.087 -0.1260 -0.1733  0.5832
  125MOL0     C17176   4.599   3.155   7.014 -0.0578 -1.3469  1.0042
  125MOL0     C17177   4.683   3.115   6.937 -0.7213  0.2548 -0.0450
  125MOL0     C17178   4.785   3.367   7.330  0.8218 -0.6779 -0.1208
  125MOL0     C17179   4.911   3.316   7.357  0.5093  0.0707  0.3906
  125MOL0     C17180   4.948   3.174   7.316 -0.1689 -1.0179  0.5003
  125MOL0     H17181   5.429   3.350   7.429  2.2012  1.4334  0.7372
  125MOL0     H17182   5.636   3.280   7.528  0.7060  0.8330 -0.2805
  125MOL0     H17183   5.733   3.107   7.805  1.8265 -0.3537  0.1818
  125MOL0     H17184   5.641   3.189   7.921 -0.6932 -3.1660 -0.0367
  125MOL0     H17185   5.865   3.147   8.012  3.7604  0.3139  0.1262
  125MOL0     H17186   5.950   3.236   7.885 -0.7388  1.6234 -2.8058
  125MOL0     H17187   5.941   3.385   8.059 -1.6642  1.8244  2.8146
  125MOL0     H17188   5.810   3.441   7.968 -2.1723 -1.1357 -0.2104
  125MOL0     H17189   5.672   3.281   8.125 -1.5066  1.7859 -0.3006
  125MOL0     H17190   5.819   3.299   8.230  3.1685  1.4211 -2.3249
  125MOL0     H17191   5.650   3.449   8.287  1.3058 -0.1723 -0.0822
  125MOL0     H17192   5.644   3.514   8.122 -1.7491  0.1984  0.8667
  125MOL0     H17193   5.846   3.637   8.139  1.5520 -1.4495 -0.2364
  125MOL0     H17194   5.747   3.674   8.281 -0.9219 -1.1925  0.3642
  125MOL0     H17195   5.996   3.502   8.255 -2.8604 -1.1334 -1.8921
  125MOL0     H17196   5.879   3.479   8.385 -3.0473  1.1376 -0.6836
  125MOL0     H17197   6.002   3.749   8.302  1.0727 -0.6271  0.4576
  125MOL0     H17198   5.923   3.712   8.454 -1.8712  1.4997 -1.9375
  125MOL0     H17199   6.238   3.778   8.313 -3.0976  1.7719  1.3838
  125MOL0     H17200   6.505   3.680   8.340 -0.7909 -3.6467 -0.3673
  125MOL0     H17201   6.541   3.590   8.490  2.0472  2.1124  0.9393
  125MOL0     H17202   6.618   3.833   8.471  1.7296 -1.6572  2.2134
  125MOL0     H17203   6.447   3.870   8.527 -0.5358 -1.5232  0.4003
  125MOL0     H17204   6.553   3.836   8.739  0.9633 -0.2683  0.4721
  125MOL0     H17205   6.485   3.678   8.694  1.0338 -0.6551  0.0075
  125MOL0     H17206   6.732   3.623   8.597 -0.8180 -1.4640  0.5713
  125MOL0     H17207   6.782   3.775   8.653  1.2066 -1.7425 -1.6134
  125MOL0     H17208   6.763   3.764   9.045  0.4061 -0.1009 -0.2855
  125MOL0     H17209   7.025   3.851   9.270 -1.5530 -0.8122  1.0248
  125MOL0     H17210   6.856   3.810   9.250 -0.5150  4.2429  1.4946
  125MOL0     H17211   6.912   3.950   9.176 -0.9122  0.6077  1.3855
  125MOL0     H17212   7.419   3.709   9.275  0.3062 -0.7372  0.2799
  125MOL0     H17213   7.548   3.498   9.381 -2.5215  1.6674  1.1805
  125MOL0     H17214   7.658   3.167   9.392  0.1727 -0.2864 -0.3024
  125MOL0     H17215   7.569   3.311   9.441  4.3462 -0.2337  0.5897
  125MOL0     H17216   7.477   3.096   9.239 -0.6022  2.5250 -3.9845
  125MOL0     H17217   7.440   3.090   9.412 -2.5911 -0.8903 -1.5671
  125MOL0     H17218   7.244   3.179   9.288 -1.1085  0.6285  2.2729
  125MOL0     H17219   7.346   3.319   9.237  1.4276  0.4400  0.4534
  125MOL0     H17220   7.341   3.382   9.477 -3.6802  2.2139 -1.2344
  125MOL0     H17221   7.291   3.213   9.524  0.8792 -0.4543 -0.8266
  125MOL0     H17222   7.065   3.254   9.417 -0.7475  1.3321 -0.8557
  125MOL0     H17223   7.112   3.364   9.542  0.1655  2.8678 -0.4040
  125MOL0     H17224   7.131   3.427   9.248  3.1486  1.7766 -0.5680
  125MOL0     H17225   7.196   3.528   9.378  0.3854 -0.2003 -0.0745
  125MOL0     H17226   6.905   3.432   9.377  2.1674 -1.6651 -0.2787
  125MOL0     H17227   6.933   3.580   9.291 -1.6023 -0.6153  0.4165
  125MOL0     H17228   7.017   3.699   9.510 -1.2084  1.5748  1.1036
  125MOL0     H17229   7.002   3.543   9.585 -0.0345 -0.9058 -0.6148
  125MOL0     H17230   7.619   3.357   8.982 -0.4591 -0.7517  0.9816
  125MOL0     H17231   7.471   3.521   8.883  1.5991 -0.2663 -0.0168
  125MOL0     H17232   7.171   3.647   8.819 -0.9217  1.4756 -2.3399
  125MOL0     H17233   6.961   3.619   8.697 -0.5979 -3.4518 -0.1456
  125MOL0     H17234   5.506   3.376   7.915 -1.3914 -0.6012  0.7190
  125MOL0     H17235   5.276   3.438   7.811 -0.4770  3.4753 -1.6851
  125MOL0     H17236   5.036   3.597   7.509 -1.4306  0.8622  0.4238
  125MOL0     H17237   4.800   3.675   7.440 -0.2858  0.2586 -0.9387
  125MOL0     H17238   4.518   3.373   7.324 -3.2578 -0.1455 -0.4066
  125MOL0     H17239   4.427   3.514   7.284  0.0563 -1.8109  1.1794
  125MOL0     H17240   4.630   3.421   7.096 -0.7834  3.3632 -1.9207
  125MOL0     H17241   4.512   3.534   7.066 -0.3297  0.5086  0.7991
  125MOL0     H17242   4.332   3.362   7.077  0.8389  4.8029 -1.9453
  125MOL0     H17243   4.425   3.328   6.945 -2.5971 -2.1315  0.7966
  125MOL0     H17244   4.397   3.113   7.068 -0.5893  0.8136 -1.7879
  125MOL0     H17245   4.505   3.178   7.192  1.3214  1.9163  0.4127
  125MOL0     H17246   4.758   3.071   6.875 -2.9087 -0.8566 -2.0289
  125MOL0     H17247   4.707   3.307   7.284 -0.0930  1.7941 -2.0336
  125MOL0     H17248   5.019   3.184   7.233 -0.6076  3.3179  0.4332
  125MOL0     H17249   4.991   3.113   7.396  0.0889 -0.5446  0.7259
  125MOL0     H17250   4.859   3.129   7.272 -2.4522  0.9572  2.7291
  126MOL0     O17251   1.036   4.934   1.496 -0.9911  0.0265  0.5844
  126MOL0     C17252   1.051   4.963   1.613  2.0972  0.6423 -0.6466
  126MOL0     O17253   1.170   4.966   1.686  0.4299 -0.6359  0.0647
  126MOL0     C17254   1.287   4.958   1.615 -0.2100  1.0626  0.0650
  126MOL0     C17255   1.332   5.030   1.503  0.0321  0.6847  0.3543
  126MOL0     C17256   1.451   5.025   1.445 -0.1569  1.2736 -0.6485
  126MOL0     C17257   1.545   4.935   1.505  0.0792 -0.0061  0.4321
  126MOL0     O17258   1.685   4.919   1.468  0.3370  0.8424 -0.2311
  126MOL0     C17259   1.745   4.998   1.371  1.0819 -0.9554  0.5432
  126MOL0     C17260   1.887   4.958   1.323  0.3964  0.0394  0.0714
  126MOL0     C17261   1.957   5.079   1.253 -1.5004 -0.0947  0.0393
  126MOL0     C17262   2.105   5.062   1.234  0.4900 -0.0137  0.1818
  126MOL0     C17263   2.187   5.193   1.249  0.1313  0.1037  0.3122
  126MOL0     C17264   2.343   5.185   1.233  0.8220  0.4992  0.8441
  126MOL0     C17265   2.416   5.302   1.301 -0.1434  0.5512  1.0557
  126MOL0     C17266   2.567   5.304   1.274  0.2911 -0.1921 -0.0784
  126MOL0     N17267   2.635   5.419   1.342 -0.1957 -0.9851  0.5361
  126MOL0     C17268   2.660   5.554   1.309 -0.0650  0.0472  0.2512
  126MOL0     C17269   2.717   5.605   1.412 -0.2050 -0.0331 -0.1836
  126MOL0     C17270   2.789   5.735   1.420  0.6263  0.0628  0.6779
  126MOL0     C17271   2.920   5.748   1.344  0.5056 -0.6489 -1.0061
  126MOL0     C17272   2.902   5.723   1.201  0.4191 -0.5803  0.2560
  126MOL0     C17273   3.031   5.773   1.126 -0.3254 -0.1579  0.0243
  126MOL0     O17274   3.045   5.915   1.147  0.3360 -0.9462 -0.0351
  126MOL0     C17275   3.163   5.985   1.122  0.1245 -0.2102  0.4555
  126MOL0     C17276   3.175   6.122   1.165  0.1301  0.6264  0.5574
  126MOL0     C17277   3.295   6.198   1.161  0.2078  0.0533  0.8978
  126MOL0     C17278   3.290   6.333   1.225  1.0712  0.0576 -0.3720
  126MOL0     C17279   3.407   6.143   1.087  0.5772  0.2181  0.6658
  126MOL0     C17280   3.538   6.203   1.081 -1.2705  1.2213  0.3598
  126MOL0     O17281   3.633   6.136   1.009  0.1937  0.6574  0.2719
  126MOL0     C17282   3.756   6.187   1.014  0.0552 -0.1097 -0.8974
  126MOL0     C17283   3.815   6.219   1.144  0.2844  0.1759  0.5407
  126MOL0     C17284   3.944   6.261   1.145 -0.6680  0.1078 -0.0523
  126MOL0     C17285   4.031   6.258   1.034 -0.4178  0.6385  0.7156
  126MOL0     O17286   4.164   6.281   1.055 -0.0040 -0.7590  0.0850
  126MOL0     C17287   4.258   6.252   0.958  0.5091  0.1998 -0.6892
  126MOL0     C17288   4.400   6.233   1.019 -0.6262  0.7934  0.1809
  126MOL0     C17289   4.401   6.122   1.130  0.2908  0.1433 -0.5545
  126MOL0     C17290   4.310   6.000   1.108 -0.2696  0.5686  0.7862
  126MOL0     C17291   4.384   5.874   1.164  0.2361 -0.2968 -0.6534
  126MOL0     C17292   4.333   5.737   1.109 -0.8340  0.1827 -0.4736
  126MOL0     C17293   4.366   5.719   0.958 -0.3870 -0.6985 -0.5206
  126MOL0     C17294   4.249   5.703   0.874  0.5791  0.1104 -0.0453
  126MOL0    Cl17295   4.161   5.550   0.900  0.4930 -0.2776  0.1004
  126MOL0     C17296   3.969   6.243   0.901 -0.6213 -0.0127 -0.0394
  126MOL0     C17297   3.830   6.209   0.898 -1.1035  0.1903  0.7860
  126MOL0     O17298   3.551   6.320   1.114 -0.1802 -1.1123 -0.4076
  126MOL0     C17299   3.392   6.003   1.036  0.3791  0.5518 -0.1462
  126MOL0     C17300   3.273   5.935   1.061 -0.1307  0.2065  0.9880
  126MOL0     N17301   2.743   5.513   1.511 -0.1969 -0.1137 -0.0527
  126MOL0     N17302   2.699   5.408   1.465  0.2861  0.9873  0.1373
  126MOL0     C17303   1.502   4.847   1.609 -0.3812 -0.1262  0.5643
  126MOL0     C17304   1.379   4.866   1.665  0.6485 -0.1022  0.4366
  126MOL0     C17305   0.929   5.013   1.686  0.0919 -0.5726 -0.0097
  126MOL0     C17306   0.937   5.094   1.801  1.2702  0.8941 -0.2821
  126MOL0     C17307   0.818   5.121   1.878  0.3451  0.7829 -0.7530
  126MOL0     C17308   0.696   5.086   1.830  0.4539 -0.6033  0.2244
  126MOL0     O17309   0.577   5.105   1.902 -0.6617  0.8044 -0.8344
  126MOL0     C17310   0.498   4.989   1.935  0.0766  1.0694 -0.4669
  126MOL0     C17311   0.352   5.029   1.949  0.5790 -1.0889 -0.0317
  126MOL0     C17312   0.339   5.153   2.041 -0.4889 -0.2365  0.3372
  126MOL0     C17313   0.199   5.184   2.087  0.5168 -0.1330  0.5164
  126MOL0     C17314   0.114   5.076   2.145 -0.8528 -0.8315 -0.8355
  126MOL0     C17315   0.050   4.990   2.183 -0.3533  0.5826 -0.0732
  126MOL0     C17316   0.689   5.014   1.715 -0.2958 -0.1102 -0.2233
  126MOL0     C17317   0.802   4.975   1.643  0.4549 -0.6372 -0.9386
  126MOL0     C17318   0.771   4.878   1.533 -0.3647 -0.6128 -0.0146
  126MOL0     H17319   1.267   5.097   1.449  2.0575 -0.1142 -3.4104
  126MOL0     H17320   1.482   5.074   1.353 -0.5053  0.9182 -0.9593
  126MOL0     H17321   1.749   5.104   1.396 -0.8654 -0.7520  0.1354
  126MOL0     H17322   1.696   4.996   1.273 -0.4853  0.9524  1.2314
  126MOL0     H17323   1.948   4.938   1.411  1.5153  1.5716 -0.3276
  126MOL0     H17324   1.885   4.867   1.262 -2.7158  0.4662 -0.6705
  126MOL0     H17325   1.913   5.084   1.153  1.1127 -0.3932 -1.2271
  126MOL0     H17326   1.935   5.176   1.298 -5.4039 -1.2215  0.8934
  126MOL0     H17327   2.151   4.985   1.297  2.3000 -0.1520 -1.2309
  126MOL0     H17328   2.123   5.022   1.134  0.5435  3.1278 -1.2053
  126MOL0     H17329   2.167   5.224   1.352 -1.5625 -1.2399  0.4409
  126MOL0     H17330   2.162   5.265   1.170  0.8087  0.2851  0.2604
  126MOL0     H17331   2.360   5.095   1.292 -0.3109 -1.4936 -1.7014
  126MOL0     H17332   2.362   5.166   1.127 -0.7539 -0.3105  0.6898
  126MOL0     H17333   2.398   5.292   1.409 -3.3369  3.5487  0.9905
  126MOL0     H17334   2.375   5.401   1.279 -4.9621 -0.1061  5.1418
  126MOL0     H17335   2.604   5.225   1.339 -2.5461 -0.4408  1.4134
  126MOL0     H17336   2.591   5.293   1.168 -1.5881  2.4318 -0.8934
  126MOL0     H17337   2.655   5.607   1.215 -2.0454  0.4346  0.5330
  126MOL0     H17338   2.805   5.760   1.525 -0.2437 -1.0580  1.1012
  126MOL0     H17339   2.723   5.808   1.372  2.4275 -0.3243 -2.6364
  126MOL0     H17340   2.950   5.852   1.351  0.3380 -0.7286  2.2139
  126MOL0     H17341   2.995   5.684   1.392  0.3312 -0.1370 -0.0302
  126MOL0     H17342   2.883   5.620   1.172  1.4113 -1.1456  1.5225
  126MOL0     H17343   2.820   5.784   1.162  0.4422 -2.3384 -2.8847
  126MOL0     H17344   3.124   5.719   1.150  0.6528 -0.8866 -4.4584
  126MOL0     H17345   3.020   5.753   1.019 -2.6837 -0.3367  0.2537
  126MOL0     H17346   3.086   6.160   1.214  1.2379  2.6578  1.1552
  126MOL0     H17347   3.264   6.413   1.156 -0.7603 -0.7891 -0.7240
  126MOL0     H17348   3.381   6.353   1.283  0.2542  1.4920  0.4699
  126MOL0     H17349   3.207   6.337   1.296  1.2472 -1.8502  0.0143
  126MOL0     H17350   3.766   6.204   1.240 -2.0044 -2.5105 -0.8850
  126MOL0     H17351   3.997   6.289   1.236 -0.4731 -2.3532  0.6464
  126MOL0     H17352   4.227   6.170   0.892 -2.6812  0.5230  0.2426
  126MOL0     H17353   4.269   6.343   0.898 -2.2199  0.4436 -0.9451
  126MOL0     H17354   4.457   6.199   0.932  1.3164 -1.5248  2.2147
  126MOL0     H17355   4.447   6.324   1.058  1.1524  1.4854 -3.1848
  126MOL0     H17356   4.367   6.171   1.222 -0.0666  0.1087 -0.6687
  126MOL0     H17357   4.504   6.090   1.148 -0.8412 -3.4075  0.3721
  126MOL0     H17358   4.290   5.988   1.001 -0.6084  1.4521  0.7402
  126MOL0     H17359   4.217   6.006   1.165  0.6282 -0.9433  2.5008
  126MOL0     H17360   4.482   5.891   1.119  0.7686  3.9374  1.5967
  126MOL0     H17361   4.378   5.874   1.273 -0.9873 -1.9220 -0.6856
  126MOL0     H17362   4.225   5.731   1.126 -0.3114 -0.7537  3.3918
  126MOL0     H17363   4.378   5.654   1.164  2.3489  2.1476  0.1577
  126MOL0     H17364   4.432   5.633   0.942  1.3598  0.5694 -0.4538
  126MOL0     H17365   4.428   5.797   0.912  2.4162 -4.8023 -4.4883
  126MOL0     H17366   4.286   5.700   0.771 -3.1634 -1.2504 -1.5138
  126MOL0     H17367   4.179   5.785   0.890  3.3146  2.2542  1.8578
  126MOL0     H17368   4.026   6.258   0.809 -0.4365  1.8450  0.3388
  126MOL0     H17369   3.782   6.186   0.803 -0.9273  2.4963  0.0626
  126MOL0     H17370   3.480   5.954   0.995  1.2737  2.4422 -0.6257
  126MOL0     H17371   3.276   5.830   1.033  2.5355  0.6713 -0.8395
  126MOL0     H17372   1.571   4.769   1.639 -0.7971 -0.5118  0.5271
  126MOL0     H17373   1.362   4.810   1.757  1.1769 -1.4009 -0.2280
  126MOL0     H17374   1.025   5.139   1.847  0.8067 -0.5395  2.1539
  126MOL0     H17375   0.815   5.173   1.974 -3.3442 -2.7475  1.3748
  126MOL0     H17376   0.505   4.910   1.860 -0.1260  0.2774  0.3347
  126MOL0     H17377   0.544   4.948   2.025  0.9364  0.8940 -0.9757
  126MOL0     H17378   0.300   4.939   1.981  2.2947 -2.5275 -1.1519
  126MOL0     H17379   0.310   5.064   1.854  1.1436 -0.1528  0.0521
  126MOL0     H17380   0.399   5.140   2.131 -0.2599  2.8616  0.7294
  126MOL0     H17381   0.383   5.239   1.990  1.3416 -0.3032  1.7484
  126MOL0     H17382   0.144   5.239   2.011  0.8719  1.7608  1.5693
  126MOL0     H17383   0.215   5.256   2.168 -1.9749  0.7062  0.3297
  126MOL0     H17384  -0.011   4.912   2.225 -3.0066  2.3360 -0.4720
  126MOL0     H17385   0.595   4.964   1.691  0.4648 -2.1064  0.6991
  126MOL0     H17386   0.673   4.830   1.539 -1.6435  1.5109 -2.2302
  126MOL0     H17387   0.759   4.930   1.438  2.1141 -1.8509 -1.0830
  126MOL0     H17388   0.846   4.799   1.520 -0.9679 -0.9112 -1.9620
  127MOL0     O17389   1.151   8.487   2.406  0.4482 -0.2401 -0.0464
  127MOL0     C17390   1.206   8.593   2.434  0.0355  0.3327  0.4983
  127MOL0     O17391   1.340   8.615   2.445 -0.2704 -0.5476 -0.1122
  127MOL0     C17392   1.413   8.501   2.424  0.3701 -0.3179 -0.3272
  127MOL0     C17393   1.432   8.400   2.527 -0.4460 -1.0158 -0.1590
  127MOL0     C17394   1.497   8.276   2.504  0.2390 -0.7403  0.4757
  127MOL0     C17395   1.550   8.254   2.377  1.2233  0.2066 -0.0237
  127MOL0     O17396   1.602   8.129   2.370 -0.4110 -0.1540 -0.3145
  127MOL0     C17397   1.743   8.139   2.404  0.2035  0.6654  0.0390
  127MOL0     C17398   1.831   8.026   2.329 -0.3654 -0.1943 -0.1266
  127MOL0     C17399   1.832   8.032   2.176  0.2683 -0.4588  0.7875
  127MOL0     C17400   1.896   7.911   2.112 -0.5929  0.7533 -0.8321
  127MOL0     C17401   1.914   7.905   1.958 -0.6882 -0.7223 -0.2888
  127MOL0     C17402   1.960   7.767   1.918  0.8990  0.4161 -0.2508
  127MOL0     C17403   1.998   7.749   1.778  0.2257 -0.3521  0.2120
  127MOL0     C17404   2.051   7.603   1.754  0.5284  0.2451  0.8272
  127MOL0     N17405   1.937   7.508   1.759  0.8469 -0.5749 -0.1655
  127MOL0     C17406   1.850   7.487   1.654 -1.0830  0.3056  1.5019
  127MOL0     C17407   1.781   7.381   1.700 -1.4777 -0.3939 -0.2273
  127MOL0     C17408   1.664   7.311   1.625  0.9410 -0.4365  0.5205
  127MOL0     C17409   1.613   7.177   1.684  0.3707  0.9867  0.0846
  127MOL0     C17410   1.553   7.068   1.587  0.1104  0.9183 -0.6945
  127MOL0     C17411   1.429   7.110   1.502 -0.9117  0.2095  0.3285
  127MOL0     O17412   1.378   7.041   1.385 -0.7045 -0.3423 -0.3934
  127MOL0     C17413   1.448   7.067   1.265  0.1517  0.5180  0.4382
  127MOL0     C17414   1.398   7.006   1.156  1.0045  0.6682  0.0908
  127MOL0     C17415   1.459   7.012   1.027 -0.0422  0.4419 -1.0706
  127MOL0     C17416   1.380   6.947   0.919  0.2220  0.2170 -0.6113
  127MOL0     C17417   1.584   7.070   1.012 -0.0358  1.1218  0.9597
  127MOL0     C17418   1.674   7.063   0.889 -0.1271  0.6836  0.8402
  127MOL0     O17419   1.632   6.990   0.780 -0.6405 -0.4200  0.4062
  127MOL0     C17420   1.690   7.021   0.653  0.1512 -0.8152  0.9469
  127MOL0     C17421   1.620   7.071   0.539 -0.4463 -0.0339 -0.5439
  127MOL0     C17422   1.667   7.091   0.410 -1.1610  0.0708  0.1757
  127MOL0     C17423   1.794   7.037   0.380 -0.0918  0.1326  0.1703
  127MOL0     O17424   1.842   7.046   0.251 -0.4187  0.6197 -0.1664
  127MOL0     C17425   1.752   7.052   0.137 -0.5451  0.4764 -0.4639
  127MOL0     C17426   1.843   7.042   0.011 -1.0025 -0.1565 -0.2049
  127MOL0     C17427   1.767   7.005  -0.115 -0.1454 -0.0684  0.7130
  127MOL0     C17428   1.728   7.121  -0.207  0.0134  0.3540 -0.1776
  127MOL0     C17429   1.677   7.051  -0.332 -0.6212  0.4183 -0.3337
  127MOL0     C17430   1.609   7.149  -0.431 -0.5084 -0.3497 -1.1182
  127MOL0     C17431   1.493   7.081  -0.516  0.0754  0.2805  0.3938
  127MOL0     C17432   1.425   7.169  -0.614  0.5472 -0.3272  0.8163
  127MOL0    Cl17433   1.385   7.326  -0.557  0.4839  0.4605  0.0001
  127MOL0     C17434   1.868   6.998   0.495 -0.1255 -0.3167  0.3007
  127MOL0     C17435   1.824   6.988   0.634 -0.1318  1.5717  0.6706
  127MOL0     O17436   1.769   7.138   0.882  0.9136 -0.5330  0.4220
  127MOL0     C17437   1.625   7.139   1.124 -0.3475  0.0408 -0.0157
  127MOL0     C17438   1.560   7.143   1.244  0.4180  0.1657 -0.6873
  127MOL0     N17439   1.833   7.340   1.824 -0.6963 -0.6555  0.9946
  127MOL0     N17440   1.929   7.413   1.860  0.0377  1.1746  0.1355
  127MOL0     C17441   1.543   8.349   2.271 -0.0072 -0.2267  0.5697
  127MOL0     C17442   1.471   8.468   2.294  0.6264  0.0437 -0.4923
  127MOL0     C17443   1.115   8.693   2.509  0.8570  0.0427  0.9648
  127MOL0     C17444   1.152   8.772   2.612 -0.1446  0.0649 -0.3726
  127MOL0     C17445   1.085   8.884   2.658  0.5763  0.3194 -0.7492
  127MOL0     C17446   0.956   8.917   2.604 -0.4939  1.0720 -1.0061
  127MOL0     O17447   0.871   9.020   2.640 -0.3530  0.4039  0.8774
  127MOL0     C17448   0.909   9.127   2.722 -0.5816 -0.1628  0.1953
  127MOL0     C17449   0.967   9.244   2.649  0.4538 -0.4955 -0.3413
  127MOL0     C17450   1.100   9.217   2.585  0.2702  0.0540  0.3451
  127MOL0     C17451   1.135   9.323   2.485 -0.8671  0.0697  0.6339
  127MOL0     C17452   1.141   9.463   2.519 -1.2909 -0.0404  0.0757
  127MOL0     C17453   1.157   9.582   2.546  0.1715 -0.9588 -0.6775
  127MOL0     C17454   0.911   8.825   2.508 -0.4993  0.3214 -0.4726
  127MOL0     C17455   0.982   8.715   2.458  0.0281  0.7794 -0.0182
  127MOL0     C17456   0.907   8.623   2.363 -0.8452 -0.5240 -0.7040
  127MOL0     H17457   1.386   8.419   2.623 -1.1803  2.2667 -1.0558
  127MOL0     H17458   1.500   8.207   2.588  0.8045 -0.6247  0.5520
  127MOL0     H17459   1.750   8.113   2.510 -3.1817  0.2995  0.2831
  127MOL0     H17460   1.783   8.235   2.371  1.7075 -0.9273 -3.2574
  127MOL0     H17461   1.934   8.030   2.365 -0.1185 -1.4686 -0.6735
  127MOL0     H17462   1.789   7.932   2.366 -1.6826 -0.3623 -1.9128
  127MOL0     H17463   1.726   8.017   2.150 -0.1080 -1.3157  2.6567
  127MOL0     H17464   1.878   8.124   2.141 -0.5066 -0.1544  0.5395
  127MOL0     H17465   1.992   7.881   2.155 -1.7212  1.5340  2.5701
  127MOL0     H17466   1.831   7.826   2.137  0.9559 -0.8205 -1.9361
  127MOL0     H17467   1.988   7.980   1.928  0.4494 -0.7252  2.2447
  127MOL0     H17468   1.819   7.931   1.912 -1.6541 -1.2770  1.3216
  127MOL0     H17469   2.047   7.742   1.979 -0.5897  0.0356  1.8575
  127MOL0     H17470   1.877   7.701   1.945  0.0923  1.6757  0.5114
  127MOL0     H17471   2.074   7.824   1.756 -1.6415  1.7012  0.4752
  127MOL0     H17472   1.911   7.769   1.715  0.5188 -0.5072 -0.2478
  127MOL0     H17473   2.081   7.596   1.649  1.6942 -1.9900  1.2434
  127MOL0     H17474   2.123   7.569   1.829  1.9695 -0.2965 -0.7318
  127MOL0     H17475   1.839   7.545   1.563  2.4351  1.1689  1.5107
  127MOL0     H17476   1.687   7.300   1.519  0.4272  1.6150  0.1590
  127MOL0     H17477   1.587   7.389   1.622 -0.0181 -1.3774  0.1025
  127MOL0     H17478   1.699   7.126   1.729  0.9776  2.3841  0.5598
  127MOL0     H17479   1.540   7.201   1.761 -0.7982 -1.6929 -0.0814
  127MOL0     H17480   1.643   7.036   1.533  0.7717  2.5724 -0.6267
  127MOL0     H17481   1.524   6.987   1.655 -0.3088 -0.1092 -2.0528
  127MOL0     H17482   1.335   7.126   1.556 -0.8286 -0.0392  0.5513
  127MOL0     H17483   1.437   7.210   1.460 -0.0180  0.5869  1.3656
  127MOL0     H17484   1.310   6.947   1.179  1.4317  0.6333  1.7222
  127MOL0     H17485   1.277   6.925   0.948  1.0723 -0.9872  1.8315
  127MOL0     H17486   1.429   6.850   0.905  0.8994 -0.4034  4.2560
  127MOL0     H17487   1.386   7.022   0.840  2.3148  2.8400  1.8254
  127MOL0     H17488   1.517   7.092   0.566  0.3039  1.7817  1.1314
  127MOL0     H17489   1.596   7.139   0.344 -0.2940  0.8818 -0.1913
  127MOL0     H17490   1.690   6.962   0.140  0.1020  0.0159 -0.5812
  127MOL0     H17491   1.682   7.135   0.128 -1.0285  0.0747 -0.4209
  127MOL0     H17492   1.913   7.121  -0.017  2.5881 -3.6197 -2.0049
  127MOL0     H17493   1.917   6.963   0.027 -2.9070 -1.5901  2.2254
  127MOL0     H17494   1.672   6.958  -0.089 -2.6846  3.3683 -1.5406
  127MOL0     H17495   1.833   6.935  -0.167 -0.8982 -1.2702  1.3300
  127MOL0     H17496   1.818   7.177  -0.235  2.2456 -1.7232  2.2538
  127MOL0     H17497   1.647   7.173  -0.156 -2.1043 -1.6444 -1.3010
  127MOL0     H17498   1.750   6.985  -0.380  2.5166  1.1349  3.0597
  127MOL0     H17499   1.593   6.993  -0.291 -2.5699  2.4582 -1.2311
  127MOL0     H17500   1.674   7.212  -0.493 -3.0539  1.6553 -1.9423
  127MOL0     H17501   1.565   7.225  -0.365  1.4366 -2.0328  2.3722
  127MOL0     H17502   1.404   7.053  -0.459  0.5910 -1.6087  0.3333
  127MOL0     H17503   1.520   6.985  -0.561 -1.2541 -1.1986  2.5376
  127MOL0     H17504   1.333   7.119  -0.644  0.4709  0.3862 -0.1920
  127MOL0     H17505   1.495   7.177  -0.699 -0.8405 -0.0766 -0.3337
  127MOL0     H17506   1.968   6.969   0.462  0.0862 -1.3150  1.7332
  127MOL0     H17507   1.895   6.961   0.711 -1.2630 -1.2109  0.8669
  127MOL0     H17508   1.719   7.193   1.124 -1.9239  2.9857  0.3456
  127MOL0     H17509   1.602   7.208   1.320  0.2815 -1.3473  0.7551
  127MOL0     H17510   1.566   8.318   2.169 -2.2865  0.6838 -0.2896
  127MOL0     H17511   1.457   8.548   2.221  2.5052 -1.1559 -2.2801
  127MOL0     H17512   1.248   8.757   2.660  0.9506 -0.0173 -2.4868
  127MOL0     H17513   1.126   8.926   2.749 -0.4349 -2.4240  1.1049
  127MOL0     H17514   0.818   9.163   2.771  0.6067 -0.1015  2.4570
  127MOL0     H17515   0.973   9.090   2.802  0.3889 -0.2059 -0.5773
  127MOL0     H17516   0.986   9.324   2.722 -0.7154  2.6090 -3.1898
  127MOL0     H17517   0.889   9.285   2.585 -1.5929 -0.0549  2.2707
  127MOL0     H17518   1.185   9.211   2.653 -1.5193  4.1153  3.3213
  127MOL0     H17519   1.097   9.124   2.527  0.1322  0.0439  0.3681
  127MOL0     H17520   1.067   9.303   2.402 -1.4684  1.3072  0.7932
  127MOL0     H17521   1.237   9.294   2.458 -0.2386  2.5608  0.0725
  127MOL0     H17522   1.183   9.683   2.569  4.9367 -2.3089  0.9043
  127MOL0     H17523   0.822   8.847   2.451 -0.7944  1.5893  0.4372
  127MOL0     H17524   0.894   8.529   2.417  2.0132 -0.0102  1.1550
  127MOL0     H17525   0.806   8.652   2.335 -0.6840  1.3560  0.4781
  127MOL0     H17526   0.961   8.600   2.271  1.2043 -1.2186  0.6006
  128MOL0     O17527   5.107   5.876   8.337  0.0718 -0.0213  0.4138
  128MOL0     C17528   5.117   5.827   8.448  0.7768  0.1424 -1.4912
  128MOL0     O17529   5.187   5.872   8.551 -0.4560 -0.4233 -0.4285
  128MOL0     C17530   5.263   5.984   8.527 -0.4424 -0.3132  0.2539
  128MOL0     C17531   5.263   6.074   8.638  0.1030 -0.4292  0.2175
  128MOL0     C17532   5.332   6.194   8.637  0.0164  0.0340  0.1381
  128MOL0     C17533   5.396   6.237   8.522 -0.5637  1.0537 -0.0859
  128MOL0     O17534   5.460   6.351   8.537 -0.4452 -0.5301  0.0977
  128MOL0     C17535   5.590   6.373   8.474  0.3743 -0.8906 -0.6267
  128MOL0     C17536   5.663   6.456   8.581  0.5252 -0.5334 -0.5272
  128MOL0     C17537   5.811   6.460   8.566  0.3775 -0.6338 -0.2375
  128MOL0     C17538   5.867   6.551   8.672  0.5562 -0.3868 -0.1536
  128MOL0     C17539   6.024   6.552   8.689 -0.2194 -0.4951 -0.6823
  128MOL0     C17540   6.066   6.588   8.826 -0.2149  0.2966 -0.8089
  128MOL0     C17541   6.093   6.737   8.859 -0.1520  0.5652 -0.2055
  128MOL0     C17542   6.143   6.768   8.997  0.2774  0.7781  0.5710
  128MOL0     N17543   6.211   6.900   8.995 -0.4187  0.7393  0.0604
  128MOL0     C17544   6.162   7.023   8.935 -0.1119  1.7870  0.5119
  128MOL0     C17545   6.265   7.109   8.938  0.4555 -0.3254  0.5939
  128MOL0     C17546   6.266   7.251   8.883 -0.2327 -0.3969  0.1502
  128MOL0     C17547   6.408   7.296   8.848  0.7824  0.8708 -0.0832
  128MOL0     C17548   6.393   7.428   8.769 -1.1015 -0.5997  0.5621
  128MOL0     C17549   6.523   7.488   8.723  0.5597  0.2089 -0.2743
  128MOL0     O17550   6.480   7.612   8.664 -0.3704 -0.6564 -0.7172
  128MOL0     C17551   6.570   7.678   8.589 -0.2377 -1.1802 -1.2554
  128MOL0     C17552   6.522   7.798   8.551 -0.6920  0.2925 -0.1308
  128MOL0     C17553   6.595   7.885   8.460  0.7120 -0.2041  0.8654
  128MOL0     C17554   6.523   7.998   8.396  0.4168  0.7801  0.3211
  128MOL0     C17555   6.728   7.842   8.431 -0.0212  0.1940 -0.8273
  128MOL0     C17556   6.809   7.893   8.323 -0.3398 -0.1604 -0.5141
  128MOL0     O17557   6.939   7.855   8.319  1.1602  0.2902 -1.0752
  128MOL0     C17558   7.013   7.889   8.215 -0.1622 -1.3534 -0.4286
  128MOL0     C17559   7.070   8.017   8.188  0.1383 -0.1365  0.5963
  128MOL0     C17560   7.153   8.041   8.083 -0.2160 -0.5385 -0.3257
  128MOL0     C17561   7.198   7.941   7.991  0.3147 -0.4555  0.3090
  128MOL0     O17562   7.277   7.981   7.883  0.8423  0.5171  0.0244
  128MOL0     C17563   7.296   7.893   7.764  0.4435  0.2614 -0.1369
  128MOL0     C17564   7.413   7.948   7.672  1.0770 -0.1775 -1.2947
  128MOL0     C17565   7.379   8.095   7.657 -0.7659 -0.2004  0.5247
  128MOL0     C17566   7.416   8.146   7.513 -1.1172 -0.0582  1.1591
  128MOL0     C17567   7.568   8.148   7.485  0.1398 -0.1167  0.6747
  128MOL0     C17568   7.630   8.169   7.348 -1.3186 -0.8949  0.6262
  128MOL0     C17569   7.553   8.269   7.261 -0.0968 -1.0898  0.1043
  128MOL0     C17570   7.640   8.343   7.157  0.3197 -0.5903  0.6466
  128MOL0    Cl17571   7.714   8.223   7.038 -0.0862 -0.1162  0.2785
  128MOL0     C17572   7.147   7.813   8.020 -0.7970  1.4098  1.1366
  128MOL0     C17573   7.069   7.790   8.135  0.7680  0.0587 -0.2603
  128MOL0     O17574   6.762   7.959   8.238  0.2609  0.0689 -0.3786
  128MOL0     C17575   6.765   7.714   8.468  1.3292  0.8620 -0.4011
  128MOL0     C17576   6.701   7.631   8.554  0.6922  0.2195 -0.4107
  128MOL0     N17577   6.375   7.038   8.994  0.2490 -0.7524  0.0888
  128MOL0     N17578   6.340   6.917   9.031 -0.1253  0.3658 -0.8459
  128MOL0     C17579   5.413   6.140   8.424 -0.3724  0.2352  0.4677
  128MOL0     C17580   5.351   6.016   8.418 -0.0799 -0.8868  0.0797
  128MOL0     C17581   5.046   5.698   8.489 -0.1166 -0.4726 -0.2139
  128MOL0     C17582   5.078   5.640   8.614 -0.2585 -0.0869 -0.9658
  128MOL0     C17583   5.043   5.510   8.653  0.0324 -0.3004  0.1149
  128MOL0     C17584   4.966   5.436   8.560  0.2067 -0.0154  0.7377
  128MOL0     O17585   4.922   5.306   8.576  1.3329  0.4686  0.1422
  128MOL0     C17586   4.972   5.236   8.695 -0.4164 -0.6406  0.0624
  128MOL0     C17587   4.955   5.083   8.672 -0.3163  0.1865 -0.0443
  128MOL0     C17588   5.083   5.025   8.600 -0.4306 -0.2804  0.7925
  128MOL0     C17589   5.073   4.876   8.563 -0.8879  0.8454 -0.6276
  128MOL0     C17590   4.970   4.836   8.473  0.7242 -0.0636  0.0634
  128MOL0     C17591   4.869   4.812   8.415 -1.2506  0.2126  0.0227
  128MOL0     C17592   4.928   5.491   8.440  1.0305  0.1162 -1.2618
  128MOL0     C17593   4.975   5.619   8.399 -0.2847  0.7370 -1.4708
  128MOL0     C17594   4.945   5.652   8.262  0.5866  0.3601 -0.0918
  128MOL0     H17595   5.201   6.050   8.723  0.9973 -3.5064  0.1429
  128MOL0     H17596   5.316   6.272   8.711 -1.2856  1.0017 -1.1174
  128MOL0     H17597   5.577   6.429   8.381 -0.4244  0.3230  0.2040
  128MOL0     H17598   5.642   6.280   8.450  1.2006 -0.4411 -0.6099
  128MOL0     H17599   5.630   6.561   8.583  0.7367 -0.4547 -1.1408
  128MOL0     H17600   5.647   6.412   8.680  2.4919 -0.6337 -0.2060
  128MOL0     H17601   5.844   6.358   8.588  0.9995 -0.1592  1.1702
  128MOL0     H17602   5.848   6.489   8.468  1.9837  2.9686  1.2361
  128MOL0     H17603   5.834   6.656   8.671  1.2203  0.0853  4.5506
  128MOL0     H17604   5.822   6.524   8.769  2.0579  0.8938  0.9457
  128MOL0     H17605   6.073   6.630   8.630 -0.8213 -0.9519 -1.8142
  128MOL0     H17606   6.072   6.456   8.669  3.6760  0.4189  3.0073
  128MOL0     H17607   5.997   6.536   8.893 -0.1553 -0.6850 -1.5041
  128MOL0     H17608   6.159   6.533   8.846 -1.9728 -2.0065  1.7621
  128MOL0     H17609   6.003   6.791   8.827 -0.8009 -0.6589 -0.5385
  128MOL0     H17610   6.171   6.771   8.791  1.2346 -2.2734 -0.1976
  128MOL0     H17611   6.072   6.772   9.079  1.2687 -0.9542  1.5693
  128MOL0     H17612   6.218   6.693   9.022 -2.0242 -0.7175  3.4770
  128MOL0     H17613   6.064   7.049   8.894  0.9737  4.7612 -0.4832
  128MOL0     H17614   6.223   7.311   8.964 -1.7604 -1.3300  0.0733
  128MOL0     H17615   6.198   7.260   8.798 -0.3659 -3.2807 -0.1564
  128MOL0     H17616   6.457   7.298   8.946  0.5139 -1.7232  0.1733
  128MOL0     H17617   6.457   7.219   8.788 -1.3346 -1.2122  0.7277
  128MOL0     H17618   6.323   7.428   8.685 -0.2804  0.4010 -0.1456
  128MOL0     H17619   6.350   7.505   8.834 -0.9623 -0.9808  1.1105
  128MOL0     H17620   6.599   7.502   8.802  1.4609 -0.9527 -0.9041
  128MOL0     H17621   6.572   7.421   8.652 -0.3447  2.8654 -3.6637
  128MOL0     H17622   6.424   7.828   8.585  0.7428  2.4872  2.4391
  128MOL0     H17623   6.460   7.962   8.315  1.2868 -0.9491  0.3581
  128MOL0     H17624   6.579   8.089   8.375 -3.0118  2.8362 -0.5590
  128MOL0     H17625   6.446   8.032   8.465 -1.2661 -0.7536 -0.7005
  128MOL0     H17626   7.044   8.103   8.249  1.8112  0.6113  0.3044
  128MOL0     H17627   7.191   8.141   8.069  0.4629 -1.1402 -3.7224
  128MOL0     H17628   7.327   7.794   7.799 -1.0635 -0.0851  0.3276
  128MOL0     H17629   7.204   7.896   7.704  1.6376 -0.3843 -2.0801
  128MOL0     H17630   7.511   7.939   7.720  0.2019  0.1680  0.6570
  128MOL0     H17631   7.413   7.891   7.578 -2.1374 -1.8124 -0.4633
  128MOL0     H17632   7.442   8.150   7.727  1.0087 -0.7493 -0.5657
  128MOL0     H17633   7.273   8.112   7.681 -0.9539 -1.5408  0.7052
  128MOL0     H17634   7.380   8.247   7.492 -1.6918 -0.3384  0.7717
  128MOL0     H17635   7.354   8.075   7.458  1.6669 -3.4571  2.0560
  128MOL0     H17636   7.614   8.225   7.547  1.5166  0.1439 -0.6020
  128MOL0     H17637   7.599   8.047   7.514  0.1405 -1.0990 -2.3742
  128MOL0     H17638   7.615   8.072   7.299 -1.5742 -0.9064  0.7228
  128MOL0     H17639   7.733   8.193   7.376 -1.3980  0.0947  0.1455
  128MOL0     H17640   7.521   8.347   7.331  2.3684  0.0359  0.0877
  128MOL0     H17641   7.459   8.231   7.218 -1.9174  3.1921 -0.2464
  128MOL0     H17642   7.716   8.382   7.226  2.6317 -1.9959 -0.9583
  128MOL0     H17643   7.601   8.415   7.084  0.4683  1.3275  2.3546
  128MOL0     H17644   7.191   7.725   7.974 -0.4173  1.7617  0.8139
  128MOL0     H17645   7.042   7.690   8.167 -0.3022 -0.3293 -2.2297
  128MOL0     H17646   6.849   7.657   8.427  2.4923  0.9649  1.7078
  128MOL0     H17647   6.727   7.528   8.576 -0.0527 -0.3052 -1.8366
  128MOL0     H17648   5.486   6.170   8.349  2.2107  2.6994  3.6875
  128MOL0     H17649   5.371   5.951   8.333  1.1458 -0.4924  0.0474
  128MOL0     H17650   5.133   5.679   8.698 -0.8710 -1.2640  0.0188
  128MOL0     H17651   5.060   5.472   8.753 -1.5005 -0.2991  0.3983
  128MOL0     H17652   5.068   5.267   8.738 -0.8302  0.7049  0.0571
  128MOL0     H17653   4.908   5.276   8.774  1.6988  1.8494  0.6658
  128MOL0     H17654   4.856   5.067   8.627 -1.0506  1.0946  1.1782
  128MOL0     H17655   4.946   5.026   8.765 -1.5390  2.2763  1.1950
  128MOL0     H17656   5.105   5.096   8.519 -6.3049 -0.1599 -1.1860
  128MOL0     H17657   5.172   5.031   8.664  1.4750 -0.1374 -1.7175
  128MOL0     H17658   5.072   4.814   8.654  1.8642 -0.2129 -1.2227
  128MOL0     H17659   5.167   4.845   8.518 -0.1019 -2.7706  2.9194
  128MOL0     H17660   4.772   4.800   8.371 -2.8581  0.5439  3.1719
  128MOL0     H17661   4.869   5.440   8.365  0.1590  1.0218 -1.2070
  128MOL0     H17662   4.912   5.756   8.250 -2.2670 -0.3872  0.4427
  128MOL0     H17663   5.031   5.625   8.201  1.8735 -0.0455  1.8017
  128MOL0     H17664   4.861   5.595   8.221  0.6505  0.9323 -1.0451
  129MOL0     O17665   3.262   7.661   9.993  0.2656  0.0054 -0.0327
  129MOL0     C17666   3.193   7.754  10.035  0.4569 -0.6698 -0.1846
  129MOL0     O17667   3.153   7.769  10.162  0.9306 -0.0842 -0.6739
  129MOL0     C17668   3.200   7.685  10.259 -0.1492 -0.0018  0.7278
  129MOL0     C17669   3.145   7.560  10.279  1.3943  0.1768 -0.2495
  129MOL0     C17670   3.187   7.472  10.380 -0.0412  0.0759 -0.3802
  129MOL0     C17671   3.294   7.508  10.464 -0.8546  0.0014 -0.4331
  129MOL0     O17672   3.354   7.418  10.545 -0.2476  0.5273  0.1054
  129MOL0     C17673   3.298   7.289  10.571  0.1325  0.3372  0.8329
  129MOL0     C17674   3.333   7.175  10.475  1.0461  0.8726 -0.1075
  129MOL0     C17675   3.271   7.039  10.536  0.2246 -0.2799 -0.0351
  129MOL0     C17676   3.305   6.908  10.464  0.0193  0.1877  0.7901
  129MOL0     C17677   3.267   6.792  10.560  0.1163 -0.3722 -0.3663
  129MOL0     C17678   3.301   6.664  10.498  0.3694 -0.0698  0.8227
  129MOL0     C17679   3.243   6.556  10.584  0.2714  0.5627 -0.0196
  129MOL0     C17680   3.300   6.418  10.554  0.8468  0.7419  0.3295
  129MOL0     N17681   3.262   6.318  10.650 -0.2290 -1.0455 -0.4339
  129MOL0     C17682   3.332   6.279  10.759  0.7094 -0.6067 -0.7903
  129MOL0     C17683   3.241   6.222  10.841  0.3514 -0.0394  0.1162
  129MOL0     C17684   3.263   6.172  10.983  0.2786  0.5233 -1.0955
  129MOL0     C17685   3.226   6.025  10.997 -1.1837  1.0891 -0.0471
  129MOL0     C17686   3.240   5.996  11.152  0.2956 -0.0754  0.8880
  129MOL0     C17687   3.279   5.849  11.196  0.8662  0.3867 -0.5647
  129MOL0     O17688   3.409   5.805  11.156  0.3820  0.1511  0.3649
  129MOL0     C17689   3.522   5.845  11.224 -0.2883 -0.2091  0.3355
  129MOL0     C17690   3.636   5.820  11.153 -0.1541 -0.0413  0.6941
  129MOL0     C17691   3.765   5.862  11.191 -0.9019 -0.1163 -0.0026
  129MOL0     C17692   3.890   5.853  11.103 -0.7088  0.2260  0.7679
  129MOL0     C17693   3.777   5.927  11.314  0.3905  1.0729  0.5081
  129MOL0     C17694   3.899   5.962  11.384  0.2508  0.2095  1.0402
  129MOL0     O17695   3.957   5.850  11.436 -0.1501 -0.5443 -0.2167
  129MOL0     C17696   4.079   5.870  11.506 -0.3755 -0.5904  0.3871
  129MOL0     C17697   4.200   5.906  11.433  0.3756  0.4431 -0.6735
  129MOL0     C17698   4.322   5.924  11.505  0.5926  0.0533  0.2858
  129MOL0     C17699   4.323   5.911  11.640  0.1184  0.6444 -0.4308
  129MOL0     O17700   4.441   5.914  11.709 -0.0862  0.5719 -0.0433
  129MOL0     C17701   4.451   5.975  11.839  0.2994 -0.9969  0.0774
  129MOL0     C17702   4.471   5.873  11.949 -0.3962 -0.5759  0.9346
  129MOL0     C17703   4.516   5.945  12.076  0.4226  0.0130 -0.3274
  129MOL0     C17704   4.561   5.831  12.170 -0.7199 -0.2203 -0.2525
  129MOL0     C17705   4.620   5.882  12.302  0.2533 -0.4698  0.5911
  129MOL0     C17706   4.731   5.985  12.302  1.0237  0.0930  0.4456
  129MOL0     C17707   4.797   6.004  12.437 -0.5431 -0.0098  0.2915
  129MOL0     C17708   4.861   6.141  12.435  0.2619  0.3628 -0.0402
  129MOL0    Cl17709   4.758   6.270  12.461  0.0523 -0.7418 -0.0316
  129MOL0     C17710   4.206   5.876  11.709  0.7339  0.5226 -0.6236
  129MOL0     C17711   4.083   5.860  11.640 -0.4542  0.2114 -0.2163
  129MOL0     O17712   3.952   6.072  11.380 -0.1766  0.0382 -0.1432
  129MOL0     C17713   3.667   5.937  11.401  0.8900  0.1720 -1.0298
  129MOL0     C17714   3.534   5.904  11.352  0.5266 -0.5120  0.4499
  129MOL0     N17715   3.119   6.203  10.767 -0.5660  0.4491  0.1425
  129MOL0     N17716   3.136   6.264  10.663 -1.0770 -0.8909  0.8364
  129MOL0     C17717   3.358   7.627  10.431  0.1507 -0.5250  0.3262
  129MOL0     C17718   3.305   7.722  10.339  0.3482  0.1312  0.0768
  129MOL0     C17719   3.179   7.868   9.939 -0.7479 -1.1976 -0.4284
  129MOL0     C17720   3.195   8.005   9.989 -0.2021 -0.2996  0.0358
  129MOL0     C17721   3.197   8.116   9.901 -0.3635  0.1431  0.5910
  129MOL0     C17722   3.168   8.095   9.757  0.1877  0.2568  0.9134
  129MOL0     O17723   3.156   8.202   9.673 -0.0858 -0.5763  0.4757
  129MOL0     C17724   3.156   8.171   9.522  0.3573  0.0198 -0.6169
  129MOL0     C17725   3.132   8.301   9.439  0.2983 -0.4660 -0.6632
  129MOL0     C17726   2.995   8.361   9.455 -0.4729  0.1547  0.0248
  129MOL0     C17727   2.932   8.397   9.319  1.3924 -0.0528  0.7558
  129MOL0     C17728   2.926   8.286   9.221 -0.5608  0.6756 -0.1802
  129MOL0     C17729   2.922   8.190   9.136  1.7835  0.7765  0.8309
  129MOL0     C17730   3.141   7.962   9.718 -0.1595  1.2079  0.3291
  129MOL0     C17731   3.137   7.851   9.803 -0.5634  0.2084 -0.9052
  129MOL0     C17732   3.111   7.711   9.751  0.0785 -0.4330  0.1595
  129MOL0     H17733   3.062   7.528  10.216  2.9663 -0.8655 -1.9000
  129MOL0     H17734   3.151   7.370  10.368 -1.0264  0.3228  0.3742
  129MOL0     H17735   3.191   7.297  10.596  0.3267  0.2547  1.7203
  129MOL0     H17736   3.346   7.254  10.662 -0.1044 -2.3525  0.0021
  129MOL0     H17737   3.292   7.202  10.377 -0.3347  0.7286  0.3992
  129MOL0     H17738   3.442   7.168  10.468  0.8946 -0.6234 -1.3651
  129MOL0     H17739   3.293   7.031  10.643  1.7645 -0.8812 -0.3711
  129MOL0     H17740   3.164   7.056  10.544  0.4951  3.9393 -2.1706
  129MOL0     H17741   3.239   6.905  10.376 -2.5510  4.9434  2.1368
  129MOL0     H17742   3.411   6.900  10.441  0.2746 -1.9266  2.4492
  129MOL0     H17743   3.160   6.791  10.585  0.2272 -0.1195  0.1405
  129MOL0     H17744   3.325   6.799  10.652 -2.7066  0.2845  1.5129
  129MOL0     H17745   3.259   6.651  10.397 -1.6309  0.1985  1.5665
  129MOL0     H17746   3.410   6.664  10.487  0.4630 -0.1329  1.6834
  129MOL0     H17747   3.135   6.542  10.583  0.5803 -3.1491  1.8816
  129MOL0     H17748   3.261   6.566  10.691  1.8276  0.1701 -0.2158
  129MOL0     H17749   3.263   6.384  10.457 -0.9316 -1.6209  1.7261
  129MOL0     H17750   3.408   6.419  10.543  1.1184 -2.5068  1.4724
  129MOL0     H17751   3.436   6.303  10.779  0.1049  0.0054  2.1725
  129MOL0     H17752   3.201   6.233  11.049  1.6986  0.3687  0.4299
  129MOL0     H17753   3.368   6.183  11.011 -0.4093  1.0846  1.5531
  129MOL0     H17754   3.123   6.002  10.967 -0.2123 -0.9146 -2.2201
  129MOL0     H17755   3.307   5.979  10.939 -0.1784  1.0009  1.3880
  129MOL0     H17756   3.305   6.066  11.207  3.2086 -2.6284  0.9946
  129MOL0     H17757   3.137   6.007  11.187 -0.3645 -2.2827 -0.1357
  129MOL0     H17758   3.273   5.850  11.305 -0.1087 -2.4544 -0.5323
  129MOL0     H17759   3.210   5.767  11.176  2.4527 -1.6555  1.7313
  129MOL0     H17760   3.629   5.782  11.052 -0.4148  1.5973  0.0631
  129MOL0     H17761   3.978   5.851  11.167  0.2819  4.3731 -0.1625
  129MOL0     H17762   3.901   5.934  11.030 -0.2705 -0.8690 -0.4107
  129MOL0     H17763   3.889   5.765  11.038  1.0791  1.8765 -1.6925
  129MOL0     H17764   4.200   5.895  11.325 -3.4765 -1.1271 -0.6870
  129MOL0     H17765   4.408   5.931  11.440  1.2045 -0.7922  0.9748
  129MOL0     H17766   4.535   6.044  11.850 -0.5663 -0.4325  5.5236
  129MOL0     H17767   4.360   6.029  11.866  1.3746  1.1204 -0.3305
  129MOL0     H17768   4.378   5.819  11.964 -0.0542 -1.3698  0.2286
  129MOL0     H17769   4.549   5.810  11.906 -1.5261 -2.1916  1.1882
  129MOL0     H17770   4.440   6.002  12.131  1.5261  1.4502 -0.2296
  129MOL0     H17771   4.600   6.013  12.061  0.2045  1.0954  2.5472
  129MOL0     H17772   4.637   5.765  12.128  0.9351 -1.2576  3.9002
  129MOL0     H17773   4.475   5.764  12.181 -0.4015 -0.6376 -0.2991
  129MOL0     H17774   4.542   5.940  12.352  0.3629  1.5135 -1.3702
  129MOL0     H17775   4.652   5.794  12.357 -0.2260 -1.1388 -0.1734
  129MOL0     H17776   4.701   6.086  12.271 -2.9108 -0.8104  0.7174
  129MOL0     H17777   4.796   5.944  12.225  0.8256 -1.4194  1.0524
  129MOL0     H17778   4.876   5.931  12.454  1.2248  1.8724  0.5083
  129MOL0     H17779   4.720   6.003  12.515 -4.5669  1.7638 -3.2585
  129MOL0     H17780   4.922   6.154  12.345 -1.2186  0.5834 -1.0607
  129MOL0     H17781   4.920   6.148  12.526  0.8411 -0.1069 -0.3708
  129MOL0     H17782   4.204   5.858  11.816 -0.0931 -0.8988 -0.8441
  129MOL0     H17783   3.988   5.838  11.687  0.5939 -0.5012  1.6667
  129MOL0     H17784   3.670   5.991  11.496 -1.0602  1.4061 -1.6106
  129MOL0     H17785   3.449   5.934  11.412  0.8467 -0.9511  1.1334
  129MOL0     H17786   3.442   7.664  10.490 -1.8416  4.2386  0.6480
  129MOL0     H17787   3.351   7.820  10.337  0.7722 -0.0131  1.4800
  129MOL0     H17788   3.205   8.023  10.095  0.7323 -0.0286 -0.0924
  129MOL0     H17789   3.195   8.216   9.942 -3.7387  0.1348  0.7569
  129MOL0     H17790   3.252   8.124   9.499  1.0887  0.4349  1.4306
  129MOL0     H17791   3.069   8.107   9.502 -0.0103 -0.1446  1.3461
  129MOL0     H17792   3.146   8.274   9.334 -1.7810 -1.4828 -0.7236
  129MOL0     H17793   3.205   8.374   9.476 -0.1305  0.6843 -1.9831
  129MOL0     H17794   2.942   8.279   9.504  2.7267 -1.6746  0.7376
  129MOL0     H17795   2.999   8.450   9.518  0.6527  0.1706 -0.0452
  129MOL0     H17796   2.983   8.478   9.266 -0.8302  0.2217 -1.0830
  129MOL0     H17797   2.829   8.432   9.322  0.9024 -0.5836 -3.5192
  129MOL0     H17798   2.922   8.102   9.074  2.7455  0.9044  0.6191
  129MOL0     H17799   3.111   7.932   9.618  0.0505  1.7576  0.0999
  129MOL0     H17800   3.071   7.704   9.650  1.9723  0.3483 -0.6915
  129MOL0     H17801   3.208   7.659   9.755 -0.6436 -1.8840 -0.4833
  129MOL0     H17802   3.046   7.669   9.828  0.1907  3.2875  2.5216
  130MOL0     O17803   9.693  11.517   6.247  0.1138  0.5106  0.2510
  130MOL0     C17804   9.675  11.486   6.365 -0.8047  0.4183 -0.0631
  130MOL0     O17805   9.553  11.460   6.420  0.0230 -0.1711  0.5830
  130MOL0     C17806   9.441  11.505   6.365  0.8176 -0.3284  0.2509
  130MOL0     C17807   9.384  11.611   6.418  0.1513 -0.1780  0.3019
  130MOL0     C17808   9.269  11.664   6.373  0.7051  0.1584  0.5015
  130MOL0     C17809   9.208  11.619   6.257  0.5398  0.8333 -0.2262
  130MOL0     O17810   9.098  11.696   6.231 -0.3554 -0.4274 -0.0245
  130MOL0     C17811   8.996  11.655   6.140 -0.1020  0.1841 -0.3956
  130MOL0     C17812   9.039  11.675   5.990 -1.5865 -0.1671  0.0985
  130MOL0     C17813   9.006  11.563   5.892  0.2798  0.4534  1.3363
  130MOL0     C17814   9.087  11.570   5.759  0.2508 -0.0522  0.1299
  130MOL0     C17815   9.026  11.472   5.655 -0.4901 -0.7792 -0.0771
  130MOL0     C17816   9.082  11.466   5.522 -0.1750 -0.3401 -0.8411
  130MOL0     C17817   9.216  11.390   5.532 -0.1160 -0.9255 -0.1344
  130MOL0     C17818   9.232  11.296   5.409 -0.0700 -0.8413 -0.3496
  130MOL0     N17819   9.192  11.166   5.446  0.9925  0.4855  0.4525
  130MOL0     C17820   9.081  11.099   5.401 -0.3527  0.3273 -0.0818
  130MOL0     C17821   9.099  10.969   5.441 -0.5892 -0.4912  0.2054
  130MOL0     C17822   8.997  10.857   5.424  1.0317 -0.1307 -0.6141
  130MOL0     C17823   9.066  10.715   5.402  0.6510  0.4581  0.1587
  130MOL0     C17824   9.135  10.717   5.264 -0.0120 -0.3860  0.0049
  130MOL0     C17825   9.220  10.595   5.229 -0.0020 -0.2440  0.0835
  130MOL0     O17826   9.351  10.632   5.279 -0.2501  0.4261 -0.7904
  130MOL0     C17827   9.459  10.548   5.254  0.4837  0.0944 -0.2675
  130MOL0     C17828   9.447  10.409   5.238  0.8500 -0.1713 -0.7330
  130MOL0     C17829   9.554  10.323   5.240 -0.0811  0.7846 -0.3722
  130MOL0     C17830   9.531  10.172   5.224  0.3529  1.1039 -0.0598
  130MOL0     C17831   9.687  10.379   5.237  0.5904  0.2606 -0.9455
  130MOL0     C17832   9.810  10.299   5.216 -0.6494  0.0377 -0.3612
  130MOL0     O17833   9.937  10.363   5.240 -0.2993  0.5966  0.8335
  130MOL0     C17834  10.051  10.288   5.223 -0.2547 -0.9173  0.2239
  130MOL0     C17835  10.116  10.255   5.336  0.1818  0.1305 -0.4541
  130MOL0     C17836  10.231  10.177   5.332  0.1463  0.2152  0.4833
  130MOL0     C17837  10.287  10.142   5.206  0.7052 -0.4322  0.3388
  130MOL0     O17838  10.402  10.070   5.204  0.5879 -0.2040 -0.4413
  130MOL0     C17839  10.465  10.039   5.074  0.8008  0.5503  0.3737
  130MOL0     C17840  10.616  10.010   5.084 -0.7406 -0.1166 -0.5175
  130MOL0     C17841  10.685   9.972   4.952 -0.2292 -0.3992  0.1391
  130MOL0     C17842  10.840   9.948   4.977  0.6271  0.1785  0.0173
  130MOL0     C17843  10.930   9.928   4.852  0.5916 -0.1043 -0.1928
  130MOL0     C17844  10.917  10.031   4.744  0.1511 -0.3467  0.0548
  130MOL0     C17845  10.920  10.179   4.792  0.2176 -0.3045 -1.0634
  130MOL0     C17846  10.888  10.262   4.661 -0.2712  0.2321  0.0020
  130MOL0    Cl17847  10.721  10.235   4.615  0.1126  0.5869 -0.0694
  130MOL0     C17848  10.219  10.183   5.086  0.0079  0.0244  0.4095
  130MOL0     C17849  10.104  10.255   5.097  0.9881 -0.1803  0.0698
  130MOL0     O17850   9.812  10.180   5.193 -0.5393 -0.3373  0.0613
  130MOL0     C17851   9.696  10.522   5.258  0.2582  1.3761  0.0218
  130MOL0     C17852   9.588  10.607   5.259 -0.6608  0.0551  0.7254
  130MOL0     N17853   9.212  10.971   5.521  0.5028 -0.3082  0.5815
  130MOL0     N17854   9.265  11.083   5.513  1.0670 -0.1092 -0.6560
  130MOL0     C17855   9.262  11.499   6.202 -0.6996 -0.0217 -1.2977
  130MOL0     C17856   9.379  11.445   6.249  0.0594  0.4580 -0.4308
  130MOL0     C17857   9.790  11.443   6.446  0.8506 -0.3854 -0.1440
  130MOL0     C17858   9.910  11.401   6.386  0.6008  0.4002  0.5592
  130MOL0     C17859  10.015  11.343   6.459  0.2576  0.0560  0.7998
  130MOL0     C17860  10.026  11.346   6.598  1.2939  0.6250  0.4159
  130MOL0     O17861  10.133  11.303   6.671 -0.1506  0.9975 -0.3093
  130MOL0     C17862  10.235  11.236   6.605  0.8675  0.1717 -0.1455
  130MOL0     C17863  10.314  11.191   6.729 -0.3545  0.0039  0.0914
  130MOL0     C17864  10.248  11.093   6.824  0.1549 -0.5342 -0.4139
  130MOL0     C17865  10.295  10.956   6.819  0.0038 -0.6165  0.0902
  130MOL0     C17866  10.264  10.891   6.944 -0.5485  0.4797 -0.3531
  130MOL0     C17867  10.255  10.848   7.055  0.0578 -0.0479  0.1743
  130MOL0     C17868   9.909  11.391   6.658  0.0195  0.3653 -0.1066
  130MOL0     C17869   9.797  11.441   6.590  0.0010  0.0047 -0.1716
  130MOL0     C17870   9.680  11.492   6.673  0.3179  0.2217  0.1438
  130MOL0     H17871   9.437  11.648   6.505  2.2548  0.0931 -1.0534
  130MOL0     H17872   9.217  11.737   6.434 -1.4175 -1.9846  1.4331
  130MOL0     H17873   8.900  11.703   6.160  0.0282 -0.4234  2.0728
  130MOL0     H17874   8.979  11.547   6.152  2.8636 -0.0785  3.3352
  130MOL0     H17875   8.981  11.762   5.956 -0.9932  0.1729 -0.0542
  130MOL0     H17876   9.145  11.701   5.995 -2.3289  3.3061  0.9194
  130MOL0     H17877   9.030  11.470   5.946 -0.2200 -1.4602 -1.4929
  130MOL0     H17878   8.899  11.570   5.873  0.3559  2.6714  1.4830
  130MOL0     H17879   9.075  11.672   5.722  0.5096 -0.1986 -0.3532
  130MOL0     H17880   9.194  11.560   5.775  1.1545 -0.3736 -4.6298
  130MOL0     H17881   8.920  11.495   5.644 -0.7568 -0.7362  2.1578
  130MOL0     H17882   9.025  11.371   5.696  1.6558 -0.0679  2.0049
  130MOL0     H17883   9.009  11.416   5.456 -3.0965 -0.5318  2.2727
  130MOL0     H17884   9.090  11.568   5.484  1.2605  0.5055  1.5641
  130MOL0     H17885   9.213  11.329   5.623 -2.2212  1.5137  1.5876
  130MOL0     H17886   9.298  11.462   5.539 -0.3515 -0.8053  2.1970
  130MOL0     H17887   9.191  11.345   5.320  2.8340  3.0421  0.2345
  130MOL0     H17888   9.339  11.290   5.390  0.2785 -2.1639  1.7053
  130MOL0     H17889   9.004  11.148   5.343 -0.0992  1.4988  0.5534
  130MOL0     H17890   8.924  10.877   5.345 -2.8899  0.1672  2.7855
  130MOL0     H17891   8.928  10.853   5.508 -0.6068 -1.5912 -1.9564
  130MOL0     H17892   9.139  10.705   5.482  0.6073  0.0226  0.1441
  130MOL0     H17893   8.994  10.633   5.407 -1.0441  1.9832  2.3148
  130MOL0     H17894   9.055  10.721   5.189  1.4032 -0.9671 -1.6038
  130MOL0     H17895   9.187  10.813   5.253  0.7379 -0.4826  2.3006
  130MOL0     H17896   9.183  10.501   5.271  0.5320 -0.2201  0.6244
  130MOL0     H17897   9.211  10.607   5.121 -1.3125  1.8160  0.3743
  130MOL0     H17898   9.347  10.365   5.230 -0.2502  2.4538 -2.5998
  130MOL0     H17899   9.434  10.151   5.271  0.5183  0.1090 -0.1566
  130MOL0     H17900   9.600  10.115   5.286 -1.8513 -2.6137 -0.7609
  130MOL0     H17901   9.546  10.133   5.124  1.1844  0.4026  0.3332
  130MOL0     H17902  10.091  10.295   5.434 -1.1540  1.2715 -1.2222
  130MOL0     H17903  10.290  10.145   5.417  1.9396 -1.5998 -1.3104
  130MOL0     H17904  10.423   9.949   5.027 -1.9701  2.3822 -0.9888
  130MOL0     H17905  10.460  10.125   5.007 -0.5294  4.0683  4.5815
  130MOL0     H17906  10.661  10.093   5.139 -2.9327  1.9191 -1.5962
  130MOL0     H17907  10.633   9.929   5.155  0.6652 -1.3532 -2.1832
  130MOL0     H17908  10.672  10.056   4.884  0.8163 -3.5192 -4.3793
  130MOL0     H17909  10.647   9.885   4.898 -0.3637 -1.1962  1.4702
  130MOL0     H17910  10.850   9.860   5.041 -3.2098  0.7021  1.6049
  130MOL0     H17911  10.877  10.034   5.034  1.0291 -0.5422  0.8626
  130MOL0     H17912  11.033   9.935   4.889  1.4767  0.7915 -2.6042
  130MOL0     H17913  10.905   9.830   4.812  3.3839 -1.0488  0.1136
  130MOL0     H17914  10.826  10.013   4.686 -0.8492  1.2283  1.0702
  130MOL0     H17915  11.009  10.013   4.687 -1.6600  1.0710 -3.6355
  130MOL0     H17916  11.020  10.199   4.831  0.6886  0.1566 -2.4604
  130MOL0     H17917  10.855  10.201   4.878  1.9018 -0.3968  0.2729
  130MOL0     H17918  10.964  10.241   4.585 -2.0777 -2.5844 -1.1883
  130MOL0     H17919  10.896  10.367   4.691 -0.3901 -0.8994  4.7244
  130MOL0     H17920  10.261  10.163   4.988 -0.1830  4.1387 -0.6980
  130MOL0     H17921  10.070  10.304   5.006 -3.3980  2.3022  2.6986
  130MOL0     H17922   9.795  10.564   5.272  1.6399 -1.3950 -0.8459
  130MOL0     H17923   9.605  10.712   5.277 -0.1188 -0.0609  0.8994
  130MOL0     H17924   9.205  11.462   6.118 -0.9569 -3.0018  0.0669
  130MOL0     H17925   9.429  11.356   6.213  2.0523  0.2639  2.4445
  130MOL0     H17926   9.920  11.415   6.279  0.0692  1.8028  0.6706
  130MOL0     H17927  10.095  11.296   6.401 -1.3810 -1.6197 -0.2221
  130MOL0     H17928  10.186  11.160   6.543  0.1272  0.9627 -0.5545
  130MOL0     H17929  10.300  11.294   6.537  0.8159 -1.6852 -1.8647
  130MOL0     H17930  10.349  11.277   6.787  3.9920  0.1833 -2.3641
  130MOL0     H17931  10.408  11.148   6.692 -0.2647  1.0658 -0.9548
  130MOL0     H17932  10.270  11.125   6.927 -0.1417 -0.0030 -0.5146
  130MOL0     H17933  10.140  11.098   6.807  0.2732 -0.3516 -1.1347
  130MOL0     H17934  10.403  10.955   6.804 -0.0613  1.6266 -0.9295
  130MOL0     H17935  10.254  10.898   6.736 -0.4190  0.0929 -0.2029
  130MOL0     H17936  10.250  10.809   7.155  1.3086 -1.4081 -0.2505
  130MOL0     H17937   9.906  11.384   6.767  0.9772 -4.1937 -0.2035
  130MOL0     H17938   9.584  11.448   6.647 -0.2343 -1.1564  3.8673
  130MOL0     H17939   9.703  11.467   6.777 -4.1628  0.9017  1.4915
  130MOL0     H17940   9.673  11.600   6.659 -1.5824  0.0313 -0.5651
  131MOL0     O17941   8.484   5.470   4.975  0.8352 -0.0698 -0.1226
  131MOL0     C17942   8.451   5.405   4.873 -0.7558 -0.3029 -0.0612
  131MOL0     O17943   8.344   5.437   4.796  0.6258  0.4365 -0.4785
  131MOL0     C17944   8.263   5.551   4.822 -0.2268  0.9453  0.8526
  131MOL0     C17945   8.117   5.542   4.814  0.4460  0.0188  0.4028
  131MOL0     C17946   8.045   5.658   4.847 -0.1411  0.2163 -0.1086
  131MOL0     C17947   8.103   5.783   4.863 -0.4118 -0.4672 -0.8679
  131MOL0     O17948   8.031   5.895   4.891 -0.0285  0.4108 -0.8013
  131MOL0     C17949   7.940   5.926   4.786  0.1422 -0.2103 -0.0404
  131MOL0     C17950   8.010   5.994   4.660 -0.2479  0.3913 -0.0546
  131MOL0     C17951   8.086   6.125   4.693 -0.2670 -0.5752  0.6200
  131MOL0     C17952   7.994   6.247   4.721 -0.1170 -0.6074 -0.0453
  131MOL0     C17953   8.081   6.375   4.740 -1.0987 -0.3254  0.6504
  131MOL0     C17954   8.170   6.411   4.612 -0.0075  0.0187 -1.1847
  131MOL0     C17955   8.081   6.439   4.490  0.0469  0.6319  0.2091
  131MOL0     C17956   8.031   6.581   4.486 -0.5462  0.7570  0.0653
  131MOL0     N17957   8.128   6.685   4.472 -0.5016  0.3513 -0.0823
  131MOL0     C17958   8.151   6.759   4.361  0.7502 -0.4402  0.3510
  131MOL0     C17959   8.218   6.873   4.398  1.1635  1.0611  0.0956
  131MOL0     C17960   8.252   6.998   4.324  0.4509  0.0395 -0.1795
  131MOL0     C17961   8.129   7.038   4.241  0.1036  0.0340  0.4460
  131MOL0     C17962   8.034   7.118   4.328  0.4740 -0.8897 -0.5562
  131MOL0     C17963   8.096   7.247   4.390 -0.5000 -0.0328 -0.6705
  131MOL0     O17964   8.178   7.311   4.290  0.7984 -0.0119  0.1328
  131MOL0     C17965   8.170   7.449   4.286 -0.1150 -0.2498  0.1694
  131MOL0     C17966   8.199   7.533   4.391  0.3833  0.3312 -0.2884
  131MOL0     C17967   8.194   7.673   4.374 -0.0021 -0.3088 -0.3550
  131MOL0     C17968   8.231   7.772   4.485 -0.6239 -0.2404 -0.5664
  131MOL0     C17969   8.126   7.727   4.264  0.2593 -0.3072  0.1978
  131MOL0     C17970   8.071   7.864   4.240 -0.5216  0.3991  0.0362
  131MOL0     O17971   8.100   7.931   4.116  0.6839  0.0995 -0.0221
  131MOL0     C17972   8.052   8.055   4.094  0.5276 -0.3476  0.1588
  131MOL0     C17973   8.060   8.161   4.174 -1.8552 -1.1685  0.7512
  131MOL0     C17974   7.989   8.271   4.163  0.7389 -0.4893  0.3564
  131MOL0     C17975   7.905   8.284   4.049 -0.3014 -0.1374 -0.0556
  131MOL0     O17976   7.831   8.400   4.036  0.1950  0.2254 -0.3443
  131MOL0     C17977   7.903   8.491   3.953 -0.4646  1.5053 -0.3019
  131MOL0     C17978   7.905   8.615   4.033  0.4404 -0.1500 -0.3050
  131MOL0     C17979   7.847   8.748   3.971 -0.0857  1.3694  0.0817
  131MOL0     C17980   7.954   8.834   3.898  0.4728 -0.6817 -0.3070
  131MOL0     C17981   8.065   8.907   3.979  0.4151  0.4670 -0.3321
  131MOL0     C17982   8.153   8.997   3.875  0.2805  1.1271 -0.6428
  131MOL0     C17983   8.274   9.063   3.952  0.1135 -0.0909  0.7656
  131MOL0     C17984   8.287   9.207   3.898 -0.3216 -0.3250 -0.4597
  131MOL0    Cl17985   8.155   9.302   3.976  0.4461  0.1433  0.1766
  131MOL0     C17986   7.901   8.183   3.956 -0.0331 -0.2165 -0.6695
  131MOL0     C17987   7.975   8.069   3.975 -0.0263 -0.0328 -0.0005
  131MOL0     O17988   7.997   7.911   4.319 -1.0112 -0.3186  0.3759
  131MOL0     C17989   8.096   7.640   4.161  0.1293  0.2877 -0.2467
  131MOL0     C17990   8.115   7.498   4.170 -0.3151  0.2145 -0.5495
  131MOL0     N17991   8.248   6.855   4.531  0.6647  0.1535 -0.0715
  131MOL0     N17992   8.187   6.744   4.577  0.5421 -0.6057  0.4854
  131MOL0     C17993   8.242   5.791   4.858  0.8164  0.0398 -0.6952
  131MOL0     C17994   8.318   5.680   4.844  0.8132 -0.9457 -0.3735
  131MOL0     C17995   8.538   5.296   4.836 -0.1798 -0.2917  0.3768
  131MOL0     C17996   8.641   5.262   4.924 -1.0759 -1.4554  0.1744
  131MOL0     C17997   8.722   5.151   4.902  0.0502 -0.7381  0.6826
  131MOL0     C17998   8.701   5.071   4.789  0.3584  0.1325  0.2195
  131MOL0     O17999   8.781   4.965   4.750 -0.0307  0.4863  0.0410
  131MOL0     C18000   8.917   4.968   4.783  0.9076  0.2104  0.1240
  131MOL0     C18001   8.988   4.858   4.709  0.8699 -0.0560  0.8850
  131MOL0     C18002   8.995   4.895   4.555  0.0591 -0.1283 -0.2814
  131MOL0     C18003   9.057   4.793   4.462  0.8981  0.5375  0.1458
  131MOL0     C18004   8.981   4.669   4.482  0.1238 -0.0249  0.2667
  131MOL0     C18005   8.915   4.565   4.494  0.5270 -0.6948 -0.3568
  131MOL0     C18006   8.603   5.115   4.697 -0.1407  0.0604 -0.0089
  131MOL0     C18007   8.527   5.222   4.714 -0.0376 -0.6993 -0.4387
  131MOL0     C18008   8.441   5.265   4.598  0.7422 -0.2696  0.6158
  131MOL0     H18009   8.060   5.453   4.786  0.3840 -0.0382  0.7022
  131MOL0     H18010   7.936   5.660   4.850 -0.1799 -0.3536 -0.7636
  131MOL0     H18011   7.865   5.993   4.827  0.1340 -0.1340 -0.1815
  131MOL0     H18012   7.891   5.833   4.755  2.3338 -1.1341 -0.9398
  131MOL0     H18013   8.083   5.920   4.626 -2.1344 -1.9284  0.6747
  131MOL0     H18014   7.944   6.011   4.574 -0.5015 -1.0964 -0.1692
  131MOL0     H18015   8.141   6.119   4.787 -2.8936 -0.0456  2.3038
  131MOL0     H18016   8.150   6.148   4.607 -0.6482 -4.3132 -0.8456
  131MOL0     H18017   7.924   6.257   4.638 -1.9427 -3.2838  1.0283
  131MOL0     H18018   7.934   6.241   4.812  0.9588  4.2693  1.2441
  131MOL0     H18019   8.147   6.363   4.826 -0.8852  1.1367  0.7080
  131MOL0     H18020   8.019   6.461   4.767 -2.4940 -1.2463  0.4808
  131MOL0     H18021   8.236   6.496   4.633 -0.2052 -0.2315  0.6134
  131MOL0     H18022   8.246   6.335   4.592  0.8990  1.1062 -2.0451
  131MOL0     H18023   8.003   6.363   4.477  2.5571 -1.8506 -1.4541
  131MOL0     H18024   8.148   6.433   4.404  3.3985 -0.0528  2.6258
  131MOL0     H18025   7.952   6.569   4.411  2.2418 -2.2936 -2.6968
  131MOL0     H18026   7.989   6.588   4.587 -3.2077 -1.7136 -0.7106
  131MOL0     H18027   8.116   6.743   4.260  0.1262  0.5065  0.4086
  131MOL0     H18028   8.337   6.993   4.255  0.4846  1.7861 -0.2897
  131MOL0     H18029   8.285   7.072   4.398 -3.0399  0.5892  0.9973
  131MOL0     H18030   8.149   7.102   4.153  2.1859  0.0586  0.8836
  131MOL0     H18031   8.078   6.951   4.198  0.2999  0.1439 -0.0247
  131MOL0     H18032   7.946   7.148   4.270  0.1524 -0.5795  0.0862
  131MOL0     H18033   7.997   7.047   4.402  1.2861  0.9280  1.7086
  131MOL0     H18034   8.018   7.314   4.426 -0.7318 -0.5852 -0.1323
  131MOL0     H18035   8.152   7.231   4.483  0.4046 -4.7606 -1.7990
  131MOL0     H18036   8.243   7.492   4.481  0.0444  0.9301  0.1573
  131MOL0     H18037   8.337   7.759   4.506 -0.0603 -0.0949 -3.0237
  131MOL0     H18038   8.167   7.745   4.570 -1.6228  0.5995 -1.0330
  131MOL0     H18039   8.206   7.873   4.453 -0.4145 -0.2421 -0.7360
  131MOL0     H18040   8.113   8.152   4.269  4.1423 -0.1913 -2.0245
  131MOL0     H18041   7.997   8.354   4.233  3.7028 -2.3802  2.4668
  131MOL0     H18042   8.007   8.459   3.943 -0.1216  3.2203 -3.5155
  131MOL0     H18043   7.864   8.510   3.853  0.3092 -3.3530 -1.8186
  131MOL0     H18044   7.850   8.609   4.127  0.1429  0.4542 -0.4301
  131MOL0     H18045   8.011   8.639   4.041  1.0256 -1.9248 -2.0346
  131MOL0     H18046   7.803   8.809   4.051 -1.7472  0.2711  0.0577
  131MOL0     H18047   7.767   8.721   3.902 -0.3804 -1.5522  1.4131
  131MOL0     H18048   7.893   8.916   3.860 -0.6929  0.7772  4.1684
  131MOL0     H18049   8.009   8.775   3.823 -2.0510  0.0914 -2.9564
  131MOL0     H18050   8.025   8.967   4.062 -1.3257  0.4332 -1.0881
  131MOL0     H18051   8.122   8.827   4.025 -1.7636 -0.6263  0.6134
  131MOL0     H18052   8.087   9.072   3.832  2.9095  2.0498 -3.4330
  131MOL0     H18053   8.193   8.931   3.797  3.1748  3.0481 -0.9583
  131MOL0     H18054   8.358   8.999   3.923 -1.0595 -1.4046  0.1664
  131MOL0     H18055   8.251   9.056   4.059 -0.5450 -4.1697  0.5145
  131MOL0     H18056   8.268   9.209   3.790  1.2146  0.0109 -0.7469
  131MOL0     H18057   8.380   9.261   3.917 -0.0467 -1.1517  0.6698
  131MOL0     H18058   7.832   8.185   3.872 -0.1014 -2.5327 -0.7537
  131MOL0     H18059   7.977   7.996   3.895 -0.3059  0.2926 -0.3073
  131MOL0     H18060   8.046   7.669   4.070  1.2416  2.5292 -0.2035
  131MOL0     H18061   8.087   7.429   4.092 -1.4055  1.7098 -1.5344
  131MOL0     H18062   8.272   5.893   4.878 -0.4065  0.2821  0.0025
  131MOL0     H18063   8.423   5.706   4.842  0.0423  2.8622  0.2987
  131MOL0     H18064   8.653   5.322   5.014 -2.0964  0.4943 -0.9227
  131MOL0     H18065   8.793   5.113   4.975  0.6907  0.3464  0.6487
  131MOL0     H18066   8.967   5.066   4.781  0.0388  0.9159  4.2118
  131MOL0     H18067   8.924   4.944   4.889  1.3233 -3.7365 -0.6719
  131MOL0     H18068   8.927   4.772   4.737 -1.3894  1.3069  0.3705
  131MOL0     H18069   9.092   4.856   4.744  0.4294 -1.4289  2.1780
  131MOL0     H18070   8.896   4.917   4.513  0.0451 -1.4015 -0.9542
  131MOL0     H18071   9.042   4.994   4.550  2.0091 -0.8725  1.8399
  131MOL0     H18072   9.160   4.767   4.485  0.5699 -0.2495  0.7430
  131MOL0     H18073   9.049   4.833   4.360  0.5138 -0.6328 -0.2959
  131MOL0     H18074   8.852   4.480   4.508 -1.4385  1.0170  2.2837
  131MOL0     H18075   8.601   5.074   4.596  1.8644  1.3894 -0.6485
  131MOL0     H18076   8.494   5.339   4.537  0.6005 -1.7391 -1.4000
  131MOL0     H18077   8.437   5.178   4.532 -0.1681  0.3569 -0.1770
  131MOL0     H18078   8.338   5.295   4.616  0.1420 -2.2366  0.7094
  132MOL0     O18079   5.871  11.044   0.526 -0.0435 -0.1210  0.1302
  132MOL0     C18080   5.863  11.028   0.406  0.7115 -0.3605 -0.4144
  132MOL0     O18081   5.955  10.977   0.328  0.0993 -0.1636 -0.2097
  132MOL0     C18082   6.082  10.966   0.367 -0.9552  1.3885  1.0023
  132MOL0     C18083   6.173  11.069   0.356 -0.0935 -1.0750  0.7400
  132MOL0     C18084   6.304  11.058   0.393  0.1937 -0.5968 -0.2741
  132MOL0     C18085   6.348  10.934   0.453  0.7811  0.4761  0.5236
  132MOL0     O18086   6.482  10.911   0.479  0.2069  0.2018  0.2490
  132MOL0     C18087   6.504  10.907   0.626  0.0356 -0.8027  0.0038
  132MOL0     C18088   6.563  10.770   0.665  0.4124 -0.1021  0.6913
  132MOL0     C18089   6.701  10.765   0.610  0.2409  0.1654  0.3757
  132MOL0     C18090   6.805  10.728   0.724  0.0962 -0.3752 -0.3949
  132MOL0     C18091   6.941  10.689   0.665  0.1235  0.4055  0.2467
  132MOL0     C18092   7.056  10.654   0.768  0.2421  0.1675 -0.0079
  132MOL0     C18093   7.048  10.532   0.849 -0.2915  0.3926 -0.6822
  132MOL0     C18094   6.958  10.547   0.979  0.0279  1.0455 -0.8555
  132MOL0     N18095   7.028  10.459   1.080  0.6874  0.1198 -0.1107
  132MOL0     C18096   7.035  10.330   1.053  0.0790  0.5768 -0.4995
  132MOL0     C18097   7.109  10.282   1.153  0.2547  0.5156 -0.4147
  132MOL0     C18098   7.119  10.135   1.193  0.6634 -0.2021 -0.4722
  132MOL0     C18099   7.252  10.108   1.265  0.3623  0.3270 -0.4861
  132MOL0     C18100   7.281   9.958   1.304 -0.1127  0.6299  0.5214
  132MOL0     C18101   7.421   9.947   1.374 -0.4887  0.8911 -0.5393
  132MOL0     O18102   7.521  10.015   1.302 -0.0527 -0.8369  0.4433
  132MOL0     C18103   7.651  10.007   1.367  0.3590 -0.7751 -0.4044
  132MOL0     C18104   7.673   9.955   1.497 -0.0756  1.0457  0.8462
  132MOL0     C18105   7.797   9.973   1.563  0.0530 -0.6939 -0.3327
  132MOL0     C18106   7.800   9.903   1.696 -0.8212  0.3004  0.7675
  132MOL0     C18107   7.901  10.047   1.492  0.7347 -0.2842  0.2058
  132MOL0     C18108   8.036  10.047   1.550  1.1652  0.2948  0.0230
  132MOL0     O18109   8.135   9.987   1.477  0.3937 -0.9199 -0.3161
  132MOL0     C18110   8.262   9.993   1.532 -0.4053  0.4209 -0.2278
  132MOL0     C18111   8.287   9.934   1.652  0.9438  0.4652  1.0349
  132MOL0     C18112   8.415   9.928   1.704  0.0210  0.9900 -0.1893
  132MOL0     C18113   8.521   9.987   1.636  0.7285 -0.3627  0.5466
  132MOL0     O18114   8.652   9.982   1.669 -0.3299 -0.3254 -0.2998
  132MOL0     C18115   8.717   9.869   1.724 -0.1070 -0.2977  1.0102
  132MOL0     C18116   8.859   9.900   1.767  0.1923 -0.3852 -0.0461
  132MOL0     C18117   8.859   9.954   1.912  1.2090  0.6080 -0.0870
  132MOL0     C18118   8.989   9.917   1.981  0.0045  0.2229  0.1527
  132MOL0     C18119   8.992   9.994   2.122 -0.2237  0.4651 -0.3988
  132MOL0     C18120   9.123   9.988   2.202 -0.2792 -0.2297  0.0418
  132MOL0     C18121   9.174   9.853   2.260  0.2429 -0.1132 -1.0362
  132MOL0     C18122   9.073   9.768   2.339 -1.2194 -0.1176 -0.0795
  132MOL0    Cl18123   9.164   9.622   2.360  0.0519 -0.6049  0.9048
  132MOL0     C18124   8.492  10.045   1.511  0.0260 -0.2840  0.1521
  132MOL0     C18125   8.360  10.043   1.456 -0.2374  0.1045 -0.0334
  132MOL0     O18126   8.055  10.117   1.649  0.6545 -0.0170 -0.2758
  132MOL0     C18127   7.879  10.078   1.365  0.6552 -0.8351  1.8105
  132MOL0     C18128   7.752  10.063   1.307 -0.1323 -0.5208  0.3298
  132MOL0     N18129   7.140  10.390   1.236  0.7966 -0.2459  1.5315
  132MOL0     N18130   7.091  10.501   1.195  0.0881 -0.3071  0.4909
  132MOL0     C18131   6.257  10.825   0.450  0.9988  0.0023  0.0702
  132MOL0     C18132   6.127  10.849   0.406 -0.0451 -0.0272  0.6926
  132MOL0     C18133   5.737  11.045   0.348 -0.2402 -0.1940  0.4708
  132MOL0     C18134   5.624  10.982   0.407 -0.0112 -1.1039 -0.6702
  132MOL0     C18135   5.495  11.008   0.348  0.0770  0.0681  0.5385
  132MOL0     C18136   5.476  11.094   0.236 -0.0024 -0.1061  0.5297
  132MOL0     O18137   5.353  11.123   0.198  0.2606 -0.2449  0.1524
  132MOL0     C18138   5.344  11.222   0.091  0.5350 -0.1242 -0.3445
  132MOL0     C18139   5.196  11.221   0.065 -0.1630  0.1630 -0.9774
  132MOL0     C18140   5.159  11.237  -0.083 -0.0897  0.1311  0.4649
  132MOL0     C18141   5.014  11.270  -0.105  0.5868  0.1690  0.1645
  132MOL0     C18142   4.929  11.151  -0.086 -0.2719 -0.0874  0.2685
  132MOL0     C18143   4.854  11.056  -0.065  0.6831  0.2834 -0.3431
  132MOL0     C18144   5.587  11.156   0.185  0.6374  1.0360  0.8064
  132MOL0     C18145   5.715  11.136   0.234 -0.2995 -0.4832  0.4643
  132MOL0     C18146   5.823  11.231   0.183 -0.1573  0.3247 -0.2645
  132MOL0     H18147   6.140  11.167   0.325  0.2770 -0.6318  1.6961
  132MOL0     H18148   6.367  11.143   0.368  0.3652 -1.0652 -1.5047
  132MOL0     H18149   6.419  10.921   0.693  1.5496  1.1205  1.7049
  132MOL0     H18150   6.576  10.987   0.650  0.6773 -1.0207 -1.1099
  132MOL0     H18151   6.566  10.764   0.774  3.6274  1.1382  0.7858
  132MOL0     H18152   6.510  10.679   0.636  0.3373 -0.6611  2.4906
  132MOL0     H18153   6.701  10.693   0.528 -3.4575 -0.9183  1.1492
  132MOL0     H18154   6.724  10.863   0.566  0.6934 -0.8731 -1.8426
  132MOL0     H18155   6.816  10.818   0.786 -2.8361 -0.3602  0.2269
  132MOL0     H18156   6.765  10.651   0.789  3.0976  1.8646  4.6816
  132MOL0     H18157   6.964  10.771   0.596 -0.3574  0.1048 -0.2755
  132MOL0     H18158   6.924  10.599   0.606  3.6765  0.0812 -0.4888
  132MOL0     H18159   7.147  10.651   0.708  2.4742 -0.7530  3.2053
  132MOL0     H18160   7.085  10.734   0.836  1.0624 -1.5941  1.8237
  132MOL0     H18161   7.149  10.505   0.878 -0.6725 -2.3248 -1.6057
  132MOL0     H18162   7.012  10.449   0.788 -1.7284  1.6246 -1.5925
  132MOL0     H18163   6.943  10.652   1.009 -2.4430  0.1686  1.4080
  132MOL0     H18164   6.857  10.510   0.963 -0.5132  1.9492  0.3084
  132MOL0     H18165   6.986  10.285   0.967 -2.3883  1.0180  0.5895
  132MOL0     H18166   7.118  10.078   1.099 -1.0140  0.5569 -0.9465
  132MOL0     H18167   7.028  10.115   1.250  1.7396  0.8439  1.7333
  132MOL0     H18168   7.337  10.151   1.212 -0.1455  1.3702 -0.4746
  132MOL0     H18169   7.228  10.168   1.354 -3.6849  0.6208 -1.5814
  132MOL0     H18170   7.210   9.901   1.365 -2.3080 -1.2016 -3.3528
  132MOL0     H18171   7.284   9.905   1.209  0.2670 -0.2515  1.0162
  132MOL0     H18172   7.412  10.002   1.468 -0.8771 -1.1108  0.6459
  132MOL0     H18173   7.455   9.844   1.383  1.5459  1.3802 -1.8505
  132MOL0     H18174   7.595   9.905   1.554 -0.2846 -0.3945 -0.6136
  132MOL0     H18175   7.861   9.964   1.763 -2.0530 -0.5350  2.7218
  132MOL0     H18176   7.830   9.798   1.691 -0.7271  0.3391  0.4961
  132MOL0     H18177   7.702   9.890   1.743 -1.0708 -0.7833 -0.0167
  132MOL0     H18178   8.211   9.873   1.701 -0.5298  1.9804  0.7447
  132MOL0     H18179   8.434   9.901   1.807  3.4873 -0.4220 -1.0671
  132MOL0     H18180   8.668   9.834   1.815  2.1159 -1.1814  1.9388
  132MOL0     H18181   8.725   9.786   1.653  0.2956  1.5742 -1.2552
  132MOL0     H18182   8.924   9.812   1.773  1.2390  0.4524  2.2617
  132MOL0     H18183   8.910   9.977   1.707  0.1860  0.3014  0.8071
  132MOL0     H18184   8.770   9.920   1.966  0.0122 -1.2801 -3.0079
  132MOL0     H18185   8.863  10.063   1.904  1.4247  0.6983  1.0877
  132MOL0     H18186   9.075   9.947   1.920  0.7463  0.6575  1.3695
  132MOL0     H18187   8.980   9.810   2.000 -0.7561 -0.0192 -1.4301
  132MOL0     H18188   8.974  10.097   2.088 -3.9270 -0.0113 -0.3050
  132MOL0     H18189   8.896   9.979   2.173 -0.4678 -0.8090 -1.1767
  132MOL0     H18190   9.102  10.054   2.286 -3.9428 -1.1031 -0.0176
  132MOL0     H18191   9.199  10.036   2.139 -1.6694 -0.0254 -1.5744
  132MOL0     H18192   9.259   9.894   2.316 -0.5020  0.1335 -0.0800
  132MOL0     H18193   9.212   9.789   2.179 -1.9894  0.4888 -2.6817
  132MOL0     H18194   8.984   9.738   2.282  0.5504 -1.0853 -2.5130
  132MOL0     H18195   9.044   9.818   2.432 -1.8132  0.5231 -0.6011
  132MOL0     H18196   8.574  10.085   1.453 -0.4342 -0.4788 -0.6621
  132MOL0     H18197   8.338  10.099   1.365 -0.9344  2.8294  1.7229
  132MOL0     H18198   7.948  10.142   1.311 -0.7393 -1.1588 -0.5276
  132MOL0     H18199   7.727  10.088   1.205 -0.8817 -2.7813 -0.0973
  132MOL0     H18200   6.278  10.725   0.485 -0.5572 -0.4771 -0.2994
  132MOL0     H18201   6.052  10.771   0.417 -0.4780  0.2412 -0.2300
  132MOL0     H18202   5.618  10.920   0.496 -5.0306 -1.6599 -1.0787
  132MOL0     H18203   5.416  10.943   0.384  0.1020 -0.7748 -0.8516
  132MOL0     H18204   5.385  11.320   0.118 -1.4188  0.7956 -0.5771
  132MOL0     H18205   5.395  11.184   0.001 -1.1427 -3.2419 -0.1119
  132MOL0     H18206   5.155  11.306   0.119 -1.4933 -2.8707  3.3323
  132MOL0     H18207   5.152  11.129   0.105 -3.9174  2.2929  0.2913
  132MOL0     H18208   5.210  11.331  -0.104  0.6027 -0.3218  0.0574
  132MOL0     H18209   5.197  11.165  -0.157  1.5548  2.5216 -1.1686
  132MOL0     H18210   5.004  11.303  -0.209  0.2583  0.5015  0.3000
  132MOL0     H18211   4.977  11.348  -0.038 -0.6372 -0.9553  0.8285
  132MOL0     H18212   4.787  10.975  -0.045  2.0986 -0.2528  2.8504
  132MOL0     H18213   5.575  11.226   0.103 -2.7047  2.4106  2.2613
  132MOL0     H18214   5.837  11.312   0.255 -4.3130 -0.6716  1.9759
  132MOL0     H18215   5.923  11.189   0.187  0.2720  1.1093 -1.7276
  132MOL0     H18216   5.810  11.268   0.081  2.3636  2.0866 -0.0390
  133MOL0     O18217   2.245   0.610   9.710  1.0950 -0.2025  0.1274
  133MOL0     C18218   2.352   0.549   9.702  0.3215 -0.9669  0.2814
  133MOL0     O18219   2.412   0.513   9.581 -0.1566  0.1089 -0.7654
  133MOL0     C18220   2.351   0.555   9.469  0.1112 -0.2539  1.5191
  133MOL0     C18221   2.328   0.455   9.370 -0.2245 -0.5126 -0.1639
  133MOL0     C18222   2.278   0.486   9.250  0.3567  0.9927 -0.3780
  133MOL0     C18223   2.242   0.617   9.218  0.5557 -0.8128 -0.6222
  133MOL0     O18224   2.183   0.654   9.097 -0.5183  0.0295  0.4433
  133MOL0     C18225   2.206   0.577   8.982  0.4237  0.2880 -0.5295
  133MOL0     C18226   2.163   0.655   8.858 -0.5665  1.1711 -0.6818
  133MOL0     C18227   2.177   0.569   8.728 -1.4369 -0.6693  0.2307
  133MOL0     C18228   2.177   0.665   8.609  0.2880  0.4391 -1.2533
  133MOL0     C18229   2.187   0.580   8.482 -0.5106 -0.3757 -0.0318
  133MOL0     C18230   2.195   0.664   8.353 -0.0598 -0.4913  0.4014
  133MOL0     C18231   2.226   0.564   8.237  0.1055 -0.5179  0.2490
  133MOL0     C18232   2.275   0.643   8.110  0.2625  0.9546 -0.0382
  133MOL0     N18233   2.422   0.622   8.091  0.8089  0.1792  0.0770
  133MOL0     C18234   2.509   0.676   8.171 -0.5698 -0.6590 -0.1485
  133MOL0     C18235   2.618   0.600   8.164 -0.4186 -0.1282  0.1280
  133MOL0     C18236   2.751   0.621   8.230 -0.2304 -0.8776 -0.2814
  133MOL0     C18237   2.750   0.606   8.389  0.4604 -0.7246  1.2310
  133MOL0     C18238   2.776   0.463   8.438  0.8568 -0.5111 -0.4640
  133MOL0     C18239   2.819   0.458   8.588  0.9068 -0.4542 -0.7876
  133MOL0     O18240   2.958   0.479   8.596 -0.8210  0.0060  0.1455
  133MOL0     C18241   3.005   0.477   8.724  1.0209  0.2140  0.9896
  133MOL0     C18242   3.118   0.553   8.740  0.7581 -0.7112 -0.6306
  133MOL0     C18243   3.170   0.576   8.865 -0.6142  0.6210 -0.3754
  133MOL0     C18244   3.295   0.658   8.877 -0.0788  0.6709  0.1381
  133MOL0     C18245   3.116   0.508   8.982 -0.5475 -0.6661  0.1913
  133MOL0     C18246   3.188   0.498   9.110  0.0772  0.1736  0.3652
  133MOL0     O18247   3.323   0.507   9.119  0.5541 -0.1717  0.5022
  133MOL0     C18248   3.373   0.502   9.238 -0.7377  0.0488  0.4251
  133MOL0     C18249   3.447   0.613   9.289 -0.0958  0.9995 -0.0077
  133MOL0     C18250   3.507   0.619   9.415  1.2346  0.4200  0.4261
  133MOL0     C18251   3.506   0.511   9.497  0.3435 -0.3479  0.2296
  133MOL0     O18252   3.573   0.515   9.617  0.0936 -0.3413 -0.6063
  133MOL0     C18253   3.709   0.574   9.629 -0.4786  1.5915 -0.0105
  133MOL0     C18254   3.770   0.492   9.733 -0.3000 -0.3955 -0.2200
  133MOL0     C18255   3.926   0.504   9.727  0.3797  0.0927  0.0324
  133MOL0     C18256   3.985   0.623   9.809  0.1465  0.4602  0.7619
  133MOL0     C18257   3.957   0.612   9.958  0.5764 -0.2112 -0.2916
  133MOL0     C18258   3.951   0.752  10.033  0.9788  0.1999  1.0389
  133MOL0     C18259   3.847   0.848   9.970  0.0318 -0.9481 -0.5058
  133MOL0     C18260   3.809   0.959  10.075 -0.6814 -0.0758 -0.1247
  133MOL0    Cl18261   3.680   1.046   9.989  0.0707 -0.1326 -0.3566
  133MOL0     C18262   3.439   0.400   9.455  0.9197 -1.2458  0.1065
  133MOL0     C18263   3.375   0.398   9.324 -0.0950  1.0376  0.0417
  133MOL0     O18264   3.117   0.463   9.210 -0.5236 -0.9128  0.3350
  133MOL0     C18265   3.005   0.436   8.965  0.4452  0.8058 -0.2081
  133MOL0     C18266   2.958   0.410   8.836 -0.3261  0.8847  1.3002
  133MOL0     N18267   2.598   0.501   8.070 -0.4287  0.3129  0.0804
  133MOL0     N18268   2.476   0.516   8.027 -0.2922  0.1300 -0.6782
  133MOL0     C18269   2.262   0.720   9.316  0.4875 -0.2350 -0.4161
  133MOL0     C18270   2.314   0.685   9.441 -0.5628  0.1919 -0.0503
  133MOL0     C18271   2.413   0.538   9.836 -0.2691  1.0414 -0.6433
  133MOL0     C18272   2.549   0.524   9.839 -0.0075  0.7943 -0.4734
  133MOL0     C18273   2.618   0.484   9.949  0.5053  0.9369  0.0608
  133MOL0     C18274   2.549   0.445  10.065 -0.2087  0.2809 -0.8065
  133MOL0     O18275   2.589   0.387  10.182 -0.0933  0.6635 -0.0055
  133MOL0     C18276   2.718   0.346  10.204  0.2633  0.6391  0.5404
  133MOL0     C18277   2.788   0.380  10.338 -0.6211 -0.3869  0.1794
  133MOL0     C18278   2.783   0.533  10.380 -0.1580 -0.4920 -0.5552
  133MOL0     C18279   2.648   0.591  10.425  0.2158 -0.1976 -0.3421
  133MOL0     C18280   2.599   0.546  10.557 -0.0024 -0.1641  0.5790
  133MOL0     C18281   2.562   0.514  10.665 -0.2863 -0.9817  0.0064
  133MOL0     C18282   2.421   0.478  10.076  0.6234 -0.0059 -0.1322
  133MOL0     C18283   2.346   0.514   9.965  0.5278 -0.0223  0.4731
  133MOL0     C18284   2.195   0.487   9.976  0.5467  0.3639  0.3737
  133MOL0     H18285   2.335   0.349   9.391 -0.5264  0.1548  4.0465
  133MOL0     H18286   2.263   0.402   9.183 -1.2287 -0.8321  2.1165
  133MOL0     H18287   2.140   0.491   8.996  1.3376  0.0938  4.5820
  133MOL0     H18288   2.308   0.538   8.992  0.5626  1.0918  2.0832
  133MOL0     H18289   2.057   0.679   8.868 -0.1461  3.0312 -0.3938
  133MOL0     H18290   2.229   0.742   8.862  0.8716  0.0691  2.0714
  133MOL0     H18291   2.268   0.510   8.730 -0.3159  0.6606 -3.5540
  133MOL0     H18292   2.091   0.506   8.703 -1.4015 -0.4349 -0.5093
  133MOL0     H18293   2.093   0.734   8.615  3.1154  4.1104  0.3419
  133MOL0     H18294   2.268   0.725   8.621  1.5500 -1.3016 -1.6043
  133MOL0     H18295   2.101   0.513   8.476 -1.7519  1.1595 -0.0088
  133MOL0     H18296   2.273   0.513   8.490 -0.9877 -0.8226  2.1963
  133MOL0     H18297   2.103   0.718   8.330  2.2420  3.0463 -1.3570
  133MOL0     H18298   2.276   0.736   8.361 -3.0611  3.3315 -0.4081
  133MOL0     H18299   2.138   0.506   8.208  2.5584 -4.8474  0.6519
  133MOL0     H18300   2.301   0.494   8.273 -0.3895 -1.2944 -0.1974
  133MOL0     H18301   2.226   0.596   8.024 -1.6987  3.7293 -0.5522
  133MOL0     H18302   2.256   0.749   8.127  0.1233  0.6878  1.6044
  133MOL0     H18303   2.487   0.757   8.240 -0.0500  1.2291 -2.0577
  133MOL0     H18304   2.786   0.721   8.201  1.0219 -1.1520  0.2412
  133MOL0     H18305   2.825   0.545   8.204  0.3675 -0.6014  0.5995
  133MOL0     H18306   2.829   0.673   8.424 -2.3672  1.8252  3.2535
  133MOL0     H18307   2.658   0.645   8.433  0.7043 -0.3540  1.4164
  133MOL0     H18308   2.682   0.410   8.419 -1.2414  2.6436  0.2113
  133MOL0     H18309   2.854   0.413   8.381  0.3532  0.5928 -2.2160
  133MOL0     H18310   2.753   0.517   8.651  0.8446  1.8030 -2.8433
  133MOL0     H18311   2.806   0.356   8.627  1.3957  0.1547  1.0576
  133MOL0     H18312   3.180   0.598   8.663  1.9523 -0.0784  0.6516
  133MOL0     H18313   3.287   0.739   8.804 -1.2712 -0.5838 -1.1832
  133MOL0     H18314   3.384   0.596   8.864 -0.1199  0.8730 -1.3132
  133MOL0     H18315   3.299   0.704   8.976 -2.5129  2.6201 -0.5679
  133MOL0     H18316   3.455   0.705   9.233 -2.4310  3.0591  2.7021
  133MOL0     H18317   3.559   0.699   9.467  1.9944 -2.4411  4.6065
  133MOL0     H18318   3.757   0.569   9.531 -0.9762 -0.1257 -0.1959
  133MOL0     H18319   3.709   0.675   9.671  0.5220  0.4426  3.0341
  133MOL0     H18320   3.731   0.516   9.832 -1.6621 -0.6291 -0.6770
  133MOL0     H18321   3.756   0.384   9.723  0.5649 -0.4732 -0.6632
  133MOL0     H18322   3.960   0.503   9.623 -1.6636  1.9943 -0.7369
  133MOL0     H18323   3.970   0.422   9.784 -0.0437 -2.0249 -2.4644
  133MOL0     H18324   3.928   0.706   9.765 -1.3760 -1.4940 -1.1308
  133MOL0     H18325   4.091   0.647   9.792 -0.5574  1.6645 -2.6561
  133MOL0     H18326   3.868   0.552   9.979  0.4527  0.1710  0.2886
  133MOL0     H18327   4.041   0.555   9.999  0.3452 -2.2944 -2.4450
  133MOL0     H18328   4.044   0.809  10.041 -1.5808  4.9275  0.6390
  133MOL0     H18329   3.923   0.734  10.137  1.9023 -2.6043  0.9040
  133MOL0     H18330   3.764   0.784   9.940 -0.0190 -0.2848 -1.8262
  133MOL0     H18331   3.889   0.899   9.883  1.6832 -0.8338  0.3235
  133MOL0     H18332   3.894   1.023  10.099 -1.5765  0.5931  1.3876
  133MOL0     H18333   3.775   0.912  10.168 -1.6910  0.4232 -0.2262
  133MOL0     H18334   3.435   0.319   9.528 -3.7004 -2.5846 -1.2686
  133MOL0     H18335   3.331   0.302   9.298  1.5202  0.0249  0.9469
  133MOL0     H18336   2.963   0.386   9.051  1.8897 -0.8477 -0.4020
  133MOL0     H18337   2.865   0.354   8.833  0.3675 -0.2493  0.0978
  133MOL0     H18338   2.243   0.821   9.282 -0.1058 -0.6668 -1.4438
  133MOL0     H18339   2.318   0.763   9.518  1.2481  1.5379 -1.4252
  133MOL0     H18340   2.601   0.524   9.744  1.3623  1.9031  0.2545
  133MOL0     H18341   2.725   0.472   9.936  0.5161  1.0664  0.0300
  133MOL0     H18342   2.706   0.238  10.201 -2.2691  0.8885 -1.5418
  133MOL0     H18343   2.777   0.375  10.117 -1.1399 -0.3832 -0.7964
  133MOL0     H18344   2.893   0.351  10.336 -0.6718 -0.5420 -0.4431
  133MOL0     H18345   2.748   0.315  10.417  3.0917 -0.5513  2.1312
  133MOL0     H18346   2.851   0.544  10.465 -0.4074  1.3154 -0.5543
  133MOL0     H18347   2.817   0.594  10.296 -1.9179  0.8658 -0.3475
  133MOL0     H18348   2.570   0.570  10.352 -1.3598 -2.2256  1.7686
  133MOL0     H18349   2.650   0.700  10.437 -0.0066 -0.1595 -0.6489
  133MOL0     H18350   2.531   0.485  10.763 -1.0409 -0.8704 -0.1903
  133MOL0     H18351   2.360   0.451  10.162 -0.9493  0.5077 -1.0327
  133MOL0     H18352   2.141   0.581   9.988 -1.1160 -0.2199 -1.9346
  133MOL0     H18353   2.155   0.423   9.897 -1.4966  2.3526 -0.3273
  133MOL0     H18354   2.170   0.428  10.065  0.1708 -0.6176 -0.3553
  134MOL0     O18355   6.159   4.611   6.220 -0.0784 -0.3426 -0.7128
  134MOL0     C18356   6.042   4.580   6.241  0.2207 -0.9687 -0.0717
  134MOL0     O18357   5.943   4.630   6.169  0.2635  0.0849  0.4589
  134MOL0     C18358   5.970   4.717   6.064  0.5663  0.3667 -0.4655
  134MOL0     C18359   6.029   4.660   5.951  0.9262 -0.0121 -0.7144
  134MOL0     C18360   6.044   4.734   5.836 -0.5788 -0.5722  0.2166
  134MOL0     C18361   5.988   4.867   5.820 -1.5956 -0.4360  0.6191
  134MOL0     O18362   6.001   4.922   5.694  0.9617 -0.4564  0.1261
  134MOL0     C18363   5.975   5.067   5.699 -0.9611  0.5509  0.9760
  134MOL0     C18364   5.964   5.101   5.543 -0.0618 -0.1885  0.0864
  134MOL0     C18365   6.104   5.104   5.470  0.7534  0.3578  0.3081
  134MOL0     C18366   6.098   5.159   5.329  0.4708 -0.5568  0.1187
  134MOL0     C18367   6.237   5.170   5.263  0.5806  0.8185  0.6094
  134MOL0     C18368   6.211   5.251   5.141 -0.2045 -0.0341  0.7850
  134MOL0     C18369   6.340   5.259   5.058 -0.1724  0.3431 -0.4440
  134MOL0     C18370   6.333   5.357   4.932 -0.5321  0.8880 -0.9304
  134MOL0     N18371   6.303   5.489   4.972  0.4874  0.3541  0.2736
  134MOL0     C18372   6.387   5.577   5.031 -0.4466 -0.4919  0.7870
  134MOL0     C18373   6.315   5.692   5.044  0.1799  0.6061  0.5506
  134MOL0     C18374   6.364   5.820   5.100 -1.4050 -1.6886 -0.0851
  134MOL0     C18375   6.433   5.915   4.993  1.3437  0.0870 -0.6645
  134MOL0     C18376   6.468   6.040   5.077 -0.2614  0.1007  0.2724
  134MOL0     C18377   6.471   6.163   4.985  0.2774 -0.3822  0.1088
  134MOL0     O18378   6.601   6.186   4.919  0.2718  0.3746 -0.4486
  134MOL0     C18379   6.682   6.277   4.986  0.2078  0.1805 -0.1035
  134MOL0     C18380   6.689   6.287   5.127  0.6864  0.1704  1.0004
  134MOL0     C18381   6.782   6.375   5.190 -0.1735  0.2782  0.1953
  134MOL0     C18382   6.791   6.379   5.343 -0.3827  1.0709  0.3032
  134MOL0     C18383   6.859   6.454   5.104 -0.4102 -1.1863 -0.3876
  134MOL0     C18384   6.958   6.555   5.146  0.7891  0.0353  0.5313
  134MOL0     O18385   6.923   6.639   5.244  0.3286  0.2739  0.1177
  134MOL0     C18386   7.035   6.707   5.313  0.0833  0.5485  0.4196
  134MOL0     C18387   7.155   6.644   5.346  0.7935  0.5024  0.4367
  134MOL0     C18388   7.258   6.722   5.403 -0.6424  0.2056  0.5478
  134MOL0     C18389   7.232   6.851   5.441 -0.2253  0.6741  0.2219
  134MOL0     O18390   7.333   6.918   5.510  0.3699  0.0262  0.6476
  134MOL0     C18391   7.379   7.033   5.433 -0.0648 -0.2435 -0.0132
  134MOL0     C18392   7.503   7.101   5.494  0.3724  0.3049  0.2801
  134MOL0     C18393   7.457   7.174   5.625  0.2615  0.4118 -0.2241
  134MOL0     C18394   7.493   7.325   5.626  1.1410  0.2956  0.6438
  134MOL0     C18395   7.641   7.356   5.615  0.1737 -0.7152 -0.1795
  134MOL0     C18396   7.672   7.502   5.626  0.9457  0.1387 -0.1928
  134MOL0     C18397   7.800   7.546   5.709  0.5172 -0.0582 -0.0930
  134MOL0     C18398   7.839   7.694   5.698  0.0925 -0.0912  0.1743
  134MOL0    Cl18399   7.854   7.746   5.527  0.2381 -0.0483 -0.2103
  134MOL0     C18400   7.112   6.915   5.397  0.6280  0.0576  0.5030
  134MOL0     C18401   7.014   6.841   5.332 -0.2026 -0.1861 -0.3103
  134MOL0     O18402   7.063   6.556   5.079  0.4998 -0.4122  0.0111
  134MOL0     C18403   6.845   6.441   4.966 -0.6739 -0.0580 -0.3453
  134MOL0     C18404   6.753   6.357   4.907  0.1242 -0.2441  0.7430
  134MOL0     N18405   6.194   5.668   4.987 -0.2712 -0.5976 -0.3709
  134MOL0     N18406   6.184   5.544   4.953 -0.9673  0.4121  0.8768
  134MOL0     C18407   5.934   4.919   5.937  0.5382  0.4347 -0.8544
  134MOL0     C18408   5.930   4.851   6.058  0.0579  0.5013 -0.0945
  134MOL0     C18409   6.016   4.484   6.350 -0.5357  0.3651  0.7525
  134MOL0     C18410   6.075   4.499   6.472  0.1536 -0.4039  1.9125
  134MOL0     C18411   6.059   4.417   6.581  0.2494 -0.3600 -0.5278
  134MOL0     C18412   5.981   4.301   6.565  1.2068 -0.5269  0.1009
  134MOL0     O18413   5.947   4.216   6.663  0.5038  0.0346 -0.4778
  134MOL0     C18414   6.057   4.147   6.718  0.1633  0.2730 -0.4473
  134MOL0     C18415   6.022   4.084   6.860  0.0789  0.6778 -0.1719
  134MOL0     C18416   5.903   3.979   6.853  0.5830  0.1380 -0.6484
  134MOL0     C18417   5.953   3.836   6.867  0.0280 -0.2332 -0.8363
  134MOL0     C18418   6.037   3.788   6.758 -0.6915  0.1052 -0.2139
  134MOL0     C18419   6.116   3.762   6.667 -0.2155 -0.4493 -0.5882
  134MOL0     C18420   5.917   4.281   6.441 -0.3326 -0.6086  0.4310
  134MOL0     C18421   5.928   4.374   6.328  0.5578 -0.3724 -0.6498
  134MOL0     C18422   5.852   4.351   6.197  0.1345  0.0690  0.0359
  134MOL0     H18423   6.054   4.554   5.950 -1.3724 -0.6083 -0.2131
  134MOL0     H18424   6.089   4.687   5.749  1.3459 -1.6927  1.7128
  134MOL0     H18425   6.053   5.132   5.740 -2.0270  1.2007  2.0465
  134MOL0     H18426   5.884   5.085   5.757 -0.3247 -1.5636  2.7697
  134MOL0     H18427   5.900   5.022   5.503 -1.9642  0.7160  1.2016
  134MOL0     H18428   5.909   5.196   5.537  2.7104  1.4390 -2.4507
  134MOL0     H18429   6.171   5.164   5.533  2.5296 -0.3352 -0.8511
  134MOL0     H18430   6.150   5.005   5.474 -0.0885 -0.0832 -0.5852
  134MOL0     H18431   6.033   5.096   5.268 -0.3968 -0.4269  0.8775
  134MOL0     H18432   6.062   5.262   5.337  2.9024  0.4010 -0.3836
  134MOL0     H18433   6.285   5.074   5.245 -1.1390  0.2719 -1.6470
  134MOL0     H18434   6.304   5.231   5.324  0.6105  3.3464 -1.7165
  134MOL0     H18435   6.134   5.204   5.079 -2.4780  0.8549  2.7452
  134MOL0     H18436   6.178   5.354   5.160  2.2609  1.2944 -1.4608
  134MOL0     H18437   6.357   5.156   5.026  0.8752 -0.9717  3.7367
  134MOL0     H18438   6.429   5.288   5.115 -0.6103 -1.9968  1.5528
  134MOL0     H18439   6.432   5.357   4.885  0.7266  0.3472  1.5128
  134MOL0     H18440   6.273   5.315   4.851  0.5954 -0.6199 -1.0202
  134MOL0     H18441   6.491   5.569   5.061 -0.0075  1.8132  0.0713
  134MOL0     H18442   6.443   5.805   5.173 -0.9137 -1.4547 -0.5605
  134MOL0     H18443   6.277   5.869   5.145  0.7559  2.8488 -0.3387
  134MOL0     H18444   6.525   5.864   4.961  1.8686  0.6613 -0.1113
  134MOL0     H18445   6.373   5.943   4.905 -1.3869  2.1988  1.6800
  134MOL0     H18446   6.386   6.047   5.150 -0.8771  0.8664 -0.4654
  134MOL0     H18447   6.563   6.030   5.131 -1.3419 -0.6356  2.1342
  134MOL0     H18448   6.401   6.149   4.903  3.0816 -6.5001 -1.8615
  134MOL0     H18449   6.450   6.249   5.049 -0.9425 -1.5174  1.3050
  134MOL0     H18450   6.624   6.217   5.178 -1.3531 -0.2650 -1.9067
  134MOL0     H18451   6.887   6.403   5.390 -0.0521 -0.6615  0.5985
  134MOL0     H18452   6.775   6.277   5.381  0.7817  0.3116 -1.1574
  134MOL0     H18453   6.718   6.445   5.392 -1.5030  2.6403 -3.1932
  134MOL0     H18454   7.184   6.545   5.313 -1.2613  0.8431 -2.8835
  134MOL0     H18455   7.359   6.687   5.421 -1.6472 -4.9363 -2.0265
  134MOL0     H18456   7.408   6.993   5.335  3.3840 -1.4351  1.3321
  134MOL0     H18457   7.305   7.112   5.418  0.4255  0.3258  0.4893
  134MOL0     H18458   7.590   7.037   5.509  0.9458  0.8165 -0.7592
  134MOL0     H18459   7.531   7.177   5.421 -2.7953  3.5163  2.0486
  134MOL0     H18460   7.500   7.135   5.718  0.5965 -0.1098 -0.5939
  134MOL0     H18461   7.348   7.181   5.637  0.5374  4.3747  1.4185
  134MOL0     H18462   7.448   7.374   5.713  1.3950 -1.5395  1.8643
  134MOL0     H18463   7.434   7.356   5.540  0.8888  1.3602  1.1814
  134MOL0     H18464   7.697   7.306   5.694  1.0604  0.2443 -0.1803
  134MOL0     H18465   7.680   7.319   5.520 -0.4633 -1.0398 -0.3231
  134MOL0     H18466   7.593   7.550   5.683 -0.9027  1.7556 -3.8028
  134MOL0     H18467   7.672   7.544   5.525 -0.8151 -0.0019 -0.2878
  134MOL0     H18468   7.889   7.488   5.683 -0.2218  0.0619 -3.4181
  134MOL0     H18469   7.770   7.527   5.812 -2.4772  0.7061 -0.7397
  134MOL0     H18470   7.934   7.711   5.750 -1.0385  1.4439  1.8752
  134MOL0     H18471   7.765   7.762   5.741  0.3076  0.4517 -0.2995
  134MOL0     H18472   7.076   7.016   5.411 -1.6106 -0.0395 -3.2647
  134MOL0     H18473   6.921   6.881   5.295  0.8982  1.6843 -1.2132
  134MOL0     H18474   6.909   6.502   4.903  1.2444  0.3990  1.9217
  134MOL0     H18475   6.743   6.333   4.801 -0.3830  0.3418  0.6510
  134MOL0     H18476   5.889   5.018   5.942  3.9688  2.1354 -0.2174
  134MOL0     H18477   5.896   4.893   6.152  2.3938  1.3566  0.4227
  134MOL0     H18478   6.148   4.580   6.476 -0.2928  0.4669 -2.5650
  134MOL0     H18479   6.098   4.444   6.678 -3.1675 -1.8804  1.4594
  134MOL0     H18480   6.075   4.075   6.638  1.5423 -0.9866  0.9435
  134MOL0     H18481   6.143   4.214   6.730  2.5731 -2.3105 -2.0063
  134MOL0     H18482   6.001   4.162   6.933  0.4035 -0.1111  0.7807
  134MOL0     H18483   6.111   4.028   6.891 -0.3182  0.1243 -0.0099
  134MOL0     H18484   5.843   3.991   6.944  1.1348  2.5134 -0.5203
  134MOL0     H18485   5.837   3.983   6.766  1.8151 -1.5897 -1.7139
  134MOL0     H18486   5.864   3.773   6.879 -1.2030  1.6635  0.5970
  134MOL0     H18487   5.992   3.815   6.967 -2.2531  2.2673  0.7324
  134MOL0     H18488   6.179   3.747   6.582  0.7253  1.6701 -0.3359
  134MOL0     H18489   5.864   4.188   6.421 -0.7421 -0.5712  1.2784
  134MOL0     H18490   5.911   4.386   6.112  0.4592 -1.9441 -0.6390
  134MOL0     H18491   5.818   4.247   6.189 -2.0681  0.1568  4.9611
  134MOL0     H18492   5.759   4.409   6.190  0.8605  1.0500 -2.8126
  135MOL0     O18493   0.117   7.427   1.304  0.3749 -0.0179  0.1565
  135MOL0     C18494   0.109   7.313   1.335  0.3487  0.1003 -0.2713
  135MOL0     O18495   0.041   7.219   1.265 -0.1821 -0.5246  1.2668
  135MOL0     C18496  -0.001   7.257   1.134 -1.0627 -0.6095  0.0148
  135MOL0     C18497   0.029   7.170   1.019 -0.8316 -0.2776  0.1370
  135MOL0     C18498   0.007   7.210   0.893  0.5197  0.2521  0.7031
  135MOL0     C18499  -0.054   7.336   0.865 -0.3811 -0.1770 -0.9939
  135MOL0     O18500  -0.098   7.375   0.738  0.5376  0.6026  0.9417
  135MOL0     C18501  -0.152   7.268   0.652 -0.8798  0.4171  0.5572
  135MOL0     C18502  -0.203   7.312   0.511  0.5564 -0.5936 -0.2300
  135MOL0     C18503  -0.082   7.304   0.416  0.9734 -1.0958  0.3556
  135MOL0     C18504  -0.112   7.361   0.274  0.6080 -0.1665  0.1668
  135MOL0     C18505   0.018   7.372   0.186  0.1732 -0.0934  0.2768
  135MOL0     C18506  -0.016   7.359   0.040  0.2442  0.7556  0.7361
  135MOL0     C18507   0.102   7.348  -0.055 -0.0016  0.7366 -0.1841
  135MOL0     C18508   0.168   7.213  -0.068 -0.2937 -0.2610 -0.2486
  135MOL0     N18509   0.316   7.219  -0.095  0.5985 -1.2303 -0.3020
  135MOL0     C18510   0.359   7.255  -0.218  0.9261 -0.0683 -0.1961
  135MOL0     C18511   0.486   7.262  -0.198 -0.5574 -0.3891  0.0077
  135MOL0     C18512   0.593   7.311  -0.285 -0.5545 -0.8349  0.3905
  135MOL0     C18513   0.605   7.464  -0.276 -0.0909 -0.5055 -0.4070
  135MOL0     C18514   0.723   7.498  -0.366 -0.8445  0.2905  0.4480
  135MOL0     C18515   0.764   7.650  -0.355 -0.3430  0.5025  0.9261
  135MOL0     O18516   0.856   7.683  -0.468  0.4686 -0.3116  0.4434
  135MOL0     C18517   0.884   7.817  -0.476 -0.1243 -1.4993 -0.1434
  135MOL0     C18518   0.831   7.924  -0.398  1.0838  0.4820  0.2575
  135MOL0     C18519   0.862   8.051  -0.413 -0.3936 -0.7738 -0.1645
  135MOL0     C18520   0.787   8.153  -0.330  0.9748 -0.7352 -0.3510
  135MOL0     C18521   0.958   8.084  -0.510  0.2645 -1.0592 -0.0096
  135MOL0     C18522   1.002   8.221  -0.530  0.1491  0.1647 -0.0489
  135MOL0     O18523   1.107   8.226  -0.624 -0.1566 -0.6679 -0.1626
  135MOL0     C18524   1.161   8.344  -0.664 -0.1934  0.2387  0.1053
  135MOL0     C18525   1.287   8.345  -0.720 -0.2847  1.1204 -0.3737
  135MOL0     C18526   1.341   8.450  -0.796  0.1228 -0.1510 -0.8797
  135MOL0     C18527   1.271   8.566  -0.815 -0.5843 -0.6802  0.9708
  135MOL0     O18528   1.334   8.648  -0.902  0.5519 -0.0669  0.7328
  135MOL0     C18529   1.260   8.746  -0.973  0.2386  0.1153 -0.1440
  135MOL0     C18530   1.353   8.859  -1.030 -0.3787  0.6610  0.1847
  135MOL0     C18531   1.282   8.947  -1.132  0.6071  1.2751 -0.1771
  135MOL0     C18532   1.240   9.088  -1.066  0.7790 -0.2407  0.5018
  135MOL0     C18533   1.110   9.077  -0.968 -2.5258 -0.0473 -0.8681
  135MOL0     C18534   1.035   9.207  -0.962 -0.6412 -0.5472 -0.0250
  135MOL0     C18535   0.930   9.195  -0.862  0.5451  0.5530 -0.0438
  135MOL0     C18536   0.828   9.318  -0.865 -0.2887  0.4570  0.1467
  135MOL0    Cl18537   0.931   9.467  -0.870 -0.0944  0.2987 -0.2407
  135MOL0     C18538   1.139   8.566  -0.761 -0.5419  0.3768  0.0535
  135MOL0     C18539   1.085   8.455  -0.701  0.6600 -0.3582 -0.3951
  135MOL0     O18540   0.957   8.315  -0.465  0.0034  0.4960  0.2706
  135MOL0     C18541   1.014   7.991  -0.598  0.0962  0.5998 -0.1310
  135MOL0     C18542   0.976   7.857  -0.577  0.5273 -0.1456  0.9484
  135MOL0     N18543   0.520   7.218  -0.071 -0.1043 -0.2039 -0.3797
  135MOL0     N18544   0.413   7.188  -0.010  0.1274 -0.4349 -0.3657
  135MOL0     C18545  -0.092   7.417   0.977  1.5269 -0.1141 -1.1677
  135MOL0     C18546  -0.070   7.373   1.107 -0.1619  0.1321 -0.5454
  135MOL0     C18547   0.206   7.271   1.438  0.1777  0.1720 -0.2166
  135MOL0     C18548   0.277   7.378   1.500  0.1017 -0.1645 -0.5817
  135MOL0     C18549   0.357   7.347   1.611  0.5599 -0.0355  0.1184
  135MOL0     C18550   0.349   7.225   1.674 -1.3708  0.3891 -0.3268
  135MOL0     O18551   0.433   7.192   1.791  0.5348  0.1094  0.4860
  135MOL0     C18552   0.491   7.295   1.860  0.2810  0.0626 -0.6268
  135MOL0     C18553   0.566   7.254   1.985  0.5954  1.8742 -0.2032
  135MOL0     C18554   0.662   7.137   1.947  0.2024 -0.6993  1.0328
  135MOL0     C18555   0.790   7.152   2.029 -0.0314  0.1682 -0.1101
  135MOL0     C18556   0.886   7.059   1.975  0.5556  0.8423 -0.1611
  135MOL0     C18557   0.951   6.971   1.932 -0.9579  0.0862  0.7209
  135MOL0     C18558   0.275   7.123   1.615 -0.5674 -0.1013  0.2532
  135MOL0     C18559   0.220   7.142   1.492  0.9255  0.6146  0.5423
  135MOL0     C18560   0.163   7.012   1.432  0.4398  0.1425  0.7026
  135MOL0     H18561   0.088   7.083   1.048  0.4877  0.9889  1.4773
  135MOL0     H18562   0.028   7.140   0.813  1.8678  2.0769 -0.6259
  135MOL0     H18563  -0.234   7.215   0.701  0.2907 -0.3893  1.6993
  135MOL0     H18564  -0.065   7.202   0.643 -0.9480  0.0758  2.1729
  135MOL0     H18565  -0.278   7.247   0.467  0.1350 -0.0118 -0.3826
  135MOL0     H18566  -0.250   7.410   0.528  0.0896 -1.1235  1.7135
  135MOL0     H18567  -0.001   7.367   0.453 -0.0094  2.0141 -2.2524
  135MOL0     H18568  -0.054   7.199   0.407 -0.7808 -1.7708  2.0769
  135MOL0     H18569  -0.182   7.293   0.225 -1.7150  1.4635  1.0604
  135MOL0     H18570  -0.155   7.462   0.273 -0.4978 -0.6011  1.0562
  135MOL0     H18571   0.087   7.294   0.222 -1.0328 -0.2232  2.5165
  135MOL0     H18572   0.065   7.468   0.210  1.6963 -0.5808 -0.5987
  135MOL0     H18573  -0.075   7.270   0.016  0.8319  0.1453  1.4935
  135MOL0     H18574  -0.067   7.452   0.012  2.3485  1.4531 -1.0712
  135MOL0     H18575   0.182   7.409  -0.013  2.5046 -2.0775 -0.4957
  135MOL0     H18576   0.071   7.382  -0.154  1.1868 -1.2914 -1.3448
  135MOL0     H18577   0.145   7.160   0.025  1.8498  0.1970  0.5997
  135MOL0     H18578   0.123   7.150  -0.145 -1.3371  0.0789  0.0735
  135MOL0     H18579   0.290   7.268  -0.301 -0.8221 -1.6782  0.9072
  135MOL0     H18580   0.574   7.296  -0.391 -0.1101 -1.1720  0.3572
  135MOL0     H18581   0.683   7.257  -0.253 -0.1670 -0.3326  0.1607
  135MOL0     H18582   0.519   7.518  -0.318  0.3368 -0.6727 -1.5015
  135MOL0     H18583   0.617   7.501  -0.173 -1.7048  0.4649 -0.5204
  135MOL0     H18584   0.808   7.435  -0.337 -1.2526  0.8806  3.1941
  135MOL0     H18585   0.684   7.476  -0.465  1.1525  0.6448 -0.4607
  135MOL0     H18586   0.671   7.707  -0.347 -1.4347 -1.0177 -0.2712
  135MOL0     H18587   0.817   7.665  -0.261  0.5435  0.3208  0.4719
  135MOL0     H18588   0.755   7.893  -0.327  1.0645 -0.5729 -0.1917
  135MOL0     H18589   0.695   8.107  -0.292 -1.4347  3.1512 -0.8622
  135MOL0     H18590   0.755   8.243  -0.383  0.7157  1.1842  2.7959
  135MOL0     H18591   0.852   8.196  -0.253 -1.4733 -1.3656  2.2435
  135MOL0     H18592   1.355   8.260  -0.716 -3.2191 -1.3901  2.2741
  135MOL0     H18593   1.439   8.429  -0.838 -0.3802 -4.4303 -0.3885
  135MOL0     H18594   1.208   8.700  -1.057  0.7653  0.7421 -0.8316
  135MOL0     H18595   1.177   8.792  -0.917  0.3312 -3.9433  3.9718
  135MOL0     H18596   1.399   8.912  -0.946  0.2100 -2.0984  1.7569
  135MOL0     H18597   1.437   8.814  -1.084  0.3202  0.5846  1.3112
  135MOL0     H18598   1.187   8.899  -1.157 -0.0335  1.6297  1.4551
  135MOL0     H18599   1.339   8.956  -1.225  2.1566 -0.4544  0.5479
  135MOL0     H18600   1.213   9.152  -1.151  2.1696  2.3464  1.8749
  135MOL0     H18601   1.325   9.142  -1.022 -0.3013  2.2987 -0.3292
  135MOL0     H18602   1.053   9.003  -1.025 -4.8585  2.4374 -1.9892
  135MOL0     H18603   1.137   9.050  -0.866  0.8665 -0.6516 -1.7875
  135MOL0     H18604   1.003   9.231  -1.064 -0.8588  1.0040  0.3766
  135MOL0     H18605   1.110   9.277  -0.923 -0.4871 -1.1687  0.8218
  135MOL0     H18606   0.971   9.197  -0.760  0.6638  0.6712 -0.0934
  135MOL0     H18607   0.879   9.099  -0.871  1.3312 -0.1507  2.2822
  135MOL0     H18608   0.762   9.317  -0.778 -0.4634  1.6957  0.0431
  135MOL0     H18609   0.775   9.318  -0.961  0.6928  1.9886 -0.4268
  135MOL0     H18610   1.093   8.663  -0.776 -0.0339  1.0200  2.3524
  135MOL0     H18611   0.980   8.459  -0.671  1.2103 -0.7893  1.7523
  135MOL0     H18612   1.079   8.009  -0.683 -1.4389 -3.4851 -2.4514
  135MOL0     H18613   1.019   7.789  -0.650  2.9465  1.3992  0.8435
  135MOL0     H18614  -0.134   7.511   0.942  0.6913  1.5500  3.5386
  135MOL0     H18615  -0.093   7.431   1.196  0.3107 -1.9175  0.9971
  135MOL0     H18616   0.276   7.484   1.477  0.5046  1.1385  4.2166
  135MOL0     H18617   0.421   7.428   1.645  2.4661 -1.3779 -0.1064
  135MOL0     H18618   0.564   7.346   1.797  2.2286  0.6695  1.9389
  135MOL0     H18619   0.424   7.381   1.869  1.4153  0.9170  0.0380
  135MOL0     H18620   0.495   7.209   2.054  0.9087 -0.7477 -1.4896
  135MOL0     H18621   0.623   7.336   2.032 -0.4546  1.9365  1.0150
  135MOL0     H18622   0.610   7.044   1.969 -3.6589  1.2848  1.1389
  135MOL0     H18623   0.678   7.135   1.839  1.3933 -0.6234  1.1927
  135MOL0     H18624   0.781   7.128   2.135 -0.5328 -2.9013 -0.7495
  135MOL0     H18625   0.836   7.250   2.014  0.2541 -0.3481 -3.4266
  135MOL0     H18626   1.021   6.897   1.899  0.7067  1.6878  0.4815
  135MOL0     H18627   0.265   7.024   1.657 -2.4182 -0.7709 -1.6033
  135MOL0     H18628   0.199   6.924   1.486 -0.5552 -0.8762 -0.2524
  135MOL0     H18629   0.054   6.999   1.437 -0.0754  2.9516 -0.7514
  135MOL0     H18630   0.198   6.989   1.331  0.8482  0.7926  0.6888
  136MOL0     O18631   7.124   2.890   7.353 -0.3291 -0.1704 -0.7745
  136MOL0     C18632   7.187   2.804   7.303  0.0987 -0.3435 -0.0768
  136MOL0     O18633   7.321   2.809   7.283  0.0699 -0.2301  0.6675
  136MOL0     C18634   7.412   2.908   7.315  0.1923  0.5045 -0.2338
  136MOL0     C18635   7.413   2.981   7.436 -0.2507 -0.6520  0.6839
  136MOL0     C18636   7.518   3.074   7.469 -0.6057 -0.3782 -0.3852
  136MOL0     C18637   7.619   3.099   7.379 -0.5634 -0.8135  0.2438
  136MOL0     O18638   7.713   3.192   7.414 -1.1740 -0.5917 -0.2010
  136MOL0     C18639   7.847   3.136   7.443  0.2354  0.4608 -0.4643
  136MOL0     C18640   7.855   3.026   7.542 -0.9165 -0.4433  0.3687
  136MOL0     C18641   7.983   2.948   7.523  0.0377 -0.0926  0.0013
  136MOL0     C18642   8.002   2.831   7.615  1.3570  0.7476  0.3274
  136MOL0     C18643   7.878   2.742   7.651  0.6540  0.1589 -0.1105
  136MOL0     C18644   7.914   2.602   7.716  0.6189  0.0509 -0.1832
  136MOL0     C18645   7.972   2.629   7.855  1.4848  0.2105 -0.1401
  136MOL0     C18646   7.955   2.506   7.936  0.3491  1.1024 -0.2028
  136MOL0     N18647   7.827   2.495   8.016 -0.7633 -0.5001  0.6933
  136MOL0     C18648   7.735   2.598   8.043  0.2183  1.0836  0.4544
  136MOL0     C18649   7.648   2.536   8.121 -0.5931  0.0445  0.8415
  136MOL0     C18650   7.522   2.601   8.174 -1.0002 -0.5079 -0.5028
  136MOL0     C18651   7.407   2.613   8.083  0.5495 -0.0430 -0.0406
  136MOL0     C18652   7.367   2.472   8.030 -0.8251  0.7866  0.2066
  136MOL0     C18653   7.238   2.470   7.946 -0.8173  0.7607  0.7301
  136MOL0     O18654   7.116   2.528   8.001 -0.1332  0.4872  0.5173
  136MOL0     C18655   7.057   2.456   8.103  0.5512 -0.0528 -0.2491
  136MOL0     C18656   7.089   2.320   8.132 -0.4356 -0.1298 -0.4845
  136MOL0     C18657   7.017   2.246   8.229 -0.0979 -0.2048  0.8287
  136MOL0     C18658   7.054   2.102   8.245 -0.9424 -1.6209  0.2061
  136MOL0     C18659   6.920   2.315   8.308  0.4009  0.6887 -0.0413
  136MOL0     C18660   6.844   2.266   8.428  0.9338  0.8159  0.7935
  136MOL0     O18661   6.820   2.342   8.533 -0.7109  0.0324 -0.9558
  136MOL0     C18662   6.717   2.305   8.619 -0.3423 -0.2341  0.3327
  136MOL0     C18663   6.736   2.287   8.757 -0.1992 -0.0180  0.1258
  136MOL0     C18664   6.639   2.220   8.836 -0.3944  1.0590 -0.2585
  136MOL0     C18665   6.514   2.208   8.779  0.1216 -0.6317  0.5314
  136MOL0     O18666   6.414   2.152   8.862  0.4251 -0.1432 -0.3636
  136MOL0     C18667   6.305   2.066   8.802 -0.2222 -0.0722  0.1757
  136MOL0     C18668   6.176   2.153   8.784  0.2842  0.9507  1.2874
  136MOL0     C18669   6.123   2.209   8.913  0.5956  0.7790 -0.6338
  136MOL0     C18670   6.109   2.120   9.040  0.3983  0.0415  1.5113
  136MOL0     C18671   6.092   2.219   9.156  0.4926  0.2906 -0.5107
  136MOL0     C18672   6.049   2.149   9.280 -0.5709  0.4643 -0.0140
  136MOL0     C18673   6.023   2.246   9.393  0.5364 -0.5144  0.2061
  136MOL0     C18674   5.895   2.320   9.371 -0.2219  0.7865  0.4078
  136MOL0    Cl18675   5.946   2.497   9.324  0.1062 -0.4306 -0.5132
  136MOL0     C18676   6.486   2.244   8.645 -0.4604 -1.2307  0.2096
  136MOL0     C18677   6.589   2.296   8.565 -0.5698  0.3150 -0.3437
  136MOL0     O18678   6.809   2.154   8.419 -0.5828  0.0830  0.6311
  136MOL0     C18679   6.890   2.452   8.276  0.6121 -0.5639  0.3608
  136MOL0     C18680   6.959   2.518   8.178 -0.8932  0.4970 -0.7330
  136MOL0     N18681   7.698   2.413   8.167  0.8128 -0.1203 -0.0286
  136MOL0     N18682   7.810   2.394   8.100 -0.9059 -0.1340 -0.0749
  136MOL0     C18683   7.630   3.023   7.266  0.9326  0.2882  0.8142
  136MOL0     C18684   7.518   2.929   7.235 -0.8505  0.4193  0.2096
  136MOL0     C18685   7.118   2.688   7.259  0.1028  0.0234 -0.0264
  136MOL0     C18686   7.199   2.578   7.209 -0.3780  0.3317 -0.5343
  136MOL0     C18687   7.138   2.465   7.161  0.9595  0.6153  0.5496
  136MOL0     C18688   6.998   2.453   7.152 -0.3100  0.2515  0.5342
  136MOL0     O18689   6.935   2.345   7.091  0.6113 -0.2575 -0.1311
  136MOL0     C18690   6.999   2.214   7.077 -0.2066  0.1285 -1.0293
  136MOL0     C18691   6.903   2.115   7.012 -0.0535  0.8456  1.4497
  136MOL0     C18692   6.927   1.969   7.044  0.3089  0.1403 -0.2192
  136MOL0     C18693   7.028   1.895   6.959 -0.5350  0.1711  0.6633
  136MOL0     C18694   6.994   1.889   6.820 -0.5586 -0.9811  0.6280
  136MOL0     C18695   6.965   1.887   6.701  0.4151  0.2709 -0.4872
  136MOL0     C18696   6.922   2.549   7.218 -0.8797 -0.0004  0.9598
  136MOL0     C18697   6.978   2.670   7.263 -0.6047  0.4941  0.1504
  136MOL0     C18698   6.875   2.757   7.335 -0.3502  0.5302  0.9812
  136MOL0     H18699   7.330   2.951   7.500  0.8073 -5.4721  0.2294
  136MOL0     H18700   7.498   3.139   7.554 -4.5427 -1.0738 -0.5826
  136MOL0     H18701   7.923   3.209   7.471 -0.9968  1.6183 -0.0953
  136MOL0     H18702   7.873   3.096   7.344 -0.1324  2.9824 -1.6581
  136MOL0     H18703   7.851   3.072   7.641  0.8809 -0.4157  0.4548
  136MOL0     H18704   7.774   2.953   7.528 -1.4093  0.5559 -2.9032
  136MOL0     H18705   7.983   2.898   7.426 -0.2434  0.4769 -0.2900
  136MOL0     H18706   8.073   3.010   7.521 -0.8289  1.2780  1.4347
  136MOL0     H18707   8.064   2.771   7.548  0.7466 -0.1771  0.5819
  136MOL0     H18708   8.055   2.852   7.708  0.7253  2.4849  0.3342
  136MOL0     H18709   7.832   2.720   7.554 -1.5215  2.1733  0.3457
  136MOL0     H18710   7.807   2.798   7.714 -2.2597  0.4637 -3.3865
  136MOL0     H18711   7.818   2.550   7.717  0.1951  0.4505  5.1584
  136MOL0     H18712   7.983   2.548   7.650 -0.7235 -3.2147  0.8630
  136MOL0     H18713   7.904   2.706   7.893 -0.8811 -0.4700 -2.7222
  136MOL0     H18714   8.071   2.675   7.853  1.0820  1.1456 -3.0098
  136MOL0     H18715   7.950   2.420   7.869 -0.0297 -1.0637  2.4503
  136MOL0     H18716   8.042   2.488   7.999 -1.7950 -1.8256  2.2123
  136MOL0     H18717   7.723   2.700   8.008  0.1730  0.8218 -0.2972
  136MOL0     H18718   7.548   2.702   8.206 -0.7901 -0.2045 -1.5741
  136MOL0     H18719   7.497   2.544   8.264  0.1172 -0.8652 -0.4018
  136MOL0     H18720   7.324   2.664   8.133  1.3272 -0.4937  1.7970
  136MOL0     H18721   7.425   2.671   7.992  2.6728 -0.8523 -0.1813
  136MOL0     H18722   7.452   2.443   7.967 -1.1135  2.2978 -0.9684
  136MOL0     H18723   7.355   2.393   8.104 -0.4974  0.8438  0.3254
  136MOL0     H18724   7.262   2.542   7.867 -0.5121 -0.3138 -0.1901
  136MOL0     H18725   7.225   2.368   7.908  2.0485  0.6459 -0.1675
  136MOL0     H18726   7.145   2.254   8.066 -3.3010  0.1162 -3.4271
  136MOL0     H18727   7.140   2.079   8.182 -1.1194 -0.4892 -0.4676
  136MOL0     H18728   6.968   2.043   8.212 -0.8629  0.4708 -4.6024
  136MOL0     H18729   7.084   2.081   8.348  1.3555  1.0409  0.2071
  136MOL0     H18730   6.825   2.315   8.813 -0.6021 -0.5783  1.0640
  136MOL0     H18731   6.651   2.202   8.943 -2.3275  2.0342  0.1761
  136MOL0     H18732   6.334   2.051   8.697 -0.9028 -0.1266 -0.0133
  136MOL0     H18733   6.290   1.966   8.843 -0.4426 -0.3549 -0.5606
  136MOL0     H18734   6.206   2.238   8.722  2.9228 -0.8461 -0.0629
  136MOL0     H18735   6.096   2.104   8.728  2.2193 -0.4822 -0.3499
  136MOL0     H18736   6.025   2.251   8.890  1.6697  2.2024 -2.8535
  136MOL0     H18737   6.188   2.294   8.934  2.2377 -0.7625  0.9414
  136MOL0     H18738   6.201   2.063   9.052 -2.1236 -4.2867  2.6200
  136MOL0     H18739   6.021   2.057   9.025 -3.3475  4.6336  1.7670
  136MOL0     H18740   6.184   2.277   9.175 -0.9529  2.5928 -0.1396
  136MOL0     H18741   6.014   2.286   9.120  2.9865  2.5348 -2.1982
  136MOL0     H18742   6.128   2.078   9.310 -0.7352  0.1529 -0.3179
  136MOL0     H18743   5.961   2.091   9.252 -1.2744  2.8539 -3.2390
  136MOL0     H18744   6.108   2.314   9.410  2.2397 -3.0569  2.8716
  136MOL0     H18745   6.003   2.193   9.487 -3.3845  0.2260 -0.0348
  136MOL0     H18746   5.833   2.324   9.462 -2.6147 -1.7425 -0.9608
  136MOL0     H18747   5.827   2.285   9.293 -0.4785  0.1025  0.9342
  136MOL0     H18748   6.388   2.239   8.600 -0.9362 -0.3721  1.1233
  136MOL0     H18749   6.570   2.318   8.461 -2.1242  1.3522  0.1291
  136MOL0     H18750   6.808   2.504   8.325  1.0774 -0.0915  0.6364
  136MOL0     H18751   6.948   2.625   8.160  0.9674  0.9552  0.6164
  136MOL0     H18752   7.702   3.032   7.185 -1.0823  0.0885 -1.1101
  136MOL0     H18753   7.522   2.880   7.138 -1.1057 -0.8427  0.8172
  136MOL0     H18754   7.305   2.601   7.203 -0.0704 -0.8337  0.2362
  136MOL0     H18755   7.195   2.391   7.106  1.8304  1.2196  0.6308
  136MOL0     H18756   7.091   2.206   7.019 -0.1266  0.9542 -1.0283
  136MOL0     H18757   7.026   2.175   7.176 -2.4872  1.1731  0.0860
  136MOL0     H18758   6.920   2.122   6.904  3.3306  0.7986  1.8740
  136MOL0     H18759   6.797   2.140   7.027 -1.2701 -1.1249 -2.4855
  136MOL0     H18760   6.955   1.955   7.148  2.3441  1.6083 -0.5157
  136MOL0     H18761   6.829   1.920   7.045 -1.0511  2.6644  0.9430
  136MOL0     H18762   7.032   1.791   6.994  2.0492 -1.8712 -4.5053
  136MOL0     H18763   7.124   1.947   6.963 -1.0062  1.1400 -0.3134
  136MOL0     H18764   6.937   1.880   6.598 -0.2169 -0.1915 -0.2887
  136MOL0     H18765   6.821   2.510   7.226 -0.8925 -0.1929  0.0115
  136MOL0     H18766   6.889   2.746   7.443  1.7894 -0.7088  0.6466
  136MOL0     H18767   6.894   2.862   7.310  2.1839 -0.3169 -1.1750
  136MOL0     H18768   6.780   2.719   7.296  1.6709  0.1665 -4.6461
  137MOL0     O18769   0.284  10.846   9.234 -0.0847 -0.2174  1.2589
  137MOL0     C18770   0.292  10.733   9.171  0.7708 -0.3200  0.0817
  137MOL0     O18771   0.319  10.619   9.239 -1.9926 -1.2392 -0.2851
  137MOL0     C18772   0.370  10.646   9.372 -0.0871  0.5845 -0.1367
  137MOL0     C18773   0.273  10.667   9.469 -0.5335  0.5870 -0.5498
  137MOL0     C18774   0.300  10.678   9.609 -0.6849 -0.7250  0.4042
  137MOL0     C18775   0.433  10.687   9.645  0.6377 -0.5835  0.1009
  137MOL0     O18776   0.458  10.714   9.779  0.2461 -1.2727 -0.7142
  137MOL0     C18777   0.357  10.674   9.879 -0.8227 -0.8819 -0.0191
  137MOL0     C18778   0.405  10.686  10.038  0.2758  0.0538  0.1786
  137MOL0     C18779   0.442  10.832  10.086  0.4792 -0.0162 -0.2099
  137MOL0     C18780   0.515  10.836  10.214 -0.5208 -0.2414  0.0523
  137MOL0     C18781   0.455  10.761  10.333  1.0876  0.8387  0.1925
  137MOL0     C18782   0.555  10.760  10.453  0.1243  0.3015 -0.8229
  137MOL0     C18783   0.537  10.660  10.576 -0.2136 -0.2525  0.1804
  137MOL0     C18784   0.450  10.540  10.547 -0.9355 -0.6333  1.5214
  137MOL0     N18785   0.402  10.476  10.670 -0.5221  0.4118  0.6784
  137MOL0     C18786   0.470  10.424  10.771  0.2076  1.0420  0.0084
  137MOL0     C18787   0.381  10.375  10.863  0.0215  0.9819 -0.8782
  137MOL0     C18788   0.423  10.310  10.991  0.2877  0.2498 -0.5083
  137MOL0     C18789   0.373  10.379  11.119  0.0703  0.5139 -0.4360
  137MOL0     C18790   0.227  10.342  11.148  0.4757  0.1035  0.6487
  137MOL0     C18791   0.177  10.431  11.267  1.6942 -0.0457  0.8178
  137MOL0     O18792   0.041  10.416  11.259 -0.3155  0.3136  0.2735
  137MOL0     C18793  -0.024  10.461  11.379  0.0726 -0.0028  0.4653
  137MOL0     C18794   0.037  10.545  11.477 -0.3439  0.3319  1.0140
  137MOL0     C18795  -0.025  10.599  11.590 -0.2329 -0.2375 -0.5397
  137MOL0     C18796   0.053  10.686  11.693 -0.5315 -0.0031  0.0206
  137MOL0     C18797  -0.159  10.561  11.598  0.3164  0.4798 -0.6765
  137MOL0     C18798  -0.241  10.605  11.707 -0.6054  0.5538  0.1313
  137MOL0     O18799  -0.307  10.724  11.691 -0.1206 -0.0968  0.1282
  137MOL0     C18800  -0.425  10.760  11.760 -0.8678 -0.0533  0.4933
  137MOL0     C18801  -0.519  10.838  11.693  0.8448 -0.5077  0.2919
  137MOL0     C18802  -0.618  10.902  11.767 -0.1882  0.2716  0.4039
  137MOL0     C18803  -0.644  10.859  11.900 -0.4659 -0.2719  0.3165
  137MOL0     O18804  -0.760  10.906  11.958 -0.5178 -0.3764 -0.1049
  137MOL0     C18805  -0.782  10.886  12.096 -0.5422  0.0476  0.3678
  137MOL0     C18806  -0.913  10.944  12.152  0.2710 -0.1408  0.7966
  137MOL0     C18807  -1.037  10.867  12.107  0.1264  0.4922 -0.7186
  137MOL0     C18808  -1.154  10.949  12.156 -0.1913  0.8827  0.0135
  137MOL0     C18809  -1.167  10.962  12.311 -0.3423  0.1656  0.6260
  137MOL0     C18810  -1.174  10.839  12.392 -0.0912  0.5257  1.6026
  137MOL0     C18811  -1.267  10.719  12.340  0.9098 -1.2070  1.2553
  137MOL0     C18812  -1.250  10.590  12.413 -0.0070  0.8605  0.8880
  137MOL0    Cl18813  -1.272  10.619  12.585 -0.1201  0.0345 -0.1971
  137MOL0     C18814  -0.558  10.770  11.966 -0.6069  0.5770  0.1045
  137MOL0     C18815  -0.442  10.726  11.891  0.8744  0.5736  0.3037
  137MOL0     O18816  -0.254  10.521  11.800 -0.4528 -0.4342  0.0688
  137MOL0     C18817  -0.222  10.485  11.506  0.2268  0.9043 -1.0244
  137MOL0     C18818  -0.166  10.438  11.395  0.1489 -0.3979 -0.1204
  137MOL0     N18819   0.261  10.422  10.823 -0.5767 -0.1491 -0.2377
  137MOL0     N18820   0.270  10.472  10.709  0.0087 -0.5646 -0.8201
  137MOL0     C18821   0.531  10.667   9.552  0.8853  0.0968  0.7810
  137MOL0     C18822   0.506  10.655   9.409  1.0024 -0.5206 -0.6820
  137MOL0     C18823   0.299  10.732   9.021  0.1754 -0.1406 -0.5438
  137MOL0     C18824   0.333  10.610   8.962 -0.4284  0.5506 -0.3525
  137MOL0     C18825   0.347  10.598   8.820  0.0190  0.0600 -0.6443
  137MOL0     C18826   0.324  10.707   8.736 -0.3443 -0.6065 -0.4958
  137MOL0     O18827   0.338  10.723   8.603 -0.4407 -0.0674  0.6611
  137MOL0     C18828   0.325  10.609   8.517  0.6256  0.7328 -0.3189
  137MOL0     C18829   0.174  10.607   8.489 -0.6747 -0.3354 -0.4417
  137MOL0     C18830   0.131  10.730   8.407 -0.8787  0.1187 -0.8299
  137MOL0     C18831   0.063  10.847   8.491  0.5701 -0.4439 -0.1644
  137MOL0     C18832  -0.019  10.936   8.411  0.1648  0.3345  0.3113
  137MOL0     C18833  -0.087  11.003   8.335  0.3409  1.4428 -0.0224
  137MOL0     C18834   0.290  10.821   8.791 -0.4390 -0.3754  0.2798
  137MOL0     C18835   0.276  10.835   8.933 -0.3672  0.0937  1.2327
  137MOL0     C18836   0.276  10.978   8.975 -0.5756  0.0989  0.1675
  137MOL0     H18837   0.167  10.666   9.447 -0.8509 -1.0617  0.8436
  137MOL0     H18838   0.215  10.673   9.676 -1.3988 -1.3483 -0.5235
  137MOL0     H18839   0.319  10.575   9.852 -0.4566 -0.4982 -2.0695
  137MOL0     H18840   0.277  10.748   9.876 -0.3274 -0.3528 -2.8109
  137MOL0     H18841   0.337  10.642  10.112  2.3461 -2.3856  0.7602
  137MOL0     H18842   0.496  10.630  10.061  0.2365  1.1070  3.3888
  137MOL0     H18843   0.500  10.889  10.013 -1.2978  3.4303  0.8351
  137MOL0     H18844   0.356  10.897  10.108  0.9541 -0.2358  2.7274
  137MOL0     H18845   0.615  10.796  10.195 -0.1096  1.9639 -3.1332
  137MOL0     H18846   0.535  10.939  10.243  2.8991 -0.4208 -1.2646
  137MOL0     H18847   0.463  10.659  10.293  3.6712  2.2370 -3.3945
  137MOL0     H18848   0.358  10.803  10.362  0.8814 -0.8342  2.1476
  137MOL0     H18849   0.650  10.728  10.408 -0.2467 -0.3265 -1.1770
  137MOL0     H18850   0.573  10.859  10.496  2.3865 -0.5618  0.3786
  137MOL0     H18851   0.488  10.714  10.658  2.8316  0.2351  1.8144
  137MOL0     H18852   0.633  10.632  10.620  0.0481  1.3851  0.6915
  137MOL0     H18853   0.367  10.569  10.482 -1.4224 -1.8829  1.5463
  137MOL0     H18854   0.515  10.471  10.491 -0.0019  0.2728  1.4629
  137MOL0     H18855   0.576  10.405  10.780  0.3045  1.8437  0.7377
  137MOL0     H18856   0.530  10.334  11.001 -0.2470  2.8003 -0.1153
  137MOL0     H18857   0.401  10.203  10.992 -1.4942  0.5595 -1.9949
  137MOL0     H18858   0.437  10.348  11.202  0.7358  0.0737 -1.0924
  137MOL0     H18859   0.381  10.487  11.109 -2.1117  1.0904  2.7504
  137MOL0     H18860   0.160  10.342  11.061  0.9325 -0.1445  0.2983
  137MOL0     H18861   0.229  10.241  11.189  2.2439 -0.3744 -0.5362
  137MOL0     H18862   0.208  10.399  11.367 -0.0511  3.8288  2.8313
  137MOL0     H18863   0.204  10.537  11.270 -0.2956  0.4782  1.6507
  137MOL0     H18864   0.138  10.584  11.465 -0.5270 -0.0873 -3.0313
  137MOL0     H18865   0.054  10.791  11.661 -1.6113  0.6069  1.7931
  137MOL0     H18866   0.154  10.645  11.699  0.1417  1.5832  0.0969
  137MOL0     H18867   0.011  10.683  11.794  0.5431 -1.8444  0.4586
  137MOL0     H18868  -0.498  10.865  11.589 -0.7682  1.7420  0.4710
  137MOL0     H18869  -0.694  10.969  11.727  0.4834  0.3282 -0.8225
  137MOL0     H18870  -0.784  10.778  12.109 -0.3753  0.0578  0.4881
  137MOL0     H18871  -0.697  10.918  12.157 -0.6461 -1.2007  1.1855
  137MOL0     H18872  -0.906  10.937  12.261  0.2211  3.2947  1.1092
  137MOL0     H18873  -0.926  11.051  12.134  0.9240  0.1964  2.1401
  137MOL0     H18874  -1.055  10.773  12.161 -1.2321  1.5827  0.8260
  137MOL0     H18875  -1.045  10.840  12.001 -2.6948 -1.6913 -0.0768
  137MOL0     H18876  -1.245  10.904  12.114  1.2912 -1.5280 -0.8613
  137MOL0     H18877  -1.155  11.051  12.118 -0.4688  1.1073  0.6159
  137MOL0     H18878  -1.089  11.031  12.343  0.6885 -0.6008 -0.1347
  137MOL0     H18879  -1.263  11.015  12.307 -0.2515  0.2851 -0.2555
  137MOL0     H18880  -1.213  10.876  12.487  0.5303  0.0177  2.0631
  137MOL0     H18881  -1.076  10.795  12.408 -0.5463 -1.7581 -1.0480
  137MOL0     H18882  -1.284  10.706  12.233  1.6082  1.6497  0.7095
  137MOL0     H18883  -1.361  10.769  12.365  1.6047 -0.5603  2.6719
  137MOL0     H18884  -1.148  10.554  12.395  0.0959  0.9394  1.3011
  137MOL0     H18885  -1.324  10.519  12.374  1.8365 -1.0251  0.6191
  137MOL0     H18886  -0.568  10.719  12.061  0.4749  0.1654  0.0204
  137MOL0     H18887  -0.385  10.646  11.937  0.7235 -0.7650 -1.7268
  137MOL0     H18888  -0.326  10.466  11.528  0.3246 -0.8135 -1.8364
  137MOL0     H18889  -0.225  10.396  11.315 -1.2375  0.5546  0.3486
  137MOL0     H18890   0.635  10.673   9.581  1.5191  0.6288 -1.4344
  137MOL0     H18891   0.586  10.652   9.336  1.8417 -0.0679  0.1920
  137MOL0     H18892   0.323  10.520   9.022  1.3093 -0.7499 -1.8716
  137MOL0     H18893   0.374  10.502   8.778  3.3805  0.7482 -0.3729
  137MOL0     H18894   0.390  10.622   8.430 -0.6168  2.6196 -1.0273
  137MOL0     H18895   0.357  10.517   8.567 -1.5410  1.6485  3.0781
  137MOL0     H18896   0.125  10.601   8.586  1.8820  0.5981  1.0116
  137MOL0     H18897   0.140  10.523   8.428  0.1818 -0.4200 -0.8251
  137MOL0     H18898   0.200  10.767   8.330 -0.9448 -0.8043 -1.3585
  137MOL0     H18899   0.049  10.693   8.345 -0.2488 -1.4734 -0.7674
  137MOL0     H18900   0.141  10.893   8.552 -2.0919  1.1608  2.2806
  137MOL0     H18901  -0.008  10.798   8.558  1.1800 -0.7308  0.2915
  137MOL0     H18902  -0.138  11.069   8.269 -1.0228  0.4345 -0.0185
  137MOL0     H18903   0.286  10.916   8.738 -0.1985  0.3959  1.6028
  137MOL0     H18904   0.256  11.044   8.890  0.7089  0.4883  0.1410
  137MOL0     H18905   0.194  10.998   9.044 -0.3388 -0.3949  0.6017
  137MOL0     H18906   0.364  11.008   9.033 -2.6121 -0.1418  3.6408
  138MOL0     O18907   3.652   6.111   3.394 -0.2245 -0.4619 -0.0884
  138MOL0     C18908   3.639   6.004   3.462 -0.1027  0.5609  0.0273
  138MOL0     O18909   3.730   5.947   3.544 -0.3491 -0.7923  0.6129
  138MOL0     C18910   3.820   6.039   3.598 -0.1474  1.1505  0.8918
  138MOL0     C18911   3.781   6.099   3.714  0.7554 -0.0098  0.1247
  138MOL0     C18912   3.862   6.194   3.776  0.1586  0.0099 -0.4534
  138MOL0     C18913   3.985   6.220   3.724 -0.2702 -0.2040  0.9332
  138MOL0     O18914   4.055   6.323   3.783 -0.1444  0.4638  0.1544
  138MOL0     C18915   4.138   6.408   3.712 -0.2444 -0.2350  1.1372
  138MOL0     C18916   4.147   6.547   3.778  0.1866  1.8608 -0.0299
  138MOL0     C18917   4.249   6.639   3.715  0.5289  0.1240  0.3390
  138MOL0     C18918   4.195   6.740   3.610  0.2957 -0.3467 -1.1992
  138MOL0     C18919   4.300   6.836   3.562 -0.4466 -0.2234  0.6339
  138MOL0     C18920   4.239   6.948   3.486 -0.3983 -0.2639  0.5301
  138MOL0     C18921   4.313   6.963   3.356  0.3265 -0.0871 -0.4387
  138MOL0     C18922   4.232   7.067   3.265 -0.1354  0.2850  0.8923
  138MOL0     N18923   4.299   7.083   3.136 -0.4213 -0.7946 -0.1818
  138MOL0     C18924   4.377   7.191   3.116 -1.1101  0.1495 -0.1647
  138MOL0     C18925   4.431   7.159   2.993 -0.1333 -0.1527  0.1431
  138MOL0     C18926   4.537   7.242   2.926  0.0490 -0.4719  0.8983
  138MOL0     C18927   4.654   7.264   3.017 -0.4848 -0.1226  0.0231
  138MOL0     C18928   4.765   7.154   3.028  0.9483  0.4750  0.5098
  138MOL0     C18929   4.733   7.045   3.128 -0.8054  0.3464  0.0300
  138MOL0     O18930   4.706   7.111   3.255  0.0266  0.7587 -0.1585
  138MOL0     C18931   4.702   7.035   3.369 -1.2333  0.5016 -0.4457
  138MOL0     C18932   4.733   6.897   3.373 -0.8522  0.8955  0.7057
  138MOL0     C18933   4.749   6.834   3.499 -0.4726  1.0919  0.8897
  138MOL0     C18934   4.757   6.681   3.493 -0.6192  0.6096 -0.7150
  138MOL0     C18935   4.739   6.910   3.616  0.3259  0.8007 -0.1823
  138MOL0     C18936   4.738   6.850   3.761 -0.9982  0.1215 -0.0644
  138MOL0     O18937   4.741   6.715   3.777 -0.0647  0.7420  0.5180
  138MOL0     C18938   4.728   6.661   3.906 -0.5392  1.1434 -0.7973
  138MOL0     C18939   4.613   6.584   3.931  0.0978  0.6079 -0.2333
  138MOL0     C18940   4.585   6.542   4.067  0.0265 -0.8224 -0.2558
  138MOL0     C18941   4.678   6.572   4.165  0.0405 -0.2951 -1.3172
  138MOL0     O18942   4.662   6.525   4.293 -0.4122 -0.1508  0.1978
  138MOL0     C18943   4.540   6.543   4.353  0.8109  0.2545  0.6025
  138MOL0     C18944   4.553   6.469   4.488 -0.6440  0.4870  0.1190
  138MOL0     C18945   4.427   6.473   4.567 -0.0385  0.6759 -0.0395
  138MOL0     C18946   4.425   6.421   4.706  0.3421  0.6829  0.2854
  138MOL0     C18947   4.280   6.439   4.748 -0.2212 -0.2282 -1.0608
  138MOL0     C18948   4.257   6.408   4.901  0.2837  0.5784 -0.3543
  138MOL0     C18949   4.109   6.375   4.925  0.9224 -0.9962  0.1368
  138MOL0     C18950   4.080   6.312   5.063  0.7823 -0.5603  0.7026
  138MOL0    Cl18951   3.903   6.274   5.051  0.1490  0.6863  0.2819
  138MOL0     C18952   4.800   6.624   4.128  0.4764  0.0820 -0.9817
  138MOL0     C18953   4.821   6.675   4.004  0.3142 -0.3094 -0.4079
  138MOL0     O18954   4.735   6.931   3.853  0.1571  0.7117  0.3965
  138MOL0     C18955   4.724   7.053   3.605 -0.1608  0.1254 -0.4556
  138MOL0     C18956   4.711   7.112   3.490  0.5522  0.4932 -0.1705
  138MOL0     N18957   4.378   7.042   2.938 -0.6646  0.4262  0.8440
  138MOL0     N18958   4.302   6.996   3.030 -0.1424 -0.0331 -0.3955
  138MOL0     C18959   4.034   6.133   3.613 -0.1964 -0.3001 -1.4388
  138MOL0     C18960   3.955   6.042   3.555 -0.1089  0.4028 -0.3481
  138MOL0     C18961   3.530   5.905   3.421 -0.5580  0.8411 -0.3784
  138MOL0     C18962   3.466   5.932   3.300 -0.6356 -0.5974  0.2239
  138MOL0     C18963   3.373   5.848   3.248  0.0423 -1.0950  0.2640
  138MOL0     C18964   3.320   5.740   3.316  0.0190 -0.4315  0.3749
  138MOL0     O18965   3.212   5.670   3.260  0.2676  0.1949  0.4704
  138MOL0     C18966   3.150   5.551   3.316 -0.3890 -0.3826  0.4531
  138MOL0     C18967   3.036   5.588   3.414 -0.6824 -0.3126  1.1573
  138MOL0     C18968   2.943   5.698   3.357 -0.3907  0.3488  0.3997
  138MOL0     C18969   2.808   5.718   3.435 -0.2808  0.6785 -0.6864
  138MOL0     C18970   2.726   5.595   3.471  0.6894 -0.2002 -0.1237
  138MOL0     C18971   2.660   5.497   3.491 -0.2003  0.2643 -0.9950
  138MOL0     C18972   3.377   5.707   3.446  0.5327 -0.6930  0.7081
  138MOL0     C18973   3.481   5.789   3.495 -0.2130  0.3138 -0.1315
  138MOL0     C18974   3.527   5.749   3.636 -0.0848 -0.0324  0.2645
  138MOL0     H18975   3.683   6.070   3.750  1.0346 -0.6224  0.3932
  138MOL0     H18976   3.831   6.246   3.867 -2.9567 -0.0809 -1.3299
  138MOL0     H18977   4.098   6.429   3.613 -0.7134  3.0543  1.9145
  138MOL0     H18978   4.237   6.366   3.693 -0.9713 -0.2825 -3.7983
  138MOL0     H18979   4.048   6.593   3.766 -0.3155  1.0360  0.8288
  138MOL0     H18980   4.173   6.533   3.883 -1.5687 -0.4010  0.1662
  138MOL0     H18981   4.300   6.699   3.792  0.5609  1.0317 -0.3713
  138MOL0     H18982   4.327   6.581   3.665  0.0843  1.8118 -2.5014
  138MOL0     H18983   4.140   6.690   3.530 -2.1167  2.0588 -1.1499
  138MOL0     H18984   4.115   6.796   3.658  0.4197 -1.0609 -0.1239
  138MOL0     H18985   4.370   6.783   3.496 -1.3371  0.2608 -0.7604
  138MOL0     H18986   4.347   6.874   3.652  0.7485  0.6758 -0.3382
  138MOL0     H18987   4.134   6.931   3.459  0.6271 -1.2854 -3.5368
  138MOL0     H18988   4.250   7.041   3.543 -2.7669  0.9965 -0.9091
  138MOL0     H18989   4.343   6.873   3.302 -0.5345  0.3877 -1.7702
  138MOL0     H18990   4.410   7.013   3.366  1.0097 -1.1343 -1.4949
  138MOL0     H18991   4.127   7.042   3.246  0.2453  0.1946 -1.2429
  138MOL0     H18992   4.246   7.168   3.305  4.0183 -0.0972  0.8584
  138MOL0     H18993   4.397   7.272   3.184  0.9029  0.6445 -1.2751
  138MOL0     H18994   4.500   7.343   2.905 -1.1760 -1.3514 -1.5603
  138MOL0     H18995   4.568   7.185   2.838 -0.8038 -3.5677  2.4740
  138MOL0     H18996   4.698   7.358   2.982  3.1900 -2.1520 -1.2689
  138MOL0     H18997   4.620   7.277   3.120 -1.0106 -1.9594  0.1164
  138MOL0     H18998   4.773   7.107   2.929 -3.5544  0.8314 -0.2611
  138MOL0     H18999   4.855   7.205   3.062 -0.2197  2.1941  1.1987
  138MOL0     H19000   4.663   6.968   3.094  0.7141 -1.0022 -0.1764
  138MOL0     H19001   4.826   6.989   3.137  0.0312  1.8523  1.1072
  138MOL0     H19002   4.726   6.839   3.282 -0.9624  4.0674 -1.4746
  138MOL0     H19003   4.770   6.636   3.394  0.5484  0.6291 -0.5886
  138MOL0     H19004   4.669   6.642   3.545  0.8699  0.8977  2.2660
  138MOL0     H19005   4.844   6.658   3.556 -0.7332  3.4877  0.6182
  138MOL0     H19006   4.548   6.569   3.846  1.5478  0.2701 -1.3080
  138MOL0     H19007   4.489   6.492   4.077  0.0605 -1.1530 -1.3964
  138MOL0     H19008   4.525   6.650   4.368  0.9684  0.3092  0.3655
  138MOL0     H19009   4.458   6.495   4.299 -0.0262 -0.5656  2.5032
  138MOL0     H19010   4.570   6.361   4.485  2.0572  0.8639 -1.6897
  138MOL0     H19011   4.624   6.521   4.554 -1.3554 -0.7808  1.9804
  138MOL0     H19012   4.367   6.407   4.503  0.0863  1.0233 -0.5290
  138MOL0     H19013   4.373   6.568   4.562 -0.3632  0.4319 -2.2984
  138MOL0     H19014   4.493   6.484   4.764  4.9786 -0.1714 -3.5152
  138MOL0     H19015   4.453   6.315   4.699 -1.2858  0.2904 -0.7360
  138MOL0     H19016   4.258   6.546   4.737 -1.1480 -0.3095 -0.1931
  138MOL0     H19017   4.214   6.378   4.687  0.9834 -1.6709 -0.9646
  138MOL0     H19018   4.282   6.498   4.959  1.7179 -0.4962  0.8038
  138MOL0     H19019   4.316   6.321   4.933 -1.9356  0.0743  2.8767
  138MOL0     H19020   4.073   6.298   4.856  0.2642  0.0705 -0.7596
  138MOL0     H19021   4.051   6.468   4.918  0.6344 -1.2696 -1.5970
  138MOL0     H19022   4.096   6.377   5.150 -4.9505  1.0429  0.9823
  138MOL0     H19023   4.139   6.222   5.082 -1.4387 -2.2234  0.1397
  138MOL0     H19024   4.877   6.638   4.203  0.4666  1.1478 -1.1528
  138MOL0     H19025   4.913   6.725   3.977 -1.4875  2.5984 -1.6765
  138MOL0     H19026   4.739   7.120   3.689  0.8189  0.7522 -1.0979
  138MOL0     H19027   4.703   7.220   3.496 -0.3583  0.4078  0.3487
  138MOL0     H19028   4.135   6.130   3.574  0.5177  0.8941  0.2060
  138MOL0     H19029   3.992   5.989   3.468 -0.9215 -3.4870  1.4199
  138MOL0     H19030   3.487   6.020   3.240 -0.7953  0.0486  1.1026
  138MOL0     H19031   3.338   5.866   3.147  0.8455  3.2468  0.5813
  138MOL0     H19032   3.112   5.484   3.238 -1.0029  1.1223 -0.5691
  138MOL0     H19033   3.229   5.504   3.375 -0.9915 -0.2060  1.4273
  138MOL0     H19034   3.101   5.618   3.497 -0.5793  1.2254  0.5432
  138MOL0     H19035   2.982   5.497   3.442  2.0671 -2.3702  0.2670
  138MOL0     H19036   3.002   5.789   3.371 -1.6111  0.9882  1.6450
  138MOL0     H19037   2.918   5.681   3.251 -3.8148 -1.4212  1.3382
  138MOL0     H19038   2.746   5.792   3.384 -1.6120 -0.4377 -0.7291
  138MOL0     H19039   2.829   5.765   3.532 -1.1664  1.7079 -0.9721
  138MOL0     H19040   2.600   5.416   3.528  1.6248 -0.3247  0.9117
  138MOL0     H19041   3.331   5.635   3.513  1.1360 -4.0900 -2.2048
  138MOL0     H19042   3.633   5.722   3.636 -0.0662  0.0095 -0.7483
  138MOL0     H19043   3.502   5.837   3.697 -2.4804 -1.3327  1.2965
  138MOL0     H19044   3.467   5.672   3.685  0.2101  1.6646  3.5895
  139MOL0     O19045   5.470   7.806   1.256 -0.3128  0.5458  0.3446
  139MOL0     C19046   5.456   7.837   1.136 -0.4257 -0.1349 -0.0599
  139MOL0     O19047   5.390   7.754   1.044 -0.2012 -0.1530  0.4836
  139MOL0     C19048   5.358   7.622   1.080  0.0350  0.9170 -0.0539
  139MOL0     C19049   5.411   7.532   0.991  0.1118  0.0131  0.1805
  139MOL0     C19050   5.394   7.394   1.007 -0.5168  0.2213 -0.0771
  139MOL0     C19051   5.302   7.341   1.098  0.4207 -0.8671  0.2266
  139MOL0     O19052   5.262   7.207   1.097  0.1599 -0.7042 -0.2126
  139MOL0     C19053   5.373   7.121   1.121 -0.5449 -0.3102  0.5391
  139MOL0     C19054   5.354   7.039   1.244  1.0892  0.6803  0.0976
  139MOL0     C19055   5.206   6.966   1.253  0.7524  0.3371 -0.1341
  139MOL0     C19056   5.236   6.864   1.365  0.1230 -0.2395 -0.4075
  139MOL0     C19057   5.113   6.795   1.423 -0.9699  0.4362 -0.1242
  139MOL0     C19058   5.066   6.684   1.321 -0.2803  0.1911 -1.0352
  139MOL0     C19059   4.918   6.652   1.336 -0.8027 -0.1984 -0.2921
  139MOL0     C19060   4.884   6.549   1.437  0.4576  1.3468  0.2626
  139MOL0     N19061   4.743   6.511   1.422 -0.0485 -0.0789 -0.8677
  139MOL0     C19062   4.641   6.548   1.501 -0.1943 -0.3557  0.7212
  139MOL0     C19063   4.530   6.480   1.456 -0.3322 -0.0293  0.7705
  139MOL0     C19064   4.386   6.475   1.509  0.2848 -0.3592 -0.4185
  139MOL0     C19065   4.290   6.552   1.425  0.1825  1.0683  0.9932
  139MOL0     C19066   4.143   6.547   1.473 -0.1586 -0.1129 -1.0304
  139MOL0     C19067   4.129   6.647   1.597 -0.6517  0.3906  0.6678
  139MOL0     O19068   3.990   6.652   1.643 -0.2042  0.3144  0.6681
  139MOL0     C19069   3.969   6.750   1.739  0.1972 -0.4935  0.1503
  139MOL0     C19070   4.036   6.863   1.766 -0.5314  0.4754  0.3314
  139MOL0     C19071   4.006   6.935   1.885 -0.5654 -0.1485  0.8296
  139MOL0     C19072   4.108   7.042   1.915  0.1057  0.5055  0.3676
  139MOL0     C19073   3.887   6.908   1.966  0.4279  0.3596 -0.2795
  139MOL0     C19074   3.850   6.966   2.098  0.2745  0.5728  0.4696
  139MOL0     O19075   3.736   6.928   2.155 -0.6519 -0.6016 -0.5016
  139MOL0     C19076   3.674   6.985   2.262  0.0285 -0.2108 -0.2465
  139MOL0     C19077   3.535   6.981   2.271 -0.2753 -0.2011  0.0894
  139MOL0     C19078   3.468   7.039   2.378 -0.2934  0.3632  0.6584
  139MOL0     C19079   3.541   7.110   2.474 -0.4054 -0.2944  0.4759
  139MOL0     O19080   3.468   7.170   2.569 -0.6417  0.1601  0.0265
  139MOL0     C19081   3.534   7.235   2.673  0.3686 -0.3245  0.5624
  139MOL0     C19082   3.440   7.309   2.767  0.1924 -1.0379 -0.2858
  139MOL0     C19083   3.524   7.379   2.870  0.4336 -0.5966 -0.1354
  139MOL0     C19084   3.468   7.520   2.890  1.1406  0.2027  0.0570
  139MOL0     C19085   3.565   7.617   2.973  0.5380  0.6970  0.7017
  139MOL0     C19086   3.517   7.755   2.984  0.5803 -0.3171  0.5043
  139MOL0     C19087   3.403   7.771   3.094 -0.1026 -0.4989  0.3472
  139MOL0     C19088   3.358   7.913   3.103 -0.3072  0.6153 -0.1205
  139MOL0    Cl19089   3.254   7.952   2.971 -0.1216  0.1272  0.1193
  139MOL0     C19090   3.684   7.113   2.465  0.1852  0.1295  0.0072
  139MOL0     C19091   3.745   7.059   2.359 -0.3570  0.2767 -0.4837
  139MOL0     O19092   3.933   7.040   2.147  0.8141 -0.3986 -0.3220
  139MOL0     C19093   3.817   6.788   1.929 -0.4208 -0.1526  0.6164
  139MOL0     C19094   3.850   6.719   1.815  0.5267 -0.8085  1.0409
  139MOL0     N19095   4.569   6.392   1.362  0.4476  0.4002 -0.3615
  139MOL0     N19096   4.696   6.411   1.345  0.6016  0.3135 -0.7583
  139MOL0     C19097   5.229   7.439   1.181 -0.4437  0.4035  0.4953
  139MOL0     C19098   5.258   7.572   1.180 -0.0160  1.4609  0.1963
  139MOL0     C19099   5.489   7.976   1.112 -0.1720  0.9051 -0.3651
  139MOL0     C19100   5.430   8.039   1.007  0.6735 -0.8464 -0.0811
  139MOL0     C19101   5.473   8.172   0.968 -0.0516  0.2856  0.8638
  139MOL0     C19102   5.581   8.237   1.028  0.0448  0.2506 -0.5403
  139MOL0     O19103   5.638   8.354   0.988  0.6523  0.1311  0.3975
  139MOL0     C19104   5.615   8.395   0.858  0.7084  0.0791  0.4814
  139MOL0     C19105   5.681   8.521   0.830  0.4231 -0.3442  0.0582
  139MOL0     C19106   5.587   8.639   0.853 -0.8364  0.7942 -0.0957
  139MOL0     C19107   5.661   8.760   0.903 -0.2880 -0.1226  0.1917
  139MOL0     C19108   5.757   8.826   0.807 -0.5850  0.4149  0.1661
  139MOL0     C19109   5.828   8.888   0.731  0.5767  0.6981  0.6587
  139MOL0     C19110   5.633   8.178   1.142 -0.0409  0.3819  0.5809
  139MOL0     C19111   5.593   8.047   1.179 -0.3544  0.5909 -1.2503
  139MOL0     C19112   5.679   7.985   1.291 -0.8548  0.4333  0.9954
  139MOL0     H19113   5.484   7.566   0.918 -0.0136 -0.9035 -0.3833
  139MOL0     H19114   5.448   7.324   0.945 -0.5858  1.1911 -1.2666
  139MOL0     H19115   5.472   7.168   1.118 -1.2390  1.1808 -0.9389
  139MOL0     H19116   5.375   7.063   1.028  0.5948  0.3171  0.1571
  139MOL0     H19117   5.433   6.965   1.261 -1.1127 -0.9103  5.4792
  139MOL0     H19118   5.367   7.111   1.325 -0.5493 -0.6322  1.5928
  139MOL0     H19119   5.138   7.045   1.286  2.0071  2.1865 -1.7181
  139MOL0     H19120   5.178   6.910   1.163 -1.9539 -0.0572  0.8508
  139MOL0     H19121   5.307   6.786   1.338  0.9156  0.0393  0.7659
  139MOL0     H19122   5.280   6.916   1.451 -0.2138 -1.6289  0.6420
  139MOL0     H19123   5.036   6.867   1.452  0.2658  2.5009 -1.7029
  139MOL0     H19124   5.142   6.743   1.515 -0.4636 -0.1002 -0.5822
  139MOL0     H19125   5.072   6.734   1.224 -2.1367  3.3143  0.3022
  139MOL0     H19126   5.117   6.588   1.334 -0.4726  0.0974 -0.9727
  139MOL0     H19127   4.889   6.603   1.242  0.1061 -2.9735  0.7778
  139MOL0     H19128   4.861   6.745   1.347 -1.2573 -0.6684  1.8268
  139MOL0     H19129   4.949   6.463   1.418 -1.0110 -0.0913  1.3726
  139MOL0     H19130   4.908   6.592   1.534  2.6050 -0.4347  0.5931
  139MOL0     H19131   4.646   6.632   1.570  0.5731 -0.2681  0.5673
  139MOL0     H19132   4.369   6.513   1.610 -1.5205  2.9941 -1.8019
  139MOL0     H19133   4.348   6.373   1.511  0.9010 -0.5754  0.7472
  139MOL0     H19134   4.317   6.657   1.411 -2.3273  1.2916 -5.1119
  139MOL0     H19135   4.291   6.512   1.324  3.4551  3.6815 -0.2215
  139MOL0     H19136   4.072   6.593   1.403 -1.7670 -1.5773 -0.4476
  139MOL0     H19137   4.099   6.449   1.496 -1.7881  0.3374 -2.0976
  139MOL0     H19138   4.196   6.619   1.679  0.1299  2.6657  0.8744
  139MOL0     H19139   4.147   6.746   1.555 -2.2357 -0.3867 -2.1463
  139MOL0     H19140   4.121   6.893   1.706 -1.2447 -0.3986 -1.1901
  139MOL0     H19141   4.191   7.004   1.975  1.2276 -3.7320 -3.2954
  139MOL0     H19142   4.065   7.127   1.968 -1.7108 -0.6819  0.9223
  139MOL0     H19143   4.154   7.090   1.828 -3.5696  2.1728 -0.8743
  139MOL0     H19144   3.486   6.924   2.193  0.3801 -2.2802  1.1300
  139MOL0     H19145   3.359   7.034   2.380 -0.2939  0.5421  1.3962
  139MOL0     H19146   3.593   7.167   2.736  3.2631  0.7875 -0.7399
  139MOL0     H19147   3.598   7.302   2.614  0.3753 -1.8165 -1.2577
  139MOL0     H19148   3.378   7.387   2.721  2.5188  1.4558  0.5316
  139MOL0     H19149   3.377   7.234   2.816 -0.4184 -0.5956 -0.3805
  139MOL0     H19150   3.630   7.394   2.848 -0.3482  1.0353 -3.3765
  139MOL0     H19151   3.516   7.322   2.964 -3.4061  0.4490  0.3399
  139MOL0     H19152   3.372   7.522   2.942  0.6136  2.2786 -0.8782
  139MOL0     H19153   3.444   7.564   2.793 -0.2689  1.4480  0.9138
  139MOL0     H19154   3.573   7.576   3.074  2.9060  1.0694  0.7183
  139MOL0     H19155   3.657   7.601   2.916 -0.7850 -1.4584 -0.9561
  139MOL0     H19156   3.490   7.787   2.883  2.0838 -2.6345 -0.7114
  139MOL0     H19157   3.598   7.825   3.006  2.3001 -1.8376 -0.7346
  139MOL0     H19158   3.437   7.757   3.197  1.9728  0.2913 -0.1881
  139MOL0     H19159   3.318   7.707   3.070  0.5441 -0.5987 -1.8831
  139MOL0     H19160   3.443   7.982   3.103 -0.4393  0.7802 -0.1567
  139MOL0     H19161   3.309   7.936   3.198 -1.1104  4.1394 -1.2232
  139MOL0     H19162   3.748   7.161   2.539  0.9107 -0.4301 -0.2447
  139MOL0     H19163   3.853   7.069   2.367 -0.4735  5.2773 -1.9261
  139MOL0     H19164   3.723   6.751   1.970  0.9270 -2.0874  2.1274
  139MOL0     H19165   3.790   6.634   1.785 -2.2606  1.2223  0.4244
  139MOL0     H19166   5.160   7.391   1.248  1.9165 -0.0778  2.7350
  139MOL0     H19167   5.203   7.638   1.246 -1.8804 -0.8851  1.1200
  139MOL0     H19168   5.358   7.985   0.945 -0.7228  2.1351 -1.2351
  139MOL0     H19169   5.426   8.228   0.888 -0.0115  0.8519  1.2380
  139MOL0     H19170   5.663   8.325   0.789  1.9002 -0.6176  1.9555
  139MOL0     H19171   5.508   8.405   0.838  0.8163  1.3859  0.4617
  139MOL0     H19172   5.708   8.531   0.724 -1.0672 -3.5070 -0.7478
  139MOL0     H19173   5.774   8.545   0.882  1.6739 -1.4046 -1.5785
  139MOL0     H19174   5.531   8.671   0.765  0.5118  3.2533 -0.1518
  139MOL0     H19175   5.529   8.600   0.937 -0.3625 -1.0551 -0.5813
  139MOL0     H19176   5.708   8.730   0.997 -2.4836  1.5249  1.9034
  139MOL0     H19177   5.587   8.833   0.936  1.6991  3.0256 -1.8435
  139MOL0     H19178   5.891   8.937   0.659 -0.1639 -0.1343 -0.5966
  139MOL0     H19179   5.716   8.227   1.192  1.9019 -1.1065 -0.9809
  139MOL0     H19180   5.767   8.047   1.309  1.8965 -2.8156 -0.0939
  139MOL0     H19181   5.622   7.961   1.382  1.2156 -1.7455  1.8422
  139MOL0     H19182   5.718   7.894   1.244 -0.7991  1.2232 -0.5139
  140MOL0     O19183   7.879   9.952   7.734  0.2551 -0.6527  0.7920
  140MOL0     C19184   7.995   9.922   7.710  1.1597  0.3677  0.0127
  140MOL0     O19185   8.070   9.856   7.788 -0.5324  0.0650 -0.8587
  140MOL0     C19186   8.033   9.791   7.909 -0.4593 -0.6024  0.1571
  140MOL0     C19187   8.120   9.689   7.950 -1.0699  0.1281 -0.3987
  140MOL0     C19188   8.092   9.593   8.053  0.9128 -0.3514 -0.4944
  140MOL0     C19189   7.971   9.608   8.127  0.5496  0.4735  0.7308
  140MOL0     O19190   7.940   9.518   8.222 -0.4375 -0.6513  0.3440
  140MOL0     C19191   7.979   9.579   8.344  0.0967 -0.0526  0.2849
  140MOL0     C19192   7.853   9.632   8.419  0.1461 -0.0463  0.6683
  140MOL0     C19193   7.730   9.546   8.414 -0.0801  0.5540 -0.0621
  140MOL0     C19194   7.614   9.640   8.472 -0.6533  0.6264 -0.5898
  140MOL0     C19195   7.473   9.570   8.472 -0.2736 -0.0714  0.1508
  140MOL0     C19196   7.372   9.673   8.484 -0.2701  0.4451 -0.3690
  140MOL0     C19197   7.236   9.610   8.477  0.2111 -0.1112  0.7011
  140MOL0     C19198   7.130   9.720   8.463 -0.0941 -0.3381  0.1698
  140MOL0     N19199   7.000   9.660   8.457 -0.7933  0.0362  0.8801
  140MOL0     C19200   6.926   9.603   8.562 -1.0831  0.7853 -0.2082
  140MOL0     C19201   6.806   9.578   8.508  0.1365  0.1534 -0.2050
  140MOL0     C19202   6.675   9.525   8.553  0.7450 -0.2878  0.6388
  140MOL0     C19203   6.615   9.595   8.675  0.0453  0.2878  0.0861
  140MOL0     C19204   6.621   9.748   8.675  0.1395 -0.6686 -0.1617
  140MOL0     C19205   6.556   9.804   8.801 -0.2408  0.4252 -0.0978
  140MOL0     O19206   6.412   9.801   8.791 -0.2241  0.5360  0.1490
  140MOL0     C19207   6.369   9.888   8.697 -0.4334 -0.5207  0.0565
  140MOL0     C19208   6.314   9.835   8.579  0.2322  0.7334 -0.3762
  140MOL0     C19209   6.292   9.926   8.469  0.1449 -0.1825 -0.0194
  140MOL0     C19210   6.254   9.856   8.347  0.7419 -0.0903 -0.4447
  140MOL0     C19211   6.323  10.071   8.493 -0.4431  1.5233  0.2205
  140MOL0     C19212   6.335  10.168   8.382 -0.9478 -0.1459  0.3182
  140MOL0     O19213   6.241  10.172   8.287 -0.1863 -0.4835  0.1320
  140MOL0     C19214   6.256  10.268   8.192  0.4264 -0.3952  0.0950
  140MOL0     C19215   6.256  10.231   8.055 -0.1144 -0.2200 -0.0964
  140MOL0     C19216   6.244  10.321   7.950  0.2600 -0.5454  1.0195
  140MOL0     C19217   6.249  10.453   7.968  0.5331 -0.0195 -0.2631
  140MOL0     O19218   6.236  10.521   7.844  0.0445 -0.3073  0.1110
  140MOL0     C19219   6.252  10.664   7.855 -0.0710  0.6666  0.2702
  140MOL0     C19220   6.196  10.735   7.723 -0.1454  0.1818  0.5026
  140MOL0     C19221   6.048  10.719   7.686 -0.2186  0.5656 -0.4467
  140MOL0     C19222   5.941  10.727   7.803  0.8139 -0.5988 -0.3870
  140MOL0     C19223   5.792  10.765   7.765 -0.6483  0.6916  0.0668
  140MOL0     C19224   5.712  10.660   7.688  0.0016 -0.3021 -0.3683
  140MOL0     C19225   5.577  10.714   7.657  0.4740  0.3383 -0.1128
  140MOL0     C19226   5.481  10.610   7.600  0.9655 -0.4319 -0.4558
  140MOL0    Cl19227   5.342  10.684   7.502  0.3220 -0.6598 -0.2696
  140MOL0     C19228   6.250  10.494   8.094 -0.2371 -1.0740 -0.2275
  140MOL0     C19229   6.249  10.408   8.208  0.1819 -0.1258  0.3281
  140MOL0     O19230   6.424  10.253   8.405  1.1172 -0.0872 -0.4183
  140MOL0     C19231   6.344  10.116   8.624  1.2560 -0.3570 -0.2291
  140MOL0     C19232   6.360  10.028   8.722  0.3760 -0.6111 -0.5298
  140MOL0     N19233   6.816   9.598   8.375 -0.3553  0.3419 -0.1214
  140MOL0     N19234   6.932   9.641   8.341 -0.3315  0.8321  0.0791
  140MOL0     C19235   7.883   9.703   8.082  0.0820  0.7395  0.0222
  140MOL0     C19236   7.905   9.789   7.971 -0.2936 -0.8927  0.2218
  140MOL0     C19237   8.045   9.934   7.574  0.7861 -0.7941  0.4273
  140MOL0     C19238   7.960   9.897   7.466  0.1599  0.3155 -0.5877
  140MOL0     C19239   7.997   9.900   7.332 -0.0664 -0.8019 -0.6241
  140MOL0     C19240   8.109   9.963   7.308  0.7038  0.6059  0.3991
  140MOL0     O19241   8.161   9.965   7.183 -0.5759  0.4038 -0.6680
  140MOL0     C19242   8.075   9.945   7.066  0.3053 -0.2902  0.3464
  140MOL0     C19243   8.143  10.011   6.943 -0.1610  0.1610 -0.5734
  140MOL0     C19244   8.282   9.953   6.922  0.6046 -0.0003 -0.2294
  140MOL0     C19245   8.337   9.924   6.782 -0.8230 -0.2944  0.0956
  140MOL0     C19246   8.340  10.051   6.707  0.6023  0.0112  0.7510
  140MOL0     C19247   8.320  10.152   6.636  0.1130 -0.2096  0.5505
  140MOL0     C19248   8.196  10.006   7.413 -0.7394  0.4433  0.6133
  140MOL0     C19249   8.169   9.985   7.548  0.0384  0.0046  0.5435
  140MOL0     C19250   8.266  10.029   7.653 -0.9343  0.1533  0.6462
  140MOL0     H19251   8.212   9.687   7.893 -1.6415  3.8490 -1.7863
  140MOL0     H19252   8.173   9.522   8.069  0.1621 -1.0156  0.4544
  140MOL0     H19253   8.047   9.664   8.347  0.4742 -0.3663  1.1308
  140MOL0     H19254   8.023   9.504   8.411  0.1769  0.1447  0.4551
  140MOL0     H19255   7.870   9.662   8.523 -2.4920 -1.1341  1.5094
  140MOL0     H19256   7.820   9.723   8.367 -1.9888  1.7825  4.7659
  140MOL0     H19257   7.706   9.503   8.316  1.0629 -0.5807  0.1312
  140MOL0     H19258   7.749   9.456   8.474  0.0470 -1.6614 -3.1519
  140MOL0     H19259   7.644   9.675   8.571  0.9264  2.3470 -1.6100
  140MOL0     H19260   7.614   9.729   8.409  2.8386  1.3678  0.2620
  140MOL0     H19261   7.465   9.490   8.547  0.1752 -3.6017 -3.2355
  140MOL0     H19262   7.462   9.521   8.375 -2.1863 -0.5276  0.5489
  140MOL0     H19263   7.380   9.732   8.576  3.3638  0.7983 -0.7697
  140MOL0     H19264   7.379   9.736   8.395 -1.0945 -0.6472 -1.2330
  140MOL0     H19265   7.223   9.557   8.571  0.1828  0.2279  0.8910
  140MOL0     H19266   7.208   9.533   8.404 -3.5945  0.9926  0.7650
  140MOL0     H19267   7.135   9.791   8.546 -1.0262  0.0655 -0.1085
  140MOL0     H19268   7.144   9.774   8.369 -2.1543  2.6424  1.4273
  140MOL0     H19269   6.976   9.576   8.654  1.9293  0.9546 -1.6698
  140MOL0     H19270   6.688   9.419   8.576  1.5546  0.2305  2.7398
  140MOL0     H19271   6.605   9.550   8.473 -1.2191 -2.8766  1.4113
  140MOL0     H19272   6.511   9.562   8.676 -0.5796  2.1094  1.3499
  140MOL0     H19273   6.667   9.562   8.766  1.6043  2.4201  0.0259
  140MOL0     H19274   6.726   9.773   8.692 -0.0775 -1.5185  3.2912
  140MOL0     H19275   6.571   9.790   8.588 -1.1639 -0.8156  0.4788
  140MOL0     H19276   6.588   9.734   8.879 -0.6497  0.7207  0.3396
  140MOL0     H19277   6.601   9.898   8.834  1.9185  0.2761 -2.3124
  140MOL0     H19278   6.312   9.727   8.579 -0.5384  0.7401 -0.8531
  140MOL0     H19279   6.272   9.911   8.254  1.8813 -0.6780 -0.5833
  140MOL0     H19280   6.147   9.832   8.340  0.6672  0.4954 -5.3713
  140MOL0     H19281   6.294   9.755   8.341 -1.0983 -0.8296 -1.3560
  140MOL0     H19282   6.269  10.125   8.033  1.3981 -0.4778  1.8219
  140MOL0     H19283   6.246  10.281   7.849  0.1388 -3.0884  1.9437
  140MOL0     H19284   6.188  10.694   7.939 -1.4977 -0.2600 -0.4359
  140MOL0     H19285   6.358  10.681   7.878  1.1036 -4.5411 -0.0262
  140MOL0     H19286   6.218  10.843   7.726  2.3442 -0.2843  2.2630
  140MOL0     H19287   6.251  10.697   7.636  0.3552 -0.9917  1.3101
  140MOL0     H19288   6.039  10.618   7.646 -0.0951  0.7802 -1.0259
  140MOL0     H19289   6.022  10.792   7.609 -0.0885  0.5487 -0.5060
  140MOL0     H19290   5.973  10.803   7.875  1.6025 -2.1288  0.9373
  140MOL0     H19291   5.951  10.640   7.869 -2.6762  1.0456  2.6972
  140MOL0     H19292   5.741  10.794   7.857 -0.3396  3.2416 -0.4789
  140MOL0     H19293   5.791  10.857   7.705  4.4772  1.6956  0.9733
  140MOL0     H19294   5.703  10.573   7.754 -1.7934  0.2200  0.1504
  140MOL0     H19295   5.762  10.628   7.596 -1.1591  0.8424 -1.4255
  140MOL0     H19296   5.588  10.790   7.579  1.4041 -0.8191 -1.1481
  140MOL0     H19297   5.533  10.763   7.744 -4.7356  1.1139 -2.7472
  140MOL0     H19298   5.436  10.555   7.684 -0.9043  3.3589  1.2773
  140MOL0     H19299   5.539  10.550   7.530 -0.7744  2.1089 -4.3863
  140MOL0     H19300   6.256  10.601   8.111 -1.4254 -1.3690  2.5266
  140MOL0     H19301   6.252  10.448   8.309  0.5437  3.4667 -0.9470
  140MOL0     H19302   6.356  10.223   8.642 -1.0194 -0.3723  1.7868
  140MOL0     H19303   6.392  10.066   8.819  2.3043  0.3405 -1.4859
  140MOL0     H19304   7.792   9.701   8.140  1.7181  0.2674  2.7329
  140MOL0     H19305   7.829   9.857   7.937  1.1659  0.7703  0.1537
  140MOL0     H19306   7.866   9.856   7.503  0.4338  0.8715  0.7701
  140MOL0     H19307   7.946   9.850   7.250  1.3331 -2.6210 -0.4343
  140MOL0     H19308   8.053   9.842   7.038 -0.1428  0.3566 -1.9381
  140MOL0     H19309   7.978   9.996   7.075 -0.1020 -0.7912 -1.0302
  140MOL0     H19310   8.152  10.112   6.986 -1.8610 -1.8187  5.4593
  140MOL0     H19311   8.094  10.011   6.845 -1.3792 -1.4064 -0.0031
  140MOL0     H19312   8.350  10.030   6.961  0.4297 -1.2281  2.7558
  140MOL0     H19313   8.299   9.869   6.990 -1.5348  1.7452  2.7071
  140MOL0     H19314   8.273   9.849   6.734 -1.1921  1.3588 -2.1357
  140MOL0     H19315   8.438   9.885   6.797 -0.5621 -1.0708 -2.9762
  140MOL0     H19316   8.294  10.238   6.578  0.3941 -0.8498 -0.5557
  140MOL0     H19317   8.292  10.049   7.386 -0.7292  0.9053  1.3485
  140MOL0     H19318   8.212  10.076   7.736 -0.1432  0.4319  1.0187
  140MOL0     H19319   8.331   9.948   7.688 -1.6067  0.2274  2.1188
  140MOL0     H19320   8.333  10.105   7.611  0.1032 -1.1168 -0.1030
  141MOL0     O19321   0.802   1.964   1.023 -0.0336  0.2325 -0.0226
  141MOL0     C19322   0.860   2.040   1.103 -0.3642  0.7268  0.3060
  141MOL0     O19323   0.802   2.147   1.161  0.5106 -0.6547  0.1296
  141MOL0     C19324   0.680   2.194   1.134  0.3424  0.2979 -0.2420
  141MOL0     C19325   0.612   2.175   1.014 -0.2167 -0.0029 -0.6870
  141MOL0     C19326   0.484   2.219   0.997  0.8853 -0.4242  0.6083
  141MOL0     C19327   0.406   2.278   1.099 -0.4148 -1.0063 -0.0011
  141MOL0     O19328   0.281   2.330   1.087  0.7770  0.4902  0.1662
  141MOL0     C19329   0.255   2.410   0.969 -0.1502 -0.6142  0.0761
  141MOL0     C19330   0.129   2.494   0.990 -0.0107 -0.8684  0.1607
  141MOL0     C19331   0.121   2.551   1.134 -0.2056  0.0777 -0.0958
  141MOL0     C19332   0.194   2.680   1.168  0.3707  0.2683 -0.0025
  141MOL0     C19333   0.147   2.741   1.304 -0.3431  0.1330  0.2778
  141MOL0     C19334   0.159   2.891   1.305 -0.2316  0.5397  0.2802
  141MOL0     C19335   0.111   2.950   1.440 -0.9585 -0.1914  0.4511
  141MOL0     C19336   0.059   3.094   1.420  0.6910  0.6006  0.3271
  141MOL0     N19337  -0.071   3.084   1.349  0.9760 -0.2410 -0.4527
  141MOL0     C19338  -0.095   3.109   1.219  0.2661 -0.7636  1.0154
  141MOL0     C19339  -0.226   3.117   1.193  0.3419 -0.5150  0.0048
  141MOL0     C19340  -0.297   3.143   1.063  0.8980 -0.9052 -0.6917
  141MOL0     C19341  -0.436   3.075   1.054  0.2835  1.3932  1.0804
  141MOL0     C19342  -0.512   3.091   0.933 -0.0215  0.3773 -0.1916
  141MOL0     C19343  -0.554   3.236   0.900 -0.6519  0.6320 -0.4555
  141MOL0     O19344  -0.693   3.233   0.863  0.7512 -0.1613 -0.3254
  141MOL0     C19345  -0.738   3.362   0.832 -0.5427  0.8384 -0.8249
  141MOL0     C19346  -0.859   3.407   0.881  1.2812 -0.0798  0.5271
  141MOL0     C19347  -0.911   3.533   0.854 -0.8601  0.1132  1.1705
  141MOL0     C19348  -1.050   3.558   0.911  0.3698 -0.5325 -1.0580
  141MOL0     C19349  -0.839   3.614   0.762 -0.7171 -0.3050 -0.1260
  141MOL0     C19350  -0.891   3.749   0.719  0.4496  0.3101 -0.6884
  141MOL0     O19351  -0.966   3.815   0.822 -0.8443 -0.3111  0.1808
  141MOL0     C19352  -1.025   3.933   0.786 -0.2326 -0.1050 -0.3587
  141MOL0     C19353  -0.947   4.049   0.759 -0.8542  1.0276  0.0527
  141MOL0     C19354  -1.004   4.169   0.728 -0.2633 -0.4739 -0.1127
  141MOL0     C19355  -1.144   4.184   0.739  0.7398  0.4848 -0.8648
  141MOL0     O19356  -1.186   4.313   0.708 -0.1643 -0.3442  0.1343
  141MOL0     C19357  -1.267   4.379   0.805  0.6968 -0.3377 -0.1482
  141MOL0     C19358  -1.222   4.522   0.834 -0.1014  0.0847 -0.3885
  141MOL0     C19359  -1.076   4.530   0.874 -0.3885  0.4626  0.7385
  141MOL0     C19360  -1.031   4.675   0.851  0.4545 -0.6794  0.0651
  141MOL0     C19361  -0.886   4.716   0.900 -0.1981  0.5464  0.3387
  141MOL0     C19362  -0.843   4.854   0.850 -0.4288  1.1662 -0.8434
  141MOL0     C19363  -0.690   4.886   0.844 -0.5265  0.0688  0.3333
  141MOL0     C19364  -0.664   5.037   0.863  0.1456 -0.3127 -0.0221
  141MOL0    Cl19365  -0.712   5.107   1.022 -0.5963 -0.1190 -0.5159
  141MOL0     C19366  -1.224   4.078   0.765 -0.0911 -0.0296  0.6027
  141MOL0     C19367  -1.167   3.951   0.784  0.0533  0.2293 -0.6165
  141MOL0     O19368  -0.859   3.792   0.610 -0.1339 -0.4338  0.4647
  141MOL0     C19369  -0.729   3.564   0.704 -0.8117  0.1873 -0.8397
  141MOL0     C19370  -0.670   3.441   0.735 -0.1345  0.4475  0.0054
  141MOL0     N19371  -0.286   3.092   1.312  0.1808  0.2810 -0.0492
  141MOL0     N19372  -0.199   3.068   1.401  1.1629  0.2364  0.2590
  141MOL0     C19373   0.478   2.319   1.208  0.0601 -0.2506  0.9518
  141MOL0     C19374   0.610   2.277   1.227 -0.1514 -0.6561 -0.0367
  141MOL0     C19375   1.000   2.011   1.140  0.3135  0.8059 -0.5985
  141MOL0     C19376   1.080   2.118   1.177  0.4521 -0.5114  0.1677
  141MOL0     C19377   1.221   2.107   1.186 -0.2956 -0.8682 -0.2719
  141MOL0     C19378   1.283   1.981   1.150 -0.0883 -0.5764  0.2306
  141MOL0     O19379   1.422   1.973   1.166  0.1461  0.3389  0.6871
  141MOL0     C19380   1.488   1.847   1.154  0.8438 -0.5950  0.0856
  141MOL0     C19381   1.638   1.867   1.164  0.4348 -0.2660  0.2958
  141MOL0     C19382   1.704   1.896   1.028 -0.2212 -0.2951  0.7721
  141MOL0     C19383   1.857   1.891   1.023 -0.0713  0.1679  0.2833
  141MOL0     C19384   1.914   2.000   1.110  0.1791 -0.4896  0.0518
  141MOL0     C19385   1.967   2.092   1.169 -0.3602 -0.2115  1.1066
  141MOL0     C19386   1.200   1.874   1.126 -0.5152  0.6232  0.1165
  141MOL0     C19387   1.062   1.885   1.119  0.0923 -0.4747  0.5579
  141MOL0     C19388   0.988   1.754   1.088 -0.3745  0.1811 -0.1134
  141MOL0     H19389   0.652   2.128   0.925 -0.7769  1.4694 -1.7457
  141MOL0     H19390   0.441   2.198   0.899 -2.6247  0.7251  1.7415
  141MOL0     H19391   0.244   2.358   0.873 -6.2220  0.4876 -0.2038
  141MOL0     H19392   0.329   2.491   0.970 -3.9182  3.1780 -0.3801
  141MOL0     H19393   0.119   2.578   0.920  3.0791 -1.1399 -0.7620
  141MOL0     H19394   0.043   2.427   0.990  0.3121 -1.3121  1.8897
  141MOL0     H19395   0.015   2.577   1.148 -1.6487 -3.8709 -1.9675
  141MOL0     H19396   0.142   2.464   1.196  0.6757 -4.4907 -5.8801
  141MOL0     H19397   0.301   2.656   1.166 -0.1445 -2.2480 -1.7257
  141MOL0     H19398   0.171   2.747   1.085 -0.5585 -0.5318 -0.4094
  141MOL0     H19399   0.219   2.708   1.379  2.1624  0.9270 -1.6121
  141MOL0     H19400   0.048   2.711   1.338 -1.3263  3.9674  1.2758
  141MOL0     H19401   0.260   2.929   1.285 -1.9770  4.1290 -3.2641
  141MOL0     H19402   0.101   2.933   1.222  0.5001 -1.6332 -1.4270
  141MOL0     H19403   0.192   2.936   1.511  1.5773 -0.6373 -2.3487
  141MOL0     H19404   0.026   2.883   1.458  1.0315 -3.1054 -0.3679
  141MOL0     H19405   0.037   3.122   1.523  1.5384  0.5922  0.5195
  141MOL0     H19406   0.147   3.154   1.393  0.1621  1.1155 -0.2859
  141MOL0     H19407  -0.022   3.117   1.139 -0.0764 -2.6665  0.4612
  141MOL0     H19408  -0.235   3.096   0.986 -2.2542 -2.6762 -2.3761
  141MOL0     H19409  -0.301   3.245   1.024 -0.6055 -1.3343 -1.7468
  141MOL0     H19410  -0.425   2.971   1.085  2.6285  1.0247 -0.7039
  141MOL0     H19411  -0.506   3.121   1.124  1.2915  0.4132  2.8065
  141MOL0     H19412  -0.450   3.055   0.850 -3.2058 -1.9041 -1.8097
  141MOL0     H19413  -0.599   3.025   0.924  0.5801 -0.4902  0.1960
  141MOL0     H19414  -0.527   3.300   0.984  3.2118  1.6450 -2.2351
  141MOL0     H19415  -0.482   3.268   0.823  2.6194  2.5993  3.0807
  141MOL0     H19416  -0.916   3.338   0.942 -1.3518  0.2427 -1.3946
  141MOL0     H19417  -1.041   3.631   0.992 -0.6146 -0.7557 -0.7248
  141MOL0     H19418  -1.079   3.460   0.952 -0.1661  0.2774  0.5835
  141MOL0     H19419  -1.123   3.585   0.834 -0.5339 -0.9998 -0.3939
  141MOL0     H19420  -0.838   4.053   0.760 -0.8980  2.9986  0.8977
  141MOL0     H19421  -0.925   4.243   0.716  0.9953 -1.7238  0.1902
  141MOL0     H19422  -1.368   4.383   0.763  0.7072  1.3008 -0.0569
  141MOL0     H19423  -1.279   4.326   0.900 -3.6411  3.3534  1.7752
  141MOL0     H19424  -1.237   4.582   0.744  2.3743  0.2856 -0.7427
  141MOL0     H19425  -1.278   4.561   0.919  0.1323  3.6483 -1.7089
  141MOL0     H19426  -1.003   4.466   0.825 -0.8915  1.1206 -0.9703
  141MOL0     H19427  -1.064   4.518   0.982  0.0603  1.0931  0.7639
  141MOL0     H19428  -1.103   4.735   0.908  0.1341 -1.5934  0.6494
  141MOL0     H19429  -1.052   4.699   0.746 -0.8245  1.3309  0.7321
  141MOL0     H19430  -0.873   4.702   1.007  2.2600  2.8457  0.4392
  141MOL0     H19431  -0.821   4.649   0.841 -2.4333 -1.3284 -0.1427
  141MOL0     H19432  -0.894   4.925   0.915 -1.0102  0.9790 -1.0873
  141MOL0     H19433  -0.875   4.852   0.746 -0.7531 -0.6337 -0.7397
  141MOL0     H19434  -0.664   4.858   0.742 -3.1565 -1.0949 -0.0803
  141MOL0     H19435  -0.627   4.822   0.907  1.2703 -0.6403 -2.0562
  141MOL0     H19436  -0.716   5.096   0.787  0.4807  0.5055  0.3665
  141MOL0     H19437  -0.558   5.056   0.846 -0.1242  2.7152  1.1449
  141MOL0     H19438  -1.329   4.097   0.745  0.0425  1.3800  1.1518
  141MOL0     H19439  -1.222   3.860   0.804  0.8270  0.2184  1.8314
  141MOL0     H19440  -0.671   3.612   0.625  1.1276  0.0292  0.4140
  141MOL0     H19441  -0.574   3.413   0.693  1.2651  2.0249  2.0003
  141MOL0     H19442   0.434   2.388   1.279 -0.5634 -0.4120  0.7272
  141MOL0     H19443   0.665   2.312   1.314  1.4390  0.5670 -1.4616
  141MOL0     H19444   1.044   2.219   1.194  0.2084 -1.0081  3.1896
  141MOL0     H19445   1.288   2.185   1.220  1.9155 -2.9007  0.3220
  141MOL0     H19446   1.447   1.774   1.224  2.9341 -0.0773  1.9688
  141MOL0     H19447   1.465   1.800   1.058  2.9664  0.4026 -0.9824
  141MOL0     H19448   1.675   1.769   1.195 -0.6596 -1.1737 -1.1652
  141MOL0     H19449   1.670   1.939   1.240 -1.1063  2.9360 -1.8503
  141MOL0     H19450   1.648   1.855   0.943 -0.4077 -1.0053  1.2338
  141MOL0     H19451   1.675   2.000   1.008 -0.6430 -0.3723  0.9688
  141MOL0     H19452   1.892   1.901   0.920  0.3426 -2.6116  0.0737
  141MOL0     H19453   1.904   1.796   1.053  0.6787 -0.4075 -2.4561
  141MOL0     H19454   2.024   2.169   1.216  1.2362  0.2479 -1.3633
  141MOL0     H19455   1.241   1.773   1.120 -1.6200 -0.0136  2.2895
  141MOL0     H19456   0.982   1.738   0.980  0.2170  0.9428 -0.2638
  141MOL0     H19457   1.051   1.667   1.113 -3.0910 -1.7624  0.3964
  141MOL0     H19458   0.884   1.744   1.121 -0.6106  0.3118 -0.8063
  142MOL0     O19459   0.457  10.553  11.374  0.2694  0.4355 -0.8683
  142MOL0     C19460   0.570  10.516  11.413  0.5598 -0.0491 -0.2683
  142MOL0     O19461   0.693  10.573  11.380  0.6452 -0.1740  0.0692
  142MOL0     C19462   0.687  10.643  11.262 -0.1754  0.5343  0.8392
  142MOL0     C19463   0.655  10.580  11.136  0.4111 -0.2837 -0.4056
  142MOL0     C19464   0.630  10.665  11.021  0.7969 -0.2944  0.8267
  142MOL0     C19465   0.652  10.802  11.033  1.0220  0.1492 -0.7859
  142MOL0     O19466   0.630  10.882  10.921 -0.4949 -0.6320  0.0946
  142MOL0     C19467   0.609  11.017  10.933 -0.2264 -0.6051  0.0379
  142MOL0     C19468   0.511  11.060  10.824 -0.2931  0.0708 -1.2716
  142MOL0     C19469   0.543  11.198  10.781 -0.8906  0.0852 -0.2666
  142MOL0     C19470   0.660  11.180  10.689  0.3355  0.1600 -0.6418
  142MOL0     C19471   0.722  11.322  10.649  0.4738  0.3176  0.1876
  142MOL0     C19472   0.796  11.392  10.771 -0.6459  0.7924  0.6789
  142MOL0     C19473   0.878  11.516  10.725  0.2326 -0.1769  0.0628
  142MOL0     C19474   0.796  11.617  10.640 -0.1149  0.0259  0.5933
  142MOL0     N19475   0.871  11.724  10.579 -0.2478 -0.4024 -0.2219
  142MOL0     C19476   0.959  11.719  10.469 -0.7171  0.5068  0.0232
  142MOL0     C19477   0.980  11.849  10.449 -0.3341  0.1466  0.0368
  142MOL0     C19478   1.046  11.910  10.340  0.6638  0.1060 -1.0170
  142MOL0     C19479   1.195  11.913  10.356  0.4605 -0.3110  0.1737
  142MOL0     C19480   1.268  12.029  10.425  0.6609  0.1283 -0.5822
  142MOL0     C19481   1.416  12.003  10.452 -0.3567  0.0135 -0.2956
  142MOL0     O19482   1.461  11.864  10.471 -0.3533 -0.2553  0.0129
  142MOL0     C19483   1.564  11.842  10.564 -0.4461 -0.3482 -0.5356
  142MOL0     C19484   1.597  11.708  10.594  0.7210 -0.2980  1.1580
  142MOL0     C19485   1.709  11.666  10.683  1.9309  0.3575  0.4918
  142MOL0     C19486   1.746  11.525  10.703 -0.3553  0.8765  0.0114
  142MOL0     C19487   1.767  11.763  10.755 -0.2039 -0.5036 -0.4294
  142MOL0     C19488   1.878  11.737  10.849 -0.5116 -0.2445 -1.5652
  142MOL0     O19489   1.859  11.768  10.981 -0.8711  0.2489 -1.2926
  142MOL0     C19490   1.955  11.705  11.067 -0.0051 -0.8109 -0.2231
  142MOL0     C19491   1.921  11.610  11.163 -0.6531  0.8269 -0.4680
  142MOL0     C19492   2.016  11.538  11.240  0.1435 -0.6276 -0.3019
  142MOL0     C19493   2.149  11.568  11.235  0.2143  0.9118 -0.1961
  142MOL0     O19494   2.219  11.524  11.338  0.4387 -0.0005 -0.1385
  142MOL0     C19495   2.311  11.629  11.386 -0.1401  0.4602 -0.5731
  142MOL0     C19496   2.270  11.768  11.439  0.3540 -0.1577  0.3631
  142MOL0     C19497   2.174  11.763  11.562  0.3082  0.0393 -0.3017
  142MOL0     C19498   2.122  11.911  11.594  0.0407  0.1249  0.4407
  142MOL0     C19499   2.047  11.906  11.728  0.1555  0.3724 -0.0001
  142MOL0     C19500   1.985  12.046  11.756 -0.4127  0.4786  0.0457
  142MOL0     C19501   1.981  12.075  11.904  0.8966  0.2792 -0.2598
  142MOL0     C19502   2.102  12.161  11.961 -0.0966  0.1831  0.8149
  142MOL0    Cl19503   2.256  12.093  11.905 -0.4615 -0.1560  0.2362
  142MOL0     C19504   2.189  11.656  11.137 -0.1460 -1.2596  0.1440
  142MOL0     C19505   2.090  11.732  11.063  0.4422 -0.1517 -0.8176
  142MOL0     O19506   1.983  11.703  10.792 -0.0207 -0.0586 -0.5408
  142MOL0     C19507   1.716  11.896  10.753  0.5486  0.5413 -0.2191
  142MOL0     C19508   1.633  11.939  10.649 -0.5431  0.4227  0.1053
  142MOL0     N19509   0.907  11.928  10.544 -0.8290  0.2459 -0.2367
  142MOL0     N19510   0.843  11.853  10.615 -0.1516  0.4521 -0.2468
  142MOL0     C19511   0.702  10.856  11.153 -0.2897  0.1578  0.1276
  142MOL0     C19512   0.705  10.775  11.266 -0.0801  0.6774 -0.4975
  142MOL0     C19513   0.568  10.422  11.537 -1.0973  0.3174  0.3409
  142MOL0     C19514   0.465  10.337  11.556  1.0659  0.1181  1.0963
  142MOL0     C19515   0.453  10.253  11.660 -0.7443  0.3312 -0.0610
  142MOL0     C19516   0.547  10.251  11.755  0.0108 -0.0679 -0.5846
  142MOL0     O19517   0.519  10.157  11.856  0.0912 -0.5396  0.4418
  142MOL0     C19518   0.605  10.151  11.971 -0.0899  1.0272  0.4217
  142MOL0     C19519   0.564  10.033  12.066 -0.4400  0.5945 -0.8995
  142MOL0     C19520   0.638  10.016  12.200  0.5130  0.3160  0.3410
  142MOL0     C19521   0.600  10.137  12.291 -0.3095  0.3193  0.0599
  142MOL0     C19522   0.673  10.109  12.414 -0.8668  0.8217 -0.5853
  142MOL0     C19523   0.742  10.095  12.516 -0.6724  0.5182  0.4825
  142MOL0     C19524   0.652  10.331  11.747 -0.6421 -1.1788  0.4289
  142MOL0     C19525   0.667  10.427  11.637  0.7513 -0.3182  0.8310
  142MOL0     C19526   0.768  10.538  11.652  0.4378 -0.3063  0.0793
  142MOL0     H19527   0.644  10.472  11.129  3.8702 -0.6472 -3.9436
  142MOL0     H19528   0.605  10.627  10.923  0.8333 -0.9986  1.0806
  142MOL0     H19529   0.700  11.078  10.926 -0.5740 -0.3144 -3.8695
  142MOL0     H19530   0.555  11.032  11.027  0.8560 -0.7268  0.6956
  142MOL0     H19531   0.512  10.991  10.739 -0.6599  3.4878 -4.2951
  142MOL0     H19532   0.411  11.058  10.869  0.9226 -0.3949  1.6812
  142MOL0     H19533   0.461  11.244  10.727  0.4221  0.9109 -1.6367
  142MOL0     H19534   0.559  11.263  10.868 -1.0029  0.9166 -0.8627
  142MOL0     H19535   0.744  11.131  10.739 -1.1626 -1.1135  0.7429
  142MOL0     H19536   0.641  11.115  10.603  0.4577 -0.5913 -0.1093
  142MOL0     H19537   0.656  11.401  10.613  0.3235  0.9859  1.8519
  142MOL0     H19538   0.802  11.307  10.577 -0.2155 -2.4987 -0.1294
  142MOL0     H19539   0.720  11.419  10.845 -1.5888  0.0306  0.0106
  142MOL0     H19540   0.866  11.323  10.820 -1.1042  0.3259  0.6902
  142MOL0     H19541   0.948  11.476  10.650 -1.2485  0.1846 -1.5981
  142MOL0     H19542   0.927  11.552  10.815 -0.1142 -0.4980  0.3834
  142MOL0     H19543   0.741  11.575  10.555  2.4746  1.6639 -2.0717
  142MOL0     H19544   0.715  11.655  10.703  0.9118  3.9567 -0.1512
  142MOL0     H19545   0.985  11.634  10.407 -5.0380 -2.1507  1.4016
  142MOL0     H19546   1.009  12.012  10.331 -0.7299 -0.0245  2.0051
  142MOL0     H19547   1.017  11.852  10.252  1.0374  0.4177 -1.3537
  142MOL0     H19548   1.226  11.829  10.419  1.9104  0.9553  1.2270
  142MOL0     H19549   1.237  11.890  10.257 -1.9159 -0.9179 -0.7537
  142MOL0     H19550   1.261  12.131  10.386  0.1751  1.6587  3.1086
  142MOL0     H19551   1.224  12.037  10.524  2.3868  0.0423  0.2245
  142MOL0     H19552   1.468  12.035  10.361  0.6275 -2.0442 -0.5403
  142MOL0     H19553   1.444  12.066  10.536 -1.4621 -1.3772  1.1739
  142MOL0     H19554   1.542  11.628  10.544 -1.2813  0.6377  1.7418
  142MOL0     H19555   1.666  11.461  10.666  0.6752 -0.9098  0.6959
  142MOL0     H19556   1.754  11.509  10.811  1.0694  0.9941 -0.0486
  142MOL0     H19557   1.843  11.503  10.657  0.2156  0.7034  1.2536
  142MOL0     H19558   1.817  11.581  11.169 -0.3378 -0.5965 -1.2526
  142MOL0     H19559   1.976  11.453  11.294 -1.5114 -0.4722 -1.2170
  142MOL0     H19560   2.356  11.587  11.477 -3.0273 -0.9522  0.3268
  142MOL0     H19561   2.386  11.650  11.310  1.4215 -0.4298  0.6425
  142MOL0     H19562   2.358  11.830  11.457 -1.7251  3.7041 -1.5600
  142MOL0     H19563   2.223  11.826  11.359 -1.3199 -1.1916  0.5401
  142MOL0     H19564   2.222  11.725  11.653  0.8517  2.4862  0.4985
  142MOL0     H19565   2.099  11.694  11.522 -0.3747 -0.2390  1.3852
  142MOL0     H19566   2.056  11.949  11.516  0.3885  1.0973  0.5965
  142MOL0     H19567   2.206  11.981  11.588  3.7572 -4.0177 -2.5026
  142MOL0     H19568   1.969  11.832  11.712 -0.6749  1.4745 -1.2310
  142MOL0     H19569   2.125  11.873  11.797  0.2355 -0.2561 -0.3754
  142MOL0     H19570   1.888  12.034  11.707 -0.5329 -0.6821  0.5513
  142MOL0     H19571   2.049  12.118  11.702  3.4394 -1.6543  1.3732
  142MOL0     H19572   1.972  11.978  11.955  1.5210  0.1607 -0.3713
  142MOL0     H19573   1.886  12.128  11.917  0.0134 -0.2531 -3.4606
  142MOL0     H19574   2.098  12.169  12.070  3.2828  0.1598  1.0549
  142MOL0     H19575   2.105  12.261  11.915  0.9521  0.1636  0.8092
  142MOL0     H19576   2.297  11.671  11.133 -0.2142 -0.8185 -0.1097
  142MOL0     H19577   2.127  11.798  10.986  0.1537 -0.7616 -1.4960
  142MOL0     H19578   1.749  11.974  10.821 -1.1034  1.6564 -0.6344
  142MOL0     H19579   1.609  12.044  10.641  0.8477  0.6605 -1.8892
  142MOL0     H19580   0.741  10.957  11.163 -2.2629  1.3207 -2.7420
  142MOL0     H19581   0.720  10.811  11.367  1.9596 -0.7028 -0.2640
  142MOL0     H19582   0.395  10.343  11.472  0.3490  2.5030  1.7813
  142MOL0     H19583   0.365  10.189  11.665  0.1700 -0.9829 -0.1156
  142MOL0     H19584   0.710  10.139  11.941  0.1297  0.7950  1.2594
  142MOL0     H19585   0.587  10.241  12.031 -0.3931 -0.2310  2.3085
  142MOL0     H19586   0.565   9.940  12.008  1.9065 -0.6366  0.9095
  142MOL0     H19587   0.460  10.044  12.095  0.3510 -1.5766  3.6667
  142MOL0     H19588   0.613   9.920  12.246  0.9913  0.5026  1.0000
  142MOL0     H19589   0.747  10.015  12.190  0.4980 -0.1963  0.2450
  142MOL0     H19590   0.493  10.131  12.313 -0.0527 -3.7146  1.0089
  142MOL0     H19591   0.631  10.233  12.248  0.8995  0.6388  1.5215
  142MOL0     H19592   0.804  10.101  12.604  1.5760  2.4681 -1.0734
  142MOL0     H19593   0.728  10.342  11.824  0.3870  1.7852 -0.8777
  142MOL0     H19594   0.787  10.558  11.758 -1.2009  2.6284 -0.0682
  142MOL0     H19595   0.846  10.501  11.584 -1.4064 -4.1828 -0.1861
  142MOL0     H19596   0.731  10.629  11.605 -1.2845 -1.1397 -0.2546
  143MOL0     O19597   5.512   2.529   9.998  0.0097 -0.5282 -0.5964
  143MOL0     C19598   5.545   2.493   9.887 -0.2445  0.2326  0.0827
  143MOL0     O19599   5.569   2.580   9.781  0.4334  0.2279  0.0060
  143MOL0     C19600   5.580   2.713   9.802  0.1869 -0.7177  0.0313
  143MOL0     C19601   5.620   2.782   9.918  0.6494  1.4997 -0.6200
  143MOL0     C19602   5.625   2.925   9.927 -0.8937 -0.7396 -0.1062
  143MOL0     C19603   5.595   2.999   9.815  0.6848  0.1650  1.0614
  143MOL0     O19604   5.604   3.128   9.805  0.1474 -0.6710  1.2388
  143MOL0     C19605   5.683   3.204   9.889 -0.4717 -0.1856 -0.6861
  143MOL0     C19606   5.756   3.315   9.815 -0.7855  0.3456 -0.4283
  143MOL0     C19607   5.891   3.278   9.767 -0.6164  1.4374  0.6418
  143MOL0     C19608   5.897   3.151   9.685  0.7355  0.0881  0.5990
  143MOL0     C19609   5.948   3.033   9.774 -0.1390 -0.0454  0.2562
  143MOL0     C19610   5.946   2.907   9.683 -0.0344  0.2055  0.5386
  143MOL0     C19611   6.021   2.785   9.753  0.0081 -0.5318  0.3468
  143MOL0     C19612   5.975   2.658   9.674 -0.8986 -0.5396 -1.2392
  143MOL0     N19613   6.041   2.542   9.736  0.3552  0.4993  0.9205
  143MOL0     C19614   5.997   2.485   9.853  0.8942 -0.3782 -0.3485
  143MOL0     C19615   6.083   2.376   9.882 -0.0086 -0.1923 -0.4235
  143MOL0     C19616   6.078   2.276   9.996 -0.7373  0.2923 -0.1139
  143MOL0     C19617   6.040   2.132   9.949 -0.1097 -0.0524  0.0228
  143MOL0     C19618   6.013   2.040  10.070 -0.4351 -0.5738 -0.4078
  143MOL0     C19619   6.008   1.895  10.051 -0.5436  0.3579  0.1921
  143MOL0     O19620   6.008   1.826  10.179  0.2040 -0.3861  0.1775
  143MOL0     C19621   5.919   1.722  10.197  0.2846 -0.5541 -0.0628
  143MOL0     C19622   5.966   1.617  10.282 -0.7643 -0.9857 -0.2318
  143MOL0     C19623   5.887   1.524  10.347 -0.3968  0.7751 -0.3243
  143MOL0     C19624   5.960   1.448  10.456 -0.4473  0.3593  0.1796
  143MOL0     C19625   5.745   1.530  10.320 -0.0379 -0.5634 -0.1537
  143MOL0     C19626   5.641   1.433  10.387 -0.3032 -0.5924  0.6086
  143MOL0     O19627   5.514   1.457  10.347 -0.2218 -0.6363 -0.0200
  143MOL0     C19628   5.410   1.383  10.396  0.3822 -1.0714  0.3141
  143MOL0     C19629   5.363   1.389  10.532  0.7866 -0.2877 -0.8983
  143MOL0     C19630   5.248   1.308  10.567 -0.2249 -0.9222 -0.2786
  143MOL0     C19631   5.193   1.221  10.482  0.5184 -0.5008 -0.2422
  143MOL0     O19632   5.079   1.156  10.524  0.5881 -0.5986  0.1366
  143MOL0     C19633   5.036   1.027  10.477  0.3924 -0.1067  0.1765
  143MOL0     C19634   5.081   0.938  10.587 -0.0983 -0.7174  0.0075
  143MOL0     C19635   5.101   0.790  10.540 -0.0451 -0.7120 -0.9560
  143MOL0     C19636   5.211   0.720  10.623 -0.3871  0.8820 -0.4720
  143MOL0     C19637   5.246   0.579  10.586 -0.3284  0.2095  0.2423
  143MOL0     C19638   5.298   0.561  10.446 -0.0772  0.0535  0.7719
  143MOL0     C19639   5.364   0.422  10.444 -0.5303 -0.0528 -0.0301
  143MOL0     C19640   5.424   0.413  10.302  0.6344  0.3019 -0.0924
  143MOL0    Cl19641   5.494   0.254  10.294 -0.2808 -0.1983 -0.1211
  143MOL0     C19642   5.233   1.226  10.350  0.3711  1.1036  0.7174
  143MOL0     C19643   5.346   1.301  10.304  1.1196 -0.2576 -0.6997
  143MOL0     O19644   5.672   1.361  10.479  0.0134 -0.4652  0.3531
  143MOL0     C19645   5.702   1.622  10.222 -0.2047  0.5976  0.0446
  143MOL0     C19646   5.782   1.717  10.172 -0.6335 -0.6871 -0.5246
  143MOL0     N19647   6.180   2.382   9.786 -0.2767  0.7318 -0.1050
  143MOL0     N19648   6.160   2.477   9.700  0.1463 -0.2310 -1.2233
  143MOL0     C19649   5.556   2.927   9.700 -0.4012 -0.8109  0.3541
  143MOL0     C19650   5.551   2.788   9.687 -0.0488  0.2153 -1.1725
  143MOL0     C19651   5.568   2.345   9.860  0.6484 -0.0146  0.7042
  143MOL0     C19652   5.576   2.296   9.730 -0.4680 -0.1496 -0.1050
  143MOL0     C19653   5.602   2.169   9.690 -0.2404  0.4455  0.2226
  143MOL0     C19654   5.620   2.070   9.789  0.0459 -0.2720  0.2068
  143MOL0     O19655   5.643   1.938   9.766 -0.7668  0.2545 -0.0418
  143MOL0     C19656   5.630   1.880   9.638  0.1290 -0.1430  0.7923
  143MOL0     C19657   5.620   1.729   9.657 -0.0085  1.4438  0.8365
  143MOL0     C19658   5.754   1.651   9.672  0.4618 -0.4362  0.1128
  143MOL0     C19659   5.841   1.706   9.793  1.3667  0.8090  0.2873
  143MOL0     C19660   5.947   1.624   9.833  0.1025  0.0641 -0.8058
  143MOL0     C19661   6.045   1.556   9.850 -0.5033  0.6528 -0.1034
  143MOL0     C19662   5.623   2.112   9.924 -0.3941 -0.6065  0.0328
  143MOL0     C19663   5.598   2.251   9.966  0.5172 -0.6310  0.7495
  143MOL0     C19664   5.593   2.284  10.112  0.0466 -0.0401  0.1095
  143MOL0     H19665   5.647   2.731  10.010  0.2810 -0.3431 -1.4765
  143MOL0     H19666   5.652   2.960  10.027  0.7782 -1.8665 -0.1234
  143MOL0     H19667   5.744   3.139   9.952  0.8262  1.2010 -0.4413
  143MOL0     H19668   5.612   3.254   9.956  0.7300  0.9222 -0.1741
  143MOL0     H19669   5.699   3.360   9.733 -4.3686  0.0877  1.6937
  143MOL0     H19670   5.781   3.396   9.884  1.0743 -1.8729  1.6976
  143MOL0     H19671   5.921   3.355   9.696 -2.4239  0.6790 -1.0441
  143MOL0     H19672   5.965   3.276   9.847 -1.6825 -1.4679  1.7128
  143MOL0     H19673   5.800   3.130   9.639 -0.0040  0.0991  2.0831
  143MOL0     H19674   5.968   3.159   9.603  1.4282 -1.0573  1.0488
  143MOL0     H19675   5.893   3.009   9.865  2.7229  0.0378  2.1221
  143MOL0     H19676   6.048   3.058   9.811  0.2705 -0.7661 -0.3219
  143MOL0     H19677   5.842   2.880   9.665 -1.1076  2.1177  3.2753
  143MOL0     H19678   5.987   2.938   9.587  0.3946  1.9563  1.2441
  143MOL0     H19679   5.992   2.791   9.859 -0.5822 -1.0090  0.2218
  143MOL0     H19680   6.126   2.808   9.735  0.0542 -0.3809  0.7906
  143MOL0     H19681   5.865   2.652   9.679 -0.8740 -0.2861 -0.3071
  143MOL0     H19682   6.013   2.677   9.573 -2.6214  3.9166 -1.2781
  143MOL0     H19683   5.907   2.515   9.905  1.1951  0.6441 -0.3977
  143MOL0     H19684   6.000   2.310  10.066 -1.9700 -3.0286  0.3051
  143MOL0     H19685   6.174   2.280  10.048 -0.9341  0.5330  0.2438
  143MOL0     H19686   5.950   2.140   9.887  0.1732 -1.1239 -0.5498
  143MOL0     H19687   6.124   2.085   9.898 -0.5353 -2.2353  1.2143
  143MOL0     H19688   6.074   2.073  10.155 -0.5393  1.0394 -0.9308
  143MOL0     H19689   5.914   2.062  10.111  1.2803  1.6492  3.0568
  143MOL0     H19690   5.920   1.882   9.989 -1.2431  1.3717  0.9429
  143MOL0     H19691   6.099   1.857  10.003  0.3177  1.4883  0.8790
  143MOL0     H19692   6.074   1.626  10.292 -1.0227  0.2985  2.6383
  143MOL0     H19693   5.937   1.343  10.435 -0.0582  0.4382 -0.6736
  143MOL0     H19694   5.946   1.479  10.560 -1.9527  2.2693 -0.5421
  143MOL0     H19695   6.068   1.457  10.440 -0.7874  1.3408 -1.7409
  143MOL0     H19696   5.406   1.458  10.604  1.6470 -2.6007  0.9597
  143MOL0     H19697   5.204   1.310  10.667  1.9841 -0.2355  0.7540
  143MOL0     H19698   4.927   1.029  10.484  0.4843  1.6365  1.5413
  143MOL0     H19699   5.065   1.001  10.375  1.6913  1.0989  0.2092
  143MOL0     H19700   5.179   0.978  10.614  0.2109 -2.1171  1.1224
  143MOL0     H19701   5.010   0.947  10.670 -0.9536  1.2857 -0.8867
  143MOL0     H19702   5.133   0.794  10.436  2.2601  0.0762 -0.2883
  143MOL0     H19703   5.004   0.740  10.547 -1.8346  2.5256 -0.6193
  143MOL0     H19704   5.177   0.715  10.727 -0.6732 -1.3618 -0.6079
  143MOL0     H19705   5.304   0.776  10.632 -0.8363  1.6003 -0.2402
  143MOL0     H19706   5.327   0.552  10.654 -0.3539  1.4741  0.8081
  143MOL0     H19707   5.166   0.508  10.609 -0.6227  1.1815  2.4889
  143MOL0     H19708   5.381   0.629  10.425  0.9461 -1.7174 -1.1707
  143MOL0     H19709   5.223   0.570  10.367  0.9134 -0.2906 -0.2288
  143MOL0     H19710   5.290   0.344  10.466 -0.7025  0.5544  1.6045
  143MOL0     H19711   5.448   0.421  10.515  0.4884  2.2658 -1.0987
  143MOL0     H19712   5.502   0.489  10.289  2.6187 -0.5958  4.5662
  143MOL0     H19713   5.352   0.429  10.221  3.0952  1.1202 -2.2902
  143MOL0     H19714   5.184   1.173  10.269  0.2469  1.9479  0.2203
  143MOL0     H19715   5.386   1.294  10.203  5.0797 -1.2089  0.7566
  143MOL0     H19716   5.597   1.633  10.197  0.3790  0.7813 -2.5364
  143MOL0     H19717   5.729   1.795  10.117 -2.1742 -2.0712 -1.1079
  143MOL0     H19718   5.538   2.984   9.610 -2.0679  0.4614  1.4079
  143MOL0     H19719   5.529   2.751   9.588 -0.4742 -4.0083  0.2982
  143MOL0     H19720   5.592   2.371   9.653  1.4947 -1.6692 -1.2690
  143MOL0     H19721   5.601   2.161   9.582 -1.9126  1.0134  0.1574
  143MOL0     H19722   5.536   1.915   9.593  0.7320  1.3234  0.6202
  143MOL0     H19723   5.706   1.915   9.568 -1.1408 -0.4829 -0.8226
  143MOL0     H19724   5.571   1.690   9.567 -1.6410  2.0085  1.4323
  143MOL0     H19725   5.574   1.709   9.755  4.9756 -1.7615  2.9404
  143MOL0     H19726   5.726   1.551   9.707 -0.5633  0.1490  1.0401
  143MOL0     H19727   5.811   1.658   9.579  1.9897 -0.7033  0.9937
  143MOL0     H19728   5.776   1.720   9.880  1.5056  0.9483  0.3680
  143MOL0     H19729   5.883   1.800   9.757 -0.4262  1.6820  0.3639
  143MOL0     H19730   6.130   1.490   9.853 -0.2665  0.6540 -3.1950
  143MOL0     H19731   5.639   2.039  10.003  0.9625 -0.6860 -0.2783
  143MOL0     H19732   5.493   2.300  10.154 -0.3253 -0.7996 -0.4578
  143MOL0     H19733   5.631   2.198  10.168  1.1702 -2.1764 -3.5570
  143MOL0     H19734   5.664   2.364  10.132  1.8398 -1.0039 -1.9441
  144MOL0     O19735   3.004   0.495   2.607  1.0197  0.4450 -0.3577
  144MOL0     C19736   3.066   0.458   2.508 -0.0388 -0.6474  1.2981
  144MOL0     O19737   3.023   0.354   2.425  0.1742 -0.3643 -0.1238
  144MOL0     C19738   2.919   0.277   2.476 -0.8159  0.7300  0.0700
  144MOL0     C19739   2.792   0.339   2.515 -1.2394  0.4352 -0.6872
  144MOL0     C19740   2.691   0.255   2.553  0.6279 -0.6015  0.9834
  144MOL0     C19741   2.702   0.116   2.564  0.0820 -0.7865  0.1302
  144MOL0     O19742   2.605   0.028   2.601 -0.4293 -0.5330  0.6236
  144MOL0     C19743   2.619  -0.010   2.743  0.0008  0.0556 -0.1497
  144MOL0     C19744   2.488  -0.078   2.787 -0.2731  1.1469 -0.7022
  144MOL0     C19745   2.506  -0.235   2.793 -0.6071 -0.6013  0.6554
  144MOL0     C19746   2.406  -0.288   2.894  0.2557  0.4136 -0.2942
  144MOL0     C19747   2.361  -0.432   2.866  0.1299  0.2121 -0.4847
  144MOL0     C19748   2.286  -0.504   2.973  1.1724 -0.1262  0.0853
  144MOL0     C19749   2.134  -0.462   2.985  0.1661 -0.2999  1.3988
  144MOL0     C19750   2.039  -0.493   2.863  0.4892  0.1836 -0.1745
  144MOL0     N19751   2.039  -0.637   2.829  0.1866  0.3073 -0.0598
  144MOL0     C19752   2.016  -0.736   2.932 -0.6430  0.6491 -0.9189
  144MOL0     C19753   2.053  -0.857   2.882 -0.8841  0.0687  0.1394
  144MOL0     C19754   2.040  -0.995   2.944  0.2787 -0.4585  0.9612
  144MOL0     C19755   2.152  -1.091   2.915  0.8897 -0.0623 -0.8366
  144MOL0     C19756   2.127  -1.211   3.012  0.2267 -0.1785 -0.2479
  144MOL0     C19757   2.228  -1.313   2.954  0.0385  1.3141 -0.1162
  144MOL0     O19758   2.153  -1.398   2.865  0.2130  0.7025  0.5210
  144MOL0     C19759   2.219  -1.513   2.826  1.5695 -1.0018 -0.2008
  144MOL0     C19760   2.352  -1.514   2.803  0.3967 -0.2347  0.4158
  144MOL0     C19761   2.426  -1.631   2.783  0.2278  0.4976  1.4831
  144MOL0     C19762   2.574  -1.625   2.799  0.0160 -0.0895  0.9766
  144MOL0     C19763   2.353  -1.756   2.777 -0.4196 -0.1460  0.2558
  144MOL0     C19764   2.420  -1.887   2.749  0.1781  0.7162  0.1605
  144MOL0     O19765   2.357  -2.001   2.804 -0.5901  0.2002  0.2783
  144MOL0     C19766   2.377  -2.123   2.747 -0.1918 -0.1468 -1.3045
  144MOL0     C19767   2.429  -2.218   2.831  1.4149 -0.3271  0.4168
  144MOL0     C19768   2.440  -2.345   2.784 -0.4574 -0.0975  0.3358
  144MOL0     C19769   2.403  -2.379   2.650  0.2458 -0.5982  0.8310
  144MOL0     O19770   2.420  -2.504   2.605 -0.4031 -0.6348  0.1884
  144MOL0     C19771   2.552  -2.555   2.571 -0.0039  0.4208 -0.0484
  144MOL0     C19772   2.554  -2.697   2.608  0.5825  0.0352  0.3517
  144MOL0     C19773   2.699  -2.736   2.613 -0.5504  0.5013 -0.7414
  144MOL0     C19774   2.787  -2.707   2.738 -0.2077  0.2374 -0.6823
  144MOL0     C19775   2.917  -2.801   2.727 -0.1027  0.7369 -1.0698
  144MOL0     C19776   3.008  -2.802   2.849 -0.6997 -0.5602  0.7035
  144MOL0     C19777   3.112  -2.691   2.868  0.3192 -0.1108 -0.2681
  144MOL0     C19778   3.243  -2.706   2.789 -0.8824  0.2992 -0.0524
  144MOL0    Cl19779   3.347  -2.566   2.792 -0.2710  0.3037  0.2824
  144MOL0     C19780   2.354  -2.275   2.568  0.3594  0.1031  0.3604
  144MOL0     C19781   2.339  -2.147   2.623  0.8885 -0.8116 -0.3535
  144MOL0     O19782   2.508  -1.887   2.663 -0.3939  0.6233  0.1303
  144MOL0     C19783   2.213  -1.744   2.791  0.9495  0.4522 -0.0837
  144MOL0     C19784   2.142  -1.627   2.814 -0.1889  0.8948  0.1049
  144MOL0     N19785   2.107  -0.827   2.752 -0.2036 -0.2259  0.3234
  144MOL0     N19786   2.092  -0.703   2.727 -0.4250  0.0652 -0.2273
  144MOL0     C19787   2.822   0.053   2.530  0.6724 -0.3509 -0.4444
  144MOL0     C19788   2.925   0.142   2.496 -1.2067  0.3438  0.1004
  144MOL0     C19789   3.195   0.517   2.489  0.9583 -0.3094  0.1154
  144MOL0     C19790   3.291   0.437   2.428 -0.6497  0.0103  0.0606
  144MOL0     C19791   3.417   0.482   2.398 -0.2407 -0.9485 -0.2293
  144MOL0     C19792   3.469   0.596   2.454  0.9609  0.7903  0.0634
  144MOL0     O19793   3.590   0.657   2.419 -0.6056  0.1819  0.1404
  144MOL0     C19794   3.665   0.616   2.307 -0.6602  0.4147  0.9758
  144MOL0     C19795   3.757   0.735   2.280 -0.3928 -0.0264 -0.2076
  144MOL0     C19796   3.864   0.672   2.189  0.0696 -0.4905 -0.4375
  144MOL0     C19797   3.952   0.788   2.155 -0.1651 -1.3213  0.2751
  144MOL0     C19798   4.085   0.748   2.100  0.1924  1.0477  0.3665
  144MOL0     C19799   4.193   0.723   2.044 -0.6898 -0.6397 -0.0302
  144MOL0     C19800   3.377   0.667   2.527  0.8799  0.2046 -0.0879
  144MOL0     C19801   3.242   0.635   2.539  0.1685 -0.1488 -0.2675
  144MOL0     C19802   3.152   0.737   2.599 -0.8257  0.5628  0.0214
  144MOL0     H19803   2.784   0.447   2.522  2.7273  0.8812 -0.7235
  144MOL0     H19804   2.600   0.301   2.590  0.3997  2.0328 -2.2858
  144MOL0     H19805   2.622   0.080   2.806 -2.4627 -0.1582  0.3681
  144MOL0     H19806   2.697  -0.086   2.752 -1.3952 -1.7525 -2.2448
  144MOL0     H19807   2.456  -0.030   2.880 -0.5100  0.1995 -0.2864
  144MOL0     H19808   2.407  -0.062   2.715 -0.8405 -2.2836 -0.9670
  144MOL0     H19809   2.479  -0.266   2.692  0.8766  1.0063 -0.2869
  144MOL0     H19810   2.603  -0.269   2.828 -1.4639 -0.4559  3.4243
  144MOL0     H19811   2.453  -0.275   2.993 -1.1881 -0.8371  0.6000
  144MOL0     H19812   2.315  -0.233   2.872 -0.4353  0.0625  1.5067
  144MOL0     H19813   2.447  -0.493   2.839 -2.1782 -2.3123 -2.8499
  144MOL0     H19814   2.291  -0.432   2.782 -0.5673 -0.2554  0.0828
  144MOL0     H19815   2.285  -0.611   2.952 -3.4658 -0.4767  1.1184
  144MOL0     H19816   2.336  -0.490   3.070  0.3609 -1.3921  0.7215
  144MOL0     H19817   2.135  -0.361   3.027  0.1922 -0.3978  1.6357
  144MOL0     H19818   2.091  -0.516   3.070 -1.2953  0.2863  1.0523
  144MOL0     H19819   1.933  -0.483   2.885  0.2944 -3.1014  1.0079
  144MOL0     H19820   2.059  -0.432   2.774 -1.0971 -0.5843 -1.0911
  144MOL0     H19821   1.976  -0.721   3.032 -1.4946  1.7324 -1.4006
  144MOL0     H19822   1.948  -1.046   2.912 -0.3109  1.6350 -0.9592
  144MOL0     H19823   2.029  -0.990   3.052  3.0047 -0.4435  1.3039
  144MOL0     H19824   2.146  -1.120   2.809 -0.2987 -0.3665 -0.7040
  144MOL0     H19825   2.243  -1.035   2.937 -0.1938  0.8054  1.7478
  144MOL0     H19826   2.165  -1.183   3.111  0.6874 -2.4533  0.2799
  144MOL0     H19827   2.026  -1.253   3.014  0.8379 -1.7606 -0.9717
  144MOL0     H19828   2.313  -1.265   2.904  0.6394  1.7838  1.3034
  144MOL0     H19829   2.263  -1.388   3.025 -0.2431  0.9852 -0.3236
  144MOL0     H19830   2.406  -1.420   2.804 -0.4690  0.3057  2.6736
  144MOL0     H19831   2.627  -1.550   2.739  0.6113 -0.4700  1.0136
  144MOL0     H19832   2.627  -1.720   2.796  0.9129  0.4212 -0.0328
  144MOL0     H19833   2.594  -1.593   2.902  0.4835  1.2191  0.5037
  144MOL0     H19834   2.465  -2.200   2.932 -0.8471  3.5067  0.7228
  144MOL0     H19835   2.488  -2.416   2.851 -2.7213 -0.3993  1.7526
  144MOL0     H19836   2.567  -2.531   2.465  1.1405  0.0689  0.0329
  144MOL0     H19837   2.629  -2.496   2.621  1.5569 -2.5050  1.2202
  144MOL0     H19838   2.508  -2.713   2.706 -1.4268 -0.5170 -0.6188
  144MOL0     H19839   2.497  -2.740   2.524  2.1320  1.4392 -1.5109
  144MOL0     H19840   2.747  -2.694   2.525  2.3625  0.3429  0.6379
  144MOL0     H19841   2.702  -2.846   2.620 -2.3940  0.4483 -0.4742
  144MOL0     H19842   2.734  -2.736   2.829  1.3525 -0.8574 -0.0709
  144MOL0     H19843   2.822  -2.604   2.751 -3.4803  2.0651 -4.5119
  144MOL0     H19844   2.881  -2.904   2.716  1.9338 -0.1113 -0.1447
  144MOL0     H19845   2.969  -2.766   2.637 -1.0755  2.8313 -0.8764
  144MOL0     H19846   3.077  -2.886   2.839  3.9446  2.9929 -0.4605
  144MOL0     H19847   2.944  -2.814   2.937 -2.8942  1.5529 -0.4951
  144MOL0     H19848   3.134  -2.685   2.975  0.6512 -1.0422 -0.2706
  144MOL0     H19849   3.080  -2.590   2.843  0.9594 -0.0644 -0.9209
  144MOL0     H19850   3.223  -2.716   2.682  0.9463  1.3320 -0.5286
  144MOL0     H19851   3.305  -2.790   2.821 -2.1121 -1.0895 -1.1627
  144MOL0     H19852   2.310  -2.295   2.471 -4.0913  0.8982  1.9608
  144MOL0     H19853   2.309  -2.061   2.565  0.8227  0.4871  1.5096
  144MOL0     H19854   2.158  -1.837   2.791 -1.1917  1.6522 -1.0727
  144MOL0     H19855   2.035  -1.632   2.829  0.1443  0.6545  2.9654
  144MOL0     H19856   2.830  -0.054   2.541 -2.3848 -0.5414  0.8314
  144MOL0     H19857   3.023   0.101   2.470 -0.6753  2.3087 -1.1955
  144MOL0     H19858   3.260   0.339   2.393 -1.4750  0.7981 -1.5347
  144MOL0     H19859   3.494   0.425   2.347  2.6463  0.5297  2.1714
  144MOL0     H19860   3.720   0.521   2.304 -2.0480 -0.4054 -0.3800
  144MOL0     H19861   3.597   0.603   2.222  1.8378 -0.9718 -0.9749
  144MOL0     H19862   3.802   0.775   2.372 -3.2756 -0.3112  1.4388
  144MOL0     H19863   3.695   0.815   2.242 -0.7296  0.1827  0.7423
  144MOL0     H19864   3.928   0.598   2.237  1.2070  0.3799 -0.5773
  144MOL0     H19865   3.832   0.634   2.092 -0.6412  1.7034 -1.1349
  144MOL0     H19866   3.974   0.835   2.251 -2.2496  0.3207  0.0265
  144MOL0     H19867   3.896   0.869   2.107 -1.6719 -1.3122  1.9695
  144MOL0     H19868   4.289   0.695   2.005  1.1691  3.1185  1.3969
  144MOL0     H19869   3.406   0.767   2.558  1.0580 -0.2588  1.2913
  144MOL0     H19870   3.058   0.759   2.547 -0.9122  1.6578  0.5915
  144MOL0     H19871   3.117   0.700   2.696 -3.5894  2.8703  0.0569
  144MOL0     H19872   3.203   0.833   2.614 -1.3553  0.5349  2.5082
  145MOL0     O19873   3.674   4.969   4.731 -0.4294  0.2620  0.1127
  145MOL0     C19874   3.606   4.976   4.630 -0.8255  0.6133  0.2277
  145MOL0     O19875   3.660   4.983   4.511 -0.7809 -0.1607 -0.2751
  145MOL0     C19876   3.794   4.973   4.499 -0.5600  0.2373 -0.7525
  145MOL0     C19877   3.884   5.082   4.461  0.2719 -0.2797  0.3202
  145MOL0     C19878   4.013   5.061   4.422 -0.3058  1.0949 -0.8454
  145MOL0     C19879   4.066   4.936   4.448 -1.0382  0.4530 -0.4382
  145MOL0     O19880   4.201   4.916   4.417 -0.2490  0.0758  0.2284
  145MOL0     C19881   4.270   4.790   4.440 -0.1151 -0.4960 -0.5517
  145MOL0     C19882   4.224   4.696   4.334  0.2266 -0.4956 -0.8806
  145MOL0     C19883   4.313   4.572   4.355  0.6408 -0.6088  1.0533
  145MOL0     C19884   4.259   4.447   4.282 -0.1076 -0.5351  0.1003
  145MOL0     C19885   4.365   4.341   4.273 -0.8211  0.8746  0.3145
  145MOL0     C19886   4.327   4.228   4.174  0.3582 -0.6170  0.0079
  145MOL0     C19887   4.455   4.137   4.158 -0.1305  0.1070  0.2194
  145MOL0     C19888   4.432   4.024   4.062  0.9304 -0.7896 -0.0662
  145MOL0     N19889   4.545   3.933   4.061 -0.5792  0.6494 -0.4115
  145MOL0     C19890   4.647   3.933   3.977 -0.6606 -0.1462  0.6735
  145MOL0     C19891   4.724   3.828   4.005  0.8373  0.1008  0.0845
  145MOL0     C19892   4.862   3.794   3.958 -0.1033  0.0311  0.1854
  145MOL0     C19893   4.900   3.906   3.847 -1.0799  0.1882  0.0994
  145MOL0     C19894   5.056   3.923   3.810  0.2744  0.0156  0.3357
  145MOL0     C19895   5.099   3.790   3.752  0.5155  0.2475  0.2218
  145MOL0     O19896   5.239   3.792   3.719 -0.1146 -1.2603  0.4546
  145MOL0     C19897   5.273   3.864   3.608  0.3058 -0.3123  0.7783
  145MOL0     C19898   5.367   3.960   3.614 -1.3039  0.6767 -0.7030
  145MOL0     C19899   5.406   4.037   3.512  0.2419 -0.4504 -0.5225
  145MOL0     C19900   5.496   4.154   3.537 -1.2572 -0.3641 -0.2987
  145MOL0     C19901   5.357   4.006   3.381 -0.1308 -0.3648 -0.8849
  145MOL0     C19902   5.395   4.087   3.251 -0.1485 -0.0912 -0.4819
  145MOL0     O19903   5.336   4.047   3.130  0.1450  0.5500  0.2210
  145MOL0     C19904   5.387   4.103   3.021 -0.5018 -1.0701  0.6960
  145MOL0     C19905   5.314   4.196   2.948  0.8113  1.0305 -0.1100
  145MOL0     C19906   5.361   4.239   2.819  0.1238 -0.7485 -0.5528
  145MOL0     C19907   5.494   4.210   2.775  0.3651 -1.2572  0.8154
  145MOL0     O19908   5.530   4.279   2.665 -1.1668 -0.6046  0.3037
  145MOL0     C19909   5.676   4.279   2.648  0.9347 -0.1177  0.3685
  145MOL0     C19910   5.721   4.399   2.567  0.6841 -0.3059 -0.5271
  145MOL0     C19911   5.667   4.398   2.429 -0.6315  0.5586  0.3128
  145MOL0     C19912   5.784   4.442   2.333 -0.0987 -0.2007 -0.0915
  145MOL0     C19913   5.727   4.445   2.190  0.6805  0.2782 -0.4180
  145MOL0     C19914   5.634   4.577   2.178 -0.1941  0.0745  0.4856
  145MOL0     C19915   5.610   4.601   2.037  1.0746 -0.7846 -0.7845
  145MOL0     C19916   5.542   4.489   1.956 -0.7436 -0.7878 -0.7521
  145MOL0    Cl19917   5.517   4.549   1.785 -0.2432  0.3031 -0.0737
  145MOL0     C19918   5.562   4.131   2.855 -0.2661  0.1824 -0.5275
  145MOL0     C19919   5.515   4.064   2.970 -0.2441  0.0359 -0.3821
  145MOL0     O19920   5.473   4.185   3.260  0.0279 -0.0694  0.5611
  145MOL0     C19921   5.277   3.898   3.368  0.0445  0.3367  0.7643
  145MOL0     C19922   5.226   3.818   3.478 -0.1340 -0.1624 -0.6918
  145MOL0     N19923   4.659   3.755   4.107 -1.3483 -0.9191  0.4934
  145MOL0     N19924   4.552   3.813   4.126 -0.2785  0.4490 -1.0922
  145MOL0     C19925   3.990   4.830   4.502  0.0608  0.1029 -0.4965
  145MOL0     C19926   3.858   4.856   4.525 -0.0307 -0.1994  0.2540
  145MOL0     C19927   3.460   4.940   4.642  0.6735  0.3874 -0.7323
  145MOL0     C19928   3.397   4.957   4.515  0.6419 -0.5805  1.0071
  145MOL0     C19929   3.258   4.968   4.498  0.2131 -1.7716 -0.8836
  145MOL0     C19930   3.182   4.962   4.609 -0.0209  0.3571  1.0791
  145MOL0     O19931   3.048   4.981   4.603 -0.8640  1.0962 -1.0070
  145MOL0     C19932   2.985   4.874   4.527 -0.5942 -0.4300  0.1832
  145MOL0     C19933   2.868   4.942   4.448 -0.1916 -0.1782  0.1507
  145MOL0     C19934   2.780   4.857   4.363 -0.5854 -0.0971 -0.0996
  145MOL0     C19935   2.701   4.941   4.260 -0.1311 -0.5400  0.1756
  145MOL0     C19936   2.630   4.857   4.173  0.5598  0.4335  0.0803
  145MOL0     C19937   2.576   4.780   4.092 -0.6992  0.2668  0.3266
  145MOL0     C19938   3.238   4.952   4.739 -0.6223 -0.7429  0.0498
  145MOL0     C19939   3.376   4.937   4.757 -1.0850  0.2849 -0.4242
  145MOL0     C19940   3.429   4.948   4.895 -0.4258  0.7614 -0.5511
  145MOL0     H19941   3.845   5.180   4.439 -2.5917 -0.5131  3.5024
  145MOL0     H19942   4.074   5.145   4.388  3.1734  0.1651  2.3483
  145MOL0     H19943   4.252   4.748   4.540  2.8161 -3.4244 -1.0523
  145MOL0     H19944   4.379   4.806   4.436 -0.2898  0.4636 -2.3921
  145MOL0     H19945   4.118   4.667   4.330 -0.2810  1.2271 -0.8765
  145MOL0     H19946   4.246   4.742   4.237 -0.1940  0.6822 -0.4369
  145MOL0     H19947   4.418   4.595   4.333  0.2760  0.7672  0.6668
  145MOL0     H19948   4.317   4.539   4.459  4.1659 -3.9772  0.1059
  145MOL0     H19949   4.169   4.409   4.331 -1.3891 -0.9661 -2.4371
  145MOL0     H19950   4.228   4.467   4.179  2.2421  0.7926 -0.4308
  145MOL0     H19951   4.376   4.291   4.370  0.0032  1.1280  0.3634
  145MOL0     H19952   4.467   4.381   4.266 -0.0108  0.0510  4.5416
  145MOL0     H19953   4.253   4.167   4.226  1.6775 -2.1326  0.1868
  145MOL0     H19954   4.298   4.270   4.077 -3.2112 -1.4392  0.5634
  145MOL0     H19955   4.498   4.098   4.251  2.5770 -0.5210 -1.1747
  145MOL0     H19956   4.535   4.206   4.131 -0.7807  1.4118  1.5125
  145MOL0     H19957   4.338   3.974   4.085  0.4455 -1.6088 -3.3478
  145MOL0     H19958   4.411   4.074   3.967  0.4557 -2.4708 -0.8686
  145MOL0     H19959   4.662   3.999   3.891  0.4443 -2.0835 -0.6888
  145MOL0     H19960   4.871   3.687   3.937  0.1580 -1.0530  4.8588
  145MOL0     H19961   4.918   3.792   4.051 -1.0470 -1.6336  0.7546
  145MOL0     H19962   4.860   3.875   3.750  0.0249  1.6881 -0.8938
  145MOL0     H19963   4.856   3.997   3.890 -1.7719 -0.7718  1.4654
  145MOL0     H19964   5.063   3.995   3.728  0.7349 -0.8929 -0.4357
  145MOL0     H19965   5.120   3.946   3.896  1.5080  1.2241 -0.8752
  145MOL0     H19966   5.075   3.710   3.822 -1.2580 -0.6642 -1.3181
  145MOL0     H19967   5.032   3.769   3.668  0.0313  1.1847  0.3548
  145MOL0     H19968   5.400   3.981   3.715 -0.3221 -4.9508  0.4877
  145MOL0     H19969   5.436   4.245   3.527 -0.9722 -0.0042  1.1701
  145MOL0     H19970   5.587   4.165   3.476  0.8593  0.1135  2.7123
  145MOL0     H19971   5.524   4.149   3.642 -2.7751  1.9599  0.2770
  145MOL0     H19972   5.218   4.230   2.985  2.7952  5.1171  1.9765
  145MOL0     H19973   5.289   4.292   2.758  2.4715  0.2403 -2.6260
  145MOL0     H19974   5.729   4.284   2.744  1.1879  0.6950  0.1955
  145MOL0     H19975   5.709   4.188   2.598  0.4538 -0.0078 -0.1636
  145MOL0     H19976   5.672   4.483   2.617 -1.1859 -2.7086  1.9847
  145MOL0     H19977   5.828   4.423   2.575  0.8717 -0.0393 -3.0869
  145MOL0     H19978   5.581   4.465   2.438 -1.3258 -0.4813  1.9614
  145MOL0     H19979   5.648   4.293   2.404  1.6702 -0.3838  2.1358
  145MOL0     H19980   5.857   4.360   2.326 -2.1577 -2.1590  0.3893
  145MOL0     H19981   5.836   4.534   2.361  0.8814 -0.8430  0.2773
  145MOL0     H19982   5.811   4.451   2.119  1.4337  0.6143  0.4858
  145MOL0     H19983   5.666   4.357   2.169 -0.3122  1.0201 -0.7449
  145MOL0     H19984   5.690   4.659   2.223  4.0605 -2.9823  1.4354
  145MOL0     H19985   5.533   4.578   2.220  0.6603  0.9629  2.6321
  145MOL0     H19986   5.703   4.637   1.993  0.4350  0.0441 -1.5035
  145MOL0     H19987   5.538   4.684   2.039 -0.3300 -1.9124  2.0950
  145MOL0     H19988   5.455   4.458   2.014  0.0083 -2.7761 -0.6264
  145MOL0     H19989   5.617   4.410   1.962  2.1921  1.8952  3.0767
  145MOL0     H19990   5.662   4.103   2.821 -0.8409 -0.8012 -1.4680
  145MOL0     H19991   5.587   3.994   3.011  1.3664  2.0643  0.4662
  145MOL0     H19992   5.240   3.872   3.269  0.9787 -2.6599  1.0805
  145MOL0     H19993   5.173   3.725   3.459  1.0846 -0.4455 -3.0182
  145MOL0     H19994   4.039   4.734   4.518  3.7723  2.0127  0.7179
  145MOL0     H19995   3.811   4.759   4.540  1.1029 -0.6337  1.1536
  145MOL0     H19996   3.446   4.971   4.419  0.1092 -3.2684  0.2457
  145MOL0     H19997   3.219   4.995   4.401  0.9519 -2.4320 -1.3822
  145MOL0     H19998   3.055   4.837   4.452  1.1730 -0.8963  2.0166
  145MOL0     H19999   2.942   4.788   4.580 -2.0527 -1.0386 -1.8435
  145MOL0     H20000   2.924   5.006   4.379 -0.1063  1.9534  2.0537
  145MOL0     H20001   2.808   5.005   4.514  0.4294  0.7341 -0.1357
  145MOL0     H20002   2.846   4.786   4.312  0.6336  1.6217 -1.0072
  145MOL0     H20003   2.704   4.802   4.420 -1.5127  2.1306  0.9099
  145MOL0     H20004   2.769   5.012   4.212 -0.3073  2.6700  4.1974
  145MOL0     H20005   2.625   4.997   4.314 -1.7337 -2.0351 -0.4490
  145MOL0     H20006   2.533   4.718   4.016 -1.3689 -0.7851  1.5234
  145MOL0     H20007   3.172   4.962   4.825 -3.2533 -0.6769 -1.8842
  145MOL0     H20008   3.343   4.987   4.952 -2.6183 -0.1117 -3.0644
  145MOL0     H20009   3.470   4.855   4.934 -0.5701  1.3086  0.9995
  145MOL0     H20010   3.507   5.025   4.899 -1.5247  1.8975  1.8604
  146MOL0     O20011  10.611   0.233   2.181  0.1251  0.2931  0.0765
  146MOL0     C20012  10.552   0.327   2.117 -0.8436 -0.6060  0.4045
  146MOL0     O20013  10.439   0.392   2.152 -0.1977 -0.5543  0.1360
  146MOL0     C20014  10.382   0.355   2.273 -0.4900  0.5556 -0.1562
  146MOL0     C20015  10.272   0.272   2.274 -0.1461 -0.2768 -0.5860
  146MOL0     C20016  10.238   0.217   2.392  0.3390  0.5969 -0.5953
  146MOL0     C20017  10.295   0.256   2.519 -0.4782 -0.5020 -0.2934
  146MOL0     O20018  10.258   0.215   2.646  0.4291 -0.3779  0.0733
  146MOL0     C20019  10.171   0.092   2.653  0.4117 -0.7960 -0.0345
  146MOL0     C20020  10.263  -0.025   2.610 -0.7882  0.2980  0.3724
  146MOL0     C20021  10.400  -0.037   2.682 -0.0700 -0.1700 -0.2470
  146MOL0     C20022  10.381  -0.086   2.832  0.3746 -0.9487 -0.4179
  146MOL0     C20023  10.511  -0.148   2.889 -0.0584  0.4790  0.6117
  146MOL0     C20024  10.584  -0.240   2.796  1.5904  0.0223  0.7521
  146MOL0     C20025  10.691  -0.317   2.872  0.1241 -0.2289 -0.4227
  146MOL0     C20026  10.640  -0.404   2.983  0.0642  0.8362  0.8297
  146MOL0     N20027  10.736  -0.443   3.091 -0.8762 -0.2442 -0.3127
  146MOL0     C20028  10.871  -0.432   3.079  0.1035  0.5730  0.2947
  146MOL0     C20029  10.916  -0.446   3.200  1.0376  0.4428  1.0021
  146MOL0     C20030  11.065  -0.438   3.228 -0.5960 -0.6833 -0.3554
  146MOL0     C20031  11.109  -0.584   3.240 -0.2462 -0.6243 -0.0659
  146MOL0     C20032  11.253  -0.579   3.271  0.1324  1.3952  0.0857
  146MOL0     C20033  11.322  -0.717   3.260  0.0585  0.4916 -0.9905
  146MOL0     O20034  11.351  -0.764   3.126  0.0673 -0.3777  0.4584
  146MOL0     C20035  11.454  -0.701   3.055 -0.5914  0.2718 -0.0501
  146MOL0     C20036  11.529  -0.592   3.106 -0.3007 -0.3585 -0.9928
  146MOL0     C20037  11.641  -0.547   3.028 -0.5437  0.5712 -0.9742
  146MOL0     C20038  11.745  -0.452   3.095  0.0305  1.6909  0.0726
  146MOL0     C20039  11.664  -0.587   2.895  1.0344  0.8008  1.0148
  146MOL0     C20040  11.785  -0.555   2.816 -0.3114  0.3730 -0.1664
  146MOL0     O20041  11.837  -0.657   2.739 -0.3069  0.1231 -1.2773
  146MOL0     C20042  11.959  -0.629   2.693  0.1149  0.7611  0.3754
  146MOL0     C20043  11.980  -0.629   2.552  0.0219  0.6395 -0.6206
  146MOL0     C20044  12.113  -0.626   2.502  0.1256  0.4167  0.2299
  146MOL0     C20045  12.224  -0.604   2.584  0.1719  0.8073 -0.1414
  146MOL0     O20046  12.342  -0.578   2.516 -0.0970 -0.5557  0.4489
  146MOL0     C20047  12.455  -0.558   2.591 -0.8993 -0.8506  0.6291
  146MOL0     C20048  12.574  -0.548   2.501 -0.4132 -0.8417  0.1322
  146MOL0     C20049  12.675  -0.431   2.554  0.9661  0.0722 -0.0861
  146MOL0     C20050  12.809  -0.433   2.483 -0.1229 -0.3503 -0.0278
  146MOL0     C20051  12.799  -0.397   2.328  0.0538  1.3537 -0.4385
  146MOL0     C20052  12.733  -0.263   2.310  0.6902 -1.0311 -0.1474
  146MOL0     C20053  12.739  -0.196   2.170  0.2149  0.6021  0.8696
  146MOL0     C20054  12.679  -0.058   2.169  0.1904  0.0537  0.3886
  146MOL0    Cl20055  12.694   0.014   2.012 -0.0637  0.0894  0.0836
  146MOL0     C20056  12.205  -0.600   2.720  1.0767 -0.0988 -0.6908
  146MOL0     C20057  12.072  -0.614   2.774 -0.8791  0.9150  0.2720
  146MOL0     O20058  11.833  -0.441   2.826  0.2736  0.3417 -0.1469
  146MOL0     C20059  11.579  -0.687   2.842  0.9566 -0.0547  1.1143
  146MOL0     C20060  11.471  -0.741   2.921 -0.3786  1.2720 -0.7212
  146MOL0     N20061  10.810  -0.490   3.285  0.5317  0.8984  0.7644
  146MOL0     N20062  10.703  -0.479   3.214  0.0227  0.3725 -0.3045
  146MOL0     C20063  10.397   0.352   2.517  0.0930  0.1664  0.0362
  146MOL0     C20064  10.436   0.410   2.395 -0.2416  1.0784 -0.7930
  146MOL0     C20065  10.632   0.378   1.996 -1.6130 -0.7060 -0.8786
  146MOL0     C20066  10.759   0.335   1.969  0.2394 -0.8463 -0.7106
  146MOL0     C20067  10.839   0.388   1.871  0.0016 -0.0202 -0.0042
  146MOL0     C20068  10.802   0.497   1.795  0.0416 -0.5980  0.6368
  146MOL0     O20069  10.881   0.565   1.699  0.0825  0.5072 -0.6487
  146MOL0     C20070  11.016   0.584   1.727  0.7252  0.7724 -0.3772
  146MOL0     C20071  11.041   0.680   1.845 -0.1255 -0.5599 -0.0692
  146MOL0     C20072  10.987   0.821   1.812 -0.5545  0.0823 -0.1099
  146MOL0     C20073  11.046   0.900   1.688 -0.0051 -1.0269  0.4416
  146MOL0     C20074  11.184   0.939   1.693 -0.6316  0.5907  0.8141
  146MOL0     C20075  11.299   0.986   1.707  1.8154 -0.1708 -0.2256
  146MOL0     C20076  10.672   0.538   1.817  0.1290 -0.5885 -0.7292
  146MOL0     C20077  10.585   0.481   1.910 -0.0365  0.3790  0.8356
  146MOL0     C20078  10.444   0.528   1.902 -1.1839  0.1699 -0.0251
  146MOL0     H20079  10.240   0.216   2.187 -0.6776  2.7936 -2.5327
  146MOL0     H20080  10.156   0.146   2.401  2.0588 -1.2249  3.7375
  146MOL0     H20081  10.080   0.104   2.594  0.6004 -0.5929 -0.2870
  146MOL0     H20082  10.151   0.074   2.759 -2.5289  0.8801 -0.2091
  146MOL0     H20083  10.204  -0.116   2.624 -1.2792  0.6354  0.5283
  146MOL0     H20084  10.280  -0.029   2.502 -0.4286  1.4882  0.3699
  146MOL0     H20085  10.448  -0.115   2.622  0.0177 -0.9180  0.7741
  146MOL0     H20086  10.455   0.057   2.675  1.4111 -0.8384  1.6338
  146MOL0     H20087  10.354   0.007   2.883 -0.4788  0.3367 -3.0718
  146MOL0     H20088  10.302  -0.158   2.854  0.3120 -0.5523  0.7586
  146MOL0     H20089  10.467  -0.201   2.974 -1.1261 -0.9206 -0.7438
  146MOL0     H20090  10.573  -0.070   2.934 -1.7336  0.1318  3.8153
  146MOL0     H20091  10.516  -0.308   2.742  2.3986 -0.6348  0.5450
  146MOL0     H20092  10.634  -0.183   2.717 -1.1207  2.3735  0.5658
  146MOL0     H20093  10.770  -0.246   2.897  1.4007 -1.0392 -2.0156
  146MOL0     H20094  10.734  -0.381   2.794  2.5514  3.1476 -2.1031
  146MOL0     H20095  10.545  -0.370   3.024 -0.8635  0.4250 -0.8834
  146MOL0     H20096  10.608  -0.500   2.941 -1.5212  0.4608  2.7530
  146MOL0     H20097  10.918  -0.398   2.987  0.6504  2.1035  1.1068
  146MOL0     H20098  11.087  -0.383   3.320  1.4851 -1.3278 -0.4160
  146MOL0     H20099  11.117  -0.378   3.154 -2.1216  2.1670  0.7398
  146MOL0     H20100  11.050  -0.622   3.324 -0.9988 -2.1512 -1.2438
  146MOL0     H20101  11.084  -0.644   3.152  1.0937 -1.0547 -0.1712
  146MOL0     H20102  11.295  -0.515   3.193 -0.0885  2.7684  1.0621
  146MOL0     H20103  11.295  -0.538   3.363  2.3365  0.1657 -0.2937
  146MOL0     H20104  11.413  -0.730   3.319 -0.1499 -2.2290 -1.1387
  146MOL0     H20105  11.257  -0.795   3.302 -0.7420  0.7283 -1.7496
  146MOL0     H20106  11.509  -0.551   3.204 -0.1751 -2.8450  0.1392
  146MOL0     H20107  11.850  -0.480   3.109 -0.7782 -0.7081  1.9498
  146MOL0     H20108  11.727  -0.442   3.202 -0.2193 -0.9446  0.3328
  146MOL0     H20109  11.745  -0.352   3.051 -0.1536  2.4415  1.7072
  146MOL0     H20110  11.900  -0.644   2.480  0.4107 -0.0561 -0.9260
  146MOL0     H20111  12.111  -0.627   2.394  0.9142 -2.7242  0.1439
  146MOL0     H20112  12.442  -0.461   2.641 -2.1049 -0.2070 -0.8717
  146MOL0     H20113  12.464  -0.635   2.668 -2.4331 -2.4150 -0.6701
  146MOL0     H20114  12.624  -0.645   2.511  0.3531 -0.2517  2.6770
  146MOL0     H20115  12.554  -0.526   2.396 -1.7626  1.1633  0.7376
  146MOL0     H20116  12.691  -0.441   2.662  0.9575 -1.6823 -0.2156
  146MOL0     H20117  12.621  -0.339   2.532 -1.3913 -0.1101  3.9529
  146MOL0     H20118  12.855  -0.527   2.514  2.1694  0.6640 -0.1551
  146MOL0     H20119  12.872  -0.359   2.533  2.8427 -2.4956 -0.3410
  146MOL0     H20120  12.900  -0.399   2.287 -0.0755 -1.6055 -0.8017
  146MOL0     H20121  12.755  -0.471   2.261  2.8427 -0.7739 -0.0724
  146MOL0     H20122  12.773  -0.190   2.381 -0.3863 -1.5102  0.9803
  146MOL0     H20123  12.626  -0.282   2.324  0.6802  0.3550  2.0409
  146MOL0     H20124  12.674  -0.252   2.102  3.3955 -3.0028  0.4169
  146MOL0     H20125  12.837  -0.187   2.122 -0.2487 -2.6245 -1.0043
  146MOL0     H20126  12.724   0.010   2.242 -2.3417 -1.3000  3.4606
  146MOL0     H20127  12.571  -0.058   2.186 -0.1698  0.8827 -1.5530
  146MOL0     H20128  12.287  -0.596   2.790 -1.7120 -1.7041  2.9932
  146MOL0     H20129  12.074  -0.616   2.883 -2.3222  3.5830  0.4579
  146MOL0     H20130  11.603  -0.725   2.744  1.1840  0.4523  0.9690
  146MOL0     H20131  11.419  -0.828   2.883 -1.1722  1.3254  0.2246
  146MOL0     H20132  10.443   0.386   2.609  1.2127  1.0152 -0.7938
  146MOL0     H20133  10.510   0.489   2.392 -0.4221  1.3416  0.7889
  146MOL0     H20134  10.802   0.261   2.036 -1.9108 -2.1541 -0.7124
  146MOL0     H20135  10.937   0.343   1.855 -0.5284 -1.5112  0.7464
  146MOL0     H20136  11.064   0.490   1.754 -1.0447 -0.9249 -2.7931
  146MOL0     H20137  11.061   0.620   1.635  1.3110 -0.9166 -0.7785
  146MOL0     H20138  11.149   0.683   1.864  0.2614  2.5929 -2.0701
  146MOL0     H20139  10.984   0.641   1.929 -3.7181 -1.1198 -2.5358
  146MOL0     H20140  10.882   0.807   1.787 -0.7213  0.9577  0.0807
  146MOL0     H20141  10.984   0.890   1.897 -0.1007  0.6660 -0.5527
  146MOL0     H20142  10.987   0.987   1.659 -4.2714 -3.3931  1.2303
  146MOL0     H20143  11.037   0.835   1.600  0.6135 -1.9445  1.0336
  146MOL0     H20144  11.390   1.040   1.728  1.1454  0.5358  0.9520
  146MOL0     H20145  10.642   0.618   1.749 -1.8718  1.1513  1.9975
  146MOL0     H20146  10.435   0.599   1.819 -2.0765  1.5302  1.1673
  146MOL0     H20147  10.369   0.450   1.887 -1.8997  1.0729 -1.3322
  146MOL0     H20148  10.409   0.569   1.998  0.3835  2.4529 -0.3303
  147MOL0     O20149   2.994   9.964   9.602  0.8940 -0.1496  0.6374
  147MOL0     C20150   2.998   9.847   9.630 -0.3465  0.2421  0.2761
  147MOL0     O20151   2.994   9.743   9.544  0.5258  0.4862 -0.5417
  147MOL0     C20152   2.978   9.752   9.410 -0.2101 -0.6347 -0.1320
  147MOL0     C20153   3.045   9.671   9.324 -0.1258 -0.5610 -1.0235
  147MOL0     C20154   3.032   9.677   9.187  0.4637  0.2148  0.0601
  147MOL0     C20155   2.946   9.773   9.131 -0.4490 -0.5637 -0.8634
  147MOL0     O20156   2.944   9.804   9.002  0.0771 -0.0129  0.7250
  147MOL0     C20157   3.068   9.873   8.965 -1.0193  1.3465  0.1890
  147MOL0     C20158   3.110   9.819   8.814  0.0618 -0.5127  0.2889
  147MOL0     C20159   3.220   9.906   8.764 -0.2366  0.5815  0.0226
  147MOL0     C20160   3.272   9.854   8.632 -0.1126 -1.0765  1.4838
  147MOL0     C20161   3.404   9.912   8.591  0.2976  0.2638  0.0875
  147MOL0     C20162   3.405   9.996   8.468 -0.3886  0.6197 -0.3573
  147MOL0     C20163   3.527  10.090   8.471 -0.5227 -0.4169 -1.3065
  147MOL0     C20164   3.673  10.019   8.467  0.0587 -0.1333 -0.1161
  147MOL0     N20165   3.792  10.107   8.490 -0.9200  0.2980 -0.0872
  147MOL0     C20166   3.910  10.091   8.439 -0.3590 -0.1556  0.2368
  147MOL0     C20167   3.994  10.183   8.495 -0.4398 -0.0127 -0.7677
  147MOL0     C20168   4.143  10.215   8.466  0.1088  0.2296  1.0567
  147MOL0     C20169   4.237  10.164   8.570  0.4600 -0.1972  1.1401
  147MOL0     C20170   4.250  10.010   8.553 -0.4014  0.4772  0.8399
  147MOL0     C20171   4.346   9.930   8.638  0.6222  0.2828  0.7838
  147MOL0     O20172   4.357   9.797   8.585  0.6829  0.0916 -0.4563
  147MOL0     C20173   4.303   9.697   8.658  0.3149 -0.1866 -1.0454
  147MOL0     C20174   4.365   9.577   8.674 -0.4009  0.8946  0.3798
  147MOL0     C20175   4.304   9.460   8.733  0.8987  0.1159 -0.6687
  147MOL0     C20176   4.387   9.334   8.750  0.8438  0.2776  0.0770
  147MOL0     C20177   4.170   9.475   8.768  0.1226  0.0334  0.3756
  147MOL0     C20178   4.084   9.374   8.840  0.2437  0.4083  0.5643
  147MOL0     O20179   3.950   9.385   8.844  1.1872 -0.5312 -0.2773
  147MOL0     C20180   3.862   9.286   8.877  0.7111  0.2038 -0.3963
  147MOL0     C20181   3.820   9.255   9.015  1.1346 -0.0870 -0.3247
  147MOL0     C20182   3.709   9.173   9.041  0.8206  0.5097 -0.4282
  147MOL0     C20183   3.648   9.100   8.936 -0.2847 -0.7840  0.3836
  147MOL0     O20184   3.542   9.006   8.939 -0.3392 -0.7974  0.6190
  147MOL0     C20185   3.420   9.047   8.994  0.6464  0.3967  0.0057
  147MOL0     C20186   3.331   8.922   9.018  0.0782  0.1519 -0.2758
  147MOL0     C20187   3.213   8.946   9.104  1.4069 -0.6084 -0.1720
  147MOL0     C20188   3.149   8.802   9.136 -0.6984 -0.5184 -0.7644
  147MOL0     C20189   3.004   8.800   9.164 -0.5407 -0.0533  0.6537
  147MOL0     C20190   2.950   8.905   9.263 -0.4863  0.0949  0.1088
  147MOL0     C20191   3.034   8.892   9.387  0.1204  0.0117 -0.7620
  147MOL0     C20192   3.051   8.743   9.451 -1.3109 -0.2299  0.2870
  147MOL0    Cl20193   2.884   8.699   9.507  0.0757 -0.0572  0.5836
  147MOL0     C20194   3.689   9.127   8.803  0.7957 -0.2349  0.3475
  147MOL0     C20195   3.784   9.227   8.772 -0.3647 -0.2393 -0.1456
  147MOL0     O20196   4.146   9.283   8.894 -0.8807 -0.8317  0.7821
  147MOL0     C20197   4.102   9.597   8.751  0.2926  0.1562  0.3563
  147MOL0     C20198   4.172   9.704   8.689 -0.4890  0.1196  0.1899
  147MOL0     N20199   3.920  10.248   8.583 -0.2706 -0.4261  0.1328
  147MOL0     N20200   3.798  10.203   8.581  0.9042  0.2739 -1.1192
  147MOL0     C20201   2.866   9.860   9.218 -0.1900  0.4002 -0.0211
  147MOL0     C20202   2.881   9.837   9.356 -0.1511  0.4195 -0.1442
  147MOL0     C20203   2.992   9.809   9.769  0.3254  0.4520 -0.0622
  147MOL0     C20204   2.961   9.905   9.869  0.3377  0.0880  0.1365
  147MOL0     C20205   2.970   9.871  10.003  0.3315  0.3982  0.4486
  147MOL0     C20206   2.972   9.736  10.045  0.5728 -0.0691  1.3145
  147MOL0     O20207   2.975   9.699  10.171 -0.4626  1.3201 -0.2869
  147MOL0     C20208   2.861   9.754  10.244 -0.2231  0.0408  0.9377
  147MOL0     C20209   2.837   9.682  10.379 -0.2776 -0.3263  1.1418
  147MOL0     C20210   2.955   9.698  10.476  0.4880  0.4384  0.3627
  147MOL0     C20211   2.918   9.643  10.611 -0.2429  0.0474 -0.9750
  147MOL0     C20212   3.008   9.718  10.710  0.5098  0.0322 -0.6519
  147MOL0     C20213   3.065   9.802  10.778  0.0489  1.1124  0.9963
  147MOL0     C20214   2.987   9.641   9.945 -0.6364 -0.5785 -1.3433
  147MOL0     C20215   3.013   9.671   9.810  0.4092  0.0470  0.3336
  147MOL0     C20216   3.063   9.551   9.737  0.2482 -0.1840  0.0084
  147MOL0     H20217   3.105   9.597   9.376 -0.0290  0.6066  0.6248
  147MOL0     H20218   3.076   9.603   9.122 -2.5885 -0.3526 -1.5481
  147MOL0     H20219   3.146   9.859   9.040 -1.5216  1.2374  0.6988
  147MOL0     H20220   3.045   9.980   8.961 -4.2617  0.8361  2.0936
  147MOL0     H20221   3.131   9.712   8.827 -4.2996 -1.7834 -1.3449
  147MOL0     H20222   3.022   9.828   8.750 -1.9222 -4.6954  2.0459
  147MOL0     H20223   3.201  10.014   8.759  1.7806  0.9420 -0.7737
  147MOL0     H20224   3.299   9.903   8.840 -0.1950  3.3210  0.2132
  147MOL0     H20225   3.293   9.747   8.638 -1.4672 -1.6158 -1.3885
  147MOL0     H20226   3.204   9.870   8.548  1.8758  0.1437  0.0486
  147MOL0     H20227   3.482   9.836   8.600  2.3743  2.4640  2.4462
  147MOL0     H20228   3.430   9.981   8.672 -0.0698  1.7310 -0.9948
  147MOL0     H20229   3.410   9.936   8.377 -3.0153  1.5122 -1.1937
  147MOL0     H20230   3.308  10.047   8.469 -0.4577  0.5379  1.6624
  147MOL0     H20231   3.521  10.164   8.552 -1.2087 -0.4913 -1.2850
  147MOL0     H20232   3.516  10.157   8.385 -1.6891  0.9395 -0.1566
  147MOL0     H20233   3.667   9.948   8.549 -0.4276  0.8098  0.6898
  147MOL0     H20234   3.693   9.982   8.366  0.2117 -1.1509  0.2793
  147MOL0     H20235   3.942  10.013   8.372  0.3831 -0.1052  0.5245
  147MOL0     H20236   4.162  10.323   8.460  1.4013  0.1846  3.3901
  147MOL0     H20237   4.180  10.162   8.378  1.9322  3.7734 -0.5328
  147MOL0     H20238   4.337  10.210   8.568  0.0343  0.9254 -2.6690
  147MOL0     H20239   4.188  10.185   8.665 -0.0477 -1.5764  1.1981
  147MOL0     H20240   4.152   9.969   8.580 -0.3821 -0.6519 -0.6600
  147MOL0     H20241   4.272   9.984   8.449  0.3401 -1.3793  1.4246
  147MOL0     H20242   4.440   9.983   8.622 -0.8292  2.5520 -0.7407
  147MOL0     H20243   4.311   9.940   8.741  3.1522  0.9392  1.6409
  147MOL0     H20244   4.469   9.578   8.643 -0.8114  1.8854 -1.0709
  147MOL0     H20245   4.470   9.330   8.679 -0.2120  3.0813 -1.4604
  147MOL0     H20246   4.323   9.252   8.716 -0.3890  1.1901  0.1354
  147MOL0     H20247   4.426   9.313   8.850 -2.0348 -1.4247  0.9817
  147MOL0     H20248   3.869   9.299   9.101  0.3445  1.3471 -0.5662
  147MOL0     H20249   3.683   9.150   9.144  1.9573 -3.2046 -0.8106
  147MOL0     H20250   3.428   9.116   9.079 -2.5850  0.4048  0.4172
  147MOL0     H20251   3.370   9.104   8.915 -0.7391 -2.8570 -1.6129
  147MOL0     H20252   3.296   8.890   8.919  1.4119 -0.7042 -0.4852
  147MOL0     H20253   3.392   8.847   9.069  1.2189  0.6906 -0.8056
  147MOL0     H20254   3.137   9.011   9.062  1.4910 -0.8503 -0.7097
  147MOL0     H20255   3.248   8.995   9.195 -2.3037  0.3016  0.9367
  147MOL0     H20256   3.201   8.760   9.223 -0.7165  1.3693  0.2214
  147MOL0     H20257   3.168   8.746   9.045  1.8235 -0.8358 -0.1056
  147MOL0     H20258   2.964   8.835   9.068  2.4194  0.6143 -0.4464
  147MOL0     H20259   2.966   8.698   9.175 -0.9372 -0.1770 -1.4477
  147MOL0     H20260   2.844   8.892   9.285 -1.0398  4.6147  1.0554
  147MOL0     H20261   2.951   9.008   9.226  1.2847 -0.0630 -0.3925
  147MOL0     H20262   2.981   8.946   9.466 -2.2983  0.6618 -2.6919
  147MOL0     H20263   3.134   8.932   9.369  0.6879 -0.9985  0.0598
  147MOL0     H20264   3.119   8.760   9.535  0.7821  2.5774 -1.7627
  147MOL0     H20265   3.096   8.672   9.382 -4.7885 -2.2737 -0.1056
  147MOL0     H20266   3.639   9.073   8.723 -3.3497  0.4528  2.2105
  147MOL0     H20267   3.807   9.262   8.671 -0.0811  0.4696  0.1564
  147MOL0     H20268   3.999   9.616   8.782  1.2664  2.1784  2.6338
  147MOL0     H20269   4.113   9.794   8.681  1.3637  1.2901 -1.4353
  147MOL0     H20270   2.794   9.927   9.173 -2.5314 -1.7815  0.2965
  147MOL0     H20271   2.826   9.893   9.431 -0.0113  0.6116 -0.1844
  147MOL0     H20272   2.944  10.010   9.846 -0.0265 -0.3752 -1.9504
  147MOL0     H20273   2.960   9.956  10.070  1.7924  0.7749  0.2304
  147MOL0     H20274   2.877   9.860  10.263 -3.0444  0.5663  0.7998
  147MOL0     H20275   2.768   9.744  10.186 -0.6784  0.0020  1.6600
  147MOL0     H20276   2.833   9.576  10.354  0.6343 -0.0681 -0.2073
  147MOL0     H20277   2.741   9.716  10.420  0.1205 -0.4173  2.1947
  147MOL0     H20278   3.048   9.655  10.435  0.0162 -2.5335  2.1020
  147MOL0     H20279   2.955   9.807  10.481 -3.8293  0.5428  1.2387
  147MOL0     H20280   2.951   9.540  10.624  0.5722  0.5734  2.0277
  147MOL0     H20281   2.816   9.667  10.641  0.0505  0.2006 -0.0671
  147MOL0     H20282   3.119   9.886  10.816  2.0890  0.5520 -0.4656
  147MOL0     H20283   2.988   9.536   9.973  5.5272  0.2607  4.2013
  147MOL0     H20284   3.151   9.505   9.784  0.5911 -1.1087 -1.4895
  147MOL0     H20285   2.990   9.470   9.730  1.2897 -1.2683  1.0808
  147MOL0     H20286   3.106   9.565   9.637  1.4827  0.1654  0.5636
  148MOL0     O20287   6.460   7.587   4.219  0.9045  0.1092 -0.5922
  148MOL0     C20288   6.433   7.647   4.324  0.2289  1.3545  0.9585
  148MOL0     O20289   6.515   7.729   4.390 -0.1657  0.1088 -0.0601
  148MOL0     C20290   6.650   7.734   4.360 -0.2117 -0.0172 -0.1855
  148MOL0     C20291   6.746   7.736   4.463  0.4799  0.9127 -0.3328
  148MOL0     C20292   6.879   7.726   4.448 -0.1295 -0.2170 -0.1853
  148MOL0     C20293   6.939   7.727   4.317 -0.3280  0.7229 -1.0929
  148MOL0     O20294   7.068   7.736   4.281  0.6211  0.2859  0.0969
  148MOL0     C20295   7.168   7.747   4.382 -0.3573 -0.1022  0.7989
  148MOL0     C20296   7.313   7.708   4.326  1.2321 -0.6974 -0.7642
  148MOL0     C20297   7.411   7.728   4.440  0.4604 -0.4476 -0.4678
  148MOL0     C20298   7.552   7.745   4.391  0.3155  0.6465 -0.0497
  148MOL0     C20299   7.651   7.800   4.501 -0.3555 -0.1856 -0.3436
  148MOL0     C20300   7.653   7.692   4.613  0.2307 -0.3716  0.7321
  148MOL0     C20301   7.775   7.718   4.701 -0.4677 -0.4268 -0.4992
  148MOL0     C20302   7.748   7.841   4.790 -0.1784  0.8403  0.3351
  148MOL0     N20303   7.790   7.823   4.929  0.5262  0.3014  0.1260
  148MOL0     C20304   7.920   7.783   4.972  0.9275  0.2543 -0.2780
  148MOL0     C20305   7.939   7.828   5.107  1.1639  0.6180 -0.6855
  148MOL0     C20306   8.058   7.847   5.189  0.1538 -0.0893 -0.4061
  148MOL0     C20307   8.106   7.739   5.277 -0.4848  0.0933  0.2308
  148MOL0     C20308   8.232   7.791   5.330 -0.3781  0.2662 -0.0155
  148MOL0     C20309   8.303   7.690   5.416  0.3753  0.5173  1.2456
  148MOL0     O20310   8.409   7.753   5.482 -0.0636  0.6799 -0.6150
  148MOL0     C20311   8.507   7.680   5.543 -0.5760  0.0992 -0.6181
  148MOL0     C20312   8.542   7.549   5.517 -0.1099 -1.0370  1.0660
  148MOL0     C20313   8.656   7.492   5.565  0.1251  0.7061  0.2330
  148MOL0     C20314   8.696   7.361   5.513 -0.2402  0.0077  0.1155
  148MOL0     C20315   8.726   7.557   5.665  0.4324  0.3217 -0.4610
  148MOL0     C20316   8.841   7.512   5.738 -0.4695 -0.2125 -0.5011
  148MOL0     O20317   8.876   7.593   5.844  0.5176  0.1189 -0.6279
  148MOL0     C20318   8.961   7.542   5.939 -0.3689 -0.0183  0.2782
  148MOL0     C20319   8.930   7.431   6.020  0.3251  0.2916  0.8477
  148MOL0     C20320   9.013   7.378   6.121  0.5616 -0.1153  0.5794
  148MOL0     C20321   9.139   7.441   6.136  0.3616  0.1718 -0.0437
  148MOL0     O20322   9.238   7.392   6.228  0.1600  0.1907  0.2051
  148MOL0     C20323   9.251   7.251   6.223 -0.2274 -0.3953 -0.0175
  148MOL0     C20324   9.363   7.226   6.308 -0.1805  0.3922 -0.8068
  148MOL0     C20325   9.422   7.088   6.290  0.4356  0.1074  0.3686
  148MOL0     C20326   9.501   7.072   6.165 -0.1092  0.0917  0.7816
  148MOL0     C20327   9.593   6.953   6.182 -0.3720  1.5849 -0.8058
  148MOL0     C20328   9.647   6.910   6.052 -0.1085  0.6352  0.2437
  148MOL0     C20329   9.777   6.837   6.060  0.5375  0.9672 -0.6551
  148MOL0     C20330   9.887   6.948   6.067 -0.1945 -0.2585 -1.0546
  148MOL0    Cl20331  10.044   6.868   6.110  0.1439  0.0494  0.4185
  148MOL0     C20332   9.173   7.546   6.065 -0.7468 -0.6727  0.6280
  148MOL0     C20333   9.088   7.604   5.970  0.1129  0.4274 -0.3656
  148MOL0     O20334   8.882   7.403   5.715 -0.1815 -0.2601  0.0963
  148MOL0     C20335   8.680   7.684   5.709 -0.1647  0.2115  0.2338
  148MOL0     C20336   8.581   7.752   5.646  0.6108  0.1899 -0.5234
  148MOL0     N20337   7.821   7.898   5.128 -0.1438  0.2746  0.2061
  148MOL0     N20338   7.734   7.889   5.035  1.1983  0.5325 -0.4590
  148MOL0     C20339   6.847   7.725   4.216 -0.2081 -0.2739 -1.1645
  148MOL0     C20340   6.710   7.731   4.228  1.3599 -0.4155  0.2268
  148MOL0     C20341   6.296   7.643   4.370  0.9180 -0.8412  1.4260
  148MOL0     C20342   6.198   7.650   4.268 -0.9606 -0.1879 -0.3692
  148MOL0     C20343   6.068   7.625   4.305  0.2167  0.0919 -0.1197
  148MOL0     C20344   6.019   7.617   4.437 -0.1796  0.4012 -0.1311
  148MOL0     O20345   5.887   7.600   4.458 -0.6946  0.2727  0.7154
  148MOL0     C20346   5.846   7.462   4.440 -1.0659  0.1313  0.1411
  148MOL0     C20347   5.759   7.411   4.558 -0.1934  0.5319 -0.6946
  148MOL0     C20348   5.609   7.440   4.543  0.0802  0.4086 -0.4733
  148MOL0     C20349   5.534   7.315   4.493 -0.2109  0.3959 -0.5445
  148MOL0     C20350   5.569   7.286   4.363 -0.3161 -0.0667  0.9654
  148MOL0     C20351   5.599   7.267   4.248 -0.3436 -0.2134  0.5805
  148MOL0     C20352   6.118   7.621   4.538  0.2977  0.1635  0.2768
  148MOL0     C20353   6.256   7.644   4.510 -0.3402 -0.6861  0.4618
  148MOL0     C20354   6.369   7.618   4.617 -0.2577 -0.5797  0.1258
  148MOL0     H20355   6.723   7.751   4.568  2.6620 -0.2204  0.3632
  148MOL0     H20356   6.948   7.743   4.529  2.8639 -2.0156 -2.1535
  148MOL0     H20357   7.155   7.701   4.480 -0.1608 -1.8758  0.0237
  148MOL0     H20358   7.163   7.856   4.393  0.7540  0.1365 -0.7523
  148MOL0     H20359   7.322   7.605   4.289  0.8234 -1.2541  0.5954
  148MOL0     H20360   7.333   7.775   4.242 -0.9823  1.8861  0.6281
  148MOL0     H20361   7.376   7.818   4.491  0.2491 -0.1258 -1.1652
  148MOL0     H20362   7.413   7.635   4.498 -0.0046 -2.3010 -3.1931
  148MOL0     H20363   7.602   7.666   4.334 -1.0005  0.3634 -0.8384
  148MOL0     H20364   7.541   7.817   4.310 -1.7956  0.4988  0.0649
  148MOL0     H20365   7.613   7.896   4.536  2.2101  0.9244 -0.3877
  148MOL0     H20366   7.750   7.830   4.463  0.2880 -3.0869 -1.2351
  148MOL0     H20367   7.554   7.686   4.660 -0.0997  0.8802  0.2297
  148MOL0     H20368   7.661   7.590   4.576 -1.4951 -1.0753  2.1660
  148MOL0     H20369   7.869   7.717   4.645 -0.2234  1.3225 -0.1676
  148MOL0     H20370   7.779   7.635   4.773  2.3043  0.2068  0.2037
  148MOL0     H20371   7.797   7.934   4.760  3.5610 -0.7011  1.0646
  148MOL0     H20372   7.640   7.859   4.791 -0.3417 -0.0345  0.0183
  148MOL0     H20373   8.000   7.743   4.911  1.7915  3.0812 -1.1469
  148MOL0     H20374   8.040   7.941   5.242  3.1870 -1.2149  2.9356
  148MOL0     H20375   8.140   7.853   5.117  0.2076  1.0446 -0.2705
  148MOL0     H20376   8.031   7.717   5.353 -2.7412 -0.7028 -2.0670
  148MOL0     H20377   8.127   7.647   5.221 -0.5838  0.9578 -1.3074
  148MOL0     H20378   8.298   7.824   5.249 -0.4458  1.1854  0.2979
  148MOL0     H20379   8.221   7.884   5.387 -0.1874  1.2717 -1.5796
  148MOL0     H20380   8.244   7.645   5.497  0.2819 -2.9495 -0.5713
  148MOL0     H20381   8.336   7.615   5.344 -3.4764  1.3010 -1.7234
  148MOL0     H20382   8.491   7.501   5.434 -1.8911  5.7186 -2.4545
  148MOL0     H20383   8.700   7.284   5.591 -1.1699 -0.9051 -0.7164
  148MOL0     H20384   8.798   7.380   5.478 -0.1283 -0.6728  0.0617
  148MOL0     H20385   8.636   7.319   5.432 -1.6218  0.9475  0.6240
  148MOL0     H20386   8.837   7.380   5.997  0.3733  1.0920 -1.3495
  148MOL0     H20387   8.974   7.306   6.192 -2.3546  0.0817 -0.6925
  148MOL0     H20388   9.157   7.209   6.261 -0.2520  0.4990  0.9511
  148MOL0     H20389   9.259   7.215   6.120 -0.9180 -0.3506 -0.0889
  148MOL0     H20390   9.446   7.296   6.298  0.5340  0.3391  3.0119
  148MOL0     H20391   9.320   7.234   6.409  1.3275 -0.4792 -0.0590
  148MOL0     H20392   9.337   7.020   6.280 -0.2053  0.8463  0.7734
  148MOL0     H20393   9.481   7.076   6.381  0.0537  0.2867  0.6411
  148MOL0     H20394   9.565   7.155   6.135 -1.6664  0.3230 -2.2569
  148MOL0     H20395   9.441   7.048   6.078 -1.7583 -0.4954  2.0409
  148MOL0     H20396   9.672   6.990   6.248 -1.4453  0.4403  1.2187
  148MOL0     H20397   9.547   6.870   6.237  1.8596 -1.2581 -2.8890
  148MOL0     H20398   9.655   7.001   5.991  1.1089  2.9080  3.5062
  148MOL0     H20399   9.571   6.845   6.008  0.4718  0.7346 -0.9374
  148MOL0     H20400   9.793   6.772   5.974 -1.7774  1.4593 -1.5341
  148MOL0     H20401   9.788   6.767   6.144  1.3857  1.1939 -0.5727
  148MOL0     H20402   9.868   7.017   6.149 -1.0670  1.5339 -2.6713
  148MOL0     H20403   9.907   7.003   5.974 -0.3107  0.3539 -0.7184
  148MOL0     H20404   9.270   7.595   6.072 -1.0425 -0.2095  1.6560
  148MOL0     H20405   9.115   7.698   5.922  1.1571  0.2257 -0.1901
  148MOL0     H20406   8.716   7.749   5.788  2.9300  0.3192 -1.1236
  148MOL0     H20407   8.554   7.854   5.673 -3.2129 -0.7320 -0.3245
  148MOL0     H20408   6.892   7.728   4.117  2.8218 -0.8298  0.0804
  148MOL0     H20409   6.649   7.728   4.139 -0.2306  1.7730  1.1451
  148MOL0     H20410   6.213   7.664   4.162 -2.8699  0.5246 -0.5886
  148MOL0     H20411   6.000   7.630   4.220  0.9426 -3.2544 -1.0457
  148MOL0     H20412   5.787   7.462   4.348 -2.8287 -0.3563  1.2143
  148MOL0     H20413   5.928   7.390   4.439 -2.6716 -1.7683 -0.0520
  148MOL0     H20414   5.799   7.450   4.652 -2.4412  0.9054  0.1758
  148MOL0     H20415   5.772   7.303   4.554  2.9506  0.5640  2.9328
  148MOL0     H20416   5.570   7.451   4.645  2.2342 -1.4432  0.6547
  148MOL0     H20417   5.588   7.534   4.491  1.4456 -0.1840 -2.1758
  148MOL0     H20418   5.429   7.346   4.497 -0.1225  0.7004 -0.5558
  148MOL0     H20419   5.533   7.228   4.559 -2.2017 -1.0084 -2.3109
  148MOL0     H20420   5.632   7.235   4.151  0.4397 -2.5074  1.5441
  148MOL0     H20421   6.082   7.610   4.640  1.5930  0.3934  0.7710
  148MOL0     H20422   6.319   7.573   4.703 -2.2808  1.7344  0.2918
  148MOL0     H20423   6.453   7.559   4.579  0.5600  0.7656 -0.2203
  148MOL0     H20424   6.406   7.715   4.653  2.6865 -0.8830 -1.7598
  149MOL0     O20425   5.822   6.842   4.743  0.2017  0.1841 -0.2735
  149MOL0     C20426   5.747   6.740   4.740 -0.2585 -0.7463  0.5009
  149MOL0     O20427   5.729   6.657   4.846  0.1637  0.5395  0.4780
  149MOL0     C20428   5.801   6.663   4.963  0.6554 -0.3916 -0.0568
  149MOL0     C20429   5.733   6.618   5.081  0.0808 -0.4229 -0.1883
  149MOL0     C20430   5.797   6.614   5.198  0.0753 -0.3052  0.0578
  149MOL0     C20431   5.927   6.668   5.215  0.7645  0.3105  0.3706
  149MOL0     O20432   5.994   6.649   5.334 -0.5196  0.5157 -0.5701
  149MOL0     C20433   5.980   6.768   5.416 -1.3144 -0.4224 -0.1495
  149MOL0     C20434   6.008   6.730   5.559 -0.0277 -1.2459  1.1842
  149MOL0     C20435   5.995   6.850   5.653 -0.5975 -0.6053  0.5103
  149MOL0     C20436   6.135   6.897   5.710 -0.0977  0.4408 -0.1925
  149MOL0     C20437   6.135   7.021   5.793  0.2339 -0.0104 -0.2580
  149MOL0     C20438   6.031   7.029   5.907 -0.3778  0.0837  0.1362
  149MOL0     C20439   6.038   7.161   5.989  0.7141 -0.1537 -0.1704
  149MOL0     C20440   5.990   7.130   6.130 -0.2981 -0.0529 -0.7372
  149MOL0     N20441   6.083   7.057   6.216 -0.3955 -0.1222  0.3164
  149MOL0     C20442   6.216   7.085   6.248 -0.0129  0.7790  0.2570
  149MOL0     C20443   6.251   7.010   6.357  0.2722  0.2124  0.3760
  149MOL0     C20444   6.370   7.043   6.431  0.0068 -1.3369 -0.2716
  149MOL0     C20445   6.505   7.019   6.366  0.6732  0.0896  0.1217
  149MOL0     C20446   6.622   7.070   6.440  0.0878  1.2126  0.3289
  149MOL0     C20447   6.647   7.216   6.418  0.0803 -0.6199  0.6615
  149MOL0     O20448   6.762   7.264   6.484 -0.2063 -0.1285  0.1650
  149MOL0     C20449   6.749   7.308   6.617 -0.4286  0.6485  0.5940
  149MOL0     C20450   6.867   7.370   6.667  0.3763  0.2217 -0.4183
  149MOL0     C20451   6.865   7.405   6.801  0.5710 -0.4881 -0.7625
  149MOL0     C20452   6.981   7.502   6.833 -0.2106  0.9656 -0.2949
  149MOL0     C20453   6.749   7.373   6.887  0.1385 -0.0223  1.2134
  149MOL0     C20454   6.746   7.406   7.037  0.6474 -0.1713  0.7208
  149MOL0     O20455   6.657   7.351   7.117 -0.3663 -0.0689 -0.4365
  149MOL0     C20456   6.663   7.373   7.255  0.9262 -0.1516  1.0766
  149MOL0     C20457   6.690   7.267   7.343 -0.0267  0.1397  0.1935
  149MOL0     C20458   6.679   7.281   7.479  0.2187 -0.2533  0.2957
  149MOL0     C20459   6.662   7.406   7.532  0.4319 -0.6961  0.6621
  149MOL0     O20460   6.656   7.414   7.670 -0.1664 -0.6310 -0.4668
  149MOL0     C20461   6.663   7.540   7.732 -0.0762  1.0017  0.3670
  149MOL0     C20462   6.616   7.519   7.870 -0.5665  0.2602 -0.0098
  149MOL0     C20463   6.669   7.394   7.939 -0.3279  0.3791 -0.0847
  149MOL0     C20464   6.613   7.387   8.083 -0.7558 -0.6681  0.3950
  149MOL0     C20465   6.687   7.283   8.163 -0.4311 -0.7304  0.7337
  149MOL0     C20466   6.817   7.347   8.207 -0.2061  0.4951  0.7986
  149MOL0     C20467   6.897   7.244   8.291  0.1201 -0.7923 -0.2397
  149MOL0     C20468   7.044   7.295   8.334  0.1078  0.1587 -0.0086
  149MOL0    Cl20469   7.055   7.479   8.372 -0.2584 -0.2506 -0.2092
  149MOL0     C20470   6.634   7.517   7.439 -0.4610  0.5867  0.6207
  149MOL0     C20471   6.640   7.499   7.300  0.6841 -0.5039  0.3344
  149MOL0     O20472   6.829   7.487   7.082  0.2733  0.1103 -0.6547
  149MOL0     C20473   6.639   7.318   6.828 -0.5392 -0.4002  0.0677
  149MOL0     C20474   6.636   7.280   6.698  0.3429 -0.1459  0.2344
  149MOL0     N20475   6.132   6.948   6.399 -0.3352 -0.2378  0.1621
  149MOL0     N20476   6.032   6.974   6.316 -0.4654 -0.1558 -0.1829
  149MOL0     C20477   5.992   6.722   5.107 -0.3019 -0.9692 -1.3625
  149MOL0     C20478   5.927   6.713   4.979 -0.6306  0.0737 -0.2232
  149MOL0     C20479   5.665   6.718   4.620  0.0254 -0.7462  0.2668
  149MOL0     C20480   5.615   6.590   4.597  0.9819  0.0387  0.0386
  149MOL0     C20481   5.518   6.570   4.492  0.2479  0.6219  0.6221
  149MOL0     C20482   5.490   6.664   4.395  0.7473 -0.1494  1.0177
  149MOL0     O20483   5.383   6.633   4.299  0.4281  0.7297  0.3949
  149MOL0     C20484   5.335   6.721   4.201  0.1444 -0.0375 -0.3340
  149MOL0     C20485   5.260   6.840   4.267  0.3667  0.6781 -0.3839
  149MOL0     C20486   5.301   6.977   4.212  0.0125  0.3652 -0.6284
  149MOL0     C20487   5.265   6.991   4.068 -0.9457  0.4677 -0.3948
  149MOL0     C20488   5.120   7.015   4.064 -0.7211 -0.0906  0.2294
  149MOL0     C20489   5.003   7.037   4.057  0.3201  0.0618 -0.5550
  149MOL0     C20490   5.549   6.793   4.414  0.1649  0.4134  0.0927
  149MOL0     C20491   5.641   6.823   4.523  0.1351  0.1316  0.3722
  149MOL0     C20492   5.690   6.962   4.528 -0.9965  0.3091 -0.5785
  149MOL0     H20493   5.639   6.564   5.074 -0.0057 -0.1704 -1.0876
  149MOL0     H20494   5.759   6.565   5.287 -0.3612 -1.4446 -0.7250
  149MOL0     H20495   5.881   6.813   5.417 -0.4731  1.5986  2.1192
  149MOL0     H20496   6.050   6.849   5.392  0.4161 -1.9217 -0.4708
  149MOL0     H20497   5.940   6.647   5.582 -2.0825  0.0124 -0.0024
  149MOL0     H20498   6.111   6.693   5.569 -1.0829 -4.6784  0.5919
  149MOL0     H20499   5.932   6.926   5.607 -0.6172 -0.6581  0.4505
  149MOL0     H20500   5.949   6.814   5.746  2.2097 -1.2990  1.7562
  149MOL0     H20501   6.167   6.807   5.764 -1.2469 -0.2148 -0.5671
  149MOL0     H20502   6.207   6.896   5.628 -1.3324 -1.0801 -1.3320
  149MOL0     H20503   6.131   7.114   5.735 -2.0863 -0.1713 -0.4503
  149MOL0     H20504   6.232   7.035   5.842 -0.6316 -1.0431  1.8907
  149MOL0     H20505   5.933   7.011   5.860 -0.0938  1.1536 -0.9149
  149MOL0     H20506   6.045   6.943   5.973 -0.8482 -0.6000 -0.6294
  149MOL0     H20507   5.990   7.246   5.940  1.2117 -0.3489 -1.0055
  149MOL0     H20508   6.143   7.187   6.001  1.2367 -0.3405 -3.5647
  149MOL0     H20509   5.971   7.226   6.179  0.3819 -0.7671  1.0026
  149MOL0     H20510   5.896   7.076   6.119 -1.5880  1.9347  0.0421
  149MOL0     H20511   6.279   7.151   6.189  2.7945 -0.7289  1.3661
  149MOL0     H20512   6.364   6.993   6.528  1.6255  0.9773  1.1116
  149MOL0     H20513   6.355   7.150   6.442 -3.0565 -0.9428 -5.1420
  149MOL0     H20514   6.526   6.913   6.350  5.2038  0.9391 -0.9119
  149MOL0     H20515   6.500   7.064   6.266 -0.7463 -1.0604 -0.3630
  149MOL0     H20516   6.599   7.059   6.547  4.6510  2.0078  1.6029
  149MOL0     H20517   6.713   7.012   6.421 -1.1183 -1.1660  1.3719
  149MOL0     H20518   6.651   7.226   6.309 -3.0949 -3.7058  0.1021
  149MOL0     H20519   6.557   7.273   6.443  1.0930  0.5331  1.8817
  149MOL0     H20520   6.963   7.389   6.621  0.2630 -0.3787 -0.9103
  149MOL0     H20521   7.067   7.491   6.766  0.1883 -1.3707  0.4848
  149MOL0     H20522   7.022   7.488   6.934 -0.7146  0.5821 -0.1375
  149MOL0     H20523   6.956   7.608   6.827 -1.5573  0.7287  0.6170
  149MOL0     H20524   6.711   7.174   7.292  0.4548  0.9134 -1.0697
  149MOL0     H20525   6.715   7.195   7.534  1.8120 -0.2702 -0.6822
  149MOL0     H20526   6.766   7.576   7.720  1.3230 -3.3626 -3.6924
  149MOL0     H20527   6.597   7.620   7.698 -1.4342 -0.2496 -0.0176
  149MOL0     H20528   6.662   7.597   7.931 -1.4938  0.6872  0.1590
  149MOL0     H20529   6.507   7.530   7.871 -0.4733  1.7001 -1.0533
  149MOL0     H20530   6.777   7.383   7.928 -0.5092 -0.5706 -1.0718
  149MOL0     H20531   6.622   7.311   7.885  2.0389 -1.3242  0.3014
  149MOL0     H20532   6.506   7.363   8.087 -0.7574 -0.5404  1.2042
  149MOL0     H20533   6.637   7.485   8.125  0.2473 -0.6871 -0.1009
  149MOL0     H20534   6.624   7.261   8.250  0.5969  1.4831  2.1117
  149MOL0     H20535   6.714   7.191   8.111  2.1530  0.2645  0.1908
  149MOL0     H20536   6.798   7.435   8.269  1.7654  2.1066 -0.7620
  149MOL0     H20537   6.876   7.383   8.122 -0.5879 -3.5822 -1.4569
  149MOL0     H20538   6.914   7.155   8.230  1.2504  0.5321 -1.9673
  149MOL0     H20539   6.846   7.214   8.383  2.9383 -1.2267  1.2833
  149MOL0     H20540   7.109   7.270   8.250 -1.1188  1.5699 -1.4584
  149MOL0     H20541   7.072   7.229   8.416 -1.5944  0.6255  1.0280
  149MOL0     H20542   6.614   7.613   7.485 -2.1899 -1.1106  3.7350
  149MOL0     H20543   6.617   7.585   7.238  1.8017 -0.5695 -0.1994
  149MOL0     H20544   6.546   7.315   6.884  0.8110  2.7604  2.7383
  149MOL0     H20545   6.548   7.228   6.661 -0.5419  0.7404  1.0439
  149MOL0     H20546   6.091   6.766   5.117 -1.6880  2.2232 -0.5728
  149MOL0     H20547   5.990   6.742   4.896  3.7203 -0.2958  2.6173
  149MOL0     H20548   5.637   6.506   4.662 -2.4571  0.1691  1.5950
  149MOL0     H20549   5.458   6.480   4.483 -0.0381  0.9496 -1.1298
  149MOL0     H20550   5.420   6.761   4.145  0.2246 -2.6386 -2.2761
  149MOL0     H20551   5.272   6.683   4.120  0.6810 -0.9711 -0.3185
  149MOL0     H20552   5.289   6.839   4.372 -1.5601 -1.4850  0.2292
  149MOL0     H20553   5.151   6.825   4.274  0.7899 -2.5990  0.9176
  149MOL0     H20554   5.257   7.050   4.281  1.9263 -0.3754  1.4957
  149MOL0     H20555   5.409   6.991   4.223 -0.3049  4.1860 -0.9351
  149MOL0     H20556   5.289   6.901   4.011  1.4094  1.9687 -1.9759
  149MOL0     H20557   5.324   7.073   4.025 -2.2454  1.3745 -0.4857
  149MOL0     H20558   4.897   7.048   4.052  0.0136 -1.8326  0.7458
  149MOL0     H20559   5.521   6.878   4.351 -0.6487  0.7792  0.9231
  149MOL0     H20560   5.799   6.957   4.524 -0.9711 -0.2109  0.4051
  149MOL0     H20561   5.650   7.021   4.445 -0.0766  1.7114 -0.0645
  149MOL0     H20562   5.658   7.018   4.617  1.4916  1.5725 -0.3861
  150MOL0     O20563   1.316   6.126   8.006 -0.5476 -0.3699 -0.2787
  150MOL0     C20564   1.275   6.064   8.107 -0.2197 -1.1772  0.9233
  150MOL0     O20565   1.322   6.082   8.241 -0.9284  0.6752  0.9946
  150MOL0     C20566   1.405   6.194   8.256 -0.0727 -0.8981  0.5910
  150MOL0     C20567   1.541   6.171   8.263 -0.1085  0.2712 -0.2596
  150MOL0     C20568   1.633   6.271   8.275  0.6291 -0.5343 -0.3849
  150MOL0     C20569   1.595   6.407   8.299  0.4421  0.3941  0.3355
  150MOL0     O20570   1.691   6.507   8.306 -0.1139  0.3586 -0.0719
  150MOL0     C20571   1.682   6.620   8.218  0.8814  0.2530  0.3361
  150MOL0     C20572   1.755   6.738   8.280 -0.6756 -0.7951 -0.0306
  150MOL0     C20573   1.905   6.717   8.290 -0.6804  0.1451 -0.0947
  150MOL0     C20574   1.974   6.726   8.150  0.9837  0.8702 -0.8031
  150MOL0     C20575   2.117   6.743   8.174 -0.4008 -0.3617 -0.3080
  150MOL0     C20576   2.191   6.728   8.033 -0.0122 -0.1554  0.7610
  150MOL0     C20577   2.341   6.696   8.055 -0.0446 -0.0730 -0.0396
  150MOL0     C20578   2.409   6.810   8.118 -0.7847  0.0888  0.7487
  150MOL0     N20579   2.550   6.795   8.091 -0.2207  0.1794 -0.3615
  150MOL0     C20580   2.654   6.815   8.190 -0.3456  0.4948  0.6453
  150MOL0     C20581   2.764   6.798   8.118  0.3238 -0.2830  0.1537
  150MOL0     C20582   2.894   6.824   8.186  0.2422  0.5426  0.3503
  150MOL0     C20583   2.912   6.709   8.291  0.2305 -0.6807 -0.7516
  150MOL0     C20584   2.932   6.570   8.233  0.3386 -0.6433 -0.5475
  150MOL0     C20585   3.075   6.556   8.173 -0.0472 -0.6386  0.7819
  150MOL0     O20586   3.179   6.611   8.260  0.0279 -0.1523  0.5461
  150MOL0     C20587   3.310   6.620   8.223  0.8300 -0.4506 -0.3427
  150MOL0     C20588   3.402   6.665   8.314 -0.8187 -0.8067  0.0018
  150MOL0     C20589   3.538   6.686   8.274 -0.4717 -0.1692  0.0398
  150MOL0     C20590   3.638   6.729   8.390 -0.3415  0.2021 -0.5275
  150MOL0     C20591   3.584   6.659   8.136  0.0761  0.6946 -0.1992
  150MOL0     C20592   3.721   6.674   8.091 -1.3056  0.0260  0.9291
  150MOL0     O20593   3.768   6.612   7.976  0.2515 -0.4154  0.4166
  150MOL0     C20594   3.893   6.644   7.925 -0.2938  0.5649 -0.3916
  150MOL0     C20595   4.008   6.596   7.984 -0.4350  0.4918  1.0757
  150MOL0     C20596   4.141   6.625   7.927  0.7643 -0.0454 -0.3635
  150MOL0     C20597   4.146   6.696   7.809  0.1328 -0.1973  0.2049
  150MOL0     O20598   4.261   6.725   7.740 -0.0712 -0.1456 -0.0931
  150MOL0     C20599   4.329   6.611   7.683 -0.0239  0.6708  0.6775
  150MOL0     C20600   4.442   6.658   7.597  0.6159 -1.2462  0.2234
  150MOL0     C20601   4.552   6.554   7.560 -0.2635 -0.5284  0.4394
  150MOL0     C20602   4.679   6.632   7.525  0.1213 -0.6703 -0.3378
  150MOL0     C20603   4.782   6.543   7.458  0.1680  0.6716  0.2985
  150MOL0     C20604   4.857   6.443   7.543 -0.0785  0.1722 -0.3918
  150MOL0     C20605   4.888   6.486   7.689 -0.1347 -0.4174  0.4406
  150MOL0     C20606   5.010   6.418   7.750  0.0377  0.3365  0.4286
  150MOL0    Cl20607   5.004   6.438   7.921  0.2955  0.3827  0.5126
  150MOL0     C20608   4.023   6.744   7.744 -0.2176  0.1616  0.5639
  150MOL0     C20609   3.909   6.716   7.810  0.6822 -0.0687  0.1642
  150MOL0     O20610   3.792   6.751   8.161 -0.1294  0.7341 -0.2156
  150MOL0     C20611   3.484   6.604   8.048 -0.0996 -0.3995 -0.0857
  150MOL0     C20612   3.350   6.592   8.089 -0.7108  0.1578  0.1332
  150MOL0     N20613   2.737   6.772   7.994 -0.5706 -0.1356  0.6629
  150MOL0     N20614   2.611   6.770   7.972  0.0498 -0.2865  0.6503
  150MOL0     C20615   1.457   6.428   8.312 -0.1406 -0.4990 -0.7288
  150MOL0     C20616   1.364   6.327   8.278 -0.0259 -0.0478  0.5345
  150MOL0     C20617   1.170   5.972   8.091 -0.8861 -0.5964  0.3678
  150MOL0     C20618   1.200   5.838   8.127 -0.7993  0.4969 -0.4438
  150MOL0     C20619   1.085   5.754   8.128  0.0202 -0.0070 -0.6120
  150MOL0     C20620   0.956   5.797   8.092  1.1131  0.2088  0.3581
  150MOL0     O20621   0.840   5.720   8.098 -0.6077  0.1767 -0.4783
  150MOL0     C20622   0.852   5.601   8.018  0.0621 -0.0948 -0.0324
  150MOL0     C20623   0.774   5.487   8.096 -0.4696  0.5327 -0.2552
  150MOL0     C20624   0.621   5.496   8.069 -0.2517  0.7907 -0.3608
  150MOL0     C20625   0.553   5.416   8.175 -0.5495  1.0487  0.5963
  150MOL0     C20626   0.527   5.279   8.119  0.0471  0.9413  0.7077
  150MOL0     C20627   0.503   5.167   8.093  1.3050 -0.7562 -0.6126
  150MOL0     C20628   0.934   5.931   8.054 -0.5046  0.8106 -0.9540
  150MOL0     C20629   1.044   6.023   8.050 -0.2302 -0.2468  0.0698
  150MOL0     C20630   1.026   6.170   8.011 -0.1068  0.3960  0.6196
  150MOL0     H20631   1.571   6.067   8.256 -2.0738 -0.3845  0.3968
  150MOL0     H20632   1.737   6.246   8.258  1.4540  1.8532  0.7065
  150MOL0     H20633   1.580   6.640   8.183  1.1751 -0.2134 -0.8507
  150MOL0     H20634   1.736   6.596   8.126 -0.9020 -1.7708 -0.2775
  150MOL0     H20635   1.736   6.830   8.223  3.6782 -0.1459 -0.7757
  150MOL0     H20636   1.710   6.755   8.379 -0.0886  1.7994 -0.1401
  150MOL0     H20637   1.939   6.792   8.362  0.7494  1.1846 -1.7821
  150MOL0     H20638   1.929   6.621   8.337 -0.8764 -0.0786 -0.4474
  150MOL0     H20639   1.960   6.629   8.101  0.0795  1.1241 -1.0715
  150MOL0     H20640   1.923   6.801   8.088 -1.3637  1.9275  2.1491
  150MOL0     H20641   2.154   6.685   8.259  2.5352  4.0225  1.7729
  150MOL0     H20642   2.136   6.842   8.217 -0.6503 -1.6438  3.0903
  150MOL0     H20643   2.160   6.640   7.977 -1.9115  1.9821 -1.8053
  150MOL0     H20644   2.169   6.813   7.967 -1.1009 -0.6889  0.4160
  150MOL0     H20645   2.387   6.675   7.958  3.2259  1.6640  0.9822
  150MOL0     H20646   2.344   6.606   8.117 -4.3087 -1.3566 -1.3556
  150MOL0     H20647   2.386   6.891   8.048  1.5692 -1.3632 -1.9081
  150MOL0     H20648   2.380   6.846   8.217 -1.2463  0.8742  0.3410
  150MOL0     H20649   2.650   6.827   8.297  0.7490  0.6032  0.6820
  150MOL0     H20650   2.897   6.926   8.227  2.4265  0.7891 -0.2749
  150MOL0     H20651   2.976   6.812   8.115 -1.6810 -2.4231 -1.5814
  150MOL0     H20652   2.993   6.745   8.355 -0.3975 -0.1110 -0.2637
  150MOL0     H20653   2.828   6.710   8.362 -0.6014  1.6307 -1.6689
  150MOL0     H20654   2.925   6.492   8.309 -2.1198  1.3766  1.4547
  150MOL0     H20655   2.862   6.556   8.150  3.4974  1.4875 -3.8649
  150MOL0     H20656   3.096   6.455   8.136  0.4738 -0.3200  0.1911
  150MOL0     H20657   3.077   6.621   8.085  1.1194  1.1834  2.0941
  150MOL0     H20658   3.384   6.660   8.421 -0.1158 -0.7434  0.1285
  150MOL0     H20659   3.718   6.655   8.397 -0.7459 -0.1834  5.7576
  150MOL0     H20660   3.581   6.737   8.483 -2.8493 -0.2831 -1.9053
  150MOL0     H20661   3.677   6.828   8.367  0.0704 -0.2277 -1.7866
  150MOL0     H20662   4.014   6.546   8.080 -0.6845 -1.1217  0.2829
  150MOL0     H20663   4.227   6.580   7.974  1.4143  2.2815  0.7891
  150MOL0     H20664   4.389   6.578   7.769  0.9630 -0.0028 -0.2424
  150MOL0     H20665   4.256   6.537   7.650 -1.7310  2.3956  0.4258
  150MOL0     H20666   4.419   6.687   7.494  1.7024 -0.8888  0.0686
  150MOL0     H20667   4.479   6.740   7.658 -3.1376 -0.0926  1.2393
  150MOL0     H20668   4.525   6.493   7.474  4.8869 -1.3292 -0.9498
  150MOL0     H20669   4.566   6.480   7.640 -2.1943 -2.4963 -0.9155
  150MOL0     H20670   4.717   6.668   7.621 -2.8836  0.2579  0.6188
  150MOL0     H20671   4.648   6.718   7.465 -0.5412 -0.2667  0.5525
  150MOL0     H20672   4.729   6.489   7.380  1.1214  1.7170 -1.1379
  150MOL0     H20673   4.864   6.606   7.420  0.8169 -0.6731 -0.5853
  150MOL0     H20674   4.955   6.425   7.498  2.3994  4.0231  2.7281
  150MOL0     H20675   4.789   6.358   7.551 -1.9563  1.6461  0.2605
  150MOL0     H20676   4.800   6.462   7.749 -0.7794 -2.2046 -1.1070
  150MOL0     H20677   4.922   6.590   7.695 -0.9582 -0.1518  0.5733
  150MOL0     H20678   5.099   6.462   7.703 -0.1738  1.7155  1.2715
  150MOL0     H20679   5.005   6.311   7.727 -1.6219  0.6002 -0.6770
  150MOL0     H20680   4.033   6.795   7.648  3.1619 -2.8726 -0.9623
  150MOL0     H20681   3.828   6.765   7.758  1.3446  0.8034 -0.0732
  150MOL0     H20682   3.506   6.576   7.946 -2.3314  1.0491 -1.0602
  150MOL0     H20683   3.289   6.561   8.005 -3.0278  0.3326  1.6349
  150MOL0     H20684   1.412   6.524   8.336 -0.9284 -0.6448 -1.5698
  150MOL0     H20685   1.257   6.349   8.276 -0.2388 -0.9131 -1.9005
  150MOL0     H20686   1.297   5.807   8.163 -2.2563 -2.7565  1.0325
  150MOL0     H20687   1.093   5.649   8.153 -0.9654 -0.0156 -0.2767
  150MOL0     H20688   0.791   5.610   7.928  0.7719  3.4695 -0.2822
  150MOL0     H20689   0.956   5.584   7.989 -0.6311 -0.5101 -2.5048
  150MOL0     H20690   0.796   5.508   8.201 -1.7190  0.2030  0.0919
  150MOL0     H20691   0.810   5.389   8.063  0.4106  0.5303  0.6617
  150MOL0     H20692   0.588   5.600   8.074 -3.0605 -0.0519  1.6153
  150MOL0     H20693   0.575   5.467   7.974 -0.3703  0.5421 -0.2313
  150MOL0     H20694   0.455   5.458   8.202 -2.1804 -0.2023 -2.7661
  150MOL0     H20695   0.624   5.405   8.257 -1.5997 -2.3541  1.1684
  150MOL0     H20696   0.476   5.073   8.050 -2.8508 -0.0289 -0.0305
  150MOL0     H20697   0.834   5.964   8.028 -2.1968 -2.2017  1.1201
  150MOL0     H20698   1.064   6.234   8.091 -0.4339  1.6572 -0.2124
  150MOL0     H20699   1.076   6.187   7.916 -3.2857  0.0489 -1.2495
  150MOL0     H20700   0.924   6.203   7.990 -0.1247  2.0674  2.9030
  151MOL0     O20701   2.203  11.520   9.470 -0.7999 -0.1772 -0.4441
  151MOL0     C20702   2.324  11.543   9.489  0.4505 -0.2081 -0.1756
  151MOL0     O20703   2.424  11.543   9.395 -0.5652 -0.2743 -0.5158
  151MOL0     C20704   2.393  11.560   9.264  0.6607 -0.4571 -0.7165
  151MOL0     C20705   2.442  11.455   9.180 -0.2350 -0.2054  0.3164
  151MOL0     C20706   2.424  11.458   9.040  0.2041  0.5337  0.9139
  151MOL0     C20707   2.368  11.571   8.978  0.1575  0.4411  0.1393
  151MOL0     O20708   2.369  11.597   8.843  0.4546  0.5819 -0.0812
  151MOL0     C20709   2.397  11.508   8.740 -0.1547 -0.2478 -0.2319
  151MOL0     C20710   2.417  11.589   8.614  0.6184 -0.1331 -0.6360
  151MOL0     C20711   2.299  11.662   8.559  0.0366 -0.5392  0.7945
  151MOL0     C20712   2.310  11.653   8.405 -1.3568 -0.0355 -0.5066
  151MOL0     C20713   2.205  11.747   8.333 -0.0707 -0.1712 -0.0589
  151MOL0     C20714   2.266  11.792   8.202  0.8676  1.0032  0.0144
  151MOL0     C20715   2.298  11.683   8.099  0.3892  0.2232  0.3555
  151MOL0     C20716   2.379  11.745   7.978  0.2973 -0.4885  0.6043
  151MOL0     N20717   2.276  11.804   7.888 -1.2440  0.0832 -0.1737
  151MOL0     C20718   2.215  11.744   7.783  0.8076  0.6682 -0.1318
  151MOL0     C20719   2.115  11.820   7.736  0.7552 -0.4242 -0.7275
  151MOL0     C20720   2.017  11.779   7.636 -1.2530 -0.2074 -0.5382
  151MOL0     C20721   2.075  11.723   7.509  0.2476  0.2651 -0.7415
  151MOL0     C20722   2.163  11.816   7.432  0.8456 -0.9262  0.0931
  151MOL0     C20723   2.308  11.793   7.472  0.4440 -0.3287 -0.4999
  151MOL0     O20724   2.391  11.868   7.379 -0.8735 -0.3671  0.3261
  151MOL0     C20725   2.422  12.001   7.410 -0.6369  0.0562  0.7757
  151MOL0     C20726   2.428  12.060   7.540 -0.7005  0.5188  0.6778
  151MOL0     C20727   2.488  12.188   7.557 -0.4775  0.7132  0.3368
  151MOL0     C20728   2.496  12.246   7.697  0.5500  0.2213 -0.2903
  151MOL0     C20729   2.540  12.250   7.446 -0.2975 -0.7844  0.1245
  151MOL0     C20730   2.598  12.387   7.446 -0.7507 -0.0646  0.6447
  151MOL0     O20731   2.686  12.428   7.353 -0.8915  0.3941  0.3525
  151MOL0     C20732   2.754  12.541   7.370 -0.5516  0.4641  0.9888
  151MOL0     C20733   2.841  12.565   7.260 -0.2870 -0.0560 -0.9192
  151MOL0     C20734   2.939  12.672   7.273 -0.1088  0.3631  0.8349
  151MOL0     C20735   2.956  12.745   7.394 -0.0045  1.4522  0.4146
  151MOL0     O20736   3.062  12.813   7.419  0.5777  0.5328 -0.4977
  151MOL0     C20737   3.077  12.939   7.353  0.6062 -0.0734 -0.7030
  151MOL0     C20738   2.983  13.051   7.387  0.4170  0.4888 -0.5916
  151MOL0     C20739   3.059  13.143   7.499  0.3807  0.4422  0.4507
  151MOL0     C20740   2.972  13.255   7.560  0.0174 -0.2923 -0.5636
  151MOL0     C20741   3.042  13.328   7.668  0.5385 -0.2798  0.4137
  151MOL0     C20742   3.152  13.427   7.634  0.3232 -0.9836 -0.8451
  151MOL0     C20743   3.217  13.484   7.770 -0.1701 -0.0424 -0.6162
  151MOL0     C20744   3.332  13.581   7.738 -0.6683  0.8971  0.3063
  151MOL0    Cl20745   3.314  13.716   7.621 -0.3908  0.3536 -0.3314
  151MOL0     C20746   2.873  12.713   7.496  0.4877  0.3801  0.3888
  151MOL0     C20747   2.770  12.620   7.486  0.5957  0.4184  0.0473
  151MOL0     O20748   2.522  12.462   7.510  0.2744  0.2900 -0.2104
  151MOL0     C20749   2.533  12.193   7.313  0.8156  0.7304 -0.8126
  151MOL0     C20750   2.474  12.065   7.297  0.0063 -0.8159 -0.0108
  151MOL0     N20751   2.119  11.939   7.810  0.4060  0.0592  0.8949
  151MOL0     N20752   2.213  11.926   7.898 -0.8495 -0.2059 -0.3733
  151MOL0     C20753   2.311  11.665   9.061 -0.2332 -0.0078 -0.2629
  151MOL0     C20754   2.312  11.654   9.204  0.2391 -0.6164  0.1327
  151MOL0     C20755   2.368  11.545   9.634 -0.3370 -0.5402  0.1181
  151MOL0     C20756   2.439  11.441   9.699 -0.3311 -0.0054 -0.8519
  151MOL0     C20757   2.471  11.443   9.838 -0.5535  0.5442  0.1895
  151MOL0     C20758   2.410  11.544   9.912 -0.0539  0.2636  0.0881
  151MOL0     O20759   2.412  11.557  10.049  0.1710  0.7300  0.1799
  151MOL0     C20760   2.490  11.468  10.137  0.2154  0.0329 -0.9337
  151MOL0     C20761   2.543  11.535  10.272 -0.2945 -0.0046  0.7319
  151MOL0     C20762   2.429  11.610  10.325 -0.2476  0.0045 -0.9568
  151MOL0     C20763   2.472  11.686  10.443 -0.0788  0.2621 -0.7797
  151MOL0     C20764   2.358  11.719  10.533 -1.5967  0.9320  0.2871
  151MOL0     C20765   2.281  11.742  10.617  0.1273 -0.1667  0.5724
  151MOL0     C20766   2.339  11.648   9.857  0.6379  0.4900  1.1477
  151MOL0     C20767   2.303  11.645   9.717  0.3868  0.8732  0.4496
  151MOL0     C20768   2.202  11.744   9.667 -0.4810  0.7407 -0.3146
  151MOL0     H20769   2.502  11.380   9.229 -0.2012 -1.1376 -1.0775
  151MOL0     H20770   2.478  11.379   8.987 -0.9773 -0.7656  1.5668
  151MOL0     H20771   2.313  11.439   8.730  1.2499 -2.2374  1.0525
  151MOL0     H20772   2.482  11.445   8.767 -1.5542 -1.1823  2.3210
  151MOL0     H20773   2.493  11.663   8.638  0.0115  1.1804 -2.5773
  151MOL0     H20774   2.448  11.518   8.537 -0.2727 -0.0171 -1.1176
  151MOL0     H20775   2.202  11.621   8.590 -0.5371 -1.3971 -1.8315
  151MOL0     H20776   2.310  11.764   8.597  1.8861 -1.8892  4.3164
  151MOL0     H20777   2.409  11.694   8.382  0.7048 -2.1230  3.5380
  151MOL0     H20778   2.299  11.548   8.376  1.9570 -1.1066  1.4704
  151MOL0     H20779   2.185  11.833   8.399  0.8117  0.6332 -0.8070
  151MOL0     H20780   2.111  11.700   8.304 -0.5453 -0.4274  1.7386
  151MOL0     H20781   2.191  11.858   8.157  0.7825  0.0297 -1.3412
  151MOL0     H20782   2.355  11.853   8.222 -1.6888  4.8809  0.5321
  151MOL0     H20783   2.200  11.646   8.067  0.4223  0.7985 -0.4512
  151MOL0     H20784   2.343  11.588   8.128 -1.3566 -1.1905 -1.2823
  151MOL0     H20785   2.448  11.827   8.002 -0.6232  0.9903 -1.5173
  151MOL0     H20786   2.440  11.676   7.919 -2.8773 -1.4167 -1.8807
  151MOL0     H20787   2.224  11.642   7.749  1.7333  0.0261  1.9045
  151MOL0     H20788   1.977  11.878   7.613  2.4138  1.0831 -2.1890
  151MOL0     H20789   1.939  11.712   7.674 -0.3588 -0.4049  1.0391
  151MOL0     H20790   2.140  11.638   7.532 -2.6519 -1.9494 -0.1703
  151MOL0     H20791   1.989  11.694   7.448 -2.5152  0.8962  2.4766
  151MOL0     H20792   2.150  11.803   7.324 -1.8478 -1.4723  0.4314
  151MOL0     H20793   2.142  11.922   7.451 -2.1637 -1.5986  1.0620
  151MOL0     H20794   2.323  11.806   7.580 -0.5621 -2.4680 -0.0654
  151MOL0     H20795   2.326  11.687   7.451  0.6048 -0.3701 -0.1652
  151MOL0     H20796   2.383  12.010   7.626  0.0078 -1.9846 -0.3241
  151MOL0     H20797   2.472  12.165   7.766 -4.1565  1.7276  0.2350
  151MOL0     H20798   2.420  12.322   7.718 -1.9834 -2.3334  0.3363
  151MOL0     H20799   2.596  12.284   7.722  0.1087  0.9346  0.4505
  151MOL0     H20800   2.833  12.495   7.177 -1.8246 -2.5175  1.1793
  151MOL0     H20801   3.016  12.684   7.197  0.5119  0.6349  1.4894
  151MOL0     H20802   3.179  12.974   7.376  0.6269 -0.1105 -0.7386
  151MOL0     H20803   3.076  12.922   7.245 -1.6654  0.2055 -0.7668
  151MOL0     H20804   2.967  13.110   7.297  2.8288  0.2556 -1.2447
  151MOL0     H20805   2.894  12.998   7.422 -2.2364  5.1377  0.5020
  151MOL0     H20806   3.138  13.184   7.437 -0.9884  1.7279 -0.5152
  151MOL0     H20807   3.108  13.081   7.574 -0.2934  1.7682  2.0406
  151MOL0     H20808   2.882  13.206   7.598  1.5588 -3.2620 -0.4246
  151MOL0     H20809   2.935  13.325   7.484 -1.9432  0.3280  0.8952
  151MOL0     H20810   2.976  13.372   7.743  2.5846 -0.4961  2.4392
  151MOL0     H20811   3.092  13.248   7.724  1.4021 -0.8652 -1.1337
  151MOL0     H20812   3.111  13.507   7.571 -1.8624 -1.0269  0.4394
  151MOL0     H20813   3.227  13.369   7.579  1.1003  0.4725 -1.3858
  151MOL0     H20814   3.276  13.415   7.831  4.0717  3.4135 -0.3654
  151MOL0     H20815   3.148  13.544   7.830  0.2956 -2.0336  2.1125
  151MOL0     H20816   3.416  13.527   7.693 -0.2581  0.4750  1.5585
  151MOL0     H20817   3.367  13.626   7.831  0.1404 -2.3947  1.7272
  151MOL0     H20818   2.888  12.754   7.596 -2.0676 -0.7739  1.3347
  151MOL0     H20819   2.712  12.592   7.574  1.3290 -2.0092 -0.1474
  151MOL0     H20820   2.569  12.243   7.223 -0.5700 -1.1652 -2.5115
  151MOL0     H20821   2.481  12.007   7.206 -4.4900  0.2156 -1.2224
  151MOL0     H20822   2.270  11.752   9.012  0.5653  0.0286 -0.8880
  151MOL0     H20823   2.246  11.716   9.264  0.7511 -1.1322  1.2623
  151MOL0     H20824   2.489  11.367   9.636  0.2062  1.2538 -1.9398
  151MOL0     H20825   2.530  11.367   9.887  0.7907  1.5302  0.1702
  151MOL0     H20826   2.429  11.380  10.162 -0.3805  0.0172 -2.3459
  151MOL0     H20827   2.577  11.427  10.086 -0.0029  1.3675 -2.4322
  151MOL0     H20828   2.615  11.613  10.243 -0.0708 -0.6121 -0.3833
  151MOL0     H20829   2.586  11.455  10.332  5.3450 -1.0115 -3.7618
  151MOL0     H20830   2.393  11.678  10.247 -2.2621  1.6093  1.2142
  151MOL0     H20831   2.348  11.544  10.356 -2.4096  3.1807  0.7696
  151MOL0     H20832   2.525  11.773  10.404  1.8146  1.2984  3.5620
  151MOL0     H20833   2.552  11.635  10.497  0.4183  4.0397  2.5191
  151MOL0     H20834   2.207  11.762  10.692  0.8169  0.4194  1.1146
  151MOL0     H20835   2.326  11.728   9.928  3.3530  0.8815  1.3125
  151MOL0     H20836   2.201  11.842   9.717 -1.2348  2.2486 -3.0961
  151MOL0     H20837   2.220  11.786   9.568 -0.9506  1.4874 -0.0920
  151MOL0     H20838   2.099  11.707   9.666 -0.6340  1.1532 -1.9007
  152MOL0     O20839   4.444   7.822   2.643 -0.4417  0.2508  0.1007
  152MOL0     C20840   4.538   7.817   2.724  0.1265  0.7689  0.5260
  152MOL0     O20841   4.666   7.858   2.701  0.3045 -0.4338  0.0437
  152MOL0     C20842   4.695   7.920   2.585  0.5295  0.5859 -0.9214
  152MOL0     C20843   4.820   7.883   2.531  0.9875 -0.7808 -0.1464
  152MOL0     C20844   4.878   7.955   2.422  0.3313  1.2480 -0.1294
  152MOL0     C20845   4.813   8.072   2.374 -0.0135 -0.2767 -1.0440
  152MOL0     O20846   4.875   8.145   2.279  0.1643  0.0292  0.1442
  152MOL0     C20847   4.807   8.259   2.215 -0.0376  0.4460  0.4962
  152MOL0     C20848   4.687   8.216   2.121 -0.4704  0.3327 -0.0898
  152MOL0     C20849   4.725   8.185   1.968  0.0166 -0.3766  0.0456
  152MOL0     C20850   4.697   8.322   1.899  0.0750 -0.2000 -0.1179
  152MOL0     C20851   4.572   8.347   1.828  0.8455 -1.0118  0.8217
  152MOL0     C20852   4.542   8.502   1.805  0.4617 -0.0860 -0.2512
  152MOL0     C20853   4.651   8.572   1.722  0.1197 -0.8731  1.2830
  152MOL0     C20854   4.621   8.724   1.690 -0.3280 -0.4871 -0.5755
  152MOL0     N20855   4.482   8.753   1.648 -0.4370  0.3767  0.0441
  152MOL0     C20856   4.445   8.721   1.517  0.0183 -0.5498  0.4195
  152MOL0     C20857   4.311   8.724   1.529 -0.5456  0.0322 -1.0445
  152MOL0     C20858   4.215   8.672   1.425 -0.8364 -0.5643 -0.3016
  152MOL0     C20859   4.202   8.519   1.417 -0.2432 -0.9089 -0.1828
  152MOL0     C20860   4.109   8.479   1.533 -0.2851  1.6994 -0.4925
  152MOL0     C20861   4.059   8.335   1.517 -0.0889 -0.5736 -0.3950
  152MOL0     O20862   4.165   8.254   1.458 -0.1651  0.3335 -0.0115
  152MOL0     C20863   4.245   8.179   1.537  0.2341  0.6238 -0.0096
  152MOL0     C20864   4.339   8.090   1.474 -0.0684  0.1970 -0.4921
  152MOL0     C20865   4.416   7.990   1.545  0.0990  0.2008  0.8902
  152MOL0     C20866   4.504   7.906   1.455  0.2081 -0.4183 -0.1166
  152MOL0     C20867   4.412   7.992   1.681  0.2442  0.1410 -0.9737
  152MOL0     C20868   4.486   7.892   1.763 -0.5268 -0.7002 -0.1250
  152MOL0     O20869   4.459   7.883   1.901  0.0875 -1.6799  0.0434
  152MOL0     C20870   4.527   7.787   1.975  0.5776 -0.2292  0.9536
  152MOL0     C20871   4.638   7.834   2.038 -0.4185  0.0607 -0.4351
  152MOL0     C20872   4.676   7.772   2.159 -0.3452  0.6853  0.8694
  152MOL0     C20873   4.607   7.657   2.205  0.4566 -0.4232  0.0984
  152MOL0     O20874   4.653   7.602   2.316  0.4403 -0.4760  0.4514
  152MOL0     C20875   4.619   7.472   2.348 -0.6613  0.3385  0.0913
  152MOL0     C20876   4.731   7.415   2.437  0.3321 -0.3306  0.6809
  152MOL0     C20877   4.747   7.508   2.560 -0.2319 -0.0339 -0.5540
  152MOL0     C20878   4.808   7.447   2.696  1.3318 -0.4064  0.0770
  152MOL0     C20879   4.961   7.410   2.675  0.8020 -0.9778 -0.8263
  152MOL0     C20880   5.004   7.317   2.805 -0.5946 -0.3878 -0.7197
  152MOL0     C20881   5.159   7.323   2.818  0.0024  0.7903 -0.7282
  152MOL0     C20882   5.208   7.229   2.933 -0.2616 -0.5927 -0.1677
  152MOL0    Cl20883   5.284   7.082   2.873  0.0060  0.1650 -0.2015
  152MOL0     C20884   4.495   7.607   2.135 -1.0402 -0.1502  0.0371
  152MOL0     C20885   4.448   7.675   2.022  0.1329  0.1342  0.1406
  152MOL0     O20886   4.542   7.812   1.699 -1.0437  0.2014 -0.6256
  152MOL0     C20887   4.321   8.076   1.747 -0.3401  0.4986 -0.7559
  152MOL0     C20888   4.249   8.176   1.672  1.3305  0.0464 -0.3917
  152MOL0     N20889   4.274   8.774   1.656  0.3329 -0.0600 -0.1729
  152MOL0     N20890   4.377   8.797   1.724  0.0932  0.6447  0.7003
  152MOL0     C20891   4.689   8.112   2.432 -0.0264  0.3052  0.4976
  152MOL0     C20892   4.637   8.034   2.540  0.3478 -0.7686  0.2535
  152MOL0     C20893   4.502   7.774   2.866 -0.9749 -0.1017 -0.3309
  152MOL0     C20894   4.569   7.856   2.964 -0.1746  0.0927 -0.4162
  152MOL0     C20895   4.520   7.860   3.092 -0.9905 -0.7178  0.0301
  152MOL0     C20896   4.428   7.770   3.144  1.1193  0.3281  0.5688
  152MOL0     O20897   4.387   7.760   3.276  0.4812 -0.4974  0.3733
  152MOL0     C20898   4.460   7.842   3.364  0.6363  0.2214 -0.3291
  152MOL0     C20899   4.389   7.828   3.495  0.4336  0.4892 -0.2741
  152MOL0     C20900   4.448   7.910   3.609  0.5715 -0.2159  0.1017
  152MOL0     C20901   4.597   7.890   3.628  0.4127  0.7705 -0.4378
  152MOL0     C20902   4.631   7.938   3.755 -0.6620 -0.6631  0.2145
  152MOL0     C20903   4.675   7.982   3.860  0.3052  0.5283  0.3654
  152MOL0     C20904   4.371   7.683   3.037 -0.0024 -0.8728 -0.7840
  152MOL0     C20905   4.398   7.691   2.900 -0.4362  0.3391 -0.7570
  152MOL0     C20906   4.314   7.607   2.812 -0.3021 -0.0323  0.1314
  152MOL0     H20907   4.867   7.790   2.565 -0.1088 -0.5880  2.1046
  152MOL0     H20908   4.969   7.909   2.384 -1.6319 -3.0230 -0.2442
  152MOL0     H20909   4.875   8.304   2.142 -0.8724  0.0371 -0.5621
  152MOL0     H20910   4.782   8.335   2.290  0.9764  1.0304  0.2606
  152MOL0     H20911   4.665   8.122   2.173 -2.2347 -0.2441 -1.7563
  152MOL0     H20912   4.613   8.296   2.129  1.1542  2.2641 -2.6987
  152MOL0     H20913   4.831   8.158   1.965  0.2879  0.1173  2.7304
  152MOL0     H20914   4.655   8.117   1.918 -0.4342 -1.6729  2.2489
  152MOL0     H20915   4.726   8.398   1.972  2.8654  0.9072 -2.1827
  152MOL0     H20916   4.778   8.323   1.825  0.4853 -0.6598  0.3283
  152MOL0     H20917   4.484   8.332   1.891 -1.0272  4.1714 -0.0609
  152MOL0     H20918   4.575   8.274   1.747  0.1397 -4.5705  3.6866
  152MOL0     H20919   4.438   8.508   1.771  0.2499  1.5110  0.6240
  152MOL0     H20920   4.538   8.554   1.901 -2.4647 -1.1892  0.3446
  152MOL0     H20921   4.669   8.511   1.633  1.9784 -0.1950  1.1548
  152MOL0     H20922   4.743   8.573   1.781  1.7657  0.6540 -1.1367
  152MOL0     H20923   4.628   8.797   1.770 -0.8994  2.0287 -2.6962
  152MOL0     H20924   4.685   8.752   1.605  0.3547 -0.7078 -0.1434
  152MOL0     H20925   4.504   8.687   1.432 -0.3155 -4.1054  1.4543
  152MOL0     H20926   4.268   8.697   1.332 -0.6842 -1.4775 -0.4687
  152MOL0     H20927   4.119   8.726   1.423 -1.5044 -1.6497 -3.3334
  152MOL0     H20928   4.153   8.489   1.324 -1.3655  0.9217 -0.2531
  152MOL0     H20929   4.297   8.467   1.425 -0.1982 -0.6297  1.6751
  152MOL0     H20930   4.161   8.494   1.628 -0.7696 -0.6499  0.1959
  152MOL0     H20931   4.021   8.545   1.528 -0.0366  1.9447 -2.5202
  152MOL0     H20932   4.000   8.297   1.601 -1.5105 -0.2434 -1.2127
  152MOL0     H20933   3.975   8.336   1.446  0.7773 -0.9658 -1.4538
  152MOL0     H20934   4.343   8.090   1.366 -1.3275  2.0512 -0.5891
  152MOL0     H20935   4.609   7.922   1.483 -0.0517  1.1439  0.0695
  152MOL0     H20936   4.495   7.945   1.354 -2.0553 -0.7920 -0.1089
  152MOL0     H20937   4.482   7.799   1.448  1.2883 -0.7048  0.4834
  152MOL0     H20938   4.687   7.924   2.002  1.0892  0.8600  3.2177
  152MOL0     H20939   4.764   7.807   2.212 -0.7193  1.8069  0.7534
  152MOL0     H20940   4.518   7.474   2.391 -1.6492 -1.7685 -1.9371
  152MOL0     H20941   4.598   7.409   2.261 -2.4613  2.8763 -1.4435
  152MOL0     H20942   4.702   7.317   2.475 -1.9735 -0.0755 -0.2609
  152MOL0     H20943   4.823   7.413   2.378  0.2953  1.6040  0.5034
  152MOL0     H20944   4.645   7.543   2.578  0.3048  1.8231 -0.9033
  152MOL0     H20945   4.807   7.591   2.522 -1.2847  0.2461 -1.6773
  152MOL0     H20946   4.746   7.360   2.722 -0.0819 -0.4912 -3.1439
  152MOL0     H20947   4.798   7.528   2.769 -0.5467 -0.5806  0.0547
  152MOL0     H20948   4.968   7.359   2.578 -0.9521 -1.6357 -0.6388
  152MOL0     H20949   5.022   7.499   2.658 -0.9972 -0.1886 -3.9669
  152MOL0     H20950   4.969   7.214   2.796  1.3432 -1.0351 -1.2852
  152MOL0     H20951   4.961   7.356   2.897  2.5728  0.3964  0.5490
  152MOL0     H20952   5.184   7.424   2.848  3.8339 -0.6678  1.6668
  152MOL0     H20953   5.210   7.297   2.725 -1.4629  2.8097 -2.1786
  152MOL0     H20954   5.131   7.205   3.007 -0.1425 -5.5662 -1.3114
  152MOL0     H20955   5.277   7.295   2.986 -1.5873  1.2109 -0.5695
  152MOL0     H20956   4.436   7.530   2.184 -1.6734  1.8006  2.5452
  152MOL0     H20957   4.354   7.646   1.976  0.2766  1.5260 -1.0898
  152MOL0     H20958   4.299   8.075   1.853 -3.0152 -0.6887 -1.2419
  152MOL0     H20959   4.196   8.258   1.719  2.0674  0.7587 -0.7768
  152MOL0     H20960   4.637   8.202   2.402  1.4914  0.9950 -0.1185
  152MOL0     H20961   4.541   8.068   2.578  0.2854 -0.3790 -0.2440
  152MOL0     H20962   4.648   7.925   2.938  0.3895 -1.1847 -2.2774
  152MOL0     H20963   4.571   7.933   3.155  1.3449 -0.7953 -1.6355
  152MOL0     H20964   4.568   7.826   3.368  0.5102 -0.7812 -0.7692
  152MOL0     H20965   4.437   7.947   3.344  0.3206  0.3393  0.5887
  152MOL0     H20966   4.377   7.724   3.527 -2.0040  1.5360  2.6688
  152MOL0     H20967   4.285   7.858   3.480 -0.1467 -2.3508 -3.0768
  152MOL0     H20968   4.424   8.016   3.596 -0.5284 -0.4365  0.1967
  152MOL0     H20969   4.401   7.864   3.696 -0.2146 -1.3134 -0.8634
  152MOL0     H20970   4.652   7.949   3.554 -2.4828  0.1499 -3.3162
  152MOL0     H20971   4.627   7.786   3.638  0.7786  0.7749 -1.3849
  152MOL0     H20972   4.723   8.019   3.948  3.2792 -0.0091 -0.8959
  152MOL0     H20973   4.281   7.644   3.083 -0.3132  2.5692  1.9502
  152MOL0     H20974   4.223   7.668   2.808 -0.7601 -0.5523  1.8201
  152MOL0     H20975   4.365   7.594   2.717  0.3243 -2.3374  0.7282
  152MOL0     H20976   4.302   7.509   2.859  1.4229  0.2191  1.1712
  153MOL0     O20977   0.361   9.358   5.077 -0.0467 -1.0343 -1.0139
  153MOL0     C20978   0.333   9.306   4.967 -0.6605  0.2553 -0.1443
  153MOL0     O20979   0.378   9.185   4.928 -0.2111 -0.0403 -0.0850
  153MOL0     C20980   0.476   9.111   4.976 -0.6052  1.1203 -0.9342
  153MOL0     C20981   0.583   9.151   5.073  0.3549  0.7234  1.1726
  153MOL0     C20982   0.684   9.065   5.119  0.0909  0.6457 -0.0529
  153MOL0     C20983   0.689   8.932   5.059  0.1582  0.4590  0.2882
  153MOL0     O20984   0.784   8.833   5.087 -0.4733  0.7659  0.6887
  153MOL0     C20985   0.910   8.868   5.148  0.0465 -0.1582  0.4849
  153MOL0     C20986   1.004   8.935   5.056 -1.1482 -0.4045  0.2774
  153MOL0     C20987   1.034   8.851   4.933  0.5008  0.2475  0.7481
  153MOL0     C20988   1.136   8.746   4.965 -1.0683  0.7308  1.1857
  153MOL0     C20989   1.198   8.677   4.841 -0.2200  0.3846 -0.6542
  153MOL0     C20990   1.322   8.589   4.875 -0.3558  0.1842 -0.8137
  153MOL0     C20991   1.369   8.500   4.758  0.0833 -0.4360  0.6625
  153MOL0     C20992   1.457   8.390   4.805  0.2239  0.7753 -0.5519
  153MOL0     N20993   1.582   8.429   4.864 -0.0453  0.6404  0.3110
  153MOL0     C20994   1.687   8.478   4.792 -0.5536  0.4050  0.8276
  153MOL0     C20995   1.798   8.453   4.865  0.1856  0.2685 -0.1509
  153MOL0     C20996   1.942   8.448   4.824  0.3103  0.2989  0.1561
  153MOL0     C20997   2.012   8.539   4.922 -0.7722  0.1914 -0.5529
  153MOL0     C20998   2.165   8.505   4.924 -0.6400  0.1709  0.5180
  153MOL0     C20999   2.238   8.506   4.791  0.1313 -0.3219  0.7796
  153MOL0     O21000   2.238   8.627   4.723 -0.2629  0.4065  0.4941
  153MOL0     C21001   2.310   8.643   4.606  0.5983  0.0063 -0.1774
  153MOL0     C21002   2.393   8.542   4.570  1.0952 -0.5761 -0.6626
  153MOL0     C21003   2.478   8.556   4.460 -0.3766 -0.1452  0.8934
  153MOL0     C21004   2.595   8.447   4.452 -0.4723  0.5865 -0.4395
  153MOL0     C21005   2.473   8.673   4.378 -0.2574 -0.1315 -0.1679
  153MOL0     C21006   2.555   8.700   4.256  0.1706 -0.1099  0.7816
  153MOL0     O21007   2.520   8.805   4.192 -0.2813 -0.2563  0.5142
  153MOL0     C21008   2.576   8.844   4.067 -0.3898  0.2671 -0.6370
  153MOL0     C21009   2.495   8.868   3.961  0.4388  0.4421 -0.5702
  153MOL0     C21010   2.530   8.919   3.840 -0.4227 -0.4334  0.1290
  153MOL0     C21011   2.670   8.949   3.822 -0.3047 -0.8586 -0.0094
  153MOL0     O21012   2.721   8.996   3.701 -0.1352  1.1414 -0.5484
  153MOL0     C21013   2.721   8.881   3.609 -0.3119 -1.5717  0.9769
  153MOL0     C21014   2.786   8.930   3.477 -0.1066 -0.0847 -0.3613
  153MOL0     C21015   2.706   8.863   3.364 -0.2484  0.6364 -0.3445
  153MOL0     C21016   2.751   8.904   3.224  0.2967  0.5758  0.9370
  153MOL0     C21017   2.704   8.806   3.111 -1.5611 -0.0523 -0.4385
  153MOL0     C21018   2.556   8.783   3.102  0.0435 -0.4106  1.0039
  153MOL0     C21019   2.473   8.917   3.092 -0.2701 -0.3859 -0.1153
  153MOL0     C21020   2.332   8.882   3.060 -0.5956 -0.9753  1.3336
  153MOL0    Cl21021   2.314   8.829   2.891 -0.2757  0.6224  0.8227
  153MOL0     C21022   2.759   8.933   3.936  0.1281  0.5616 -0.0768
  153MOL0     C21023   2.706   8.880   4.057  0.4779 -0.1102 -0.0053
  153MOL0     O21024   2.635   8.609   4.223  0.1278 -0.0840  0.1741
  153MOL0     C21025   2.371   8.777   4.408  0.1271  0.3790  0.2588
  153MOL0     C21026   2.288   8.760   4.521 -0.7190 -0.7482 -0.5967
  153MOL0     N21027   1.749   8.393   4.976  0.4929  0.1764  0.4844
  153MOL0     N21028   1.620   8.381   4.982 -0.1307 -0.7056 -0.5406
  153MOL0     C21029   0.590   8.906   4.962 -0.3417  0.6752 -0.3581
  153MOL0     C21030   0.489   8.989   4.920  0.2122 -0.3593 -0.4430
  153MOL0     C21031   0.258   9.371   4.860  0.5400  0.8603  0.4121
  153MOL0     C21032   0.228   9.301   4.740 -0.4519  0.1004  0.1735
  153MOL0     C21033   0.159   9.353   4.631  0.4136 -0.3230 -0.0383
  153MOL0     C21034   0.097   9.475   4.639  0.7487  1.1631  0.4170
  153MOL0     O21035   0.014   9.533   4.543  0.0589 -0.1631 -0.5761
  153MOL0     C21036  -0.020   9.465   4.429 -0.1789  0.0655  0.5017
  153MOL0     C21037  -0.156   9.525   4.377 -0.6311  0.0784 -0.5637
  153MOL0     C21038  -0.144   9.674   4.330 -0.1226  0.5663 -0.1221
  153MOL0     C21039  -0.270   9.709   4.243 -1.0962  0.1488  0.6374
  153MOL0     C21040  -0.372   9.748   4.335  0.2378  0.7468 -0.3792
  153MOL0     C21041  -0.451   9.784   4.418 -0.0097 -0.5582  0.1802
  153MOL0     C21042   0.126   9.549   4.750 -0.4834 -0.5658  0.6269
  153MOL0     C21043   0.206   9.505   4.859 -0.8119 -0.0974 -0.8453
  153MOL0     C21044   0.233   9.588   4.972  0.2111  0.1809  0.3388
  153MOL0     H21045   0.576   9.253   5.110  0.3098  0.9012  0.6831
  153MOL0     H21046   0.757   9.083   5.197  2.4338 -4.8954 -0.4985
  153MOL0     H21047   0.956   8.775   5.184 -0.0421 -0.2689  0.3159
  153MOL0     H21048   0.914   8.934   5.235  0.3147  2.1492 -1.1937
  153MOL0     H21049   0.949   9.026   5.028 -0.9979  0.0183  1.3020
  153MOL0     H21050   1.100   8.959   5.102  0.7621 -4.5363 -1.0949
  153MOL0     H21051   0.943   8.811   4.888  0.6278  0.8223 -0.0426
  153MOL0     H21052   1.081   8.909   4.853 -0.1363  1.0832  0.9631
  153MOL0     H21053   1.222   8.783   5.023  2.1890 -0.9628 -2.1561
  153MOL0     H21054   1.094   8.659   5.015  0.9102 -0.2739  1.2079
  153MOL0     H21055   1.223   8.757   4.771 -0.4687  0.5012 -0.6119
  153MOL0     H21056   1.124   8.610   4.795 -1.3950 -1.1511  3.0021
  153MOL0     H21057   1.402   8.658   4.904  0.3210 -2.5491  5.4341
  153MOL0     H21058   1.292   8.532   4.963  0.5554 -0.4087 -0.8666
  153MOL0     H21059   1.406   8.561   4.675 -2.4066 -0.0090 -0.2338
  153MOL0     H21060   1.281   8.450   4.716 -0.2741  0.7005  0.0025
  153MOL0     H21061   1.394   8.335   4.876 -0.6476  0.2792 -1.6775
  153MOL0     H21062   1.483   8.313   4.731  0.8274 -1.6634  1.9861
  153MOL0     H21063   1.688   8.504   4.687  1.2052 -3.0585 -0.1648
  153MOL0     H21064   1.944   8.494   4.724  0.0792  0.2226  0.1143
  153MOL0     H21065   1.985   8.347   4.823  0.5818  0.4115 -0.4719
  153MOL0     H21066   1.998   8.644   4.892  0.9123  0.6604  0.1799
  153MOL0     H21067   1.985   8.534   5.028  3.1157  0.4851  0.5961
  153MOL0     H21068   2.210   8.576   4.994  0.5447  0.9541 -0.9889
  153MOL0     H21069   2.191   8.407   4.966  0.4601  0.4343  0.4850
  153MOL0     H21070   2.342   8.477   4.808  0.4099 -1.7045 -2.5479
  153MOL0     H21071   2.201   8.440   4.712 -0.3537  1.1678 -0.3031
  153MOL0     H21072   2.424   8.464   4.639  1.3210 -1.3993 -1.6698
  153MOL0     H21073   2.562   8.360   4.510  3.8126  0.0787  1.5865
  153MOL0     H21074   2.692   8.489   4.481  0.1871 -0.4111 -1.1324
  153MOL0     H21075   2.605   8.408   4.351 -1.4623 -2.2095  0.4493
  153MOL0     H21076   2.393   8.837   3.980  1.0139 -2.5159 -1.7677
  153MOL0     H21077   2.475   8.947   3.751 -0.0066 -0.7856 -0.2400
  153MOL0     H21078   2.764   8.788   3.649  3.2724  0.2931  1.9313
  153MOL0     H21079   2.612   8.876   3.598 -1.3538  5.0320  3.6951
  153MOL0     H21080   2.759   9.036   3.463 -2.2075 -0.9711 -5.3252
  153MOL0     H21081   2.893   8.913   3.464  0.3822  2.1564  0.3056
  153MOL0     H21082   2.604   8.898   3.383  0.0811  0.9727  0.8926
  153MOL0     H21083   2.708   8.755   3.383 -0.5949  1.0230  2.3220
  153MOL0     H21084   2.860   8.908   3.214  0.2497 -1.9753 -2.5706
  153MOL0     H21085   2.708   8.999   3.194 -1.6228 -0.6860 -0.5253
  153MOL0     H21086   2.738   8.853   3.018  1.2774 -1.0468 -0.0222
  153MOL0     H21087   2.759   8.711   3.120 -0.1928  0.8055  0.8573
  153MOL0     H21088   2.518   8.715   3.178  0.7801  0.4981  2.2117
  153MOL0     H21089   2.540   8.744   3.001  0.3154 -0.0164  0.8072
  153MOL0     H21090   2.513   8.986   3.017  1.4234 -1.6494 -0.4127
  153MOL0     H21091   2.474   8.974   3.185  0.5898  0.0379 -0.3802
  153MOL0     H21092   2.272   8.974   3.068  1.6486  0.4225  3.3506
  153MOL0     H21093   2.304   8.797   3.123  1.3293  0.1921  3.9407
  153MOL0     H21094   2.863   8.960   3.943 -0.8045  4.6548  0.7568
  153MOL0     H21095   2.771   8.871   4.144 -0.1025  0.1708  0.4696
  153MOL0     H21096   2.357   8.869   4.352 -1.1542 -1.4893 -2.7260
  153MOL0     H21097   2.213   8.828   4.561  0.8690  0.7381  0.0191
  153MOL0     H21098   0.596   8.811   4.908  0.8865  0.2897  0.4190
  153MOL0     H21099   0.415   8.958   4.847  1.1786 -1.6548 -0.9150
  153MOL0     H21100   0.253   9.195   4.736 -2.8101 -0.5052 -0.0758
  153MOL0     H21101   0.125   9.285   4.553 -2.0320  0.8997 -0.1014
  153MOL0     H21102   0.060   9.471   4.354  0.5115  0.3347  1.2469
  153MOL0     H21103  -0.030   9.357   4.442 -2.0381 -0.3090 -2.9123
  153MOL0     H21104  -0.220   9.525   4.465  0.4641  1.0209  0.2685
  153MOL0     H21105  -0.200   9.456   4.305 -2.6571  1.6887 -0.9469
  153MOL0     H21106  -0.132   9.741   4.416  0.5264 -1.3161  1.3220
  153MOL0     H21107  -0.054   9.684   4.269  2.0774  2.0893  3.0584
  153MOL0     H21108  -0.316   9.628   4.186 -0.0799  1.3823 -2.1054
  153MOL0     H21109  -0.237   9.788   4.175  3.4244  1.6822  4.0608
  153MOL0     H21110  -0.523   9.815   4.491  0.0969 -2.6353  1.2277
  153MOL0     H21111   0.085   9.649   4.760  1.7045  0.5047 -0.4353
  153MOL0     H21112   0.214   9.544   5.071  0.3888  1.4442  0.9523
  153MOL0     H21113   0.330   9.639   4.966  1.0908 -1.4601 -0.2756
  153MOL0     H21114   0.163   9.671   4.965 -0.6544 -0.5218  0.3984
  154MOL0     O21115   1.844   7.719   9.314  0.3374 -0.2848  0.3363
  154MOL0     C21116   1.770   7.719   9.405  0.0707  0.7392  0.0264
  154MOL0     O21117   1.691   7.610   9.459  0.0715 -0.9566 -0.3668
  154MOL0     C21118   1.731   7.484   9.423  0.0459 -0.2177  1.0636
  154MOL0     C21119   1.862   7.447   9.433  0.1235  0.8301  0.1226
  154MOL0     C21120   1.901   7.325   9.380  0.0241 -0.2228  0.8217
  154MOL0     C21121   1.806   7.229   9.329 -0.5648 -0.5364 -0.1311
  154MOL0     O21122   1.847   7.107   9.277 -0.4003  0.1168  0.1185
  154MOL0     C21123   1.986   7.069   9.271  0.0696  0.8896  0.3637
  154MOL0     C21124   1.974   6.925   9.215  0.6223 -0.1691 -0.2335
  154MOL0     C21125   2.094   6.840   9.254 -0.0470  0.3001  0.6655
  154MOL0     C21126   2.209   6.859   9.162 -0.1798  0.6874 -0.0676
  154MOL0     C21127   2.321   6.738   9.179  0.4267 -0.6434 -0.0182
  154MOL0     C21128   2.268   6.596   9.170  0.4806  1.1842  0.2291
  154MOL0     C21129   2.210   6.568   9.034 -0.3005 -0.2737 -1.2581
  154MOL0     C21130   2.228   6.433   8.976 -0.1412 -0.3861 -0.4761
  154MOL0     N21131   2.157   6.327   9.041  0.1207 -0.2093 -0.2443
  154MOL0     C21132   2.034   6.284   8.993 -0.4718  0.2278  0.0072
  154MOL0     C21133   1.997   6.191   9.082  0.4611  0.1302 -0.3308
  154MOL0     C21134   1.878   6.113   9.084  0.0668 -0.8183 -0.6800
  154MOL0     C21135   1.750   6.193   9.087  0.1590  0.2970  0.7304
  154MOL0     C21136   1.739   6.294   9.199 -0.2905 -0.7190  0.8495
  154MOL0     C21137   1.594   6.349   9.204 -0.7882 -1.0571 -0.3877
  154MOL0     O21138   1.535   6.395   9.078 -0.1807 -0.5798  0.4591
  154MOL0     C21139   1.592   6.502   9.005 -0.0130  0.5037  0.5796
  154MOL0     C21140   1.597   6.488   8.866 -0.5158  1.3324 -1.4475
  154MOL0     C21141   1.675   6.569   8.785  0.3060  0.2932  0.8846
  154MOL0     C21142   1.659   6.555   8.639  0.5690  0.3242 -0.3925
  154MOL0     C21143   1.747   6.673   8.846 -0.9539 -0.0637 -0.8674
  154MOL0     C21144   1.834   6.756   8.770 -0.7783  0.2293  0.5192
  154MOL0     O21145   1.973   6.734   8.786  0.5793  1.0494 -0.3096
  154MOL0     C21146   2.045   6.822   8.706  0.3403  0.2077 -0.4718
  154MOL0     C21147   2.099   6.779   8.585 -0.0399 -0.4587 -0.5710
  154MOL0     C21148   2.189   6.871   8.524  0.1972  0.0917  1.8700
  154MOL0     C21149   2.241   6.989   8.591  0.4511 -0.6009 -0.2104
  154MOL0     O21150   2.327   7.075   8.526  0.3214  0.1042  1.3118
  154MOL0     C21151   2.337   7.213   8.577 -0.4732 -0.4392  0.1953
  154MOL0     C21152   2.456   7.280   8.500 -0.1633 -0.5582  0.4184
  154MOL0     C21153   2.453   7.258   8.348  0.4673 -0.2750 -0.3835
  154MOL0     C21154   2.576   7.294   8.269 -0.2105  0.5494 -0.1427
  154MOL0     C21155   2.548   7.300   8.122  0.2183 -0.2134  0.9862
  154MOL0     C21156   2.529   7.165   8.056  0.1861 -0.5173  0.1455
  154MOL0     C21157   2.555   7.184   7.906  0.3709  0.2092 -0.3202
  154MOL0     C21158   2.557   7.070   7.801 -1.1452  0.4844 -0.2194
  154MOL0    Cl21159   2.669   7.130   7.676 -0.1488 -0.0447 -0.4215
  154MOL0     C21160   2.180   7.019   8.714  0.5242  0.0952  0.0020
  154MOL0     C21161   2.087   6.938   8.770  0.1138  0.4398  0.5735
  154MOL0     O21162   1.782   6.836   8.694  0.0468  0.3167  0.1829
  154MOL0     C21163   1.742   6.696   8.978 -0.1320  0.2881 -1.4888
  154MOL0     C21164   1.661   6.601   9.058 -0.5810 -0.9840 -0.4175
  154MOL0     N21165   2.103   6.170   9.174 -0.4729  0.8155 -0.3089
  154MOL0     N21166   2.208   6.246   9.142 -0.3428  0.2412  0.2413
  154MOL0     C21167   1.670   7.260   9.335 -0.4315  0.5839 -0.0569
  154MOL0     C21168   1.635   7.394   9.368 -0.0914  0.4679  0.0605
  154MOL0     C21169   1.737   7.852   9.471 -0.2687 -0.1265 -0.6019
  154MOL0     C21170   1.731   7.963   9.392  0.1741  0.0909 -0.9136
  154MOL0     C21171   1.684   8.084   9.448 -0.3568 -0.0760 -0.5597
  154MOL0     C21172   1.648   8.098   9.582  0.5815 -0.1833  0.8538
  154MOL0     O21173   1.619   8.232   9.618 -0.2765  0.2467 -0.6926
  154MOL0     C21174   1.590   8.257   9.760  0.2153 -0.1210 -0.5274
  154MOL0     C21175   1.440   8.201   9.797 -0.4138  0.4870  0.0097
  154MOL0     C21176   1.397   8.228   9.941  0.1719 -0.1874 -0.5800
  154MOL0     C21177   1.509   8.190  10.049  0.7105 -0.7549  0.7705
  154MOL0     C21178   1.539   8.048  10.050 -0.5857 -0.1762 -0.0482
  154MOL0     C21179   1.555   7.933  10.035 -0.2983  0.4601  0.1919
  154MOL0     C21180   1.671   7.989   9.667 -0.4088  0.1923  0.1629
  154MOL0     C21181   1.714   7.864   9.613  0.2665  0.4329 -0.1256
  154MOL0     C21182   1.735   7.749   9.704 -0.0551 -0.4790  0.3864
  154MOL0     H21183   1.938   7.507   9.482  0.4774  0.2781  0.2675
  154MOL0     H21184   2.008   7.313   9.397 -0.0130 -1.9526  0.0250
  154MOL0     H21185   2.041   7.080   9.366  1.4286 -0.5250 -0.2295
  154MOL0     H21186   2.042   7.114   9.189  3.6364 -0.7430  1.7072
  154MOL0     H21187   1.885   6.878   9.257  1.8407 -2.0932  0.3206
  154MOL0     H21188   1.952   6.926   9.108 -1.2895  1.7424  0.1004
  154MOL0     H21189   2.124   6.850   9.359 -0.6408 -1.4154  1.0323
  154MOL0     H21190   2.052   6.741   9.234 -2.7336  1.2857  1.0966
  154MOL0     H21191   2.178   6.864   9.058 -0.0038  2.4793 -0.0588
  154MOL0     H21192   2.259   6.952   9.188  0.2691  0.3581  0.2815
  154MOL0     H21193   2.348   6.749   9.285 -1.7690 -0.8742  0.6275
  154MOL0     H21194   2.406   6.757   9.113 -0.9912  5.1079 -0.7692
  154MOL0     H21195   2.350   6.523   9.176 -2.1389 -2.0325  0.1786
  154MOL0     H21196   2.202   6.554   9.246  2.4012 -2.5327  0.1054
  154MOL0     H21197   2.253   6.646   8.970  0.7140 -2.0190 -2.7899
  154MOL0     H21198   2.101   6.581   9.037 -0.5596 -2.0672 -1.8009
  154MOL0     H21199   2.200   6.427   8.870  1.1044 -1.7862 -0.7735
  154MOL0     H21200   2.336   6.417   8.964 -0.0790  0.8957 -1.8932
  154MOL0     H21201   1.980   6.335   8.915 -0.2506 -0.0439 -0.3288
  154MOL0     H21202   1.874   6.053   9.176  1.4550 -0.2588 -0.2211
  154MOL0     H21203   1.864   6.048   8.998 -1.9551  0.7563 -1.6166
  154MOL0     H21204   1.759   6.250   8.994  4.5068  1.8944  1.8765
  154MOL0     H21205   1.669   6.119   9.088  1.1126 -0.8300 -0.6451
  154MOL0     H21206   1.758   6.245   9.295  3.8071  2.1141  1.7731
  154MOL0     H21207   1.810   6.377   9.197  0.7320 -1.5835 -0.9620
  154MOL0     H21208   1.527   6.268   9.234  1.0154 -2.1981  0.8331
  154MOL0     H21209   1.596   6.425   9.283  0.8539 -1.4330 -0.0286
  154MOL0     H21210   1.542   6.404   8.825 -1.2283  1.1729 -0.2224
  154MOL0     H21211   1.729   6.616   8.581 -1.7335  1.9472 -1.6306
  154MOL0     H21212   1.560   6.592   8.613  0.1387  0.5635  1.4527
  154MOL0     H21213   1.671   6.450   8.611  0.0674  0.2363 -0.2826
  154MOL0     H21214   2.072   6.694   8.523 -2.1846 -0.1802 -0.1045
  154MOL0     H21215   2.232   6.855   8.426  0.3078  1.7991  1.6197
  154MOL0     H21216   2.238   7.254   8.555 -0.0407  0.9398  0.7276
  154MOL0     H21217   2.346   7.224   8.686 -3.6566  2.2284  0.3487
  154MOL0     H21218   2.460   7.390   8.501  1.8996 -0.5771  0.1295
  154MOL0     H21219   2.551   7.253   8.547 -0.3312 -1.7817  0.0658
  154MOL0     H21220   2.374   7.316   8.297 -0.5120 -2.2358 -1.2161
  154MOL0     H21221   2.437   7.152   8.327 -0.6151  0.0628 -1.4192
  154MOL0     H21222   2.655   7.221   8.292  0.0339  0.6385 -0.6972
  154MOL0     H21223   2.600   7.395   8.303 -2.8782  1.7117 -1.4700
  154MOL0     H21224   2.465   7.365   8.092  0.9455  0.1165 -0.3339
  154MOL0     H21225   2.638   7.351   8.086 -0.2348  1.0501  1.5482
  154MOL0     H21226   2.423   7.141   8.070 -0.3523  1.1144 -0.9638
  154MOL0     H21227   2.592   7.085   8.097  1.3168  0.6366  0.7483
  154MOL0     H21228   2.649   7.239   7.894  2.1054 -2.5351 -0.0653
  154MOL0     H21229   2.475   7.251   7.872 -1.2992 -0.0410  2.7430
  154MOL0     H21230   2.457   7.062   7.757 -0.5097 -1.3554 -1.4911
  154MOL0     H21231   2.588   6.975   7.846 -0.2680  1.2904  0.9335
  154MOL0     H21232   2.219   7.107   8.765  1.8239 -1.0531  1.0526
  154MOL0     H21233   2.048   6.968   8.867  0.4480 -4.3770  2.4602
  154MOL0     H21234   1.811   6.767   9.022 -0.2736  0.6779 -1.8837
  154MOL0     H21235   1.678   6.594   9.165  0.9727  0.6631 -0.4951
  154MOL0     H21236   1.595   7.189   9.301  0.4711 -0.5935  0.3348
  154MOL0     H21237   1.534   7.435   9.369 -0.6336 -0.6740  3.4107
  154MOL0     H21238   1.773   7.967   9.292 -0.2533  1.1832 -1.0688
  154MOL0     H21239   1.674   8.165   9.377 -2.0528 -0.4866 -0.8362
  154MOL0     H21240   1.658   8.210   9.832  1.5585 -0.1146 -1.7446
  154MOL0     H21241   1.600   8.366   9.767 -0.7433 -0.1015  1.3212
  154MOL0     H21242   1.428   8.092   9.798 -4.0164  0.7443 -1.0099
  154MOL0     H21243   1.372   8.259   9.734 -0.1277  3.6498  2.3695
  154MOL0     H21244   1.385   8.336   9.949  0.8355 -0.1675  0.2390
  154MOL0     H21245   1.299   8.183   9.961  0.0692  0.3312  0.1342
  154MOL0     H21246   1.473   8.210  10.151 -1.2496 -0.2594  0.0344
  154MOL0     H21247   1.597   8.253  10.035  0.2603  0.6782  3.7352
  154MOL0     H21248   1.546   7.828  10.015  2.3927  0.0665  0.6666
  154MOL0     H21249   1.647   8.000   9.773  0.1685 -0.9486  0.4237
  154MOL0     H21250   1.815   7.684   9.668 -1.0071 -0.0724 -2.8377
  154MOL0     H21251   1.748   7.781   9.807  1.8948  2.5429 -0.6621
  154MOL0     H21252   1.646   7.685   9.700 -0.2183 -0.2611  0.4931
  155MOL0     O21253   9.565   7.517   7.393 -0.3144 -0.2892 -0.6435
  155MOL0     C21254   9.613   7.475   7.290 -0.2847  0.8708  0.3152
  155MOL0     O21255   9.555   7.474   7.165  0.6210 -0.8448 -0.9530
  155MOL0     C21256   9.424   7.505   7.152  1.1073 -0.7928  0.5602
  155MOL0     C21257   9.372   7.628   7.204  0.7379  0.2835 -0.0105
  155MOL0     C21258   9.241   7.667   7.180  0.4504 -0.2865 -0.4292
  155MOL0     C21259   9.162   7.583   7.106  0.0535  0.2091 -0.1072
  155MOL0     O21260   9.040   7.630   7.075 -0.4135  0.4520  0.5989
  155MOL0     C21261   8.939   7.597   7.166  0.9053  0.1989 -0.5368
  155MOL0     C21262   8.838   7.506   7.096  0.1117  0.0747 -0.6534
  155MOL0     C21263   8.782   7.420   7.196 -0.0414 -0.7139 -0.5406
  155MOL0     C21264   8.661   7.341   7.149 -0.3047  0.3259  0.1962
  155MOL0     C21265   8.621   7.243   7.244  0.8940 -0.8975  0.2685
  155MOL0     C21266   8.577   7.288   7.382  0.7703 -0.2097  0.3655
  155MOL0     C21267   8.567   7.167   7.477  0.5457  0.3730 -0.3159
  155MOL0     C21268   8.566   7.221   7.620  0.5708  0.3745 -0.0394
  155MOL0     N21269   8.546   7.106   7.716  0.5259 -0.1287 -0.1634
  155MOL0     C21270   8.450   7.006   7.706 -0.6669  0.0884  0.5661
  155MOL0     C21271   8.468   6.929   7.820  0.2161  0.2600  0.2955
  155MOL0     C21272   8.400   6.800   7.857  0.5814 -0.0352  0.0646
  155MOL0     C21273   8.321   6.836   7.987  0.2820  0.3349  0.4753
  155MOL0     C21274   8.235   6.725   8.028 -0.7752  0.5296 -1.1390
  155MOL0     C21275   8.151   6.775   8.143  0.1541 -0.4084  0.2035
  155MOL0     O21276   8.109   6.666   8.222  0.3746 -0.3677  0.2092
  155MOL0     C21277   8.057   6.690   8.346 -0.0246  0.3920 -0.9780
  155MOL0     C21278   8.047   6.572   8.422 -0.0244  0.1971  0.2782
  155MOL0     C21279   7.986   6.573   8.541  0.0696  0.1593  0.0485
  155MOL0     C21280   7.957   6.438   8.608  0.3831 -0.4777 -0.0475
  155MOL0     C21281   7.955   6.691   8.613 -0.6189 -0.6460 -0.8688
  155MOL0     C21282   7.903   6.709   8.751  0.0226 -0.6432  0.1190
  155MOL0     O21283   7.835   6.825   8.776  0.0889 -0.2410 -0.2845
  155MOL0     C21284   7.777   6.855   8.898 -0.3594  0.8484  0.6026
  155MOL0     C21285   7.742   6.985   8.939  0.2063 -0.1920 -0.2382
  155MOL0     C21286   7.673   7.018   9.054  0.2992 -0.0131  0.0542
  155MOL0     C21287   7.622   6.920   9.130  0.0988  0.1830 -0.4258
  155MOL0     O21288   7.537   6.964   9.231 -0.0840  0.5204 -0.3230
  155MOL0     C21289   7.415   6.899   9.266 -0.3482 -0.3097  0.3780
  155MOL0     C21290   7.326   7.015   9.328  0.7924  0.6795  0.8088
  155MOL0     C21291   7.293   7.120   9.223  0.0873 -1.0832  0.1119
  155MOL0     C21292   7.201   7.228   9.277  0.0431 -0.0690  0.1930
  155MOL0     C21293   7.172   7.332   9.171 -0.3023 -0.4004  0.1218
  155MOL0     C21294   7.182   7.473   9.210 -0.3599 -0.1819 -0.1875
  155MOL0     C21295   7.080   7.504   9.322 -0.8460 -0.4434  0.8857
  155MOL0     C21296   7.071   7.656   9.359  0.6038  1.1520 -0.0236
  155MOL0    Cl21297   7.226   7.730   9.380  0.0675 -0.1956 -0.1608
  155MOL0     C21298   7.644   6.784   9.094 -0.1373 -0.3762 -0.7314
  155MOL0     C21299   7.729   6.751   8.990 -0.4649  1.4119  0.7621
  155MOL0     O21300   7.908   6.608   8.818 -0.2348  0.1675 -0.3585
  155MOL0     C21301   7.988   6.811   8.547 -0.4099 -0.2180  0.5587
  155MOL0     C21302   8.033   6.810   8.410 -0.1560 -0.7025 -0.4516
  155MOL0     N21303   8.578   6.979   7.890 -0.2297 -0.2576  0.3806
  155MOL0     N21304   8.635   7.072   7.813 -0.7060 -0.1480 -0.2176
  155MOL0     C21305   9.206   7.467   7.056  0.0691 -0.6521  0.5999
  155MOL0     C21306   9.338   7.431   7.073 -0.1948 -0.3775  0.0015
  155MOL0     C21307   9.752   7.422   7.310  0.5177  0.4038 -0.0835
  155MOL0     C21308   9.829   7.404   7.187 -0.0658 -0.2436 -0.2509
  155MOL0     C21309   9.957   7.357   7.191 -0.5236 -0.5717  0.6917
  155MOL0     C21310  10.020   7.308   7.311 -0.3117 -0.7719 -0.9248
  155MOL0     O21311  10.148   7.252   7.298  0.6036 -1.2503 -0.0104
  155MOL0     C21312  10.146   7.106   7.314  0.3312 -0.2785  0.8411
  155MOL0     C21313  10.280   7.048   7.342  0.4255 -0.6279  0.1137
  155MOL0     C21314  10.269   6.896   7.359 -0.2973  0.4404 -0.3680
  155MOL0     C21315  10.388   6.813   7.299  0.3056 -0.0562  0.4911
  155MOL0     C21316  10.382   6.664   7.324 -0.5328  0.2198 -0.1150
  155MOL0     C21317  10.378   6.547   7.333  0.2021  0.0734  0.8677
  155MOL0     C21318   9.949   7.329   7.436  0.5034  0.9517  0.0375
  155MOL0     C21319   9.820   7.391   7.438  0.4872 -0.2835  0.4260
  155MOL0     C21320   9.761   7.424   7.569 -0.0531  0.5229  0.1396
  155MOL0     H21321   9.438   7.681   7.271  1.7026 -0.2471 -0.5186
  155MOL0     H21322   9.197   7.760   7.214  3.9091  2.1628 -2.0396
  155MOL0     H21323   8.883   7.688   7.191  1.8021  0.4742  0.5405
  155MOL0     H21324   8.980   7.555   7.258 -1.1171  0.6193  0.6324
  155MOL0     H21325   8.765   7.550   7.027  0.2861  0.6184 -0.4901
  155MOL0     H21326   8.884   7.435   7.027 -0.8607 -1.5256  0.2823
  155MOL0     H21327   8.866   7.361   7.235  1.4237  2.2930  1.2514
  155MOL0     H21328   8.763   7.486   7.281  2.7007 -2.5971  1.7079
  155MOL0     H21329   8.577   7.405   7.120 -1.0015 -1.3329 -1.6938
  155MOL0     H21330   8.678   7.285   7.057 -2.7266 -0.2867  0.0349
  155MOL0     H21331   8.699   7.167   7.253 -1.4022 -3.1916  2.3664
  155MOL0     H21332   8.534   7.193   7.200 -0.4082  0.4948  1.1517
  155MOL0     H21333   8.653   7.348   7.433 -1.2250  3.4806 -0.6097
  155MOL0     H21334   8.490   7.355   7.376 -0.0247 -1.3213 -3.5189
  155MOL0     H21335   8.658   7.108   7.463 -0.1586 -0.7320 -0.3043
  155MOL0     H21336   8.476   7.110   7.456 -0.7985  1.1904  2.7401
  155MOL0     H21337   8.662   7.267   7.642 -0.1461  0.8168  2.5057
  155MOL0     H21338   8.489   7.297   7.640  1.0335 -0.2175  5.2904
  155MOL0     H21339   8.366   7.000   7.638 -0.8165  1.0466  0.6531
  155MOL0     H21340   8.458   6.709   7.876 -0.0638 -0.5435 -0.3350
  155MOL0     H21341   8.323   6.775   7.783 -1.1294 -5.3347  3.1461
  155MOL0     H21342   8.403   6.846   8.059  2.0129 -2.4139 -0.9317
  155MOL0     H21343   8.258   6.925   7.978 -1.3061 -0.7657  0.2913
  155MOL0     H21344   8.175   6.691   7.944 -1.4824 -2.8612  0.5625
  155MOL0     H21345   8.284   6.636   8.068 -3.6211 -1.1675 -1.2226
  155MOL0     H21346   8.204   6.842   8.212 -1.8313  0.7690  0.6543
  155MOL0     H21347   8.070   6.841   8.114  2.2862  1.3705 -2.1883
  155MOL0     H21348   8.057   6.477   8.371 -2.6707  1.0773 -2.1547
  155MOL0     H21349   7.852   6.407   8.617  0.1425 -0.1294 -1.4348
  155MOL0     H21350   7.998   6.435   8.709  1.1705  2.2748 -0.1821
  155MOL0     H21351   8.017   6.364   8.556 -0.5257 -1.4904  0.3164
  155MOL0     H21352   7.756   7.067   8.869 -1.5376 -1.5222 -2.2283
  155MOL0     H21353   7.651   7.124   9.068 -0.2080  0.5989 -4.0633
  155MOL0     H21354   7.366   6.848   9.183  0.6716  0.5851 -0.8064
  155MOL0     H21355   7.433   6.817   9.337  3.1380 -1.2726 -1.4009
  155MOL0     H21356   7.234   6.985   9.379  1.7523 -0.0652  2.1699
  155MOL0     H21357   7.382   7.064   9.408 -1.4873  1.6762  1.9007
  155MOL0     H21358   7.254   7.072   9.133  2.6309 -3.1072 -0.0273
  155MOL0     H21359   7.383   7.173   9.189  1.2491 -0.7610  3.3152
  155MOL0     H21360   7.250   7.271   9.365  0.7437  1.3257 -0.8389
  155MOL0     H21361   7.105   7.197   9.317 -0.8964 -0.1701 -1.9922
  155MOL0     H21362   7.234   7.315   9.083  0.9460 -1.3471  1.1367
  155MOL0     H21363   7.072   7.315   9.130  0.0558  2.5382 -2.2462
  155MOL0     H21364   7.150   7.543   9.133  0.3853  1.8769  1.2797
  155MOL0     H21365   7.285   7.485   9.244  0.0892 -2.7633 -0.4160
  155MOL0     H21366   7.111   7.453   9.414 -2.4242 -0.0052  1.6929
  155MOL0     H21367   6.979   7.464   9.306 -1.5305  0.9867  1.5090
  155MOL0     H21368   7.016   7.673   9.452 -1.3405  1.9038 -1.2551
  155MOL0     H21369   7.017   7.698   9.275 -2.6168 -0.5173  1.0675
  155MOL0     H21370   7.599   6.706   9.155 -2.1148  1.9060  0.8633
  155MOL0     H21371   7.753   6.648   8.969  1.8741  2.2539 -1.0936
  155MOL0     H21372   7.973   6.906   8.597  2.8715  1.1612 -0.7913
  155MOL0     H21373   8.057   6.898   8.352  2.0323 -0.6317  0.4305
  155MOL0     H21374   9.139   7.406   6.997  1.1972 -0.8827 -0.4994
  155MOL0     H21375   9.377   7.341   7.027  0.5593  1.3864 -3.1472
  155MOL0     H21376   9.779   7.424   7.093 -1.7784  0.0110  0.6578
  155MOL0     H21377  10.016   7.341   7.102 -1.4337 -1.8368  0.3026
  155MOL0     H21378  10.080   7.080   7.397 -0.7667  1.2433  0.4830
  155MOL0     H21379  10.111   7.052   7.226  0.3952 -0.0394  0.6678
  155MOL0     H21380  10.318   7.090   7.436  0.2389  2.3769 -1.0423
  155MOL0     H21381  10.353   7.079   7.267 -1.8251 -0.7498 -2.2789
  155MOL0     H21382  10.259   6.880   7.467 -1.3775  1.6178 -0.2805
  155MOL0     H21383  10.184   6.843   7.316  0.2744 -1.5904  0.8184
  155MOL0     H21384  10.481   6.853   7.342  0.9424 -0.2486 -0.6781
  155MOL0     H21385  10.371   6.826   7.192 -3.0676  1.0279  1.0435
  155MOL0     H21386  10.379   6.441   7.340 -1.4876 -0.2750 -2.1485
  155MOL0     H21387  10.000   7.308   7.530 -2.6336 -2.4468  1.2150
  155MOL0     H21388   9.662   7.382   7.586  0.3812 -0.0585  1.3586
  155MOL0     H21389   9.821   7.366   7.640  1.4461  0.4233 -1.1496
  155MOL0     H21390   9.737   7.529   7.586 -2.5165  0.1433 -0.6170
  156MOL0     O21391   4.617   4.134   6.504 -0.1155 -0.2026  0.2026
  156MOL0     C21392   4.674   4.155   6.615  0.3097  0.2133 -0.0530
  156MOL0     O21393   4.621   4.252   6.701 -0.2399 -0.3358  0.3819
  156MOL0     C21394   4.500   4.305   6.671  0.5978  0.8193 -0.0805
  156MOL0     C21395   4.477   4.442   6.632 -0.4012 -0.8583  0.6691
  156MOL0     C21396   4.342   4.488   6.615 -0.2657 -0.8460 -0.6753
  156MOL0     C21397   4.234   4.405   6.628  0.9822 -0.1734  0.0268
  156MOL0     O21398   4.096   4.433   6.612 -0.3247 -0.7504  0.0839
  156MOL0     C21399   4.061   4.572   6.593 -0.0423  0.3364 -0.6798
  156MOL0     C21400   3.908   4.582   6.564  1.1256 -0.2020 -0.6672
  156MOL0     C21401   3.851   4.722   6.594  0.0267 -0.0662  0.1221
  156MOL0     C21402   3.724   4.715   6.675  0.8098 -0.4458 -0.2977
  156MOL0     C21403   3.714   4.844   6.765 -1.1838 -0.0449  0.2105
  156MOL0     C21404   3.630   4.819   6.887 -0.0642 -0.9836  0.8959
  156MOL0     C21405   3.477   4.827   6.858  0.5483  0.9390  0.5275
  156MOL0     C21406   3.432   4.976   6.824 -0.4313  0.3079 -0.5930
  156MOL0     N21407   3.287   4.990   6.848  0.5319 -0.5199  0.1881
  156MOL0     C21408   3.192   4.888   6.847  1.1510  0.8081  0.8297
  156MOL0     C21409   3.076   4.946   6.862  0.5108  0.6745  0.2924
  156MOL0     C21410   2.937   4.892   6.873 -0.6919 -0.3599  0.1346
  156MOL0     C21411   2.893   4.829   6.996  0.7942  0.7787 -0.0765
  156MOL0     C21412   2.889   4.920   7.118  0.2528 -0.1971 -0.3754
  156MOL0     C21413   2.800   4.886   7.245 -0.0047  0.0337  1.0498
  156MOL0     O21414   2.842   4.971   7.351 -1.0261 -0.0482  0.4949
  156MOL0     C21415   2.829   4.937   7.481 -0.4727  0.6348  0.1642
  156MOL0     C21416   2.755   4.833   7.537 -0.0592 -0.1068  0.6317
  156MOL0     C21417   2.745   4.809   7.672 -0.6736  0.6742 -0.3046
  156MOL0     C21418   2.662   4.688   7.725  0.0319  0.5686  0.1442
  156MOL0     C21419   2.813   4.897   7.758  0.5409 -0.2704 -0.7513
  156MOL0     C21420   2.792   4.891   7.909  0.5357 -0.9726  0.0184
  156MOL0     O21421   2.695   4.820   7.957  0.2248  0.9712 -0.5078
  156MOL0     C21422   2.610   4.864   8.056  0.5480  0.1285 -0.1931
  156MOL0     C21423   2.571   4.777   8.159  0.0573 -1.3197 -0.3174
  156MOL0     C21424   2.519   4.840   8.274 -0.7283 -0.7035 -0.3966
  156MOL0     C21425   2.485   4.981   8.286 -0.9673  0.5219  0.5456
  156MOL0     O21426   2.411   5.040   8.393 -0.3933 -0.2689  0.0512
  156MOL0     C21427   2.429   4.989   8.525 -0.3098  0.5168  0.0554
  156MOL0     C21428   2.404   5.096   8.641 -0.1376  0.1530 -0.0778
  156MOL0     C21429   2.515   5.206   8.633  0.3856  0.2429  0.4476
  156MOL0     C21430   2.655   5.153   8.687  0.8080 -0.8955  0.4150
  156MOL0     C21431   2.647   5.094   8.835 -0.2260  0.4592  0.0830
  156MOL0     C21432   2.790   5.052   8.871  0.9072  0.4242  0.6317
  156MOL0     C21433   2.787   4.985   9.005 -0.2620 -0.0589  0.3974
  156MOL0     C21434   2.927   4.956   9.049 -0.1926 -0.2009 -0.1791
  156MOL0    Cl21435   3.004   5.107   9.097  0.4855  0.2271  0.1843
  156MOL0     C21436   2.504   5.056   8.166 -0.3352  0.0263 -0.2694
  156MOL0     C21437   2.567   4.998   8.057  0.1602 -0.4233 -0.2173
  156MOL0     O21438   2.881   4.951   7.975  0.8937 -0.5554 -0.1744
  156MOL0     C21439   2.889   5.006   7.708 -0.5193  0.3369 -0.3136
  156MOL0     C21440   2.911   5.023   7.563 -0.5328  0.5294 -0.1199
  156MOL0     N21441   3.097   5.074   6.884 -0.0272 -0.0634  0.1460
  156MOL0     N21442   3.220   5.107   6.859  0.4543 -0.6395 -0.3457
  156MOL0     C21443   4.262   4.270   6.650  0.1070 -0.1012  0.1022
  156MOL0     C21444   4.393   4.217   6.676  0.3892  1.6067  0.3961
  156MOL0     C21445   4.822   4.123   6.621  0.1816  0.3732  1.0931
  156MOL0     C21446   4.897   4.214   6.695  0.0788  0.7221 -0.1177
  156MOL0     C21447   5.029   4.206   6.703 -0.2212 -0.7093  0.9227
  156MOL0     C21448   5.094   4.096   6.636  0.2538  0.4243 -0.5991
  156MOL0     O21449   5.226   4.092   6.634 -1.0733 -0.3129  0.7033
  156MOL0     C21450   5.276   4.062   6.770  0.4070  0.2600 -0.1934
  156MOL0     C21451   5.348   3.930   6.757  0.1623  1.1058 -1.0674
  156MOL0     C21452   5.494   3.950   6.712  0.0137  0.3473  0.9662
  156MOL0     C21453   5.508   3.931   6.555  0.8232  0.3395  0.4542
  156MOL0     C21454   5.653   3.926   6.527 -0.9389 -0.8534 -0.5724
  156MOL0     C21455   5.767   3.929   6.494  0.3628  0.3110 -0.3379
  156MOL0     C21456   5.017   4.003   6.565  0.0677  0.2330 -0.2774
  156MOL0     C21457   4.884   4.014   6.561  0.8894  0.5941 -0.2301
  156MOL0     C21458   4.812   3.915   6.470  0.3317 -0.2705 -1.2515
  156MOL0     H21459   4.564   4.507   6.631  0.8644 -2.4702 -1.2956
  156MOL0     H21460   4.329   4.593   6.592  0.1146 -0.6508 -0.0251
  156MOL0     H21461   4.122   4.629   6.522 -1.9259  2.0779 -0.9815
  156MOL0     H21462   4.078   4.623   6.688  5.7695  2.8837 -2.5931
  156MOL0     H21463   3.880   4.555   6.462  2.7760  0.5656 -1.3601
  156MOL0     H21464   3.861   4.499   6.618 -0.5219  1.1937  0.1692
  156MOL0     H21465   3.927   4.783   6.642  0.2354  0.3079 -0.6717
  156MOL0     H21466   3.822   4.780   6.506 -1.1293 -1.3684 -0.4051
  156MOL0     H21467   3.635   4.701   6.612 -0.0101 -2.4205  1.1981
  156MOL0     H21468   3.715   4.621   6.730 -0.6225  0.2116  0.6446
  156MOL0     H21469   3.676   4.938   6.723 -1.6496  0.6694  2.1589
  156MOL0     H21470   3.818   4.857   6.796  0.0423 -2.2314 -2.4836
  156MOL0     H21471   3.655   4.723   6.933 -2.2134 -1.3786  1.3701
  156MOL0     H21472   3.655   4.892   6.964 -2.1915  1.9353 -0.9468
  156MOL0     H21473   3.420   4.792   6.944 -2.6323  3.2312 -0.4776
  156MOL0     H21474   3.465   4.748   6.783  0.9637  0.3652  1.0587
  156MOL0     H21475   3.491   5.053   6.876  1.0501  0.2583 -2.1061
  156MOL0     H21476   3.451   4.989   6.717 -1.2445  1.1668 -0.6507
  156MOL0     H21477   3.226   4.785   6.834  0.0274  0.5852 -0.6469
  156MOL0     H21478   2.937   4.824   6.787  2.5978  2.3483 -2.2543
  156MOL0     H21479   2.866   4.969   6.841 -0.4246  0.1023  0.6626
  156MOL0     H21480   2.796   4.779   6.991  0.4944  0.7995  3.2159
  156MOL0     H21481   2.959   4.746   7.024 -2.2306 -3.2073 -3.4154
  156MOL0     H21482   2.993   4.925   7.151  0.3465 -2.9055 -0.0896
  156MOL0     H21483   2.844   5.015   7.086 -1.5240 -0.7716  0.2592
  156MOL0     H21484   2.695   4.906   7.224 -1.1936 -3.5710  2.6718
  156MOL0     H21485   2.822   4.784   7.277  0.7097 -0.5322 -1.0635
  156MOL0     H21486   2.696   4.778   7.464  1.7521 -0.0010 -0.9759
  156MOL0     H21487   2.705   4.643   7.815 -0.3409  3.7265  2.0291
  156MOL0     H21488   2.643   4.619   7.642  3.5122  0.0872 -0.3913
  156MOL0     H21489   2.570   4.728   7.769 -0.5357 -2.4741  2.1006
  156MOL0     H21490   2.610   4.676   8.164  3.7101 -0.0140 -0.0181
  156MOL0     H21491   2.483   4.787   8.362 -2.0513  0.2629 -0.3310
  156MOL0     H21492   2.365   4.900   8.533  2.2562 -1.6862 -2.0805
  156MOL0     H21493   2.535   4.966   8.537 -0.8206 -2.7694 -0.7278
  156MOL0     H21494   2.309   5.148   8.626  1.2424  2.0989 -3.0456
  156MOL0     H21495   2.401   5.049   8.739  1.4134  0.5386  0.1860
  156MOL0     H21496   2.494   5.282   8.708  0.6883  1.0959 -0.3196
  156MOL0     H21497   2.524   5.244   8.531 -3.6164  0.9917  0.2021
  156MOL0     H21498   2.727   5.236   8.687  0.2746 -0.4119  1.2547
  156MOL0     H21499   2.700   5.087   8.613  1.5570 -1.4918  1.3696
  156MOL0     H21500   2.610   5.178   8.894  1.9956  1.7311 -0.2248
  156MOL0     H21501   2.573   5.014   8.833  0.8893 -0.6659 -3.4335
  156MOL0     H21502   2.855   5.139   8.883  0.0102  1.1243  0.5807
  156MOL0     H21503   2.832   4.978   8.802 -0.9615 -0.6145  0.5201
  156MOL0     H21504   2.715   4.903   9.000 -1.7487  0.7537  4.8186
  156MOL0     H21505   2.758   5.054   9.084 -1.1688  1.5435 -1.2462
  156MOL0     H21506   2.990   4.906   8.974 -0.7363  1.6489 -1.9618
  156MOL0     H21507   2.933   4.898   9.141  0.7674 -0.1262 -0.1826
  156MOL0     H21508   2.487   5.163   8.161  2.6306  0.5376 -1.1247
  156MOL0     H21509   2.595   5.066   7.977  3.2319 -1.2046  0.0496
  156MOL0     H21510   2.919   5.095   7.763 -4.3003  1.0286  0.9171
  156MOL0     H21511   2.972   5.103   7.522 -1.8200  0.3306 -2.6029
  156MOL0     H21512   4.179   4.200   6.646  0.8065 -0.9403 -4.0100
  156MOL0     H21513   4.415   4.114   6.704 -2.2317  0.1594 -2.3803
  156MOL0     H21514   4.854   4.306   6.734 -0.6796  0.6587 -0.7740
  156MOL0     H21515   5.089   4.285   6.747 -0.8697  0.1525  0.3087
  156MOL0     H21516   5.342   4.132   6.822  0.6993  1.7670 -2.4485
  156MOL0     H21517   5.194   4.051   6.842 -0.1430 -1.0239 -0.9867
  156MOL0     H21518   5.296   3.856   6.696 -0.9384  0.3928  0.6379
  156MOL0     H21519   5.352   3.893   6.860 -1.9976 -0.1468 -1.3763
  156MOL0     H21520   5.550   4.038   6.746 -0.6063  1.4604 -0.7287
  156MOL0     H21521   5.550   3.871   6.762  1.0673  2.4054  3.2338
  156MOL0     H21522   5.463   4.015   6.501  0.4302 -1.3155 -1.9449
  156MOL0     H21523   5.463   3.841   6.512 -2.6159  1.5999  1.1530
  156MOL0     H21524   5.869   3.912   6.468  0.9013 -0.7545  2.1684
  156MOL0     H21525   5.068   3.917   6.525  1.1227 -0.8699  3.1085
  156MOL0     H21526   4.767   3.981   6.395 -2.3726 -0.9668 -0.3327
  156MOL0     H21527   4.886   3.847   6.427 -0.2959 -1.9141  0.1788
  156MOL0     H21528   4.735   3.855   6.518 -0.6550  2.0891  0.3068
  157MOL0     O21529   2.655   1.779   4.633 -0.1680  0.1125 -0.7532
  157MOL0     C21530   2.604   1.872   4.575  0.5636  0.1162  0.5316
  157MOL0     O21531   2.637   2.005   4.588 -0.3661  0.2467 -0.5417
  157MOL0     C21532   2.733   2.027   4.682 -0.1024  0.4553  0.6228
  157MOL0     C21533   2.700   2.049   4.818 -0.4764  0.6527  0.1173
  157MOL0     C21534   2.797   2.079   4.912 -0.2520  0.6523 -1.0962
  157MOL0     C21535   2.937   2.085   4.872 -0.8191  0.3715 -0.3948
  157MOL0     O21536   3.047   2.114   4.959  0.3348  0.3913  0.2122
  157MOL0     C21537   3.009   2.152   5.093 -0.3236  0.1517 -0.3459
  157MOL0     C21538   3.128   2.146   5.178 -0.0047  0.3089  0.0961
  157MOL0     C21539   3.096   2.136   5.332 -0.5660 -0.1758 -0.2608
  157MOL0     C21540   3.001   2.237   5.396 -0.3782  0.3066  0.5317
  157MOL0     C21541   3.037   2.390   5.376  0.5550  0.0847  0.1943
  157MOL0     C21542   2.940   2.486   5.438 -0.1761  0.5742 -1.0698
  157MOL0     C21543   2.991   2.624   5.437  0.3663 -1.0677 -0.4082
  157MOL0     C21544   2.900   2.717   5.510 -1.0454  0.2899 -0.2805
  157MOL0     N21545   2.782   2.751   5.436 -0.1494 -0.1047 -0.2377
  157MOL0     C21546   2.650   2.712   5.462  0.2269  0.6170  0.5753
  157MOL0     C21547   2.574   2.761   5.360  0.7865 -0.7334  0.2083
  157MOL0     C21548   2.424   2.739   5.331  0.0450 -0.2130 -0.4223
  157MOL0     C21549   2.329   2.826   5.417  0.0418 -0.3081 -0.4470
  157MOL0     C21550   2.178   2.779   5.416 -0.4498 -0.0134 -0.6595
  157MOL0     C21551   2.075   2.877   5.453 -0.1887 -0.0607 -0.3016
  157MOL0     O21552   2.071   2.934   5.587 -0.4910  0.3850 -0.6654
  157MOL0     C21553   1.993   2.885   5.689 -0.0636 -0.2551 -0.4843
  157MOL0     C21554   2.050   2.808   5.791  0.1192 -0.1515 -0.4949
  157MOL0     C21555   1.974   2.770   5.909  0.5692  0.1421  0.8372
  157MOL0     C21556   2.038   2.702   6.025 -0.6375  0.6754  0.7395
  157MOL0     C21557   1.842   2.802   5.917  0.9590  0.9077  0.5985
  157MOL0     C21558   1.750   2.774   6.030 -0.0028  0.0423 -0.8515
  157MOL0     O21559   1.664   2.876   6.067 -0.0446 -0.2505  0.5660
  157MOL0     C21560   1.580   2.875   6.174  0.7104 -0.3062 -0.1886
  157MOL0     C21561   1.497   2.990   6.185 -0.0352  0.2966 -0.1383
  157MOL0     C21562   1.421   3.037   6.296  0.5970 -0.1902  0.1885
  157MOL0     C21563   1.411   2.946   6.404 -1.2584  0.6133  0.5943
  157MOL0     O21564   1.323   2.956   6.510  0.3987  1.0176  0.2451
  157MOL0     C21565   1.243   3.078   6.521  0.0715  1.0941 -0.7088
  157MOL0     C21566   1.310   3.193   6.590 -1.5941  0.8770  0.1524
  157MOL0     C21567   1.226   3.318   6.623  0.6102  0.9856  0.6747
  157MOL0     C21568   1.310   3.440   6.650  0.2100 -0.8162 -0.4258
  157MOL0     C21569   1.219   3.551   6.701 -0.0834  0.6169 -0.0855
  157MOL0     C21570   1.301   3.677   6.729 -0.7592 -0.1663 -0.0249
  157MOL0     C21571   1.220   3.787   6.801 -0.1727  0.0719  0.3688
  157MOL0     C21572   1.130   3.865   6.708 -0.3961  0.2727  0.2585
  157MOL0    Cl21573   1.044   3.987   6.807  0.1894 -0.0452 -0.0009
  157MOL0     C21574   1.475   2.819   6.392 -0.6764 -0.2621  0.1849
  157MOL0     C21575   1.556   2.784   6.276 -0.4770  0.2433  0.6024
  157MOL0     O21576   1.745   2.666   6.087 -0.1182  0.1002  0.7359
  157MOL0     C21577   1.793   2.893   5.824  1.2228  0.3339  0.6967
  157MOL0     C21578   1.859   2.929   5.705  0.1865  0.2252 -0.2533
  157MOL0     N21579   2.657   2.849   5.290 -0.2297 -0.0733 -0.0746
  157MOL0     N21580   2.775   2.847   5.341  0.4071  0.3167 -0.3079
  157MOL0     C21581   2.970   2.062   4.738 -0.3421  0.1808 -0.1481
  157MOL0     C21582   2.868   2.034   4.643  0.6098  0.6993 -0.5419
  157MOL0     C21583   2.514   1.855   4.463 -0.2486 -0.6549 -0.8188
  157MOL0     C21584   2.512   1.958   4.363 -0.7640 -0.6363  0.3556
  157MOL0     C21585   2.442   1.930   4.237  0.1617  0.0776  0.3129
  157MOL0     C21586   2.399   1.802   4.210 -0.6198  0.1910  0.3217
  157MOL0     O21587   2.342   1.755   4.095  0.3994  0.5501  0.4715
  157MOL0     C21588   2.412   1.794   3.976  0.0272  1.2591 -0.1269
  157MOL0     C21589   2.508   1.671   3.959 -0.5036 -0.4881  0.3467
  157MOL0     C21590   2.589   1.680   3.827  0.3653  0.7121 -0.2633
  157MOL0     C21591   2.606   1.540   3.769 -0.5331 -0.1451  0.1676
  157MOL0     C21592   2.685   1.536   3.639  0.8524 -0.5517 -0.5445
  157MOL0     C21593   2.737   1.512   3.532  0.1706  0.3678  0.0083
  157MOL0     C21594   2.409   1.707   4.308 -0.0471  0.5302 -0.0127
  157MOL0     C21595   2.466   1.724   4.429 -0.2589  0.3912 -0.1387
  157MOL0     C21596   2.453   1.609   4.520  0.0720  0.7424 -0.0463
  157MOL0     H21597   2.595   2.036   4.844 -0.1287  0.0437  1.2742
  157MOL0     H21598   2.766   2.108   5.012  3.2630 -1.6414  0.9184
  157MOL0     H21599   2.949   2.065   5.123  2.0866 -1.0987  1.1112
  157MOL0     H21600   2.954   2.246   5.104  0.2363  0.5220 -0.6283
  157MOL0     H21601   3.196   2.062   5.157 -0.2476  0.3187 -0.7819
  157MOL0     H21602   3.185   2.237   5.155 -1.0024  0.6849 -0.9820
  157MOL0     H21603   3.055   2.038   5.355 -1.4634 -0.8103 -3.9076
  157MOL0     H21604   3.195   2.155   5.373  0.0353 -0.3717 -1.5914
  157MOL0     H21605   2.900   2.212   5.361 -0.1378  0.6119 -0.4266
  157MOL0     H21606   3.001   2.218   5.503  2.6740  1.3779  0.8000
  157MOL0     H21607   3.033   2.403   5.268 -0.5796 -2.1229 -0.0939
  157MOL0     H21608   3.139   2.408   5.413  0.4417  1.8624 -0.2878
  157MOL0     H21609   2.846   2.479   5.382  0.4267 -2.5019 -1.9146
  157MOL0     H21610   2.924   2.458   5.543 -0.9573 -1.0563 -1.5805
  157MOL0     H21611   2.994   2.654   5.332 -1.1939  1.9588  0.2905
  157MOL0     H21612   3.093   2.647   5.468  0.2823  2.5757 -2.2658
  157MOL0     H21613   2.875   2.659   5.600  2.1878 -1.0605 -0.1027
  157MOL0     H21614   2.956   2.804   5.544 -2.7041  2.0772 -1.8949
  157MOL0     H21615   2.610   2.641   5.534 -1.7738  0.5243 -0.5530
  157MOL0     H21616   2.402   2.637   5.363  0.5228 -0.4899 -0.9639
  157MOL0     H21617   2.394   2.746   5.226 -0.3120 -2.3627 -0.5091
  157MOL0     H21618   2.360   2.831   5.522  0.3399  0.3024 -0.5590
  157MOL0     H21619   2.333   2.930   5.383 -3.7556  0.5673  1.1726
  157MOL0     H21620   2.154   2.751   5.312 -2.8361 -1.1932  0.1164
  157MOL0     H21621   2.166   2.693   5.483 -2.9567  0.1339 -0.8146
  157MOL0     H21622   2.089   2.954   5.377  0.4167 -0.2055 -0.3442
  157MOL0     H21623   1.977   2.830   5.440 -0.1488 -0.0365 -0.6981
  157MOL0     H21624   2.151   2.770   5.784  0.6887  1.3104 -0.6360
  157MOL0     H21625   1.979   2.614   6.049 -0.7563  0.7684  0.7918
  157MOL0     H21626   2.052   2.769   6.110 -1.2340  1.5348  0.1770
  157MOL0     H21627   2.137   2.665   5.995  0.6219  4.2933 -0.1157
  157MOL0     H21628   1.505   3.063   6.105  0.1324 -0.3413 -0.7132
  157MOL0     H21629   1.366   3.131   6.290 -2.2269 -1.7456 -0.3438
  157MOL0     H21630   1.198   3.102   6.425 -4.3662 -0.9108  0.6280
  157MOL0     H21631   1.159   3.043   6.582  1.0495  2.0582  1.3018
  157MOL0     H21632   1.362   3.152   6.677 -0.6005  0.6070 -0.5440
  157MOL0     H21633   1.396   3.216   6.526 -1.3139 -2.1410 -0.6995
  157MOL0     H21634   1.176   3.294   6.717  0.3528 -1.3453  0.0223
  157MOL0     H21635   1.149   3.340   6.548  0.9352 -1.1676 -0.3705
  157MOL0     H21636   1.354   3.483   6.561 -1.8907  1.1045 -0.6252
  157MOL0     H21637   1.387   3.407   6.720 -1.9301 -2.4511  1.3305
  157MOL0     H21638   1.147   3.566   6.621  0.1671 -2.6955 -1.1094
  157MOL0     H21639   1.161   3.524   6.789  1.5915  1.6663  1.4156
  157MOL0     H21640   1.336   3.721   6.635  1.3622  0.6495  1.0764
  157MOL0     H21641   1.391   3.668   6.790 -1.1128 -2.7154  0.2471
  157MOL0     H21642   1.278   3.867   6.847  2.7731 -2.7988  2.0852
  157MOL0     H21643   1.154   3.743   6.876 -1.0619  0.6060 -0.0811
  157MOL0     H21644   1.054   3.793   6.675  1.3135 -2.2931  1.5901
  157MOL0     H21645   1.196   3.906   6.631 -3.5081  3.4313 -1.0528
  157MOL0     H21646   1.473   2.745   6.471 -0.7306 -0.6440 -0.1728
  157MOL0     H21647   1.613   2.692   6.273 -0.0395  0.1270 -7.3502
  157MOL0     H21648   1.690   2.922   5.842  1.1408  0.6174 -0.1811
  157MOL0     H21649   1.819   3.010   5.644 -0.2909  1.0571  1.1189
  157MOL0     H21650   3.075   2.069   4.711  0.8024 -2.7132  2.9233
  157MOL0     H21651   2.891   2.017   4.539  4.1891  0.0524  0.1926
  157MOL0     H21652   2.555   2.057   4.373  3.5607 -2.4651  2.5470
  157MOL0     H21653   2.430   2.018   4.175  1.1406  0.7912  1.0989
  157MOL0     H21654   2.350   1.798   3.886 -0.2973  2.1836  0.1232
  157MOL0     H21655   2.469   1.887   3.988 -1.8230  2.1380  3.2104
  157MOL0     H21656   2.458   1.574   3.965 -1.0453 -0.3977 -1.7760
  157MOL0     H21657   2.580   1.664   4.041 -1.6373  1.0460  1.5562
  157MOL0     H21658   2.533   1.748   3.762  1.1925 -0.3021 -2.1125
  157MOL0     H21659   2.686   1.724   3.852 -0.0804  4.2132 -3.6816
  157MOL0     H21660   2.508   1.494   3.752 -1.0995  1.5488 -1.4393
  157MOL0     H21661   2.671   1.480   3.834  2.0547  1.2816 -0.9648
  157MOL0     H21662   2.772   1.479   3.436  0.1397  2.3821 -0.7490
  157MOL0     H21663   2.374   1.611   4.270  0.7272  0.7652 -1.4116
  157MOL0     H21664   2.397   1.526   4.475  1.0006 -2.5642  4.2715
  157MOL0     H21665   2.549   1.562   4.543 -0.4732  0.4636  1.8805
  157MOL0     H21666   2.414   1.631   4.620  1.7019 -0.5988  0.9310
  158MOL0     O21667   2.158   9.387   8.552  0.0599 -0.3294  0.1388
  158MOL0     C21668   2.257   9.321   8.525 -0.0198 -0.4086  0.7184
  158MOL0     O21669   2.352   9.358   8.432  0.2830  0.0346  0.2592
  158MOL0     C21670   2.339   9.466   8.354  1.2662 -1.0921 -0.2331
  158MOL0     C21671   2.284   9.592   8.396 -0.9302  0.5867  0.5059
  158MOL0     C21672   2.263   9.698   8.302  0.0255  0.5753  0.5266
  158MOL0     C21673   2.294   9.675   8.162  0.0786  0.8421 -0.4449
  158MOL0     O21674   2.300   9.771   8.068  1.3149  0.3371  0.4298
  158MOL0     C21675   2.268   9.901   8.107  0.9853  0.2279  0.1829
  158MOL0     C21676   2.295   9.991   7.985  0.5481  0.7687  0.7449
  158MOL0     C21677   2.190   9.993   7.878 -0.1084 -0.1182 -0.0928
  158MOL0     C21678   2.216  10.110   7.772 -0.0895 -0.7433  0.2998
  158MOL0     C21679   2.097  10.124   7.687 -0.0702 -1.3459  0.1782
  158MOL0     C21680   2.113  10.198   7.554 -0.3858  0.2830 -0.1689
  158MOL0     C21681   2.142  10.346   7.561  0.0394  0.1522 -0.4586
  158MOL0     C21682   2.222  10.395   7.434 -0.4515 -0.2379 -0.4437
  158MOL0     N21683   2.134  10.393   7.318  0.0640  0.5529  0.3212
  158MOL0     C21684   2.161  10.352   7.190 -0.3879  0.4408 -0.4881
  158MOL0     C21685   2.061  10.385   7.107  1.0464  0.5341  0.0578
  158MOL0     C21686   2.053  10.361   6.960  0.3313  0.2861  0.3032
  158MOL0     C21687   1.904  10.322   6.925 -0.5405 -0.1898 -0.9474
  158MOL0     C21688   1.883  10.322   6.778 -0.2982  0.9332 -0.1670
  158MOL0     C21689   1.742  10.346   6.728 -0.7021  0.7973  0.7383
  158MOL0     O21690   1.665  10.220   6.752 -0.0134 -0.4155  0.0969
  158MOL0     C21691   1.551  10.248   6.814 -1.1926 -0.6987 -0.0742
  158MOL0     C21692   1.451  10.320   6.757 -0.0675 -0.3921  0.0956
  158MOL0     C21693   1.326  10.351   6.816 -0.2711 -0.1967 -0.0691
  158MOL0     C21694   1.219  10.415   6.734 -0.7449 -0.4109 -0.3205
  158MOL0     C21695   1.303  10.299   6.941  0.7069  0.5568 -0.5760
  158MOL0     C21696   1.162  10.284   7.009 -0.8178  0.6408  0.0283
  158MOL0     O21697   1.148  10.191   7.104  0.9689 -0.5277  0.5470
  158MOL0     C21698   1.024  10.150   7.140  0.3957  0.4055  0.6132
  158MOL0     C21699   0.924  10.233   7.207 -0.0556  0.6547  1.0075
  158MOL0     C21700   0.788  10.177   7.228  0.5610  0.3353 -0.0107
  158MOL0     C21701   0.752  10.044   7.207 -0.7470 -0.7093 -0.7724
  158MOL0     O21702   0.628   9.992   7.238  0.0958  0.2814 -0.3779
  158MOL0     C21703   0.603   9.848   7.219  0.0721 -0.1732 -0.0143
  158MOL0     C21704   0.655   9.762   7.327  0.2846  0.2762 -0.5801
  158MOL0     C21705   0.572   9.769   7.460 -0.3302 -0.1310  0.5100
  158MOL0     C21706   0.623   9.659   7.552  0.3910 -0.0625  0.0958
  158MOL0     C21707   0.582   9.680   7.695 -1.0204  0.1810 -0.0295
  158MOL0     C21708   0.441   9.665   7.727 -0.6099 -0.5559  0.2223
  158MOL0     C21709   0.387   9.544   7.666 -0.6922 -0.4135  0.3110
  158MOL0     C21710   0.247   9.520   7.717 -0.3786  0.2877  1.8171
  158MOL0    Cl21711   0.235   9.482   7.887 -0.8397  0.0111  0.1654
  158MOL0     C21712   0.859   9.965   7.161  1.1979 -0.8442 -1.0640
  158MOL0     C21713   0.987  10.019   7.119  0.4459 -0.0464 -0.9396
  158MOL0     O21714   1.071  10.351   6.963 -0.5224  0.1276 -0.1076
  158MOL0     C21715   1.408  10.224   7.006 -0.1216 -0.9954  0.5148
  158MOL0     C21716   1.533  10.195   6.947 -0.1730  0.9906  0.1288
  158MOL0     N21717   1.960  10.433   7.198 -0.1095 -0.3875  0.7682
  158MOL0     N21718   2.005  10.444   7.316  0.3960 -0.2027  0.8691
  158MOL0     C21719   2.347   9.550   8.124  0.0734  0.8301  0.1684
  158MOL0     C21720   2.366   9.448   8.221 -1.2133 -0.0240  0.3671
  158MOL0     C21721   2.267   9.198   8.606 -0.3152  0.2883 -0.0106
  158MOL0     C21722   2.398   9.162   8.640 -0.2380  0.3258 -0.0411
  158MOL0     C21723   2.419   9.071   8.739  0.8662  0.4900 -0.1902
  158MOL0     C21724   2.318   9.002   8.808  0.1163  0.2492 -0.2282
  158MOL0     O21725   2.337   8.926   8.920 -0.5579 -0.0387 -0.5669
  158MOL0     C21726   2.471   8.910   8.982 -0.3947 -0.0668 -0.0705
  158MOL0     C21727   2.522   8.778   8.946 -0.0474 -1.2994 -0.2247
  158MOL0     C21728   2.666   8.741   8.991  0.0209 -0.5051 -0.3835
  158MOL0     C21729   2.706   8.595   8.956  0.0820 -0.0172  0.7813
  158MOL0     C21730   2.637   8.485   9.034  0.0788  0.0900  0.4274
  158MOL0     C21731   2.573   8.403   9.107 -0.5665 -0.4625  0.3663
  158MOL0     C21732   2.192   9.036   8.769 -0.0747  0.3063 -1.1856
  158MOL0     C21733   2.159   9.131   8.668 -0.5510 -0.1657 -0.0564
  158MOL0     C21734   2.020   9.159   8.638  0.4633 -0.4390 -0.4700
  158MOL0     H21735   2.249   9.602   8.498 -0.9689  2.9450  0.3056
  158MOL0     H21736   2.230   9.792   8.345  1.2197 -0.0568  3.0616
  158MOL0     H21737   2.342   9.936   8.179 -0.4459  1.6586  1.0207
  158MOL0     H21738   2.165   9.902   8.145  0.7848  1.5273 -0.3540
  158MOL0     H21739   2.308  10.090   8.030  2.5390  0.4123  1.0340
  158MOL0     H21740   2.395   9.967   7.950  1.0469  1.9609  1.3117
  158MOL0     H21741   2.185   9.897   7.825  1.7887 -0.1597 -0.2622
  158MOL0     H21742   2.088   9.998   7.916  0.5883 -2.0797  2.2809
  158MOL0     H21743   2.237  10.200   7.831  1.8043 -1.5052  0.8589
  158MOL0     H21744   2.297  10.084   7.703 -0.2115 -3.2762  0.9814
  158MOL0     H21745   2.026  10.187   7.741  1.4631  1.8126 -1.2105
  158MOL0     H21746   2.066  10.021   7.666  0.1616 -0.9283 -2.5794
  158MOL0     H21747   2.189  10.140   7.501 -2.2290 -0.5801 -2.0457
  158MOL0     H21748   2.019  10.183   7.500  0.6636 -3.5338 -1.2574
  158MOL0     H21749   2.188  10.371   7.657 -2.2511 -1.5521  1.1965
  158MOL0     H21750   2.046  10.398   7.562 -0.6937 -1.1578  0.0352
  158MOL0     H21751   2.255  10.499   7.444 -1.4245  0.2039 -1.6197
  158MOL0     H21752   2.314  10.339   7.411  0.1629  1.2523 -1.8574
  158MOL0     H21753   2.254  10.299   7.169  0.7754  1.1902  2.2926
  158MOL0     H21754   2.117  10.277   6.931 -1.6320 -0.9443 -0.7663
  158MOL0     H21755   2.076  10.451   6.902 -0.3471 -0.9150 -1.9598
  158MOL0     H21756   1.888  10.225   6.972 -0.3688 -0.0222 -0.5410
  158MOL0     H21757   1.839  10.403   6.960 -0.8930  0.6775 -3.3845
  158MOL0     H21758   1.943  10.399   6.729 -3.1010  2.3487 -1.5978
  158MOL0     H21759   1.916  10.221   6.753 -2.8132  0.4360 -1.8343
  158MOL0     H21760   1.709  10.434   6.785 -0.9500  0.3474  1.2959
  158MOL0     H21761   1.743  10.380   6.624  1.0139  0.3545  0.5837
  158MOL0     H21762   1.476  10.363   6.660  1.0152  1.6796  1.2315
  158MOL0     H21763   1.259  10.454   6.640  1.6745 -2.8733 -0.4345
  158MOL0     H21764   1.168  10.499   6.782  0.5117 -0.4240  1.1064
  158MOL0     H21765   1.145  10.339   6.711  0.7972 -2.4364  1.0477
  158MOL0     H21766   0.915  10.339   7.227 -3.0432  0.6814 -0.0098
  158MOL0     H21767   0.719  10.254   7.260  2.0668  0.4371  3.4358
  158MOL0     H21768   0.494   9.845   7.221  0.0976 -1.6554  0.1893
  158MOL0     H21769   0.642   9.823   7.120 -0.3683  2.2190 -0.8569
  158MOL0     H21770   0.649   9.663   7.281 -3.2565  0.6895 -1.3127
  158MOL0     H21771   0.756   9.790   7.358 -0.1439  1.0520  0.1745
  158MOL0     H21772   0.464   9.754   7.450 -0.1525 -0.3023 -1.6817
  158MOL0     H21773   0.594   9.866   7.504 -4.2568  1.7150 -1.0807
  158MOL0     H21774   0.732   9.650   7.556  0.2725 -2.9751 -0.9849
  158MOL0     H21775   0.598   9.564   7.504 -0.9422 -0.0103  0.6267
  158MOL0     H21776   0.639   9.600   7.743  0.1266  0.1482 -1.3858
  158MOL0     H21777   0.631   9.765   7.743 -0.0818 -2.0002  3.2186
  158MOL0     H21778   0.386   9.746   7.679 -0.5504 -0.7153 -0.1200
  158MOL0     H21779   0.432   9.665   7.836 -0.5133  1.2545  0.2581
  158MOL0     H21780   0.443   9.459   7.706  1.0435  0.3789 -0.3174
  158MOL0     H21781   0.397   9.554   7.557  3.5641 -1.2448  0.4343
  158MOL0     H21782   0.221   9.429   7.662  1.7147  0.4608  0.4290
  158MOL0     H21783   0.175   9.598   7.693 -1.5132 -0.5221  2.5180
  158MOL0     H21784   0.844   9.859   7.142 -0.4974 -0.3404 -3.0146
  158MOL0     H21785   1.071   9.957   7.090  1.9628  2.2548 -1.7423
  158MOL0     H21786   1.398  10.173   7.102  0.7165 -0.9817  0.6205
  158MOL0     H21787   1.612  10.131   6.984 -0.0163  0.2394 -1.4119
  158MOL0     H21788   2.357   9.527   8.018 -0.6555 -0.0266  0.2706
  158MOL0     H21789   2.404   9.352   8.187  2.4670  0.2940  2.9567
  158MOL0     H21790   2.495   9.205   8.618  0.9026  0.7722  4.6481
  158MOL0     H21791   2.521   9.037   8.755  0.1336 -0.9089  1.7586
  158MOL0     H21792   2.539   8.993   8.961 -0.2116 -0.2342 -0.1446
  158MOL0     H21793   2.462   8.919   9.090 -2.4545  0.2735 -0.2255
  158MOL0     H21794   2.516   8.770   8.837 -3.5864  2.4971 -0.5627
  158MOL0     H21795   2.457   8.701   8.988 -0.0779 -0.4336  1.3682
  158MOL0     H21796   2.742   8.811   8.959 -0.1421  1.3687  2.8738
  158MOL0     H21797   2.683   8.744   9.099  3.3168 -0.2047 -0.8150
  158MOL0     H21798   2.815   8.583   8.959  0.7697  3.8288 -1.5479
  158MOL0     H21799   2.682   8.588   8.850 -2.5045  0.1313  1.3076
  158MOL0     H21800   2.529   8.341   9.183 -2.4253  0.0134 -0.2724
  158MOL0     H21801   2.115   8.999   8.836 -0.7706  3.7583  0.1321
  158MOL0     H21802   2.008   9.200   8.538 -0.9513  1.0326  0.2626
  158MOL0     H21803   1.961   9.068   8.654 -2.8028  1.4039 -1.3977
  158MOL0     H21804   1.978   9.233   8.707 -2.2702 -2.8938  0.7223
  159MOL0     O21805  11.472  11.392   7.311  0.0691  0.4392 -0.1965
  159MOL0     C21806  11.381  11.326   7.268  0.2870 -2.0920 -0.9039
  159MOL0     O21807  11.312  11.359   7.155 -0.6893  0.2830  0.5886
  159MOL0     C21808  11.356  11.464   7.070 -0.8330  1.0348  0.4450
  159MOL0     C21809  11.290  11.577   7.064 -0.6927 -0.2002 -0.0051
  159MOL0     C21810  11.330  11.689   6.995 -0.3471 -0.2828  0.1525
  159MOL0     C21811  11.453  11.679   6.924  0.0335  0.9826  0.2425
  159MOL0     O21812  11.513  11.780   6.855  0.3431 -0.3678  0.2997
  159MOL0     C21813  11.482  11.779   6.708  0.1533 -0.0960  0.2619
  159MOL0     C21814  11.602  11.841   6.640 -0.0201 -1.2130 -0.4114
  159MOL0     C21815  11.731  11.764   6.653 -0.9141  0.8970  0.1648
  159MOL0     C21816  11.815  11.815   6.767  1.0766 -0.8720  0.1210
  159MOL0     C21817  11.934  11.741   6.811  0.4395  0.0778  0.3847
  159MOL0     C21818  12.030  11.703   6.692 -0.5141  0.2972 -0.6946
  159MOL0     C21819  12.144  11.625   6.755 -0.4023  1.2421  0.3505
  159MOL0     C21820  12.216  11.546   6.637  1.0443  0.0454 -0.0291
  159MOL0     N21821  12.326  11.459   6.680  0.5292 -0.2528 -0.2707
  159MOL0     C21822  12.345  11.334   6.626 -0.0279 -0.2657  0.0636
  159MOL0     C21823  12.461  11.298   6.677  0.2052 -0.3063  0.0557
  159MOL0     C21824  12.511  11.154   6.655 -0.7205 -1.0358 -0.5655
  159MOL0     C21825  12.636  11.128   6.742  0.1704 -0.5081  0.0596
  159MOL0     C21826  12.671  10.980   6.732 -0.8379 -0.0829  0.3210
  159MOL0     C21827  12.768  10.935   6.841 -0.4919  1.5517 -0.0008
  159MOL0     O21828  12.736  10.968   6.976 -0.2475 -0.3204 -0.3407
  159MOL0     C21829  12.619  10.914   7.015 -0.7461 -1.2345 -0.1917
  159MOL0     C21830  12.537  10.993   7.088  0.0152 -0.0189 -0.3288
  159MOL0     C21831  12.404  10.963   7.116  0.0683  0.8416  0.9690
  159MOL0     C21832  12.335  11.059   7.212 -0.5494 -0.0880  0.2567
  159MOL0     C21833  12.362  10.835   7.078 -0.6229 -0.6043 -1.0161
  159MOL0     C21834  12.225  10.789   7.094  0.2395 -0.1852  0.6683
  159MOL0     O21835  12.189  10.656   7.064  0.6020  0.1600  0.6766
  159MOL0     C21836  12.054  10.619   7.061 -0.1267  0.2048  0.8909
  159MOL0     C21837  11.951  10.692   7.001  0.5971  0.4214  0.5915
  159MOL0     C21838  11.827  10.633   6.968 -0.2153 -0.5371  0.0628
  159MOL0     C21839  11.802  10.497   7.001  0.6921 -0.0151 -0.5884
  159MOL0     O21840  11.681  10.444   6.970  0.1368  0.2247  1.0348
  159MOL0     C21841  11.687  10.306   6.924 -0.2264 -0.5418  0.5141
  159MOL0     C21842  11.558  10.243   6.977 -0.8411  0.7310 -0.5489
  159MOL0     C21843  11.534  10.100   6.921  0.8637  0.1277  0.2925
  159MOL0     C21844  11.594   9.994   7.020  0.2120  0.4858 -0.1924
  159MOL0     C21845  11.553   9.852   6.984 -0.2604  0.3261  0.3344
  159MOL0     C21846  11.606   9.742   7.078 -0.2355 -0.0608  0.6786
  159MOL0     C21847  11.582   9.607   7.018 -0.1565  0.3589  0.5752
  159MOL0     C21848  11.536   9.503   7.127  1.0535 -0.1862 -0.0023
  159MOL0    Cl21849  11.664   9.496   7.245 -0.3723 -0.2772 -0.3333
  159MOL0     C21850  11.901  10.426   7.072  0.5293  0.4708 -0.2155
  159MOL0     C21851  12.034  10.485   7.102  0.1611 -0.4067 -0.0774
  159MOL0     O21852  12.147  10.862   7.150  0.0517  0.0893  0.0621
  159MOL0     C21853  12.454  10.745   7.027  0.1923  0.1395  0.4881
  159MOL0     C21854  12.579  10.783   6.993 -0.2106 -1.0784 -0.6966
  159MOL0     N21855  12.511  11.390   6.771  0.4299 -0.0561 -0.1890
  159MOL0     N21856  12.430  11.488   6.765  0.6827  0.4180  0.6856
  159MOL0     C21857  11.520  11.559   6.930 -0.4450 -0.3861 -0.8995
  159MOL0     C21858  11.472  11.448   7.000  0.5301 -0.2540 -0.9527
  159MOL0     C21859  11.339  11.212   7.351 -0.0403 -0.6905 -0.1585
  159MOL0     C21860  11.424  11.119   7.411  0.1046  0.4068 -0.2199
  159MOL0     C21861  11.382  11.040   7.511 -0.4834  1.1256 -0.3403
  159MOL0     C21862  11.250  11.017   7.542 -0.5455 -0.2243  0.3203
  159MOL0     O21863  11.231  10.934   7.651  0.2450 -0.4415  0.1624
  159MOL0     C21864  11.096  10.916   7.699 -0.6845  0.3413 -0.3676
  159MOL0     C21865  11.101  10.809   7.805 -0.5527 -0.4823  0.6217
  159MOL0     C21866  10.954  10.772   7.847 -1.1962  0.0618  0.1489
  159MOL0     C21867  10.933  10.630   7.895 -0.3634 -0.2150 -1.1554
  159MOL0     C21868  10.814  10.566   7.837  0.2611 -0.2977 -0.5558
  159MOL0     C21869  10.712  10.526   7.794 -0.2035  0.7087 -0.6866
  159MOL0     C21870  11.156  11.091   7.474  0.0443  0.1607  0.9739
  159MOL0     C21871  11.194  11.195   7.382 -0.2137 -0.1805  0.5025
  159MOL0     C21872  11.083  11.290   7.325 -0.7689  0.3362 -0.4012
  159MOL0     H21873  11.193  11.591   7.110  0.0387 -0.8559  1.8227
  159MOL0     H21874  11.261  11.771   6.982 -1.8900 -1.5879 -0.1984
  159MOL0     H21875  11.393  11.835   6.677  2.4248  2.1677 -2.9780
  159MOL0     H21876  11.457  11.680   6.669 -1.6340 -0.1083  1.3524
  159MOL0     H21877  11.586  11.844   6.532 -1.3187 -2.4301 -0.2777
  159MOL0     H21878  11.610  11.944   6.675 -0.9337  0.3564 -4.3830
  159MOL0     H21879  11.712  11.662   6.687  3.3957  0.1364  0.8466
  159MOL0     H21880  11.797  11.765   6.566  0.3353 -1.1421  1.0200
  159MOL0     H21881  11.850  11.917   6.750 -0.2379 -0.2061  1.1984
  159MOL0     H21882  11.739  11.816   6.847  0.7823 -2.6983 -0.0907
  159MOL0     H21883  11.902  11.643   6.847 -1.7085  0.0255 -1.4682
  159MOL0     H21884  11.979  11.807   6.887  0.5814  1.2272 -0.6619
  159MOL0     H21885  11.970  11.654   6.615 -1.6668  1.1194 -0.3438
  159MOL0     H21886  12.062  11.798   6.649  2.9772 -0.7459 -0.6640
  159MOL0     H21887  12.085  11.552   6.812  0.3258  1.0792  0.9167
  159MOL0     H21888  12.207  11.680   6.827  0.9333 -0.7781  0.8241
  159MOL0     H21889  12.144  11.494   6.572 -2.4001 -0.0060  3.4690
  159MOL0     H21890  12.267  11.619   6.574  0.2386  0.6528  0.0152
  159MOL0     H21891  12.281  11.277   6.559  3.1062 -1.9691 -1.7380
  159MOL0     H21892  12.531  11.147   6.548 -2.6390  2.8347 -1.3651
  159MOL0     H21893  12.435  11.088   6.699  1.2170 -1.1814  2.9594
  159MOL0     H21894  12.717  11.196   6.715 -0.1333 -0.0674  0.2446
  159MOL0     H21895  12.609  11.145   6.847 -2.2111  0.4735 -0.6478
  159MOL0     H21896  12.584  10.915   6.744 -0.8426 -0.0341  0.5506
  159MOL0     H21897  12.705  10.962   6.629 -1.2790 -0.2058  0.1931
  159MOL0     H21898  12.789  10.828   6.831 -0.5091  1.2417  2.6143
  159MOL0     H21899  12.866  10.975   6.813  0.2118  0.8123  1.3078
  159MOL0     H21900  12.574  11.095   7.088  2.9594 -0.7397 -5.2131
  159MOL0     H21901  12.248  11.107   7.168 -1.3328  1.1490  2.9009
  159MOL0     H21902  12.403  11.140   7.242 -1.4834  0.8092 -0.0122
  159MOL0     H21903  12.303  11.012   7.306 -1.0763  2.1097  1.2352
  159MOL0     H21904  11.977  10.788   6.959  1.5045 -1.5847 -4.0637
  159MOL0     H21905  11.749  10.695   6.925  1.1741  0.7649 -0.6664
  159MOL0     H21906  11.682  10.297   6.815  3.9877  0.1148  0.0650
  159MOL0     H21907  11.773  10.256   6.969  1.1057  1.2638  0.1156
  159MOL0     H21908  11.559  10.242   7.086 -0.4456  2.9228 -0.4910
  159MOL0     H21909  11.473  10.305   6.945 -1.1161  1.1554  0.9425
  159MOL0     H21910  11.554  10.086   6.815  1.0272  0.5499  0.2671
  159MOL0     H21911  11.426  10.084   6.925  0.6625  0.7814  6.0999
  159MOL0     H21912  11.575  10.027   7.122 -0.4020 -1.0223  0.2014
  159MOL0     H21913  11.703   9.982   7.016  0.7540  4.4403 -2.2091
  159MOL0     H21914  11.444   9.854   6.988 -0.3344 -1.6634  0.4526
  159MOL0     H21915  11.584   9.835   6.880  1.1980  2.6936  0.3070
  159MOL0     H21916  11.562   9.747   7.178  2.4871 -0.8854  2.0013
  159MOL0     H21917  11.713   9.751   7.097 -0.3012  1.2075  0.5292
  159MOL0     H21918  11.658   9.561   6.956 -0.0053  2.5934 -1.0171
  159MOL0     H21919  11.499   9.622   6.949  1.0130  2.8365 -0.4132
  159MOL0     H21920  11.511   9.407   7.081 -0.7906 -1.3108  3.0530
  159MOL0     H21921  11.449   9.552   7.172 -0.7780 -2.0356 -1.3326
  159MOL0     H21922  11.887  10.326   7.114 -0.5659  0.1254 -1.3337
  159MOL0     H21923  12.112  10.435   7.159  2.3643  1.0171 -1.6627
  159MOL0     H21924  12.422  10.642   7.010 -4.0292  1.5182 -1.3133
  159MOL0     H21925  12.643  10.703   6.957 -0.7800 -2.2545  0.7922
  159MOL0     H21926  11.616  11.551   6.880  0.2283  0.0399  0.2940
  159MOL0     H21927  11.508  11.347   7.017 -1.9662 -1.3419 -1.5564
  159MOL0     H21928  11.531  11.132   7.399  0.4296 -1.4024  0.3743
  159MOL0     H21929  11.448  10.984   7.578 -1.4831  1.8303  1.3096
  159MOL0     H21930  11.061  11.015   7.729 -1.5974 -0.5334  1.6901
  159MOL0     H21931  11.034  10.891   7.613  1.8595 -1.6093 -1.7789
  159MOL0     H21932  11.162  10.842   7.891  0.2365 -1.3798  0.4262
  159MOL0     H21933  11.148  10.718   7.766  0.0499  0.1859 -0.2445
  159MOL0     H21934  10.912  10.847   7.915 -5.2559 -0.6768 -1.2458
  159MOL0     H21935  10.890  10.784   7.758  0.3144 -1.4671 -1.2136
  159MOL0     H21936  10.932  10.613   8.003  0.2517 -1.9037 -1.3971
  159MOL0     H21937  11.022  10.573   7.867  1.0555  0.8849  0.7999
  159MOL0     H21938  10.619  10.483   7.763 -1.0556  1.7433  0.3424
  159MOL0     H21939  11.051  11.075   7.494 -0.7220  4.4035  1.4263
  159MOL0     H21940  11.127  11.387   7.299  0.2495 -0.3021 -1.1416
  159MOL0     H21941  11.040  11.241   7.237 -1.3424 -0.3889  0.2676
  159MOL0     H21942  11.008  11.310   7.402 -0.3492 -2.8124  0.9925
  160MOL0     O21943   3.754  10.315   3.820  0.5655 -0.1720 -0.4196
  160MOL0     C21944   3.640  10.353   3.798  0.3364  1.1821  1.0850
  160MOL0     O21945   3.563  10.428   3.882 -0.0026 -0.4323 -0.5989
  160MOL0     C21946   3.616  10.443   4.007  1.0321 -0.0568 -0.9268
  160MOL0     C21947   3.660  10.338   4.085 -0.4439  0.1777 -0.5044
  160MOL0     C21948   3.692  10.354   4.219  1.4163  0.1243 -0.5253
  160MOL0     C21949   3.665  10.474   4.289  0.8161  0.3733 -0.1738
  160MOL0     O21950   3.682  10.482   4.426  0.6876  0.3156  0.6661
  160MOL0     C21951   3.611  10.581   4.504 -0.2654  0.2927  0.1390
  160MOL0     C21952   3.665  10.586   4.650  0.1189 -0.4768  0.6630
  160MOL0     C21953   3.806  10.645   4.660  0.1653 -0.8495  0.5948
  160MOL0     C21954   3.883  10.600   4.789 -0.0265  0.3279  0.2617
  160MOL0     C21955   3.955  10.722   4.854 -0.5361  0.0671 -0.3371
  160MOL0     C21956   4.077  10.663   4.927  0.4157 -0.7508 -0.0962
  160MOL0     C21957   4.050  10.620   5.073 -0.1944  0.7496 -1.3600
  160MOL0     C21958   3.979  10.715   5.174  0.2188  0.6206 -0.3613
  160MOL0     N21959   4.036  10.843   5.175 -0.3220 -0.1461 -0.0890
  160MOL0     C21960   4.170  10.852   5.213 -0.2850 -0.2219 -0.0101
  160MOL0     C21961   4.203  10.981   5.225 -1.2039  0.0272 -0.6605
  160MOL0     C21962   4.327  11.042   5.279 -0.1832  0.9557 -0.2702
  160MOL0     C21963   4.341  11.009   5.429  1.2654 -0.1122 -0.0410
  160MOL0     C21964   4.466  11.056   5.506  0.2024  0.8912  0.6014
  160MOL0     C21965   4.469  10.999   5.644  0.2722  0.2157  0.1589
  160MOL0     O21966   4.370  11.045   5.740  0.8999  0.5686  0.1583
  160MOL0     C21967   4.408  11.049   5.873  0.7849 -0.0005 -0.1153
  160MOL0     C21968   4.394  11.165   5.951  0.3748 -0.2287  0.8669
  160MOL0     C21969   4.436  11.164   6.087  0.7202  0.5038 -0.6047
  160MOL0     C21970   4.406  11.300   6.155 -0.2293  0.3247  0.8617
  160MOL0     C21971   4.507  11.055   6.135  0.4381  0.7401 -0.0705
  160MOL0     C21972   4.578  11.055   6.272  0.0605 -0.4512  0.0067
  160MOL0     O21973   4.664  10.955   6.303 -0.3361  0.5008  0.0036
  160MOL0     C21974   4.736  10.977   6.423  0.4862  0.3331  0.6365
  160MOL0     C21975   4.872  11.026   6.411  0.3474 -0.1445 -0.4387
  160MOL0     C21976   4.936  11.055   6.535 -0.2289  0.4650  0.0156
  160MOL0     C21977   4.877  11.036   6.660 -0.2901 -0.5584 -0.1961
  160MOL0     O21978   4.933  11.062   6.788 -0.0162 -0.1612 -0.3872
  160MOL0     C21979   5.068  11.058   6.797 -1.0004  0.0133  0.1764
  160MOL0     C21980   5.105  11.066   6.954 -0.8207 -0.6946  0.4168
  160MOL0     C21981   5.256  11.091   6.974 -0.4047  0.3957  0.0423
  160MOL0     C21982   5.338  10.974   6.917  0.2171 -0.0996  0.9289
  160MOL0     C21983   5.490  10.998   6.921  0.4624  0.1490  0.8692
  160MOL0     C21984   5.537  11.090   6.822  0.2048 -0.6189 -0.0112
  160MOL0     C21985   5.681  11.064   6.787 -0.5200  0.7505  0.3442
  160MOL0     C21986   5.780  11.115   6.889 -0.2231  0.1182  0.2872
  160MOL0    Cl21987   5.796  10.993   7.017 -0.1915  0.0351 -0.2711
  160MOL0     C21988   4.744  10.997   6.659 -0.0274  0.1675  0.9231
  160MOL0     C21989   4.672  10.962   6.549  0.0435  1.3697  0.2267
  160MOL0     O21990   4.551  11.149   6.342  0.4235  0.0603  0.4196
  160MOL0     C21991   4.525  10.939   6.053  0.6250 -0.9086  0.6011
  160MOL0     C21992   4.471  10.938   5.926  0.2299 -0.2724  0.5417
  160MOL0     N21993   4.095  11.055   5.174 -0.1245  0.0687  0.3003
  160MOL0     N21994   3.996  10.970   5.148  1.1054 -0.2737  0.7369
  160MOL0     C21995   3.612  10.573   4.212  0.2522  0.6178  0.0448
  160MOL0     C21996   3.592  10.562   4.069  0.7520  0.5213 -0.6127
  160MOL0     C21997   3.580  10.339   3.663  0.4510 -0.1250 -0.9835
  160MOL0     C21998   3.662  10.345   3.551 -0.0819 -0.3471 -0.0191
  160MOL0     C21999   3.600  10.360   3.424 -0.3799 -0.1830  0.0424
  160MOL0     C22000   3.460  10.356   3.412 -1.5064  0.4700  0.9799
  160MOL0     O22001   3.385  10.354   3.300  0.7393  0.0972  0.0602
  160MOL0     C22002   3.448  10.347   3.178  0.3291 -1.1878  1.5191
  160MOL0     C22003   3.371  10.352   3.046 -0.0277 -0.1014  0.8609
  160MOL0     C22004   3.307  10.216   3.012 -0.3895 -0.3871 -0.5784
  160MOL0     C22005   3.217  10.170   3.129  0.0205 -0.0626  1.4013
  160MOL0     C22006   3.132  10.058   3.086  0.2216  0.3883  0.1107
  160MOL0     C22007   3.040   9.985   3.061 -0.2684  0.2901 -0.1988
  160MOL0     C22008   3.374  10.334   3.523 -0.5792 -0.0005  0.4442
  160MOL0     C22009   3.436  10.328   3.651 -0.4515 -0.5787  0.3957
  160MOL0     C22010   3.346  10.276   3.765 -0.2817  0.4937 -0.0006
  160MOL0     H22011   3.684  10.237   4.052  1.5083 -0.8454  3.4201
  160MOL0     H22012   3.720  10.267   4.277 -1.5168 -0.4350  0.2119
  160MOL0     H22013   3.501  10.573   4.504 -0.1591 -1.7448 -0.6204
  160MOL0     H22014   3.636  10.675   4.454  0.3994 -0.3701 -0.7916
  160MOL0     H22015   3.598  10.649   4.709 -0.6294 -0.8601  0.2477
  160MOL0     H22016   3.657  10.483   4.685 -3.4668 -1.2998 -1.9817
  160MOL0     H22017   3.870  10.627   4.573  0.5250 -2.7863  1.2133
  160MOL0     H22018   3.797  10.753   4.666 -0.9679 -0.7405 -1.8519
  160MOL0     H22019   3.819  10.557   4.867  0.9021  0.0636  0.8946
  160MOL0     H22020   3.946  10.515   4.763 -0.2883  0.8552 -2.4168
  160MOL0     H22021   3.894  10.771   4.931 -1.3745 -2.9129  1.0427
  160MOL0     H22022   3.983  10.798   4.781 -1.1851  0.0073 -0.6616
  160MOL0     H22023   4.125  10.586   4.866 -0.8543 -0.0207 -2.1406
  160MOL0     H22024   4.158  10.735   4.941 -1.2282  0.9433  1.1399
  160MOL0     H22025   4.150  10.601   5.112  0.9366 -0.7349 -4.6263
  160MOL0     H22026   4.003  10.523   5.061  0.0142  0.6090 -1.0564
  160MOL0     H22027   3.872  10.719   5.151 -0.4304 -0.0067  2.2298
  160MOL0     H22028   3.989  10.676   5.275  0.6073  2.5303  0.3828
  160MOL0     H22029   4.243  10.774   5.233  3.1265  2.5485 -0.6247
  160MOL0     H22030   4.337  11.146   5.248  1.7538  0.3022 -2.0438
  160MOL0     H22031   4.414  10.998   5.230 -0.7552 -0.0309 -0.4343
  160MOL0     H22032   4.246  11.050   5.465 -0.1579  2.2116 -5.4313
  160MOL0     H22033   4.334  10.899   5.435 -3.9188  0.0331  3.2698
  160MOL0     H22034   4.553  11.023   5.448  1.1833  3.6423  0.3519
  160MOL0     H22035   4.468  11.165   5.514 -0.1916  1.0367 -0.9640
  160MOL0     H22036   4.463  10.890   5.641  1.4051  0.0673  2.0034
  160MOL0     H22037   4.573  10.999   5.678  0.1061 -4.6194  1.3858
  160MOL0     H22038   4.334  11.241   5.902  3.9895  0.3492 -3.2762
  160MOL0     H22039   4.471  11.337   6.235 -1.0195  2.4932  0.5757
  160MOL0     H22040   4.301  11.301   6.183 -0.2767 -0.8938  0.7682
  160MOL0     H22041   4.430  11.367   6.071 -3.0717  0.2489 -0.1155
  160MOL0     H22042   4.907  11.043   6.310 -2.7029  0.4453 -1.4998
  160MOL0     H22043   5.025  11.116   6.541  0.1540  0.4808 -3.6124
  160MOL0     H22044   5.102  10.962   6.758  1.3060  1.9267 -2.8911
  160MOL0     H22045   5.123  11.139   6.749  0.1474  0.7670  2.6113
  160MOL0     H22046   5.042  11.142   7.001  0.6340  1.1032 -0.4182
  160MOL0     H22047   5.087  10.965   6.992 -2.1653 -0.4489  0.4718
  160MOL0     H22048   5.275  11.106   7.081 -0.5318  0.4108  0.0620
  160MOL0     H22049   5.279  11.189   6.931  0.3330 -0.6097 -1.9723
  160MOL0     H22050   5.304  10.955   6.815 -1.9366  1.4691  1.2715
  160MOL0     H22051   5.321  10.887   6.981  1.2089  0.4533  1.9728
  160MOL0     H22052   5.519  11.037   7.019 -0.7060  3.2605  0.1129
  160MOL0     H22053   5.534  10.900   6.901  2.3331  1.4586 -2.2068
  160MOL0     H22054   5.527  11.191   6.864 -1.0180 -1.3317  1.5031
  160MOL0     H22055   5.479  11.064   6.732 -0.1329 -0.1200  0.0582
  160MOL0     H22056   5.715  11.107   6.692  1.0021  0.1974  0.6075
  160MOL0     H22057   5.695  10.960   6.757 -3.0764  0.5347 -0.3471
  160MOL0     H22058   5.752  11.213   6.928 -1.0839 -1.0194  2.6961
  160MOL0     H22059   5.880  11.109   6.845 -1.2821 -2.1045 -2.0834
  160MOL0     H22060   4.698  10.978   6.755 -2.0911  0.6371  0.0861
  160MOL0     H22061   4.572  10.920   6.554 -0.0135  1.6116  1.3301
  160MOL0     H22062   4.572  10.846   6.085  3.3473 -0.6015 -2.0018
  160MOL0     H22063   4.483  10.862   5.850 -3.4078 -0.0066 -0.4552
  160MOL0     H22064   3.580  10.668   4.254 -0.2729  0.2545  0.4931
  160MOL0     H22065   3.542  10.640   4.013  1.6372  0.0074 -2.1785
  160MOL0     H22066   3.770  10.338   3.553  0.0565  1.4715  0.8245
  160MOL0     H22067   3.670  10.378   3.343 -0.6048  1.6574  0.2229
  160MOL0     H22068   3.519  10.429   3.165  0.8034 -1.6405  1.2358
  160MOL0     H22069   3.512  10.259   3.173  1.1471 -0.5965  1.3511
  160MOL0     H22070   3.441  10.388   2.969  1.1040 -0.1216  1.8509
  160MOL0     H22071   3.295  10.429   3.062  0.6876  1.0338 -0.8101
  160MOL0     H22072   3.247  10.227   2.921  1.2149  1.1429 -1.4853
  160MOL0     H22073   3.378  10.133   3.004  0.4390  0.1276  1.1144
  160MOL0     H22074   3.144  10.246   3.157  1.9952  2.1799  0.7541
  160MOL0     H22075   3.276  10.120   3.205  1.8715  0.3653  0.3106
  160MOL0     H22076   2.956   9.927   3.028 -0.1544 -0.2043  0.3643
  160MOL0     H22077   3.268  10.314   3.511 -0.1098 -1.8937 -1.1034
  160MOL0     H22078   3.287  10.210   3.701  0.7408  1.9607 -2.6294
  160MOL0     H22079   3.406  10.209   3.827 -1.2780 -1.9499 -1.5156
  160MOL0     H22080   3.295  10.361   3.811  4.0366  3.1855  0.4278
  161MOL0     O22081   4.950   2.185   3.879  0.6256 -0.9696  0.3949
  161MOL0     C22082   4.825   2.200   3.877 -1.0483  1.0727 -0.3078
  161MOL0     O22083   4.745   2.145   3.977  0.5475 -0.5857  0.1110
  161MOL0     C22084   4.803   2.075   4.080 -0.6861  0.7447 -0.6237
  161MOL0     C22085   4.906   1.976   4.061  1.3105  0.7635 -0.2892
  161MOL0     C22086   4.952   1.903   4.168 -0.5614  0.6587 -0.2786
  161MOL0     C22087   4.907   1.924   4.294  0.9771 -1.1932 -0.1701
  161MOL0     O22088   4.951   1.857   4.400 -0.4983  0.2061 -0.0295
  161MOL0     C22089   4.875   1.829   4.518  0.8618 -0.3709 -0.3152
  161MOL0     C22090   4.915   1.683   4.554 -0.3453 -0.1770  0.3898
  161MOL0     C22091   4.835   1.629   4.674 -1.1999  0.3247 -0.0683
  161MOL0     C22092   4.855   1.481   4.695  0.0206 -0.3872 -1.1935
  161MOL0     C22093   4.771   1.430   4.803 -0.1979 -0.0016  1.2969
  161MOL0     C22094   4.809   1.490   4.937  0.6289 -0.2127  0.6760
  161MOL0     C22095   4.741   1.405   5.043  0.3214 -0.2489 -0.5483
  161MOL0     C22096   4.742   1.484   5.179  0.1520 -0.9553 -0.3000
  161MOL0     N22097   4.881   1.528   5.210 -0.2364  0.7870  0.2887
  161MOL0     C22098   5.004   1.456   5.204  0.8693 -0.6463  0.2194
  161MOL0     C22099   5.092   1.544   5.252  0.1004 -0.3236  0.0819
  161MOL0     C22100   5.242   1.522   5.265  0.6863 -0.3102  0.7351
  161MOL0     C22101   5.304   1.534   5.127  0.3359  0.5264 -0.1073
  161MOL0     C22102   5.457   1.562   5.150 -0.0699  0.3423  0.0315
  161MOL0     C22103   5.531   1.559   5.014  0.7446 -0.1787  0.2514
  161MOL0     O22104   5.660   1.616   5.042 -0.5172 -0.7607  0.3230
  161MOL0     C22105   5.761   1.534   5.085 -0.3091  0.1668 -0.6950
  161MOL0     C22106   5.777   1.404   5.039 -1.1692 -0.1036  0.4747
  161MOL0     C22107   5.882   1.322   5.090 -0.1319  0.5701 -0.1266
  161MOL0     C22108   5.879   1.180   5.020  1.5755  0.0628  0.1483
  161MOL0     C22109   5.976   1.362   5.183 -0.1237  0.9243 -0.4247
  161MOL0     C22110   6.074   1.264   5.243 -0.4755  0.3122 -0.2347
  161MOL0     O22111   6.184   1.241   5.171 -0.8582 -0.3850  0.3805
  161MOL0     C22112   6.282   1.157   5.219 -0.5300  0.5541  0.4720
  161MOL0     C22113   6.409   1.193   5.268 -0.1903  0.4156  0.0149
  161MOL0     C22114   6.508   1.093   5.289 -0.3282 -0.7842 -0.2535
  161MOL0     C22115   6.484   0.957   5.272  0.6783 -0.8854 -0.0957
  161MOL0     O22116   6.574   0.865   5.324  0.2593 -0.5573  0.4220
  161MOL0     C22117   6.530   0.729   5.336 -0.9404  0.0204  0.0701
  161MOL0     C22118   6.481   0.705   5.489 -0.1119  0.0344  1.0599
  161MOL0     C22119   6.581   0.752   5.603 -0.8354 -0.5609  1.2649
  161MOL0     C22120   6.513   0.801   5.728  0.5805  0.5862 -0.1439
  161MOL0     C22121   6.408   0.697   5.781  0.6849 -1.0678  1.3858
  161MOL0     C22122   6.452   0.564   5.832 -0.1244  0.1819 -0.0649
  161MOL0     C22123   6.536   0.580   5.958  0.4631 -0.2478 -0.0581
  161MOL0     C22124   6.565   0.438   5.996  0.2695  0.5070 -1.0576
  161MOL0    Cl22125   6.680   0.352   5.890  0.1820  0.3646 -0.3130
  161MOL0     C22126   6.349   0.923   5.228  0.3520 -0.0533  0.1372
  161MOL0     C22127   6.254   1.019   5.205 -0.8294 -0.1662 -0.3279
  161MOL0     O22128   6.023   1.190   5.325 -0.4653  0.7702 -0.5197
  161MOL0     C22129   5.961   1.496   5.220 -0.1449  0.0094  0.0937
  161MOL0     C22130   5.860   1.584   5.172 -0.4839 -0.3816  0.4644
  161MOL0     N22131   5.031   1.662   5.276  0.0246 -0.3555  0.7786
  161MOL0     N22132   4.898   1.656   5.251 -0.3434  0.4802  0.3466
  161MOL0     C22133   4.809   2.026   4.309 -0.0459 -0.2307 -0.4780
  161MOL0     C22134   4.753   2.094   4.209 -0.5079  0.5760 -0.5994
  161MOL0     C22135   4.758   2.275   3.764 -0.2350 -1.8659 -0.3737
  161MOL0     C22136   4.836   2.353   3.670  0.6149 -0.2139 -0.3264
  161MOL0     C22137   4.766   2.433   3.579  0.1990  0.0067  0.6976
  161MOL0     C22138   4.628   2.429   3.551 -0.4245  0.0271 -0.2948
  161MOL0     O22139   4.587   2.501   3.442 -0.2603  0.6114 -0.3454
  161MOL0     C22140   4.472   2.591   3.468 -1.1635 -0.1808 -0.2026
  161MOL0     C22141   4.422   2.632   3.335 -0.5857  0.1668 -0.8870
  161MOL0     C22142   4.531   2.707   3.244  0.8344 -0.4301  0.8737
  161MOL0     C22143   4.607   2.614   3.145 -0.1673 -0.2243  0.0564
  161MOL0     C22144   4.511   2.540   3.063 -0.3218  0.5166 -0.0125
  161MOL0     C22145   4.434   2.491   2.990  0.8155  0.7920  0.1526
  161MOL0     C22146   4.551   2.345   3.638  0.2920 -0.1835  0.2995
  161MOL0     C22147   4.616   2.269   3.733  0.0012  0.4721  0.7395
  161MOL0     C22148   4.521   2.173   3.809  0.3974 -0.3135  0.4192
  161MOL0     H22149   4.940   1.946   3.963  0.1922 -5.3801  0.8137
  161MOL0     H22150   5.024   1.827   4.139  0.2735  1.2113  0.2867
  161MOL0     H22151   4.767   1.841   4.510  0.6004 -0.7491  1.9063
  161MOL0     H22152   4.929   1.887   4.593 -0.5340 -1.4832  1.6364
  161MOL0     H22153   4.889   1.625   4.465  2.1803 -0.1087 -0.4601
  161MOL0     H22154   5.023   1.671   4.569  0.0175 -0.3042 -1.9886
  161MOL0     H22155   4.854   1.684   4.766 -1.5606 -1.6052  1.2058
  161MOL0     H22156   4.728   1.631   4.650 -1.1668 -1.8064 -0.6078
  161MOL0     H22157   4.822   1.433   4.602 -2.3001  0.7231 -0.9974
  161MOL0     H22158   4.960   1.456   4.714 -0.7846 -2.4775  0.9519
  161MOL0     H22159   4.795   1.323   4.802  2.3866  0.4826 -0.5532
  161MOL0     H22160   4.665   1.446   4.782 -0.2407 -0.8825  0.7984
  161MOL0     H22161   4.916   1.481   4.955  0.4920 -0.6631  1.3282
  161MOL0     H22162   4.778   1.595   4.943 -0.7223 -0.2433 -3.0171
  161MOL0     H22163   4.796   1.312   5.057 -0.2855 -0.0980  4.9836
  161MOL0     H22164   4.638   1.379   5.015 -0.0898 -2.1575  2.2965
  161MOL0     H22165   4.676   1.571   5.176 -4.8018 -3.6370  5.9240
  161MOL0     H22166   4.698   1.416   5.253  2.3699 -1.7322  0.4038
  161MOL0     H22167   5.017   1.353   5.171 -0.2411 -0.8196  0.3037
  161MOL0     H22168   5.272   1.424   5.305 -2.7451 -0.6032  3.0326
  161MOL0     H22169   5.278   1.592   5.341  0.5989  0.8711 -0.2905
  161MOL0     H22170   5.289   1.441   5.072 -3.0248 -0.9759  2.9228
  161MOL0     H22171   5.256   1.617   5.074 -1.2918  0.1168  0.6523
  161MOL0     H22172   5.451   1.653   5.209  0.6134 -0.1906  0.9572
  161MOL0     H22173   5.502   1.483   5.211 -2.1136 -0.0223  1.1302
  161MOL0     H22174   5.525   1.459   4.971  1.0754 -0.4193  0.7704
  161MOL0     H22175   5.474   1.628   4.950 -0.5646  0.2539  1.8315
  161MOL0     H22176   5.705   1.357   4.972 -0.0966  0.6855 -1.2960
  161MOL0     H22177   5.977   1.165   4.974  0.1895 -1.0441 -2.6642
  161MOL0     H22178   5.810   1.172   4.936  1.0840 -0.7927  0.6131
  161MOL0     H22179   5.857   1.104   5.096  0.4379 -0.8534 -1.0519
  161MOL0     H22180   6.428   1.297   5.293  2.3588 -0.7935  4.2844
  161MOL0     H22181   6.599   1.130   5.337 -0.9257  2.1977 -1.1908
  161MOL0     H22182   6.455   0.690   5.266 -1.4964  1.5574 -0.2176
  161MOL0     H22183   6.623   0.675   5.315 -1.2867 -1.6130  2.3532
  161MOL0     H22184   6.394   0.771   5.491 -1.2912 -1.4719  1.3605
  161MOL0     H22185   6.438   0.604   5.496 -2.4884  0.8362 -0.8584
  161MOL0     H22186   6.650   0.832   5.571  2.8974 -3.1847  2.1072
  161MOL0     H22187   6.654   0.672   5.616 -2.4209 -2.0561  1.3096
  161MOL0     H22188   6.471   0.898   5.699  1.1170  0.6518 -0.7250
  161MOL0     H22189   6.590   0.821   5.803 -2.4759  0.9967  3.1497
  161MOL0     H22190   6.360   0.742   5.868  2.5375  0.4525  1.6778
  161MOL0     H22191   6.338   0.679   5.698 -0.6489  3.0592  1.4164
  161MOL0     H22192   6.511   0.525   5.749 -1.5288 -1.2605 -0.4191
  161MOL0     H22193   6.374   0.489   5.846  2.0668 -2.0288  0.9955
  161MOL0     H22194   6.471   0.632   6.029  1.2700 -0.0547  0.5569
  161MOL0     H22195   6.628   0.635   5.936  0.3911 -0.2426 -0.3504
  161MOL0     H22196   6.472   0.381   6.007  1.1736 -0.6523  1.2086
  161MOL0     H22197   6.623   0.432   6.089  0.2228 -1.9724 -1.1398
  161MOL0     H22198   6.316   0.820   5.224  0.7309 -0.1477 -2.5525
  161MOL0     H22199   6.152   0.993   5.182 -1.6668  1.7723  0.9554
  161MOL0     H22200   6.025   1.551   5.288  0.8701 -0.5190 -0.4193
  161MOL0     H22201   5.852   1.682   5.218 -0.4697 -0.6738  1.0999
  161MOL0     H22202   4.760   2.061   4.399  0.2904 -0.0693 -0.3563
  161MOL0     H22203   4.670   2.164   4.217 -2.6684 -1.9824  1.0198
  161MOL0     H22204   4.943   2.372   3.679  0.1554  1.5141  3.3531
  161MOL0     H22205   4.813   2.495   3.503 -0.5026 -1.1149 -0.6919
  161MOL0     H22206   4.394   2.539   3.525 -3.2627  0.8081 -2.0464
  161MOL0     H22207   4.512   2.673   3.528  1.6969 -1.9895  0.5712
  161MOL0     H22208   4.329   2.689   3.345 -2.0341 -2.4634  2.9754
  161MOL0     H22209   4.386   2.539   3.291 -0.9829 -0.2735  0.3402
  161MOL0     H22210   4.483   2.775   3.173 -0.4812 -4.4224 -2.4859
  161MOL0     H22211   4.601   2.768   3.302  0.2432  0.5942  0.5387
  161MOL0     H22212   4.652   2.531   3.199 -1.9229  0.1425  2.2181
  161MOL0     H22213   4.678   2.677   3.090 -2.5518  1.7162 -0.9770
  161MOL0     H22214   4.378   2.446   2.911 -1.0426  0.3609  1.6470
  161MOL0     H22215   4.446   2.350   3.609  0.8924 -0.0574 -1.9976
  161MOL0     H22216   4.421   2.172   3.765  0.3916 -3.0638  0.3206
  161MOL0     H22217   4.565   2.073   3.812  0.6310 -0.1852  1.8382
  161MOL0     H22218   4.503   2.204   3.912  0.8397 -0.2951  0.4936
  162MOL0     O22219   7.826  10.384   4.247 -0.4561  0.0416 -0.1870
  162MOL0     C22220   7.808  10.475   4.161 -0.2673 -0.4969  0.3595
  162MOL0     O22221   7.830  10.467   4.022 -0.2250 -0.4264  0.0969
  162MOL0     C22222   7.837  10.337   3.973 -0.5363 -0.2694 -1.2607
  162MOL0     C22223   7.718  10.268   3.932 -0.6414 -0.0932 -0.6527
  162MOL0     C22224   7.721  10.136   3.886  0.0189 -0.5342 -0.8922
  162MOL0     C22225   7.834  10.070   3.889  0.0260 -0.7245  0.2470
  162MOL0     O22226   7.826   9.937   3.871  0.2297  0.0865  0.1661
  162MOL0     C22227   7.918   9.851   3.930 -0.4434 -0.8408 -0.0138
  162MOL0     C22228   7.863   9.719   3.979 -0.8764 -0.4831 -0.0363
  162MOL0     C22229   7.807   9.622   3.871 -0.4598 -0.2650  0.6672
  162MOL0     C22230   7.909   9.548   3.794 -0.1420 -0.4369  0.4668
  162MOL0     C22231   7.847   9.435   3.708 -0.1374 -0.4593  0.1719
  162MOL0     C22232   7.961   9.346   3.661  0.6048  0.2170  0.7739
  162MOL0     C22233   7.897   9.256   3.548 -0.1557  0.5173  0.2782
  162MOL0     C22234   7.995   9.158   3.486  0.4552  0.0927  0.5386
  162MOL0     N22235   8.127   9.224   3.469  0.0769  0.6045 -0.2578
  162MOL0     C22236   8.151   9.319   3.371  0.0033  0.0198 -0.0744
  162MOL0     C22237   8.279   9.347   3.384 -0.2949  0.0063  0.3342
  162MOL0     C22238   8.361   9.449   3.308  0.2431  0.2546 -0.9107
  162MOL0     C22239   8.429   9.546   3.409  0.2979  0.5924  0.4160
  162MOL0     C22240   8.337   9.664   3.437 -0.2672  0.1210 -0.9854
  162MOL0     C22241   8.396   9.746   3.552 -0.2653  0.2876  0.4285
  162MOL0     O22242   8.492   9.843   3.505 -0.2338 -0.5241  0.6102
  162MOL0     C22243   8.581   9.893   3.602  0.6168  0.0436 -0.3897
  162MOL0     C22244   8.685   9.981   3.558  0.5116  0.3570 -0.4310
  162MOL0     C22245   8.787  10.028   3.639  0.3540 -0.5975  0.5206
  162MOL0     C22246   8.883  10.132   3.571  0.6103 -0.2581  0.0055
  162MOL0     C22247   8.792   9.981   3.774 -0.2752  0.5019  0.1072
  162MOL0     C22248   8.905   9.994   3.869 -0.1756 -0.3636  0.6505
  162MOL0     O22249   8.965   9.881   3.915  0.2695 -0.1130 -0.0594
  162MOL0     C22250   9.065   9.890   4.001 -0.4630 -0.1759  0.0178
  162MOL0     C22251   9.183   9.969   3.981 -0.2859 -0.0863  0.2555
  162MOL0     C22252   9.288   9.967   4.070 -0.7860  0.2227 -0.2209
  162MOL0     C22253   9.280   9.903   4.193 -1.0183 -0.1855  1.0493
  162MOL0     O22254   9.364   9.900   4.304 -0.2938 -0.4500 -0.3913
  162MOL0     C22255   9.491   9.980   4.293  0.1706 -0.5297 -0.5469
  162MOL0     C22256   9.567   9.991   4.427 -0.5835 -0.6013 -0.4449
  162MOL0     C22257   9.621   9.865   4.488  0.8257 -0.0076  0.1597
  162MOL0     C22258   9.638   9.863   4.640  0.3059 -0.1982 -0.1048
  162MOL0     C22259   9.509   9.837   4.713 -0.0570  0.2157  0.2269
  162MOL0     C22260   9.523   9.828   4.863  0.4154 -0.3903 -0.4663
  162MOL0     C22261   9.387   9.815   4.933  1.3580 -0.4137 -0.1129
  162MOL0     C22262   9.408   9.857   5.079  0.2513  0.3928 -0.5569
  162MOL0    Cl22263   9.262   9.845   5.172  0.2178  0.1495 -0.3703
  162MOL0     C22264   9.164   9.836   4.218 -1.0508 -0.3984  0.1680
  162MOL0     C22265   9.055   9.822   4.126 -0.9426 -0.9328 -0.0488
  162MOL0     O22266   8.944  10.108   3.880  1.7358  0.9271 -0.4129
  162MOL0     C22267   8.687   9.899   3.828 -1.0052 -0.8545  0.0726
  162MOL0     C22268   8.584   9.854   3.746 -0.5955 -0.1133 -0.8157
  162MOL0     N22269   8.336   9.275   3.492 -0.4337 -0.2894  0.0868
  162MOL0     N22270   8.244   9.188   3.532  0.2509 -0.3036 -0.1415
  162MOL0     C22271   7.954  10.146   3.894  0.4510 -0.3081  1.1091
  162MOL0     C22272   7.954  10.277   3.939  0.6094  0.0465  0.0806
  162MOL0     C22273   7.769  10.613   4.199 -1.1495  0.0457 -0.1731
  162MOL0     C22274   7.815  10.722   4.118 -1.1120 -0.7024  0.0297
  162MOL0     C22275   7.774  10.850   4.160  0.2321 -0.2430 -0.0362
  162MOL0     C22276   7.695  10.870   4.271  1.6621 -0.8451  0.4931
  162MOL0     O22277   7.665  11.007   4.304  0.4685 -0.6479  0.0520
  162MOL0     C22278   7.603  11.045   4.432  0.0058  0.0171 -0.6147
  162MOL0     C22279   7.490  11.143   4.405  0.7900  0.5912  0.4655
  162MOL0     C22280   7.531  11.264   4.319  0.2080 -0.7584  0.0404
  162MOL0     C22281   7.416  11.366   4.315  0.5545  0.1816  0.1241
  162MOL0     C22282   7.290  11.334   4.247  0.0962 -0.7974  0.5456
  162MOL0     C22283   7.191  11.297   4.190  0.7656  0.5452 -1.0969
  162MOL0     C22284   7.640  10.766   4.342 -0.1706 -0.1568  0.4505
  162MOL0     C22285   7.684  10.637   4.312 -1.0625  0.4322  0.3855
  162MOL0     C22286   7.625  10.523   4.390  0.0501 -0.9367 -0.0291
  162MOL0     H22287   7.632  10.331   3.954 -1.6155 -1.2826 -0.9349
  162MOL0     H22288   7.628  10.082   3.870 -1.2342  1.2991 -0.1791
  162MOL0     H22289   7.963   9.903   4.015  0.1374 -1.0214 -0.2098
  162MOL0     H22290   7.996   9.829   3.857 -0.4836  0.0001 -0.3164
  162MOL0     H22291   7.944   9.670   4.033  0.2992 -1.1579 -2.2936
  162MOL0     H22292   7.793   9.744   4.059 -2.0220 -2.4234 -0.3689
  162MOL0     H22293   7.756   9.541   3.925  3.1608 -1.5438  2.4877
  162MOL0     H22294   7.740   9.680   3.807  0.9397  1.0310  0.3262
  162MOL0     H22295   7.961   9.622   3.733 -0.7462  0.7738  1.3675
  162MOL0     H22296   7.991   9.512   3.857  1.2800  0.2770 -0.8908
  162MOL0     H22297   7.780   9.466   3.627 -1.6611 -1.5304  0.9702
  162MOL0     H22298   7.791   9.373   3.778 -1.0463  0.7125  0.5188
  162MOL0     H22299   8.028   9.415   3.610 -1.8023  1.6362 -0.6746
  162MOL0     H22300   8.021   9.299   3.740  4.6009 -1.0616 -2.6677
  162MOL0     H22301   7.840   9.322   3.482 -2.2935  1.3142  2.7464
  162MOL0     H22302   7.819   9.203   3.602 -0.4165 -0.5045 -1.0527
  162MOL0     H22303   8.004   9.068   3.547 -3.2870 -1.3914 -0.7950
  162MOL0     H22304   7.958   9.115   3.392  1.3401  0.9984 -0.2487
  162MOL0     H22305   8.073   9.356   3.305  0.0064 -0.8181 -0.5676
  162MOL0     H22306   8.304   9.520   3.248  0.1690  1.5060  0.5825
  162MOL0     H22307   8.445   9.400   3.257  1.2043  1.4735 -0.5363
  162MOL0     H22308   8.457   9.499   3.504  2.7109  2.1662  0.5754
  162MOL0     H22309   8.522   9.578   3.361 -0.5541 -0.5933 -2.1766
  162MOL0     H22310   8.330   9.731   3.351 -0.1760  0.2627 -0.8841
  162MOL0     H22311   8.234   9.635   3.457 -0.5865  1.7486 -0.0402
  162MOL0     H22312   8.311   9.800   3.594 -1.6113  1.2069 -3.1364
  162MOL0     H22313   8.430   9.675   3.629 -1.0233 -0.8736 -0.2926
  162MOL0     H22314   8.667  10.008   3.454  1.3740  2.9225  0.0206
  162MOL0     H22315   8.881  10.235   3.610  1.6613 -0.2679  0.1322
  162MOL0     H22316   8.860  10.124   3.465  0.3030 -1.7954  0.1757
  162MOL0     H22317   8.987  10.098   3.573  0.7368  0.0968 -0.2810
  162MOL0     H22318   9.201  10.024   3.890  3.4757 -3.4303 -1.3414
  162MOL0     H22319   9.379  10.020   4.045 -0.4906  0.6578  1.6373
  162MOL0     H22320   9.553   9.932   4.217 -0.8997  1.1963 -2.6195
  162MOL0     H22321   9.462  10.082   4.268  0.7608  1.0288  4.0914
  162MOL0     H22322   9.651  10.059   4.409 -1.3597  0.7015  0.6333
  162MOL0     H22323   9.504  10.029   4.508  1.0215 -1.0981  1.0804
  162MOL0     H22324   9.719   9.845   4.445  0.6007  3.1722 -2.1507
  162MOL0     H22325   9.555   9.784   4.454  0.6506 -0.6395  1.8637
  162MOL0     H22326   9.692   9.954   4.668  2.8417 -0.5402 -3.2921
  162MOL0     H22327   9.703   9.777   4.657 -0.1591 -0.6603 -0.6336
  162MOL0     H22328   9.443   9.921   4.688  2.8972  2.9522  0.9714
  162MOL0     H22329   9.475   9.738   4.681  1.1964 -0.1771  0.0785
  162MOL0     H22330   9.571   9.917   4.906 -0.1279  0.3057 -1.2674
  162MOL0     H22331   9.592   9.746   4.886 -0.9065 -1.0881  1.1987
  162MOL0     H22332   9.350   9.712   4.924 -1.5201  0.3100  2.1387
  162MOL0     H22333   9.309   9.881   4.895  0.4869  0.8953  3.5777
  162MOL0     H22334   9.456   9.955   5.084  0.9673  0.0527 -0.5560
  162MOL0     H22335   9.487   9.796   5.124  1.3553  0.6731 -2.0520
  162MOL0     H22336   9.166   9.772   4.306 -0.3776  0.5111  0.8176
  162MOL0     H22337   8.963   9.767   4.142 -2.1559 -0.1790 -3.5459
  162MOL0     H22338   8.695   9.863   3.930 -2.3819 -0.5297  0.3163
  162MOL0     H22339   8.505   9.794   3.789 -0.9176  2.2139  2.1978
  162MOL0     H22340   8.050  10.098   3.877  0.8317  0.7959 -0.0078
  162MOL0     H22341   8.043  10.337   3.948 -0.6360  2.5886 -2.6560
  162MOL0     H22342   7.870  10.708   4.026  2.5037  0.5559  1.8162
  162MOL0     H22343   7.792  10.946   4.113 -3.3201  0.0972 -1.0219
  162MOL0     H22344   7.565  10.961   4.490 -2.3057  0.9063 -0.7314
  162MOL0     H22345   7.676  11.088   4.502  0.2589  1.0419 -1.4761
  162MOL0     H22346   7.437  11.168   4.498 -0.4625 -2.2589  0.6321
  162MOL0     H22347   7.417  11.087   4.346 -1.2928  2.7225  0.8324
  162MOL0     H22348   7.613  11.311   4.373  0.3549 -0.6903 -0.2398
  162MOL0     H22349   7.561  11.250   4.215  1.3306 -1.9445  0.4971
  162MOL0     H22350   7.440  11.463   4.269 -1.7511  0.3520 -0.8820
  162MOL0     H22351   7.376  11.374   4.417 -2.1501 -2.1124 -0.6277
  162MOL0     H22352   7.104  11.255   4.145  3.4079 -3.6264 -2.9054
  162MOL0     H22353   7.564  10.785   4.418 -0.8353  0.5692 -0.3788
  162MOL0     H22354   7.706  10.476   4.447  2.7545  0.6946 -2.2271
  162MOL0     H22355   7.547  10.552   4.461 -0.5385 -1.2966 -0.5230
  162MOL0     H22356   7.600  10.435   4.329 -1.3414 -1.0852  0.7324
  163MOL0     O22357   7.850   8.873   7.703 -0.0343  0.3622 -0.1569
  163MOL0     C22358   7.771   8.793   7.656  0.7706 -0.3037 -0.3042
  163MOL0     O22359   7.673   8.730   7.734  0.3381  0.4827 -0.0780
  163MOL0     C22360   7.654   8.764   7.866 -0.5385  0.1460 -0.7642
  163MOL0     C22361   7.603   8.663   7.948 -0.7359 -0.6350  0.8365
  163MOL0     C22362   7.556   8.698   8.082 -0.0429 -0.4409  0.1433
  163MOL0     C22363   7.550   8.825   8.132  0.4271  0.0293  0.0830
  163MOL0     O22364   7.470   8.866   8.241 -1.1980 -0.4277 -0.0314
  163MOL0     C22365   7.342   8.792   8.241 -0.0130 -0.0194 -1.0187
  163MOL0     C22366   7.257   8.855   8.356 -0.1674 -0.2284  0.5371
  163MOL0     C22367   7.305   8.822   8.497 -0.2418 -0.2190  0.8117
  163MOL0     C22368   7.237   8.695   8.544 -0.3680  0.4290 -0.6417
  163MOL0     C22369   7.296   8.649   8.679  0.1861 -0.0124 -0.6214
  163MOL0     C22370   7.444   8.644   8.674 -0.3728  0.0169 -1.2306
  163MOL0     C22371   7.494   8.551   8.790 -0.5786 -0.0890 -0.4639
  163MOL0     C22372   7.539   8.624   8.921 -0.1382  0.4424  0.0803
  163MOL0     N22373   7.651   8.716   8.899 -0.4279  0.1851 -0.6126
  163MOL0     C22374   7.766   8.682   8.830  0.0837 -0.3703  0.6433
  163MOL0     C22375   7.827   8.804   8.819  0.7065  0.2715 -0.1437
  163MOL0     C22376   7.960   8.840   8.755  0.2306 -0.8804  1.0593
  163MOL0     C22377   7.966   8.790   8.609 -0.5829  0.3823  0.5497
  163MOL0     C22378   7.894   8.885   8.521 -0.2377 -0.4092 -1.8412
  163MOL0     C22379   7.900   8.852   8.375 -0.1002 -0.2350  0.7001
  163MOL0     O22380   8.036   8.858   8.332  0.7549  0.3679 -1.1566
  163MOL0     C22381   8.071   8.834   8.208 -0.9217 -0.3812 -0.5644
  163MOL0     C22382   8.211   8.845   8.190  0.5785 -0.3738 -0.6526
  163MOL0     C22383   8.257   8.806   8.064 -0.5107 -0.0500  0.1998
  163MOL0     C22384   8.417   8.791   8.050  0.5415  0.1151  0.4834
  163MOL0     C22385   8.175   8.760   7.960  0.5728 -0.2743 -0.7478
  163MOL0     C22386   8.220   8.710   7.825 -0.1865 -0.0551 -0.3270
  163MOL0     O22387   8.122   8.641   7.753  0.1575 -0.2321 -0.0622
  163MOL0     C22388   8.146   8.617   7.621 -0.1236 -0.6475 -0.4508
  163MOL0     C22389   8.074   8.505   7.580  0.5963 -0.2057  0.6489
  163MOL0     C22390   8.072   8.470   7.442 -0.2203  0.3646 -0.3790
  163MOL0     C22391   8.144   8.544   7.347  1.2237  0.2480  0.6674
  163MOL0     O22392   8.133   8.519   7.210  0.5176  0.1049 -0.6921
  163MOL0     C22393   8.080   8.399   7.161 -1.3212  1.5313  0.4909
  163MOL0     C22394   8.143   8.361   7.025 -0.1869  0.7738 -0.5765
  163MOL0     C22395   8.079   8.245   6.948 -0.2519  0.2054 -0.2870
  163MOL0     C22396   8.170   8.123   6.930  0.4670  0.1386 -0.0133
  163MOL0     C22397   8.088   8.002   6.872  0.1499  0.4571  0.5045
  163MOL0     C22398   8.055   7.886   6.965  0.6442  0.8225 -0.2735
  163MOL0     C22399   7.972   7.919   7.095 -0.7825 -0.4934  0.2145
  163MOL0     C22400   7.935   7.785   7.154 -0.0235 -0.1544  0.7224
  163MOL0    Cl22401   7.874   7.803   7.325  0.0372  0.4890 -0.1845
  163MOL0     C22402   8.190   8.662   7.385  0.4100 -0.8732 -0.7001
  163MOL0     C22403   8.192   8.703   7.525 -0.4127 -1.0345 -0.1053
  163MOL0     O22404   8.327   8.743   7.784  0.0979 -0.5038 -0.1215
  163MOL0     C22405   8.039   8.751   7.986 -0.7529  0.4887 -0.3643
  163MOL0     C22406   7.991   8.785   8.106  0.2758 -0.2544 -0.4004
  163MOL0     N22407   7.745   8.904   8.877  0.6701 -0.2670 -1.0542
  163MOL0     N22408   7.643   8.846   8.936  0.0552  0.8707 -0.1683
  163MOL0     C22409   7.609   8.920   8.046 -0.3796  1.1012  0.5689
  163MOL0     C22410   7.656   8.891   7.918  0.1693  1.0684 -0.4659
  163MOL0     C22411   7.775   8.769   7.510 -0.4337 -1.1227  0.1572
  163MOL0     C22412   7.887   8.822   7.436 -0.3673  0.6047  0.8071
  163MOL0     C22413   7.887   8.804   7.293 -0.1684 -0.5142 -1.2704
  163MOL0     C22414   7.783   8.737   7.235  0.0468  0.7471  0.5712
  163MOL0     O22415   7.777   8.715   7.096 -0.5134 -0.5917  0.7189
  163MOL0     C22416   7.872   8.795   7.010 -0.0970  0.2944  0.3212
  163MOL0     C22417   8.007   8.736   6.982  0.1358  0.3139 -0.2192
  163MOL0     C22418   8.074   8.839   6.895 -0.5562  0.8403 -0.0649
  163MOL0     C22419   8.188   8.781   6.817  0.6538 -0.9294  0.0056
  163MOL0     C22420   8.288   8.716   6.909 -0.1244  0.3942  0.4535
  163MOL0     C22421   8.372   8.670   6.983 -0.4890  0.5220 -0.4440
  163MOL0     C22422   7.672   8.682   7.311 -0.5488 -0.4442 -0.1165
  163MOL0     C22423   7.668   8.693   7.449 -0.6690 -0.1911  0.2124
  163MOL0     C22424   7.553   8.616   7.508 -0.7087 -1.1592 -0.1947
  163MOL0     H22425   7.572   8.571   7.900 -0.4113  0.7845 -2.2972
  163MOL0     H22426   7.509   8.618   8.138  0.6565 -0.2701  0.9983
  163MOL0     H22427   7.356   8.686   8.263  1.2401  0.0920 -1.2138
  163MOL0     H22428   7.287   8.801   8.146 -2.9018  2.4743  0.6793
  163MOL0     H22429   7.273   8.963   8.348  0.8569 -0.2974  1.3743
  163MOL0     H22430   7.150   8.830   8.354  0.0233 -0.9942 -0.7336
  163MOL0     H22431   7.414   8.822   8.502  0.0169  4.0418 -0.3619
  163MOL0     H22432   7.284   8.914   8.553  2.8707 -0.5469  2.7432
  163MOL0     H22433   7.128   8.702   8.552 -0.3834  0.1493 -0.6049
  163MOL0     H22434   7.263   8.616   8.473  1.9859  1.3209 -0.8635
  163MOL0     H22435   7.254   8.551   8.705  0.6837 -0.5715 -1.8248
  163MOL0     H22436   7.259   8.717   8.756 -0.8227 -0.1735 -0.9519
  163MOL0     H22437   7.471   8.603   8.577  0.5588  0.8571 -1.3374
  163MOL0     H22438   7.497   8.738   8.694  0.4486 -1.0145  2.1825
  163MOL0     H22439   7.574   8.486   8.753  0.0034  0.1770  0.2888
  163MOL0     H22440   7.412   8.484   8.817 -2.7019  1.9373 -1.4850
  163MOL0     H22441   7.464   8.677   8.980  0.2759  1.0427  0.0791
  163MOL0     H22442   7.567   8.543   8.989  1.1190 -3.5718 -4.6639
  163MOL0     H22443   7.795   8.589   8.784  5.0174  1.4330 -0.4709
  163MOL0     H22444   8.037   8.795   8.819  0.3500  0.3906  1.8455
  163MOL0     H22445   7.969   8.948   8.761 -1.7500 -0.5953 -0.2432
  163MOL0     H22446   8.071   8.785   8.577 -1.3413  0.2861 -2.1679
  163MOL0     H22447   7.928   8.688   8.594 -1.0215  0.7003 -0.5701
  163MOL0     H22448   7.790   8.885   8.555  0.5134  1.0459  0.7187
  163MOL0     H22449   7.942   8.980   8.547  0.2208 -1.0379 -0.2550
  163MOL0     H22450   7.840   8.763   8.359 -1.6397  0.8259  0.3207
  163MOL0     H22451   7.853   8.932   8.316  2.4310 -0.5649 -2.0162
  163MOL0     H22452   8.285   8.870   8.265  1.2285 -1.3945 -0.9229
  163MOL0     H22453   8.434   8.703   7.988 -1.6841  0.6157 -0.9600
  163MOL0     H22454   8.471   8.796   8.145  0.2132  0.5687  0.6523
  163MOL0     H22455   8.455   8.864   7.978 -2.0963  0.4186 -0.6934
  163MOL0     H22456   8.031   8.439   7.654 -1.6243 -0.5766 -0.8720
  163MOL0     H22457   8.023   8.375   7.424 -0.1689 -0.1458  1.8856
  163MOL0     H22458   8.089   8.320   7.237  0.0414 -0.0708 -1.2366
  163MOL0     H22459   7.973   8.407   7.141 -1.8406 -1.3634  1.5692
  163MOL0     H22460   8.130   8.442   6.953 -2.0313  0.5290 -0.5694
  163MOL0     H22461   8.250   8.346   7.039 -0.7611 -1.3226  2.2766
  163MOL0     H22462   8.028   8.281   6.858  1.0883  2.5836 -0.1889
  163MOL0     H22463   7.994   8.211   7.008 -3.5220  5.0290 -1.5652
  163MOL0     H22464   8.196   8.098   7.034 -5.6929 -1.8070  1.4831
  163MOL0     H22465   8.261   8.140   6.872  0.3334 -0.5672 -0.4394
  163MOL0     H22466   7.991   8.035   6.835 -0.6402 -1.1437  1.0431
  163MOL0     H22467   8.136   7.955   6.785  0.2322  0.5109  0.5205
  163MOL0     H22468   8.149   7.842   6.998 -1.1495 -1.7890  1.7207
  163MOL0     H22469   8.002   7.820   6.896  1.8832  0.5360 -0.9937
  163MOL0     H22470   7.883   7.980   7.077 -0.9781 -0.3949  1.4185
  163MOL0     H22471   8.040   7.976   7.160  0.0347  0.9695 -1.8153
  163MOL0     H22472   8.014   7.709   7.149  1.0870  0.9739  0.5070
  163MOL0     H22473   7.856   7.758   7.083  0.5028 -0.3595  0.2107
  163MOL0     H22474   8.221   8.728   7.304  0.4545 -1.3026 -1.0360
  163MOL0     H22475   8.255   8.786   7.555  0.1458 -1.8615  1.1328
  163MOL0     H22476   7.969   8.701   7.920 -0.4563  1.1815 -1.2242
  163MOL0     H22477   7.887   8.770   8.133  0.9345 -1.4439  1.7336
  163MOL0     H22478   7.593   9.022   8.080 -3.4807  0.4522  1.4536
  163MOL0     H22479   7.685   8.973   7.853 -1.2605  2.2985  0.3797
  163MOL0     H22480   7.973   8.869   7.482  0.1084  0.9545 -0.3932
  163MOL0     H22481   7.968   8.839   7.229  1.0878 -0.2196  0.4000
  163MOL0     H22482   7.823   8.795   6.912 -0.7703 -1.0680  0.6365
  163MOL0     H22483   7.874   8.900   7.040 -3.0629  1.0014 -1.6066
  163MOL0     H22484   7.996   8.647   6.919  0.8373  2.2479 -3.2685
  163MOL0     H22485   8.058   8.711   7.075  3.8498 -0.4032 -2.2414
  163MOL0     H22486   8.002   8.867   6.817  0.6943 -1.9951 -2.4037
  163MOL0     H22487   8.112   8.927   6.948  0.3203  1.0732 -1.0588
  163MOL0     H22488   8.235   8.862   6.760  1.3062 -2.4224 -1.6726
  163MOL0     H22489   8.159   8.709   6.740  2.5626 -0.0562 -1.6425
  163MOL0     H22490   8.466   8.655   7.033 -0.6824  1.0745  0.1032
  163MOL0     H22491   7.599   8.627   7.253  0.2278  0.2666 -1.8219
  163MOL0     H22492   7.498   8.560   7.432  2.6577 -4.3659 -0.5470
  163MOL0     H22493   7.592   8.538   7.574  0.4093 -1.4483 -1.1493
  163MOL0     H22494   7.481   8.683   7.555  1.6969  2.0735 -0.7934
  164MOL0     O22495   8.066   4.159   5.103  0.5486  0.9589 -0.0283
  164MOL0     C22496   8.041   4.210   5.211  0.1233 -0.5591 -0.1240
  164MOL0     O22497   8.096   4.165   5.333 -0.2820  0.2368  0.6307
  164MOL0     C22498   8.173   4.057   5.309 -0.4786  0.5480 -0.5539
  164MOL0     C22499   8.109   3.935   5.283  0.5884  0.0055  0.4164
  164MOL0     C22500   8.187   3.819   5.277 -1.1677 -0.3179 -0.9757
  164MOL0     C22501   8.329   3.821   5.294 -0.9034  1.1270 -0.8765
  164MOL0     O22502   8.385   3.699   5.292 -0.8601 -0.4614 -0.1988
  164MOL0     C22503   8.529   3.695   5.280 -0.7706  0.1492  0.1330
  164MOL0     C22504   8.561   3.547   5.269 -0.2377 -0.6822  0.4749
  164MOL0     C22505   8.713   3.512   5.233  0.5630 -0.2590 -1.0004
  164MOL0     C22506   8.734   3.361   5.246  0.0917  0.4829 -0.6556
  164MOL0     C22507   8.880   3.329   5.217 -0.2049 -0.3759 -0.5578
  164MOL0     C22508   8.914   3.181   5.232  0.0156 -0.2938  0.4071
  164MOL0     C22509   9.068   3.170   5.234  0.9437 -0.4865 -0.5289
  164MOL0     C22510   9.139   3.241   5.351  0.3807  0.4188  0.2144
  164MOL0     N22511   9.073   3.208   5.480  0.2444 -0.3345  0.1698
  164MOL0     C22512   8.983   3.287   5.546 -0.7753 -0.3438 -0.6093
  164MOL0     C22513   8.991   3.254   5.671  0.3078  0.0687 -0.3046
  164MOL0     C22514   8.933   3.336   5.782  0.8577 -0.5302 -0.4358
  164MOL0     C22515   9.030   3.445   5.826 -0.0999 -0.7147  0.0502
  164MOL0     C22516   8.951   3.526   5.925 -0.3346 -0.0168 -0.7715
  164MOL0     C22517   9.024   3.647   5.986 -0.1341 -1.0498 -0.8061
  164MOL0     O22518   9.054   3.743   5.883 -0.4679  0.4502 -0.1063
  164MOL0     C22519   9.136   3.840   5.941 -0.4296 -0.1081  0.2415
  164MOL0     C22520   9.273   3.825   5.936  0.2212 -0.5321 -0.1069
  164MOL0     C22521   9.366   3.898   6.021  0.5224 -0.1884 -0.2374
  164MOL0     C22522   9.513   3.850   6.035 -0.0616 -0.0106  1.0871
  164MOL0     C22523   9.306   4.011   6.094  0.9052  0.4786 -0.8011
  164MOL0     C22524   9.397   4.104   6.176 -0.0497 -0.7524 -0.2833
  164MOL0     O22525   9.354   4.230   6.198  0.1935  0.4060  0.4318
  164MOL0     C22526   9.417   4.326   6.269  0.4366 -0.2713  0.7037
  164MOL0     C22527   9.557   4.335   6.301  0.6855  0.2036  0.5068
  164MOL0     C22528   9.608   4.440   6.375  1.0492  0.1952 -0.3449
  164MOL0     C22529   9.520   4.535   6.431  0.3167  0.5689 -1.3844
  164MOL0     O22530   9.584   4.648   6.483  0.3786 -0.3770  0.6473
  164MOL0     C22531   9.506   4.723   6.565  0.6695 -0.9790  0.6989
  164MOL0     C22532   9.494   4.672   6.707  0.2827  0.1342 -0.1225
  164MOL0     C22533   9.395   4.759   6.801 -0.7526 -0.4216  1.0804
  164MOL0     C22534   9.472   4.857   6.874  0.4811  0.8926 -0.2593
  164MOL0     C22535   9.397   4.937   6.982  0.2736 -0.2759 -0.3923
  164MOL0     C22536   9.277   5.014   6.930  1.1339  0.0144 -0.0590
  164MOL0     C22537   9.197   5.057   7.054  0.2532 -0.0281 -0.6579
  164MOL0     C22538   9.101   5.168   7.015  0.6832  0.8074  0.2162
  164MOL0    Cl22539   9.010   5.227   7.163 -0.0438 -0.3139 -0.3091
  164MOL0     C22540   9.378   4.525   6.396 -0.1061  0.9205 -0.4700
  164MOL0     C22541   9.333   4.419   6.320 -0.4770 -0.0927  0.2944
  164MOL0     O22542   9.506   4.062   6.202  0.4240  0.7641  0.4865
  164MOL0     C22543   9.167   4.031   6.082  0.1838 -1.3107  0.2312
  164MOL0     C22544   9.079   3.945   6.017 -0.8220  1.3232  1.1465
  164MOL0     N22545   9.072   3.132   5.681 -0.0102  0.4469 -1.2052
  164MOL0     N22546   9.114   3.108   5.566 -0.5255  0.6568  0.5797
  164MOL0     C22547   8.391   3.953   5.308  0.0848  0.0466  0.2379
  164MOL0     C22548   8.313   4.069   5.317  1.5216 -0.2073  0.2799
  164MOL0     C22549   7.935   4.305   5.241  0.5389 -0.2521 -0.4869
  164MOL0     C22550   7.933   4.362   5.372  1.0421 -0.2287 -0.3770
  164MOL0     C22551   7.840   4.463   5.406 -0.5155  0.4374 -1.1979
  164MOL0     C22552   7.737   4.497   5.318  0.3155 -0.2302 -0.6255
  164MOL0     O22553   7.666   4.607   5.372 -0.5705  0.4361 -0.5683
  164MOL0     C22554   7.544   4.644   5.306 -0.2872  0.0592  0.6870
  164MOL0     C22555   7.484   4.761   5.382  0.2305  0.3157 -0.1252
  164MOL0     C22556   7.337   4.760   5.375  0.6200  0.1737 -0.7215
  164MOL0     C22557   7.287   4.900   5.357  0.8442  0.4244 -0.6647
  164MOL0     C22558   7.137   4.897   5.308 -0.2474  0.0228 -1.0590
  164MOL0     C22559   7.018   4.900   5.282  0.3740  0.1106  0.2499
  164MOL0     C22560   7.729   4.431   5.195 -0.0944  0.5394  0.1144
  164MOL0     C22561   7.824   4.330   5.148  0.3792  0.6393 -0.5311
  164MOL0     C22562   7.818   4.272   5.014 -0.0881 -0.6999  0.4038
  164MOL0     H22563   8.004   3.944   5.259  0.4783  0.1223  0.9491
  164MOL0     H22564   8.141   3.725   5.251 -2.8160  0.8278 -2.4791
  164MOL0     H22565   8.583   3.741   5.364  1.2091 -1.3850 -0.2199
  164MOL0     H22566   8.564   3.737   5.186  1.2848 -0.4936  0.5680
  164MOL0     H22567   8.541   3.490   5.360 -2.3696 -1.2377 -0.2735
  164MOL0     H22568   8.497   3.509   5.188  0.9170 -3.2366  0.6939
  164MOL0     H22569   8.743   3.564   5.142 -1.0805  2.7959  0.0715
  164MOL0     H22570   8.770   3.562   5.312 -0.4950 -1.5693  0.6639
  164MOL0     H22571   8.702   3.334   5.347 -2.6424 -0.3455 -1.6646
  164MOL0     H22572   8.684   3.296   5.175 -0.8590 -0.9400  1.2328
  164MOL0     H22573   8.938   3.396   5.281 -0.8502  2.2050 -2.5030
  164MOL0     H22574   8.896   3.372   5.118  1.5192  1.3019  0.3844
  164MOL0     H22575   8.868   3.132   5.318 -0.5404  0.4607  0.5594
  164MOL0     H22576   8.875   3.133   5.142  3.0570  1.1703 -1.8574
  164MOL0     H22577   9.104   3.221   5.144 -0.7124 -0.6637 -1.3418
  164MOL0     H22578   9.100   3.065   5.231 -0.7463 -1.2455  2.9745
  164MOL0     H22579   9.248   3.231   5.347  0.2938 -0.4455 -0.2047
  164MOL0     H22580   9.124   3.348   5.335 -2.1303  0.1746  0.6381
  164MOL0     H22581   8.934   3.373   5.503 -0.2995 -0.1796 -0.8236
  164MOL0     H22582   8.914   3.280   5.874 -2.4853  3.1757  1.4261
  164MOL0     H22583   8.840   3.386   5.753  0.2644 -0.1511  1.9740
  164MOL0     H22584   9.117   3.402   5.877  1.0161 -0.4164 -1.5252
  164MOL0     H22585   9.058   3.516   5.747 -0.6710 -1.4179 -0.8016
  164MOL0     H22586   8.850   3.556   5.897 -0.5564 -1.3856 -1.5283
  164MOL0     H22587   8.931   3.454   6.005 -3.5182 -0.0198 -1.4470
  164MOL0     H22588   8.954   3.691   6.057  0.3615 -0.3777 -0.7265
  164MOL0     H22589   9.117   3.609   6.030  1.0015 -0.6481 -2.7261
  164MOL0     H22590   9.298   3.739   5.874  0.7009  1.5866 -3.0495
  164MOL0     H22591   9.545   3.831   6.138 -3.8311  0.7054  2.5498
  164MOL0     H22592   9.574   3.920   5.977 -0.7177 -1.3096 -1.2904
  164MOL0     H22593   9.518   3.762   5.970 -1.1796  0.6002  0.1212
  164MOL0     H22594   9.634   4.279   6.250  0.4429 -0.6680  1.0776
  164MOL0     H22595   9.712   4.460   6.395  1.1479 -1.1751  0.7232
  164MOL0     H22596   9.545   4.825   6.565 -0.2739 -0.5800  2.8150
  164MOL0     H22597   9.408   4.740   6.519  1.5942 -1.3408 -1.5235
  164MOL0     H22598   9.464   4.567   6.697 -1.3927  0.7397 -2.3904
  164MOL0     H22599   9.595   4.664   6.749  1.1042  3.0096 -1.3223
  164MOL0     H22600   9.346   4.686   6.865 -3.9426 -0.8956 -1.5977
  164MOL0     H22601   9.318   4.813   6.744 -0.0060 -3.5158 -3.3852
  164MOL0     H22602   9.511   4.930   6.803  2.9716  0.0743  0.1902
  164MOL0     H22603   9.552   4.798   6.919  0.3333  1.0012  0.1541
  164MOL0     H22604   9.356   4.883   7.068  0.2816  2.9517  1.7832
  164MOL0     H22605   9.466   5.016   7.013  0.1276 -0.4106  0.2836
  164MOL0     H22606   9.205   4.950   6.879 -0.3287  1.4505  0.1045
  164MOL0     H22607   9.306   5.099   6.868 -1.3619 -0.3811 -1.9126
  164MOL0     H22608   9.265   5.099   7.129 -0.4416 -0.6095  0.3144
  164MOL0     H22609   9.149   4.965   7.086 -0.6340 -0.3741 -2.8013
  164MOL0     H22610   9.037   5.133   6.934  1.2453  3.3925 -1.4691
  164MOL0     H22611   9.164   5.245   6.969 -2.6756  3.3319 -0.4998
  164MOL0     H22612   9.293   4.586   6.426  0.6075  0.6566  2.4181
  164MOL0     H22613   9.226   4.418   6.306 -0.4097  2.0765 -0.6675
  164MOL0     H22614   9.122   4.120   6.124 -1.6091 -2.4733  0.8721
  164MOL0     H22615   8.973   3.969   6.022 -1.2796  0.1298 -1.5597
  164MOL0     H22616   8.497   3.970   5.327 -0.2169  2.4076  0.0870
  164MOL0     H22617   8.368   4.158   5.346  1.5973 -0.6578  1.5692
  164MOL0     H22618   8.003   4.334   5.451  1.4378 -0.3981 -0.7859
  164MOL0     H22619   7.846   4.511   5.502  0.3551 -1.0970 -0.4337
  164MOL0     H22620   7.568   4.670   5.203  3.5618 -2.2360  0.8079
  164MOL0     H22621   7.483   4.554   5.298  2.4181 -1.9676  1.2850
  164MOL0     H22622   7.538   4.848   5.342  2.8894 -0.2892  1.8620
  164MOL0     H22623   7.511   4.765   5.488  0.2976  1.9181 -0.1725
  164MOL0     H22624   7.305   4.697   5.291  0.3339 -2.8381  1.4589
  164MOL0     H22625   7.295   4.715   5.466  0.1116  2.4997  0.2705
  164MOL0     H22626   7.357   4.961   5.299  1.2708  2.3413  1.7021
  164MOL0     H22627   7.291   4.946   5.456  1.1455 -0.8106 -0.0931
  164MOL0     H22628   6.914   4.907   5.258  0.1759 -0.3193  0.9613
  164MOL0     H22629   7.677   4.477   5.111  1.8746  1.9964 -0.3746
  164MOL0     H22630   7.911   4.295   4.961 -2.0590  1.8570 -2.2964
  164MOL0     H22631   7.793   4.166   5.027  0.5568 -0.9368 -0.2280
  164MOL0     H22632   7.752   4.325   4.945  2.2179 -0.5832 -1.8609
  165MOL0     O22633   4.985   9.302   8.832 -0.5995  0.3964  0.1822
  165MOL0     C22634   4.986   9.394   8.914  0.4707 -0.7115 -0.3555
  165MOL0     O22635   5.095   9.446   8.977 -0.2089  0.0576  0.6577
  165MOL0     C22636   5.220   9.405   8.928  0.3692  0.2382 -0.5950
  165MOL0     C22637   5.289   9.473   8.824 -0.0282  0.0240 -0.2142
  165MOL0     C22638   5.422   9.440   8.790 -1.0970  0.0890 -0.1071
  165MOL0     C22639   5.473   9.329   8.867 -1.0528 -0.7690  0.6945
  165MOL0     O22640   5.597   9.288   8.823 -0.5625 -0.2578 -0.7854
  165MOL0     C22641   5.707   9.305   8.919 -0.5955  0.0086  0.4852
  165MOL0     C22642   5.816   9.198   8.894  0.0877  0.3961 -0.1882
  165MOL0     C22643   5.958   9.241   8.934  0.1208  0.8283  0.8868
  165MOL0     C22644   5.966   9.249   9.093 -0.5561 -0.4306  0.4859
  165MOL0     C22645   6.110   9.262   9.139 -0.1914  0.1984  0.4066
  165MOL0     C22646   6.171   9.407   9.103 -0.4683 -0.6180 -0.1123
  165MOL0     C22647   6.318   9.417   9.114  0.2586  1.2150  0.5523
  165MOL0     C22648   6.385   9.383   8.972 -0.3565 -0.2130 -0.7864
  165MOL0     N22649   6.531   9.347   8.997  0.1182  0.4056 -0.3591
  165MOL0     C22650   6.629   9.431   9.040  0.5425 -0.5641 -0.3463
  165MOL0     C22651   6.747   9.356   9.024  1.1420 -0.4851 -0.7547
  165MOL0     C22652   6.888   9.393   9.059 -1.0234 -0.2301 -0.0782
  165MOL0     C22653   6.947   9.377   9.203 -0.3724  0.3470  0.5422
  165MOL0     C22654   7.072   9.291   9.202 -0.0933  0.2933 -0.3911
  165MOL0     C22655   7.195   9.351   9.136  0.6567  0.3680 -0.7441
  165MOL0     O22656   7.229   9.483   9.199  0.1022  0.7479 -0.0426
  165MOL0     C22657   7.314   9.557   9.122 -1.1948 -0.0638 -0.5251
  165MOL0     C22658   7.318   9.693   9.159  0.9055  0.0629 -0.1325
  165MOL0     C22659   7.397   9.785   9.098  0.2882  0.7260 -0.5709
  165MOL0     C22660   7.379   9.933   9.135 -0.1530  0.8656  0.7572
  165MOL0     C22661   7.485   9.747   8.999  0.2336  0.0355 -0.0134
  165MOL0     C22662   7.571   9.835   8.927 -0.5812  0.4793  0.8884
  165MOL0     O22663   7.548   9.842   8.797  0.3344 -0.0223  0.2684
  165MOL0     C22664   7.633   9.929   8.736  0.3113 -0.0368 -0.7551
  165MOL0     C22665   7.595  10.063   8.737 -1.4527 -0.7745 -1.0190
  165MOL0     C22666   7.683  10.160   8.674  0.2759  1.2084  0.4611
  165MOL0     C22667   7.813  10.117   8.626 -0.7656 -0.5066  0.4480
  165MOL0     O22668   7.900  10.195   8.554 -0.1393  0.5601  0.1517
  165MOL0     C22669   7.850  10.309   8.474  0.9653  0.3487  0.1174
  165MOL0     C22670   7.779  10.255   8.344 -0.0037 -0.4851 -0.3685
  165MOL0     C22671   7.870  10.183   8.246 -0.6282 -0.6622 -0.2689
  165MOL0     C22672   7.811  10.145   8.111 -0.2457  0.3647 -0.9780
  165MOL0     C22673   7.750  10.265   8.042 -0.6434 -0.6633  0.2100
  165MOL0     C22674   7.748  10.261   7.895  0.2775 -0.0759  1.6683
  165MOL0     C22675   7.882  10.302   7.819  0.0426  0.2239 -0.7722
  165MOL0     C22676   7.865  10.277   7.671  0.0013 -0.2275  0.4417
  165MOL0    Cl22677   8.016  10.308   7.590 -0.6913  0.1047  0.1981
  165MOL0     C22678   7.845   9.977   8.629 -0.2700 -0.8273  0.0908
  165MOL0     C22679   7.756   9.888   8.691 -1.0280 -0.7792  0.3639
  165MOL0     O22680   7.647   9.911   8.988 -0.0355 -0.0952 -0.2962
  165MOL0     C22681   7.492   9.608   8.962  0.9205  0.4012 -0.4475
  165MOL0     C22682   7.403   9.514   9.025 -0.5363  0.5835 -0.0686
  165MOL0     N22683   6.714   9.241   8.954  1.0546 -0.0446 -0.4893
  165MOL0     N22684   6.586   9.237   8.939  0.1787  0.9497  0.9388
  165MOL0     C22685   5.394   9.255   8.953 -0.2218  0.3857 -0.6639
  165MOL0     C22686   5.267   9.283   8.983  1.0057  0.1296 -0.0984
  165MOL0     C22687   4.855   9.428   8.984  0.4222 -0.0452  0.2854
  165MOL0     C22688   4.849   9.440   9.127  0.2074  0.7355 -0.8531
  165MOL0     C22689   4.728   9.463   9.197 -0.9719 -0.2459 -0.8575
  165MOL0     C22690   4.610   9.484   9.121  0.7427  0.2145 -0.6293
  165MOL0     O22691   4.493   9.491   9.190  0.3169  0.4936 -0.4701
  165MOL0     C22692   4.448   9.617   9.242 -0.3489  1.4040 -0.0648
  165MOL0     C22693   4.327   9.652   9.149  0.4904  0.2127 -0.1310
  165MOL0     C22694   4.219   9.543   9.107 -0.1900  0.2540  0.5819
  165MOL0     C22695   4.149   9.468   9.212 -0.3646 -0.3792 -0.3393
  165MOL0     C22696   4.020   9.523   9.256 -0.3888 -0.0177 -0.7400
  165MOL0     C22697   3.913   9.575   9.273  0.3756 -0.0263  0.7424
  165MOL0     C22698   4.613   9.493   8.981  0.1136 -0.0065 -0.0112
  165MOL0     C22699   4.730   9.456   8.912 -0.0165 -0.1848 -0.6253
  165MOL0     C22700   4.720   9.452   8.760  0.7079  0.5813 -0.2571
  165MOL0     H22701   5.242   9.551   8.765 -0.2978 -0.9731 -1.3597
  165MOL0     H22702   5.489   9.494   8.723  1.8603 -0.5340  2.1263
  165MOL0     H22703   5.671   9.294   9.022 -2.6976 -1.1468 -0.3119
  165MOL0     H22704   5.755   9.403   8.911  2.2557 -1.3723 -0.5707
  165MOL0     H22705   5.779   9.113   8.951  1.5438  0.6794  1.2650
  165MOL0     H22706   5.813   9.166   8.790 -3.1202 -1.8620  0.4539
  165MOL0     H22707   6.014   9.155   8.896 -3.0497 -1.2747  0.5779
  165MOL0     H22708   5.985   9.336   8.887 -1.8342  1.7822  1.5621
  165MOL0     H22709   5.909   9.337   9.126 -0.4536  0.1137 -0.7109
  165MOL0     H22710   5.926   9.162   9.145  0.1051 -0.8786  0.2490
  165MOL0     H22711   6.171   9.180   9.100 -0.7812 -0.7988  1.5225
  165MOL0     H22712   6.109   9.252   9.247  0.0837  0.7476  0.4667
  165MOL0     H22713   6.141   9.444   9.005 -1.3134 -1.6352 -0.2584
  165MOL0     H22714   6.128   9.480   9.172  0.3659 -1.0740  0.9309
  165MOL0     H22715   6.356   9.348   9.191 -1.6266  0.0841  0.5417
  165MOL0     H22716   6.332   9.521   9.143 -0.0809  1.7311 -1.0405
  165MOL0     H22717   6.342   9.296   8.922  1.1426  0.4749 -3.4593
  165MOL0     H22718   6.380   9.462   8.897  2.4533 -0.2763 -1.1327
  165MOL0     H22719   6.615   9.529   9.084  0.4776 -1.2878  1.3062
  165MOL0     H22720   6.886   9.502   9.046  1.6969  0.1347  1.6012
  165MOL0     H22721   6.963   9.353   8.990  1.7971 -2.2836  3.7803
  165MOL0     H22722   6.962   9.480   9.234  1.1278  1.1549 -2.4316
  165MOL0     H22723   6.881   9.324   9.272 -3.6458  0.3448 -2.2723
  165MOL0     H22724   7.095   9.279   9.309 -1.8222  0.1358 -0.0048
  165MOL0     H22725   7.063   9.192   9.159 -1.5445 -0.9782  2.5123
  165MOL0     H22726   7.275   9.278   9.143  0.5413  0.1989 -1.2082
  165MOL0     H22727   7.170   9.374   9.032 -3.9935  0.8398  0.2725
  165MOL0     H22728   7.262   9.724   9.247  0.3436 -0.1752 -0.4022
  165MOL0     H22729   7.474   9.967   9.178  0.9689 -1.8332  0.6032
  165MOL0     H22730   7.298   9.971   9.198  0.2294  4.6459 -0.7755
  165MOL0     H22731   7.355   9.979   9.039 -0.7772 -1.2916 -0.1752
  165MOL0     H22732   7.500  10.086   8.783 -0.4309 -0.8958  1.3061
  165MOL0     H22733   7.640  10.259   8.672  0.5964  1.3976 -2.6943
  165MOL0     H22734   7.787  10.369   8.540  0.7808 -0.4356  0.6734
  165MOL0     H22735   7.936  10.372   8.451  1.9355 -0.3438  1.7010
  165MOL0     H22736   7.697  10.188   8.371 -2.3848  2.6769  0.9454
  165MOL0     H22737   7.734  10.341   8.295 -3.0822 -1.3608  0.6809
  165MOL0     H22738   7.907  10.092   8.295  1.9752  1.3358  1.8406
  165MOL0     H22739   7.952  10.253   8.230 -1.3133  0.8708  2.3444
  165MOL0     H22740   7.739  10.063   8.122 -2.4234  1.9867 -2.1935
  165MOL0     H22741   7.899  10.113   8.054 -0.7836  1.8448 -2.7512
  165MOL0     H22742   7.643  10.255   8.065 -1.6155  2.9591 -1.9685
  165MOL0     H22743   7.785  10.363   8.074 -1.8751 -0.6091  1.5094
  165MOL0     H22744   7.677  10.339   7.867  1.1275  0.8960  2.1698
  165MOL0     H22745   7.715  10.160   7.869  0.1642  0.7917 -2.2195
  165MOL0     H22746   7.969  10.254   7.863 -0.3341 -0.5222 -0.8356
  165MOL0     H22747   7.885  10.407   7.849 -0.1738 -0.5832  2.4000
  165MOL0     H22748   7.786  10.344   7.633 -1.3436 -1.7572  0.4632
  165MOL0     H22749   7.835  10.173   7.665 -1.3858  0.1582  0.4158
  165MOL0     H22750   7.944   9.949   8.595  0.3314 -0.4399  1.4723
  165MOL0     H22751   7.779   9.783   8.708 -2.0931 -1.2025 -0.6437
  165MOL0     H22752   7.558   9.574   8.883 -0.0323 -0.5381 -0.8579
  165MOL0     H22753   7.409   9.409   9.000  0.0733  0.2789  1.2242
  165MOL0     H22754   5.437   9.170   9.005 -1.8095  0.1675  0.3761
  165MOL0     H22755   5.208   9.223   9.051  2.4598  1.4187  2.4785
  165MOL0     H22756   4.941   9.438   9.186  0.8616  3.4319 -1.6411
  165MOL0     H22757   4.729   9.462   9.305  0.1191  1.2510 -0.8303
  165MOL0     H22758   4.411   9.599   9.343 -2.5274 -2.3335 -1.3151
  165MOL0     H22759   4.528   9.690   9.229  1.0634 -0.4425 -2.4476
  165MOL0     H22760   4.371   9.694   9.058  0.6378  0.6980  0.1579
  165MOL0     H22761   4.270   9.731   9.199  0.7071  0.4863 -0.3069
  165MOL0     H22762   4.148   9.584   9.035 -1.7630 -3.5257 -0.2603
  165MOL0     H22763   4.281   9.466   9.059 -0.8671 -0.4881  0.8708
  165MOL0     H22764   4.211   9.456   9.301 -2.0158 -1.1677  0.7716
  165MOL0     H22765   4.121   9.369   9.175  1.6440 -1.7506  1.5777
  165MOL0     H22766   3.809   9.595   9.261  0.4018 -0.4256 -0.3226
  165MOL0     H22767   4.516   9.515   8.939 -1.0543 -1.4809  1.7279
  165MOL0     H22768   4.815   9.456   8.707 -1.3041  2.2436 -4.1361
  165MOL0     H22769   4.685   9.355   8.726  0.1237 -0.1652  2.2768
  165MOL0     H22770   4.656   9.534   8.726  0.2052  0.3947  0.2147
  166MOL0     O22771   6.311   8.212   3.079  0.6264  0.3086  0.2526
  166MOL0     C22772   6.420   8.214   3.028  0.4144  0.1541 -0.4082
  166MOL0     O22773   6.504   8.328   3.038  0.0606 -0.5595 -0.2344
  166MOL0     C22774   6.460   8.420   3.138 -0.4201  0.3309  0.3561
  166MOL0     C22775   6.454   8.402   3.282 -1.0587 -1.0845 -0.2126
  166MOL0     C22776   6.395   8.488   3.371  0.9704 -0.4432  1.3142
  166MOL0     C22777   6.342   8.604   3.320  0.3059 -0.9651 -0.2109
  166MOL0     O22778   6.268   8.694   3.390 -0.0824  0.5543  0.2402
  166MOL0     C22779   6.328   8.720   3.518  0.4035  0.2284  0.5444
  166MOL0     C22780   6.291   8.854   3.582  0.0300 -0.2750 -0.5645
  166MOL0     C22781   6.330   8.980   3.503 -0.5710  0.0542 -0.2961
  166MOL0     C22782   6.331   9.099   3.592 -0.2705 -0.6040 -0.3928
  166MOL0     C22783   6.360   9.222   3.507 -0.6765 -0.6893  0.2765
  166MOL0     C22784   6.354   9.348   3.598  0.3678  0.4322 -0.1041
  166MOL0     C22785   6.443   9.359   3.727  0.7210 -0.5935  0.2210
  166MOL0     C22786   6.431   9.491   3.795  1.0085 -0.3845  0.0408
  166MOL0     N22787   6.290   9.523   3.825 -0.9802  0.2506  0.1079
  166MOL0     C22788   6.214   9.482   3.932 -0.1989  0.7340  0.1346
  166MOL0     C22789   6.111   9.566   3.927 -0.1002  0.6177 -0.6610
  166MOL0     C22790   5.987   9.543   4.019 -0.3389 -0.5651  0.8639
  166MOL0     C22791   6.016   9.551   4.167  0.4019 -0.6163  0.4864
  166MOL0     C22792   6.061   9.690   4.221  1.5892  0.3077 -0.0729
  166MOL0     C22793   6.103   9.676   4.358 -0.6223 -0.4716 -0.2133
  166MOL0     O22794   6.184   9.801   4.365  0.1505  0.6523 -0.4564
  166MOL0     C22795   6.252   9.827   4.480  1.0216 -0.0974 -0.0729
  166MOL0     C22796   6.296   9.744   4.575  1.0149  0.6740 -0.6384
  166MOL0     C22797   6.353   9.791   4.695 -0.3540  0.6621 -0.0648
  166MOL0     C22798   6.394   9.689   4.793  0.3826  0.2398  0.1493
  166MOL0     C22799   6.360   9.928   4.724 -0.4643 -0.2046 -0.2413
  166MOL0     C22800   6.401   9.992   4.849  0.0126 -0.1812  0.3386
  166MOL0     O22801   6.376  10.126   4.855  0.0320  0.2858 -0.2951
  166MOL0     C22802   6.431  10.205   4.951  0.8125 -0.5079 -0.5369
  166MOL0     C22803   6.387  10.198   5.085  0.1680 -0.2168 -0.2950
  166MOL0     C22804   6.441  10.289   5.177  0.3545 -0.8970 -0.2192
  166MOL0     C22805   6.552  10.370   5.150  0.2163  0.8036 -0.7293
  166MOL0     O22806   6.615  10.445   5.243 -0.1927  0.5463 -0.1158
  166MOL0     C22807   6.554  10.503   5.357 -0.2037 -0.2771  0.4237
  166MOL0     C22808   6.531  10.652   5.358 -0.2353  1.0312  0.5220
  166MOL0     C22809   6.423  10.677   5.254 -0.6077 -1.3831 -0.0285
  166MOL0     C22810   6.435  10.834   5.216 -0.4632 -0.0729  0.8575
  166MOL0     C22811   6.414  10.939   5.327  0.0980  0.1326 -0.8090
  166MOL0     C22812   6.278  10.914   5.396  0.6551  1.1266 -0.1080
  166MOL0     C22813   6.226  11.030   5.483  0.9826 -0.4096 -0.3789
  166MOL0     C22814   6.190  10.996   5.631  0.8000 -0.5962 -0.3997
  166MOL0    Cl22815   6.304  10.898   5.730  0.5746  0.6916  0.0892
  166MOL0     C22816   6.589  10.373   5.020 -0.4516  0.6769  0.9671
  166MOL0     C22817   6.527  10.305   4.913 -0.6556  0.2585 -0.4704
  166MOL0     O22818   6.450   9.922   4.942 -0.3414  0.5086  0.1201
  166MOL0     C22819   6.312  10.011   4.617  0.1642 -0.0030  0.6740
  166MOL0     C22820   6.267   9.960   4.500  0.4329 -0.5053  0.3645
  166MOL0     N22821   6.114   9.656   3.825  0.0248  0.0251 -0.7075
  166MOL0     N22822   6.229   9.628   3.764  0.3993 -0.6862  0.5682
  166MOL0     C22823   6.356   8.642   3.186  0.2054  0.2941  0.0117
  166MOL0     C22824   6.410   8.545   3.095 -0.0165 -0.3132  0.5587
  166MOL0     C22825   6.458   8.100   2.939  0.5885  0.1615  0.0241
  166MOL0     C22826   6.564   8.129   2.849  0.3239 -0.0442 -0.0404
  166MOL0     C22827   6.617   8.037   2.765  0.6410 -0.4704  0.5666
  166MOL0     C22828   6.576   7.910   2.772  0.1050 -0.0533  1.2202
  166MOL0     O22829   6.635   7.823   2.686  0.0163  0.3578  1.4625
  166MOL0     C22830   6.620   7.677   2.707 -0.1825  0.7742  0.1927
  166MOL0     C22831   6.719   7.603   2.615 -0.1765 -0.3244  0.0360
  166MOL0     C22832   6.732   7.451   2.642 -0.4631 -0.4451 -0.1514
  166MOL0     C22833   6.872   7.405   2.656 -0.3729 -0.0639  0.2322
  166MOL0     C22834   6.954   7.410   2.535 -0.3340 -0.5674 -0.0816
  166MOL0     C22835   7.015   7.439   2.433 -0.6310 -0.0051  0.7182
  166MOL0     C22836   6.477   7.875   2.862  0.0483 -0.3025  1.0745
  166MOL0     C22837   6.418   7.968   2.950  0.5358  0.3469 -0.4605
  166MOL0     C22838   6.305   7.919   3.038 -0.3297 -0.7578  0.6292
  166MOL0     H22839   6.514   8.323   3.327 -0.4890 -1.0859 -0.9570
  166MOL0     H22840   6.376   8.462   3.475  0.1130  1.6377  1.7312
  166MOL0     H22841   6.436   8.711   3.502  0.9494 -0.7630  3.9897
  166MOL0     H22842   6.302   8.627   3.571 -2.6928 -1.3157 -3.1457
  166MOL0     H22843   6.185   8.854   3.606  0.6014  0.9508  2.4265
  166MOL0     H22844   6.338   8.864   3.681 -1.6219  0.5137  0.1767
  166MOL0     H22845   6.433   8.970   3.466 -1.1636  0.2575 -2.0976
  166MOL0     H22846   6.269   8.990   3.413  0.3900 -1.5275 -1.1747
  166MOL0     H22847   6.236   9.106   3.646  0.2805  0.0101  0.5276
  166MOL0     H22848   6.411   9.091   3.666  3.1034  0.3948 -3.6436
  166MOL0     H22849   6.287   9.243   3.429 -1.3887  0.4267  1.2097
  166MOL0     H22850   6.453   9.211   3.451 -1.4028  0.6683 -1.2617
  166MOL0     H22851   6.373   9.426   3.524  3.5350 -0.2562 -0.1613
  166MOL0     H22852   6.255   9.370   3.640  2.1328  3.2256  3.1113
  166MOL0     H22853   6.545   9.352   3.687 -0.2859 -2.2069 -2.2959
  166MOL0     H22854   6.428   9.276   3.798  0.2282  0.9623  2.0193
  166MOL0     H22855   6.486   9.485   3.889  0.9179 -0.3177  0.0982
  166MOL0     H22856   6.477   9.578   3.747  0.9278  0.8852  2.1454
  166MOL0     H22857   6.223   9.402   4.005  0.5512 -0.6944 -1.4566
  166MOL0     H22858   5.948   9.444   3.994 -1.3515  0.2291 -0.9342
  166MOL0     H22859   5.915   9.624   4.004 -1.5531 -1.5884  0.9776
  166MOL0     H22860   5.923   9.536   4.222  0.0946 -2.0111 -0.3469
  166MOL0     H22861   6.093   9.477   4.192  0.8007  0.3208  2.1311
  166MOL0     H22862   6.142   9.726   4.157  1.3164 -0.9788 -1.1741
  166MOL0     H22863   5.991   9.775   4.225  2.8302  1.3219  2.4026
  166MOL0     H22864   6.023   9.678   4.433  0.3586  3.4716  0.9283
  166MOL0     H22865   6.166   9.587   4.371  3.4906  2.2636  0.3823
  166MOL0     H22866   6.288   9.639   4.552  1.9494  0.3038  0.6153
  166MOL0     H22867   6.496   9.694   4.832  0.3089 -1.7832  0.7114
  166MOL0     H22868   6.381   9.589   4.750  2.6712  0.8118 -2.1072
  166MOL0     H22869   6.329   9.695   4.881 -0.9126  0.5432 -0.8006
  166MOL0     H22870   6.317  10.119   5.110  1.7709 -1.3493  0.7574
  166MOL0     H22871   6.403  10.286   5.279  1.1124 -2.2014  0.0528
  166MOL0     H22872   6.464  10.449   5.386  0.1973 -0.4594  1.3778
  166MOL0     H22873   6.621  10.484   5.442  0.8242 -0.0184 -0.3110
  166MOL0     H22874   6.497  10.686   5.456  0.4340  0.6506  0.8953
  166MOL0     H22875   6.622  10.708   5.333  0.6349  0.5634  2.3897
  166MOL0     H22876   6.327  10.661   5.304 -2.9056  2.3297 -2.6619
  166MOL0     H22877   6.443  10.616   5.165  2.1385 -1.2248  0.3768
  166MOL0     H22878   6.358  10.848   5.139  0.2959 -1.1533 -0.1407
  166MOL0     H22879   6.536  10.845   5.176  0.4986 -4.2673  1.6497
  166MOL0     H22880   6.485  10.907   5.404 -1.4578 -1.8556 -0.1211
  166MOL0     H22881   6.424  11.047   5.308  0.2484  0.3336  0.3025
  166MOL0     H22882   6.279  10.819   5.451  1.1819  0.1199 -1.7868
  166MOL0     H22883   6.206  10.910   5.314  2.8609  1.2604 -2.1654
  166MOL0     H22884   6.138  11.078   5.439  2.1650  1.9021 -0.3510
  166MOL0     H22885   6.303  11.106   5.496  3.8495 -3.2882  1.0030
  166MOL0     H22886   6.109  10.927   5.606  1.9990 -1.8526 -1.0107
  166MOL0     H22887   6.170  11.091   5.681  3.7121  0.3056 -0.7560
  166MOL0     H22888   6.665  10.443   4.988  0.9765 -0.6863  1.2367
  166MOL0     H22889   6.568  10.322   4.814  0.7647 -0.2987 -0.0120
  166MOL0     H22890   6.304  10.119   4.619  0.2326 -0.0014  1.4092
  166MOL0     H22891   6.225  10.026   4.424 -0.2501 -0.1560  1.0297
  166MOL0     H22892   6.319   8.738   3.149 -0.9416  1.0159  2.7423
  166MOL0     H22893   6.399   8.557   2.988 -0.3795  1.0612  0.7296
  166MOL0     H22894   6.587   8.235   2.840 -3.7086  1.1116  1.1136
  166MOL0     H22895   6.702   8.063   2.703  1.0058  0.0244  1.2608
  166MOL0     H22896   6.667   7.658   2.804  0.8281 -1.4828 -0.6596
  166MOL0     H22897   6.520   7.634   2.703 -1.5533  3.7192 -0.1465
  166MOL0     H22898   6.816   7.652   2.614  1.2206 -2.8774 -1.4570
  166MOL0     H22899   6.692   7.618   2.510 -0.1232 -1.7085 -0.1918
  166MOL0     H22900   6.682   7.430   2.737 -0.1206 -0.1842  0.0909
  166MOL0     H22901   6.683   7.389   2.566  1.3630 -2.4977  0.2372
  166MOL0     H22902   6.869   7.311   2.711 -2.5518  0.2016  0.6768
  166MOL0     H22903   6.920   7.477   2.723  5.2625  0.9501 -4.1033
  166MOL0     H22904   7.063   7.456   2.339 -0.6452  1.3419  0.9329
  166MOL0     H22905   6.429   7.779   2.842 -1.3384  1.0614 -3.2225
  166MOL0     H22906   6.215   7.931   2.976 -0.7386 -0.0232  1.3311
  166MOL0     H22907   6.314   7.818   3.079  0.4386  0.0538  2.6144
  166MOL0     H22908   6.288   7.987   3.123 -0.6279  1.4227 -1.0796
  167MOL0     O22909   8.876   9.164   8.847  0.7739  0.0287 -0.0054
  167MOL0     C22910   8.959   9.220   8.920 -0.6033  0.8668  0.6160
  167MOL0     O22911   8.937   9.309   9.018  0.4771  0.1336  0.3149
  167MOL0     C22912   8.809   9.361   9.020 -0.1269  0.6836  0.4380
  167MOL0     C22913   8.720   9.336   9.123  0.2776  0.4893 -0.6625
  167MOL0     C22914   8.591   9.382   9.122 -0.0464 -0.5069  0.5616
  167MOL0     C22915   8.550   9.458   9.007 -0.3351 -0.9856 -0.2739
  167MOL0     O22916   8.435   9.524   8.982  0.1156  0.3502 -0.2164
  167MOL0     C22917   8.373   9.569   9.108 -0.2986 -0.5715  0.1984
  167MOL0     C22918   8.300   9.710   9.088 -0.1778 -0.0579  0.0701
  167MOL0     C22919   8.389   9.827   9.023 -0.2153  0.2616 -0.5485
  167MOL0     C22920   8.447   9.805   8.887  0.1506 -0.7283 -0.0249
  167MOL0     C22921   8.489   9.938   8.839  0.5084  0.2478  0.6057
  167MOL0     C22922   8.542   9.920   8.697 -0.7842 -0.2150  0.0852
  167MOL0     C22923   8.633   9.810   8.656  0.4625  0.5101 -0.6397
  167MOL0     C22924   8.761   9.835   8.717  0.2209 -0.5670 -0.9569
  167MOL0     N22925   8.878   9.778   8.649 -0.7925  0.7950  0.4391
  167MOL0     C22926   8.915   9.780   8.519 -0.7284  1.1139  0.4927
  167MOL0     C22927   9.017   9.698   8.517 -0.3089 -0.3084 -0.3703
  167MOL0     C22928   9.102   9.661   8.397  0.3694 -0.8570  0.2600
  167MOL0     C22929   9.150   9.786   8.325  0.5636 -0.6211  0.7665
  167MOL0     C22930   9.226   9.741   8.200 -0.2146  0.0750  1.1103
  167MOL0     C22931   9.314   9.847   8.132  0.9373 -0.4069 -0.2492
  167MOL0     O22932   9.369   9.797   8.010  0.1962  0.5821 -0.2262
  167MOL0     C22933   9.463   9.866   7.937 -0.2211  0.6973  0.1482
  167MOL0     C22934   9.547   9.973   7.984  0.0114  0.3098 -0.6556
  167MOL0     C22935   9.639  10.042   7.899 -0.0889 -0.2595  0.1740
  167MOL0     C22936   9.711  10.155   7.978 -0.4358 -0.3325  0.3550
  167MOL0     C22937   9.661   9.996   7.766  0.7563  0.1309 -0.1152
  167MOL0     C22938   9.758  10.068   7.682  0.4241  0.8461 -0.0162
  167MOL0     O22939   9.718  10.193   7.648  0.0058  0.6799  0.3496
  167MOL0     C22940   9.778  10.251   7.540 -0.7607  0.4152 -1.0388
  167MOL0     C22941   9.856  10.362   7.554  0.9182 -0.4090  0.0783
  167MOL0     C22942   9.902  10.433   7.444 -0.3231  0.2243  0.1301
  167MOL0     C22943   9.887  10.385   7.311 -0.3284  0.2008  0.1079
  167MOL0     O22944   9.948  10.447   7.203 -0.7148 -0.0390  0.9818
  167MOL0     C22945   9.972  10.372   7.074  0.6386  0.7022 -0.5112
  167MOL0     C22946  10.051  10.451   6.975 -0.4261 -0.0875  0.2207
  167MOL0     C22947   9.966  10.543   6.870  0.2923 -0.5586  0.1378
  167MOL0     C22948  10.050  10.580   6.752 -0.8732 -0.2684  0.9959
  167MOL0     C22949   9.987  10.683   6.645  0.1910 -0.6402  0.5615
  167MOL0     C22950  10.092  10.721   6.535  0.7973 -0.0255  0.0776
  167MOL0     C22951  10.029  10.831   6.439  0.4515  0.1808 -0.9969
  167MOL0     C22952  10.103  10.827   6.305  0.1125  0.4658 -0.3106
  167MOL0    Cl22953  10.268  10.912   6.335  0.1320  0.2356 -0.1922
  167MOL0     C22954   9.812  10.261   7.299 -0.3335  0.0297 -0.0215
  167MOL0     C22955   9.751  10.206   7.412 -0.2887 -0.4770 -0.4896
  167MOL0     O22956   9.856  10.006   7.641  0.0478  0.9308  0.3306
  167MOL0     C22957   9.577   9.889   7.718 -0.0100 -0.3028 -0.0959
  167MOL0     C22958   9.490   9.824   7.801  0.6963  0.3244  0.9123
  167MOL0     N22959   9.042   9.652   8.642  0.3728  0.1130  0.3732
  167MOL0     N22960   8.966   9.708   8.714  0.1599 -0.3429 -0.3473
  167MOL0     C22961   8.642   9.477   8.904 -0.2068  0.4551 -0.6611
  167MOL0     C22962   8.773   9.439   8.914  0.3887 -0.2865 -0.2897
  167MOL0     C22963   9.095   9.150   8.925  0.3729 -0.6622 -0.5187
  167MOL0     C22964   9.162   9.128   9.054 -0.2829  0.4411  0.4147
  167MOL0     C22965   9.294   9.093   9.063  0.4089  0.5537 -0.0318
  167MOL0     C22966   9.363   9.056   8.946 -0.0947 -0.7379 -0.9932
  167MOL0     O22967   9.487   9.002   8.965 -0.9771 -1.2584  0.5805
  167MOL0     C22968   9.571   8.944   8.859  0.5813  0.0192 -0.5164
  167MOL0     C22969   9.660   9.053   8.803 -0.3211  0.0282 -0.0528
  167MOL0     C22970   9.753   9.014   8.686  0.4111 -0.3643  0.0779
  167MOL0     C22971   9.898   8.994   8.728 -0.0371  0.2845  0.7482
  167MOL0     C22972   9.955   8.919   8.609 -0.5642 -0.1446 -0.2116
  167MOL0     C22973   9.996   8.859   8.513  0.1826 -0.2967  0.1453
  167MOL0     C22974   9.307   9.067   8.827 -0.1417 -0.0089 -1.3287
  167MOL0     C22975   9.171   9.112   8.815 -0.3230  0.2743 -0.4226
  167MOL0     C22976   9.123   9.131   8.679 -0.7510 -0.3119 -0.8230
  167MOL0     H22977   8.744   9.285   9.215 -1.6477  0.2676 -0.2491
  167MOL0     H22978   8.528   9.357   9.207 -2.4471 -0.9811 -1.2462
  167MOL0     H22979   8.440   9.579   9.193 -0.8465  3.8393  0.3705
  167MOL0     H22980   8.295   9.497   9.134 -1.3020  0.6978  0.8194
  167MOL0     H22981   8.206   9.699   9.035 -0.3965  1.2458  0.1588
  167MOL0     H22982   8.268   9.745   9.187  1.5985 -0.7248  0.9332
  167MOL0     H22983   8.314   9.903   9.002 -0.5711 -0.6297 -2.7389
  167MOL0     H22984   8.469   9.860   9.090  0.0489 -1.7179  0.1755
  167MOL0     H22985   8.537   9.745   8.904 -1.1299 -2.0751  2.6907
  167MOL0     H22986   8.363   9.766   8.828 -0.6842  0.0453  0.6126
  167MOL0     H22987   8.568   9.975   8.906  1.4558 -1.1729  0.3281
  167MOL0     H22988   8.412  10.015   8.830 -0.3743 -0.6174  0.6475
  167MOL0     H22989   8.459   9.908   8.627  0.7198 -2.4060 -1.4765
  167MOL0     H22990   8.587  10.017   8.677 -1.9330  0.5746  1.1622
  167MOL0     H22991   8.648   9.815   8.547 -0.0306 -0.2168 -0.7464
  167MOL0     H22992   8.607   9.711   8.692 -2.2932  1.4551  0.1886
  167MOL0     H22993   8.771   9.944   8.717 -1.0653 -0.4172  0.2932
  167MOL0     H22994   8.759   9.809   8.823  0.7175  0.5696 -0.6483
  167MOL0     H22995   8.873   9.844   8.442  0.8530  1.5484 -0.0617
  167MOL0     H22996   9.042   9.602   8.328 -2.5506 -1.2654  2.9492
  167MOL0     H22997   9.190   9.604   8.429  2.5271  0.3757 -2.9149
  167MOL0     H22998   9.074   9.857   8.290  1.8598 -0.4457 -1.9718
  167MOL0     H22999   9.220   9.847   8.381 -0.2220 -1.6775  3.0332
  167MOL0     H23000   9.283   9.649   8.214 -1.5870 -1.1459 -0.8124
  167MOL0     H23001   9.151   9.711   8.126  0.8301  0.7292 -0.2605
  167MOL0     H23002   9.255   9.936   8.108  1.2245  0.1852  1.1338
  167MOL0     H23003   9.398   9.879   8.195  0.9268 -1.7633  0.4749
  167MOL0     H23004   9.530  10.022   8.079 -2.3022  0.1590 -0.9433
  167MOL0     H23005   9.727  10.124   8.081 -0.8141  1.7399  1.0831
  167MOL0     H23006   9.646  10.244   7.980  0.7945  0.6172 -0.2968
  167MOL0     H23007   9.802  10.183   7.925 -1.0194 -1.4605 -1.3266
  167MOL0     H23008   9.880  10.394   7.654 -0.7281  0.8643  0.1251
  167MOL0     H23009   9.952  10.528   7.458 -2.6665  1.8041 -1.5638
  167MOL0     H23010  10.024  10.280   7.101 -0.1941  0.7069  1.2582
  167MOL0     H23011   9.883  10.342   7.018  0.2447  2.1639 -0.7016
  167MOL0     H23012  10.127  10.506   7.030 -2.6000 -0.2327  3.7491
  167MOL0     H23013  10.096  10.380   6.905 -1.7643  0.7214 -1.5239
  167MOL0     H23014   9.933  10.629   6.928 -1.7283 -1.0251 -0.2562
  167MOL0     H23015   9.872  10.497   6.839  0.9619 -2.4019  0.6687
  167MOL0     H23016  10.081  10.490   6.698 -2.0980  0.5713 -1.2472
  167MOL0     H23017  10.147  10.614   6.788  1.1048 -2.5351 -1.7348
  167MOL0     H23018   9.892  10.653   6.600  0.3195 -1.6566  0.9392
  167MOL0     H23019   9.950  10.767   6.704 -1.7170 -1.2949  0.3737
  167MOL0     H23020  10.122  10.634   6.477  2.5422  0.2717  0.4916
  167MOL0     H23021  10.179  10.771   6.578 -0.9319  4.2713 -0.8951
  167MOL0     H23022  10.043  10.933   6.477 -0.4615  0.2315 -0.7645
  167MOL0     H23023   9.922  10.816   6.418  0.4626  1.0441 -1.7220
  167MOL0     H23024  10.035  10.872   6.232  0.1498 -0.5576 -0.9855
  167MOL0     H23025  10.125  10.723   6.280  1.1539  0.4597  0.5308
  167MOL0     H23026   9.790  10.218   7.202 -0.9863  0.6031 -0.1330
  167MOL0     H23027   9.689  10.119   7.395  1.0213 -1.8308  1.2786
  167MOL0     H23028   9.590   9.840   7.622 -1.1700  1.2311 -1.0670
  167MOL0     H23029   9.420   9.748   7.767 -1.6009  2.3550  0.8806
  167MOL0     H23030   8.611   9.550   8.830  1.9158  4.9057  2.3915
  167MOL0     H23031   8.840   9.456   8.831 -1.2226 -4.0027 -2.6612
  167MOL0     H23032   9.113   9.157   9.146  2.5297 -0.7684  2.4347
  167MOL0     H23033   9.347   9.077   9.156 -1.3558 -0.5783  0.8375
  167MOL0     H23034   9.644   8.871   8.895 -2.1361 -1.7436  1.8437
  167MOL0     H23035   9.520   8.919   8.766  2.9614  1.8875 -2.4926
  167MOL0     H23036   9.721   9.090   8.886 -0.9271 -1.1512  0.9491
  167MOL0     H23037   9.593   9.132   8.769 -2.0927  1.0460  4.9985
  167MOL0     H23038   9.719   8.922   8.637  1.8341 -0.7152 -0.2997
  167MOL0     H23039   9.753   9.095   8.613 -1.9380  1.4005  1.8954
  167MOL0     H23040   9.898   8.928   8.815 -4.6519 -0.7279  0.2256
  167MOL0     H23041   9.957   9.086   8.736  2.2387 -0.6335 -3.0556
  167MOL0     H23042  10.019   8.795   8.430  0.5233 -0.1868  0.1527
  167MOL0     H23043   9.367   9.040   8.740 -0.3795  0.3798 -1.6159
  167MOL0     H23044   9.024   9.090   8.656 -0.9811  0.7562 -1.8080
  167MOL0     H23045   9.107   9.238   8.665  2.3688  0.3065 -0.5126
  167MOL0     H23046   9.206   9.104   8.613  2.2879 -1.2722  3.0158
  168MOL0     O23047  10.299   7.658   3.267  0.6845 -0.3682  0.4882
  168MOL0     C23048  10.296   7.781   3.294  0.0062  0.7483 -0.8049
  168MOL0     O23049  10.223   7.881   3.242  0.0667 -0.3317  0.3005
  168MOL0     C23050  10.121   7.847   3.170 -0.6279 -1.0033  0.6188
  168MOL0     C23051  10.002   7.795   3.228  0.1343  1.0102  0.3601
  168MOL0     C23052   9.887   7.775   3.142  0.0091 -0.5621 -0.4337
  168MOL0     C23053   9.884   7.799   3.008 -0.3870 -0.3890 -0.0248
  168MOL0     O23054   9.760   7.788   2.955 -0.7878 -0.2285  0.5978
  168MOL0     C23055   9.739   7.653   2.923 -0.7312 -0.0198  0.7122
  168MOL0     C23056   9.624   7.580   3.003 -0.4893  0.2274 -0.8889
  168MOL0     C23057   9.477   7.641   2.984 -0.1211  0.1276 -0.7502
  168MOL0     C23058   9.385   7.573   3.086  0.0493 -0.2322  0.4977
  168MOL0     C23059   9.239   7.542   3.046  1.1345 -0.2265 -0.6638
  168MOL0     C23060   9.141   7.537   3.171  0.0480  0.5320 -0.3635
  168MOL0     C23061   9.181   7.426   3.267  0.5140 -0.2098  0.7440
  168MOL0     C23062   9.086   7.398   3.380  0.7464 -0.6194  0.3689
  168MOL0     N23063   9.111   7.273   3.458  1.3781  0.1893  0.2663
  168MOL0     C23064   9.209   7.179   3.450 -0.1847 -0.3579  0.1304
  168MOL0     C23065   9.194   7.101   3.560 -0.3290 -0.7542 -0.0618
  168MOL0     C23066   9.274   6.986   3.610 -0.5298 -0.7058  0.3371
  168MOL0     C23067   9.404   6.965   3.536  0.0652 -0.4036 -0.5864
  168MOL0     C23068   9.390   6.910   3.392 -0.7276  0.3615 -0.4366
  168MOL0     C23069   9.517   6.848   3.340 -0.4464  0.4656 -0.3785
  168MOL0     O23070   9.596   6.950   3.290 -0.6672 -0.2596  0.2015
  168MOL0     C23071   9.727   6.929   3.249 -0.1143  0.3641  0.0082
  168MOL0     C23072   9.793   6.807   3.241  0.1386  0.1654 -0.9228
  168MOL0     C23073   9.930   6.808   3.194  0.1378 -0.0434 -0.4900
  168MOL0     C23074   9.989   6.676   3.202  0.1034 -0.5428 -0.0283
  168MOL0     C23075   9.995   6.919   3.140  0.3791 -0.1821 -0.0956
  168MOL0     C23076  10.120   6.917   3.052 -0.6672 -0.6625  0.2595
  168MOL0     O23077  10.179   7.034   3.049  0.2538  0.3176 -0.0112
  168MOL0     C23078  10.314   7.073   3.021  0.3040 -0.6034  0.1078
  168MOL0     C23079  10.335   7.213   3.013  0.3918  0.3350 -0.3362
  168MOL0     C23080  10.469   7.270   2.993  0.2786 -0.3002 -0.4377
  168MOL0     C23081  10.574   7.185   2.961 -0.1667  0.7498  0.7403
  168MOL0     O23082  10.694   7.252   2.960 -0.3809 -0.4368 -0.1432
  168MOL0     C23083  10.800   7.177   3.014 -0.1446  0.6524  0.1124
  168MOL0     C23084  10.924   7.272   3.016 -0.0281  0.4484 -1.7266
  168MOL0     C23085  11.047   7.197   3.065 -0.3282  0.7975 -1.2618
  168MOL0     C23086  11.108   7.108   2.957  1.0522 -0.2548 -0.3617
  168MOL0     C23087  11.175   6.980   2.998  0.1060 -0.7312 -0.2552
  168MOL0     C23088  11.094   6.863   3.052  0.1466 -0.2340  0.3407
  168MOL0     C23089  11.156   6.740   3.115  0.7523 -0.5495  0.3927
  168MOL0     C23090  11.044   6.662   3.189  0.0021 -0.0913 -1.0593
  168MOL0    Cl23091  10.892   6.638   3.098 -0.0834 -0.1365  0.2441
  168MOL0     C23092  10.549   7.037   2.954 -0.3906  0.2743  0.5886
  168MOL0     C23093  10.419   6.985   2.988 -0.3147 -0.0840  0.0115
  168MOL0     O23094  10.167   6.810   3.009 -0.4324 -0.2587 -0.7375
  168MOL0     C23095   9.928   7.039   3.161  0.6160  0.2647 -0.2933
  168MOL0     C23096   9.794   7.038   3.212  0.2626 -1.0419  1.0269
  168MOL0     N23097   9.078   7.149   3.624 -0.3296 -0.4596  0.1726
  168MOL0     N23098   9.037   7.256   3.568  0.2929 -0.0776  0.8071
  168MOL0     C23099  10.008   7.837   2.953 -0.5277 -0.3617  0.4308
  168MOL0     C23100  10.121   7.869   3.033  0.2931  0.3754 -0.1119
  168MOL0     C23101  10.407   7.818   3.382 -0.3706  0.7330  0.5588
  168MOL0     C23102  10.528   7.850   3.319  0.4589 -0.2753  1.0063
  168MOL0     C23103  10.649   7.864   3.393 -0.5104  0.6610  0.6768
  168MOL0     C23104  10.652   7.859   3.532  0.3222 -0.2073  0.4569
  168MOL0     O23105  10.779   7.855   3.585 -1.3783  0.4832  0.2101
  168MOL0     C23106  10.811   7.903   3.713  0.5442 -0.5961 -0.8605
  168MOL0     C23107  10.786   7.808   3.823 -0.4456 -0.3437  0.1094
  168MOL0     C23108  10.865   7.677   3.805 -0.0223 -0.5866  0.2343
  168MOL0     C23109  10.844   7.591   3.915 -0.5651  0.1599 -0.1050
  168MOL0     C23110  10.936   7.480   3.924 -0.0151  0.5222 -0.7211
  168MOL0     C23111  11.005   7.380   3.911 -0.5310  0.3411 -0.0493
  168MOL0     C23112  10.526   7.840   3.596 -0.1346 -0.0806 -0.1265
  168MOL0     C23113  10.409   7.819   3.521 -0.1621 -0.2151  0.3772
  168MOL0     C23114  10.284   7.799   3.595 -0.2726 -0.1976 -0.4704
  168MOL0     H23115  10.009   7.773   3.334  4.6893  0.8447  0.2465
  168MOL0     H23116   9.793   7.741   3.185  0.2928  1.7366  2.2670
  168MOL0     H23117   9.834   7.599   2.929 -0.8792 -0.2475  1.0600
  168MOL0     H23118   9.709   7.659   2.819  2.7012 -1.5067 -0.5195
  168MOL0     H23119   9.613   7.474   2.978 -0.9279 -0.5178  2.0168
  168MOL0     H23120   9.649   7.581   3.110 -1.1461  0.1324 -0.7284
  168MOL0     H23121   9.473   7.747   3.012 -1.5845 -0.2069  0.4656
  168MOL0     H23122   9.446   7.620   2.881 -0.3009 -1.9733 -0.3137
  168MOL0     H23123   9.440   7.480   3.101 -2.0998 -1.4209  1.6387
  168MOL0     H23124   9.385   7.633   3.178 -3.6471 -1.8443  1.7790
  168MOL0     H23125   9.240   7.446   2.995 -1.9894 -1.4614  1.3118
  168MOL0     H23126   9.198   7.621   2.982  1.6854 -0.5250 -1.3937
  168MOL0     H23127   9.148   7.625   3.236  1.9889  0.8280 -0.8880
  168MOL0     H23128   9.038   7.523   3.139 -0.5111  0.2367  1.4343
  168MOL0     H23129   9.281   7.452   3.302  1.2701 -0.5146 -1.0632
  168MOL0     H23130   9.208   7.336   3.211  2.2399  0.9743 -0.3898
  168MOL0     H23131   9.087   7.492   3.435  0.9972 -0.2474 -0.2647
  168MOL0     H23132   8.989   7.382   3.333  1.3270  1.6253 -1.7951
  168MOL0     H23133   9.300   7.185   3.392 -0.1592  1.7865  0.3251
  168MOL0     H23134   9.219   6.893   3.597 -1.1713 -0.4265  0.9666
  168MOL0     H23135   9.305   7.009   3.713  2.7182  0.6555 -0.8124
  168MOL0     H23136   9.458   7.060   3.536 -1.4807  0.5755  1.6780
  168MOL0     H23137   9.460   6.892   3.596 -1.2369 -0.2802  0.8454
  168MOL0     H23138   9.303   6.844   3.396 -1.6664  1.6034  2.8280
  168MOL0     H23139   9.368   6.993   3.324 -0.8321  3.0490  2.6393
  168MOL0     H23140   9.556   6.781   3.417 -2.0331 -0.0318  0.0384
  168MOL0     H23141   9.491   6.790   3.251 -0.9696  3.8002 -2.5453
  168MOL0     H23142   9.741   6.716   3.270 -4.8585  1.4933 -4.3060
  168MOL0     H23143   9.954   6.616   3.287  0.8660 -0.7613  0.1431
  168MOL0     H23144  10.098   6.668   3.206 -0.0051 -1.5570  1.8112
  168MOL0     H23145   9.967   6.616   3.113 -0.8875  1.2913 -1.0667
  168MOL0     H23146  10.256   7.286   3.027  0.1730  0.1140 -0.4114
  168MOL0     H23147  10.485   7.376   3.011  0.1252 -0.4410  0.5994
  168MOL0     H23148  10.790   7.137   3.116  1.9979  0.9573  0.4870
  168MOL0     H23149  10.821   7.101   2.938  2.0047 -0.2378  1.4932
  168MOL0     H23150  10.941   7.320   2.919 -0.8782 -2.3227 -3.3598
  168MOL0     H23151  10.911   7.360   3.080 -0.7564  2.1610 -4.0654
  168MOL0     H23152  11.009   7.132   3.145 -4.2210  3.1285 -0.9469
  168MOL0     H23153  11.126   7.258   3.111  0.2336 -1.2045  0.5913
  168MOL0     H23154  11.178   7.171   2.901 -0.5755  2.6500  0.6302
  168MOL0     H23155  11.026   7.084   2.888  0.4639  1.4936 -0.3276
  168MOL0     H23156  11.216   6.928   2.911  2.1369  0.1830  0.1109
  168MOL0     H23157  11.262   7.001   3.061 -2.7790 -1.0601  4.3950
  168MOL0     H23158  11.046   6.820   2.963  1.8277  1.9893 -1.7671
  168MOL0     H23159  11.020   6.899   3.124  0.5316 -3.1107  2.3280
  168MOL0     H23160  11.225   6.770   3.194  2.5769 -0.9460 -0.9735
  168MOL0     H23161  11.206   6.666   3.052  2.2945 -0.0560  0.9654
  168MOL0     H23162  11.011   6.715   3.278 -2.2081 -1.4987 -0.9579
  168MOL0     H23163  11.079   6.569   3.235 -1.8802  0.9937  2.9379
  168MOL0     H23164  10.622   6.960   2.932 -2.7744 -2.1155  0.5433
  168MOL0     H23165  10.390   6.885   2.957  0.6030 -0.9960  1.9217
  168MOL0     H23166   9.982   7.129   3.132  3.7468 -1.2873  0.3026
  168MOL0     H23167   9.738   7.131   3.208 -0.6041 -1.5126  1.9133
  168MOL0     H23168  10.005   7.849   2.845  0.6621  1.4512  0.5705
  168MOL0     H23169  10.215   7.914   3.001 -0.1949  1.5854  0.1111
  168MOL0     H23170  10.533   7.867   3.212  2.0486  0.3769  1.1499
  168MOL0     H23171  10.743   7.873   3.340  0.3549 -5.8141  0.3242
  168MOL0     H23172  10.913   7.935   3.691 -0.6756  1.3364 -4.4841
  168MOL0     H23173  10.760   7.998   3.730  1.9286  0.6628 -3.2238
  168MOL0     H23174  10.678   7.794   3.836 -0.6682  0.7229 -0.4854
  168MOL0     H23175  10.821   7.854   3.916 -0.5281 -0.2044  0.0713
  168MOL0     H23176  10.826   7.627   3.716  0.3235  0.3584 -0.4582
  168MOL0     H23177  10.971   7.700   3.795 -0.2418  0.8113  0.9073
  168MOL0     H23178  10.741   7.553   3.915 -0.5270 -0.1174 -2.6878
  168MOL0     H23179  10.867   7.654   4.001  1.1149  2.2103 -1.9456
  168MOL0     H23180  11.076   7.300   3.905  0.1190  0.6719  2.3250
  168MOL0     H23181  10.530   7.824   3.703  0.8454 -0.9409 -0.2717
  168MOL0     H23182  10.245   7.892   3.638 -0.2773 -1.5663  2.7583
  168MOL0     H23183  10.213   7.757   3.524  0.4367  2.9248 -3.2774
  168MOL0     H23184  10.301   7.725   3.674  0.5818 -0.5190 -0.9405
  169MOL0     O23185  10.993   0.325   4.597 -0.0813  0.1206  0.6025
  169MOL0     C23186  11.043   0.398   4.505 -0.5910  0.6858 -1.1907
  169MOL0     O23187  10.990   0.424   4.384 -0.7609  0.1881 -0.0916
  169MOL0     C23188  10.864   0.375   4.353 -0.1635  0.6685  0.0264
  169MOL0     C23189  10.770   0.281   4.402 -0.5452  0.6700  0.4936
  169MOL0     C23190  10.644   0.260   4.347 -0.0358 -0.4569  1.1061
  169MOL0     C23191  10.614   0.329   4.224 -0.8826  0.3632 -0.1630
  169MOL0     O23192  10.494   0.306   4.151  0.7572  0.5937 -0.8574
  169MOL0     C23193  10.396   0.228   4.219  0.5878 -0.0078  0.0755
  169MOL0     C23194  10.298   0.175   4.122 -0.5550 -0.1761 -0.7657
  169MOL0     C23195  10.219   0.277   4.032 -0.0852 -0.1490  0.6708
  169MOL0     C23196  10.124   0.206   3.959 -0.6562 -0.0384 -0.8182
  169MOL0     C23197  10.081   0.301   3.845  0.2409 -0.2742 -0.9642
  169MOL0     C23198   9.971   0.242   3.764  1.4004  0.3968 -0.3844
  169MOL0     C23199  10.028   0.167   3.647 -0.2404 -0.2212 -0.3168
  169MOL0     C23200   9.922   0.074   3.585  0.0237  0.1604 -0.3979
  169MOL0     N23201   9.906  -0.064   3.658  0.2566  0.6315 -0.2008
  169MOL0     C23202   9.977  -0.183   3.644 -0.6209  0.3116 -0.4292
  169MOL0     C23203   9.908  -0.268   3.721 -0.3887 -0.3895 -0.7241
  169MOL0     C23204   9.928  -0.425   3.718  0.2004 -1.0612  0.2441
  169MOL0     C23205   9.943  -0.481   3.868 -0.2179 -0.0880 -0.0105
  169MOL0     C23206   9.930  -0.627   3.880 -0.7833  0.9319  1.0283
  169MOL0     C23207   9.913  -0.684   4.028 -0.1143 -0.1739  0.8882
  169MOL0     O23208   9.778  -0.652   4.065  0.9763 -0.3678 -0.6578
  169MOL0     C23209   9.677  -0.667   3.979 -1.4382  0.3640 -0.4797
  169MOL0     C23210   9.658  -0.778   3.906  0.1616 -0.4868  0.7495
  169MOL0     C23211   9.536  -0.806   3.825 -0.4856 -0.1629  0.2819
  169MOL0     C23212   9.530  -0.931   3.737  0.0213 -0.3173  0.6066
  169MOL0     C23213   9.433  -0.710   3.838  0.6088 -0.4350  0.1893
  169MOL0     C23214   9.302  -0.742   3.771  0.5664 -0.2227  0.6855
  169MOL0     O23215   9.288  -0.693   3.646  0.0790  0.0483 -0.7285
  169MOL0     C23216   9.171  -0.693   3.564  0.2862 -1.3626  0.0472
  169MOL0     C23217   9.141  -0.810   3.499 -1.1084 -0.2424 -0.3355
  169MOL0     C23218   9.032  -0.820   3.411 -0.2613 -0.3441  0.1656
  169MOL0     C23219   8.950  -0.711   3.393  0.1284  0.4562  0.1877
  169MOL0     O23220   8.852  -0.715   3.296 -1.1562  0.4178 -0.3151
  169MOL0     C23221   8.753  -0.806   3.306  0.4299  0.3877  0.4333
  169MOL0     C23222   8.733  -0.851   3.158  0.4641  0.5416  0.0054
  169MOL0     C23223   8.588  -0.888   3.145 -0.3530 -0.3756  0.3293
  169MOL0     C23224   8.547  -0.976   3.029  0.1540  0.3952 -0.0589
  169MOL0     C23225   8.580  -0.920   2.890  1.8004  0.7275 -0.5000
  169MOL0     C23226   8.523  -0.779   2.852 -0.2182  1.7909 -0.8050
  169MOL0     C23227   8.590  -0.723   2.729  0.6137  1.0690 -0.2876
  169MOL0     C23228   8.594  -0.824   2.615 -0.3119  0.8511 -0.4036
  169MOL0    Cl23229   8.748  -0.910   2.622 -0.3094 -0.4095 -0.1323
  169MOL0     C23230   8.980  -0.602   3.461 -0.1052 -0.1092 -0.2308
  169MOL0     C23231   9.085  -0.580   3.545  0.8798  0.5981 -1.0503
  169MOL0     O23232   9.218  -0.812   3.829  0.0369  0.0886 -0.4053
  169MOL0     C23233   9.459  -0.589   3.905 -0.0271 -0.6307 -1.2088
  169MOL0     C23234   9.585  -0.563   3.975  0.5836  0.4813 -1.5673
  169MOL0     N23235   9.802  -0.201   3.788 -0.6310  0.0691 -0.5337
  169MOL0     N23236   9.810  -0.077   3.757 -0.3708  0.8633 -0.1019
  169MOL0     C23237  10.714   0.404   4.171  0.1372 -0.9265 -0.1726
  169MOL0     C23238  10.832   0.428   4.232 -0.4399 -0.5395  0.3529
  169MOL0     C23239  11.181   0.463   4.526 -0.0512  0.0605  0.4734
  169MOL0     C23240  11.240   0.521   4.415 -0.5710  0.9121  0.1674
  169MOL0     C23241  11.359   0.594   4.424  0.7748  0.0835 -0.1349
  169MOL0     C23242  11.431   0.595   4.541  0.6400  0.3043 -0.5164
  169MOL0     O23243  11.542   0.667   4.544  0.5648  0.3384  0.0683
  169MOL0     C23244  11.659   0.625   4.613 -0.4551  0.4933  0.5086
  169MOL0     C23245  11.768   0.718   4.544 -0.8525  1.5342 -0.3507
  169MOL0     C23246  11.749   0.870   4.563 -0.3664 -0.7183  0.4915
  169MOL0     C23247  11.806   0.926   4.691  0.6351 -0.2254 -0.0946
  169MOL0     C23248  11.725   0.892   4.806 -0.8880 -0.4090  0.3899
  169MOL0     C23249  11.663   0.863   4.907 -0.6675 -0.3049  0.2996
  169MOL0     C23250  11.375   0.525   4.654 -0.4705  0.1868  0.0307
  169MOL0     C23251  11.250   0.465   4.650 -0.0933  0.2760 -0.4172
  169MOL0     C23252  11.198   0.404   4.779 -0.0205  0.3221 -0.2034
  169MOL0     H23253  10.785   0.228   4.495  2.3289  0.3025 -0.0948
  169MOL0     H23254  10.572   0.196   4.397 -1.8288  2.0999  2.0281
  169MOL0     H23255  10.344   0.275   4.303  1.3622  2.1799 -0.5934
  169MOL0     H23256  10.433   0.137   4.267  0.1360  1.0236  2.5497
  169MOL0     H23257  10.352   0.106   4.057  2.3011  1.0710  0.1478
  169MOL0     H23258  10.225   0.114   4.177  2.6278 -2.5476  1.1139
  169MOL0     H23259  10.175   0.364   4.081  2.4370  2.4704 -1.4146
  169MOL0     H23260  10.293   0.315   3.961  1.2992 -1.0149  1.5982
  169MOL0     H23261  10.158   0.113   3.911 -1.1006 -1.4759  1.4751
  169MOL0     H23262  10.044   0.168   4.025 -0.0260  2.1831  1.3564
  169MOL0     H23263  10.162   0.322   3.774 -0.6960 -0.7805 -2.2179
  169MOL0     H23264  10.048   0.397   3.886 -0.6614 -0.9943  0.0568
  169MOL0     H23265   9.904   0.187   3.831  0.7862  1.6988  0.1046
  169MOL0     H23266   9.913   0.329   3.733  1.9121  1.9097  2.5024
  169MOL0     H23267  10.113   0.104   3.673  1.0820  1.1887 -1.0554
  169MOL0     H23268  10.050   0.235   3.564  1.3601  0.2348  0.4535
  169MOL0     H23269   9.828   0.130   3.585 -1.0336 -1.5573 -0.0657
  169MOL0     H23270   9.932   0.070   3.476 -0.4928 -1.5394 -0.4112
  169MOL0     H23271  10.048  -0.219   3.571  1.6495 -0.9919  2.2203
  169MOL0     H23272  10.023  -0.457   3.674 -0.8166  0.4552 -3.4410
  169MOL0     H23273   9.843  -0.465   3.663  0.8903 -1.3492 -0.6302
  169MOL0     H23274  10.033  -0.458   3.925  0.5998  0.6574 -1.5300
  169MOL0     H23275   9.860  -0.440   3.926 -0.6751  1.2660 -1.5505
  169MOL0     H23276   9.843  -0.655   3.820 -0.7044 -1.5329  1.9350
  169MOL0     H23277  10.021  -0.670   3.837  0.7573  2.5394  2.5329
  169MOL0     H23278   9.935  -0.791   4.020  0.7958  0.0404  0.3962
  169MOL0     H23279   9.983  -0.637   4.098 -4.0567  0.5188  4.8280
  169MOL0     H23280   9.734  -0.854   3.901  1.4164  0.4544  3.6449
  169MOL0     H23281   9.428  -0.970   3.730  0.4563 -1.1145 -4.3769
  169MOL0     H23282   9.603  -1.006   3.769 -0.8190 -1.4060  0.0177
  169MOL0     H23283   9.560  -0.898   3.638  3.8696  1.0166  2.0365
  169MOL0     H23284   9.205  -0.898   3.505  0.1489  0.6667  0.0314
  169MOL0     H23285   9.014  -0.913   3.357 -2.7002 -0.2275  0.6820
  169MOL0     H23286   8.766  -0.888   3.376 -1.1543  0.5348  0.9507
  169MOL0     H23287   8.674  -0.739   3.343  0.8839 -0.1224  2.4165
  169MOL0     H23288   8.757  -0.770   3.089  1.2610 -0.3257 -0.7655
  169MOL0     H23289   8.801  -0.934   3.136  0.8331  0.3354  1.7527
  169MOL0     H23290   8.527  -0.797   3.140  1.1866  0.7068  0.3948
  169MOL0     H23291   8.556  -0.927   3.242  0.2573  0.7733  1.0125
  169MOL0     H23292   8.438  -0.989   3.037 -0.0028  2.0450  0.7036
  169MOL0     H23293   8.594  -1.075   3.035 -0.2150  0.1111 -1.3830
  169MOL0     H23294   8.689  -0.922   2.891  1.8080 -0.3703  1.4303
  169MOL0     H23295   8.547  -0.993   2.815  0.6640  2.3900 -1.6803
  169MOL0     H23296   8.561  -0.716   2.933  0.9367  2.4850 -1.8372
  169MOL0     H23297   8.414  -0.774   2.843 -0.4899 -0.1251  0.7804
  169MOL0     H23298   8.694  -0.702   2.755  2.1019  1.2305 -5.2670
  169MOL0     H23299   8.540  -0.626   2.715  0.5720  0.7877 -2.4311
  169MOL0     H23300   8.580  -0.766   2.523 -1.5285 -0.7882 -1.3013
  169MOL0     H23301   8.516  -0.898   2.631 -0.0482  0.9291  1.4162
  169MOL0     H23302   8.922  -0.519   3.421 -1.0692 -0.3881  0.5262
  169MOL0     H23303   9.097  -0.484   3.595 -1.1560  0.5068 -0.2981
  169MOL0     H23304   9.390  -0.508   3.927  1.6330  0.2500  1.3713
  169MOL0     H23305   9.618  -0.476   4.031 -1.7781 -1.0094  2.6208
  169MOL0     H23306  10.702   0.444   4.071  2.3680 -3.4944 -1.6042
  169MOL0     H23307  10.905   0.493   4.185  1.8822 -1.7348  2.0431
  169MOL0     H23308  11.186   0.529   4.321 -0.6435  6.5421  0.3530
  169MOL0     H23309  11.404   0.641   4.337  0.7861 -0.6098 -0.5127
  169MOL0     H23310  11.655   0.642   4.721  1.3999 -1.4691  0.9565
  169MOL0     H23311  11.688   0.520   4.604  0.0849 -0.2239  6.3623
  169MOL0     H23312  11.760   0.692   4.438 -0.5052 -2.8023  0.4870
  169MOL0     H23313  11.866   0.680   4.573 -2.5177 -4.8417 -1.5522
  169MOL0     H23314  11.777   0.915   4.467 -0.1862 -2.7445 -0.4710
  169MOL0     H23315  11.641   0.886   4.564 -0.2647  0.0575 -0.2990
  169MOL0     H23316  11.801   1.034   4.675 -2.1633 -0.3810 -0.7559
  169MOL0     H23317  11.907   0.887   4.709  1.1941  2.0652  2.2488
  169MOL0     H23318  11.614   0.851   5.001  1.0637  0.6666  1.3919
  169MOL0     H23319  11.416   0.551   4.752  1.0670  1.1662 -0.8340
  169MOL0     H23320  11.259   0.436   4.864 -2.0959 -1.4177  2.0943
  169MOL0     H23321  11.092   0.424   4.797 -0.2603 -1.7549  1.1072
  169MOL0     H23322  11.204   0.295   4.782 -0.9463  0.2733  0.4681
  170MOL0     O23323   4.798   4.643   0.338 -0.0316  0.2070 -0.8236
  170MOL0     C23324   4.837   4.702   0.442 -0.2977 -0.8038  0.2165
  170MOL0     O23325   4.960   4.763   0.451 -0.2470  0.2982 -0.0886
  170MOL0     C23326   5.040   4.747   0.337 -0.3097  0.4171 -0.0644
  170MOL0     C23327   5.072   4.848   0.250  0.1256  0.9468  0.0111
  170MOL0     C23328   5.155   4.826   0.138  0.5152 -0.1048  0.1185
  170MOL0     C23329   5.217   4.701   0.116  1.0411  0.2641  0.4327
  170MOL0     O23330   5.299   4.694   0.006  0.5337 -0.0447  0.6700
  170MOL0     C23331   5.374   4.572  -0.023 -0.1957 -0.0432 -0.2932
  170MOL0     C23332   5.416   4.576  -0.170 -1.0276 -0.7872  0.1811
  170MOL0     C23333   5.504   4.702  -0.194  0.0025 -0.0806  0.2185
  170MOL0     C23334   5.660   4.670  -0.206 -0.6536 -0.0578 -0.1881
  170MOL0     C23335   5.740   4.802  -0.234  0.8081 -0.9416 -0.1390
  170MOL0     C23336   5.764   4.877  -0.097 -0.0118  0.4884  0.7264
  170MOL0     C23337   5.868   4.986  -0.136 -0.1803  1.1392 -0.4551
  170MOL0     C23338   5.818   5.111  -0.199  0.6582  0.6103  0.4559
  170MOL0     N23339   5.936   5.181  -0.251  0.8021 -0.5418  0.4853
  170MOL0     C23340   6.039   5.231  -0.166 -0.6655  0.1351  0.6836
  170MOL0     C23341   6.100   5.325  -0.240 -0.7107  0.6304  0.6236
  170MOL0     C23342   6.217   5.408  -0.192  0.5129  0.5494 -0.3044
  170MOL0     C23343   6.356   5.340  -0.213  0.7504  0.1108 -0.0458
  170MOL0     C23344   6.371   5.269  -0.356  0.7318 -0.4817 -0.7468
  170MOL0     C23345   6.514   5.244  -0.383  0.6125  0.2567  0.2574
  170MOL0     O23346   6.574   5.148  -0.299 -0.2191  0.0202  0.2915
  170MOL0     C23347   6.715   5.160  -0.294  0.6416  0.1461  0.5087
  170MOL0     C23348   6.797   5.080  -0.382 -0.1922  0.2193  0.4127
  170MOL0     C23349   6.938   5.103  -0.385  0.0480  0.3937  0.7560
  170MOL0     C23350   7.017   5.021  -0.488 -0.1649 -0.2858  0.3835
  170MOL0     C23351   7.003   5.192  -0.295  1.0860  1.4813 -0.0830
  170MOL0     C23352   7.148   5.212  -0.297  0.2832  0.3006 -0.2323
  170MOL0     O23353   7.183   5.331  -0.247 -0.2664  0.2158  0.8165
  170MOL0     C23354   7.295   5.329  -0.166  0.2232 -0.4431  0.9031
  170MOL0     C23355   7.367   5.451  -0.153  0.3286 -1.1099 -0.9933
  170MOL0     C23356   7.482   5.445  -0.076 -0.0531 -0.0804  0.1859
  170MOL0     C23357   7.527   5.340   0.001  0.9832 -0.0862 -0.3842
  170MOL0     O23358   7.647   5.349   0.065 -0.0796  0.3487  0.0439
  170MOL0     C23359   7.645   5.316   0.199 -0.0764  0.0975 -0.0024
  170MOL0     C23360   7.583   5.427   0.285 -0.6371 -0.0388 -0.4749
  170MOL0     C23361   7.561   5.371   0.435  0.2094 -0.2415  0.1728
  170MOL0     C23362   7.442   5.273   0.451 -0.1359 -0.8724  0.0636
  170MOL0     C23363   7.449   5.199   0.585  0.5022  0.0450  0.7888
  170MOL0     C23364   7.317   5.142   0.626 -0.3525  0.0139  0.5175
  170MOL0     C23365   7.334   5.055   0.758  0.4074  0.4652 -1.1570
  170MOL0     C23366   7.206   4.982   0.808 -0.6455 -0.2799  0.1676
  170MOL0    Cl23367   7.141   4.888   0.671 -0.4369 -0.4135  0.2385
  170MOL0     C23368   7.441   5.230   0.005 -0.2307  0.3902  0.0260
  170MOL0     C23369   7.329   5.224  -0.078 -0.6624 -0.0892 -0.0267
  170MOL0     O23370   7.231   5.118  -0.315  0.3778  0.3853  0.0438
  170MOL0     C23371   6.926   5.258  -0.203  0.8331 -0.7500  0.9651
  170MOL0     C23372   6.785   5.246  -0.206  0.8129 -0.4629 -0.1233
  170MOL0     N23373   6.055   5.319  -0.373  0.5487  0.3997 -0.4491
  170MOL0     N23374   5.948   5.238  -0.379  0.1246  0.3129 -0.5596
  170MOL0     C23375   5.199   4.605   0.215  0.0014 -0.5720 -0.0436
  170MOL0     C23376   5.121   4.631   0.324  0.1814 -0.8459 -0.8256
  170MOL0     C23377   4.744   4.725   0.562  0.5169 -0.2033  0.7090
  170MOL0     C23378   4.735   4.847   0.612  0.4491 -0.0879 -0.8115
  170MOL0     C23379   4.638   4.865   0.705  0.1655  0.5839 -0.8238
  170MOL0     C23380   4.546   4.768   0.745  0.3510  0.7356 -0.2339
  170MOL0     O23381   4.456   4.804   0.845  0.2034  0.1404  0.2187
  170MOL0     C23382   4.377   4.693   0.891 -0.5153 -0.1455 -0.0856
  170MOL0     C23383   4.266   4.743   0.990  1.0585 -0.1143  1.0203
  170MOL0     C23384   4.194   4.612   1.037 -0.6657 -0.3056 -0.2632
  170MOL0     C23385   4.136   4.644   1.170  0.4643  0.4625  0.7613
  170MOL0     C23386   4.056   4.523   1.211 -0.3443 -0.1473 -0.5157
  170MOL0     C23387   3.987   4.427   1.227 -0.2334 -0.6168  0.1398
  170MOL0     C23388   4.562   4.642   0.695 -0.8262  0.5904  0.8487
  170MOL0     C23389   4.657   4.621   0.602  0.4521  0.1257  0.3563
  170MOL0     C23390   4.681   4.489   0.548 -0.2924  1.1089 -0.3824
  170MOL0     H23391   5.028   4.941   0.284 -2.0441 -0.7353  2.1876
  170MOL0     H23392   5.165   4.909   0.070  2.7791 -0.7217 -0.3740
  170MOL0     H23393   5.313   4.482  -0.017  1.0121 -1.0204 -1.8129
  170MOL0     H23394   5.459   4.565   0.045  0.8641 -0.2255 -1.5792
  170MOL0     H23395   5.485   4.494  -0.192 -0.2903  0.2654 -1.7098
  170MOL0     H23396   5.324   4.589  -0.228 -2.8629  3.2603  3.4631
  170MOL0     H23397   5.484   4.743  -0.294  0.3518 -0.2571  0.0733
  170MOL0     H23398   5.476   4.785  -0.128  1.6670  0.6665  0.0329
  170MOL0     H23399   5.692   4.635  -0.107  1.1350  2.3146  0.1653
  170MOL0     H23400   5.675   4.601  -0.289  1.1653  1.4489 -1.1913
  170MOL0     H23401   5.682   4.862  -0.306  0.6350 -1.3361 -0.3327
  170MOL0     H23402   5.836   4.768  -0.272 -0.8786 -4.3130 -1.8085
  170MOL0     H23403   5.676   4.921  -0.049  0.4360  1.1599  0.9646
  170MOL0     H23404   5.799   4.820  -0.010  2.9871  0.6671 -0.2545
  170MOL0     H23405   5.952   4.936  -0.186  0.7458  1.4911  0.7033
  170MOL0     H23406   5.923   5.011  -0.045  1.2458 -1.3300 -0.5523
  170MOL0     H23407   5.747   5.102  -0.282 -1.3453  0.8248  2.0844
  170MOL0     H23408   5.767   5.165  -0.119 -2.1042 -1.1866  0.0310
  170MOL0     H23409   6.060   5.215  -0.061 -1.5290 -1.2965  0.6654
  170MOL0     H23410   6.209   5.440  -0.088 -2.0700 -0.1279 -0.2467
  170MOL0     H23411   6.231   5.501  -0.250  0.2970  0.9219  0.2349
  170MOL0     H23412   6.431   5.419  -0.222  0.6840 -0.0072 -1.9006
  170MOL0     H23413   6.386   5.278  -0.127 -0.6155  0.3528  0.6372
  170MOL0     H23414   6.317   5.174  -0.359 -0.4258  0.1091  0.2582
  170MOL0     H23415   6.346   5.342  -0.434  1.5831  1.6124  0.8323
  170MOL0     H23416   6.506   5.209  -0.486 -0.4106 -0.2678  0.4975
  170MOL0     H23417   6.564   5.340  -0.397  0.4387  0.1120 -1.6135
  170MOL0     H23418   6.767   4.997  -0.444  0.5696 -0.2613  0.6702
  170MOL0     H23419   6.961   4.983  -0.574  1.4880  0.2771 -1.0000
  170MOL0     H23420   7.076   4.941  -0.442 -0.1588 -0.4278  0.1307
  170MOL0     H23421   7.084   5.096  -0.530 -0.8737  1.2803  1.9431
  170MOL0     H23422   7.334   5.535  -0.213  2.8370  0.4516 -0.3604
  170MOL0     H23423   7.543   5.533  -0.058  1.8570 -1.4135  0.4929
  170MOL0     H23424   7.588   5.224   0.213  1.4738 -0.7138  1.3311
  170MOL0     H23425   7.748   5.303   0.233  0.2904 -0.6920 -1.3391
  170MOL0     H23426   7.647   5.514   0.301 -1.4289  0.4405  0.1364
  170MOL0     H23427   7.490   5.464   0.242 -1.3353 -2.3632 -1.0749
  170MOL0     H23428   7.552   5.457   0.502  1.7739 -0.0289  0.1504
  170MOL0     H23429   7.653   5.320   0.466 -0.7301 -3.2925 -1.6209
  170MOL0     H23430   7.433   5.198   0.372 -0.2207 -3.1309  2.0854
  170MOL0     H23431   7.346   5.324   0.452 -0.0967 -0.7971  0.6688
  170MOL0     H23432   7.527   5.122   0.590 -1.1397 -1.8886 -1.2866
  170MOL0     H23433   7.489   5.271   0.657  3.8029 -1.6485  0.8618
  170MOL0     H23434   7.286   5.083   0.540  2.5081 -0.4702 -0.2853
  170MOL0     H23435   7.249   5.226   0.646  0.1231  0.8927 -1.3312
  170MOL0     H23436   7.375   5.112   0.841 -1.7649 -0.0309  0.3326
  170MOL0     H23437   7.405   4.975   0.735 -1.1009 -0.9983 -0.9348
  170MOL0     H23438   7.130   5.055   0.837  1.4290  1.2817  2.0811
  170MOL0     H23439   7.220   4.924   0.900  1.2356 -1.4659 -0.7938
  170MOL0     H23440   7.444   5.148   0.076  0.7128 -0.5070 -1.0139
  170MOL0     H23441   7.255   5.145  -0.072 -0.7839 -0.3424 -3.3292
  170MOL0     H23442   6.973   5.334  -0.140 -2.7912 -0.2906  3.4080
  170MOL0     H23443   6.728   5.302  -0.132  1.3888  0.9601 -0.7248
  170MOL0     H23444   5.244   4.507   0.216  1.9099  0.2528 -0.1926
  170MOL0     H23445   5.099   4.556   0.400 -0.6672 -0.1339 -0.3539
  170MOL0     H23446   4.794   4.926   0.568 -0.0945  1.3063  0.8227
  170MOL0     H23447   4.613   4.967   0.733 -6.0346  0.4950 -4.3066
  170MOL0     H23448   4.318   4.655   0.807 -3.9306  0.1947  1.9421
  170MOL0     H23449   4.446   4.614   0.921 -0.2084 -0.8010 -2.3058
  170MOL0     H23450   4.192   4.796   0.930 -0.7166 -1.5520  1.8320
  170MOL0     H23451   4.310   4.809   1.065 -2.7166  0.9950  2.5118
  170MOL0     H23452   4.117   4.593   0.962 -0.7570  1.6762 -0.7121
  170MOL0     H23453   4.259   4.524   1.045 -2.4446 -1.6973 -0.3275
  170MOL0     H23454   4.069   4.728   1.148  0.5817 -0.4749 -4.6501
  170MOL0     H23455   4.213   4.666   1.244  2.2413  1.9457 -1.4138
  170MOL0     H23456   3.943   4.329   1.231 -0.0138 -0.7056  0.3818
  170MOL0     H23457   4.506   4.551   0.714 -0.6884 -0.0996 -1.7195
  170MOL0     H23458   4.682   4.420   0.633  1.7949  1.3084 -0.1920
  170MOL0     H23459   4.611   4.452   0.472  1.1791 -0.4171 -1.0547
  170MOL0     H23460   4.781   4.469   0.507  0.3588  2.2332  0.6020
  171MOL0     O23461   5.059  10.778   5.994  0.5102  0.0543  0.9411
  171MOL0     C23462   4.966  10.811   6.075 -0.3561  0.2694  0.9055
  171MOL0     O23463   4.852  10.883   6.043  1.2896 -0.7475 -0.3921
  171MOL0     C23464   4.849  10.917   5.904 -1.1732 -0.3625  0.0226
  171MOL0     C23465   4.789  10.833   5.812  0.7686 -1.0315  0.3368
  171MOL0     C23466   4.792  10.875   5.677  0.7089  0.5432  0.3425
  171MOL0     C23467   4.842  10.996   5.632 -0.0856  0.0215  0.3203
  171MOL0     O23468   4.836  11.011   5.493  0.1148 -0.6293  0.8031
  171MOL0     C23469   4.925  11.102   5.424  0.6637 -1.4853 -0.7651
  171MOL0     C23470   4.886  11.128   5.275 -0.1879 -1.4890 -1.1637
  171MOL0     C23471   4.739  11.159   5.259 -0.7521  0.0491 -0.1943
  171MOL0     C23472   4.714  11.287   5.178 -0.0396 -0.3312 -1.7219
  171MOL0     C23473   4.566  11.310   5.179  0.8124  0.4578  0.5179
  171MOL0     C23474   4.530  11.422   5.084 -0.4927  0.1685 -0.3550
  171MOL0     C23475   4.387  11.474   5.094  0.5685 -0.2857  0.1366
  171MOL0     C23476   4.329  11.550   4.973 -0.4164 -0.5275 -0.4522
  171MOL0     N23477   4.364  11.501   4.837  0.2519  0.4984  0.4347
  171MOL0     C23478   4.290  11.412   4.753 -0.1687  0.0221  0.0593
  171MOL0     C23479   4.337  11.429   4.632  0.0314  0.0351  0.2330
  171MOL0     C23480   4.271  11.378   4.508  1.3780  0.2434 -0.5465
  171MOL0     C23481   4.125  11.428   4.494 -0.5513 -0.3746  0.0713
  171MOL0     C23482   4.047  11.411   4.359 -0.2646 -0.2717  0.1432
  171MOL0     C23483   4.113  11.497   4.253  0.1153 -0.6260  0.0978
  171MOL0     O23484   4.219  11.429   4.190 -0.3099 -0.7798 -0.0337
  171MOL0     C23485   4.278  11.487   4.078 -0.5282  0.4513  0.3007
  171MOL0     C23486   4.349  11.406   3.999 -0.0978 -0.4622 -0.0309
  171MOL0     C23487   4.386  11.450   3.872  1.0179 -0.7804  0.5308
  171MOL0     C23488   4.451  11.339   3.787  0.4842 -0.9849 -0.4264
  171MOL0     C23489   4.363  11.576   3.819  0.2369 -0.1466  0.0012
  171MOL0     C23490   4.407  11.635   3.694 -0.4997 -0.8547 -0.1959
  171MOL0     O23491   4.381  11.558   3.586  0.5079 -0.4415  0.3277
  171MOL0     C23492   4.443  11.586   3.468  0.0755 -0.4892  0.7734
  171MOL0     C23493   4.574  11.569   3.432  0.8634  0.5932 -0.0374
  171MOL0     C23494   4.623  11.593   3.302  0.0451  0.0223 -0.9687
  171MOL0     C23495   4.541  11.653   3.204  0.5640  0.1614 -0.6204
  171MOL0     O23496   4.593  11.678   3.079  0.3397 -0.3135 -0.9057
  171MOL0     C23497   4.523  11.779   3.002  0.0461  0.6174 -0.2049
  171MOL0     C23498   4.612  11.858   2.911  0.2277  0.5520  0.2387
  171MOL0     C23499   4.673  11.763   2.802 -0.1461 -0.3695 -0.5269
  171MOL0     C23500   4.751  11.848   2.706  0.5208 -0.5737  0.6033
  171MOL0     C23501   4.816  11.773   2.599 -0.2883  0.1855 -0.0236
  171MOL0     C23502   4.888  11.865   2.504  0.2251  0.1219  0.3564
  171MOL0     C23503   4.991  11.974   2.553  0.3040  1.2101  0.0781
  171MOL0     C23504   5.108  11.890   2.596 -0.2388 -0.4558  0.0567
  171MOL0    Cl23505   5.247  11.993   2.656  0.5494 -0.3551 -0.0010
  171MOL0     C23506   4.402  11.669   3.235  0.1806 -1.1299  0.4231
  171MOL0     C23507   4.357  11.624   3.363  0.4308  0.2889 -0.2297
  171MOL0     O23508   4.477  11.746   3.700  0.2411 -0.2774 -0.2498
  171MOL0     C23509   4.280  11.657   3.904 -1.1056  0.4296  0.3047
  171MOL0     C23510   4.243  11.618   4.026  0.2241 -0.1675 -0.0647
  171MOL0     N23511   4.458  11.506   4.634  0.2242  0.6802  0.7813
  171MOL0     N23512   4.468  11.550   4.753 -0.6402 -0.1258 -0.9416
  171MOL0     C23513   4.891  11.085   5.732 -1.0883  0.4590  0.7729
  171MOL0     C23514   4.895  11.043   5.864 -0.7786  0.6398 -0.2675
  171MOL0     C23515   4.987  10.760   6.212  0.6680 -0.1990  1.3195
  171MOL0     C23516   5.094  10.809   6.288 -0.4085 -0.0684 -0.3952
  171MOL0     C23517   5.097  10.775   6.428 -0.0387  0.8210 -0.1510
  171MOL0     C23518   5.007  10.690   6.482  0.5184 -1.3729 -1.3563
  171MOL0     O23519   5.008  10.662   6.617 -0.0046 -0.0250 -1.1207
  171MOL0     C23520   4.875  10.665   6.678 -0.9533  0.0696  0.4797
  171MOL0     C23521   4.886  10.681   6.833 -0.5288  0.6154  0.5768
  171MOL0     C23522   4.775  10.599   6.898  0.6483  0.2655  0.4451
  171MOL0     C23523   4.783  10.608   7.050  0.1895 -1.6372  0.2417
  171MOL0     C23524   4.764  10.756   7.099  0.6924  0.7024 -0.3793
  171MOL0     C23525   4.749  10.874   7.125  0.0090  0.1933 -0.2202
  171MOL0     C23526   4.909  10.628   6.396  0.5506 -0.0862  0.3232
  171MOL0     C23527   4.899  10.660   6.256 -0.9428  1.0806 -0.5042
  171MOL0     C23528   4.789  10.595   6.178  0.0449 -0.0955  0.6346
  171MOL0     H23529   4.731  10.743   5.832 -0.9977 -1.1280 -4.1043
  171MOL0     H23530   4.762  10.804   5.600  1.7208  0.9233 -0.4279
  171MOL0     H23531   5.027  11.061   5.421  0.4014 -2.1198 -1.2988
  171MOL0     H23532   4.921  11.191   5.487 -0.2999 -1.3148 -1.0573
  171MOL0     H23533   4.943  11.214   5.239 -0.4481 -0.0570  1.5706
  171MOL0     H23534   4.902  11.042   5.209 -0.7609 -2.2162 -0.3719
  171MOL0     H23535   4.701  11.066   5.215 -0.2212  0.0735 -0.7122
  171MOL0     H23536   4.695  11.169   5.359  1.0279 -1.0913  0.7438
  171MOL0     H23537   4.772  11.364   5.230  1.2865 -3.5288  2.0396
  171MOL0     H23538   4.755  11.272   5.078 -1.3585  0.2712 -2.3725
  171MOL0     H23539   4.523  11.336   5.276  1.2802 -0.0948  0.8858
  171MOL0     H23540   4.520  11.217   5.142  1.5129 -0.5085  1.9729
  171MOL0     H23541   4.592  11.511   5.098 -1.0697  0.9119 -2.2950
  171MOL0     H23542   4.554  11.387   4.984 -0.1360  0.0895 -0.2430
  171MOL0     H23543   4.392  11.546   5.177 -0.4128 -0.7929  0.6655
  171MOL0     H23544   4.319  11.391   5.117  1.1727 -0.1428  2.7548
  171MOL0     H23545   4.220  11.551   4.981 -0.6501  0.8771 -2.9669
  171MOL0     H23546   4.353  11.655   4.992 -1.6604 -0.3598  0.2879
  171MOL0     H23547   4.202  11.359   4.789 -1.0098 -1.0259 -3.2082
  171MOL0     H23548   4.266  11.269   4.510 -0.4736  0.2642  2.4495
  171MOL0     H23549   4.334  11.417   4.428  0.8854  1.1179 -0.5245
  171MOL0     H23550   4.063  11.379   4.570 -3.5800  1.4165 -1.0867
  171MOL0     H23551   4.122  11.536   4.516 -3.6736 -0.2905 -0.3690
  171MOL0     H23552   4.048  11.309   4.318 -4.3558  0.3650 -2.0877
  171MOL0     H23553   3.940  11.430   4.367 -0.4235 -0.0273 -1.9223
  171MOL0     H23554   4.034  11.520   4.181 -0.2583 -3.0467 -0.3412
  171MOL0     H23555   4.140  11.595   4.294  1.5870  0.3128 -2.8039
  171MOL0     H23556   4.357  11.300   4.019 -0.6100 -1.5098 -4.2485
  171MOL0     H23557   4.525  11.295   3.854 -1.2828  2.0653  3.9793
  171MOL0     H23558   4.513  11.384   3.708  0.7950 -1.0640 -0.2311
  171MOL0     H23559   4.379  11.265   3.750  0.0763 -1.0434  0.4680
  171MOL0     H23560   4.647  11.541   3.507  4.3516  3.8040 -1.9036
  171MOL0     H23561   4.731  11.579   3.301  0.6243  2.4102  2.9999
  171MOL0     H23562   4.445  11.723   2.949  0.4711 -0.1167 -0.0617
  171MOL0     H23563   4.469  11.857   3.057 -1.3476 -0.7161  0.3929
  171MOL0     H23564   4.553  11.944   2.875 -2.5126 -1.6648 -0.9673
  171MOL0     H23565   4.702  11.893   2.961  1.1828 -0.4922 -0.6780
  171MOL0     H23566   4.586  11.722   2.751 -1.0198  0.3151  0.3766
  171MOL0     H23567   4.729  11.688   2.859  0.6347  1.5663  1.3899
  171MOL0     H23568   4.839  11.886   2.760  0.1772  0.2651  0.5781
  171MOL0     H23569   4.686  11.921   2.658  0.8049 -0.5032  0.3183
  171MOL0     H23570   4.890  11.716   2.658 -0.2663  2.4284  2.2957
  171MOL0     H23571   4.751  11.708   2.541 -0.4483  1.8632 -1.8132
  171MOL0     H23572   4.810  11.926   2.457 -0.5302  0.2955  1.7672
  171MOL0     H23573   4.942  11.806   2.429 -1.5223  2.7577 -3.2350
  171MOL0     H23574   4.961  12.035   2.639  1.6564  2.1869 -0.1237
  171MOL0     H23575   5.018  12.038   2.469  0.4249 -1.0659 -1.7418
  171MOL0     H23576   5.141  11.834   2.508 -1.3135 -3.4021  1.4021
  171MOL0     H23577   5.081  11.810   2.666 -1.7143 -2.2933 -2.4279
  171MOL0     H23578   4.327  11.709   3.167  2.2159  1.2877 -0.5455
  171MOL0     H23579   4.249  11.625   3.373  0.4651  1.9068  0.2719
  171MOL0     H23580   4.262  11.753   3.857 -0.4623  0.1808 -0.4857
  171MOL0     H23581   4.186  11.688   4.086 -2.0106 -0.0733 -2.1591
  171MOL0     H23582   4.930  11.182   5.702  3.7217 -1.5184 -0.1939
  171MOL0     H23583   4.925  11.120   5.935  0.5141 -1.3806  1.4652
  171MOL0     H23584   5.182  10.868   6.263  0.8574 -1.4314  0.6825
  171MOL0     H23585   5.168  10.818   6.499  0.6827  0.0116 -0.3671
  171MOL0     H23586   4.821  10.750   6.635 -0.4106  1.1573  1.8578
  171MOL0     H23587   4.824  10.570   6.661 -1.7685  0.7982 -1.3960
  171MOL0     H23588   4.876  10.789   6.849  0.1984  0.1198  7.7899
  171MOL0     H23589   4.985  10.653   6.870 -0.2881  0.2048 -0.3704
  171MOL0     H23590   4.675  10.628   6.863 -0.6596 -5.3360 -1.4222
  171MOL0     H23591   4.788  10.496   6.862  1.8881  0.7796 -0.6584
  171MOL0     H23592   4.879  10.589   7.097 -0.1374  2.3236  3.0655
  171MOL0     H23593   4.711  10.539   7.095 -1.1407 -1.9536 -2.2134
  171MOL0     H23594   4.764  10.975   7.156  2.7929 -1.0673  3.3030
  171MOL0     H23595   4.830  10.562   6.432 -0.0500 -0.5059 -1.6369
  171MOL0     H23596   4.727  10.529   6.239  0.0320 -2.4854 -1.7889
  171MOL0     H23597   4.722  10.671   6.137 -2.1309 -0.5915  2.9930
  171MOL0     H23598   4.834  10.539   6.096 -1.0377  1.6021 -1.2028
  172MOL0     O23599   6.115   4.292   5.537  0.1476  0.0818 -0.4240
  172MOL0     C23600   6.138   4.172   5.563  0.5000  0.0277  0.7912
  172MOL0     O23601   6.118   4.106   5.682  0.0556  0.0021  0.3675
  172MOL0     C23602   6.001   4.152   5.736  0.5200  0.0142  0.4546
  172MOL0     C23603   5.930   4.041   5.784 -0.9326 -0.0034 -0.2597
  172MOL0     C23604   5.808   4.053   5.840 -0.7832  1.1482 -0.2122
  172MOL0     C23605   5.735   4.167   5.838  0.0830  1.4251 -0.6555
  172MOL0     O23606   5.603   4.164   5.894 -0.1619  0.7614 -0.3320
  172MOL0     C23607   5.530   4.284   5.904  0.1674  0.2969 -0.1059
  172MOL0     C23608   5.458   4.321   5.784  0.0165 -0.4912  0.3165
  172MOL0     C23609   5.335   4.232   5.761 -0.4125 -0.0852  0.1675
  172MOL0     C23610   5.254   4.270   5.636  0.5437 -0.1877  0.4344
  172MOL0     C23611   5.287   4.188   5.506 -0.0262  0.3388  0.7840
  172MOL0     C23612   5.206   4.244   5.374 -0.1396  0.1837  0.0218
  172MOL0     C23613   5.231   4.390   5.323 -0.3182  0.0680  0.0508
  172MOL0     C23614   5.162   4.429   5.186 -0.2413  0.6260  0.3965
  172MOL0     N23615   5.087   4.320   5.118 -0.4227 -0.2420 -0.1472
  172MOL0     C23616   4.957   4.314   5.113 -0.4989  0.4705  0.9227
  172MOL0     C23617   4.938   4.216   5.023  0.9024  0.4626  0.9672
  172MOL0     C23618   4.801   4.206   4.962  0.2041 -0.4255  0.3066
  172MOL0     C23619   4.787   4.218   4.815 -0.4651 -0.2827  0.1046
  172MOL0     C23620   4.661   4.171   4.735 -0.7947 -0.7437 -0.3578
  172MOL0     C23621   4.534   4.259   4.755  0.3354  0.2709  0.5928
  172MOL0     O23622   4.475   4.238   4.884 -0.3753 -0.0118  1.1284
  172MOL0     C23623   4.381   4.140   4.899 -0.3808 -0.4634 -0.2592
  172MOL0     C23624   4.255   4.154   4.836  0.2016 -0.7951 -0.8061
  172MOL0     C23625   4.157   4.056   4.856  1.0903 -0.3665 -0.5878
  172MOL0     C23626   4.025   4.070   4.767 -0.5637 -0.7482 -0.6825
  172MOL0     C23627   4.172   3.948   4.947  0.3717  0.1000 -0.1892
  172MOL0     C23628   4.077   3.833   4.971  0.3713 -0.6997  0.2091
  172MOL0     O23629   4.086   3.757   5.088  0.3480 -1.1339  0.0644
  172MOL0     C23630   4.017   3.641   5.108 -0.8043 -0.0059 -0.2323
  172MOL0     C23631   4.038   3.520   5.052  0.2448  0.0262 -0.6178
  172MOL0     C23632   3.981   3.404   5.105  0.1183  0.2110 -0.2538
  172MOL0     C23633   3.920   3.403   5.230  0.0204 -0.2247 -0.2305
  172MOL0     O23634   3.876   3.284   5.293 -0.3571  0.1459  0.6590
  172MOL0     C23635   3.866   3.167   5.214 -0.3243  0.2049  0.5520
  172MOL0     C23636   3.813   3.053   5.290  0.7491 -0.4626 -0.1594
  172MOL0     C23637   3.662   3.045   5.262 -0.2448  1.3324  0.1408
  172MOL0     C23638   3.623   2.986   5.128  0.3706 -0.2397 -0.0582
  172MOL0     C23639   3.483   2.944   5.132 -0.1136 -0.5221 -0.5034
  172MOL0     C23640   3.453   2.792   5.115 -0.5611  0.3078  0.4235
  172MOL0     C23641   3.502   2.698   5.233  0.6280 -0.2876  0.0882
  172MOL0     C23642   3.425   2.566   5.234  1.2023 -0.9829  1.0977
  172MOL0    Cl23643   3.416   2.497   5.390 -0.2889  0.0026  0.2472
  172MOL0     C23644   3.908   3.521   5.294  0.7247 -0.4736 -0.0762
  172MOL0     C23645   3.942   3.644   5.229 -0.6310  0.0546  1.1910
  172MOL0     O23646   3.990   3.810   4.885 -0.1219  0.3450  0.0212
  172MOL0     C23647   4.289   3.939   5.010 -0.6373  0.4442  0.0384
  172MOL0     C23648   4.400   4.032   4.983  0.6827  0.2559 -0.1120
  172MOL0     N23649   5.051   4.161   4.978  0.5985  0.1229  0.4430
  172MOL0     N23650   5.147   4.222   5.038  0.4662 -1.5249  0.1911
  172MOL0     C23651   5.799   4.290   5.791  0.8971  0.4365 -0.0009
  172MOL0     C23652   5.930   4.281   5.738  0.3688  0.1145 -0.4308
  172MOL0     C23653   6.214   4.103   5.460 -0.3919 -0.3183  0.0635
  172MOL0     C23654   6.342   4.081   5.482  0.4718  0.5686  0.0866
  172MOL0     C23655   6.431   4.033   5.385 -0.1681  1.0126 -0.0213
  172MOL0     C23656   6.385   3.993   5.258  0.0067  0.2096  0.4535
  172MOL0     O23657   6.476   3.941   5.178 -0.3446  0.2798  1.0219
  172MOL0     C23658   6.459   3.927   5.032  0.2057 -0.4051  0.3591
  172MOL0     C23659   6.604   3.917   4.969 -0.4283  0.2959  0.3314
  172MOL0     C23660   6.680   3.777   4.977 -0.4005 -0.2007  0.6951
  172MOL0     C23661   6.655   3.707   5.113  0.3521  0.6452 -0.5520
  172MOL0     C23662   6.756   3.612   5.152  0.0273 -0.0285 -0.1483
  172MOL0     C23663   6.843   3.542   5.201 -0.1104  0.4595 -0.0640
  172MOL0     C23664   6.252   4.017   5.234  0.8667 -0.3119 -0.9788
  172MOL0     C23665   6.170   4.076   5.332 -0.0098 -0.4363 -0.3627
  172MOL0     C23666   6.027   4.103   5.302  0.2907  0.0478  0.1368
  172MOL0     H23667   5.972   3.941   5.771 -0.5986  0.3918 -2.9199
  172MOL0     H23668   5.751   3.967   5.872 -0.8698  0.5605 -1.8547
  172MOL0     H23669   5.590   4.369   5.940  0.8479 -0.7034  1.2387
  172MOL0     H23670   5.459   4.265   5.985 -1.2653 -1.6927 -1.7510
  172MOL0     H23671   5.422   4.416   5.824  2.2978 -1.1688  4.5362
  172MOL0     H23672   5.526   4.342   5.700  0.8598 -2.5927  0.4166
  172MOL0     H23673   5.380   4.133   5.756 -0.9489 -0.2980 -0.5962
  172MOL0     H23674   5.272   4.231   5.850 -1.4328  0.3398 -0.5371
  172MOL0     H23675   5.157   4.229   5.665 -1.6436  0.5196 -4.7186
  172MOL0     H23676   5.245   4.376   5.612  3.7379 -0.2272 -1.5581
  172MOL0     H23677   5.259   4.086   5.533 -0.6715  0.2777 -0.0667
  172MOL0     H23678   5.396   4.182   5.494 -0.2546 -1.0449 -0.8839
  172MOL0     H23679   5.236   4.174   5.296  1.2583  0.3029  0.4288
  172MOL0     H23680   5.098   4.227   5.386 -0.2239  0.7107  0.0445
  172MOL0     H23681   5.338   4.398   5.300 -0.2410 -0.2168  0.3039
  172MOL0     H23682   5.210   4.468   5.396  0.4742 -0.3551  0.7372
  172MOL0     H23683   5.087   4.507   5.199 -2.9145 -1.6404 -0.4488
  172MOL0     H23684   5.242   4.455   5.116  2.5179 -0.2504  2.9604
  172MOL0     H23685   4.889   4.385   5.158  1.3020  1.4174  2.2598
  172MOL0     H23686   4.746   4.292   5.000 -0.3027 -2.9331  6.4274
  172MOL0     H23687   4.755   4.116   5.004 -0.8436 -0.0477 -0.0173
  172MOL0     H23688   4.780   4.326   4.794 -0.9150 -0.1686  0.8120
  172MOL0     H23689   4.875   4.172   4.769 -0.0861  1.2713 -0.8028
  172MOL0     H23690   4.693   4.188   4.631  0.5297  1.5596  0.3514
  172MOL0     H23691   4.641   4.068   4.764  2.1270 -0.5708  2.9038
  172MOL0     H23692   4.545   4.366   4.735  3.8961 -0.0396  0.3481
  172MOL0     H23693   4.456   4.225   4.686  0.1643 -0.7813  1.2753
  172MOL0     H23694   4.244   4.240   4.770 -0.1080 -0.6901 -0.6190
  172MOL0     H23695   4.037   4.038   4.663 -3.4428 -2.5661 -0.5776
  172MOL0     H23696   4.007   4.177   4.753  2.2418 -0.0981  0.0941
  172MOL0     H23697   3.933   4.022   4.803  0.3127 -0.0117  2.9001
  172MOL0     H23698   4.082   3.525   4.953  0.2305  4.7512 -0.5892
  172MOL0     H23699   4.000   3.315   5.046  2.5146  1.1217 -0.9805
  172MOL0     H23700   3.799   3.186   5.130 -1.4531  0.6823  1.5347
  172MOL0     H23701   3.971   3.158   5.182 -0.5934  4.6201 -2.5093
  172MOL0     H23702   3.862   2.959   5.262 -1.1760 -2.2920  2.1657
  172MOL0     H23703   3.830   3.055   5.398 -0.9367 -1.3787  0.1578
  172MOL0     H23704   3.613   3.140   5.281 -0.4426  2.0787 -3.4120
  172MOL0     H23705   3.624   2.980   5.341  4.3488 -1.5146  0.3766
  172MOL0     H23706   3.684   2.896   5.111  1.0334 -0.2460  2.0039
  172MOL0     H23707   3.635   3.060   5.049 -0.4258 -1.7752 -1.7009
  172MOL0     H23708   3.422   2.978   5.215  0.6096 -1.6373  0.5140
  172MOL0     H23709   3.435   2.992   5.047  2.0478  2.7224 -0.0615
  172MOL0     H23710   3.489   2.762   5.016  2.3541  1.7241  0.9308
  172MOL0     H23711   3.344   2.794   5.115 -0.6493 -1.8437 -1.1697
  172MOL0     H23712   3.484   2.753   5.326 -2.4722  1.9590 -1.6385
  172MOL0     H23713   3.605   2.669   5.214  0.4766 -0.0666 -1.1823
  172MOL0     H23714   3.459   2.497   5.156 -0.1891 -1.4299  0.8441
  172MOL0     H23715   3.322   2.588   5.202  1.3254 -3.3216 -1.2278
  172MOL0     H23716   3.862   3.532   5.392 -2.0550  2.1053 -1.4801
  172MOL0     H23717   3.928   3.741   5.275 -0.9010 -0.0633  1.3624
  172MOL0     H23718   4.315   3.862   5.082 -0.5921  0.4792  0.0597
  172MOL0     H23719   4.493   4.008   5.034  1.2044 -1.4256 -1.7039
  172MOL0     H23720   5.752   4.387   5.786  1.8157  1.1287  3.0834
  172MOL0     H23721   5.985   4.372   5.716 -0.6062  1.1884  1.3274
  172MOL0     H23722   6.375   4.097   5.584 -1.7961 -0.0126  0.9667
  172MOL0     H23723   6.533   4.015   5.419 -0.5275 -1.1906 -0.0174
  172MOL0     H23724   6.391   3.843   5.013 -1.4373  1.3527 -2.1004
  172MOL0     H23725   6.398   4.008   4.993  1.3134  0.0126 -0.5513
  172MOL0     H23726   6.660   3.993   5.025  0.5470 -0.3862  0.3088
  172MOL0     H23727   6.599   3.958   4.868  1.4947  2.5486  1.0542
  172MOL0     H23728   6.652   3.716   4.891  2.4848 -2.9125  1.4789
  172MOL0     H23729   6.788   3.791   4.970 -0.3781 -0.9488 -1.0278
  172MOL0     H23730   6.560   3.654   5.110  0.5243  0.1809  1.2877
  172MOL0     H23731   6.651   3.779   5.195 -1.6304 -0.8084  0.6904
  172MOL0     H23732   6.918   3.489   5.255  1.5813  4.2952  1.7517
  172MOL0     H23733   6.208   4.015   5.134 -2.2438 -1.1878  0.2956
  172MOL0     H23734   5.960   4.091   5.389 -1.7711 -3.4897 -1.6856
  172MOL0     H23735   6.029   4.198   5.249  2.4738 -1.0601 -1.9038
  172MOL0     H23736   5.975   4.038   5.231  0.0610  0.5514 -0.1587
  173MOL0     O23737   2.464   2.365   9.069 -0.2599  0.3044 -0.3034
  173MOL0     C23738   2.489   2.486   9.078  0.9487 -0.6857 -1.2785
  173MOL0     O23739   2.576   2.550   8.998  0.2460 -0.8252  0.8304
  173MOL0     C23740   2.659   2.486   8.895 -0.1562  0.2609  0.6473
  173MOL0     C23741   2.690   2.346   8.882  0.9254 -0.9176 -1.4603
  173MOL0     C23742   2.771   2.301   8.775  0.2409  0.0778  0.1615
  173MOL0     C23743   2.831   2.383   8.680 -0.5860 -0.5557 -0.0717
  173MOL0     O23744   2.927   2.351   8.588  0.2589 -0.7035  0.6086
  173MOL0     C23745   2.905   2.226   8.514 -0.0712 -0.2596 -0.1473
  173MOL0     C23746   3.037   2.214   8.445  0.2470  0.1780 -0.1392
  173MOL0     C23747   3.053   2.312   8.326  1.2527  0.1514  0.5119
  173MOL0     C23748   3.130   2.268   8.203 -0.7013  0.3132  1.1986
  173MOL0     C23749   3.188   2.396   8.131 -0.5496  0.5816 -0.0604
  173MOL0     C23750   3.085   2.484   8.059  0.0252  0.6474  0.3170
  173MOL0     C23751   3.011   2.413   7.940 -0.9277 -0.7215  1.2517
  173MOL0     C23752   3.119   2.352   7.841 -0.3657  0.1853 -2.1859
  173MOL0     N23753   3.049   2.316   7.713  0.4046 -0.6570  0.1767
  173MOL0     C23754   3.058   2.389   7.601 -0.2025  0.1574 -0.5813
  173MOL0     C23755   2.976   2.331   7.511  0.4501 -1.3821 -0.9324
  173MOL0     C23756   2.987   2.349   7.363 -0.3386 -0.6085 -0.5486
  173MOL0     C23757   2.929   2.237   7.276 -0.0530 -0.1941  0.7909
  173MOL0     C23758   2.890   2.284   7.131 -0.4130 -0.1437 -0.6038
  173MOL0     C23759   2.837   2.170   7.033 -0.3934  0.2279 -0.3350
  173MOL0     O23760   2.882   2.202   6.898 -0.0629  0.5050  0.7824
  173MOL0     C23761   2.883   2.115   6.798  0.2520  0.0178  0.8412
  173MOL0     C23762   2.975   2.140   6.692 -0.3820  0.1105 -0.1397
  173MOL0     C23763   2.999   2.048   6.591  0.4904 -0.7806  0.2873
  173MOL0     C23764   3.100   2.089   6.479 -0.2126 -0.3953 -0.3589
  173MOL0     C23765   2.908   1.938   6.574 -0.3055  0.0046  0.2594
  173MOL0     C23766   2.904   1.842   6.461 -0.2136  0.6367  0.4121
  173MOL0     O23767   2.771   1.811   6.426 -0.6078  0.0782  0.3721
  173MOL0     C23768   2.732   1.728   6.329  0.2239  0.2062  0.4880
  173MOL0     C23769   2.817   1.643   6.252 -0.4815  1.1166 -0.1560
  173MOL0     C23770   2.771   1.558   6.147 -0.7374  0.3984  1.6879
  173MOL0     C23771   2.642   1.549   6.096  0.1165  0.0985 -0.8697
  173MOL0     O23772   2.621   1.464   5.999  0.8207 -0.4301 -0.3176
  173MOL0     C23773   2.506   1.506   5.921  0.1514 -0.2760 -0.5061
  173MOL0     C23774   2.478   1.422   5.786 -0.2531  0.2897  0.7180
  173MOL0     C23775   2.509   1.278   5.806 -0.1213  0.5532  0.6181
  173MOL0     C23776   2.501   1.212   5.656 -0.8802 -0.1247 -0.4231
  173MOL0     C23777   2.526   1.064   5.668  0.2164 -0.1624 -0.8678
  173MOL0     C23778   2.544   0.980   5.531 -0.5273 -0.5720 -0.7426
  173MOL0     C23779   2.436   1.011   5.430  0.9089  0.0420 -0.0604
  173MOL0     C23780   2.432   0.892   5.322 -0.0660 -1.1667  0.1315
  173MOL0    Cl23781   2.591   0.840   5.268  0.1235 -0.0833  0.5492
  173MOL0     C23782   2.559   1.632   6.172 -0.3710  0.0830 -1.0222
  173MOL0     C23783   2.601   1.723   6.285  0.4649  0.4400  0.1992
  173MOL0     O23784   3.007   1.811   6.400  0.6704  0.0376  0.5609
  173MOL0     C23785   2.807   1.923   6.681 -0.3518  0.8114 -0.2841
  173MOL0     C23786   2.802   2.003   6.794 -0.2291  0.1966  0.1739
  173MOL0     N23787   2.915   2.221   7.573  0.2630 -0.9741  0.5104
  173MOL0     N23788   2.958   2.215   7.694 -0.0283  0.4081  0.2268
  173MOL0     C23789   2.803   2.518   8.687 -0.1330  0.1518 -0.9291
  173MOL0     C23790   2.729   2.566   8.797 -0.3965 -0.8430  0.2469
  173MOL0     C23791   2.434   2.559   9.192  0.2346  0.5620 -0.5759
  173MOL0     C23792   2.369   2.483   9.297  0.2905  0.0178  0.4976
  173MOL0     C23793   2.314   2.544   9.415 -0.0655  0.2062  0.1254
  173MOL0     C23794   2.322   2.690   9.423  0.7804  0.3579 -0.2968
  173MOL0     O23795   2.282   2.762   9.534 -0.1766 -0.0089 -0.0459
  173MOL0     C23796   2.237   2.684   9.649  0.5956  0.6255  0.1881
  173MOL0     C23797   2.179   2.769   9.761 -0.5716 -0.8695  0.7451
  173MOL0     C23798   2.062   2.863   9.730  0.0951 -0.5859  0.7498
  173MOL0     C23799   2.006   2.933   9.857 -0.0759 -0.2205 -0.2745
  173MOL0     C23800   1.918   3.044   9.828 -0.7455  0.3370  1.1687
  173MOL0     C23801   1.843   3.144   9.825  0.2416  0.1274  0.1784
  173MOL0     C23802   2.379   2.767   9.325 -0.0942  0.3558  0.6031
  173MOL0     C23803   2.433   2.698   9.212  0.3579  0.5950 -0.1126
  173MOL0     C23804   2.502   2.798   9.111 -0.8060 -0.3788 -0.9969
  173MOL0     H23805   2.651   2.270   8.950  0.3615  0.6857  0.0895
  173MOL0     H23806   2.797   2.195   8.782 -0.5174 -0.1142  0.1025
  173MOL0     H23807   2.824   2.236   8.441  0.5716  0.1626 -0.8285
  173MOL0     H23808   2.878   2.135   8.568 -2.9263  0.7216  0.1996
  173MOL0     H23809   3.123   2.235   8.509  0.7922 -2.3148  0.0311
  173MOL0     H23810   3.053   2.113   8.408 -0.2971  0.1921 -0.4354
  173MOL0     H23811   2.956   2.338   8.284 -0.1207 -2.9054  1.5086
  173MOL0     H23812   3.094   2.404   8.369 -0.3148  2.4555 -2.5648
  173MOL0     H23813   3.221   2.212   8.223  3.1780  5.2612 -0.5358
  173MOL0     H23814   3.066   2.206   8.139 -0.2347 -0.2471  1.2739
  173MOL0     H23815   3.272   2.358   8.072 -0.2749  0.2647  0.5233
  173MOL0     H23816   3.243   2.468   8.193  0.0325  0.5559 -0.5396
  173MOL0     H23817   3.003   2.505   8.128  0.0925 -2.3840  1.5006
  173MOL0     H23818   3.128   2.580   8.032 -0.4313  0.5868 -0.6791
  173MOL0     H23819   2.953   2.481   7.878  0.3419 -1.6331 -1.0564
  173MOL0     H23820   2.946   2.336   7.983 -1.2474 -1.4522 -0.4869
  173MOL0     H23821   3.206   2.417   7.843  0.8393 -1.1411  2.8017
  173MOL0     H23822   3.153   2.267   7.901 -2.6265  1.9670  2.0476
  173MOL0     H23823   3.137   2.460   7.580  0.8544 -1.4550 -2.2901
  173MOL0     H23824   3.090   2.364   7.329 -0.0529  0.5908  0.7181
  173MOL0     H23825   2.933   2.444   7.351 -0.0560 -0.5663 -1.6003
  173MOL0     H23826   2.990   2.146   7.278 -1.4572 -1.1615  0.9987
  173MOL0     H23827   2.828   2.201   7.297 -1.1195 -0.6989 -3.9679
  173MOL0     H23828   2.815   2.363   7.136 -0.8367 -0.1443 -4.3541
  173MOL0     H23829   2.980   2.329   7.089 -0.1527  5.3663  4.4495
  173MOL0     H23830   2.878   2.069   7.048 -0.8861 -0.4619 -3.0776
  173MOL0     H23831   2.728   2.158   7.036 -0.3930  0.2077 -0.3864
  173MOL0     H23832   3.029   2.234   6.700 -0.2414 -0.1387  2.9813
  173MOL0     H23833   3.047   2.123   6.390  2.5891  1.2521 -1.5437
  173MOL0     H23834   3.183   2.020   6.460  0.7337  0.8429 -0.8190
  173MOL0     H23835   3.142   2.185   6.509 -1.1028 -0.5995  1.7119
  173MOL0     H23836   2.922   1.627   6.273 -0.5233 -0.9168 -1.2667
  173MOL0     H23837   2.848   1.496   6.102 -1.9647  0.0975 -0.0744
  173MOL0     H23838   2.411   1.510   5.975 -0.0962  2.2121 -0.9822
  173MOL0     H23839   2.530   1.607   5.887 -3.8377  0.7738 -0.7186
  173MOL0     H23840   2.372   1.437   5.763 -0.3535  1.4060  1.7895
  173MOL0     H23841   2.545   1.465   5.712  0.3721 -3.3976 -1.0880
  173MOL0     H23842   2.430   1.230   5.865 -1.0738 -1.8108 -2.3053
  173MOL0     H23843   2.609   1.280   5.850  1.9664  1.0605 -3.6661
  173MOL0     H23844   2.567   1.269   5.590  0.0635  3.1705  2.9311
  173MOL0     H23845   2.399   1.235   5.625 -0.9587 -1.1817 -0.9494
  173MOL0     H23846   2.616   1.055   5.730 -2.3218  2.4767  3.7063
  173MOL0     H23847   2.445   1.021   5.728 -0.5124 -1.4598 -2.6934
  173MOL0     H23848   2.550   0.875   5.559  0.8988  0.2301  2.3542
  173MOL0     H23849   2.640   0.998   5.483  0.1279 -3.2485 -0.6036
  173MOL0     H23850   2.459   1.097   5.365 -1.3616  0.4123 -0.4853
  173MOL0     H23851   2.337   1.036   5.470  0.8191  0.9725 -0.7949
  173MOL0     H23852   2.368   0.933   5.243  2.4993  1.5953 -0.7065
  173MOL0     H23853   2.384   0.803   5.363  0.7723 -3.2387 -3.0420
  173MOL0     H23854   2.453   1.635   6.150 -0.3401 -4.0514 -2.6541
  173MOL0     H23855   2.533   1.790   6.336 -0.2220 -0.4048  0.4306
  173MOL0     H23856   2.738   1.839   6.684  2.2227 -1.6143  5.1442
  173MOL0     H23857   2.726   1.978   6.868 -0.6641  0.9222 -0.0135
  173MOL0     H23858   2.865   2.587   8.630  3.2616  0.6537  2.8843
  173MOL0     H23859   2.714   2.671   8.817  1.5985 -0.2006 -1.3516
  173MOL0     H23860   2.352   2.376   9.286  0.9766 -0.0373 -0.1708
  173MOL0     H23861   2.262   2.478   9.484 -2.3329 -0.8724 -2.4242
  173MOL0     H23862   2.156   2.617   9.619  0.3245  0.0832  2.0359
  173MOL0     H23863   2.308   2.614   9.693 -1.0479 -0.6947  0.8377
  173MOL0     H23864   2.263   2.836   9.783 -1.3526  0.7294 -0.8759
  173MOL0     H23865   2.153   2.711   9.850  2.2706 -0.8652  1.6925
  173MOL0     H23866   2.096   2.938   9.657  1.7750 -0.5765  1.4965
  173MOL0     H23867   1.989   2.800   9.678  0.6344  0.1615 -1.0066
  173MOL0     H23868   2.082   2.962   9.930 -0.0194 -1.1396  0.0530
  173MOL0     H23869   1.960   2.850   9.911  0.8249 -0.4813  0.1113
  173MOL0     H23870   1.765   3.217   9.835 -1.5218 -1.6158 -0.2124
  173MOL0     H23871   2.386   2.876   9.329 -2.3746  0.5209  2.3880
  173MOL0     H23872   2.604   2.782   9.073  0.3444  2.0145  0.8007
  173MOL0     H23873   2.436   2.789   9.025  1.8123 -2.8211 -2.9441
  173MOL0     H23874   2.505   2.900   9.149  2.9598  0.0254 -1.9056
  174MOL0     O23875   0.671   4.211   6.233 -0.7000  0.2465  0.0340
  174MOL0     C23876   0.719   4.220   6.113 -0.4340 -0.7548  0.2068
  174MOL0     O23877   0.667   4.173   6.003 -1.1690  0.0086  0.0690
  174MOL0     C23878   0.549   4.126   5.990 -0.1275  0.3241 -0.0891
  174MOL0     C23879   0.437   4.206   6.007 -0.0280 -0.1129 -0.6851
  174MOL0     C23880   0.311   4.159   5.999 -0.3286  0.3260  0.0172
  174MOL0     C23881   0.295   4.029   5.958  0.7860  0.4200  0.5162
  174MOL0     O23882   0.169   3.985   5.948 -0.1506 -0.1315 -0.7561
  174MOL0     C23883   0.119   3.948   5.820  0.5097 -0.7565 -0.0309
  174MOL0     C23884  -0.018   4.006   5.788 -0.2760  0.1753 -0.6517
  174MOL0     C23885  -0.054   3.958   5.645  1.2870 -1.4002 -0.2399
  174MOL0     C23886  -0.173   4.051   5.597  0.0229 -0.0448 -0.6392
  174MOL0     C23887  -0.228   3.999   5.460 -0.2812  0.5601 -0.6359
  174MOL0     C23888  -0.281   4.114   5.378 -0.1566  0.4254 -0.3962
  174MOL0     C23889  -0.363   4.065   5.262 -1.6646  0.3475  0.5383
  174MOL0     C23890  -0.487   3.988   5.293  0.6737  0.3006  0.0205
  174MOL0     N23891  -0.593   4.045   5.375 -1.0477  0.3288 -0.0412
  174MOL0     C23892  -0.588   4.060   5.511  0.2875 -0.0345 -0.4753
  174MOL0     C23893  -0.702   4.127   5.535 -1.1381 -0.9155  0.8629
  174MOL0     C23894  -0.750   4.160   5.667 -0.1718 -0.4112  0.8101
  174MOL0     C23895  -0.678   4.266   5.746  0.3672 -0.9417 -0.4394
  174MOL0     C23896  -0.659   4.403   5.680  0.1800 -0.0833  0.0572
  174MOL0     C23897  -0.569   4.504   5.750  1.2101  0.1329 -0.0080
  174MOL0     O23898  -0.437   4.448   5.761  0.2840  0.1644 -0.2160
  174MOL0     C23899  -0.337   4.507   5.829 -0.3135 -0.1997 -0.3740
  174MOL0     C23900  -0.353   4.631   5.895  0.1836 -0.2848 -0.2844
  174MOL0     C23901  -0.240   4.684   5.967  0.6635  0.4991  0.8959
  174MOL0     C23902  -0.262   4.823   6.023 -0.0726 -0.1191 -0.2585
  174MOL0     C23903  -0.112   4.617   5.980 -0.1134  0.0972 -0.2711
  174MOL0     C23904   0.015   4.676   6.049 -1.1835  0.2972  0.8584
  174MOL0     O23905   0.123   4.589   6.076 -0.0199  0.1671  0.2324
  174MOL0     C23906   0.236   4.626   6.146  0.3079 -1.5311 -0.6767
  174MOL0     C23907   0.355   4.590   6.091 -0.2583 -0.2818  0.5862
  174MOL0     C23908   0.470   4.615   6.168 -0.3448  0.3796  0.4593
  174MOL0     C23909   0.466   4.698   6.278  0.6369  1.4562 -0.7691
  174MOL0     O23910   0.589   4.725   6.341  0.2163 -0.7562 -0.4374
  174MOL0     C23911   0.598   4.845   6.416 -0.4710 -0.3118 -0.3105
  174MOL0     C23912   0.675   4.818   6.549 -0.7984  0.5946 -0.3292
  174MOL0     C23913   0.817   4.756   6.528  0.3859  0.2262 -0.6510
  174MOL0     C23914   0.890   4.753   6.657 -0.3451  0.1727 -0.1133
  174MOL0     C23915   0.859   4.644   6.761 -0.2295 -0.3633 -0.3109
  174MOL0     C23916   0.853   4.707   6.902  0.1642 -0.0852  0.3681
  174MOL0     C23917   0.788   4.616   6.995  0.4168  0.5198 -0.5146
  174MOL0     C23918   0.866   4.631   7.129 -0.4606  0.3034 -0.2695
  174MOL0    Cl23919   0.844   4.778   7.226  0.5248 -0.1123 -0.0589
  174MOL0     C23920   0.338   4.729   6.338 -0.0391 -0.1892  0.1284
  174MOL0     C23921   0.222   4.688   6.268 -0.2369 -0.6732  0.4038
  174MOL0     O23922   0.017   4.794   6.074 -0.1448 -0.8011  0.7969
  174MOL0     C23923  -0.107   4.487   5.916  0.3702 -0.2874 -0.2229
  174MOL0     C23924  -0.214   4.442   5.838  1.2758 -0.2516  0.6154
  174MOL0     N23925  -0.772   4.154   5.413  0.0635  0.9793 -0.4461
  174MOL0     N23926  -0.705   4.098   5.327 -0.1981 -0.3788 -0.2491
  174MOL0     C23927   0.402   3.948   5.925 -0.0285 -0.4864 -0.0711
  174MOL0     C23928   0.529   3.995   5.944 -0.5233  0.1627  0.3295
  174MOL0     C23929   0.847   4.278   6.114 -0.1383 -0.4282  0.1198
  174MOL0     C23930   0.940   4.235   6.012  0.1828  0.3925  0.1102
  174MOL0     C23931   1.066   4.293   5.997  0.6215  0.8805 -0.3093
  174MOL0     C23932   1.103   4.402   6.079  1.0815 -0.2232 -0.6072
  174MOL0     O23933   1.221   4.468   6.057  0.8517  0.5915 -0.1419
  174MOL0     C23934   1.228   4.553   5.944 -0.2454 -0.4994 -0.0790
  174MOL0     C23935   1.245   4.705   5.997  0.1985 -0.3906 -0.2520
  174MOL0     C23936   1.344   4.735   6.107  0.0639  0.4625 -0.3580
  174MOL0     C23937   1.488   4.689   6.064 -0.2944 -0.3669  0.3288
  174MOL0     C23938   1.527   4.764   5.945 -0.3187  0.6887 -1.0151
  174MOL0     C23939   1.564   4.807   5.843 -0.0832 -0.6398  0.6378
  174MOL0     C23940   1.014   4.448   6.174  0.5356 -0.6125 -0.1846
  174MOL0     C23941   0.886   4.388   6.198 -0.0997  0.4362 -0.6800
  174MOL0     C23942   0.814   4.461   6.307 -0.7209 -0.3240  0.0283
  174MOL0     H23943   0.454   4.308   6.039 -0.2373 -0.4736  0.6070
  174MOL0     H23944   0.228   4.229   6.007  1.5719  2.7678 -0.6499
  174MOL0     H23945   0.105   3.840   5.831  1.1028 -0.9509 -1.1099
  174MOL0     H23946   0.187   3.964   5.736  2.0667 -2.1565  0.9113
  174MOL0     H23947  -0.083   3.966   5.866 -1.4121  2.1430 -0.5161
  174MOL0     H23948  -0.029   4.114   5.800 -2.3170 -0.2081  1.8407
  174MOL0     H23949   0.026   3.963   5.571 -0.5601  0.2226 -2.2772
  174MOL0     H23950  -0.093   3.856   5.653 -2.4178 -0.0380  1.6359
  174MOL0     H23951  -0.256   4.036   5.667 -0.9008  1.0006 -1.4715
  174MOL0     H23952  -0.145   4.156   5.591  0.4662 -0.1284 -0.1380
  174MOL0     H23953  -0.294   3.919   5.494 -0.4658  1.4619  1.2463
  174MOL0     H23954  -0.140   3.954   5.412 -0.6047 -0.0963 -0.6155
  174MOL0     H23955  -0.350   4.173   5.439  1.4005  1.4529  0.4152
  174MOL0     H23956  -0.188   4.163   5.348  2.3736 -5.1499 -3.3378
  174MOL0     H23957  -0.305   4.009   5.189  0.8770  1.3946  1.6481
  174MOL0     H23958  -0.393   4.159   5.215  1.3645  0.8897 -0.5199
  174MOL0     H23959  -0.526   3.969   5.193  0.1775  2.2477 -0.1820
  174MOL0     H23960  -0.462   3.889   5.332  0.3740  0.6285  1.0873
  174MOL0     H23961  -0.508   4.032   5.579  2.9399  1.0902 -2.9365
  174MOL0     H23962  -0.725   4.061   5.708 -0.6035 -0.7180  0.3468
  174MOL0     H23963  -0.857   4.179   5.667 -0.2363 -0.2333 -2.2033
  174MOL0     H23964  -0.741   4.290   5.832 -2.0185 -0.0360 -2.2964
  174MOL0     H23965  -0.585   4.225   5.786  1.5980  2.0671  0.0784
  174MOL0     H23966  -0.625   4.385   5.578 -2.3004  1.2926 -1.1187
  174MOL0     H23967  -0.758   4.449   5.672 -1.1706 -3.0750 -1.8198
  174MOL0     H23968  -0.567   4.593   5.686 -0.6045 -0.1592 -0.5393
  174MOL0     H23969  -0.614   4.533   5.845  0.2448  0.2179 -0.4691
  174MOL0     H23970  -0.440   4.693   5.877 -0.0678 -0.9743 -1.5011
  174MOL0     H23971  -0.211   4.898   5.962 -0.8714 -0.7134 -1.7306
  174MOL0     H23972  -0.249   4.830   6.131 -0.0434  0.4466 -0.2946
  174MOL0     H23973  -0.368   4.853   6.019 -0.9513 -2.8801  0.3410
  174MOL0     H23974   0.362   4.536   5.997  0.9526 -0.0892  0.5590
  174MOL0     H23975   0.566   4.588   6.126 -1.8393  0.7183 -3.5950
  174MOL0     H23976   0.669   4.903   6.356 -0.2170  0.0575  0.3246
  174MOL0     H23977   0.502   4.898   6.424 -1.2067 -1.4389 -1.4802
  174MOL0     H23978   0.684   4.911   6.606  1.0110  1.6705 -2.2345
  174MOL0     H23979   0.609   4.749   6.603 -0.2320 -0.4407 -0.9307
  174MOL0     H23980   0.878   4.826   6.471  0.8250 -1.4709 -2.3646
  174MOL0     H23981   0.815   4.662   6.473  2.8706  1.2572 -2.7533
  174MOL0     H23982   0.879   4.853   6.699 -0.5386  1.9771 -4.0324
  174MOL0     H23983   0.997   4.754   6.637 -0.4975  1.7662 -1.0317
  174MOL0     H23984   0.760   4.599   6.747  0.1972 -2.5840  2.9588
  174MOL0     H23985   0.922   4.556   6.750  1.2789  0.9848 -5.6755
  174MOL0     H23986   0.796   4.801   6.899  0.9059  0.3776  0.4406
  174MOL0     H23987   0.957   4.719   6.933  0.3211 -0.5431  0.0311
  174MOL0     H23988   0.790   4.508   6.974  2.3917  0.7935 -2.1324
  174MOL0     H23989   0.685   4.651   6.994  0.4964  0.8679 -2.8205
  174MOL0     H23990   0.976   4.625   7.127 -0.4288  0.0849  1.0977
  174MOL0     H23991   0.830   4.551   7.195 -1.2390  1.7705  1.1703
  174MOL0     H23992   0.319   4.799   6.419  0.1260  0.9074 -0.7671
  174MOL0     H23993   0.121   4.701   6.304 -0.9171  0.9999 -1.8879
  174MOL0     H23994  -0.014   4.432   5.908 -0.3721 -1.3399 -2.5242
  174MOL0     H23995  -0.206   4.348   5.784 -3.1565  0.1413 -1.2202
  174MOL0     H23996   0.400   3.843   5.897  2.3738 -0.2052 -1.5054
  174MOL0     H23997   0.611   3.926   5.936 -1.6275 -1.9571  4.5004
  174MOL0     H23998   0.921   4.144   5.956  4.5804 -1.0064  0.4850
  174MOL0     H23999   1.135   4.261   5.919  2.6838  3.8255  0.1394
  174MOL0     H24000   1.315   4.537   5.881 -0.4454  1.8633 -1.0645
  174MOL0     H24001   1.132   4.551   5.891 -1.7657  1.2915  2.3536
  174MOL0     H24002   1.157   4.757   6.036  1.7649  1.4662  1.0633
  174MOL0     H24003   1.274   4.761   5.907 -3.3323  1.9733 -0.1454
  174MOL0     H24004   1.335   4.842   6.125  0.3303  0.3802  0.3069
  174MOL0     H24005   1.311   4.684   6.199 -1.2651 -2.5133 -2.3188
  174MOL0     H24006   1.479   4.580   6.056 -2.5849 -0.1739 -0.4355
  174MOL0     H24007   1.558   4.710   6.146 -0.0128 -0.1978  0.0442
  174MOL0     H24008   1.598   4.847   5.750 -2.7346  3.0514  1.0340
  174MOL0     H24009   1.062   4.524   6.235 -1.0720  0.0514  0.3227
  174MOL0     H24010   0.726   4.414   6.352 -0.7331 -2.7502 -2.3430
  174MOL0     H24011   0.882   4.477   6.391 -0.4059  2.8337 -0.6850
  174MOL0     H24012   0.791   4.562   6.270 -0.9388 -0.8751 -1.4040
  175MOL0     O24013   3.320  10.543   7.714  0.4548 -0.3599 -0.1471
  175MOL0     C24014   3.328  10.422   7.715  0.6246  0.8148 -0.0874
  175MOL0     O24015   3.439  10.355   7.697 -1.3885 -0.5277 -0.6895
  175MOL0     C24016   3.568  10.416   7.702  0.5245 -0.0373 -0.3562
  175MOL0     C24017   3.641  10.425   7.579  0.5318  0.0981 -0.8163
  175MOL0     C24018   3.758  10.481   7.580 -0.3723  0.3477 -0.3667
  175MOL0     C24019   3.826  10.523   7.698 -0.4447  0.4653 -1.5489
  175MOL0     O24020   3.951  10.591   7.708 -0.1701 -0.4533 -0.0191
  175MOL0     C24021   3.988  10.669   7.590 -0.3607 -0.1996 -0.5561
  175MOL0     C24022   4.079  10.775   7.648  0.3971  0.0015  1.3737
  175MOL0     C24023   4.209  10.712   7.701 -0.2679  0.0652  0.0569
  175MOL0     C24024   4.307  10.818   7.742  0.4293 -1.0879 -0.8282
  175MOL0     C24025   4.419  10.791   7.845  0.8515 -0.2756  0.4255
  175MOL0     C24026   4.502  10.910   7.887  0.3606 -0.1779 -0.1254
  175MOL0     C24027   4.609  10.879   7.988 -0.2293 -0.3707  0.1266
  175MOL0     C24028   4.688  10.998   8.035  0.9247 -0.6930 -0.0563
  175MOL0     N24029   4.597  11.100   8.089  0.2501  1.0867  0.2435
  175MOL0     C24030   4.523  11.081   8.203 -0.9570 -0.1970 -0.1283
  175MOL0     C24031   4.448  11.187   8.220 -0.5240 -0.1379  0.0198
  175MOL0     C24032   4.340  11.197   8.321  0.2098 -0.1716  0.6252
  175MOL0     C24033   4.361  11.313   8.423 -0.8391  0.7470  0.7164
  175MOL0     C24034   4.478  11.281   8.526  0.0038 -0.0390 -1.0041
  175MOL0     C24035   4.463  11.360   8.658  1.0159 -0.8236 -0.1651
  175MOL0     O24036   4.568  11.316   8.747  0.2709  0.0621  0.6524
  175MOL0     C24037   4.567  11.355   8.877  1.5309 -0.4846 -0.0822
  175MOL0     C24038   4.483  11.459   8.930 -0.8430 -0.4471 -0.0077
  175MOL0     C24039   4.497  11.506   9.059  0.4796  0.9080 -1.0937
  175MOL0     C24040   4.401  11.618   9.092  1.2640 -0.3528 -0.5837
  175MOL0     C24041   4.582  11.444   9.154  0.1101  0.6337 -0.3883
  175MOL0     C24042   4.593  11.484   9.302  0.0838  0.6462 -0.1864
  175MOL0     O24043   4.669  11.391   9.365 -0.4121  1.0909 -0.6019
  175MOL0     C24044   4.654  11.402   9.501  0.4605 -0.2083 -0.4541
  175MOL0     C24045   4.761  11.453   9.580  0.6143 -0.2985 -0.5405
  175MOL0     C24046   4.746  11.458   9.713  0.3975  0.0336 -0.6507
  175MOL0     C24047   4.631  11.414   9.782  0.7935 -0.2609  0.5724
  175MOL0     O24048   4.618  11.397   9.916  0.5201 -0.1508 -0.4835
  175MOL0     C24049   4.693  11.483   9.998  0.8731 -0.8197  0.0727
  175MOL0     C24050   4.663  11.450  10.149  0.1580  0.1736  1.0614
  175MOL0     C24051   4.658  11.568  10.242 -0.5298  0.4216  1.1942
  175MOL0     C24052   4.619  11.532  10.388  0.1502 -0.4320 -0.3042
  175MOL0     C24053   4.737  11.484  10.469  0.3037  0.6054  0.4184
  175MOL0     C24054   4.714  11.501  10.623  0.0371 -0.5359  0.2705
  175MOL0     C24055   4.766  11.402  10.712  0.7378 -0.1378  0.5875
  175MOL0     C24056   4.921  11.433  10.719  0.5740  0.3111 -0.4173
  175MOL0    Cl24057   4.983  11.290  10.817  0.2448 -0.0693 -0.4739
  175MOL0     C24058   4.527  11.354   9.706 -0.2338  0.6543 -0.2292
  175MOL0     C24059   4.541  11.347   9.565 -1.2466  0.5629  0.2200
  175MOL0     O24060   4.527  11.572   9.351  0.0848  0.0992 -0.0466
  175MOL0     C24061   4.662  11.337   9.099 -0.5414  0.4737  0.4328
  175MOL0     C24062   4.665  11.301   8.958  0.0504  0.2711 -0.5240
  175MOL0     N24063   4.482  11.280   8.116  0.2134  0.0944 -0.6159
  175MOL0     N24064   4.580  11.225   8.043  0.5700 -1.0944  0.2811
  175MOL0     C24065   3.755  10.504   7.816  0.1912  0.1821 -0.4651
  175MOL0     C24066   3.626  10.450   7.818  0.3054 -1.1974 -0.0446
  175MOL0     C24067   3.203  10.341   7.712  0.5266 -0.2361 -0.0019
  175MOL0     C24068   3.201  10.215   7.777 -0.1641 -0.0131  0.3158
  175MOL0     C24069   3.085  10.137   7.797 -0.1794 -0.0058 -0.0451
  175MOL0     C24070   2.962  10.199   7.755  0.0539  0.5998  0.2552
  175MOL0     O24071   2.835  10.142   7.769  0.7358  0.7176 -0.3767
  175MOL0     C24072   2.837  10.027   7.867 -0.2017 -0.8724  0.9112
  175MOL0     C24073   2.714   9.949   7.821  0.5589  0.0044  0.0678
  175MOL0     C24074   2.734   9.864   7.690  0.2153 -0.9836 -0.1546
  175MOL0     C24075   2.613   9.776   7.660 -0.3529 -0.8367 -0.4060
  175MOL0     C24076   2.655   9.677   7.558  0.6190  0.9316 -0.1973
  175MOL0     C24077   2.697   9.587   7.494 -0.5865 -0.3945 -0.9605
  175MOL0     C24078   2.961  10.322   7.690 -0.2314 -0.5217  0.8662
  175MOL0     C24079   3.081  10.398   7.663 -0.0629  0.9647  0.6633
  175MOL0     C24080   3.073  10.512   7.570 -0.3316 -0.0204  0.6821
  175MOL0     H24081   3.593  10.391   7.487 -2.7637 -1.2772  1.2252
  175MOL0     H24082   3.801  10.493   7.481  0.5093 -0.1260 -0.0528
  175MOL0     H24083   3.897  10.709   7.546 -0.4822  0.1722  0.0246
  175MOL0     H24084   4.044  10.610   7.516 -1.0388 -0.3707 -0.9375
  175MOL0     H24085   4.092  10.847   7.567 -0.1594 -1.0971  0.2777
  175MOL0     H24086   4.010  10.828   7.715 -1.4990  1.9601 -1.8862
  175MOL0     H24087   4.185  10.646   7.785 -1.0044 -1.1085 -1.0399
  175MOL0     H24088   4.245  10.651   7.617 -0.5414  1.9897 -1.5254
  175MOL0     H24089   4.349  10.876   7.660  2.4586  1.0503  1.5337
  175MOL0     H24090   4.253  10.888   7.807  3.8279  0.5593  0.4723
  175MOL0     H24091   4.489  10.728   7.789 -2.4266 -3.8021 -0.1364
  175MOL0     H24092   4.388  10.734   7.933 -1.5979 -1.8127 -1.3150
  175MOL0     H24093   4.544  10.957   7.798  1.1921 -3.8856 -1.8984
  175MOL0     H24094   4.422  10.967   7.936 -2.0081  0.0067 -3.7602
  175MOL0     H24095   4.686  10.822   7.935  0.5217  0.5666  0.1889
  175MOL0     H24096   4.562  10.813   8.062 -0.1735 -0.0436  0.4564
  175MOL0     H24097   4.759  10.984   8.117  1.1263 -1.8129 -0.4020
  175MOL0     H24098   4.720  11.035   7.937 -0.3995 -3.5120 -1.6925
  175MOL0     H24099   4.531  10.997   8.271 -0.1928 -1.7586 -2.0771
  175MOL0     H24100   4.325  11.101   8.370  2.9630 -1.0884 -0.1400
  175MOL0     H24101   4.247  11.221   8.268  0.2878  0.6430  0.8385
  175MOL0     H24102   4.387  11.401   8.363  1.5502  0.6117  1.4428
  175MOL0     H24103   4.268  11.325   8.479 -1.7572 -0.1660 -0.5618
  175MOL0     H24104   4.463  11.175   8.545 -0.1843  0.0732 -0.5241
  175MOL0     H24105   4.575  11.294   8.477  0.3976  2.4616  0.2868
  175MOL0     H24106   4.480  11.465   8.634  2.0067 -0.9340  0.0039
  175MOL0     H24107   4.361  11.337   8.692  0.8625 -0.0084 -0.0629
  175MOL0     H24108   4.416  11.514   8.865  0.8883  1.2794 -0.4290
  175MOL0     H24109   4.454  11.708   9.057  2.4484  0.0578  2.0624
  175MOL0     H24110   4.376  11.613   9.198  1.9026  1.0694 -0.3352
  175MOL0     H24111   4.299  11.601   9.055  0.1935 -0.2623  2.1021
  175MOL0     H24112   4.849  11.495   9.533  1.7582 -1.1947  0.7335
  175MOL0     H24113   4.817  11.501   9.782  1.1507 -0.9327 -0.8155
  175MOL0     H24114   4.799  11.484   9.969  0.2353  1.0270 -2.4763
  175MOL0     H24115   4.639  11.576   9.982 -0.0614 -1.7666 -2.8048
  175MOL0     H24116   4.569  11.400  10.173  1.6975 -1.7611  3.8310
  175MOL0     H24117   4.742  11.392  10.198  0.4173 -1.0626 -0.7115
  175MOL0     H24118   4.590  11.643  10.200 -0.5182 -0.1712  0.0748
  175MOL0     H24119   4.754  11.621  10.242 -1.9795  3.2643 -0.3799
  175MOL0     H24120   4.541  11.456  10.396 -0.3674  0.2170  1.0630
  175MOL0     H24121   4.589  11.630  10.426  2.3947 -0.1368  0.8643
  175MOL0     H24122   4.751  11.379  10.443 -3.8267  0.5153 -2.3592
  175MOL0     H24123   4.832  11.524  10.433  1.2548  0.3481  2.5277
  175MOL0     H24124   4.607  11.495  10.646 -0.1644  1.9125  0.2580
  175MOL0     H24125   4.754  11.600  10.647 -0.9028  0.8261 -3.1403
  175MOL0     H24126   4.745  11.308  10.660 -3.0914 -0.9996  3.2465
  175MOL0     H24127   4.719  11.393  10.811 -2.8330  1.7489 -0.7431
  175MOL0     H24128   4.936  11.529  10.769  0.0263  0.1588  0.0641
  175MOL0     H24129   4.970  11.433  10.622 -1.5152  0.3385 -1.5364
  175MOL0     H24130   4.453  11.300   9.765  1.3267 -1.3904 -0.0324
  175MOL0     H24131   4.458  11.298   9.514 -0.8167  0.9191 -0.8446
  175MOL0     H24132   4.734  11.283   9.160  2.6906  1.0116 -2.6490
  175MOL0     H24133   4.728  11.231   8.904  1.2077  1.0076 -0.1686
  175MOL0     H24134   3.790  10.544   7.910  0.7261 -0.2259 -0.4864
  175MOL0     H24135   3.569  10.438   7.910  1.3989  0.5903  0.9345
  175MOL0     H24136   3.287  10.175   7.831  0.7018 -1.3456 -1.9003
  175MOL0     H24137   3.096  10.040   7.844 -0.9504 -1.1199 -2.0327
  175MOL0     H24138   2.923   9.961   7.852  4.4198  4.7614 -1.9082
  175MOL0     H24139   2.845  10.067   7.969  2.1601  1.6222 -0.1169
  175MOL0     H24140   2.626  10.013   7.808 -0.2979 -1.4871 -2.2002
  175MOL0     H24141   2.713   9.883   7.909  1.2633 -0.7361 -0.4695
  175MOL0     H24142   2.756   9.930   7.605 -1.6234  1.6314  1.2790
  175MOL0     H24143   2.825   9.807   7.711  0.9625  0.3843  0.4087
  175MOL0     H24144   2.540   9.838   7.607 -0.9343 -1.5465 -0.4513
  175MOL0     H24145   2.569   9.737   7.752  1.1841 -1.3879  0.1384
  175MOL0     H24146   2.729   9.509   7.428 -0.1010 -0.0242 -1.1644
  175MOL0     H24147   2.864  10.345   7.648  1.1409  0.7744 -1.8429
  175MOL0     H24148   3.107  10.611   7.603  1.1755 -0.3042  0.0671
  175MOL0     H24149   3.128  10.486   7.479  3.2897  0.7336  2.4549
  175MOL0     H24150   2.970  10.533   7.540  0.4956  0.3277 -2.2358
  176MOL0     O24151  10.449   1.294   0.916  0.1406  0.1341  0.2793
  176MOL0     C24152  10.412   1.318   1.034 -0.9020 -0.1517  0.9326
  176MOL0     O24153  10.437   1.447   1.097  0.0277  0.3812  0.0528
  176MOL0     C24154  10.520   1.533   1.036  0.6062  0.0901  0.1041
  176MOL0     C24155  10.485   1.611   0.920 -0.8855  0.2600  0.9012
  176MOL0     C24156  10.582   1.684   0.846  0.0053  0.6511  0.3301
  176MOL0     C24157  10.712   1.690   0.894  0.3142  0.0088 -0.1830
  176MOL0     O24158  10.803   1.769   0.831  0.6524  0.9648 -0.0795
  176MOL0     C24159  10.926   1.799   0.890 -0.2559  0.6050 -0.6445
  176MOL0     C24160  11.009   1.864   0.772  0.6466 -0.1389 -0.5022
  176MOL0     C24161  11.065   1.772   0.663  0.4608 -0.1981  0.0950
  176MOL0     C24162  11.172   1.858   0.581 -0.5720  0.0211  0.7477
  176MOL0     C24163  11.235   1.776   0.459 -0.2927  0.0044  0.0525
  176MOL0     C24164  11.351   1.852   0.391 -0.4622  0.5279 -0.2748
  176MOL0     C24165  11.420   1.766   0.282 -0.1514 -0.4567  0.2475
  176MOL0     C24166  11.352   1.658   0.193  0.4536 -0.2593 -0.0769
  176MOL0     N24167  11.452   1.578   0.119  0.1324  0.4188 -0.8378
  176MOL0     C24168  11.457   1.442   0.126  0.6288 -0.4251 -0.1643
  176MOL0     C24169  11.542   1.408   0.028  0.3302 -1.0383 -0.4138
  176MOL0     C24170  11.602   1.280   0.004 -0.8152  0.2004 -0.0408
  176MOL0     C24171  11.595   1.217  -0.136 -0.2952 -0.6459  0.3166
  176MOL0     C24172  11.467   1.145  -0.165 -0.0161  0.1633 -0.8187
  176MOL0     C24173  11.475   1.056  -0.287 -0.0641  0.1691 -0.1142
  176MOL0     O24174  11.570   0.948  -0.277 -0.5935  0.1386  0.1556
  176MOL0     C24175  11.566   0.855  -0.377  0.7961 -0.7039 -0.8052
  176MOL0     C24176  11.495   0.868  -0.506  0.1029  0.3977 -0.6122
  176MOL0     C24177  11.501   0.762  -0.599  0.0040 -0.3806 -0.6079
  176MOL0     C24178  11.424   0.781  -0.730  0.7648 -0.0185  0.8331
  176MOL0     C24179  11.585   0.644  -0.581 -0.1373 -0.3427  0.3272
  176MOL0     C24180  11.620   0.553  -0.690  0.4627  0.0437  0.4088
  176MOL0     O24181  11.658   0.608  -0.809  0.2162 -0.7375 -0.6473
  176MOL0     C24182  11.678   0.523  -0.909 -0.0936  0.2187  1.5173
  176MOL0     C24183  11.755   0.411  -0.910 -0.1532 -0.8757 -0.3849
  176MOL0     C24184  11.784   0.345  -1.028  0.1184  0.4062 -0.8872
  176MOL0     C24185  11.730   0.393  -1.144  0.1779  0.8784  0.7428
  176MOL0     O24186  11.750   0.308  -1.254 -0.8284  0.4934 -0.1367
  176MOL0     C24187  11.724   0.354  -1.391 -0.3877 -0.0388  0.0996
  176MOL0     C24188  11.829   0.292  -1.480  0.1835 -0.3256 -0.1974
  176MOL0     C24189  11.823   0.366  -1.616  0.1004  0.0219 -0.4993
  176MOL0     C24190  11.897   0.280  -1.717 -1.1592 -0.7009 -0.6237
  176MOL0     C24191  11.837   0.295  -1.852 -0.2566  0.7115 -0.2292
  176MOL0     C24192  11.929   0.216  -1.939 -1.3877 -0.2548 -0.2665
  176MOL0     C24193  11.875   0.215  -2.079 -0.0452  0.1414  0.1171
  176MOL0     C24194  11.976   0.170  -2.176  0.6634  0.3724  0.2594
  176MOL0    Cl24195  12.107   0.287  -2.191  0.2653 -0.3852  0.1792
  176MOL0     C24196  11.646   0.506  -1.140 -0.3489  0.1069 -0.6311
  176MOL0     C24197  11.621   0.570  -1.021 -0.9582  0.1964  0.1167
  176MOL0     O24198  11.610   0.433  -0.668 -0.3171 -0.3980  0.5969
  176MOL0     C24199  11.649   0.645  -0.456 -0.1137 -0.6287 -0.7773
  176MOL0     C24200  11.638   0.740  -0.351  0.2565  0.0114  0.0484
  176MOL0     N24201  11.584   1.523  -0.031  0.1806 -0.7947 -0.8517
  176MOL0     N24202  11.532   1.631   0.027 -0.2876  0.6774 -0.0542
  176MOL0     C24203  10.740   1.624   1.008 -0.1114  0.4433 -0.2786
  176MOL0     C24204  10.652   1.551   1.084  0.6396  0.5780 -0.3179
  176MOL0     C24205  10.354   1.203   1.117 -0.1486  0.2341  0.7759
  176MOL0     C24206  10.362   1.218   1.257 -0.0384  0.4518 -0.2506
  176MOL0     C24207  10.330   1.112   1.346  0.6770  0.2720 -0.0362
  176MOL0     C24208  10.269   0.992   1.295 -0.1128 -0.6633 -0.7469
  176MOL0     O24209  10.240   0.887   1.382 -0.2231 -0.0733  0.5780
  176MOL0     C24210  10.286   0.895   1.521  1.4533 -0.2909  0.1186
  176MOL0     C24211  10.229   0.778   1.601 -0.3557 -0.3756 -0.0506
  176MOL0     C24212  10.074   0.778   1.629  0.4580  0.1744  0.5851
  176MOL0     C24213  10.011   0.657   1.696 -0.5157  0.0008  0.8484
  176MOL0     C24214  10.086   0.627   1.825  0.0508 -0.5128  0.1491
  176MOL0     C24215  10.132   0.593   1.932 -0.4200  0.0727 -0.2695
  176MOL0     C24216  10.247   0.988   1.156 -0.5110  1.2866 -0.0684
  176MOL0     C24217  10.291   1.079   1.067 -1.4385 -0.1506 -0.4427
  176MOL0     C24218  10.268   1.062   0.914  0.1083  0.1586  0.8996
  176MOL0     H24219  10.390   1.588   0.874 -1.4310 -2.0628  2.9413
  176MOL0     H24220  10.548   1.732   0.755 -1.0486 -0.0801  0.3233
  176MOL0     H24221  10.977   1.705   0.916  0.3456  1.3244  0.9292
  176MOL0     H24222  10.925   1.865   0.977  0.1095 -0.7585  0.4477
  176MOL0     H24223  10.958   1.954   0.734  1.8570  1.0489  0.5849
  176MOL0     H24224  11.094   1.906   0.825  0.2577 -0.8709  0.7312
  176MOL0     H24225  11.113   1.682   0.703  0.1185 -0.6877 -0.5721
  176MOL0     H24226  10.981   1.748   0.597  1.7198 -0.8950 -1.3498
  176MOL0     H24227  11.130   1.957   0.561  1.2879  1.3960  3.0803
  176MOL0     H24228  11.255   1.881   0.648  0.4078 -1.0733 -0.0455
  176MOL0     H24229  11.160   1.753   0.383 -1.0704  1.2799  0.4073
  176MOL0     H24230  11.274   1.681   0.497 -3.4253 -0.9665  1.1111
  176MOL0     H24231  11.329   1.954   0.355 -0.9865  0.9544  1.2008
  176MOL0     H24232  11.428   1.875   0.465  2.1213  0.8127 -2.8671
  176MOL0     H24233  11.504   1.716   0.332 -0.5229  1.6167  3.1925
  176MOL0     H24234  11.460   1.840   0.212 -0.7248 -0.2155  0.1722
  176MOL0     H24235  11.290   1.593   0.256  0.6833  1.3854  1.9779
  176MOL0     H24236  11.270   1.705   0.136 -0.8795  0.5650  2.3464
  176MOL0     H24237  11.404   1.378   0.196  1.4297  1.4441  2.2903
  176MOL0     H24238  11.549   1.207   0.066 -0.1944 -0.8521 -0.7172
  176MOL0     H24239  11.705   1.282   0.042 -0.5029 -0.1268 -0.8377
  176MOL0     H24240  11.608   1.294  -0.213 -0.5640 -0.8742  0.0402
  176MOL0     H24241  11.678   1.146  -0.141  0.3513  0.0699  0.6349
  176MOL0     H24242  11.441   1.080  -0.081 -5.1835  0.6240 -1.7170
  176MOL0     H24243  11.391   1.223  -0.178  2.6882  3.6829  2.2401
  176MOL0     H24244  11.376   1.010  -0.291 -0.0732  0.0186  1.4063
  176MOL0     H24245  11.477   1.120  -0.376 -0.0157 -0.8296 -0.8447
  176MOL0     H24246  11.440   0.959  -0.528 -0.9367  0.3887  1.5931
  176MOL0     H24247  11.492   0.826  -0.803  0.9358 -3.0980 -1.0686
  176MOL0     H24248  11.340   0.849  -0.709  2.0543  1.5985  0.9855
  176MOL0     H24249  11.396   0.689  -0.781 -1.4288  0.2749  1.3767
  176MOL0     H24250  11.794   0.367  -0.818  0.4577  2.0656  0.8759
  176MOL0     H24251  11.849   0.257  -1.029  0.6964  0.7780  0.8176
  176MOL0     H24252  11.630   0.316  -1.431 -1.0865  0.6611  1.0279
  176MOL0     H24253  11.724   0.462  -1.409  0.6234 -0.1241 -0.5129
  176MOL0     H24254  11.930   0.299  -1.438 -0.5329  0.3935  1.5380
  176MOL0     H24255  11.804   0.188  -1.503  0.1187  0.0782 -2.0381
  176MOL0     H24256  11.866   0.466  -1.607 -1.5180  0.8031 -1.1526
  176MOL0     H24257  11.719   0.378  -1.645  0.7114  3.1649 -1.8118
  176MOL0     H24258  11.903   0.178  -1.677  1.1130 -0.7907 -1.1035
  176MOL0     H24259  12.001   0.313  -1.720 -1.0705 -1.0867 -2.2332
  176MOL0     H24260  11.736   0.255  -1.837  0.2998 -2.0700 -2.7294
  176MOL0     H24261  11.827   0.395  -1.894 -0.1752  0.3319 -1.1958
  176MOL0     H24262  11.935   0.109  -1.914  1.6271 -0.4353 -1.3253
  176MOL0     H24263  12.031   0.252  -1.927 -1.0908 -1.3867  0.8227
  176MOL0     H24264  11.861   0.319  -2.109  2.3475  0.1256 -1.2737
  176MOL0     H24265  11.787   0.151  -2.068  0.8099 -1.0744  0.0641
  176MOL0     H24266  11.927   0.168  -2.274  1.8745  3.4507 -0.5294
  176MOL0     H24267  12.024   0.072  -2.163 -0.6531 -0.6488 -1.9716
  176MOL0     H24268  11.594   0.537  -1.229 -0.8235 -0.7026 -0.6434
  176MOL0     H24269  11.550   0.652  -1.020  1.1632  2.2847  4.2518
  176MOL0     H24270  11.718   0.564  -0.433  1.3145  1.4021  2.9203
  176MOL0     H24271  11.711   0.734  -0.270  1.9585 -1.1444 -1.4805
  176MOL0     H24272  10.844   1.622   1.039  0.7481  1.9631 -2.8067
  176MOL0     H24273  10.682   1.495   1.171 -0.5946  1.8776  1.0029
  176MOL0     H24274  10.397   1.310   1.304  0.4978  0.4417 -0.6163
  176MOL0     H24275  10.344   1.126   1.453  1.2786 -1.1862  0.0943
  176MOL0     H24276  10.395   0.898   1.525  1.4935 -0.5639 -0.6122
  176MOL0     H24277  10.260   0.985   1.578  1.2261 -1.3427  1.7491
  176MOL0     H24278  10.282   0.794   1.696 -0.6717  0.4120 -0.0034
  176MOL0     H24279  10.269   0.691   1.548  0.8582  1.9386 -3.2216
  176MOL0     H24280  10.055   0.869   1.686  2.6504  0.0743  1.6092
  176MOL0     H24281  10.023   0.795   1.534  0.4397  1.4924  0.8146
  176MOL0     H24282  10.012   0.578   1.621  0.9390  1.7922 -1.1551
  176MOL0     H24283   9.904   0.672   1.713 -0.4752  1.5171 -0.0779
  176MOL0     H24284  10.175   0.571   2.027  2.0322  0.1811 -1.3014
  176MOL0     H24285  10.194   0.902   1.116 -1.5938  1.0775  1.7391
  176MOL0     H24286  10.356   1.082   0.852  0.5613 -0.3615  1.3641
  176MOL0     H24287  10.227   0.965   0.885 -0.6072  1.2653 -2.1394
  176MOL0     H24288  10.202   1.144   0.884  0.9722  1.3460  2.1160
  177MOL0     O24289   2.347   6.838   4.484  0.4635  0.1753  0.2814
  177MOL0     C24290   2.442   6.764   4.462 -0.0798  0.1317  0.0989
  177MOL0     O24291   2.451   6.673   4.353 -0.8209 -0.0020 -0.4901
  177MOL0     C24292   2.355   6.684   4.259  0.1293 -0.1055  1.2400
  177MOL0     C24293   2.263   6.579   4.237 -0.8110 -0.0911  0.0611
  177MOL0     C24294   2.172   6.599   4.132 -0.3057  0.8416 -0.2936
  177MOL0     C24295   2.169   6.713   4.051 -0.8715  0.4784  0.9268
  177MOL0     O24296   2.080   6.713   3.950 -0.4686  0.8338 -0.3334
  177MOL0     C24297   1.956   6.762   4.007  0.2898  0.9633  0.9052
  177MOL0     C24298   1.885   6.805   3.881 -0.2820 -0.2336 -0.0942
  177MOL0     C24299   1.738   6.847   3.915 -0.5451  0.1257 -0.4094
  177MOL0     C24300   1.661   6.876   3.789  0.4030 -0.4367  0.1571
  177MOL0     C24301   1.552   6.990   3.808 -0.0729  0.7049  0.7402
  177MOL0     C24302   1.449   6.954   3.915 -0.3424  0.3219 -0.2715
  177MOL0     C24303   1.357   7.071   3.942 -0.4779  0.6986 -0.3193
  177MOL0     C24304   1.260   7.088   3.819  0.2332  0.0126 -1.2346
  177MOL0     N24305   1.134   7.156   3.855  0.5956  0.3478 -1.0915
  177MOL0     C24306   1.115   7.278   3.916 -0.4894 -0.0504 -0.0587
  177MOL0     C24307   0.983   7.289   3.931  0.6286  0.3389 -0.2799
  177MOL0     C24308   0.910   7.406   3.999  0.3246 -1.0503  0.6540
  177MOL0     C24309   0.910   7.539   3.917  0.7271  0.9197 -0.6658
  177MOL0     C24310   0.856   7.518   3.784  0.2946 -0.8355  0.5456
  177MOL0     C24311   0.825   7.645   3.711 -0.1593  0.5423 -0.6441
  177MOL0     O24312   0.705   7.712   3.760 -0.1894 -0.3588 -0.1340
  177MOL0     C24313   0.588   7.707   3.690  0.3432  0.1143 -0.4591
  177MOL0     C24314   0.565   7.645   3.567  0.1169  1.1825 -0.2544
  177MOL0     C24315   0.449   7.653   3.498  0.5143  0.3018 -0.3020
  177MOL0     C24316   0.454   7.606   3.362 -1.1734 -0.9645  0.4851
  177MOL0     C24317   0.341   7.719   3.562  0.9673 -0.3338  0.7509
  177MOL0     C24318   0.215   7.754   3.491  0.1693 -1.1667  0.1841
  177MOL0     O24319   0.181   7.672   3.381 -0.2260  0.0259 -0.4130
  177MOL0     C24320   0.060   7.681   3.322  0.1567  0.7787 -0.9093
  177MOL0     C24321  -0.009   7.803   3.289  0.5422  0.6858 -1.1298
  177MOL0     C24322  -0.117   7.803   3.192 -0.0165  0.0790  0.9160
  177MOL0     C24323  -0.156   7.679   3.138  1.6002 -0.0010  0.2471
  177MOL0     O24324  -0.246   7.680   3.043 -0.6536  0.7725  0.4962
  177MOL0     C24325  -0.358   7.595   3.073 -0.0898  0.0315 -0.6597
  177MOL0     C24326  -0.457   7.595   2.954  0.1700  0.2661  0.2817
  177MOL0     C24327  -0.467   7.727   2.879 -0.3835  0.3272  0.0919
  177MOL0     C24328  -0.567   7.722   2.766 -0.3415 -0.0681  0.0539
  177MOL0     C24329  -0.558   7.859   2.687  0.8737  0.3171 -0.0259
  177MOL0     C24330  -0.675   7.870   2.586 -0.9321  0.7169  0.5996
  177MOL0     C24331  -0.651   7.985   2.482  0.4341 -0.1483  1.2730
  177MOL0     C24332  -0.737   7.977   2.355  0.6260 -0.7820  0.7196
  177MOL0    Cl24333  -0.882   7.896   2.395 -0.1860 -0.1180 -0.1594
  177MOL0     C24334  -0.098   7.564   3.185 -0.0203  0.8013 -0.0234
  177MOL0     C24335   0.015   7.560   3.264  0.2025 -0.1711  0.3383
  177MOL0     O24336   0.146   7.846   3.529 -0.8025  0.5556 -0.0987
  177MOL0     C24337   0.350   7.772   3.691  0.7537  0.8810 -0.5232
  177MOL0     C24338   0.485   7.773   3.755  0.7955  0.5226  0.6152
  177MOL0     N24339   0.926   7.169   3.890  0.4399 -0.2445  0.3367
  177MOL0     N24340   1.015   7.088   3.849  0.7361 -0.3343 -0.1970
  177MOL0     C24341   2.254   6.812   4.076 -1.2061 -0.2628  0.3862
  177MOL0     C24342   2.350   6.796   4.180  0.1573 -0.9452 -0.5469
  177MOL0     C24343   2.565   6.778   4.551 -0.9818  0.3604 -0.2382
  177MOL0     C24344   2.685   6.724   4.499 -0.3090 -0.0018  0.3867
  177MOL0     C24345   2.797   6.699   4.582  0.0818 -1.1761 -0.3520
  177MOL0     C24346   2.803   6.757   4.712  0.1138  0.7977 -0.7487
  177MOL0     O24347   2.915   6.743   4.798 -0.4065 -0.1682  0.5243
  177MOL0     C24348   3.021   6.646   4.761  0.5837 -0.4509  0.1239
  177MOL0     C24349   3.123   6.634   4.867 -0.5950 -0.5665 -0.6937
  177MOL0     C24350   3.207   6.764   4.892 -0.3381 -0.7844  0.2964
  177MOL0     C24351   3.291   6.764   5.025 -0.7082 -0.3257  0.6881
  177MOL0     C24352   3.412   6.686   5.011 -0.1041  0.8617 -0.3232
  177MOL0     C24353   3.511   6.621   5.012 -0.2808 -0.1604  0.9436
  177MOL0     C24354   2.688   6.826   4.761 -0.2227 -0.6174  0.3954
  177MOL0     C24355   2.568   6.824   4.692  0.5503 -0.5342  0.1484
  177MOL0     C24356   2.453   6.891   4.761  0.4706  0.3305  0.1256
  177MOL0     H24357   2.275   6.494   4.304  0.1605  1.5497  2.1203
  177MOL0     H24358   2.106   6.515   4.109  1.2750 -0.3628 -0.6365
  177MOL0     H24359   1.971   6.847   4.074  0.0840  3.7378 -2.3026
  177MOL0     H24360   1.902   6.682   4.059 -2.2772  1.7502 -0.3656
  177MOL0     H24361   1.929   6.891   3.829 -5.3793  0.8348 -3.4214
  177MOL0     H24362   1.884   6.722   3.809  3.5536  0.4607 -1.1765
  177MOL0     H24363   1.690   6.759   3.958 -2.5784 -0.2051 -3.0607
  177MOL0     H24364   1.745   6.934   3.981 -0.3039 -2.1815  2.8382
  177MOL0     H24365   1.732   6.918   3.717 -1.1744  1.1922 -0.5109
  177MOL0     H24366   1.598   6.792   3.756 -3.0684  1.0126  2.4718
  177MOL0     H24367   1.513   7.002   3.707 -1.7387  0.5151  1.3294
  177MOL0     H24368   1.603   7.085   3.831  1.9722  0.5030 -2.3623
  177MOL0     H24369   1.388   6.868   3.885 -1.7228  1.6345 -1.4281
  177MOL0     H24370   1.498   6.943   4.012  0.7101  0.0405 -0.8249
  177MOL0     H24371   1.414   7.164   3.950 -1.6159  1.2979  1.3515
  177MOL0     H24372   1.295   7.052   4.031  0.3123  0.6631  0.2275
  177MOL0     H24373   1.317   7.145   3.745  0.5509  3.1886  1.2364
  177MOL0     H24374   1.229   6.996   3.768 -1.6997  0.5085 -1.0153
  177MOL0     H24375   1.193   7.347   3.947 -0.1078 -1.6832  3.0404
  177MOL0     H24376   0.961   7.434   4.091 -0.5522 -1.1769  1.1926
  177MOL0     H24377   0.812   7.362   4.017  0.8348 -3.9910 -2.6315
  177MOL0     H24378   0.841   7.608   3.965  1.4246  0.6117  0.8606
  177MOL0     H24379   1.010   7.582   3.904  0.2122  2.1050 -0.8184
  177MOL0     H24380   0.932   7.469   3.722  2.5132  3.1154 -0.2079
  177MOL0     H24381   0.764   7.459   3.796 -0.5903  0.6861  1.5889
  177MOL0     H24382   0.907   7.715   3.730 -1.1703  1.6082 -0.0822
  177MOL0     H24383   0.820   7.633   3.602 -2.0111  2.0413 -0.7880
  177MOL0     H24384   0.645   7.590   3.518  1.0169  0.5619  1.8002
  177MOL0     H24385   0.375   7.530   3.359 -2.8749  0.4696  4.0229
  177MOL0     H24386   0.548   7.555   3.340 -1.1638 -1.4182  1.5301
  177MOL0     H24387   0.444   7.691   3.294  0.1404 -0.7476  0.5326
  177MOL0     H24388   0.035   7.889   3.337  1.9782 -0.2751 -0.6588
  177MOL0     H24389  -0.147   7.895   3.143  0.2261 -0.3951 -0.1675
  177MOL0     H24390  -0.330   7.495   3.106  3.5208  1.0093 -0.3850
  177MOL0     H24391  -0.407   7.642   3.158  3.9092  1.5681  1.0214
  177MOL0     H24392  -0.431   7.524   2.876 -0.4079  2.3210 -1.8922
  177MOL0     H24393  -0.554   7.574   2.999 -0.0869 -1.2948 -0.9076
  177MOL0     H24394  -0.370   7.761   2.841 -1.5135  2.9618 -0.6896
  177MOL0     H24395  -0.503   7.801   2.951  0.0292 -1.1044  1.8403
  177MOL0     H24396  -0.669   7.719   2.805 -0.7238 -1.4945 -0.9728
  177MOL0     H24397  -0.554   7.635   2.701 -0.0127  2.6567 -3.8348
  177MOL0     H24398  -0.553   7.931   2.769  0.2224 -2.3945  2.5801
  177MOL0     H24399  -0.461   7.866   2.636  0.5315  0.4062 -0.6700
  177MOL0     H24400  -0.773   7.879   2.634 -0.8380 -1.7419  1.4033
  177MOL0     H24401  -0.682   7.774   2.535  1.2333 -0.7276  2.7907
  177MOL0     H24402  -0.548   7.982   2.444  0.0751  0.6157  0.1882
  177MOL0     H24403  -0.674   8.083   2.525  1.1836  1.5061 -1.7774
  177MOL0     H24404  -0.677   7.909   2.296  3.2547  0.3884  1.8788
  177MOL0     H24405  -0.767   8.073   2.312  0.7128 -1.3227 -0.5652
  177MOL0     H24406  -0.116   7.462   3.151 -4.0064  1.5280 -0.6004
  177MOL0     H24407   0.063   7.464   3.281  4.0905  1.8053  1.8410
  177MOL0     H24408   0.275   7.837   3.737 -1.1191 -0.8463 -1.0024
  177MOL0     H24409   0.493   7.817   3.853  1.5941  0.6407  0.4970
  177MOL0     H24410   2.247   6.903   4.016 -1.9417 -1.4108 -1.3259
  177MOL0     H24411   2.418   6.880   4.195  0.6395 -1.3564 -0.4188
  177MOL0     H24412   2.695   6.693   4.395  1.7543  0.2273  0.4745
  177MOL0     H24413   2.886   6.654   4.539  0.8654 -1.4980  1.4936
  177MOL0     H24414   2.972   6.548   4.762 -0.4610  0.0305  2.1206
  177MOL0     H24415   3.080   6.675   4.674  1.6360  2.2580  1.6068
  177MOL0     H24416   3.186   6.545   4.857 -0.1229 -0.2288 -0.7922
  177MOL0     H24417   3.084   6.619   4.968  1.9313  0.1569  0.4650
  177MOL0     H24418   3.276   6.777   4.809  0.7718 -0.1555  1.2785
  177MOL0     H24419   3.137   6.849   4.894 -1.4850 -1.6700 -0.7891
  177MOL0     H24420   3.229   6.724   5.106 -0.4568 -0.7143  0.6978
  177MOL0     H24421   3.297   6.872   5.042  0.0093 -0.7200  3.6265
  177MOL0     H24422   3.605   6.570   5.021 -0.3336 -0.5088 -0.3141
  177MOL0     H24423   2.694   6.879   4.855  0.9738 -0.1373  0.0634
  177MOL0     H24424   2.401   6.965   4.700  1.6200  3.4699  2.6876
  177MOL0     H24425   2.386   6.811   4.796  0.1278  0.1503 -0.9030
  177MOL0     H24426   2.485   6.953   4.846 -6.7767  2.8885  1.6792
  178MOL0     O24427   7.875   9.405   2.736 -0.3582  1.0357  0.2245
  178MOL0     C24428   7.873   9.383   2.617  1.0710 -0.7484  0.0218
  178MOL0     O24429   7.760   9.387   2.534  0.3109 -0.3188 -0.6964
  178MOL0     C24430   7.631   9.372   2.581 -0.0358 -0.8630 -0.0598
  178MOL0     C24431   7.525   9.450   2.521 -0.2046 -0.0126  0.3024
  178MOL0     C24432   7.390   9.421   2.546 -0.0542 -0.5388 -0.0367
  178MOL0     C24433   7.360   9.320   2.639 -1.0232 -0.7619  0.5807
  178MOL0     O24434   7.227   9.325   2.668  0.7180  0.7394 -0.0134
  178MOL0     C24435   7.176   9.245   2.779  1.0731 -0.3380  0.2438
  178MOL0     C24436   7.091   9.124   2.725  0.3674 -0.0210  0.0198
  178MOL0     C24437   7.169   9.004   2.674  0.7020  0.1946  0.5149
  178MOL0     C24438   7.072   8.890   2.640 -0.8004  0.1621  0.1174
  178MOL0     C24439   7.135   8.758   2.578  0.0393 -0.4079  0.7979
  178MOL0     C24440   7.239   8.793   2.463 -0.2857 -1.1945 -0.5799
  178MOL0     C24441   7.295   8.663   2.418 -1.0421  0.4280  0.0340
  178MOL0     C24442   7.400   8.686   2.302 -0.0300 -0.9274  0.4797
  178MOL0     N24443   7.338   8.718   2.165 -0.9218  0.6122 -0.4862
  178MOL0     C24444   7.277   8.626   2.086  0.6756  1.3189  0.4957
  178MOL0     C24445   7.254   8.700   1.975 -0.5335  0.2372 -0.3015
  178MOL0     C24446   7.181   8.646   1.853  0.1379  0.3597  0.4492
  178MOL0     C24447   7.044   8.600   1.893  0.3416  0.0996  0.5637
  178MOL0     C24448   6.971   8.542   1.765  0.4047 -0.0093  0.9110
  178MOL0     C24449   6.841   8.481   1.807 -0.1292 -0.7444  0.8778
  178MOL0     O24450   6.759   8.582   1.862  0.3484  0.0418 -0.1794
  178MOL0     C24451   6.693   8.664   1.772 -0.0344 -0.1987 -0.2528
  178MOL0     C24452   6.607   8.759   1.833 -0.9497 -0.7271 -0.1156
  178MOL0     C24453   6.541   8.847   1.756 -0.5004  0.1888  0.3212
  178MOL0     C24454   6.471   8.956   1.832 -0.8052  0.6196  0.6933
  178MOL0     C24455   6.543   8.842   1.612  0.3046 -0.3655 -0.2945
  178MOL0     C24456   6.471   8.942   1.527  0.1657  1.3546 -0.1992
  178MOL0     O24457   6.473   9.071   1.574 -0.3303 -0.5603  0.3043
  178MOL0     C24458   6.414   9.166   1.495  0.5752  0.9871  0.5268
  178MOL0     C24459   6.283   9.216   1.505  1.0439 -0.2871 -0.8911
  178MOL0     C24460   6.235   9.340   1.446 -0.4347  0.5119  1.0314
  178MOL0     C24461   6.327   9.418   1.369  0.2538 -0.5019  0.3864
  178MOL0     O24462   6.295   9.533   1.297  0.2985  0.7189 -0.1220
  178MOL0     C24463   6.174   9.604   1.317 -0.5470 -0.0700 -0.3990
  178MOL0     C24464   6.146   9.655   1.183  0.3177  0.6052  0.8391
  178MOL0     C24465   5.995   9.694   1.180  0.0894 -0.0221 -0.4764
  178MOL0     C24466   5.971   9.782   1.054 -0.3193 -0.8488  0.3741
  178MOL0     C24467   5.821   9.787   1.024 -0.1472 -0.1862  0.5494
  178MOL0     C24468   5.745   9.903   1.094  0.1945  0.2046 -1.0680
  178MOL0     C24469   5.601   9.962   1.064 -0.1141  0.5028 -0.0036
  178MOL0     C24470   5.564  10.067   1.168 -0.0555 -0.7398  0.8087
  178MOL0    Cl24471   5.648  10.220   1.117  0.0970 -0.0692 -0.0316
  178MOL0     C24472   6.461   9.381   1.368 -0.4333 -0.6652 -0.4849
  178MOL0     C24473   6.498   9.258   1.425  0.1867  0.8419  0.5797
  178MOL0     O24474   6.405   8.900   1.430 -0.3187 -0.1580  0.4450
  178MOL0     C24475   6.617   8.742   1.552 -0.5098 -0.7884  0.1662
  178MOL0     C24476   6.691   8.656   1.629 -0.2724  1.1784 -1.3126
  178MOL0     N24477   7.283   8.826   1.991  0.7074 -0.1084  0.4971
  178MOL0     N24478   7.325   8.842   2.107  0.3031  0.0877 -0.4542
  178MOL0     C24479   7.464   9.235   2.695  0.5178 -0.4192  0.3030
  178MOL0     C24480   7.603   9.261   2.659  0.5799  0.5720  0.3833
  178MOL0     C24481   7.987   9.337   2.559  0.2539  0.2368  0.1755
  178MOL0     C24482   7.976   9.222   2.471  0.1583 -0.2553 -0.1117
  178MOL0     C24483   8.096   9.163   2.424  0.2423  0.0666  0.5776
  178MOL0     C24484   8.215   9.223   2.447 -0.3177  0.2094 -0.4225
  178MOL0     O24485   8.337   9.178   2.400  0.2192 -0.2951 -0.1521
  178MOL0     C24486   8.338   9.223   2.260  0.3838  0.5688  0.0662
  178MOL0     C24487   8.364   9.105   2.173 -0.1688 -0.0811 -0.0137
  178MOL0     C24488   8.370   9.155   2.030  0.1236 -0.4326 -0.2122
  178MOL0     C24489   8.385   9.045   1.932 -0.5389  0.0168  0.0244
  178MOL0     C24490   8.521   8.985   1.939 -0.5663 -0.0785 -0.0120
  178MOL0     C24491   8.637   8.942   1.934  0.1937 -0.8905 -0.3171
  178MOL0     C24492   8.221   9.337   2.520 -1.0539 -0.1317 -0.7522
  178MOL0     C24493   8.117   9.392   2.583 -0.1749  0.5099  0.5045
  178MOL0     C24494   8.140   9.518   2.667  0.0056  0.2974  0.1462
  178MOL0     H24495   7.562   9.512   2.441 -3.3143 -0.0192 -1.2938
  178MOL0     H24496   7.313   9.470   2.486 -1.8102 -2.0902  0.8275
  178MOL0     H24497   7.113   9.310   2.841  2.0128  1.5248 -0.6689
  178MOL0     H24498   7.257   9.204   2.840 -1.4406 -3.0441  2.0314
  178MOL0     H24499   7.035   9.088   2.812 -0.9184 -1.0755 -1.1985
  178MOL0     H24500   7.025   9.167   2.649  1.4919 -0.5718 -1.3032
  178MOL0     H24501   7.221   9.041   2.586  2.7813 -1.4028  1.0061
  178MOL0     H24502   7.243   8.979   2.750 -1.7252 -0.6616  2.7742
  178MOL0     H24503   7.017   8.868   2.732 -1.0501 -0.1008 -0.0940
  178MOL0     H24504   7.006   8.933   2.564 -1.3088 -1.6343 -0.4889
  178MOL0     H24505   7.062   8.699   2.522  1.4590  0.0741 -1.7356
  178MOL0     H24506   7.171   8.707   2.668 -0.9823  2.3025  2.8632
  178MOL0     H24507   7.203   8.849   2.376 -0.2901 -0.1596  0.0675
  178MOL0     H24508   7.322   8.851   2.505 -0.3640 -2.5886  1.6805
  178MOL0     H24509   7.216   8.598   2.380 -0.5307 -1.0564  1.3889
  178MOL0     H24510   7.338   8.606   2.502  0.6807  0.5311 -0.7522
  178MOL0     H24511   7.463   8.769   2.336  1.8291 -2.6758  1.5039
  178MOL0     H24512   7.466   8.599   2.291  1.6038  0.0270  2.0899
  178MOL0     H24513   7.264   8.519   2.097 -0.6624  1.3443 -0.5394
  178MOL0     H24514   7.242   8.564   1.814 -0.8495  0.4094 -1.2847
  178MOL0     H24515   7.185   8.726   1.778  0.8781  0.0325  0.1289
  178MOL0     H24516   7.056   8.517   1.963  1.4209 -1.2324 -1.1109
  178MOL0     H24517   6.981   8.679   1.934 -4.0872 -2.0579 -1.3719
  178MOL0     H24518   6.961   8.602   1.674 -1.5039 -4.1054 -1.8675
  178MOL0     H24519   7.032   8.461   1.723  2.1732  0.9641  1.4745
  178MOL0     H24520   6.797   8.417   1.729  0.6520 -3.8649  2.8024
  178MOL0     H24521   6.858   8.408   1.887 -0.5920 -1.5831  0.2281
  178MOL0     H24522   6.585   8.764   1.940  0.8875 -2.5032  0.4302
  178MOL0     H24523   6.538   9.041   1.846 -0.5523  0.8911 -1.6744
  178MOL0     H24524   6.433   8.922   1.929  0.9344 -0.2948  1.0893
  178MOL0     H24525   6.385   9.002   1.781 -0.9374  1.9487  2.0498
  178MOL0     H24526   6.215   9.157   1.565  3.1793 -3.2127 -1.1139
  178MOL0     H24527   6.129   9.364   1.447 -1.0387 -1.8704  0.4589
  178MOL0     H24528   6.098   9.533   1.353  1.4009 -1.5185  1.0933
  178MOL0     H24529   6.176   9.691   1.384 -2.9541 -1.1728  1.2620
  178MOL0     H24530   6.212   9.740   1.161 -0.2632  0.8769  0.1177
  178MOL0     H24531   6.165   9.581   1.105  0.9903  1.4999  0.1332
  178MOL0     H24532   5.960   9.736   1.275  0.1682  2.2142 -1.3871
  178MOL0     H24533   5.934   9.604   1.166  0.2752 -0.0236 -1.3704
  178MOL0     H24534   6.017   9.733   0.967  0.4385  0.1779  0.1814
  178MOL0     H24535   6.021   9.878   1.045  2.1972 -2.1040  0.0571
  178MOL0     H24536   5.815   9.801   0.916  1.0821 -2.5369  0.1070
  178MOL0     H24537   5.768   9.693   1.044 -0.9864  0.2357  0.3361
  178MOL0     H24538   5.806   9.994   1.093  0.9281  0.1588  4.9476
  178MOL0     H24539   5.737   9.870   1.198  0.0169 -3.8963 -2.2392
  178MOL0     H24540   5.521   9.886   1.063  0.6816 -0.3863 -2.4595
  178MOL0     H24541   5.611  10.005   0.964  0.9202 -1.9442 -1.0430
  178MOL0     H24542   5.600  10.044   1.269 -0.8706 -2.3731  0.7483
  178MOL0     H24543   5.456  10.083   1.170 -0.0803 -0.5793 -0.9362
  178MOL0     H24544   6.548   9.436   1.333  2.0621 -4.0324 -0.1131
  178MOL0     H24545   6.605   9.238   1.424  0.8005  3.6136  1.3014
  178MOL0     H24546   6.609   8.728   1.445  0.3499 -2.0669  0.2488
  178MOL0     H24547   6.738   8.570   1.582  0.7627 -0.0811  1.7526
  178MOL0     H24548   7.447   9.155   2.766  1.6886  0.0777  1.1736
  178MOL0     H24549   7.677   9.185   2.684  0.2551  0.6437  1.6151
  178MOL0     H24550   7.882   9.170   2.458  1.3500 -2.3626 -0.7254
  178MOL0     H24551   8.078   9.078   2.359 -1.4678  1.5898 -1.0425
  178MOL0     H24552   8.244   9.267   2.224 -0.4498 -1.2584 -0.0917
  178MOL0     H24553   8.408   9.306   2.240 -0.4228  0.8580 -1.7867
  178MOL0     H24554   8.285   9.031   2.187  0.9130 -1.1752  0.4105
  178MOL0     H24555   8.460   9.054   2.186 -1.1582 -1.8190  0.7059
  178MOL0     H24556   8.269   9.195   2.021  0.4653  1.5556  3.0604
  178MOL0     H24557   8.443   9.234   2.010 -1.0493  0.0554 -3.0653
  178MOL0     H24558   8.378   9.093   1.834  2.4522  3.3457  1.2222
  178MOL0     H24559   8.303   8.975   1.950 -0.2781  0.3180  2.8086
  178MOL0     H24560   8.739   8.913   1.950 -0.0574 -2.1566 -0.8875
  178MOL0     H24561   8.324   9.370   2.528 -0.9819  0.0308 -2.1943
  178MOL0     H24562   8.120   9.507   2.774  0.7214 -2.2817  0.0792
  178MOL0     H24563   8.240   9.559   2.649 -0.2364  0.1196 -1.8538
  178MOL0     H24564   8.065   9.585   2.624 -0.5541 -1.1290 -1.2103
  179MOL0     O24565   6.907   0.281   0.363 -0.0398 -0.2621 -0.0473
  179MOL0     C24566   6.884   0.386   0.303 -1.2283  0.1331  0.1396
  179MOL0     O24567   6.861   0.510   0.373 -0.4302  0.6003 -0.5204
  179MOL0     C24568   6.826   0.496   0.507  0.0954 -0.0831 -0.8897
  179MOL0     C24569   6.919   0.547   0.605  0.1654  0.1737 -0.0359
  179MOL0     C24570   6.888   0.543   0.742 -0.1625  0.5148 -0.1439
  179MOL0     C24571   6.767   0.489   0.788 -0.1667 -0.0292  0.0787
  179MOL0     O24572   6.749   0.492   0.925  0.3954 -0.1872 -0.5956
  179MOL0     C24573   6.632   0.419   0.976 -0.2888 -0.2221  0.1290
  179MOL0     C24574   6.630   0.427   1.134  0.1168 -0.2609  0.0503
  179MOL0     C24575   6.485   0.395   1.177 -0.3242 -0.1009 -0.1064
  179MOL0     C24576   6.412   0.534   1.194  0.2674 -0.3236 -0.0789
  179MOL0     C24577   6.405   0.578   1.343  0.0323 -0.2549  0.7698
  179MOL0     C24578   6.332   0.481   1.438 -0.2880 -0.9195  0.6821
  179MOL0     C24579   6.310   0.536   1.586 -0.4302 -0.1923 -0.6109
  179MOL0     C24580   6.227   0.663   1.588  0.8002 -0.0581  0.1680
  179MOL0     N24581   6.086   0.648   1.519  0.0177  0.3260 -0.2613
  179MOL0     C24582   6.041   0.721   1.413  0.2440 -0.3189 -0.1270
  179MOL0     C24583   5.914   0.682   1.407  1.3454 -0.1845 -1.2648
  179MOL0     C24584   5.808   0.737   1.307 -0.0778 -0.5293 -0.2157
  179MOL0     C24585   5.711   0.638   1.257 -0.0006 -0.1364  0.5289
  179MOL0     C24586   5.656   0.675   1.123 -0.3924 -0.7586 -0.7716
  179MOL0     C24587   5.550   0.576   1.082  0.1281 -0.1431  0.2768
  179MOL0     O24588   5.591   0.436   1.079  0.5745  0.0004  0.0898
  179MOL0     C24589   5.661   0.396   0.965 -0.2394 -0.4796 -0.4807
  179MOL0     C24590   5.688   0.255   0.965 -0.7235 -1.2683  0.7478
  179MOL0     C24591   5.747   0.195   0.855 -1.2244 -0.2745 -0.1066
  179MOL0     C24592   5.757   0.051   0.876 -0.9884  0.7404  0.0741
  179MOL0     C24593   5.792   0.272   0.746  0.2492 -0.2011  0.4108
  179MOL0     C24594   5.857   0.206   0.630 -0.2378 -0.0811  0.8901
  179MOL0     O24595   5.889   0.070   0.631  0.1408 -0.2612  0.2487
  179MOL0     C24596   5.968   0.016   0.533  0.0868 -0.2086  1.2885
  179MOL0     C24597   6.075  -0.077   0.566 -0.1615  0.5934 -0.5362
  179MOL0     C24598   6.140  -0.141   0.461  0.2136  0.4689 -0.3829
  179MOL0     C24599   6.112  -0.116   0.329  0.3641 -0.3952 -0.5096
  179MOL0     O24600   6.215  -0.161   0.243  0.4550 -0.4655 -0.7487
  179MOL0     C24601   6.188  -0.148   0.099 -0.0877 -0.4657 -0.1973
  179MOL0     C24602   6.297  -0.199   0.003  0.2806 -0.1434  0.5743
  179MOL0     C24603   6.330  -0.344   0.007 -0.3382 -0.3959  0.0046
  179MOL0     C24604   6.218  -0.437  -0.022  0.2409  0.0799 -0.4231
  179MOL0     C24605   6.265  -0.580  -0.017 -0.3515  0.3330  0.4921
  179MOL0     C24606   6.171  -0.682  -0.072  0.4166 -0.7082  0.4366
  179MOL0     C24607   6.020  -0.660  -0.047  0.3662 -0.5666  0.2996
  179MOL0     C24608   5.943  -0.795  -0.064 -0.7453  0.1654 -0.6503
  179MOL0    Cl24609   5.774  -0.768  -0.013  0.5590  0.8147  0.1898
  179MOL0     C24610   6.006  -0.030   0.305  0.0912  0.6619  1.1036
  179MOL0     C24611   5.928   0.035   0.399  0.8419 -0.6672 -0.0354
  179MOL0     O24612   5.895   0.279   0.542  0.1107  0.4589  0.0776
  179MOL0     C24613   5.758   0.410   0.742 -0.2447 -0.5854 -0.7098
  179MOL0     C24614   5.693   0.472   0.853 -0.7496  0.9739  0.7803
  179MOL0     N24615   5.891   0.580   1.495 -0.3848  0.1290  0.5154
  179MOL0     N24616   5.987   0.580   1.576  0.6442  0.6251  0.0369
  179MOL0     C24617   6.675   0.435   0.693  1.3055  0.5326  0.7703
  179MOL0     C24618   6.711   0.435   0.551  0.3510 -0.0808 -0.4936
  179MOL0     C24619   6.933   0.398   0.159  0.8406 -0.5757  0.4095
  179MOL0     C24620   6.930   0.534   0.110 -0.6964 -0.3222 -0.2338
  179MOL0     C24621   6.979   0.560  -0.023 -0.2663  0.3043  0.2179
  179MOL0     C24622   7.026   0.456  -0.106  0.6989  0.0926 -0.1160
  179MOL0     O24623   7.075   0.489  -0.229 -0.5844  0.2684  0.5588
  179MOL0     C24624   7.133   0.383  -0.300 -0.6692  1.1294  0.3460
  179MOL0     C24625   7.198   0.452  -0.423  0.6481 -0.3351 -0.5078
  179MOL0     C24626   7.270   0.345  -0.501  0.3877 -0.0191  0.0436
  179MOL0     C24627   7.184   0.225  -0.567 -0.9455  0.2429  0.3753
  179MOL0     C24628   7.270   0.123  -0.630 -0.3371  0.4687  0.5942
  179MOL0     C24629   7.348   0.043  -0.683 -0.2249  0.6260 -0.2203
  179MOL0     C24630   7.018   0.323  -0.052 -0.1400 -0.0998  0.2607
  179MOL0     C24631   6.967   0.291   0.074  0.0240  0.2942  0.1437
  179MOL0     C24632   6.947   0.148   0.127 -0.4684  0.1158 -0.1528
  179MOL0     H24633   7.011   0.589   0.567 -1.4784  3.5366 -0.6969
  179MOL0     H24634   6.953   0.597   0.811  2.8068 -0.1888 -2.1617
  179MOL0     H24635   6.630   0.314   0.944  0.0881 -0.8367  2.0224
  179MOL0     H24636   6.543   0.478   0.951 -0.5820  0.6185  2.8694
  179MOL0     H24637   6.704   0.372   1.194 -1.7981  0.5132  3.3779
  179MOL0     H24638   6.650   0.531   1.161 -3.6066 -0.0334  2.7114
  179MOL0     H24639   6.429   0.330   1.109  0.3834  0.1190 -0.9123
  179MOL0     H24640   6.479   0.350   1.277 -0.3823 -1.5607 -0.7465
  179MOL0     H24641   6.438   0.610   1.121 -0.5770  1.4470  1.3822
  179MOL0     H24642   6.314   0.506   1.154 -0.4695 -0.0017  1.4114
  179MOL0     H24643   6.354   0.675   1.343  0.8998  0.2104  0.3887
  179MOL0     H24644   6.508   0.593   1.375  0.8705  3.3232 -2.8722
  179MOL0     H24645   6.231   0.476   1.396  0.2814  0.4459 -0.9900
  179MOL0     H24646   6.371   0.380   1.445 -2.8020 -2.4196 -3.3740
  179MOL0     H24647   6.409   0.560   1.626  1.7354 -1.8609 -4.4432
  179MOL0     H24648   6.266   0.461   1.654 -2.7586  0.3329 -1.4262
  179MOL0     H24649   6.223   0.704   1.689  1.7526  2.8868 -0.8915
  179MOL0     H24650   6.286   0.732   1.527  2.1432 -1.6050 -0.3586
  179MOL0     H24651   6.077   0.804   1.353  0.2878  0.8507  1.4296
  179MOL0     H24652   5.864   0.781   1.224  1.5753 -0.3970  0.9145
  179MOL0     H24653   5.769   0.825   1.359  3.5709  1.4077 -0.4347
  179MOL0     H24654   5.765   0.543   1.246  0.3057  0.2272 -1.4664
  179MOL0     H24655   5.636   0.635   1.337  1.2755  0.3640  1.8010
  179MOL0     H24656   5.608   0.773   1.127  0.3293  0.0455 -5.4040
  179MOL0     H24657   5.730   0.681   1.042  2.7201  0.3220  1.9170
  179MOL0     H24658   5.473   0.588   1.158 -2.8123 -1.7158 -2.2155
  179MOL0     H24659   5.507   0.611   0.988 -3.0447  2.1468  2.3922
  179MOL0     H24660   5.646   0.212   1.056  2.2378 -0.9965  2.3513
  179MOL0     H24661   5.733  -0.016   0.793 -1.2344 -0.1012  0.8051
  179MOL0     H24662   5.678   0.017   0.944  0.0048 -4.6015 -1.0151
  179MOL0     H24663   5.856   0.038   0.922 -0.4226 -1.4705 -1.6188
  179MOL0     H24664   6.104  -0.091   0.669  0.4643  3.3405 -0.2697
  179MOL0     H24665   6.225  -0.202   0.488  1.4041  3.0188  2.1258
  179MOL0     H24666   6.094  -0.181   0.055  0.6337  0.2685 -2.4215
  179MOL0     H24667   6.183  -0.042   0.073 -1.4709 -1.2604 -3.7294
  179MOL0     H24668   6.268  -0.191  -0.102  0.6674 -1.9927  0.2912
  179MOL0     H24669   6.385  -0.137   0.024 -0.3298  0.8548  0.2322
  179MOL0     H24670   6.374  -0.368   0.104  2.6564 -1.9128 -1.6236
  179MOL0     H24671   6.415  -0.350  -0.060 -1.9968  2.1640 -2.6015
  179MOL0     H24672   6.176  -0.412  -0.120  0.4309  2.6488  0.0910
  179MOL0     H24673   6.145  -0.427   0.059  0.6004  0.2725 -0.1219
  179MOL0     H24674   6.363  -0.584  -0.066  1.0484 -0.2398  3.1379
  179MOL0     H24675   6.282  -0.599   0.089 -1.5159  3.4850  1.3551
  179MOL0     H24676   6.186  -0.775  -0.018 -0.3544 -1.1975 -0.1631
  179MOL0     H24677   6.195  -0.694  -0.178 -0.7824 -0.3429  0.0977
  179MOL0     H24678   5.968  -0.587  -0.110  2.1943  1.1755  0.7048
  179MOL0     H24679   6.008  -0.626   0.056  1.4568 -1.8835  0.8985
  179MOL0     H24680   5.981  -0.888  -0.020  1.3881  0.0315 -2.5885
  179MOL0     H24681   5.952  -0.825  -0.169  3.7564  0.3337 -0.4969
  179MOL0     H24682   5.987   0.007   0.205 -0.8084  1.2054  1.4615
  179MOL0     H24683   5.853   0.103   0.359 -1.7787 -4.4739 -2.3616
  179MOL0     H24684   5.810   0.471   0.670  2.1357  1.1675  2.2356
  179MOL0     H24685   5.675   0.579   0.851 -0.3525  1.0999 -2.7859
  179MOL0     H24686   6.572   0.399   0.702  0.3497  2.1982 -2.2358
  179MOL0     H24687   6.636   0.409   0.477 -0.7041  0.7000  0.2704
  179MOL0     H24688   6.904   0.622   0.168 -0.7022  0.2490 -1.0833
  179MOL0     H24689   7.001   0.660  -0.058  0.8784  0.1968  0.6033
  179MOL0     H24690   7.206   0.355  -0.222  0.4386 -0.7521 -1.2786
  179MOL0     H24691   7.061   0.308  -0.333 -0.1232  0.8101 -0.1356
  179MOL0     H24692   7.269   0.533  -0.406 -1.5761  1.5001  0.5684
  179MOL0     H24693   7.118   0.500  -0.480  1.3173  2.3749  0.6601
  179MOL0     H24694   7.328   0.389  -0.583  1.2094  0.0569  0.6511
  179MOL0     H24695   7.348   0.292  -0.445  1.8597  1.8027 -0.1643
  179MOL0     H24696   7.111   0.275  -0.631 -0.5964  1.0315  0.5825
  179MOL0     H24697   7.116   0.169  -0.503 -2.0093 -1.9379 -2.4179
  179MOL0     H24698   7.411  -0.039  -0.711 -0.2477  1.0434 -1.5748
  179MOL0     H24699   7.050   0.238  -0.112 -2.8193 -2.2462  1.6081
  179MOL0     H24700   6.847   0.133   0.169 -1.1480  1.7641 -1.1309
  179MOL0     H24701   6.955   0.068   0.052  3.2909 -0.8225  1.0150
  179MOL0     H24702   7.022   0.130   0.205  1.6715  3.1443 -1.3237
  180MOL0     O24703   1.378   6.211   0.075 -0.4833  0.0956 -0.7217
  180MOL0     C24704   1.313   6.253  -0.025 -0.1906  0.7477  0.4197
  180MOL0     O24705   1.187   6.303  -0.024  0.0707 -0.4100 -0.2021
  180MOL0     C24706   1.129   6.287   0.103 -0.3228 -0.1920 -0.7056
  180MOL0     C24707   1.037   6.183   0.120  1.0375  0.3136  0.1219
  180MOL0     C24708   0.962   6.173   0.236  1.3391 -0.2830 -0.2567
  180MOL0     C24709   0.978   6.270   0.339  0.0635  0.0726  0.6387
  180MOL0     O24710   0.901   6.288   0.454 -0.1380  0.1086 -0.7359
  180MOL0     C24711   0.866   6.173   0.524  0.0927 -0.5389  0.9966
  180MOL0     C24712   0.994   6.095   0.565 -0.4995 -1.4338  0.2869
  180MOL0     C24713   1.074   6.178   0.670  0.1996  1.4401  0.6759
  180MOL0     C24714   1.097   6.104   0.801  0.0857 -0.5885  0.6895
  180MOL0     C24715   1.184   6.188   0.892 -0.5045 -0.0769 -0.2382
  180MOL0     C24716   1.325   6.139   0.878  0.1921 -0.2147 -0.4113
  180MOL0     C24717   1.416   6.232   0.960  0.6229 -0.9539 -0.4666
  180MOL0     C24718   1.546   6.175   1.019 -0.5800 -0.5528  1.1236
  180MOL0     N24719   1.632   6.134   0.913 -0.8952  0.3405  0.3048
  180MOL0     C24720   1.695   6.216   0.829  0.2062 -0.0213  0.2931
  180MOL0     C24721   1.789   6.144   0.767 -1.0407  1.2117  0.3887
  180MOL0     C24722   1.884   6.197   0.666  1.0044  0.3586 -0.2756
  180MOL0     C24723   1.986   6.296   0.713  0.1214  0.0281  0.8381
  180MOL0     C24724   2.110   6.240   0.784  0.2250 -0.4061  0.5169
  180MOL0     C24725   2.213   6.348   0.824 -0.3723  0.4015 -0.6109
  180MOL0     O24726   2.264   6.407   0.708 -0.2313  0.0910 -0.0439
  180MOL0     C24727   2.392   6.447   0.705  0.4527  0.4094 -0.5149
  180MOL0     C24728   2.457   6.489   0.822 -0.2649  0.1371 -0.2868
  180MOL0     C24729   2.587   6.545   0.825 -0.2843  1.1944 -0.0048
  180MOL0     C24730   2.621   6.580   0.964 -0.2413 -0.3045 -0.4497
  180MOL0     C24731   2.654   6.557   0.701  0.0958  0.0906  0.1599
  180MOL0     C24732   2.802   6.611   0.697 -0.8416  0.5958  0.2930
  180MOL0     O24733   2.876   6.619   0.806  0.1973 -1.1673  0.4357
  180MOL0     C24734   3.008   6.646   0.793  0.8744 -0.3327 -0.4497
  180MOL0     C24735   3.105   6.553   0.808  0.4154  0.2303  0.9023
  180MOL0     C24736   3.243   6.578   0.825  0.5463  0.3935 -0.7897
  180MOL0     C24737   3.282   6.711   0.829  0.2468 -0.4902  0.3451
  180MOL0     O24738   3.408   6.754   0.845 -0.3430 -0.1746 -0.2578
  180MOL0     C24739   3.510   6.688   0.773  0.4614 -0.5383  0.6733
  180MOL0     C24740   3.592   6.610   0.863 -0.5976 -0.5476 -0.4131
  180MOL0     C24741   3.652   6.710   0.960 -0.2761 -0.1342  0.8004
  180MOL0     C24742   3.722   6.641   1.085 -0.0884 -0.1594 -0.5038
  180MOL0     C24743   3.851   6.574   1.033 -0.4679  0.2338  0.4525
  180MOL0     C24744   3.960   6.651   0.951  0.7398 -0.3434  0.7149
  180MOL0     C24745   4.002   6.794   1.015 -0.2736  0.3806  0.6074
  180MOL0     C24746   4.048   6.801   1.168  0.1392  0.2180 -0.8451
  180MOL0    Cl24747   4.091   6.966   1.235 -0.3379 -0.2666 -0.0338
  180MOL0     C24748   3.183   6.813   0.829 -0.2888  0.7065  0.2990
  180MOL0     C24749   3.054   6.779   0.806  0.8429  0.7368  0.7115
  180MOL0     O24750   2.847   6.627   0.583 -0.3815 -0.1281  1.0234
  180MOL0     C24751   2.582   6.530   0.586  0.7475  0.5741  0.9996
  180MOL0     C24752   2.450   6.479   0.586 -0.6936  0.2215 -0.0035
  180MOL0     N24753   1.778   6.009   0.805 -0.3197  0.6558 -0.5641
  180MOL0     N24754   1.689   6.011   0.898  0.5160 -0.0557 -0.4100
  180MOL0     C24755   1.069   6.375   0.320  0.0474 -0.7720  0.1462
  180MOL0     C24756   1.144   6.388   0.204  0.8873 -0.0007 -1.0047
  180MOL0     C24757   1.393   6.290  -0.144  0.1456  0.4244 -0.2265
  180MOL0     C24758   1.350   6.406  -0.215  1.0123  0.3714  0.3035
  180MOL0     C24759   1.395   6.436  -0.345  0.8307  0.3478 -0.2075
  180MOL0     C24760   1.513   6.366  -0.387  0.2618 -0.0984 -0.1377
  180MOL0     O24761   1.576   6.412  -0.501  0.6786  0.1179  0.1667
  180MOL0     C24762   1.582   6.557  -0.517  0.2177 -0.0370  0.0991
  180MOL0     C24763   1.731   6.576  -0.550  0.4288 -0.8869  0.2027
  180MOL0     C24764   1.777   6.718  -0.564 -0.8986  0.3708 -0.4088
  180MOL0     C24765   1.917   6.724  -0.642 -0.7444  0.0022  0.1920
  180MOL0     C24766   1.981   6.858  -0.610 -0.5519  0.1026  0.0506
  180MOL0     C24767   2.038   6.965  -0.578  0.5029  0.0325  0.1057
  180MOL0     C24768   1.570   6.271  -0.306  0.0340 -1.2335 -0.7176
  180MOL0     C24769   1.511   6.222  -0.189  1.0429 -0.7595  0.0548
  180MOL0     C24770   1.577   6.105  -0.122  1.3368  0.0940 -0.4855
  180MOL0     H24771   1.017   6.123   0.031  1.4496  2.0910 -1.2295
  180MOL0     H24772   0.872   6.113   0.242 -0.0590  1.5262 -1.7300
  180MOL0     H24773   0.802   6.110   0.462  0.3438  1.8642 -1.9580
  180MOL0     H24774   0.816   6.208   0.615 -0.3546  2.4019 -0.2488
  180MOL0     H24775   0.962   6.010   0.625  0.7434 -0.3929  2.5561
  180MOL0     H24776   1.052   6.064   0.477 -2.1376 -2.2574 -0.5437
  180MOL0     H24777   1.177   6.186   0.636 -0.3587  0.3565 -1.3759
  180MOL0     H24778   1.025   6.275   0.687 -0.9767  0.8336  0.8358
  180MOL0     H24779   0.995   6.094   0.841 -0.8800  2.9660 -0.4932
  180MOL0     H24780   1.138   6.003   0.796 -1.9469 -1.4139 -0.4302
  180MOL0     H24781   1.148   6.174   0.994  0.6661 -2.4050 -0.0855
  180MOL0     H24782   1.179   6.297   0.883  1.4167  0.4222  3.1114
  180MOL0     H24783   1.328   6.041   0.927  0.0501  0.7064  1.5454
  180MOL0     H24784   1.350   6.134   0.772 -0.9633 -2.1902 -0.6527
  180MOL0     H24785   1.362   6.262   1.051 -1.0299 -0.9359 -1.4181
  180MOL0     H24786   1.445   6.315   0.895  1.7738 -1.2859 -0.4003
  180MOL0     H24787   1.599   6.251   1.078  1.0497  0.2622 -1.2682
  180MOL0     H24788   1.508   6.091   1.078 -1.3868 -2.6366 -2.1520
  180MOL0     H24789   1.681   6.321   0.805 -0.6409  0.0732  1.1400
  180MOL0     H24790   1.821   6.245   0.591 -1.8967 -1.5300  0.7796
  180MOL0     H24791   1.920   6.110   0.610  1.7351  1.1590 -1.0819
  180MOL0     H24792   2.022   6.362   0.633 -1.0884  0.5585  0.7053
  180MOL0     H24793   1.935   6.359   0.787 -2.3177 -1.9471  0.9508
  180MOL0     H24794   2.072   6.178   0.866 -2.3053  1.9692  1.3197
  180MOL0     H24795   2.155   6.179   0.706 -1.7895  2.1040 -2.8904
  180MOL0     H24796   2.165   6.424   0.887  1.1240 -1.4801  3.1182
  180MOL0     H24797   2.290   6.297   0.883  0.7094  4.7824  2.3348
  180MOL0     H24798   2.401   6.486   0.915 -2.8075  3.0723 -1.5298
  180MOL0     H24799   2.540   6.605   1.035 -0.0775  2.5173 -1.1427
  180MOL0     H24800   2.685   6.668   0.973 -0.2820 -0.3765  0.8267
  180MOL0     H24801   2.676   6.492   0.998  0.9930  0.8044  0.5509
  180MOL0     H24802   3.058   6.455   0.810 -0.8650  0.8309  1.6773
  180MOL0     H24803   3.314   6.499   0.848 -2.0754 -1.8883 -0.0270
  180MOL0     H24804   3.464   6.624   0.697 -2.2132  0.2482  1.5186
  180MOL0     H24805   3.573   6.762   0.722 -1.5657  0.1889 -0.9109
  180MOL0     H24806   3.520   6.547   0.916  0.8747 -1.6687  0.3226
  180MOL0     H24807   3.677   6.553   0.821  1.7037  2.6996 -0.5227
  180MOL0     H24808   3.576   6.776   1.005 -0.7142 -0.2423  0.2241
  180MOL0     H24809   3.726   6.774   0.912 -1.5218  2.6974  2.3757
  180MOL0     H24810   3.655   6.565   1.126  1.2073  0.9235  4.2805
  180MOL0     H24811   3.745   6.710   1.167 -1.5152 -1.2260  0.8479
  180MOL0     H24812   3.900   6.528   1.120 -0.7584  2.7703  2.0393
  180MOL0     H24813   3.817   6.489   0.973 -0.4484  1.4947 -1.4120
  180MOL0     H24814   3.913   6.677   0.856 -0.1281 -1.7081  0.7385
  180MOL0     H24815   4.048   6.589   0.934  0.7447 -0.3908  0.9102
  180MOL0     H24816   3.915   6.859   1.000  1.3889  2.3621 -1.0196
  180MOL0     H24817   4.086   6.834   0.959 -0.3913 -1.5747 -1.0733
  180MOL0     H24818   4.134   6.735   1.185  1.3173  2.3312  2.5108
  180MOL0     H24819   3.967   6.752   1.222  1.3044  0.4904  1.2565
  180MOL0     H24820   3.216   6.916   0.834 -2.3225  1.5165 -1.5809
  180MOL0     H24821   2.987   6.864   0.800 -2.1893 -1.5268 -0.0921
  180MOL0     H24822   2.629   6.527   0.488  2.3069 -1.5525  1.7497
  180MOL0     H24823   2.400   6.454   0.493 -0.6484  0.9748 -0.2358
  180MOL0     H24824   1.079   6.442   0.404  1.9202  1.5010 -1.7729
  180MOL0     H24825   1.184   6.489   0.193 -0.4165  0.9213  1.9120
  180MOL0     H24826   1.276   6.474  -0.175  2.4823  1.6528  0.9301
  180MOL0     H24827   1.349   6.518  -0.398  0.6251 -1.2668 -2.6549
  180MOL0     H24828   1.521   6.573  -0.606 -2.0198 -1.6578  1.2570
  180MOL0     H24829   1.548   6.623  -0.437 -2.0079 -0.7087 -0.2210
  180MOL0     H24830   1.749   6.527  -0.646  1.4221  2.4929 -1.4787
  180MOL0     H24831   1.781   6.526  -0.466 -3.1872 -1.1160  2.4355
  180MOL0     H24832   1.704   6.790  -0.601 -1.1895  0.9128  1.1677
  180MOL0     H24833   1.797   6.757  -0.464 -2.5693 -0.6074  0.3349
  180MOL0     H24834   1.915   6.698  -0.748  4.2642 -1.5523  0.2251
  180MOL0     H24835   1.979   6.642  -0.604  0.5968  0.5631 -0.7034
  180MOL0     H24836   2.080   7.061  -0.559  0.0656  0.1226  0.6402
  180MOL0     H24837   1.662   6.222  -0.338  3.0119  1.1000  3.2421
  180MOL0     H24838   1.510   6.019  -0.119 -0.4937  1.4655  1.6229
  180MOL0     H24839   1.664   6.080  -0.183 -0.5084  1.6109 -4.0305
  180MOL0     H24840   1.606   6.124  -0.018 -0.1281 -1.3532  0.2304
  181MOL0     O24841   0.375   4.947   7.610  0.5414 -0.4702  0.2353
  181MOL0     C24842   0.311   4.936   7.715 -0.1328 -0.0577 -0.2211
  181MOL0     O24843   0.225   5.039   7.768 -0.2342  0.0012 -0.6574
  181MOL0     C24844   0.255   5.176   7.765 -0.1889  0.5563  0.5790
  181MOL0     C24845   0.165   5.250   7.852  0.5114 -0.4136 -0.5697
  181MOL0     C24846   0.198   5.384   7.890  0.0341 -0.4329 -0.9394
  181MOL0     C24847   0.310   5.454   7.840 -0.1426  0.0115  0.7884
  181MOL0     O24848   0.328   5.586   7.879  0.0621 -0.7845 -0.6199
  181MOL0     C24849   0.407   5.662   7.784  0.6631 -0.5615 -0.4847
  181MOL0     C24850   0.425   5.803   7.839  0.4014 -0.4467  0.3485
  181MOL0     C24851   0.513   5.904   7.769  0.0829 -0.0918 -0.0645
  181MOL0     C24852   0.669   5.874   7.785  0.5583  0.7731 -1.4008
  181MOL0     C24853   0.763   5.982   7.720 -0.2292  0.2267  0.1835
  181MOL0     C24854   0.897   5.919   7.705 -0.8585 -0.6491 -0.5914
  181MOL0     C24855   0.980   6.022   7.631 -0.3035 -0.5334 -0.6200
  181MOL0     C24856   1.107   5.979   7.562 -0.1491  0.5132  0.4225
  181MOL0     N24857   1.177   5.864   7.627  1.3728 -0.0455 -0.3344
  181MOL0     C24858   1.272   5.865   7.723 -0.0819 -0.8132 -0.0092
  181MOL0     C24859   1.312   5.731   7.726 -0.1289 -1.0489 -0.5863
  181MOL0     C24860   1.399   5.672   7.837 -0.8218  0.7419 -0.0454
  181MOL0     C24861   1.553   5.663   7.805  0.0490 -0.5995  0.3662
  181MOL0     C24862   1.618   5.797   7.809  0.1207  0.4369 -0.3009
  181MOL0     C24863   1.619   5.875   7.945  0.4018  0.0365 -0.3085
  181MOL0     O24864   1.688   5.814   8.057  0.2533 -0.3823  0.9738
  181MOL0     C24865   1.824   5.807   8.057  0.0639 -0.6396 -0.0601
  181MOL0     C24866   1.887   5.715   8.147  0.7330  0.5597  0.2914
  181MOL0     C24867   2.028   5.699   8.154 -0.3582  0.5567  0.6841
  181MOL0     C24868   2.078   5.588   8.238  0.0307 -0.4805 -0.2215
  181MOL0     C24869   2.106   5.793   8.091  0.3448 -0.5249  0.5691
  181MOL0     C24870   2.257   5.808   8.097 -0.6264  0.7292  0.1480
  181MOL0     O24871   2.325   5.689   8.127 -0.5208  0.7998  0.0153
  181MOL0     C24872   2.458   5.681   8.143  0.0997 -0.4199  0.1479
  181MOL0     C24873   2.534   5.645   8.026 -0.6716 -0.2507 -0.5280
  181MOL0     C24874   2.670   5.658   8.036 -0.4988  0.0520  0.4657
  181MOL0     C24875   2.731   5.709   8.148 -0.6995 -0.3966 -0.2249
  181MOL0     O24876   2.865   5.738   8.143 -0.2799  0.3203 -0.6939
  181MOL0     C24877   2.954   5.721   8.259 -0.0167 -0.3301 -0.3838
  181MOL0     C24878   3.105   5.738   8.230 -0.0191  0.8907 -1.3004
  181MOL0     C24879   3.187   5.734   8.361 -0.0755 -0.6132  0.1754
  181MOL0     C24880   3.343   5.761   8.347 -0.3342 -0.0097 -1.5626
  181MOL0     C24881   3.402   5.706   8.474 -0.8918 -1.2780  0.3781
  181MOL0     C24882   3.437   5.559   8.476  0.2527 -0.2625  1.1420
  181MOL0     C24883   3.506   5.528   8.617 -0.1602  0.3344 -0.6051
  181MOL0     C24884   3.531   5.367   8.625  0.2927 -0.2501  0.3808
  181MOL0    Cl24885   3.397   5.282   8.710  0.1388  0.1854  0.2668
  181MOL0     C24886   2.664   5.736   8.257  0.9764 -0.1303 -0.8379
  181MOL0     C24887   2.524   5.725   8.262 -0.4122 -0.3939 -0.4914
  181MOL0     O24888   2.310   5.919   8.093  0.7442 -0.1668 -0.6708
  181MOL0     C24889   2.047   5.883   7.999 -0.9742 -0.1664 -0.0055
  181MOL0     C24890   1.909   5.890   7.987 -0.1053 -0.3999  0.1666
  181MOL0     N24891   1.229   5.657   7.643  0.7376 -0.1973  0.7444
  181MOL0     N24892   1.153   5.735   7.577  0.1920 -0.5298 -0.3411
  181MOL0     C24893   0.404   5.367   7.769 -0.2240  0.0984  0.4522
  181MOL0     C24894   0.372   5.242   7.718 -0.4494 -0.0006  0.7343
  181MOL0     C24895   0.278   4.799   7.762 -0.3929 -1.1808  0.2798
  181MOL0     C24896   0.199   4.796   7.880  0.7219  0.2286 -0.8929
  181MOL0     C24897   0.150   4.678   7.933 -0.5825  0.0337  0.4334
  181MOL0     C24898   0.177   4.562   7.873  0.2993 -0.2445  0.1243
  181MOL0     O24899   0.121   4.444   7.914  0.6413  0.3529 -0.2828
  181MOL0     C24900  -0.022   4.434   7.900  0.7653  0.2119  0.4761
  181MOL0     C24901  -0.054   4.285   7.909  0.8941  0.5995 -0.0907
  181MOL0     C24902  -0.082   4.210   7.772 -0.3554  0.5628  0.2128
  181MOL0     C24903  -0.105   4.059   7.782 -0.8031 -0.6997  0.2215
  181MOL0     C24904  -0.215   4.024   7.865 -0.5211  1.1925  0.6668
  181MOL0     C24905  -0.310   4.015   7.938  0.2341 -0.3374 -0.2850
  181MOL0     C24906   0.261   4.562   7.759  0.5347  0.2496 -0.8250
  181MOL0     C24907   0.304   4.678   7.696  0.6489 -0.6178  0.9541
  181MOL0     C24908   0.370   4.667   7.560 -0.1518  0.2698 -0.9982
  181MOL0     H24909   0.079   5.202   7.897 -0.6933  0.7565 -1.5394
  181MOL0     H24910   0.132   5.433   7.961  1.0691 -1.1294  0.5517
  181MOL0     H24911   0.348   5.674   7.692  0.5355 -2.1799 -0.6278
  181MOL0     H24912   0.505   5.615   7.772  2.6928  2.9416  0.8260
  181MOL0     H24913   0.329   5.856   7.847  0.5292  0.1810 -1.7739
  181MOL0     H24914   0.455   5.773   7.940 -1.4869 -1.4833  0.6610
  181MOL0     H24915   0.478   5.913   7.666  3.0109 -0.4594 -1.1680
  181MOL0     H24916   0.511   6.003   7.816 -0.9559 -0.2013  0.1514
  181MOL0     H24917   0.698   5.851   7.888  0.0758  0.8637 -1.2424
  181MOL0     H24918   0.676   5.780   7.730  1.1124  0.7741 -1.3385
  181MOL0     H24919   0.761   6.067   7.788 -2.0870 -2.5192  3.9156
  181MOL0     H24920   0.733   6.017   7.620 -2.3834  0.4977  0.8668
  181MOL0     H24921   0.940   5.879   7.797 -3.3610 -0.3152  0.8162
  181MOL0     H24922   0.885   5.834   7.636  1.1650  0.3086 -2.2285
  181MOL0     H24923   1.003   6.104   7.700  1.6578  0.9640 -2.8769
  181MOL0     H24924   0.927   6.071   7.548 -1.0381  0.9041  0.6297
  181MOL0     H24925   1.075   5.950   7.461 -2.9784  0.5305  1.2452
  181MOL0     H24926   1.171   6.067   7.559  0.7325 -0.0571  1.6141
  181MOL0     H24927   1.300   5.954   7.779 -1.9594  1.3334 -2.3144
  181MOL0     H24928   1.361   5.570   7.841 -0.7942  0.6012 -2.1671
  181MOL0     H24929   1.385   5.719   7.935 -1.7083  1.9684 -0.7278
  181MOL0     H24930   1.602   5.595   7.876 -1.7067 -1.7406  0.5283
  181MOL0     H24931   1.574   5.608   7.713  2.7653 -0.6286  0.9179
  181MOL0     H24932   1.721   5.784   7.774 -0.0471 -0.5633 -0.4791
  181MOL0     H24933   1.576   5.859   7.729 -0.6351 -0.4188 -0.5846
  181MOL0     H24934   1.663   5.973   7.924  2.1080 -0.8930 -1.3210
  181MOL0     H24935   1.517   5.881   7.983  1.8510 -0.6080  4.3198
  181MOL0     H24936   1.808   5.657   8.194 -0.7044  2.9887  1.0355
  181MOL0     H24937   2.160   5.534   8.190  1.7710  0.9589  0.9875
  181MOL0     H24938   1.999   5.517   8.262 -0.2886  0.5792  2.1483
  181MOL0     H24939   2.110   5.635   8.332 -1.8425  1.1132 -0.3317
  181MOL0     H24940   2.484   5.630   7.931  1.6563  0.6638 -1.9858
  181MOL0     H24941   2.737   5.630   7.956  0.9306 -2.1621  2.3191
  181MOL0     H24942   2.926   5.799   8.331 -1.3861 -0.1808 -1.0297
  181MOL0     H24943   2.937   5.620   8.297  0.7320 -0.5605 -0.6447
  181MOL0     H24944   3.133   5.660   8.157  1.8701 -1.6385  1.8483
  181MOL0     H24945   3.118   5.838   8.187 -0.2837  1.3415 -0.3541
  181MOL0     H24946   3.167   5.640   8.412 -1.3156  0.0508  0.9657
  181MOL0     H24947   3.138   5.810   8.422 -0.0589 -1.0638  0.7581
  181MOL0     H24948   3.348   5.870   8.350  1.1480 -0.0798 -0.0465
  181MOL0     H24949   3.396   5.711   8.266  1.4968 -1.2041  0.2561
  181MOL0     H24950   3.492   5.765   8.493 -2.4123  1.8929 -1.5064
  181MOL0     H24951   3.333   5.737   8.552  1.1529  2.0743  1.0253
  181MOL0     H24952   3.497   5.525   8.390  0.1789  0.3721  0.8377
  181MOL0     H24953   3.350   5.495   8.460  2.0118 -2.5499 -0.0087
  181MOL0     H24954   3.435   5.554   8.696  2.0765  1.2519  1.2247
  181MOL0     H24955   3.606   5.572   8.631  1.3788 -2.5908 -1.6473
  181MOL0     H24956   3.615   5.344   8.690 -0.9872 -2.5501  1.3512
  181MOL0     H24957   3.537   5.319   8.526 -0.5240 -1.0007  0.6778
  181MOL0     H24958   2.708   5.749   8.356 -1.4356  3.3294 -0.0240
  181MOL0     H24959   2.462   5.764   8.343  3.2593  3.6719  0.8069
  181MOL0     H24960   2.111   5.959   7.955  0.5805 -0.2880  1.9163
  181MOL0     H24961   1.870   5.961   7.915 -0.9760 -1.2737 -0.2337
  181MOL0     H24962   0.499   5.402   7.731 -0.9637  1.4475 -0.2502
  181MOL0     H24963   0.437   5.191   7.649 -1.6338 -2.2090  1.1378
  181MOL0     H24964   0.178   4.884   7.940  1.3636 -0.7391  0.8399
  181MOL0     H24965   0.094   4.685   8.026  0.5503  1.1176  1.0593
  181MOL0     H24966  -0.070   4.489   7.981  2.1745  0.1740  1.3759
  181MOL0     H24967  -0.058   4.476   7.806  1.6665  2.4475  1.0511
  181MOL0     H24968  -0.145   4.265   7.967  1.1936  0.7030  0.4240
  181MOL0     H24969   0.023   4.239   7.972  3.4555  2.2883 -1.8273
  181MOL0     H24970  -0.179   4.248   7.740 -0.0537  0.9308 -0.2697
  181MOL0     H24971  -0.010   4.238   7.694 -1.7108 -1.4109 -1.8810
  181MOL0     H24972  -0.012   4.022   7.825 -0.4339  1.4243  1.3890
  181MOL0     H24973  -0.123   4.017   7.683  1.5624  0.7817 -0.9055
  181MOL0     H24974  -0.409   4.001   7.976  0.5137 -3.4954 -0.4526
  181MOL0     H24975   0.281   4.464   7.716 -1.1331  0.1323 -1.4214
  181MOL0     H24976   0.309   4.727   7.492  0.6016  1.2291 -0.8513
  181MOL0     H24977   0.471   4.710   7.565 -0.5982  1.4952 -2.0139
  181MOL0     H24978   0.368   4.563   7.525 -1.6540  0.1072 -0.4986
  182MOL0     O24979  11.124   0.406   8.524  0.1564  0.2366 -0.5737
  182MOL0     C24980  11.148   0.385   8.642  0.0529  0.5580  0.7786
  182MOL0     O24981  11.262   0.415   8.703  0.0232  0.0249 -0.4438
  182MOL0     C24982  11.381   0.443   8.630  0.5340  0.5948  0.4003
  182MOL0     C24983  11.395   0.469   8.501  0.6451 -0.1440 -0.0620
  182MOL0     C24984  11.516   0.514   8.446  0.2984  0.7568  0.8651
  182MOL0     C24985  11.633   0.522   8.519  0.2169 -0.5897 -0.9472
  182MOL0     O24986  11.751   0.560   8.466 -0.3640  0.1470  0.1418
  182MOL0     C24987  11.750   0.602   8.330  0.8030  0.9969  0.3239
  182MOL0     C24988  11.899   0.641   8.308  0.1638  0.0150 -0.3105
  182MOL0     C24989  12.003   0.527   8.314 -1.0306 -0.2350  0.0269
  182MOL0     C24990  12.148   0.577   8.290 -0.8233 -0.7362  0.4929
  182MOL0     C24991  12.237   0.460   8.245  0.2921  0.0094 -0.0727
  182MOL0     C24992  12.389   0.496   8.230  0.2469 -0.5661 -0.6166
  182MOL0     C24993  12.422   0.595   8.114  0.1710 -0.9579 -0.6612
  182MOL0     C24994  12.528   0.699   8.148  0.4835 -0.0185 -0.0471
  182MOL0     N24995  12.489   0.794   8.257  0.0369 -0.2381  0.2213
  182MOL0     C24996  12.361   0.832   8.294  0.1004 -0.8308  0.2032
  182MOL0     C24997  12.373   0.902   8.409  0.3857 -0.0997 -0.8653
  182MOL0     C24998  12.264   0.966   8.498  0.5612  1.1167  0.1412
  182MOL0     C24999  12.305   0.941   8.647  0.1322 -0.9860  0.2813
  182MOL0     C25000  12.289   0.801   8.702 -0.1880 -0.5901 -0.4679
  182MOL0     C25001  12.393   0.704   8.653 -0.3711 -0.0938 -0.0214
  182MOL0     O25002  12.389   0.577   8.725  0.8329 -0.2533  0.2826
  182MOL0     C25003  12.438   0.474   8.646 -0.8008  0.0101 -0.5384
  182MOL0     C25004  12.563   0.479   8.583  0.3631  0.0754  0.1775
  182MOL0     C25005  12.604   0.378   8.494 -0.0379 -0.4012 -0.0655
  182MOL0     C25006  12.737   0.413   8.430 -0.5470  0.0418 -0.2874
  182MOL0     C25007  12.534   0.258   8.484  0.7534 -0.1344 -0.5794
  182MOL0     C25008  12.574   0.150   8.405 -0.4815 -0.2023 -1.0783
  182MOL0     O25009  12.518   0.027   8.442 -0.8804 -0.7425  0.3062
  182MOL0     C25010  12.532  -0.078   8.356 -0.1981 -0.3493  0.1569
  182MOL0     C25011  12.564  -0.203   8.412 -0.1574  0.3641 -0.2461
  182MOL0     C25012  12.577  -0.315   8.338  0.5641  0.0597 -0.6254
  182MOL0     C25013  12.559  -0.305   8.204  0.6888  0.0478  1.5362
  182MOL0     O25014  12.559  -0.416   8.118 -0.6125 -0.6978 -0.6020
  182MOL0     C25015  12.541  -0.536   8.176  0.5810  0.5562  0.4361
  182MOL0     C25016  12.499  -0.636   8.057 -0.7581 -0.6619 -0.3542
  182MOL0     C25017  12.607  -0.657   7.944 -0.5374  0.5956 -0.2859
  182MOL0     C25018  12.566  -0.765   7.846  0.2769  0.2471  0.1371
  182MOL0     C25019  12.431  -0.733   7.776 -1.2332 -0.9607 -0.2676
  182MOL0     C25020  12.435  -0.812   7.646 -0.4861 -0.8056 -0.1193
  182MOL0     C25021  12.317  -0.784   7.560 -0.7411 -0.1973 -0.3143
  182MOL0     C25022  12.336  -0.844   7.414 -0.0087 -0.0983 -0.4741
  182MOL0    Cl25023  12.325  -1.015   7.421 -0.1946  0.3355  0.3679
  182MOL0     C25024  12.527  -0.185   8.139  0.1617  0.4682  0.0394
  182MOL0     C25025  12.505  -0.070   8.222 -0.4880 -0.5248 -0.1054
  182MOL0     O25026  12.640   0.171   8.305  0.0119 -0.4503  0.0630
  182MOL0     C25027  12.411   0.252   8.561  0.0097  0.1634  0.2787
  182MOL0     C25028  12.366   0.360   8.641 -0.2894 -0.7791  0.7660
  182MOL0     N25029  12.505   0.931   8.419 -0.0594  0.6077  0.8424
  182MOL0     N25030  12.576   0.857   8.329 -0.3889  0.1310  0.2313
  182MOL0     C25031  11.628   0.483   8.653 -0.0469  0.1475  0.6961
  182MOL0     C25032  11.501   0.449   8.703  0.8490  0.3267 -0.6031
  182MOL0     C25033  11.033   0.327   8.722  0.4105  1.1571 -0.9496
  182MOL0     C25034  11.034   0.355   8.855  0.8603 -0.3833 -0.3378
  182MOL0     C25035  10.928   0.310   8.938 -0.0487  0.1588 -0.5543
  182MOL0     C25036  10.825   0.226   8.883  0.4415  0.3767 -0.3514
  182MOL0     O25037  10.722   0.174   8.956 -0.1263 -0.3965 -0.4895
  182MOL0     C25038  10.731   0.172   9.106 -0.2741 -0.6173  0.7602
  182MOL0     C25039  10.638   0.281   9.162 -1.3587 -0.4129  0.3380
  182MOL0     C25040  10.501   0.242   9.133 -0.0932 -0.6053  0.7517
  182MOL0     C25041  10.417   0.328   9.226  0.4170 -0.4408  0.4004
  182MOL0     C25042  10.279   0.317   9.174 -0.5277 -0.2872  0.1279
  182MOL0     C25043  10.161   0.328   9.132 -0.5718 -1.3778  1.0786
  182MOL0     C25044  10.817   0.201   8.752 -0.5111 -0.7738  0.2177
  182MOL0     C25045  10.924   0.245   8.667 -0.1040 -0.0273 -0.6004
  182MOL0     C25046  10.918   0.217   8.521  1.0900 -0.6237  0.2131
  182MOL0     H25047  11.312   0.457   8.432  0.8980 -1.9939 -0.1045
  182MOL0     H25048  11.518   0.516   8.337 -2.9018  0.3227  0.7054
  182MOL0     H25049  11.687   0.690   8.313 -2.7177 -1.3170  0.3631
  182MOL0     H25050  11.736   0.518   8.262  0.8774  1.5150 -0.3471
  182MOL0     H25051  11.908   0.694   8.212 -0.8016  1.4722  0.3626
  182MOL0     H25052  11.934   0.701   8.392  1.2612 -1.8579  0.6226
  182MOL0     H25053  11.999   0.477   8.411 -0.4408 -0.2585  0.0413
  182MOL0     H25054  11.957   0.459   8.241 -2.9728  0.5851  0.4142
  182MOL0     H25055  12.141   0.650   8.209 -0.7189 -1.8589 -0.5463
  182MOL0     H25056  12.183   0.621   8.384 -1.4606  1.7934 -0.3742
  182MOL0     H25057  12.219   0.426   8.143  4.1510 -1.3846 -0.4470
  182MOL0     H25058  12.228   0.378   8.316 -0.8719 -4.1876 -4.5546
  182MOL0     H25059  12.423   0.547   8.321 -1.0340  2.0359 -1.4927
  182MOL0     H25060  12.447   0.406   8.211  2.5957  0.8658 -0.6671
  182MOL0     H25061  12.330   0.642   8.079  1.8893  2.3218 -1.1610
  182MOL0     H25062  12.462   0.532   8.034  2.0362 -2.6486  1.4406
  182MOL0     H25063  12.628   0.658   8.165  1.0668  0.0244 -2.8699
  182MOL0     H25064  12.537   0.770   8.066 -0.3577 -0.2086 -0.3143
  182MOL0     H25065  12.264   0.804   8.253 -1.3560 -0.6734  3.2408
  182MOL0     H25066  12.164   0.927   8.476  1.6200 -2.7544  1.3497
  182MOL0     H25067  12.266   1.074   8.482 -1.1007  1.5196  2.1885
  182MOL0     H25068  12.410   0.969   8.660 -0.4950  0.9734  1.5765
  182MOL0     H25069  12.254   1.017   8.707 -0.1116 -1.4085  0.6114
  182MOL0     H25070  12.296   0.795   8.811  1.0984  0.6202 -0.4571
  182MOL0     H25071  12.187   0.771   8.676  0.5711 -1.5039 -2.5813
  182MOL0     H25072  12.386   0.694   8.544 -2.2963  1.5418 -0.1119
  182MOL0     H25073  12.498   0.735   8.650  0.3749 -2.2316  1.3673
  182MOL0     H25074  12.628   0.566   8.585  0.0599  0.4377 -2.5724
  182MOL0     H25075  12.735   0.522   8.424 -3.2246  0.0536 -0.1887
  182MOL0     H25076  12.746   0.378   8.327  3.5593  1.4969 -0.5989
  182MOL0     H25077  12.826   0.378   8.483 -0.5303  0.2006 -0.2084
  182MOL0     H25078  12.573  -0.218   8.519  1.3862  1.3508 -0.2082
  182MOL0     H25079  12.583  -0.405   8.398  6.0095  1.5404  1.6345
  182MOL0     H25080  12.627  -0.586   8.220  0.1986 -0.5672 -0.0543
  182MOL0     H25081  12.465  -0.535   8.254  0.1195  3.4720  0.0842
  182MOL0     H25082  12.481  -0.738   8.091  1.6074 -1.0864 -0.1750
  182MOL0     H25083  12.407  -0.591   8.019  0.3204  0.9123 -1.2058
  182MOL0     H25084  12.704  -0.683   7.987 -0.9709 -3.1165 -1.2693
  182MOL0     H25085  12.625  -0.562   7.892 -0.1383  2.0982  2.3749
  182MOL0     H25086  12.539  -0.861   7.893 -3.4134  0.7933 -0.5808
  182MOL0     H25087  12.645  -0.793   7.776  1.2774  0.8067  1.0075
  182MOL0     H25088  12.351  -0.748   7.849 -1.6193 -0.5777 -0.6056
  182MOL0     H25089  12.427  -0.627   7.749 -0.3298 -0.7078  0.5420
  182MOL0     H25090  12.427  -0.918   7.671  0.8144 -0.8298  0.2466
  182MOL0     H25091  12.529  -0.783   7.598 -2.0154  3.0073 -1.1388
  182MOL0     H25092  12.308  -0.676   7.552 -0.9041 -0.0953  1.0558
  182MOL0     H25093  12.224  -0.810   7.612  0.4405  1.5732  3.0022
  182MOL0     H25094  12.431  -0.815   7.368  0.5295 -2.5924 -1.0961
  182MOL0     H25095  12.253  -0.806   7.354  0.9919  1.9079 -0.6717
  182MOL0     H25096  12.513  -0.200   8.033  2.7854 -2.3777 -0.0651
  182MOL0     H25097  12.460   0.022   8.187 -0.9052  0.9366  3.7248
  182MOL0     H25098  12.346   0.165   8.561  0.1853  0.0296  0.4893
  182MOL0     H25099  12.265   0.348   8.678 -1.3971 -2.8512 -2.4429
  182MOL0     H25100  11.717   0.496   8.713 -0.1567  2.6850  0.4244
  182MOL0     H25101  11.499   0.440   8.811  2.3628  2.7904 -0.3097
  182MOL0     H25102  11.120   0.406   8.897  1.7899 -1.2756 -1.0976
  182MOL0     H25103  10.949   0.335   9.042  2.3009 -2.5423 -0.2535
  182MOL0     H25104  10.699   0.072   9.138 -2.3283  0.3445  1.9385
  182MOL0     H25105  10.835   0.184   9.138  0.0285  4.3486 -1.1718
  182MOL0     H25106  10.663   0.381   9.126  0.9124 -1.6398 -1.8552
  182MOL0     H25107  10.658   0.280   9.270 -1.0544 -0.9779  0.2841
  182MOL0     H25108  10.488   0.263   9.026  0.7931  0.8258  0.9065
  182MOL0     H25109  10.495   0.135   9.154 -2.1077 -0.1053  3.3260
  182MOL0     H25110  10.451   0.432   9.228 -0.1490 -0.1859 -1.2281
  182MOL0     H25111  10.417   0.293   9.330 -0.7493  0.3612  0.6964
  182MOL0     H25112  10.068   0.359   9.089 -0.3415 -2.6022 -0.4173
  182MOL0     H25113  10.736   0.153   8.698 -0.4836 -0.8176  0.2141
  182MOL0     H25114  10.921   0.300   8.450  3.5063 -1.3542 -0.6426
  182MOL0     H25115  11.011   0.169   8.489  1.7250  2.6752 -3.6627
  182MOL0     H25116  10.844   0.140   8.500 -0.5615  0.5094  1.6115
  183MOL0     O25117   7.809   4.150   0.490 -0.1040  0.2232  0.1046
  183MOL0     C25118   7.897   4.236   0.514  0.5701 -0.1546  0.6026
  183MOL0     O25119   7.918   4.300   0.635  0.4398 -0.0919  0.2493
  183MOL0     C25120   7.854   4.272   0.755 -1.2251  0.8724  0.5197
  183MOL0     C25121   7.734   4.204   0.769 -0.5290  0.0024  0.1455
  183MOL0     C25122   7.664   4.200   0.890  0.4728  0.1019  0.3250
  183MOL0     C25123   7.708   4.279   0.998  0.1824  0.4826  0.2540
  183MOL0     O25124   7.650   4.283   1.121  0.8700  0.3699 -0.6224
  183MOL0     C25125   7.508   4.271   1.133  0.4038  1.4064  0.8538
  183MOL0     C25126   7.464   4.254   1.278  0.5835 -0.3744  0.9492
  183MOL0     C25127   7.563   4.189   1.376 -0.6956  0.4578 -0.2976
  183MOL0     C25128   7.496   4.148   1.508  1.1805 -0.1386 -0.7629
  183MOL0     C25129   7.579   4.055   1.590  0.3101  0.8083  0.5779
  183MOL0     C25130   7.541   3.907   1.568  0.3442  0.1663  0.3385
  183MOL0     C25131   7.639   3.834   1.654  0.5965  0.5793 -0.4468
  183MOL0     C25132   7.786   3.814   1.600  0.2009  0.5617  0.7629
  183MOL0     N25133   7.786   3.756   1.466  0.2378  0.6842  0.2667
  183MOL0     C25134   7.753   3.625   1.431 -0.0695 -0.7546  0.1155
  183MOL0     C25135   7.762   3.623   1.294 -1.2648  0.1848 -0.2159
  183MOL0     C25136   7.739   3.492   1.218  0.0943  0.6988 -0.6038
  183MOL0     C25137   7.874   3.424   1.204 -0.7805  0.3968 -1.0945
  183MOL0     C25138   7.904   3.329   1.321  1.1652  0.0549  0.3195
  183MOL0     C25139   7.814   3.205   1.315 -0.3446 -0.3374  0.6288
  183MOL0     O25140   7.893   3.097   1.379 -0.0466 -0.1994  0.5349
  183MOL0     C25141   7.855   2.974   1.343  1.4283 -0.7374  0.9673
  183MOL0     C25142   7.861   2.934   1.207  0.2585 -1.0933  0.4999
  183MOL0     C25143   7.823   2.807   1.170  0.4666  0.0318  0.2010
  183MOL0     C25144   7.830   2.773   1.018  0.2838  0.4069  0.1806
  183MOL0     C25145   7.774   2.714   1.267 -0.0191  0.2442 -0.2055
  183MOL0     C25146   7.721   2.576   1.238 -1.4744  0.5868 -0.1297
  183MOL0     O25147   7.781   2.490   1.147 -0.3806  0.5580  0.1771
  183MOL0     C25148   7.741   2.357   1.134 -0.2279  0.0637 -0.2367
  183MOL0     C25149   7.843   2.271   1.086 -0.6541  0.2936 -0.2432
  183MOL0     C25150   7.822   2.135   1.056 -0.5066 -0.8818 -0.3244
  183MOL0     C25151   7.703   2.077   1.097 -1.0386 -0.1958 -0.3025
  183MOL0     O25152   7.662   1.957   1.071  0.5771 -0.0596 -0.9127
  183MOL0     C25153   7.722   1.887   0.974  0.6409  0.6120  0.1054
  183MOL0     C25154   7.668   1.744   0.989  0.0856  0.3930 -0.0970
  183MOL0     C25155   7.513   1.733   0.956  0.5578 -0.6584  0.7338
  183MOL0     C25156   7.471   1.581   0.920 -0.6662  0.1162  0.1439
  183MOL0     C25157   7.329   1.563   0.849  0.5366  0.6048 -0.3406
  183MOL0     C25158   7.347   1.543   0.698 -0.3354  0.1867  0.3023
  183MOL0     C25159   7.207   1.541   0.620 -0.0042 -0.2868  0.0872
  183MOL0     C25160   7.215   1.489   0.479 -0.7042  0.2242 -0.1497
  183MOL0    Cl25161   7.235   1.307   0.477 -0.7100  0.0330 -0.1372
  183MOL0     C25162   7.600   2.159   1.151 -0.6591 -0.3125 -0.1611
  183MOL0     C25163   7.622   2.297   1.175  0.1807  0.2751 -0.6028
  183MOL0     O25164   7.638   2.542   1.320  0.0181  0.5338 -0.0663
  183MOL0     C25165   7.772   2.753   1.406 -0.5295 -1.4419  0.1910
  183MOL0     C25166   7.803   2.886   1.438  0.6936 -0.4134 -0.1194
  183MOL0     N25167   7.809   3.746   1.253  0.8146 -0.2793 -0.0369
  183MOL0     N25168   7.805   3.829   1.353  0.0216  0.5350  0.7192
  183MOL0     C25169   7.835   4.328   0.991 -0.7265 -0.3075  0.8219
  183MOL0     C25170   7.905   4.329   0.865 -0.2382 -0.1125  0.3550
  183MOL0     C25171   7.985   4.268   0.400  0.0794 -1.0428  0.3748
  183MOL0     C25172   8.118   4.322   0.426 -0.4391  1.0027 -0.4112
  183MOL0     C25173   8.212   4.336   0.321 -0.8470  0.2992 -0.7900
  183MOL0     C25174   8.191   4.306   0.190  0.1102  0.2827  0.2982
  183MOL0     O25175   8.289   4.331   0.096 -0.5548 -0.7432  0.2533
  183MOL0     C25176   8.308   4.234  -0.002  0.1407 -0.1363 -0.2468
  183MOL0     C25177   8.380   4.120   0.062  0.0371 -0.7010  0.5654
  183MOL0     C25178   8.538   4.141   0.063 -0.0198  0.3419 -1.0289
  183MOL0     C25179   8.604   4.073   0.192 -0.4651  0.3289 -0.7432
  183MOL0     C25180   8.565   4.145   0.315  0.0834 -0.4804 -0.4133
  183MOL0     C25181   8.540   4.188   0.424 -0.1506  0.4765  0.5145
  183MOL0     C25182   8.062   4.270   0.162 -0.7752  0.1593 -0.6422
  183MOL0     C25183   7.964   4.254   0.261 -0.1069 -0.6677 -0.0775
  183MOL0     C25184   7.842   4.201   0.200 -1.0558 -0.3985  0.2541
  183MOL0     H25185   7.680   4.148   0.693 -3.4022  1.1989  1.1688
  183MOL0     H25186   7.570   4.147   0.902 -0.7712  2.4643  1.5632
  183MOL0     H25187   7.459   4.197   1.070  0.6269  0.8132  1.3727
  183MOL0     H25188   7.456   4.354   1.083 -1.1976 -0.1130 -0.0890
  183MOL0     H25189   7.444   4.349   1.328 -2.0453 -0.5537  0.3839
  183MOL0     H25190   7.371   4.196   1.283  3.3103 -5.1083  2.0912
  183MOL0     H25191   7.600   4.098   1.327 -2.2904 -0.3401 -0.1131
  183MOL0     H25192   7.632   4.270   1.400 -0.3931  0.1285 -0.0487
  183MOL0     H25193   7.488   4.238   1.570  2.9795 -0.4511 -0.0038
  183MOL0     H25194   7.398   4.105   1.487  2.0550 -1.4310 -2.4716
  183MOL0     H25195   7.559   4.084   1.694  0.9770 -1.2680  1.3381
  183MOL0     H25196   7.686   4.064   1.569  0.0490  0.3221 -1.0388
  183MOL0     H25197   7.439   3.903   1.609  0.1826 -0.3330 -0.1025
  183MOL0     H25198   7.536   3.863   1.468 -0.6595 -2.0940  1.3235
  183MOL0     H25199   7.599   3.735   1.681 -1.4395  1.2401 -0.8593
  183MOL0     H25200   7.649   3.890   1.748 -0.5929 -3.0283  2.0529
  183MOL0     H25201   7.820   3.918   1.599 -0.0845  0.6649 -0.5364
  183MOL0     H25202   7.855   3.749   1.654  1.4899 -1.6828 -3.1551
  183MOL0     H25203   7.728   3.541   1.495  1.0166 -0.7801  0.5288
  183MOL0     H25204   7.708   3.510   1.115  0.7273  0.0481 -0.9136
  183MOL0     H25205   7.667   3.434   1.276  0.4780  1.2551  0.4558
  183MOL0     H25206   7.875   3.369   1.109  0.5249 -0.3426 -0.6730
  183MOL0     H25207   7.951   3.502   1.201  0.0007 -0.3244 -0.1924
  183MOL0     H25208   8.008   3.297   1.308  1.4562  0.4177  1.6061
  183MOL0     H25209   7.886   3.386   1.412  0.7097 -0.5074  0.5807
  183MOL0     H25210   7.726   3.217   1.380  0.0018 -2.3434  1.5356
  183MOL0     H25211   7.784   3.193   1.211  1.8317 -2.3854  0.1591
  183MOL0     H25212   7.891   3.015   1.141  0.4332 -0.8191  0.9109
  183MOL0     H25213   7.902   2.692   1.002 -2.7372 -1.9120 -3.1235
  183MOL0     H25214   7.853   2.868   0.968 -3.9271  2.5820  1.8940
  183MOL0     H25215   7.729   2.749   0.984 -0.7803  3.6024  0.6859
  183MOL0     H25216   7.946   2.301   1.069 -0.1196 -2.4087 -2.5276
  183MOL0     H25217   7.907   2.087   1.011  0.4681  0.7186 -0.2749
  183MOL0     H25218   7.699   1.922   0.873 -1.6240 -1.2756 -0.1206
  183MOL0     H25219   7.831   1.888   0.988  0.6467 -0.1057  0.1806
  183MOL0     H25220   7.730   1.688   0.918 -0.2644  0.5143 -0.5013
  183MOL0     H25221   7.690   1.708   1.090 -3.6099 -0.1506  0.6642
  183MOL0     H25222   7.500   1.796   0.867  1.9765  0.4473  1.2767
  183MOL0     H25223   7.449   1.755   1.042 -1.8695 -2.5710 -0.4260
  183MOL0     H25224   7.457   1.526   1.014 -1.0898 -2.3862 -1.3109
  183MOL0     H25225   7.547   1.542   0.852 -2.4133 -0.7218 -1.4074
  183MOL0     H25226   7.270   1.481   0.892  1.8308  0.4994  1.3485
  183MOL0     H25227   7.272   1.653   0.872  1.3994  1.9074 -2.9046
  183MOL0     H25228   7.389   1.443   0.687 -0.8645  0.0768 -0.8470
  183MOL0     H25229   7.410   1.622   0.657 -1.5965  2.7528  2.8767
  183MOL0     H25230   7.173   1.642   0.599 -0.1229 -0.6879 -1.8507
  183MOL0     H25231   7.126   1.503   0.682 -1.6416  1.0706 -1.1352
  183MOL0     H25232   7.294   1.538   0.422  0.0125  0.6282  1.1516
  183MOL0     H25233   7.126   1.513   0.420 -0.1555  0.8843 -0.7221
  183MOL0     H25234   7.512   2.104   1.183 -1.6449  1.9951  1.3707
  183MOL0     H25235   7.549   2.365   1.218  2.0978  2.6935 -0.9070
  183MOL0     H25236   7.738   2.678   1.476 -0.2823 -4.8810 -3.0432
  183MOL0     H25237   7.815   2.907   1.543  2.3710 -0.4353 -0.2864
  183MOL0     H25238   7.890   4.378   1.069  0.4797  0.9111 -0.7512
  183MOL0     H25239   8.002   4.379   0.856 -0.0468 -0.4841  0.3269
  183MOL0     H25240   8.148   4.345   0.528  1.4259 -0.2957 -0.6089
  183MOL0     H25241   8.304   4.383   0.355 -1.8324  1.9589 -0.2947
  183MOL0     H25242   8.221   4.193  -0.054  0.4856 -1.8710  0.4957
  183MOL0     H25243   8.378   4.278  -0.074 -0.3581 -0.9876 -1.2829
  183MOL0     H25244   8.376   4.033  -0.004 -0.5452  1.3605 -2.3330
  183MOL0     H25245   8.340   4.096   0.161 -0.0436 -1.0059  0.4612
  183MOL0     H25246   8.595   4.103  -0.022  2.4134 -0.3774  0.7908
  183MOL0     H25247   8.551   4.250   0.066  0.8451  0.2273  0.4015
  183MOL0     H25248   8.712   4.091   0.183 -0.4629  1.2709  0.9205
  183MOL0     H25249   8.581   3.966   0.202  1.4359  0.0656  1.8502
  183MOL0     H25250   8.516   4.245   0.512 -3.2651  0.3541 -0.1474
  183MOL0     H25251   8.039   4.260   0.057  1.1923 -0.6743 -1.0441
  183MOL0     H25252   7.772   4.182   0.282  1.5481  1.9027  3.2709
  183MOL0     H25253   7.783   4.266   0.134 -1.1019 -0.8888 -0.1945
  183MOL0     H25254   7.858   4.113   0.137 -2.9585 -2.0020  1.8899
  184MOL0     O25255   4.539   1.017   7.810  0.2091 -0.6452  0.1320
  184MOL0     C25256   4.548   1.018   7.688 -0.0013 -0.8716 -0.4387
  184MOL0     O25257   4.611   0.934   7.616  0.7887  0.6090 -0.1452
  184MOL0     C25258   4.682   0.831   7.682 -0.7033  0.4222 -0.8249
  184MOL0     C25259   4.771   0.858   7.781 -0.0136  0.2397 -1.1302
  184MOL0     C25260   4.829   0.754   7.854  0.3480 -0.2865  0.4914
  184MOL0     C25261   4.792   0.622   7.824  0.3694 -0.4362 -1.0904
  184MOL0     O25262   4.849   0.526   7.902  0.0321  0.0012 -0.1307
  184MOL0     C25263   4.832   0.390   7.859  0.4070  0.5863 -0.0008
  184MOL0     C25264   4.877   0.294   7.970 -0.1918 -0.9092 -0.3653
  184MOL0     C25265   4.798   0.292   8.098 -1.1139  0.2546  0.6988
  184MOL0     C25266   4.870   0.198   8.198  0.2704  0.1557 -0.7533
  184MOL0     C25267   4.782   0.077   8.227  0.5465  0.4025  0.6310
  184MOL0     C25268   4.852  -0.002   8.335  0.1136 -0.1586 -0.3342
  184MOL0     C25269   4.773  -0.117   8.393  0.2256 -0.2767  0.1066
  184MOL0     C25270   4.857  -0.194   8.490  0.2682 -1.1464  0.0271
  184MOL0     N25271   4.926  -0.102   8.594  1.3793 -0.6738  0.0676
  184MOL0     C25272   4.852  -0.015   8.679 -0.9518  0.2173  0.4177
  184MOL0     C25273   4.940   0.031   8.767  0.2242  0.3725 -0.3367
  184MOL0     C25274   4.896   0.132   8.871  0.4332  0.0840 -1.2079
  184MOL0     C25275   4.920   0.098   9.020 -0.9125  0.0383  0.1364
  184MOL0     C25276   4.870   0.214   9.107  0.1134 -0.8652  0.6312
  184MOL0     C25277   4.913   0.195   9.257  0.0574 -0.9056 -0.6002
  184MOL0     O25278   5.057   0.207   9.302  0.4485  0.3901  1.0153
  184MOL0     C25279   5.133   0.091   9.312  0.3130  0.4634  0.1109
  184MOL0     C25280   5.267   0.108   9.359  0.0068 -0.6854  0.8023
  184MOL0     C25281   5.359  -0.002   9.376 -0.4847 -0.4279 -0.1543
  184MOL0     C25282   5.500   0.031   9.423  0.5038 -0.0091  0.7123
  184MOL0     C25283   5.320  -0.130   9.342  0.7451 -0.7362  0.5344
  184MOL0     C25284   5.401  -0.255   9.367 -0.6435 -0.0194 -0.3399
  184MOL0     O25285   5.350  -0.374   9.315  0.6709  0.5551 -0.1876
  184MOL0     C25286   5.438  -0.478   9.294 -0.0749 -0.6958 -0.8129
  184MOL0     C25287   5.444  -0.582   9.387  0.9298  0.1070 -0.2072
  184MOL0     C25288   5.534  -0.685   9.357 -0.2453 -0.3136  0.8957
  184MOL0     C25289   5.620  -0.690   9.247  0.0580  0.6511  0.0728
  184MOL0     O25290   5.706  -0.787   9.200  0.0596  0.3738  0.7008
  184MOL0     C25291   5.778  -0.862   9.292  0.2319  0.1682 -0.5946
  184MOL0     C25292   5.872  -0.964   9.232  0.5001  0.4870  0.6593
  184MOL0     C25293   5.906  -1.073   9.339 -0.7303 -0.0140 -0.2972
  184MOL0     C25294   6.040  -1.146   9.322 -0.6692  1.0387 -0.5943
  184MOL0     C25295   6.043  -1.261   9.427  0.0439  0.3870  0.9542
  184MOL0     C25296   6.168  -1.339   9.451  0.1028  0.1994 -0.7008
  184MOL0     C25297   6.193  -1.457   9.361 -0.4330 -1.2398  0.1827
  184MOL0     C25298   6.264  -1.423   9.228 -0.0232 -1.0096 -0.1488
  184MOL0    Cl25299   6.444  -1.408   9.250 -0.0520  0.5249 -0.0901
  184MOL0     C25300   5.598  -0.589   9.153  0.1938  0.1008 -0.5613
  184MOL0     C25301   5.523  -0.479   9.179 -0.0006  0.2489 -0.3721
  184MOL0     O25302   5.512  -0.253   9.427  0.0824 -0.1700  0.2385
  184MOL0     C25303   5.186  -0.141   9.303  0.9808  0.2293 -0.0980
  184MOL0     C25304   5.088  -0.041   9.294 -0.5470 -0.1249  0.9760
  184MOL0     N25305   5.055  -0.032   8.746 -0.0875 -0.1732 -0.5093
  184MOL0     N25306   5.043  -0.118   8.650 -0.2462 -0.0215  0.7539
  184MOL0     C25307   4.701   0.597   7.721 -0.4732  0.3938 -0.2588
  184MOL0     C25308   4.646   0.697   7.646  0.2238  0.1393  1.0074
  184MOL0     C25309   4.465   1.136   7.633 -0.1791  0.3018 -0.1658
  184MOL0     C25310   4.390   1.225   7.715  0.4772 -0.1077  0.0123
  184MOL0     C25311   4.317   1.328   7.670  0.7687 -0.7146 -0.1444
  184MOL0     C25312   4.300   1.347   7.534 -0.1267 -0.5965  0.1877
  184MOL0     O25313   4.215   1.439   7.470 -0.0246 -0.9482 -0.3425
  184MOL0     C25314   4.148   1.544   7.550 -0.2193  0.5099 -0.5535
  184MOL0     C25315   4.062   1.641   7.473 -0.2858 -0.5108  0.5673
  184MOL0     C25316   4.144   1.747   7.391  0.2691  0.0613 -0.4735
  184MOL0     C25317   4.054   1.864   7.355  0.0805  0.7415 -0.5947
  184MOL0     C25318   3.947   1.829   7.256 -0.1061 -0.5116  0.3470
  184MOL0     C25319   3.873   1.792   7.173  0.4082  0.0507  0.6118
  184MOL0     C25320   4.362   1.253   7.447 -0.2563 -0.2386  0.7405
  184MOL0     C25321   4.444   1.147   7.493 -0.0777  0.4039  1.0349
  184MOL0     C25322   4.509   1.051   7.397  0.6391  0.3158  0.1518
  184MOL0     H25323   4.799   0.960   7.801  0.9293  0.5040 -3.4531
  184MOL0     H25324   4.894   0.783   7.936 -0.2845  1.9427  0.2686
  184MOL0     H25325   4.877   0.362   7.764  0.3903  3.4215 -0.9397
  184MOL0     H25326   4.726   0.371   7.836  1.0990 -0.4453 -2.6783
  184MOL0     H25327   4.861   0.191   7.937 -4.1470 -0.5350 -0.1471
  184MOL0     H25328   4.986   0.308   7.973 -0.0027 -0.8668 -3.9178
  184MOL0     H25329   4.805   0.396   8.131  2.5773  0.5381 -0.5661
  184MOL0     H25330   4.689   0.287   8.087 -1.2082 -1.7063  1.9802
  184MOL0     H25331   4.972   0.183   8.163 -0.6426 -2.2659 -2.6430
  184MOL0     H25332   4.882   0.254   8.292 -0.5874 -1.3666  0.3159
  184MOL0     H25333   4.757   0.018   8.138 -1.9926  0.9335  0.9130
  184MOL0     H25334   4.692   0.114   8.277  0.7931  1.9293 -0.0086
  184MOL0     H25335   4.949  -0.032   8.294  1.4283  0.1276  2.4060
  184MOL0     H25336   4.863   0.065   8.420  0.8365 -0.4635 -0.1807
  184MOL0     H25337   4.747  -0.183   8.310  2.0698 -0.2369 -0.5520
  184MOL0     H25338   4.676  -0.080   8.427  0.1307 -0.1701 -0.2759
  184MOL0     H25339   4.790  -0.260   8.546 -1.4016  0.5429  0.1483
  184MOL0     H25340   4.931  -0.253   8.436  1.5187  3.1852 -3.6123
  184MOL0     H25341   4.746   0.010   8.673 -1.3442 -1.5776 -1.1066
  184MOL0     H25342   4.791   0.158   8.858 -0.0533 -0.2123  1.5435
  184MOL0     H25343   4.953   0.224   8.856 -0.9366  0.7787 -2.3735
  184MOL0     H25344   4.859   0.009   9.036 -1.9778  0.5908 -0.7742
  184MOL0     H25345   5.025   0.069   9.031 -1.5649 -3.1633 -1.0497
  184MOL0     H25346   4.917   0.305   9.070 -1.4213 -0.4252 -0.3435
  184MOL0     H25347   4.765   0.241   9.091  0.6509 -0.4889 -3.0158
  184MOL0     H25348   4.854   0.271   9.308 -1.1173 -1.1515 -1.5567
  184MOL0     H25349   4.876   0.099   9.292 -0.0896 -0.1294  1.4942
  184MOL0     H25350   5.300   0.209   9.382 -0.3326  1.0390 -4.8722
  184MOL0     H25351   5.525  -0.029   9.511  0.2783 -1.3575 -0.1175
  184MOL0     H25352   5.505   0.134   9.462  0.2029  1.0403 -1.8214
  184MOL0     H25353   5.575   0.013   9.346 -0.5846  3.3636 -1.3594
  184MOL0     H25354   5.397  -0.581   9.485 -0.7960 -3.7031 -0.8183
  184MOL0     H25355   5.535  -0.767   9.429 -0.1704 -0.7580  0.3965
  184MOL0     H25356   5.844  -0.805   9.358  0.5836 -0.5362 -0.3195
  184MOL0     H25357   5.698  -0.904   9.354  0.6172  2.0074  1.2594
  184MOL0     H25358   5.813  -1.014   9.154  2.7902  0.0841 -0.9298
  184MOL0     H25359   5.965  -0.928   9.188  2.0665 -2.3247  1.4061
  184MOL0     H25360   5.825  -1.144   9.359 -2.5615  2.7606  3.4127
  184MOL0     H25361   5.919  -1.017   9.432  1.8110  2.0941 -1.7668
  184MOL0     H25362   6.124  -1.080   9.345 -1.2716  1.1245  1.4791
  184MOL0     H25363   6.057  -1.180   9.219 -0.2431  0.1865 -0.2588
  184MOL0     H25364   6.004  -1.218   9.520 -2.3962  2.0266 -0.7026
  184MOL0     H25365   5.965  -1.330   9.395 -0.2205  0.9705  0.3088
  184MOL0     H25366   6.154  -1.371   9.555 -2.0494  4.2802  0.4698
  184MOL0     H25367   6.255  -1.273   9.456  0.1529  0.0478  1.9902
  184MOL0     H25368   6.099  -1.508   9.339  1.0655 -3.3730 -1.7939
  184MOL0     H25369   6.264  -1.519   9.418  0.6856 -0.7154 -0.5986
  184MOL0     H25370   6.237  -1.324   9.191  1.6618  0.6577  2.6742
  184MOL0     H25371   6.246  -1.494   9.147  0.2129  2.0078 -3.0773
  184MOL0     H25372   5.664  -0.587   9.066  2.9146 -2.5723  1.2336
  184MOL0     H25373   5.523  -0.392   9.113  0.8027 -0.2612 -1.0686
  184MOL0     H25374   5.152  -0.244   9.297 -0.0004  0.4213  1.5752
  184MOL0     H25375   4.985  -0.066   9.269 -0.7839  0.6642  1.1364
  184MOL0     H25376   4.666   0.496   7.700  0.8472 -0.6738  2.2153
  184MOL0     H25377   4.566   0.679   7.575 -0.2646  1.6038  1.1623
  184MOL0     H25378   4.395   1.219   7.824 -1.7139  3.5846  0.4808
  184MOL0     H25379   4.266   1.393   7.740  2.2162  2.2472 -1.6579
  184MOL0     H25380   4.084   1.497   7.625 -0.6363  0.8615 -0.6859
  184MOL0     H25381   4.215   1.602   7.614  0.3975  0.5287 -1.2002
  184MOL0     H25382   4.008   1.699   7.549  0.6953  3.8071 -1.6707
  184MOL0     H25383   3.995   1.588   7.404 -1.1492  1.5163 -0.2333
  184MOL0     H25384   4.223   1.802   7.443 -1.5487  1.2755  1.1350
  184MOL0     H25385   4.183   1.702   7.299  0.4350 -1.7242  0.4328
  184MOL0     H25386   4.120   1.935   7.304  0.0218  0.1489 -1.5155
  184MOL0     H25387   4.010   1.921   7.438 -1.7723 -0.9827 -0.3185
  184MOL0     H25388   3.808   1.760   7.094  1.6373  0.7665 -0.7379
  184MOL0     H25389   4.351   1.257   7.339  2.9131  3.3337  0.3240
  184MOL0     H25390   4.485   0.947   7.421  0.5597  0.9347  3.1412
  184MOL0     H25391   4.479   1.080   7.295 -1.6978  3.4992  1.5702
  184MOL0     H25392   4.618   1.054   7.407  0.5736  3.6027  0.7820
  185MOL0     O25393  10.148   4.210   7.302 -0.0508 -0.1144 -0.4558
  185MOL0     C25394  10.133   4.270   7.407 -0.2904 -0.7378  0.5073
  185MOL0     O25395  10.222   4.364   7.449  0.2612 -0.4972 -0.3553
  185MOL0     C25396  10.336   4.405   7.374  0.2853 -0.1147 -0.4244
  185MOL0     C25397  10.341   4.408   7.234 -1.1568  0.5848  0.6793
  185MOL0     C25398  10.464   4.436   7.175 -0.1802  0.7831 -0.0406
  185MOL0     C25399  10.581   4.449   7.252  0.0723  0.3370  0.4875
  185MOL0     O25400  10.695   4.502   7.199 -0.2796  0.6457  0.4081
  185MOL0     C25401  10.713   4.483   7.063 -0.5565  0.1594  0.6595
  185MOL0     C25402  10.859   4.519   7.037  0.3029 -0.9185  0.3932
  185MOL0     C25403  10.896   4.668   7.068 -0.4382  0.0946 -0.7204
  185MOL0     C25404  11.037   4.699   7.036 -0.7080  0.2211 -0.6674
  185MOL0     C25405  11.083   4.844   7.041  0.4134 -0.7861 -0.2728
  185MOL0     C25406  10.995   4.935   7.120  0.5401  0.4506 -0.4421
  185MOL0     C25407  11.027   5.077   7.080 -0.1137  0.2874  1.0025
  185MOL0     C25408  10.895   5.160   7.079 -0.7485 -0.1085 -0.2687
  185MOL0     N25409  10.941   5.289   7.029 -0.3793  1.0008 -0.6350
  185MOL0     C25410  10.991   5.312   6.904 -0.0659  0.3782 -0.9066
  185MOL0     C25411  11.011   5.441   6.896  0.3610 -0.3823 -0.5129
  185MOL0     C25412  11.034   5.522   6.768 -0.3195 -0.0941 -0.0912
  185MOL0     C25413  10.959   5.479   6.636 -0.3430 -0.8320  0.2772
  185MOL0     C25414  10.808   5.513   6.644 -0.9327 -0.3233  1.0331
  185MOL0     C25415  10.734   5.519   6.509  0.1930  0.4494  0.1227
  185MOL0     O25416  10.792   5.614   6.418 -0.4658 -0.0124 -0.2219
  185MOL0     C25417  10.732   5.609   6.290 -0.4893  0.0285  0.1788
  185MOL0     C25418  10.808   5.640   6.181 -0.7208  0.5205 -0.1286
  185MOL0     C25419  10.749   5.642   6.053 -1.6650  0.1321 -0.2204
  185MOL0     C25420  10.860   5.662   5.955  0.6225  0.4767  0.2678
  185MOL0     C25421  10.613   5.612   6.026 -0.6832  0.1985  0.1869
  185MOL0     C25422  10.555   5.616   5.884  0.4839 -0.6374 -0.7167
  185MOL0     O25423  10.584   5.727   5.809  0.9099  0.0639  0.2592
  185MOL0     C25424  10.549   5.727   5.675 -0.1322  0.3059 -0.1632
  185MOL0     C25425  10.647   5.754   5.576  0.2359  0.4283 -0.4610
  185MOL0     C25426  10.609   5.766   5.440  0.3113  0.4950  0.0521
  185MOL0     C25427  10.475   5.738   5.406  1.2204 -0.4913 -0.9219
  185MOL0     O25428  10.442   5.755   5.272  0.8458  0.5217  0.2056
  185MOL0     C25429  10.302   5.725   5.226 -0.4228 -0.1381 -0.0083
  185MOL0     C25430  10.306   5.568   5.194  0.1184 -0.4010 -0.1813
  185MOL0     C25431  10.170   5.515   5.162  0.5277  0.5210 -0.5600
  185MOL0     C25432  10.152   5.519   5.012 -0.1134  0.2424  0.4154
  185MOL0     C25433  10.024   5.437   4.963 -0.9295  0.5003 -0.0016
  185MOL0     C25434   9.888   5.518   4.994 -0.8512 -0.2224 -0.1341
  185MOL0     C25435   9.769   5.431   4.999  0.2203 -0.3099 -0.0820
  185MOL0     C25436   9.638   5.522   4.990  0.0723 -0.4953 -0.5618
  185MOL0    Cl25437   9.618   5.571   4.810  0.2162  0.0074  0.0660
  185MOL0     C25438  10.382   5.706   5.516 -0.4795  0.3313  0.1817
  185MOL0     C25439  10.414   5.702   5.643 -0.5779 -0.3247  0.8613
  185MOL0     O25440  10.494   5.517   5.845 -0.3222  0.0163  0.0758
  185MOL0     C25441  10.537   5.583   6.143 -0.4047 -0.8043  0.8197
  185MOL0     C25442  10.595   5.583   6.270 -0.8007 -0.9310  0.5031
  185MOL0     N25443  10.990   5.500   7.023 -0.0769 -0.0772 -0.3280
  185MOL0     N25444  10.964   5.404   7.103  0.2857  0.5538 -0.2225
  185MOL0     C25445  10.567   4.457   7.389 -0.1192  0.1573 -0.1812
  185MOL0     C25446  10.450   4.439   7.453 -0.7270  0.0694 -0.2425
  185MOL0     C25447  10.014   4.235   7.491  0.2771  0.7252 -0.1327
  185MOL0     C25448  10.002   4.299   7.618 -0.0439  0.9328 -0.9680
  185MOL0     C25449   9.905   4.255   7.707  0.5261 -0.4094 -0.3518
  185MOL0     C25450   9.807   4.157   7.672 -0.2891  0.0873 -0.7307
  185MOL0     O25451   9.706   4.123   7.758  0.6957 -0.3344 -0.5981
  185MOL0     C25452   9.675   4.206   7.870 -0.2492 -0.0885  0.0320
  185MOL0     C25453   9.523   4.182   7.887  0.3996 -0.5819 -0.3256
  185MOL0     C25454   9.434   4.196   7.759  0.2905  0.7680 -0.3694
  185MOL0     C25455   9.438   4.328   7.684 -0.4719 -0.8673 -0.6925
  185MOL0     C25456   9.348   4.318   7.573  0.4403 -0.3572 -0.0665
  185MOL0     C25457   9.275   4.305   7.482 -0.3355 -0.1638  0.0027
  185MOL0     C25458   9.811   4.098   7.547  0.0620  0.0581 -0.4145
  185MOL0     C25459   9.916   4.129   7.460 -1.4381 -0.0066 -0.7565
  185MOL0     C25460   9.915   4.034   7.348 -0.0437  0.1546  0.4232
  185MOL0     H25461  10.264   4.379   7.164  2.0251  1.4210 -3.6259
  185MOL0     H25462  10.476   4.466   7.071 -1.5069 -0.3929 -0.5715
  185MOL0     H25463  10.655   4.549   6.998  0.9218  0.8535 -0.0056
  185MOL0     H25464  10.698   4.381   7.029  1.7252 -0.1147  0.3008
  185MOL0     H25465  10.927   4.448   7.084 -0.2930 -0.7930  1.4862
  185MOL0     H25466  10.866   4.514   6.928  0.0084 -3.4038  0.4382
  185MOL0     H25467  10.829   4.732   7.010 -2.2310  0.2394  1.3603
  185MOL0     H25468  10.884   4.680   7.176  2.4025 -2.5338  0.0341
  185MOL0     H25469  11.099   4.648   7.110  3.2021  5.4792  0.2289
  185MOL0     H25470  11.063   4.658   6.938  2.1380  1.5815 -0.5703
  185MOL0     H25471  11.093   4.882   6.939 -0.4870  0.5550  0.1039
  185MOL0     H25472  11.182   4.860   7.083  0.9017  0.8835 -1.9310
  185MOL0     H25473  10.887   4.918   7.109  0.8298 -2.5867  0.5929
  185MOL0     H25474  11.026   4.919   7.223  0.9480 -2.2958 -0.9325
  185MOL0     H25475  11.058   5.073   6.975 -0.9653  2.0534  0.6549
  185MOL0     H25476  11.108   5.116   7.141 -1.2459 -0.6383  3.2329
  185MOL0     H25477  10.822   5.121   7.007 -1.5618  0.7158  0.0954
  185MOL0     H25478  10.858   5.166   7.181  2.1442 -2.8275  1.1331
  185MOL0     H25479  11.033   5.249   6.826  2.8717 -1.5561  1.9574
  185MOL0     H25480  11.142   5.519   6.749 -0.2444 -0.6250  0.4027
  185MOL0     H25481  11.005   5.624   6.795  0.5200 -0.5679  2.9980
  185MOL0     H25482  11.004   5.531   6.551  1.2813 -1.9075  0.4339
  185MOL0     H25483  10.978   5.372   6.622  0.6709 -0.5371 -0.6981
  185MOL0     H25484  10.755   5.431   6.695 -2.0788 -1.4364 -1.7353
  185MOL0     H25485  10.786   5.604   6.700 -0.9595 -1.1612  2.4305
  185MOL0     H25486  10.740   5.422   6.459 -3.5334  0.8340 -1.3427
  185MOL0     H25487  10.627   5.529   6.529  0.0478 -0.5178 -0.1362
  185MOL0     H25488  10.910   5.657   6.214  0.2175 -0.1124 -2.4426
  185MOL0     H25489  10.862   5.574   5.890 -2.0122 -0.8697  1.8219
  185MOL0     H25490  10.962   5.664   5.994  0.3674 -1.9998  1.2170
  185MOL0     H25491  10.839   5.752   5.896  2.6893 -1.0734 -3.1398
  185MOL0     H25492  10.752   5.753   5.605  0.7173 -0.0817 -2.1352
  185MOL0     H25493  10.676   5.789   5.358 -1.7270  0.8413 -1.6035
  185MOL0     H25494  10.213   5.752   5.285  0.4134 -1.0083  1.7234
  185MOL0     H25495  10.300   5.776   5.130 -0.9213 -1.3964 -0.6877
  185MOL0     H25496  10.384   5.573   5.117 -0.8057  3.6849 -1.0489
  185MOL0     H25497  10.338   5.512   5.282  2.7605  1.7873  0.3640
  185MOL0     H25498  10.092   5.566   5.219 -1.3763 -3.4496  0.7236
  185MOL0     H25499  10.170   5.408   5.187  2.0112  0.9488  1.5368
  185MOL0     H25500  10.239   5.470   4.967  0.4214  2.0559 -0.6076
  185MOL0     H25501  10.145   5.622   4.976 -1.0166  0.1653  0.3473
  185MOL0     H25502  10.037   5.428   4.854 -1.3250 -2.6857  0.1029
  185MOL0     H25503  10.036   5.336   5.003 -0.9977 -0.4203 -2.1691
  185MOL0     H25504   9.884   5.599   4.921  2.5889  0.5833  0.4044
  185MOL0     H25505   9.881   5.571   5.090 -3.8783 -1.7134  0.5682
  185MOL0     H25506   9.771   5.349   5.071 -2.4008 -2.2808 -2.0757
  185MOL0     H25507   9.775   5.381   4.902 -1.4568  1.1761 -1.0228
  185MOL0     H25508   9.640   5.612   5.053 -1.8073 -0.6923 -0.1458
  185MOL0     H25509   9.548   5.465   5.015 -1.7164  2.2213 -0.3024
  185MOL0     H25510  10.279   5.684   5.490  0.8763 -3.0942 -3.1810
  185MOL0     H25511  10.346   5.667   5.721 -2.0534 -0.2322 -0.3399
  185MOL0     H25512  10.430   5.563   6.142 -0.7066  0.5808  2.0614
  185MOL0     H25513  10.532   5.558   6.355  0.2993 -2.6308  0.8754
  185MOL0     H25514  10.660   4.472   7.442 -0.0163 -1.1065  0.0442
  185MOL0     H25515  10.435   4.446   7.560  1.8524  0.0058  0.1701
  185MOL0     H25516  10.071   4.372   7.658  1.1180  0.8164 -2.6871
  185MOL0     H25517   9.917   4.301   7.805  1.5403  0.7090 -0.9695
  185MOL0     H25518   9.730   4.178   7.960  2.2658  3.1967 -0.2913
  185MOL0     H25519   9.701   4.311   7.850  1.8886 -0.8185 -1.3672
  185MOL0     H25520   9.482   4.255   7.958 -1.9250 -0.3873 -1.7460
  185MOL0     H25521   9.509   4.083   7.931  0.4466  0.1687  1.4773
  185MOL0     H25522   9.473   4.124   7.687  2.2786  0.3196  1.0661
  185MOL0     H25523   9.332   4.171   7.788  1.1336 -1.7278  0.7598
  185MOL0     H25524   9.541   4.345   7.652 -0.2946 -0.1721  0.2114
  185MOL0     H25525   9.401   4.401   7.756  0.9765  0.5566 -1.3273
  185MOL0     H25526   9.217   4.286   7.394  1.2901  1.4236 -1.5086
  185MOL0     H25527   9.722   4.040   7.524  0.0145 -0.6344  1.3649
  185MOL0     H25528   9.929   4.084   7.251 -0.5272  0.2413  0.3987
  185MOL0     H25529   9.995   3.961   7.364  0.2484  0.6368  1.2123
  185MOL0     H25530   9.818   3.985   7.343 -2.0439  3.7402  0.4641
  186MOL0     O25531   1.558   9.498   9.394 -0.3374  0.3480  0.2404
  186MOL0     C25532   1.669   9.479   9.442 -0.5927 -0.4488 -0.4610
  186MOL0     O25533   1.717   9.348   9.459  0.3400 -0.1066  0.2397
  186MOL0     C25534   1.633   9.236   9.447 -1.1770  0.4320  0.2787
  186MOL0     C25535   1.689   9.112   9.409 -0.0745  0.0193 -0.5794
  186MOL0     C25536   1.616   9.002   9.371 -0.6831 -1.8693 -0.7292
  186MOL0     C25537   1.472   9.011   9.379 -0.1694 -0.1086 -0.8487
  186MOL0     O25538   1.386   8.910   9.333  0.7921  0.3320  0.5161
  186MOL0     C25539   1.432   8.791   9.258 -0.4542 -0.7580 -0.1190
  186MOL0     C25540   1.337   8.687   9.313  0.1278  0.3296  0.6359
  186MOL0     C25541   1.406   8.552   9.287  0.1160 -0.1052  0.4633
  186MOL0     C25542   1.315   8.439   9.303 -0.2059  0.6990  0.4924
  186MOL0     C25543   1.237   8.419   9.171 -0.6200 -0.5854  0.2277
  186MOL0     C25544   1.162   8.279   9.171 -0.1396 -0.8463  0.0777
  186MOL0     C25545   1.096   8.236   9.040 -0.3350 -0.5158 -0.7847
  186MOL0     C25546   1.027   8.347   8.971  0.2818 -0.0078 -0.2041
  186MOL0     N25547   0.929   8.425   9.048  0.6520  0.5034 -0.7547
  186MOL0     C25548   0.835   8.386   9.143  0.3841  0.2881  0.1393
  186MOL0     C25549   0.760   8.491   9.176  0.7035  0.2667  0.7409
  186MOL0     C25550   0.621   8.469   9.249 -0.2396 -0.1460 -0.1184
  186MOL0     C25551   0.488   8.442   9.164  0.7123  0.0398 -0.5876
  186MOL0     C25552   0.440   8.576   9.104 -0.3117 -0.0327 -0.4320
  186MOL0     C25553   0.333   8.544   8.998  0.1557 -0.6810  0.6998
  186MOL0     O25554   0.220   8.492   9.069 -0.0382 -0.2177  0.2511
  186MOL0     C25555   0.119   8.441   8.989  0.4302  0.2573 -0.1465
  186MOL0     C25556   0.134   8.397   8.856  0.6460  0.8004  0.1852
  186MOL0     C25557   0.021   8.344   8.779  0.6755  0.6785 -0.7596
  186MOL0     C25558   0.063   8.270   8.649  0.0028  0.4286  0.1528
  186MOL0     C25559  -0.115   8.339   8.840 -0.8636 -0.2882  1.4603
  186MOL0     C25560  -0.228   8.278   8.766  0.9175 -0.3710  0.2768
  186MOL0     O25561  -0.202   8.238   8.638 -0.1690  1.5733  0.2005
  186MOL0     C25562  -0.293   8.149   8.580  0.0665  0.1847  0.4698
  186MOL0     C25563  -0.250   8.017   8.572 -0.0010  0.4056  0.7402
  186MOL0     C25564  -0.340   7.925   8.530 -0.7727 -0.1772  0.6538
  186MOL0     C25565  -0.468   7.959   8.490  0.1031  1.8015 -0.7275
  186MOL0     O25566  -0.561   7.865   8.458 -0.1127  0.5819 -0.4603
  186MOL0     C25567  -0.563   7.733   8.510  0.2188  0.2621  0.5203
  186MOL0     C25568  -0.695   7.670   8.496 -0.6291 -0.2453  0.3985
  186MOL0     C25569  -0.788   7.743   8.590  0.7426 -0.0065  0.9486
  186MOL0     C25570  -0.939   7.709   8.561 -0.3221  0.4503  0.0243
  186MOL0     C25571  -1.024   7.790   8.657 -1.3431 -0.7590 -0.2494
  186MOL0     C25572  -1.178   7.748   8.631 -0.0711 -0.3260  0.5490
  186MOL0     C25573  -1.268   7.808   8.729 -0.6729 -0.8342 -0.2202
  186MOL0     C25574  -1.299   7.958   8.718  0.0799 -0.4104 -0.7698
  186MOL0    Cl25575  -1.381   8.022   8.853  0.3531 -0.0981 -0.3298
  186MOL0     C25576  -0.512   8.094   8.487  0.2078 -0.5117  0.3940
  186MOL0     C25577  -0.420   8.184   8.535 -0.4207  0.5234  0.1825
  186MOL0     O25578  -0.339   8.282   8.818 -0.0281 -0.1706  0.1925
  186MOL0     C25579  -0.116   8.365   8.981  1.1193 -0.8291 -1.0141
  186MOL0     C25580  -0.006   8.426   9.041  0.6087  0.1861 -0.1759
  186MOL0     N25581   0.799   8.593   9.089  0.3874  0.5142 -0.1880
  186MOL0     N25582   0.909   8.560   9.031  1.0039 -0.4553  0.7257
  186MOL0     C25583   1.420   9.117   9.451  0.3468  0.2536 -0.5807
  186MOL0     C25584   1.499   9.234   9.474  0.6376 -0.4917  0.2588
  186MOL0     C25585   1.735   9.594   9.501 -0.9409 -0.3960  0.4881
  186MOL0     C25586   1.647   9.690   9.553 -0.3503  0.4040 -0.4143
  186MOL0     C25587   1.702   9.802   9.621 -0.2485 -0.3111  0.0585
  186MOL0     C25588   1.830   9.821   9.635 -0.7485 -0.3037 -0.0032
  186MOL0     O25589   1.896   9.930   9.698 -0.0982  0.2287 -0.1525
  186MOL0     C25590   1.807  10.045   9.713  0.8806  1.3197  0.2584
  186MOL0     C25591   1.869  10.163   9.771 -0.2654 -0.5763 -0.2386
  186MOL0     C25592   1.867  10.154   9.924 -0.3240  0.4242  0.6361
  186MOL0     C25593   1.726  10.198   9.979  0.0053  1.1861 -0.6050
  186MOL0     C25594   1.702  10.165  10.117 -0.6016  0.3762  0.5888
  186MOL0     C25595   1.682  10.145  10.238 -0.1112 -0.4844  0.8378
  186MOL0     C25596   1.913   9.733   9.579  0.0316 -0.7460  1.0859
  186MOL0     C25597   1.875   9.614   9.517  0.4187  0.3310 -0.0897
  186MOL0     C25598   1.980   9.516   9.463  0.3014 -0.2904 -0.0104
  186MOL0     H25599   1.796   9.093   9.405 -0.0138 -0.4710  1.7280
  186MOL0     H25600   1.672   8.922   9.325 -0.2422 -1.9698 -0.0409
  186MOL0     H25601   1.536   8.778   9.289 -0.6221 -2.8859 -0.2394
  186MOL0     H25602   1.444   8.793   9.150 -1.7330 -0.0359 -0.2703
  186MOL0     H25603   1.336   8.694   9.422  0.4344  0.0329  0.6599
  186MOL0     H25604   1.232   8.700   9.283  0.6603  0.1013 -1.4770
  186MOL0     H25605   1.465   8.541   9.196  3.1577 -1.0880  2.4063
  186MOL0     H25606   1.482   8.543   9.366 -1.1982 -0.5935  1.7128
  186MOL0     H25607   1.383   8.355   9.321  0.5605  0.5161 -2.6722
  186MOL0     H25608   1.237   8.447   9.379  1.0128  1.1447  1.7438
  186MOL0     H25609   1.312   8.409   9.092 -1.3332  0.0306 -0.5485
  186MOL0     H25610   1.173   8.506   9.158 -1.1244 -0.6383  2.1670
  186MOL0     H25611   1.241   8.205   9.186  3.6482  2.3154 -2.3218
  186MOL0     H25612   1.085   8.280   9.249  2.0232  2.1003  2.4345
  186MOL0     H25613   1.032   8.150   9.062  0.0149 -0.4708  0.5372
  186MOL0     H25614   1.166   8.190   8.970  0.3846 -0.5976 -0.0352
  186MOL0     H25615   1.097   8.415   8.922  1.9275 -0.5411  1.3283
  186MOL0     H25616   0.971   8.305   8.887  1.3045 -3.1510  0.5422
  186MOL0     H25617   0.822   8.292   9.197 -0.0402  0.7105  0.7992
  186MOL0     H25618   0.610   8.560   9.309 -0.3801 -0.0428 -0.2968
  186MOL0     H25619   0.636   8.397   9.329 -2.2183  0.2416  0.6618
  186MOL0     H25620   0.503   8.375   9.078  2.3674  0.8173 -0.9581
  186MOL0     H25621   0.417   8.392   9.229  2.7723 -1.1619  0.8532
  186MOL0     H25622   0.416   8.645   9.186  0.8235  1.0788 -0.9952
  186MOL0     H25623   0.521   8.620   9.044  1.5871 -3.8240 -0.8935
  186MOL0     H25624   0.303   8.637   8.947 -2.2542 -1.0467  1.3415
  186MOL0     H25625   0.377   8.474   8.927 -0.9738  1.6012 -2.5527
  186MOL0     H25626   0.229   8.401   8.804 -0.0049  0.8060 -1.0326
  186MOL0     H25627   0.171   8.266   8.634 -0.1183  0.8244 -0.9250
  186MOL0     H25628   0.020   8.311   8.557  1.4407  1.4495 -0.1029
  186MOL0     H25629   0.029   8.167   8.663  2.1419 -0.1871  1.2870
  186MOL0     H25630  -0.149   7.992   8.602  0.5286  1.7938  0.2206
  186MOL0     H25631  -0.312   7.821   8.514 -0.9264 -0.0510 -0.5375
  186MOL0     H25632  -0.498   7.678   8.442  0.2601 -1.1761  1.6716
  186MOL0     H25633  -0.529   7.731   8.614 -1.5363  0.7033  1.1384
  186MOL0     H25634  -0.728   7.670   8.391 -2.1882 -0.9043  0.8603
  186MOL0     H25635  -0.700   7.563   8.517 -3.3719 -0.8868 -2.6616
  186MOL0     H25636  -0.779   7.852   8.579  3.9359 -0.2849 -0.5878
  186MOL0     H25637  -0.756   7.722   8.692  3.3102  1.6644  0.5756
  186MOL0     H25638  -0.969   7.604   8.570 -0.2152  0.5374  1.5974
  186MOL0     H25639  -0.960   7.732   8.456  4.7378 -0.5316 -1.4803
  186MOL0     H25640  -0.993   7.772   8.760  4.0219 -1.1222 -1.6012
  186MOL0     H25641  -1.010   7.896   8.636 -1.4327 -1.0858 -2.2365
  186MOL0     H25642  -1.191   7.639   8.633  0.4303 -0.4216 -0.5337
  186MOL0     H25643  -1.205   7.780   8.530  0.0999 -2.8198 -0.3741
  186MOL0     H25644  -1.241   7.801   8.834 -0.2435 -0.5915 -0.3114
  186MOL0     H25645  -1.367   7.762   8.720 -0.2427 -1.7138 -0.5376
  186MOL0     H25646  -1.362   7.983   8.632 -2.9675 -0.0721  1.3956
  186MOL0     H25647  -1.201   8.007   8.712 -0.2725  0.1522 -2.4200
  186MOL0     H25648  -0.610   8.128   8.455  0.3562  0.8088  1.2877
  186MOL0     H25649  -0.449   8.288   8.538 -1.6116  0.3952 -3.0170
  186MOL0     H25650  -0.210   8.361   9.036  0.9492  2.5543 -0.8096
  186MOL0     H25651  -0.017   8.460   9.143  1.4630  0.7621 -0.2686
  186MOL0     H25652   1.317   9.114   9.483  1.0460 -0.4642  1.7702
  186MOL0     H25653   1.448   9.326   9.499 -1.9990 -0.8793 -2.9222
  186MOL0     H25654   1.542   9.664   9.551  0.5186 -3.7628 -2.3156
  186MOL0     H25655   1.625   9.862   9.670 -2.2835 -2.3365 -0.5027
  186MOL0     H25656   1.769  10.072   9.614  1.2619  0.4727 -0.1260
  186MOL0     H25657   1.730  10.003   9.779  4.2471 -3.2340  1.7922
  186MOL0     H25658   1.831  10.261   9.740  1.8471  0.9216  1.5930
  186MOL0     H25659   1.972  10.159   9.735  0.1275 -1.1654  0.8817
  186MOL0     H25660   1.891  10.053   9.961  0.0827 -0.1855 -1.1973
  186MOL0     H25661   1.940  10.223   9.967 -1.2197  1.5992  0.3392
  186MOL0     H25662   1.648  10.163   9.911 -1.6994  1.5718  1.0776
  186MOL0     H25663   1.714  10.306   9.968 -3.0023  0.7349 -2.7826
  186MOL0     H25664   1.660  10.115  10.339 -0.2278 -0.3442  0.8542
  186MOL0     H25665   2.015   9.765   9.599 -1.1177  2.5530  2.2888
  186MOL0     H25666   1.970   9.510   9.354  1.1369  2.2755 -0.3104
  186MOL0     H25667   2.084   9.548   9.476  0.3986 -0.6956  0.2371
  186MOL0     H25668   1.966   9.421   9.515 -1.9883 -0.3371 -0.6281
  187MOL0     O25669   7.030   1.456   8.008  0.3991  0.2395  0.3117
  187MOL0     C25670   6.984   1.346   7.970  0.0026  0.4252  1.1597
  187MOL0     O25671   6.899   1.330   7.864  0.0847  0.1426 -0.4482
  187MOL0     C25672   6.903   1.436   7.776  0.1666 -0.6579 -0.4623
  187MOL0     C25673   7.022   1.454   7.705 -0.5401  0.4061  0.4410
  187MOL0     C25674   7.039   1.566   7.625 -0.1322  0.0785  0.3745
  187MOL0     C25675   6.932   1.658   7.594 -0.2413 -0.2545  1.1058
  187MOL0     O25676   6.957   1.765   7.506 -0.9116  0.3268 -0.5837
  187MOL0     C25677   6.863   1.801   7.409  0.2899 -0.3271 -0.4384
  187MOL0     C25678   6.768   1.917   7.449  1.8060  0.2861  0.3339
  187MOL0     C25679   6.641   1.931   7.350  0.5480  0.0753  0.0948
  187MOL0     C25680   6.580   2.072   7.370  0.5462  0.2207  0.4282
  187MOL0     C25681   6.483   2.106   7.255  0.3204 -0.0319 -0.2571
  187MOL0     C25682   6.389   2.231   7.292  0.1920 -0.6243  0.1705
  187MOL0     C25683   6.471   2.358   7.311 -0.1960 -1.4475  0.2964
  187MOL0     C25684   6.390   2.483   7.280  0.5511  0.2460  0.7437
  187MOL0     N25685   6.357   2.551   7.405  0.4095 -0.6530  0.5618
  187MOL0     C25686   6.241   2.544   7.472 -0.4498  0.8403 -0.4252
  187MOL0     C25687   6.240   2.649   7.552 -0.6727  0.7126 -0.1564
  187MOL0     C25688   6.115   2.680   7.631  0.4344  0.5270  0.5237
  187MOL0     C25689   6.087   2.580   7.761  0.1091 -0.5703  1.0747
  187MOL0     C25690   6.211   2.588   7.852 -0.5980  0.1759  0.0538
  187MOL0     C25691   6.204   2.502   7.979  0.2045 -0.1368  0.1856
  187MOL0     O25692   6.184   2.368   7.950 -0.3437  0.1842  0.5385
  187MOL0     C25693   6.162   2.276   8.056  0.6637 -0.9979 -1.2316
  187MOL0     C25694   6.116   2.310   8.188  0.6496  0.1972 -0.3563
  187MOL0     C25695   6.091   2.215   8.282 -0.2779 -1.0336 -0.7296
  187MOL0     C25696   6.015   2.280   8.393 -0.7316  1.0283 -0.9508
  187MOL0     C25697   6.134   2.086   8.269  0.1403  0.6142  0.7939
  187MOL0     C25698   6.106   1.984   8.374 -0.1480 -0.9296 -0.1723
  187MOL0     O25699   6.070   1.865   8.323  0.5547 -0.1471 -0.1397
  187MOL0     C25700   6.138   1.744   8.345  0.3890 -0.1248 -0.3372
  187MOL0     C25701   6.129   1.637   8.256  0.5129  0.3386 -1.0800
  187MOL0     C25702   6.195   1.515   8.285  0.1266  0.3284 -0.3602
  187MOL0     C25703   6.264   1.498   8.401 -0.4968  0.2624  1.6612
  187MOL0     O25704   6.331   1.383   8.428 -0.0222  0.1119 -0.2791
  187MOL0     C25705   6.260   1.260   8.409 -0.1108  0.1099  0.1457
  187MOL0     C25706   6.303   1.145   8.495  0.1884  0.5239 -0.2013
  187MOL0     C25707   6.194   1.029   8.472  0.2547 -0.4799  0.6008
  187MOL0     C25708   6.043   1.054   8.481 -0.7726  0.1428 -1.1204
  187MOL0     C25709   6.022   1.119   8.615 -0.9811  0.3949 -0.6604
  187MOL0     C25710   5.887   1.076   8.666  0.5179  0.4084  0.4758
  187MOL0     C25711   5.835   1.160   8.775  0.9315 -0.3983  0.7889
  187MOL0     C25712   5.848   1.098   8.910 -0.1270  0.5917  0.5647
  187MOL0    Cl25713   5.899   1.224   9.028 -0.1963  0.0190 -0.0748
  187MOL0     C25714   6.280   1.608   8.486  0.4647 -0.2757  0.3408
  187MOL0     C25715   6.204   1.732   8.463 -0.8915  1.1100 -0.1711
  187MOL0     O25716   6.114   2.012   8.495 -0.3573 -0.0932  0.1391
  187MOL0     C25717   6.190   2.047   8.150  0.5703 -0.5393  0.8171
  187MOL0     C25718   6.189   2.146   8.043  0.9614  0.1736 -0.1071
  187MOL0     N25719   6.358   2.715   7.539 -0.7090  0.4023  0.2054
  187MOL0     N25720   6.424   2.664   7.445 -0.1284  0.3326 -0.0621
  187MOL0     C25721   6.810   1.628   7.650  0.6167  0.1580 -0.1695
  187MOL0     C25722   6.794   1.512   7.745 -0.4569  0.8298  0.0132
  187MOL0     C25723   7.059   1.224   8.007 -0.1573 -0.2770 -0.3866
  187MOL0     C25724   7.069   1.121   7.916 -0.1837 -0.1787 -0.3589
  187MOL0     C25725   7.121   0.997   7.936 -0.7744  0.3008 -0.9712
  187MOL0     C25726   7.205   0.983   8.047  0.1750  0.3403  0.4213
  187MOL0     O25727   7.266   0.861   8.039 -0.4261  0.3748  0.2565
  187MOL0     C25728   7.400   0.851   8.084  0.2411 -0.2279  0.2734
  187MOL0     C25729   7.456   0.715   8.087  0.0816 -0.4703  0.3227
  187MOL0     C25730   7.381   0.625   8.188 -0.0015  0.1897  0.0139
  187MOL0     C25731   7.408   0.666   8.336  0.5758  0.1153  0.3913
  187MOL0     C25732   7.405   0.550   8.426 -0.0010  0.1922  0.1915
  187MOL0     C25733   7.419   0.466   8.518  0.0104 -0.1115  0.6229
  187MOL0     C25734   7.228   1.092   8.132 -0.3634 -0.5247 -0.2690
  187MOL0     C25735   7.144   1.207   8.123  0.3543 -0.0496  0.0718
  187MOL0     C25736   7.131   1.298   8.247  0.4812  0.6456  0.4066
  187MOL0     H25737   7.102   1.382   7.719 -0.1052  0.7659 -0.1807
  187MOL0     H25738   7.124   1.584   7.560  0.1972  0.3222  0.8725
  187MOL0     H25739   6.810   1.713   7.370  0.8161 -0.1656 -1.5491
  187MOL0     H25740   6.916   1.839   7.321  2.7588 -1.8056  0.2906
  187MOL0     H25741   6.731   1.907   7.552 -3.1164 -0.9030 -1.2883
  187MOL0     H25742   6.827   2.009   7.445 -1.3827  2.5433  1.2357
  187MOL0     H25743   6.682   1.912   7.250  0.8605 -1.5512  0.5020
  187MOL0     H25744   6.553   1.869   7.369 -0.7330  2.1009  1.1731
  187MOL0     H25745   6.529   2.073   7.467  0.3649  2.3090  0.3635
  187MOL0     H25746   6.654   2.153   7.371  1.4035 -0.5180 -0.6426
  187MOL0     H25747   6.422   2.019   7.230  0.6452 -0.7745  1.4136
  187MOL0     H25748   6.542   2.128   7.165 -0.5902 -0.7655 -1.0535
  187MOL0     H25749   6.312   2.245   7.216 -2.4156  0.5186  2.8046
  187MOL0     H25750   6.342   2.222   7.391  0.3397 -1.4493  0.1737
  187MOL0     H25751   6.548   2.365   7.234 -1.1905 -3.7414 -0.9984
  187MOL0     H25752   6.515   2.362   7.410 -2.2645 -1.3219  1.2610
  187MOL0     H25753   6.454   2.544   7.215 -0.1816 -0.1453 -0.3823
  187MOL0     H25754   6.299   2.473   7.220  1.3402 -0.0543 -0.4435
  187MOL0     H25755   6.168   2.467   7.446 -0.3136 -0.1975  1.9864
  187MOL0     H25756   6.035   2.667   7.557  1.6068 -0.8826 -0.5398
  187MOL0     H25757   6.103   2.778   7.679  1.4185 -0.8285  3.8474
  187MOL0     H25758   5.997   2.611   7.815 -1.0746  0.8631 -1.5442
  187MOL0     H25759   6.066   2.486   7.708  0.8641  0.6275 -1.5275
  187MOL0     H25760   6.301   2.566   7.795 -0.8814  0.7293 -0.6187
  187MOL0     H25761   6.221   2.691   7.890 -0.8394  0.0188  0.5551
  187MOL0     H25762   6.294   2.523   8.037 -1.0884 -0.6966  2.5369
  187MOL0     H25763   6.131   2.541   8.051 -0.8572 -2.3714  0.4067
  187MOL0     H25764   6.101   2.416   8.207  1.1981  0.1204  0.5672
  187MOL0     H25765   5.935   2.338   8.347 -0.9391 -0.4293 -2.5472
  187MOL0     H25766   6.086   2.338   8.452 -0.9538 -1.5027  2.0994
  187MOL0     H25767   5.963   2.210   8.460  1.2594 -0.8687 -1.2687
  187MOL0     H25768   6.064   1.658   8.172 -2.0620  2.2952  1.2458
  187MOL0     H25769   6.191   1.423   8.227  1.0024  0.1118 -0.0905
  187MOL0     H25770   6.156   1.285   8.436  0.2302  2.2114 -0.3004
  187MOL0     H25771   6.259   1.231   8.304 -0.6863  0.7828 -0.0520
  187MOL0     H25772   6.405   1.118   8.467 -0.0836  1.8093 -2.7218
  187MOL0     H25773   6.291   1.173   8.600  0.2559 -1.0980  0.2698
  187MOL0     H25774   6.222   0.960   8.551  3.4472 -2.7050 -2.1679
  187MOL0     H25775   6.210   0.975   8.378 -3.2315 -1.9963  0.7464
  187MOL0     H25776   6.001   0.953   8.481 -1.3222  0.3599 -0.2792
  187MOL0     H25777   6.011   1.120   8.400  1.4338 -2.5916 -4.4630
  187MOL0     H25778   6.096   1.077   8.683  0.7077  0.7210 -2.2309
  187MOL0     H25779   6.037   1.227   8.612 -2.4535  0.6714  0.6918
  187MOL0     H25780   5.878   0.972   8.701  2.6510 -0.1339 -0.3908
  187MOL0     H25781   5.810   1.070   8.589 -0.9955  1.3948  1.8526
  187MOL0     H25782   5.736   1.204   8.759  2.3671  2.1163 -1.9849
  187MOL0     H25783   5.899   1.248   8.769  1.3319 -0.7117  0.3338
  187MOL0     H25784   5.931   1.026   8.912 -0.5695 -0.0582 -1.9011
  187MOL0     H25785   5.757   1.048   8.945  0.5427 -0.5645  0.7166
  187MOL0     H25786   6.319   1.586   8.585  0.3395  0.6199  0.5940
  187MOL0     H25787   6.221   1.815   8.531  1.1166  1.8853 -1.5431
  187MOL0     H25788   6.221   1.945   8.130 -0.9098 -0.7359 -0.7234
  187MOL0     H25789   6.219   2.110   7.945 -0.1519  1.7585 -1.0792
  187MOL0     H25790   6.716   1.677   7.628 -0.4396  0.4948  4.1800
  187MOL0     H25791   6.695   1.484   7.780  0.5841 -1.5650  1.2215
  187MOL0     H25792   7.040   1.134   7.812  2.9209 -1.6048 -1.5416
  187MOL0     H25793   7.103   0.920   7.863 -1.2700 -0.5140 -0.0156
  187MOL0     H25794   7.464   0.907   8.015  2.4930 -5.0408 -1.9748
  187MOL0     H25795   7.406   0.888   8.187  0.4610 -1.2082  0.6191
  187MOL0     H25796   7.563   0.725   8.103  0.4184 -1.1318 -1.2616
  187MOL0     H25797   7.433   0.677   7.986 -5.9490 -1.0129  1.5114
  187MOL0     H25798   7.276   0.620   8.158 -0.4516 -1.8211  1.6599
  187MOL0     H25799   7.423   0.524   8.176  0.4866  0.4794 -0.7798
  187MOL0     H25800   7.332   0.727   8.385  1.1818 -0.1589  1.7180
  187MOL0     H25801   7.494   0.732   8.348 -0.0324  1.1041 -0.5355
  187MOL0     H25802   7.410   0.392   8.595 -0.1505  1.0448  1.7478
  187MOL0     H25803   7.299   1.083   8.213  1.1666 -2.2505 -1.7228
  187MOL0     H25804   7.131   1.231   8.333 -0.7989 -0.5303 -0.4730
  187MOL0     H25805   7.218   1.364   8.256 -1.2363  2.7165  4.5872
  187MOL0     H25806   7.043   1.361   8.232 -0.4521 -1.0108 -1.5778
  188MOL0     O25807   8.973   1.628   2.090 -0.2347  0.1892 -0.2745
  188MOL0     C25808   9.035   1.552   2.157  0.0951  0.5272 -0.7986
  188MOL0     O25809   9.117   1.456   2.111 -0.3123  0.3619 -0.0249
  188MOL0     C25810   9.083   1.390   1.998 -0.7981 -0.9551  0.2366
  188MOL0     C25811   8.991   1.287   1.995 -0.1432 -0.4850 -0.5186
  188MOL0     C25812   8.980   1.191   1.892 -0.5144  0.2597  0.0703
  188MOL0     C25813   9.058   1.216   1.773  0.4632 -0.4923 -0.4859
  188MOL0     O25814   9.044   1.128   1.666  0.7959  0.3212 -0.3376
  188MOL0     C25815   8.919   1.099   1.612 -0.0882 -0.4501  0.0824
  188MOL0     C25816   8.909   1.214   1.509 -1.3237  0.4305 -0.4267
  188MOL0     C25817   8.782   1.218   1.431 -0.2275 -1.0585 -0.0058
  188MOL0     C25818   8.661   1.148   1.493  0.4616 -0.3581  0.1549
  188MOL0     C25819   8.530   1.183   1.413 -0.4591 -0.1396 -0.6497
  188MOL0     C25820   8.415   1.094   1.470 -0.6122  1.0754  0.4578
  188MOL0     C25821   8.274   1.116   1.413 -0.7322  0.7183  0.2687
  188MOL0     C25822   8.164   1.020   1.451 -0.0177  0.5829 -0.1585
  188MOL0     N25823   8.052   1.030   1.352 -0.0769  0.1396 -0.4544
  188MOL0     C25824   8.039   1.110   1.240  0.2628 -1.2408  0.2138
  188MOL0     C25825   7.913   1.112   1.212  0.0697  0.9464  0.2730
  188MOL0     C25826   7.856   1.193   1.091 -0.1459 -0.6397 -0.0391
  188MOL0     C25827   7.796   1.101   0.983 -0.2143  0.3168  1.0278
  188MOL0     C25828   7.725   1.191   0.879  0.7848  0.4347  0.6033
  188MOL0     C25829   7.659   1.095   0.779  1.1945 -0.4682  0.5305
  188MOL0     O25830   7.746   1.011   0.706  0.7098 -0.4267  0.5530
  188MOL0     C25831   7.797   1.064   0.592  0.0594  1.0496  0.4770
  188MOL0     C25832   7.912   1.008   0.552 -0.7513  1.2526  0.4640
  188MOL0     C25833   7.987   1.052   0.441  0.0385 -0.2558 -0.6740
  188MOL0     C25834   8.118   0.987   0.416 -0.5384  0.8750  0.1717
  188MOL0     C25835   7.952   1.173   0.377 -0.0270  0.1042 -0.2536
  188MOL0     C25836   8.023   1.231   0.268  0.9520  0.1668  0.5622
  188MOL0     O25837   7.948   1.288   0.180 -0.6155  0.0981  0.3096
  188MOL0     C25838   7.987   1.314   0.051 -0.4572 -0.6172  0.1165
  188MOL0     C25839   7.925   1.419  -0.012 -0.3741 -0.5363 -0.1222
  188MOL0     C25840   7.966   1.465  -0.135 -0.6115  0.0891 -0.2354
  188MOL0     C25841   8.076   1.407  -0.197 -0.8719  0.9236 -0.3502
  188MOL0     O25842   8.115   1.446  -0.325 -0.2528 -0.0656 -0.3772
  188MOL0     C25843   8.244   1.515  -0.338  0.6896 -0.3988  0.2577
  188MOL0     C25844   8.275   1.520  -0.486  0.4280  0.5095  0.2064
  188MOL0     C25845   8.413   1.590  -0.508 -0.1934  0.2296 -0.5070
  188MOL0     C25846   8.480   1.549  -0.639  1.0973 -0.3604  0.3297
  188MOL0     C25847   8.555   1.412  -0.629 -0.1679 -0.0884 -0.1224
  188MOL0     C25848   8.605   1.357  -0.759  0.9172 -0.0800  0.6587
  188MOL0     C25849   8.729   1.429  -0.820 -0.0654  0.4845  0.0186
  188MOL0     C25850   8.789   1.370  -0.946  0.8817  0.2379  0.9403
  188MOL0    Cl25851   8.889   1.227  -0.925  0.2875  0.2636  0.0708
  188MOL0     C25852   8.131   1.290  -0.142 -0.6897 -0.2436  0.2957
  188MOL0     C25853   8.080   1.246  -0.017 -0.4068  0.8203  1.7535
  188MOL0     O25854   8.141   1.256   0.283 -0.4498  0.7203 -0.6810
  188MOL0     C25855   7.825   1.236   0.417  0.1073  0.6807 -0.0961
  188MOL0     C25856   7.755   1.178   0.523  0.0164 -0.0068  0.7814
  188MOL0     N25857   7.850   1.034   1.308  0.2042  0.0085 -0.0809
  188MOL0     N25858   7.934   0.984   1.388 -0.1041 -0.4884 -0.4686
  188MOL0     C25859   9.142   1.332   1.766  0.5942 -1.3546 -0.1173
  188MOL0     C25860   9.148   1.418   1.881 -0.2100 -1.2554  1.1169
  188MOL0     C25861   9.052   1.567   2.310 -0.0902 -0.6124  0.2437
  188MOL0     C25862   9.153   1.505   2.378  0.9591 -0.1770 -0.4245
  188MOL0     C25863   9.162   1.503   2.519  0.6699  0.9886 -1.2092
  188MOL0     C25864   9.072   1.580   2.601 -0.2858  0.0252 -0.3084
  188MOL0     O25865   9.095   1.593   2.742 -0.5138  0.5779  1.1999
  188MOL0     C25866   9.192   1.506   2.801 -0.5393  0.8574  0.0912
  188MOL0     C25867   9.138   1.493   2.946 -0.4388  0.1637 -0.7059
  188MOL0     C25868   9.236   1.431   3.048  0.0061  0.1189  0.4532
  188MOL0     C25869   9.158   1.395   3.174 -0.3107 -0.5107  0.1062
  188MOL0     C25870   9.253   1.341   3.280 -0.0669  0.4482 -1.6417
  188MOL0     C25871   9.312   1.293   3.372  0.3460  0.6525  0.3100
  188MOL0     C25872   8.977   1.659   2.528 -0.4034 -0.5237  0.5870
  188MOL0     C25873   8.957   1.653   2.391 -0.6063  0.2622  0.1264
  188MOL0     C25874   8.847   1.734   2.332  0.2110  0.1332 -0.3430
  188MOL0     H25875   8.933   1.265   2.084 -1.1174 -0.2741 -1.0824
  188MOL0     H25876   8.914   1.106   1.906 -1.7184  1.1172 -0.2044
  188MOL0     H25877   8.838   1.098   1.686  1.7818 -1.1597  2.2314
  188MOL0     H25878   8.915   1.008   1.550 -0.6914 -0.5821  0.3023
  188MOL0     H25879   8.917   1.309   1.562  2.0645  0.6617 -1.1173
  188MOL0     H25880   8.985   1.213   1.430 -0.4808  0.2172  0.3689
  188MOL0     H25881   8.747   1.317   1.401  0.0987 -1.3955 -1.5865
  188MOL0     H25882   8.801   1.170   1.334 -2.5345  1.2082 -1.7310
  188MOL0     H25883   8.678   1.040   1.502  0.1892 -0.2636  2.3204
  188MOL0     H25884   8.647   1.190   1.593 -3.8076 -2.7361  0.7878
  188MOL0     H25885   8.545   1.158   1.307  3.9432 -0.5436 -0.1387
  188MOL0     H25886   8.516   1.291   1.424 -0.5511 -0.0499 -1.5570
  188MOL0     H25887   8.465   1.002   1.437  3.2197  2.7047  1.1244
  188MOL0     H25888   8.421   1.094   1.579  2.7140  0.0481  0.3883
  188MOL0     H25889   8.297   1.115   1.306 -0.2052  1.1401  0.3685
  188MOL0     H25890   8.246   1.220   1.431 -0.4120  0.5873  1.6361
  188MOL0     H25891   8.197   0.916   1.446 -3.5342 -0.5991 -3.0733
  188MOL0     H25892   8.120   1.042   1.548 -2.4560 -2.4007 -0.4604
  188MOL0     H25893   8.115   1.176   1.199 -0.9207 -1.1083 -1.8712
  188MOL0     H25894   7.932   1.261   1.050  1.0509 -0.7226  1.9195
  188MOL0     H25895   7.780   1.268   1.113 -0.6726 -0.3160 -2.6430
  188MOL0     H25896   7.865   1.039   0.925 -2.9561 -0.3565 -1.7575
  188MOL0     H25897   7.721   1.038   1.033 -0.4062  0.1397  0.5158
  188MOL0     H25898   7.649   1.255   0.923 -2.0705  0.2287 -3.4526
  188MOL0     H25899   7.795   1.255   0.824  0.4162 -0.2557 -0.7087
  188MOL0     H25900   7.590   1.028   0.831  0.7510 -0.7764 -0.4152
  188MOL0     H25901   7.595   1.162   0.721 -0.1132 -1.1694  1.1177
  188MOL0     H25902   7.961   0.928   0.605 -1.3513  0.0420 -0.7497
  188MOL0     H25903   8.114   0.882   0.449 -1.3299  1.1436  0.9791
  188MOL0     H25904   8.204   1.036   0.463 -1.4835  1.8996  0.8555
  188MOL0     H25905   8.130   0.993   0.308  2.5946  2.9582  0.5005
  188MOL0     H25906   7.857   1.475   0.052  1.1003  0.9546  0.2087
  188MOL0     H25907   7.919   1.552  -0.180  0.3191  0.8805  0.2622
  188MOL0     H25908   8.234   1.618  -0.302 -0.0402 -0.2181 -0.4513
  188MOL0     H25909   8.330   1.475  -0.283  2.0406  1.5889 -0.2696
  188MOL0     H25910   8.266   1.421  -0.531 -0.1769 -1.0741  3.5398
  188MOL0     H25911   8.201   1.586  -0.533  0.4763  1.1822  1.0468
  188MOL0     H25912   8.477   1.570  -0.421  4.3439 -2.1300 -3.9031
  188MOL0     H25913   8.391   1.697  -0.516 -0.9996  0.0207 -1.1441
  188MOL0     H25914   8.549   1.629  -0.666 -0.3255  0.2948 -1.6553
  188MOL0     H25915   8.406   1.546  -0.721  0.0300  2.4957  1.0889
  188MOL0     H25916   8.642   1.444  -0.570  0.3756  1.5366 -1.7210
  188MOL0     H25917   8.494   1.342  -0.572 -3.9370  1.1573 -2.3074
  188MOL0     H25918   8.516   1.361  -0.823 -2.0654 -0.5948  4.4323
  188MOL0     H25919   8.612   1.248  -0.746  0.2417 -0.7166 -3.1696
  188MOL0     H25920   8.810   1.446  -0.749  0.3889  0.5827 -0.5151
  188MOL0     H25921   8.697   1.531  -0.844  2.0307  1.9691  3.0223
  188MOL0     H25922   8.852   1.446  -0.994  0.0986  2.3086  3.0055
  188MOL0     H25923   8.711   1.349  -1.019  2.2751  2.8493 -1.5351
  188MOL0     H25924   8.216   1.252  -0.198  0.4201  1.6286  0.6062
  188MOL0     H25925   8.129   1.151   0.002 -1.2082  0.3016  1.2575
  188MOL0     H25926   7.797   1.323   0.359  2.3312  0.3938 -1.7065
  188MOL0     H25927   7.663   1.232   0.547  0.3080  0.4939  0.8006
  188MOL0     H25928   9.198   1.360   1.677  1.6992  1.1579  1.2567
  188MOL0     H25929   9.206   1.509   1.892 -3.4143  0.9535  0.8344
  188MOL0     H25930   9.226   1.445   2.325 -0.4275 -1.7648 -0.6210
  188MOL0     H25931   9.253   1.465   2.564 -0.0419  2.2574  1.5374
  188MOL0     H25932   9.204   1.405   2.760 -0.8049  0.7495  0.2775
  188MOL0     H25933   9.295   1.545   2.795 -0.0855 -0.1603  0.8944
  188MOL0     H25934   9.041   1.442   2.942 -1.2215  1.6363 -1.0788
  188MOL0     H25935   9.115   1.592   2.986 -0.7833 -0.3767  0.5008
  188MOL0     H25936   9.277   1.339   3.005 -2.2401 -0.1334 -1.3094
  188MOL0     H25937   9.311   1.509   3.067 -0.8750  1.4935 -1.4061
  188MOL0     H25938   9.088   1.317   3.143  1.5553 -2.0742 -0.4091
  188MOL0     H25939   9.106   1.487   3.200  0.1944  0.5135 -2.2765
  188MOL0     H25940   9.367   1.237   3.445  0.9948  0.4193 -0.3397
  188MOL0     H25941   8.917   1.722   2.593  0.8790 -1.3671  2.6787
  188MOL0     H25942   8.810   1.801   2.410  1.3695  1.3183 -0.7810
  188MOL0     H25943   8.879   1.799   2.250  0.0282  1.3761  0.5427
  188MOL0     H25944   8.760   1.674   2.302 -1.6639  2.5373 -0.1061
  189MOL0     O25945   2.471   3.300   8.385 -0.0015  0.5883  0.2294
  189MOL0     C25946   2.359   3.291   8.330 -0.4616  0.5678 -0.1841
  189MOL0     O25947   2.267   3.390   8.327  0.2241  0.4290  0.1246
  189MOL0     C25948   2.281   3.491   8.422  0.3478  0.5207 -0.6782
  189MOL0     C25949   2.267   3.454   8.556 -0.3190 -0.6745  0.2071
  189MOL0     C25950   2.288   3.549   8.661 -0.4403 -0.7570 -0.5255
  189MOL0     C25951   2.298   3.684   8.623  0.5569 -1.1217  0.3665
  189MOL0     O25952   2.299   3.791   8.711  0.1678  0.4054 -0.2433
  189MOL0     C25953   2.307   3.768   8.858 -0.4389  0.8559 -0.9030
  189MOL0     C25954   2.293   3.900   8.948  0.0568 -0.3927  0.8220
  189MOL0     C25955   2.189   3.898   9.064 -0.3506 -0.5879 -1.3180
  189MOL0     C25956   2.040   3.892   9.008 -0.2089  0.2207 -0.0983
  189MOL0     C25957   1.962   3.800   9.096 -0.2697  0.1328  0.5807
  189MOL0     C25958   1.823   3.770   9.035  0.2683  0.2124  0.2026
  189MOL0     C25959   1.818   3.665   8.932 -0.0620  0.3734  0.0490
  189MOL0     C25960   1.866   3.528   8.975 -0.7328  0.2851  0.5964
  189MOL0     N25961   1.857   3.437   8.854  0.0761 -0.8078  0.1187
  189MOL0     C25962   1.754   3.365   8.814  0.0678 -0.3599  0.1543
  189MOL0     C25963   1.795   3.301   8.701 -0.5401 -0.1833  0.7633
  189MOL0     C25964   1.706   3.215   8.618 -0.1959 -0.9961 -0.2073
  189MOL0     C25965   1.742   3.063   8.650 -0.0863  1.1853 -0.0091
  189MOL0     C25966   1.706   3.015   8.797  0.4638 -0.3046 -0.2875
  189MOL0     C25967   1.736   2.870   8.817  0.4600  0.6542  0.4748
  189MOL0     O25968   1.876   2.834   8.801 -0.1013  0.7266  0.1974
  189MOL0     C25969   1.906   2.713   8.858  0.1024 -0.1215 -0.4806
  189MOL0     C25970   1.920   2.708   8.995  0.0999 -0.4254 -0.2963
  189MOL0     C25971   1.958   2.593   9.058  0.0502  0.1569 -0.4307
  189MOL0     C25972   1.948   2.591   9.210 -0.7229  0.0523 -0.7836
  189MOL0     C25973   1.985   2.475   8.985 -0.2895  0.9367  0.2480
  189MOL0     C25974   2.027   2.347   9.047 -0.1632 -0.0171 -0.8447
  189MOL0     O25975   2.027   2.246   8.958  0.0808 -0.0440 -0.2371
  189MOL0     C25976   2.014   2.112   9.009 -0.6778 -0.9232  0.2032
  189MOL0     C25977   2.125   2.034   9.050  0.3361 -0.1513 -0.2221
  189MOL0     C25978   2.114   1.905   9.103  0.3867 -0.2377  0.1268
  189MOL0     C25979   1.984   1.853   9.114  0.0188  0.5495 -0.0436
  189MOL0     O25980   1.957   1.728   9.154  0.0010  0.7953  0.8319
  189MOL0     C25981   2.067   1.640   9.190  1.4799 -0.0113  0.4131
  189MOL0     C25982   2.119   1.658   9.330 -0.0943 -1.4928  0.5542
  189MOL0     C25983   2.250   1.574   9.356  0.4444 -0.9929  0.9523
  189MOL0     C25984   2.266   1.538   9.502 -0.5740 -0.0525  0.4128
  189MOL0     C25985   2.324   1.664   9.577  0.3123  0.2007  0.7324
  189MOL0     C25986   2.395   1.623   9.703  0.5966  0.5290 -0.6115
  189MOL0     C25987   2.528   1.699   9.728 -0.1436 -0.6380 -0.6965
  189MOL0     C25988   2.553   1.708   9.878  0.4444  0.3359  0.1492
  189MOL0    Cl25989   2.473   1.861   9.942  0.0995  0.0140  0.1344
  189MOL0     C25990   1.877   1.923   9.074  0.2618  0.3160  0.6065
  189MOL0     C25991   1.887   2.049   9.015  0.4994 -0.2842  0.3543
  189MOL0     O25992   2.080   2.339   9.159 -0.4084 -0.2572 -0.6943
  189MOL0     C25993   1.972   2.472   8.848 -0.6007 -0.1597 -0.2528
  189MOL0     C25994   1.931   2.600   8.786 -0.2343  0.0477 -0.0046
  189MOL0     N25995   1.928   3.339   8.671 -0.4090  0.5456 -0.4790
  189MOL0     N25996   1.964   3.421   8.767  0.1778  0.1399 -0.3993
  189MOL0     C25997   2.290   3.724   8.491 -0.8278 -0.5354 -0.5122
  189MOL0     C25998   2.291   3.625   8.390  0.1979  0.0101  0.3281
  189MOL0     C25999   2.328   3.165   8.256 -0.8874 -0.3585 -0.5990
  189MOL0     C26000   2.432   3.144   8.166  0.2896  0.0564 -0.0787
  189MOL0     C26001   2.417   3.036   8.076  0.1051 -0.4025  0.3267
  189MOL0     C26002   2.314   2.945   8.088  0.0324  0.3533 -0.4023
  189MOL0     O26003   2.319   2.836   8.013  0.5513  0.0051  0.2514
  189MOL0     C26004   2.214   2.786   7.929 -0.4895 -0.7429 -0.5625
  189MOL0     C26005   2.263   2.666   7.853  0.3446  0.2343  0.0543
  189MOL0     C26006   2.373   2.699   7.741 -0.0819 -0.5184 -0.0574
  189MOL0     C26007   2.324   2.810   7.657 -0.2791  0.2260  0.0307
  189MOL0     C26008   2.379   2.943   7.702  1.7051 -0.6170  0.7873
  189MOL0     C26009   2.432   3.047   7.725 -0.6822 -0.1223  0.6583
  189MOL0     C26010   2.214   2.974   8.181  0.0360 -0.8119  0.1460
  189MOL0     C26011   2.214   3.081   8.262  0.2336 -0.3873  0.0510
  189MOL0     C26012   2.113   3.091   8.375  1.4776 -0.2982 -0.2606
  189MOL0     H26013   2.227   3.355   8.575 -2.6659  0.1113 -0.3088
  189MOL0     H26014   2.266   3.518   8.762 -2.4966 -0.1835 -0.7518
  189MOL0     H26015   2.401   3.723   8.891 -0.9928  0.7928  0.6942
  189MOL0     H26016   2.226   3.702   8.891 -0.6654  2.0457  1.0915
  189MOL0     H26017   2.391   3.916   8.995  1.3708 -3.7959 -0.4130
  189MOL0     H26018   2.273   3.981   8.877 -2.0203  0.9851  2.8491
  189MOL0     H26019   2.216   3.813   9.128 -0.6549 -0.6168 -1.2282
  189MOL0     H26020   2.190   3.986   9.130 -2.1947 -1.7311  0.3430
  189MOL0     H26021   1.997   3.992   9.021  0.5636  0.6179 -0.5657
  189MOL0     H26022   2.040   3.852   8.906  0.7377  0.0951 -0.0594
  189MOL0     H26023   1.942   3.850   9.191 -1.1962 -0.5498  0.7645
  189MOL0     H26024   2.011   3.707   9.126 -1.3285 -0.0175  1.9757
  189MOL0     H26025   1.752   3.754   9.117  1.3988 -0.4293  1.0927
  189MOL0     H26026   1.782   3.861   8.989  2.0324 -0.5373 -3.1724
  189MOL0     H26027   1.883   3.696   8.849  0.9830 -2.6346 -0.3823
  189MOL0     H26028   1.716   3.659   8.893 -1.4085 -2.0866  3.4722
  189MOL0     H26029   1.971   3.531   9.007 -0.7737 -1.0671  0.9031
  189MOL0     H26030   1.816   3.491   9.064  1.1634  0.4038  1.7729
  189MOL0     H26031   1.658   3.355   8.864  1.8684 -1.5227  3.7598
  189MOL0     H26032   1.736   3.227   8.514 -1.3770 -2.7541 -0.7883
  189MOL0     H26033   1.601   3.245   8.627  0.3522  2.0992 -2.5164
  189MOL0     H26034   1.685   3.009   8.574 -1.0921  4.2323 -1.5838
  189MOL0     H26035   1.843   3.031   8.623  0.9833  3.4943  0.9453
  189MOL0     H26036   1.768   3.074   8.866  0.2440  1.3858 -1.4621
  189MOL0     H26037   1.601   3.040   8.815 -0.3130 -4.1048  1.4655
  189MOL0     H26038   1.703   2.840   8.917  0.7493 -0.6746  0.1969
  189MOL0     H26039   1.682   2.800   8.752  0.2206 -0.1078  1.4700
  189MOL0     H26040   1.881   2.789   9.057 -2.9242 -0.9192 -1.3582
  189MOL0     H26041   1.877   2.664   9.250 -0.3377 -0.6030  1.1935
  189MOL0     H26042   2.044   2.604   9.261 -0.1642 -2.3604 -1.0909
  189MOL0     H26043   1.925   2.496   9.259 -3.2841  0.7858 -0.4448
  189MOL0     H26044   2.219   2.087   9.039 -2.3088  5.3619  0.1904
  189MOL0     H26045   2.206   1.861   9.139  2.1172  0.5477 -2.9081
  189MOL0     H26046   2.036   1.538   9.166  1.3457 -0.1341  1.0893
  189MOL0     H26047   2.145   1.657   9.115  0.4549 -0.4081 -0.7806
  189MOL0     H26048   2.145   1.763   9.345  0.3898 -1.0460 -2.7781
  189MOL0     H26049   2.042   1.641   9.407 -1.0534 -1.5189 -0.3845
  189MOL0     H26050   2.338   1.629   9.321  0.4813  0.4110  3.1072
  189MOL0     H26051   2.251   1.494   9.281 -1.9469  1.3624 -1.8668
  189MOL0     H26052   2.327   1.450   9.519  0.4290  0.6910  0.7520
  189MOL0     H26053   2.166   1.514   9.540 -0.6325 -1.0013 -0.3176
  189MOL0     H26054   2.379   1.727   9.507  0.1227 -1.2869 -0.8160
  189MOL0     H26055   2.239   1.725   9.608 -1.4784 -2.3649  1.1621
  189MOL0     H26056   2.415   1.516   9.700  0.1804  0.4663 -1.5016
  189MOL0     H26057   2.318   1.641   9.779 -1.6856 -2.8715 -1.8590
  189MOL0     H26058   2.527   1.801   9.689  0.1006 -1.3291 -2.6338
  189MOL0     H26059   2.613   1.640   9.691  0.7835 -0.9569  1.7766
  189MOL0     H26060   2.661   1.699   9.893  0.2819 -1.0219  0.6328
  189MOL0     H26061   2.503   1.632   9.939 -1.3238  1.3365  0.0331
  189MOL0     H26062   1.782   1.870   9.069  0.3960  0.1862 -2.5395
  189MOL0     H26063   1.805   2.113   8.985  0.8706  0.8578  1.6646
  189MOL0     H26064   1.982   2.390   8.777 -0.9541 -1.0841  0.7385
  189MOL0     H26065   1.931   2.606   8.677  0.5959 -1.6608 -0.1340
  189MOL0     H26066   2.280   3.827   8.460 -0.1743 -0.6123 -0.9953
  189MOL0     H26067   2.276   3.641   8.284 -3.3586 -2.8580  0.2010
  189MOL0     H26068   2.526   3.197   8.155  2.2043 -3.2049 -0.9693
  189MOL0     H26069   2.501   3.006   8.014  0.5499 -0.4047  0.9276
  189MOL0     H26070   2.125   2.770   7.992  0.3333 -3.8562 -0.0140
  189MOL0     H26071   2.193   2.869   7.861  1.9242  0.3855 -0.0159
  189MOL0     H26072   2.172   2.629   7.804  1.2663  1.6143 -2.9498
  189MOL0     H26073   2.300   2.588   7.920  1.9279  2.2895  1.6781
  189MOL0     H26074   2.477   2.720   7.770 -0.5481 -0.5657  1.7944
  189MOL0     H26075   2.382   2.612   7.677  0.9938 -1.3159  1.1231
  189MOL0     H26076   2.216   2.806   7.638 -0.4324  2.8873 -0.1507
  189MOL0     H26077   2.379   2.801   7.563  3.4309 -1.5383  2.1700
  189MOL0     H26078   2.473   3.138   7.766 -3.7101  0.7835  1.9933
  189MOL0     H26079   2.126   2.911   8.188 -3.2578  3.4628  1.9830
  189MOL0     H26080   2.148   3.099   8.478 -3.7951  0.7590  1.8065
  189MOL0     H26081   2.047   3.176   8.355  1.5120 -0.0453  0.6584
  189MOL0     H26082   2.055   2.998   8.380  1.3676 -0.3436 -1.9811
  190MOL0     O26083   4.616   0.453   5.457  0.0290 -0.2458  0.8682
  190MOL0     C26084   4.654   0.333   5.451  0.2679  0.2780 -0.6184
  190MOL0     O26085   4.566   0.230   5.439  0.7068 -0.9561  0.1080
  190MOL0     C26086   4.428   0.254   5.423  0.2599 -1.2837  0.0807
  190MOL0     C26087   4.347   0.204   5.520 -0.2219  1.0476  0.7034
  190MOL0     C26088   4.215   0.229   5.526 -0.1251 -0.7974  0.2654
  190MOL0     C26089   4.153   0.321   5.438  0.1962 -0.7744 -0.7393
  190MOL0     O26090   4.026   0.371   5.457 -0.5345 -0.7542  0.1249
  190MOL0     C26091   3.986   0.421   5.591  0.1152  0.5234  0.1827
  190MOL0     C26092   3.832   0.457   5.599 -0.0988 -0.2023 -0.4305
  190MOL0     C26093   3.734   0.357   5.532  1.2410 -0.0469 -0.2831
  190MOL0     C26094   3.738   0.212   5.586 -0.7752 -0.3287 -0.1579
  190MOL0     C26095   3.644   0.121   5.504 -0.3058 -0.3230 -0.2696
  190MOL0     C26096   3.495   0.129   5.525  0.4422  0.1285 -0.4816
  190MOL0     C26097   3.437  -0.005   5.500 -0.7368 -0.3234  0.0623
  190MOL0     C26098   3.283  -0.002   5.490  0.2702 -0.3625  0.1107
  190MOL0     N26099   3.240   0.063   5.361  0.0945 -0.7572 -0.4445
  190MOL0     C26100   3.226   0.195   5.338  0.1745 -1.0417  0.0936
  190MOL0     C26101   3.188   0.205   5.208  1.1789  0.8184 -0.0900
  190MOL0     C26102   3.143   0.325   5.140 -0.9947 -0.1348 -0.4708
  190MOL0     C26103   3.260   0.379   5.060 -0.0117 -0.4872  0.6250
  190MOL0     C26104   3.342   0.480   5.147 -1.2142  0.4796  0.3560
  190MOL0     C26105   3.458   0.545   5.064 -0.1251 -0.4136  0.1669
  190MOL0     O26106   3.579   0.555   5.143 -0.0917  0.2686 -0.4049
  190MOL0     C26107   3.613   0.678   5.196  0.4258  1.6159 -0.0998
  190MOL0     C26108   3.607   0.801   5.122  0.4748 -0.0483 -0.8815
  190MOL0     C26109   3.654   0.915   5.173  0.4575  0.1283  0.1034
  190MOL0     C26110   3.633   1.041   5.079  0.3206  0.6675 -0.6029
  190MOL0     C26111   3.730   0.913   5.296  0.0179  0.3070 -0.4223
  190MOL0     C26112   3.778   1.039   5.345 -0.4106  0.1997  0.2888
  190MOL0     O26113   3.906   1.038   5.398 -0.0354  0.0717  0.3814
  190MOL0     C26114   3.958   1.160   5.430  0.8156 -0.3117  0.2757
  190MOL0     C26115   3.959   1.270   5.336  1.1739  0.1534  0.2124
  190MOL0     C26116   4.023   1.389   5.369 -0.4448 -0.2908  0.6139
  190MOL0     C26117   4.095   1.397   5.485 -0.2717  0.3844 -0.2727
  190MOL0     O26118   4.176   1.513   5.505 -0.3375  0.4374  0.7452
  190MOL0     C26119   4.309   1.476   5.526  0.6605 -0.2830 -0.1441
  190MOL0     C26120   4.396   1.591   5.482 -0.8985  0.2544 -0.4432
  190MOL0     C26121   4.546   1.555   5.484  1.2316  0.1581 -0.9963
  190MOL0     C26122   4.597   1.550   5.627  0.6574 -0.2459 -0.2510
  190MOL0     C26123   4.748   1.557   5.638  0.8711 -0.0052  0.2200
  190MOL0     C26124   4.816   1.684   5.596  0.2299 -0.0247 -0.7059
  190MOL0     C26125   4.975   1.687   5.605  0.7104  0.3964 -0.3410
  190MOL0     C26126   5.036   1.820   5.601 -0.4659  0.2048 -0.4271
  190MOL0    Cl26127   4.979   1.921   5.737 -0.1137  0.3622 -0.2606
  190MOL0     C26128   4.092   1.293   5.582 -0.4276 -0.1734  0.0379
  190MOL0     C26129   4.024   1.176   5.549 -0.0920 -0.0511  0.4747
  190MOL0     O26130   3.713   1.140   5.329  0.1373 -0.3564 -0.2733
  190MOL0     C26131   3.728   0.796   5.377  0.0012 -0.6470  0.4436
  190MOL0     C26132   3.670   0.681   5.318  0.3637 -0.1076 -1.2071
  190MOL0     N26133   3.174   0.079   5.162 -0.0239  0.1144  0.2398
  190MOL0     N26134   3.202  -0.010   5.253  0.7810  0.0360 -1.0502
  190MOL0     C26135   4.242   0.374   5.337 -1.0617  0.0771  0.1558
  190MOL0     C26136   4.375   0.342   5.322  0.2195  0.7444 -0.2644
  190MOL0     C26137   4.796   0.305   5.435  1.0115 -0.0587  0.6222
  190MOL0     C26138   4.883   0.417   5.427  0.8055 -0.1372  0.1310
  190MOL0     C26139   5.010   0.394   5.377 -0.4555 -0.1388 -0.2934
  190MOL0     C26140   5.055   0.268   5.349  1.2647 -0.8841 -0.9021
  190MOL0     O26141   5.176   0.260   5.292  0.7563  0.4585 -0.4873
  190MOL0     C26142   5.192   0.171   5.183  0.2672 -0.2449  0.2677
  190MOL0     C26143   5.209   0.239   5.055 -0.0646 -0.2519  1.0482
  190MOL0     C26144   5.344   0.313   5.063 -0.6194  0.6488 -0.6937
  190MOL0     C26145   5.395   0.357   4.927 -0.0004  0.6167  0.3133
  190MOL0     C26146   5.527   0.428   4.941 -0.2083 -0.1313  0.4141
  190MOL0     C26147   5.637   0.488   4.939  0.1399 -0.0130 -0.2537
  190MOL0     C26148   4.991   0.156   5.394  0.3651  0.0364  0.0689
  190MOL0     C26149   4.858   0.176   5.430  0.9556  0.7073 -0.5577
  190MOL0     C26150   4.787   0.050   5.473  0.0980  0.7883 -0.5274
  190MOL0     H26151   4.386   0.130   5.590 -0.1021  2.5546  2.3099
  190MOL0     H26152   4.155   0.169   5.592  2.5455 -2.1224  1.6668
  190MOL0     H26153   4.043   0.512   5.609 -0.0846  0.4330  1.3153
  190MOL0     H26154   4.010   0.345   5.666 -1.4038  1.0876  1.3017
  190MOL0     H26155   3.800   0.478   5.702  0.9983 -0.6029  0.0091
  190MOL0     H26156   3.819   0.552   5.546  0.3123 -0.2342 -0.5932
  190MOL0     H26157   3.631   0.393   5.539  2.1787  2.4820  2.7368
  190MOL0     H26158   3.743   0.360   5.423  1.9601 -0.6591 -0.2502
  190MOL0     H26159   3.843   0.185   5.576 -1.2312 -1.2914 -3.2765
  190MOL0     H26160   3.710   0.206   5.692  0.4336  3.2357  0.5111
  190MOL0     H26161   3.685   0.024   5.533  0.7957  0.5301  1.2167
  190MOL0     H26162   3.659   0.132   5.396 -0.8465  0.6652 -0.2529
  190MOL0     H26163   3.467   0.151   5.628 -0.2751 -1.6131 -0.2630
  190MOL0     H26164   3.462   0.207   5.457 -0.6314 -1.9085 -2.4456
  190MOL0     H26165   3.465  -0.070   5.583  3.3938  1.9819  0.7289
  190MOL0     H26166   3.476  -0.037   5.403 -0.3530  2.8600 -0.9313
  190MOL0     H26167   3.252  -0.106   5.479  5.0503 -1.8803 -1.6457
  190MOL0     H26168   3.246   0.051   5.577  2.3127  5.2469 -1.9548
  190MOL0     H26169   3.241   0.270   5.415 -1.1919 -1.3665  0.7163
  190MOL0     H26170   3.101   0.395   5.213  0.0460 -0.4288  0.4543
  190MOL0     H26171   3.060   0.300   5.074 -2.1973  0.5034  0.7499
  190MOL0     H26172   3.330   0.302   5.026 -0.3924  0.6730 -3.3403
  190MOL0     H26173   3.227   0.441   4.976 -0.6374 -0.6471  0.7454
  190MOL0     H26174   3.270   0.551   5.190 -1.8190  0.2004 -0.1685
  190MOL0     H26175   3.384   0.425   5.231 -3.9837  2.9364  3.6537
  190MOL0     H26176   3.474   0.474   4.982  0.3262  2.8241 -2.7847
  190MOL0     H26177   3.424   0.637   5.016 -0.5190 -0.1869  0.8533
  190MOL0     H26178   3.553   0.807   5.028 -2.2440  1.3161  0.6499
  190MOL0     H26179   3.724   1.100   5.085  0.8284 -0.2235  1.0577
  190MOL0     H26180   3.545   1.090   5.123 -1.5108 -3.3754  0.6944
  190MOL0     H26181   3.608   1.013   4.976 -0.7047 -0.3528 -0.0967
  190MOL0     H26182   3.921   1.252   5.235  1.3140  0.8851  0.0281
  190MOL0     H26183   4.031   1.474   5.302  0.6522 -0.8222  0.0618
  190MOL0     H26184   4.320   1.451   5.632  1.9883  2.0131  0.3246
  190MOL0     H26185   4.335   1.389   5.465  1.1891  0.2927 -0.7490
  190MOL0     H26186   4.381   1.602   5.374 -1.0488 -3.4505 -0.9414
  190MOL0     H26187   4.382   1.683   5.539 -1.3442 -0.0116 -0.1131
  190MOL0     H26188   4.597   1.631   5.424  0.8654  0.0545 -1.4440
  190MOL0     H26189   4.548   1.453   5.444 -3.0147 -0.3481 -0.4185
  190MOL0     H26190   4.556   1.456   5.665 -0.4282  0.6747  0.9323
  190MOL0     H26191   4.556   1.633   5.685  2.2705  0.0377  0.5519
  190MOL0     H26192   4.777   1.534   5.741 -1.9190  2.3613  1.7070
  190MOL0     H26193   4.785   1.481   5.568 -0.6243 -0.1089 -0.5055
  190MOL0     H26194   4.770   1.765   5.654 -2.6056 -1.4150 -0.8407
  190MOL0     H26195   4.790   1.704   5.492  1.2919  1.2019 -0.7579
  190MOL0     H26196   5.003   1.621   5.522 -3.8691 -2.0060 -0.3035
  190MOL0     H26197   4.994   1.638   5.701 -1.6842  0.8881  0.4541
  190MOL0     H26198   5.020   1.869   5.504  0.4700  0.3900 -0.4889
  190MOL0     H26199   5.142   1.801   5.614 -0.0430  2.3702 -0.3489
  190MOL0     H26200   4.147   1.316   5.673 -0.2763 -1.4628  0.2974
  190MOL0     H26201   4.027   1.093   5.620  2.4481 -0.2357  0.2493
  190MOL0     H26202   3.761   0.794   5.481  1.2011 -1.6760  0.0759
  190MOL0     H26203   3.658   0.587   5.371  1.5419 -0.3915 -1.4065
  190MOL0     H26204   4.192   0.455   5.285 -1.0965  1.7904  2.6835
  190MOL0     H26205   4.426   0.395   5.242  0.2444 -1.5988 -1.9322
  190MOL0     H26206   4.855   0.522   5.430 -0.0340 -0.1947 -2.6981
  190MOL0     H26207   5.075   0.481   5.370 -1.0734  0.2782 -1.1572
  190MOL0     H26208   5.279   0.107   5.202  1.1566  1.4004  2.0915
  190MOL0     H26209   5.107   0.103   5.170 -1.0301  1.4141 -0.3003
  190MOL0     H26210   5.121   0.303   5.037 -0.1097 -1.4255 -5.2578
  190MOL0     H26211   5.214   0.167   4.973  2.8586  0.6457  0.3202
  190MOL0     H26212   5.330   0.403   5.123  1.0884  0.0113  0.7679
  190MOL0     H26213   5.418   0.255   5.120 -1.3737 -0.4173 -0.7751
  190MOL0     H26214   5.322   0.430   4.891 -1.1813 -0.6342  0.1412
  190MOL0     H26215   5.385   0.271   4.861 -2.1677 -0.3765  1.8398
  190MOL0     H26216   5.729   0.544   4.940 -0.4751  1.0354  1.0002
  190MOL0     H26217   5.021   0.054   5.372 -2.0223 -0.2893 -2.0109
  190MOL0     H26218   4.698   0.051   5.409  0.2365  3.9207 -0.8184
  190MOL0     H26219   4.848  -0.040   5.469 -2.2939 -0.9379 -4.6312
  190MOL0     H26220   4.755   0.056   5.577 -0.4032 -2.4290 -0.3866
  191MOL0     O26221   8.798   1.455   2.798 -0.2074 -0.0019 -0.0272
  191MOL0     C26222   8.744   1.391   2.711  0.6250  0.6302 -0.1310
  191MOL0     O26223   8.774   1.259   2.682  0.3681  0.7477  0.0652
  191MOL0     C26224   8.875   1.196   2.751  0.3438 -0.4688 -0.9771
  191MOL0     C26225   8.993   1.154   2.690 -0.7959  0.1357 -0.7951
  191MOL0     C26226   9.089   1.083   2.762 -1.2757  0.2536 -0.7944
  191MOL0     C26227   9.081   1.071   2.901  0.5687  0.5066  0.1645
  191MOL0     O26228   9.181   0.993   2.955 -0.2263  0.0231  0.2852
  191MOL0     C26229   9.211   1.011   3.095 -1.2039  0.5867  0.0410
  191MOL0     C26230   9.129   0.912   3.178 -0.3754  0.1696  0.2346
  191MOL0     C26231   9.104   0.937   3.323 -0.3536 -0.3731 -0.3510
  191MOL0     C26232   9.014   1.061   3.337 -0.1085 -0.9014  0.1039
  191MOL0     C26233   8.973   1.080   3.485  0.3426  0.4612  0.6133
  191MOL0     C26234   8.887   1.204   3.524 -0.4575 -1.1090 -0.0506
  191MOL0     C26235   8.988   1.318   3.500  0.2815  0.4973 -0.3398
  191MOL0     C26236   8.942   1.451   3.573  0.2628 -0.2737  0.4124
  191MOL0     N26237   9.001   1.560   3.502 -0.2832 -0.0194  0.5862
  191MOL0     C26238   9.132   1.573   3.484 -0.1781  0.4941  0.0909
  191MOL0     C26239   9.141   1.672   3.391  0.2574  0.3478  0.0149
  191MOL0     C26240   9.266   1.738   3.336 -0.6154  0.2296 -1.2621
  191MOL0     C26241   9.321   1.844   3.436 -0.0935 -0.0913  1.0716
  191MOL0     C26242   9.232   1.963   3.434  0.8974  0.8101 -0.0777
  191MOL0     C26243   9.290   2.060   3.528  0.4906 -0.5664 -0.4059
  191MOL0     O26244   9.418   2.128   3.492  0.4164  0.1573  0.0709
  191MOL0     C26245   9.421   2.209   3.382  0.3753 -0.0859  0.3703
  191MOL0     C26246   9.382   2.338   3.413  0.3818  0.1647  0.0804
  191MOL0     C26247   9.384   2.438   3.315  0.7616  0.4728 -0.0419
  191MOL0     C26248   9.320   2.568   3.341  0.8356 -0.0771  0.0053
  191MOL0     C26249   9.429   2.399   3.187 -0.0212 -1.0889 -0.5056
  191MOL0     C26250   9.441   2.500   3.081 -0.7140 -0.0768 -0.7722
  191MOL0     O26251   9.405   2.467   2.956  0.0711  0.5861  0.1301
  191MOL0     C26252   9.371   2.573   2.867 -0.3065 -0.0465 -0.2616
  191MOL0     C26253   9.307   2.696   2.888  0.3031  0.9565 -0.0405
  191MOL0     C26254   9.262   2.778   2.783 -0.0557 -0.7878 -0.8005
  191MOL0     C26255   9.299   2.740   2.655 -0.1097 -0.2299  0.3533
  191MOL0     O26256   9.259   2.804   2.537 -0.3392 -1.0045 -0.0255
  191MOL0     C26257   9.258   2.944   2.513 -0.6193 -0.6786  0.6764
  191MOL0     C26258   9.282   2.964   2.358  0.0624 -0.1883  0.2278
  191MOL0     C26259   9.150   2.923   2.289 -0.1139  0.6091  0.1804
  191MOL0     C26260   9.144   2.946   2.134 -0.3327  0.2589  0.2781
  191MOL0     C26261   9.119   3.083   2.094  0.9629 -0.0548 -0.1927
  191MOL0     C26262   9.110   3.117   1.944  0.8845  0.3002 -0.6187
  191MOL0     C26263   9.017   3.013   1.871 -0.1988 -0.6721  0.3813
  191MOL0     C26264   8.969   3.068   1.736 -0.7077 -0.5220 -0.2385
  191MOL0    Cl26265   9.095   3.142   1.634  0.0663 -0.0457 -0.1240
  191MOL0     C26266   9.365   2.615   2.636 -0.1244 -0.6445 -0.8900
  191MOL0     C26267   9.404   2.539   2.747 -0.5564  0.1068  1.1170
  191MOL0     O26268   9.494   2.606   3.106  0.0363  0.0275 -0.0478
  191MOL0     C26269   9.486   2.277   3.161  0.2131  0.4873  0.2996
  191MOL0     C26270   9.482   2.183   3.262 -0.7804 -0.1400 -0.8696
  191MOL0     N26271   9.009   1.711   3.355  0.3252  0.1147 -0.4161
  191MOL0     N26272   8.929   1.655   3.438  0.3672  0.1596  0.1241
  191MOL0     C26273   8.964   1.129   2.962 -0.7332 -0.2514 -0.4670
  191MOL0     C26274   8.862   1.195   2.892 -0.1426  0.1804  0.4936
  191MOL0     C26275   8.641   1.461   2.616  0.0619  1.0387  1.0235
  191MOL0     C26276   8.612   1.585   2.657  0.0259 -1.0709 -0.0020
  191MOL0     C26277   8.544   1.673   2.568 -0.0276  0.6738 -0.3472
  191MOL0     C26278   8.479   1.632   2.456  0.5963  0.5348  0.4231
  191MOL0     O26279   8.410   1.724   2.384 -0.0632  0.9655 -0.0187
  191MOL0     C26280   8.316   1.803   2.454  0.2933  1.5194 -0.2068
  191MOL0     C26281   8.371   1.942   2.446 -0.1719 -0.5771 -0.2664
  191MOL0     C26282   8.287   2.030   2.540 -0.1392 -0.8913 -0.0383
  191MOL0     C26283   8.133   2.046   2.519  0.0756  0.1933 -0.4404
  191MOL0     C26284   8.062   1.933   2.572  0.4317 -0.8046  0.4559
  191MOL0     C26285   8.009   1.833   2.610 -0.9905 -0.6745  0.1046
  191MOL0     C26286   8.499   1.494   2.416  0.4091  0.1903 -0.3922
  191MOL0     C26287   8.574   1.413   2.501 -0.5780 -0.7840  1.2011
  191MOL0     C26288   8.610   1.290   2.430 -0.1907  0.2698  0.1666
  191MOL0     H26289   9.015   1.182   2.587 -1.9549 -0.6260 -1.2785
  191MOL0     H26290   9.177   1.036   2.721  0.2034  1.4726  0.8273
  191MOL0     H26291   9.191   1.113   3.129 -1.6615  1.8688 -3.5838
  191MOL0     H26292   9.318   0.987   3.100 -1.3690 -0.4241 -0.9591
  191MOL0     H26293   9.032   0.909   3.128 -0.6833  0.7981  0.7765
  191MOL0     H26294   9.166   0.809   3.185 -1.7830 -0.2376  3.2944
  191MOL0     H26295   9.045   0.861   3.373  0.2133 -0.4318  0.2394
  191MOL0     H26296   9.200   0.950   3.373 -1.0837  1.2132  0.6969
  191MOL0     H26297   9.080   1.145   3.314 -3.5163  1.7902 -0.6894
  191MOL0     H26298   8.927   1.053   3.272 -0.6825 -0.4045  0.7959
  191MOL0     H26299   9.068   1.071   3.539  0.5004 -2.2472  0.0246
  191MOL0     H26300   8.909   0.991   3.491 -1.2274  1.5745  0.8076
  191MOL0     H26301   8.796   1.210   3.463 -1.4491 -3.0323  1.1678
  191MOL0     H26302   8.856   1.197   3.629  0.1636 -0.5144  0.1770
  191MOL0     H26303   9.003   1.333   3.392  1.5881 -0.4588 -0.3210
  191MOL0     H26304   9.089   1.284   3.528  0.5067  0.2410 -1.4060
  191MOL0     H26305   8.833   1.455   3.573  0.2107 -1.1804  1.0780
  191MOL0     H26306   8.970   1.453   3.679  1.5520 -3.6305  0.2928
  191MOL0     H26307   9.207   1.520   3.540 -3.2846 -4.5187  0.1227
  191MOL0     H26308   9.258   1.774   3.233  0.3973  0.9278 -1.1076
  191MOL0     H26309   9.332   1.651   3.326  0.9634  1.0367  1.2555
  191MOL0     H26310   9.347   1.790   3.528  5.9964 -2.7860 -1.6535
  191MOL0     H26311   9.418   1.884   3.403 -1.0642  1.6993  0.2286
  191MOL0     H26312   9.223   2.019   3.340 -1.4329 -0.8765 -0.9453
  191MOL0     H26313   9.129   1.933   3.453  1.5725 -0.7950  1.1969
  191MOL0     H26314   9.202   2.121   3.551 -0.4655 -1.9571 -0.2421
  191MOL0     H26315   9.300   1.989   3.611 -1.4435 -1.3659 -0.7945
  191MOL0     H26316   9.349   2.347   3.516 -0.5192  1.3427 -0.2811
  191MOL0     H26317   9.335   2.639   3.259  2.7623 -3.4468 -2.8327
  191MOL0     H26318   9.373   2.612   3.426 -1.6389 -2.1613  2.8935
  191MOL0     H26319   9.215   2.557   3.370  1.7416 -1.8761  3.0626
  191MOL0     H26320   9.288   2.724   2.991  1.2725 -1.4883  0.8778
  191MOL0     H26321   9.194   2.862   2.795 -0.3075 -1.1164  0.1797
  191MOL0     H26322   9.159   2.986   2.533 -0.2297  0.1021  0.9698
  191MOL0     H26323   9.330   3.003   2.570 -3.0270  0.7901  2.4202
  191MOL0     H26324   9.297   3.072   2.350 -0.0122 -0.3256 -4.7366
  191MOL0     H26325   9.370   2.919   2.311 -0.3128 -1.0629  0.3519
  191MOL0     H26326   9.069   2.973   2.344  0.3101  0.2210  1.1770
  191MOL0     H26327   9.151   2.815   2.307 -0.6224  0.8943  2.1473
  191MOL0     H26328   9.069   2.883   2.085  2.7415 -4.4802  0.9876
  191MOL0     H26329   9.243   2.918   2.095  0.3440  1.9865  0.6788
  191MOL0     H26330   9.025   3.117   2.138 -1.0172 -2.2969 -2.3683
  191MOL0     H26331   9.211   3.132   2.126  1.5185 -1.3387  0.2635
  191MOL0     H26332   9.210   3.121   1.900  2.2315  0.6125  2.2296
  191MOL0     H26333   9.047   3.207   1.947 -0.6398 -0.7272  2.2693
  191MOL0     H26334   8.929   2.987   1.930 -1.1006 -0.5335 -0.8629
  191MOL0     H26335   9.079   2.924   1.858 -0.3680 -0.4613 -2.3789
  191MOL0     H26336   8.891   3.143   1.756  0.1850  0.2148  0.6289
  191MOL0     H26337   8.914   2.987   1.688 -2.9902 -0.1466  1.5062
  191MOL0     H26338   9.386   2.564   2.543  1.8627 -1.6403  0.0363
  191MOL0     H26339   9.452   2.446   2.719 -1.5769  0.0170 -0.4248
  191MOL0     H26340   9.543   2.260   3.071 -1.5213 -0.9554 -0.5843
  191MOL0     H26341   9.529   2.086   3.252  1.4994  0.8831 -0.7048
  191MOL0     H26342   8.946   1.120   3.068 -0.0906 -0.8644 -0.4062
  191MOL0     H26343   8.772   1.235   2.938 -2.5855 -3.7180 -0.3959
  191MOL0     H26344   8.673   1.628   2.736 -0.2854  1.4336 -1.0360
  191MOL0     H26345   8.556   1.780   2.585  0.6523  0.4309  0.7443
  191MOL0     H26346   8.217   1.812   2.409 -0.3002  2.2160  1.1793
  191MOL0     H26347   8.305   1.774   2.559 -0.9085  1.2605 -0.3853
  191MOL0     H26348   8.361   1.979   2.343  3.6063 -1.3643 -1.0866
  191MOL0     H26349   8.477   1.958   2.470  0.3844  0.3284 -2.9281
  191MOL0     H26350   8.321   2.006   2.641  2.7110  1.1122 -0.3863
  191MOL0     H26351   8.325   2.130   2.515  0.3601 -1.2166 -0.6064
  191MOL0     H26352   8.109   2.059   2.413  0.7951  1.1844 -0.4986
  191MOL0     H26353   8.095   2.134   2.573  1.4941 -0.4057  1.6611
  191MOL0     H26354   7.980   1.732   2.629 -1.3233 -0.6955 -0.4927
  191MOL0     H26355   8.432   1.476   2.332  0.9040 -0.1035 -0.7274
  191MOL0     H26356   8.622   1.205   2.499 -0.8199  0.5604  0.6445
  191MOL0     H26357   8.539   1.258   2.354  0.9784  0.8806 -1.2269
  191MOL0     H26358   8.700   1.311   2.371 -0.0715  2.7446  1.1079
  192MOL0     O26359   1.622   4.011   9.798  0.0003 -0.6335 -0.4875
  192MOL0     C26360   1.652   4.096   9.713 -0.5548 -0.5106 -0.1805
  192MOL0     O26361   1.662   4.230   9.735 -0.5997 -0.3937 -0.6656
  192MOL0     C26362   1.640   4.285   9.857  0.0251  0.1646  0.5758
  192MOL0     C26363   1.748   4.350   9.914 -0.3258  0.9444  0.3149
  192MOL0     C26364   1.734   4.410  10.035  1.1259  0.0865 -1.2944
  192MOL0     C26365   1.615   4.404  10.106  1.2013 -0.7516  0.4922
  192MOL0     O26366   1.613   4.479  10.217  0.1680 -0.0043  0.4314
  192MOL0     C26367   1.656   4.403  10.338 -0.1545 -0.2417  0.2570
  192MOL0     C26368   1.759   4.490  10.404 -0.6545 -0.3476  0.1586
  192MOL0     C26369   1.712   4.637  10.426 -0.2022 -1.3529 -0.2221
  192MOL0     C26370   1.577   4.654  10.500  0.3505  0.4281 -0.1888
  192MOL0     C26371   1.546   4.796  10.546  0.4572  0.0551  0.4812
  192MOL0     C26372   1.396   4.801  10.584 -0.0091  0.1125  0.8690
  192MOL0     C26373   1.339   4.938  10.638 -1.1003  1.7469  0.1823
  192MOL0     C26374   1.360   5.050  10.534  0.8598  0.3347 -0.0051
  192MOL0     N26375   1.270   5.026  10.423  0.5619 -0.4353  0.5670
  192MOL0     C26376   1.139   5.060  10.425  0.0054  0.9205 -0.8150
  192MOL0     C26377   1.096   5.013  10.310 -0.0752  1.0919  0.7498
  192MOL0     C26378   0.955   5.019  10.254  0.6751  0.0038 -0.6624
  192MOL0     C26379   0.937   5.091  10.112  0.2664 -0.4294  0.4116
  192MOL0     C26380   1.011   5.224  10.086 -0.0580  0.7677 -0.4047
  192MOL0     C26381   0.986   5.334  10.182 -0.3325 -0.3328  0.6668
  192MOL0     O26382   0.838   5.366  10.167  0.0430  0.7389  0.0269
  192MOL0     C26383   0.800   5.484  10.220  1.0107  0.3761  0.0413
  192MOL0     C26384   0.699   5.554  10.154  0.4723  0.3719  0.5927
  192MOL0     C26385   0.637   5.666  10.209 -0.0808 -0.7718 -0.3229
  192MOL0     C26386   0.545   5.748  10.125  0.0381  0.2313  0.7791
  192MOL0     C26387   0.692   5.716  10.334 -0.0035 -0.7630  0.5056
  192MOL0     C26388   0.633   5.836  10.408  0.8343  0.0147  0.4229
  192MOL0     O26389   0.692   5.858  10.527  1.5145  0.4921 -0.1905
  192MOL0     C26390   0.651   5.969  10.592 -0.5582 -0.6479 -0.2464
  192MOL0     C26391   0.567   5.968  10.706  0.3323  0.6627 -0.4391
  192MOL0     C26392   0.537   6.087  10.771  0.2472 -0.6300 -0.0461
  192MOL0     C26393   0.585   6.212  10.721 -0.8165  0.6912  0.2750
  192MOL0     O26394   0.562   6.331  10.772 -0.1743  0.0521  0.2774
  192MOL0     C26395   0.467   6.346  10.881  0.0134 -0.4942  0.1871
  192MOL0     C26396   0.340   6.414  10.835 -0.3822 -0.4676 -0.0793
  192MOL0     C26397   0.246   6.459  10.945 -0.4628  0.6036 -0.2163
  192MOL0     C26398   0.229   6.352  11.053 -0.2390  0.8781  0.6902
  192MOL0     C26399   0.324   6.375  11.177  0.8822  0.3111  0.1437
  192MOL0     C26400   0.310   6.274  11.277  0.1236 -0.0781  0.7195
  192MOL0     C26401   0.173   6.253  11.338 -0.1950 -0.4552 -0.1287
  192MOL0     C26402   0.172   6.135  11.431  0.1446 -1.0969 -0.5608
  192MOL0    Cl26403   0.007   6.141  11.498 -0.6216 -0.0074 -0.1008
  192MOL0     C26404   0.668   6.208  10.606 -0.8486  0.8544 -0.3432
  192MOL0     C26405   0.709   6.088  10.547 -0.1207 -0.5265  0.1305
  192MOL0     O26406   0.556   5.918  10.355 -0.0465  0.5236  0.3957
  192MOL0     C26407   0.796   5.650  10.399 -0.0450 -0.4286 -0.2514
  192MOL0     C26408   0.845   5.530  10.341  1.0488 -0.0981 -0.6805
  192MOL0     N26409   1.190   4.947  10.235  0.0777  0.4860 -0.5395
  192MOL0     N26410   1.298   4.966  10.308  0.4871  0.9214  0.2900
  192MOL0     C26411   1.502   4.342  10.057 -0.0552 -1.0539  0.0332
  192MOL0     C26412   1.519   4.278   9.930 -0.1315 -0.2759 -0.8470
  192MOL0     C26413   1.650   4.068   9.569  0.0566 -0.9047 -0.7563
  192MOL0     C26414   1.770   4.078   9.497  0.1763 -0.7428  0.0602
  192MOL0     C26415   1.777   4.064   9.362  0.8407 -1.2994  0.6305
  192MOL0     C26416   1.657   4.027   9.292  0.1957 -0.5456  0.9607
  192MOL0     O26417   1.663   4.029   9.153 -0.1748 -0.2229  0.3324
  192MOL0     C26418   1.559   3.994   9.069  0.7307 -0.5762 -0.7250
  192MOL0     C26419   1.447   4.104   9.072 -0.3784  0.6697  0.0165
  192MOL0     C26420   1.494   4.242   9.057  0.0181  0.0750  0.3464
  192MOL0     C26421   1.389   4.361   9.072 -0.5042  0.0155  0.4377
  192MOL0     C26422   1.449   4.495   9.055 -0.7570  0.5460 -0.7450
  192MOL0     C26423   1.501   4.606   9.047  0.1196  0.8049  0.3266
  192MOL0     C26424   1.540   3.999   9.366  0.6451 -0.0601  0.5717
  192MOL0     C26425   1.534   4.014   9.500  0.3875  0.4856  0.2464
  192MOL0     C26426   1.410   3.975   9.575 -0.9630 -1.0491 -0.3478
  192MOL0     H26427   1.843   4.373   9.867 -0.0409  2.8476  1.6867
  192MOL0     H26428   1.818   4.475  10.058 -0.5426  1.3785  1.8542
  192MOL0     H26429   1.711   4.310  10.321  1.3160  0.5645  0.4548
  192MOL0     H26430   1.567   4.397  10.401 -1.0915 -0.2470 -1.0259
  192MOL0     H26431   1.793   4.444  10.497 -1.4332  0.1858  0.7149
  192MOL0     H26432   1.843   4.481  10.334 -0.1685 -0.5597  0.7635
  192MOL0     H26433   1.796   4.689  10.473  0.0313 -1.3647 -0.6188
  192MOL0     H26434   1.715   4.679  10.325  0.4539 -0.3664  0.1880
  192MOL0     H26435   1.495   4.635  10.431 -0.4679  2.8803  0.0000
  192MOL0     H26436   1.572   4.583  10.583 -0.0770  0.5646 -0.0930
  192MOL0     H26437   1.568   4.856  10.458  0.9354 -0.4007  0.2856
  192MOL0     H26438   1.607   4.831  10.629  0.5591  0.2571  0.3218
  192MOL0     H26439   1.332   4.779  10.498 -1.3670  0.9164  1.6437
  192MOL0     H26440   1.389   4.720  10.657  0.1860 -0.2306  0.5107
  192MOL0     H26441   1.371   4.968  10.738 -0.9832  1.4704  0.2293
  192MOL0     H26442   1.232   4.925  10.657 -0.6648 -1.5138  1.0146
  192MOL0     H26443   1.319   5.142  10.577  1.1571  0.6909 -0.4806
  192MOL0     H26444   1.462   5.050  10.496  1.2829 -0.1926  1.0944
  192MOL0     H26445   1.082   5.113  10.500 -1.3502 -0.5100 -0.7939
  192MOL0     H26446   0.892   5.078  10.321  2.8362 -0.5914  2.0939
  192MOL0     H26447   0.913   4.919  10.245  0.6200 -0.0002 -0.3720
  192MOL0     H26448   0.982   5.023  10.039 -0.7935  0.3659 -1.0311
  192MOL0     H26449   0.831   5.084  10.086  0.7811 -0.4850 -1.9241
  192MOL0     H26450   1.116   5.203  10.108 -0.3632  2.1391  3.0207
  192MOL0     H26451   1.005   5.246   9.979 -0.3510  2.9117  0.0125
  192MOL0     H26452   1.016   5.304  10.283  0.8134  1.1112  0.7937
  192MOL0     H26453   1.049   5.423  10.180  0.8221 -1.0728  1.8545
  192MOL0     H26454   0.659   5.532  10.056 -3.1164  2.3218  1.4313
  192MOL0     H26455   0.532   5.702  10.027  0.7225 -2.8250  2.0033
  192MOL0     H26456   0.579   5.851  10.109  1.4623 -0.3693 -0.2972
  192MOL0     H26457   0.445   5.746  10.168 -0.9647 -0.2181 -1.4494
  192MOL0     H26458   0.529   5.877  10.751  0.0492  1.9486  2.0648
  192MOL0     H26459   0.478   6.087  10.862 -0.9264  0.4502 -0.7690
  192MOL0     H26460   0.453   6.261  10.948  2.6534 -1.6517 -0.5861
  192MOL0     H26461   0.515   6.421  10.945  1.1872 -1.1173  0.0701
  192MOL0     H26462   0.381   6.502  10.785  1.6767 -1.2379  0.1661
  192MOL0     H26463   0.288   6.345  10.768 -1.6494  1.1513 -0.8443
  192MOL0     H26464   0.143   6.469  10.908 -0.9528 -2.1859  0.1522
  192MOL0     H26465   0.275   6.559  10.978 -2.4941  2.0307 -2.3901
  192MOL0     H26466   0.246   6.256  11.002  0.8187  0.9282  0.9219
  192MOL0     H26467   0.125   6.347  11.087  0.5426 -0.6991  3.1772
  192MOL0     H26468   0.431   6.388  11.160  0.7915  2.4941  0.9618
  192MOL0     H26469   0.295   6.472  11.218 -1.9150 -0.2775 -0.2551
  192MOL0     H26470   0.376   6.292  11.362  0.6124  0.1135  0.3046
  192MOL0     H26471   0.336   6.176  11.237  1.3242  1.1708 -1.7844
  192MOL0     H26472   0.103   6.224  11.259 -0.0051 -0.3928 -0.3204
  192MOL0     H26473   0.148   6.345  11.393 -1.9834  0.1960 -1.8982
  192MOL0     H26474   0.228   6.147  11.524 -0.9692  0.5786 -0.0685
  192MOL0     H26475   0.195   6.043  11.376  0.3389 -0.0303 -2.3288
  192MOL0     H26476   0.716   6.291  10.555  3.1157 -2.5218 -2.7407
  192MOL0     H26477   0.752   6.095  10.448 -0.7845 -0.6824 -0.1751
  192MOL0     H26478   0.827   5.675  10.500  0.4526  1.0838 -0.7566
  192MOL0     H26479   0.909   5.470  10.405  0.3046 -0.5469 -0.3492
  192MOL0     H26480   1.409   4.354  10.112  1.5402  1.7208  2.3909
  192MOL0     H26481   1.433   4.220   9.899 -1.6946  1.0954  0.6838
  192MOL0     H26482   1.861   4.118   9.541 -0.8738  1.9673 -0.0406
  192MOL0     H26483   1.862   4.091   9.300 -0.3187  2.2668  0.3317
  192MOL0     H26484   1.594   3.974   8.967 -3.6197  3.2418 -3.3262
  192MOL0     H26485   1.522   3.899   9.110  1.6388 -0.1405  1.2280
  192MOL0     H26486   1.388   4.086   9.163 -1.4512 -3.1696 -1.2693
  192MOL0     H26487   1.379   4.073   8.993 -2.4672 -1.3898  2.4195
  192MOL0     H26488   1.575   4.255   9.129 -0.5295 -0.9594  1.1786
  192MOL0     H26489   1.545   4.251   8.961 -1.1702  1.2121 -0.2075
  192MOL0     H26490   1.337   4.344   9.166  3.4951 -0.2568  2.8397
  192MOL0     H26491   1.314   4.343   8.995  1.3043 -3.7947 -0.6942
  192MOL0     H26492   1.535   4.708   9.050  2.0324  0.2335 -0.3356
  192MOL0     H26493   1.448   3.981   9.311  0.6019 -0.7378  0.8540
  192MOL0     H26494   1.420   4.001   9.681  1.0499 -2.3949 -0.1605
  192MOL0     H26495   1.331   4.044   9.542  2.0922  2.4591 -0.9710
  192MOL0     H26496   1.377   3.871   9.571 -1.1366 -1.0291  0.3738
  193MOL0     O26497  11.462   5.062   2.892  0.0011  0.3766 -0.3767
  193MOL0     C26498  11.351   5.093   2.851 -0.3209  0.6961 -0.4481
  193MOL0     O26499  11.327   5.191   2.757 -0.0705  0.1283  0.4283
  193MOL0     C26500  11.439   5.229   2.686 -0.6646  0.1538  0.5033
  193MOL0     C26501  11.505   5.140   2.601 -0.6770 -0.5761 -0.0073
  193MOL0     C26502  11.612   5.184   2.526  0.1644  0.0126 -0.2143
  193MOL0     C26503  11.656   5.319   2.542 -0.3557 -0.0700  0.6212
  193MOL0     O26504  11.753   5.372   2.462  0.3765  0.5183  0.0005
  193MOL0     C26505  11.874   5.289   2.436  0.3503 -0.2772  0.1197
  193MOL0     C26506  11.996   5.375   2.391  0.9622 -0.0318 -0.0592
  193MOL0     C26507  12.056   5.473   2.490 -0.3032  0.4325 -1.3334
  193MOL0     C26508  12.173   5.556   2.431  0.5429 -1.2732 -0.3754
  193MOL0     C26509  12.255   5.618   2.548  0.2311  0.6151  0.7206
  193MOL0     C26510  12.347   5.738   2.506 -0.0758 -0.4078 -1.1623
  193MOL0     C26511  12.425   5.763   2.627 -0.6790  0.2416  0.3970
  193MOL0     C26512  12.539   5.868   2.606  0.3342  0.2527  1.0098
  193MOL0     N26513  12.625   5.886   2.718 -0.1135 -0.0385 -0.1938
  193MOL0     C26514  12.631   5.997   2.795 -0.0898  0.1456 -0.1360
  193MOL0     C26515  12.748   5.992   2.868  0.6106  0.2470  0.6266
  193MOL0     C26516  12.793   6.104   2.963 -0.7786 -0.4379  0.4463
  193MOL0     C26517  12.893   6.172   2.868  0.2151  0.9797  0.2749
  193MOL0     C26518  12.970   6.295   2.930 -0.6775 -0.2018  0.8603
  193MOL0     C26519  13.065   6.229   3.037  0.1630  0.5366 -0.2681
  193MOL0     O26520  13.123   6.346   3.106 -0.1317  0.4301 -0.2140
  193MOL0     C26521  13.256   6.339   3.120 -0.5858  0.4683 -0.1438
  193MOL0     C26522  13.336   6.414   3.036 -0.0951 -0.3779  0.4363
  193MOL0     C26523  13.479   6.399   3.022  0.2720  0.6787  0.3448
  193MOL0     C26524  13.559   6.485   2.920  0.4349  0.4621  0.5966
  193MOL0     C26525  13.541   6.304   3.109 -0.6290  0.1929  1.0707
  193MOL0     C26526  13.687   6.273   3.108 -0.7302 -0.2651  0.3563
  193MOL0     O26527  13.731   6.196   3.215  0.1006  0.3510  0.4613
  193MOL0     C26528  13.866   6.160   3.212 -0.0528 -0.6755 -0.1434
  193MOL0     C26529  13.911   6.055   3.135 -0.1734 -0.0504  0.9177
  193MOL0     C26530  14.047   6.015   3.129 -0.5035 -0.6469 -0.0523
  193MOL0     C26531  14.132   6.072   3.220 -0.4972 -0.2908 -0.3333
  193MOL0     O26532  14.259   6.017   3.228  0.2347  0.5650  0.3865
  193MOL0     C26533  14.381   6.085   3.260  0.4153  0.3364 -0.0260
  193MOL0     C26534  14.461   6.096   3.132 -0.1056 -0.3192 -0.7321
  193MOL0     C26535  14.614   6.117   3.159  1.1523 -0.4498 -0.2577
  193MOL0     C26536  14.673   6.129   3.016  0.5330 -0.1954 -0.3689
  193MOL0     C26537  14.823   6.142   3.006 -0.0601 -0.0463  0.0866
  193MOL0     C26538  14.891   6.263   3.075 -0.5739 -0.4232  1.4191
  193MOL0     C26539  14.822   6.396   3.038  1.0088 -0.2535  0.4550
  193MOL0     C26540  14.840   6.443   2.892 -0.7106  0.3783  0.0646
  193MOL0    Cl26541  14.729   6.377   2.764 -0.5296  0.4862 -0.3035
  193MOL0     C26542  14.088   6.174   3.307 -0.5965  0.4934 -0.1738
  193MOL0     C26543  13.959   6.225   3.296  0.6434  0.6055  0.5518
  193MOL0     O26544  13.760   6.327   3.021  0.7499  0.8724  0.9761
  193MOL0     C26545  13.458   6.220   3.191  0.1262 -0.4733 -0.2159
  193MOL0     C26546  13.314   6.236   3.197  0.4909  0.5544  0.2639
  193MOL0     N26547  12.798   5.864   2.852  0.1667 -0.0628  0.0670
  193MOL0     N26548  12.717   5.798   2.766  0.3594 -0.6225  0.0989
  193MOL0     C26549  11.592   5.402   2.627  0.3954  0.1273 -0.7817
  193MOL0     C26550  11.481   5.354   2.698  0.2366 -0.2530  0.0546
  193MOL0     C26551  11.234   5.022   2.901  0.2244 -0.8853  0.0583
  193MOL0     C26552  11.114   5.096   2.896 -0.8036  1.1609 -0.0008
  193MOL0     C26553  10.996   5.042   2.942  0.4228  0.0874 -0.0228
  193MOL0     C26554  10.990   4.909   2.984  0.0680  0.1816 -0.0126
  193MOL0     O26555  10.876   4.849   3.029 -0.5222 -0.6216 -0.2341
  193MOL0     C26556  10.884   4.806   3.164  0.8442  0.1265  0.5150
  193MOL0     C26557  10.737   4.784   3.209  0.1875 -0.2239 -0.4685
  193MOL0     C26558  10.726   4.831   3.360  0.1824  0.4111  0.1055
  193MOL0     C26559  10.696   4.977   3.360 -0.0120 -0.1860  0.5785
  193MOL0     C26560  10.816   5.069   3.356 -0.8165  0.9183 -1.2810
  193MOL0     C26561  10.915   5.141   3.349 -0.1168  0.7248 -0.1219
  193MOL0     C26562  11.109   4.834   2.981 -0.7755  0.2821 -0.3609
  193MOL0     C26563  11.231   4.881   2.932 -1.0196 -0.5792 -0.6565
  193MOL0     C26564  11.351   4.779   2.907  0.1973  0.5130 -0.8462
  193MOL0     H26565  11.481   5.034   2.595  1.7986 -1.1554 -1.3546
  193MOL0     H26566  11.653   5.109   2.459 -2.3636 -0.9114 -0.8161
  193MOL0     H26567  11.857   5.209   2.363  2.9382 -1.5133  0.7576
  193MOL0     H26568  11.912   5.249   2.530  2.0206  0.2713 -0.2919
  193MOL0     H26569  12.071   5.302   2.357  0.1256 -0.3336 -1.3132
  193MOL0     H26570  11.976   5.438   2.304  1.9045  0.7323  0.2472
  193MOL0     H26571  11.972   5.529   2.533 -1.0079 -0.2592 -1.7680
  193MOL0     H26572  12.089   5.402   2.566 -0.9227  0.2661 -1.2143
  193MOL0     H26573  12.230   5.489   2.365 -0.5439 -1.2069 -1.4042
  193MOL0     H26574  12.140   5.634   2.362  0.7243 -2.5354 -1.9423
  193MOL0     H26575  12.310   5.532   2.587 -3.0798 -2.9200 -1.6288
  193MOL0     H26576  12.184   5.666   2.616  3.4934  2.3258  3.1931
  193MOL0     H26577  12.415   5.692   2.433 -0.1090  0.2205 -1.5971
  193MOL0     H26578  12.306   5.833   2.471  1.1745  0.2656 -0.8838
  193MOL0     H26579  12.472   5.668   2.652 -1.6092 -0.1743  0.6177
  193MOL0     H26580  12.352   5.798   2.701 -1.0764  2.0137 -0.7741
  193MOL0     H26581  12.602   5.838   2.522 -1.3876 -2.1094  0.4489
  193MOL0     H26582  12.490   5.959   2.571 -1.8115 -1.9053 -2.2376
  193MOL0     H26583  12.580   6.093   2.791  3.1779  2.2579  3.0505
  193MOL0     H26584  12.848   6.068   3.051  2.1094  2.1706 -0.1265
  193MOL0     H26585  12.718   6.175   2.997 -0.4116 -0.3463  1.0929
  193MOL0     H26586  12.959   6.091   2.835 -0.2253  2.0047 -3.6522
  193MOL0     H26587  12.833   6.208   2.783 -0.9257  0.0287  0.6484
  193MOL0     H26588  13.038   6.343   2.858  0.9785 -1.3806  1.5701
  193MOL0     H26589  12.904   6.372   2.970 -1.1233 -0.9765  1.6380
  193MOL0     H26590  13.014   6.167   3.110  0.2909 -1.2075 -1.5996
  193MOL0     H26591  13.143   6.167   2.991  1.1275 -0.7524  2.8767
  193MOL0     H26592  13.285   6.485   2.972 -1.5849  0.1682  2.1759
  193MOL0     H26593  13.604   6.430   2.837  0.3595 -0.5328  1.1990
  193MOL0     H26594  13.640   6.538   2.972  0.3362  0.8089  0.4020
  193MOL0     H26595  13.495   6.561   2.874 -0.7093 -2.5514 -3.3001
  193MOL0     H26596  13.833   6.004   3.079 -0.1079 -0.6101  1.3214
  193MOL0     H26597  14.081   5.935   3.064  1.2996  0.4698 -0.5502
  193MOL0     H26598  14.363   6.190   3.286 -0.9500  0.3609 -0.9652
  193MOL0     H26599  14.441   6.044   3.342  1.0547  0.4193 -0.4434
  193MOL0     H26600  14.461   6.004   3.074  0.2923  0.1828 -1.5515
  193MOL0     H26601  14.420   6.182   3.079 -1.0260 -0.0108  0.4421
  193MOL0     H26602  14.664   6.034   3.211 -0.6163 -1.6427 -0.3712
  193MOL0     H26603  14.633   6.216   3.201 -1.3822  1.3300 -2.9123
  193MOL0     H26604  14.625   6.217   2.972 -0.9483 -1.6632 -1.8928
  193MOL0     H26605  14.643   6.042   2.956  3.5733 -2.1238  0.7233
  193MOL0     H26606  14.879   6.056   3.045  1.3567  1.6911  2.1760
  193MOL0     H26607  14.842   6.139   2.899  0.8393  1.7697  0.1563
  193MOL0     H26608  14.996   6.269   3.046 -0.2563 -1.9236  2.1639
  193MOL0     H26609  14.895   6.251   3.184  3.4953  2.6068  1.8401
  193MOL0     H26610  14.879   6.475   3.088 -0.3919 -0.6216  2.7397
  193MOL0     H26611  14.715   6.403   3.058  0.4699 -0.4408 -2.0304
  193MOL0     H26612  14.947   6.432   2.872 -0.9210  1.0278 -1.6130
  193MOL0     H26613  14.829   6.551   2.902  1.6006  0.6549  0.2286
  193MOL0     H26614  14.159   6.215   3.379  2.6800 -2.2750 -1.5272
  193MOL0     H26615  13.926   6.308   3.358  3.9847  1.3883  1.5095
  193MOL0     H26616  13.498   6.145   3.258 -0.5352 -1.1322 -0.5367
  193MOL0     H26617  13.243   6.165   3.239  0.4993 -1.2481 -2.5326
  193MOL0     H26618  11.624   5.504   2.649 -3.3034  0.9946  1.3438
  193MOL0     H26619  11.421   5.422   2.759  0.7001 -0.2555  0.5176
  193MOL0     H26620  11.114   5.199   2.861 -4.6286  0.8045 -1.5483
  193MOL0     H26621  10.900   5.089   2.923 -0.3790 -2.3836 -2.8634
  193MOL0     H26622  10.933   4.709   3.167 -3.7999 -2.5129  3.4226
  193MOL0     H26623  10.928   4.882   3.230 -0.3471  1.9843 -0.7263
  193MOL0     H26624  10.705   4.679   3.205 -0.1893 -0.0773 -2.0513
  193MOL0     H26625  10.665   4.833   3.143 -3.0592 -2.9083  0.7703
  193MOL0     H26626  10.634   4.782   3.392 -2.3484  3.5569 -1.8866
  193MOL0     H26627  10.807   4.795   3.425  0.9004  0.0799 -0.9472
  193MOL0     H26628  10.641   4.999   3.452 -0.6182 -1.4984  0.5530
  193MOL0     H26629  10.631   5.015   3.280  0.5221  3.9208  1.8780
  193MOL0     H26630  11.002   5.204   3.351  0.7200 -0.2929 -2.2942
  193MOL0     H26631  11.102   4.739   3.033 -3.4021  0.8271  0.4385
  193MOL0     H26632  11.321   4.677   2.882 -0.1196  1.0727 -2.9356
  193MOL0     H26633  11.414   4.804   2.822  2.4792 -0.0051  0.6230
  193MOL0     H26634  11.421   4.774   2.991 -0.0889 -1.4823 -0.6775
  194MOL0     O26635   7.887   7.069   7.663 -0.0675  0.2497  0.2512
  194MOL0     C26636   7.817   6.966   7.671 -0.2696  0.5306 -1.2505
  194MOL0     O26637   7.852   6.842   7.607  0.1262  1.3170  0.6170
  194MOL0     C26638   7.977   6.809   7.550  0.9670 -0.1759 -0.7274
  194MOL0     C26639   8.031   6.674   7.553 -0.4454 -0.3411 -0.2442
  194MOL0     C26640   8.163   6.656   7.499  0.0693  0.2613 -0.1199
  194MOL0     C26641   8.219   6.747   7.414 -0.1960 -0.1190 -0.4987
  194MOL0     O26642   8.328   6.716   7.355 -0.0470  0.5106 -0.1698
  194MOL0     C26643   8.443   6.670   7.424  0.0056 -0.2705  0.4653
  194MOL0     C26644   8.554   6.653   7.326  0.1371  0.4762 -0.7854
  194MOL0     C26645   8.689   6.617   7.397  0.8891  0.6095 -0.0091
  194MOL0     C26646   8.737   6.717   7.498 -0.2969  0.7055  0.2283
  194MOL0     C26647   8.875   6.691   7.560 -0.5571  0.2582  0.3858
  194MOL0     C26648   8.953   6.819   7.613 -0.4217  0.3901 -0.7746
  194MOL0     C26649   8.863   6.904   7.705 -0.4058  0.9516  0.3508
  194MOL0     C26650   8.947   6.998   7.788  0.3098 -0.0659 -0.3016
  194MOL0     N26651   9.025   7.094   7.707 -0.3574 -0.0320  0.1188
  194MOL0     C26652   8.976   7.183   7.616  0.5878 -1.2859 -0.3057
  194MOL0     C26653   9.087   7.230   7.551  0.0895  0.2059  0.5121
  194MOL0     C26654   9.089   7.345   7.450  0.1236 -0.7262 -0.2307
  194MOL0     C26655   9.183   7.461   7.477 -0.6684  0.3961  0.5602
  194MOL0     C26656   9.152   7.538   7.610 -0.2734 -0.5754 -0.8113
  194MOL0     C26657   9.268   7.633   7.654 -1.1228  0.3029 -0.1270
  194MOL0     O26658   9.283   7.753   7.562  0.3280 -1.0294 -0.1634
  194MOL0     C26659   9.403   7.818   7.560 -0.3934 -0.2762 -0.7352
  194MOL0     C26660   9.391   7.952   7.528 -0.1810  0.2814  0.5271
  194MOL0     C26661   9.503   8.036   7.525 -0.3426 -0.0859 -0.5670
  194MOL0     C26662   9.468   8.170   7.483  0.1713 -0.5948 -0.6879
  194MOL0     C26663   9.635   7.996   7.572  0.5197  0.5365  0.0774
  194MOL0     C26664   9.754   8.083   7.574  0.4240 -0.6600  0.5630
  194MOL0     O26665   9.885   8.024   7.561 -0.4417  0.7689 -0.5740
  194MOL0     C26666  10.003   8.094   7.581  0.5264 -0.2921  0.4250
  194MOL0     C26667  10.113   8.024   7.632 -0.0659  0.5629 -0.6598
  194MOL0     C26668  10.241   8.082   7.621  0.5694  0.7074  0.4482
  194MOL0     C26669  10.261   8.207   7.577 -0.6287 -0.6823 -0.2516
  194MOL0     O26670  10.378   8.278   7.586  0.5106  0.1896  0.6395
  194MOL0     C26671  10.503   8.215   7.640  0.0573 -1.2714  0.4846
  194MOL0     C26672  10.490   8.226   7.794  0.9445 -0.3005 -0.0497
  194MOL0     C26673  10.626   8.210   7.852 -0.2116  0.2756 -0.2058
  194MOL0     C26674  10.605   8.195   8.001 -0.5701  0.7476  0.6262
  194MOL0     C26675  10.744   8.201   8.068  0.0188 -0.4021 -0.6184
  194MOL0     C26676  10.795   8.337   8.109 -0.1779  0.3855  0.2899
  194MOL0     C26677  10.707   8.420   8.202  0.9274 -0.5628 -0.9560
  194MOL0     C26678  10.766   8.549   8.269 -0.3212 -0.0162 -0.0628
  194MOL0    Cl26679  10.915   8.519   8.375  0.1959  0.4515 -0.2661
  194MOL0     C26680  10.155   8.273   7.521  0.5267 -0.8239 -0.3856
  194MOL0     C26681  10.023   8.217   7.519  0.3260 -0.5201 -0.4428
  194MOL0     O26682   9.739   8.208   7.579  0.3193  0.0535 -0.9503
  194MOL0     C26683   9.640   7.859   7.599  0.8272 -0.7780  1.5471
  194MOL0     C26684   9.532   7.772   7.596 -0.5479  0.1297 -0.5213
  194MOL0     N26685   9.197   7.169   7.602 -0.2570  0.5627 -0.5446
  194MOL0     N26686   9.159   7.095   7.696  0.3429  0.4753  0.9030
  194MOL0     C26687   8.158   6.876   7.407 -0.6594  0.3950  0.2490
  194MOL0     C26688   8.044   6.904   7.474 -1.4720 -0.6234  0.1420
  194MOL0     C26689   7.687   6.980   7.735  0.5704 -1.5453 -0.1222
  194MOL0     C26690   7.612   6.870   7.783 -0.1961 -0.3570  0.6759
  194MOL0     C26691   7.489   6.882   7.851 -0.0454  1.2203 -0.2332
  194MOL0     C26692   7.443   7.003   7.888  0.6925  0.8587 -0.4641
  194MOL0     O26693   7.331   7.005   7.971  0.1635  0.0412 -0.2239
  194MOL0     C26694   7.322   6.925   8.094 -0.2918 -0.8983 -0.7864
  194MOL0     C26695   7.197   6.962   8.193 -0.4203 -0.4372  0.0621
  194MOL0     C26696   7.172   6.872   8.314 -0.8347  0.4154 -0.2625
  194MOL0     C26697   7.040   6.896   8.385  0.3546  0.4000 -0.1990
  194MOL0     C26698   6.981   6.768   8.424 -0.3018  1.1819  0.1417
  194MOL0     C26699   6.948   6.654   8.430 -0.6549  0.4536  0.4915
  194MOL0     C26700   7.507   7.115   7.842  0.5425  0.2445 -1.0355
  194MOL0     C26701   7.615   7.107   7.760 -1.1927 -0.5722  0.0299
  194MOL0     C26702   7.633   7.233   7.688 -0.3873  0.9906 -0.4727
  194MOL0     H26703   7.980   6.605   7.621 -1.2561  2.2074  1.9326
  194MOL0     H26704   8.217   6.563   7.518  1.8633  0.3974 -3.8177
  194MOL0     H26705   8.422   6.566   7.451  0.1179 -0.7547 -1.2362
  194MOL0     H26706   8.467   6.738   7.506 -0.2535 -1.5178  1.6127
  194MOL0     H26707   8.517   6.576   7.259 -0.7050 -0.2977  0.5264
  194MOL0     H26708   8.567   6.746   7.269 -1.3258  0.5730 -0.9938
  194MOL0     H26709   8.671   6.517   7.436 -0.2286  0.5745 -0.5827
  194MOL0     H26710   8.758   6.595   7.314  0.1096 -1.4898 -0.1691
  194MOL0     H26711   8.729   6.810   7.440  1.0642 -2.4048 -5.7414
  194MOL0     H26712   8.669   6.720   7.584 -1.4339  1.1013 -0.6608
  194MOL0     H26713   8.942   6.659   7.480  1.3398  0.7947  1.6928
  194MOL0     H26714   8.872   6.618   7.642  0.7826  4.0047  4.1610
  194MOL0     H26715   9.038   6.782   7.671 -0.1936  2.5460  0.3683
  194MOL0     H26716   8.983   6.889   7.534  2.5501  1.2667  0.9541
  194MOL0     H26717   8.815   6.842   7.782  0.4722  2.5076  2.2301
  194MOL0     H26718   8.784   6.957   7.651 -1.4934  1.7274  2.5772
  194MOL0     H26719   8.886   7.061   7.853  0.5348  0.6639 -0.7697
  194MOL0     H26720   9.012   6.936   7.850 -1.0140 -1.5416 -0.3544
  194MOL0     H26721   8.876   7.220   7.596  0.5900 -0.7251  0.6753
  194MOL0     H26722   8.988   7.379   7.427  0.0544 -0.8015 -0.0488
  194MOL0     H26723   9.140   7.309   7.361 -0.2661 -0.2929 -0.6353
  194MOL0     H26724   9.281   7.418   7.503 -1.8678 -2.0041  1.4272
  194MOL0     H26725   9.187   7.521   7.386 -0.8256 -1.4424 -0.7253
  194MOL0     H26726   9.060   7.597   7.603  0.1613  0.2938  0.4648
  194MOL0     H26727   9.133   7.469   7.692  0.0675  0.6962  0.3569
  194MOL0     H26728   9.259   7.660   7.760  0.4363  0.7227 -0.0765
  194MOL0     H26729   9.363   7.579   7.658 -1.6531 -0.6730 -0.5457
  194MOL0     H26730   9.290   7.992   7.515 -0.0180  0.3219 -0.8044
  194MOL0     H26731   9.484   8.241   7.565 -2.5545 -1.1675  0.4495
  194MOL0     H26732   9.365   8.168   7.445  0.2319 -1.8696 -0.8232
  194MOL0     H26733   9.535   8.201   7.402  1.3011 -1.8622 -0.2727
  194MOL0     H26734  10.097   7.917   7.638 -2.1762  0.6255 -3.2239
  194MOL0     H26735  10.318   8.018   7.663  0.2059  0.1195  0.2379
  194MOL0     H26736  10.509   8.112   7.606 -1.5452 -0.4275 -2.7295
  194MOL0     H26737  10.586   8.277   7.603 -0.3789  1.1446  3.1322
  194MOL0     H26738  10.437   8.320   7.811  0.2529 -0.3441 -1.7934
  194MOL0     H26739  10.428   8.140   7.822 -1.2776  0.7975 -1.3651
  194MOL0     H26740  10.696   8.289   7.825 -1.5379  1.2749 -0.8528
  194MOL0     H26741  10.672   8.114   7.824 -1.4904 -0.7548  1.0790
  194MOL0     H26742  10.557   8.099   8.023  1.3336 -0.5345 -0.6001
  194MOL0     H26743  10.537   8.267   8.050 -2.9990 -3.1665  3.6322
  194MOL0     H26744  10.748   8.149   8.164  0.9476 -1.9635 -1.4630
  194MOL0     H26745  10.821   8.153   8.007  1.4567  0.4493  0.4474
  194MOL0     H26746  10.811   8.396   8.018  0.7210 -0.6727 -0.2633
  194MOL0     H26747  10.890   8.323   8.161  0.7249  1.7033 -0.9276
  194MOL0     H26748  10.666   8.350   8.276  1.1293 -0.8643 -1.1280
  194MOL0     H26749  10.622   8.468   8.154 -0.0303 -0.7152  0.5066
  194MOL0     H26750  10.686   8.600   8.324 -1.2974  0.1573 -1.5898
  194MOL0     H26751  10.799   8.617   8.189 -1.1847  0.8366  0.2829
  194MOL0     H26752  10.174   8.373   7.483 -0.4880 -0.1663  0.7755
  194MOL0     H26753   9.936   8.270   7.485 -0.5078 -0.5027  1.5521
  194MOL0     H26754   9.733   7.810   7.626  1.4603 -1.8384 -1.9852
  194MOL0     H26755   9.545   7.669   7.628 -5.0983 -0.2773  0.7825
  194MOL0     H26756   8.215   6.943   7.344 -2.6871  2.2815  0.3060
  194MOL0     H26757   8.005   7.005   7.463 -1.8022 -0.6069  1.2896
  194MOL0     H26758   7.644   6.767   7.780 -0.9305 -0.6389  1.7768
  194MOL0     H26759   7.442   6.788   7.876  0.0669  1.0872 -0.5244
  194MOL0     H26760   7.325   6.817   8.077 -2.0380 -0.8106 -1.9246
  194MOL0     H26761   7.416   6.950   8.146 -0.6150  0.9783 -1.0385
  194MOL0     H26762   7.105   6.938   8.139 -1.5611 -1.7672  2.4193
  194MOL0     H26763   7.202   7.067   8.222  0.0721 -0.9675  2.0305
  194MOL0     H26764   7.166   6.770   8.274 -0.5742  0.2056  0.2316
  194MOL0     H26765   7.253   6.873   8.387 -0.7199  0.6512 -0.3920
  194MOL0     H26766   6.978   6.946   8.310  2.8298 -0.0642 -2.6956
  194MOL0     H26767   7.047   6.950   8.480  0.4583 -1.5851  0.9929
  194MOL0     H26768   6.905   6.558   8.455  0.0538  0.1976  0.7495
  194MOL0     H26769   7.455   7.206   7.871  3.0945  1.4914 -0.0442
  194MOL0     H26770   7.732   7.249   7.645  1.2082  0.5244  2.7710
  194MOL0     H26771   7.556   7.243   7.611 -1.0810  2.4789  0.3763
  194MOL0     H26772   7.615   7.306   7.767 -1.9126 -1.5915  1.7290
  195MOL0     O26773   5.469   0.378   9.520  0.2769  0.9902  0.6610
  195MOL0     C26774   5.547   0.471   9.546 -0.5510 -0.4647  0.6658
  195MOL0     O26775   5.658   0.499   9.472  0.0808  0.1661 -0.1736
  195MOL0     C26776   5.688   0.416   9.369  0.4104  1.0157  0.0376
  195MOL0     C26777   5.815   0.346   9.381  0.8949  0.4898  0.8105
  195MOL0     C26778   5.869   0.294   9.268 -0.3249  0.0789  0.5775
  195MOL0     C26779   5.804   0.289   9.144  0.1652  0.2151 -0.2870
  195MOL0     O26780   5.868   0.215   9.051  0.0745 -0.6663 -0.0855
  195MOL0     C26781   5.872   0.284   8.924 -0.1086 -0.3119 -0.5401
  195MOL0     C26782   5.784   0.221   8.820 -0.4569  0.5863 -0.4108
  195MOL0     C26783   5.786   0.264   8.672  0.3486  0.4444 -0.0393
  195MOL0     C26784   5.667   0.211   8.587 -0.3846 -0.0279  0.2171
  195MOL0     C26785   5.706   0.240   8.442 -1.2053  0.2492  0.4020
  195MOL0     C26786   5.783   0.118   8.382 -0.8168 -0.4319  0.2916
  195MOL0     C26787   5.823   0.150   8.238  0.1575  0.5751  0.1926
  195MOL0     C26788   5.866   0.019   8.179 -0.4602 -0.3035 -0.1164
  195MOL0     N26789   5.874   0.028   8.032 -0.2709  0.0940 -0.3499
  195MOL0     C26790   5.992   0.046   7.967  0.0318 -1.7017 -0.0943
  195MOL0     C26791   5.956   0.079   7.842 -0.2303  0.5638  0.5415
  195MOL0     C26792   6.054   0.110   7.735  0.5566  0.2731  0.0762
  195MOL0     C26793   6.104  -0.028   7.685  0.4706 -0.3557  0.9120
  195MOL0     C26794   6.225  -0.005   7.589 -0.5598  0.0364 -0.1632
  195MOL0     C26795   6.201   0.026   7.445 -0.6812 -0.1379  0.0581
  195MOL0     O26796   6.165  -0.102   7.370 -0.6981 -0.8518 -0.6547
  195MOL0     C26797   6.253  -0.145   7.278  0.3194 -0.4685  0.9072
  195MOL0     C26798   6.388  -0.096   7.273 -0.2886 -0.4070  0.0135
  195MOL0     C26799   6.469  -0.142   7.175 -0.2024 -0.0590  0.0716
  195MOL0     C26800   6.619  -0.107   7.184  0.8771 -0.1988  0.9661
  195MOL0     C26801   6.420  -0.225   7.073 -0.2349 -0.1986 -0.5641
  195MOL0     C26802   6.514  -0.265   6.968 -0.4810  0.4532 -0.1629
  195MOL0     O26803   6.559  -0.153   6.894 -0.1284 -0.0126 -0.2836
  195MOL0     C26804   6.649  -0.176   6.802  0.1050  0.3236 -0.5645
  195MOL0     C26805   6.617  -0.227   6.673 -0.4792 -0.0006  0.3318
  195MOL0     C26806   6.716  -0.246   6.580  0.3722 -0.0979  0.5575
  195MOL0     C26807   6.847  -0.207   6.594  0.9385 -0.3214  0.0467
  195MOL0     O26808   6.940  -0.212   6.493 -1.2935 -0.1315 -0.3699
  195MOL0     C26809   7.079  -0.163   6.515 -0.0315 -0.5506 -0.6610
  195MOL0     C26810   7.161  -0.151   6.395  0.2650 -0.6819  0.0452
  195MOL0     C26811   7.119  -0.055   6.280  0.1899  0.4437 -0.0756
  195MOL0     C26812   7.217  -0.049   6.162  0.6477 -0.3014  0.9353
  195MOL0     C26813   7.139   0.018   6.040  0.0691  0.2718  0.3168
  195MOL0     C26814   7.242   0.054   5.936  0.0478  1.4221  1.2831
  195MOL0     C26815   7.291  -0.076   5.856 -0.5943  0.5317 -0.1459
  195MOL0     C26816   7.438  -0.062   5.808 -0.9846  0.8409 -0.3626
  195MOL0    Cl26817   7.551  -0.049   5.949  0.1091 -0.0865 -0.0125
  195MOL0     C26818   6.883  -0.166   6.729  0.9233 -0.2174  0.8216
  195MOL0     C26819   6.788  -0.155   6.825 -0.0070 -0.8582 -0.0145
  195MOL0     O26820   6.544  -0.390   6.948 -0.1415 -0.1298  0.1254
  195MOL0     C26821   6.282  -0.271   7.072 -0.4347 -0.8267 -0.2926
  195MOL0     C26822   6.203  -0.231   7.177  0.4937 -0.0602  0.0925
  195MOL0     N26823   5.818   0.072   7.833 -0.2291 -0.6789  0.6067
  195MOL0     N26824   5.772   0.046   7.951  0.1629 -0.6009 -0.7595
  195MOL0     C26825   5.678   0.347   9.133 -0.6234  0.3009  0.2834
  195MOL0     C26826   5.628   0.416   9.246  0.8391 -1.1169 -0.2878
  195MOL0     C26827   5.533   0.558   9.671  0.7478 -0.4285  0.5139
  195MOL0     C26828   5.640   0.634   9.720 -1.0090  0.3379  0.1939
  195MOL0     C26829   5.627   0.698   9.840 -0.0435  0.1323  0.2782
  195MOL0     C26830   5.506   0.720   9.909 -0.0109  0.5276  0.2110
  195MOL0     O26831   5.501   0.790  10.022 -0.5242 -0.2107 -0.7242
  195MOL0     C26832   5.393   0.842  10.101 -0.1257 -0.7031  0.1655
  195MOL0     C26833   5.296   0.933  10.030  0.0842 -0.2469  1.0178
  195MOL0     C26834   5.381   1.058   9.981  0.1459 -0.6522  0.8764
  195MOL0     C26835   5.301   1.141   9.885  0.3964  0.3286 -0.0859
  195MOL0     C26836   5.181   1.194   9.953 -0.8468  0.0222  0.1046
  195MOL0     C26837   5.079   1.231  10.006  0.6536 -0.2797  0.5876
  195MOL0     C26838   5.395   0.649   9.854  0.0577  0.5382 -2.0047
  195MOL0     C26839   5.411   0.561   9.749  0.8439  0.6813  0.1338
  195MOL0     C26840   5.284   0.475   9.714  0.1580 -0.2173  0.4483
  195MOL0     H26841   5.871   0.351   9.474  0.5362 -0.6874  1.1042
  195MOL0     H26842   5.966   0.245   9.274 -2.0164 -3.7300  0.2026
  195MOL0     H26843   5.973   0.271   8.884 -0.0099  1.2465 -0.8608
  195MOL0     H26844   5.856   0.392   8.925 -0.0590 -0.3020 -0.7171
  195MOL0     H26845   5.806   0.114   8.830 -1.5385  0.4619  0.8134
  195MOL0     H26846   5.682   0.239   8.855 -1.3953 -0.3744 -2.4788
  195MOL0     H26847   5.777   0.373   8.671  1.6517  0.6237  1.8159
  195MOL0     H26848   5.881   0.238   8.625  0.3840 -0.3747  0.4537
  195MOL0     H26849   5.637   0.108   8.609 -0.7500 -0.1154 -0.6699
  195MOL0     H26850   5.581   0.275   8.606 -2.5567 -2.7555  0.1431
  195MOL0     H26851   5.768   0.329   8.431 -1.2066  0.1327 -0.7291
  195MOL0     H26852   5.614   0.246   8.383 -0.0272 -0.3184 -1.5814
  195MOL0     H26853   5.872   0.106   8.444  0.3283  2.3312 -0.6190
  195MOL0     H26854   5.734   0.020   8.383 -0.3229 -0.7171  2.9739
  195MOL0     H26855   5.903   0.224   8.233 -0.3914  1.2051  0.5161
  195MOL0     H26856   5.734   0.186   8.186 -0.2058 -1.8561 -1.0337
  195MOL0     H26857   5.955  -0.007   8.237  1.0880  4.1396 -0.1163
  195MOL0     H26858   5.781  -0.051   8.179  1.0616 -2.3007 -1.6550
  195MOL0     H26859   6.092   0.034   8.005 -0.1311 -1.9027  0.2720
  195MOL0     H26860   6.132   0.177   7.771  0.0324  0.7539  0.3374
  195MOL0     H26861   6.017   0.165   7.648  2.2253  0.0748 -0.7973
  195MOL0     H26862   6.140  -0.085   7.771  1.5387 -3.2022 -1.2618
  195MOL0     H26863   6.024  -0.087   7.640 -0.0451  0.6983  0.4043
  195MOL0     H26864   6.290   0.068   7.637  1.9473 -1.9369 -0.3699
  195MOL0     H26865   6.273  -0.103   7.598  2.2392  1.1526 -1.7665
  195MOL0     H26866   6.112   0.090   7.441 -0.8417 -0.4019 -0.7515
  195MOL0     H26867   6.284   0.088   7.411 -0.1921 -0.0271  1.4120
  195MOL0     H26868   6.429  -0.014   7.330 -1.6191  0.4833 -0.2633
  195MOL0     H26869   6.636  -0.085   7.290  1.9707  1.8306  0.4216
  195MOL0     H26870   6.637  -0.013   7.131 -1.5630 -1.0241 -1.5567
  195MOL0     H26871   6.687  -0.186   7.153 -0.6060 -0.9896 -0.4110
  195MOL0     H26872   6.522  -0.270   6.642  0.8098 -2.2243 -0.7723
  195MOL0     H26873   6.708  -0.288   6.480 -1.1682 -2.0084  1.4310
  195MOL0     H26874   7.077  -0.067   6.567  0.1622 -1.8793  1.9154
  195MOL0     H26875   7.134  -0.227   6.584  0.6570  2.3420  1.7051
  195MOL0     H26876   7.263  -0.126   6.426 -0.0653  1.3924 -0.3876
  195MOL0     H26877   7.183  -0.247   6.348  1.2697  0.2669 -1.5080
  195MOL0     H26878   7.118   0.049   6.315  0.9356  0.9777 -1.5840
  195MOL0     H26879   7.021  -0.091   6.247 -0.2462 -0.1514  1.7256
  195MOL0     H26880   7.245  -0.153   6.144 -2.2087 -1.2491  1.4879
  195MOL0     H26881   7.312   0.004   6.178  2.1331 -1.6478 -2.3770
  195MOL0     H26882   7.055  -0.046   6.013  1.0906 -0.3949 -1.5344
  195MOL0     H26883   7.089   0.109   6.072  0.3154  1.1636 -1.6780
  195MOL0     H26884   7.322   0.117   5.975  0.1713  3.2844 -1.6382
  195MOL0     H26885   7.181   0.108   5.862  1.6087  1.0383 -0.3650
  195MOL0     H26886   7.225  -0.108   5.775 -0.0830 -2.8419  0.6058
  195MOL0     H26887   7.316  -0.163   5.917  1.2408  0.5082 -0.8602
  195MOL0     H26888   7.471   0.026   5.753  1.6761  0.0263 -0.2340
  195MOL0     H26889   7.465  -0.151   5.751  1.9701  1.5792 -0.2704
  195MOL0     H26890   6.988  -0.163   6.756  0.6058  0.6342  2.0182
  195MOL0     H26891   6.828  -0.125   6.921 -0.0637 -3.8825  1.0493
  195MOL0     H26892   6.240  -0.333   6.993 -0.9248  1.8637 -2.2583
  195MOL0     H26893   6.110  -0.280   7.205  0.7217  1.9522  5.7827
  195MOL0     H26894   5.623   0.328   9.041  0.4244 -1.4679 -0.0269
  195MOL0     H26895   5.528   0.456   9.261 -0.2395 -4.3202  2.4936
  195MOL0     H26896   5.742   0.629   9.683  0.5214 -0.2360  4.0005
  195MOL0     H26897   5.710   0.742   9.895 -2.1410  2.9322  1.4520
  195MOL0     H26898   5.335   0.756  10.136 -1.9622  0.6896  0.7356
  195MOL0     H26899   5.427   0.886  10.195 -1.7782 -1.0110  0.9527
  195MOL0     H26900   5.211   0.951  10.096 -0.3789 -1.9725  0.9378
  195MOL0     H26901   5.259   0.870   9.948  1.5791 -0.5825  0.5615
  195MOL0     H26902   5.418   1.123  10.060 -0.5447 -0.4434  1.0307
  195MOL0     H26903   5.464   1.023   9.918 -0.6358  0.8427 -1.0956
  195MOL0     H26904   5.271   1.080   9.799 -2.7583  1.5391  0.0357
  195MOL0     H26905   5.363   1.219   9.839  0.9777 -1.1384 -1.9272
  195MOL0     H26906   4.993   1.265  10.061  1.7145 -0.5325  2.4851
  195MOL0     H26907   5.294   0.661   9.893  0.7952 -2.5059  1.3915
  195MOL0     H26908   5.215   0.513   9.637  0.7847 -2.2813 -1.2004
  195MOL0     H26909   5.319   0.374   9.694  0.0863  0.2118 -2.2716
  195MOL0     H26910   5.232   0.472   9.810  0.2737  0.3883  0.5327
  196MOL0     O26911   2.119   6.453   5.338  0.1722  0.9213  0.3531
  196MOL0     C26912   2.218   6.395   5.382 -0.2339  0.1161 -0.3581
  196MOL0     O26913   2.352   6.409   5.328  0.0720  0.2082  0.1467
  196MOL0     C26914   2.425   6.290   5.348 -0.2386 -0.3751 -0.5086
  196MOL0     C26915   2.413   6.176   5.262  0.0500  0.0072 -0.0275
  196MOL0     C26916   2.484   6.057   5.290  0.3160  0.6832  0.0418
  196MOL0     C26917   2.561   6.038   5.401  0.3341  0.4516 -0.0535
  196MOL0     O26918   2.624   5.919   5.418 -0.5324  0.8315  0.4016
  196MOL0     C26919   2.762   5.918   5.456 -0.7136  0.2071  0.1537
  196MOL0     C26920   2.858   5.987   5.356 -0.6112 -1.0381 -0.6685
  196MOL0     C26921   3.014   5.969   5.373  0.1892 -0.4710 -0.2534
  196MOL0     C26922   3.052   5.992   5.518 -0.3288 -0.1196 -0.1601
  196MOL0     C26923   3.207   5.987   5.526 -0.1088 -0.0484 -0.0035
  196MOL0     C26924   3.255   6.042   5.657  0.0354 -0.2625  0.4067
  196MOL0     C26925   3.230   5.944   5.773 -0.5351 -0.2420 -0.0720
  196MOL0     C26926   3.301   5.808   5.743  0.2074 -0.7654  0.0506
  196MOL0     N26927   3.357   5.737   5.864 -0.6863 -0.2221  0.2344
  196MOL0     C26928   3.453   5.785   5.941 -0.3060 -0.0785  0.1887
  196MOL0     C26929   3.483   5.685   6.023 -0.5717 -1.0688 -0.5822
  196MOL0     C26930   3.599   5.687   6.124 -0.0900  0.2404 -0.0102
  196MOL0     C26931   3.526   5.686   6.263  0.3095  0.0156 -0.7395
  196MOL0     C26932   3.611   5.627   6.378  0.5889 -0.3529  0.7378
  196MOL0     C26933   3.720   5.715   6.423 -0.8366  0.5532 -0.1662
  196MOL0     O26934   3.785   5.648   6.539  0.3847 -0.5787 -0.3368
  196MOL0     C26935   3.913   5.700   6.572  0.5235 -0.2945 -0.0049
  196MOL0     C26936   3.947   5.689   6.709 -0.3255 -0.3650  0.0914
  196MOL0     C26937   4.069   5.717   6.749  0.8715 -1.0866 -0.5736
  196MOL0     C26938   4.083   5.722   6.893  0.5991  0.6550 -0.2140
  196MOL0     C26939   4.179   5.759   6.662  0.4298  0.1422  0.0286
  196MOL0     C26940   4.321   5.794   6.691 -0.2016  0.5361  0.2844
  196MOL0     O26941   4.414   5.807   6.596 -0.6394 -0.5104 -0.8293
  196MOL0     C26942   4.478   5.927   6.577  0.1764 -0.1534 -0.0267
  196MOL0     C26943   4.549   5.927   6.465  0.0578 -0.6182  0.2549
  196MOL0     C26944   4.648   6.017   6.436 -0.8409 -0.0752  0.7099
  196MOL0     C26945   4.669   6.132   6.510  0.2019 -0.4481  1.2426
  196MOL0     O26946   4.757   6.229   6.476 -0.2704 -0.0223 -0.1515
  196MOL0     C26947   4.846   6.213   6.359 -0.3465  0.4370 -0.1327
  196MOL0     C26948   4.945   6.329   6.343  0.0928 -0.4676  0.4757
  196MOL0     C26949   4.890   6.461   6.289  0.3329  0.4027 -0.2406
  196MOL0     C26950   4.992   6.547   6.210 -0.3004  0.1983  0.5160
  196MOL0     C26951   4.950   6.686   6.156 -0.2068 -0.0201 -0.0659
  196MOL0     C26952   4.845   6.675   6.047  0.8610  0.3002 -0.2310
  196MOL0     C26953   4.792   6.807   5.991  0.4434  0.2419 -0.8296
  196MOL0     C26954   4.678   6.775   5.896 -1.0109 -0.6953 -0.0743
  196MOL0    Cl26955   4.741   6.675   5.758  0.1369  0.0936 -0.0528
  196MOL0     C26956   4.596   6.129   6.634 -0.2833 -1.1180 -0.3889
  196MOL0     C26957   4.492   6.035   6.666 -1.3676  0.0242  0.8701
  196MOL0     O26958   4.355   5.803   6.808 -0.3887  0.2455 -0.7227
  196MOL0     C26959   4.141   5.765   6.527  0.5605 -0.4884  0.2627
  196MOL0     C26960   4.017   5.732   6.481  0.0073  0.6214  0.2020
  196MOL0     N26961   3.402   5.574   5.994 -0.4306 -0.1372 -0.9344
  196MOL0     N26962   3.320   5.610   5.905 -0.4802 -0.0118 -0.4848
  196MOL0     C26963   2.571   6.146   5.489  0.6994  0.2543  0.4517
  196MOL0     C26964   2.496   6.269   5.458 -0.3905  0.0061  0.0712
  196MOL0     C26965   2.166   6.274   5.465  0.4880  0.9104  0.1535
  196MOL0     C26966   2.189   6.284   5.594 -0.3367 -0.2698  0.2573
  196MOL0     C26967   2.137   6.201   5.682  1.1669 -0.2217 -0.0383
  196MOL0     C26968   2.039   6.113   5.648 -0.2409  0.0884 -0.2805
  196MOL0     O26969   1.970   6.050   5.750 -1.2391 -0.2641 -0.3268
  196MOL0     C26970   1.833   6.033   5.728  0.3465  0.3555  0.2589
  196MOL0     C26971   1.752   5.994   5.858  0.4966  0.6443  0.8028
  196MOL0     C26972   1.781   6.085   5.968 -0.6019  0.4115 -0.5676
  196MOL0     C26973   1.761   6.230   5.922  0.1067 -0.5278 -0.7523
  196MOL0     C26974   1.717   6.305   6.043  0.3934 -0.2609 -0.0263
  196MOL0     C26975   1.707   6.395   6.121 -0.4509 -1.4952  0.2134
  196MOL0     C26976   2.015   6.097   5.511 -0.8038  0.0307 -0.5475
  196MOL0     C26977   2.075   6.173   5.414 -1.2400 -0.5138  0.4348
  196MOL0     C26978   2.023   6.149   5.271 -0.5291 -1.0207  0.1168
  196MOL0     H26979   2.359   6.176   5.167  0.7912  3.4870 -0.5903
  196MOL0     H26980   2.485   5.975   5.219  4.0458  1.2425 -0.7669
  196MOL0     H26981   2.804   5.818   5.464  2.3859  0.9175 -4.2093
  196MOL0     H26982   2.782   5.963   5.554 -1.1375  1.3286 -0.2547
  196MOL0     H26983   2.832   5.945   5.259 -0.3188 -3.8477  0.3863
  196MOL0     H26984   2.848   6.096   5.363  0.9043 -0.9073 -0.0063
  196MOL0     H26985   3.039   5.864   5.352  0.5150 -0.0710 -1.9755
  196MOL0     H26986   3.067   6.035   5.304 -2.2765  1.2331 -0.6176
  196MOL0     H26987   3.017   6.088   5.555 -0.0501 -0.0256 -0.1331
  196MOL0     H26988   3.003   5.915   5.578 -0.9213 -2.3672 -3.2242
  196MOL0     H26989   3.246   6.046   5.443  4.2002 -0.4492  1.4959
  196MOL0     H26990   3.232   5.882   5.506  1.5040  1.0119 -5.3188
  196MOL0     H26991   3.360   6.072   5.644  0.0702 -0.1726  0.8933
  196MOL0     H26992   3.194   6.131   5.677 -0.4236 -0.3177 -0.6689
  196MOL0     H26993   3.123   5.928   5.789 -0.2742 -0.9106  1.1244
  196MOL0     H26994   3.270   5.978   5.869  0.8141 -1.6853 -0.0763
  196MOL0     H26995   3.230   5.736   5.702  0.5743 -0.9594 -0.2468
  196MOL0     H26996   3.380   5.835   5.672 -0.8160  1.1228 -0.4296
  196MOL0     H26997   3.507   5.878   5.930  2.0735 -0.9521  2.9543
  196MOL0     H26998   3.675   5.762   6.102 -1.0295  1.0373 -0.6463
  196MOL0     H26999   3.644   5.588   6.112 -0.8263 -0.4120  2.2719
  196MOL0     H27000   3.487   5.781   6.301 -0.3547 -1.1326  1.6250
  196MOL0     H27001   3.439   5.621   6.261  3.0935 -4.4163  2.9834
  196MOL0     H27002   3.543   5.602   6.460  1.6146 -1.4175  1.3017
  196MOL0     H27003   3.653   5.534   6.339 -1.2673 -0.5179 -1.0172
  196MOL0     H27004   3.796   5.749   6.351 -1.0054  1.3854  0.0375
  196MOL0     H27005   3.686   5.816   6.450  1.8513  1.1702  1.1908
  196MOL0     H27006   3.868   5.670   6.781 -1.1621 -0.2502 -0.7740
  196MOL0     H27007   4.109   5.824   6.922  1.1463 -0.7046  5.2410
  196MOL0     H27008   4.165   5.654   6.919  0.9848 -0.0986 -3.0645
  196MOL0     H27009   3.998   5.684   6.950  1.4280 -0.5265  0.2777
  196MOL0     H27010   4.533   5.846   6.394 -0.7612  0.7812 -1.2269
  196MOL0     H27011   4.694   6.016   6.338 -1.5789  0.1199  0.3601
  196MOL0     H27012   4.908   6.123   6.366 -2.1386 -0.8605 -0.3682
  196MOL0     H27013   4.783   6.222   6.270 -0.4459 -2.6730 -0.5103
  196MOL0     H27014   5.001   6.335   6.437  3.8898 -1.3461 -1.4822
  196MOL0     H27015   5.020   6.297   6.270  0.9378  0.1399  1.0533
  196MOL0     H27016   4.871   6.533   6.369  3.0427  1.7168 -0.6560
  196MOL0     H27017   4.806   6.437   6.223  1.7961 -0.8570 -1.7320
  196MOL0     H27018   5.037   6.489   6.128  1.7874 -0.1417  1.8213
  196MOL0     H27019   5.076   6.570   6.276  1.2859  0.2273 -1.4322
  196MOL0     H27020   4.898   6.745   6.232 -0.2136 -0.0203 -0.0705
  196MOL0     H27021   5.043   6.735   6.124  2.5143 -3.3436  2.0688
  196MOL0     H27022   4.754   6.637   6.094 -0.0668  2.3515 -0.2553
  196MOL0     H27023   4.868   6.596   5.975  1.3919  0.0812  0.1737
  196MOL0     H27024   4.865   6.863   5.932 -0.0395  1.4595 -0.3112
  196MOL0     H27025   4.759   6.872   6.073  4.8384  0.2969  1.1928
  196MOL0     H27026   4.650   6.873   5.857  1.3764 -0.7998 -2.3500
  196MOL0     H27027   4.595   6.723   5.944 -1.2405 -2.5831 -2.3038
  196MOL0     H27028   4.607   6.208   6.708 -1.4048 -0.3265 -1.0310
  196MOL0     H27029   4.435   6.060   6.755 -1.4875  2.9151  0.0852
  196MOL0     H27030   4.219   5.785   6.454 -0.2759  2.4469  0.0480
  196MOL0     H27031   4.001   5.725   6.374 -3.1655 -0.4472  0.6383
  196MOL0     H27032   2.612   6.134   5.589  0.0300 -0.8515  0.6061
  196MOL0     H27033   2.491   6.348   5.532  1.4182  2.7174 -2.4639
  196MOL0     H27034   2.256   6.358   5.637 -0.9882 -0.5724  1.8833
  196MOL0     H27035   2.173   6.209   5.785 -0.1150 -0.9818  0.4899
  196MOL0     H27036   1.788   6.121   5.682  0.8485  1.1025  1.1691
  196MOL0     H27037   1.816   5.952   5.656  2.6322  0.6329 -0.6923
  196MOL0     H27038   1.785   5.895   5.890  3.0052  0.6245 -1.4533
  196MOL0     H27039   1.644   5.989   5.840  0.7974 -0.1310 -1.0698
  196MOL0     H27040   1.730   6.053   6.059  1.9398 -0.5864  0.5780
  196MOL0     H27041   1.884   6.067   5.999 -1.0280 -3.6098 -0.9062
  196MOL0     H27042   1.678   6.249   5.854 -1.8089 -0.7908  1.3840
  196MOL0     H27043   1.848   6.271   5.870  0.0751  1.5708  0.7176
  196MOL0     H27044   1.694   6.464   6.201  0.6982 -2.2138  1.0566
  196MOL0     H27045   1.948   6.018   5.477 -1.6956 -0.5125  2.1787
  196MOL0     H27046   1.955   6.225   5.233  0.7476 -0.3518 -0.8981
  196MOL0     H27047   2.108   6.153   5.202 -0.7074  1.4859 -0.0309
  196MOL0     H27048   1.983   6.047   5.260 -1.5307 -0.7647  1.1783
  197MOL0     O27049   8.031   7.634   2.775 -0.0653 -0.2498 -0.4207
  197MOL0     C27050   8.052   7.685   2.669 -0.1967  0.0507  0.4188
  197MOL0     O27051   8.039   7.622   2.545  0.2205 -0.5312  0.3861
  197MOL0     C27052   8.016   7.487   2.541  0.4347  0.6192 -0.7846
  197MOL0     C27053   8.080   7.410   2.448 -0.6427 -0.4220 -0.1126
  197MOL0     C27054   8.082   7.277   2.440 -0.2716 -0.8884 -0.1616
  197MOL0     C27055   8.006   7.203   2.528  0.4375  0.7808  0.3168
  197MOL0     O27056   8.008   7.069   2.513 -0.0141 -0.1142 -0.5643
  197MOL0     C27057   7.934   6.998   2.616  0.7438 -0.1145 -0.0821
  197MOL0     C27058   7.945   6.848   2.598 -0.4065  0.0129 -1.0033
  197MOL0     C27059   8.082   6.791   2.631 -0.2653 -0.0093 -0.0973
  197MOL0     C27060   8.087   6.643   2.632 -0.6290  0.7559 -1.1065
  197MOL0     C27061   8.136   6.582   2.493 -0.7487  0.2704 -0.5639
  197MOL0     C27062   8.094   6.450   2.465  0.8061 -0.9628  0.0736
  197MOL0     C27063   8.167   6.408   2.333 -0.4984 -0.1367 -0.0355
  197MOL0     C27064   8.163   6.266   2.287 -0.2085 -0.0721  0.6593
  197MOL0     N27065   8.230   6.246   2.155 -0.9746 -0.5051 -0.2634
  197MOL0     C27066   8.336   6.329   2.095  0.1375 -1.1942  0.2059
  197MOL0     C27067   8.370   6.255   1.987  0.0934 -0.4595  1.5663
  197MOL0     C27068   8.469   6.310   1.887 -0.0309  0.3907 -0.5082
  197MOL0     C27069   8.612   6.304   1.946  0.3334  0.0173  0.6054
  197MOL0     C27070   8.670   6.162   1.938 -0.5509  0.6014  0.0450
  197MOL0     C27071   8.772   6.122   2.050 -0.3868 -0.0062  0.2459
  197MOL0     O27072   8.899   6.188   2.018  0.0004 -0.5994 -1.1390
  197MOL0     C27073   9.017   6.126   2.074  0.4474 -0.5059  0.2049
  197MOL0     C27074   9.138   6.161   2.029 -0.4020  0.1287  1.3775
  197MOL0     C27075   9.262   6.114   2.080 -0.4656 -1.0573  0.0618
  197MOL0     C27076   9.382   6.201   2.040 -0.1711  0.7367 -0.0216
  197MOL0     C27077   9.256   6.022   2.185  0.1584 -0.3999 -1.0663
  197MOL0     C27078   9.375   5.968   2.254  0.2970 -1.2111  0.2676
  197MOL0     O27079   9.351   5.917   2.382 -0.1139 -0.9047  0.4206
  197MOL0     C27080   9.418   5.810   2.436 -0.6842 -0.5243  0.0441
  197MOL0     C27081   9.552   5.815   2.469 -0.2494  0.4634  1.2045
  197MOL0     C27082   9.609   5.701   2.534  0.5090  0.4760 -0.0727
  197MOL0     C27083   9.537   5.584   2.570 -0.5459 -0.4203 -0.6523
  197MOL0     O27084   9.586   5.486   2.649  0.4712  0.0990  0.1107
  197MOL0     C27085   9.511   5.367   2.689 -0.1490  0.3744 -1.3050
  197MOL0     C27086   9.605   5.289   2.783  1.3820 -0.2374 -0.8544
  197MOL0     C27087   9.547   5.158   2.842  0.8916 -0.7564  0.1181
  197MOL0     C27088   9.632   5.081   2.936  0.3483 -0.2711 -0.3604
  197MOL0     C27089   9.565   4.947   2.987 -0.8423 -0.3149  0.1182
  197MOL0     C27090   9.675   4.880   3.077 -0.1176  0.7948  0.9998
  197MOL0     C27091   9.595   4.776   3.159 -0.7403 -0.0300  0.2965
  197MOL0     C27092   9.521   4.665   3.073  0.1444 -0.1006 -0.7266
  197MOL0    Cl27093   9.547   4.504   3.153 -0.5927 -0.4717 -0.1150
  197MOL0     C27094   9.403   5.584   2.524 -0.1105  0.2532 -0.8913
  197MOL0     C27095   9.343   5.694   2.462  0.4622  0.0832 -0.3703
  197MOL0     O27096   9.485   5.974   2.204  0.0996 -0.2882  0.1659
  197MOL0     C27097   9.127   5.979   2.234 -0.6235  0.4056 -0.2565
  197MOL0     C27098   9.007   6.031   2.174 -0.9534  1.0803 -0.4130
  197MOL0     N27099   8.285   6.144   1.968  0.5230 -0.4970  0.3546
  197MOL0     N27100   8.191   6.148   2.065 -0.6237 -0.6597 -0.0335
  197MOL0     C27101   7.923   7.278   2.618  0.5432  0.1011  0.0393
  197MOL0     C27102   7.930   7.421   2.629 -0.0260  0.9086  0.2453
  197MOL0     C27103   8.070   7.825   2.657  0.2592  0.1748  0.5207
  197MOL0     C27104   8.081   7.881   2.527  0.2113  0.1920  0.1395
  197MOL0     C27105   8.094   8.011   2.504 -0.6855 -1.5237 -0.1804
  197MOL0     C27106   8.127   8.105   2.606  0.0020  0.5136 -0.1760
  197MOL0     O27107   8.140   8.237   2.580  0.5396 -0.5339 -0.0349
  197MOL0     C27108   8.075   8.329   2.665  0.1973  0.1489 -0.1355
  197MOL0     C27109   8.155   8.395   2.770  0.2760 -0.2229  0.4707
  197MOL0     C27110   8.093   8.530   2.829  0.5457  0.0623 -0.8683
  197MOL0     C27111   8.199   8.593   2.912  0.2185 -0.0093 -1.0929
  197MOL0     C27112   8.256   8.519   3.033  0.8306 -0.4944  0.6889
  197MOL0     C27113   8.311   8.476   3.136  0.7407 -0.5025 -0.7091
  197MOL0     C27114   8.133   8.045   2.736 -0.0447  0.8863  0.4743
  197MOL0     C27115   8.081   7.918   2.767 -0.6918 -0.5678 -0.0037
  197MOL0     C27116   8.045   7.885   2.903  0.4851  0.8679 -0.2281
  197MOL0     H27117   8.143   7.464   2.379 -0.8034 -0.5910 -0.3902
  197MOL0     H27118   8.130   7.225   2.358 -2.0126 -1.4321 -0.8915
  197MOL0     H27119   7.828   7.022   2.607  0.7265  0.6935  1.9122
  197MOL0     H27120   7.957   7.029   2.718 -0.2964 -1.1389  0.4823
  197MOL0     H27121   7.877   6.800   2.670  2.5374 -0.6102  1.5699
  197MOL0     H27122   7.918   6.811   2.498  2.0691  0.1785 -1.7970
  197MOL0     H27123   8.158   6.816   2.557 -1.5098  1.9767 -0.7806
  197MOL0     H27124   8.125   6.828   2.725  1.9700 -0.6634 -0.8038
  197MOL0     H27125   8.160   6.610   2.705 -0.5477  0.6682 -1.2271
  197MOL0     H27126   7.986   6.607   2.655 -0.3335 -0.4939 -1.6482
  197MOL0     H27127   8.245   6.580   2.503 -0.6279 -0.3494 -1.9003
  197MOL0     H27128   8.115   6.656   2.415  1.8517  0.0018 -1.6257
  197MOL0     H27129   8.125   6.381   2.543  1.2647  0.2085  0.9483
  197MOL0     H27130   7.985   6.445   2.452  0.6258 -0.0664  1.1450
  197MOL0     H27131   8.271   6.439   2.348  0.1183 -2.3170  0.5953
  197MOL0     H27132   8.122   6.479   2.263 -1.8240  1.8918  2.6563
  197MOL0     H27133   8.215   6.210   2.365  1.0764  1.1182  0.6861
  197MOL0     H27134   8.059   6.233   2.296 -0.2916  0.5747  2.4867
  197MOL0     H27135   8.375   6.425   2.130  0.6493 -0.8697 -1.1940
  197MOL0     H27136   8.446   6.414   1.865 -2.7984 -0.0005  0.1536
  197MOL0     H27137   8.458   6.260   1.790 -2.9368  0.7567 -0.4328
  197MOL0     H27138   8.680   6.368   1.890  2.4842 -1.8727  0.8974
  197MOL0     H27139   8.600   6.332   2.051  0.5101 -3.9412  1.8837
  197MOL0     H27140   8.596   6.082   1.948 -1.4688  1.6579  2.5371
  197MOL0     H27141   8.722   6.160   1.842 -2.2844  3.0203 -1.0511
  197MOL0     H27142   8.730   6.150   2.147  0.1968  1.8958 -0.0066
  197MOL0     H27143   8.798   6.016   2.046  2.6201  0.6058  1.3052
  197MOL0     H27144   9.131   6.226   1.943 -3.8340 -1.4258  0.3140
  197MOL0     H27145   9.467   6.134   2.020 -0.5420  0.3065 -0.1687
  197MOL0     H27146   9.405   6.283   2.108  0.5968  2.0856 -1.8015
  197MOL0     H27147   9.372   6.238   1.937  0.8149 -1.9588 -1.2010
  197MOL0     H27148   9.607   5.907   2.448 -1.8503  1.1546 -0.1892
  197MOL0     H27149   9.711   5.695   2.569  0.8347 -2.6783 -1.2426
  197MOL0     H27150   9.420   5.396   2.743 -0.3047  1.0265 -1.8947
  197MOL0     H27151   9.500   5.307   2.598 -1.7661  0.9734 -1.5405
  197MOL0     H27152   9.692   5.253   2.727  0.8256 -0.7445 -1.4179
  197MOL0     H27153   9.630   5.356   2.866  0.6370  3.3003 -3.2529
  197MOL0     H27154   9.520   5.087   2.763 -1.9739  0.0132  0.2919
  197MOL0     H27155   9.463   5.189   2.906 -1.4882 -2.8806 -1.7765
  197MOL0     H27156   9.642   5.139   3.028  1.1901  0.0168 -0.6245
  197MOL0     H27157   9.732   5.062   2.896  1.0683  2.0957  0.1363
  197MOL0     H27158   9.479   4.975   3.049  0.8112  0.1651  2.2919
  197MOL0     H27159   9.515   4.882   2.915 -0.3385 -2.0680  1.2926
  197MOL0     H27160   9.735   4.941   3.145 -0.9211  0.8970  1.6216
  197MOL0     H27161   9.747   4.836   3.007  1.2046 -0.0250  2.7951
  197MOL0     H27162   9.536   4.817   3.242 -0.5497  0.7318  0.0687
  197MOL0     H27163   9.674   4.721   3.210  1.1055 -1.2831 -3.5902
  197MOL0     H27164   9.563   4.659   2.972  0.8911  2.3769 -0.6313
  197MOL0     H27165   9.415   4.689   3.067 -0.1417 -1.1741 -0.1722
  197MOL0     H27166   9.342   5.499   2.550  1.7044 -0.9557 -0.4162
  197MOL0     H27167   9.241   5.689   2.424  1.0122  0.0553 -1.8966
  197MOL0     H27168   9.103   5.930   2.328 -2.7464 -0.2539 -1.0781
  197MOL0     H27169   8.918   6.007   2.230  0.0117 -1.2723  0.2216
  197MOL0     H27170   7.858   7.226   2.687 -0.1740  0.7722 -0.1175
  197MOL0     H27171   7.876   7.466   2.712  0.7345 -1.2787  2.0237
  197MOL0     H27172   8.055   7.813   2.447  0.8845 -0.4057  0.4101
  197MOL0     H27173   8.091   8.060   2.407  0.4453 -0.7344  0.1575
  197MOL0     H27174   8.033   8.400   2.593  0.2230  0.2056 -0.0954
  197MOL0     H27175   7.991   8.295   2.726  1.8948  0.2023  2.3796
  197MOL0     H27176   8.255   8.418   2.733  0.8864 -2.1131  0.8745
  197MOL0     H27177   8.159   8.320   2.849  1.3911 -0.3079  0.3480
  197MOL0     H27178   8.071   8.609   2.757  0.5637 -0.1962 -1.1634
  197MOL0     H27179   8.004   8.501   2.886  1.4410  1.8030  1.5815
  197MOL0     H27180   8.170   8.695   2.941 -3.2100 -0.8500 -1.1190
  197MOL0     H27181   8.282   8.602   2.841  2.4507 -0.2501  1.3336
  197MOL0     H27182   8.357   8.448   3.228  0.7614  1.3081 -0.1162
  197MOL0     H27183   8.146   8.109   2.823 -0.4444  1.0833  0.3905
  197MOL0     H27184   8.050   7.982   2.954  5.4511  0.2698  0.9934
  197MOL0     H27185   7.941   7.856   2.917 -0.1892  3.3211  0.4747
  197MOL0     H27186   8.119   7.819   2.949  0.6700  2.4989  2.0305
  198MOL0     O27187   3.843   7.720   6.513  0.6017 -0.0851  0.7659
  198MOL0     C27188   3.871   7.834   6.520  0.5671  0.3441 -0.1734
  198MOL0     O27189   3.995   7.879   6.551  0.0742 -0.0795  0.4797
  198MOL0     C27190   4.107   7.799   6.578 -0.4640  0.0943  0.3985
  198MOL0     C27191   4.227   7.861   6.530  0.0883  0.1895 -0.2555
  198MOL0     C27192   4.350   7.807   6.550  0.8118 -0.1452  0.1611
  198MOL0     C27193   4.352   7.683   6.615  1.0403 -0.3159 -0.2832
  198MOL0     O27194   4.479   7.629   6.625 -0.4238 -0.4499  0.2242
  198MOL0     C27195   4.517   7.565   6.744  0.7189 -0.1698  0.3166
  198MOL0     C27196   4.667   7.558   6.747 -0.4734  0.8203 -0.7627
  198MOL0     C27197   4.723   7.469   6.638  0.7433  0.5280 -0.5326
  198MOL0     C27198   4.869   7.439   6.652 -0.3763  0.2457 -0.4686
  198MOL0     C27199   4.950   7.555   6.650 -0.6269  0.2470 -0.5818
  198MOL0     C27200   5.101   7.532   6.646  0.1008  0.3037  0.9344
  198MOL0     C27201   5.172   7.657   6.706 -0.2806  0.1248  0.4730
  198MOL0     C27202   5.330   7.638   6.694  0.3460  1.5096 -0.2592
  198MOL0     N27203   5.386   7.511   6.745 -0.2260 -0.4699  0.4400
  198MOL0     C27204   5.382   7.387   6.686 -0.8006 -0.6429 -0.9644
  198MOL0     C27205   5.435   7.304   6.783  0.2992  0.6835 -0.2975
  198MOL0     C27206   5.430   7.152   6.787  0.6126  0.1026  0.1336
  198MOL0     C27207   5.286   7.098   6.762 -0.4960 -1.5638  0.1508
  198MOL0     C27208   5.260   6.951   6.797  0.2127 -0.5293  0.4742
  198MOL0     C27209   5.223   6.950   6.947 -0.0508 -0.2270  0.2836
  198MOL0     O27210   5.245   6.817   6.974  0.3585 -0.2654  0.8446
  198MOL0     C27211   5.132   6.732   6.975 -0.0127  0.2152 -0.2215
  198MOL0     C27212   5.123   6.654   6.858 -0.6187  0.7594 -0.6582
  198MOL0     C27213   5.004   6.571   6.837  1.2219  0.0723 -0.0139
  198MOL0     C27214   4.981   6.506   6.695 -0.1043  0.5386  0.0760
  198MOL0     C27215   4.928   6.541   6.953 -1.2214 -1.2067  0.5129
  198MOL0     C27216   4.831   6.430   6.955 -0.0377  0.5688 -0.7706
  198MOL0     O27217   4.795   6.399   7.084 -0.4268  0.1335  0.6571
  198MOL0     C27218   4.693   6.309   7.098  0.4984  0.2071 -0.4774
  198MOL0     C27219   4.579   6.344   7.180  0.0602 -0.2806  0.7986
  198MOL0     C27220   4.471   6.262   7.189  0.0605 -0.6415 -1.2172
  198MOL0     C27221   4.476   6.128   7.131  0.1274  0.1853 -0.1149
  198MOL0     O27222   4.365   6.062   7.157  0.1827 -0.1940  0.3959
  198MOL0     C27223   4.380   5.936   7.216 -0.7323 -0.4171 -0.0387
  198MOL0     C27224   4.252   5.852   7.212 -0.4776  0.1287  0.6629
  198MOL0     C27225   4.141   5.921   7.290  0.5207 -0.6065  0.3722
  198MOL0     C27226   4.153   5.886   7.443  0.7287  0.4148 -0.5390
  198MOL0     C27227   4.014   5.912   7.518 -0.3788 -0.8180  0.7629
  198MOL0     C27228   3.947   6.058   7.510 -0.1938  0.4125  0.1888
  198MOL0     C27229   4.016   6.181   7.572 -0.3202  0.2209 -0.4683
  198MOL0     C27230   4.015   6.155   7.727  0.4931 -0.4056  0.1261
  198MOL0    Cl27231   4.086   6.287   7.821 -0.2932  0.0261  0.1006
  198MOL0     C27232   4.600   6.085   7.076  0.6333 -0.5200  0.9706
  198MOL0     C27233   4.697   6.181   7.050  0.5058  0.1079 -0.2780
  198MOL0     O27234   4.801   6.368   6.857  0.7299  0.9878  0.5510
  198MOL0     C27235   4.944   6.622   7.068 -0.6771  0.4026  0.4155
  198MOL0     C27236   5.037   6.724   7.077  0.1158  0.5210  0.2364
  198MOL0     N27237   5.481   7.381   6.892  0.8629  0.6050 -0.1516
  198MOL0     N27238   5.450   7.506   6.869  0.3826 -0.3243 -0.6838
  198MOL0     C27239   4.230   7.613   6.662 -0.0050  0.6686 -0.1422
  198MOL0     C27240   4.108   7.678   6.640 -0.0673 -0.1414 -0.0689
  198MOL0     C27241   3.775   7.940   6.471  0.0112  0.3335  0.4823
  198MOL0     C27242   3.773   8.063   6.532  0.5288  0.0013  0.2129
  198MOL0     C27243   3.709   8.163   6.465 -0.0249 -0.1150  0.3976
  198MOL0     C27244   3.614   8.140   6.364 -0.9577  0.1784 -0.7190
  198MOL0     O27245   3.540   8.248   6.327 -0.5303 -0.2130 -0.5097
  198MOL0     C27246   3.559   8.293   6.191  0.0538 -0.3700  1.0684
  198MOL0     C27247   3.694   8.361   6.152 -0.0875  0.5924 -0.1850
  198MOL0     C27248   3.736   8.476   6.251  0.1909  0.8228 -0.0965
  198MOL0     C27249   3.631   8.589   6.289 -0.0112 -0.9546 -0.1106
  198MOL0     C27250   3.574   8.658   6.174 -0.9260 -0.4479 -0.1684
  198MOL0     C27251   3.524   8.699   6.074  0.4443 -0.5265 -1.4128
  198MOL0     C27252   3.601   8.010   6.318  0.5936 -0.5139 -0.3929
  198MOL0     C27253   3.685   7.913   6.369  0.4192  0.1100  0.8355
  198MOL0     C27254   3.685   7.779   6.292  0.5408  1.1020  0.2968
  198MOL0     H27255   4.221   7.955   6.476  0.9099 -1.6981 -3.9740
  198MOL0     H27256   4.431   7.863   6.504 -0.2564  1.1457 -0.2196
  198MOL0     H27257   4.475   7.466   6.765  2.9540 -1.1052  0.6821
  198MOL0     H27258   4.491   7.623   6.832  1.0329 -0.1587  0.4020
  198MOL0     H27259   4.709   7.655   6.722  1.6187 -0.5194 -2.8489
  198MOL0     H27260   4.701   7.516   6.842 -3.4632 -0.5620 -0.1702
  198MOL0     H27261   4.674   7.371   6.648 -0.6536  1.3306  0.9291
  198MOL0     H27262   4.701   7.495   6.534  0.6878 -0.9504 -0.9189
  198MOL0     H27263   4.892   7.369   6.733  3.9724 -2.0799 -3.3153
  198MOL0     H27264   4.899   7.381   6.564 -0.5603  1.3371 -1.2795
  198MOL0     H27265   4.918   7.595   6.747  0.4479 -1.0737  0.3513
  198MOL0     H27266   4.917   7.623   6.571  1.3760 -0.6655 -2.2930
  198MOL0     H27267   5.130   7.444   6.704  3.1089  1.1054  0.7770
  198MOL0     H27268   5.136   7.510   6.545 -2.2502  0.0771  0.0959
  198MOL0     H27269   5.155   7.679   6.812  1.2901 -1.3223  1.0767
  198MOL0     H27270   5.137   7.751   6.663 -0.7907  1.5520  3.7326
  198MOL0     H27271   5.361   7.655   6.591 -0.4363  3.8100 -0.1911
  198MOL0     H27272   5.378   7.717   6.753  2.0980  0.1640  0.1735
  198MOL0     H27273   5.334   7.354   6.594 -0.7127  0.8596 -1.5752
  198MOL0     H27274   5.479   7.136   6.883  1.5049 -1.4775 -0.5460
  198MOL0     H27275   5.496   7.103   6.715 -0.6609 -0.2482 -0.8555
  198MOL0     H27276   5.210   7.161   6.810  0.8603  0.5223 -0.3063
  198MOL0     H27277   5.267   7.095   6.654  0.3136 -0.4122 -0.0464
  198MOL0     H27278   5.184   6.905   6.734  0.8180  0.8948 -1.3695
  198MOL0     H27279   5.349   6.887   6.783 -1.1896 -2.0286 -2.5137
  198MOL0     H27280   5.306   7.004   6.994 -1.5015  0.2450  2.4577
  198MOL0     H27281   5.123   6.977   6.983 -0.2722 -1.1469  0.3908
  198MOL0     H27282   5.206   6.652   6.788  2.4485 -3.0882  2.5829
  198MOL0     H27283   5.028   6.580   6.629 -0.5753  1.6848  0.9992
  198MOL0     H27284   4.875   6.505   6.668 -0.7514 -1.9399  2.3380
  198MOL0     H27285   5.019   6.403   6.693  0.7137  0.8393 -0.3346
  198MOL0     H27286   4.578   6.442   7.227 -1.9555 -0.0425  0.3621
  198MOL0     H27287   4.386   6.300   7.245  1.7132  0.5833  0.6121
  198MOL0     H27288   4.463   5.883   7.168  1.1083 -0.3005  2.7864
  198MOL0     H27289   4.408   5.939   7.321 -1.1060 -3.4088  0.2316
  198MOL0     H27290   4.233   5.827   7.108  1.5560  0.6015  0.1197
  198MOL0     H27291   4.275   5.754   7.253  1.9899 -0.0911 -0.9812
  198MOL0     H27292   4.045   5.888   7.251 -0.6550  1.2348  1.5796
  198MOL0     H27293   4.137   6.030   7.281  1.2792 -0.7047 -1.9008
  198MOL0     H27294   4.230   5.931   7.506 -2.0751  0.3183  3.3506
  198MOL0     H27295   4.171   5.779   7.453  0.0603  0.3445 -0.0368
  198MOL0     H27296   3.944   5.856   7.456 -1.4986  2.1724 -0.9012
  198MOL0     H27297   4.022   5.887   7.624  0.4794  1.4055  1.2879
  198MOL0     H27298   3.852   6.044   7.562 -0.9129 -1.3495 -1.4622
  198MOL0     H27299   3.932   6.064   7.401 -1.0264  0.4313  0.2929
  198MOL0     H27300   3.966   6.276   7.551 -1.8266 -0.2915  0.6502
  198MOL0     H27301   4.119   6.187   7.535 -1.3806  0.4706 -3.7218
  198MOL0     H27302   4.081   6.072   7.755 -0.0750 -0.8614  0.1268
  198MOL0     H27303   3.908   6.154   7.748  0.8452 -0.9531  2.1497
  198MOL0     H27304   4.605   5.984   7.035 -0.8725 -1.8281  3.7125
  198MOL0     H27305   4.786   6.164   6.989 -1.4517  0.1722 -3.3597
  198MOL0     H27306   4.880   6.602   7.154 -1.0066 -0.6362 -0.0539
  198MOL0     H27307   5.052   6.771   7.173 -0.6049 -0.4637  0.8499
  198MOL0     H27308   4.223   7.522   6.720 -1.4110 -0.0652 -1.4065
  198MOL0     H27309   4.014   7.631   6.668 -0.9536  0.1039 -2.3953
  198MOL0     H27310   3.849   8.087   6.606  0.4896  0.2776  0.1673
  198MOL0     H27311   3.726   8.264   6.501 -1.3966 -0.5643  2.4322
  198MOL0     H27312   3.556   8.207   6.124 -0.0579 -0.5286  1.2760
  198MOL0     H27313   3.477   8.357   6.159  0.9285  0.6081  0.7151
  198MOL0     H27314   3.697   8.395   6.048  0.5034  2.0356  0.2722
  198MOL0     H27315   3.770   8.283   6.159 -0.8244 -0.0545  0.9699
  198MOL0     H27316   3.770   8.434   6.346  1.9292  0.2536 -0.9404
  198MOL0     H27317   3.817   8.539   6.214 -0.4038  3.5549  2.8110
  198MOL0     H27318   3.667   8.667   6.358  0.9181 -2.9923  1.8586
  198MOL0     H27319   3.550   8.539   6.342 -0.0603 -0.5884  0.1696
  198MOL0     H27320   3.473   8.737   5.987  2.2040 -1.1856 -2.7817
  198MOL0     H27321   3.521   7.998   6.246 -2.0767  2.5074  1.7550
  198MOL0     H27322   3.626   7.782   6.201  0.3592 -1.2553  0.2765
  198MOL0     H27323   3.784   7.743   6.263 -0.4605 -1.6929  0.0805
  198MOL0     H27324   3.629   7.695   6.334  0.0343  0.3540 -1.7656
  199MOL0     O27325   5.075   3.599  10.162  0.5229  0.7514 -0.2981
  199MOL0     C27326   5.127   3.661  10.072  0.3430 -0.5186 -0.7470
  199MOL0     O27327   5.163   3.789  10.079  0.5800  0.3127 -0.0630
  199MOL0     C27328   5.099   3.862  10.172  0.5025 -0.3744 -0.7448
  199MOL0     C27329   5.111   3.843  10.311  0.5709 -0.1724 -0.6312
  199MOL0     C27330   5.043   3.926  10.398  0.6306  0.2472  0.1606
  199MOL0     C27331   4.963   4.031  10.352  0.5786  0.2030  0.0490
  199MOL0     O27332   4.896   4.117  10.439  0.0327  0.2297 -0.4506
  199MOL0     C27333   4.987   4.189  10.524 -0.1424  0.9271  0.1799
  199MOL0     C27334   4.975   4.335  10.486  0.5617  0.2776  0.1664
  199MOL0     C27335   5.031   4.365  10.349 -0.0384  0.2528 -0.2165
  199MOL0     C27336   5.185   4.351  10.335 -0.4405  0.0805  0.2678
  199MOL0     C27337   5.230   4.393  10.196 -0.0448 -0.0391 -0.5216
  199MOL0     C27338   5.148   4.519  10.145 -0.1037 -0.0692 -0.2503
  199MOL0     C27339   5.184   4.642  10.238 -0.3107 -0.2462  0.2846
  199MOL0     C27340   5.156   4.780  10.175  0.1639  0.1078 -0.0894
  199MOL0     N27341   5.013   4.784  10.148 -0.5466  0.6498  0.3434
  199MOL0     C27342   4.957   4.844  10.035 -0.5252 -0.6954  0.5114
  199MOL0     C27343   4.824   4.830  10.046  0.8111  0.8565 -0.8353
  199MOL0     C27344   4.716   4.870   9.945  0.0434 -0.1303  0.7914
  199MOL0     C27345   4.695   5.018   9.949  0.4011 -1.0702 -0.5516
  199MOL0     C27346   4.562   5.065   9.866  0.8192 -0.5157 -0.6426
  199MOL0     C27347   4.528   5.211   9.909 -0.3590  0.0848 -0.0875
  199MOL0     O27348   4.641   5.301   9.882  0.0491 -0.2355  0.0556
  199MOL0     C27349   4.599   5.420   9.936 -0.5168 -0.6071  0.2235
  199MOL0     C27350   4.505   5.501   9.876 -0.0201  0.2095  0.5518
  199MOL0     C27351   4.469   5.616   9.929  0.3458  0.0242  0.6012
  199MOL0     C27352   4.353   5.681   9.860  0.0800  0.3656 -0.0171
  199MOL0     C27353   4.532   5.669  10.049  0.0995  0.5331  0.4394
  199MOL0     C27354   4.490   5.806  10.112 -0.4106 -1.3151 -0.2914
  199MOL0     O27355   4.557   5.839  10.224 -0.1848 -0.5015  0.4520
  199MOL0     C27356   4.549   5.967  10.275  1.3641  1.0866  0.6242
  199MOL0     C27357   4.510   5.976  10.412 -0.8588 -0.4998 -0.1945
  199MOL0     C27358   4.495   6.099  10.475  0.4556 -0.2714 -0.7796
  199MOL0     C27359   4.521   6.216  10.412  0.0697 -0.4244  0.6413
  199MOL0     O27360   4.494   6.326  10.482 -0.2935 -0.9359  1.3278
  199MOL0     C27361   4.429   6.429  10.412  2.4248 -0.9821  0.2134
  199MOL0     C27362   4.388   6.543  10.507 -0.8807  0.4986  0.7122
  199MOL0     C27363   4.306   6.654  10.438 -0.0211  0.0835  0.5915
  199MOL0     C27364   4.259   6.767  10.534  1.6487  0.3836  0.4865
  199MOL0     C27365   4.165   6.875  10.468 -0.5266  0.1375 -0.7429
  199MOL0     C27366   4.230   6.949  10.357  0.1999  0.7595 -0.4939
  199MOL0     C27367   4.157   7.081  10.326 -0.4739 -0.1584  0.1628
  199MOL0     C27368   4.196   7.129  10.194 -0.4208  0.8788  0.5768
  199MOL0    Cl27369   4.157   7.301  10.159  0.1821 -0.5841 -0.2508
  199MOL0     C27370   4.560   6.213  10.281 -0.6544 -0.3339 -0.2508
  199MOL0     C27371   4.574   6.091  10.210 -0.8566 -0.8751  1.0304
  199MOL0     O27372   4.406   5.875  10.053  0.7592  0.4363 -0.4609
  199MOL0     C27373   4.638   5.584  10.102 -0.0319  0.3042 -0.4313
  199MOL0     C27374   4.669   5.463  10.049  0.0427  0.3781 -1.1910
  199MOL0     N27375   4.801   4.764  10.160 -0.2239  0.8251 -0.6373
  199MOL0     N27376   4.912   4.739  10.219 -0.0747 -0.0393 -0.1034
  199MOL0     C27377   4.959   4.057  10.216  0.7257  0.4808  0.7488
  199MOL0     C27378   5.017   3.970  10.137 -0.2027  0.5053  0.9068
  199MOL0     C27379   5.189   3.593   9.956  0.3916 -0.5139  0.6035
  199MOL0     C27380   5.322   3.640   9.913  0.3479 -0.4483  0.1441
  199MOL0     C27381   5.384   3.581   9.798 -0.3549 -0.1886  0.4739
  199MOL0     C27382   5.311   3.486   9.722 -0.1832  0.1153  0.7243
  199MOL0     O27383   5.379   3.435   9.614 -0.0170 -0.0560  0.5513
  199MOL0     C27384   5.361   3.291   9.583 -0.7663 -0.1568 -0.2824
  199MOL0     C27385   5.437   3.260   9.457 -0.5670  0.5370 -0.4310
  199MOL0     C27386   5.582   3.298   9.479  0.3460 -0.6197  0.4542
  199MOL0     C27387   5.668   3.256   9.371 -0.5026  0.5424 -0.3336
  199MOL0     C27388   5.803   3.301   9.384  0.2194 -0.2228 -0.1962
  199MOL0     C27389   5.926   3.316   9.383  0.4079 -0.5872 -0.0816
  199MOL0     C27390   5.181   3.446   9.772  0.3472 -0.8993 -0.1630
  199MOL0     C27391   5.125   3.499   9.885  1.1390 -1.0112  0.2755
  199MOL0     C27392   4.985   3.450   9.928 -0.0751  0.0668  0.0320
  199MOL0     H27393   5.178   3.773  10.359 -1.1098 -0.8447  0.8386
  199MOL0     H27394   5.071   3.904  10.500  3.0003 -1.0249 -0.7032
  199MOL0     H27395   5.083   4.139  10.511 -1.1955 -0.6883 -2.0852
  199MOL0     H27396   4.978   4.176  10.632  1.2669 -3.0666 -0.0250
  199MOL0     H27397   4.875   4.378  10.495  0.9244  1.1464  0.1623
  199MOL0     H27398   5.031   4.396  10.558 -2.7112  2.2604  1.2587
  199MOL0     H27399   5.000   4.294  10.272 -1.2257  1.5862 -1.0256
  199MOL0     H27400   5.001   4.465  10.314  1.1413  0.9937  0.7993
  199MOL0     H27401   5.252   4.406  10.402 -1.2917  0.3196  0.9453
  199MOL0     H27402   5.209   4.245  10.343 -1.9777 -0.5968 -2.6634
  199MOL0     H27403   5.217   4.303  10.135 -2.5565 -1.9247  2.5050
  199MOL0     H27404   5.338   4.412  10.201 -0.0035  0.5034 -2.4615
  199MOL0     H27405   5.169   4.539  10.040 -2.7813  1.4117 -0.5868
  199MOL0     H27406   5.040   4.510  10.125 -0.9792  2.3888  2.6067
  199MOL0     H27407   5.291   4.632  10.255 -0.5209 -1.9402  0.8831
  199MOL0     H27408   5.137   4.644  10.337  1.9260 -1.3636  1.4229
  199MOL0     H27409   5.173   4.861  10.246 -0.3229 -0.9107  1.2492
  199MOL0     H27410   5.215   4.799  10.086  1.5009  1.1995  0.9869
  199MOL0     H27411   5.014   4.898   9.959  1.8645 -1.6454  1.5503
  199MOL0     H27412   4.624   4.812   9.947  0.7011 -1.2555 -0.4970
  199MOL0     H27413   4.765   4.853   9.849  0.2572 -3.0650  1.3406
  199MOL0     H27414   4.691   5.034  10.057 -1.7948 -0.5297 -0.6511
  199MOL0     H27415   4.786   5.071   9.919  0.8137 -0.9632  0.8021
  199MOL0     H27416   4.578   5.059   9.758  2.1330 -0.1708 -0.4914
  199MOL0     H27417   4.486   4.993   9.896  2.4643 -4.0273 -4.0582
  199MOL0     H27418   4.431   5.240   9.867  0.2653  2.2014 -0.1897
  199MOL0     H27419   4.521   5.195  10.017  2.7325 -0.8366  0.0880
  199MOL0     H27420   4.443   5.453   9.801 -1.6547 -2.6956  3.5505
  199MOL0     H27421   4.272   5.706   9.930 -0.1008  0.7618 -0.3671
  199MOL0     H27422   4.305   5.618   9.784 -0.7139  1.5967 -0.5595
  199MOL0     H27423   4.384   5.779   9.824  1.1998  0.2538  0.6241
  199MOL0     H27424   4.474   5.882  10.454 -2.0377  0.8131  1.9032
  199MOL0     H27425   4.453   6.098  10.575 -0.7055  1.7113 -1.1905
  199MOL0     H27426   4.482   6.475  10.328 -2.1056 -1.1871 -3.2004
  199MOL0     H27427   4.331   6.394  10.376  0.6681  2.6397  0.9235
  199MOL0     H27428   4.341   6.493  10.592 -1.5871  1.4297  0.8963
  199MOL0     H27429   4.483   6.574  10.551 -1.2588  2.1714  0.4379
  199MOL0     H27430   4.218   6.611  10.389 -0.8370  2.6623 -0.3459
  199MOL0     H27431   4.367   6.707  10.364  0.6424  1.7837  2.2688
  199MOL0     H27432   4.347   6.805  10.586  1.4566  0.8904  0.4377
  199MOL0     H27433   4.192   6.719  10.606 -0.7945  1.6343 -0.8385
  199MOL0     H27434   4.069   6.841  10.428 -0.3411 -3.0993  1.2616
  199MOL0     H27435   4.134   6.942  10.549 -2.6425 -0.0480 -1.3444
  199MOL0     H27436   4.209   6.891  10.267  0.0401 -0.7236  0.4592
  199MOL0     H27437   4.338   6.954  10.371  0.7736 -0.7593 -3.6769
  199MOL0     H27438   4.175   7.156  10.404  2.5889  1.2281 -1.6804
  199MOL0     H27439   4.050   7.057  10.321 -0.5847 -0.1319  1.8083
  199MOL0     H27440   4.166   7.065  10.111  0.6206  2.1389 -0.8417
  199MOL0     H27441   4.305   7.126  10.202 -0.3731  2.7243  1.1441
  199MOL0     H27442   4.567   6.309  10.232  2.1625  1.6891  3.5719
  199MOL0     H27443   4.626   6.088  10.114  0.3742  1.2511  1.5589
  199MOL0     H27444   4.683   5.623  10.192 -1.2099 -1.1871  0.8569
  199MOL0     H27445   4.752   5.402  10.083 -0.1547  0.8046  0.1250
  199MOL0     H27446   4.902   4.140  10.176  0.0930  0.8866  2.4046
  199MOL0     H27447   4.999   3.981  10.030  0.2111 -3.7183  0.2118
  199MOL0     H27448   5.380   3.705   9.978 -0.0232  0.3735 -0.3301
  199MOL0     H27449   5.486   3.589   9.760 -0.1313 -2.3642  0.4517
  199MOL0     H27450   5.407   3.244   9.671  0.2223  4.2475  1.8305
  199MOL0     H27451   5.256   3.263   9.571 -0.7838 -0.7354  1.0003
  199MOL0     H27452   5.388   3.315   9.376  0.2018 -0.9451 -1.9730
  199MOL0     H27453   5.426   3.155   9.429  0.9253 -0.9825  3.9470
  199MOL0     H27454   5.595   3.406   9.487  0.2836 -0.6453  0.9092
  199MOL0     H27455   5.608   3.261   9.579  2.5786  2.3807  1.1180
  199MOL0     H27456   5.625   3.291   9.277 -2.0884  0.3056  0.2715
  199MOL0     H27457   5.673   3.149   9.351 -6.1513  0.0734 -0.8278
  199MOL0     H27458   6.032   3.330   9.383  0.2554  0.7866  0.8400
  199MOL0     H27459   5.129   3.379   9.705 -3.2333  0.8148  0.6634
  199MOL0     H27460   4.908   3.527   9.935  0.2293  0.3553  0.2231
  199MOL0     H27461   4.941   3.383   9.853 -2.1051 -0.5810  1.7082
  199MOL0     H27462   5.013   3.397  10.019 -0.4057 -0.8112 -0.3655
  200MOL0     O27463   2.608   5.014   0.354  0.1202 -0.8441  0.4346
  200MOL0     C27464   2.627   5.132   0.381  0.1339  0.2783  0.1974
  200MOL0     O27465   2.719   5.178   0.462 -0.0336  0.1467  0.6385
  200MOL0     C27466   2.807   5.093   0.524 -1.4466 -0.2451 -0.3695
  200MOL0     C27467   2.768   4.972   0.589  0.2490 -0.7066  0.1489
  200MOL0     C27468   2.856   4.894   0.660 -0.1880 -0.0794  0.1910
  200MOL0     C27469   2.984   4.950   0.678 -0.6972 -0.3366  0.4025
  200MOL0     O27470   3.070   4.896   0.770 -0.4195 -0.1088 -0.2541
  200MOL0     C27471   3.169   4.807   0.704  0.5849  0.4035  0.0240
  200MOL0     C27472   3.285   4.788   0.796  0.1000 -0.3313  0.3653
  200MOL0     C27473   3.364   4.916   0.820  0.4355 -0.4357  0.1310
  200MOL0     C27474   3.312   5.006   0.934  0.5175  0.0126 -0.1864
  200MOL0     C27475   3.401   5.136   0.949  0.2562 -0.1592  0.4870
  200MOL0     C27476   3.397   5.215   0.819 -0.0605  0.1780  0.3396
  200MOL0     C27477   3.403   5.365   0.851  0.5525 -0.2601 -0.2305
  200MOL0     C27478   3.542   5.407   0.906  0.2348 -0.7572  0.1632
  200MOL0     N27479   3.653   5.365   0.828  0.5023 -0.5826  0.2971
  200MOL0     C27480   3.741   5.263   0.851  0.7447 -0.1262 -0.2096
  200MOL0     C27481   3.824   5.259   0.743  0.3032 -2.0267 -0.5496
  200MOL0     C27482   3.936   5.163   0.729 -0.6275  0.3617 -1.1525
  200MOL0     C27483   4.037   5.168   0.847 -0.1534 -0.5823  0.0086
  200MOL0     C27484   4.153   5.080   0.830 -0.2019  0.1006  0.3174
  200MOL0     C27485   4.281   5.163   0.799 -1.0118  0.3798  0.2486
  200MOL0     O27486   4.299   5.258   0.901 -0.7673 -0.4057  0.1209
  200MOL0     C27487   4.421   5.315   0.944  0.1591  0.3162  0.3552
  200MOL0     C27488   4.532   5.336   0.851 -0.6664 -0.4070  0.4043
  200MOL0     C27489   4.651   5.410   0.901  0.4413 -0.3564  0.4773
  200MOL0     C27490   4.754   5.455   0.797  0.8004  0.1862 -0.1340
  200MOL0     C27491   4.664   5.438   1.042 -0.2730 -0.5552  0.2501
  200MOL0     C27492   4.762   5.537   1.097 -0.4284 -0.5830 -0.9499
  200MOL0     O27493   4.807   5.645   1.034  0.3902 -0.2249  0.3381
  200MOL0     C27494   4.918   5.703   1.081 -0.3544  0.1896 -0.5337
  200MOL0     C27495   4.909   5.780   1.210  0.1049  1.0797 -0.1864
  200MOL0     C27496   5.003   5.875   1.244 -0.2562  0.1367 -1.1573
  200MOL0     C27497   5.111   5.913   1.157 -0.2091 -0.5525 -0.3919
  200MOL0     O27498   5.203   6.004   1.213 -0.8850  0.3936  0.3420
  200MOL0     C27499   5.176   6.143   1.193  0.4174  0.7805 -0.4226
  200MOL0     C27500   5.157   6.210   1.325  0.1992 -1.3820  0.1383
  200MOL0     C27501   5.260   6.178   1.428  1.2948  0.0428 -0.2004
  200MOL0     C27502   5.264   6.266   1.555 -0.0513 -0.4892 -0.4009
  200MOL0     C27503   5.392   6.244   1.632 -0.1519  0.1271  0.1079
  200MOL0     C27504   5.412   6.356   1.730  0.1222 -0.9431  0.1262
  200MOL0     C27505   5.482   6.486   1.666 -0.2211 -0.0424  0.1393
  200MOL0     C27506   5.396   6.614   1.679  0.3442 -0.1210 -0.1518
  200MOL0    Cl27507   5.515   6.752   1.691 -0.2957  0.1850 -0.8546
  200MOL0     C27508   5.120   5.839   1.038 -0.2195  0.1963 -0.1474
  200MOL0     C27509   5.025   5.742   0.993  0.6073  0.0396 -0.3271
  200MOL0     O27510   4.792   5.497   1.209 -0.4161 -0.4829  0.4922
  200MOL0     C27511   4.548   5.416   1.131  0.5753 -0.1009 -0.2050
  200MOL0     C27512   4.435   5.349   1.082  0.1904  0.0347 -0.1542
  200MOL0     N27513   3.769   5.354   0.661 -0.4868  0.0485  0.3259
  200MOL0     N27514   3.680   5.429   0.713  0.4731 -0.6134  0.5004
  200MOL0     C27515   3.027   5.068   0.614  0.1266  0.8029 -0.2656
  200MOL0     C27516   2.938   5.141   0.538  0.7555  0.2437  0.4834
  200MOL0     C27517   2.558   5.242   0.315 -0.0232  0.5086  0.4545
  200MOL0     C27518   2.629   5.360   0.276  0.1726  0.4446  0.0290
  200MOL0     C27519   2.558   5.472   0.229 -0.7526  0.0668  0.4591
  200MOL0     C27520   2.428   5.458   0.173 -0.1572 -0.1812  0.0216
  200MOL0     O27521   2.359   5.564   0.111  0.8391 -0.0140 -0.7343
  200MOL0     C27522   2.391   5.706   0.135 -0.0754  0.0589 -1.2293
  200MOL0     C27523   2.274   5.799   0.164 -0.2848 -1.1077 -0.2425
  200MOL0     C27524   2.313   5.947   0.193 -0.8337  0.1965 -0.1194
  200MOL0     C27525   2.191   6.030   0.226 -0.7712  0.1226 -0.7473
  200MOL0     C27526   2.232   6.171   0.196  0.0202  0.0985 -0.2494
  200MOL0     C27527   2.272   6.283   0.181  1.2614  0.0925  0.8379
  200MOL0     C27528   2.362   5.339   0.179 -0.6761  0.6650 -0.1138
  200MOL0     C27529   2.423   5.232   0.249 -0.5791 -0.3996 -1.7066
  200MOL0     C27530   2.327   5.123   0.293  0.4067 -0.3111 -1.1342
  200MOL0     H27531   2.669   4.940   0.618  0.9080 -1.5127  1.6523
  200MOL0     H27532   2.823   4.801   0.703 -1.4710  1.0330  1.7231
  200MOL0     H27533   3.208   4.832   0.605 -0.1747 -1.3807 -0.7563
  200MOL0     H27534   3.107   4.717   0.702 -1.6970  1.8795 -0.8595
  200MOL0     H27535   3.236   4.756   0.888 -0.2127 -1.2562 -0.1103
  200MOL0     H27536   3.351   4.715   0.748  0.3700 -1.1382  1.9134
  200MOL0     H27537   3.468   4.892   0.846  0.8181  1.2770  0.2707
  200MOL0     H27538   3.375   4.970   0.725 -1.8608  0.3444  0.2461
  200MOL0     H27539   3.209   5.040   0.922  0.0309 -1.7343 -1.2803
  200MOL0     H27540   3.318   4.961   1.033 -2.5103  2.8105  1.4468
  200MOL0     H27541   3.500   5.104   0.983  0.4693 -0.3827 -0.3127
  200MOL0     H27542   3.369   5.201   1.030 -0.5167  1.5168 -1.0816
  200MOL0     H27543   3.482   5.181   0.760  2.5903 -0.6676  4.2390
  200MOL0     H27544   3.299   5.209   0.772  1.3678 -0.3874 -2.8256
  200MOL0     H27545   3.333   5.401   0.927  0.4439  2.9712 -1.7078
  200MOL0     H27546   3.381   5.417   0.757  1.3038 -2.0774 -1.4696
  200MOL0     H27547   3.540   5.516   0.911 -0.0780 -0.6740 -1.2933
  200MOL0     H27548   3.567   5.359   1.001  1.8204  2.5268  1.5905
  200MOL0     H27549   3.740   5.190   0.932 -2.0305 -1.5299 -1.3571
  200MOL0     H27550   3.997   5.178   0.639  0.3120  0.2556 -0.5406
  200MOL0     H27551   3.885   5.067   0.740 -1.2702  0.8125 -0.0348
  200MOL0     H27552   4.062   5.273   0.864  0.5817 -1.1008  2.5119
  200MOL0     H27553   3.989   5.128   0.937  1.2046 -0.6319  0.7400
  200MOL0     H27554   4.166   5.020   0.921 -2.1256 -1.3387 -0.2711
  200MOL0     H27555   4.123   5.002   0.758 -0.3519  0.1422  0.3346
  200MOL0     H27556   4.374   5.106   0.785 -0.1668  1.6102  0.6733
  200MOL0     H27557   4.273   5.208   0.700  3.9727  1.5738  0.1244
  200MOL0     H27558   4.516   5.321   0.745 -0.3329 -1.0509  0.4448
  200MOL0     H27559   4.858   5.465   0.830  0.6547 -0.2989  0.4855
  200MOL0     H27560   4.731   5.549   0.746  3.3827  1.2137  0.4577
  200MOL0     H27561   4.760   5.376   0.721 -0.3167 -0.8115  0.7876
  200MOL0     H27562   4.819   5.748   1.261 -0.2516  1.3831 -0.6148
  200MOL0     H27563   5.002   5.936   1.334 -0.7986  2.0070 -2.3583
  200MOL0     H27564   5.265   6.182   1.142  0.6471  1.1705  0.2740
  200MOL0     H27565   5.093   6.149   1.121 -0.1740  1.0950  0.2776
  200MOL0     H27566   5.150   6.318   1.309  1.9575 -1.2476  0.1625
  200MOL0     H27567   5.058   6.177   1.358 -0.0121 -0.3568  0.5642
  200MOL0     H27568   5.360   6.185   1.383  1.9380  2.2896  1.4124
  200MOL0     H27569   5.243   6.078   1.467 -0.1714  0.0420 -0.8047
  200MOL0     H27570   5.174   6.271   1.617  0.8618 -0.9793  0.9915
  200MOL0     H27571   5.259   6.369   1.517  2.9624  0.5209  1.6011
  200MOL0     H27572   5.388   6.145   1.678  2.2425 -1.2737 -2.4365
  200MOL0     H27573   5.477   6.234   1.564  0.5539 -0.4834  1.0388
  200MOL0     H27574   5.483   6.323   1.805  0.9121  3.6046  1.7007
  200MOL0     H27575   5.329   6.384   1.795  0.6662  1.1583 -0.0143
  200MOL0     H27576   5.510   6.472   1.562  2.0630 -1.6346  0.8949
  200MOL0     H27577   5.581   6.499   1.710  0.1954  2.2627 -1.2909
  200MOL0     H27578   5.339   6.610   1.773  5.2970 -1.0757  3.2435
  200MOL0     H27579   5.321   6.642   1.605 -0.6608  0.1150  0.9077
  200MOL0     H27580   5.202   5.869   0.973 -2.4186  3.6024 -1.6599
  200MOL0     H27581   5.034   5.687   0.900 -1.2346  1.4339 -1.3829
  200MOL0     H27582   4.546   5.445   1.235  0.4344  0.1886 -0.2883
  200MOL0     H27583   4.349   5.338   1.148 -0.5324 -0.3852 -1.1513
  200MOL0     H27584   3.119   5.123   0.633  0.8602 -0.0124 -1.3537
  200MOL0     H27585   2.970   5.230   0.485 -1.5566  1.5345  1.1039
  200MOL0     H27586   2.734   5.367   0.304  0.2927  0.0883 -0.3315
  200MOL0     H27587   2.611   5.562   0.200  0.3783 -0.5962  0.4291
  200MOL0     H27588   2.456   5.717   0.223  0.1043 -0.9649 -1.2260
  200MOL0     H27589   2.448   5.739   0.048  0.2918 -0.7124 -1.2839
  200MOL0     H27590   2.205   5.769   0.244 -0.6547  1.6223  0.5442
  200MOL0     H27591   2.207   5.813   0.078 -0.7093  6.1847  0.6554
  200MOL0     H27592   2.392   5.952   0.269 -1.7277  0.6093  0.8105
  200MOL0     H27593   2.349   5.991   0.100 -2.3555 -2.5291 -2.1502
  200MOL0     H27594   2.162   6.022   0.331 -0.0498 -2.5145 -0.6639
  200MOL0     H27595   2.102   6.008   0.166 -1.2313  0.7757 -0.3128
  200MOL0     H27596   2.309   6.383   0.177 -2.9096  1.8043 -3.4499
  200MOL0     H27597   2.260   5.323   0.147 -0.7825 -1.0373  0.9042
  200MOL0     H27598   2.350   5.091   0.395 -1.4206  0.6936 -0.3474
  200MOL0     H27599   2.223   5.157   0.282  1.0277  2.4249  0.5267
  200MOL0     H27600   2.350   5.038   0.227  2.7641  0.9929 -2.1230
  201MOL0     O27601   2.377   1.845   3.317  0.3041 -0.0534 -0.7153
  201MOL0     C27602   2.445   1.750   3.363 -0.6450 -0.2053 -0.8801
  201MOL0     O27603   2.580   1.731   3.337 -0.1228 -0.1944 -0.0360
  201MOL0     C27604   2.655   1.823   3.264 -0.2483  0.1395 -0.5115
  201MOL0     C27605   2.749   1.761   3.174 -0.2276 -0.6554 -0.4250
  201MOL0     C27606   2.832   1.833   3.087  0.7641 -0.7449 -0.8280
  201MOL0     C27607   2.828   1.975   3.093 -0.2750 -1.0166  0.0051
  201MOL0     O27608   2.895   2.057   3.001 -0.1160  0.3908 -0.2453
  201MOL0     C27609   2.997   2.000   2.919  0.4150  0.0040  0.6792
  201MOL0     C27610   3.040   2.126   2.837  0.7997 -0.0325  0.1462
  201MOL0     C27611   3.160   2.100   2.756 -0.1228 -0.5747  0.2055
  201MOL0     C27612   3.284   2.101   2.833 -0.7725 -0.0378 -0.8787
  201MOL0     C27613   3.415   2.094   2.758  0.1249  0.5001 -0.5549
  201MOL0     C27614   3.531   2.091   2.868  0.1454 -0.1078 -0.2480
  201MOL0     C27615   3.663   2.084   2.783 -0.2860  0.3817  0.4858
  201MOL0     C27616   3.800   2.058   2.862 -0.7792 -0.4882 -1.0671
  201MOL0     N27617   3.836   2.182   2.940  0.3299  0.3477 -0.0910
  201MOL0     C27618   3.863   2.174   3.071 -0.5617  0.2765 -0.8177
  201MOL0     C27619   3.908   2.295   3.096 -0.7046 -0.2602  0.3106
  201MOL0     C27620   3.952   2.347   3.230  0.1360  0.0125 -0.6389
  201MOL0     C27621   3.818   2.402   3.294 -0.3484  0.4428 -0.8030
  201MOL0     C27622   3.846   2.463   3.435 -0.5140  0.1814 -1.0016
  201MOL0     C27623   3.841   2.385   3.560 -0.2798  0.4922 -0.4074
  201MOL0     O27624   3.716   2.310   3.556 -0.0211 -0.4032 -0.1797
  201MOL0     C27625   3.706   2.189   3.501 -0.5784 -0.6985 -0.2164
  201MOL0     C27626   3.824   2.118   3.463  0.4549 -0.3740  0.4808
  201MOL0     C27627   3.813   1.991   3.406 -0.0885  0.2433 -0.1575
  201MOL0     C27628   3.937   1.924   3.345  0.5113 -0.2003 -0.6644
  201MOL0     C27629   3.683   1.938   3.393 -0.1616  0.1790  0.2763
  201MOL0     C27630   3.666   1.801   3.349  0.8073 -1.2341  0.2790
  201MOL0     O27631   3.729   1.717   3.425 -0.7752 -0.3742 -0.4307
  201MOL0     C27632   3.671   1.589   3.431 -0.9651 -0.0160 -0.8333
  201MOL0     C27633   3.640   1.554   3.561 -0.2100 -0.4373  0.2698
  201MOL0     C27634   3.594   1.427   3.588 -1.2730  1.2474 -0.1665
  201MOL0     C27635   3.610   1.326   3.491  0.4272  0.5377 -1.2891
  201MOL0     O27636   3.599   1.198   3.533  0.5406  0.8244  0.1098
  201MOL0     C27637   3.535   1.099   3.442  0.4429 -0.6898 -0.1682
  201MOL0     C27638   3.494   0.958   3.508  0.7767 -0.2382 -0.2120
  201MOL0     C27639   3.611   0.887   3.577  0.0975  1.2164  0.4733
  201MOL0     C27640   3.580   0.735   3.599  0.3775  0.1852 -0.4125
  201MOL0     C27641   3.694   0.669   3.689  0.2040 -0.5183 -0.7876
  201MOL0     C27642   3.649   0.552   3.771  0.2287 -0.3715  0.2781
  201MOL0     C27643   3.758   0.452   3.809  0.0456 -0.4450  0.3039
  201MOL0     C27644   3.875   0.517   3.876 -0.1873  0.4150  0.7572
  201MOL0    Cl27645   4.007   0.392   3.896 -0.0087 -0.8166  0.6495
  201MOL0     C27646   3.631   1.361   3.357 -0.6214 -0.1713  0.4151
  201MOL0     C27647   3.679   1.493   3.329 -0.8844  0.0821 -0.8278
  201MOL0     O27648   3.589   1.772   3.260 -0.6367  0.3088  0.0571
  201MOL0     C27649   3.567   2.003   3.443 -0.8443  0.9321  0.3339
  201MOL0     C27650   3.579   2.132   3.490 -0.1073  0.2353 -0.1366
  201MOL0     N27651   3.910   2.382   2.990  0.3885  0.4612  0.2026
  201MOL0     N27652   3.882   2.304   2.899 -0.6010 -0.3391 -0.4365
  201MOL0     C27653   2.753   2.032   3.197  0.4469  0.1050 -0.2773
  201MOL0     C27654   2.669   1.959   3.282 -0.2864  0.2631  0.6823
  201MOL0     C27655   2.378   1.648   3.435  0.0069  0.8479  0.0245
  201MOL0     C27656   2.381   1.522   3.369  0.0660  0.1561  0.2257
  201MOL0     C27657   2.325   1.412   3.430  0.0415 -0.2869 -0.0445
  201MOL0     C27658   2.257   1.421   3.550 -0.8341  0.0344 -0.0884
  201MOL0     O27659   2.223   1.308   3.615  0.7142  0.0992 -0.4239
  201MOL0     C27660   2.275   1.301   3.749 -0.0380  1.1839  0.8448
  201MOL0     C27661   2.165   1.234   3.836  0.9680 -0.7747  0.6831
  201MOL0     C27662   2.172   1.234   3.985 -0.7743 -0.8615 -0.2680
  201MOL0     C27663   2.195   1.374   4.043 -0.2099  0.2344  0.1209
  201MOL0     C27664   2.179   1.378   4.185  0.6421 -0.5490 -0.2220
  201MOL0     C27665   2.155   1.390   4.304  0.3967 -0.3415 -0.0132
  201MOL0     C27666   2.242   1.548   3.606 -0.0996 -0.1163  0.1089
  201MOL0     C27667   2.294   1.663   3.552 -0.7745  0.6643  0.1913
  201MOL0     C27668   2.264   1.796   3.605  0.0325  0.6795  0.2266
  201MOL0     H27669   2.748   1.652   3.166  1.6500 -0.6691 -0.9323
  201MOL0     H27670   2.898   1.781   3.019  1.4387  0.2715 -0.9804
  201MOL0     H27671   2.954   1.917   2.862 -0.9269  1.0774  0.0569
  201MOL0     H27672   3.073   1.969   2.991  1.3079  2.4285  0.8699
  201MOL0     H27673   2.963   2.149   2.764  0.9927  0.2630  0.0338
  201MOL0     H27674   3.052   2.213   2.903  0.2022  3.3301 -3.7853
  201MOL0     H27675   3.163   2.000   2.711  3.8509 -0.4732 -0.1505
  201MOL0     H27676   3.166   2.172   2.674 -0.3885 -0.0899  0.6059
  201MOL0     H27677   3.288   2.191   2.895  3.9559  0.8865 -2.1530
  201MOL0     H27678   3.289   2.031   2.917 -1.0899  2.0419  0.9921
  201MOL0     H27679   3.433   2.181   2.694 -0.2715  0.5965 -0.5336
  201MOL0     H27680   3.415   2.001   2.700  2.5025  0.7738 -1.1070
  201MOL0     H27681   3.542   2.170   2.943  0.5382  0.1461 -0.5695
  201MOL0     H27682   3.518   1.998   2.925 -0.0855  1.0005  1.5838
  201MOL0     H27683   3.684   2.172   2.721  1.7499 -0.2422  0.2131
  201MOL0     H27684   3.660   2.003   2.709  2.2374  1.0629 -0.4744
  201MOL0     H27685   3.790   1.972   2.930  2.3343 -0.1480 -0.0174
  201MOL0     H27686   3.885   2.035   2.797 -1.2365 -1.5519 -1.3104
  201MOL0     H27687   3.867   2.092   3.142  2.8387 -0.1950 -1.4002
  201MOL0     H27688   4.023   2.431   3.228 -0.3648  0.5003  0.8168
  201MOL0     H27689   3.988   2.267   3.295 -1.1459 -0.0513  0.0255
  201MOL0     H27690   3.776   2.476   3.226  0.5275  0.4615 -1.3448
  201MOL0     H27691   3.743   2.324   3.307 -0.1675  0.5562  1.2003
  201MOL0     H27692   3.941   2.517   3.427  0.3398 -1.1120 -0.0729
  201MOL0     H27693   3.777   2.545   3.457  0.0152  0.3736  0.0406
  201MOL0     H27694   3.927   2.322   3.581  0.3771  1.3550 -0.4340
  201MOL0     H27695   3.836   2.446   3.651  1.9658 -1.7939  1.3812
  201MOL0     H27696   3.925   2.157   3.475  1.4110 -2.5682  0.1135
  201MOL0     H27697   3.986   1.844   3.402  0.3939 -1.8093 -2.7253
  201MOL0     H27698   4.008   2.003   3.321  0.7060  0.1276  0.8832
  201MOL0     H27699   3.906   1.877   3.252  0.2573  0.9225 -1.1607
  201MOL0     H27700   3.660   1.627   3.639  3.2780  0.0821 -0.9256
  201MOL0     H27701   3.570   1.390   3.687  0.2167 -3.1047 -1.1927
  201MOL0     H27702   3.440   1.143   3.414  0.1436 -1.3370 -0.2012
  201MOL0     H27703   3.599   1.077   3.356  1.6362  1.5696  0.0723
  201MOL0     H27704   3.428   0.999   3.586  0.2184  3.1224 -2.2237
  201MOL0     H27705   3.452   0.894   3.431  2.5996 -0.1078 -1.3696
  201MOL0     H27706   3.634   0.947   3.666 -2.1303 -0.2077  2.1184
  201MOL0     H27707   3.695   0.896   3.508  2.3001  2.1518  3.0993
  201MOL0     H27708   3.579   0.691   3.499 -0.6690 -0.9705  0.0826
  201MOL0     H27709   3.485   0.710   3.647  0.6708  0.0481  0.1098
  201MOL0     H27710   3.785   0.641   3.635 -0.2449 -1.8368 -0.9123
  201MOL0     H27711   3.715   0.744   3.766  4.4467 -1.4213 -0.8241
  201MOL0     H27712   3.560   0.521   3.716 -1.8574  0.4858  2.8992
  201MOL0     H27713   3.592   0.591   3.856 -1.5838 -0.1377 -0.9845
  201MOL0     H27714   3.792   0.399   3.719  1.1525 -2.2118  1.6837
  201MOL0     H27715   3.718   0.380   3.882  0.7604  0.2739  1.4359
  201MOL0     H27716   3.858   0.554   3.977 -1.2409 -0.4066  0.9140
  201MOL0     H27717   3.913   0.598   3.815  1.0827 -0.6417  0.1000
  201MOL0     H27718   3.629   1.279   3.286 -3.2051  0.9360 -0.8973
  201MOL0     H27719   3.716   1.511   3.228 -1.8394  1.5233 -0.9498
  201MOL0     H27720   3.475   1.947   3.439  0.9632 -2.4094  1.5335
  201MOL0     H27721   3.493   2.176   3.540 -1.3802 -3.0440  0.8472
  201MOL0     H27722   2.762   2.140   3.205 -0.1900 -0.0010  2.7439
  201MOL0     H27723   2.612   2.002   3.365 -0.2551 -0.9713  1.3595
  201MOL0     H27724   2.437   1.522   3.276  0.4340  0.6881  0.4446
  201MOL0     H27725   2.326   1.311   3.389  1.0981 -0.8260  1.2418
  201MOL0     H27726   2.369   1.246   3.747 -0.9677 -0.4550 -0.0686
  201MOL0     H27727   2.301   1.404   3.778  2.7545  0.6352  0.4760
  201MOL0     H27728   2.172   1.130   3.804 -0.0737 -0.1327 -1.8264
  201MOL0     H27729   2.062   1.261   3.811  1.3207  1.0572  1.0422
  201MOL0     H27730   2.076   1.195   4.021 -0.7642 -0.0623  0.6729
  201MOL0     H27731   2.245   1.160   4.018 -2.4518 -1.5336  2.2046
  201MOL0     H27732   2.140   1.445   3.979 -0.7022  0.1939  0.4925
  201MOL0     H27733   2.301   1.400   4.033  0.2438 -1.4869  0.1967
  201MOL0     H27734   2.131   1.413   4.406 -1.1953  2.6716 -0.9395
  201MOL0     H27735   2.197   1.554   3.705 -0.4957 -0.3436 -0.0563
  201MOL0     H27736   2.356   1.855   3.605 -0.8217  2.1380  2.4801
  201MOL0     H27737   2.200   1.841   3.528  1.1784 -0.9209 -1.7866
  201MOL0     H27738   2.223   1.784   3.705  2.9497 -3.1711  1.2131
  202MOL0     O27739   3.272   6.845   2.136  0.0123  0.3959 -0.3114
  202MOL0     C27740   3.279   6.831   2.016 -0.4874  0.4021  0.4979
  202MOL0     O27741   3.282   6.713   1.953 -0.2188  0.1014  1.0249
  202MOL0     C27742   3.255   6.600   2.024  0.2058 -0.1421 -0.0190
  202MOL0     C27743   3.357   6.509   2.064 -0.3397  0.2554 -0.5705
  202MOL0     C27744   3.328   6.385   2.115  0.0771  0.4095  1.0630
  202MOL0     C27745   3.197   6.336   2.102 -1.5395  0.2669  0.1974
  202MOL0     O27746   3.172   6.202   2.130  0.5108 -0.8190  0.0477
  202MOL0     C27747   3.255   6.087   2.104  1.2140 -0.6025 -0.6478
  202MOL0     C27748   3.190   5.947   2.098 -0.1167  0.2347 -0.4379
  202MOL0     C27749   3.293   5.855   2.040 -1.0406  0.4741  0.6775
  202MOL0     C27750   3.329   5.876   1.889 -0.1177  0.7570 -0.0583
  202MOL0     C27751   3.392   5.747   1.819  0.3156 -0.3316  0.0852
  202MOL0     C27752   3.547   5.736   1.840 -0.2526  0.1175  0.6272
  202MOL0     C27753   3.594   5.634   1.742 -0.8153  0.0777 -0.2829
  202MOL0     C27754   3.746   5.615   1.750  0.1587 -0.3141 -0.3289
  202MOL0     N27755   3.799   5.519   1.655  0.7065  0.3360 -0.1717
  202MOL0     C27756   3.827   5.555   1.522  0.4914  0.9049  0.8574
  202MOL0     C27757   3.882   5.446   1.464  0.4481  0.3760 -0.7314
  202MOL0     C27758   3.935   5.445   1.321 -0.7057 -0.3935 -0.0548
  202MOL0     C27759   4.053   5.343   1.281  0.0584  0.1941  0.3830
  202MOL0     C27760   3.997   5.205   1.247  0.8006 -0.6022 -0.8114
  202MOL0     C27761   4.105   5.099   1.253  0.8540  0.2338  0.4686
  202MOL0     O27762   4.148   5.071   1.393 -0.6673  0.7476 -0.1776
  202MOL0     C27763   4.249   4.978   1.391 -0.3671 -0.8984 -0.0585
  202MOL0     C27764   4.365   4.994   1.305 -0.3777  0.6023  1.2657
  202MOL0     C27765   4.452   4.897   1.283 -0.1311 -0.0773 -0.5844
  202MOL0     C27766   4.551   4.939   1.172 -0.5165  0.0149 -0.2299
  202MOL0     C27767   4.444   4.786   1.361 -0.3049 -0.3970  0.5875
  202MOL0     C27768   4.530   4.669   1.327 -0.4999  0.1540 -0.7473
  202MOL0     O27769   4.606   4.611   1.430  0.2661 -0.4936 -0.4916
  202MOL0     C27770   4.693   4.520   1.393 -1.0698 -0.3962 -0.6732
  202MOL0     C27771   4.805   4.552   1.318 -0.0095  0.7316  0.1810
  202MOL0     C27772   4.895   4.443   1.270 -1.2688  0.6888 -1.2024
  202MOL0     C27773   4.865   4.311   1.297 -0.4970 -0.0797 -0.0970
  202MOL0     O27774   4.955   4.224   1.244  0.1158 -0.1988 -0.2475
  202MOL0     C27775   5.030   4.147   1.338 -0.6726  0.2052 -0.3244
  202MOL0     C27776   5.136   4.069   1.267 -0.6192 -0.8939  0.7268
  202MOL0     C27777   5.240   4.161   1.217 -0.9057 -0.5071  0.5254
  202MOL0     C27778   5.372   4.167   1.301  0.7984  0.4592 -0.5623
  202MOL0     C27779   5.446   4.032   1.286 -0.1933 -0.0308  0.8139
  202MOL0     C27780   5.600   4.034   1.302  0.4292 -0.5274  0.1675
  202MOL0     C27781   5.656   3.892   1.268 -0.1078 -0.1079  0.1464
  202MOL0     C27782   5.795   3.884   1.208  1.0318 -1.7302  0.0331
  202MOL0    Cl27783   5.816   3.959   1.039  0.0973  0.1645 -0.0468
  202MOL0     C27784   4.749   4.279   1.373 -0.1927  1.1546  0.1783
  202MOL0     C27785   4.661   4.383   1.422 -1.0143 -0.7404 -0.2038
  202MOL0     O27786   4.523   4.629   1.213 -0.4864 -0.5831 -0.4684
  202MOL0     C27787   4.341   4.774   1.460  0.0856 -0.2031  0.9757
  202MOL0     C27788   4.253   4.874   1.475 -0.1552  0.1095 -0.2156
  202MOL0     N27789   3.857   5.341   1.560  0.4724 -1.0063 -0.3286
  202MOL0     N27790   3.812   5.384   1.672 -1.1269 -0.0488  0.8957
  202MOL0     C27791   3.100   6.421   2.059  0.3827 -0.7426 -0.0011
  202MOL0     C27792   3.118   6.560   2.021 -0.2870  0.6415  0.3965
  202MOL0     C27793   3.268   6.946   1.921 -0.4102  0.0480 -0.0243
  202MOL0     C27794   3.275   6.915   1.783 -0.9175 -0.2886  0.9817
  202MOL0     C27795   3.267   7.007   1.675  0.4157 -0.0182  0.5605
  202MOL0     C27796   3.256   7.137   1.710 -0.3741 -0.9554 -0.7501
  202MOL0     O27797   3.256   7.230   1.613  0.3230 -0.5580 -0.7364
  202MOL0     C27798   3.170   7.345   1.633 -0.3552 -0.9007  0.0633
  202MOL0     C27799   3.126   7.417   1.504 -1.1409  0.0987 -0.3723
  202MOL0     C27800   3.061   7.558   1.535  0.2641  0.9157 -0.3003
  202MOL0     C27801   2.948   7.592   1.432 -0.5588 -0.7735 -0.8320
  202MOL0     C27802   3.019   7.634   1.308  0.9624 -0.5696  0.7706
  202MOL0     C27803   3.068   7.661   1.197  0.8303 -0.2261  0.6819
  202MOL0     C27804   3.249   7.174   1.854 -0.6718  0.2621 -0.1706
  202MOL0     C27805   3.251   7.082   1.955 -0.5968  0.6149 -0.4607
  202MOL0     C27806   3.223   7.136   2.089 -1.3617  0.1728  0.3417
  202MOL0     H27807   3.460   6.544   2.056 -0.3974 -0.0916 -4.2017
  202MOL0     H27808   3.405   6.311   2.133  0.0767  0.2225  0.3024
  202MOL0     H27809   3.329   6.088   2.184  1.0128 -3.3922 -0.3504
  202MOL0     H27810   3.296   6.096   2.003 -1.3290  0.5027 -1.6801
  202MOL0     H27811   3.171   5.910   2.199 -0.2590 -1.2900 -1.0062
  202MOL0     H27812   3.094   5.956   2.047  0.2723 -0.5351 -1.3165
  202MOL0     H27813   3.384   5.881   2.094  0.0018 -2.6032  0.6131
  202MOL0     H27814   3.270   5.753   2.071 -2.5132  1.1833  2.0988
  202MOL0     H27815   3.240   5.894   1.829 -2.0991 -0.4378  2.3092
  202MOL0     H27816   3.404   5.954   1.874 -0.8312  1.9670  2.2198
  202MOL0     H27817   3.365   5.777   1.717 -1.9764  3.7542  1.6409
  202MOL0     H27818   3.333   5.657   1.837 -2.3307  1.3366  0.2772
  202MOL0     H27819   3.597   5.828   1.808 -3.8051  1.3052 -2.1716
  202MOL0     H27820   3.555   5.713   1.946 -2.4712  1.1552  1.0798
  202MOL0     H27821   3.571   5.669   1.641  4.1287  2.0724 -1.0384
  202MOL0     H27822   3.546   5.537   1.755  0.8778 -0.9135 -0.9871
  202MOL0     H27823   3.791   5.715   1.739 -2.8515  1.3266  1.1065
  202MOL0     H27824   3.767   5.580   1.851 -1.3074  2.3124  0.9810
  202MOL0     H27825   3.809   5.652   1.476 -1.2111  1.0727  1.7866
  202MOL0     H27826   3.983   5.542   1.308  0.5024 -1.0185 -0.3421
  202MOL0     H27827   3.852   5.439   1.250 -0.4177  3.0842 -0.8845
  202MOL0     H27828   4.126   5.392   1.215  1.8781  0.3749  2.4146
  202MOL0     H27829   4.109   5.334   1.375  0.3277  1.8204  0.4184
  202MOL0     H27830   3.909   5.193   1.310  1.4078  3.9648  1.3082
  202MOL0     H27831   3.972   5.215   1.141  1.4476 -0.1198 -0.9313
  202MOL0     H27832   4.052   5.014   1.209  1.2379  0.4176 -0.3657
  202MOL0     H27833   4.178   5.119   1.174  0.7910  4.4196  1.2138
  202MOL0     H27834   4.375   5.084   1.246 -3.5663  0.5180  0.3941
  202MOL0     H27835   4.494   4.971   1.084 -0.2688  0.4713 -0.2290
  202MOL0     H27836   4.615   4.857   1.138 -0.2999  1.1625 -2.8733
  202MOL0     H27837   4.607   5.021   1.218 -0.5542 -0.0815 -0.0113
  202MOL0     H27838   4.822   4.649   1.272 -1.0976  0.4399 -0.8874
  202MOL0     H27839   4.978   4.479   1.209 -0.1278  1.8259  0.9174
  202MOL0     H27840   5.061   4.203   1.427 -0.0216  0.5582 -0.7654
  202MOL0     H27841   4.964   4.069   1.377  0.8910 -0.0496  2.0582
  202MOL0     H27842   5.173   3.988   1.332 -0.1814  0.8132  2.7429
  202MOL0     H27843   5.090   4.017   1.183 -1.3633 -2.3163  1.9473
  202MOL0     H27844   5.198   4.260   1.199 -2.6651 -1.8528 -4.2931
  202MOL0     H27845   5.268   4.130   1.116  0.3080  3.2661 -0.4682
  202MOL0     H27846   5.344   4.186   1.406 -1.5625  0.1884 -1.0727
  202MOL0     H27847   5.435   4.251   1.272 -0.3140  1.5755  0.1074
  202MOL0     H27848   5.416   3.946   1.346  0.3082 -0.6923  0.1192
  202MOL0     H27849   5.421   3.992   1.188  0.2301  1.0347  0.2573
  202MOL0     H27850   5.626   4.068   1.402 -1.6565  0.9640  0.2562
  202MOL0     H27851   5.647   4.094   1.224  0.4552  1.6462  1.7875
  202MOL0     H27852   5.592   3.851   1.188 -0.1528 -2.2259  1.1912
  202MOL0     H27853   5.655   3.832   1.360  3.1584  0.4337  0.6423
  202MOL0     H27854   5.816   3.777   1.202 -2.2861 -2.4591 -0.7004
  202MOL0     H27855   5.866   3.930   1.277  1.8764 -0.1493 -1.8008
  202MOL0     H27856   4.732   4.174   1.392 -2.3314  0.9614 -2.2247
  202MOL0     H27857   4.566   4.350   1.463 -2.2213  0.0177 -2.2631
  202MOL0     H27858   4.320   4.687   1.523 -1.6829  0.0680  0.8200
  202MOL0     H27859   4.167   4.850   1.536 -1.0719 -0.4450 -1.6780
  202MOL0     H27860   2.995   6.392   2.064  0.4660 -0.8822  2.1820
  202MOL0     H27861   3.049   6.628   1.972  0.7622  0.6656 -1.1295
  202MOL0     H27862   3.287   6.818   1.737  3.7168  0.9966 -1.2028
  202MOL0     H27863   3.283   6.979   1.571 -1.0362  2.0192 -0.2744
  202MOL0     H27864   3.083   7.322   1.695 -1.3425 -1.2053 -1.3763
  202MOL0     H27865   3.226   7.415   1.695  0.5740 -1.9557  0.4490
  202MOL0     H27866   3.049   7.356   1.455 -0.8961 -0.5893  0.0928
  202MOL0     H27867   3.214   7.427   1.440  2.4940  0.1137  4.1145
  202MOL0     H27868   3.009   7.554   1.631  1.4401  2.2187  0.4198
  202MOL0     H27869   3.138   7.635   1.529  2.4468 -1.1743 -0.5837
  202MOL0     H27870   2.891   7.676   1.474 -0.5306  0.5155 -3.1809
  202MOL0     H27871   2.871   7.521   1.402 -4.2871  3.1387 -1.5756
  202MOL0     H27872   3.097   7.685   1.097 -1.2398 -1.5533 -0.3245
  202MOL0     H27873   3.226   7.276   1.886  0.1876  1.0563 -1.9508
  202MOL0     H27874   3.122   7.102   2.114 -1.7317 -0.6782 -2.0697
  202MOL0     H27875   3.301   7.105   2.160 -1.2336  1.9563  1.0335
  202MOL0     H27876   3.221   7.245   2.084  0.4841  0.2069 -0.5015
  203MOL0     O27877   9.077   1.987  10.815 -0.4714 -0.8023 -0.6427
  203MOL0     C27878   9.020   1.897  10.760 -0.0358 -0.2687 -0.0341
  203MOL0     O27879   8.881   1.871  10.773 -0.5314 -1.2963  0.6477
  203MOL0     C27880   8.797   1.971  10.823 -1.3121 -0.1961 -0.4817
  203MOL0     C27881   8.695   1.928  10.905 -0.0466  0.2011 -0.3713
  203MOL0     C27882   8.614   2.021  10.968  0.8314 -1.1377  0.2186
  203MOL0     C27883   8.616   2.153  10.929 -0.0484 -0.8173  0.5539
  203MOL0     O27884   8.528   2.241  10.983  0.0938 -0.7746  0.4263
  203MOL0     C27885   8.541   2.385  10.966 -0.4795  0.1365 -0.6525
  203MOL0     C27886   8.433   2.463  11.054  0.5259 -0.2362  0.9931
  203MOL0     C27887   8.465   2.425  11.194 -0.0521  0.1854 -0.2128
  203MOL0     C27888   8.399   2.516  11.303 -0.9453 -0.6488  0.1093
  203MOL0     C27889   8.475   2.644  11.331 -0.5745  0.1456  0.3615
  203MOL0     C27890   8.424   2.727  11.450 -0.0895  0.3632 -0.5790
  203MOL0     C27891   8.530   2.765  11.549 -0.6196 -0.1623 -1.5871
  203MOL0     C27892   8.463   2.843  11.667  0.0316  0.5446 -0.1458
  203MOL0     N27893   8.367   2.959  11.642 -1.0569  0.2378  1.8263
  203MOL0     C27894   8.406   3.095  11.644 -0.1113 -0.8492  0.9501
  203MOL0     C27895   8.287   3.166  11.613  0.3740  0.4761 -0.3534
  203MOL0     C27896   8.269   3.315  11.603  0.2942 -0.0951 -1.4356
  203MOL0     C27897   8.163   3.365  11.714 -1.4609  0.1077  0.5312
  203MOL0     C27898   8.058   3.458  11.658  0.2055  0.2828  0.4343
  203MOL0     C27899   7.990   3.538  11.762  1.0048  0.3404  0.3752
  203MOL0     O27900   7.885   3.604  11.686 -0.0167 -0.9627  0.1436
  203MOL0     C27901   7.822   3.711  11.739  0.0164 -0.0864 -0.4049
  203MOL0     C27902   7.699   3.745  11.677 -0.2255  0.2902 -0.0565
  203MOL0     C27903   7.617   3.845  11.731  0.3365 -1.1274  0.5016
  203MOL0     C27904   7.494   3.890  11.648  0.7482 -0.6965  0.5204
  203MOL0     C27905   7.644   3.902  11.861  0.0611 -0.5969 -0.2754
  203MOL0     C27906   7.542   3.980  11.932 -0.1256  0.0255 -0.3138
  203MOL0     O27907   7.554   3.994  12.073  0.2624 -0.1464  1.0413
  203MOL0     C27908   7.465   4.081  12.131  1.4366 -0.3630 -0.7539
  203MOL0     C27909   7.390   4.022  12.234  0.1169  0.0111 -0.4483
  203MOL0     C27910   7.313   4.093  12.325 -0.4797  0.1184  0.3165
  203MOL0     C27911   7.323   4.231  12.325  0.3894  0.4266  0.1750
  203MOL0     O27912   7.235   4.292  12.408  0.3370  0.3083  0.2105
  203MOL0     C27913   7.215   4.434  12.387 -0.1452 -1.1463 -0.6031
  203MOL0     C27914   7.094   4.464  12.469 -0.9286 -0.1332 -0.9005
  203MOL0     C27915   7.117   4.610  12.496  0.5342 -0.3581 -0.5496
  203MOL0     C27916   6.990   4.671  12.556  0.1455  0.1564 -1.0552
  203MOL0     C27917   6.946   4.609  12.689 -0.8072 -0.8692  1.0921
  203MOL0     C27918   7.063   4.607  12.790  0.7249  0.1128  0.0942
  203MOL0     C27919   7.005   4.636  12.939 -0.2394  0.5500  0.2565
  203MOL0     C27920   7.110   4.669  13.045 -0.9068 -0.2927 -0.9303
  203MOL0    Cl27921   7.055   4.598  13.208  0.0984 -0.4426  0.3975
  203MOL0     C27922   7.399   4.297  12.225 -0.0519 -0.7944  0.1079
  203MOL0     C27923   7.473   4.219  12.134 -0.0255  0.1837  0.5051
  203MOL0     O27924   7.467   4.053  11.868  0.2395  0.1395  1.5032
  203MOL0     C27925   7.763   3.858  11.923 -1.3328  0.7180  0.7933
  203MOL0     C27926   7.854   3.766  11.860 -0.2003 -0.9345 -0.5616
  203MOL0     N27927   8.187   3.075  11.597  0.5878 -0.0915  0.0803
  203MOL0     N27928   8.232   2.952  11.608  0.5548 -0.0710  0.9167
  203MOL0     C27929   8.704   2.190  10.827  0.1018  1.0542  0.9877
  203MOL0     C27930   8.798   2.104  10.777  0.2682  0.2082 -0.5132
  203MOL0     C27931   9.101   1.794  10.698 -0.9884 -0.3903  0.3073
  203MOL0     C27932   9.048   1.664  10.697 -0.3624 -0.3962  0.2731
  203MOL0     C27933   9.124   1.559  10.639  0.5401  0.1082 -0.4249
  203MOL0     C27934   9.250   1.576  10.586  0.1301  0.2524  0.1866
  203MOL0     O27935   9.323   1.476  10.524 -0.0486 -0.0910 -0.3042
  203MOL0     C27936   9.263   1.344  10.507 -0.1330  0.0235  0.9607
  203MOL0     C27937   9.187   1.339  10.369  0.2579  0.4476  1.2366
  203MOL0     C27938   9.261   1.408  10.261  0.0027 -0.2327  0.7688
  203MOL0     C27939   9.399   1.345  10.218 -0.1156  0.3137 -0.3694
  203MOL0     C27940   9.396   1.239  10.108  0.1666 -0.2227 -0.3787
  203MOL0     C27941   9.413   1.153  10.023  0.7727 -0.3707 -0.1502
  203MOL0     C27942   9.306   1.696  10.599 -0.5041 -0.6869 -1.0703
  203MOL0     C27943   9.241   1.805  10.655 -0.0132 -0.1036  0.4794
  203MOL0     C27944   9.321   1.933  10.663 -0.2072 -0.2564 -0.7141
  203MOL0     H27945   8.691   1.820  10.915 -3.8878  0.2901  0.3315
  203MOL0     H27946   8.562   1.983  11.056  0.7914 -2.1541 -0.2263
  203MOL0     H27947   8.533   2.418  10.862 -1.9155  1.8085 -0.0584
  203MOL0     H27948   8.641   2.420  10.993  0.3925 -2.4787 -0.2666
  203MOL0     H27949   8.446   2.567  11.025  2.3799 -0.1952  1.8346
  203MOL0     H27950   8.335   2.430  11.018  0.3693  1.3361 -0.1249
  203MOL0     H27951   8.419   2.326  11.199 -0.6455  0.5085  1.6913
  203MOL0     H27952   8.572   2.435  11.213 -0.9034  4.1268  5.2671
  203MOL0     H27953   8.290   2.531  11.296 -1.3479 -3.2889 -0.1260
  203MOL0     H27954   8.420   2.461  11.396 -0.9137  0.0964  0.5547
  203MOL0     H27955   8.473   2.712  11.245  0.1386 -0.1105  0.1311
  203MOL0     H27956   8.580   2.626  11.355 -0.7305 -1.5361 -0.1025
  203MOL0     H27957   8.351   2.804  11.421 -1.2663 -0.8980 -1.1228
  203MOL0     H27958   8.366   2.664  11.519  0.3532 -0.4778 -0.9604
  203MOL0     H27959   8.600   2.822  11.487 -0.0379  0.5139 -0.3617
  203MOL0     H27960   8.584   2.675  11.580 -0.5756 -0.0685 -1.3864
  203MOL0     H27961   8.416   2.765  11.728  0.1249 -0.5432 -1.4124
  203MOL0     H27962   8.538   2.887  11.733 -0.6881 -2.3326  2.8517
  203MOL0     H27963   8.498   3.148  11.662  0.6159 -0.9305 -2.0712
  203MOL0     H27964   8.223   3.343  11.508  0.9397  2.1621 -1.1215
  203MOL0     H27965   8.369   3.358  11.603  0.7348 -1.0451 -0.2266
  203MOL0     H27966   8.115   3.275  11.752  1.3731 -1.5856  0.3549
  203MOL0     H27967   8.220   3.415  11.793 -1.0438  0.0550  0.2691
  203MOL0     H27968   8.097   3.535  11.591  0.1813 -0.3800 -0.3576
  203MOL0     H27969   7.980   3.394  11.618  0.3818  0.9396 -1.0089
  203MOL0     H27970   7.942   3.471  11.833 -0.6585  2.5720  1.4622
  203MOL0     H27971   8.067   3.591  11.820  2.5749 -3.5962  2.3030
  203MOL0     H27972   7.670   3.695  11.585  4.4654 -1.8821 -0.6463
  203MOL0     H27973   7.490   3.847  11.547  0.8282 -2.4501  1.2386
  203MOL0     H27974   7.489   3.999  11.640 -0.9127 -0.7997 -0.4137
  203MOL0     H27975   7.401   3.863  11.699 -1.1881  2.2384 -1.1878
  203MOL0     H27976   7.383   3.914  12.224  0.8244 -0.4345  2.7753
  203MOL0     H27977   7.253   4.045  12.402 -1.4452 -0.7761 -0.9585
  203MOL0     H27978   7.309   4.481  12.420  0.7906 -2.5339 -1.1718
  203MOL0     H27979   7.184   4.474  12.290 -2.2815  0.5936  0.7208
  203MOL0     H27980   6.998   4.447  12.420 -2.0454  1.5893  0.5557
  203MOL0     H27981   7.093   4.416  12.567 -1.1174  1.6580  0.0185
  203MOL0     H27982   7.153   4.671  12.413  1.4254  2.2686  1.6439
  203MOL0     H27983   7.196   4.615  12.571 -0.7933 -1.8869  1.0449
  203MOL0     H27984   6.901   4.682  12.493  0.1791  0.6725 -1.0205
  203MOL0     H27985   7.020   4.770  12.591 -0.6808 -0.8241  2.8333
  203MOL0     H27986   6.857   4.659  12.726 -0.5242  3.1458 -2.7942
  203MOL0     H27987   6.930   4.501  12.685  0.9086 -1.1288 -0.2356
  203MOL0     H27988   7.141   4.677  12.760  1.0696  0.5899  1.9948
  203MOL0     H27989   7.111   4.508  12.792 -0.1060 -0.4157 -2.5653
  203MOL0     H27990   6.958   4.546  12.978 -1.3465  0.1147 -1.9178
  203MOL0     H27991   6.934   4.718  12.923  0.5565  0.5583 -4.7933
  203MOL0     H27992   7.112   4.777  13.058  0.1127 -0.3035 -0.9540
  203MOL0     H27993   7.207   4.634  13.009 -1.3215 -1.2789 -1.1505
  203MOL0     H27994   7.400   4.405  12.221  0.9894 -0.7218  1.5836
  203MOL0     H27995   7.545   4.256  12.062 -0.0039 -2.6844 -1.1058
  203MOL0     H27996   7.799   3.902  12.016  1.2669  0.3708  0.0241
  203MOL0     H27997   7.957   3.756  11.893  0.3570 -0.6741 -2.1748
  203MOL0     H27998   8.705   2.287  10.778 -2.6104  0.0163 -1.3998
  203MOL0     H27999   8.875   2.121  10.702 -2.4159  2.0974 -3.0802
  203MOL0     H28000   8.958   1.653  10.756 -0.7261  2.8422  0.5174
  203MOL0     H28001   9.068   1.466  10.629 -0.3462  0.5602  0.2509
  203MOL0     H28002   9.350   1.280  10.490  0.9872  1.9827 -1.3724
  203MOL0     H28003   9.195   1.308  10.584 -0.8485 -0.5351  0.0876
  203MOL0     H28004   9.090   1.388  10.375 -0.5486 -0.3128 -2.7382
  203MOL0     H28005   9.171   1.236  10.334  0.3136 -0.1741  2.9048
  203MOL0     H28006   9.197   1.429  10.175  1.1203  2.1250  0.4328
  203MOL0     H28007   9.292   1.508  10.292 -1.8101  0.5864  0.0805
  203MOL0     H28008   9.441   1.302  10.310  3.0348  1.2082 -1.2741
  203MOL0     H28009   9.460   1.427  10.182 -1.6448  1.7121  0.0717
  203MOL0     H28010   9.430   1.063   9.968  2.2654 -0.4201  0.3449
  203MOL0     H28011   9.409   1.703  10.566 -0.6315 -0.4144 -1.4166
  203MOL0     H28012   9.425   1.917  10.631  0.6749 -0.0542  1.7731
  203MOL0     H28013   9.277   2.016  10.608 -2.0251 -0.6884  0.0162
  203MOL0     H28014   9.312   1.959  10.769  0.2570  0.7093 -0.8953
  204MOL0     O28015   5.955   1.797   3.546  0.6481  0.3445  0.2771
  204MOL0     C28016   6.006   1.761   3.648  0.1862  0.9391 -0.1106
  204MOL0     O28017   6.090   1.653   3.661 -0.5625  0.5584  0.5228
  204MOL0     C28018   6.127   1.578   3.553  0.6288 -0.1893 -0.6623
  204MOL0     C28019   6.147   1.621   3.413  0.7483  0.0920 -0.4859
  204MOL0     C28020   6.181   1.531   3.318 -0.4637 -0.6363 -0.2820
  204MOL0     C28021   6.224   1.408   3.355 -0.5191  0.0084 -0.5295
  204MOL0     O28022   6.282   1.324   3.267  0.1281  0.5424 -0.8475
  204MOL0     C28023   6.377   1.374   3.167 -0.0929  0.5721  0.0135
  204MOL0     C28024   6.507   1.331   3.215 -0.6092 -0.4939 -0.3655
  204MOL0     C28025   6.562   1.425   3.323 -0.2041  0.7530  1.1276
  204MOL0     C28026   6.657   1.538   3.266  0.2547 -1.1778  0.2220
  204MOL0     C28027   6.660   1.652   3.368 -0.1728 -1.2859 -0.0636
  204MOL0     C28028   6.747   1.766   3.322 -0.1037  0.0696 -0.6078
  204MOL0     C28029   6.785   1.868   3.428 -0.3889  0.3281  0.1611
  204MOL0     C28030   6.678   1.944   3.503 -0.7062  0.2423  0.4960
  204MOL0     N28031   6.602   2.034   3.421  0.0590  0.1436  0.0471
  204MOL0     C28032   6.494   1.993   3.342 -0.3074 -0.1884 -0.3997
  204MOL0     C28033   6.420   2.108   3.317 -0.2542 -0.0830  0.3292
  204MOL0     C28034   6.309   2.111   3.221  0.6752 -0.0466  0.9586
  204MOL0     C28035   6.182   2.048   3.283  0.2086 -0.2246  0.8201
  204MOL0     C28036   6.097   2.151   3.355 -0.4937  0.0060 -0.2804
  204MOL0     C28037   6.000   2.080   3.445 -0.0930 -0.4682 -0.5353
  204MOL0     O28038   5.908   2.173   3.477  0.1407 -0.7348  0.2964
  204MOL0     C28039   5.791   2.185   3.405 -0.5964 -0.5366  0.4495
  204MOL0     C28040   5.722   2.082   3.349  0.6131  0.8207 -0.2125
  204MOL0     C28041   5.602   2.103   3.287 -0.8813 -0.0341  0.3239
  204MOL0     C28042   5.528   1.985   3.225 -0.6971  1.0040  0.7841
  204MOL0     C28043   5.544   2.230   3.284  0.4411 -0.5037  0.1715
  204MOL0     C28044   5.417   2.265   3.217 -0.2291  0.5286  0.9336
  204MOL0     O28045   5.341   2.367   3.262  0.2590 -0.2400 -0.2975
  204MOL0     C28046   5.219   2.392   3.206 -0.3104  0.1043 -0.0276
  204MOL0     C28047   5.190   2.521   3.150 -0.2159  0.1356  0.4973
  204MOL0     C28048   5.067   2.539   3.089 -0.8227 -0.1597  0.9577
  204MOL0     C28049   4.972   2.442   3.083  0.6733 -0.6333 -0.0153
  204MOL0     O28050   4.863   2.470   3.001  0.2717  0.0083 -0.2295
  204MOL0     C28051   4.834   2.382   2.892 -0.1950 -0.5235 -0.0532
  204MOL0     C28052   4.855   2.479   2.776 -0.2623  0.4508  0.3361
  204MOL0     C28053   4.799   2.415   2.644 -0.1741  0.5662 -0.3430
  204MOL0     C28054   4.832   2.505   2.525 -0.4148  0.7651  0.9700
  204MOL0     C28055   4.728   2.486   2.408 -0.5667 -0.5954 -0.2359
  204MOL0     C28056   4.743   2.350   2.340 -0.2847 -0.0581 -0.2100
  204MOL0     C28057   4.604   2.310   2.283  0.7933 -0.7251 -0.1642
  204MOL0     C28058   4.598   2.166   2.229  0.2636 -0.2532  0.7780
  204MOL0    Cl28059   4.460   2.143   2.118 -0.5936 -0.5836 -0.1011
  204MOL0     C28060   5.000   2.316   3.138  0.1580 -0.3248  0.0587
  204MOL0     C28061   5.124   2.290   3.194 -1.0060  0.3346 -0.8727
  204MOL0     O28062   5.393   2.210   3.106 -0.3722  0.2089 -0.2549
  204MOL0     C28063   5.613   2.339   3.344  1.3145  0.8605  0.2425
  204MOL0     C28064   5.729   2.305   3.411 -1.3122 -1.5582  0.4227
  204MOL0     N28065   6.500   2.207   3.374 -0.4305  0.0131 -0.3626
  204MOL0     N28066   6.607   2.168   3.438  0.8563  0.1484 -0.3901
  204MOL0     C28067   6.185   1.363   3.476  0.9219  0.1207 -0.2142
  204MOL0     C28068   6.133   1.446   3.583 -0.0992 -0.7341 -0.5254
  204MOL0     C28069   5.945   1.823   3.772 -0.3817  0.1911 -0.5689
  204MOL0     C28070   5.833   1.909   3.765 -1.0380 -0.5257 -0.1707
  204MOL0     C28071   5.776   1.977   3.875 -0.2359  0.5620 -0.0400
  204MOL0     C28072   5.810   1.936   4.008 -0.3207 -0.6085 -0.1269
  204MOL0     O28073   5.744   1.999   4.112 -0.2834  0.4967  0.7236
  204MOL0     C28074   5.695   1.918   4.227  0.5267 -0.7541 -0.3827
  204MOL0     C28075   5.551   1.895   4.205  0.0791  0.2214 -0.8168
  204MOL0     C28076   5.466   2.010   4.269 -0.3830 -0.6286  0.1269
  204MOL0     C28077   5.318   2.010   4.234 -0.3026  0.2523 -0.1257
  204MOL0     C28078   5.303   2.112   4.130 -0.3214  0.2251  0.3429
  204MOL0     C28079   5.278   2.197   4.048  0.3949  0.6448  0.0357
  204MOL0     C28080   5.926   1.850   4.021  0.3340 -0.5721  0.1190
  204MOL0     C28081   5.992   1.799   3.903 -0.2721  0.0045 -0.6250
  204MOL0     C28082   6.128   1.733   3.936  0.9312 -0.5603 -0.9040
  204MOL0     H28083   6.132   1.725   3.388  1.2490  0.3101  0.0941
  204MOL0     H28084   6.192   1.579   3.222 -0.9509 -0.1664 -0.1102
  204MOL0     H28085   6.368   1.481   3.149  0.4706  0.1444 -3.4332
  204MOL0     H28086   6.350   1.328   3.071 -1.9417  1.3698  0.1053
  204MOL0     H28087   6.505   1.237   3.272 -2.1307 -0.1985  0.1076
  204MOL0     H28088   6.577   1.333   3.131  2.0706  2.3075  1.6859
  204MOL0     H28089   6.485   1.472   3.385 -0.0211  1.1821  1.0336
  204MOL0     H28090   6.624   1.370   3.395  3.7161  0.4377 -2.1607
  204MOL0     H28091   6.758   1.498   3.250  0.6403  0.4676 -2.0175
  204MOL0     H28092   6.623   1.573   3.168  1.6784 -1.6627 -0.4831
  204MOL0     H28093   6.684   1.615   3.469 -1.0604 -2.4245 -0.2404
  204MOL0     H28094   6.561   1.696   3.382  0.1518 -0.7714  0.6543
  204MOL0     H28095   6.848   1.730   3.298 -0.0410  1.0890 -1.9681
  204MOL0     H28096   6.710   1.817   3.233 -0.1566  0.0605 -0.5909
  204MOL0     H28097   6.855   1.941   3.384 -1.4289  2.2573  1.5516
  204MOL0     H28098   6.852   1.822   3.501 -0.9496  2.6043  2.2311
  204MOL0     H28099   6.610   1.879   3.559  1.2813 -2.3293  0.1058
  204MOL0     H28100   6.732   1.999   3.580 -2.0462  0.3681  1.3801
  204MOL0     H28101   6.487   1.893   3.302  4.6210 -0.7963 -0.4317
  204MOL0     H28102   6.342   2.053   3.135  2.9956  0.1075  1.6827
  204MOL0     H28103   6.295   2.217   3.197  3.4010  0.1491 -0.1413
  204MOL0     H28104   6.116   2.004   3.208  1.3280 -4.9340  2.2816
  204MOL0     H28105   6.212   1.957   3.336 -1.3517  0.0344  2.2028
  204MOL0     H28106   6.163   2.212   3.418  1.4495 -0.2562 -1.9265
  204MOL0     H28107   6.042   2.209   3.281 -0.0216  0.7847 -0.0359
  204MOL0     H28108   5.954   1.994   3.393 -1.9353  1.1393 -1.7143
  204MOL0     H28109   6.044   2.052   3.541 -1.7528  0.0392  0.4077
  204MOL0     H28110   5.755   1.979   3.357 -2.7357 -0.2867  1.0527
  204MOL0     H28111   5.425   1.980   3.261 -1.2341  0.2212 -0.7840
  204MOL0     H28112   5.585   1.892   3.232  0.8410  1.8328 -0.0751
  204MOL0     H28113   5.520   2.001   3.117  0.1344  0.5777  0.6494
  204MOL0     H28114   5.260   2.604   3.152  0.8775 -0.4925 -3.3464
  204MOL0     H28115   5.046   2.639   3.052  0.1760 -0.9319 -1.9561
  204MOL0     H28116   4.901   2.297   2.880 -0.7269 -0.8815 -0.5448
  204MOL0     H28117   4.728   2.354   2.890 -0.2958 -0.7298 -5.0430
  204MOL0     H28118   4.801   2.570   2.804  2.7314  1.8668  1.9574
  204MOL0     H28119   4.959   2.501   2.752 -0.2108 -1.2848 -1.3057
  204MOL0     H28120   4.692   2.397   2.654 -0.3892  1.5220 -0.7525
  204MOL0     H28121   4.851   2.319   2.632 -1.2605 -0.3863  2.1256
  204MOL0     H28122   4.934   2.506   2.486 -0.5924  1.6825  0.5055
  204MOL0     H28123   4.816   2.608   2.559 -0.6602  1.0022  0.1664
  204MOL0     H28124   4.629   2.498   2.451 -0.3394  1.3497 -0.1773
  204MOL0     H28125   4.731   2.574   2.344 -1.1151  0.1025  0.6813
  204MOL0     H28126   4.775   2.276   2.414 -0.1241  0.7880  0.5945
  204MOL0     H28127   4.813   2.361   2.257  2.5633 -3.4464  1.5121
  204MOL0     H28128   4.586   2.373   2.196 -2.1019 -0.1762  0.7003
  204MOL0     H28129   4.522   2.327   2.354  0.6843 -0.6329 -0.3108
  204MOL0     H28130   4.580   2.092   2.308 -1.3321 -1.2237 -0.4252
  204MOL0     H28131   4.692   2.140   2.181  0.4189  2.4467 -0.5344
  204MOL0     H28132   4.916   2.249   3.123 -0.4323  1.0296 -3.9625
  204MOL0     H28133   5.146   2.191   3.234 -0.5838  1.0710  0.7995
  204MOL0     H28134   5.570   2.439   3.345 -0.7744  0.0106  0.4483
  204MOL0     H28135   5.785   2.390   3.447  3.2008 -2.9432 -2.4511
  204MOL0     H28136   6.187   1.254   3.477  1.1578  0.0370 -2.9229
  204MOL0     H28137   6.107   1.402   3.679 -0.5466  2.2533  0.8307
  204MOL0     H28138   5.799   1.946   3.669  2.2200  2.6987 -0.3032
  204MOL0     H28139   5.687   2.037   3.867  0.1536  1.0034 -1.2541
  204MOL0     H28140   5.755   1.826   4.231  1.0461 -0.3646  1.9329
  204MOL0     H28141   5.710   1.976   4.318  2.4441  0.3987 -1.3709
  204MOL0     H28142   5.524   1.805   4.260 -1.0695 -0.1369 -1.9263
  204MOL0     H28143   5.542   1.881   4.097 -0.1027  3.1637 -1.2845
  204MOL0     H28144   5.473   2.004   4.378 -1.6530  0.1824  0.2820
  204MOL0     H28145   5.514   2.108   4.258 -0.4083 -0.3330  2.2403
  204MOL0     H28146   5.248   2.023   4.317 -2.3728 -0.6773 -1.6671
  204MOL0     H28147   5.286   1.913   4.197 -1.2703  1.5164 -2.8478
  204MOL0     H28148   5.262   2.270   3.971  1.6029  0.7486 -0.1385
  204MOL0     H28149   5.970   1.824   4.117  2.2383 -0.0106 -0.5517
  204MOL0     H28150   6.122   1.625   3.916  0.1294 -0.5876 -0.5533
  204MOL0     H28151   6.212   1.767   3.875  0.3600 -3.9690 -3.9514
  204MOL0     H28152   6.143   1.755   4.042 -0.3497  1.4369 -1.0680
  205MOL0     O28153   3.432   7.758   2.043 -0.4555  0.2249  0.2963
  205MOL0     C28154   3.453   7.700   2.145  0.2030 -0.1119  0.1048
  205MOL0     O28155   3.567   7.722   2.221  0.9097 -0.1923  0.2503
  205MOL0     C28156   3.635   7.846   2.190 -0.0006  0.3751 -1.0116
  205MOL0     C28157   3.578   7.974   2.206 -0.0612 -1.1443  0.6356
  205MOL0     C28158   3.656   8.088   2.186 -0.0514  1.5202  0.0710
  205MOL0     C28159   3.794   8.080   2.130  1.1541  1.0924  0.1724
  205MOL0     O28160   3.870   8.181   2.075  0.2081  0.3790 -0.1294
  205MOL0     C28161   3.821   8.311   2.105 -0.3694 -0.4624  0.5731
  205MOL0     C28162   3.914   8.403   2.028 -0.1455 -0.9983  0.0447
  205MOL0     C28163   3.860   8.535   1.990  1.1422  0.4842 -0.3875
  205MOL0     C28164   3.960   8.644   1.961 -0.6049  0.6161 -0.3830
  205MOL0     C28165   3.887   8.756   1.887  0.7433 -0.8408 -0.1468
  205MOL0     C28166   3.985   8.854   1.827 -0.1993 -0.1664 -0.6493
  205MOL0     C28167   3.914   8.985   1.784 -0.0924  0.4304  0.7855
  205MOL0     C28168   3.885   8.964   1.634 -0.4774  0.3572 -0.3166
  205MOL0     N28169   3.804   9.064   1.566  0.1119 -0.8356 -0.7703
  205MOL0     C28170   3.669   9.037   1.531 -0.0092 -0.6193 -0.1795
  205MOL0     C28171   3.631   9.154   1.474  0.2988  0.4331  0.0328
  205MOL0     C28172   3.485   9.173   1.437 -1.2544  1.0377 -0.3506
  205MOL0     C28173   3.485   9.228   1.293  0.4088  0.3501  0.4700
  205MOL0     C28174   3.494   9.103   1.194 -0.1941 -1.3077 -0.0543
  205MOL0     C28175   3.489   9.138   1.045 -0.3253 -0.6174 -1.5545
  205MOL0     O28176   3.368   9.206   1.027 -0.4304  0.1947 -0.1804
  205MOL0     C28177   3.317   9.219   0.906 -0.3213  0.3622 -0.0411
  205MOL0     C28178   3.384   9.202   0.779  0.8218  0.0904  0.6236
  205MOL0     C28179   3.327   9.244   0.659  0.8136  0.1085  0.3292
  205MOL0     C28180   3.427   9.275   0.548 -0.2354 -0.4818 -0.7323
  205MOL0     C28181   3.193   9.282   0.656  0.0331 -0.9466 -0.7884
  205MOL0     C28182   3.145   9.330   0.525 -0.9203  0.2670 -0.6399
  205MOL0     O28183   3.208   9.444   0.470 -0.1198 -0.2973 -0.5698
  205MOL0     C28184   3.165   9.487   0.345  0.3057 -0.6732 -0.2998
  205MOL0     C28185   3.030   9.532   0.349 -0.3927  0.5917 -1.1367
  205MOL0     C28186   2.969   9.556   0.230  0.0523 -0.6125 -0.4313
  205MOL0     C28187   3.031   9.547   0.105 -0.4301  0.0399  0.1168
  205MOL0     O28188   2.963   9.585  -0.014 -0.2855 -0.3612 -0.3137
  205MOL0     C28189   2.992   9.517  -0.141 -0.6671  0.3768 -0.6858
  205MOL0     C28190   2.879   9.511  -0.243  0.2114  0.6527 -0.9471
  205MOL0     C28191   2.839   9.654  -0.298  0.1513 -1.2716  0.3217
  205MOL0     C28192   2.692   9.691  -0.264  0.5206 -1.0506  0.1346
  205MOL0     C28193   2.665   9.706  -0.112 -0.2679  0.2706  0.3039
  205MOL0     C28194   2.708   9.844  -0.054  0.5550 -0.2427  0.3541
  205MOL0     C28195   2.640   9.852   0.085  0.0076 -0.0946  0.2296
  205MOL0     C28196   2.567   9.990   0.097 -0.9781 -0.2111 -0.2664
  205MOL0    Cl28197   2.418   9.962  -0.008 -0.1714  0.5314 -0.2323
  205MOL0     C28198   3.166   9.515   0.106 -0.2548 -0.1586 -0.2054
  205MOL0     C28199   3.230   9.484   0.219 -0.7492  0.1578 -0.3096
  205MOL0     O28200   3.073   9.250   0.467  0.1963 -0.1578  0.2251
  205MOL0     C28201   3.124   9.286   0.779  0.5777  0.1226 -0.4505
  205MOL0     C28202   3.186   9.269   0.906 -0.1188 -0.5702  0.4526
  205MOL0     N28203   3.740   9.242   1.458  0.0047  0.2706  0.0952
  205MOL0     N28204   3.844   9.192   1.525  0.5325 -0.3213 -0.6717
  205MOL0     C28205   3.842   7.952   2.106  0.0712 -0.3392 -0.5589
  205MOL0     C28206   3.769   7.834   2.147 -0.1724  0.5879  0.0574
  205MOL0     C28207   3.362   7.596   2.206  0.4211 -0.5085  0.4045
  205MOL0     C28208   3.390   7.532   2.320 -0.4320  0.8148 -0.4372
  205MOL0     C28209   3.303   7.454   2.402  0.4640 -0.3673 -0.4273
  205MOL0     C28210   3.175   7.417   2.344 -1.0669 -0.0726  0.4421
  205MOL0     O28211   3.085   7.338   2.407 -0.0309  0.9505 -0.8008
  205MOL0     C28212   3.109   7.295   2.546 -0.2807  0.7787 -0.0644
  205MOL0     C28213   2.989   7.335   2.641  0.6863 -0.0357  0.7256
  205MOL0     C28214   2.947   7.486   2.623 -0.4710 -1.1506 -0.6668
  205MOL0     C28215   2.885   7.539   2.746 -0.1003  0.1312 -0.3509
  205MOL0     C28216   2.976   7.605   2.846 -0.4634 -1.1623 -0.3494
  205MOL0     C28217   3.037   7.633   2.947  0.9431  0.0905 -0.5335
  205MOL0     C28218   3.153   7.460   2.209  1.0511  0.5174 -0.3841
  205MOL0     C28219   3.242   7.550   2.139 -0.9031 -0.4133  0.1693
  205MOL0     C28220   3.195   7.586   1.998  1.0765  0.5152  0.4350
  205MOL0     H28221   3.480   7.982   2.252 -0.1266 -0.0415  0.3254
  205MOL0     H28222   3.619   8.184   2.221  1.0477  1.6591  0.8850
  205MOL0     H28223   3.821   8.340   2.210 -0.4249 -0.3259  0.5355
  205MOL0     H28224   3.723   8.340   2.067  0.1436 -0.0638 -0.4595
  205MOL0     H28225   4.007   8.417   2.083  0.7463 -1.3738 -1.3088
  205MOL0     H28226   3.939   8.358   1.931  2.8218  0.7154 -0.1176
  205MOL0     H28227   3.786   8.523   1.910 -0.2178  2.4146  0.5035
  205MOL0     H28228   3.797   8.575   2.070 -1.3498 -2.0880 -0.8703
  205MOL0     H28229   4.014   8.678   2.049  0.7364 -0.8889 -0.5918
  205MOL0     H28230   4.041   8.606   1.897 -0.5483  5.3424 -3.6529
  205MOL0     H28231   3.810   8.810   1.942 -0.6218 -1.0729 -1.7674
  205MOL0     H28232   3.827   8.720   1.804 -1.5465  0.6196  0.7576
  205MOL0     H28233   4.057   8.878   1.905 -0.8988 -1.8639  0.5732
  205MOL0     H28234   4.043   8.808   1.746  2.4690  1.1891  0.3768
  205MOL0     H28235   3.980   9.072   1.793  0.5670 -0.1205  1.3905
  205MOL0     H28236   3.827   8.999   1.848 -1.1206 -1.9042  0.0029
  205MOL0     H28237   3.980   8.954   1.581 -1.8714 -2.4037 -2.5385
  205MOL0     H28238   3.830   8.870   1.620 -0.1061  0.3198 -1.7031
  205MOL0     H28239   3.605   8.954   1.557 -2.0381  1.4170  1.7863
  205MOL0     H28240   3.428   9.236   1.506 -2.7964  0.3462 -0.9478
  205MOL0     H28241   3.434   9.078   1.450 -0.4123  0.3299 -1.9417
  205MOL0     H28242   3.388   9.274   1.271 -1.9684 -3.5319  1.7179
  205MOL0     H28243   3.565   9.300   1.277  0.5646 -0.3263 -2.3532
  205MOL0     H28244   3.581   9.045   1.227 -0.6329 -2.6363 -1.1430
  205MOL0     H28245   3.415   9.028   1.208 -0.9156 -1.0140 -2.2217
  205MOL0     H28246   3.581   9.195   1.030  2.6666 -3.7245  2.8433
  205MOL0     H28247   3.501   9.060   0.968 -0.8882 -0.5262 -1.7411
  205MOL0     H28248   3.492   9.193   0.791  0.6894  1.2893  3.7229
  205MOL0     H28249   3.400   9.247   0.446 -0.8303  1.3195 -1.1073
  205MOL0     H28250   3.527   9.231   0.558 -0.9935 -1.7833  2.2826
  205MOL0     H28251   3.445   9.383   0.539  1.4577 -0.6384  0.2163
  205MOL0     H28252   2.979   9.554   0.442  0.8168  0.7654 -0.4918
  205MOL0     H28253   2.864   9.582   0.235 -0.0325 -1.2334  1.6984
  205MOL0     H28254   3.079   9.560  -0.191  0.2609 -2.6376 -1.8614
  205MOL0     H28255   3.025   9.416  -0.114 -3.3263 -0.3607  0.1083
  205MOL0     H28256   2.914   9.439  -0.317 -1.0758 -1.0851  0.0660
  205MOL0     H28257   2.793   9.460  -0.198 -0.9453  1.6615 -1.9212
  205MOL0     H28258   2.854   9.642  -0.406  1.4457  1.2521  0.1425
  205MOL0     H28259   2.910   9.732  -0.266 -0.4981 -0.9784  1.0959
  205MOL0     H28260   2.635   9.604  -0.298 -1.1858  0.0692  0.0295
  205MOL0     H28261   2.660   9.774  -0.327 -0.2095 -2.3200 -1.2422
  205MOL0     H28262   2.556   9.711  -0.103 -0.3032  0.9998 -0.4006
  205MOL0     H28263   2.701   9.622  -0.052  1.0267  1.5248  1.3667
  205MOL0     H28264   2.681   9.924  -0.123 -0.6723 -0.3695  0.6697
  205MOL0     H28265   2.815   9.833  -0.031  0.3442  0.0658  1.5423
  205MOL0     H28266   2.716   9.848   0.163 -1.1874  4.0244  1.8560
  205MOL0     H28267   2.575   9.768   0.114  0.7893  0.2946  3.5260
  205MOL0     H28268   2.631  10.067   0.053 -1.4707 -1.1886 -2.8500
  205MOL0     H28269   2.555  10.012   0.204  3.2707 -2.3788  0.8623
  205MOL0     H28270   3.225   9.515   0.014 -0.1364 -2.2481 -0.1734
  205MOL0     H28271   3.329   9.445   0.201 -1.8346 -2.9121 -0.2203
  205MOL0     H28272   3.017   9.305   0.773  0.3615 -1.1963 -1.0508
  205MOL0     H28273   3.128   9.280   0.997 -0.3980  1.5773  0.0653
  205MOL0     H28274   3.940   7.932   2.066  1.2616  1.1375  1.4363
  205MOL0     H28275   3.812   7.736   2.129 -1.2558  0.2499 -0.8149
  205MOL0     H28276   3.488   7.545   2.364  0.1360  1.3744 -1.8102
  205MOL0     H28277   3.333   7.424   2.502  1.6647 -1.7994 -1.1709
  205MOL0     H28278   3.109   7.185   2.550  0.4734  0.8054  1.5010
  205MOL0     H28279   3.198   7.323   2.603  0.0298  0.0347 -0.1609
  205MOL0     H28280   3.021   7.304   2.741  2.6666  0.1117  0.1769
  205MOL0     H28281   2.903   7.277   2.607  0.7990  1.3429 -2.2008
  205MOL0     H28282   3.023   7.562   2.603 -0.8813  0.3234  2.6478
  205MOL0     H28283   2.876   7.489   2.540  2.0550  0.3106 -2.9425
  205MOL0     H28284   2.827   7.456   2.787 -1.7966  1.3868 -0.1153
  205MOL0     H28285   2.825   7.622   2.709  1.0234 -0.2983 -3.4524
  205MOL0     H28286   3.099   7.664   3.029 -0.0992 -0.1902  0.3876
  205MOL0     H28287   3.073   7.413   2.152  0.4766  0.3731  0.5248
  205MOL0     H28288   3.104   7.529   1.979  1.4827 -0.3836  1.1197
  205MOL0     H28289   3.165   7.691   1.991  3.6310  1.4233  1.8032
  205MOL0     H28290   3.271   7.566   1.922  5.6053  2.2899  4.0008
  206MOL0     O28291   9.580   6.100   5.192  0.3580 -0.3641 -0.2373
  206MOL0     C28292   9.480   6.141   5.245  0.3232 -0.0662  0.4244
  206MOL0     O28293   9.483   6.231   5.348 -0.9893  0.1660  0.8046
  206MOL0     C28294   9.591   6.243   5.438  0.8184  0.8497  0.7161
  206MOL0     C28295   9.601   6.362   5.511  0.5067 -0.2253 -0.0397
  206MOL0     C28296   9.707   6.381   5.594 -0.0485  0.1376 -0.6268
  206MOL0     C28297   9.788   6.273   5.630 -0.4289  0.8771 -0.2835
  206MOL0     O28298   9.892   6.299   5.710  0.2400 -0.0435  0.5667
  206MOL0     C28299   9.961   6.187   5.765  0.3509 -0.6699  0.5353
  206MOL0     C28300  10.031   6.227   5.902 -0.2636  0.1782  0.2912
  206MOL0     C28301   9.929   6.301   5.991  0.3223 -1.1677 -0.5387
  206MOL0     C28302  10.003   6.326   6.125  0.3960  0.5050  0.0567
  206MOL0     C28303   9.913   6.413   6.212 -0.2587 -0.5440 -0.5378
  206MOL0     C28304   9.958   6.409   6.360  0.2398  0.1360  0.4234
  206MOL0     C28305  10.092   6.463   6.401 -1.1427 -0.3417 -0.0033
  206MOL0     C28306  10.105   6.613   6.360  0.1559  0.7544  0.1384
  206MOL0     N28307  10.243   6.669   6.402  0.4184  0.0712 -0.2620
  206MOL0     C28308  10.287   6.795   6.378 -0.3557 -0.2621  0.4601
  206MOL0     C28309  10.418   6.796   6.414  0.2395 -0.7301 -1.0187
  206MOL0     C28310  10.526   6.908   6.410  1.2979  0.1577  0.4965
  206MOL0     C28311  10.656   6.854   6.357 -0.7828  0.8129 -0.4338
  206MOL0     C28312  10.746   6.974   6.357 -0.1800 -0.7540  0.3471
  206MOL0     C28313  10.886   6.933   6.302 -0.6595 -0.2895  0.2355
  206MOL0     O28314  10.984   7.010   6.375  0.8438 -0.0809 -0.2543
  206MOL0     C28315  11.004   7.139   6.336  0.5702 -0.0742  0.6597
  206MOL0     C28316  11.106   7.202   6.403 -0.6145  0.2072 -0.1436
  206MOL0     C28317  11.149   7.333   6.382  0.1114  0.4506 -0.4991
  206MOL0     C28318  11.289   7.379   6.449  0.3304  0.1568  0.1906
  206MOL0     C28319  11.066   7.418   6.299  0.5856  0.1678  0.3731
  206MOL0     C28320  11.087   7.564   6.271 -0.3855 -0.1199  1.8092
  206MOL0     O28321  10.988   7.634   6.213  1.0861 -0.3417  0.2494
  206MOL0     C28322  10.978   7.773   6.217 -0.6017  0.0177 -0.2686
  206MOL0     C28323  11.003   7.848   6.102  0.9782  0.0907 -0.4928
  206MOL0     C28324  11.009   7.990   6.109  0.6438 -0.3302 -0.0448
  206MOL0     C28325  10.970   8.056   6.227  0.0954 -0.6653 -0.2551
  206MOL0     O28326  10.956   8.193   6.244  0.5016 -0.4642  0.1595
  206MOL0     C28327  11.050   8.272   6.155  0.7227 -0.1905  0.0840
  206MOL0     C28328  11.050   8.419   6.210  0.2549  0.0324  0.4173
  206MOL0     C28329  10.939   8.494   6.124 -0.4614  0.6364 -0.0805
  206MOL0     C28330  10.883   8.624   6.179 -0.3509 -0.7448 -0.3052
  206MOL0     C28331  10.979   8.748   6.185 -0.3754 -0.5128  0.4883
  206MOL0     C28332  11.103   8.764   6.268  0.1758  0.5899  0.8049
  206MOL0     C28333  11.165   8.907   6.271  0.6289 -0.8836 -0.3107
  206MOL0     C28334  11.279   8.933   6.378  0.5793 -0.1533 -0.0911
  206MOL0    Cl28335  11.423   8.845   6.316 -0.3182  0.1078 -0.1740
  206MOL0     C28336  10.942   7.977   6.339 -0.8503  0.6154  0.4289
  206MOL0     C28337  10.957   7.840   6.334  0.6537 -0.3993  1.5016
  206MOL0     O28338  11.185   7.619   6.315  0.5135  0.3032  0.2663
  206MOL0     C28339  10.959   7.357   6.227  0.3156 -0.1571  0.2318
  206MOL0     C28340  10.924   7.221   6.250  0.1657  0.5705 -0.4264
  206MOL0     N28341  10.459   6.679   6.467 -0.0166  0.1529 -0.1971
  206MOL0     N28342  10.360   6.604   6.449 -0.3978 -0.3895  0.5275
  206MOL0     C28343   9.790   6.158   5.549  0.0944 -0.1159  0.7038
  206MOL0     C28344   9.688   6.147   5.459 -0.6679 -0.1258  0.3739
  206MOL0     C28345   9.347   6.126   5.188 -0.8898  0.1318  1.5072
  206MOL0     C28346   9.247   6.225   5.216 -0.6685 -0.5122  1.5706
  206MOL0     C28347   9.114   6.204   5.176 -0.5255  1.0311 -0.2641
  206MOL0     C28348   9.075   6.084   5.111  0.1822  0.1051  0.2162
  206MOL0     O28349   8.940   6.065   5.073 -0.1450 -0.0652 -0.3637
  206MOL0     C28350   8.898   5.941   5.017  0.4350 -0.2544  0.5219
  206MOL0     C28351   8.745   5.958   4.987 -0.2685  0.6517 -0.8718
  206MOL0     C28352   8.715   5.901   4.854 -0.2672 -0.3888 -0.3626
  206MOL0     C28353   8.745   5.756   4.834 -0.5659 -0.7837 -0.0001
  206MOL0     C28354   8.677   5.683   4.731  0.8962 -0.5342  0.0347
  206MOL0     C28355   8.612   5.624   4.638 -0.3824  0.5938  0.4317
  206MOL0     C28356   9.176   5.992   5.074  0.4068 -0.2501  1.1717
  206MOL0     C28357   9.312   5.998   5.119 -0.4893 -0.0943  0.5959
  206MOL0     C28358   9.419   5.887   5.087  0.5146  0.2031  0.5513
  206MOL0     H28359   9.526   6.439   5.494 -0.0266 -1.2662 -2.9008
  206MOL0     H28360   9.727   6.472   5.650  3.5215 -0.1166 -1.2548
  206MOL0     H28361  10.043   6.160   5.698  2.5398 -0.4536  2.9604
  206MOL0     H28362   9.897   6.100   5.783 -0.1433 -0.6487 -1.0002
  206MOL0     H28363  10.060   6.127   5.937  0.4095 -1.2814 -3.8455
  206MOL0     H28364  10.123   6.285   5.894 -0.3978  0.2968 -0.4857
  206MOL0     H28365   9.922   6.403   5.953 -0.7525 -1.2291 -0.5296
  206MOL0     H28366   9.832   6.252   6.002 -0.2888  0.5025  2.2929
  206MOL0     H28367  10.003   6.235   6.185  1.1382  1.7341  2.0259
  206MOL0     H28368  10.101   6.371   6.108  0.9932 -0.0253  1.9004
  206MOL0     H28369   9.808   6.383   6.210  0.1918 -2.3353  0.3544
  206MOL0     H28370   9.919   6.514   6.169 -2.4356 -0.2784 -0.3238
  206MOL0     H28371   9.876   6.453   6.418 -2.7196 -0.2594 -3.1222
  206MOL0     H28372   9.969   6.305   6.390  1.6792  1.0666  3.6068
  206MOL0     H28373  10.163   6.400   6.347 -2.0116 -2.9922  1.7869
  206MOL0     H28374  10.121   6.449   6.505  0.6438 -2.9131 -0.7487
  206MOL0     H28375  10.094   6.623   6.252  1.5221  1.4730  0.0484
  206MOL0     H28376  10.026   6.672   6.409 -1.1108 -2.2359  1.9902
  206MOL0     H28377  10.221   6.861   6.321 -1.3895 -2.1178 -0.5996
  206MOL0     H28378  10.533   6.947   6.512 -0.1163  1.1073  0.2602
  206MOL0     H28379  10.499   6.998   6.353 -1.2411 -1.4845 -1.1163
  206MOL0     H28380  10.690   6.777   6.427 -1.8278  1.0917  0.4114
  206MOL0     H28381  10.642   6.809   6.259 -2.7802  0.1791  0.1059
  206MOL0     H28382  10.694   7.054   6.305 -3.2743 -2.4057  0.6548
  206MOL0     H28383  10.766   7.023   6.453  0.7304  0.9406 -0.6746
  206MOL0     H28384  10.904   6.826   6.312  0.2811 -0.2023 -0.4048
  206MOL0     H28385  10.902   6.965   6.199 -1.4029  0.8005  0.4359
  206MOL0     H28386  11.171   7.135   6.458 -1.9313 -4.7626 -3.8861
  206MOL0     H28387  11.360   7.373   6.366  0.5907  2.0860  0.2228
  206MOL0     H28388  11.307   7.304   6.526  3.2569 -1.0693 -1.5618
  206MOL0     H28389  11.297   7.477   6.497 -1.3535 -0.6343  2.2574
  206MOL0     H28390  11.014   7.799   6.005  1.5719 -1.0403  0.1205
  206MOL0     H28391  11.026   8.041   6.014  3.6344 -1.1303 -0.0393
  206MOL0     H28392  11.153   8.236   6.162  2.2570  3.0469 -2.6877
  206MOL0     H28393  11.016   8.275   6.052  1.5172  0.9338 -0.1661
  206MOL0     H28394  11.030   8.435   6.317 -1.1695  1.6936 -0.0557
  206MOL0     H28395  11.148   8.461   6.187  2.0408 -3.8572  0.1431
  206MOL0     H28396  10.855   8.428   6.100  1.6619 -2.3993  0.2953
  206MOL0     H28397  10.976   8.517   6.024 -2.8652  0.8960 -0.9788
  206MOL0     H28398  10.846   8.600   6.278 -1.3441 -1.5269 -0.8527
  206MOL0     H28399  10.797   8.659   6.120 -0.5246  0.9005  0.8637
  206MOL0     H28400  11.016   8.762   6.083 -0.3329  3.3425  0.8777
  206MOL0     H28401  10.907   8.828   6.207 -0.9700 -1.1756  0.9847
  206MOL0     H28402  11.182   8.694   6.238  0.9616  1.1555  1.4986
  206MOL0     H28403  11.081   8.737   6.372  1.2424  2.0223  1.4376
  206MOL0     H28404  11.081   8.970   6.298  0.1038 -2.0349  0.8761
  206MOL0     H28405  11.212   8.938   6.177  0.0903 -1.4352 -0.7726
  206MOL0     H28406  11.234   8.898   6.471 -3.1088  2.8456 -0.5051
  206MOL0     H28407  11.292   9.041   6.386  1.6606 -0.1101 -1.8465
  206MOL0     H28408  10.908   8.031   6.427 -1.6086  2.3502 -0.8616
  206MOL0     H28409  10.935   7.779   6.421  0.8280 -3.2284 -0.3117
  206MOL0     H28410  10.912   7.406   6.143  0.0714 -0.9556 -0.1152
  206MOL0     H28411  10.836   7.182   6.199  1.6696 -0.3940 -2.4191
  206MOL0     H28412   9.873   6.088   5.552 -0.1565 -0.4482 -0.0187
  206MOL0     H28413   9.693   6.061   5.393  1.1160  2.9992 -4.0575
  206MOL0     H28414   9.281   6.320   5.254 -2.4300  0.9443 -0.2698
  206MOL0     H28415   9.036   6.274   5.201  0.2038  1.6124  0.4332
  206MOL0     H28416   8.961   5.920   4.930  1.2613 -0.4318  1.1483
  206MOL0     H28417   8.912   5.870   5.099  1.9117  0.7518  1.1835
  206MOL0     H28418   8.708   6.059   5.006 -0.2378  0.7069 -1.1059
  206MOL0     H28419   8.682   5.901   5.056 -0.7417  1.8850 -0.2489
  206MOL0     H28420   8.610   5.929   4.837 -1.0377 -1.6555  1.9598
  206MOL0     H28421   8.787   5.949   4.787  0.3265 -0.5053  0.1947
  206MOL0     H28422   8.744   5.708   4.933  4.1295 -0.2776  0.5153
  206MOL0     H28423   8.850   5.741   4.804 -1.3808 -1.2919 -2.8820
  206MOL0     H28424   8.571   5.576   4.551  1.9276 -0.9330  0.0741
  206MOL0     H28425   9.151   5.906   5.013 -0.0536  1.1267 -0.6695
  206MOL0     H28426   9.473   5.852   5.176  0.3320  0.8587  0.9240
  206MOL0     H28427   9.382   5.795   5.041  1.5742  0.3174 -0.5824
  206MOL0     H28428   9.504   5.922   5.027 -0.8167 -1.7713 -2.7838
  207MOL0     O28429   3.754   7.261   5.114 -0.2586  0.3888 -0.0066
  207MOL0     C28430   3.682   7.213   5.198  0.5158 -0.9566 -0.3636
  207MOL0     O28431   3.553   7.236   5.209 -0.1551  0.1100 -0.5822
  207MOL0     C28432   3.469   7.290   5.110  0.1656  1.4132 -0.0470
  207MOL0     C28433   3.510   7.378   5.010 -0.3807 -0.1340 -0.4596
  207MOL0     C28434   3.421   7.416   4.910  0.4857 -0.2780 -0.6578
  207MOL0     C28435   3.292   7.380   4.909  0.1881  0.6648  0.2903
  207MOL0     O28436   3.216   7.429   4.812  0.4068  1.0276 -0.6619
  207MOL0     C28437   3.103   7.356   4.764  1.0190 -0.1739 -0.6309
  207MOL0     C28438   3.150   7.244   4.670  0.1684 -0.2337 -0.0685
  207MOL0     C28439   3.035   7.184   4.581  0.6040  0.5062 -0.1247
  207MOL0     C28440   2.916   7.278   4.545 -0.1471 -1.3050  0.2212
  207MOL0     C28441   2.827   7.189   4.457 -0.9071 -0.1781 -0.4813
  207MOL0     C28442   2.710   7.269   4.417 -0.3924 -0.3479 -0.1369
  207MOL0     C28443   2.612   7.178   4.335 -0.1684  0.7271 -0.4956
  207MOL0     C28444   2.474   7.231   4.322  1.1378 -0.0443  0.0058
  207MOL0     N28445   2.444   7.378   4.290 -0.5089 -0.3017 -0.6563
  207MOL0     C28446   2.480   7.478   4.378  0.3328 -0.4927  0.8218
  207MOL0     C28447   2.507   7.585   4.299 -0.6420 -0.0141  0.2955
  207MOL0     C28448   2.566   7.714   4.355  0.6295  0.0612 -0.2224
  207MOL0     C28449   2.477   7.831   4.332 -0.7820 -0.1632 -0.5313
  207MOL0     C28450   2.533   7.934   4.423  0.0797 -0.7140  0.7133
  207MOL0     C28451   2.438   8.052   4.428  0.2546  0.6436  0.6952
  207MOL0     O28452   2.303   8.020   4.455  0.4766  0.3062 -1.1765
  207MOL0     C28453   2.203   8.110   4.457  0.5080 -0.4672  0.5319
  207MOL0     C28454   2.082   8.075   4.513 -0.1723  1.2589  1.0747
  207MOL0     C28455   1.970   8.156   4.524 -0.1008 -0.6561  0.9275
  207MOL0     C28456   1.840   8.098   4.569  0.0571  0.4535 -0.1463
  207MOL0     C28457   1.982   8.289   4.468  0.5604  0.4184 -0.3595
  207MOL0     C28458   1.870   8.393   4.466 -0.3703 -0.3653  0.5746
  207MOL0     O28459   1.923   8.523   4.458 -0.1613 -0.3757 -0.4391
  207MOL0     C28460   1.839   8.631   4.483  0.4308  0.6601  0.5116
  207MOL0     C28461   1.726   8.653   4.411  0.8958 -0.7223  0.6951
  207MOL0     C28462   1.638   8.765   4.431 -0.7485  0.4658  0.7445
  207MOL0     C28463   1.681   8.859   4.522 -0.3403 -0.1618  0.0263
  207MOL0     O28464   1.611   8.978   4.525 -0.6309  0.4491 -0.8234
  207MOL0     C28465   1.512   8.978   4.630  0.1858  0.6487 -0.6475
  207MOL0     C28466   1.546   9.079   4.734  0.6901 -0.3372 -1.1168
  207MOL0     C28467   1.434   9.094   4.841 -0.2326  0.4233  0.4973
  207MOL0     C28468   1.455   9.221   4.907 -0.4007 -0.3738 -0.2722
  207MOL0     C28469   1.410   9.221   5.054 -0.0024  0.2920  0.1020
  207MOL0     C28470   1.447   9.354   5.126 -0.2464 -0.5026 -0.4006
  207MOL0     C28471   1.441   9.344   5.278 -0.1671 -0.5172  0.0480
  207MOL0     C28472   1.576   9.374   5.331  1.2759  0.6378  0.0392
  207MOL0    Cl28473   1.559   9.409   5.512  0.1882 -0.2581 -0.0624
  207MOL0     C28474   1.795   8.839   4.600 -0.1009 -0.0937 -0.3950
  207MOL0     C28475   1.864   8.719   4.590  0.3023 -0.0674  0.2355
  207MOL0     O28476   1.754   8.367   4.461  0.3007 -0.5498  0.2517
  207MOL0     C28477   2.104   8.328   4.414 -0.6849  0.0688 -0.6847
  207MOL0     C28478   2.210   8.242   4.402  0.0692  0.2930 -0.4664
  207MOL0     N28479   2.489   7.554   4.161  0.1125 -0.6011 -0.6149
  207MOL0     N28480   2.449   7.430   4.163 -0.1352  0.3871 -1.0339
  207MOL0     C28481   3.241   7.301   5.013 -0.1308 -0.5332  0.8998
  207MOL0     C28482   3.328   7.260   5.120  0.5179  0.1931 -0.1859
  207MOL0     C28483   3.746   7.128   5.301 -0.1791 -0.7383  0.3121
  207MOL0     C28484   3.880   7.155   5.346  0.0968 -0.2803  0.2361
  207MOL0     C28485   3.924   7.082   5.451 -0.1302  0.7064 -0.7140
  207MOL0     C28486   3.847   6.986   5.516  0.4865  0.2257 -0.1363
  207MOL0     O28487   3.877   6.911   5.626  0.4479 -0.5279 -0.1327
  207MOL0     C28488   3.998   6.944   5.705  0.3177  0.3012  0.1465
  207MOL0     C28489   3.978   6.912   5.854 -0.1935 -0.2423  1.1798
  207MOL0     C28490   4.093   6.813   5.903 -0.1688 -0.2566 -0.3829
  207MOL0     C28491   4.088   6.757   6.052 -0.0048  0.1907  1.1654
  207MOL0     C28492   4.205   6.678   6.067 -0.1154  0.4278 -0.4709
  207MOL0     C28493   4.303   6.609   6.082  0.8309 -0.1251  0.0793
  207MOL0     C28494   3.724   6.948   5.462 -0.7612 -0.0669  0.0154
  207MOL0     C28495   3.670   7.019   5.351 -0.2708  0.2938 -0.2855
  207MOL0     C28496   3.540   6.974   5.282 -0.0704  0.2008 -0.6916
  207MOL0     H28497   3.607   7.425   5.019  0.8975 -2.1409 -2.6058
  207MOL0     H28498   3.449   7.485   4.830  2.3909  0.6697  0.7582
  207MOL0     H28499   3.042   7.429   4.710 -0.8623 -1.0621  0.1785
  207MOL0     H28500   3.035   7.317   4.841  0.9675 -5.0376 -2.7779
  207MOL0     H28501   3.226   7.277   4.598  0.6212 -2.2229 -0.5745
  207MOL0     H28502   3.214   7.167   4.715 -0.3487 -0.2417  0.6560
  207MOL0     H28503   3.079   7.147   4.488  0.9572  1.1770 -0.2241
  207MOL0     H28504   2.999   7.092   4.629 -1.4382  0.7674 -1.0263
  207MOL0     H28505   2.864   7.300   4.639 -1.3679 -0.9331 -0.5210
  207MOL0     H28506   2.951   7.366   4.488 -3.5767 -0.7710 -1.2893
  207MOL0     H28507   2.795   7.102   4.516  3.2253 -0.8354  1.1793
  207MOL0     H28508   2.863   7.141   4.366 -1.6285 -0.0052 -0.8667
  207MOL0     H28509   2.658   7.301   4.508  0.4489 -1.1588  0.6552
  207MOL0     H28510   2.735   7.353   4.351 -0.0671 -0.7960 -0.5887
  207MOL0     H28511   2.606   7.076   4.376  1.6104  0.7257 -0.1906
  207MOL0     H28512   2.642   7.157   4.232 -2.4506  0.3171 -1.1475
  207MOL0     H28513   2.436   7.188   4.228  0.6908 -1.6527  0.8821
  207MOL0     H28514   2.407   7.212   4.406 -0.8716  0.7415 -1.3293
  207MOL0     H28515   2.502   7.465   4.484  1.4857 -3.4918  0.3130
  207MOL0     H28516   2.658   7.728   4.296 -0.9108  1.1379 -2.5100
  207MOL0     H28517   2.587   7.709   4.462  0.0994  3.2190  0.1257
  207MOL0     H28518   2.475   7.862   4.228  2.5964 -1.9651 -1.2905
  207MOL0     H28519   2.378   7.812   4.375 -1.7116  2.0395 -1.5758
  207MOL0     H28520   2.530   7.896   4.526 -0.8564 -1.0098  0.5832
  207MOL0     H28521   2.631   7.966   4.386 -0.1674 -1.8315 -0.9606
  207MOL0     H28522   2.474   8.111   4.513 -0.4488 -1.5328  2.6311
  207MOL0     H28523   2.438   8.101   4.330 -2.6941  0.1098  0.3211
  207MOL0     H28524   2.083   7.976   4.557  1.1319  1.1443  0.8445
  207MOL0     H28525   1.754   8.112   4.503  0.0112  1.4567  0.0997
  207MOL0     H28526   1.819   8.127   4.673  1.7475  0.3518  0.2528
  207MOL0     H28527   1.856   7.990   4.570  0.8329  0.5677  0.4684
  207MOL0     H28528   1.703   8.593   4.323 -1.2924  1.4953 -0.3845
  207MOL0     H28529   1.552   8.783   4.367  0.0615  0.2703 -0.4129
  207MOL0     H28530   1.416   8.995   4.579  0.1751  1.4876 -0.3547
  207MOL0     H28531   1.507   8.883   4.684 -0.2337 -0.2924 -2.2438
  207MOL0     H28532   1.634   9.041   4.786 -0.2867 -1.4886 -0.2488
  207MOL0     H28533   1.567   9.171   4.678  3.1147 -0.0086  0.2221
  207MOL0     H28534   1.453   9.012   4.911  3.0635  0.6011 -0.0416
  207MOL0     H28535   1.333   9.078   4.801 -0.7226 -0.7389  2.0791
  207MOL0     H28536   1.412   9.307   4.855  6.3768  2.7775 -1.8800
  207MOL0     H28537   1.561   9.250   4.908 -0.9304  3.0186  5.3301
  207MOL0     H28538   1.303   9.199   5.059 -0.1923  0.6674 -1.6788
  207MOL0     H28539   1.463   9.144   5.110 -1.7389 -1.4729 -0.5390
  207MOL0     H28540   1.370   9.424   5.090  0.4475  0.1023 -0.7430
  207MOL0     H28541   1.549   9.371   5.090  0.8507 -2.5667  1.5108
  207MOL0     H28542   1.406   9.248   5.316 -0.8761  0.7443  2.8316
  207MOL0     H28543   1.373   9.423   5.313  1.3943  1.7372 -1.6965
  207MOL0     H28544   1.614   9.461   5.277 -0.3491  2.2475  1.3749
  207MOL0     H28545   1.646   9.291   5.314 -0.5604 -0.8091 -0.8172
  207MOL0     H28546   1.812   8.917   4.674  0.7982  0.1569 -0.8580
  207MOL0     H28547   1.943   8.692   4.660  0.5595  3.0539  1.2730
  207MOL0     H28548   2.122   8.428   4.375 -0.8144  0.0313 -0.8393
  207MOL0     H28549   2.291   8.267   4.334 -1.2990 -1.6307 -3.0035
  207MOL0     H28550   3.135   7.280   5.026 -0.7832  0.3838 -2.0769
  207MOL0     H28551   3.290   7.208   5.208  0.2319  1.5148  0.4863
  207MOL0     H28552   3.947   7.228   5.302  0.2676  0.7606  2.1113
  207MOL0     H28553   4.021   7.114   5.488  1.1261 -1.4313 -1.9351
  207MOL0     H28554   4.081   6.883   5.669 -1.0493 -1.0541 -0.8453
  207MOL0     H28555   4.034   7.047   5.698  0.3318  0.5259  2.7118
  207MOL0     H28556   3.880   6.867   5.870 -0.4325  0.0425  0.5410
  207MOL0     H28557   3.979   7.010   5.901 -0.4665  0.6115 -0.5379
  207MOL0     H28558   4.086   6.727   5.835  0.6788 -0.2862 -0.4484
  207MOL0     H28559   4.187   6.864   5.883 -0.7687  1.3714  0.7331
  207MOL0     H28560   3.993   6.703   6.065 -1.6264  1.8311 -2.5667
  207MOL0     H28561   4.084   6.837   6.127  1.2061  0.1738  1.2712
  207MOL0     H28562   4.376   6.537   6.114 -0.2828 -0.2827  2.4272
  207MOL0     H28563   3.681   6.859   5.507  1.7622 -0.3943  1.9791
  207MOL0     H28564   3.565   6.956   5.177 -1.6199  0.7825 -1.2038
  207MOL0     H28565   3.514   6.875   5.320  1.1732 -0.7384 -2.1516
  207MOL0     H28566   3.449   7.032   5.301 -0.0792  0.0122 -0.1688
  208MOL0     O28567   0.680   2.745   8.951  0.5346 -0.1417 -0.1005
  208MOL0     C28568   0.801   2.759   8.971  0.2247  0.3424 -0.8640
  208MOL0     O28569   0.849   2.870   9.036 -0.2390 -0.0984 -0.2696
  208MOL0     C28570   0.782   2.986   9.034  0.2386 -0.3675 -0.7738
  208MOL0     C28571   0.694   3.021   9.140  0.8690 -0.4243  0.9740
  208MOL0     C28572   0.643   3.151   9.148 -0.1613 -0.3004  0.4735
  208MOL0     C28573   0.670   3.236   9.046  0.5612 -0.3488 -0.1466
  208MOL0     O28574   0.633   3.362   9.071  0.2470 -0.2916  0.3445
  208MOL0     C28575   0.608   3.460   8.964  0.9781  0.5001  0.6745
  208MOL0     C28576   0.472   3.516   8.988 -0.6454 -0.3944 -0.0334
  208MOL0     C28577   0.357   3.414   8.986  0.4585 -0.7053  0.2692
  208MOL0     C28578   0.343   3.331   8.849 -0.7782  0.0432 -0.7136
  208MOL0     C28579   0.200   3.280   8.837 -0.3878  0.0165  1.1372
  208MOL0     C28580   0.154   3.147   8.901 -0.4171  0.0859 -0.1741
  208MOL0     C28581   0.203   3.147   9.053  0.0458 -0.4201 -0.2982
  208MOL0     C28582   0.154   3.012   9.112 -1.0135  0.2288  1.0115
  208MOL0     N28583   0.190   3.007   9.245 -0.1589 -0.5075 -0.4328
  208MOL0     C28584   0.309   2.960   9.287  0.0102 -0.1798  0.1785
  208MOL0     C28585   0.318   2.976   9.421 -0.8694  0.9508  0.6297
  208MOL0     C28586   0.434   2.926   9.503  1.0376 -0.2089  0.9632
  208MOL0     C28587   0.504   3.034   9.586 -0.4177  0.0265 -0.0687
  208MOL0     C28588   0.621   2.967   9.672  0.0217 -0.4442 -0.0021
  208MOL0     C28589   0.692   3.085   9.733  0.0201  0.2741  0.9242
  208MOL0     O28590   0.772   3.023   9.840 -0.2808 -0.1610  0.4244
  208MOL0     C28591   0.772   3.115   9.950  0.9462  0.3695  0.3171
  208MOL0     C28592   0.699   3.099  10.070  0.4801  0.2035  0.1066
  208MOL0     C28593   0.687   3.192  10.172  0.4268 -0.1741  0.7025
  208MOL0     C28594   0.602   3.159  10.287  0.8875 -0.3397 -0.2217
  208MOL0     C28595   0.758   3.317  10.157  0.2372  0.2527  0.4758
  208MOL0     C28596   0.749   3.426  10.251 -0.5201 -0.8256  0.7062
  208MOL0     O28597   0.796   3.548  10.207 -0.5920  0.6554 -0.5568
  208MOL0     C28598   0.740   3.665  10.258  0.9479  0.2008 -0.1810
  208MOL0     C28599   0.801   3.788  10.225  0.2341  0.0263  0.7792
  208MOL0     C28600   0.748   3.908  10.273 -0.1014  0.1914  0.7055
  208MOL0     C28601   0.636   3.912  10.350 -1.6628  0.0899 -0.4539
  208MOL0     O28602   0.588   4.035  10.392  0.0143 -0.1216 -0.2854
  208MOL0     C28603   0.528   4.108  10.283 -0.1721 -0.5259  0.3777
  208MOL0     C28604   0.517   4.260  10.327 -0.6229  0.2881 -0.7231
  208MOL0     C28605   0.402   4.263  10.431  0.1150  0.1655  0.1114
  208MOL0     C28606   0.380   4.410  10.482 -0.9864 -0.3043 -0.0642
  208MOL0     C28607   0.315   4.504  10.383 -0.5681  0.2860 -0.2301
  208MOL0     C28608   0.286   4.649  10.443  0.5086  1.0693  0.4540
  208MOL0     C28609   0.260   4.753  10.331 -0.3449  0.3673  0.3857
  208MOL0     C28610   0.129   4.733  10.267  1.2245  0.4094 -0.1347
  208MOL0    Cl28611   0.001   4.758  10.387  0.1297 -0.1823  0.0565
  208MOL0     C28612   0.578   3.792  10.388 -0.5047  0.5156 -0.2189
  208MOL0     C28613   0.628   3.667  10.340  0.5882 -0.0831  0.1983
  208MOL0     O28614   0.718   3.399  10.366 -0.7053  0.0501 -0.4482
  208MOL0     C28615   0.823   3.332  10.034  0.2067 -0.1438  0.5666
  208MOL0     C28616   0.833   3.237   9.936  0.0111  0.7606  0.3777
  208MOL0     N28617   0.206   3.050   9.456  0.5675 -0.2518  0.2156
  208MOL0     N28618   0.135   3.075   9.350  0.4202 -0.4145 -0.3028
  208MOL0     C28619   0.742   3.196   8.925  0.4691  0.5845 -1.2018
  208MOL0     C28620   0.803   3.069   8.930 -0.7092 -0.7290  0.2943
  208MOL0     C28621   0.894   2.653   8.920 -0.1481 -0.6046  0.2414
  208MOL0     C28622   1.017   2.704   8.874  0.1476 -0.6709  0.8700
  208MOL0     C28623   1.114   2.612   8.818 -0.3630 -0.1460  0.7559
  208MOL0     C28624   1.088   2.476   8.807  1.1916  0.0574  0.2495
  208MOL0     O28625   1.178   2.391   8.762  0.0082 -0.6193  0.8513
  208MOL0     C28626   1.321   2.433   8.756 -0.0723  0.7467 -0.2485
  208MOL0     C28627   1.420   2.314   8.751 -0.0237  0.5090  0.1271
  208MOL0     C28628   1.402   2.212   8.867  0.0731 -0.1683 -0.2965
  208MOL0     C28629   1.408   2.277   8.997  0.6064 -0.7617 -0.6483
  208MOL0     C28630   1.518   2.371   9.015  0.4131 -0.9487  0.5466
  208MOL0     C28631   1.623   2.440   9.027 -0.1722  0.7830  0.7805
  208MOL0     C28632   0.958   2.429   8.845 -0.5190  0.9491  0.0951
  208MOL0     C28633   0.865   2.518   8.904  0.3790 -0.8370 -0.4938
  208MOL0     C28634   0.723   2.452   8.936 -0.1583 -0.4516 -0.1740
  208MOL0     H28635   0.683   2.946   9.217 -1.5703 -2.9554 -1.5774
  208MOL0     H28636   0.590   3.179   9.239 -2.0605 -1.6780 -0.1171
  208MOL0     H28637   0.622   3.436   8.858  2.6260  1.6706  0.5789
  208MOL0     H28638   0.695   3.526   8.975  1.1500  0.5034 -0.5630
  208MOL0     H28639   0.483   3.562   9.087  1.9316  0.8819 -0.8225
  208MOL0     H28640   0.451   3.602   8.924  0.2253  0.2435  0.5186
  208MOL0     H28641   0.371   3.351   9.074  4.0487 -3.2885 -1.8821
  208MOL0     H28642   0.261   3.458   9.015 -0.0965 -2.5797  1.4670
  208MOL0     H28643   0.368   3.394   8.763 -1.9111  1.2970 -0.1523
  208MOL0     H28644   0.418   3.251   8.854  1.1890  1.7411 -1.4776
  208MOL0     H28645   0.182   3.270   8.729 -0.1522 -0.7803  1.1671
  208MOL0     H28646   0.137   3.360   8.877 -0.7434  1.7018 -2.3602
  208MOL0     H28647   0.047   3.125   8.907 -0.3099  0.0319  2.0584
  208MOL0     H28648   0.214   3.074   8.846 -0.7013  0.1685 -0.5992
  208MOL0     H28649   0.154   3.221   9.117 -0.2709 -1.4198  0.6507
  208MOL0     H28650   0.311   3.161   9.047 -0.1523  1.5639  0.1069
  208MOL0     H28651   0.045   3.009   9.109 -1.0432  0.9773  1.1462
  208MOL0     H28652   0.191   2.928   9.054 -2.0115 -0.6132  1.5573
  208MOL0     H28653   0.382   2.904   9.229 -0.8981 -1.6065  0.3585
  208MOL0     H28654   0.507   2.887   9.431  0.7935 -0.1578  0.6871
  208MOL0     H28655   0.403   2.852   9.578 -0.5654  0.4174  0.9703
  208MOL0     H28656   0.555   3.108   9.523 -1.4876 -1.2548 -2.5982
  208MOL0     H28657   0.432   3.086   9.651  1.5237  1.2932  1.1710
  208MOL0     H28658   0.590   2.905   9.756  2.1165  1.4282  2.3010
  208MOL0     H28659   0.680   2.907   9.601 -1.3239 -0.8892 -0.7814
  208MOL0     H28660   0.745   3.151   9.664  1.4017 -0.2408  1.4559
  208MOL0     H28661   0.609   3.141   9.777 -2.5142 -3.4989  1.4441
  208MOL0     H28662   0.645   3.005  10.074  0.8611 -0.0499 -0.5617
  208MOL0     H28663   0.533   3.079  10.256 -0.8502  1.1701 -0.4010
  208MOL0     H28664   0.528   3.234  10.315  0.0106 -1.8311  1.7349
  208MOL0     H28665   0.651   3.127  10.380  1.4798  0.9739 -0.0630
  208MOL0     H28666   0.890   3.791  10.163  0.0844  1.6182  0.5961
  208MOL0     H28667   0.804   3.998  10.249  0.7186 -0.4438  0.1808
  208MOL0     H28668   0.594   4.098  10.197 -1.0389 -3.5094 -0.0563
  208MOL0     H28669   0.428   4.073  10.255 -1.2030  3.3611 -1.5771
  208MOL0     H28670   0.607   4.304  10.371  0.2494 -0.7510 -1.4213
  208MOL0     H28671   0.494   4.325  10.242 -1.9621 -0.2227 -0.7792
  208MOL0     H28672   0.422   4.200  10.518 -4.3180 -1.5254  0.1615
  208MOL0     H28673   0.311   4.224  10.385 -0.2038  1.0607 -0.0445
  208MOL0     H28674   0.475   4.446  10.523 -0.7398  2.9413 -2.9609
  208MOL0     H28675   0.311   4.411  10.566 -2.4163  2.0617 -1.1564
  208MOL0     H28676   0.361   4.502  10.284 -0.5814 -3.4812 -0.3017
  208MOL0     H28677   0.219   4.454  10.366 -0.7535  1.3659 -3.0168
  208MOL0     H28678   0.372   4.689  10.497 -0.1026  1.1221  1.4039
  208MOL0     H28679   0.208   4.634  10.518  0.4627  0.3898  0.2853
  208MOL0     H28680   0.339   4.761  10.256 -2.7430 -0.7287 -2.4224
  208MOL0     H28681   0.253   4.845  10.390  2.4197  0.9172 -0.0183
  208MOL0     H28682   0.122   4.631  10.227 -1.2066  0.1395  0.7971
  208MOL0     H28683   0.102   4.798  10.184 -2.4933 -0.4807  0.1982
  208MOL0     H28684   0.493   3.797  10.454 -2.8169  1.5058 -3.0581
  208MOL0     H28685   0.564   3.583  10.364 -0.7720  0.9137  0.2085
  208MOL0     H28686   0.871   3.427  10.014 -2.1968  0.2867 -5.1644
  208MOL0     H28687   0.881   3.264   9.842 -0.1357  1.4327  0.4885
  208MOL0     H28688   0.778   3.255   8.841  2.3670  4.1120  1.7921
  208MOL0     H28689   0.861   3.045   8.841 -0.5277  1.2487 -0.1701
  208MOL0     H28690   1.032   2.812   8.869 -0.3842 -0.6511 -2.0792
  208MOL0     H28691   1.205   2.650   8.773  1.0705 -1.3823  2.4915
  208MOL0     H28692   1.338   2.500   8.672  0.6966  0.1800 -0.5561
  208MOL0     H28693   1.349   2.489   8.846 -2.8165  0.3349  0.9556
  208MOL0     H28694   1.523   2.349   8.745 -0.1299  0.6286 -2.0028
  208MOL0     H28695   1.411   2.270   8.651 -1.0723  1.2578 -0.1266
  208MOL0     H28696   1.312   2.151   8.850  1.0269 -1.3577 -1.2459
  208MOL0     H28697   1.481   2.137   8.871  1.6388  1.3968  3.4512
  208MOL0     H28698   1.433   2.201   9.073  0.2146  1.4628  1.8683
  208MOL0     H28699   1.315   2.333   9.008  1.1485  0.6149 -2.6265
  208MOL0     H28700   1.714   2.496   9.034  0.3643 -0.0435  0.5417
  208MOL0     H28701   0.940   2.324   8.823 -1.0976  1.2847 -1.1216
  208MOL0     H28702   0.691   2.472   9.039  0.0729 -1.5145  0.1158
  208MOL0     H28703   0.645   2.460   8.859 -0.1234 -1.6218 -0.3421
  208MOL0     H28704   0.743   2.345   8.937 -1.3075 -0.7347 -1.9806
  209MOL0     O28705   9.802  11.095   1.804 -0.2786  0.2874 -0.0578
  209MOL0     C28706   9.738  11.043   1.720 -1.1719  0.1196 -1.3016
  209MOL0     O28707   9.660  11.103   1.627  0.6894 -1.3211  0.0033
  209MOL0     C28708   9.703  11.217   1.566 -0.1186  0.4848 -0.7505
  209MOL0     C28709   9.622  11.297   1.495  0.7884 -0.8919  0.3477
  209MOL0     C28710   9.660  11.415   1.437 -0.7343 -0.2662 -0.6491
  209MOL0     C28711   9.794  11.459   1.441  0.7324  0.5310  0.1182
  209MOL0     O28712   9.831  11.571   1.377  0.4306  0.0388 -0.8563
  209MOL0     C28713   9.952  11.573   1.303 -0.6053  0.3462 -0.1997
  209MOL0     C28714   9.952  11.697   1.212  0.1522 -0.3884  0.0446
  209MOL0     C28715  10.069  11.718   1.110  1.3544 -0.3891  0.5864
  209MOL0     C28716  10.086  11.854   1.050 -0.8199 -0.0596  0.4261
  209MOL0     C28717  10.199  11.869   0.961  0.8115 -0.1260 -0.6128
  209MOL0     C28718  10.326  11.787   1.001  1.0967  0.6899  0.1683
  209MOL0     C28719  10.459  11.817   0.925 -0.8856 -0.7073  0.6839
  209MOL0     C28720  10.482  11.968   0.894 -0.2571 -0.7001 -0.6892
  209MOL0     N28721  10.599  11.999   0.834  0.0475  0.1703 -0.3605
  209MOL0     C28722  10.644  11.923   0.726 -0.3686  0.0313  0.9708
  209MOL0     C28723  10.776  11.961   0.705  0.3590  0.5220  0.2647
  209MOL0     C28724  10.877  11.910   0.610  1.3653 -0.0915  0.3864
  209MOL0     C28725  10.985  11.833   0.684  0.3666 -0.1403 -0.6334
  209MOL0     C28726  10.942  11.690   0.728  0.5871  0.3313 -0.2101
  209MOL0     C28727  11.019  11.648   0.861  0.0364  0.5841  0.2595
  209MOL0     O28728  11.158  11.674   0.839 -1.0452  0.2133 -0.4862
  209MOL0     C28729  11.227  11.555   0.835  0.4301  0.2196  1.4567
  209MOL0     C28730  11.314  11.526   0.935  0.5366 -0.2411  0.2350
  209MOL0     C28731  11.380  11.400   0.950 -0.4097  0.2484  0.7373
  209MOL0     C28732  11.463  11.368   1.072 -0.6241  0.2453 -0.2389
  209MOL0     C28733  11.374  11.307   0.845 -0.4987  0.5846  0.3465
  209MOL0     C28734  11.436  11.176   0.835 -0.4740 -0.1549  0.4674
  209MOL0     O28735  11.418  11.104   0.719  0.0818 -0.4898 -0.5175
  209MOL0     C28736  11.459  10.971   0.698  0.2357 -0.0730  0.4491
  209MOL0     C28737  11.561  10.901   0.766  0.2265 -0.0074  0.0344
  209MOL0     C28738  11.587  10.767   0.728  0.2643  0.3551 -0.2341
  209MOL0     C28739  11.524  10.708   0.626  0.5176 -0.3635 -0.1439
  209MOL0     O28740  11.555  10.578   0.604 -0.2227  0.1651  0.0258
  209MOL0     C28741  11.446  10.486   0.616 -0.1865 -0.4245  0.6085
  209MOL0     C28742  11.456  10.427   0.752 -0.0960  1.1074 -0.0725
  209MOL0     C28743  11.372  10.302   0.768 -1.1034 -0.1825  0.4356
  209MOL0     C28744  11.359  10.255   0.915  0.1238 -0.1905  0.0084
  209MOL0     C28745  11.259  10.142   0.933  0.2669 -0.3382  1.0949
  209MOL0     C28746  11.234  10.114   1.085  0.3861 -0.1965  0.5344
  209MOL0     C28747  11.204   9.968   1.104 -0.5196 -0.0902 -0.3154
  209MOL0     C28748  11.183   9.943   1.250 -0.2043 -0.3060  0.0244
  209MOL0    Cl28749  11.022   9.995   1.309  0.0103  0.6009 -0.0878
  209MOL0     C28750  11.442  10.781   0.547  0.3400  0.5765  0.3025
  209MOL0     C28751  11.411  10.910   0.581 -0.4620  0.6994  0.1886
  209MOL0     O28752  11.475  11.122   0.936 -0.2731 -0.4853 -0.2986
  209MOL0     C28753  11.300  11.347   0.726 -0.7932  0.2308 -0.4668
  209MOL0     C28754  11.230  11.468   0.720 -0.4822  0.6161  0.9990
  209MOL0     N28755  10.804  12.059   0.794 -0.2574 -0.0067 -0.9094
  209MOL0     N28756  10.698  12.085   0.865  0.0569 -0.6703  0.4430
  209MOL0     C28757   9.885  11.377   1.512 -0.2513 -0.0381  0.0011
  209MOL0     C28758   9.839  11.252   1.567 -0.0016 -0.5616  0.2416
  209MOL0     C28759   9.708  10.894   1.735 -0.9175 -0.4033 -0.5647
  209MOL0     C28760   9.589  10.841   1.683 -0.1890  0.2026 -0.3464
  209MOL0     C28761   9.549  10.711   1.709 -1.0813 -0.2806  0.0905
  209MOL0     C28762   9.624  10.633   1.803  0.2666  0.5033  0.3614
  209MOL0     O28763   9.567  10.508   1.827 -0.0610  0.3466 -0.8695
  209MOL0     C28764   9.627  10.415   1.918  0.4068  0.4637  0.2171
  209MOL0     C28765   9.615  10.450   2.074 -0.3299 -0.2787  0.4518
  209MOL0     C28766   9.504  10.375   2.150  0.2186 -0.4127  0.6405
  209MOL0     C28767   9.506  10.398   2.308  0.5985  0.2671 -0.7200
  209MOL0     C28768   9.618  10.322   2.357 -0.0493  0.9565 -1.5497
  209MOL0     C28769   9.725  10.282   2.408  0.1242 -0.7180  0.7011
  209MOL0     C28770   9.752  10.678   1.847 -0.5919 -0.6076 -0.5622
  209MOL0     C28771   9.798  10.810   1.809  0.1462  0.9968  1.7422
  209MOL0     C28772   9.945  10.843   1.823 -0.0590  0.1631 -1.1060
  209MOL0     H28773   9.521  11.257   1.495  1.2160 -2.0055  0.5401
  209MOL0     H28774   9.587  11.488   1.403 -0.9255 -0.7625 -1.3241
  209MOL0     H28775   9.961  11.491   1.231 -0.5973  0.5573 -0.4397
  209MOL0     H28776  10.044  11.566   1.363 -0.9920 -2.4664  0.1951
  209MOL0     H28777   9.860  11.697   1.154  0.9205  0.7642 -1.2288
  209MOL0     H28778   9.960  11.775   1.288 -0.6776 -0.8066  0.5721
  209MOL0     H28779  10.152  11.689   1.176  0.8802  1.2877  1.9946
  209MOL0     H28780  10.065  11.650   1.025  1.1394  0.5097 -0.1454
  209MOL0     H28781  10.006  11.872   0.978  0.3932  0.3362 -0.8830
  209MOL0     H28782  10.084  11.926   1.132 -1.0758  2.0595 -1.3435
  209MOL0     H28783  10.214  11.978   0.958 -2.6043  0.5299  1.1586
  209MOL0     H28784  10.174  11.840   0.858 -0.2148  0.9364 -0.6802
  209MOL0     H28785  10.343  11.804   1.108 -1.4389  0.8726  0.6023
  209MOL0     H28786  10.307  11.681   0.981  2.8091  0.1379  1.2125
  209MOL0     H28787  10.465  11.767   0.829  2.2362  1.8755 -0.6783
  209MOL0     H28788  10.549  11.790   0.982  0.4298  0.3477 -0.7888
  209MOL0     H28789  10.403  12.013   0.832  1.1380 -0.1430 -2.1145
  209MOL0     H28790  10.479  12.026   0.987  2.5462 -1.2564 -0.1804
  209MOL0     H28791  10.581  11.846   0.683 -3.3156  1.5574  2.2323
  209MOL0     H28792  10.930  11.985   0.550  0.8025  0.1149  0.1379
  209MOL0     H28793  10.813  11.843   0.551  0.8311  1.2363 -0.5930
  209MOL0     H28794  11.074  11.818   0.622 -0.4610 -1.8029 -1.5092
  209MOL0     H28795  11.020  11.894   0.767 -2.9635  1.0231  0.0527
  209MOL0     H28796  10.835  11.685   0.746  0.6926 -1.9570  0.0540
  209MOL0     H28797  10.975  11.609   0.662  0.1916  0.5813 -0.7191
  209MOL0     H28798  10.965  11.703   0.938  0.1263 -0.1054  0.8260
  209MOL0     H28799  11.010  11.543   0.889 -1.7799  1.4275  3.3199
  209MOL0     H28800  11.320  11.598   1.016  2.8276 -0.4612  0.3517
  209MOL0     H28801  11.566  11.360   1.036 -0.3330 -0.4973  0.7124
  209MOL0     H28802  11.429  11.273   1.112  3.4952 -1.1412  0.4342
  209MOL0     H28803  11.454  11.445   1.150  1.3679  0.4791 -0.1962
  209MOL0     H28804  11.611  10.941   0.853  2.3748 -1.6770 -0.3482
  209MOL0     H28805  11.650  10.698   0.783 -1.8132 -2.1915 -0.8239
  209MOL0     H28806  11.351  10.540   0.608  0.5963  1.2031  1.8092
  209MOL0     H28807  11.453  10.401   0.547  1.7950  0.4057 -0.2864
  209MOL0     H28808  11.561  10.407   0.774 -1.0546 -2.1923  2.3211
  209MOL0     H28809  11.421  10.503   0.822  0.3691  4.3189 -3.0515
  209MOL0     H28810  11.387  10.225   0.693 -2.5969  0.8177 -0.9603
  209MOL0     H28811  11.270  10.320   0.732 -2.3848  1.0355  4.1185
  209MOL0     H28812  11.329  10.336   0.982  1.6388  0.5120 -0.1144
  209MOL0     H28813  11.451  10.208   0.952 -0.3506 -0.3792  0.9677
  209MOL0     H28814  11.169  10.143   0.871  1.2721 -4.2445 -0.7080
  209MOL0     H28815  11.310  10.059   0.885  0.3359  0.3464 -0.0546
  209MOL0     H28816  11.148  10.168   1.127 -0.5522 -1.8643  0.8974
  209MOL0     H28817  11.324  10.145   1.139  1.3865  0.2988 -1.3368
  209MOL0     H28818  11.293   9.910   1.078  0.1839  0.6460  0.3595
  209MOL0     H28819  11.121   9.933   1.043  0.5123 -2.2755 -0.5428
  209MOL0     H28820  11.270   9.979   1.305  0.3603 -1.1538 -0.2827
  209MOL0     H28821  11.187   9.834   1.256 -1.6044 -0.5264 -1.9619
  209MOL0     H28822  11.391  10.740   0.460  0.8744 -3.7512  1.8302
  209MOL0     H28823  11.347  10.977   0.525  2.1805  2.2359 -1.2490
  209MOL0     H28824  11.307  11.297   0.630 -0.2426  0.6100 -0.6305
  209MOL0     H28825  11.178  11.501   0.631  0.3606 -2.3079 -0.6915
  209MOL0     H28826   9.990  11.404   1.518  0.9119 -2.3919 -4.7665
  209MOL0     H28827   9.912  11.176   1.592  0.5502 -0.0452  0.2401
  209MOL0     H28828   9.522  10.893   1.615 -0.2928 -0.9076 -1.1162
  209MOL0     H28829   9.467  10.655   1.665 -1.1810  0.2209 -0.3621
  209MOL0     H28830   9.559  10.332   1.895  1.6689 -0.0638 -1.9234
  209MOL0     H28831   9.727  10.388   1.884 -0.6977 -1.3399 -1.8784
  209MOL0     H28832   9.602  10.559   2.075  1.6838 -0.0010  1.0352
  209MOL0     H28833   9.715  10.414   2.100 -1.2948 -5.7796 -1.9959
  209MOL0     H28834   9.413  10.420   2.108 -0.2262 -2.1050 -0.3268
  209MOL0     H28835   9.495  10.268   2.128  2.7766 -0.2510 -1.6470
  209MOL0     H28836   9.412  10.359   2.350  0.2881  0.6091 -1.0843
  209MOL0     H28837   9.499  10.505   2.326  2.5425  0.5533 -1.4540
  209MOL0     H28838   9.825  10.253   2.434  1.0363 -0.4463 -2.1893
  209MOL0     H28839   9.818  10.611   1.900 -0.3037  1.1346  1.4056
  209MOL0     H28840  10.008  10.756   1.843  0.3424  0.3372 -1.5985
  209MOL0     H28841   9.992  10.882   1.732  0.5044  1.7773 -0.1711
  209MOL0     H28842   9.960  10.914   1.905 -0.3138  1.1459 -1.8801
  210MOL0     O28843  10.829   7.915  10.761 -0.4335 -0.5550 -0.7998
  210MOL0     C28844  10.848   7.890  10.643  0.5310 -0.1875 -0.5196
  210MOL0     O28845  10.759   7.890  10.543  0.2478 -0.3774  0.7482
  210MOL0     C28846  10.628   7.921  10.568 -0.1159  0.3778 -0.1430
  210MOL0     C28847  10.554   7.832  10.658 -0.1678  0.0333  0.7646
  210MOL0     C28848  10.427   7.869  10.707 -0.1303  0.2882  1.1357
  210MOL0     C28849  10.368   7.989  10.667 -1.1576  1.2183  0.2564
  210MOL0     O28850  10.238   8.023  10.697 -0.7353 -0.8378 -1.3285
  210MOL0     C28851  10.140   7.924  10.735 -0.7610 -0.0173  0.1534
  210MOL0     C28852  10.026   7.965  10.825  1.0788  0.3689 -1.0338
  210MOL0     C28853   9.947   8.086  10.769  0.9274  0.8178  0.0468
  210MOL0     C28854   9.838   8.152  10.850  0.3673  0.5386 -0.7108
  210MOL0     C28855   9.721   8.059  10.888  0.2424  0.3310  0.6086
  210MOL0     C28856   9.603   8.128  10.948  0.6841 -0.1401  0.3214
  210MOL0     C28857   9.627   8.177  11.092  0.3901 -0.2186  0.0170
  210MOL0     C28858   9.506   8.252  11.154 -0.5046  0.2980 -0.1561
  210MOL0     N28859   9.379   8.178  11.173 -0.0869  0.5803  0.5650
  210MOL0     C28860   9.269   8.231  11.231  0.2882 -1.0390 -0.0881
  210MOL0     C28861   9.198   8.112  11.257  0.1863 -0.2347  0.7101
  210MOL0     C28862   9.065   8.098  11.319 -0.4550 -0.1167  0.1386
  210MOL0     C28863   9.070   8.154  11.461 -0.0412  0.1719  0.0534
  210MOL0     C28864   8.939   8.130  11.534  0.6584  1.1132 -0.3705
  210MOL0     C28865   8.821   8.209  11.489 -0.2460 -0.6897 -0.1986
  210MOL0     O28866   8.698   8.148  11.542  0.5250  0.4235  0.6958
  210MOL0     C28867   8.592   8.232  11.556 -0.2156 -0.0263  0.3588
  210MOL0     C28868   8.478   8.168  11.594 -0.3287 -0.1178 -0.1319
  210MOL0     C28869   8.362   8.233  11.623 -0.3399  1.2231 -0.0941
  210MOL0     C28870   8.243   8.133  11.649 -0.1130 -0.3919 -0.1641
  210MOL0     C28871   8.357   8.373  11.614  0.7880  0.1553  0.7451
  210MOL0     C28872   8.228   8.445  11.646 -0.8381 -0.5152  0.4014
  210MOL0     O28873   8.218   8.565  11.581 -0.1646  0.3512  0.0026
  210MOL0     C28874   8.120   8.653  11.617  0.0650  0.3368 -0.5408
  210MOL0     C28875   8.135   8.757  11.701 -0.1326  0.5080 -0.4039
  210MOL0     C28876   8.031   8.842  11.739 -0.1128  0.3142 -0.0841
  210MOL0     C28877   7.904   8.827  11.677 -0.1323  0.1018  0.4902
  210MOL0     O28878   7.818   8.929  11.707 -0.7658  0.0848  0.7375
  210MOL0     C28879   7.722   8.975  11.618  0.8283 -0.2126  0.5135
  210MOL0     C28880   7.623   9.072  11.684 -0.4175  0.0199 -0.2185
  210MOL0     C28881   7.516   9.123  11.593  0.2204 -0.0399  1.3696
  210MOL0     C28882   7.391   9.186  11.663  0.3894 -1.5691  0.4496
  210MOL0     C28883   7.345   9.130  11.801 -0.9172  1.2031 -0.5709
  210MOL0     C28884   7.321   8.976  11.809 -0.2482  0.8411  0.4630
  210MOL0     C28885   7.225   8.916  11.703  0.1791 -0.3260  0.1557
  210MOL0     C28886   7.238   8.764  11.681  0.1572  0.0208 -0.3575
  210MOL0    Cl28887   7.400   8.719  11.613 -0.3997  0.1675  0.3304
  210MOL0     C28888   7.884   8.731  11.579 -0.0897  0.4869  0.2024
  210MOL0     C28889   7.993   8.638  11.555 -0.7122  0.4908 -0.5598
  210MOL0     O28890   8.144   8.399  11.721  0.2189 -0.5602  0.6415
  210MOL0     C28891   8.472   8.438  11.554  0.7224  1.0107  0.5406
  210MOL0     C28892   8.582   8.367  11.525  0.4326  0.4069  0.0056
  210MOL0     N28893   9.260   8.003  11.199  0.3274  0.5179 -0.0069
  210MOL0     N28894   9.378   8.034  11.166 -0.3420  0.0377  0.3245
  210MOL0     C28895  10.435   8.065  10.565  1.1282 -0.0054  0.7660
  210MOL0     C28896  10.565   8.027  10.516 -0.5501  0.0344 -0.0337
  210MOL0     C28897  10.992   7.882  10.602  0.6644  0.6698  0.9664
  210MOL0     C28898  11.016   7.791  10.497  1.0508  0.2816 -0.5949
  210MOL0     C28899  11.143   7.763  10.453 -0.7935  0.0620  0.2175
  210MOL0     C28900  11.255   7.831  10.506 -0.2881 -0.6850  1.0770
  210MOL0     O28901  11.393   7.803  10.487 -0.6300 -0.0894 -0.4195
  210MOL0     C28902  11.431   7.675  10.426  0.2957 -0.3193  0.0525
  210MOL0     C28903  11.425   7.560  10.527 -0.0969 -0.4787  0.6454
  210MOL0     C28904  11.474   7.431  10.470 -0.0705  1.5936  0.2552
  210MOL0     C28905  11.520   7.339  10.583  0.8221 -0.3395 -1.4630
  210MOL0     C28906  11.536   7.203  10.532  0.0318 -0.1154 -0.1699
  210MOL0     C28907  11.568   7.094  10.489  0.4599 -0.3102  0.0487
  210MOL0     C28908  11.234   7.926  10.603  0.3992 -0.3602 -0.7120
  210MOL0     C28909  11.106   7.957  10.654 -0.4266  0.3008 -0.4360
  210MOL0     C28910  11.100   8.052  10.760 -0.1368  0.2062 -0.2925
  210MOL0     H28911  10.592   7.735  10.688  0.5297  1.1335  3.7577
  210MOL0     H28912  10.373   7.802  10.773  3.5290 -1.8896  2.2429
  210MOL0     H28913  10.184   7.850  10.802  0.8084 -0.8603 -1.7079
  210MOL0     H28914  10.113   7.874  10.642  1.8639  0.5169 -0.9951
  210MOL0     H28915   9.957   7.881  10.833  0.5099  0.7365 -1.9300
  210MOL0     H28916  10.058   7.984  10.927 -0.6524 -3.5477  0.4415
  210MOL0     H28917  10.012   8.171  10.746  2.2347 -0.5034 -1.4151
  210MOL0     H28918   9.898   8.066  10.673 -1.1671  3.0600  0.5663
  210MOL0     H28919   9.894   8.191  10.937  3.6862 -2.6410 -1.2017
  210MOL0     H28920   9.802   8.238  10.793  3.9746  1.9446 -1.1948
  210MOL0     H28921   9.756   7.999  10.973  1.5307 -0.7224 -0.6360
  210MOL0     H28922   9.683   8.001  10.803 -2.0147  0.6391  1.3337
  210MOL0     H28923   9.589   8.214  10.881  4.5647  0.5053  0.0955
  210MOL0     H28924   9.515   8.064  10.940  1.5408 -2.0477  4.2506
  210MOL0     H28925   9.716   8.240  11.092  0.8367 -0.8380  0.6408
  210MOL0     H28926   9.647   8.089  11.154 -1.7294 -0.3929  0.5347
  210MOL0     H28927   9.539   8.295  11.249  1.8422 -0.0442 -0.7577
  210MOL0     H28928   9.487   8.333  11.083 -3.4425 -1.8019 -2.0202
  210MOL0     H28929   9.233   8.328  11.262  1.1124 -0.7453 -0.0445
  210MOL0     H28930   9.045   7.992  11.336 -1.7189  0.2276  0.8785
  210MOL0     H28931   8.986   8.144  11.258 -0.6830 -0.8128 -0.0930
  210MOL0     H28932   9.149   8.095  11.509 -0.0897  0.3599  0.3632
  210MOL0     H28933   9.087   8.262  11.463  1.3088  0.0647 -2.1648
  210MOL0     H28934   8.909   8.025  11.522 -1.1889  0.6202  5.4955
  210MOL0     H28935   8.960   8.152  11.639  0.5863  1.9521 -0.5311
  210MOL0     H28936   8.828   8.307  11.537 -0.3384 -1.0697  0.5997
  210MOL0     H28937   8.821   8.217  11.380 -3.7957  1.2168 -0.2083
  210MOL0     H28938   8.470   8.061  11.608 -0.9294  0.1890  2.2379
  210MOL0     H28939   8.263   8.044  11.590  1.2056 -0.6228  0.6012
  210MOL0     H28940   8.140   8.170  11.639 -0.0388 -0.6946 -2.6562
  210MOL0     H28941   8.253   8.095  11.751  2.0980 -0.0444 -0.2048
  210MOL0     H28942   8.232   8.776  11.746 -0.1207 -1.1292  0.3103
  210MOL0     H28943   8.045   8.918  11.815 -0.5906  0.6634 -0.3363
  210MOL0     H28944   7.756   9.018  11.523  1.8031  3.2730  2.2710
  210MOL0     H28945   7.662   8.894  11.574  1.6336  0.6135 -2.2997
  210MOL0     H28946   7.587   9.024  11.776  2.8497 -0.0000  1.1828
  210MOL0     H28947   7.684   9.158  11.713 -1.2918 -0.7314  4.6831
  210MOL0     H28948   7.479   9.030  11.548 -0.7582  0.4616  1.1133
  210MOL0     H28949   7.556   9.184  11.511  0.9838 -1.2566  0.8064
  210MOL0     H28950   7.301   9.186  11.601  1.0369  0.1708 -0.5965
  210MOL0     H28951   7.413   9.292  11.682 -1.4424 -1.2638  1.1148
  210MOL0     H28952   7.434   9.155  11.860  1.9171 -2.9425 -2.6122
  210MOL0     H28953   7.257   9.184  11.836 -0.7871  0.3311  1.2202
  210MOL0     H28954   7.290   8.941  11.908 -0.1339 -0.3852  0.0885
  210MOL0     H28955   7.417   8.933  11.778  0.6546  3.3034 -0.4085
  210MOL0     H28956   7.246   8.961  11.605 -1.3268  0.0180 -0.0333
  210MOL0     H28957   7.119   8.937  11.723  0.1350 -2.5390  2.7034
  210MOL0     H28958   7.159   8.730  11.614 -0.3211  2.2149 -0.9843
  210MOL0     H28959   7.229   8.719  11.780 -2.1887 -1.0652 -0.9935
  210MOL0     H28960   7.793   8.721  11.521  0.6152  0.7091 -0.9827
  210MOL0     H28961   7.981   8.557  11.484  0.9946 -0.1597 -0.1461
  210MOL0     H28962   8.461   8.542  11.525 -1.7413  0.3141 -1.3031
  210MOL0     H28963   8.666   8.429  11.493 -0.2832  0.9484 -0.8543
  210MOL0     H28964  10.380   8.153  10.535  1.3073 -0.1293  0.0621
  210MOL0     H28965  10.624   8.101  10.462  1.0435  0.8040  2.6199
  210MOL0     H28966  10.936   7.736  10.447 -0.6414  1.3824  0.7842
  210MOL0     H28967  11.156   7.687  10.377  1.0827  1.2056 -0.6910
  210MOL0     H28968  11.369   7.638  10.343 -1.7092 -1.9647  2.1505
  210MOL0     H28969  11.534   7.685  10.390  0.7644 -2.4326  0.6357
  210MOL0     H28970  11.323   7.551  10.564 -0.6488 -0.7005 -0.8252
  210MOL0     H28971  11.482   7.589  10.615 -1.1451 -0.1021  1.2145
  210MOL0     H28972  11.398   7.377  10.413  2.0127 -1.1561 -0.1077
  210MOL0     H28973  11.556   7.454  10.401  0.3667  3.4286  1.2988
  210MOL0     H28974  11.444   7.340  10.661  1.4363 -3.5400 -0.7109
  210MOL0     H28975  11.607   7.377  10.638  1.1042 -2.8327 -0.0503
  210MOL0     H28976  11.579   6.995  10.453 -1.0461 -1.1454  1.7049
  210MOL0     H28977  11.321   7.968  10.652 -0.5577  1.8808 -0.8008
  210MOL0     H28978  11.179   8.128  10.761 -2.4970  2.7992 -0.4495
  210MOL0     H28979  11.017   8.122  10.747  0.7725  2.0026  2.6229
  210MOL0     H28980  11.090   7.991  10.850 -0.0100  0.9804  0.2489
  211MOL0     O28981   9.596   7.248   7.952  0.5198  0.3442 -0.2051
  211MOL0     C28982   9.589   7.185   8.057 -1.0680  0.4186  0.0494
  211MOL0     O28983   9.523   7.234   8.164  0.6551 -0.0311  0.0401
  211MOL0     C28984   9.427   7.323   8.144  0.1678  0.8178  0.3724
  211MOL0     C28985   9.435   7.432   8.226  0.8999 -0.1131 -1.2180
  211MOL0     C28986   9.339   7.537   8.212 -0.7340  0.0361 -0.5464
  211MOL0     C28987   9.230   7.522   8.113  0.2094  1.0571 -0.7704
  211MOL0     O28988   9.142   7.625   8.086  0.3610 -0.2460 -0.8239
  211MOL0     C28989   9.083   7.694   8.200 -0.2054  0.4204 -0.3555
  211MOL0     C28990   8.934   7.695   8.187  0.1030  0.1915 -0.6884
  211MOL0     C28991   8.885   7.797   8.086  0.3578 -0.3657  0.2478
  211MOL0     C28992   8.729   7.792   8.055 -0.0067  0.6359 -0.4489
  211MOL0     C28993   8.669   7.931   8.012  0.5935  0.3533  0.4808
  211MOL0     C28994   8.621   8.015   8.134  0.2883  0.1924 -0.5755
  211MOL0     C28995   8.564   8.147   8.086  0.2898  1.2583  0.2153
  211MOL0     C28996   8.439   8.140   8.008  0.3143  1.0133  0.0807
  211MOL0     N28997   8.323   8.077   8.081 -0.2913 -0.0101 -0.4665
  211MOL0     C28998   8.286   8.087   8.211  0.7351 -0.0002  0.6404
  211MOL0     C28999   8.164   8.024   8.220  0.5867 -0.5179 -0.0048
  211MOL0     C29000   8.089   7.991   8.340 -1.4709 -0.0933  0.0104
  211MOL0     C29001   7.945   8.015   8.320  0.1012  0.0756  0.1906
  211MOL0     C29002   7.869   7.881   8.298  0.5642  0.1369 -0.0080
  211MOL0     C29003   7.872   7.839   8.150 -0.0308 -0.1803  0.0342
  211MOL0     O29004   7.747   7.766   8.137 -0.0207 -0.4052 -0.1308
  211MOL0     C29005   7.735   7.636   8.162  0.5415 -0.0455  0.1683
  211MOL0     C29006   7.617   7.580   8.130 -0.6531 -0.3377  0.7194
  211MOL0     C29007   7.584   7.443   8.149 -0.2976  0.0691 -0.8685
  211MOL0     C29008   7.436   7.405   8.134  0.6943 -0.5975 -0.2819
  211MOL0     C29009   7.685   7.359   8.207  0.3658  0.3526  0.4360
  211MOL0     C29010   7.660   7.214   8.224 -0.2955  0.7083  0.3475
  211MOL0     O29011   7.767   7.136   8.223  0.0390  0.5290 -0.2228
  211MOL0     C29012   7.753   6.999   8.217 -0.3347 -0.5722  0.1041
  211MOL0     C29013   7.784   6.942   8.097  0.9003 -0.2199 -0.5400
  211MOL0     C29014   7.773   6.802   8.080  0.0232  0.4334  0.8600
  211MOL0     C29015   7.747   6.717   8.178 -0.3035  0.9946  0.2814
  211MOL0     O29016   7.752   6.580   8.152  0.2851  0.3044  0.1181
  211MOL0     C29017   7.642   6.503   8.206 -0.1333 -0.4915 -0.1274
  211MOL0     C29018   7.519   6.537   8.124  0.1228 -0.4630  0.1091
  211MOL0     C29019   7.418   6.430   8.143 -0.5835  0.4696 -0.1251
  211MOL0     C29020   7.298   6.450   8.061 -0.3428 -0.2596 -0.4822
  211MOL0     C29021   7.192   6.542   8.121 -0.1554 -0.0781  0.3693
  211MOL0     C29022   7.068   6.558   8.034 -0.8464 -0.3332 -0.0125
  211MOL0     C29023   7.075   6.652   7.907  0.5297  0.4125 -0.4010
  211MOL0     C29024   6.927   6.670   7.847 -0.0469 -0.3294 -1.2696
  211MOL0    Cl29025   6.886   6.548   7.723  0.1438  0.2668 -0.2015
  211MOL0     C29026   7.722   6.780   8.301 -0.3846  0.8916 -0.2727
  211MOL0     C29027   7.712   6.917   8.322 -0.2976 -0.2385  1.7347
  211MOL0     O29028   7.543   7.180   8.238 -0.2879  0.4348 -0.3110
  211MOL0     C29029   7.823   7.415   8.218 -0.3754 -0.4934 -0.7229
  211MOL0     C29030   7.848   7.550   8.192 -1.4815  0.9157 -0.3898
  211MOL0     N29031   8.123   8.005   8.092 -0.2202  0.0691  0.1519
  211MOL0     N29032   8.213   8.034   8.008  0.0633  0.6304 -0.6102
  211MOL0     C29033   9.224   7.397   8.045  0.1456 -0.9498  0.5100
  211MOL0     C29034   9.311   7.299   8.067 -0.1843  0.2328 -0.0570
  211MOL0     C29035   9.661   7.054   8.069  0.0448 -1.1434 -1.2438
  211MOL0     C29036   9.718   7.024   8.198 -0.8637  0.0046 -0.1803
  211MOL0     C29037   9.802   6.910   8.209 -0.5420 -0.3066 -0.3847
  211MOL0     C29038   9.820   6.817   8.103  0.1954 -0.0636 -0.6479
  211MOL0     O29039   9.899   6.712   8.121  0.1718  0.6568 -0.0177
  211MOL0     C29040   9.833   6.578   8.131 -0.1874  0.5434  0.5692
  211MOL0     C29041   9.942   6.477   8.091 -0.8079  0.0320 -0.1874
  211MOL0     C29042   9.921   6.330   8.123  0.0854  0.3011  0.2623
  211MOL0     C29043   9.969   6.292   8.266  0.0802  0.3531  0.0217
  211MOL0     C29044   9.919   6.153   8.297 -1.0325 -0.0573  0.8808
  211MOL0     C29045   9.882   6.040   8.319  0.3221  0.1924  0.3114
  211MOL0     C29046   9.746   6.837   7.987  0.3453 -0.6443 -0.1235
  211MOL0     C29047   9.667   6.955   7.971 -0.2200  1.1087 -0.1791
  211MOL0     C29048   9.615   6.976   7.828  1.2909  0.0986  0.3545
  211MOL0     H29049   9.517   7.439   8.296 -1.8386 -0.0022  2.2380
  211MOL0     H29050   9.341   7.627   8.274 -2.7641 -1.3474  1.6736
  211MOL0     H29051   9.124   7.796   8.200  1.6352 -0.1917 -3.3750
  211MOL0     H29052   9.101   7.648   8.297 -1.9757  3.0609  1.3570
  211MOL0     H29053   8.913   7.592   8.156 -0.2568  0.4718 -1.4149
  211MOL0     H29054   8.879   7.701   8.282 -1.3862 -1.6248 -1.3642
  211MOL0     H29055   8.919   7.897   8.117 -0.2957 -0.0758  0.0464
  211MOL0     H29056   8.935   7.785   7.989 -0.5129  0.6321 -0.3563
  211MOL0     H29057   8.709   7.715   7.980  0.3548  2.0987 -2.0924
  211MOL0     H29058   8.687   7.751   8.148  1.6462 -0.9563 -0.3569
  211MOL0     H29059   8.574   7.915   7.961 -0.1381 -0.1408  1.9652
  211MOL0     H29060   8.735   7.986   7.944 -2.4083  0.9793 -2.1481
  211MOL0     H29061   8.554   7.956   8.197  1.8509  1.1173  2.1059
  211MOL0     H29062   8.711   8.028   8.194 -1.3610  2.5519  1.5904
  211MOL0     H29063   8.641   8.195   8.025  2.4394 -1.4682  0.5926
  211MOL0     H29064   8.558   8.211   8.175 -0.7639  1.4930 -0.0082
  211MOL0     H29065   8.385   8.233   7.987 -5.4243 -2.1366 -1.1812
  211MOL0     H29066   8.470   8.089   7.917  0.7287  2.3645 -0.5647
  211MOL0     H29067   8.344   8.124   8.295 -1.5598 -0.4643  2.5598
  211MOL0     H29068   8.121   8.061   8.418  0.4896 -3.4878  2.5494
  211MOL0     H29069   8.116   7.893   8.379  0.0741  0.0840 -0.5156
  211MOL0     H29070   7.911   8.066   8.411 -1.8518  0.6768 -0.8166
  211MOL0     H29071   7.931   8.093   8.245  1.6038  0.6722  0.5039
  211MOL0     H29072   7.910   7.797   8.355 -2.1841 -1.3661 -0.1313
  211MOL0     H29073   7.767   7.896   8.333  0.5611  2.3504 -0.7983
  211MOL0     H29074   7.864   7.928   8.087 -2.7334  1.2744  2.2179
  211MOL0     H29075   7.959   7.780   8.122 -0.9125 -0.7997 -1.5889
  211MOL0     H29076   7.541   7.650   8.096 -1.6786 -1.9708 -0.5301
  211MOL0     H29077   7.387   7.496   8.098 -0.7040 -0.5879  1.4676
  211MOL0     H29078   7.397   7.360   8.226  0.3561  0.9567  0.3622
  211MOL0     H29079   7.416   7.338   8.050  0.9795 -1.6144  0.4454
  211MOL0     H29080   7.803   7.015   8.019  2.7209 -0.9284 -0.8012
  211MOL0     H29081   7.809   6.763   7.985  2.6668  0.3613  1.7931
  211MOL0     H29082   7.671   6.400   8.183  3.3907  0.2715  0.3128
  211MOL0     H29083   7.632   6.521   8.314  0.2049  2.6141 -0.5102
  211MOL0     H29084   7.482   6.638   8.147  0.1619 -1.3085  5.1132
  211MOL0     H29085   7.551   6.553   8.021  2.2410  0.8174  0.8985
  211MOL0     H29086   7.393   6.428   8.250  0.9089 -0.4604  0.2426
  211MOL0     H29087   7.456   6.328   8.138  0.2782  0.6469  1.9063
  211MOL0     H29088   7.246   6.354   8.049 -0.6351 -0.0242 -1.1510
  211MOL0     H29089   7.322   6.486   7.961 -1.3202 -0.5582 -0.8337
  211MOL0     H29090   7.155   6.498   8.214  2.2143 -0.1371  1.3548
  211MOL0     H29091   7.245   6.636   8.139  1.3439 -0.8355  0.1579
  211MOL0     H29092   6.988   6.592   8.100  0.0119  2.7559 -0.4306
  211MOL0     H29093   7.033   6.462   7.993 -0.1989  0.6308 -3.0902
  211MOL0     H29094   7.142   6.609   7.832  1.4628 -0.4473  0.8958
  211MOL0     H29095   7.104   6.755   7.932 -2.9639  0.9980  1.9639
  211MOL0     H29096   6.912   6.766   7.796 -1.7246  2.4272  3.6501
  211MOL0     H29097   6.852   6.661   7.926 -0.8428  4.3826 -1.1934
  211MOL0     H29098   7.727   6.705   8.379  0.5370  0.3940 -0.7901
  211MOL0     H29099   7.682   6.959   8.418  2.2145  0.1233  2.4257
  211MOL0     H29100   7.913   7.359   8.241 -0.3201 -0.8865 -1.8327
  211MOL0     H29101   7.944   7.588   8.224 -2.3990  0.6189  3.0969
  211MOL0     H29102   9.140   7.384   7.978 -1.6811  1.1552  2.2458
  211MOL0     H29103   9.301   7.204   8.014 -1.9400 -0.4359  1.3772
  211MOL0     H29104   9.710   7.095   8.280  1.2631  2.3436 -1.8260
  211MOL0     H29105   9.851   6.889   8.304  1.0546 -0.3256 -1.1686
  211MOL0     H29106   9.811   6.552   8.235 -0.9591 -3.1366 -0.3828
  211MOL0     H29107   9.745   6.579   8.067  1.5744 -0.4135 -2.0355
  211MOL0     H29108  10.040   6.509   8.127 -1.7795  1.9083  0.9610
  211MOL0     H29109   9.946   6.499   7.984 -0.5029  1.8389  0.1727
  211MOL0     H29110   9.819   6.300   8.099 -0.1459  0.6410  0.7910
  211MOL0     H29111   9.991   6.285   8.052  2.7484  2.4756  1.3101
  211MOL0     H29112   9.933   6.366   8.338  0.1868  0.7787 -0.3495
  211MOL0     H29113  10.076   6.291   8.288 -0.0950  0.7850  0.9261
  211MOL0     H29114   9.831   5.952   8.353 -4.0650  2.0513 -0.7570
  211MOL0     H29115   9.759   6.772   7.901  1.6790 -0.7996  0.1833
  211MOL0     H29116   9.644   6.895   7.760  0.3491  0.1993 -0.1820
  211MOL0     H29117   9.506   6.984   7.840  1.0640  0.1820 -1.4169
  211MOL0     H29118   9.646   7.075   7.795  0.4945  0.6330  1.1575
  212MOL0     O29119   1.824   6.372   6.480 -0.4402 -0.9004  0.1534
  212MOL0     C29120   1.913   6.439   6.543  0.0026  0.1073  0.1990
  212MOL0     O29121   2.051   6.416   6.529  0.4673  0.9378  0.3043
  212MOL0     C29122   2.084   6.309   6.450  0.6862  1.5171  1.3628
  212MOL0     C29123   2.129   6.194   6.514 -0.4300  0.1483 -0.1939
  212MOL0     C29124   2.141   6.072   6.445 -0.5318 -0.1242  0.4516
  212MOL0     C29125   2.153   6.079   6.305 -0.3437  0.2248  1.2763
  212MOL0     O29126   2.185   5.970   6.220  0.0109 -0.1115 -0.1680
  212MOL0     C29127   2.225   5.851   6.287  0.5628 -0.4212  0.3830
  212MOL0     C29128   2.262   5.738   6.201 -0.5639  0.3032  0.2034
  212MOL0     C29129   2.159   5.698   6.099 -0.1910 -0.2492 -0.2976
  212MOL0     C29130   2.198   5.566   6.038  0.6440 -0.2777  0.4046
  212MOL0     C29131   2.106   5.518   5.937  0.1936  0.7012  0.2420
  212MOL0     C29132   2.130   5.365   5.910  1.3686 -0.1034  0.0248
  212MOL0     C29133   2.009   5.296   5.842  0.6407 -0.4212  0.2773
  212MOL0     C29134   1.989   5.341   5.695 -0.0338 -0.4891 -0.2886
  212MOL0     N29135   1.867   5.429   5.680 -0.6074  0.3360  0.1680
  212MOL0     C29136   1.734   5.398   5.659 -1.0292 -0.2137 -0.3677
  212MOL0     C29137   1.674   5.518   5.658 -0.2729  0.4927  0.3181
  212MOL0     C29138   1.531   5.543   5.631  1.2301 -0.2028 -0.2380
  212MOL0     C29139   1.502   5.579   5.486 -0.0492  0.6681 -0.7565
  212MOL0     C29140   1.582   5.702   5.438 -0.9800  0.0276  1.0629
  212MOL0     C29141   1.549   5.832   5.507  0.6842 -0.7148  1.0680
  212MOL0     O29142   1.603   5.946   5.434 -0.4182  0.3519  0.0721
  212MOL0     C29143   1.583   6.075   5.477 -0.6100 -0.3445  0.3895
  212MOL0     C29144   1.633   6.185   5.395  0.5031 -0.5458 -0.6937
  212MOL0     C29145   1.600   6.326   5.418  0.5294  0.6230 -0.2395
  212MOL0     C29146   1.660   6.425   5.325  0.4267 -0.7354 -0.3745
  212MOL0     C29147   1.511   6.352   5.528 -0.5573  0.2914  0.0061
  212MOL0     C29148   1.446   6.480   5.569  0.6701 -0.3601  0.9178
  212MOL0     O29149   1.448   6.511   5.699 -0.9158 -1.4614  0.1042
  212MOL0     C29150   1.389   6.634   5.728 -0.3840  0.9888  0.8139
  212MOL0     C29151   1.466   6.754   5.731 -0.1837 -0.1918 -0.3758
  212MOL0     C29152   1.410   6.866   5.772  0.7767 -0.0360 -0.3376
  212MOL0     C29153   1.267   6.875   5.778 -0.5936  0.1906 -0.4623
  212MOL0     O29154   1.195   6.977   5.837 -0.2529  0.2356 -0.8941
  212MOL0     C29155   1.276   7.091   5.872  0.1942  0.5741  0.2277
  212MOL0     C29156   1.183   7.207   5.920  0.4260 -0.5899 -0.6513
  212MOL0     C29157   1.117   7.200   6.062 -0.3530  0.3199 -0.6536
  212MOL0     C29158   1.209   7.150   6.173 -0.0311  0.8945 -0.4470
  212MOL0     C29159   1.336   7.235   6.198  1.0680 -1.0138  0.2754
  212MOL0     C29160   1.397   7.207   6.331  0.4373 -0.7737  0.4997
  212MOL0     C29161   1.476   7.078   6.333 -0.7640 -0.1956 -0.0541
  212MOL0     C29162   1.585   7.060   6.445 -0.3797  0.2674 -0.3974
  212MOL0    Cl29163   1.742   7.153   6.426  0.4033 -0.0411  0.0281
  212MOL0     C29164   1.192   6.760   5.754  0.1988  0.7196  0.2039
  212MOL0     C29165   1.252   6.634   5.739  0.2061  0.4197 -0.8617
  212MOL0     O29166   1.417   6.561   5.480  0.7466  0.2105  0.2455
  212MOL0     C29167   1.467   6.245   5.599  0.0128  0.1921 -0.4634
  212MOL0     C29168   1.500   6.105   5.583  0.7046 -1.0081 -0.2415
  212MOL0     N29169   1.765   5.617   5.686 -0.5247 -0.0125  0.3681
  212MOL0     N29170   1.875   5.563   5.701 -0.2898  0.5442  0.1602
  212MOL0     C29171   2.129   6.200   6.239  0.3812  0.7035  0.2432
  212MOL0     C29172   2.084   6.308   6.307  1.3685 -0.4168 -0.2452
  212MOL0     C29173   1.865   6.555   6.609  0.4643  0.3563 -0.0433
  212MOL0     C29174   1.782   6.548   6.727 -0.7898 -0.4752 -0.3385
  212MOL0     C29175   1.729   6.666   6.780 -0.2471 -0.0007 -0.6454
  212MOL0     C29176   1.767   6.793   6.719  1.2085  0.0530 -1.2989
  212MOL0     O29177   1.720   6.911   6.769 -0.0422  0.6487  0.6168
  212MOL0     C29178   1.658   6.925   6.896  0.0208  0.1590 -0.1758
  212MOL0     C29179   1.765   6.923   7.010 -0.8451 -0.2101 -0.9232
  212MOL0     C29180   1.862   7.039   6.985  1.0191 -0.2017 -0.3402
  212MOL0     C29181   1.977   7.030   6.876  0.1554  0.4019  0.8811
  212MOL0     C29182   2.026   6.892   6.859  0.1916  0.5857  0.1440
  212MOL0     C29183   2.065   6.776   6.867  0.9917 -0.0286  0.3849
  212MOL0     C29184   1.826   6.793   6.594 -0.2984  0.5802 -0.9273
  212MOL0     C29185   1.879   6.678   6.542 -0.2836  0.5792  0.6221
  212MOL0     C29186   1.956   6.687   6.401 -0.4260  0.5265 -0.2377
  212MOL0     H29187   2.162   6.198   6.617 -1.7841  0.5216  0.2465
  212MOL0     H29188   2.149   5.984   6.509  1.9571 -0.5117 -0.2725
  212MOL0     H29189   2.145   5.814   6.352 -1.2308 -1.5995 -2.3257
  212MOL0     H29190   2.314   5.873   6.347  0.6027 -1.4070  0.7045
  212MOL0     H29191   2.367   5.752   6.173 -0.3208  3.3834  2.2039
  212MOL0     H29192   2.263   5.647   6.263 -0.2432  0.8836  1.0716
  212MOL0     H29193   2.059   5.697   6.143  1.5280 -4.0339  4.4490
  212MOL0     H29194   2.158   5.776   6.023  3.6891  0.0176 -0.2715
  212MOL0     H29195   2.301   5.575   6.004  1.2039 -2.9580  1.1427
  212MOL0     H29196   2.191   5.490   6.117 -4.1057  0.2328  0.7875
  212MOL0     H29197   2.111   5.580   5.847  0.2629  0.4458  0.0664
  212MOL0     H29198   2.006   5.548   5.971 -0.8011 -2.6423  0.5944
  212MOL0     H29199   2.217   5.353   5.844  0.5337 -0.3890 -1.0596
  212MOL0     H29200   2.135   5.308   6.003  0.0339  1.2343  0.9554
  212MOL0     H29201   1.922   5.314   5.906 -0.2350  3.9472 -1.7320
  212MOL0     H29202   2.011   5.187   5.837 -4.3781 -0.7330  0.2724
  212MOL0     H29203   2.080   5.396   5.668 -0.8228  2.0018  1.8298
  212MOL0     H29204   1.988   5.250   5.634  3.3823  0.1163 -1.4892
  212MOL0     H29205   1.692   5.298   5.652  0.4031 -0.9631  1.1939
  212MOL0     H29206   1.510   5.633   5.690  2.1868 -0.3259  0.3116
  212MOL0     H29207   1.464   5.463   5.665 -1.1318  0.2217 -3.4068
  212MOL0     H29208   1.514   5.494   5.419  1.5927 -1.0384  1.5234
  212MOL0     H29209   1.395   5.602   5.480 -0.2053 -0.2289 -1.6651
  212MOL0     H29210   1.689   5.679   5.436 -1.0233 -0.1925 -0.7078
  212MOL0     H29211   1.555   5.700   5.332  0.6088  1.7531  0.5695
  212MOL0     H29212   1.441   5.848   5.514  0.6924  0.4005 -0.8137
  212MOL0     H29213   1.590   5.838   5.608  0.8342  1.9266  0.9162
  212MOL0     H29214   1.693   6.160   5.308  0.4840  1.6326 -1.3757
  212MOL0     H29215   1.768   6.413   5.343  0.2412 -1.1967  0.4963
  212MOL0     H29216   1.640   6.525   5.364 -2.4792 -1.3615 -0.0569
  212MOL0     H29217   1.635   6.426   5.219 -0.9845  0.9427 -0.0628
  212MOL0     H29218   1.573   6.759   5.714  0.3822  0.2201  2.6556
  212MOL0     H29219   1.466   6.954   5.801 -4.0337  3.0432  0.8328
  212MOL0     H29220   1.345   7.073   5.955  1.6789  2.7558 -0.4431
  212MOL0     H29221   1.336   7.133   5.791  1.8562 -2.4905 -0.2891
  212MOL0     H29222   1.244   7.298   5.922 -1.9829  1.1066  0.9123
  212MOL0     H29223   1.105   7.226   5.847  2.0207 -1.0929 -2.5643
  212MOL0     H29224   1.033   7.130   6.063  0.5256 -0.8669  2.3460
  212MOL0     H29225   1.075   7.295   6.094 -0.2003  0.1886 -0.0532
  212MOL0     H29226   1.238   7.047   6.148  1.8677  1.5988 -1.2525
  212MOL0     H29227   1.151   7.130   6.264 -0.9318 -3.9807 -1.8030
  212MOL0     H29228   1.406   7.218   6.116  2.2206 -1.1606  1.2515
  212MOL0     H29229   1.317   7.342   6.217 -0.7530 -1.6507  2.4895
  212MOL0     H29230   1.321   7.201   6.409  1.5949 -0.9505  1.6418
  212MOL0     H29231   1.463   7.290   6.358  2.0886 -0.8699 -2.7108
  212MOL0     H29232   1.539   7.090   6.244  0.1719  0.7740  0.7140
  212MOL0     H29233   1.417   6.986   6.336  2.1444 -2.2700  5.0639
  212MOL0     H29234   1.610   6.954   6.453 -0.1928  0.3151 -0.3449
  212MOL0     H29235   1.538   7.093   6.537  2.1846  0.4735  0.9484
  212MOL0     H29236   1.086   6.759   5.776  0.4002  0.3502  1.2122
  212MOL0     H29237   1.202   6.538   5.744  1.8100 -0.3877  0.3938
  212MOL0     H29238   1.398   6.261   5.682 -1.1662  3.3640 -1.8952
  212MOL0     H29239   1.448   6.037   5.650 -3.4126  2.1868  0.3120
  212MOL0     H29240   2.144   6.211   6.132  1.0597 -5.0881 -0.6011
  212MOL0     H29241   2.045   6.397   6.260 -2.5499 -1.9354 -0.3143
  212MOL0     H29242   1.754   6.451   6.764 -0.2461 -0.7781 -0.7122
  212MOL0     H29243   1.666   6.660   6.868  0.3972 -0.0813 -0.1872
  212MOL0     H29244   1.612   7.024   6.901 -2.7987 -0.9956 -1.1737
  212MOL0     H29245   1.580   6.852   6.919 -0.2158  1.1846  2.6425
  212MOL0     H29246   1.821   6.830   7.021 -1.7192 -0.6868 -0.4387
  212MOL0     H29247   1.721   6.941   7.109 -0.1622 -2.1859 -0.2031
  212MOL0     H29248   1.798   7.126   6.967  1.4064  0.3876  0.9923
  212MOL0     H29249   1.919   7.067   7.074 -1.6055 -0.2131  1.4728
  212MOL0     H29250   2.056   7.100   6.906 -2.1029  2.2695  2.9237
  212MOL0     H29251   1.948   7.072   6.780  1.1121  0.7807  0.7458
  212MOL0     H29252   2.090   6.673   6.884  0.3611 -0.1895  0.3367
  212MOL0     H29253   1.862   6.889   6.557  1.6530  0.6789  1.0247
  212MOL0     H29254   2.044   6.622   6.406 -0.1127  0.9032 -0.7216
  212MOL0     H29255   1.892   6.653   6.319 -1.3366  1.4677  0.0664
  212MOL0     H29256   1.997   6.787   6.386  1.4602 -0.3162 -1.0853
  213MOL0     O29257   0.311   3.215   4.637 -0.4393  0.0415 -0.2953
  213MOL0     C29258   0.219   3.135   4.606 -0.0553  0.4200  1.0228
  213MOL0     O29259   0.156   3.053   4.689  0.0807 -0.3913 -0.1651
  213MOL0     C29260   0.157   3.065   4.820 -0.8792 -0.0126  0.9412
  213MOL0     C29261   0.186   3.190   4.885 -0.7429  0.9091  0.6024
  213MOL0     C29262   0.173   3.204   5.021 -0.4269  0.3987 -0.7327
  213MOL0     C29263   0.165   3.085   5.102 -0.6771 -0.3202  0.7507
  213MOL0     O29264   0.182   3.082   5.237 -0.2183 -0.6993  0.1257
  213MOL0     C29265   0.154   3.204   5.310  0.8341  0.5523  1.2850
  213MOL0     C29266   0.197   3.188   5.448 -0.1409 -0.1956  0.0823
  213MOL0     C29267   0.351   3.169   5.460  0.5891  0.1998 -0.0592
  213MOL0     C29268   0.401   3.159   5.607  0.2372  0.2300  0.3413
  213MOL0     C29269   0.550   3.170   5.623  0.0305  0.1350 -1.0610
  213MOL0     C29270   0.622   3.065   5.544  0.4041 -0.5243 -1.3013
  213MOL0     C29271   0.772   3.056   5.579  0.0767  1.1283 -0.2728
  213MOL0     C29272   0.821   2.979   5.700 -0.3718 -1.1498 -1.3357
  213MOL0     N29273   0.783   3.051   5.824  1.0412  0.2169  0.6356
  213MOL0     C29274   0.660   3.037   5.891 -0.7130  0.3200 -0.0820
  213MOL0     C29275   0.671   3.118   6.001 -0.0536 -0.4804  0.0579
  213MOL0     C29276   0.576   3.147   6.119 -0.0250  0.4877 -0.1496
  213MOL0     C29277   0.456   3.222   6.061  0.1844  0.1389 -0.0180
  213MOL0     C29278   0.394   3.312   6.165  0.1322 -0.5353 -0.5498
  213MOL0     C29279   0.305   3.412   6.105  0.9861  0.0780 -1.0124
  213MOL0     O29280   0.373   3.501   6.008  0.2830  0.4005  0.7734
  213MOL0     C29281   0.288   3.545   5.907 -0.4946 -0.5083 -0.6447
  213MOL0     C29282   0.151   3.556   5.910  0.3224 -0.6498 -0.1961
  213MOL0     C29283   0.071   3.590   5.791  0.4070  0.0896  0.0038
  213MOL0     C29284  -0.079   3.602   5.810  0.6184 -0.1736  0.1477
  213MOL0     C29285   0.138   3.628   5.675  0.0659 -0.8915  0.7419
  213MOL0     C29286   0.076   3.673   5.545 -0.7740  0.5177 -1.0937
  213MOL0     O29287  -0.060   3.656   5.536 -0.4884  0.6920  0.4461
  213MOL0     C29288  -0.117   3.637   5.416  0.0403 -0.1031  0.9131
  213MOL0     C29289  -0.064   3.663   5.288 -0.0359  0.9167 -0.5791
  213MOL0     C29290  -0.136   3.618   5.176  1.0767  0.4000  0.4919
  213MOL0     C29291  -0.261   3.557   5.183  0.7215 -0.1835 -0.0325
  213MOL0     O29292  -0.331   3.504   5.072  0.4886 -0.0046 -0.6640
  213MOL0     C29293  -0.283   3.532   4.944 -0.3355 -0.5560 -0.4993
  213MOL0     C29294  -0.372   3.484   4.824 -0.1952 -0.1243  0.0527
  213MOL0     C29295  -0.509   3.544   4.839 -0.7712  0.5914  0.4849
  213MOL0     C29296  -0.525   3.700   4.851 -0.5552  0.4461 -0.3760
  213MOL0     C29297  -0.671   3.737   4.816  0.1447 -0.9454 -0.1877
  213MOL0     C29298  -0.704   3.890   4.827  0.5246 -0.6171 -0.0586
  213MOL0     C29299  -0.593   3.983   4.761  0.1176 -0.1024  0.4926
  213MOL0     C29300  -0.595   4.128   4.799  0.7312 -0.2493 -0.3393
  213MOL0    Cl29301  -0.598   4.154   4.978  0.1257 -0.2119  0.4766
  213MOL0     C29302  -0.311   3.526   5.310  0.1409  0.3370 -0.5641
  213MOL0     C29303  -0.238   3.566   5.425 -0.1578  0.7003  0.4398
  213MOL0     O29304   0.148   3.733   5.465  0.4546  0.0762  0.5590
  213MOL0     C29305   0.277   3.627   5.672 -0.2248  0.4306 -0.6972
  213MOL0     C29306   0.351   3.578   5.787 -0.1974 -0.7486 -0.2762
  213MOL0     N29307   0.790   3.189   5.981  0.5746  0.1784  0.2216
  213MOL0     N29308   0.856   3.151   5.875  0.5414 -0.1393 -0.6146
  213MOL0     C29309   0.143   2.967   5.029  0.1193 -0.6819 -0.2386
  213MOL0     C29310   0.125   2.954   4.892 -0.0504  0.3436  1.2287
  213MOL0     C29311   0.187   3.124   4.464 -0.5603 -0.7886 -0.5769
  213MOL0     C29312   0.071   3.050   4.435  0.8170 -0.5243  0.6640
  213MOL0     C29313   0.042   3.027   4.299  0.7174 -0.4511  0.0538
  213MOL0     C29314   0.119   3.065   4.191  0.7847 -0.8564 -1.0188
  213MOL0     O29315   0.062   3.037   4.072  0.4893 -0.8075  0.6528
  213MOL0     C29316   0.148   3.035   3.955  0.0094  0.3256 -0.2537
  213MOL0     C29317   0.096   2.919   3.861  1.2602 -0.3873 -1.6707
  213MOL0     C29318  -0.056   2.928   3.848  0.0191 -0.3874  0.3325
  213MOL0     C29319  -0.108   2.846   3.734 -0.0465  0.4452 -0.1504
  213MOL0     C29320  -0.086   2.918   3.609  0.8711  0.2969 -0.5490
  213MOL0     C29321  -0.057   2.963   3.501 -0.5694  0.3465 -0.1403
  213MOL0     C29322   0.241   3.132   4.223  0.9642 -0.0397  0.6177
  213MOL0     C29323   0.274   3.159   4.352 -0.4349 -0.0259 -0.0219
  213MOL0     C29324   0.407   3.233   4.376 -0.2962 -0.4558 -0.0391
  213MOL0     H29325   0.209   3.284   4.836  4.2741  0.0411  0.7714
  213MOL0     H29326   0.188   3.307   5.052 -0.6000  0.1971  0.0413
  213MOL0     H29327   0.046   3.215   5.295  1.2362  0.9644 -2.0926
  213MOL0     H29328   0.191   3.298   5.267 -2.5546  0.0865 -3.5182
  213MOL0     H29329   0.160   3.273   5.507 -2.0994  0.2172 -1.6112
  213MOL0     H29330   0.151   3.098   5.489 -0.9463 -0.1180 -0.6119
  213MOL0     H29331   0.370   3.079   5.401 -3.7809  1.6210 -4.2778
  213MOL0     H29332   0.410   3.252   5.420  1.6634  0.0516  1.1510
  213MOL0     H29333   0.364   3.253   5.650  4.8800  1.7973  1.5322
  213MOL0     H29334   0.358   3.072   5.657  1.9727 -2.4144 -2.4605
  213MOL0     H29335   0.571   3.168   5.730 -0.8190 -3.2059 -0.8553
  213MOL0     H29336   0.590   3.262   5.580  0.6398  0.3072 -0.1621
  213MOL0     H29337   0.568   2.971   5.560 -1.5366  0.4587 -1.8069
  213MOL0     H29338   0.616   3.079   5.435  0.7914  0.9550 -1.1485
  213MOL0     H29339   0.805   3.161   5.584 -1.7651  1.6960  1.7452
  213MOL0     H29340   0.824   3.008   5.496  0.1082  1.9102 -0.7131
  213MOL0     H29341   0.781   2.878   5.693  0.8793 -1.6456 -1.5700
  213MOL0     H29342   0.930   2.978   5.707 -0.3992  0.9122  0.6980
  213MOL0     H29343   0.577   2.978   5.856 -1.7187  3.4371 -3.6866
  213MOL0     H29344   0.620   3.202   6.202 -1.2939 -0.1927  1.0188
  213MOL0     H29345   0.524   3.065   6.169 -0.8890  1.1778  0.1021
  213MOL0     H29346   0.511   3.287   5.992  1.6167  0.3349  1.2444
  213MOL0     H29347   0.386   3.155   6.009 -1.8456  1.9478  0.2811
  213MOL0     H29348   0.352   3.252   6.247  0.3428  0.9494  0.6999
  213MOL0     H29349   0.471   3.379   6.205  0.3703  0.1795 -2.1125
  213MOL0     H29350   0.217   3.355   6.073  1.5693 -1.9406  0.7444
  213MOL0     H29351   0.263   3.474   6.185  0.4680 -0.4675 -0.8539
  213MOL0     H29352   0.102   3.524   6.001 -2.5489 -2.9902 -2.3717
  213MOL0     H29353  -0.134   3.531   5.746  3.3769 -0.3509 -2.2724
  213MOL0     H29354  -0.114   3.705   5.805 -1.3721 -0.7770  0.6283
  213MOL0     H29355  -0.093   3.578   5.915  3.2029  1.4561  0.9474
  213MOL0     H29356   0.030   3.713   5.268 -0.0832  1.8389  1.3280
  213MOL0     H29357  -0.085   3.613   5.081  1.4595 -2.8421  0.7399
  213MOL0     H29358  -0.267   3.641   4.943  3.4917 -0.9184  1.6755
  213MOL0     H29359  -0.185   3.487   4.925  0.1533  0.6629 -0.9946
  213MOL0     H29360  -0.319   3.497   4.729  0.5047 -0.4167  0.3975
  213MOL0     H29361  -0.380   3.375   4.829  2.4330 -0.4484 -0.9141
  213MOL0     H29362  -0.564   3.494   4.921 -0.3287 -0.5925  0.0793
  213MOL0     H29363  -0.565   3.510   4.751 -0.3946  1.0543  0.0666
  213MOL0     H29364  -0.442   3.740   4.791  0.4946 -2.5608 -1.1174
  213MOL0     H29365  -0.500   3.722   4.955  1.0570 -0.0115 -0.6293
  213MOL0     H29366  -0.689   3.707   4.712  0.7632 -4.3835  0.5876
  213MOL0     H29367  -0.732   3.676   4.883  0.8551 -1.5956 -0.1277
  213MOL0     H29368  -0.721   3.911   4.933 -0.0923 -2.9748  0.3535
  213MOL0     H29369  -0.804   3.906   4.785  0.9341 -1.7186 -1.5525
  213MOL0     H29370  -0.592   3.973   4.652  1.5378 -0.6055  0.5324
  213MOL0     H29371  -0.498   3.941   4.795 -0.3462 -0.2022  1.6874
  213MOL0     H29372  -0.683   4.187   4.772  1.5970  2.0106  1.4338
  213MOL0     H29373  -0.504   4.168   4.753 -0.0231 -1.3242 -2.9670
  213MOL0     H29374  -0.402   3.469   5.326  1.6334 -2.2396 -0.6093
  213MOL0     H29375  -0.278   3.540   5.522  2.4356 -3.0158  0.7560
  213MOL0     H29376   0.347   3.659   5.596  4.2836 -5.6443  0.1730
  213MOL0     H29377   0.459   3.576   5.776  0.3477 -1.4140  3.7344
  213MOL0     H29378   0.112   2.884   5.092  1.8871 -0.8658  0.4260
  213MOL0     H29379   0.116   2.858   4.842  0.7220  0.8300  0.1321
  213MOL0     H29380  -0.005   3.006   4.499  0.4056 -1.7352 -0.5908
  213MOL0     H29381  -0.059   2.990   4.284  0.8804 -0.7218 -0.4020
  213MOL0     H29382   0.154   3.128   3.898  0.4566  0.5033  0.0724
  213MOL0     H29383   0.250   3.000   3.976 -1.4352 -3.3709  1.4138
  213MOL0     H29384   0.120   2.820   3.900 -0.5648  1.3308  5.1476
  213MOL0     H29385   0.141   2.945   3.764  4.2825  2.5791  0.3221
  213MOL0     H29386  -0.108   2.899   3.940  1.4910 -1.6904  0.7940
  213MOL0     H29387  -0.095   3.030   3.834 -3.7694 -1.8215 -0.9809
  213MOL0     H29388  -0.215   2.827   3.742  0.4845 -5.2649 -2.1752
  213MOL0     H29389  -0.057   2.750   3.733  2.7952  1.8449 -0.5051
  213MOL0     H29390  -0.024   3.009   3.410  1.7120  2.2190  1.4977
  213MOL0     H29391   0.305   3.170   4.144  2.4126 -1.3034  1.1535
  213MOL0     H29392   0.452   3.265   4.282 -5.0029  0.5877 -2.2228
  213MOL0     H29393   0.391   3.320   4.440 -1.6718  0.1652 -1.1768
  213MOL0     H29394   0.479   3.165   4.423  0.3260  0.2047 -0.0258
  214MOL0     O29395   5.274   7.465   9.417 -0.3257 -0.0336 -0.4183
  214MOL0     C29396   5.234   7.351   9.426 -0.0476 -0.1877 -0.9523
  214MOL0     O29397   5.160   7.294   9.527 -0.2274 -0.1981  0.0231
  214MOL0     C29398   5.148   7.358   9.645 -0.1500 -0.5074 -0.5783
  214MOL0     C29399   5.035   7.316   9.717  1.1459 -0.6133 -0.2430
  214MOL0     C29400   5.018   7.355   9.850  0.3870  0.0896 -0.2011
  214MOL0     C29401   5.116   7.430   9.914  0.1746 -0.8590  0.0603
  214MOL0     O29402   5.096   7.447  10.048 -0.5169  0.3321 -0.2672
  214MOL0     C29403   5.130   7.579  10.100  0.4078  0.3963  0.0354
  214MOL0     C29404   5.043   7.615  10.218 -0.2140 -0.2198  1.1141
  214MOL0     C29405   5.083   7.540  10.346  1.0767  0.0056  1.1767
  214MOL0     C29406   5.036   7.625  10.463  1.2937  0.0573 -0.9433
  214MOL0     C29407   5.054   7.551  10.591 -0.0563 -0.0895  0.6239
  214MOL0     C29408   4.993   7.621  10.712 -0.0191  0.6759 -0.4461
  214MOL0     C29409   5.044   7.551  10.845  0.0952  0.0628 -0.9941
  214MOL0     C29410   4.950   7.554  10.977  0.1897 -0.7083 -0.8398
  214MOL0     N29411   4.810   7.498  10.958 -1.2600 -0.5478  0.0206
  214MOL0     C29412   4.789   7.372  10.915 -0.2336  0.1254 -0.4029
  214MOL0     C29413   4.660   7.350  10.901  0.1128 -0.5191  0.1165
  214MOL0     C29414   4.596   7.217  10.877 -0.1216  0.8522 -0.3067
  214MOL0     C29415   4.575   7.130  10.995 -0.3208  0.3917 -0.5866
  214MOL0     C29416   4.467   7.192  11.089 -0.1699  0.3045 -0.0712
  214MOL0     C29417   4.388   7.092  11.175 -0.2602 -0.2013 -0.0037
  214MOL0     O29418   4.310   7.183  11.249 -0.0917 -0.0021 -0.4965
  214MOL0     C29419   4.190   7.131  11.294  0.1466  0.2797 -0.4882
  214MOL0     C29420   4.079   7.209  11.288  0.7342 -0.7671  0.3683
  214MOL0     C29421   3.954   7.177  11.350  0.5583  0.1779  0.1816
  214MOL0     C29422   3.844   7.275  11.346 -1.0824  0.2189 -0.1752
  214MOL0     C29423   3.934   7.050  11.412 -1.2555  0.5035  0.9242
  214MOL0     C29424   3.807   7.001  11.482  0.2193 -0.4541 -0.0024
  214MOL0     O29425   3.819   6.902  11.575 -0.0737 -0.2156 -0.1995
  214MOL0     C29426   3.713   6.876  11.647  0.0272 -0.0007  0.1685
  214MOL0     C29427   3.654   6.972  11.727 -0.0912 -0.7188 -0.2154
  214MOL0     C29428   3.524   6.959  11.775 -0.5411  0.1344 -0.7447
  214MOL0     C29429   3.462   6.833  11.760  0.5917 -1.0403 -0.7944
  214MOL0     O29430   3.350   6.798  11.836 -0.1970  0.8526  0.4184
  214MOL0     C29431   3.258   6.907  11.868 -0.3580  0.8805 -1.1449
  214MOL0     C29432   3.137   6.865  11.960 -0.4673  0.2791  0.2635
  214MOL0     C29433   3.048   6.752  11.895  1.1076  0.1801  0.4428
  214MOL0     C29434   2.915   6.822  11.826  0.2059 -0.2110  0.3526
  214MOL0     C29435   2.952   6.897  11.700  0.0219 -0.2573  0.3960
  214MOL0     C29436   2.828   6.967  11.645 -0.0049 -0.3538 -0.1406
  214MOL0     C29437   2.781   7.082  11.728 -0.5382 -0.3084  1.0547
  214MOL0     C29438   2.675   7.158  11.643  1.0211 -0.4234  0.3328
  214MOL0    Cl29439   2.572   7.259  11.751  0.3544  0.5035  0.7671
  214MOL0     C29440   3.527   6.733  11.691  0.4908 -0.2319  1.0436
  214MOL0     C29441   3.647   6.757  11.630  0.2994 -0.0630  0.4794
  214MOL0     O29442   3.701   7.035  11.429 -0.0415 -0.7295  1.0116
  214MOL0     C29443   4.042   6.965  11.403 -0.6601  0.5607 -0.6923
  214MOL0     C29444   4.172   7.007  11.361 -0.1921 -0.3897  0.1709
  214MOL0     N29445   4.585   7.465  10.945 -0.1128 -0.3820 -0.3927
  214MOL0     N29446   4.684   7.556  10.974  0.8545 -0.7871 -0.9181
  214MOL0     C29447   5.229   7.476   9.844 -0.6141  0.6072  0.4014
  214MOL0     C29448   5.249   7.426   9.717 -0.0356  0.9436 -0.0593
  214MOL0     C29449   5.245   7.257   9.302 -1.0016 -0.0241 -0.5639
  214MOL0     C29450   5.227   7.123   9.317 -0.0116  0.2109 -0.6364
  214MOL0     C29451   5.219   7.036   9.210  0.5502  0.4494 -0.3405
  214MOL0     C29452   5.242   7.079   9.084 -0.3449  0.2656 -0.2903
  214MOL0     O29453   5.251   6.999   8.977 -0.2623  0.3373  0.0986
  214MOL0     C29454   5.144   6.915   8.943  0.8969  0.3363  0.2278
  214MOL0     C29455   5.199   6.783   8.891  0.0718 -0.1565  0.2689
  214MOL0     C29456   5.301   6.790   8.777  1.0727  0.8457  0.6847
  214MOL0     C29457   5.366   6.659   8.738 -0.3019 -0.1297 -0.1056
  214MOL0     C29458   5.419   6.605   8.861 -0.8374  0.0726  0.0340
  214MOL0     C29459   5.482   6.554   8.954  0.1988  0.7841  0.4240
  214MOL0     C29460   5.268   7.221   9.068 -0.4822 -0.3219 -0.5766
  214MOL0     C29461   5.261   7.313   9.173  0.4032 -0.6947  0.4402
  214MOL0     C29462   5.290   7.462   9.135  0.1692 -0.7582  0.6920
  214MOL0     H29463   4.954   7.254   9.679 -0.0494  0.5803  0.2634
  214MOL0     H29464   4.927   7.321   9.897 -2.0805  1.0337 -3.9192
  214MOL0     H29465   5.118   7.663  10.031 -1.9276  1.7819  1.9561
  214MOL0     H29466   5.236   7.567  10.122  0.5541 -0.6242 -1.1413
  214MOL0     H29467   5.061   7.722  10.228  0.2130 -0.2487  0.6923
  214MOL0     H29468   4.935   7.607  10.198 -0.1585  0.1090  0.6614
  214MOL0     H29469   5.023   7.449  10.335 -1.6877  2.0134 -2.9391
  214MOL0     H29470   5.192   7.528  10.349  1.5503  2.5633 -1.5755
  214MOL0     H29471   5.089   7.720  10.469  0.2442  0.5488  1.1709
  214MOL0     H29472   4.927   7.631  10.452  1.1538  0.3048  0.4513
  214MOL0     H29473   5.160   7.552  10.616 -0.0061  2.8111  0.6364
  214MOL0     H29474   5.018   7.449  10.576 -2.5643  1.0400 -1.9871
  214MOL0     H29475   5.017   7.728  10.709  1.7325  0.3063 -3.1917
  214MOL0     H29476   4.884   7.615  10.702  0.0850  0.6314 -1.7350
  214MOL0     H29477   5.143   7.589  10.869  0.5438 -2.0230  0.7619
  214MOL0     H29478   5.053   7.446  10.818 -3.9933 -1.2959  1.9220
  214MOL0     H29479   5.001   7.497  11.054 -2.4680 -1.8937  0.1779
  214MOL0     H29480   4.949   7.651  11.027  1.9649 -1.1785  0.1924
  214MOL0     H29481   4.866   7.297  10.899  1.3256  1.8317 -1.2974
  214MOL0     H29482   4.655   7.158  10.806 -0.4421 -2.3445  1.9163
  214MOL0     H29483   4.500   7.243  10.831 -0.8728 -1.2278 -0.0255
  214MOL0     H29484   4.554   7.026  10.967  1.7551  0.3868 -2.4916
  214MOL0     H29485   4.673   7.131  11.045 -2.1336 -2.5385  3.6670
  214MOL0     H29486   4.514   7.261  11.160 -1.7238 -3.4354  5.2652
  214MOL0     H29487   4.400   7.248  11.023  4.5450  3.3273 -2.9011
  214MOL0     H29488   4.324   7.027  11.115  0.9992 -1.9431  0.4438
  214MOL0     H29489   4.451   7.035  11.245  2.1619  3.6872  1.2746
  214MOL0     H29490   4.090   7.304  11.236 -3.9013 -0.4143 -0.3917
  214MOL0     H29491   3.801   7.283  11.446  0.7117 -2.0505  0.8606
  214MOL0     H29492   3.761   7.245  11.280 -4.8444  3.0395  2.7793
  214MOL0     H29493   3.877   7.376  11.319 -1.7784  1.0153  1.7717
  214MOL0     H29494   3.704   7.069  11.732  1.4449 -1.4919  0.1144
  214MOL0     H29495   3.472   7.044  11.819 -0.1126 -1.3000  2.9045
  214MOL0     H29496   3.319   6.969  11.934 -0.8344  0.8177 -0.6386
  214MOL0     H29497   3.230   6.953  11.773 -1.0785 -0.8221 -1.8097
  214MOL0     H29498   3.182   6.820  12.050 -3.2426 -3.9827 -0.1715
  214MOL0     H29499   3.085   6.957  11.987  1.6688  1.3016  1.1455
  214MOL0     H29500   3.017   6.673  11.964  0.6382 -1.9635 -2.0713
  214MOL0     H29501   3.098   6.699  11.814  3.3251 -0.7724  2.3060
  214MOL0     H29502   2.861   6.887  11.896 -0.7846  1.3364 -1.7429
  214MOL0     H29503   2.844   6.744  11.799  1.4657 -1.1290 -0.3992
  214MOL0     H29504   3.033   6.969  11.717  1.3310 -1.5507 -0.1069
  214MOL0     H29505   2.987   6.829  11.622 -0.7758 -1.6142  1.1794
  214MOL0     H29506   2.746   6.895  11.640 -0.6007  0.4147 -2.5759
  214MOL0     H29507   2.866   7.004  11.550 -0.6895  1.2302  0.1832
  214MOL0     H29508   2.862   7.151  11.751 -2.2265  2.2813 -0.2412
  214MOL0     H29509   2.738   7.046  11.821 -0.8552  1.0227  1.4435
  214MOL0     H29510   2.604   7.087  11.601 -0.4218  1.5798 -0.8327
  214MOL0     H29511   2.715   7.226  11.566  2.7359  0.9767  2.3313
  214MOL0     H29512   3.475   6.637  11.688 -0.5430  0.3250 -1.1532
  214MOL0     H29513   3.697   6.677  11.576 -0.9113  0.2080 -1.1221
  214MOL0     H29514   4.020   6.867  11.444 -4.1436  0.9024 -1.4715
  214MOL0     H29515   4.250   6.936  11.387 -0.7221 -0.7785  0.7023
  214MOL0     H29516   5.300   7.546   9.886 -3.0651  2.5893  1.4772
  214MOL0     H29517   5.338   7.461   9.665  0.4106  1.2443  0.8958
  214MOL0     H29518   5.234   7.095   9.422 -0.2219  3.6387  0.4089
  214MOL0     H29519   5.216   6.929   9.230 -1.1562  0.6983  0.8694
  214MOL0     H29520   5.079   6.893   9.028  0.8067  0.9105  0.3150
  214MOL0     H29521   5.078   6.968   8.874 -0.7385 -2.0328 -0.1321
  214MOL0     H29522   5.120   6.724   8.843  0.1978  1.0217 -1.4806
  214MOL0     H29523   5.234   6.737   8.984  1.7547  2.2583  0.9460
  214MOL0     H29524   5.246   6.842   8.698  0.7357  0.6761  0.8109
  214MOL0     H29525   5.398   6.832   8.806  2.1465 -0.1298 -1.2989
  214MOL0     H29526   5.451   6.666   8.670 -0.4694 -0.2574 -0.3286
  214MOL0     H29527   5.295   6.593   8.686  0.6059  0.8489 -2.7448
  214MOL0     H29528   5.544   6.512   9.031 -2.7186  0.2147  2.6285
  214MOL0     H29529   5.277   7.245   8.962  0.9496 -3.9859 -1.4749
  214MOL0     H29530   5.222   7.526   9.193  0.1386  0.9401 -1.1056
  214MOL0     H29531   5.391   7.486   9.168  1.4237 -0.2843 -3.0330
  214MOL0     H29532   5.283   7.484   9.028  2.6269  2.8723  1.0742
  215MOL0     O29533   6.253   1.506   9.493  0.2436  0.2598 -0.4468
  215MOL0     C29534   6.263   1.598   9.417 -0.0698  1.6749 -0.1577
  215MOL0     O29535   6.350   1.704   9.437 -0.7098  0.0957  0.1964
  215MOL0     C29536   6.381   1.751   9.566  0.1814  0.2711  0.0473
  215MOL0     C29537   6.330   1.705   9.688 -0.0822  0.2832  0.4074
  215MOL0     C29538   6.351   1.770   9.809 -0.0795  0.6561  0.9035
  215MOL0     C29539   6.443   1.879   9.815  1.2038 -0.1404  0.6921
  215MOL0     O29540   6.450   1.962   9.922  0.7809 -0.0449  0.6218
  215MOL0     C29541   6.543   2.065   9.912 -0.2634 -1.1949  1.1740
  215MOL0     C29542   6.525   2.172  10.028  0.0071  1.1038  0.4016
  215MOL0     C29543   6.570   2.109  10.162  0.0364  0.2336  0.5402
  215MOL0     C29544   6.537   2.195  10.279 -0.1637 -0.3571  0.2964
  215MOL0     C29545   6.570   2.126  10.415  0.1357 -0.3070 -0.6117
  215MOL0     C29546   6.717   2.091  10.427 -0.2613  0.1966 -0.4281
  215MOL0     C29547   6.753   2.026  10.564 -0.0961 -0.4931 -0.8233
  215MOL0     C29548   6.765   1.873  10.576  0.2802 -0.1450 -0.9552
  215MOL0     N29549   6.634   1.819  10.531  0.3172 -0.0642 -0.6812
  215MOL0     C29550   6.599   1.803  10.400 -0.1973 -0.9510 -0.4694
  215MOL0     C29551   6.474   1.757  10.405 -0.2259  0.7162 -0.0514
  215MOL0     C29552   6.401   1.711  10.268  0.7301  1.0100  0.4039
  215MOL0     C29553   6.459   1.579  10.218 -0.3207 -0.3498  0.5340
  215MOL0     C29554   6.378   1.509  10.105  0.1299 -0.3643 -0.5099
  215MOL0     C29555   6.440   1.368  10.067 -0.4246  0.2464 -0.4941
  215MOL0     O29556   6.396   1.343   9.931  0.2786  0.3943  0.4904
  215MOL0     C29557   6.266   1.287   9.914  0.6935 -0.1551 -0.1053
  215MOL0     C29558   6.181   1.248  10.026 -0.1176 -0.8700 -0.0852
  215MOL0     C29559   6.049   1.192  10.003 -0.3407 -0.3400 -0.2949
  215MOL0     C29560   5.965   1.162  10.135 -0.1316 -0.4120 -0.1455
  215MOL0     C29561   6.006   1.172   9.872 -0.2102  0.3303  0.2432
  215MOL0     C29562   5.870   1.140   9.836  0.5630 -0.5508 -0.3232
  215MOL0     O29563   5.838   1.157   9.704 -0.4471 -0.3103 -0.7146
  215MOL0     C29564   5.711   1.145   9.665  0.1512  0.0620  0.6010
  215MOL0     C29565   5.628   1.251   9.621  0.4993  0.1921 -0.4502
  215MOL0     C29566   5.491   1.228   9.578  0.1138  0.4572 -0.3527
  215MOL0     C29567   5.437   1.106   9.578  0.8979 -0.1348 -1.0808
  215MOL0     O29568   5.305   1.084   9.547  0.2358 -0.2535 -0.0246
  215MOL0     C29569   5.265   0.966   9.487  0.9075 -0.1555 -0.3429
  215MOL0     C29570   5.119   0.991   9.460  1.3561  0.1354 -0.2209
  215MOL0     C29571   5.032   1.047   9.582 -0.7114 -0.0126 -0.5730
  215MOL0     C29572   5.025   0.921   9.680  0.0141 -0.8481  0.3328
  215MOL0     C29573   4.935   0.938   9.795  0.1055 -0.2885 -0.1650
  215MOL0     C29574   4.919   0.794   9.854  0.5890 -0.6291 -0.1710
  215MOL0     C29575   4.843   0.781   9.996 -0.1434 -0.0021  0.2642
  215MOL0     C29576   4.939   0.806  10.116 -0.3933  0.1017 -0.1990
  215MOL0    Cl29577   5.073   0.694  10.131 -0.0847  0.3740 -0.4441
  215MOL0     C29578   5.524   0.992   9.601 -0.1612  0.0602 -0.3125
  215MOL0     C29579   5.659   1.024   9.628  0.4468 -0.3124 -0.3552
  215MOL0     O29580   5.784   1.103   9.917  0.6452  0.6315  0.4453
  215MOL0     C29581   6.094   1.198   9.764 -0.1858 -0.1806 -0.0054
  215MOL0     C29582   6.221   1.265   9.787 -0.5416 -0.7663  1.1224
  215MOL0     N29583   6.434   1.742  10.536  0.0248  0.2032  0.3599
  215MOL0     N29584   6.523   1.789  10.612 -0.2470  0.3643 -0.3351
  215MOL0     C29585   6.501   1.920   9.685 -0.6397 -0.1049 -0.6645
  215MOL0     C29586   6.467   1.851   9.569  0.3965 -0.1885 -0.4149
  215MOL0     C29587   6.172   1.605   9.297  0.1405  0.3190 -0.0127
  215MOL0     C29588   6.218   1.695   9.195 -0.8749  0.4629 -0.0255
  215MOL0     C29589   6.150   1.704   9.077 -0.8660 -0.6208  0.4000
  215MOL0     C29590   6.044   1.622   9.048  0.4011 -1.0475  0.2131
  215MOL0     O29591   5.985   1.635   8.922  0.7967  1.1436 -0.5284
  215MOL0     C29592   5.855   1.571   8.880  0.3377 -0.3812 -0.4804
  215MOL0     C29593   5.815   1.627   8.741  0.2709  0.2425 -0.9312
  215MOL0     C29594   5.742   1.756   8.731 -0.1566  0.4306 -0.0842
  215MOL0     C29595   5.747   1.805   8.585  0.1527  0.1069  1.2102
  215MOL0     C29596   5.654   1.919   8.557 -0.6112 -0.1623 -0.0890
  215MOL0     C29597   5.582   2.011   8.522 -0.1375  0.0156 -0.5158
  215MOL0     C29598   5.987   1.541   9.137  0.0885  0.0483  0.9767
  215MOL0     C29599   6.057   1.519   9.261 -0.5343 -0.6185  0.2249
  215MOL0     C29600   5.992   1.423   9.359  0.4669 -0.4037 -0.8309
  215MOL0     H29601   6.262   1.620   9.690  0.3410 -0.0436  1.4154
  215MOL0     H29602   6.296   1.740   9.897  1.6037 -4.9865  0.4010
  215MOL0     H29603   6.523   2.124   9.822  2.5730 -1.9040 -0.0265
  215MOL0     H29604   6.641   2.017   9.907 -0.9974 -2.7692  1.3829
  215MOL0     H29605   6.590   2.258  10.007  1.0396  0.1277 -0.5553
  215MOL0     H29606   6.418   2.197  10.029 -0.4591 -0.7178 -0.1114
  215MOL0     H29607   6.526   2.010  10.178  0.9500 -0.7733 -2.5350
  215MOL0     H29608   6.679   2.098  10.158 -0.1193 -1.2538 -3.0180
  215MOL0     H29609   6.594   2.286  10.258 -3.4242  1.5056 -1.1987
  215MOL0     H29610   6.435   2.234  10.278  0.6348  1.9827  1.4547
  215MOL0     H29611   6.501   2.041  10.417  1.4442 -1.4049 -0.0086
  215MOL0     H29612   6.540   2.189  10.500  1.1311 -0.0268 -0.4495
  215MOL0     H29613   6.760   2.022  10.354  3.1891  0.5660  1.0415
  215MOL0     H29614   6.783   2.178  10.436  3.2561 -2.3451  1.0951
  215MOL0     H29615   6.685   2.075  10.633 -1.4569 -0.4550 -2.1309
  215MOL0     H29616   6.849   2.070  10.590 -0.6373  0.6421 -0.7008
  215MOL0     H29617   6.846   1.839  10.511 -2.7599 -2.5708 -3.8004
  215MOL0     H29618   6.777   1.835  10.678  1.5100 -1.5501 -1.5869
  215MOL0     H29619   6.662   1.836  10.318  0.1586 -0.0087  0.1686
  215MOL0     H29620   6.405   1.782  10.185 -0.9126  0.3896 -0.2654
  215MOL0     H29621   6.295   1.704  10.298  0.3252 -0.4754 -1.2088
  215MOL0     H29622   6.556   1.601  10.172 -1.3557  1.0284 -1.1277
  215MOL0     H29623   6.469   1.509  10.301 -0.1490 -1.2227 -0.2121
  215MOL0     H29624   6.272   1.504  10.132  0.6617 -1.2766  1.6128
  215MOL0     H29625   6.388   1.566  10.012 -2.9700  1.3545  0.0588
  215MOL0     H29626   6.549   1.377  10.075 -0.5644  1.4143  0.5066
  215MOL0     H29627   6.411   1.289  10.137  2.6779  0.3614  1.0888
  215MOL0     H29628   6.204   1.271  10.130  0.0721 -1.2160 -0.0502
  215MOL0     H29629   5.943   1.055  10.142 -4.2145  0.0986 -2.0408
  215MOL0     H29630   5.874   1.223  10.128  0.2029  0.0673 -0.4385
  215MOL0     H29631   6.027   1.203  10.215  1.2916  1.2567 -1.9862
  215MOL0     H29632   5.673   1.349   9.632 -0.9591  0.6572  2.2744
  215MOL0     H29633   5.422   1.311   9.566  0.0613  0.2167 -1.9133
  215MOL0     H29634   5.322   0.945   9.396  2.5223  0.4932  0.4718
  215MOL0     H29635   5.276   0.876   9.549  3.1072 -0.5897 -1.2614
  215MOL0     H29636   5.119   1.068   9.383 -2.7827  3.2058  2.3862
  215MOL0     H29637   5.060   0.909   9.419 -1.8450  3.1690 -2.2124
  215MOL0     H29638   4.929   1.071   9.552 -0.9851 -0.1926  0.1995
  215MOL0     H29639   5.066   1.143   9.623 -0.4884  1.9221 -4.7212
  215MOL0     H29640   5.128   0.908   9.715  2.4869 -0.4807 -5.6684
  215MOL0     H29641   4.996   0.833   9.623 -0.3977  0.3955 -1.4520
  215MOL0     H29642   4.979   1.016   9.859  1.7533 -2.4005  1.4197
  215MOL0     H29643   4.837   0.969   9.758  0.0995  0.6290  0.5608
  215MOL0     H29644   5.016   0.752   9.881 -0.9773 -2.8247  2.7163
  215MOL0     H29645   4.869   0.733   9.778  0.7822  0.7543 -1.4338
  215MOL0     H29646   4.801   0.681  10.002  1.3773 -0.7224 -0.5122
  215MOL0     H29647   4.759   0.851   9.985  0.1280 -0.0282 -3.0335
  215MOL0     H29648   4.878   0.811  10.207  0.1752  1.4063  0.1254
  215MOL0     H29649   4.972   0.910  10.105 -0.4462  0.2072  0.5695
  215MOL0     H29650   5.484   0.891   9.591 -1.0079  0.5144 -1.6206
  215MOL0     H29651   5.736   0.950   9.648  4.2362  2.5953 -2.7841
  215MOL0     H29652   6.059   1.180   9.663  1.2447  0.4497 -0.6424
  215MOL0     H29653   6.269   1.289   9.693 -0.2059 -1.7270  1.0445
  215MOL0     H29654   6.556   2.012   9.667  0.0644 -0.5541 -0.8053
  215MOL0     H29655   6.490   1.897   9.474  1.0491  1.1640  0.3652
  215MOL0     H29656   6.298   1.767   9.208  0.4200 -1.2656  2.6331
  215MOL0     H29657   6.178   1.772   8.997  0.9606 -2.5002 -0.6567
  215MOL0     H29658   5.841   1.462   8.886 -5.5345  0.0397 -1.2814
  215MOL0     H29659   5.772   1.607   8.942 -0.6564  0.7133 -2.3620
  215MOL0     H29660   5.740   1.557   8.704 -1.0094  1.2653 -0.3445
  215MOL0     H29661   5.906   1.642   8.682 -0.3353 -2.5281 -2.7111
  215MOL0     H29662   5.642   1.746   8.775 -0.8798  0.3860 -1.6913
  215MOL0     H29663   5.791   1.830   8.795  0.9943 -1.5542  1.4541
  215MOL0     H29664   5.709   1.721   8.526  2.2929 -0.6803  0.8468
  215MOL0     H29665   5.845   1.839   8.549 -0.5222 -1.3640 -2.4058
  215MOL0     H29666   5.516   2.090   8.493 -1.0592 -0.9075 -0.9802
  215MOL0     H29667   5.896   1.486   9.115 -1.4062  3.6897 -3.2193
  215MOL0     H29668   5.963   1.486   9.444  0.6273 -0.8567 -0.4386
  215MOL0     H29669   5.899   1.380   9.320  0.7024 -3.2802  1.4419
  215MOL0     H29670   6.056   1.340   9.391 -1.3512 -2.1483 -1.5175
  216MOL0     O29671   0.975   9.154   6.341 -0.0502 -0.6918 -0.5946
  216MOL0     C29672   1.024   9.102   6.240  0.1593  0.4206  0.6964
  216MOL0     O29673   0.972   9.037   6.132 -0.5143  0.1943  0.5496
  216MOL0     C29674   0.842   8.991   6.131 -0.6551 -0.5782 -0.0136
  216MOL0     C29675   0.752   8.991   6.231 -0.2305 -0.6826  0.0387
  216MOL0     C29676   0.621   8.954   6.216 -0.0803 -0.1147 -0.1041
  216MOL0     C29677   0.573   8.919   6.089  0.2574  0.1263 -0.1315
  216MOL0     O29678   0.445   8.879   6.058 -0.0501  0.0462  0.1722
  216MOL0     C29679   0.378   8.805   6.168 -0.0600 -0.7761 -0.8142
  216MOL0     C29680   0.286   8.690   6.105 -0.3169 -0.9238 -0.3215
  216MOL0     C29681   0.356   8.588   6.014  0.1805 -0.5966  1.1387
  216MOL0     C29682   0.461   8.506   6.093 -1.1987 -0.4015 -0.7006
  216MOL0     C29683   0.601   8.565   6.079 -0.5680  0.1797  0.1526
  216MOL0     C29684   0.705   8.463   6.115 -0.1368 -0.1547  0.2134
  216MOL0     C29685   0.848   8.476   6.063 -1.1710 -0.0030  0.3945
  216MOL0     C29686   0.908   8.604   6.134  0.4695  0.4970  0.2889
  216MOL0     N29687   0.904   8.609   6.274  0.8717  0.5187 -0.1577
  216MOL0     C29688   0.800   8.657   6.350  0.4062 -0.2294  1.2434
  216MOL0     C29689   0.844   8.635   6.476  0.3360 -1.3501  0.7024
  216MOL0     C29690   0.765   8.663   6.594  0.7135 -0.4617  0.4804
  216MOL0     C29691   0.780   8.820   6.618  0.5671 -0.3319 -0.6422
  216MOL0     C29692   0.683   8.864   6.730  0.1881 -0.6329 -0.1303
  216MOL0     C29693   0.711   9.017   6.768 -0.0564 -0.2975 -0.3506
  216MOL0     O29694   0.721   9.123   6.670  0.2392 -0.4376 -0.1425
  216MOL0     C29695   0.608   9.162   6.596  0.7503 -0.2362  0.4063
  216MOL0     C29696   0.643   9.233   6.477  0.1967 -0.0349 -0.1499
  216MOL0     C29697   0.547   9.246   6.373 -1.2158 -0.2306 -0.0804
  216MOL0     C29698   0.613   9.296   6.248  0.3978  0.0083  0.1916
  216MOL0     C29699   0.416   9.205   6.389  0.0567 -0.2349 -0.2196
  216MOL0     C29700   0.303   9.228   6.303 -0.4712  0.3370 -0.0701
  216MOL0     O29701   0.177   9.188   6.345  0.2283  1.0722 -0.2855
  216MOL0     C29702   0.066   9.227   6.274  0.5879 -0.0209 -0.0727
  216MOL0     C29703   0.021   9.360   6.281  0.2444 -0.0232  0.5278
  216MOL0     C29704  -0.091   9.396   6.210  0.1536 -0.5572 -1.0879
  216MOL0     C29705  -0.161   9.306   6.138 -0.2132  0.0171  1.2454
  216MOL0     O29706  -0.283   9.349   6.090  0.0260 -0.2199 -0.2521
  216MOL0     C29707  -0.378   9.248   6.071  0.5081 -0.8894  0.4292
  216MOL0     C29708  -0.522   9.313   6.050 -0.8224 -0.1996 -0.3895
  216MOL0     C29709  -0.544   9.419   5.930  0.6388  0.4470 -0.7618
  216MOL0     C29710  -0.656   9.364   5.843  0.4283 -0.0668 -0.3371
  216MOL0     C29711  -0.688   9.464   5.727 -0.1676 -0.2059  1.0899
  216MOL0     C29712  -0.578   9.449   5.613  0.4799 -0.5054  0.0110
  216MOL0     C29713  -0.601   9.543   5.495  0.1066  0.2531 -0.2246
  216MOL0     C29714  -0.745   9.514   5.434  0.1092 -0.1961 -0.4096
  216MOL0    Cl29715  -0.765   9.621   5.291  0.1203  0.3242  0.3396
  216MOL0     C29716  -0.118   9.176   6.118  0.1011  0.4900 -0.5145
  216MOL0     C29717  -0.001   9.134   6.191  0.2845 -0.2208 -0.0091
  216MOL0     O29718   0.331   9.291   6.202 -0.0638 -0.4810  0.7454
  216MOL0     C29719   0.385   9.133   6.510 -0.1154  0.4354  0.4212
  216MOL0     C29720   0.478   9.115   6.608 -0.1645 -0.1948  0.5129
  216MOL0     N29721   0.970   8.584   6.469 -0.4761  0.2091 -0.9794
  216MOL0     N29722   1.003   8.563   6.348 -0.1387  0.0983 -0.2591
  216MOL0     C29723   0.663   8.926   5.985  0.2374  0.0636  0.1303
  216MOL0     C29724   0.790   8.970   6.003  0.1852 -0.4425  0.0543
  216MOL0     C29725   1.167   9.113   6.226 -0.3596  0.9642 -0.2486
  216MOL0     C29726   1.236   9.234   6.199 -0.3104 -0.3472 -0.2154
  216MOL0     C29727   1.379   9.239   6.188  0.3369  0.2706  0.8896
  216MOL0     C29728   1.451   9.124   6.196  0.3879 -0.3856 -0.1113
  216MOL0     O29729   1.586   9.133   6.196  0.1468 -0.0636 -0.1150
  216MOL0     C29730   1.649   9.057   6.293 -0.3641  0.0827  0.5518
  216MOL0     C29731   1.751   9.142   6.380  0.0865 -0.3258 -0.4027
  216MOL0     C29732   1.830   9.053   6.475 -0.5210 -0.0951  0.2357
  216MOL0     C29733   1.774   9.065   6.612  0.3463 -0.0943  0.7863
  216MOL0     C29734   1.837   8.978   6.717  0.1354  0.8026  0.7393
  216MOL0     C29735   1.865   8.892   6.798 -0.5448  0.2025 -0.0617
  216MOL0     C29736   1.383   9.005   6.212  0.0579 -0.5184  0.6434
  216MOL0     C29737   1.251   8.996   6.231  0.3746  0.0352 -1.0968
  216MOL0     C29738   1.203   8.848   6.248  0.1151  0.2086  0.9670
  216MOL0     H29739   0.772   9.009   6.336  1.0073 -0.3543 -0.2369
  216MOL0     H29740   0.562   8.943   6.306 -2.0860 -2.4768 -1.5804
  216MOL0     H29741   0.316   8.873   6.227  2.5304  0.0388  1.1525
  216MOL0     H29742   0.447   8.766   6.243 -0.4692  0.9216  0.5253
  216MOL0     H29743   0.246   8.636   6.192 -0.1531 -2.4807 -1.1751
  216MOL0     H29744   0.206   8.737   6.047 -2.4163 -2.5110  1.1053
  216MOL0     H29745   0.268   8.526   5.994  0.6930 -0.2314 -3.1742
  216MOL0     H29746   0.391   8.640   5.924 -0.8044  0.7630  1.5156
  216MOL0     H29747   0.425   8.509   6.196  0.0571 -0.7330 -0.2244
  216MOL0     H29748   0.460   8.404   6.052  1.0978 -1.7309  2.1502
  216MOL0     H29749   0.618   8.660   6.129  0.0767 -0.7759  1.8088
  216MOL0     H29750   0.628   8.585   5.975  2.9665  3.9913  1.5355
  216MOL0     H29751   0.712   8.443   6.223 -2.6928 -0.7881  0.3170
  216MOL0     H29752   0.663   8.374   6.067 -2.7670  1.6914 -1.0876
  216MOL0     H29753   0.856   8.483   5.954  3.9029  0.9761  0.5726
  216MOL0     H29754   0.913   8.395   6.097 -0.8395 -1.2328 -2.8337
  216MOL0     H29755   1.010   8.597   6.093 -0.0394  0.2582 -0.9613
  216MOL0     H29756   0.863   8.699   6.104 -0.9872  0.2052  1.4903
  216MOL0     H29757   0.709   8.712   6.327  1.0530  0.5672  0.5192
  216MOL0     H29758   0.798   8.600   6.677  4.8266  0.1753 -0.4699
  216MOL0     H29759   0.661   8.629   6.584  1.3205 -2.0436 -0.8232
  216MOL0     H29760   0.886   8.843   6.631  0.3946  0.0454  0.1792
  216MOL0     H29761   0.747   8.874   6.529  0.5322 -0.6726 -0.8368
  216MOL0     H29762   0.581   8.864   6.691 -0.3251 -0.4762  1.1517
  216MOL0     H29763   0.691   8.800   6.818 -0.6643 -0.0695  0.3686
  216MOL0     H29764   0.628   9.044   6.834 -0.9769  0.9573 -1.9565
  216MOL0     H29765   0.806   9.019   6.823 -0.1208 -3.2483  0.0353
  216MOL0     H29766   0.748   9.262   6.466  0.7974 -0.6627  2.9537
  216MOL0     H29767   0.721   9.310   6.260 -0.1645  2.8320  3.9895
  216MOL0     H29768   0.568   9.391   6.219 -1.1854 -0.7469  0.0623
  216MOL0     H29769   0.595   9.233   6.160 -0.5729  0.3333  0.1427
  216MOL0     H29770   0.093   9.425   6.329  1.5384  0.3039 -1.7174
  216MOL0     H29771  -0.124   9.498   6.227  0.4372 -0.6911  0.4006
  216MOL0     H29772  -0.356   9.200   5.975 -2.1600 -1.0282 -0.1904
  216MOL0     H29773  -0.382   9.176   6.154  0.2209 -1.4912 -0.1002
  216MOL0     H29774  -0.593   9.230   6.045  0.5121 -1.4790  1.2499
  216MOL0     H29775  -0.548   9.364   6.143 -3.0726  0.1041 -1.1027
  216MOL0     H29776  -0.452   9.415   5.870  1.8537 -1.6848  1.0931
  216MOL0     H29777  -0.579   9.515   5.969 -0.6042 -0.9691  1.8336
  216MOL0     H29778  -0.742   9.353   5.910  1.5932  0.6077  1.3334
  216MOL0     H29779  -0.629   9.266   5.801  3.5301  0.2975  0.5937
  216MOL0     H29780  -0.785   9.428   5.691 -0.2703  0.2388  0.9090
  216MOL0     H29781  -0.703   9.565   5.768 -1.0558  0.4301 -0.7101
  216MOL0     H29782  -0.583   9.349   5.569 -2.6697  0.4399 -2.1298
  216MOL0     H29783  -0.471   9.454   5.633  1.1328 -0.7713 -2.9814
  216MOL0     H29784  -0.522   9.527   5.421  0.0598 -3.3736  0.3209
  216MOL0     H29785  -0.614   9.644   5.534 -2.2355  0.9335 -2.4946
  216MOL0     H29786  -0.822   9.549   5.504 -0.2816  1.0723 -1.4365
  216MOL0     H29787  -0.764   9.408   5.414 -1.9056 -0.0297  0.3633
  216MOL0     H29788  -0.169   9.097   6.063  3.1676 -2.2486  0.2956
  216MOL0     H29789   0.019   9.027   6.192 -5.1572 -1.5530  2.0357
  216MOL0     H29790   0.283   9.100   6.529 -0.0527 -1.2441 -1.8696
  216MOL0     H29791   0.433   9.064   6.693 -0.1183  0.4565  0.9455
  216MOL0     H29792   0.623   8.916   5.885 -1.4047 -1.3033  0.8728
  216MOL0     H29793   0.865   8.986   5.926  0.9329 -1.3945  0.5525
  216MOL0     H29794   1.188   9.331   6.211 -2.0769 -1.4197  2.2890
  216MOL0     H29795   1.433   9.332   6.173 -0.0817  0.6253  1.5330
  216MOL0     H29796   1.588   8.996   6.360 -0.2258 -0.1380  0.4762
  216MOL0     H29797   1.702   8.980   6.238 -0.7798  0.9131 -1.0710
  216MOL0     H29798   1.684   9.201   6.443  1.3177 -3.1030  3.9361
  216MOL0     H29799   1.809   9.198   6.305 -2.4326 -0.7691 -2.8538
  216MOL0     H29800   1.838   8.953   6.432  0.2182  0.2116 -0.3670
  216MOL0     H29801   1.933   9.090   6.486 -1.3860  2.2085  1.2867
  216MOL0     H29802   1.667   9.044   6.612 -0.2301  2.3980 -0.2958
  216MOL0     H29803   1.785   9.168   6.649  2.2108 -0.7141  2.1210
  216MOL0     H29804   1.876   8.827   6.882 -1.8190  1.0745  0.8133
  216MOL0     H29805   1.448   8.918   6.213  1.8914  0.7757  1.3544
  216MOL0     H29806   1.145   8.843   6.340 -0.2930  1.8925  0.8365
  216MOL0     H29807   1.130   8.825   6.171 -0.6949  0.5403  1.6251
  216MOL0     H29808   1.271   8.762   6.250 -1.1895 -0.8331  2.3130
  217MOL0     O29809   4.595   8.354   6.900 -0.5521 -0.5105 -0.0705
  217MOL0     C29810   4.494   8.292   6.919  0.8238 -0.8458 -0.3069
  217MOL0     O29811   4.391   8.284   6.840 -0.5142 -0.0507 -0.0711
  217MOL0     C29812   4.423   8.272   6.711  0.0742  0.4411  0.0814
  217MOL0     C29813   4.403   8.380   6.636  0.3648 -1.5399  0.3382
  217MOL0     C29814   4.423   8.378   6.496 -0.3020 -0.9733  0.5501
  217MOL0     C29815   4.471   8.262   6.439  0.0605  0.5520  0.5254
  217MOL0     O29816   4.513   8.249   6.312 -0.6808  0.1783  0.0338
  217MOL0     C29817   4.450   8.145   6.242  1.1634 -0.2994  0.1089
  217MOL0     C29818   4.522   8.110   6.111 -0.5450  0.2248  0.1149
  217MOL0     C29819   4.440   8.011   6.030  1.0161 -0.0290  0.0223
  217MOL0     C29820   4.472   7.996   5.886 -0.1849  0.6643  0.2155
  217MOL0     C29821   4.456   7.841   5.850 -0.2908 -0.5036  0.5963
  217MOL0     C29822   4.529   7.789   5.731  0.6530 -0.2757 -0.1331
  217MOL0     C29823   4.678   7.769   5.757 -0.0815  0.8048  0.0471
  217MOL0     C29824   4.741   7.737   5.901  0.5582 -0.2793 -0.0233
  217MOL0     N29825   4.880   7.676   5.889  0.2343  0.7924  0.0464
  217MOL0     C29826   4.999   7.746   5.865  0.6830 -0.3448 -0.1297
  217MOL0     C29827   5.096   7.652   5.860  0.0986  0.3051 -0.3943
  217MOL0     C29828   5.244   7.672   5.834 -0.3053  0.3561  0.0316
  217MOL0     C29829   5.280   7.825   5.844 -0.0693  0.1343 -0.2267
  217MOL0     C29830   5.423   7.883   5.830  0.2554 -0.9915 -0.3181
  217MOL0     C29831   5.501   7.829   5.712  0.2618  0.2735  0.2664
  217MOL0     O29832   5.625   7.902   5.695 -0.0348 -0.0156  0.2632
  217MOL0     C29833   5.725   7.842   5.625 -0.0149 -0.3615 -0.4665
  217MOL0     C29834   5.855   7.877   5.655  0.1457  0.4612 -0.1220
  217MOL0     C29835   5.962   7.822   5.585 -0.2358  0.3178  0.5737
  217MOL0     C29836   6.102   7.865   5.624  0.2832  0.3700  0.3677
  217MOL0     C29837   5.934   7.710   5.491  1.0698 -1.4310  0.5162
  217MOL0     C29838   6.047   7.644   5.414 -0.2115  0.0389  0.4721
  217MOL0     O29839   6.053   7.664   5.277  0.6169 -0.4511 -0.2584
  217MOL0     C29840   6.168   7.635   5.216  0.1385  0.1877  1.3192
  217MOL0     C29841   6.288   7.694   5.259 -0.5609  0.5328  0.8668
  217MOL0     C29842   6.408   7.650   5.196 -0.6664  0.1767  0.7444
  217MOL0     C29843   6.419   7.569   5.085  0.1357  0.7462  0.4539
  217MOL0     O29844   6.541   7.529   5.027  0.0247  0.3888 -0.1752
  217MOL0     C29845   6.648   7.525   5.121 -1.0387  0.1575  0.4390
  217MOL0     C29846   6.768   7.465   5.049 -0.2612 -1.0113 -0.1110
  217MOL0     C29847   6.899   7.505   5.114 -0.6706  0.9555 -0.0140
  217MOL0     C29848   7.008   7.425   5.041  0.4130 -0.4917 -0.4626
  217MOL0     C29849   7.040   7.468   4.897  0.0535  1.1763  0.2363
  217MOL0     C29850   7.146   7.359   4.863  0.5230 -0.2173 -0.6482
  217MOL0     C29851   7.182   7.380   4.716 -1.1062  0.8356 -0.1088
  217MOL0     C29852   7.264   7.274   4.653 -0.0803 -0.1321  0.1267
  217MOL0    Cl29853   7.422   7.283   4.729 -0.0835 -0.2041 -0.0027
  217MOL0     C29854   6.293   7.521   5.039  0.0562 -0.5861  0.6583
  217MOL0     C29855   6.179   7.539   5.107  0.0950  0.0911  0.5309
  217MOL0     O29856   6.112   7.560   5.477  0.0621  0.0516  0.2609
  217MOL0     C29857   5.803   7.684   5.458  0.2367  0.2760 -1.1585
  217MOL0     C29858   5.700   7.745   5.528  0.5440  0.1125  0.1691
  217MOL0     N29859   5.042   7.529   5.860 -0.6899 -0.7327  0.5694
  217MOL0     N29860   4.914   7.542   5.895  0.5090  0.0716  1.2841
  217MOL0     C29861   4.488   8.146   6.521  0.1377  0.2748  0.6824
  217MOL0     C29862   4.449   8.149   6.653 -0.2598  0.7391 -0.1795
  217MOL0     C29863   4.482   8.235   7.060  0.3350 -0.7202 -0.2359
  217MOL0     C29864   4.378   8.145   7.085  0.9996 -0.1147  0.1526
  217MOL0     C29865   4.360   8.077   7.204  0.6790  0.2970  1.0902
  217MOL0     C29866   4.437   8.103   7.315  0.2419  0.1825  0.9738
  217MOL0     O29867   4.425   8.035   7.434 -0.5752 -0.2891 -0.4897
  217MOL0     C29868   4.425   8.104   7.561  0.5303 -0.2918  0.2360
  217MOL0     C29869   4.300   8.071   7.651  0.5301  0.3509  0.3888
  217MOL0     C29870   4.170   8.125   7.594  0.1041  0.3152  0.0889
  217MOL0     C29871   4.058   8.099   7.697  0.0308  0.8924 -0.1028
  217MOL0     C29872   3.932   8.163   7.655  0.7136  0.3944  0.8844
  217MOL0     C29873   3.828   8.210   7.608 -1.0220 -0.3557 -0.5250
  217MOL0     C29874   4.522   8.209   7.301 -0.1804  0.6307 -0.4587
  217MOL0     C29875   4.554   8.275   7.177 -0.2785 -0.0066  0.0106
  217MOL0     C29876   4.660   8.385   7.185 -0.4538  0.5790  0.6413
  217MOL0     H29877   4.371   8.472   6.683 -1.9726 -0.6773 -2.6377
  217MOL0     H29878   4.415   8.472   6.443 -1.7775 -0.4522  1.6163
  217MOL0     H29879   4.352   8.181   6.210  1.9672 -0.6316 -3.0513
  217MOL0     H29880   4.444   8.050   6.296 -1.9860 -0.5292 -0.4192
  217MOL0     H29881   4.535   8.196   6.045  0.4842 -1.0231 -1.3842
  217MOL0     H29882   4.619   8.067   6.137 -0.7699  0.5698  1.6556
  217MOL0     H29883   4.449   7.914   6.080 -1.2252 -0.5733 -0.4940
  217MOL0     H29884   4.331   8.024   6.035  1.1578  1.5498 -0.6907
  217MOL0     H29885   4.385   8.041   5.837 -1.0812 -1.7645 -0.5533
  217MOL0     H29886   4.566   8.037   5.846  1.5510 -1.7240  1.5997
  217MOL0     H29887   4.351   7.826   5.821 -0.1355 -1.3968  0.4508
  217MOL0     H29888   4.479   7.774   5.933  0.0166  1.2747  2.0080
  217MOL0     H29889   4.483   7.691   5.714 -1.5170  0.7205 -0.4204
  217MOL0     H29890   4.504   7.842   5.639 -1.9572  0.1824  0.7543
  217MOL0     H29891   4.718   7.870   5.750 -0.8246  1.6878  4.7018
  217MOL0     H29892   4.716   7.687   5.697  0.2147 -0.2417  1.5972
  217MOL0     H29893   4.734   7.820   5.972 -5.2408 -1.6482  1.5292
  217MOL0     H29894   4.669   7.673   5.953 -1.0714  0.8836 -0.7529
  217MOL0     H29895   5.006   7.851   5.841  2.6189 -0.9188 -2.4848
  217MOL0     H29896   5.256   7.634   5.733  1.5997 -0.1184  0.3938
  217MOL0     H29897   5.292   7.612   5.912  0.3082  1.8958  0.8984
  217MOL0     H29898   5.215   7.860   5.763  2.1294  2.3240 -1.1812
  217MOL0     H29899   5.252   7.854   5.946  0.5880 -0.6984  0.2035
  217MOL0     H29900   5.410   7.992   5.827  3.7152 -0.2806  3.1065
  217MOL0     H29901   5.479   7.862   5.921  1.9434  1.8620 -0.5784
  217MOL0     H29902   5.512   7.723   5.737 -1.5355  1.1375  6.5580
  217MOL0     H29903   5.443   7.835   5.620 -1.9336 -0.5964  1.5400
  217MOL0     H29904   5.877   7.955   5.728 -2.4836  0.0216  1.2698
  217MOL0     H29905   6.094   7.962   5.674 -1.7877  0.1084  0.6301
  217MOL0     H29906   6.168   7.875   5.537  0.5269 -1.1292  0.3565
  217MOL0     H29907   6.141   7.798   5.700 -3.2310 -0.1384  1.9322
  217MOL0     H29908   6.290   7.759   5.347 -1.4168 -2.5900  3.3671
  217MOL0     H29909   6.499   7.682   5.245 -1.0329 -0.6937  2.0458
  217MOL0     H29910   6.676   7.627   5.148 -1.9141 -0.6417  5.4381
  217MOL0     H29911   6.617   7.474   5.213 -1.5712  0.6354  0.5293
  217MOL0     H29912   6.752   7.357   5.045  0.0810 -1.0386 -1.4317
  217MOL0     H29913   6.764   7.502   4.945  1.9395 -1.1261 -0.2779
  217MOL0     H29914   6.890   7.475   5.219 -2.2023 -1.7861 -0.8293
  217MOL0     H29915   6.915   7.613   5.113 -0.9788  1.0068 -1.2410
  217MOL0     H29916   6.973   7.321   5.048 -1.9457  0.2111 -0.9881
  217MOL0     H29917   7.106   7.422   5.091  1.3907  0.3503 -2.2443
  217MOL0     H29918   6.956   7.459   4.827  1.2756 -4.1731 -0.9716
  217MOL0     H29919   7.076   7.571   4.890 -2.4808  2.1821  0.9033
  217MOL0     H29920   7.100   7.261   4.875  0.4885 -0.0921  0.3926
  217MOL0     H29921   7.235   7.353   4.926  0.5670 -0.3859 -0.7280
  217MOL0     H29922   7.231   7.476   4.694 -0.4078  0.9021  1.5251
  217MOL0     H29923   7.088   7.384   4.661 -1.2551  0.6889  0.1347
  217MOL0     H29924   7.278   7.286   4.545  2.4614 -0.8164  0.3078
  217MOL0     H29925   7.226   7.172   4.665 -0.6137  0.1152  0.5628
  217MOL0     H29926   6.302   7.455   4.954  5.0262  0.9249 -0.3204
  217MOL0     H29927   6.083   7.498   5.075 -0.3069  1.1511  0.3539
  217MOL0     H29928   5.775   7.606   5.387  2.7368  0.3479 -2.3272
  217MOL0     H29929   5.602   7.703   5.508  0.8921  0.2084 -1.8917
  217MOL0     H29930   4.528   8.054   6.479  1.8464  0.2827  2.1435
  217MOL0     H29931   4.458   8.057   6.709  2.9622  0.2043 -1.3912
  217MOL0     H29932   4.305   8.130   7.006  1.3968 -2.8661  0.2019
  217MOL0     H29933   4.295   7.990   7.206  1.4878 -0.3323  0.6829
  217MOL0     H29934   4.519   8.082   7.613  1.0006  0.1067 -0.4364
  217MOL0     H29935   4.433   8.211   7.539 -0.1645 -0.0715  0.9832
  217MOL0     H29936   4.301   8.125   7.746 -2.2842  2.8776 -0.8296
  217MOL0     H29937   4.293   7.965   7.675 -0.9407  0.7306  1.8626
  217MOL0     H29938   4.184   8.231   7.570  3.3545  0.2756  1.3888
  217MOL0     H29939   4.141   8.069   7.504 -1.9309  2.6618 -0.8458
  217MOL0     H29940   4.085   8.134   7.797  3.1851 -1.6510  0.0630
  217MOL0     H29941   4.033   7.993   7.698 -0.3902  0.9886  0.3805
  217MOL0     H29942   3.743   8.259   7.565 -2.7958  0.6375  3.6225
  217MOL0     H29943   4.576   8.238   7.390  0.4788 -1.4701 -0.1207
  217MOL0     H29944   4.756   8.345   7.153 -0.3778  0.6784  0.7442
  217MOL0     H29945   4.635   8.469   7.120 -3.3196  0.3686  1.3218
  217MOL0     H29946   4.681   8.417   7.288 -0.1822 -0.5918  0.9654
  218MOL0     O29947   8.099   2.686  11.234 -0.0081  0.1571  0.3325
  218MOL0     C29948   7.990   2.717  11.193  0.4644 -0.1894  0.6736
  218MOL0     O29949   7.952   2.714  11.060  0.1592  0.0173 -0.5992
  218MOL0     C29950   8.051   2.667  10.970 -0.3232 -0.7198  0.2470
  218MOL0     C29951   8.170   2.734  10.946  0.2377 -1.1282 -0.6459
  218MOL0     C29952   8.265   2.697  10.855  0.3159  0.5844 -0.9967
  218MOL0     C29953   8.246   2.590  10.777 -0.5515 -0.0038  0.9483
  218MOL0     O29954   8.337   2.570  10.677 -0.6335 -0.1578 -0.1307
  218MOL0     C29955   8.283   2.549  10.541 -0.6320  0.1368  0.0656
  218MOL0     C29956   8.191   2.659  10.488 -0.5317  1.0204  0.0105
  218MOL0     C29957   8.160   2.643  10.335  0.2888  0.2947  0.2604
  218MOL0     C29958   8.101   2.504  10.291  1.2587 -0.1424 -0.4276
  218MOL0     C29959   8.076   2.509  10.143  0.0729 -0.1522 -1.0795
  218MOL0     C29960   8.050   2.366  10.115  0.0295  0.2072  0.4789
  218MOL0     C29961   8.038   2.340   9.961 -0.4921  0.2471 -0.5275
  218MOL0     C29962   7.894   2.315   9.914  0.0686 -0.7520  0.7305
  218MOL0     N29963   7.809   2.427   9.954  0.4858  0.5021 -0.0632
  218MOL0     C29964   7.717   2.415  10.055  0.8799  0.1537 -1.0743
  218MOL0     C29965   7.671   2.541  10.066 -0.6031 -0.5574 -1.1787
  218MOL0     C29966   7.556   2.607  10.143 -0.0777 -0.8650  0.3982
  218MOL0     C29967   7.586   2.684  10.274  0.2897  0.3496 -0.6956
  218MOL0     C29968   7.646   2.826  10.256 -0.6047 -0.2259  0.2531
  218MOL0     C29969   7.801   2.833  10.270 -0.5632  0.2892 -0.0333
  218MOL0     O29970   7.847   2.971  10.280 -0.1215 -0.3061  0.4010
  218MOL0     C29971   7.885   3.035  10.163 -0.3205  0.9130  0.1511
  218MOL0     C29972   7.951   3.153  10.184  0.0331  0.1993  0.8473
  218MOL0     C29973   8.000   3.222  10.073 -0.9363  0.1960 -0.1811
  218MOL0     C29974   8.084   3.346  10.109  0.1387 -0.2024 -0.7587
  218MOL0     C29975   7.976   3.183   9.939 -0.6433  1.0205  0.4511
  218MOL0     C29976   8.028   3.258   9.814  0.9463  0.2095 -0.0555
  218MOL0     O29977   7.992   3.200   9.694 -0.4140 -0.4243  0.1040
  218MOL0     C29978   7.998   3.275   9.572  0.5831  0.6709  0.3745
  218MOL0     C29979   8.023   3.205   9.457 -0.7968  0.6790  0.0993
  218MOL0     C29980   8.027   3.264   9.335  0.4820 -0.4969  1.2171
  218MOL0     C29981   8.000   3.408   9.318 -0.3000  1.3560  0.7379
  218MOL0     O29982   8.001   3.450   9.186 -0.3188 -0.7825  0.2024
  218MOL0     C29983   7.944   3.584   9.152  1.1579  1.0136 -0.1479
  218MOL0     C29984   7.904   3.591   9.006  0.3466  0.2157 -0.1924
  218MOL0     C29985   7.804   3.707   8.990 -0.6827  1.0055 -0.1088
  218MOL0     C29986   7.777   3.729   8.840  0.5045 -0.2963  0.7648
  218MOL0     C29987   7.687   3.846   8.815 -0.1345  0.3241 -1.2132
  218MOL0     C29988   7.690   3.924   8.687  0.2333 -0.0757  0.6240
  218MOL0     C29989   7.613   3.840   8.589 -0.1189  0.0033  0.3527
  218MOL0     C29990   7.466   3.882   8.564 -0.0159  0.1033 -0.5595
  218MOL0    Cl29991   7.358   3.883   8.713 -0.2206 -0.0724  0.4781
  218MOL0     C29992   7.965   3.483   9.435  0.7682  0.1399  0.4001
  218MOL0     C29993   7.951   3.409   9.549 -0.7050  0.5249  0.0408
  218MOL0     O29994   8.111   3.351   9.830 -0.4148  0.1449 -0.5431
  218MOL0     C29995   7.915   3.060   9.914  0.4246 -0.3556 -0.2102
  218MOL0     C29996   7.867   2.988  10.028 -0.5100  0.4258 -0.5242
  218MOL0     N29997   7.743   2.627   9.984  0.7300  0.3844  1.0835
  218MOL0     N29998   7.827   2.559   9.921 -0.5346 -0.3110 -0.3350
  218MOL0     C29999   8.133   2.509  10.797 -0.8108  0.5256  0.0853
  218MOL0     C30000   8.034   2.547  10.899  0.0210 -0.3666 -0.3629
  218MOL0     C30001   7.889   2.761  11.297 -0.2904  0.7740  0.3283
  218MOL0     C30002   7.774   2.823  11.248  0.1554 -0.5820 -0.6419
  218MOL0     C30003   7.670   2.870  11.335 -0.2104  1.0475 -0.9765
  218MOL0     C30004   7.674   2.840  11.472 -0.4513 -0.1892 -1.3312
  218MOL0     O30005   7.577   2.872  11.565 -0.2960  0.7701 -0.2746
  218MOL0     C30006   7.463   2.786  11.556 -0.6428 -0.3753  0.5735
  218MOL0     C30007   7.410   2.720  11.681  0.5302 -0.5134 -0.2656
  218MOL0     C30008   7.425   2.818  11.794  0.1973  0.8794  0.5363
  218MOL0     C30009   7.366   2.774  11.920 -0.3452 -0.4886 -0.7457
  218MOL0     C30010   7.366   2.879  12.022 -0.9081 -0.9568 -0.7692
  218MOL0     C30011   7.362   2.948  12.119 -0.5219 -0.6663  0.2133
  218MOL0     C30012   7.791   2.790  11.522  0.2077 -0.2458 -0.7887
  218MOL0     C30013   7.902   2.757  11.439 -0.5125  0.1964  0.4974
  218MOL0     C30014   8.020   2.698  11.513 -0.0306  0.2459  0.4342
  218MOL0     H30015   8.193   2.811  11.019 -0.8747 -3.3777  2.2975
  218MOL0     H30016   8.357   2.752  10.838  2.6848 -2.8359 -0.2873
  218MOL0     H30017   8.233   2.452  10.535 -0.0821 -0.2456  1.2169
  218MOL0     H30018   8.365   2.541  10.469 -0.8954 -2.3184 -0.0431
  218MOL0     H30019   8.091   2.662  10.532 -1.4495 -0.6797 -1.8044
  218MOL0     H30020   8.233   2.758  10.507  1.6660 -0.2195  2.0458
  218MOL0     H30021   8.079   2.711  10.306 -1.1035 -2.2969 -2.5239
  218MOL0     H30022   8.242   2.682  10.274  0.3240  1.8224  1.2325
  218MOL0     H30023   8.178   2.430  10.312 -0.4656 -1.7727  0.3965
  218MOL0     H30024   8.006   2.480  10.339  2.1521 -0.4806  1.2396
  218MOL0     H30025   8.170   2.540  10.096  1.5569 -0.0711  1.7284
  218MOL0     H30026   7.984   2.564  10.120 -0.2011 -0.4418 -0.6925
  218MOL0     H30027   8.119   2.296  10.162 -1.3305 -2.0547 -0.7367
  218MOL0     H30028   7.961   2.319  10.159  0.4012 -1.3331 -0.3542
  218MOL0     H30029   8.096   2.252   9.935 -1.1560  0.0203 -1.2939
  218MOL0     H30030   8.091   2.416   9.902 -0.5519  0.3192 -0.4888
  218MOL0     H30031   7.903   2.309   9.805  1.3607 -3.8356  0.9210
  218MOL0     H30032   7.852   2.219   9.945 -0.5379 -0.4145  0.9677
  218MOL0     H30033   7.668   2.327  10.096  1.5505 -0.8096 -2.2884
  218MOL0     H30034   7.494   2.521  10.168  0.2443 -1.0399  0.6033
  218MOL0     H30035   7.496   2.678  10.086 -0.8673  0.9199  3.2019
  218MOL0     H30036   7.491   2.688  10.327 -0.2021  1.8019 -1.6185
  218MOL0     H30037   7.646   2.614  10.332 -2.0632  0.3452  1.9163
  218MOL0     H30038   7.616   2.865  10.158 -1.8429 -0.5712  0.4822
  218MOL0     H30039   7.605   2.893  10.333  2.6708  0.7527  1.3307
  218MOL0     H30040   7.833   2.772  10.355 -1.5358  2.3494  1.9517
  218MOL0     H30041   7.853   2.789  10.185 -1.4635  0.8458 -0.8945
  218MOL0     H30042   7.966   3.189  10.285  0.7183 -2.1347  1.6576
  218MOL0     H30043   8.072   3.372  10.215  0.0122  0.8891 -1.0296
  218MOL0     H30044   8.064   3.437  10.052  2.0017 -0.9861 -2.8421
  218MOL0     H30045   8.190   3.341  10.083  0.0061  0.9531 -1.5622
  218MOL0     H30046   8.040   3.098   9.464 -1.4182  0.5334 -0.4462
  218MOL0     H30047   8.027   3.191   9.255 -3.0609 -0.3486  0.9252
  218MOL0     H30048   7.851   3.597   9.209  1.9327  1.2279  1.0934
  218MOL0     H30049   8.010   3.659   9.196  1.4364 -1.4586  4.1815
  218MOL0     H30050   7.993   3.604   8.943 -0.1196  1.8221 -0.5693
  218MOL0     H30051   7.864   3.493   8.977  1.4968  0.1271 -1.6211
  218MOL0     H30052   7.848   3.796   9.033 -1.2045 -0.5317  4.0391
  218MOL0     H30053   7.708   3.682   9.038  0.1112 -0.2399  0.9066
  218MOL0     H30054   7.731   3.642   8.791 -0.8729  2.1041 -2.5371
  218MOL0     H30055   7.875   3.745   8.793 -0.5999  0.3032 -1.4542
  218MOL0     H30056   7.591   3.816   8.858  2.5979 -0.6416  5.3900
  218MOL0     H30057   7.715   3.932   8.876  0.7875 -0.5206 -0.4077
  218MOL0     H30058   7.786   3.948   8.640 -0.8710  0.7143 -1.3109
  218MOL0     H30059   7.642   4.022   8.695 -1.7672 -0.6021 -3.0779
  218MOL0     H30060   7.624   3.733   8.611  0.7521  0.7239  4.0401
  218MOL0     H30061   7.663   3.852   8.492  3.1718 -0.7306  1.8187
  218MOL0     H30062   7.422   3.823   8.483 -1.2586  1.4258 -0.8802
  218MOL0     H30063   7.478   3.986   8.533  2.1430  1.0841  3.0329
  218MOL0     H30064   7.953   3.591   9.434 -1.4892  0.1168  4.5782
  218MOL0     H30065   7.911   3.461   9.636  0.0741  1.4860 -0.1562
  218MOL0     H30066   7.917   3.008   9.819  2.6443 -1.9685  0.6144
  218MOL0     H30067   7.804   2.905   9.997  0.6894  0.4928 -3.5453
  218MOL0     H30068   8.107   2.421  10.739 -1.2078 -0.2024  1.3411
  218MOL0     H30069   7.961   2.468  10.912 -0.1435 -0.4782 -1.8400
  218MOL0     H30070   7.759   2.836  11.141  0.1098  0.9985 -0.4599
  218MOL0     H30071   7.586   2.931  11.304  0.3735  2.6641  0.4422
  218MOL0     H30072   7.378   2.849  11.525 -0.9091 -0.5752  0.8911
  218MOL0     H30073   7.476   2.705  11.484 -2.0369 -0.7125  0.6584
  218MOL0     H30074   7.478   2.637  11.703  0.2414 -0.5192  0.6429
  218MOL0     H30075   7.303   2.703  11.687  0.3383  0.9916  1.2630
  218MOL0     H30076   7.528   2.840  11.821  0.7593  0.7349 -1.3094
  218MOL0     H30077   7.381   2.912  11.756 -1.5494 -0.3183 -0.5899
  218MOL0     H30078   7.425   2.690  11.956  0.5542  1.2567  2.2198
  218MOL0     H30079   7.259   2.749  11.914 -0.7385  0.8354  0.1318
  218MOL0     H30080   7.361   3.022  12.196  1.6407  1.0311 -1.2708
  218MOL0     H30081   7.792   2.772  11.629  1.3848  1.7419 -0.4157
  218MOL0     H30082   8.003   2.731  11.616 -1.7300  0.9490 -0.0388
  218MOL0     H30083   8.022   2.589  11.511  0.6166  0.1512  2.8152
  218MOL0     H30084   8.122   2.727  11.486  0.2716  0.9933  2.1891
  219MOL0     O30085   9.742   0.585   7.323  0.7227 -0.3968  0.5771
  219MOL0     C30086   9.799   0.581   7.430 -0.1839  0.0068  0.7859
  219MOL0     O30087   9.905   0.513   7.443 -0.2382  0.4550 -0.2996
  219MOL0     C30088   9.958   0.430   7.338 -0.9223 -0.7701 -0.8525
  219MOL0     C30089   9.879   0.334   7.258  1.2937  0.0763  0.2437
  219MOL0     C30090   9.936   0.242   7.169 -0.0581 -0.1863  0.2482
  219MOL0     C30091  10.072   0.251   7.141  0.0614 -0.7342 -0.4179
  219MOL0     O30092  10.136   0.185   7.036  0.6246 -0.3316  0.2793
  219MOL0     C30093  10.067   0.089   6.962 -0.4550  0.7930  0.6437
  219MOL0     C30094  10.116   0.110   6.814 -0.3918  0.1312  0.4076
  219MOL0     C30095  10.265   0.069   6.804  0.0076  0.8516 -0.4006
  219MOL0     C30096  10.301   0.030   6.659  0.6463 -0.2186 -0.0962
  219MOL0     C30097  10.449  -0.005   6.641 -0.4303  0.4625  0.4633
  219MOL0     C30098  10.496   0.033   6.494  0.1281  0.5047  0.7057
  219MOL0     C30099  10.649   0.007   6.487 -0.1580 -0.3692  0.0652
  219MOL0     C30100  10.691  -0.142   6.491 -0.6187  0.1307 -0.2413
  219MOL0     N30101  10.843  -0.144   6.510  0.2646 -0.9724  0.0493
  219MOL0     C30102  10.900  -0.115   6.635 -0.0739  0.4026 -0.3336
  219MOL0     C30103  11.031  -0.106   6.606 -0.2848  1.4488 -0.1019
  219MOL0     C30104  11.133  -0.090   6.723  1.1553 -0.3979 -0.1293
  219MOL0     C30105  11.183  -0.224   6.786  1.1067  0.3928  0.2431
  219MOL0     C30106  11.237  -0.328   6.683 -0.5398  0.5402 -0.6296
  219MOL0     C30107  11.326  -0.258   6.583  0.0339 -0.4088 -1.0195
  219MOL0     O30108  11.419  -0.337   6.505 -0.1080 -0.0253 -0.9106
  219MOL0     C30109  11.361  -0.424   6.418 -0.1523 -0.0819 -0.4534
  219MOL0     C30110  11.232  -0.410   6.368 -0.1337  0.1926 -0.8071
  219MOL0     C30111  11.187  -0.475   6.258 -1.3189  0.0481  0.1845
  219MOL0     C30112  11.052  -0.433   6.211 -0.2866  0.1804 -0.0532
  219MOL0     C30113  11.280  -0.554   6.187 -0.1667  0.9078  0.0592
  219MOL0     C30114  11.234  -0.626   6.061  0.1180 -0.1445  0.2416
  219MOL0     O30115  11.159  -0.565   5.969  1.2640 -0.1384  0.8268
  219MOL0     C30116  11.087  -0.633   5.873  0.4099  0.4345 -0.3150
  219MOL0     C30117  11.006  -0.543   5.797  0.4013  0.9530 -0.8727
  219MOL0     C30118  10.944  -0.590   5.686 -0.7097  0.4689 -0.7951
  219MOL0     C30119  10.953  -0.729   5.650 -0.3028 -0.4086  0.0354
  219MOL0     O30120  10.895  -0.789   5.540  0.2805 -0.6277  0.3988
  219MOL0     C30121  10.845  -0.703   5.428 -0.9392  0.5121 -0.3697
  219MOL0     C30122  10.696  -0.657   5.439 -0.2009  0.5313  0.0381
  219MOL0     C30123  10.646  -0.594   5.301  0.7901  0.0425 -0.6544
  219MOL0     C30124  10.507  -0.531   5.300 -0.4617 -0.5909 -0.5592
  219MOL0     C30125  10.475  -0.478   5.163 -0.6944 -0.3648  1.1513
  219MOL0     C30126  10.455  -0.591   5.052  0.1900 -0.0760 -0.4296
  219MOL0     C30127  10.416  -0.533   4.914 -0.4667  0.7796 -0.6613
  219MOL0     C30128  10.533  -0.461   4.841 -0.3223 -0.0272  0.5436
  219MOL0    Cl30129  10.510  -0.281   4.862  0.2540  0.2525 -0.3180
  219MOL0     C30130  11.029  -0.814   5.727  1.2650  0.8523  0.7507
  219MOL0     C30131  11.099  -0.772   5.837 -0.3889  0.4171 -0.4794
  219MOL0     O30132  11.309  -0.722   6.036  0.2004  1.4391  0.3449
  219MOL0     C30133  11.411  -0.584   6.238  1.1206  0.2461  0.0069
  219MOL0     C30134  11.453  -0.510   6.350 -0.3590  1.8841  0.0093
  219MOL0     N30135  11.047  -0.128   6.472  0.1647  0.9410 -0.4681
  219MOL0     N30136  10.935  -0.157   6.415 -0.8161  1.3119  0.9236
  219MOL0     C30137  10.151   0.342   7.217 -0.5442  0.2892  0.5375
  219MOL0     C30138  10.093   0.429   7.310  0.5185 -0.7159 -0.0581
  219MOL0     C30139   9.728   0.633   7.550 -0.1525  0.7904 -0.0590
  219MOL0     C30140   9.801   0.635   7.667 -0.3766 -0.0663  0.0756
  219MOL0     C30141   9.756   0.674   7.794  0.2932 -0.5558 -0.1905
  219MOL0     C30142   9.629   0.710   7.807  0.5053  0.4677  0.2277
  219MOL0     O30143   9.589   0.759   7.932  0.9387 -1.1159 -0.6160
  219MOL0     C30144   9.676   0.782   8.045 -0.5869 -0.5500  0.5372
  219MOL0     C30145   9.648   0.909   8.121  1.2874  0.0921 -0.7393
  219MOL0     C30146   9.498   0.926   8.156 -0.3718  0.1116 -0.6761
  219MOL0     C30147   9.483   0.953   8.315  0.2734 -0.7393 -0.1183
  219MOL0     C30148   9.344   0.985   8.359  0.4068 -0.2177 -0.0127
  219MOL0     C30149   9.238   1.016   8.418 -0.3856 -0.0144  0.5473
  219MOL0     C30150   9.542   0.690   7.701 -0.6591  0.5544 -0.1579
  219MOL0     C30151   9.588   0.666   7.569  0.0914 -0.0833 -0.1338
  219MOL0     C30152   9.484   0.666   7.456  0.2195 -0.5045  0.2048
  219MOL0     H30153   9.772   0.329   7.273  0.6576  1.4356 -3.0605
  219MOL0     H30154   9.870   0.162   7.134 -0.5278 -0.1604  1.0580
  219MOL0     H30155   9.959   0.092   6.977 -0.4120 -0.6941  1.4124
  219MOL0     H30156  10.102  -0.008   6.999  0.7894  1.3708  1.0375
  219MOL0     H30157  10.053   0.045   6.753  0.1128 -1.6750  1.7242
  219MOL0     H30158  10.111   0.216   6.788  0.8001  0.8103  2.6859
  219MOL0     H30159  10.334   0.145   6.841 -0.3883  1.2986 -0.5685
  219MOL0     H30160  10.281  -0.031   6.844 -0.8379  0.2542 -1.4928
  219MOL0     H30161  10.236  -0.050   6.622  0.6619  0.5359 -1.8968
  219MOL0     H30162  10.271   0.114   6.596 -1.0608 -0.8671 -0.1814
  219MOL0     H30163  10.466  -0.110   6.664 -1.5018 -0.0575 -0.9773
  219MOL0     H30164  10.504   0.061   6.709 -0.3521  1.5279 -0.5926
  219MOL0     H30165  10.439  -0.018   6.416  2.3178 -0.5795 -0.2633
  219MOL0     H30166  10.487   0.140   6.473  2.1975  0.2400 -2.0659
  219MOL0     H30167  10.693   0.069   6.566 -1.3882  0.4899  0.0949
  219MOL0     H30168  10.673   0.042   6.386 -2.2550 -0.0560 -0.3618
  219MOL0     H30169  10.648  -0.200   6.573  0.5539  2.4294  2.1419
  219MOL0     H30170  10.653  -0.186   6.398 -1.1695  3.1145 -1.5496
  219MOL0     H30171  10.858  -0.099   6.733  1.0043  2.5656 -0.1780
  219MOL0     H30172  11.086  -0.032   6.803  0.5582  0.3117 -0.9694
  219MOL0     H30173  11.217  -0.030   6.687  1.7486 -0.0537  1.7411
  219MOL0     H30174  11.264  -0.202   6.856  1.4628 -0.4443  0.1097
  219MOL0     H30175  11.103  -0.255   6.854  1.6934 -0.2409  0.6572
  219MOL0     H30176  11.293  -0.410   6.730 -2.4478 -0.2860  0.2918
  219MOL0     H30177  11.157  -0.370   6.623 -0.0614  1.1163 -1.6925
  219MOL0     H30178  11.281  -0.179   6.522 -1.1665  0.1246  0.4973
  219MOL0     H30179  11.385  -0.209   6.662 -1.8895 -1.1655  0.9972
  219MOL0     H30180  11.159  -0.354   6.426 -1.4703 -3.0912  0.9524
  219MOL0     H30181  10.986  -0.508   6.166 -1.0496  0.1950  1.0071
  219MOL0     H30182  11.081  -0.382   6.119  3.3550 -2.9394 -0.9025
  219MOL0     H30183  10.997  -0.369   6.281 -1.7812 -0.5950 -0.4986
  219MOL0     H30184  10.990  -0.440   5.829  0.6806  0.9263 -0.6449
  219MOL0     H30185  10.879  -0.527   5.627 -1.4483 -1.2305 -1.8697
  219MOL0     H30186  10.921  -0.624   5.421 -0.2016 -0.1544 -0.0788
  219MOL0     H30187  10.846  -0.767   5.340 -2.2276 -1.7423  1.1596
  219MOL0     H30188  10.624  -0.737   5.459 -2.7372  2.6550 -0.0604
  219MOL0     H30189  10.690  -0.582   5.519 -1.2921 -0.3458  0.8051
  219MOL0     H30190  10.655  -0.669   5.221 -2.2302 -0.2257 -0.8475
  219MOL0     H30191  10.716  -0.511   5.285  2.6825 -1.4551 -0.5788
  219MOL0     H30192  10.498  -0.453   5.376 -1.8511 -1.9472  0.7179
  219MOL0     H30193  10.441  -0.613   5.330 -0.0367 -1.0259 -0.7988
  219MOL0     H30194  10.382  -0.422   5.180 -0.8226 -0.4002  0.5917
  219MOL0     H30195  10.555  -0.412   5.128 -1.0693 -0.5642 -0.1457
  219MOL0     H30196  10.376  -0.659   5.085  0.0795 -1.0154 -2.4506
  219MOL0     H30197  10.555  -0.637   5.045 -0.0542 -0.5780 -0.7010
  219MOL0     H30198  10.334  -0.462   4.925 -1.2810 -0.4776  2.7652
  219MOL0     H30199  10.388  -0.620   4.854 -0.7262 -0.3901  1.0750
  219MOL0     H30200  10.524  -0.490   4.736  0.3567 -0.6203  0.6391
  219MOL0     H30201  10.634  -0.466   4.882 -0.8525 -0.0545  1.8813
  219MOL0     H30202  11.028  -0.920   5.702 -1.7154  1.0387 -0.3612
  219MOL0     H30203  11.167  -0.835   5.894  3.4331  2.2830 -2.6286
  219MOL0     H30204  11.487  -0.647   6.193  1.2018 -0.7536  1.4526
  219MOL0     H30205  11.556  -0.522   6.380 -0.4885  0.1888 -0.1350
  219MOL0     H30206  10.257   0.335   7.195  0.0465 -0.3778  3.2438
  219MOL0     H30207  10.162   0.497   7.358 -1.2320  0.9634  0.2122
  219MOL0     H30208   9.906   0.608   7.669  0.2028  1.7486  4.5546
  219MOL0     H30209   9.826   0.685   7.876 -2.2359  0.9836  1.9105
  219MOL0     H30210   9.669   0.695   8.111  0.4502  1.1795  3.0702
  219MOL0     H30211   9.779   0.793   8.011  0.0977 -3.9453  1.1059
  219MOL0     H30212   9.670   0.995   8.057  0.4982  0.2684 -0.7770
  219MOL0     H30213   9.712   0.921   8.208 -0.2155  0.1639  0.3975
  219MOL0     H30214   9.451   1.006   8.098  0.2380  0.4993 -0.6468
  219MOL0     H30215   9.448   0.830   8.139  0.5394 -1.0592  2.6286
  219MOL0     H30216   9.548   1.037   8.342  2.0973 -1.2923 -2.4724
  219MOL0     H30217   9.519   0.864   8.367 -4.1493 -2.4821  0.4723
  219MOL0     H30218   9.146   1.043   8.465  0.8192 -1.4241  4.0596
  219MOL0     H30219   9.435   0.699   7.719 -1.0242 -3.8365  1.1230
  219MOL0     H30220   9.388   0.709   7.486  0.3243 -0.1917  0.1008
  219MOL0     H30221   9.519   0.726   7.371  0.6475 -2.4183 -1.0181
  219MOL0     H30222   9.450   0.567   7.427 -2.6671  0.2930  0.5454
  220MOL0     O30223   9.603   8.813   2.226 -0.0415  0.5731  0.2683
  220MOL0     C30224   9.595   8.839   2.340 -1.0305  0.4086 -0.5905
  220MOL0     O30225   9.547   8.960   2.398 -0.0193  0.2753  0.9191
  220MOL0     C30226   9.510   9.054   2.298  0.7221  0.4588  0.0905
  220MOL0     C30227   9.603   9.108   2.207 -0.8976 -0.3789 -0.1627
  220MOL0     C30228   9.562   9.215   2.129  0.1527  0.2713 -0.6660
  220MOL0     C30229   9.435   9.260   2.125  0.7404  0.2557  0.2426
  220MOL0     O30230   9.392   9.362   2.034  0.0975 -0.5895  1.1796
  220MOL0     C30231   9.483   9.405   1.922  0.1342 -0.1216 -0.9471
  220MOL0     C30232   9.416   9.510   1.837  0.4892  0.7054 -0.1469
  220MOL0     C30233   9.276   9.471   1.793 -0.5935  0.2108  0.3797
  220MOL0     C30234   9.217   9.573   1.687  0.3882  0.0521  0.9948
  220MOL0     C30235   9.080   9.546   1.622  0.3161 -1.0180 -0.1797
  220MOL0     C30236   8.973   9.507   1.725 -0.9245 -0.3271  0.2195
  220MOL0     C30237   8.847   9.481   1.654 -0.6631  0.7581 -0.6249
  220MOL0     C30238   8.747   9.399   1.734  0.5941 -0.3610  0.5920
  220MOL0     N30239   8.685   9.475   1.846  0.2284  0.8846 -0.2628
  220MOL0     C30240   8.739   9.526   1.953  0.3540  0.2026 -0.8493
  220MOL0     C30241   8.636   9.596   2.010  0.0392  0.0353  0.3100
  220MOL0     C30242   8.658   9.664   2.144 -0.0034  0.0185  0.1278
  220MOL0     C30243   8.563   9.779   2.154  0.0477 -0.3594  0.4056
  220MOL0     C30244   8.415   9.755   2.196  0.6679  0.5009 -0.2724
  220MOL0     C30245   8.393   9.661   2.311 -0.7282  0.6511 -0.6498
  220MOL0     O30246   8.459   9.706   2.432 -0.6959  0.3633 -0.6748
  220MOL0     C30247   8.429   9.840   2.479 -0.5637  0.1855 -0.0328
  220MOL0     C30248   8.529   9.911   2.547 -0.5419 -0.7749  0.1496
  220MOL0     C30249   8.503  10.034   2.605  0.0622  0.7109 -0.1200
  220MOL0     C30250   8.620  10.085   2.697 -0.6299  0.0478 -0.2476
  220MOL0     C30251   8.375  10.093   2.577  0.3118  1.0972  1.0314
  220MOL0     C30252   8.351  10.235   2.619 -0.0850  0.4801 -0.4003
  220MOL0     O30253   8.228  10.271   2.576 -0.4695  0.3029 -0.4372
  220MOL0     C30254   8.163  10.397   2.582 -1.2812 -0.2463  0.1121
  220MOL0     C30255   8.040  10.404   2.514  0.0149 -0.8399  0.2280
  220MOL0     C30256   7.964  10.525   2.510  0.2065  0.5128  0.5629
  220MOL0     C30257   8.012  10.636   2.571  0.2100  0.0588 -0.1788
  220MOL0     O30258   7.948  10.761   2.574  0.1642  0.3368  0.0848
  220MOL0     C30259   7.913  10.816   2.454  0.0593  0.2262 -0.3757
  220MOL0     C30260   7.782  10.892   2.478  1.1555 -0.5407 -0.6333
  220MOL0     C30261   7.791  10.987   2.606 -0.2836  0.1803  0.5322
  220MOL0     C30262   7.703  11.107   2.587  0.2491 -0.3219 -0.2381
  220MOL0     C30263   7.556  11.080   2.610  0.2894 -0.2152 -0.6654
  220MOL0     C30264   7.532  11.128   2.754 -1.2504 -0.7172 -0.3460
  220MOL0     C30265   7.405  11.056   2.803  0.8558 -0.0269 -0.8818
  220MOL0     C30266   7.414  11.005   2.944 -0.9483  0.6945 -0.6633
  220MOL0    Cl30267   7.273  10.904   2.975  0.1965  0.6387 -0.5213
  220MOL0     C30268   8.129  10.627   2.650  0.6621  0.1652  0.1355
  220MOL0     C30269   8.204  10.512   2.649  0.9857  0.8912 -0.1095
  220MOL0     O30270   8.437  10.299   2.678  1.0135 -0.1738  0.3654
  220MOL0     C30271   8.277  10.018   2.502  0.7764 -0.3469 -0.1415
  220MOL0     C30272   8.304   9.893   2.457  0.0846  1.3955  0.2330
  220MOL0     N30273   8.524   9.590   1.926 -0.2043  0.0538  0.4453
  220MOL0     N30274   8.561   9.529   1.819 -0.2518 -0.0511  0.2713
  220MOL0     C30275   9.339   9.209   2.218 -0.7796  0.4142  0.2784
  220MOL0     C30276   9.381   9.108   2.300  0.7792 -0.1824 -0.5443
  220MOL0     C30277   9.664   8.756   2.440 -0.3695 -0.9408  0.1396
  220MOL0     C30278   9.696   8.819   2.564 -0.4820 -0.8942 -0.2822
  220MOL0     C30279   9.762   8.750   2.667 -0.2359 -0.1812  0.2404
  220MOL0     C30280   9.783   8.614   2.656 -0.6804 -0.0765  0.1229
  220MOL0     O30281   9.827   8.536   2.765  0.0671  0.2784 -0.3415
  220MOL0     C30282   9.721   8.484   2.848 -0.3541  0.0684  1.6984
  220MOL0     C30283   9.668   8.593   2.946 -0.0398 -0.1245  0.1795
  220MOL0     C30284   9.751   8.642   3.064 -0.2102 -0.9177 -0.1153
  220MOL0     C30285   9.770   8.546   3.183  1.3630 -0.0508  0.3856
  220MOL0     C30286   9.907   8.552   3.235  0.7841  0.4882  0.8308
  220MOL0     C30287  10.018   8.545   3.284  0.9589 -0.6835 -0.1327
  220MOL0     C30288   9.747   8.547   2.536 -0.6305  0.6389 -0.2575
  220MOL0     C30289   9.687   8.618   2.430  0.4738 -0.0658  0.1607
  220MOL0     C30290   9.651   8.534   2.314  0.1369 -0.4963 -0.0607
  220MOL0     H30291   9.707   9.078   2.203 -0.9484 -0.5006 -4.4668
  220MOL0     H30292   9.635   9.271   2.072 -0.1926  1.1147 -0.2848
  220MOL0     H30293   9.507   9.320   1.858  1.0818 -0.7930  0.2625
  220MOL0     H30294   9.573   9.452   1.964 -0.0572  0.9883 -1.7122
  220MOL0     H30295   9.382   9.592   1.901 -0.5007  2.7951 -3.0962
  220MOL0     H30296   9.484   9.542   1.758  0.6850  0.5167 -0.0562
  220MOL0     H30297   9.286   9.376   1.740  1.7535  1.6815 -2.0542
  220MOL0     H30298   9.209   9.458   1.878 -4.5575  0.7702 -2.4083
  220MOL0     H30299   9.211   9.671   1.737 -1.0335  1.2308 -1.3164
  220MOL0     H30300   9.288   9.579   1.604  0.8192 -3.9323  0.9130
  220MOL0     H30301   9.091   9.466   1.548  3.9782  0.7803 -1.8062
  220MOL0     H30302   9.057   9.637   1.566  3.0467 -1.5731 -2.3788
  220MOL0     H30303   9.015   9.425   1.785  3.1445  1.8257  0.6967
  220MOL0     H30304   8.962   9.585   1.801  0.7427 -0.9549  1.1712
  220MOL0     H30305   8.862   9.429   1.558  2.6070 -0.7100  0.5198
  220MOL0     H30306   8.824   9.587   1.640  0.5815  0.9360 -1.5426
  220MOL0     H30307   8.663   9.357   1.678  1.0881  0.7236 -1.0562
  220MOL0     H30308   8.796   9.312   1.779 -1.0841 -0.3044  2.6319
  220MOL0     H30309   8.837   9.504   1.994 -0.6015 -0.4952  1.2164
  220MOL0     H30310   8.763   9.693   2.147  0.5708 -1.7961 -0.9497
  220MOL0     H30311   8.647   9.590   2.224  2.8197 -0.9075 -0.2464
  220MOL0     H30312   8.610   9.849   2.224  2.7742  2.3593 -3.6908
  220MOL0     H30313   8.563   9.839   2.062  0.8394  2.4239  2.0835
  220MOL0     H30314   8.357   9.848   2.204 -0.7329 -0.5045  2.8040
  220MOL0     H30315   8.361   9.707   2.114 -1.9486 -0.4433  1.8661
  220MOL0     H30316   8.285   9.651   2.328 -0.1044 -0.6076  3.7240
  220MOL0     H30317   8.424   9.560   2.284  1.0202  1.0674 -0.3312
  220MOL0     H30318   8.619   9.852   2.558  0.3838  0.9022  2.3610
  220MOL0     H30319   8.705  10.135   2.650 -0.5409  1.8809  1.7043
  220MOL0     H30320   8.657   9.996   2.749 -0.8438 -0.5615 -1.1098
  220MOL0     H30321   8.574  10.148   2.774 -1.7382  1.5268 -2.0364
  220MOL0     H30322   8.008  10.308   2.472  0.3161 -1.6426  1.7774
  220MOL0     H30323   7.866  10.534   2.464 -0.3863  0.3927  1.7707
  220MOL0     H30324   7.990  10.886   2.419 -0.1823  0.6262 -0.1206
  220MOL0     H30325   7.889  10.737   2.382 -1.2085 -0.5586  0.8447
  220MOL0     H30326   7.754  10.944   2.386  0.4968 -1.9038 -1.2378
  220MOL0     H30327   7.700  10.826   2.509  0.7973  1.8706  4.7312
  220MOL0     H30328   7.895  11.020   2.607  0.4583 -2.0443  0.7424
  220MOL0     H30329   7.779  10.926   2.696 -1.9368  0.1686  0.3316
  220MOL0     H30330   7.736  11.146   2.491 -1.6943 -0.3611 -0.9624
  220MOL0     H30331   7.727  11.186   2.659 -2.0491  0.9717 -0.7963
  220MOL0     H30332   7.488  11.129   2.540 -0.9174 -2.7299 -1.3620
  220MOL0     H30333   7.544  10.972   2.598  2.8470 -1.0131  2.6491
  220MOL0     H30334   7.504  11.233   2.756  0.3086 -0.2821  0.0359
  220MOL0     H30335   7.617  11.124   2.823 -0.1231  1.0226 -1.5732
  220MOL0     H30336   7.375  10.973   2.739 -0.3805 -0.8936  0.7257
  220MOL0     H30337   7.333  11.138   2.811  1.7266  0.7377 -0.8077
  220MOL0     H30338   7.429  11.087   3.014  2.2485  0.4600 -0.9479
  220MOL0     H30339   7.504  10.945   2.961 -1.4061  0.4745  1.2249
  220MOL0     H30340   8.167  10.703   2.718  1.8964 -1.5471  1.4850
  220MOL0     H30341   8.292  10.514   2.713  0.8383 -2.2018  0.3339
  220MOL0     H30342   8.181  10.067   2.493  2.7069  3.8135 -0.0865
  220MOL0     H30343   8.229   9.828   2.412  1.8280 -0.0537 -0.7159
  220MOL0     H30344   9.239   9.246   2.241 -0.1096  1.2181  2.1848
  220MOL0     H30345   9.304   9.067   2.365  1.0252 -1.4150 -1.0163
  220MOL0     H30346   9.686   8.925   2.586  0.6236 -0.3752 -2.0450
  220MOL0     H30347   9.791   8.811   2.752 -1.5883  0.1543  0.4721
  220MOL0     H30348   9.637   8.443   2.791  0.5529  2.0412 -1.3206
  220MOL0     H30349   9.764   8.402   2.906  0.4205  0.2144  1.3452
  220MOL0     H30350   9.576   8.554   2.991 -0.2068  0.6421  0.5188
  220MOL0     H30351   9.640   8.686   2.897 -4.2262 -1.8906 -1.2800
  220MOL0     H30352   9.847   8.672   3.021 -1.3431  0.8439 -1.5650
  220MOL0     H30353   9.702   8.726   3.114  1.6233 -1.4748  2.8190
  220MOL0     H30354   9.748   8.439   3.173  1.9790 -0.2501  1.0517
  220MOL0     H30355   9.699   8.573   3.262 -1.9652 -3.9919 -0.9269
  220MOL0     H30356  10.122   8.537   3.309  0.8275 -1.0854  0.3036
  220MOL0     H30357   9.769   8.441   2.540  1.9830  1.0650 -1.2687
  220MOL0     H30358   9.716   8.559   2.230 -2.1070  1.7859 -1.2722
  220MOL0     H30359   9.657   8.427   2.336  1.7161  0.0592  2.8102
  220MOL0     H30360   9.550   8.567   2.288  0.1026  0.9828  1.6985
  221MOL0     O30361  11.505   3.076   0.852 -0.9782  0.5559  0.7698
  221MOL0     C30362  11.481   3.039   0.737  0.6621  0.5595  0.2672
  221MOL0     O30363  11.449   3.123   0.626 -0.2351 -0.2773 -0.3758
  221MOL0     C30364  11.407   3.254   0.636  0.1148 -0.1835  0.1582
  221MOL0     C30365  11.425   3.341   0.746 -0.4318  0.5220  0.3602
  221MOL0     C30366  11.363   3.466   0.743 -0.5212 -0.2867  0.5966
  221MOL0     C30367  11.283   3.513   0.638 -0.4134 -0.6871  0.0287
  221MOL0     O30368  11.235   3.640   0.657  0.1318  0.2189  0.3610
  221MOL0     C30369  11.182   3.709   0.551  0.5149 -0.2099  0.8864
  221MOL0     C30370  11.122   3.839   0.617  0.1242  0.8796  0.6508
  221MOL0     C30371  11.042   3.921   0.512 -0.3022  0.1473  0.6039
  221MOL0     C30372  11.028   4.072   0.555 -0.2860  0.1612 -1.0591
  221MOL0     C30373  10.984   4.162   0.443  0.1726  0.0891  0.2611
  221MOL0     C30374  10.990   4.308   0.489 -0.0174 -0.6338 -0.1393
  221MOL0     C30375  10.967   4.401   0.375 -0.5815  0.8812  0.8970
  221MOL0     C30376  11.086   4.406   0.272  0.2572 -0.2115  0.4843
  221MOL0     N30377  11.075   4.531   0.194 -0.4796  0.1083  0.0426
  221MOL0     C30378  10.985   4.562   0.097 -0.4119 -0.0801 -0.9674
  221MOL0     C30379  11.034   4.683   0.039 -0.0745 -0.3444 -0.0686
  221MOL0     C30380  10.978   4.769  -0.076  0.9470  0.0101 -0.2440
  221MOL0     C30381  10.992   4.699  -0.211 -0.0557 -0.1348  0.1954
  221MOL0     C30382  10.945   4.800  -0.317 -0.1581 -1.0521  0.3349
  221MOL0     C30383  10.806   4.861  -0.293 -0.5010  0.1423 -0.8828
  221MOL0     O30384  10.704   4.761  -0.291  0.1310 -0.2002  0.4212
  221MOL0     C30385  10.579   4.800  -0.258  0.3554 -0.2166  0.1159
  221MOL0     C30386  10.487   4.709  -0.205  0.1606  0.3255  0.4845
  221MOL0     C30387  10.350   4.732  -0.175  1.0544 -1.1784  0.1586
  221MOL0     C30388  10.263   4.618  -0.133 -0.2630 -0.3009  0.3375
  221MOL0     C30389  10.295   4.858  -0.214  0.5367  0.5038 -0.1278
  221MOL0     C30390  10.155   4.890  -0.192 -0.4878  0.5227  0.3720
  221MOL0     O30391  10.102   5.006  -0.251 -0.0144  0.3764  0.5727
  221MOL0     C30392   9.970   5.033  -0.264  0.8263  0.1771 -0.5834
  221MOL0     C30393   9.855   4.944  -0.270 -0.0426 -0.4682 -0.0175
  221MOL0     C30394   9.724   4.986  -0.289 -0.2915  0.1558 -0.1573
  221MOL0     C30395   9.698   5.122  -0.302 -0.0179 -0.3493  0.2495
  221MOL0     O30396   9.572   5.175  -0.320 -0.0411  0.2809  0.8727
  221MOL0     C30397   9.460   5.089  -0.287  0.2607  0.4466 -0.5088
  221MOL0     C30398   9.331   5.174  -0.264  0.4125  1.3602  0.5529
  221MOL0     C30399   9.262   5.223  -0.389  0.0747  0.0368  0.1908
  221MOL0     C30400   9.159   5.333  -0.355  0.4457 -0.3895 -0.1215
  221MOL0     C30401   9.058   5.371  -0.469  0.1916 -0.1203 -0.4162
  221MOL0     C30402   8.982   5.495  -0.442 -0.0540  0.1522 -0.3890
  221MOL0     C30403   8.883   5.519  -0.570 -0.2444 -0.2528 -0.9043
  221MOL0     C30404   8.748   5.577  -0.525 -0.6239  0.1742 -0.6226
  221MOL0    Cl30405   8.667   5.635  -0.673 -0.6389 -0.1701  0.6004
  221MOL0     C30406   9.802   5.212  -0.287  0.2553 -0.0701  0.0604
  221MOL0     C30407   9.933   5.168  -0.268  0.7726 -0.1073  0.4126
  221MOL0     O30408  10.111   4.842  -0.093  0.6264 -0.2596  0.3251
  221MOL0     C30409  10.383   4.952  -0.257  0.2228  0.5957 -0.8189
  221MOL0     C30410  10.518   4.927  -0.280  0.1265 -1.1125 -0.1031
  221MOL0     N30411  11.140   4.728   0.111  0.9546 -0.6114  0.0853
  221MOL0     N30412  11.165   4.638   0.208  1.0880  0.5095  0.7123
  221MOL0     C30413  11.266   3.431   0.528 -0.8374  0.3488 -0.1605
  221MOL0     C30414  11.339   3.310   0.523 -0.6918 -0.2204 -0.1158
  221MOL0     C30415  11.497   2.894   0.696 -0.1773  0.7875 -0.1122
  221MOL0     C30416  11.504   2.862   0.557 -0.7850 -0.4806 -0.5416
  221MOL0     C30417  11.525   2.733   0.514  0.3974  0.3254  0.5968
  221MOL0     C30418  11.514   2.622   0.599 -0.3477 -0.1234  0.1427
  221MOL0     O30419  11.527   2.495   0.546  0.5054  0.2040 -0.5794
  221MOL0     C30420  11.533   2.378   0.631  0.9144  0.6469 -1.6450
  221MOL0     C30421  11.511   2.246   0.553 -0.5840  0.2516  0.5630
  221MOL0     C30422  11.504   2.118   0.644 -0.6299 -0.2974 -0.4765
  221MOL0     C30423  11.418   2.132   0.781  0.5374 -0.6420 -0.5536
  221MOL0     C30424  11.275   2.153   0.756 -0.4075 -0.1625  0.4324
  221MOL0     C30425  11.156   2.178   0.747 -0.0331  0.5848  0.5571
  221MOL0     C30426  11.488   2.651   0.732  0.6677  0.4922  0.5499
  221MOL0     C30427  11.486   2.782   0.785  1.4109 -0.7392 -0.6090
  221MOL0     C30428  11.454   2.797   0.929 -0.5014 -0.0817 -0.6729
  221MOL0     H30429  11.482   3.302   0.831  0.5656 -2.2206 -1.4285
  221MOL0     H30430  11.383   3.534   0.825 -1.0722  0.5272  0.0692
  221MOL0     H30431  11.096   3.648   0.523 -2.6315  2.7442  3.3050
  221MOL0     H30432  11.250   3.734   0.469 -0.9756 -1.1717 -0.7093
  221MOL0     H30433  11.052   3.801   0.692  0.3258 -0.0709  0.3769
  221MOL0     H30434  11.200   3.906   0.654  2.4514 -0.2350 -1.9415
  221MOL0     H30435  11.104   3.934   0.423  1.6674 -1.0726  1.7096
  221MOL0     H30436  10.950   3.867   0.488  0.1401 -1.4457  2.2798
  221MOL0     H30437  10.951   4.074   0.633  1.3865  3.2536  0.7078
  221MOL0     H30438  11.121   4.104   0.604 -2.4824  1.6553  2.5151
  221MOL0     H30439  10.896   4.134   0.385  0.2691  2.5945 -1.2407
  221MOL0     H30440  11.068   4.156   0.372  2.6963 -0.6625  3.0987
  221MOL0     H30441  10.909   4.331   0.558  1.5923 -0.6907  1.8473
  221MOL0     H30442  11.084   4.338   0.537 -0.9727 -2.4541  3.1343
  221MOL0     H30443  10.952   4.503   0.412  0.1557  1.8656 -1.3355
  221MOL0     H30444  10.874   4.357   0.336  0.2922  0.8131 -1.2988
  221MOL0     H30445  11.188   4.403   0.312  1.5402 -0.9811 -2.4816
  221MOL0     H30446  11.089   4.315   0.210 -1.2771 -0.4537  0.7252
  221MOL0     H30447  10.912   4.493   0.055 -1.5948  0.9417 -0.6559
  221MOL0     H30448  11.019   4.870  -0.076 -0.4898  0.6064  1.0132
  221MOL0     H30449  10.871   4.782  -0.059  1.2461 -1.8987  4.7421
  221MOL0     H30450  11.095   4.665  -0.225  0.8906  2.4574  0.1960
  221MOL0     H30451  10.923   4.615  -0.212  0.1515 -0.3236 -2.0960
  221MOL0     H30452  11.017   4.882  -0.317 -1.2362 -0.0271 -1.4533
  221MOL0     H30453  10.958   4.748  -0.412  1.2413  0.1682 -0.1836
  221MOL0     H30454  10.811   4.928  -0.207 -0.9182 -1.2989  0.2888
  221MOL0     H30455  10.784   4.931  -0.374 -0.5588  1.3723  0.1648
  221MOL0     H30456  10.518   4.605  -0.201 -0.8103 -0.0823 -1.5517
  221MOL0     H30457  10.230   4.648  -0.033  2.1348  0.4994  0.9391
  221MOL0     H30458  10.326   4.529  -0.131  3.5871  2.1861  0.0411
  221MOL0     H30459  10.175   4.608  -0.197 -1.8256  1.0167  2.1534
  221MOL0     H30460   9.880   4.839  -0.267  1.7560 -0.0636  1.0876
  221MOL0     H30461   9.643   4.914  -0.291  2.2135 -3.0200  1.9490
  221MOL0     H30462   9.442   5.016  -0.366 -3.0976  1.1312 -0.5230
  221MOL0     H30463   9.487   5.033  -0.197  0.8012 -0.6230 -1.3210
  221MOL0     H30464   9.260   5.100  -0.226  0.5756  1.1132  0.3824
  221MOL0     H30465   9.357   5.258  -0.198 -2.2438  0.4685  2.9221
  221MOL0     H30466   9.205   5.137  -0.424  1.2466 -1.2356  1.3324
  221MOL0     H30467   9.335   5.261  -0.461  0.7347  0.9889  1.3186
  221MOL0     H30468   9.220   5.418  -0.326  0.3696 -0.6399  0.8300
  221MOL0     H30469   9.103   5.284  -0.275  1.4516 -1.3493  0.0203
  221MOL0     H30470   9.113   5.377  -0.564  2.4031 -2.0435  0.6225
  221MOL0     H30471   8.986   5.290  -0.484  0.3241 -0.1493 -0.9402
  221MOL0     H30472   9.047   5.582  -0.434  1.1294 -0.7177 -0.3245
  221MOL0     H30473   8.923   5.478  -0.351  0.6535  0.6388  0.1759
  221MOL0     H30474   8.861   5.436  -0.638 -1.1397  0.3278 -1.3341
  221MOL0     H30475   8.928   5.595  -0.634 -0.6727  0.8776  0.0963
  221MOL0     H30476   8.758   5.657  -0.450 -2.5105 -1.4007  1.4552
  221MOL0     H30477   8.693   5.495  -0.478  0.1559 -0.9842 -1.6824
  221MOL0     H30478   9.787   5.319  -0.292  0.5798 -0.0929 -4.0206
  221MOL0     H30479  10.005   5.249  -0.269 -1.6403  2.4600 -4.4294
  221MOL0     H30480  10.347   5.048  -0.294 -2.0826  0.3513  0.5460
  221MOL0     H30481  10.580   5.009  -0.316 -2.4197  0.8829 -0.2124
  221MOL0     H30482  11.203   3.456   0.443  0.3493  0.4407 -1.0395
  221MOL0     H30483  11.326   3.239   0.442  1.6340 -1.8467  0.8106
  221MOL0     H30484  11.515   2.939   0.480 -0.6236 -2.0647 -2.1731
  221MOL0     H30485  11.558   2.709   0.413 -2.4771 -0.4750 -0.2222
  221MOL0     H30486  11.618   2.374   0.700 -0.9400  1.0654  0.8170
  221MOL0     H30487  11.451   2.373   0.704 -0.6402  0.4924 -3.3386
  221MOL0     H30488  11.604   2.225   0.500  0.2843  2.7362  0.9813
  221MOL0     H30489  11.424   2.250   0.486 -1.9417 -2.6796  1.9492
  221MOL0     H30490  11.458   2.037   0.586 -0.7588 -1.1569  0.7708
  221MOL0     H30491  11.607   2.090   0.666 -0.5183  1.3407  1.3086
  221MOL0     H30492  11.462   2.193   0.861  1.6637 -5.7546  3.2912
  221MOL0     H30493  11.422   2.031   0.824 -0.0052 -1.2687 -1.9387
  221MOL0     H30494  11.052   2.202   0.745 -0.1938 -0.0929 -0.4698
  221MOL0     H30495  11.467   2.564   0.794 -0.9773 -0.9181 -1.8392
  221MOL0     H30496  11.541   2.821   0.992 -1.3600  0.9976  0.1434
  221MOL0     H30497  11.377   2.873   0.945 -0.7516 -0.4124 -0.2736
  221MOL0     H30498  11.416   2.702   0.967  0.9193 -0.8984 -1.2143
  222MOL0     O30499   0.977   5.953  10.799 -0.2386 -0.5091 -0.1640
  222MOL0     C30500   1.040   6.042  10.739  0.1155 -0.4391 -0.0190
  222MOL0     O30501   1.074   6.163  10.794 -0.3394 -0.2188 -0.3982
  222MOL0     C30502   1.006   6.194  10.911 -0.3887 -0.6274  0.4255
  222MOL0     C30503   0.866   6.191  10.933 -0.7542 -0.0654  0.9276
  222MOL0     C30504   0.819   6.213  11.056 -0.4761 -0.8262  0.4588
  222MOL0     C30505   0.891   6.265  11.163  1.8401 -0.5273 -0.2146
  222MOL0     O30506   0.815   6.307  11.270 -0.8600  0.1160  0.0130
  222MOL0     C30507   0.884   6.379  11.378  0.4393  0.9969 -0.4272
  222MOL0     C30508   0.793   6.442  11.479  0.7796  0.3101 -0.6909
  222MOL0     C30509   0.709   6.537  11.402  0.8720 -0.7188  0.5281
  222MOL0     C30510   0.562   6.533  11.455 -0.6910  1.1268  0.6581
  222MOL0     C30511   0.543   6.581  11.590  0.5268 -0.3506  0.1185
  222MOL0     C30512   0.408   6.559  11.661 -0.9000 -0.9959 -0.5416
  222MOL0     C30513   0.302   6.686  11.682  0.2337  0.3394  0.6725
  222MOL0     C30514   0.351   6.806  11.761  1.4156  0.7926 -0.1501
  222MOL0     N30515   0.235   6.868  11.824 -0.4407  0.7322 -1.1323
  222MOL0     C30516   0.157   6.828  11.925  0.8635 -0.1503 -0.1830
  222MOL0     C30517   0.050   6.904  11.926 -0.6306 -0.5034 -0.6745
  222MOL0     C30518  -0.075   6.881  12.010 -0.2647 -0.3951 -0.1846
  222MOL0     C30519  -0.140   6.743  11.981 -0.0853  0.1596 -0.0604
  222MOL0     C30520  -0.139   6.701  11.839  0.4020 -0.2527  0.0238
  222MOL0     C30521  -0.199   6.559  11.820 -0.0350  0.7963 -0.4567
  222MOL0     O30522  -0.310   6.527  11.904 -0.1793  0.0825  0.2215
  222MOL0     C30523  -0.434   6.589  11.870 -0.5011  0.2955  1.1482
  222MOL0     C30524  -0.462   6.673  11.759 -0.7626  0.3985 -0.3111
  222MOL0     C30525  -0.590   6.733  11.742 -0.9619  0.3054  0.6359
  222MOL0     C30526  -0.603   6.815  11.621 -1.3013  0.3359  0.3861
  222MOL0     C30527  -0.702   6.707  11.830  0.2571  0.8928  0.9842
  222MOL0     C30528  -0.843   6.757  11.808 -0.2270 -0.1358 -0.2566
  222MOL0     O30529  -0.929   6.746  11.916  0.2310 -0.4982  0.2136
  222MOL0     C30530  -1.050   6.818  11.922 -0.0328 -0.5697 -0.7694
  222MOL0     C30531  -1.066   6.952  11.878  0.1861  0.2142  0.1282
  222MOL0     C30532  -1.193   7.016  11.901 -0.0976 -0.0561  0.7620
  222MOL0     C30533  -1.302   6.943  11.960 -0.2397 -0.8167 -0.8638
  222MOL0     O30534  -1.427   7.006  11.980  0.2704 -0.2081 -0.4713
  222MOL0     C30535  -1.548   6.940  12.027 -0.4399 -0.5676  0.2519
  222MOL0     C30536  -1.613   6.863  11.912 -0.2211 -0.7540  0.2104
  222MOL0     C30537  -1.667   6.955  11.803 -0.5876  0.3094  0.3372
  222MOL0     C30538  -1.729   6.877  11.681 -0.0203 -0.5742 -0.5677
  222MOL0     C30539  -1.802   6.973  11.584 -0.4150  0.7466 -0.4482
  222MOL0     C30540  -1.836   6.903  11.454 -0.5683  0.1616 -1.0393
  222MOL0     C30541  -1.841   7.000  11.335 -0.3994 -0.8398 -0.3197
  222MOL0     C30542  -1.910   6.951  11.212  0.1344 -0.0701  0.4772
  222MOL0    Cl30543  -1.817   6.803  11.162  0.4098  0.1166 -0.2403
  222MOL0     C30544  -1.277   6.818  12.008 -0.9455  0.3246  0.7582
  222MOL0     C30545  -1.151   6.756  11.993  0.2530  0.0498 -0.4558
  222MOL0     O30546  -0.869   6.819  11.702  0.2996 -0.2263  0.1374
  222MOL0     C30547  -0.673   6.622  11.941  0.0361 -1.2476 -0.1475
  222MOL0     C30548  -0.542   6.565  11.951 -0.3952  0.2801 -0.5115
  222MOL0     N30549   0.075   7.010  11.840  0.0345 -0.1840  0.4275
  222MOL0     N30550   0.191   6.978  11.769  0.4783  0.2280  0.0440
  222MOL0     C30551   1.028   6.268  11.153 -0.7433  0.1239  0.7425
  222MOL0     C30552   1.082   6.235  11.023 -0.2645 -0.2097 -0.0124
  222MOL0     C30553   1.072   6.022  10.602  0.0020 -0.2578  0.2165
  222MOL0     C30554   1.072   6.133  10.523  0.5966 -0.6170  0.3489
  222MOL0     C30555   1.092   6.135  10.387  0.5829  0.3993 -0.3664
  222MOL0     C30556   1.106   6.012  10.327  0.1347 -0.4656  0.6710
  222MOL0     O30557   1.096   5.992  10.194  0.6574 -0.0163 -0.3058
  222MOL0     C30558   0.978   5.927  10.152  0.6945  0.7932  0.6200
  222MOL0     C30559   0.984   5.895   9.997  0.2189 -0.1893 -1.4074
  222MOL0     C30560   1.054   5.770   9.956 -0.3870 -0.5357 -0.5451
  222MOL0     C30561   1.194   5.750  10.012 -0.6827 -0.1210  0.7463
  222MOL0     C30562   1.294   5.853   9.968  0.6606  0.3375 -1.2543
  222MOL0     C30563   1.359   5.949   9.945  0.4874 -1.2644 -0.0544
  222MOL0     C30564   1.111   5.891  10.399  0.3087 -0.7642 -0.4785
  222MOL0     C30565   1.095   5.893  10.541  1.1242 -0.4406 -1.3272
  222MOL0     C30566   1.096   5.765  10.631 -0.2477 -0.4814  0.0565
  222MOL0     H30567   0.803   6.151  10.854  1.4095 -1.9844  0.0715
  222MOL0     H30568   0.711   6.199  11.058 -0.8143  1.4194  1.2014
  222MOL0     H30569   0.937   6.464  11.334  0.0375  0.6535 -1.6180
  222MOL0     H30570   0.970   6.334  11.429  0.4617  2.3467  0.8000
  222MOL0     H30571   0.736   6.372  11.542 -3.2813  1.0733 -3.1016
  222MOL0     H30572   0.856   6.501  11.545  2.4360  1.3008 -3.0334
  222MOL0     H30573   0.722   6.645  11.407 -3.7447  0.0027  1.1418
  222MOL0     H30574   0.704   6.518  11.295 -0.3512  0.6134  0.3259
  222MOL0     H30575   0.507   6.593  11.382  1.6047  0.3608 -1.8556
  222MOL0     H30576   0.532   6.428  11.459 -2.3909  1.3770 -2.4549
  222MOL0     H30577   0.558   6.689  11.593 -1.8705  0.1506 -2.1529
  222MOL0     H30578   0.614   6.535  11.660 -1.6198 -2.3547  1.1336
  222MOL0     H30579   0.353   6.480  11.610 -0.9385  1.3698 -4.5919
  222MOL0     H30580   0.426   6.533  11.766 -0.1053  0.1621 -0.3757
  222MOL0     H30581   0.225   6.633  11.740 -0.6396 -0.3019 -1.0063
  222MOL0     H30582   0.258   6.716  11.586  0.3400 -1.5153  0.0041
  222MOL0     H30583   0.420   6.767  11.836  0.5778 -0.9781 -0.2448
  222MOL0     H30584   0.401   6.876  11.693  1.4182  1.6248  0.6920
  222MOL0     H30585   0.197   6.751  11.991  4.2610 -1.0441 -2.9924
  222MOL0     H30586  -0.140   6.967  11.995  2.3301  2.0849  1.6959
  222MOL0     H30587  -0.046   6.888  12.115 -0.4421  0.2897 -0.1768
  222MOL0     H30588  -0.104   6.667  12.051  1.1478  1.1864  0.4613
  222MOL0     H30589  -0.248   6.747  11.998 -0.0616  0.9644 -0.0509
  222MOL0     H30590  -0.208   6.774  11.794 -0.4289  0.2181  1.9772
  222MOL0     H30591  -0.044   6.705  11.785 -0.5665 -2.6865 -2.1012
  222MOL0     H30592  -0.225   6.540  11.715 -4.4165  1.8131  0.2329
  222MOL0     H30593  -0.107   6.503  11.839 -0.1502  0.7390 -0.0609
  222MOL0     H30594  -0.381   6.702  11.692 -1.8857  0.5645 -1.6306
  222MOL0     H30595  -0.672   6.776  11.546 -1.1884 -1.8041  1.3135
  222MOL0     H30596  -0.506   6.832  11.573  0.0064  0.4726  2.9297
  222MOL0     H30597  -0.623   6.911  11.670  0.2777  2.3508 -2.5551
  222MOL0     H30598  -0.992   7.012  11.825 -2.2138  2.7792 -0.5919
  222MOL0     H30599  -1.230   7.109  11.860  1.2279 -0.1885 -0.8684
  222MOL0     H30600  -1.528   6.876  12.113 -2.2898  0.0460  1.1894
  222MOL0     H30601  -1.604   7.023  12.071 -0.8692 -0.8364  0.2168
  222MOL0     H30602  -1.554   6.784  11.865  0.7939  0.3237 -0.3814
  222MOL0     H30603  -1.697   6.820  11.969 -0.3772  2.5760  2.8607
  222MOL0     H30604  -1.584   7.015  11.764  0.3741 -0.3941  1.2659
  222MOL0     H30605  -1.730   7.033  11.847  0.1420 -0.0496  2.0693
  222MOL0     H30606  -1.808   6.811  11.720 -1.5379  0.9323 -0.9467
  222MOL0     H30607  -1.650   6.817  11.635  3.1378  3.9962 -1.7687
  222MOL0     H30608  -1.902   6.994  11.624 -1.6990 -3.1758 -1.1273
  222MOL0     H30609  -1.745   7.063  11.558 -4.2508  3.4868 -0.2705
  222MOL0     H30610  -1.935   6.859  11.471  0.3127 -1.2627  0.6658
  222MOL0     H30611  -1.766   6.820  11.440 -2.4983 -1.9379  0.9487
  222MOL0     H30612  -1.742   7.038  11.310 -1.4902  1.1395 -1.9255
  222MOL0     H30613  -1.887   7.097  11.352  1.0113 -0.0000 -1.1563
  222MOL0     H30614  -1.907   7.018  11.126 -2.0472 -0.1185  0.3217
  222MOL0     H30615  -2.013   6.919  11.227  0.4445 -1.6427 -0.4601
  222MOL0     H30616  -1.348   6.755  12.061 -1.6032  1.0626  0.7782
  222MOL0     H30617  -1.121   6.665  12.045 -0.0270  0.7349  0.9583
  222MOL0     H30618  -0.744   6.601  12.021  1.7765 -0.4301  1.6829
  222MOL0     H30619  -0.519   6.492  12.028  0.7311  2.2500  1.1279
  222MOL0     H30620   1.091   6.311  11.230  0.3738  0.3482 -0.2704
  222MOL0     H30621   1.187   6.213  11.008 -0.1455 -0.5535  1.1929
  222MOL0     H30622   1.051   6.231  10.563  3.8130  0.9721 -1.4010
  222MOL0     H30623   1.085   6.230  10.336  2.7307 -0.6975 -2.9415
  222MOL0     H30624   0.950   5.839  10.211  0.1119 -0.2196 -1.0975
  222MOL0     H30625   0.897   5.998  10.166  1.0433  1.1760  0.7214
  222MOL0     H30626   1.032   5.979   9.945  0.0276  0.8595  0.0459
  222MOL0     H30627   0.882   5.889   9.957  0.6025 -2.6782 -2.1548
  222MOL0     H30628   0.998   5.678   9.978 -2.6811  0.0343 -3.3713
  222MOL0     H30629   1.062   5.776   9.847  2.0250 -0.2307 -0.4153
  222MOL0     H30630   1.227   5.654   9.970 -0.3703  0.0918  0.4937
  222MOL0     H30631   1.197   5.731  10.119  2.5188 -1.8703  0.4828
  222MOL0     H30632   1.410   6.043   9.936 -1.4735 -0.0658  0.7205
  222MOL0     H30633   1.119   5.794  10.350  0.2338 -0.5141 -0.9951
  222MOL0     H30634   1.121   5.680  10.566 -1.8248  2.8044 -5.5078
  222MOL0     H30635   1.160   5.782  10.718 -0.0172 -1.6028  0.1314
  222MOL0     H30636   0.997   5.750  10.674 -0.1970  2.1149  1.2660
  223MOL0     O30637   8.294   4.139   3.655 -0.7241 -0.2268 -0.3974
  223MOL0     C30638   8.344   4.059   3.735  0.3665 -1.0025 -0.3717
  223MOL0     O30639   8.289   3.949   3.781  0.6322 -0.1489 -0.4442
  223MOL0     C30640   8.171   3.898   3.721 -0.1673 -0.2284 -0.4564
  223MOL0     C30641   8.129   3.927   3.585 -0.5855  0.1243 -0.1325
  223MOL0     C30642   8.013   3.869   3.521  0.4766  0.5635 -0.0531
  223MOL0     C30643   7.943   3.770   3.589 -0.0573 -0.0343 -0.2758
  223MOL0     O30644   7.844   3.714   3.509 -1.4648  0.1692  0.1622
  223MOL0     C30645   7.746   3.657   3.579  0.2461  0.1342 -0.4094
  223MOL0     C30646   7.655   3.574   3.478 -0.0719 -0.3956 -0.4068
  223MOL0     C30647   7.560   3.492   3.569  0.3645 -0.3277 -0.1164
  223MOL0     C30648   7.451   3.437   3.468  0.2187 -0.1829  1.1259
  223MOL0     C30649   7.379   3.310   3.528  0.6454  0.4706 -0.2506
  223MOL0     C30650   7.450   3.176   3.492  0.9042  0.9346  0.2428
  223MOL0     C30651   7.585   3.156   3.556  0.4066  0.3583  0.5322
  223MOL0     C30652   7.645   3.016   3.526  1.2312 -0.6009 -0.5119
  223MOL0     N30653   7.598   2.904   3.611  1.2410 -0.2142  0.2416
  223MOL0     C30654   7.526   2.795   3.569 -0.3153  0.3795 -0.8629
  223MOL0     C30655   7.494   2.722   3.675 -0.6993 -0.5274 -0.2089
  223MOL0     C30656   7.406   2.595   3.666 -0.9543  0.3168  0.2282
  223MOL0     C30657   7.283   2.590   3.759  0.1846  0.3133 -0.8657
  223MOL0     C30658   7.168   2.684   3.715  0.6679  0.3138 -0.4110
  223MOL0     C30659   7.190   2.817   3.776  0.4406  0.2316  0.3727
  223MOL0     O30660   7.166   2.804   3.923 -0.2888  0.8696  0.5193
  223MOL0     C30661   7.156   2.915   3.997 -0.4934  0.6023 -0.2371
  223MOL0     C30662   7.189   3.045   3.965  0.6004 -0.5966  0.4701
  223MOL0     C30663   7.176   3.151   4.060 -0.0980 -0.4837 -1.0055
  223MOL0     C30664   7.183   3.286   4.013  0.4336  0.8478  0.1863
  223MOL0     C30665   7.145   3.122   4.194  1.2867  0.5612  0.1434
  223MOL0     C30666   7.124   3.216   4.310  0.1030  0.3931  0.3333
  223MOL0     O30667   7.152   3.173   4.429 -0.1468 -0.7816  0.3954
  223MOL0     C30668   7.225   3.271   4.499 -0.0180  0.3080 -0.1937
  223MOL0     C30669   7.329   3.348   4.434 -0.1308 -0.8492 -0.4232
  223MOL0     C30670   7.430   3.421   4.505  0.6650  0.9609 -0.1941
  223MOL0     C30671   7.424   3.416   4.648 -0.4921 -0.8402 -0.2176
  223MOL0     O30672   7.522   3.495   4.709  0.1109  0.4494  0.0350
  223MOL0     C30673   7.516   3.532   4.849 -0.4444 -0.6233  0.0082
  223MOL0     C30674   7.599   3.655   4.879 -0.8800  1.1150 -0.2438
  223MOL0     C30675   7.741   3.633   4.827 -0.1943  0.1964  0.5637
  223MOL0     C30676   7.831   3.756   4.834 -0.5817 -0.3758  0.3752
  223MOL0     C30677   7.987   3.728   4.833  0.1140 -0.0122 -1.2277
  223MOL0     C30678   8.067   3.732   4.702  0.0549 -0.1208 -0.6253
  223MOL0     C30679   8.202   3.657   4.705  1.1289  0.0495 -0.0232
  223MOL0     C30680   8.315   3.743   4.777  0.8287  0.0891 -0.0682
  223MOL0    Cl30681   8.353   3.884   4.662 -0.5781  0.2330  0.2323
  223MOL0     C30682   7.321   3.346   4.713  1.3684  0.0684 -0.4475
  223MOL0     C30683   7.221   3.273   4.639  0.6415 -0.3983  0.8309
  223MOL0     O30684   7.090   3.335   4.273 -0.4966  0.3918  0.7673
  223MOL0     C30685   7.123   2.986   4.222  0.1276  0.5709  0.1568
  223MOL0     C30686   7.121   2.887   4.127 -0.5145 -0.0341 -0.1395
  223MOL0     N30687   7.564   2.771   3.780 -0.6847  0.2664  0.2050
  223MOL0     N30688   7.625   2.883   3.743  0.6821  0.7056 -0.1218
  223MOL0     C30689   7.986   3.740   3.720 -0.7907  0.7924  0.5522
  223MOL0     C30690   8.094   3.806   3.786  0.5181  0.4108 -0.4000
  223MOL0     C30691   8.482   4.100   3.796 -0.7444  0.4107 -0.2775
  223MOL0     C30692   8.505   4.241   3.812  1.1404 -0.2210 -0.5624
  223MOL0     C30693   8.626   4.288   3.871 -0.3941  0.7146 -0.3965
  223MOL0     C30694   8.719   4.197   3.915  0.7371 -0.0434 -0.0965
  223MOL0     O30695   8.826   4.233   3.993 -0.0147  0.5300 -0.0319
  223MOL0     C30696   8.881   4.365   3.981  0.7657  0.5846  0.3749
  223MOL0     C30697   9.013   4.380   4.057  0.3856  0.3732 -0.9917
  223MOL0     C30698   9.093   4.513   4.056  0.3693 -0.2220  0.7617
  223MOL0     C30699   9.007   4.644   4.056  0.5195  0.1546 -0.5481
  223MOL0     C30700   8.982   4.673   3.916  0.1792  0.6698 -0.3009
  223MOL0     C30701   8.979   4.697   3.801 -0.3483 -0.2442 -0.8979
  223MOL0     C30702   8.698   4.062   3.901  0.2122 -0.3150  0.1181
  223MOL0     C30703   8.585   4.006   3.833  0.2146 -0.4905 -0.9815
  223MOL0     C30704   8.584   3.858   3.830 -0.0661  0.5833  0.7555
  223MOL0     H30705   8.196   3.983   3.521 -1.7414  0.8948 -0.7045
  223MOL0     H30706   7.984   3.910   3.425  0.2308 -1.4967 -0.8911
  223MOL0     H30707   7.680   3.721   3.637  1.1707 -1.5524  2.7746
  223MOL0     H30708   7.782   3.583   3.652 -5.0085 -1.7829  0.6873
  223MOL0     H30709   7.597   3.635   3.409 -2.4241  0.0463  1.8168
  223MOL0     H30710   7.721   3.506   3.424  1.3982  2.2893 -2.2396
  223MOL0     H30711   7.607   3.416   3.633 -0.4080  0.5386  1.5300
  223MOL0     H30712   7.528   3.559   3.649  1.3556 -1.4314  1.2655
  223MOL0     H30713   7.385   3.516   3.430  1.7781  0.4149 -0.4733
  223MOL0     H30714   7.506   3.403   3.380  0.3223  1.0016  0.7076
  223MOL0     H30715   7.280   3.304   3.482  0.3674  0.2074  0.3732
  223MOL0     H30716   7.362   3.311   3.636 -0.9402  1.0262 -0.4754
  223MOL0     H30717   7.374   3.098   3.504  1.9000 -0.7244 -3.0919
  223MOL0     H30718   7.470   3.162   3.385 -1.4321 -0.7966 -0.0642
  223MOL0     H30719   7.579   3.165   3.664 -0.5065  2.0858  0.3680
  223MOL0     H30720   7.654   3.229   3.512 -1.3042  1.3585 -0.5842
  223MOL0     H30721   7.616   2.993   3.423  0.8217  1.2868 -0.8562
  223MOL0     H30722   7.754   3.017   3.524  1.2852 -2.2112  0.0820
  223MOL0     H30723   7.498   2.768   3.467 -2.5097 -0.6372 -0.0473
  223MOL0     H30724   7.463   2.506   3.692  0.4032  2.0509  3.9036
  223MOL0     H30725   7.381   2.588   3.559  1.3948 -0.8670 -0.3117
  223MOL0     H30726   7.232   2.493   3.760  0.1465  0.3125  1.5413
  223MOL0     H30727   7.315   2.608   3.861  0.1400  0.2535 -0.8409
  223MOL0     H30728   7.167   2.690   3.606 -1.5257  0.3656 -0.4180
  223MOL0     H30729   7.073   2.638   3.743  1.0687  0.0335  0.5458
  223MOL0     H30730   7.289   2.855   3.751 -0.5541  0.4448 -3.9037
  223MOL0     H30731   7.117   2.887   3.734 -0.3376 -0.5602  0.3747
  223MOL0     H30732   7.208   3.073   3.862 -0.5610  0.8344  0.6033
  223MOL0     H30733   7.086   3.335   3.999  1.5430  2.8438 -0.9828
  223MOL0     H30734   7.223   3.293   3.911  0.2313  2.5826  0.1913
  223MOL0     H30735   7.247   3.341   4.082 -2.1382  2.2722  1.6000
  223MOL0     H30736   7.338   3.353   4.326 -1.8723 -0.0834 -0.5661
  223MOL0     H30737   7.501   3.485   4.454  1.3029  1.3854  1.1961
  223MOL0     H30738   7.412   3.543   4.881 -1.1221  0.0904 -2.2191
  223MOL0     H30739   7.556   3.442   4.895  1.8560 -0.1006 -0.8576
  223MOL0     H30740   7.542   3.736   4.832 -5.4774 -2.8276 -2.3498
  223MOL0     H30741   7.604   3.669   4.987 -2.0708  2.5299 -0.3425
  223MOL0     H30742   7.736   3.584   4.729  0.6138 -1.9340  1.5416
  223MOL0     H30743   7.786   3.560   4.893  3.4235 -1.3558 -3.2049
  223MOL0     H30744   7.810   3.803   4.930 -0.3423  0.9036 -0.1712
  223MOL0     H30745   7.803   3.820   4.749 -0.4850  0.4517  0.9606
  223MOL0     H30746   8.039   3.806   4.889  1.6697 -1.9842  0.1682
  223MOL0     H30747   8.002   3.628   4.874  1.6299  1.0344  0.9325
  223MOL0     H30748   8.077   3.837   4.675  0.1715  1.8091  5.5883
  223MOL0     H30749   8.006   3.686   4.623  0.8756 -0.0393 -1.3239
  223MOL0     H30750   8.219   3.633   4.600  1.8647  0.6679 -0.0571
  223MOL0     H30751   8.191   3.564   4.762 -2.9809  1.2925  1.6090
  223MOL0     H30752   8.398   3.674   4.793  0.0649 -1.2389 -1.5443
  223MOL0     H30753   8.276   3.769   4.876 -0.4004 -0.4904 -0.3854
  223MOL0     H30754   7.320   3.360   4.821  5.7593  2.3791 -0.4503
  223MOL0     H30755   7.139   3.216   4.681 -0.4847  0.1529 -0.5497
  223MOL0     H30756   7.099   2.949   4.322 -1.4881 -1.4469 -0.9049
  223MOL0     H30757   7.088   2.789   4.160 -1.1493  1.2614  3.5001
  223MOL0     H30758   7.936   3.663   3.777  2.0053 -0.2573  1.7287
  223MOL0     H30759   8.109   3.755   3.881 -3.7896  2.1851  1.4957
  223MOL0     H30760   8.433   4.315   3.777 -0.7604 -2.1734 -1.0520
  223MOL0     H30761   8.645   4.395   3.870 -0.1851  0.6930  0.4952
  223MOL0     H30762   8.888   4.387   3.874 -0.3122  1.3762  0.4503
  223MOL0     H30763   8.806   4.439   4.010  1.2829  0.2626  2.7400
  223MOL0     H30764   9.088   4.303   4.037  1.1614 -0.5723  4.1141
  223MOL0     H30765   8.984   4.354   4.159  0.6220 -2.1323 -1.5056
  223MOL0     H30766   9.147   4.517   4.151  2.3569  1.4831 -0.3607
  223MOL0     H30767   9.159   4.520   3.969 -0.3842 -0.1760  0.1841
  223MOL0     H30768   9.079   4.721   4.085  2.5789 -2.2414  1.0855
  223MOL0     H30769   8.911   4.643   4.108  0.1617  0.0338 -1.1968
  223MOL0     H30770   8.965   4.715   3.696  2.5098  2.0653 -0.9843
  223MOL0     H30771   8.782   4.008   3.944  0.0283 -1.6433 -1.1050
  223MOL0     H30772   8.633   3.805   3.912  2.3247  1.9153  0.2576
  223MOL0     H30773   8.483   3.818   3.815  0.8705 -1.4966 -0.4213
  223MOL0     H30774   8.639   3.827   3.742  0.1234 -1.0167  1.3966
  224MOL0     O30775   7.194  10.060   3.436  0.6201  0.2177  0.4185
  224MOL0     C30776   7.189  10.177   3.392  0.6439  0.4190 -0.6105
  224MOL0     O30777   7.289  10.251   3.339  0.1132  0.2303 -0.5033
  224MOL0     C30778   7.375  10.196   3.243 -0.1442  0.1892  0.5103
  224MOL0     C30779   7.491  10.263   3.243 -0.2335  1.2064 -0.5604
  224MOL0     C30780   7.600  10.215   3.170 -1.1867  0.9165 -0.5981
  224MOL0     C30781   7.590  10.079   3.113 -0.4135 -0.5126  0.4160
  224MOL0     O30782   7.686  10.007   3.045  0.0150  0.2504 -0.0587
  224MOL0     C30783   7.821  10.052   3.069  0.5741  0.5967  1.1475
  224MOL0     C30784   7.912   9.937   3.015  0.2747  0.1384  0.8910
  224MOL0     C30785   8.058   9.982   3.006  0.0341 -0.1105 -0.2855
  224MOL0     C30786   8.138   9.876   2.933  0.8336 -0.6484 -0.6746
  224MOL0     C30787   8.285   9.919   2.927 -0.6806  0.8524 -0.2351
  224MOL0     C30788   8.380   9.888   3.049 -0.5926  0.1460 -0.4359
  224MOL0     C30789   8.531   9.898   3.013  0.1485  0.2063  0.2440
  224MOL0     C30790   8.609   9.808   3.112  0.4127 -0.1532 -0.1197
  224MOL0     N30791   8.742   9.787   3.074 -0.6459 -0.2073  0.2087
  224MOL0     C30792   8.845   9.891   3.098  0.3016  0.5115  0.3908
  224MOL0     C30793   8.961   9.827   3.074 -0.3537 -0.4272 -0.1886
  224MOL0     C30794   9.095   9.886   3.076 -0.2079 -0.1743  0.0416
  224MOL0     C30795   9.163   9.859   3.205 -0.2672  0.1418  0.1138
  224MOL0     C30796   9.298   9.933   3.199  0.7731  0.4406  0.0943
  224MOL0     C30797   9.287  10.093   3.208 -0.4394  0.2951  0.3301
  224MOL0     O30798   9.213  10.136   3.322 -0.2809  0.3182 -0.2258
  224MOL0     C30799   9.275  10.173   3.438 -0.5445  0.5447  0.7787
  224MOL0     C30800   9.221  10.262   3.533 -0.8391  0.7624  0.2960
  224MOL0     C30801   9.281  10.300   3.655  0.5176  0.5537  0.2605
  224MOL0     C30802   9.198  10.397   3.737 -0.3691  0.0986  0.0072
  224MOL0     C30803   9.412  10.243   3.682  0.4161  0.3451  0.5076
  224MOL0     C30804   9.494  10.252   3.803 -0.3098 -1.2656 -0.1873
  224MOL0     O30805   9.431  10.279   3.921  0.3246  0.4371 -0.2528
  224MOL0     C30806   9.515  10.324   4.018 -0.6183  1.0157  0.4519
  224MOL0     C30807   9.614  10.245   4.075  0.3952  0.4816  0.4465
  224MOL0     C30808   9.712  10.296   4.157  0.2508 -0.0204 -0.6614
  224MOL0     C30809   9.725  10.439   4.179 -0.2243  0.0365 -0.8196
  224MOL0     O30810   9.831  10.493   4.257  0.6711  0.0048  0.2973
  224MOL0     C30811   9.817  10.619   4.315 -0.0692 -0.3971  0.3389
  224MOL0     C30812   9.896  10.626   4.440  0.9283  0.3432 -0.1949
  224MOL0     C30813   9.814  10.567   4.560 -0.8517 -0.7226  0.1449
  224MOL0     C30814   9.786  10.410   4.569  0.0930  0.6379 -0.2526
  224MOL0     C30815   9.819  10.342   4.699  0.4426  0.6606  0.6469
  224MOL0     C30816   9.789  10.401   4.832  0.5436  0.7248  0.2505
  224MOL0     C30817   9.635  10.409   4.851 -0.3029  1.3418  0.1151
  224MOL0     C30818   9.560  10.271   4.853 -0.0773  0.1001  0.0979
  224MOL0    Cl30819   9.476  10.263   4.695 -0.1362  0.6413  0.2356
  224MOL0     C30820   9.629  10.517   4.119  0.0558 -0.5305 -0.1074
  224MOL0     C30821   9.524  10.461   4.050  0.7131  1.3066  0.0868
  224MOL0     O30822   9.618  10.249   3.787 -0.3667  0.0585 -0.1311
  224MOL0     C30823   9.471  10.162   3.574 -0.8055 -0.2703 -0.0433
  224MOL0     C30824   9.403  10.127   3.460  0.3669  0.1471  0.7453
  224MOL0     N30825   8.933   9.691   3.058 -0.6015  0.3827 -0.5420
  224MOL0     N30826   8.809   9.669   3.064  0.4077  0.2815  0.3207
  224MOL0     C30827   7.471  10.020   3.114  1.1878  0.1311 -0.0696
  224MOL0     C30828   7.356  10.072   3.177 -0.3066 -0.1873 -0.5408
  224MOL0     C30829   7.055  10.242   3.404 -0.4530 -0.7178  1.3733
  224MOL0     C30830   7.019  10.317   3.290 -0.2967 -0.6936 -0.2413
  224MOL0     C30831   6.896  10.376   3.290 -0.0075  0.0952 -0.0729
  224MOL0     C30832   6.814  10.391   3.400  0.2432 -0.0746 -0.5177
  224MOL0     O30833   6.695  10.465   3.415 -0.1912  0.5803  0.2194
  224MOL0     C30834   6.574  10.406   3.358 -0.1343 -0.9069  0.5720
  224MOL0     C30835   6.451  10.434   3.448 -0.9054  1.4888 -0.9189
  224MOL0     C30836   6.453  10.350   3.577  0.3738 -0.6495  0.8189
  224MOL0     C30837   6.323  10.325   3.644  1.0610 -0.4404 -0.1767
  224MOL0     C30838   6.267  10.456   3.696  0.1371  0.4350 -0.0237
  224MOL0     C30839   6.214  10.553   3.750 -0.3127  0.6076  0.3286
  224MOL0     C30840   6.849  10.321   3.515 -0.2946  0.2927  0.7271
  224MOL0     C30841   6.968  10.241   3.517 -0.6541  0.6047 -0.1665
  224MOL0     C30842   6.994  10.151   3.636 -0.4568  0.4704 -0.5740
  224MOL0     H30843   7.503  10.360   3.290  0.2898  0.5575  0.6899
  224MOL0     H30844   7.695  10.269   3.164 -0.1772 -0.8526 -1.2650
  224MOL0     H30845   7.848  10.071   3.174 -0.4971  0.1312  1.5271
  224MOL0     H30846   7.834  10.149   3.021  1.1157 -0.6025 -1.2524
  224MOL0     H30847   7.914   9.846   3.075 -3.4433  0.4260  1.6633
  224MOL0     H30848   7.873   9.901   2.919  1.6923 -3.4011  1.4722
  224MOL0     H30849   8.073  10.076   2.951  0.7876 -1.2222 -2.0537
  224MOL0     H30850   8.090   9.989   3.111  1.1459 -1.6070 -0.5036
  224MOL0     H30851   8.123   9.776   2.976 -1.7118  0.1367  0.4823
  224MOL0     H30852   8.097   9.862   2.832 -0.3822 -1.3962 -0.1033
  224MOL0     H30853   8.300  10.024   2.902  2.8094  0.3204 -0.8213
  224MOL0     H30854   8.330   9.860   2.847 -0.4898  0.7941 -0.0853
  224MOL0     H30855   8.357   9.972   3.115  0.1716  0.0759 -0.0640
  224MOL0     H30856   8.351   9.790   3.087 -3.8482  1.3237  0.5051
  224MOL0     H30857   8.556  10.005   3.020 -1.4576  0.5176  5.1197
  224MOL0     H30858   8.552   9.848   2.918 -0.0447 -1.6033  1.1184
  224MOL0     H30859   8.599   9.857   3.209 -2.4974  0.8717 -0.8300
  224MOL0     H30860   8.566   9.709   3.126  0.2462  0.2663  2.9751
  224MOL0     H30861   8.825   9.994   3.127 -1.4489 -0.1201  1.5720
  224MOL0     H30862   9.095   9.993   3.051  0.8467 -0.2527 -0.3539
  224MOL0     H30863   9.154   9.842   2.995  0.3217  4.1948 -2.2425
  224MOL0     H30864   9.099   9.900   3.284 -1.1504  0.0444 -0.5434
  224MOL0     H30865   9.178   9.751   3.217  1.0566  0.1757 -1.0279
  224MOL0     H30866   9.360   9.908   3.285  1.1241  3.6716  0.9291
  224MOL0     H30867   9.348   9.903   3.107  1.4329  1.2830  0.1615
  224MOL0     H30868   9.388  10.131   3.188  1.7003 -4.6232  0.3430
  224MOL0     H30869   9.235  10.121   3.116  2.9472 -0.2139 -1.9426
  224MOL0     H30870   9.121  10.303   3.519 -2.8501 -3.9814 -1.4590
  224MOL0     H30871   9.240  10.422   3.835  1.5920 -2.6427 -0.0117
  224MOL0     H30872   9.095  10.359   3.739 -1.5073  2.8664 -1.5214
  224MOL0     H30873   9.175  10.493   3.691  0.9693  1.6299  2.3499
  224MOL0     H30874   9.624  10.138   4.057  2.3386  0.6547  0.2352
  224MOL0     H30875   9.792  10.232   4.193 -0.8460 -0.9525  0.1470
  224MOL0     H30876   9.844  10.700   4.246 -0.0932 -1.5967 -1.1255
  224MOL0     H30877   9.711  10.634   4.333  0.1870  3.6002 -0.4817
  224MOL0     H30878   9.993  10.575   4.434  1.2701  0.8557  0.7775
  224MOL0     H30879   9.916  10.732   4.454 -0.7538  0.7290 -0.5184
  224MOL0     H30880   9.726  10.630   4.574  1.9249  2.9197  3.1766
  224MOL0     H30881   9.871  10.598   4.648 -1.1793  3.1254 -0.8272
  224MOL0     H30882   9.866  10.362   4.511  0.1961 -1.2087  1.3049
  224MOL0     H30883   9.689  10.381   4.528  0.2103 -1.8303  1.0132
  224MOL0     H30884   9.761  10.250   4.696  0.5734  0.5814 -1.8581
  224MOL0     H30885   9.925  10.316   4.692 -0.3831 -3.7221  1.6690
  224MOL0     H30886   9.841  10.495   4.853  1.9681  0.4878 -1.9376
  224MOL0     H30887   9.821  10.321   4.900 -0.2243  0.6547  0.5452
  224MOL0     H30888   9.587  10.482   4.785 -1.3203 -1.6822 -2.7837
  224MOL0     H30889   9.625  10.446   4.954 -2.1667 -0.3864  0.6237
  224MOL0     H30890   9.492  10.250   4.936 -1.0849 -0.2704 -0.7850
  224MOL0     H30891   9.632  10.189   4.855  1.1412  1.0929  3.4666
  224MOL0     H30892   9.643  10.622   4.141  3.5124 -0.9559  0.1889
  224MOL0     H30893   9.450  10.527   4.006 -0.2516 -1.2167 -2.4622
  224MOL0     H30894   9.559  10.104   3.599 -0.9823 -1.1907 -1.4980
  224MOL0     H30895   9.460  10.058   3.398  2.0226  0.7163  1.5714
  224MOL0     H30896   7.464   9.924   3.065  1.7450 -1.2241  2.3724
  224MOL0     H30897   7.261  10.019   3.178 -0.7099  0.5132  0.1958
  224MOL0     H30898   7.073  10.343   3.199 -1.2555  0.0999 -0.5981
  224MOL0     H30899   6.862  10.405   3.192 -0.8675  0.2791  0.2760
  224MOL0     H30900   6.568  10.438   3.254 -0.4874 -0.9919  0.5661
  224MOL0     H30901   6.577  10.297   3.347 -0.1851 -0.8646  0.1050
  224MOL0     H30902   6.361  10.408   3.391 -1.4091  1.1967 -0.0007
  224MOL0     H30903   6.467  10.540   3.472  0.8334  0.5155  2.9298
  224MOL0     H30904   6.493  10.249   3.569 -1.1795 -1.3676  1.6949
  224MOL0     H30905   6.514  10.398   3.654  3.0831 -2.4869 -0.0761
  224MOL0     H30906   6.338  10.250   3.722  0.6136 -0.9018 -0.5211
  224MOL0     H30907   6.251  10.281   3.575 -0.2183  1.8093 -0.3880
  224MOL0     H30908   6.158  10.629   3.801 -3.3122 -1.1569 -0.0540
  224MOL0     H30909   6.784  10.338   3.600 -2.4837  0.6306 -0.9299
  224MOL0     H30910   6.956  10.186   3.733  1.2313  0.0632  0.2688
  224MOL0     H30911   6.952  10.052   3.618 -2.0993  1.1996 -0.9878
  224MOL0     H30912   7.101  10.153   3.660 -0.9189  2.9672  1.9228
  225MOL0     O30913   1.380   5.124   8.484  0.2035 -0.9535 -1.3409
  225MOL0     C30914   1.481   5.056   8.488 -0.5384  0.2792  0.4981
  225MOL0     O30915   1.496   4.934   8.422 -0.4449 -0.0586 -0.2297
  225MOL0     C30916   1.628   4.884   8.408 -1.0668  0.3942  0.2223
  225MOL0     C30917   1.672   4.795   8.503 -0.5337  0.7428 -1.3923
  225MOL0     C30918   1.802   4.728   8.504 -0.2669 -0.0972 -0.0267
  225MOL0     C30919   1.892   4.767   8.402  0.3825 -1.2527  0.2893
  225MOL0     O30920   2.020   4.720   8.391 -0.0765  0.0732  0.6748
  225MOL0     C30921   2.070   4.618   8.472  0.2353 -0.6700 -0.1995
  225MOL0     C30922   2.210   4.577   8.421  0.6308 -0.7018  0.2748
  225MOL0     C30923   2.275   4.464   8.495  1.1669 -0.2897 -0.9874
  225MOL0     C30924   2.398   4.409   8.416 -0.3596  0.2895  0.2314
  225MOL0     C30925   2.453   4.284   8.480  0.2366  0.0164 -1.1936
  225MOL0     C30926   2.525   4.302   8.611 -0.1683 -0.1243 -0.6253
  225MOL0     C30927   2.614   4.186   8.642 -0.2146  0.2266 -0.4920
  225MOL0     C30928   2.541   4.098   8.741 -0.1714 -0.3324  0.9477
  225MOL0     N30929   2.605   3.965   8.763  0.9306  0.3539 -0.5710
  225MOL0     C30930   2.586   3.856   8.676  0.0600  0.0804 -1.3394
  225MOL0     C30931   2.675   3.764   8.709 -0.6391 -0.5640 -0.4741
  225MOL0     C30932   2.693   3.628   8.643  0.4420 -0.3317  0.2207
  225MOL0     C30933   2.716   3.526   8.748  0.1112  0.0559  0.4463
  225MOL0     C30934   2.667   3.386   8.710 -0.3635 -0.2362 -0.7930
  225MOL0     C30935   2.721   3.336   8.576 -0.0301  0.0784 -0.3897
  225MOL0     O30936   2.861   3.368   8.562 -0.0039 -0.0331  0.0394
  225MOL0     C30937   2.961   3.308   8.638  0.1139  0.4428 -0.5913
  225MOL0     C30938   2.949   3.182   8.687  0.4703 -0.2544 -0.7326
  225MOL0     C30939   3.060   3.111   8.744  0.0503 -1.1443  0.8102
  225MOL0     C30940   3.035   2.966   8.756 -0.2668  0.0657 -0.6558
  225MOL0     C30941   3.181   3.172   8.769  0.0236  0.0832  0.5735
  225MOL0     C30942   3.304   3.098   8.822  0.6390 -0.1722  0.9220
  225MOL0     O30943   3.421   3.161   8.800 -0.5111  0.2054  0.3229
  225MOL0     C30944   3.538   3.117   8.849 -0.1081  0.1724 -0.5981
  225MOL0     C30945   3.575   2.980   8.863  0.9553  0.3490 -0.3672
  225MOL0     C30946   3.685   2.942   8.939 -0.7872 -0.3863  0.6952
  225MOL0     C30947   3.777   3.047   8.978  0.7472 -0.4787  0.8480
  225MOL0     O30948   3.895   3.018   9.046  0.4886 -0.0894  1.1121
  225MOL0     C30949   3.927   2.875   9.079 -0.9998 -0.2471  0.2065
  225MOL0     C30950   4.038   2.879   9.180 -0.0531  1.0850  0.6722
  225MOL0     C30951   4.045   2.739   9.244 -1.0895 -0.2110  1.2069
  225MOL0     C30952   4.110   2.625   9.172  0.0469 -0.7213 -0.5041
  225MOL0     C30953   4.234   2.679   9.090  0.7528 -0.2383  0.4071
  225MOL0     C30954   4.327   2.566   9.035  0.2725 -1.0639  0.3113
  225MOL0     C30955   4.400   2.490   9.155  0.2040 -0.7126  0.0851
  225MOL0     C30956   4.445   2.352   9.112  0.2279 -0.1459  0.7541
  225MOL0    Cl30957   4.515   2.285   9.273 -0.1514  0.3163  0.6009
  225MOL0     C30958   3.752   3.184   8.950 -0.0781  0.5762  0.5864
  225MOL0     C30959   3.634   3.214   8.893  1.4329  0.2996 -0.7783
  225MOL0     O30960   3.293   2.994   8.886  0.2181 -0.2194  0.1722
  225MOL0     C30961   3.188   3.299   8.716 -0.5633 -0.3591 -0.0929
  225MOL0     C30962   3.086   3.364   8.649  1.3206  0.3323 -0.1916
  225MOL0     N30963   2.738   3.800   8.826 -0.3146 -0.1842 -0.2093
  225MOL0     N30964   2.690   3.916   8.856  0.2992  0.1611  0.3804
  225MOL0     C30965   1.840   4.844   8.293  0.4860  0.5552 -0.0252
  225MOL0     C30966   1.710   4.911   8.299  0.3813  0.5085  0.3549
  225MOL0     C30967   1.592   5.126   8.556  1.2323 -0.1455  1.4927
  225MOL0     C30968   1.638   5.089   8.690 -0.2107  0.1004  0.4834
  225MOL0     C30969   1.723   5.177   8.753 -0.5282  0.4626  0.0088
  225MOL0     C30970   1.784   5.282   8.683 -0.2919 -0.3097 -1.3908
  225MOL0     O30971   1.867   5.349   8.765 -0.4942 -1.0659  0.3644
  225MOL0     C30972   1.961   5.445   8.721  0.7144 -0.6178  0.6556
  225MOL0     C30973   2.072   5.404   8.631 -0.7105 -0.0085 -0.5838
  225MOL0     C30974   2.189   5.506   8.638 -0.3853 -0.2151  0.5480
  225MOL0     C30975   2.245   5.576   8.765  0.2796  0.1571 -0.7924
  225MOL0     C30976   2.299   5.476   8.857 -0.3800 -0.9813  1.4034
  225MOL0     C30977   2.343   5.379   8.914  0.0600  0.4365 -0.9529
  225MOL0     C30978   1.758   5.313   8.556 -0.2399  0.7853 -0.0352
  225MOL0     C30979   1.660   5.240   8.489 -0.3331 -0.1453  0.5760
  225MOL0     C30980   1.640   5.272   8.341 -0.4099 -0.5127  0.1029
  225MOL0     H30981   1.611   4.783   8.592 -0.7221  3.6204 -1.0327
  225MOL0     H30982   1.828   4.666   8.589 -1.2836  1.5077  1.5131
  225MOL0     H30983   2.001   4.533   8.479 -2.5569  1.6192  3.1454
  225MOL0     H30984   2.076   4.650   8.576  3.6442 -0.6679 -0.2905
  225MOL0     H30985   2.212   4.558   8.314  0.8678 -0.5677  0.2545
  225MOL0     H30986   2.285   4.655   8.437 -0.1648  0.8080 -2.8366
  225MOL0     H30987   2.317   4.506   8.586  0.8951 -1.7529 -0.1652
  225MOL0     H30988   2.196   4.396   8.529 -0.8270  3.7304  3.5876
  225MOL0     H30989   2.368   4.384   8.314 -1.5966 -2.3345  1.1470
  225MOL0     H30990   2.468   4.492   8.417  0.9994 -0.6779 -3.2126
  225MOL0     H30991   2.528   4.247   8.409  1.8759  0.2419  0.3355
  225MOL0     H30992   2.373   4.211   8.493  0.4381  0.2320  2.4972
  225MOL0     H30993   2.596   4.385   8.607  0.3919 -0.6166 -1.0650
  225MOL0     H30994   2.458   4.315   8.696  0.1582 -0.1648 -0.3575
  225MOL0     H30995   2.709   4.217   8.686 -0.9273  2.8835 -0.6500
  225MOL0     H30996   2.629   4.121   8.556 -0.6221 -1.3846  0.6151
  225MOL0     H30997   2.528   4.163   8.828  0.5004  0.5683  0.3844
  225MOL0     H30998   2.440   4.081   8.702 -0.4644  0.4857  1.3151
  225MOL0     H30999   2.521   3.857   8.588  1.8005  2.2356 -2.7022
  225MOL0     H31000   2.779   3.638   8.576 -0.7901 -0.7009 -1.4941
  225MOL0     H31001   2.611   3.608   8.574  1.2194 -1.3677 -0.4448
  225MOL0     H31002   2.820   3.525   8.779 -0.6484  0.2571  3.2177
  225MOL0     H31003   2.665   3.556   8.840  0.1022 -1.7832  1.0791
  225MOL0     H31004   2.713   3.326   8.790 -2.2288  4.0202  4.0318
  225MOL0     H31005   2.559   3.372   8.712 -0.4499 -0.1430  3.1219
  225MOL0     H31006   2.700   3.229   8.569 -1.6410  0.3035  0.3514
  225MOL0     H31007   2.668   3.384   8.494  2.9412 -1.6283 -3.5434
  225MOL0     H31008   2.851   3.137   8.691 -0.5234  1.8483  0.1799
  225MOL0     H31009   3.077   2.940   8.854 -2.5936  0.3214  0.4882
  225MOL0     H31010   3.083   2.916   8.671 -0.1927  0.1690 -0.6754
  225MOL0     H31011   2.929   2.942   8.763 -0.7570  2.0807 -0.6025
  225MOL0     H31012   3.517   2.905   8.812 -1.8902  2.7507 -0.9464
  225MOL0     H31013   3.709   2.837   8.956  3.1140 -0.3485 -2.8663
  225MOL0     H31014   3.837   2.823   9.113 -2.6555  2.2408 -0.1412
  225MOL0     H31015   3.968   2.827   8.990 -0.9511 -1.0489  0.6500
  225MOL0     H31016   4.131   2.908   9.130 -1.0117  0.9004 -1.2918
  225MOL0     H31017   4.012   2.940   9.267 -7.3841  0.7158 -0.6727
  225MOL0     H31018   3.947   2.713   9.284 -1.8549  0.6208 -0.0349
  225MOL0     H31019   4.101   2.763   9.334 -0.3196 -1.0512  0.9682
  225MOL0     H31020   4.039   2.562   9.118 -2.0903 -1.7107  3.1568
  225MOL0     H31021   4.148   2.552   9.243  2.1569  0.7318 -0.0359
  225MOL0     H31022   4.196   2.735   9.005  0.4900  0.1115  0.7530
  225MOL0     H31023   4.304   2.741   9.147  2.0774 -0.2151 -1.1771
  225MOL0     H31024   4.407   2.601   8.969  2.3927 -1.5400  2.4680
  225MOL0     H31025   4.265   2.495   8.980 -2.9280  0.8972  1.1535
  225MOL0     H31026   4.337   2.468   9.241  1.6429 -1.3018  1.0340
  225MOL0     H31027   4.484   2.542   9.202  0.8436 -4.0616  3.1010
  225MOL0     H31028   4.517   2.346   9.030 -1.5858  2.0954 -1.1471
  225MOL0     H31029   4.355   2.300   9.080 -0.5387  2.7610 -2.3710
  225MOL0     H31030   3.810   3.264   8.993 -0.1118  0.7429  0.3265
  225MOL0     H31031   3.617   3.319   8.874 -0.5456  0.6910  2.3515
  225MOL0     H31032   3.270   3.367   8.735 -2.2323  1.8399 -0.2225
  225MOL0     H31033   3.098   3.461   8.602 -3.1206  0.2503 -2.0234
  225MOL0     H31034   1.910   4.862   8.212  0.3521  1.7566  0.1046
  225MOL0     H31035   1.689   4.967   8.208 -0.2099  2.4269  1.6058
  225MOL0     H31036   1.606   4.999   8.742 -0.4391  0.1225  0.3792
  225MOL0     H31037   1.747   5.148   8.855  2.0140 -2.8609 -1.3767
  225MOL0     H31038   1.913   5.528   8.668  0.9282  0.6871  2.4128
  225MOL0     H31039   2.005   5.492   8.810 -1.2157  0.7938  0.9288
  225MOL0     H31040   2.039   5.389   8.528  3.5681 -1.2787 -2.0024
  225MOL0     H31041   2.103   5.304   8.660 -0.7220  0.0233 -0.4595
  225MOL0     H31042   2.274   5.450   8.598  0.2781  1.4001 -0.4374
  225MOL0     H31043   2.176   5.586   8.565  1.6493 -2.5044 -2.5734
  225MOL0     H31044   2.164   5.630   8.815 -0.3930 -0.8084 -0.8141
  225MOL0     H31045   2.328   5.648   8.756 -0.9122  1.6190 -0.5285
  225MOL0     H31046   2.380   5.309   8.985 -3.0011  0.3054  0.6899
  225MOL0     H31047   1.803   5.401   8.513 -1.1655  1.7889  0.9713
  225MOL0     H31048   1.696   5.360   8.307 -1.0653 -0.6120 -1.2949
  225MOL0     H31049   1.663   5.186   8.277 -0.5837 -0.9042  0.5631
  225MOL0     H31050   1.538   5.294   8.311 -0.4712  0.1286  0.7547
  226MOL0     O31051   5.984   7.512  10.052  0.3980  0.4674  0.1804
  226MOL0     C31052   6.092   7.500   9.987  0.2512  0.1868 -0.8237
  226MOL0     O31053   6.146   7.386   9.958 -0.9368 -0.9770  0.1025
  226MOL0     C31054   6.124   7.266  10.023 -1.0548 -0.1496  0.4736
  226MOL0     C31055   6.048   7.237  10.135 -0.0583  0.2822  0.1488
  226MOL0     C31056   6.026   7.100  10.170  0.0513  0.3933  0.6864
  226MOL0     C31057   6.080   6.990  10.110  0.6451 -0.3102 -0.5571
  226MOL0     O31058   6.042   6.854  10.142  0.4768  0.2902  0.4247
  226MOL0     C31059   6.126   6.750  10.075 -0.7364 -0.7589  0.1710
  226MOL0     C31060   6.104   6.617  10.144 -0.0078  0.2144 -0.1510
  226MOL0     C31061   5.964   6.566  10.098  0.2495  0.1359 -0.2992
  226MOL0     C31062   5.997   6.494   9.959  0.5644 -0.5123 -0.7237
  226MOL0     C31063   5.868   6.448   9.896 -0.1507 -0.1354 -0.5299
  226MOL0     C31064   5.918   6.399   9.754  0.4135  0.4786 -0.1697
  226MOL0     C31065   5.821   6.413   9.642  0.7589 -0.0635 -0.6505
  226MOL0     C31066   5.874   6.383   9.497  0.7296  0.4208 -0.4060
  226MOL0     N31067   5.980   6.474   9.449 -0.5955 -0.4055  0.1185
  226MOL0     C31068   6.116   6.476   9.487 -0.1119 -0.9931 -0.1798
  226MOL0     C31069   6.155   6.597   9.429 -0.4129  0.6791  0.2493
  226MOL0     C31070   6.289   6.679   9.421 -0.8035  0.1479  0.4643
  226MOL0     C31071   6.347   6.688   9.557 -0.2647 -0.0834 -1.5160
  226MOL0     C31072   6.258   6.757   9.665 -0.2233  1.0932 -0.4629
  226MOL0     C31073   6.214   6.899   9.638  0.2545  0.3448  0.5758
  226MOL0     O31074   6.318   6.987   9.574  0.0292 -0.0721  0.4116
  226MOL0     C31075   6.269   7.098   9.505 -0.3147  0.3222  0.1131
  226MOL0     C31076   6.261   7.223   9.563 -0.8659 -0.7588 -0.3249
  226MOL0     C31077   6.222   7.338   9.496  0.1861  0.0394 -0.1047
  226MOL0     C31078   6.201   7.462   9.590 -0.2691  0.3079 -0.1600
  226MOL0     C31079   6.186   7.325   9.361 -0.1760  0.3011 -0.1239
  226MOL0     C31080   6.136   7.443   9.290  0.0540 -0.0500  0.1765
  226MOL0     O31081   6.149   7.571   9.339  0.5281  0.0041  0.1407
  226MOL0     C31082   6.103   7.681   9.275  0.3221 -0.8505  0.2638
  226MOL0     C31083   5.967   7.691   9.232 -0.5089  0.7484  0.1023
  226MOL0     C31084   5.914   7.817   9.187 -0.1582  0.2467 -0.0197
  226MOL0     C31085   5.991   7.931   9.180 -0.5711  0.3088  0.1935
  226MOL0     O31086   5.938   8.050   9.135 -0.5069  0.4524  0.7095
  226MOL0     C31087   5.825   8.063   9.049 -0.1475 -0.5086 -0.0134
  226MOL0     C31088   5.790   8.204   8.996 -0.5454  0.1622 -0.2026
  226MOL0     C31089   5.914   8.287   8.957 -0.3215  0.6031 -1.3314
  226MOL0     C31090   5.878   8.437   8.948  0.0879  0.2472  0.2272
  226MOL0     C31091   5.976   8.503   8.850 -0.2437 -0.5086 -0.7658
  226MOL0     C31092   6.122   8.502   8.885  0.0874  0.3845 -1.1581
  226MOL0     C31093   6.227   8.537   8.774  0.0131 -0.8334 -0.4505
  226MOL0     C31094   6.237   8.411   8.691  0.1656  0.2974 -0.0762
  226MOL0    Cl31095   6.332   8.477   8.557 -0.2427 -0.0266 -0.3706
  226MOL0     C31096   6.122   7.907   9.234  0.1716 -0.5352 -0.2103
  226MOL0     C31097   6.181   7.793   9.278  0.1884 -0.3713 -0.0701
  226MOL0     O31098   6.065   7.418   9.194 -0.9334  0.1592 -0.0015
  226MOL0     C31099   6.186   7.196   9.292  0.5948  0.0022 -0.2628
  226MOL0     C31100   6.229   7.084   9.369  0.7877 -0.0654  0.4234
  226MOL0     N31101   6.048   6.649   9.367 -0.1384 -1.0914  0.3778
  226MOL0     N31102   5.946   6.578   9.384 -0.6439 -1.3217  0.5260
  226MOL0     C31103   6.171   7.030  10.005  0.0536 -0.3836 -0.0594
  226MOL0     C31104   6.193   7.158   9.964 -0.1758 -0.3200  0.7437
  226MOL0     C31105   6.160   7.614   9.937  0.2326  0.0878  0.9758
  226MOL0     C31106   6.302   7.604   9.909 -0.3516 -0.6701 -0.3031
  226MOL0     C31107   6.365   7.706   9.837 -0.0391  0.0785 -0.5717
  226MOL0     C31108   6.296   7.830   9.807 -0.7693 -0.2797 -0.9245
  226MOL0     O31109   6.355   7.929   9.743  0.1368 -0.6837 -0.0451
  226MOL0     C31110   6.330   7.897   9.595 -0.1781 -0.6628  0.6323
  226MOL0     C31111   6.345   8.025   9.507 -0.0580  0.2221 -0.4761
  226MOL0     C31112   6.290   8.143   9.592 -0.4551  0.6653  0.7762
  226MOL0     C31113   6.198   8.230   9.509 -0.2544 -0.0194  0.5692
  226MOL0     C31114   6.262   8.285   9.385 -0.0077 -0.0788  0.3197
  226MOL0     C31115   6.299   8.320   9.271  1.2065 -0.4289  0.2167
  226MOL0     C31116   6.159   7.842   9.836 -0.0324 -0.5504  0.5905
  226MOL0     C31117   6.094   7.735   9.896  0.3822 -0.0830 -0.5940
  226MOL0     C31118   5.953   7.769   9.930  0.3990  0.1748  0.4651
  226MOL0     H31119   5.998   7.317  10.188  0.0683  1.0171 -0.8032
  226MOL0     H31120   5.959   7.078  10.252 -0.8128 -2.0415 -0.5757
  226MOL0     H31121   6.231   6.776  10.096 -1.0070 -1.1597  2.3244
  226MOL0     H31122   6.089   6.753   9.973  1.8210 -3.0018 -0.9508
  226MOL0     H31123   6.179   6.540  10.127 -2.9721 -2.4076 -2.4540
  226MOL0     H31124   6.095   6.630  10.253 -3.2716  1.8926 -0.4792
  226MOL0     H31125   5.931   6.490  10.170  1.7151  1.3641  1.7795
  226MOL0     H31126   5.878   6.634  10.098 -0.5870 -0.8404  1.8134
  226MOL0     H31127   6.038   6.574   9.897  0.4347  0.1756  0.0695
  226MOL0     H31128   6.068   6.411   9.962  0.4859 -0.6942 -2.5624
  226MOL0     H31129   5.800   6.535   9.900 -2.7587 -2.0737  1.5661
  226MOL0     H31130   5.827   6.365   9.954 -0.3211 -0.5910 -1.3047
  226MOL0     H31131   5.996   6.468   9.722  0.5466  2.4785  3.8005
  226MOL0     H31132   5.956   6.297   9.748  2.3658  0.8946  2.8241
  226MOL0     H31133   5.799   6.520   9.645  1.1716  0.0116  0.5290
  226MOL0     H31134   5.732   6.355   9.668 -0.1848  1.5243 -0.1908
  226MOL0     H31135   5.914   6.281   9.504 -1.5614 -0.6363 -1.5129
  226MOL0     H31136   5.787   6.385   9.431 -0.6195 -0.5937  1.2578
  226MOL0     H31137   6.178   6.413   9.550 -0.8719 -0.6798  0.9211
  226MOL0     H31138   6.260   6.781   9.393 -1.8912 -0.7398 -1.9062
  226MOL0     H31139   6.364   6.623   9.365 -3.0589 -3.0645  0.4461
  226MOL0     H31140   6.361   6.582   9.582 -0.4540 -0.4594 -2.8844
  226MOL0     H31141   6.442   6.742   9.552 -1.5487  2.5892  0.6086
  226MOL0     H31142   6.174   6.695   9.697 -0.2136  0.3521 -1.8284
  226MOL0     H31143   6.317   6.767   9.756 -0.1463  2.2634 -0.6249
  226MOL0     H31144   6.123   6.896   9.578 -1.8187 -3.7891  3.4630
  226MOL0     H31145   6.170   6.945   9.728 -0.6820 -1.1176  0.8930
  226MOL0     H31146   6.300   7.234   9.663  0.2443  0.0899 -0.8281
  226MOL0     H31147   6.112   7.518   9.562 -0.7847 -0.8057 -0.8132
  226MOL0     H31148   6.290   7.526   9.583 -0.7250  1.6426  3.7650
  226MOL0     H31149   6.199   7.446   9.698  2.6051  1.2213  0.1361
  226MOL0     H31150   5.900   7.607   9.246 -1.5080  1.9857  3.8926
  226MOL0     H31151   5.806   7.817   9.183 -0.1318 -0.4334 -1.0905
  226MOL0     H31152   5.840   7.998   8.962  1.4971 -0.1216 -0.0581
  226MOL0     H31153   5.738   8.036   9.109  0.2994  0.4122  1.0853
  226MOL0     H31154   5.735   8.196   8.902  2.1950  0.8258 -1.9822
  226MOL0     H31155   5.731   8.257   9.072 -2.1212  3.1080 -3.1973
  226MOL0     H31156   5.949   8.252   8.860 -2.1626 -2.6163 -0.9696
  226MOL0     H31157   6.001   8.282   9.023  1.2663  2.9860 -3.0570
  226MOL0     H31158   5.877   8.496   9.040 -0.7804  1.2206 -0.3894
  226MOL0     H31159   5.785   8.456   8.894  0.1747  0.3819  0.1254
  226MOL0     H31160   5.963   8.447   8.757 -0.2092 -0.9389 -0.5148
  226MOL0     H31161   5.934   8.601   8.828 -2.3575 -1.1900 -0.0757
  226MOL0     H31162   6.159   8.410   8.932 -2.2947 -0.0182  0.0886
  226MOL0     H31163   6.124   8.570   8.971  0.0095 -0.5674 -0.3891
  226MOL0     H31164   6.325   8.557   8.818  1.0323 -0.5850 -2.6803
  226MOL0     H31165   6.200   8.622   8.711  0.7478  0.5510  1.0567
  226MOL0     H31166   6.139   8.373   8.661 -0.0795 -1.4550  2.5891
  226MOL0     H31167   6.286   8.325   8.739 -2.5432 -0.3453  1.7562
  226MOL0     H31168   6.165   8.006   9.231  1.9919 -1.2822 -0.4600
  226MOL0     H31169   6.286   7.792   9.305  1.2450  4.0637 -2.9293
  226MOL0     H31170   6.148   7.182   9.191  2.2386  0.5517 -0.9896
  226MOL0     H31171   6.220   6.984   9.326 -1.7745  1.5044 -3.2281
  226MOL0     H31172   6.228   6.954   9.952 -1.0967  0.3945 -2.6160
  226MOL0     H31173   6.267   7.172   9.886  0.9984  0.7586  1.9991
  226MOL0     H31174   6.361   7.515   9.927  2.6974  1.3759  0.6556
  226MOL0     H31175   6.473   7.700   9.822  0.3178 -1.8107  1.9447
  226MOL0     H31176   6.390   7.814   9.558 -2.8624 -2.6806  0.5297
  226MOL0     H31177   6.225   7.872   9.578 -0.0954  0.0158 -0.9875
  226MOL0     H31178   6.297   8.006   9.411 -0.1693  1.3279 -0.6472
  226MOL0     H31179   6.451   8.047   9.490  0.1232  0.9920  1.4188
  226MOL0     H31180   6.220   8.104   9.667  0.6062 -3.4609 -0.1462
  226MOL0     H31181   6.370   8.195   9.645 -0.9745 -1.0075  3.3974
  226MOL0     H31182   6.165   8.315   9.570 -2.1844 -0.9548  0.8913
  226MOL0     H31183   6.118   8.166   9.472  2.0633 -2.2196 -1.0685
  226MOL0     H31184   6.327   8.332   9.169  0.3865 -0.3988 -0.0123
  226MOL0     H31185   6.110   7.936   9.813 -0.6549 -1.4550 -2.2161
  226MOL0     H31186   5.926   7.872   9.907 -1.8069 -0.9889 -2.9603
  226MOL0     H31187   5.888   7.708   9.867 -0.6207  0.3783  1.2936
  226MOL0     H31188   5.925   7.751  10.035 -1.8201  3.9000  0.6801
  227MOL0     O31189  10.181   4.151   9.923 -0.9674  0.2260 -0.4486
  227MOL0     C31190  10.305   4.185   9.907 -0.4411  0.2653 -0.8091
  227MOL0     O31191  10.386   4.167   9.798  1.1594  0.7207 -0.3799
  227MOL0     C31192  10.345   4.075   9.711 -1.2458  0.2834 -0.7278
  227MOL0     C31193  10.348   3.941   9.743 -0.4298  0.7965  0.3270
  227MOL0     C31194  10.323   3.840   9.653  0.7373 -0.0768  0.6636
  227MOL0     C31195  10.270   3.879   9.524  1.0814  0.4627  0.5461
  227MOL0     O31196  10.237   3.790   9.424  0.0648 -0.4605 -0.4128
  227MOL0     C31197  10.130   3.702   9.472 -0.6752 -0.3631 -0.0049
  227MOL0     C31198  10.130   3.567   9.397 -0.6575  0.2276 -0.5398
  227MOL0     C31199   9.991   3.498   9.425 -0.1506 -0.1508 -0.7648
  227MOL0     C31200   9.958   3.431   9.562 -0.2728 -0.3477 -0.8755
  227MOL0     C31201   9.830   3.346   9.569  0.1084 -0.3577 -0.1101
  227MOL0     C31202   9.706   3.437   9.551 -0.6546  0.0774 -0.3120
  227MOL0     C31203   9.583   3.354   9.541  0.3532 -0.1876  0.5723
  227MOL0     C31204   9.547   3.287   9.671  0.2082  0.2153 -0.4029
  227MOL0     N31205   9.512   3.382   9.779  0.0481 -0.3250  0.3788
  227MOL0     C31206   9.386   3.432   9.794 -0.6248 -0.6490 -0.0639
  227MOL0     C31207   9.410   3.537   9.882  0.3320 -0.9121 -0.7281
  227MOL0     C31208   9.316   3.647   9.924 -0.2447  0.2367 -0.5409
  227MOL0     C31209   9.376   3.792   9.926 -0.0360  0.6370  0.0744
  227MOL0     C31210   9.262   3.893   9.940  0.9597  0.9246 -0.5905
  227MOL0     C31211   9.316   4.031   9.894  0.1120  0.4600  1.5834
  227MOL0     O31212   9.205   4.120   9.896 -0.7446  0.5766 -0.2513
  227MOL0     C31213   9.232   4.255   9.890 -0.3538 -1.6784 -0.0773
  227MOL0     C31214   9.129   4.347   9.895 -0.3877  0.1830  0.1873
  227MOL0     C31215   9.136   4.482   9.910 -0.1771 -0.6644  0.3820
  227MOL0     C31216   9.002   4.551   9.886  0.3096 -0.2111 -1.0486
  227MOL0     C31217   9.265   4.538   9.921  0.3872 -0.4079  0.4895
  227MOL0     C31218   9.291   4.680   9.969  0.5422 -0.3912  0.3376
  227MOL0     O31219   9.419   4.728   9.940  0.1406 -0.0679 -0.6149
  227MOL0     C31220   9.464   4.852   9.995 -0.1705  0.4734 -0.0653
  227MOL0     C31221   9.402   4.981   9.984 -0.1201 -0.1374  0.5809
  227MOL0     C31222   9.453   5.097  10.041 -0.2388  0.2165 -0.7737
  227MOL0     C31223   9.579   5.088  10.103 -0.9544 -0.3719 -0.3019
  227MOL0     O31224   9.652   5.191  10.163  0.2939 -0.4274  0.1730
  227MOL0     C31225   9.623   5.316  10.091 -0.2441 -0.1415 -0.1863
  227MOL0     C31226   9.725   5.429  10.140 -0.5680 -0.3956  0.3538
  227MOL0     C31227   9.671   5.492  10.269  0.0724 -0.8811 -0.4274
  227MOL0     C31228   9.757   5.608  10.324  0.7458 -0.9013 -0.3406
  227MOL0     C31229   9.882   5.569  10.400 -0.8112  0.3551 -0.3885
  227MOL0     C31230   9.948   5.694  10.447 -0.8327  0.0211  0.3950
  227MOL0     C31231  10.053   5.663  10.545 -0.0177  0.6812 -0.7600
  227MOL0     C31232  10.036   5.715  10.685  0.8078  0.3380 -0.7614
  227MOL0    Cl31233   9.916   5.623  10.784 -0.3050 -0.1021 -0.3258
  227MOL0     C31234   9.648   4.971  10.112  0.1774 -0.2970  0.6415
  227MOL0     C31235   9.591   4.851  10.059  0.5553 -0.1698 -0.0855
  227MOL0     O31236   9.206   4.736  10.029  0.6256 -0.1047  0.0599
  227MOL0     C31237   9.385   4.456   9.907  0.8791  1.0187  0.1859
  227MOL0     C31238   9.361   4.317   9.897 -0.5148 -0.2687 -0.4716
  227MOL0     N31239   9.543   3.536   9.924 -0.1914  0.5581  0.3833
  227MOL0     N31240   9.595   3.433   9.868  0.8126 -0.6424  0.7508
  227MOL0     C31241  10.261   4.009   9.494 -0.6776  0.0354 -0.4113
  227MOL0     C31242  10.309   4.107   9.583 -0.5092  0.8993 -0.3819
  227MOL0     C31243  10.357   4.254  10.033  0.0107  0.4984  0.5313
  227MOL0     C31244  10.302   4.223  10.160  0.0777  1.3271 -0.5425
  227MOL0     C31245  10.350   4.287  10.267 -0.4759  0.2371 -0.1391
  227MOL0     C31246  10.469   4.370  10.260  0.1146 -0.4543 -0.3768
  227MOL0     O31247  10.510   4.429  10.376 -0.0789  0.3391 -0.1192
  227MOL0     C31248  10.621   4.526  10.381 -0.7425  0.9086  1.2838
  227MOL0     C31249  10.593   4.668  10.346  0.1802  0.6546 -1.1573
  227MOL0     C31250  10.472   4.714  10.425  0.2445 -0.4872  0.0602
  227MOL0     C31251  10.512   4.782  10.557  0.3478 -0.7610 -0.5770
  227MOL0     C31252  10.540   4.681  10.663 -0.2485 -0.6856 -0.8747
  227MOL0     C31253  10.566   4.584  10.731  1.4791  0.7537  0.2761
  227MOL0     C31254  10.524   4.398  10.137  0.2155  0.0957 -0.7377
  227MOL0     C31255  10.465   4.345  10.018 -0.0345  0.4831 -0.6663
  227MOL0     C31256  10.523   4.384   9.893 -0.5643  0.3698 -1.1847
  227MOL0     H31257  10.383   3.924   9.844  0.0151  0.6125  0.1469
  227MOL0     H31258  10.339   3.738   9.687 -1.6319 -0.8809 -0.4200
  227MOL0     H31259  10.033   3.750   9.454 -2.3578 -2.5554  2.5450
  227MOL0     H31260  10.139   3.678   9.578 -1.6581  0.2317  0.2225
  227MOL0     H31261  10.156   3.588   9.293  1.2021 -0.4692 -0.2507
  227MOL0     H31262  10.210   3.498   9.424  2.1074  2.8631 -1.3714
  227MOL0     H31263   9.912   3.568   9.397 -1.3953 -1.3270 -0.3109
  227MOL0     H31264   9.987   3.407   9.364 -0.4421  0.3313 -1.4700
  227MOL0     H31265  10.040   3.367   9.596 -0.6349 -0.7232 -0.6971
  227MOL0     H31266   9.947   3.502   9.645 -1.4405 -0.6317 -0.7650
  227MOL0     H31267   9.832   3.296   9.666 -2.7248  1.6905  1.1510
  227MOL0     H31268   9.834   3.276   9.486 -4.9209  0.5552 -1.4389
  227MOL0     H31269   9.696   3.512   9.630  0.2530  2.3371 -2.2072
  227MOL0     H31270   9.705   3.487   9.454 -0.3332 -0.7489 -0.7503
  227MOL0     H31271   9.589   3.295   9.449 -1.4891  0.0525  0.2571
  227MOL0     H31272   9.506   3.428   9.514 -0.1137 -1.1058 -0.7291
  227MOL0     H31273   9.471   3.213   9.643  1.5331 -0.8491 -1.3613
  227MOL0     H31274   9.635   3.232   9.707  0.5385  1.3411  0.5327
  227MOL0     H31275   9.306   3.399   9.730  0.0733  0.6311 -1.6791
  227MOL0     H31276   9.270   3.620  10.020 -0.1374 -0.0073 -0.5587
  227MOL0     H31277   9.241   3.644   9.844  0.6713 -1.5747 -1.3697
  227MOL0     H31278   9.435   3.797  10.017  2.6585 -2.4283 -1.2922
  227MOL0     H31279   9.447   3.817   9.847 -0.7878 -3.5267 -2.1988
  227MOL0     H31280   9.179   3.860   9.877  1.8493  1.5143 -2.1062
  227MOL0     H31281   9.236   3.901  10.046  0.5461 -2.6246 -0.2959
  227MOL0     H31282   9.389   4.060   9.969  3.1597  1.9495 -1.6456
  227MOL0     H31283   9.372   4.024   9.800  0.9125 -1.5355  2.1748
  227MOL0     H31284   9.033   4.301   9.873 -0.5456  1.5835 -2.3188
  227MOL0     H31285   8.950   4.498   9.806 -0.0477 -0.9115 -0.3660
  227MOL0     H31286   9.025   4.652   9.849  0.5082  0.1905  0.1212
  227MOL0     H31287   8.942   4.558   9.977 -0.4019  3.6480 -1.6415
  227MOL0     H31288   9.305   4.968   9.935 -1.0182  0.6289  2.1073
  227MOL0     H31289   9.399   5.190  10.028  0.4804  0.8639  0.6576
  227MOL0     H31290   9.633   5.303   9.983  1.2463  1.3203 -0.2748
  227MOL0     H31291   9.523   5.359  10.104 -1.0374 -2.4642  2.3189
  227MOL0     H31292   9.827   5.391  10.137 -0.3407  0.2605 -0.7129
  227MOL0     H31293   9.710   5.506  10.064 -1.5677 -1.9944 -1.1683
  227MOL0     H31294   9.654   5.420  10.350  2.1251 -1.7305 -0.6897
  227MOL0     H31295   9.570   5.533  10.257 -0.3588 -0.7826  2.6414
  227MOL0     H31296   9.692   5.645  10.404 -1.2357 -1.2891 -1.7014
  227MOL0     H31297   9.779   5.677  10.242  0.1153  1.8260  1.6290
  227MOL0     H31298   9.842   5.498  10.473  2.5418 -1.8834 -0.4947
  227MOL0     H31299   9.955   5.517  10.338  0.5401  1.1966  0.4527
  227MOL0     H31300   9.866   5.756  10.484 -0.8744  1.1572 -1.4584
  227MOL0     H31301   9.994   5.750  10.364  0.1239 -1.9582 -0.4848
  227MOL0     H31302  10.146   5.699  10.499  0.5986 -1.5025 -1.3191
  227MOL0     H31303  10.073   5.559  10.572 -0.2030  0.2720 -2.1484
  227MOL0     H31304  10.006   5.820  10.680 -1.7997  0.1275  4.2683
  227MOL0     H31305  10.128   5.706  10.744 -1.3349 -1.1372  2.6020
  227MOL0     H31306   9.745   4.965  10.160  1.2928  1.8577 -1.1691
  227MOL0     H31307   9.633   4.752  10.071 -0.3977 -0.7237 -1.1895
  227MOL0     H31308   9.477   4.503   9.941  1.1632 -0.3977  1.4821
  227MOL0     H31309   9.454   4.262   9.902  0.9237  1.8710 -2.1673
  227MOL0     H31310  10.222   4.027   9.395  0.7994  0.8073 -0.8829
  227MOL0     H31311  10.285   4.211   9.565  0.1858  0.4896 -4.8814
  227MOL0     H31312  10.226   4.145  10.170  1.0595  0.6243  2.3722
  227MOL0     H31313  10.312   4.266  10.366  3.6480  0.3301  1.6805
  227MOL0     H31314  10.647   4.528  10.487  1.9974 -1.7063  0.8121
  227MOL0     H31315  10.705   4.488  10.322 -1.1848 -0.3328  1.4236
  227MOL0     H31316  10.572   4.683  10.239  0.2033  0.7011 -1.1546
  227MOL0     H31317  10.685   4.719  10.376  1.3005 -2.9919  2.2962
  227MOL0     H31318  10.417   4.783  10.362  2.1655  2.7196  1.6320
  227MOL0     H31319  10.399   4.634  10.443 -2.1770  1.6629  0.3653
  227MOL0     H31320  10.425   4.842  10.586  1.1319 -0.2261  0.7501
  227MOL0     H31321  10.587   4.860  10.543  0.9011 -0.8771  1.4784
  227MOL0     H31322  10.589   4.498  10.791  0.6431  2.0779  2.6178
  227MOL0     H31323  10.604   4.471  10.127 -0.5092  0.8093 -1.5269
  227MOL0     H31324  10.587   4.472   9.896  0.8022 -0.4510 -3.3897
  227MOL0     H31325  10.587   4.301   9.861 -2.7308 -1.3396 -1.3797
  227MOL0     H31326  10.440   4.404   9.823 -0.6823  2.0632 -0.6127
  228MOL0     O31327   3.338   9.960   7.673 -0.2008  0.1094 -1.0319
  228MOL0     C31328   3.348   9.864   7.601  0.5841  0.0107  0.9697
  228MOL0     O31329   3.456   9.842   7.513  0.8331 -0.0250 -0.2549
  228MOL0     C31330   3.581   9.898   7.521  0.3928 -0.2667  0.6188
  228MOL0     C31331   3.682   9.805   7.485  0.6441  0.0581 -0.8992
  228MOL0     C31332   3.815   9.848   7.501 -0.0442 -0.2134 -0.7687
  228MOL0     C31333   3.848   9.977   7.546 -1.0561 -0.3361  0.0474
  228MOL0     O31334   3.976  10.035   7.567  0.0846  0.4462  0.1157
  228MOL0     C31335   4.070  10.006   7.464  0.3657 -0.5064  0.0534
  228MOL0     C31336   4.063  10.109   7.346 -1.2084  1.2544  0.0333
  228MOL0     C31337   3.925  10.102   7.273 -1.3123  0.4186  1.3569
  228MOL0     C31338   3.950  10.131   7.120 -0.4879 -1.2331 -1.6588
  228MOL0     C31339   3.957  10.271   7.064 -0.5212 -0.2786  0.1793
  228MOL0     C31340   3.902  10.390   7.147  0.3323 -0.5341 -0.1530
  228MOL0     C31341   3.925  10.533   7.091  0.2018 -0.0023 -0.3279
  228MOL0     C31342   3.870  10.641   7.199 -0.1585 -0.4631  0.2646
  228MOL0     N31343   3.933  10.775   7.181 -0.6743 -0.2991 -0.9765
  228MOL0     C31344   3.979  10.828   7.064 -0.1382  0.2375  0.2861
  228MOL0     C31345   4.044  10.943   7.104  0.4623 -1.5118  0.1442
  228MOL0     C31346   4.105  11.048   7.010  0.1276 -0.1990 -0.1231
  228MOL0     C31347   4.028  11.179   7.047  1.0301  0.0713  0.1461
  228MOL0     C31348   4.086  11.293   6.956  0.8547 -0.1547 -0.4028
  228MOL0     C31349   4.026  11.424   6.992 -0.2664 -0.2492 -0.5025
  228MOL0     O31350   4.023  11.459   7.132 -0.1306 -0.1257 -0.0134
  228MOL0     C31351   3.913  11.427   7.211  0.3605  0.3119 -0.7187
  228MOL0     C31352   3.925  11.419   7.351 -0.0301  0.3454  0.2402
  228MOL0     C31353   3.824  11.363   7.435 -0.1345 -0.8415 -0.0228
  228MOL0     C31354   3.864  11.357   7.574 -0.4078 -0.6530 -0.3423
  228MOL0     C31355   3.701  11.323   7.378  0.9925 -0.4947 -0.4666
  228MOL0     C31356   3.579  11.273   7.451 -0.7660  0.9014 -0.4343
  228MOL0     O31357   3.591  11.256   7.583  0.6538  0.3528 -0.1841
  228MOL0     C31358   3.477  11.222   7.661  0.0974 -1.1087  0.1106
  228MOL0     C31359   3.439  11.324   7.756 -0.2408 -0.3161 -0.7214
  228MOL0     C31360   3.324  11.302   7.835  0.1833 -0.8793 -0.2561
  228MOL0     C31361   3.248  11.188   7.816  0.0296 -0.4178  0.5922
  228MOL0     O31362   3.129  11.168   7.891 -0.3382  0.3692  0.9174
  228MOL0     C31363   3.144  11.220   8.027  0.7361  0.7506  0.8278
  228MOL0     C31364   3.046  11.133   8.114  0.4204  0.2581 -0.8216
  228MOL0     C31365   2.935  11.216   8.188  0.0755  0.4784  0.2852
  228MOL0     C31366   2.850  11.129   8.287  0.1245 -0.2430  0.1060
  228MOL0     C31367   2.753  11.220   8.368 -0.7458  0.1628 -0.1251
  228MOL0     C31368   2.653  11.133   8.447  0.1285  0.0934 -0.2894
  228MOL0     C31369   2.580  11.232   8.550 -0.6373 -0.0244 -0.0639
  228MOL0     C31370   2.527  11.154   8.666  1.0571  0.5031  0.9563
  228MOL0    Cl31371   2.404  11.044   8.608 -0.5915  0.0197  0.1946
  228MOL0     C31372   3.264  11.103   7.709 -1.5631  0.6274  0.2838
  228MOL0     C31373   3.390  11.111   7.638 -0.2060  0.0946  0.7942
  228MOL0     O31374   3.473  11.252   7.390  0.1482  0.0613 -0.6495
  228MOL0     C31375   3.685  11.342   7.243 -0.5451  0.7312  0.6357
  228MOL0     C31376   3.789  11.390   7.158 -1.4719 -0.9478 -0.5244
  228MOL0     N31377   4.050  10.957   7.233  0.5980 -0.3318 -1.6978
  228MOL0     N31378   3.973  10.858   7.280  1.0602 -0.4815 -0.2759
  228MOL0     C31379   3.736  10.059   7.568  0.6070  0.1679 -0.9826
  228MOL0     C31380   3.605  10.026   7.565 -0.7203 -0.3816  0.1642
  228MOL0     C31381   3.260   9.745   7.613 -0.0838 -0.1623  0.6425
  228MOL0     C31382   3.307   9.633   7.680 -0.7318 -1.0674  0.3390
  228MOL0     C31383   3.215   9.535   7.721 -0.5479 -0.3202  0.9301
  228MOL0     C31384   3.081   9.542   7.691  0.1895 -0.6568 -0.5988
  228MOL0     O31385   3.014   9.431   7.742  0.9609 -0.1592 -0.0299
  228MOL0     C31386   2.903   9.384   7.674  0.5939 -0.0129  1.4852
  228MOL0     C31387   2.763   9.413   7.756 -0.4502  0.1054 -1.0550
  228MOL0     C31388   2.762   9.324   7.884  0.2887  0.3143  0.2255
  228MOL0     C31389   2.658   9.359   7.983 -0.1170  0.6621 -0.0600
  228MOL0     C31390   2.538   9.285   7.948  1.7145  0.0646  0.0573
  228MOL0     C31391   2.426   9.227   7.929  0.6465  0.3101 -1.0306
  228MOL0     C31392   3.026   9.654   7.629  0.1274 -0.9714 -1.1968
  228MOL0     C31393   3.119   9.754   7.585  0.2263 -0.1432 -0.2849
  228MOL0     C31394   3.064   9.871   7.509  0.7397  0.2466  0.1041
  228MOL0     H31395   3.667   9.706   7.442  3.6334 -1.3514  0.9900
  228MOL0     H31396   3.891   9.773   7.484  2.6243  2.1176  0.2448
  228MOL0     H31397   4.042   9.904   7.435  1.1775 -0.7486  0.1193
  228MOL0     H31398   4.168  10.001   7.512  0.0708 -2.7937  0.5249
  228MOL0     H31399   4.073  10.212   7.384 -2.1999  0.5431  2.3834
  228MOL0     H31400   4.149  10.089   7.282 -2.0225  2.3363 -1.4726
  228MOL0     H31401   3.880  10.003   7.284 -0.6174  0.2417  2.8697
  228MOL0     H31402   3.856  10.178   7.312 -1.0552  2.6960 -2.2078
  228MOL0     H31403   4.033  10.073   7.080 -0.2494 -1.7275 -0.4686
  228MOL0     H31404   3.867  10.084   7.065 -0.8275 -0.0945 -2.1548
  228MOL0     H31405   3.921  10.281   6.961 -1.5430  2.1792  0.7087
  228MOL0     H31406   4.064  10.294   7.053 -0.1894 -0.9724  1.6110
  228MOL0     H31407   3.793  10.381   7.144  0.0371  2.2448 -1.9479
  228MOL0     H31408   3.946  10.382   7.247  2.0050 -3.9595 -1.0127
  228MOL0     H31409   3.881  10.546   6.992 -0.6012 -2.3340 -0.3411
  228MOL0     H31410   4.030  10.560   7.075  0.5333 -2.5732 -3.7177
  228MOL0     H31411   3.763  10.659   7.190  0.3184  2.4584 -0.4639
  228MOL0     H31412   3.896  10.611   7.301 -1.0773 -1.9330  0.1051
  228MOL0     H31413   3.967  10.782   6.967  0.5824 -2.1724  1.2655
  228MOL0     H31414   4.087  11.011   6.909 -4.2398 -2.5990  1.2809
  228MOL0     H31415   4.211  11.057   7.036 -0.5024  0.6355  2.5104
  228MOL0     H31416   3.922  11.156   7.032  1.2353 -1.4805  0.8584
  228MOL0     H31417   4.048  11.197   7.153 -0.3585 -1.1832  0.6527
  228MOL0     H31418   4.195  11.284   6.955  0.8494 -1.9407  2.3486
  228MOL0     H31419   4.061  11.270   6.852  2.2042  3.0741 -1.5734
  228MOL0     H31420   4.090  11.502   6.949  0.7842 -2.1347 -2.5841
  228MOL0     H31421   3.927  11.421   6.946 -0.9791  0.4465  0.9395
  228MOL0     H31422   4.021  11.448   7.394 -0.1789  1.0537  0.1058
  228MOL0     H31423   3.964  11.396   7.595 -0.7038  0.0673 -0.2268
  228MOL0     H31424   3.855  11.255   7.612 -5.1986  0.4831  2.4713
  228MOL0     H31425   3.796  11.412   7.640 -0.4283 -2.5571  1.3603
  228MOL0     H31426   3.505  11.409   7.770  0.2788 -0.8050 -0.1345
  228MOL0     H31427   3.297  11.372   7.914  2.8192  0.3511 -0.3396
  228MOL0     H31428   3.242  11.211   8.073  0.2525 -1.0934  1.5806
  228MOL0     H31429   3.108  11.324   8.030 -1.2168  0.2062 -0.9406
  228MOL0     H31430   3.000  11.043   8.070 -0.4863 -1.4880  3.2603
  228MOL0     H31431   3.112  11.100   8.194  1.9060  0.8491 -1.7694
  228MOL0     H31432   2.869  11.259   8.112 -1.1524  0.0353  1.0524
  228MOL0     H31433   2.974  11.300   8.245  0.1332 -0.1311  1.1763
  228MOL0     H31434   2.914  11.088   8.365  0.9446 -0.6006 -0.7457
  228MOL0     H31435   2.788  11.051   8.242 -0.1565 -2.0480  3.3168
  228MOL0     H31436   2.820  11.289   8.421 -0.1539  0.1130 -0.7841
  228MOL0     H31437   2.700  11.283   8.297  0.8757  1.6932 -0.0635
  228MOL0     H31438   2.698  11.050   8.502 -0.6163  0.1299  0.3851
  228MOL0     H31439   2.577  11.092   8.380 -1.3539  0.3008  1.2136
  228MOL0     H31440   2.504  11.285   8.493 -0.6593 -0.1186 -0.1229
  228MOL0     H31441   2.649  11.309   8.585 -0.6086  0.8341 -1.8783
  228MOL0     H31442   2.485  11.222   8.741  0.6318  1.6373 -0.2793
  228MOL0     H31443   2.619  11.104   8.696  0.4674 -0.5916  0.9913
  228MOL0     H31444   3.209  11.011   7.689 -0.0899 -0.5420  1.4129
  228MOL0     H31445   3.412  11.036   7.562 -0.7820  0.1287  0.5900
  228MOL0     H31446   3.590  11.325   7.194 -1.4398  3.0180  1.4494
  228MOL0     H31447   3.768  11.393   7.052  0.5509 -0.5070 -0.9537
  228MOL0     H31448   3.745  10.161   7.603 -0.6207 -0.3688  1.0411
  228MOL0     H31449   3.527  10.099   7.585  0.9663  1.4159  0.4964
  228MOL0     H31450   3.410   9.640   7.712  0.0447 -1.4193 -1.9607
  228MOL0     H31451   3.248   9.449   7.779 -0.8585 -0.9962  0.1361
  228MOL0     H31452   2.899   9.419   7.570  1.9454 -1.7389  0.7999
  228MOL0     H31453   2.914   9.276   7.669  1.4481  0.0680  1.4777
  228MOL0     H31454   2.685   9.381   7.686 -0.2172  0.0231 -1.2786
  228MOL0     H31455   2.757   9.519   7.781  2.9893 -0.0326  0.9782
  228MOL0     H31456   2.747   9.221   7.851 -0.7508  1.4896 -3.4826
  228MOL0     H31457   2.857   9.327   7.938  0.3918 -1.9763  0.2761
  228MOL0     H31458   2.636   9.465   7.999  0.6767  0.7929  0.1872
  228MOL0     H31459   2.698   9.327   8.079  0.2939 -0.4739 -0.5963
  228MOL0     H31460   2.340   9.164   7.918  0.5526  0.0728  0.8701
  228MOL0     H31461   2.922   9.650   7.601  0.8147 -0.3851 -4.1360
  228MOL0     H31462   2.962   9.870   7.470  0.9707  0.9229 -0.5507
  228MOL0     H31463   3.069   9.970   7.556  3.2547  0.7947 -1.1817
  228MOL0     H31464   3.122   9.870   7.417  2.0306  0.7648  0.8868
  229MOL0     O31465  10.447   0.245   8.366  0.2032  0.5332 -0.3514
  229MOL0     C31466  10.366   0.266   8.457 -0.5482 -0.0427  0.8219
  229MOL0     O31467  10.238   0.229   8.454 -0.1949 -0.6867  0.2710
  229MOL0     C31468  10.194   0.137   8.360 -0.3253 -0.4726 -0.8008
  229MOL0     C31469  10.086   0.178   8.286  0.0937  0.8308 -0.6218
  229MOL0     C31470  10.036   0.084   8.196  0.3934  1.2144  0.5598
  229MOL0     C31471  10.096  -0.037   8.165 -0.6791  0.3244  0.8242
  229MOL0     O31472  10.044  -0.112   8.057 -0.2756 -0.4413 -0.3898
  229MOL0     C31473   9.954  -0.211   8.111 -0.1309 -0.2918  0.5603
  229MOL0     C31474   9.814  -0.168   8.126  0.1722  0.2325 -0.3051
  229MOL0     C31475   9.720  -0.278   8.175 -0.3524 -0.1581 -0.2005
  229MOL0     C31476   9.676  -0.239   8.315  0.2367 -0.4640 -0.1639
  229MOL0     C31477   9.585  -0.346   8.387  0.4505  0.4918 -0.3357
  229MOL0     C31478   9.632  -0.486   8.365 -0.1120 -0.2474 -0.2837
  229MOL0     C31479   9.574  -0.572   8.475 -0.5112  0.7449  0.1855
  229MOL0     C31480   9.571  -0.724   8.446 -0.3128  0.1547 -0.4883
  229MOL0     N31481   9.713  -0.776   8.416  0.1148  0.5648  0.7496
  229MOL0     C31482   9.809  -0.813   8.508  0.6763 -0.1635  0.0710
  229MOL0     C31483   9.920  -0.844   8.443 -0.3986  0.0549  0.2380
  229MOL0     C31484  10.046  -0.888   8.513 -0.8724  0.3040 -0.2211
  229MOL0     C31485  10.176  -0.814   8.478  0.3056 -0.1434  0.7321
  229MOL0     C31486  10.304  -0.882   8.522 -0.6434 -0.2794  0.8776
  229MOL0     C31487  10.334  -0.843   8.668 -0.7663  0.0566  0.1477
  229MOL0     O31488  10.460  -0.883   8.726  0.3620 -0.2692 -0.0661
  229MOL0     C31489  10.486  -1.009   8.737  0.7826 -0.0249 -0.7123
  229MOL0     C31490  10.609  -1.054   8.691  0.2735  0.9677  0.4011
  229MOL0     C31491  10.648  -1.194   8.674 -0.2270 -1.0017  1.0029
  229MOL0     C31492  10.784  -1.227   8.618 -0.3031  0.3875 -0.4997
  229MOL0     C31493  10.554  -1.297   8.725  0.3668  0.2218 -0.1651
  229MOL0     C31494  10.568  -1.438   8.729  0.0456  0.7881  0.1790
  229MOL0     O31495  10.531  -1.501   8.848  0.7758  0.6217  0.6676
  229MOL0     C31496  10.564  -1.637   8.850 -0.6184 -1.3890  0.5588
  229MOL0     C31497  10.535  -1.731   8.754 -0.0825 -0.3633 -0.3105
  229MOL0     C31498  10.571  -1.859   8.774  0.0091  0.9706  0.5513
  229MOL0     C31499  10.632  -1.907   8.889  0.2559  0.8003 -1.0335
  229MOL0     O31500  10.665  -2.038   8.903 -0.3464 -0.5859 -0.1078
  229MOL0     C31501  10.547  -2.110   8.952  0.1298 -0.0630  0.0658
  229MOL0     C31502  10.556  -2.254   8.885  0.2938 -0.3860 -0.0512
  229MOL0     C31503  10.554  -2.251   8.730 -0.0513  0.6780 -1.1815
  229MOL0     C31504  10.560  -2.404   8.662 -1.3000 -0.5943  0.2065
  229MOL0     C31505  10.634  -2.403   8.530  0.6262  0.4860 -0.1839
  229MOL0     C31506  10.548  -2.328   8.430  0.2567  0.6812 -0.0249
  229MOL0     C31507  10.424  -2.412   8.384 -0.1252  0.2245  0.0410
  229MOL0     C31508  10.287  -2.328   8.382 -0.8812 -0.3845  0.7340
  229MOL0    Cl31509  10.152  -2.449   8.397  0.3874 -0.1218  0.1099
  229MOL0     C31510  10.660  -1.809   8.985 -0.1058 -0.7048  0.3673
  229MOL0     C31511  10.625  -1.682   8.971  0.5940 -0.7165  0.0148
  229MOL0     O31512  10.630  -1.486   8.636 -0.0495  0.4897  0.3787
  229MOL0     C31513  10.431  -1.250   8.782  0.5539 -0.2306 -0.5548
  229MOL0     C31514  10.409  -1.113   8.790 -0.3778 -0.3113 -0.7212
  229MOL0     N31515   9.903  -0.815   8.308 -0.2280 -0.3973  0.2769
  229MOL0     N31516   9.780  -0.766   8.296 -0.0771  0.4525  0.2151
  229MOL0     C31517  10.212  -0.070   8.229  0.4725 -0.1808  0.3662
  229MOL0     C31518  10.254   0.014   8.332 -0.5306 -0.4215  0.2747
  229MOL0     C31519  10.409   0.344   8.584  0.4219  0.7909 -0.2480
  229MOL0     C31520  10.335   0.318   8.705 -0.5149 -0.0121 -0.0107
  229MOL0     C31521  10.363   0.390   8.825  0.8690 -0.8899 -0.4041
  229MOL0     C31522  10.459   0.488   8.836  0.2679 -0.4979 -0.0396
  229MOL0     O31523  10.467   0.549   8.959 -0.4993  0.4082  0.4239
  229MOL0     C31524  10.575   0.639   8.973 -0.2994  1.3891  0.0302
  229MOL0     C31525  10.589   0.704   9.104 -1.0336  0.7836 -0.5659
  229MOL0     C31526  10.519   0.843   9.109 -1.1437 -0.1421  0.0514
  229MOL0     C31527  10.508   0.890   9.256 -0.1978 -0.2258 -0.6073
  229MOL0     C31528  10.630   0.956   9.305 -0.2394 -0.4170 -0.0120
  229MOL0     C31529  10.732   0.987   9.358  0.6188 -0.1150  0.8826
  229MOL0     C31530  10.530   0.513   8.712  0.0915 -1.3028  0.7203
  229MOL0     C31531  10.515   0.438   8.597 -0.8018  0.3916 -0.0141
  229MOL0     C31532  10.611   0.473   8.478  1.6191 -0.0914 -1.1275
  229MOL0     H31533  10.045   0.278   8.298 -2.1022  0.2959 -2.8009
  229MOL0     H31534   9.940   0.109   8.153  0.0093 -1.4754 -0.2866
  229MOL0     H31535   9.995  -0.243   8.207 -1.5578  1.0303  1.6612
  229MOL0     H31536   9.956  -0.302   8.050 -2.9496  0.3643 -0.6816
  229MOL0     H31537   9.820  -0.074   8.182  4.3725  0.1488 -0.3006
  229MOL0     H31538   9.784  -0.140   8.024 -1.9049 -0.7479 -0.0135
  229MOL0     H31539   9.633  -0.283   8.109 -2.8402 -0.1994  2.8245
  229MOL0     H31540   9.767  -0.377   8.169 -0.4130 -0.6071  3.7445
  229MOL0     H31541   9.753  -0.210   8.388 -2.8944  3.3734  2.0114
  229MOL0     H31542   9.610  -0.151   8.315 -0.4032 -0.8927  1.7765
  229MOL0     H31543   9.480  -0.340   8.358  0.5334  0.2868 -0.6865
  229MOL0     H31544   9.575  -0.333   8.495 -1.9214 -1.9162 -0.1607
  229MOL0     H31545   9.610  -0.522   8.264  1.5530  0.5643 -0.9714
  229MOL0     H31546   9.741  -0.493   8.361 -0.2137 -1.9039 -1.2598
  229MOL0     H31547   9.477  -0.529   8.502 -0.5502  1.4564 -1.0265
  229MOL0     H31548   9.635  -0.544   8.562  0.8863  1.3149 -0.9254
  229MOL0     H31549   9.536  -0.777   8.534 -1.0712  0.2881 -0.7001
  229MOL0     H31550   9.495  -0.749   8.371 -1.7332  1.4395  0.4550
  229MOL0     H31551   9.793  -0.809   8.615  0.6084  1.0313  0.0218
  229MOL0     H31552  10.069  -0.988   8.477 -0.6325  0.5562 -0.7846
  229MOL0     H31553  10.020  -0.890   8.619  0.9517  1.5946  0.2959
  229MOL0     H31554  10.167  -0.808   8.369  2.5761 -1.7748  0.3805
  229MOL0     H31555  10.176  -0.714   8.521  1.6800  0.3203 -0.2836
  229MOL0     H31556  10.304  -0.991   8.515  1.6459 -0.2489 -0.7164
  229MOL0     H31557  10.389  -0.851   8.460 -0.9425 -3.3026 -1.2957
  229MOL0     H31558  10.345  -0.736   8.687  1.8755 -0.4074  1.7209
  229MOL0     H31559  10.263  -0.884   8.741  1.7908 -1.7720  1.7959
  229MOL0     H31560  10.679  -0.989   8.640  0.9933 -0.3950 -0.4052
  229MOL0     H31561  10.776  -1.255   8.513 -2.5863  3.2101 -1.1942
  229MOL0     H31562  10.831  -1.298   8.686 -0.8079  1.0954  0.6233
  229MOL0     H31563  10.849  -1.138   8.619 -0.7526  0.8454 -3.5246
  229MOL0     H31564  10.471  -1.705   8.670 -1.7121  1.5543  1.4157
  229MOL0     H31565  10.550  -1.932   8.696  4.6135  1.9989 -1.9480
  229MOL0     H31566  10.548  -2.126   9.060  1.9247 -4.0525 -0.3493
  229MOL0     H31567  10.454  -2.066   8.916 -0.3823 -0.9698  0.2494
  229MOL0     H31568  10.652  -2.296   8.916  0.3820  0.5853  1.0904
  229MOL0     H31569  10.474  -2.319   8.916 -0.3826  0.0231 -0.9477
  229MOL0     H31570  10.642  -2.191   8.705  0.1192  0.5713 -0.8492
  229MOL0     H31571  10.465  -2.196   8.700 -1.3515 -0.0397  1.1354
  229MOL0     H31572  10.457  -2.437   8.648 -1.5062  0.9497 -2.7625
  229MOL0     H31573  10.609  -2.470   8.734  1.0274  0.5446 -0.2261
  229MOL0     H31574  10.734  -2.358   8.532  0.6057  0.5085  1.1187
  229MOL0     H31575  10.641  -2.510   8.509 -0.6537 -0.6415  4.0799
  229MOL0     H31576  10.608  -2.310   8.340 -1.5832  1.7251 -1.0993
  229MOL0     H31577  10.524  -2.237   8.486  2.3633 -1.1347  4.3007
  229MOL0     H31578  10.404  -2.503   8.441 -2.3897 -0.7992 -2.2354
  229MOL0     H31579  10.450  -2.459   8.289 -1.3104  1.9034 -1.1848
  229MOL0     H31580  10.295  -2.263   8.295 -0.3866  1.0080  1.7850
  229MOL0     H31581  10.274  -2.264   8.469 -2.8940  0.4465 -0.1288
  229MOL0     H31582  10.710  -1.827   9.080 -1.2046  0.1164  1.1346
  229MOL0     H31583  10.655  -1.620   9.054 -0.1721  0.0071 -0.2455
  229MOL0     H31584  10.354  -1.321   8.810  1.5968 -1.1472  0.0520
  229MOL0     H31585  10.305  -1.093   8.817 -0.0634  3.5614 -1.7905
  229MOL0     H31586  10.254  -0.170   8.234 -0.2947 -0.4961  0.7578
  229MOL0     H31587  10.347  -0.015   8.381 -0.3268 -2.1069 -1.0325
  229MOL0     H31588  10.252   0.248   8.700  0.1261 -0.8635  0.7595
  229MOL0     H31589  10.302   0.368   8.912  1.2047  1.0458  0.3659
  229MOL0     H31590  10.670   0.588   8.957 -0.0302  1.2903  1.7300
  229MOL0     H31591  10.574   0.714   8.893  2.8408 -0.0055 -1.4632
  229MOL0     H31592  10.692   0.741   9.106 -1.1880  1.2769 -1.5162
  229MOL0     H31593  10.583   0.643   9.195  2.7298  2.9728  1.4077
  229MOL0     H31594  10.581   0.912   9.051  0.6377 -1.1562  0.6582
  229MOL0     H31595  10.419   0.823   9.070 -2.5470 -1.4877  3.7892
  229MOL0     H31596  10.490   0.801   9.318  3.9146 -1.9851 -1.5633
  229MOL0     H31597  10.419   0.949   9.277 -0.8846 -1.9643  1.8057
  229MOL0     H31598  10.817   1.028   9.410  0.8721  2.4345 -1.3195
  229MOL0     H31599  10.596   0.598   8.697 -0.4103 -0.8522  1.0240
  229MOL0     H31600  10.672   0.387   8.450  2.5402 -0.1679  0.8779
  229MOL0     H31601  10.547   0.513   8.399  1.5125  0.7641 -0.6214
  229MOL0     H31602  10.677   0.553   8.511  0.2673  0.3369  0.7049
  230MOL0     O31603   7.013   8.819   5.191 -0.1005  0.1929  0.6875
  230MOL0     C31604   7.050   8.769   5.298  0.2025  0.3143  0.1188
  230MOL0     O31605   7.173   8.782   5.347  0.0295 -0.2483 -0.5977
  230MOL0     C31606   7.274   8.849   5.289 -0.8167  0.6377 -0.7362
  230MOL0     C31607   7.291   8.919   5.171 -0.2675 -1.0446 -0.3833
  230MOL0     C31608   7.403   8.997   5.140  1.4955 -0.0521 -0.2513
  230MOL0     C31609   7.511   8.998   5.233  1.1481 -0.7374  0.4801
  230MOL0     O31610   7.624   9.078   5.221 -0.1724  0.0403 -0.1374
  230MOL0     C31611   7.650   9.134   5.089  0.2870 -0.0881  0.5376
  230MOL0     C31612   7.788   9.164   5.057  0.2043 -0.4751 -0.9807
  230MOL0     C31613   7.843   9.254   5.176 -0.3568 -0.1704  0.1884
  230MOL0     C31614   7.958   9.347   5.140 -0.2929 -0.0397 -0.2262
  230MOL0     C31615   8.021   9.442   5.247  0.5069  1.0782  0.8975
  230MOL0     C31616   8.075   9.379   5.377 -0.6787  0.5913 -0.5083
  230MOL0     C31617   8.162   9.474   5.451 -0.0078  0.2277 -0.4056
  230MOL0     C31618   8.194   9.422   5.594 -0.4258  0.0088 -0.4153
  230MOL0     N31619   8.267   9.527   5.660  0.7171  0.5187 -0.4138
  230MOL0     C31620   8.396   9.547   5.666  0.5888 -0.5071  0.5787
  230MOL0     C31621   8.413   9.653   5.746  0.1620 -0.1954 -1.2397
  230MOL0     C31622   8.535   9.725   5.792 -0.3856 -0.1964  0.1796
  230MOL0     C31623   8.627   9.776   5.673  0.6203 -0.5143 -0.0360
  230MOL0     C31624   8.562   9.873   5.573  0.4539  0.5159 -0.0017
  230MOL0     C31625   8.645   9.887   5.449 -0.3372 -0.3087 -0.2815
  230MOL0     O31626   8.764   9.962   5.490 -0.6454 -0.7193  0.3895
  230MOL0     C31627   8.834  10.042   5.395  0.8573  0.2524 -0.6951
  230MOL0     C31628   8.769  10.137   5.309  0.5676  0.0673 -0.6444
  230MOL0     C31629   8.838  10.218   5.221 -0.3493 -0.3673  0.5419
  230MOL0     C31630   8.743  10.313   5.148 -1.5160  0.0611 -0.7974
  230MOL0     C31631   8.976  10.197   5.201 -0.7806 -0.3232  0.0461
  230MOL0     C31632   9.056  10.278   5.097  0.1706  0.1562 -0.4979
  230MOL0     O31633   9.005  10.388   5.062  0.1027 -0.1154 -0.0211
  230MOL0     C31634   9.044  10.463   4.948 -0.6070 -0.2322  0.0500
  230MOL0     C31635   9.147  10.453   4.858  0.5383 -0.0125  0.7169
  230MOL0     C31636   9.162  10.534   4.745  0.5013  0.0789  0.3294
  230MOL0     C31637   9.068  10.633   4.721  0.3793 -0.2093 -0.4500
  230MOL0     O31638   9.071  10.705   4.613  0.0327  0.3920  0.3846
  230MOL0     C31639   8.950  10.730   4.547 -0.2091 -0.1733 -0.7300
  230MOL0     C31640   8.905  10.873   4.574 -0.5289 -0.3861  0.1935
  230MOL0     C31641   8.998  10.965   4.482 -0.8637  0.6857  0.7669
  230MOL0     C31642   8.978  11.110   4.503 -0.5586 -0.6680  0.5212
  230MOL0     C31643   9.091  11.194   4.430  0.5259 -0.3248  1.1615
  230MOL0     C31644   9.123  11.326   4.504  1.0698  0.6741  0.3774
  230MOL0     C31645   9.204  11.428   4.418  0.6648 -0.2047 -0.3483
  230MOL0     C31646   9.344  11.378   4.404  0.2620 -0.2954 -0.2014
  230MOL0    Cl31647   9.356  11.262   4.280  0.3958 -0.1724  0.2288
  230MOL0     C31648   8.958  10.647   4.814  0.1518 -0.0035  0.0536
  230MOL0     C31649   8.961  10.568   4.927 -0.6090  0.1698 -0.6267
  230MOL0     O31650   9.155  10.229   5.055 -0.6691  0.7997  0.2023
  230MOL0     C31651   9.048  10.109   5.276  0.1783  0.6124 -1.2415
  230MOL0     C31652   8.970  10.033   5.376 -0.2177  0.3814  0.3528
  230MOL0     N31653   8.289   9.709   5.769 -0.2854  0.7651 -1.0686
  230MOL0     N31654   8.201   9.628   5.725  0.0084  0.3607  1.0826
  230MOL0     C31655   7.490   8.932   5.356 -0.2955  0.1503  0.5844
  230MOL0     C31656   7.383   8.853   5.377 -0.8113 -0.1002  0.3073
  230MOL0     C31657   6.955   8.675   5.370 -0.0394  0.4023  0.0237
  230MOL0     C31658   6.988   8.541   5.378  0.6093 -0.1957 -0.0980
  230MOL0     C31659   6.909   8.459   5.454 -0.0511 -0.0984 -0.1720
  230MOL0     C31660   6.800   8.503   5.530 -0.5746 -0.1317  0.2473
  230MOL0     O31661   6.729   8.424   5.618 -0.7263 -0.0981  0.0968
  230MOL0     C31662   6.807   8.323   5.678  0.4821  0.2401  0.4252
  230MOL0     C31663   6.710   8.261   5.781  0.8226 -0.7731 -0.4144
  230MOL0     C31664   6.767   8.129   5.849  0.4488 -0.4375  0.6529
  230MOL0     C31665   6.905   8.152   5.908 -0.3709  0.5682 -0.4086
  230MOL0     C31666   6.920   8.279   5.986  0.5014  0.5378  0.3173
  230MOL0     C31667   6.935   8.381   6.047 -0.5663 -1.0045 -0.1517
  230MOL0     C31668   6.753   8.628   5.503 -0.3958 -1.2827 -0.1713
  230MOL0     C31669   6.839   8.722   5.433 -0.7446  0.1538 -0.5273
  230MOL0     C31670   6.805   8.864   5.406  0.3101  0.9325  1.1018
  230MOL0     H31671   7.215   8.919   5.093  0.8701 -3.1103 -1.5848
  230MOL0     H31672   7.399   9.040   5.040  0.5570  2.6925  0.8650
  230MOL0     H31673   7.588   9.223   5.076 -2.4645 -1.6097  2.3422
  230MOL0     H31674   7.626   9.057   5.015 -0.0741 -0.3026  0.8736
  230MOL0     H31675   7.844   9.073   5.032  1.5709  0.1482 -0.2640
  230MOL0     H31676   7.783   9.215   4.961  0.6970 -1.0468 -1.3205
  230MOL0     H31677   7.764   9.321   5.212 -0.2685 -0.9550  1.9461
  230MOL0     H31678   7.869   9.184   5.255  0.7343 -0.5923 -0.5244
  230MOL0     H31679   8.037   9.274   5.119 -0.0467 -0.6161  2.3261
  230MOL0     H31680   7.934   9.401   5.048  2.6996 -0.5495 -1.4407
  230MOL0     H31681   7.946   9.520   5.262  0.8265  1.9522 -1.6164
  230MOL0     H31682   8.106   9.494   5.201  1.8490  0.8496  2.9701
  230MOL0     H31683   8.002   9.335   5.444  0.6265 -1.5446 -0.3925
  230MOL0     H31684   8.136   9.291   5.351  0.3609  0.8889  0.8318
  230MOL0     H31685   8.115   9.572   5.458  0.8733  0.6141  0.3555
  230MOL0     H31686   8.255   9.490   5.396  1.4573  2.3059  2.4052
  230MOL0     H31687   8.097   9.405   5.642  0.9285 -2.4516  1.6959
  230MOL0     H31688   8.254   9.331   5.589  1.6174  1.2028  0.7676
  230MOL0     H31689   8.458   9.465   5.631  0.1775 -0.9884  0.9675
  230MOL0     H31690   8.583   9.653   5.859 -4.0235 -2.1675  0.9118
  230MOL0     H31691   8.504   9.814   5.848  0.2892  0.5190 -0.5480
  230MOL0     H31692   8.716   9.821   5.719  0.9295 -0.3143 -0.8095
  230MOL0     H31693   8.661   9.692   5.612  1.5602  1.7706 -2.8890
  230MOL0     H31694   8.464   9.829   5.553  0.0692  1.5451 -0.4669
  230MOL0     H31695   8.532   9.965   5.625 -1.4115  1.8563 -3.1366
  230MOL0     H31696   8.662   9.788   5.405  0.6061 -0.7618  1.0365
  230MOL0     H31697   8.591   9.954   5.383  1.0190  0.8888 -0.2130
  230MOL0     H31698   8.663  10.139   5.328  0.9091 -2.7608  2.6194
  230MOL0     H31699   8.784  10.414   5.144  0.6244 -0.7875 -3.9594
  230MOL0     H31700   8.644  10.313   5.194  0.6224 -2.4464  4.5806
  230MOL0     H31701   8.738  10.286   5.042  1.7518 -0.0719 -0.9991
  230MOL0     H31702   9.232  10.387   4.876  1.4317  0.9097  0.0168
  230MOL0     H31703   9.245  10.522   4.676  0.5326 -1.0894  0.5393
  230MOL0     H31704   8.967  10.712   4.440  3.4279 -0.7359 -0.1578
  230MOL0     H31705   8.861  10.676   4.582 -0.6095  1.8413  1.5919
  230MOL0     H31706   8.800  10.886   4.547  0.2137  2.3495 -1.8613
  230MOL0     H31707   8.920  10.908   4.676 -1.4921  1.1731 -0.1712
  230MOL0     H31708   8.988  10.953   4.374 -2.9733  2.1462  0.7265
  230MOL0     H31709   9.097  10.942   4.522 -2.0500  0.1204  3.6382
  230MOL0     H31710   8.990  11.128   4.610  3.8313 -1.7203  0.4161
  230MOL0     H31711   8.883  11.142   4.461 -0.3600 -0.6164  0.1008
  230MOL0     H31712   9.180  11.131   4.416  1.0854  0.8213 -0.8288
  230MOL0     H31713   9.052  11.202   4.328 -0.8343 -2.0911  1.5009
  230MOL0     H31714   9.174  11.298   4.597 -1.0865  0.3705  1.5486
  230MOL0     H31715   9.033  11.370   4.548 -0.6786 -1.1751 -1.1308
  230MOL0     H31716   9.197  11.522   4.473 -4.1185 -0.8170  0.5033
  230MOL0     H31717   9.156  11.443   4.321  0.6779  2.8240  0.0371
  230MOL0     H31718   9.383  11.343   4.500  0.7581  1.3325  0.2210
  230MOL0     H31719   9.406  11.461   4.368  1.1590 -1.2582 -0.9346
  230MOL0     H31720   8.872  10.713   4.802  0.1820 -0.2935 -2.0360
  230MOL0     H31721   8.880  10.577   4.998 -0.8151 -2.9389 -0.3095
  230MOL0     H31722   9.150  10.091   5.245 -0.4106  0.0411 -2.9950
  230MOL0     H31723   9.019   9.946   5.420 -1.3750  0.3787  1.7214
  230MOL0     H31724   7.578   8.928   5.419  0.5385  0.6530 -0.5124
  230MOL0     H31725   7.360   8.814   5.476  1.4183  1.7438  1.6412
  230MOL0     H31726   7.072   8.514   5.315  2.0803  1.1918  1.1609
  230MOL0     H31727   6.924   8.352   5.442 -0.1089  0.1753 -3.7308
  230MOL0     H31728   6.842   8.235   5.623  0.9834  0.1419  0.8904
  230MOL0     H31729   6.887   8.368   5.738 -2.3786  3.5190  2.1266
  230MOL0     H31730   6.614   8.229   5.740  0.7727 -0.8508 -0.2380
  230MOL0     H31731   6.690   8.336   5.858 -0.0988 -2.2671  0.8576
  230MOL0     H31732   6.697   8.107   5.930 -0.1782 -2.1340 -0.2993
  230MOL0     H31733   6.775   8.047   5.777  0.5399  0.3114 -0.2187
  230MOL0     H31734   6.978   8.161   5.827 -0.1084  1.9394 -0.0408
  230MOL0     H31735   6.927   8.068   5.974  0.1361  2.8175  2.4969
  230MOL0     H31736   6.953   8.470   6.103 -3.8942  0.9914 -1.8799
  230MOL0     H31737   6.661   8.679   5.532  0.0925  1.9297 -3.4494
  230MOL0     H31738   6.791   8.892   5.301 -1.3804  5.4398  2.2759
  230MOL0     H31739   6.706   8.879   5.450  0.3150 -1.4196  2.0685
  230MOL0     H31740   6.880   8.931   5.449  0.9823  0.1120  1.2188
  231MOL0     O31741   7.815   9.562   7.040 -0.4488  0.2280  0.2522
  231MOL0     C31742   7.700   9.605   7.037  0.4948  0.1535  1.0741
  231MOL0     O31743   7.648   9.682   6.936 -0.1473  0.0041  0.2534
  231MOL0     C31744   7.725   9.702   6.826  0.5755  0.7716  0.9581
  231MOL0     C31745   7.855   9.752   6.816  0.8453 -0.3959  0.9624
  231MOL0     C31746   7.910   9.770   6.690  0.2348 -0.4120 -0.4757
  231MOL0     C31747   7.842   9.727   6.577  0.6732 -0.7351 -1.1534
  231MOL0     O31748   7.887   9.733   6.450 -0.1630 -0.3958  0.4190
  231MOL0     C31749   8.003   9.819   6.428 -0.3315  0.4991  0.1087
  231MOL0     C31750   8.129   9.738   6.437  0.4459  0.5864  0.2557
  231MOL0     C31751   8.165   9.647   6.318  0.5267  0.1705 -0.5902
  231MOL0     C31752   8.314   9.593   6.319  0.9824  0.0546  0.6230
  231MOL0     C31753   8.357   9.551   6.179 -0.7101 -0.1830  0.2657
  231MOL0     C31754   8.501   9.541   6.143 -0.2596  0.0172 -0.7130
  231MOL0     C31755   8.581   9.429   6.206  0.4947  0.2449 -0.3013
  231MOL0     C31756   8.741   9.456   6.204  0.6693  0.0673 -0.9814
  231MOL0     N31757   8.787   9.416   6.073 -0.2883 -0.5991  0.0934
  231MOL0     C31758   8.776   9.294   6.018 -0.2040  0.2692  0.3169
  231MOL0     C31759   8.773   9.319   5.884 -0.3309  1.2705  2.1116
  231MOL0     C31760   8.768   9.216   5.765  1.4686 -1.3160  0.3148
  231MOL0     C31761   8.685   9.261   5.650  0.3256  0.0363  0.8386
  231MOL0     C31762   8.708   9.181   5.520 -0.0211 -0.2500 -0.3250
  231MOL0     C31763   8.591   9.173   5.414 -0.2194 -0.3107 -0.1928
  231MOL0     O31764   8.560   9.310   5.379  0.1215 -0.6062 -0.2535
  231MOL0     C31765   8.529   9.340   5.252  0.0405  0.9862 -0.0659
  231MOL0     C31766   8.466   9.261   5.160 -0.4084 -0.9732 -0.6237
  231MOL0     C31767   8.444   9.313   5.028  0.3091  0.0660 -0.0012
  231MOL0     C31768   8.381   9.220   4.928 -0.4518 -0.4658 -0.2324
  231MOL0     C31769   8.466   9.454   4.997  0.0064 -0.1995 -1.0058
  231MOL0     C31770   8.457   9.517   4.861  1.1417 -0.9099 -1.0495
  231MOL0     O31771   8.453   9.649   4.849 -0.1583 -0.3091 -0.1197
  231MOL0     C31772   8.505   9.702   4.730  0.1392 -0.0015 -1.0920
  231MOL0     C31773   8.637   9.720   4.723  0.4244  0.8278  0.3781
  231MOL0     C31774   8.701   9.781   4.609 -0.0566 -0.4830  0.2188
  231MOL0     C31775   8.619   9.825   4.502  0.0635  0.4887  0.0740
  231MOL0     O31776   8.674   9.867   4.382  0.4393 -0.0737 -0.2326
  231MOL0     C31777   8.761   9.973   4.382  0.2427 -0.9122 -0.8286
  231MOL0     C31778   8.688  10.102   4.349  0.5597 -0.8626  0.6631
  231MOL0     C31779   8.781  10.205   4.278 -0.3057 -0.3466 -0.4994
  231MOL0     C31780   8.723  10.347   4.237  1.2556 -0.1033 -1.1470
  231MOL0     C31781   8.596  10.340   4.134  0.0589 -0.1426 -0.5847
  231MOL0     C31782   8.628  10.277   3.997 -0.1221 -0.1394  0.7191
  231MOL0     C31783   8.518  10.322   3.899  0.4168  0.1476  0.1210
  231MOL0     C31784   8.465  10.212   3.806  0.1248 -0.0042 -0.4124
  231MOL0    Cl31785   8.310  10.269   3.735 -0.0320 -0.3489  0.4989
  231MOL0     C31786   8.482   9.806   4.519 -0.1104  0.3820  0.9756
  231MOL0     C31787   8.423   9.743   4.628 -1.1174 -0.5125  0.1724
  231MOL0     O31788   8.468   9.442   4.769  0.0016  0.0667 -0.5132
  231MOL0     C31789   8.527   9.531   5.105 -1.4875  0.0861 -0.2202
  231MOL0     C31790   8.561   9.475   5.223 -0.7368  0.3686 -1.2736
  231MOL0     N31791   8.785   9.453   5.856  1.4318  0.0191  0.4325
  231MOL0     N31792   8.783   9.509   5.975 -0.1864  0.4106  0.0821
  231MOL0     C31793   7.717   9.674   6.591 -0.4989 -0.3900  0.2694
  231MOL0     C31794   7.653   9.658   6.711 -0.4047  0.0450  0.6492
  231MOL0     C31795   7.601   9.572   7.142 -0.3888  0.8867 -0.9099
  231MOL0     C31796   7.462   9.564   7.112  0.4361 -0.3893 -0.9881
  231MOL0     C31797   7.371   9.532   7.211 -0.4042 -0.1780 -0.0493
  231MOL0     C31798   7.410   9.495   7.338 -0.0603 -0.1968 -0.8068
  231MOL0     O31799   7.303   9.454   7.417 -0.0595  0.5630 -0.7881
  231MOL0     C31800   7.340   9.394   7.547 -0.7236  0.0359  0.2688
  231MOL0     C31801   7.211   9.324   7.605  0.7262  1.1671 -0.7471
  231MOL0     C31802   7.122   9.415   7.675  0.6625 -0.0793 -0.3866
  231MOL0     C31803   7.000   9.336   7.726 -1.2672 -0.1149  0.1736
  231MOL0     C31804   6.892   9.424   7.783  0.0329  0.6765  0.2714
  231MOL0     C31805   6.803   9.488   7.835  0.0045  0.0467  0.9304
  231MOL0     C31806   7.548   9.507   7.368  0.2581 -0.2268 -0.0063
  231MOL0     C31807   7.642   9.543   7.274  0.4878  0.4463 -0.8412
  231MOL0     C31808   7.776   9.562   7.334 -0.4088  0.2970 -0.1077
  231MOL0     H31809   7.911   9.789   6.902 -1.1992  1.0535  1.7545
  231MOL0     H31810   8.011   9.809   6.681  0.1742 -0.4170 -1.2144
  231MOL0     H31811   8.013   9.910   6.488  2.0010  2.4744 -2.9650
  231MOL0     H31812   7.990   9.873   6.334 -0.9017  2.0323  1.0348
  231MOL0     H31813   8.207   9.813   6.452  1.7251 -0.8393  0.9764
  231MOL0     H31814   8.120   9.667   6.520 -2.1379 -0.0569 -0.4894
  231MOL0     H31815   8.102   9.558   6.330 -2.3222  2.1027 -0.1717
  231MOL0     H31816   8.134   9.691   6.223  1.0415  1.4844 -0.1653
  231MOL0     H31817   8.388   9.664   6.358  3.2085 -0.9566 -1.5393
  231MOL0     H31818   8.326   9.503   6.379  0.2304 -0.1216  0.5228
  231MOL0     H31819   8.321   9.623   6.104  3.3896  0.9738 -0.8415
  231MOL0     H31820   8.308   9.455   6.164 -0.5469 -0.0081 -1.5271
  231MOL0     H31821   8.526   9.541   6.037 -1.8657 -0.0664 -1.1086
  231MOL0     H31822   8.543   9.639   6.171 -1.3857  0.0871  0.8541
  231MOL0     H31823   8.544   9.334   6.166 -1.9043  0.7250  0.5916
  231MOL0     H31824   8.552   9.425   6.311 -2.5844  1.9510 -0.9758
  231MOL0     H31825   8.763   9.561   6.226  1.2987  0.0490 -1.4952
  231MOL0     H31826   8.792   9.396   6.280  1.2174 -0.7260 -1.9585
  231MOL0     H31827   8.768   9.194   6.059  1.0899 -0.6522 -1.5102
  231MOL0     H31828   8.726   9.122   5.802 -2.5875  0.7292  1.5914
  231MOL0     H31829   8.870   9.211   5.726  2.5466 -0.1325  2.8188
  231MOL0     H31830   8.581   9.252   5.681 -0.2415 -1.8097 -1.3473
  231MOL0     H31831   8.703   9.368   5.639 -0.3599  0.1587  0.9065
  231MOL0     H31832   8.794   9.211   5.461 -0.4293  4.3361  1.0063
  231MOL0     H31833   8.730   9.083   5.562  3.0042  1.3592  2.2666
  231MOL0     H31834   8.618   9.107   5.331  4.2064 -1.7403  2.0560
  231MOL0     H31835   8.507   9.137   5.475 -0.3555  2.1904  1.2427
  231MOL0     H31836   8.448   9.156   5.179  0.9540 -1.7545 -3.0841
  231MOL0     H31837   8.458   9.179   4.863 -0.2607 -1.8097  0.7971
  231MOL0     H31838   8.309   9.271   4.864  0.6636  0.8934 -0.4687
  231MOL0     H31839   8.328   9.139   4.978 -2.6949 -0.9389 -3.1369
  231MOL0     H31840   8.707   9.680   4.796 -0.4104 -0.3302  0.5605
  231MOL0     H31841   8.807   9.802   4.604 -0.2808  0.4387 -1.1933
  231MOL0     H31842   8.806   9.989   4.481 -0.9172 -3.5471  0.2073
  231MOL0     H31843   8.838   9.964   4.305  0.5466 -2.3851 -0.3664
  231MOL0     H31844   8.596  10.084   4.292 -1.9562 -0.0850  4.1408
  231MOL0     H31845   8.653  10.155   4.438 -0.5961 -1.6660  0.7065
  231MOL0     H31846   8.823  10.152   4.192  5.3407 -2.4533  3.0211
  231MOL0     H31847   8.863  10.227   4.348  1.4812 -0.8453 -2.3404
  231MOL0     H31848   8.794  10.410   4.183 -0.2301 -0.5128 -3.7625
  231MOL0     H31849   8.695  10.393   4.332 -0.1129 -0.4514 -1.3483
  231MOL0     H31850   8.524  10.263   4.162 -1.8265  1.8324  0.3833
  231MOL0     H31851   8.541  10.434   4.120 -0.9485 -0.4617  0.9876
  231MOL0     H31852   8.641  10.169   3.997 -0.2312 -0.1540  1.3018
  231MOL0     H31853   8.725  10.317   3.964 -0.2728  1.1286  1.7328
  231MOL0     H31854   8.559  10.399   3.832 -2.8057 -0.5503 -2.9811
  231MOL0     H31855   8.424  10.344   3.951 -0.4272 -1.0032 -0.8419
  231MOL0     H31856   8.448  10.116   3.857 -0.4944  1.2687  1.9148
  231MOL0     H31857   8.531  10.190   3.722  0.4689  1.8111 -0.6553
  231MOL0     H31858   8.410   9.845   4.447  0.1624  1.5508  1.3022
  231MOL0     H31859   8.316   9.729   4.633 -0.8444 -3.3939 -0.4443
  231MOL0     H31860   8.539   9.638   5.089 -1.8268 -0.0762 -1.7909
  231MOL0     H31861   8.611   9.530   5.302 -0.9560  0.5069 -1.2316
  231MOL0     H31862   7.678   9.650   6.492 -0.0141  1.7967 -0.5266
  231MOL0     H31863   7.553   9.617   6.724 -0.5450  0.9103  2.7490
  231MOL0     H31864   7.430   9.603   7.016 -0.8612  1.9646  0.3036
  231MOL0     H31865   7.267   9.551   7.187 -0.5361 -0.1822  0.5094
  231MOL0     H31866   7.404   9.306   7.529 -3.1031 -1.4152 -1.9294
  231MOL0     H31867   7.372   9.470   7.618 -2.3630  1.1660 -0.1516
  231MOL0     H31868   7.248   9.260   7.685 -0.1547  2.0740  0.4411
  231MOL0     H31869   7.159   9.278   7.521  1.5928  2.6379 -2.1578
  231MOL0     H31870   7.175   9.477   7.748  0.4521  3.0587 -2.7044
  231MOL0     H31871   7.088   9.492   7.605 -0.7864 -0.6913 -0.3855
  231MOL0     H31872   7.026   9.274   7.812 -2.0999  1.3128  1.5041
  231MOL0     H31873   6.950   9.271   7.653 -0.5402  0.1681 -0.5895
  231MOL0     H31874   6.732   9.551   7.884  0.5634 -0.2789  2.1804
  231MOL0     H31875   7.574   9.475   7.469 -4.0986 -4.0858  0.3022
  231MOL0     H31876   7.780   9.545   7.442  0.1232  0.9196 -0.0204
  231MOL0     H31877   7.841   9.487   7.288 -3.2874 -2.5177  0.0908
  231MOL0     H31878   7.808   9.666   7.320  1.0140 -0.2964 -1.6190
  232MOL0     O31879   7.489  10.111  10.830  0.1193 -0.0983  0.0161
  232MOL0     C31880   7.413  10.206  10.804  0.0984  0.6907  0.0589
  232MOL0     O31881   7.418  10.324  10.867 -0.7858  0.1089  0.0521
  232MOL0     C31882   7.503  10.339  10.974 -0.6953  0.3979 -0.1711
  232MOL0     C31883   7.599  10.442  10.974 -0.2473  0.3025  0.2558
  232MOL0     C31884   7.694  10.442  11.092 -1.0454 -0.3907 -0.0666
  232MOL0     C31885   7.687  10.346  11.189  0.4860 -0.3210  0.3570
  232MOL0     O31886   7.791  10.363  11.278  0.2833  0.2792  0.2759
  232MOL0     C31887   7.844  10.245  11.336  0.7080 -0.6045 -0.1264
  232MOL0     C31888   7.857  10.272  11.484 -0.5368  0.1706  0.9762
  232MOL0     C31889   7.972  10.385  11.511  0.3604  0.5757  0.3388
  232MOL0     C31890   8.117  10.313  11.528  0.0835 -0.5350  0.6366
  232MOL0     C31891   8.215  10.417  11.575 -0.4849 -1.0831  0.4697
  232MOL0     C31892   8.173  10.494  11.701 -0.3393  0.1049 -0.5835
  232MOL0     C31893   8.286  10.543  11.783 -0.3350 -0.2251  0.6196
  232MOL0     C31894   8.243  10.617  11.910 -0.0438  0.1029  1.1099
  232MOL0     N31895   8.346  10.642  12.001  0.1111  0.4119 -0.4047
  232MOL0     C31896   8.417  10.541  12.062  1.1930 -0.5044  0.1214
  232MOL0     C31897   8.481  10.599  12.165  0.5478  0.4425 -0.0077
  232MOL0     C31898   8.578  10.540  12.258  0.4609  0.5436 -0.0138
  232MOL0     C31899   8.723  10.596  12.257 -0.9808  0.9746  0.4435
  232MOL0     C31900   8.795  10.589  12.123 -0.6762  0.2823 -0.1732
  232MOL0     C31901   8.945  10.617  12.148  1.1389  0.1234 -0.2121
  232MOL0     O31902   9.008  10.620  12.020 -0.6640  0.0071 -0.4042
  232MOL0     C31903   9.144  10.643  12.012  0.3624  0.1164  0.2915
  232MOL0     C31904   9.223  10.702  12.106 -0.3977  0.0347 -0.4506
  232MOL0     C31905   9.365  10.691  12.090 -0.8387  1.1333 -0.0942
  232MOL0     C31906   9.452  10.726  12.213  0.1649 -0.7548  0.2262
  232MOL0     C31907   9.420  10.643  11.966  0.0377  0.1433  0.6182
  232MOL0     C31908   9.565  10.631  11.924 -0.5699 -0.5383 -0.0259
  232MOL0     O31909   9.597  10.549  11.823 -0.2299 -0.0687 -0.3805
  232MOL0     C31910   9.729  10.549  11.791 -0.2191  0.0568  0.4293
  232MOL0     C31911   9.801  10.436  11.824  0.1815  0.8209 -0.8416
  232MOL0     C31912   9.931  10.418  11.775 -0.0825  0.7131 -1.0503
  232MOL0     C31913   9.989  10.521  11.692 -0.4716  0.1505 -1.0944
  232MOL0     O31914  10.107  10.507  11.637  0.4999 -0.3818 -0.1886
  232MOL0     C31915  10.196  10.401  11.662 -0.0898  0.2946  1.0067
  232MOL0     C31916  10.315  10.446  11.587  0.2850 -0.0100  0.1263
  232MOL0     C31917  10.430  10.336  11.588 -0.0312  0.4900 -1.0467
  232MOL0     C31918  10.540  10.380  11.495  0.6562  1.6197 -0.0436
  232MOL0     C31919  10.661  10.290  11.499 -1.2174  0.6169 -0.6144
  232MOL0     C31920  10.755  10.334  11.392 -0.3524  1.0580 -0.1974
  232MOL0     C31921  10.893  10.248  11.404  1.0640  0.1067  0.5739
  232MOL0     C31922  11.021  10.323  11.361  0.2202  0.7032  0.1774
  232MOL0    Cl31923  11.020  10.373  11.189 -0.2562 -0.1280  0.0003
  232MOL0     C31924   9.921  10.640  11.672 -0.4585  0.1558 -0.1707
  232MOL0     C31925   9.785  10.649  11.716  0.5415  0.3465 -0.6802
  232MOL0     O31926   9.649  10.683  11.999 -0.3025 -0.2069  0.5394
  232MOL0     C31927   9.329  10.602  11.860  0.3181 -0.1245 -1.1974
  232MOL0     C31928   9.193  10.592  11.891  0.3920 -0.5423 -1.0744
  232MOL0     N31929   8.462  10.739  12.148 -0.2000  0.4550 -0.1660
  232MOL0     N31930   8.368  10.760  12.058  0.6044  0.3927  0.3020
  232MOL0     C31931   7.581  10.265  11.192  0.5820 -0.0378  0.1299
  232MOL0     C31932   7.498  10.252  11.079 -0.8280  0.0786  0.0781
  232MOL0     C31933   7.309  10.177  10.703  0.2329 -0.1461  0.2303
  232MOL0     C31934   7.183  10.247  10.708 -0.5022  0.2937 -0.7331
  232MOL0     C31935   7.072  10.210  10.628 -0.0952  0.2617 -0.0417
  232MOL0     C31936   7.087  10.120  10.528 -0.4904  0.3136  0.3114
  232MOL0     O31937   6.993  10.088  10.430 -0.2438  0.2898  0.1429
  232MOL0     C31938   6.885  10.183  10.403 -0.4795  0.4247  0.5516
  232MOL0     C31939   6.822  10.149  10.265  0.8244  0.3095  0.4129
  232MOL0     C31940   6.674  10.076  10.263  0.8424 -0.0032 -0.7956
  232MOL0     C31941   6.680   9.928  10.303 -1.0165  0.2845  0.1326
  232MOL0     C31942   6.557   9.879  10.362 -0.0271 -0.3486 -0.2633
  232MOL0     C31943   6.452   9.844  10.415 -0.4597 -0.4360 -0.0641
  232MOL0     C31944   7.212  10.056  10.512  0.3482 -0.4430  0.1281
  232MOL0     C31945   7.320  10.075  10.597 -0.0265 -0.0616  0.3520
  232MOL0     C31946   7.436   9.973  10.589  0.7574  0.7962  0.7801
  232MOL0     H31947   7.603  10.504  10.885  1.1651  0.9777  0.7582
  232MOL0     H31948   7.782  10.504  11.074  0.9730 -2.2775  2.6261
  232MOL0     H31949   7.937  10.235  11.279  0.2793  3.9006 -2.0633
  232MOL0     H31950   7.784  10.154  11.336  2.3985 -1.9949  4.1150
  232MOL0     H31951   7.760  10.319  11.506 -2.3552 -1.3397 -2.8897
  232MOL0     H31952   7.864  10.187  11.553 -1.4574 -0.1708  0.6522
  232MOL0     H31953   7.980  10.453  11.426  1.6336  0.0189 -0.0115
  232MOL0     H31954   7.942  10.438  11.602 -0.0301  1.9118 -0.5366
  232MOL0     H31955   8.110  10.237  11.606  0.5283 -0.6623  0.5549
  232MOL0     H31956   8.149  10.271  11.432 -2.5441  0.1941 -0.6596
  232MOL0     H31957   8.207  10.486  11.491 -2.4818 -3.2420 -1.2623
  232MOL0     H31958   8.314  10.369  11.576  0.7716  1.3441  1.0497
  232MOL0     H31959   8.109  10.579  11.675  0.9691  0.2715 -3.6596
  232MOL0     H31960   8.120  10.425  11.766  1.9844 -2.2997 -1.0708
  232MOL0     H31961   8.345  10.611  11.721  0.2988  0.3894  1.8457
  232MOL0     H31962   8.347  10.456  11.810  0.8595  0.0398 -1.0990
  232MOL0     H31963   8.192  10.712  11.889 -1.0704 -0.4513  1.0499
  232MOL0     H31964   8.164  10.564  11.963  1.3739  1.4221  4.9286
  232MOL0     H31965   8.407  10.438  12.028 -0.8201 -1.0622  2.1880
  232MOL0     H31966   8.561  10.433  12.239  0.5433  0.4100  0.6287
  232MOL0     H31967   8.545  10.546  12.362 -3.9108 -3.2297 -0.8603
  232MOL0     H31968   8.711  10.697  12.295  3.0553  1.3765  1.0493
  232MOL0     H31969   8.790  10.540  12.323  2.9437  3.1577 -1.3242
  232MOL0     H31970   8.778  10.494  12.072 -0.3057  1.3503 -2.4163
  232MOL0     H31971   8.750  10.662  12.055 -1.9002 -0.2293  0.0527
  232MOL0     H31972   8.950  10.713  12.201  2.6216 -0.7054  1.2412
  232MOL0     H31973   8.990  10.544  12.215 -1.0070 -0.9104  0.1847
  232MOL0     H31974   9.180  10.733  12.201 -1.9781  2.1726 -1.7660
  232MOL0     H31975   9.387  10.754  12.296 -1.9774 -2.6407 -0.6923
  232MOL0     H31976   9.536  10.792  12.189 -1.9623  1.0943 -2.8984
  232MOL0     H31977   9.515  10.637  12.229  3.9992  1.7284  0.3142
  232MOL0     H31978   9.757  10.349  11.874  0.8025  0.7460 -0.4182
  232MOL0     H31979   9.990  10.329  11.793 -0.6269  0.9177  2.3973
  232MOL0     H31980  10.208  10.405  11.771  0.2561  0.5969  0.9573
  232MOL0     H31981  10.161  10.306  11.621  0.1180 -0.3498  2.2702
  232MOL0     H31982  10.293  10.455  11.480 -0.4963  2.0891  0.4010
  232MOL0     H31983  10.342  10.545  11.625 -0.0533 -0.2581  1.0283
  232MOL0     H31984  10.402  10.236  11.555  1.1560 -2.4352  5.2606
  232MOL0     H31985  10.467  10.312  11.688  1.5416 -4.3970 -2.5019
  232MOL0     H31986  10.554  10.487  11.511  0.5665  1.3277  2.1978
  232MOL0     H31987  10.504  10.360  11.393  1.8863  0.8652 -0.3530
  232MOL0     H31988  10.709  10.300  11.597  0.1474  1.7953 -1.3639
  232MOL0     H31989  10.641  10.183  11.491  0.5346  0.2196 -0.0649
  232MOL0     H31990  10.788  10.436  11.412  2.4336  0.3747 -0.8311
  232MOL0     H31991  10.700  10.313  11.299  2.4402 -2.3085 -1.2998
  232MOL0     H31992  10.886  10.148  11.360  4.3914  0.8935 -2.2080
  232MOL0     H31993  10.903  10.225  11.511  3.8865  0.0259  0.3634
  232MOL0     H31994  11.105  10.257  11.386 -0.4581  0.6150  2.3918
  232MOL0     H31995  11.029  10.407  11.430  2.7598 -0.5136  1.5008
  232MOL0     H31996   9.984  10.708  11.617  0.3109 -0.9657 -0.7184
  232MOL0     H31997   9.726  10.734  11.683 -3.5129 -2.1275 -0.4086
  232MOL0     H31998   9.363  10.563  11.765 -3.6045 -0.7914 -2.4877
  232MOL0     H31999   9.116  10.540  11.835 -1.7697 -2.5321  3.2502
  232MOL0     H32000   7.573  10.198  11.277 -0.1476  0.7200  0.6742
  232MOL0     H32001   7.413  10.184  11.074 -1.3972  0.6214  1.6499
  232MOL0     H32002   7.172  10.319  10.789 -2.1323 -2.3811  1.6482
  232MOL0     H32003   6.976  10.259  10.644 -1.1153 -1.6317 -0.0891
  232MOL0     H32004   6.806  10.181  10.478 -0.0797 -0.6633  0.9674
  232MOL0     H32005   6.924  10.285  10.402 -0.0441  0.3090 -2.0092
  232MOL0     H32006   6.890  10.093  10.201  0.2830 -0.7787  0.7576
  232MOL0     H32007   6.801  10.243  10.213 -0.5060 -1.4990 -2.6530
  232MOL0     H32008   6.605  10.126  10.331  3.0088 -0.1309  1.6397
  232MOL0     H32009   6.630  10.075  10.163 -1.8462 -4.4867  0.1821
  232MOL0     H32010   6.764   9.910  10.370 -0.3671 -2.8444 -1.3078
  232MOL0     H32011   6.705   9.861  10.220 -0.2301  0.6597  0.0627
  232MOL0     H32012   6.363   9.818  10.469  0.0937 -1.3322  0.4399
  232MOL0     H32013   7.237   9.997  10.425 -2.1578  0.3330 -1.2217
  232MOL0     H32014   7.420   9.892  10.518 -3.5731 -0.4103  2.7865
  232MOL0     H32015   7.528  10.028  10.566  2.3307 -1.3119  1.6222
  232MOL0     H32016   7.437   9.912  10.680  2.8310 -2.3862 -1.1623
  233MOL0     O32017   4.874   0.960  11.247  0.1985 -0.4372 -0.5237
  233MOL0     C32018   4.768   1.032  11.265 -0.2952  0.9794 -0.2094
  233MOL0     O32019   4.649   0.984  11.318  0.4222  0.1520 -0.1621
  233MOL0     C32020   4.626   0.848  11.326  0.6858  0.0002 -0.0259
  233MOL0     C32021   4.554   0.799  11.432  0.0437 -0.6104  0.0169
  233MOL0     C32022   4.514   0.660  11.436 -0.4927  0.5263 -0.2487
  233MOL0     C32023   4.554   0.566  11.337 -0.7435  0.0583 -1.0654
  233MOL0     O32024   4.505   0.440  11.350  0.1003 -0.6051 -0.6636
  233MOL0     C32025   4.531   0.348  11.240  0.0598 -0.6735  0.1016
  233MOL0     C32026   4.470   0.211  11.264 -0.2639  0.1443 -0.9241
  233MOL0     C32027   4.308   0.225  11.262 -0.2566  0.9039 -0.9875
  233MOL0     C32028   4.247   0.090  11.234  0.0316 -0.2974  0.3256
  233MOL0     C32029   4.101   0.059  11.286  0.8803 -0.3376 -0.0208
  233MOL0     C32030   3.998   0.166  11.259 -0.7970  0.7835 -1.0524
  233MOL0     C32031   3.852   0.126  11.243  0.3691 -0.0167  0.2586
  233MOL0     C32032   3.787   0.068  11.367  0.1925 -0.1838 -0.1923
  233MOL0     N32033   3.649   0.031  11.343 -0.4540 -0.8091 -0.3404
  233MOL0     C32034   3.586   0.031  11.226  0.2319 -0.1162  0.0132
  233MOL0     C32035   3.472  -0.048  11.255  0.5720 -0.2220 -0.2741
  233MOL0     C32036   3.371  -0.083  11.144 -0.9544  0.8465 -0.4971
  233MOL0     C32037   3.272  -0.188  11.187 -0.0396  0.0070 -0.2636
  233MOL0     C32038   3.174  -0.221  11.078 -0.0660  0.3619  0.3208
  233MOL0     C32039   3.060  -0.321  11.135  0.9198  0.5717 -0.5904
  233MOL0     O32040   2.958  -0.340  11.037 -0.5778 -0.4513 -0.3341
  233MOL0     C32041   2.856  -0.426  11.052 -0.1441  0.3156  0.4655
  233MOL0     C32042   2.744  -0.399  10.975  0.6264 -2.1231 -0.3302
  233MOL0     C32043   2.633  -0.484  10.971  0.2866  0.1590 -0.7669
  233MOL0     C32044   2.517  -0.462  10.878 -0.2670 -1.0049 -0.2538
  233MOL0     C32045   2.638  -0.604  11.054  0.2761  0.7593 -0.1458
  233MOL0     C32046   2.531  -0.715  11.058  0.6444 -0.1689  0.1362
  233MOL0     O32047   2.564  -0.830  11.129 -0.2706 -0.6166 -0.4713
  233MOL0     C32048   2.451  -0.887  11.176  0.1657  0.5238 -0.0152
  233MOL0     C32049   2.373  -0.989  11.107  0.2802 -0.9141 -0.0472
  233MOL0     C32050   2.261  -1.050  11.180 -0.2010  0.3923 -0.3158
  233MOL0     C32051   2.223  -1.001  11.303  0.5949 -1.0929  0.3564
  233MOL0     O32052   2.116  -1.050  11.376 -0.4324 -0.0126 -0.4272
  233MOL0     C32053   2.057  -1.171  11.321 -0.0042 -0.4069  0.5763
  233MOL0     C32054   1.951  -1.219  11.415 -0.0082  0.0278  0.2898
  233MOL0     C32055   2.006  -1.276  11.551 -0.0559  0.3508 -0.2371
  233MOL0     C32056   2.137  -1.213  11.604  0.2947 -0.1906 -0.1765
  233MOL0     C32057   2.181  -1.281  11.735  0.5531  1.4460 -0.2917
  233MOL0     C32058   2.267  -1.182  11.823  0.1083 -0.2659  0.0948
  233MOL0     C32059   2.176  -1.080  11.891  0.2577 -1.0518 -0.3317
  233MOL0     C32060   2.222  -0.990  12.008  0.2453  0.1852  0.7754
  233MOL0    Cl32061   2.342  -0.875  11.939 -0.1481 -0.5613 -0.2117
  233MOL0     C32062   2.306  -0.914  11.373 -0.9603  0.2386  0.9515
  233MOL0     C32063   2.419  -0.860  11.309 -0.0551  0.1165  0.1640
  233MOL0     O32064   2.432  -0.709  10.976 -0.5627 -0.0060  0.1056
  233MOL0     C32065   2.748  -0.628  11.137 -0.7158  0.4343 -0.0689
  233MOL0     C32066   2.858  -0.535  11.132 -0.1582 -0.1716  0.0416
  233MOL0     N32067   3.471  -0.080  11.393  0.0416  0.2625  1.0923
  233MOL0     N32068   3.585  -0.034  11.438  0.9195  0.0321 -0.2685
  233MOL0     C32069   4.637   0.618  11.230  0.7789  0.2140  0.9866
  233MOL0     C32070   4.674   0.758  11.230  0.0392  0.9423  0.4470
  233MOL0     C32071   4.782   1.173  11.238 -0.5527 -0.5343 -0.7868
  233MOL0     C32072   4.914   1.208  11.194  0.7836 -0.2902 -0.6195
  233MOL0     C32073   4.937   1.344  11.156  0.5424 -0.1503 -0.4226
  233MOL0     C32074   4.841   1.443  11.156 -0.3399 -0.2055  0.1524
  233MOL0     O32075   4.874   1.579  11.129  0.2395  1.1962 -0.3674
  233MOL0     C32076   5.014   1.615  11.137 -0.2551 -0.6335 -1.1209
  233MOL0     C32077   5.086   1.610  11.274  0.0486 -0.1732 -0.3799
  233MOL0     C32078   4.985   1.642  11.387 -0.7358  0.5623  0.6797
  233MOL0     C32079   5.063   1.677  11.521  0.3498 -0.0148  0.3588
  233MOL0     C32080   4.964   1.698  11.622 -0.3598  0.3070 -0.3499
  233MOL0     C32081   4.879   1.709  11.707 -0.9369 -0.1019 -0.0418
  233MOL0     C32082   4.711   1.408  11.190 -0.5729  0.1436 -0.1178
  233MOL0     C32083   4.681   1.275  11.224  0.0152 -0.3256 -1.4100
  233MOL0     C32084   4.532   1.247  11.252  0.3836  0.0340 -0.0507
  233MOL0     H32085   4.515   0.868  11.507 -1.2533 -0.4410 -0.7883
  233MOL0     H32086   4.463   0.608  11.516 -0.9638 -0.0131 -0.8882
  233MOL0     H32087   4.640   0.350  11.228 -0.0015 -0.5389 -0.4553
  233MOL0     H32088   4.502   0.393  11.144 -2.0192 -3.1871 -0.5685
  233MOL0     H32089   4.510   0.138  11.192  0.4424 -1.5508  1.0761
  233MOL0     H32090   4.486   0.174  11.366 -2.6153 -0.1453 -0.6084
  233MOL0     H32091   4.265   0.273  11.350 -0.8240 -0.9773 -0.1866
  233MOL0     H32092   4.290   0.284  11.172  0.5746  4.1710  0.8575
  233MOL0     H32093   4.234   0.078  11.126 -1.0608 -1.4020  0.5605
  233MOL0     H32094   4.321   0.021  11.274  0.0403 -1.5379 -1.6700
  233MOL0     H32095   4.111   0.053  11.394  1.1473 -1.4211 -0.0920
  233MOL0     H32096   4.078  -0.041  11.249 -0.3031  0.9985 -3.3821
  233MOL0     H32097   4.007   0.243  11.336 -1.5788  1.8012 -1.9528
  233MOL0     H32098   4.022   0.208  11.161 -1.6029  2.1616 -0.6811
  233MOL0     H32099   3.857   0.058  11.157  0.2849 -2.6205  2.1953
  233MOL0     H32100   3.793   0.213  11.212 -1.5289 -0.9939  0.9552
  233MOL0     H32101   3.844  -0.015  11.410 -0.2410 -0.3580  0.0480
  233MOL0     H32102   3.791   0.140  11.449  0.3369 -0.1239 -0.2509
  233MOL0     H32103   3.606   0.074  11.129  0.4639  0.4638  0.3130
  233MOL0     H32104   3.427  -0.136  11.066  0.7107 -0.1793  1.2953
  233MOL0     H32105   3.324   0.003  11.095  6.1831  4.8720 -1.7200
  233MOL0     H32106   3.328  -0.281  11.200  0.5808  0.6415  2.1603
  233MOL0     H32107   3.217  -0.150  11.273  1.0440  1.5647 -0.2019
  233MOL0     H32108   3.116  -0.132  11.051 -2.0759 -0.0505  2.8314
  233MOL0     H32109   3.224  -0.270  10.994 -0.1431 -0.6044  0.8228
  233MOL0     H32110   3.106  -0.419  11.149 -2.6422 -1.2616 -0.5277
  233MOL0     H32111   3.022  -0.281  11.229  0.3271  0.1009 -0.6235
  233MOL0     H32112   2.750  -0.306  10.920 -2.3705 -2.0641 -0.7465
  233MOL0     H32113   2.507  -0.529  10.792 -0.5239 -4.3632  2.2103
  233MOL0     H32114   2.539  -0.367  10.828 -0.9800 -0.3025  0.7301
  233MOL0     H32115   2.418  -0.470  10.924 -1.6599  1.0291 -2.6453
  233MOL0     H32116   2.402  -1.027  11.010  1.4140  0.9179 -0.4835
  233MOL0     H32117   2.218  -1.135  11.127  2.8435 -1.2881 -0.3383
  233MOL0     H32118   2.012  -1.137  11.227 -2.6922  0.0232  1.9035
  233MOL0     H32119   2.135  -1.246  11.306 -2.0207 -1.9360 -4.0465
  233MOL0     H32120   1.893  -1.127  11.427  0.3008  0.7453 -2.7387
  233MOL0     H32121   1.880  -1.286  11.365 -1.2670  2.0964 -0.8517
  233MOL0     H32122   2.009  -1.384  11.535  0.6911  0.0375  1.7378
  233MOL0     H32123   1.930  -1.263  11.629  0.1220  0.2721 -0.0503
  233MOL0     H32124   2.103  -1.113  11.633 -1.4338 -0.9234  0.4568
  233MOL0     H32125   2.214  -1.217  11.526 -0.9090 -2.3357 -1.3543
  233MOL0     H32126   2.092  -1.312  11.791  1.1819 -0.0581 -0.0880
  233MOL0     H32127   2.233  -1.374  11.711 -3.9000 -1.1557 -1.0873
  233MOL0     H32128   2.352  -1.134  11.772 -0.5458  0.5882 -0.2009
  233MOL0     H32129   2.314  -1.246  11.899  1.4399  0.5356 -0.0179
  233MOL0     H32130   2.085  -1.132  11.921 -2.0306  0.6777 -3.6111
  233MOL0     H32131   2.152  -1.002  11.817 -1.4240 -0.1478  1.0957
  233MOL0     H32132   2.253  -1.037  12.102  1.9434  1.0392  0.6730
  233MOL0     H32133   2.140  -0.929  12.048  0.6416  2.6558 -1.8617
  233MOL0     H32134   2.290  -0.874  11.473 -1.3687  0.8116  0.6614
  233MOL0     H32135   2.484  -0.791  11.362 -3.3441  2.3311  1.6394
  233MOL0     H32136   2.773  -0.719  11.191 -3.4955 -1.6656 -2.0824
  233MOL0     H32137   2.948  -0.556  11.190 -1.0963  1.2357  2.1415
  233MOL0     H32138   4.681   0.553  11.156  4.2398 -1.4995  4.2336
  233MOL0     H32139   4.734   0.792  11.147 -0.1098  0.4053  0.1134
  233MOL0     H32140   5.004   1.150  11.176  0.5186 -0.4338 -1.4781
  233MOL0     H32141   5.041   1.352  11.126  0.6375 -0.9534 -0.3200
  233MOL0     H32142   5.078   1.553  11.074 -0.1286 -1.3239 -0.3181
  233MOL0     H32143   5.024   1.720  11.108  1.5890 -0.1781  0.9644
  233MOL0     H32144   5.168   1.681  11.287 -1.3192  1.6902 -1.4390
  233MOL0     H32145   5.130   1.511  11.288 -0.9374 -0.7419 -1.1334
  233MOL0     H32146   4.925   1.730  11.361  0.0669  1.0224  0.3201
  233MOL0     H32147   4.917   1.558  11.399 -0.5008  0.4161  1.0029
  233MOL0     H32148   5.136   1.757  11.504 -1.5922  1.9257  0.6437
  233MOL0     H32149   5.121   1.587  11.542 -2.9776 -3.6225 -3.8863
  233MOL0     H32150   4.802   1.726  11.780  1.7460  3.0322  2.3634
  233MOL0     H32151   4.647   1.495  11.197  0.5386  0.9326  0.6847
  233MOL0     H32152   4.515   1.214  11.355 -0.4802 -0.3206 -0.3049
  233MOL0     H32153   4.481   1.342  11.234 -4.0039 -2.1778 -0.3913
  233MOL0     H32154   4.493   1.185  11.171  0.3693  1.8720 -1.5154
  234MOL0     O32155   9.658   2.926   9.644  0.6365 -0.4349  0.4215
  234MOL0     C32156   9.714   2.826   9.606 -0.5762 -1.0480  0.5110
  234MOL0     O32157   9.844   2.797   9.634  1.2240  0.1602  0.8001
  234MOL0     C32158   9.898   2.851   9.741  0.0872  0.2598 -0.4987
  234MOL0     C32159   9.971   2.767   9.826  0.3717 -0.8983  0.0881
  234MOL0     C32160  10.039   2.814   9.935  0.5077 -0.5634 -1.1807
  234MOL0     C32161  10.031   2.947   9.978 -0.1914 -0.8016 -0.6725
  234MOL0     O32162  10.120   2.994  10.083 -0.2362  0.0994 -0.9578
  234MOL0     C32163  10.187   2.893  10.167 -0.5583  0.2742 -0.3874
  234MOL0     C32164  10.251   2.970  10.283 -0.9659  0.1225 -0.3603
  234MOL0     C32165  10.357   2.901  10.361  0.0444 -1.1159 -0.3901
  234MOL0     C32166  10.480   2.856  10.292 -0.2140 -0.0079 -0.3871
  234MOL0     C32167  10.581   2.792  10.383 -0.6796  0.9020  0.4445
  234MOL0     C32168  10.637   2.899  10.488 -0.4476 -0.6886 -0.4481
  234MOL0     C32169  10.752   2.843  10.578  0.8300 -0.0994 -0.1761
  234MOL0     C32170  10.822   2.945  10.656 -0.9210  0.0889 -0.5239
  234MOL0     N32171  10.720   3.026  10.729  0.3179  0.5599  0.9877
  234MOL0     C32172  10.672   2.989  10.854 -0.0488  0.1375  0.0737
  234MOL0     C32173  10.614   3.101  10.898  0.3750  0.1531 -0.8525
  234MOL0     C32174  10.578   3.123  11.040 -0.5584 -0.4159 -0.4256
  234MOL0     C32175  10.460   3.042  11.086 -0.1403  0.2597  0.1081
  234MOL0     C32176  10.332   3.110  11.016 -0.6682 -0.0778 -0.7038
  234MOL0     C32177  10.294   3.252  11.073  0.6594 -0.2831 -0.4770
  234MOL0     O32178  10.210   3.227  11.188  0.2388  0.4501 -0.1249
  234MOL0     C32179  10.162   3.325  11.277 -0.5544  0.0398  1.0422
  234MOL0     C32180  10.078   3.273  11.371 -0.3315 -0.2829 -0.4848
  234MOL0     C32181  10.030   3.358  11.471 -0.5895  0.3692 -0.5524
  234MOL0     C32182   9.953   3.293  11.591 -0.4075 -0.1333  0.9466
  234MOL0     C32183  10.066   3.492  11.475  0.0339 -0.4576 -0.2520
  234MOL0     C32184  10.005   3.598  11.574 -0.2791  0.4403  0.1911
  234MOL0     O32185   9.873   3.602  11.586  0.3250 -0.5384 -0.3396
  234MOL0     C32186   9.820   3.726  11.616  0.1606  0.6799 -0.2549
  234MOL0     C32187   9.784   3.757  11.747 -0.4574  0.8235  0.0882
  234MOL0     C32188   9.730   3.876  11.772  0.1297 -0.8311 -0.3919
  234MOL0     C32189   9.709   3.971  11.671 -0.3096  0.1963 -0.1880
  234MOL0     O32190   9.640   4.081  11.713  0.1185 -1.1414 -0.3992
  234MOL0     C32191   9.683   4.204  11.654  0.4154  0.3526 -0.1377
  234MOL0     C32192   9.631   4.322  11.733 -0.0395 -0.1462 -0.6664
  234MOL0     C32193   9.496   4.321  11.795  0.1126 -0.2530 -0.2445
  234MOL0     C32194   9.464   4.466  11.837  0.1353  0.0697 -0.0445
  234MOL0     C32195   9.330   4.473  11.919 -0.4987  0.5131 -0.9603
  234MOL0     C32196   9.289   4.627  11.936 -0.4675 -0.4363 -0.2202
  234MOL0     C32197   9.157   4.640  12.012  0.7582  0.5261 -0.1788
  234MOL0     C32198   9.035   4.555  11.961 -0.3364  0.5597  0.2485
  234MOL0    Cl32199   8.896   4.557  12.070 -0.2578 -0.1643 -0.2724
  234MOL0     C32200   9.755   3.945  11.544  0.7120  1.3266 -0.2584
  234MOL0     C32201   9.797   3.814  11.517  0.2009 -0.0394  0.0234
  234MOL0     O32202  10.089   3.673  11.620  0.6170 -0.5579  0.6256
  234MOL0     C32203  10.148   3.543  11.373  0.6574  0.0279  0.5738
  234MOL0     C32204  10.202   3.457  11.281 -0.7890 -0.7143  0.6752
  234MOL0     N32205  10.640   3.208  10.809 -0.1179  0.0964  0.2870
  234MOL0     N32206  10.690   3.154  10.703 -0.4925 -0.3597  0.4827
  234MOL0     C32207   9.956   3.031   9.890  0.1460  0.5236  0.3120
  234MOL0     C32208   9.893   2.989   9.771 -0.2989  0.1148 -0.3964
  234MOL0     C32209   9.635   2.736   9.523  0.0214  0.1745  0.6362
  234MOL0     C32210   9.694   2.610   9.511 -0.1607  0.0205  0.1931
  234MOL0     C32211   9.634   2.520   9.432  0.0427  0.4269 -0.8471
  234MOL0     C32212   9.513   2.526   9.370 -0.3223 -1.0451  0.9994
  234MOL0     O32213   9.478   2.427   9.288  0.0074  0.1613 -0.2992
  234MOL0     C32214   9.339   2.381   9.295 -0.3792 -0.5790  0.3654
  234MOL0     C32215   9.307   2.272   9.394 -0.2036  0.8183 -0.2009
  234MOL0     C32216   9.317   2.314   9.542 -0.7435  0.1977 -0.7470
  234MOL0     C32217   9.349   2.206   9.649 -0.4151 -0.8097  0.7524
  234MOL0     C32218   9.462   2.122   9.617 -0.1299  0.8764 -0.0150
  234MOL0     C32219   9.567   2.052   9.615  0.3835  0.2788  0.2883
  234MOL0     C32220   9.455   2.649   9.381 -0.3635  0.2800 -0.8086
  234MOL0     C32221   9.511   2.752   9.453  0.8517  0.1212  0.1486
  234MOL0     C32222   9.421   2.873   9.452 -0.4285  0.0581 -0.1962
  234MOL0     H32223   9.994   2.663   9.806  1.7631 -0.6524  0.3525
  234MOL0     H32224  10.107   2.743   9.982 -0.6468 -1.5906 -1.0023
  234MOL0     H32225  10.253   2.837  10.101 -0.7376  2.4318 -2.5743
  234MOL0     H32226  10.113   2.823  10.207  1.5649 -2.5508 -1.0899
  234MOL0     H32227  10.291   3.069  10.258  2.9973 -1.3542 -0.5740
  234MOL0     H32228  10.177   2.980  10.363  2.5726  1.6438  3.0391
  234MOL0     H32229  10.369   2.981  10.434 -1.0325  2.6035 -3.8974
  234MOL0     H32230  10.300   2.814  10.395  1.3518 -1.7474  0.2163
  234MOL0     H32231  10.455   2.784  10.214  2.2248 -0.0135 -1.2656
  234MOL0     H32232  10.527   2.944  10.246  0.2305  0.1333  0.3273
  234MOL0     H32233  10.648   2.737  10.316  1.5778  4.4002 -0.4373
  234MOL0     H32234  10.531   2.713  10.440 -0.1792 -0.2683 -0.7180
  234MOL0     H32235  10.673   2.991  10.441 -1.4546  0.1530  0.3497
  234MOL0     H32236  10.555   2.923  10.557  0.6483 -0.2766  0.7536
  234MOL0     H32237  10.823   2.796  10.510  0.9270 -1.7155  0.9854
  234MOL0     H32238  10.716   2.759  10.638  0.4084  0.1583 -0.0606
  234MOL0     H32239  10.887   2.888  10.724 -0.1194 -0.2771 -1.5644
  234MOL0     H32240  10.888   3.002  10.591 -0.2996 -1.1604 -1.0163
  234MOL0     H32241  10.673   2.897  10.912  1.6761  1.1190  1.6978
  234MOL0     H32242  10.567   3.231  11.053 -1.8636 -0.4698 -0.9469
  234MOL0     H32243  10.661   3.087  11.102 -3.0895 -1.2312  2.7832
  234MOL0     H32244  10.473   2.941  11.045  0.8766  0.3417  0.2263
  234MOL0     H32245  10.438   3.036  11.193 -0.7905 -0.2495 -0.0437
  234MOL0     H32246  10.359   3.114  10.911  3.7890 -0.7626  0.2048
  234MOL0     H32247  10.243   3.049  11.036 -0.9509  0.3583 -0.6317
  234MOL0     H32248  10.373   3.297  11.134 -0.7004 -0.2814  1.3617
  234MOL0     H32249  10.239   3.328  11.017  1.7516 -0.7040 -2.1704
  234MOL0     H32250  10.039   3.172  11.364 -1.6693  0.0562  1.2368
  234MOL0     H32251   9.885   3.222  11.543 -1.3333  1.6294 -0.4894
  234MOL0     H32252   9.898   3.362  11.655 -1.2476  0.5435 -0.4401
  234MOL0     H32253  10.024   3.244  11.657  2.5721  1.7532 -0.5984
  234MOL0     H32254   9.798   3.673  11.815  1.0837  0.5714 -0.4988
  234MOL0     H32255   9.703   3.893  11.876  2.7166 -0.0176  0.2194
  234MOL0     H32256   9.788   4.227  11.638  0.6235  1.5094  2.3704
  234MOL0     H32257   9.636   4.209  11.556 -1.0107  0.3567  0.5126
  234MOL0     H32258   9.693   4.347  11.820 -2.3747 -1.6151  1.5484
  234MOL0     H32259   9.637   4.404  11.661 -1.4526  0.3189 -0.2885
  234MOL0     H32260   9.498   4.249  11.877  0.3555 -1.0475 -0.9354
  234MOL0     H32261   9.427   4.278  11.722  1.0456 -1.2250 -0.5860
  234MOL0     H32262   9.468   4.547  11.764  1.9374  1.8524  1.8894
  234MOL0     H32263   9.548   4.503  11.898  2.8980  2.5072 -4.6998
  234MOL0     H32264   9.254   4.423  11.858  0.9370 -1.6888 -1.0688
  234MOL0     H32265   9.345   4.413  12.010  0.7651  2.0560 -0.1034
  234MOL0     H32266   9.272   4.675  11.839 -4.2689  2.4256  1.5671
  234MOL0     H32267   9.364   4.689  11.986  0.0351  0.1079 -1.5820
  234MOL0     H32268   9.133   4.746  12.000 -1.2376  0.3165  1.4934
  234MOL0     H32269   9.180   4.625  12.118 -0.9393  0.0127  0.1460
  234MOL0     H32270   9.071   4.452  11.956 -1.0735  0.1858  2.0338
  234MOL0     H32271   9.006   4.586  11.861  1.4938  0.8659 -0.2311
  234MOL0     H32272   9.728   4.011  11.462  2.4541  0.6035 -1.4686
  234MOL0     H32273   9.826   3.787  11.415 -0.4644 -0.1096 -0.1509
  234MOL0     H32274  10.170   3.649  11.375 -0.4806  0.3323 -1.0741
  234MOL0     H32275  10.267   3.502  11.207  0.7933  0.0456  2.4387
  234MOL0     H32276   9.960   3.136   9.917  0.0186  0.0286  2.4444
  234MOL0     H32277   9.848   3.075   9.722  3.0070  1.0396 -2.0991
  234MOL0     H32278   9.788   2.583   9.560 -0.5288 -0.1065  0.8361
  234MOL0     H32279   9.687   2.425   9.433  1.1516  1.0254 -0.9514
  234MOL0     H32280   9.267   2.464   9.301 -0.1292  0.1196 -3.5348
  234MOL0     H32281   9.328   2.322   9.203 -2.2129 -3.8786  2.5129
  234MOL0     H32282   9.359   2.181   9.362 -1.2607 -0.1587  0.7551
  234MOL0     H32283   9.203   2.237   9.384  0.4710 -1.2340 -0.6246
  234MOL0     H32284   9.381   2.403   9.545 -1.2271  0.5189  0.5362
  234MOL0     H32285   9.222   2.348   9.583 -0.0422  0.0887  1.0528
  234MOL0     H32286   9.261   2.142   9.657 -1.6664  1.0004  3.1428
  234MOL0     H32287   9.368   2.253   9.746  0.7826 -0.9418  0.6038
  234MOL0     H32288   9.660   1.998   9.605 -0.2825 -1.0428  0.9748
  234MOL0     H32289   9.361   2.667   9.330 -0.9743  0.1644  0.2369
  234MOL0     H32290   9.465   2.945   9.382  0.1286 -0.1999 -0.1126
  234MOL0     H32291   9.322   2.845   9.414 -0.2480 -0.5991 -0.2066
  234MOL0     H32292   9.410   2.925   9.547  1.1493  0.5407 -0.2533
  235MOL0     O32293   7.170   8.812   1.402 -0.0973 -0.1108  0.4946
  235MOL0     C32294   7.228   8.732   1.331 -0.9374  0.2789 -0.3305
  235MOL0     O32295   7.173   8.678   1.227 -0.1327  0.3680  0.0941
  235MOL0     C32296   7.041   8.700   1.185  0.4732 -0.2457  0.3561
  235MOL0     C32297   6.933   8.637   1.249 -0.8217  0.7437 -0.1437
  235MOL0     C32298   6.803   8.664   1.204  0.4647  0.3765  0.8700
  235MOL0     C32299   6.779   8.747   1.083 -0.3575  0.1082 -0.8766
  235MOL0     O32300   6.655   8.774   1.041  1.0075  0.3678  0.2077
  235MOL0     C32301   6.562   8.828   1.137 -0.9867  0.6047  0.2307
  235MOL0     C32302   6.585   8.979   1.138 -0.1031  0.3146 -0.7979
  235MOL0     C32303   6.557   9.071   1.011 -1.1901  0.4478 -0.0819
  235MOL0     C32304   6.579   9.217   1.047  0.5846  0.1235  0.0953
  235MOL0     C32305   6.575   9.312   0.929 -0.0438  0.2505 -0.2545
  235MOL0     C32306   6.616   9.457   0.969  0.7398 -0.1529 -0.5184
  235MOL0     C32307   6.492   9.533   1.023  0.0129 -0.8540 -0.4129
  235MOL0     C32308   6.522   9.677   1.043 -0.3471 -0.6059 -0.0706
  235MOL0     N32309   6.524   9.739   0.911  0.0335 -0.1750  0.8094
  235MOL0     C32310   6.630   9.776   0.819  0.1066  0.2048  0.6129
  235MOL0     C32311   6.569   9.851   0.720  0.2207 -0.4556  0.5243
  235MOL0     C32312   6.665   9.909   0.612 -0.0730 -1.0345  0.7123
  235MOL0     C32313   6.625   9.872   0.472  0.2164 -0.0811 -0.3086
  235MOL0     C32314   6.735   9.894   0.371 -1.2564 -0.8248 -0.4798
  235MOL0     C32315   6.701   9.850   0.233  0.4652  0.8629 -0.5413
  235MOL0     O32316   6.730   9.712   0.211  0.1832 -0.5089 -0.0398
  235MOL0     C32317   6.744   9.674   0.082  0.8838 -0.4806  0.2050
  235MOL0     C32318   6.826   9.561   0.073  0.6325 -0.0282  0.2474
  235MOL0     C32319   6.865   9.504  -0.050  0.4134 -0.2695 -0.0707
  235MOL0     C32320   6.955   9.391  -0.035 -0.4385 -0.0031  0.1490
  235MOL0     C32321   6.797   9.551  -0.167 -0.1229 -0.9580 -0.3998
  235MOL0     C32322   6.823   9.487  -0.301 -0.8265  0.1791  0.8744
  235MOL0     O32323   6.773   9.537  -0.418  0.3381 -0.2257 -0.6706
  235MOL0     C32324   6.808   9.475  -0.536  0.1536  0.4705 -0.3850
  235MOL0     C32325   6.720   9.388  -0.588  0.4047 -0.0498  0.4035
  235MOL0     C32326   6.742   9.322  -0.707 -0.0451  0.8580 -0.2614
  235MOL0     C32327   6.869   9.347  -0.773 -0.1385  1.0550 -0.1638
  235MOL0     O32328   6.905   9.267  -0.886  0.0823  0.4724 -0.6977
  235MOL0     C32329   7.013   9.170  -0.855  0.6303 -0.6014  0.8136
  235MOL0     C32330   7.065   9.118  -0.983 -0.1947 -0.3999  0.5165
  235MOL0     C32331   7.119   9.215  -1.078  0.9799  0.5282 -0.2090
  235MOL0     C32332   7.164   9.165  -1.214  0.3262  1.3953 -0.0964
  235MOL0     C32333   7.246   9.035  -1.198  0.4665 -0.2290 -0.4720
  235MOL0     C32334   7.304   8.974  -1.318  0.5260  0.0607 -0.2582
  235MOL0     C32335   7.390   9.058  -1.410 -1.1469 -1.0357  0.5188
  235MOL0     C32336   7.529   9.086  -1.360  0.0584  0.2214 -0.6863
  235MOL0    Cl32337   7.621   8.935  -1.372  0.2364 -0.0655  0.1089
  235MOL0     C32338   6.953   9.442  -0.724 -0.3384  0.8384 -0.3677
  235MOL0     C32339   6.927   9.500  -0.601 -0.3670 -0.4587  0.3424
  235MOL0     O32340   6.879   9.381  -0.302  0.2946  0.2651  0.7370
  235MOL0     C32341   6.707   9.656  -0.162  0.0916 -0.4843  1.0438
  235MOL0     C32342   6.683   9.715  -0.037 -0.3061 -0.3927 -1.0103
  235MOL0     N32343   6.433   9.856   0.747 -0.3254  0.7704 -0.4410
  235MOL0     N32344   6.406   9.790   0.858  0.3418  0.5441  0.6460
  235MOL0     C32345   6.894   8.794   1.016  0.0922  0.6404  0.1214
  235MOL0     C32346   7.025   8.779   1.070  0.0213  0.1613 -0.5766
  235MOL0     C32347   7.373   8.713   1.340 -0.3066 -0.1531  0.2216
  235MOL0     C32348   7.450   8.781   1.241 -0.0663  0.1289  0.1045
  235MOL0     C32349   7.592   8.763   1.254  0.9138 -0.8994  1.2176
  235MOL0     C32350   7.649   8.685   1.355  0.5406 -1.5160 -0.4395
  235MOL0     O32351   7.782   8.654   1.364  0.6115 -0.2456 -0.0750
  235MOL0     C32352   7.854   8.633   1.243 -0.2253 -0.2309 -1.0048
  235MOL0     C32353   7.969   8.525   1.254  0.0073  0.7441  0.3813
  235MOL0     C32354   8.083   8.575   1.334  0.7090 -0.2526  1.1964
  235MOL0     C32355   8.148   8.692   1.252 -0.4684  0.3380  0.2770
  235MOL0     C32356   8.199   8.649   1.122 -0.4671  0.4727 -1.0794
  235MOL0     C32357   8.246   8.603   1.019  0.0654 -0.4878  1.6918
  235MOL0     C32358   7.562   8.617   1.443 -0.8377  0.8928 -0.1643
  235MOL0     C32359   7.434   8.643   1.444  0.1220  0.7257 -0.5239
  235MOL0     C32360   7.364   8.557   1.551 -1.1011  0.9207  0.5191
  235MOL0     H32361   6.944   8.573   1.336 -1.9146 -4.5032 -3.4099
  235MOL0     H32362   6.724   8.611   1.257 -0.8990  0.9186 -0.5563
  235MOL0     H32363   6.572   8.780   1.234  1.6563 -0.0591 -0.2816
  235MOL0     H32364   6.458   8.804   1.112 -0.5069  0.4529 -1.8077
  235MOL0     H32365   6.546   9.020   1.232 -0.9664 -2.0130 -0.0647
  235MOL0     H32366   6.693   8.994   1.154 -0.2535 -1.0419  2.2197
  235MOL0     H32367   6.629   9.039   0.934  1.9296 -0.8722  3.1247
  235MOL0     H32368   6.454   9.051   0.982 -0.3162 -4.7315 -0.4930
  235MOL0     H32369   6.513   9.255   1.125 -0.6295 -1.8645  0.1213
  235MOL0     H32370   6.681   9.228   1.083  0.5942  1.2377 -0.2371
  235MOL0     H32371   6.480   9.314   0.875 -1.0749 -2.5754  1.2688
  235MOL0     H32372   6.649   9.278   0.856 -2.4042 -1.4969 -1.9566
  235MOL0     H32373   6.700   9.465   1.038  0.8973  1.4583 -0.8611
  235MOL0     H32374   6.653   9.508   0.880 -0.0296 -0.4359 -1.0090
  235MOL0     H32375   6.450   9.490   1.114 -1.8149 -2.6520 -1.9936
  235MOL0     H32376   6.408   9.532   0.953 -0.8262  3.3220  0.3198
  235MOL0     H32377   6.437   9.725   1.093 -1.4416 -0.0480 -2.3318
  235MOL0     H32378   6.611   9.692   1.104 -0.6329 -2.6064  0.9270
  235MOL0     H32379   6.734   9.746   0.820  0.9313  2.7876 -0.0900
  235MOL0     H32380   6.769   9.878   0.623  0.4850 -1.0425 -3.1027
  235MOL0     H32381   6.674  10.016   0.630  0.8848 -0.8425 -0.6829
  235MOL0     H32382   6.599   9.765   0.472 -0.5413  0.0313  2.5254
  235MOL0     H32383   6.529   9.919   0.450 -0.3825 -0.0603  2.1037
  235MOL0     H32384   6.744  10.001   0.391  3.4610 -1.4825  2.3068
  235MOL0     H32385   6.825   9.839   0.399 -0.4954  0.6523  0.0212
  235MOL0     H32386   6.597   9.877   0.211  0.3336  0.0359 -0.9635
  235MOL0     H32387   6.766   9.918   0.177  1.1501 -0.4117 -1.3203
  235MOL0     H32388   6.868   9.520   0.164 -0.4245 -1.8422 -0.0339
  235MOL0     H32389   7.052   9.422  -0.073  0.3097  0.9113  2.6405
  235MOL0     H32390   6.928   9.296  -0.083 -0.0733  0.6095 -1.3234
  235MOL0     H32391   6.968   9.362   0.069 -0.4724  1.9121  0.7232
  235MOL0     H32392   6.621   9.370  -0.547  0.2465  1.4141  0.7012
  235MOL0     H32393   6.666   9.253  -0.744 -0.3570 -0.8347  3.1190
  235MOL0     H32394   7.094   9.225  -0.806  1.6060 -1.6817  0.4649
  235MOL0     H32395   6.974   9.085  -0.798  0.2593  1.4461  3.8441
  235MOL0     H32396   7.142   9.046  -0.954  1.1920  1.2104  1.0229
  235MOL0     H32397   6.987   9.071  -1.044  0.6829 -2.3672  0.8463
  235MOL0     H32398   7.201   9.260  -1.022 -0.0320  0.8878  1.0201
  235MOL0     H32399   7.043   9.288  -1.108 -0.4908 -1.2493 -1.0413
  235MOL0     H32400   7.226   9.245  -1.257  1.9804 -0.2246 -0.8341
  235MOL0     H32401   7.076   9.153  -1.277  0.1514  3.1311 -0.2422
  235MOL0     H32402   7.322   9.064  -1.124  1.2344  2.8819 -2.2938
  235MOL0     H32403   7.182   8.957  -1.156  2.8835 -2.7263 -1.1286
  235MOL0     H32404   7.228   8.934  -1.386 -2.6056  3.1759  1.1510
  235MOL0     H32405   7.363   8.885  -1.295 -0.3610 -0.4708  0.0203
  235MOL0     H32406   7.345   9.157  -1.417  2.9072  1.4567  4.2316
  235MOL0     H32407   7.407   9.018  -1.510  1.6251  2.0465 -0.4281
  235MOL0     H32408   7.509   9.106  -1.254 -1.3584  6.7989 -1.7470
  235MOL0     H32409   7.569   9.178  -1.404  0.0602 -0.1659 -1.5040
  235MOL0     H32410   7.047   9.454  -0.777  0.9845 -3.3987  0.6560
  235MOL0     H32411   6.999   9.571  -0.561  0.8514  0.8629 -3.6994
  235MOL0     H32412   6.649   9.682  -0.249  0.6188  0.5647  0.9862
  235MOL0     H32413   6.611   9.795  -0.026 -1.8390 -1.8135 -0.1059
  235MOL0     H32414   6.877   8.851   0.926  0.1246 -1.6882 -1.4438
  235MOL0     H32415   7.108   8.821   1.014 -0.1531  0.8914 -0.2901
  235MOL0     H32416   7.406   8.839   1.161 -0.5532 -2.2648 -1.4810
  235MOL0     H32417   7.644   8.821   1.178  0.3078  0.7203  1.9998
  235MOL0     H32418   7.792   8.598   1.160  2.4898 -3.6562 -1.8372
  235MOL0     H32419   7.884   8.733   1.211 -1.4100  0.3794 -0.2930
  235MOL0     H32420   7.995   8.493   1.153  1.9134  1.4762  0.5828
  235MOL0     H32421   7.923   8.441   1.307  0.1690  0.6870  0.4339
  235MOL0     H32422   8.038   8.607   1.428 -3.3161 -2.8632  0.3813
  235MOL0     H32423   8.165   8.503   1.340  1.3153  0.3882  0.7587
  235MOL0     H32424   8.224   8.735   1.318  0.2358  0.2099 -0.4317
  235MOL0     H32425   8.081   8.778   1.243  1.7592  2.3688  1.8222
  235MOL0     H32426   8.286   8.553   0.933 -2.6138  1.1797 -0.7316
  235MOL0     H32427   7.606   8.549   1.515 -0.1961 -0.8914 -2.1312
  235MOL0     H32428   7.256   8.569   1.554 -1.6215 -2.1404 -1.5416
  235MOL0     H32429   7.381   8.450   1.533  0.3077  1.0716  0.8284
  235MOL0     H32430   7.405   8.570   1.651 -1.3336  1.2075  0.5756
  236MOL0     O32431  10.506   7.958   4.011 -0.0091  0.8941 -0.0565
  236MOL0     C32432  10.596   8.042   4.022 -0.0289 -0.1765 -0.3766
  236MOL0     O32433  10.694   8.034   4.119  0.1319 -0.5975 -0.7958
  236MOL0     C32434  10.704   7.924   4.204  0.6906  0.0729  0.8753
  236MOL0     C32435  10.751   7.952   4.332  0.1172  0.8053 -0.3074
  236MOL0     C32436  10.779   7.844   4.418 -0.1253  0.0694  0.1862
  236MOL0     C32437  10.760   7.704   4.396  0.0834 -0.1131  0.0643
  236MOL0     O32438  10.814   7.604   4.484 -0.2507  0.9442  0.9338
  236MOL0     C32439  10.908   7.517   4.415  0.7740  0.4711 -0.4334
  236MOL0     C32440  11.058   7.533   4.472  1.1474  0.3470  0.4739
  236MOL0     C32441  11.109   7.677   4.434 -0.5107 -0.0958 -0.8237
  236MOL0     C32442  11.260   7.712   4.466  0.1670  0.6989  0.4982
  236MOL0     C32443  11.296   7.859   4.435  0.9126  0.5768 -0.2546
  236MOL0     C32444  11.282   7.954   4.559 -1.0825  0.2844 -0.1553
  236MOL0     C32445  11.153   7.979   4.629 -0.1731  1.0720 -0.1749
  236MOL0     C32446  11.039   8.032   4.539  0.0310 -0.5520 -0.7525
  236MOL0     N32447  11.057   8.164   4.474  0.3551  0.5445 -0.7724
  236MOL0     C32448  11.027   8.283   4.541 -0.1997 -0.0879  1.0890
  236MOL0     C32449  11.035   8.374   4.441  0.0794 -0.4546  0.2697
  236MOL0     C32450  11.021   8.524   4.471 -0.8231 -0.0531  0.4170
  236MOL0     C32451  10.880   8.583   4.451 -0.4726  0.0515 -0.5848
  236MOL0     C32452  10.872   8.718   4.522  0.2767  0.4342 -0.2263
  236MOL0     C32453  10.737   8.788   4.494  0.7334  0.3684 -0.3145
  236MOL0     O32454  10.625   8.700   4.520 -0.3548 -0.5883 -0.0646
  236MOL0     C32455  10.564   8.699   4.640  0.4567  0.6738  0.3405
  236MOL0     C32456  10.615   8.744   4.757  0.6535 -0.5825 -0.4672
  236MOL0     C32457  10.552   8.739   4.886  0.4169  0.5628 -0.2229
  236MOL0     C32458  10.627   8.792   5.001 -0.3724  0.6450 -0.1269
  236MOL0     C32459  10.432   8.660   4.893 -0.6450 -0.7676 -0.1063
  236MOL0     C32460  10.369   8.617   5.018 -0.0419  0.5625 -0.2444
  236MOL0     O32461  10.253   8.537   5.003 -0.8070 -0.3569  0.6833
  236MOL0     C32462  10.194   8.514   5.122  0.8135 -0.3029 -0.8879
  236MOL0     C32463  10.087   8.585   5.165  0.2342 -0.2858  0.1325
  236MOL0     C32464  10.020   8.561   5.287 -0.2232  0.5333 -0.2917
  236MOL0     C32465  10.072   8.461   5.376 -0.1374  0.8731  0.3289
  236MOL0     O32466  10.029   8.435   5.503 -0.5206 -0.2166 -0.0886
  236MOL0     C32467  10.007   8.553   5.584 -0.6636 -0.1026 -0.4819
  236MOL0     C32468   9.862   8.595   5.601  0.5209  0.5698 -0.2771
  236MOL0     C32469   9.822   8.693   5.709 -0.0292  0.8335 -0.1511
  236MOL0     C32470   9.885   8.834   5.688 -0.2355  0.4880  0.8039
  236MOL0     C32471   9.909   8.902   5.822  0.4652 -0.0227 -0.2549
  236MOL0     C32472   9.944   9.050   5.794  0.5680  0.2154 -0.3150
  236MOL0     C32473  10.066   9.060   5.714  0.5470  0.2628 -0.3161
  236MOL0     C32474  10.133   9.198   5.743  1.2267  0.4929 -0.4639
  236MOL0    Cl32475  10.270   9.219   5.639 -0.5784 -0.1833 -0.3183
  236MOL0     C32476  10.164   8.369   5.312  0.1833  0.3422 -0.6838
  236MOL0     C32477  10.215   8.396   5.186  0.0089 -1.3970  1.4769
  236MOL0     O32478  10.436   8.640   5.123  0.1011 -0.1836 -0.9683
  236MOL0     C32479  10.369   8.619   4.771  0.1299  0.6459 -1.5415
  236MOL0     C32480  10.435   8.636   4.644  0.6869 -0.5501 -1.5719
  236MOL0     N32481  11.060   8.303   4.325  1.0585  0.1395 -0.8127
  236MOL0     N32482  11.068   8.176   4.340 -0.1659 -0.5616  0.8953
  236MOL0     C32483  10.705   7.681   4.269  0.2558  0.1525  0.3223
  236MOL0     C32484  10.693   7.786   4.164  0.0220 -0.5989 -0.3402
  236MOL0     C32485  10.592   8.162   3.935  0.3837  0.1840 -0.0507
  236MOL0     C32486  10.524   8.150   3.812  0.2668 -0.6768 -0.5220
  236MOL0     C32487  10.522   8.252   3.719  0.5005  0.4289  0.0161
  236MOL0     C32488  10.589   8.375   3.745 -0.0179 -0.5375  0.0421
  236MOL0     O32489  10.582   8.493   3.665 -0.1362  0.2041 -0.2291
  236MOL0     C32490  10.455   8.519   3.595  0.1942  0.3107  0.4168
  236MOL0     C32491  10.423   8.671   3.588 -0.4836 -0.1368  0.6906
  236MOL0     C32492  10.296   8.690   3.513  0.6324 -0.8009 -0.6322
  236MOL0     C32493  10.239   8.836   3.531 -0.3344  0.3088 -0.2412
  236MOL0     C32494  10.107   8.838   3.478  0.6671 -0.0274 -0.1779
  236MOL0     C32495  10.005   8.846   3.415  0.1230 -0.3142  0.7690
  236MOL0     C32496  10.669   8.384   3.858  0.0576 -0.3082 -0.1563
  236MOL0     C32497  10.676   8.277   3.954 -0.3098 -0.5626 -0.2539
  236MOL0     C32498  10.768   8.295   4.066  0.1253 -0.4888 -0.1795
  236MOL0     H32499  10.763   8.054   4.367  1.6067 -0.2230  2.4982
  236MOL0     H32500  10.817   7.865   4.517 -0.3310 -1.9664  0.7397
  236MOL0     H32501  10.913   7.531   4.306 -1.0442 -1.8530 -0.9062
  236MOL0     H32502  10.856   7.422   4.435 -0.5072  0.7657 -2.0610
  236MOL0     H32503  11.058   7.539   4.581 -1.9617 -1.7949  0.7374
  236MOL0     H32504  11.124   7.456   4.432 -2.7840 -3.5179  0.6079
  236MOL0     H32505  11.096   7.695   4.327 -2.4267  3.1754 -0.1697
  236MOL0     H32506  11.054   7.748   4.496  0.3828  0.8874 -1.1414
  236MOL0     H32507  11.285   7.692   4.571 -1.3806 -2.2494  0.4148
  236MOL0     H32508  11.322   7.641   4.410  0.9565  1.8908 -0.1854
  236MOL0     H32509  11.226   7.907   4.365 -1.6168 -2.7263 -0.2554
  236MOL0     H32510  11.397   7.860   4.393  0.4515  1.0031 -1.3997
  236MOL0     H32511  11.345   7.913   4.637 -2.5972 -0.8396  0.5174
  236MOL0     H32512  11.325   8.050   4.528  0.4670 -0.5417 -0.6371
  236MOL0     H32513  11.170   8.056   4.704 -0.7314  0.3488  0.7209
  236MOL0     H32514  11.129   7.889   4.688  1.7451  0.9241  0.4812
  236MOL0     H32515  11.016   7.958   4.461 -0.7284 -1.3922  0.2442
  236MOL0     H32516  10.943   8.040   4.592  0.8615  0.1479  0.6980
  236MOL0     H32517  11.000   8.288   4.646 -1.0179 -2.4265  1.0488
  236MOL0     H32518  11.091   8.585   4.413 -1.9061  0.1453 -0.7243
  236MOL0     H32519  11.033   8.527   4.580  0.6000  0.3150  0.2713
  236MOL0     H32520  10.860   8.590   4.344  1.4069  0.3070 -0.9524
  236MOL0     H32521  10.803   8.514   4.487 -1.0788  1.2322  0.4492
  236MOL0     H32522  10.890   8.695   4.627  0.3673 -3.3915 -0.9314
  236MOL0     H32523  10.955   8.778   4.484  0.0850 -0.3944 -2.0703
  236MOL0     H32524  10.726   8.878   4.555 -0.6435 -0.2037  0.3108
  236MOL0     H32525  10.732   8.815   4.388 -2.0746  0.8277 -0.1478
  236MOL0     H32526  10.714   8.788   4.763  0.1863  0.3218  3.0596
  236MOL0     H32527  10.566   8.858   5.064  1.8489  3.1546 -0.4413
  236MOL0     H32528  10.710   8.859   4.978 -0.8303  1.9633  1.7546
  236MOL0     H32529  10.665   8.708   5.059 -3.6777 -0.8914  0.0905
  236MOL0     H32530  10.056   8.672   5.107  0.4250  0.6954  1.4491
  236MOL0     H32531   9.929   8.609   5.322 -2.8903 -4.2236  0.2171
  236MOL0     H32532  10.050   8.538   5.683  0.2309 -1.6121 -1.0444
  236MOL0     H32533  10.063   8.637   5.542  0.5318 -0.8093 -0.3573
  236MOL0     H32534   9.824   8.635   5.506  0.8530  1.8108  0.0981
  236MOL0     H32535   9.815   8.499   5.624  0.3565  0.8472  0.5500
  236MOL0     H32536   9.853   8.650   5.805  3.9863  1.7846 -0.8243
  236MOL0     H32537   9.713   8.698   5.713 -0.3987 -3.8701  2.0045
  236MOL0     H32538   9.831   8.903   5.622  1.6539  2.2929  1.0352
  236MOL0     H32539   9.987   8.826   5.650  0.3952  2.7394  1.8042
  236MOL0     H32540   9.820   8.893   5.886  0.5883  1.0639  0.0911
  236MOL0     H32541   9.987   8.849   5.877  0.7170  3.0012  2.6105
  236MOL0     H32542   9.945   9.099   5.891  1.7670 -0.4176  0.0091
  236MOL0     H32543   9.860   9.085   5.733 -1.3296 -2.1414  0.7526
  236MOL0     H32544  10.034   9.066   5.610  0.0623 -1.0071 -0.2496
  236MOL0     H32545  10.129   8.970   5.713  0.2465  0.0390 -2.0313
  236MOL0     H32546  10.170   9.191   5.846 -1.6037  0.4034  0.6245
  236MOL0     H32547  10.062   9.282   5.742  1.3602  0.7204  2.0350
  236MOL0     H32548  10.179   8.273   5.361 -3.1376  0.4789  0.8795
  236MOL0     H32549  10.297   8.339   5.143  2.0433  3.4945 -2.0190
  236MOL0     H32550  10.276   8.564   4.765 -1.0739  2.5901 -1.3775
  236MOL0     H32551  10.388   8.599   4.554 -0.4532  0.0959 -1.2606
  236MOL0     H32552  10.685   7.580   4.235 -0.9109  0.8700 -1.2547
  236MOL0     H32553  10.643   7.752   4.074 -0.1411 -3.9748  0.8903
  236MOL0     H32554  10.470   8.058   3.789  1.0796 -1.4712  0.6341
  236MOL0     H32555  10.474   8.240   3.622  1.2510 -1.4666 -0.1733
  236MOL0     H32556  10.456   8.490   3.490 -2.5325 -0.6979  0.6026
  236MOL0     H32557  10.378   8.465   3.651 -0.1266  0.6914  0.3452
  236MOL0     H32558  10.510   8.722   3.546 -1.7855  1.2418 -0.4471
  236MOL0     H32559  10.406   8.692   3.694 -1.6708  0.1885  0.4516
  236MOL0     H32560  10.318   8.678   3.407 -0.9497 -0.5798 -1.0086
  236MOL0     H32561  10.225   8.616   3.550  1.3943 -0.8308  0.8276
  236MOL0     H32562  10.295   8.914   3.479  1.7512 -0.9215  0.0363
  236MOL0     H32563  10.238   8.850   3.640 -1.1834 -2.3448  0.1712
  236MOL0     H32564   9.918   8.840   3.353  0.5612 -1.3702  0.2264
  236MOL0     H32565  10.719   8.480   3.872  2.2553 -1.6471  2.0954
  236MOL0     H32566  10.788   8.402   4.075  0.9176 -0.6898  0.6055
  236MOL0     H32567  10.724   8.252   4.157  0.2687 -0.9661 -0.3337
  236MOL0     H32568  10.864   8.247   4.045  0.8622  0.8805 -0.0194
  237MOL0     O32569   3.544   6.802   6.030  0.1792  0.2917 -0.2114
  237MOL0     C32570   3.519   6.834   6.147  0.2285  0.5743  0.0787
  237MOL0     O32571   3.597   6.911   6.232 -0.2426  0.0096  0.4613
  237MOL0     C32572   3.691   6.995   6.180 -0.1598  0.5820 -0.1446
  237MOL0     C32573   3.671   7.061   6.058  0.6102 -0.6927  0.3521
  237MOL0     C32574   3.773   7.150   6.009 -0.1634 -0.1434 -0.6234
  237MOL0     C32575   3.877   7.194   6.094  0.6688  0.0768  0.3916
  237MOL0     O32576   3.982   7.264   6.039  0.0712 -0.6896 -0.0785
  237MOL0     C32577   4.030   7.379   6.111  0.2519 -0.0240 -0.4908
  237MOL0     C32578   4.129   7.467   6.020 -0.1159 -0.2608 -0.0997
  237MOL0     C32579   4.256   7.395   5.976 -0.3439 -0.0929 -0.4892
  237MOL0     C32580   4.358   7.482   5.912 -0.2330 -0.0026 -0.2465
  237MOL0     C32581   4.453   7.398   5.828 -0.9373  0.9285 -0.3674
  237MOL0     C32582   4.551   7.312   5.917  0.2838  0.2576 -0.1761
  237MOL0     C32583   4.658   7.225   5.845  0.8419  0.1159  0.3481
  237MOL0     C32584   4.784   7.191   5.939  0.5290  0.2416 -0.2662
  237MOL0     N32585   4.913   7.147   5.873  1.2048  0.5337 -0.7243
  237MOL0     C32586   5.037   7.164   5.922 -1.0646  0.3088  0.1053
  237MOL0     C32587   5.119   7.084   5.848  0.2709 -0.5512  0.1636
  237MOL0     C32588   5.253   7.049   5.865  0.1234 -0.1908  0.7507
  237MOL0     C32589   5.321   7.119   5.985 -0.7778  0.0006 -0.2963
  237MOL0     C32590   5.473   7.086   6.014 -0.1960  0.1692 -0.4238
  237MOL0     C32591   5.511   6.947   5.982 -0.0580  0.1026  0.2693
  237MOL0     O32592   5.645   6.954   6.008 -1.0511  0.9952 -0.2497
  237MOL0     C32593   5.718   6.837   6.006  0.0392  0.9988 -0.4889
  237MOL0     C32594   5.712   6.735   5.905  0.1688 -0.4123 -0.2003
  237MOL0     C32595   5.767   6.602   5.923  0.0064 -0.3374 -0.6878
  237MOL0     C32596   5.753   6.510   5.804  0.4969  1.5579  0.4750
  237MOL0     C32597   5.820   6.573   6.053 -0.0128  0.8751 -0.8072
  237MOL0     C32598   5.859   6.436   6.095 -0.3292  0.3630 -0.1931
  237MOL0     O32599   5.802   6.336   6.027 -0.5832  0.2155 -0.3970
  237MOL0     C32600   5.827   6.208   6.080  0.4752  0.0782  0.2305
  237MOL0     C32601   5.912   6.130   5.996  0.0824  0.1841  0.4227
  237MOL0     C32602   5.941   5.999   6.032  0.7009 -0.3849 -0.0477
  237MOL0     C32603   5.892   5.944   6.151 -0.1120 -0.1648 -0.4808
  237MOL0     O32604   5.931   5.822   6.199  0.2259  0.2635  0.6006
  237MOL0     C32605   6.028   5.754   6.123 -0.3374  0.0138  0.4711
  237MOL0     C32606   6.090   5.633   6.181  1.3239 -0.9090 -0.0294
  237MOL0     C32607   6.146   5.533   6.076 -1.0233  0.7964  0.2163
  237MOL0     C32608   6.205   5.415   6.156 -0.6300 -0.2323  1.3290
  237MOL0     C32609   6.241   5.297   6.056 -1.0473  0.4058  0.3787
  237MOL0     C32610   6.293   5.181   6.138 -0.4834  0.0684 -0.4566
  237MOL0     C32611   6.347   5.068   6.048 -0.6053 -0.3800  0.8417
  237MOL0     C32612   6.303   4.931   6.100 -0.6615 -0.2109  0.6067
  237MOL0    Cl32613   6.383   4.916   6.265 -0.0467  0.1056 -0.0150
  237MOL0     C32614   5.818   6.023   6.238 -0.1474  0.1896 -0.4401
  237MOL0     C32615   5.784   6.155   6.204  0.0324 -0.1623 -0.0723
  237MOL0     O32616   5.933   6.419   6.194 -0.0577 -0.7452 -0.3395
  237MOL0     C32617   5.834   6.677   6.148 -0.1242 -1.3078  0.6937
  237MOL0     C32618   5.783   6.801   6.130 -0.1669 -0.8179 -0.9547
  237MOL0     N32619   5.041   7.019   5.753 -0.0196 -1.0286  0.1847
  237MOL0     N32620   4.920   7.053   5.774 -0.1794 -0.8442  0.5960
  237MOL0     C32621   3.869   7.147   6.233 -0.0477 -0.4186  0.3674
  237MOL0     C32622   3.770   7.055   6.274  0.2115 -0.3095 -0.0832
  237MOL0     C32623   3.422   6.738   6.219  0.1207  0.3906 -0.4037
  237MOL0     C32624   3.424   6.743   6.357  0.5978  0.3323 -0.0915
  237MOL0     C32625   3.343   6.656   6.433 -0.9783 -1.0324  0.2497
  237MOL0     C32626   3.256   6.569   6.369  0.4477  0.9136  1.1557
  237MOL0     O32627   3.159   6.492   6.434 -0.1436  0.4731 -0.3046
  237MOL0     C32628   3.123   6.528   6.564 -0.4998 -0.3850 -0.9105
  237MOL0     C32629   3.001   6.433   6.586 -0.2571  0.7682 -0.4940
  237MOL0     C32630   3.026   6.287   6.584  0.5789  0.0586  0.2593
  237MOL0     C32631   2.892   6.207   6.597 -0.2316  0.1089 -0.0387
  237MOL0     C32632   2.828   6.242   6.729 -0.4870 -0.5433  0.3056
  237MOL0     C32633   2.776   6.268   6.832 -0.0717  0.5044  0.4111
  237MOL0     C32634   3.249   6.568   6.228 -0.4898 -0.1722 -0.6142
  237MOL0     C32635   3.329   6.655   6.151 -0.0941  0.0519  0.4842
  237MOL0     C32636   3.299   6.648   6.003 -1.0097 -0.5130  1.0093
  237MOL0     H32637   3.599   7.031   5.983  0.4966  0.2846  0.0594
  237MOL0     H32638   3.782   7.184   5.907  7.2629  0.8689 -0.2091
  237MOL0     H32639   4.083   7.339   6.198  1.1775 -1.4849 -1.6837
  237MOL0     H32640   3.946   7.442   6.142 -0.5394 -1.4092  0.2401
  237MOL0     H32641   4.079   7.499   5.928  0.1240  2.9394  0.7344
  237MOL0     H32642   4.161   7.558   6.072 -0.3102 -0.6432  0.7038
  237MOL0     H32643   4.302   7.354   6.066 -1.1590 -0.4805 -0.2369
  237MOL0     H32644   4.229   7.318   5.903 -0.3048  0.2021 -0.8161
  237MOL0     H32645   4.304   7.559   5.855  1.3993 -0.4177 -2.5153
  237MOL0     H32646   4.411   7.528   5.996 -0.3319 -3.4392  1.8756
  237MOL0     H32647   4.519   7.464   5.771  0.9815 -1.2507 -0.8092
  237MOL0     H32648   4.397   7.332   5.762 -1.5870 -0.4524  1.4720
  237MOL0     H32649   4.587   7.389   5.986 -1.8715  1.2062 -0.0375
  237MOL0     H32650   4.485   7.248   5.975 -1.4809  2.0459 -0.1077
  237MOL0     H32651   4.693   7.283   5.759 -0.1087 -2.2406 -1.7398
  237MOL0     H32652   4.608   7.133   5.813  2.8464 -0.4986 -1.1876
  237MOL0     H32653   4.808   7.283   5.993 -1.0521  2.8532 -3.5799
  237MOL0     H32654   4.757   7.124   6.021  2.0551 -1.4540 -1.0875
  237MOL0     H32655   5.067   7.235   5.999  0.0116 -2.6123  2.5970
  237MOL0     H32656   5.294   7.097   5.775 -1.9084  1.5392  0.6807
  237MOL0     H32657   5.282   6.944   5.856  0.9431  0.0095  0.9686
  237MOL0     H32658   5.306   7.224   5.962 -3.0458  0.3162  2.2094
  237MOL0     H32659   5.271   7.093   6.079  2.6276 -4.2052  0.7184
  237MOL0     H32660   5.532   7.162   5.961  2.2214  1.0493  3.1817
  237MOL0     H32661   5.487   7.113   6.119 -5.0770  2.4675 -0.1070
  237MOL0     H32662   5.460   6.866   6.036 -1.4802  0.9760  0.2896
  237MOL0     H32663   5.488   6.934   5.876  0.3227 -1.5601  0.3703
  237MOL0     H32664   5.665   6.764   5.812  0.4427 -1.8017 -0.7985
  237MOL0     H32665   5.844   6.458   5.773 -0.7222 -1.3676  1.4072
  237MOL0     H32666   5.713   6.571   5.723  2.0310 -1.9429 -3.2668
  237MOL0     H32667   5.687   6.424   5.819  0.0105  1.8392 -0.0376
  237MOL0     H32668   5.958   6.160   5.903  3.8449 -2.3533  1.2054
  237MOL0     H32669   5.997   5.945   5.957  1.9925  1.7424 -0.7134
  237MOL0     H32670   5.972   5.715   6.037 -2.3440 -0.0309  1.7417
  237MOL0     H32671   6.111   5.812   6.082  0.9559 -2.7029 -1.0776
  237MOL0     H32672   6.166   5.655   6.257  0.5914 -2.2103  1.1287
  237MOL0     H32673   6.009   5.582   6.233  0.9529 -0.0169  0.2909
  237MOL0     H32674   6.215   5.582   6.006 -3.0157  4.5923  0.6483
  237MOL0     H32675   6.070   5.483   6.014 -0.5707 -0.0221  0.3017
  237MOL0     H32676   6.122   5.380   6.218 -0.5420  0.5483  1.9117
  237MOL0     H32677   6.296   5.447   6.209  0.4087 -0.1449 -0.4214
  237MOL0     H32678   6.149   5.273   6.001 -1.1836  0.8195  0.4216
  237MOL0     H32679   6.314   5.326   5.980 -1.6031  0.7214 -0.0404
  237MOL0     H32680   6.208   5.153   6.200  0.7086  0.2226  1.3227
  237MOL0     H32681   6.382   5.222   6.188  1.6566 -1.8970 -2.4145
  237MOL0     H32682   6.457   5.066   6.051 -0.6359 -0.9206  1.9365
  237MOL0     H32683   6.321   5.082   5.943 -0.4856  1.2581  1.0105
  237MOL0     H32684   6.342   4.850   6.038 -0.9317 -0.3856  0.6646
  237MOL0     H32685   6.195   4.918   6.096 -0.8682  1.4493  0.2796
  237MOL0     H32686   5.773   5.972   6.322  1.5585 -2.0801 -0.7997
  237MOL0     H32687   5.718   6.214   6.267 -3.4366 -3.5091 -0.2551
  237MOL0     H32688   5.871   6.651   6.247  0.8674  0.3284  0.7891
  237MOL0     H32689   5.765   6.881   6.202  1.0866 -1.0626 -0.3482
  237MOL0     H32690   3.950   7.176   6.299 -1.7245  0.4662  2.1208
  237MOL0     H32691   3.775   7.013   6.374  1.3605 -2.9634 -1.1748
  237MOL0     H32692   3.487   6.815   6.409  2.2095 -1.4088  0.4914
  237MOL0     H32693   3.335   6.670   6.540 -2.4341 -1.1742  0.1884
  237MOL0     H32694   3.198   6.521   6.643 -0.5271  0.2898 -0.8241
  237MOL0     H32695   3.085   6.630   6.573 -1.0652 -0.6411 -0.3184
  237MOL0     H32696   2.916   6.441   6.517 -1.1013 -0.6354  0.3367
  237MOL0     H32697   2.966   6.461   6.686  0.8839 -1.2769  0.5387
  237MOL0     H32698   3.076   6.255   6.492 -1.7711 -0.5914 -0.8733
  237MOL0     H32699   3.095   6.250   6.661  1.5600  0.3238 -0.4794
  237MOL0     H32700   2.920   6.101   6.594  1.0082  0.3599  1.5314
  237MOL0     H32701   2.825   6.229   6.513  0.6882  0.9959 -0.5604
  237MOL0     H32702   2.748   6.269   6.935  2.0708 -2.6237  1.1442
  237MOL0     H32703   3.171   6.510   6.181 -0.5520 -1.7934  1.3446
  237MOL0     H32704   3.209   6.599   5.965 -0.7179  0.6679 -1.3798
  237MOL0     H32705   3.292   6.748   5.960  2.1030  0.5488  2.6558
  237MOL0     H32706   3.384   6.602   5.952 -0.0571  3.0193 -0.9271
  238MOL0     O32707   8.352   6.669   5.000 -0.1380  0.7081 -0.3964
  238MOL0     C32708   8.309   6.777   5.034 -0.3873  0.0823  0.0775
  238MOL0     O32709   8.384   6.873   5.096 -0.9561  0.7646  1.0575
  238MOL0     C32710   8.501   6.833   5.151 -0.2699 -0.8685  0.5105
  238MOL0     C32711   8.499   6.782   5.279  0.0880 -0.1681 -0.2111
  238MOL0     C32712   8.609   6.757   5.353 -0.0531  1.2894 -0.1688
  238MOL0     C32713   8.736   6.779   5.292  0.2825 -0.3368 -0.4602
  238MOL0     O32714   8.854   6.772   5.367  0.3422 -0.1036  1.0029
  238MOL0     C32715   8.867   6.846   5.485  0.9588  0.4309 -0.2151
  238MOL0     C32716   8.899   6.993   5.443 -0.8168  0.3092  0.1598
  238MOL0     C32717   9.052   7.021   5.425  0.6467  0.8791  0.2057
  238MOL0     C32718   9.099   7.163   5.451  0.9492 -0.5520 -0.6596
  238MOL0     C32719   9.246   7.168   5.438 -0.4345 -0.2036  0.9929
  238MOL0     C32720   9.336   7.076   5.526  1.0788 -0.4687 -0.7521
  238MOL0     C32721   9.489   7.084   5.498 -0.3149  0.3780  0.2069
  238MOL0     C32722   9.574   7.054   5.624 -0.3822 -0.8576 -0.1661
  238MOL0     N32723   9.698   6.989   5.576  0.0581  0.1637  0.4790
  238MOL0     C32724   9.791   7.026   5.489 -0.0243 -0.0320  0.1559
  238MOL0     C32725   9.877   6.924   5.461  0.3884  0.4694  0.9758
  238MOL0     C32726  10.003   6.927   5.373  0.4295 -0.1973  0.5015
  238MOL0     C32727  10.013   6.799   5.305 -0.1080 -0.2453  1.0754
  238MOL0     C32728  10.150   6.786   5.232 -0.3339 -0.5486 -0.0962
  238MOL0     C32729  10.162   6.679   5.123 -0.0795 -0.1891  0.3062
  238MOL0     O32730  10.271   6.711   5.035 -0.2165 -0.5272 -0.3206
  238MOL0     C32731  10.394   6.645   5.061  0.2138  0.8428  0.8715
  238MOL0     C32732  10.415   6.550   5.162 -0.4766  0.5197 -0.3726
  238MOL0     C32733  10.546   6.496   5.187 -0.6840 -0.4363  0.0829
  238MOL0     C32734  10.558   6.407   5.306 -0.2298 -0.4875  0.1259
  238MOL0     C32735  10.659   6.529   5.099  0.2810 -1.3763 -0.3107
  238MOL0     C32736  10.796   6.468   5.121  1.1176 -1.0028 -0.0010
  238MOL0     O32737  10.899   6.545   5.116  0.0025  0.9866 -0.4656
  238MOL0     C32738  11.023   6.486   5.153  0.1475 -0.6418  1.2413
  238MOL0     C32739  11.052   6.428   5.276 -0.2377  0.1491 -0.3111
  238MOL0     C32740  11.188   6.396   5.309  1.0208  0.5462  0.5427
  238MOL0     C32741  11.294   6.409   5.206  0.3920  0.0493 -0.9987
  238MOL0     O32742  11.423   6.364   5.226  0.1338 -0.4664  0.1604
  238MOL0     C32743  11.467   6.361   5.366 -0.0942 -0.8369 -0.0770
  238MOL0     C32744  11.455   6.218   5.431 -1.1336  0.3428 -0.0519
  238MOL0     C32745  11.538   6.112   5.352  0.2633  0.6991  0.3755
  238MOL0     C32746  11.524   5.981   5.436 -0.1003 -0.0896 -0.2616
  238MOL0     C32747  11.616   5.873   5.386 -0.4883 -0.4482 -0.1322
  238MOL0     C32748  11.624   5.751   5.482 -0.0993  0.1185 -0.0237
  238MOL0     C32749  11.752   5.679   5.462  0.1768  0.0137  0.0095
  238MOL0     C32750  11.862   5.679   5.562  0.0115  0.1541 -0.0374
  238MOL0    Cl32751  11.804   5.608   5.713 -0.0518  0.0058  0.3220
  238MOL0     C32752  11.265   6.463   5.086 -0.4461 -0.2272  0.1925
  238MOL0     C32753  11.133   6.505   5.063 -0.0854 -0.9604 -0.5769
  238MOL0     O32754  10.800   6.349   5.153 -0.1037 -0.3490 -0.9901
  238MOL0     C32755  10.625   6.618   4.989 -0.4524  0.2349  0.4644
  238MOL0     C32756  10.499   6.669   4.977 -0.6123 -0.9150 -0.1445
  238MOL0     N32757   9.830   6.827   5.551 -0.3570 -0.4014  0.8387
  238MOL0     N32758   9.723   6.862   5.612 -0.3582  0.0793  0.4940
  238MOL0     C32759   8.740   6.809   5.157  0.1579 -0.7068  1.3573
  238MOL0     C32760   8.621   6.844   5.085  0.1336 -0.2083 -0.0077
  238MOL0     C32761   8.170   6.796   5.010 -0.4083  0.6089  0.8942
  238MOL0     C32762   8.096   6.711   4.920  0.1679 -0.2001  1.6637
  238MOL0     C32763   7.961   6.725   4.886  0.4871 -0.1353 -0.1273
  238MOL0     C32764   7.891   6.830   4.944 -0.0062 -0.0418 -0.9145
  238MOL0     O32765   7.754   6.849   4.904 -0.3461 -0.5334 -0.1841
  238MOL0     C32766   7.666   6.946   4.969 -0.6732  0.6575  0.8248
  238MOL0     C32767   7.533   6.911   4.905  1.0132 -0.9409 -0.0946
  238MOL0     C32768   7.412   6.992   4.955  0.6348  1.8837  0.8677
  238MOL0     C32769   7.293   6.902   5.003 -0.1290  0.6728 -0.2636
  238MOL0     C32770   7.175   6.976   5.049  0.8731  0.1755 -1.1254
  238MOL0     C32771   7.083   7.045   5.089 -0.1294  0.2461 -0.2884
  238MOL0     C32772   7.954   6.916   5.035 -0.1545 -0.0758  0.5794
  238MOL0     C32773   8.089   6.903   5.064 -0.0962 -0.1222 -0.0222
  238MOL0     C32774   8.143   7.007   5.163  0.7459 -0.5816 -0.0813
  238MOL0     H32775   8.400   6.774   5.324 -0.0440 -1.2179 -0.6454
  238MOL0     H32776   8.597   6.726   5.457 -0.9071  1.7348 -0.1210
  238MOL0     H32777   8.938   6.800   5.553  0.7672 -1.6255 -1.3117
  238MOL0     H32778   8.778   6.849   5.549  1.0646 -2.1535  0.1881
  238MOL0     H32779   8.848   7.028   5.353 -1.9270  0.0365  0.6683
  238MOL0     H32780   8.862   7.058   5.522  1.9725  1.0063  1.0061
  238MOL0     H32781   9.106   6.949   5.487 -4.4677 -1.3811  2.5190
  238MOL0     H32782   9.076   6.995   5.321 -0.1270 -0.3986  0.3279
  238MOL0     H32783   9.051   7.243   5.394  0.1963 -1.0067 -0.6686
  238MOL0     H32784   9.065   7.190   5.551  0.9327 -0.7020 -0.6241
  238MOL0     H32785   9.276   7.266   5.475  0.3822 -0.3071  0.6275
  238MOL0     H32786   9.278   7.169   5.334  3.5178 -0.7381  2.0065
  238MOL0     H32787   9.316   7.099   5.631 -0.3354  0.8031 -1.2579
  238MOL0     H32788   9.307   6.973   5.506 -0.9233  0.3328 -2.3940
  238MOL0     H32789   9.523   7.182   5.466 -0.3263  0.4393  0.3788
  238MOL0     H32790   9.518   7.011   5.422  0.3216 -0.0195  0.8221
  238MOL0     H32791   9.611   7.144   5.673 -0.7106 -0.1162 -1.2296
  238MOL0     H32792   9.523   6.990   5.697  1.2520  0.1930  1.9691
  238MOL0     H32793   9.797   7.120   5.435 -2.9693 -2.8097 -6.1030
  238MOL0     H32794  10.087   6.946   5.440 -0.0638 -2.7304  1.9819
  238MOL0     H32795   9.994   7.006   5.298 -1.6998 -2.0685 -1.3851
  238MOL0     H32796  10.001   6.716   5.376 -0.9472  0.9779  2.4174
  238MOL0     H32797   9.924   6.784   5.242  1.8893  0.9536 -2.2934
  238MOL0     H32798  10.170   6.887   5.196 -0.7568 -0.0548  1.0202
  238MOL0     H32799  10.228   6.773   5.308 -0.4151  0.9061  0.2612
  238MOL0     H32800  10.157   6.578   5.166  3.3805 -1.0178 -0.9027
  238MOL0     H32801  10.074   6.698   5.061  0.1590  1.0491  0.3226
  238MOL0     H32802  10.335   6.533   5.235 -1.6945  2.8643 -1.0489
  238MOL0     H32803  10.591   6.306   5.277  2.3866  0.0008  1.0704
  238MOL0     H32804  10.474   6.412   5.375  0.7602 -1.9385  1.5234
  238MOL0     H32805  10.642   6.440   5.367  1.7316 -0.2301 -2.5176
  238MOL0     H32806  10.964   6.421   5.339  0.3867 -0.1741  0.5458
  238MOL0     H32807  11.224   6.346   5.398  0.7250 -0.9160 -0.1209
  238MOL0     H32808  11.572   6.391   5.360  0.4689 -2.8674 -1.4794
  238MOL0     H32809  11.414   6.436   5.425  2.3717 -1.5390  3.2691
  238MOL0     H32810  11.487   6.239   5.534 -0.5690 -0.5104 -0.0491
  238MOL0     H32811  11.350   6.186   5.432 -0.4754 -2.0078 -1.0728
  238MOL0     H32812  11.643   6.141   5.361  0.0313  1.5010  0.6194
  238MOL0     H32813  11.516   6.103   5.245  2.0367 -0.7171  0.0830
  238MOL0     H32814  11.418   5.952   5.429 -0.4581  0.6765  1.4420
  238MOL0     H32815  11.539   6.005   5.542  1.2409 -0.1790 -0.4195
  238MOL0     H32816  11.580   5.840   5.289 -1.2507  1.6974 -0.6200
  238MOL0     H32817  11.713   5.924   5.380 -1.3455  1.4471  1.1786
  238MOL0     H32818  11.544   5.681   5.456 -0.6217  0.7061 -0.0195
  238MOL0     H32819  11.627   5.775   5.589 -0.1549 -2.8462  0.7264
  238MOL0     H32820  11.785   5.700   5.360 -0.2730  0.9207  0.0428
  238MOL0     H32821  11.731   5.573   5.450 -1.6614  0.5145 -1.7052
  238MOL0     H32822  11.891   5.781   5.585  0.3778 -0.4557  2.4794
  238MOL0     H32823  11.957   5.627   5.542 -0.3925 -0.7249  0.2421
  238MOL0     H32824  11.338   6.453   5.006  1.8548 -2.2341  2.3873
  238MOL0     H32825  11.120   6.555   4.968  0.3657 -0.2908 -0.2955
  238MOL0     H32826  10.698   6.653   4.917  0.1930  0.2885  1.1387
  238MOL0     H32827  10.488   6.751   4.906  1.3876 -1.8165 -1.5862
  238MOL0     H32828   8.832   6.808   5.099 -0.3863  3.0657  0.1370
  238MOL0     H32829   8.617   6.852   4.976  0.2879  0.2178  0.0185
  238MOL0     H32830   8.149   6.625   4.882  1.3181  0.5596  1.4982
  238MOL0     H32831   7.905   6.658   4.820  0.8117  1.1029 -1.7264
  238MOL0     H32832   7.663   6.912   5.073 -0.3917 -1.3284  0.2389
  238MOL0     H32833   7.707   7.046   4.952 -0.4833  0.4258 -0.1726
  238MOL0     H32834   7.515   6.804   4.923  2.0717 -1.4036 -1.6183
  238MOL0     H32835   7.555   6.916   4.798  1.2011 -0.0687 -0.0151
  238MOL0     H32836   7.447   7.050   5.041 -1.6974  0.4141  2.9458
  238MOL0     H32837   7.366   7.051   4.875 -1.4828  0.9868  1.3566
  238MOL0     H32838   7.335   6.834   5.077  0.0924  1.5484  0.4291
  238MOL0     H32839   7.266   6.834   4.922 -1.1312 -0.7258  1.1919
  238MOL0     H32840   7.014   7.120   5.123  0.9818  1.3307 -0.3566
  238MOL0     H32841   7.890   6.995   5.072 -1.1788  0.3127 -1.8010
  238MOL0     H32842   8.238   7.039   5.121  0.1277 -1.3509 -2.2161
  238MOL0     H32843   8.081   7.096   5.179 -0.0971 -1.2689  0.6334
  238MOL0     H32844   8.148   6.962   5.262 -0.5178  5.5252  3.2368
  239MOL0     O32845   5.904   8.470   8.178 -0.5245  0.9339 -0.7326
  239MOL0     C32846   5.867   8.354   8.186  0.2490 -0.1009  0.6723
  239MOL0     O32847   5.761   8.300   8.107 -0.1171 -0.4040 -0.0928
  239MOL0     C32848   5.696   8.380   8.012 -0.2161  0.7599 -0.0761
  239MOL0     C32849   5.647   8.506   8.054 -0.1424  0.0842 -1.0139
  239MOL0     C32850   5.546   8.570   7.987  0.2336 -0.5383  0.1547
  239MOL0     C32851   5.506   8.531   7.858  0.3986 -0.3082 -1.6094
  239MOL0     O32852   5.411   8.612   7.785 -0.0908  0.2378 -0.1549
  239MOL0     C32853   5.322   8.540   7.688  0.6967  0.0333  0.4869
  239MOL0     C32854   5.186   8.605   7.713  0.1944  0.4719 -0.4631
  239MOL0     C32855   5.072   8.528   7.644 -0.2550  0.0311  0.3371
  239MOL0     C32856   4.950   8.615   7.653  0.7007 -0.4829  0.7109
  239MOL0     C32857   4.818   8.542   7.593  0.3335  0.3633 -0.2344
  239MOL0     C32858   4.688   8.618   7.591  0.4606 -0.6045 -0.2245
  239MOL0     C32859   4.684   8.751   7.504 -0.0235 -0.5699 -0.8990
  239MOL0     C32860   4.703   8.721   7.349  1.3550  0.4998 -0.1532
  239MOL0     N32861   4.682   8.847   7.265 -0.1130  0.3458  0.0685
  239MOL0     C32862   4.791   8.925   7.225 -0.2862  0.2939  0.4139
  239MOL0     C32863   4.733   9.042   7.194 -1.3907 -0.4645  0.5359
  239MOL0     C32864   4.804   9.165   7.137  0.1434  0.5535 -0.8056
  239MOL0     C32865   4.847   9.160   6.992  0.3463 -0.2717 -0.1471
  239MOL0     C32866   4.796   9.279   6.912 -0.9406 -0.7464 -0.1165
  239MOL0     C32867   4.650   9.345   6.929 -0.2577  0.5753  1.1890
  239MOL0     O32868   4.554   9.240   6.922 -0.7934 -1.2804  0.5800
  239MOL0     C32869   4.550   9.159   6.806  0.2959 -1.1694 -0.0617
  239MOL0     C32870   4.568   9.203   6.672  0.5909 -0.1577  0.7538
  239MOL0     C32871   4.531   9.125   6.564  0.1485 -0.9345  0.3633
  239MOL0     C32872   4.562   9.196   6.432  1.1550 -0.1648  0.0288
  239MOL0     C32873   4.498   8.988   6.585  0.7550  0.6737  0.1052
  239MOL0     C32874   4.465   8.895   6.471 -0.1948  0.3385 -0.6281
  239MOL0     O32875   4.545   8.907   6.358  0.8939  0.3122 -0.2057
  239MOL0     C32876   4.536   8.820   6.258 -0.5075 -0.1076 -0.4293
  239MOL0     C32877   4.504   8.866   6.133 -0.0056 -0.0812  0.6466
  239MOL0     C32878   4.506   8.783   6.019  0.2358  0.7228 -0.0494
  239MOL0     C32879   4.539   8.648   6.021  0.8584 -0.1589  1.0890
  239MOL0     O32880   4.545   8.558   5.913 -0.0386 -0.2301  0.0221
  239MOL0     C32881   4.475   8.589   5.796  0.2165 -0.1898 -0.5191
  239MOL0     C32882   4.327   8.573   5.827 -0.4881 -0.2611 -0.4270
  239MOL0     C32883   4.289   8.437   5.886 -0.4367  0.4367  0.3271
  239MOL0     C32884   4.217   8.431   6.022 -0.6585  0.9289 -0.3134
  239MOL0     C32885   4.161   8.287   6.045 -0.5637 -0.5342  1.1972
  239MOL0     C32886   4.088   8.265   6.181 -0.1875  0.7668  1.0640
  239MOL0     C32887   4.029   8.123   6.203  0.0439  0.1843  0.1361
  239MOL0     C32888   3.968   8.064   6.073 -0.3063 -0.6888  0.0435
  239MOL0    Cl32889   3.898   7.910   6.102 -0.0702 -0.2070  0.5400
  239MOL0     C32890   4.564   8.606   6.153  0.7313  0.1353  0.8540
  239MOL0     C32891   4.554   8.684   6.269  0.4731  0.9179 -0.8507
  239MOL0     O32892   4.393   8.800   6.503 -0.5300 -0.1628 -0.1385
  239MOL0     C32893   4.491   8.945   6.715 -0.0413  1.0728  0.5855
  239MOL0     C32894   4.521   9.024   6.824 -0.4471 -0.1928  0.2704
  239MOL0     N32895   4.595   9.034   7.215  0.6495  0.6933  0.2111
  239MOL0     N32896   4.568   8.922   7.268 -1.0850  0.2474  0.1880
  239MOL0     C32897   5.564   8.408   7.809  0.5761 -0.3927  0.5651
  239MOL0     C32898   5.651   8.330   7.886 -0.5223 -0.8117 -0.7088
  239MOL0     C32899   5.920   8.279   8.302  0.0818  1.0818 -0.3803
  239MOL0     C32900   6.064   8.280   8.320 -0.5050 -0.3051  0.0281
  239MOL0     C32901   6.123   8.204   8.418 -1.2406 -0.0884  0.5125
  239MOL0     C32902   6.053   8.135   8.506 -0.0799  0.0393 -0.0970
  239MOL0     O32903   6.110   8.066   8.608  0.0307  0.3069 -0.1865
  239MOL0     C32904   6.029   7.998   8.706  0.0206 -0.9794  0.2194
  239MOL0     C32905   6.111   7.913   8.805 -0.9774  0.5842  0.3344
  239MOL0     C32906   6.221   7.991   8.871  0.5428 -0.2141  0.7897
  239MOL0     C32907   6.312   7.897   8.950  0.7872  0.3562  0.3614
  239MOL0     C32908   6.391   7.986   9.019  0.1278 -1.2900 -0.4416
  239MOL0     C32909   6.464   8.065   9.074 -0.5626 -0.6072  0.8847
  239MOL0     C32910   5.913   8.125   8.487  0.1309 -0.3957 -0.2025
  239MOL0     C32911   5.838   8.193   8.383 -0.2473 -0.5795  0.4783
  239MOL0     C32912   5.687   8.183   8.372 -0.2713 -0.4223 -0.5805
  239MOL0     H32913   5.669   8.531   8.157  1.4731 -4.5381  0.0201
  239MOL0     H32914   5.518   8.663   8.035 -0.2210 -2.2043  3.3645
  239MOL0     H32915   5.312   8.431   7.692  0.2905  0.0980  2.1680
  239MOL0     H32916   5.353   8.566   7.587  0.1161  2.2101  0.8212
  239MOL0     H32917   5.194   8.596   7.822  2.5504 -0.3742 -0.6638
  239MOL0     H32918   5.175   8.710   7.685 -6.0708 -0.0068 -1.2298
  239MOL0     H32919   5.100   8.502   7.541 -0.3611  0.0518  0.3035
  239MOL0     H32920   5.068   8.429   7.691  2.9991 -1.3634 -1.8970
  239MOL0     H32921   4.938   8.642   7.758  4.5568 -0.9779  1.4206
  239MOL0     H32922   4.961   8.707   7.596  0.9303  0.8562  2.8148
  239MOL0     H32923   4.806   8.458   7.662 -1.0051  2.0320  1.7066
  239MOL0     H32924   4.844   8.499   7.495 -0.3696 -3.1697  0.9803
  239MOL0     H32925   4.601   8.560   7.561  0.6717  0.0445 -2.2006
  239MOL0     H32926   4.658   8.639   7.694 -0.3134 -0.3785 -0.4888
  239MOL0     H32927   4.755   8.827   7.537 -0.2157 -0.7912  0.0608
  239MOL0     H32928   4.584   8.794   7.512 -0.1829 -1.0438 -0.2258
  239MOL0     H32929   4.801   8.676   7.333  0.8083  0.0902 -2.7136
  239MOL0     H32930   4.626   8.648   7.322  2.0798 -0.9539  1.5417
  239MOL0     H32931   4.896   8.904   7.209 -0.4229  0.3144 -0.6359
  239MOL0     H32932   4.891   9.166   7.203  1.4299 -1.9031 -2.3115
  239MOL0     H32933   4.742   9.250   7.168  0.4937  0.7110 -0.5211
  239MOL0     H32934   4.956   9.163   6.984  1.0304  1.8419  5.5570
  239MOL0     H32935   4.814   9.067   6.946 -0.5092 -0.4026  0.7023
  239MOL0     H32936   4.871   9.357   6.931 -0.1061 -1.6449  0.3531
  239MOL0     H32937   4.795   9.242   6.809 -2.7733 -2.0082  0.3113
  239MOL0     H32938   4.650   9.403   7.022  1.4389  0.6370  1.1848
  239MOL0     H32939   4.625   9.417   6.850 -2.9600  2.3631  3.4820
  239MOL0     H32940   4.601   9.305   6.654  0.7688 -0.3040  0.2328
  239MOL0     H32941   4.577   9.303   6.453 -3.1529  0.4063  1.3046
  239MOL0     H32942   4.473   9.181   6.370  0.2109 -0.5003  1.4173
  239MOL0     H32943   4.651   9.147   6.393  0.6330 -0.6250 -0.6008
  239MOL0     H32944   4.483   8.973   6.133 -0.2128 -0.1185  1.0240
  239MOL0     H32945   4.493   8.825   5.919 -2.7216 -0.0220 -0.0770
  239MOL0     H32946   4.507   8.686   5.757  0.3112 -0.0203 -0.0315
  239MOL0     H32947   4.495   8.525   5.710 -1.5443 -3.0226  1.0454
  239MOL0     H32948   4.304   8.651   5.899  1.0610 -1.7502  1.8250
  239MOL0     H32949   4.276   8.582   5.730 -2.0496  3.4503  0.5606
  239MOL0     H32950   4.382   8.378   5.889  0.9210  2.5094  0.7586
  239MOL0     H32951   4.223   8.377   5.823 -1.7046  3.1655 -1.1155
  239MOL0     H32952   4.132   8.500   6.023 -1.7242 -0.3128  2.0443
  239MOL0     H32953   4.278   8.456   6.110 -1.5469 -0.5536  0.7725
  239MOL0     H32954   4.105   8.256   5.956  0.5922 -3.7145  1.4319
  239MOL0     H32955   4.253   8.227   6.039 -2.5813 -3.6993 -1.0371
  239MOL0     H32956   4.002   8.332   6.177  0.1911  1.2312 -1.9502
  239MOL0     H32957   4.160   8.268   6.263  2.0274 -1.4457 -0.6621
  239MOL0     H32958   3.957   8.137   6.284  1.3469  3.2674  0.9085
  239MOL0     H32959   4.103   8.053   6.243  2.2748  2.1531 -0.3530
  239MOL0     H32960   4.050   8.048   6.002 -0.8821  3.1856 -1.7519
  239MOL0     H32961   3.886   8.128   6.037 -0.7506 -1.3395 -0.1256
  239MOL0     H32962   4.587   8.500   6.148 -2.5063 -0.6039 -0.8153
  239MOL0     H32963   4.559   8.634   6.365 -4.6156 -0.4195 -0.9918
  239MOL0     H32964   4.467   8.841   6.733  0.8805  0.2122 -2.4988
  239MOL0     H32965   4.507   9.012   6.931 -4.5817  3.4815  0.4846
  239MOL0     H32966   5.519   8.368   7.719 -2.6131 -2.4184  2.8473
  239MOL0     H32967   5.686   8.231   7.857  0.4913 -2.2018  4.2266
  239MOL0     H32968   6.136   8.321   8.249 -0.8159 -2.4700 -1.6665
  239MOL0     H32969   6.231   8.204   8.420 -1.1901 -0.0247 -1.0996
  239MOL0     H32970   5.972   8.071   8.764  0.5417 -0.3017 -0.1071
  239MOL0     H32971   5.962   7.939   8.642 -0.6461  1.3422 -1.3505
  239MOL0     H32972   6.159   7.827   8.758 -2.0740 -0.3918  0.9405
  239MOL0     H32973   6.046   7.874   8.884 -0.4103 -0.7619  0.1638
  239MOL0     H32974   6.287   8.031   8.794  1.6662 -0.1123  1.7875
  239MOL0     H32975   6.173   8.071   8.927  0.0667 -2.2090  3.4524
  239MOL0     H32976   6.372   7.834   8.884  2.4312  1.3993  0.7905
  239MOL0     H32977   6.253   7.830   9.013 -0.7326  0.1650 -1.1968
  239MOL0     H32978   6.518   8.151   9.107 -1.0909  0.1624 -0.1863
  239MOL0     H32979   5.839   8.082   8.553  0.0462 -0.7550 -0.5255
  239MOL0     H32980   5.648   8.284   8.382 -1.8596 -1.2528  3.5694
  239MOL0     H32981   5.664   8.128   8.280 -2.0216 -2.2063  0.8473
  239MOL0     H32982   5.646   8.133   8.460  1.6176  3.0605  2.5435
  240MOL0     O32983   4.574   3.746   0.695 -0.5142  0.1654  0.7944
  240MOL0     C32984   4.661   3.785   0.770 -0.0129  0.1680  0.5152
  240MOL0     O32985   4.790   3.817   0.719 -0.0819  1.4922  0.3925
  240MOL0     C32986   4.829   3.742   0.614  0.4579  0.1497 -0.1968
  240MOL0     C32987   4.765   3.746   0.488  0.1260 -0.2724 -0.1270
  240MOL0     C32988   4.819   3.688   0.372  0.3034  0.6066  0.0965
  240MOL0     C32989   4.920   3.601   0.384  0.1836 -0.2011  0.8109
  240MOL0     O32990   4.962   3.538   0.268  0.2225  0.4338 -0.0798
  240MOL0     C32991   4.938   3.399   0.269  0.1332  0.5221 -1.4779
  240MOL0     C32992   4.990   3.316   0.158 -1.3887  0.2507  0.9252
  240MOL0     C32993   5.133   3.349   0.114 -0.3724 -0.3760 -1.0360
  240MOL0     C32994   5.150   3.495   0.058  0.6933  1.1509 -0.0697
  240MOL0     C32995   5.262   3.502  -0.039  0.3862  0.4660  0.7342
  240MOL0     C32996   5.299   3.651  -0.065 -1.2000 -0.4395  0.4893
  240MOL0     C32997   5.396   3.679  -0.178  0.0675  0.1711  0.3513
  240MOL0     C32998   5.446   3.822  -0.158  0.0612 -0.1995 -0.5150
  240MOL0     N32999   5.477   3.880  -0.284  0.0494  0.1934 -0.3572
  240MOL0     C33000   5.590   3.870  -0.357 -0.1736 -0.7017  0.0773
  240MOL0     C33001   5.542   3.904  -0.482  0.0386  0.0662 -0.1435
  240MOL0     C33002   5.630   3.906  -0.608  0.0034  0.2059 -0.7992
  240MOL0     C33003   5.609   3.803  -0.714  1.8247 -0.9634 -0.1844
  240MOL0     C33004   5.460   3.819  -0.768 -0.1372 -0.1742  0.9683
  240MOL0     C33005   5.439   3.927  -0.870  0.4630  0.5272  0.0843
  240MOL0     O33006   5.407   4.055  -0.812 -0.2980 -0.0778  0.1926
  240MOL0     C33007   5.426   4.174  -0.890  0.2239 -1.3996 -0.0008
  240MOL0     C33008   5.489   4.168  -1.013 -1.0522 -0.3455  0.6426
  240MOL0     C33009   5.531   4.285  -1.078  0.0488 -0.4783 -0.1875
  240MOL0     C33010   5.587   4.269  -1.221 -0.5446  0.2018 -0.4848
  240MOL0     C33011   5.513   4.413  -1.012 -0.6619 -0.4077  0.3048
  240MOL0     C33012   5.556   4.545  -1.081 -0.1251 -0.0105 -1.0043
  240MOL0     O33013   5.528   4.652  -0.999  0.5969 -0.1735 -0.5374
  240MOL0     C33014   5.553   4.783  -1.039  0.5338 -0.4364 -0.6909
  240MOL0     C33015   5.473   4.890  -0.990 -0.1579  0.7603  0.7746
  240MOL0     C33016   5.500   5.020  -1.033 -0.5339 -1.3206 -0.1860
  240MOL0     C33017   5.608   5.053  -1.112  0.8586  0.0991 -0.0398
  240MOL0     O33018   5.612   5.191  -1.151  0.1593  0.7447  1.0146
  240MOL0     C33019   5.677   5.232  -1.268 -0.0789  1.0143 -0.2149
  240MOL0     C33020   5.657   5.383  -1.279 -0.4782 -0.2110  0.9906
  240MOL0     C33021   5.719   5.435  -1.408 -0.0441  0.9438  0.3663
  240MOL0     C33022   5.744   5.587  -1.421 -0.8322  0.2465  0.6709
  240MOL0     C33023   5.793   5.632  -1.559 -0.1636 -0.1746  0.5270
  240MOL0     C33024   5.844   5.778  -1.555  0.1403  0.3139 -0.7118
  240MOL0     C33025   5.753   5.894  -1.506 -0.2817  0.0948  0.0762
  240MOL0     C33026   5.831   6.029  -1.511 -0.1070  0.3187  0.4000
  240MOL0    Cl33027   5.739   6.146  -1.424  0.4371  0.2402 -0.1713
  240MOL0     C33028   5.689   4.952  -1.149 -0.2563 -0.7669  0.8632
  240MOL0     C33029   5.661   4.818  -1.120 -0.4790 -0.0723 -0.8090
  240MOL0     O33030   5.592   4.549  -1.194 -0.1944 -0.7252 -0.0374
  240MOL0     C33031   5.448   4.420  -0.884 -0.1725 -0.1635  0.0989
  240MOL0     C33032   5.402   4.301  -0.829 -0.3804 -0.1543 -0.1342
  240MOL0     N33033   5.405   3.934  -0.476 -0.6176  0.0835  0.0610
  240MOL0     N33034   5.377   3.945  -0.352 -0.4808  0.1506  0.8744
  240MOL0     C33035   4.989   3.589   0.504 -0.0611 -0.2125  0.3350
  240MOL0     C33036   4.948   3.666   0.613 -0.0179  0.0113 -0.2685
  240MOL0     C33037   4.615   3.811   0.903  0.1297  0.3697 -0.5506
  240MOL0     C33038   4.481   3.838   0.937 -0.5392 -0.1896  0.6941
  240MOL0     C33039   4.442   3.863   1.068  0.6453 -0.3186  0.1194
  240MOL0     C33040   4.535   3.885   1.167 -0.1431 -1.3224 -0.8029
  240MOL0     O33041   4.494   3.928   1.293  0.9849 -0.3460  0.6959
  240MOL0     C33042   4.352   3.945   1.323  0.1180  0.7622  0.7181
  240MOL0     C33043   4.353   3.988   1.470 -0.3306 -0.2018 -0.5837
  240MOL0     C33044   4.219   4.053   1.514  0.5864  0.0459 -0.1746
  240MOL0     C33045   4.201   4.082   1.660  0.4105 -0.1522  0.1884
  240MOL0     C33046   4.280   4.189   1.705 -0.3395  0.1581  0.1036
  240MOL0     C33047   4.369   4.260   1.753 -0.7797 -0.4748  0.3237
  240MOL0     C33048   4.665   3.865   1.142  0.6915  0.2502  0.9618
  240MOL0     C33049   4.714   3.827   1.012  0.1608 -0.4104 -0.1176
  240MOL0     C33050   4.858   3.788   0.996 -0.7346  0.0570 -0.2742
  240MOL0     H33051   4.681   3.812   0.466 -0.4586 -1.5752 -2.1048
  240MOL0     H33052   4.766   3.697   0.278  3.0588  5.8999 -1.3273
  240MOL0     H33053   4.832   3.374   0.281  0.3616  0.5328  1.1943
  240MOL0     H33054   4.972   3.349   0.360 -2.1591  1.2416 -0.1236
  240MOL0     H33055   4.997   3.211   0.190  0.5209  0.7836  2.4345
  240MOL0     H33056   4.928   3.329   0.069 -1.5526 -1.9011  0.6660
  240MOL0     H33057   5.187   3.338   0.208 -2.6101  1.4314  0.5857
  240MOL0     H33058   5.177   3.278   0.043  1.7304 -0.5184  0.3226
  240MOL0     H33059   5.061   3.535   0.009  0.0962  1.1317  0.9987
  240MOL0     H33060   5.163   3.568   0.138 -1.3466  2.3957 -0.7967
  240MOL0     H33061   5.232   3.452  -0.132  2.0549 -0.7243  0.7910
  240MOL0     H33062   5.352   3.446  -0.014  0.5874 -0.0057 -0.9082
  240MOL0     H33063   5.209   3.707  -0.089 -1.2222 -1.0971 -1.0597
  240MOL0     H33064   5.342   3.692   0.027  0.0381  1.9908 -1.0764
  240MOL0     H33065   5.337   3.670  -0.270  0.6563  1.1624 -0.1300
  240MOL0     H33066   5.474   3.602  -0.177 -0.9936 -1.0420  3.8362
  240MOL0     H33067   5.369   3.881  -0.108 -0.2181  3.6400 -4.7922
  240MOL0     H33068   5.533   3.825  -0.092  0.4569  4.8355 -0.8979
  240MOL0     H33069   5.691   3.839  -0.330 -0.4492 -1.1973  0.5497
  240MOL0     H33070   5.726   3.884  -0.560 -0.2725 -0.8259 -0.7065
  240MOL0     H33071   5.619   4.004  -0.657 -2.6225  1.6452  2.3052
  240MOL0     H33072   5.683   3.809  -0.794 -0.6098 -3.2809 -2.8536
  240MOL0     H33073   5.597   3.712  -0.654 -1.5820 -0.0298  0.7689
  240MOL0     H33074   5.440   3.731  -0.830 -2.0946  1.8344 -1.5209
  240MOL0     H33075   5.384   3.822  -0.689  0.8275  1.2545  1.8925
  240MOL0     H33076   5.508   3.920  -0.954  0.6028 -0.9901  0.2968
  240MOL0     H33077   5.346   3.895  -0.918  0.2395  2.8911 -1.2543
  240MOL0     H33078   5.516   4.076  -1.062 -3.8345 -0.5552 -0.7307
  240MOL0     H33079   5.517   4.312  -1.293 -1.3640 -1.2547 -0.5780
  240MOL0     H33080   5.611   4.166  -1.247  4.9283  1.3062 -1.0526
  240MOL0     H33081   5.689   4.310  -1.224  0.7666 -2.8992 -1.8752
  240MOL0     H33082   5.394   4.867  -0.920 -1.8253 -1.7335 -1.6983
  240MOL0     H33083   5.434   5.103  -1.007 -1.5153 -2.5241  1.3291
  240MOL0     H33084   5.780   5.204  -1.246 -1.2102 -1.0245  3.2026
  240MOL0     H33085   5.641   5.179  -1.357 -1.4664 -0.3296  1.1016
  240MOL0     H33086   5.551   5.408  -1.277 -0.4975 -0.2504  0.4489
  240MOL0     H33087   5.703   5.441  -1.198 -1.4589  0.0549  1.3681
  240MOL0     H33088   5.656   5.397  -1.489  0.7425  1.3396 -0.4674
  240MOL0     H33089   5.815   5.384  -1.423 -0.5773  0.2331 -0.7381
  240MOL0     H33090   5.815   5.631  -1.350  0.0566 -0.8275  0.4723
  240MOL0     H33091   5.649   5.639  -1.400 -0.1128  1.0020  2.3024
  240MOL0     H33092   5.874   5.565  -1.590 -0.7162 -0.0211 -1.4306
  240MOL0     H33093   5.716   5.629  -1.637  0.1951  0.2870  0.1490
  240MOL0     H33094   5.881   5.793  -1.656  2.3129 -2.1889 -0.3753
  240MOL0     H33095   5.932   5.775  -1.491  0.1168  1.9923 -0.5621
  240MOL0     H33096   5.718   5.876  -1.404 -0.9480  1.1855  0.0535
  240MOL0     H33097   5.666   5.917  -1.567  1.6555  0.2294 -2.8708
  240MOL0     H33098   5.851   6.066  -1.612  4.2243 -0.3171  0.8518
  240MOL0     H33099   5.925   6.019  -1.457 -0.1667  1.1267  0.6771
  240MOL0     H33100   5.775   4.978  -1.209  0.0140 -0.4055  1.3970
  240MOL0     H33101   5.731   4.742  -1.153  0.1965  0.1454  0.0965
  240MOL0     H33102   5.439   4.512  -0.828  0.8801  0.6275 -0.9815
  240MOL0     H33103   5.348   4.297  -0.735 -0.5339  1.0968 -0.1546
  240MOL0     H33104   5.075   3.524   0.517 -0.5443 -1.0059 -0.2960
  240MOL0     H33105   5.012   3.663   0.701 -0.0471  0.3280 -0.2356
  240MOL0     H33106   4.399   3.811   0.872 -2.4634  0.1027  2.8530
  240MOL0     H33107   4.334   3.856   1.081  0.0247 -0.8037 -4.0182
  240MOL0     H33108   4.313   4.021   1.255  2.4592 -0.0756 -1.7220
  240MOL0     H33109   4.298   3.850   1.312 -1.7079  1.9020 -0.8155
  240MOL0     H33110   4.435   4.060   1.478  0.8394 -1.5142 -0.2045
  240MOL0     H33111   4.379   3.907   1.539 -1.8863 -0.8562 -0.7335
  240MOL0     H33112   4.217   4.150   1.462  2.1036 -0.1028 -0.5672
  240MOL0     H33113   4.131   3.994   1.488 -1.0709  1.1035  2.6203
  240MOL0     H33114   4.216   3.992   1.720 -0.3449  0.7922  1.8750
  240MOL0     H33115   4.097   4.107   1.683  0.2069 -1.9125  1.4005
  240MOL0     H33116   4.447   4.318   1.797  0.1211 -0.4813 -1.1863
  240MOL0     H33117   4.733   3.876   1.226  3.6091 -0.3494 -1.1681
  240MOL0     H33118   4.911   3.857   0.928  2.1593 -1.4230  0.3161
  240MOL0     H33119   4.916   3.782   1.088 -0.9867  2.8515  0.1635
  240MOL0     H33120   4.863   3.693   0.942 -0.2990  0.8499 -1.7120
  241MOL0     O33121   6.405   6.968   3.355 -0.0741  0.7144 -0.5621
  241MOL0     C33122   6.527   6.938   3.338 -0.4652 -0.6264  0.3210
  241MOL0     O33123   6.614   6.988   3.245 -0.3165 -0.1237  0.3047
  241MOL0     C33124   6.562   7.034   3.124 -0.3910  0.1362  1.3555
  241MOL0     C33125   6.446   6.985   3.058 -0.8327  0.1032 -0.8850
  241MOL0     C33126   6.415   7.030   2.929  0.7119  0.0819 -0.4476
  241MOL0     C33127   6.493   7.124   2.861 -0.5450  0.9274  0.9399
  241MOL0     O33128   6.472   7.176   2.738  0.2452 -0.1305  0.2494
  241MOL0     C33129   6.367   7.118   2.657  0.3882 -0.5655 -0.1394
  241MOL0     C33130   6.368   7.203   2.528  0.0697 -0.1231  0.6301
  241MOL0     C33131   6.467   7.160   2.413 -0.1109  0.2029 -0.3526
  241MOL0     C33132   6.514   7.280   2.322  0.3686 -0.2467 -1.1528
  241MOL0     C33133   6.581   7.223   2.198 -0.3983  0.6617 -1.4900
  241MOL0     C33134   6.641   7.337   2.118 -0.8486  0.9774 -0.3291
  241MOL0     C33135   6.708   7.279   1.994 -0.4505  1.5760  1.3477
  241MOL0     C33136   6.790   7.365   1.900 -0.0154  0.6286  1.0363
  241MOL0     N33137   6.721   7.476   1.852 -0.1884  0.1046  0.0206
  241MOL0     C33138   6.757   7.608   1.864 -1.0590 -0.2681 -0.4561
  241MOL0     C33139   6.664   7.665   1.789  0.1452 -0.3515 -0.2027
  241MOL0     C33140   6.657   7.815   1.747  0.6440 -0.0639  0.4262
  241MOL0     C33141   6.703   7.907   1.856 -0.2782  0.7566  0.0160
  241MOL0     C33142   6.637   8.040   1.846  0.0826  0.2417 -0.7239
  241MOL0     C33143   6.686   8.113   1.974 -0.4542 -0.4808  0.5121
  241MOL0     O33144   6.636   8.250   1.958 -0.5177 -0.6639 -0.4839
  241MOL0     C33145   6.506   8.274   2.000 -0.9476 -0.3835  0.1864
  241MOL0     C33146   6.436   8.217   2.106  0.0353 -0.1603  0.1593
  241MOL0     C33147   6.305   8.258   2.136  0.0616 -0.6156 -0.8369
  241MOL0     C33148   6.226   8.192   2.248 -1.1988  0.5011 -0.7450
  241MOL0     C33149   6.247   8.367   2.066  1.0051  0.1159 -0.7546
  241MOL0     C33150   6.106   8.402   2.085  0.0340  0.1763 -0.0891
  241MOL0     O33151   6.072   8.526   2.135  0.0276 -0.2653  0.2870
  241MOL0     C33152   6.167   8.614   2.177 -0.7185 -0.5324  0.4252
  241MOL0     C33153   6.241   8.582   2.288  0.2606  0.5575 -0.2488
  241MOL0     C33154   6.329   8.672   2.342 -0.2565  0.4701  0.5337
  241MOL0     C33155   6.342   8.804   2.299 -0.7061  0.2476  0.0618
  241MOL0     O33156   6.412   8.906   2.361 -0.9506 -0.2697 -0.4019
  241MOL0     C33157   6.493   8.888   2.474  0.2330  0.4929  0.1039
  241MOL0     C33158   6.529   9.015   2.551  0.4066  0.5604  0.0278
  241MOL0     C33159   6.632   8.985   2.661 -0.2389 -0.3659 -0.0888
  241MOL0     C33160   6.571   8.913   2.777 -0.3731  0.0549  0.0921
  241MOL0     C33161   6.685   8.872   2.880 -1.2505 -1.6270 -0.4022
  241MOL0     C33162   6.747   8.993   2.958  0.6675  0.2410 -0.6298
  241MOL0     C33163   6.861   8.957   3.053  0.1154  0.7449 -0.4611
  241MOL0     C33164   6.931   9.082   3.122 -0.4889  0.0945 -0.0656
  241MOL0    Cl33165   6.822   9.151   3.248 -0.0247 -0.3187  0.0207
  241MOL0     C33166   6.274   8.834   2.182  0.4695 -0.2581  0.8212
  241MOL0     C33167   6.189   8.741   2.121  0.0103 -0.5868  0.6870
  241MOL0     O33168   6.033   8.316   2.045 -0.4378  0.6882 -0.1842
  241MOL0     C33169   6.321   8.437   1.967 -0.6903  0.4780  0.3691
  241MOL0     C33170   6.448   8.383   1.930 -0.1910  0.2340  0.3376
  241MOL0     N33171   6.561   7.577   1.755  0.2343  0.4521  0.6821
  241MOL0     N33172   6.609   7.460   1.781 -0.1081 -0.7802 -0.3074
  241MOL0     C33173   6.618   7.161   2.910 -0.6666 -0.0966 -0.7093
  241MOL0     C33174   6.646   7.114   3.038 -0.1722  0.6650 -0.9730
  241MOL0     C33175   6.583   6.837   3.438 -0.2193  0.0342 -0.5878
  241MOL0     C33176   6.582   6.700   3.401  0.3621  0.1856 -0.0710
  241MOL0     C33177   6.625   6.607   3.492 -0.2816  0.6865  0.0013
  241MOL0     C33178   6.673   6.645   3.615  0.2483  1.2712 -0.5847
  241MOL0     O33179   6.703   6.566   3.716  0.2195  0.2674 -0.9662
  241MOL0     C33180   6.666   6.427   3.711  0.3733  0.3006  0.4465
  241MOL0     C33181   6.771   6.341   3.639 -1.0630 -0.3836 -0.3932
  241MOL0     C33182   6.907   6.354   3.708  1.0949  0.1226 -0.3896
  241MOL0     C33183   7.004   6.278   3.622  0.1278  0.5495 -0.3139
  241MOL0     C33184   7.133   6.325   3.659  0.0510  0.5963 -1.1015
  241MOL0     C33185   7.250   6.358   3.684  0.8014 -0.9620  0.2771
  241MOL0     C33186   6.671   6.772   3.657  0.0973 -0.8005 -0.0392
  241MOL0     C33187   6.618   6.872   3.571 -0.5869 -0.3240  0.1916
  241MOL0     C33188   6.611   7.012   3.624  0.0042 -0.4253 -0.5543
  241MOL0     H33189   6.380   6.917   3.111  1.7480 -2.5830 -0.8921
  241MOL0     H33190   6.330   6.983   2.882  0.1989 -0.3868  0.9297
  241MOL0     H33191   6.269   7.136   2.701  1.1496  3.2142  0.3637
  241MOL0     H33192   6.389   7.011   2.651  1.3216 -0.3391 -1.1179
  241MOL0     H33193   6.272   7.178   2.482 -0.3929  0.7528  1.0979
  241MOL0     H33194   6.375   7.311   2.544  1.9353 -0.1727  0.4038
  241MOL0     H33195   6.554   7.118   2.463 -1.2762  1.6553  3.2592
  241MOL0     H33196   6.413   7.083   2.357  0.6431 -0.5418 -0.0746
  241MOL0     H33197   6.424   7.338   2.301 -0.0896 -0.8090 -0.7797
  241MOL0     H33198   6.591   7.335   2.377 -1.2360 -0.2217  1.2321
  241MOL0     H33199   6.502   7.176   2.140  1.1076 -2.6895 -1.0553
  241MOL0     H33200   6.655   7.146   2.221  0.2266  1.8927  1.1321
  241MOL0     H33201   6.570   7.417   2.097 -0.1085  1.9919  0.8978
  241MOL0     H33202   6.732   7.366   2.171  0.4621 -2.4671 -0.4343
  241MOL0     H33203   6.631   7.231   1.934  2.4816 -0.5023 -1.0840
  241MOL0     H33204   6.778   7.199   2.021  2.4816  4.1426  1.9441
  241MOL0     H33205   6.882   7.394   1.950  0.7287  1.5447 -0.7813
  241MOL0     H33206   6.809   7.302   1.812  1.6468  1.2535  0.9294
  241MOL0     H33207   6.848   7.644   1.912 -0.8089 -0.2446 -0.9484
  241MOL0     H33208   6.556   7.838   1.713  1.3741 -0.2055 -2.0796
  241MOL0     H33209   6.726   7.826   1.662  2.1256 -0.2984  1.5577
  241MOL0     H33210   6.689   7.864   1.955  1.0360 -0.8533 -0.4623
  241MOL0     H33211   6.810   7.912   1.837 -0.5281  0.3839 -1.6811
  241MOL0     H33212   6.665   8.091   1.754  0.3075 -0.1167 -0.8569
  241MOL0     H33213   6.528   8.038   1.836 -0.0703  1.4476  0.4726
  241MOL0     H33214   6.641   8.067   2.063 -3.9959  0.7692 -0.4586
  241MOL0     H33215   6.795   8.108   1.985 -0.5843 -2.0160  1.4589
  241MOL0     H33216   6.485   8.146   2.172  1.9426  0.9722  0.0366
  241MOL0     H33217   6.282   8.104   2.281  0.4465  1.3422 -1.2048
  241MOL0     H33218   6.120   8.169   2.235 -1.5588  3.2772 -4.1048
  241MOL0     H33219   6.243   8.258   2.333  0.6123  2.1660 -2.3100
  241MOL0     H33220   6.220   8.487   2.337 -1.8609  0.5661 -1.0239
  241MOL0     H33221   6.384   8.639   2.430 -0.1006  1.0196  0.6441
  241MOL0     H33222   6.449   8.818   2.546  4.9312 -0.9391  2.0309
  241MOL0     H33223   6.577   8.838   2.425  0.4688  2.4849 -1.6705
  241MOL0     H33224   6.569   9.093   2.485  0.7478  1.0172  0.7653
  241MOL0     H33225   6.439   9.056   2.597  0.9477  1.1370  0.5824
  241MOL0     H33226   6.687   9.075   2.689 -1.8619  1.9878 -3.8520
  241MOL0     H33227   6.706   8.912   2.629 -0.0890  0.5187 -1.8238
  241MOL0     H33228   6.517   8.822   2.748  0.8725 -0.5809 -0.2788
  241MOL0     H33229   6.503   8.975   2.836  0.7716  1.3129  0.1397
  241MOL0     H33230   6.662   8.792   2.951  2.7160 -1.5555  1.2461
  241MOL0     H33231   6.762   8.816   2.827 -2.1566 -4.8595  1.4167
  241MOL0     H33232   6.664   9.045   3.006 -0.1056 -0.4264 -1.2112
  241MOL0     H33233   6.792   9.066   2.890  1.7906  0.5405  0.3988
  241MOL0     H33234   6.945   8.911   3.000  0.4777 -0.6034  1.2013
  241MOL0     H33235   6.835   8.886   3.131  1.6900  0.5167 -0.1091
  241MOL0     H33236   6.962   9.158   3.049  1.8896 -0.6178  0.1323
  241MOL0     H33237   7.026   9.050   3.166 -0.6556  0.8688  0.8890
  241MOL0     H33238   6.279   8.938   2.151 -0.1857 -0.5353 -0.3015
  241MOL0     H33239   6.142   8.751   2.023 -1.5655 -0.9965  1.3664
  241MOL0     H33240   6.282   8.530   1.926  2.0447  0.8123 -1.7593
  241MOL0     H33241   6.508   8.431   1.853 -2.5388  0.6990 -1.2987
  241MOL0     H33242   6.689   7.213   2.846  0.5068  3.1792  2.9176
  241MOL0     H33243   6.744   7.125   3.082 -1.0454 -3.5120  2.6615
  241MOL0     H33244   6.554   6.665   3.302  2.8250 -3.4916  0.3400
  241MOL0     H33245   6.620   6.501   3.472 -0.3228  1.0931 -2.3912
  241MOL0     H33246   6.649   6.381   3.809 -2.3498 -1.6031 -0.7966
  241MOL0     H33247   6.568   6.428   3.664  0.6019  3.7720 -0.2278
  241MOL0     H33248   6.778   6.382   3.537 -0.1503  1.4619  0.3631
  241MOL0     H33249   6.752   6.234   3.635 -1.2236 -0.6653  3.8057
  241MOL0     H33250   6.946   6.455   3.721  0.5067  0.0098  3.2280
  241MOL0     H33251   6.902   6.319   3.811 -2.9835 -0.1513 -0.5282
  241MOL0     H33252   6.995   6.286   3.513  2.3823  0.8332 -0.5157
  241MOL0     H33253   7.008   6.175   3.658  0.4312  1.2640  1.8700
  241MOL0     H33254   7.349   6.397   3.697  0.8264 -1.2124  0.8640
  241MOL0     H33255   6.709   6.797   3.755 -2.9730 -2.9389  1.8665
  241MOL0     H33256   6.530   7.028   3.696  0.1977 -2.4092  0.1609
  241MOL0     H33257   6.709   7.036   3.666  0.6932 -1.5258 -1.4984
  241MOL0     H33258   6.592   7.079   3.539  1.0390  1.1166  0.3723
  242MOL0     O33259   3.916   2.887   1.614  0.3151 -0.7442  0.2784
  242MOL0     C33260   3.949   2.878   1.493  0.1312 -0.0739  0.4979
  242MOL0     O33261   4.069   2.839   1.448 -0.2031  0.3505 -0.1802
  242MOL0     C33262   4.159   2.794   1.537  0.2897 -1.3564  0.4689
  242MOL0     C33263   4.267   2.878   1.575  1.2360  0.5250  0.0126
  242MOL0     C33264   4.352   2.843   1.677  0.4363 -0.4631 -0.4936
  242MOL0     C33265   4.337   2.721   1.742  0.2051  0.6600  0.7620
  242MOL0     O33266   4.409   2.694   1.858  0.5013  1.3499  0.5062
  242MOL0     C33267   4.467   2.797   1.928  0.0838  1.5217 -0.0718
  242MOL0     C33268   4.497   2.752   2.072 -0.4330  0.7266  0.2748
  242MOL0     C33269   4.385   2.752   2.175 -0.2011  0.3508  0.9230
  242MOL0     C33270   4.441   2.707   2.308 -0.5745  0.7984 -1.6328
  242MOL0     C33271   4.390   2.790   2.420  1.2074  0.0686 -0.0265
  242MOL0     C33272   4.477   2.756   2.543 -0.5068 -0.4577 -0.5937
  242MOL0     C33273   4.409   2.786   2.675 -1.0135 -0.2163  0.5063
  242MOL0     C33274   4.404   2.940   2.716 -0.8765 -0.0132  1.4294
  242MOL0     N33275   4.548   2.966   2.754 -0.0629 -0.2219  0.2233
  242MOL0     C33276   4.600   2.948   2.876  0.2125  0.2490  0.7863
  242MOL0     C33277   4.724   2.982   2.872 -0.1103  0.2244 -0.2301
  242MOL0     C33278   4.807   2.988   2.997  0.8830  0.8288 -0.2125
  242MOL0     C33279   4.764   3.107   3.087  0.0523  0.0974 -0.4753
  242MOL0     C33280   4.811   3.247   3.040  0.0650  0.2155  0.6703
  242MOL0     C33281   4.776   3.361   3.136  0.4978  1.0501 -0.1201
  242MOL0     O33282   4.630   3.369   3.148  0.5777  0.5582 -0.2563
  242MOL0     C33283   4.582   3.426   3.262  0.2793  0.9257  0.1725
  242MOL0     C33284   4.619   3.374   3.387 -0.4656  0.4375  1.1767
  242MOL0     C33285   4.573   3.426   3.499  0.0228 -0.5081  0.3078
  242MOL0     C33286   4.615   3.365   3.633 -0.0617 -0.8651  0.1942
  242MOL0     C33287   4.484   3.535   3.489  0.7558  0.5627 -0.5317
  242MOL0     C33288   4.433   3.618   3.605 -0.5236  0.6786 -0.2124
  242MOL0     O33289   4.296   3.647   3.612  0.4555 -0.2542 -0.3513
  242MOL0     C33290   4.253   3.713   3.725  0.2372  0.0970 -0.0198
  242MOL0     C33291   4.146   3.796   3.697  0.2932  0.4625 -0.3120
  242MOL0     C33292   4.084   3.856   3.807 -0.4036  1.1633 -0.1911
  242MOL0     C33293   4.128   3.832   3.943 -0.2812 -0.0123 -0.0793
  242MOL0     O33294   4.061   3.913   4.027  0.9942 -0.0557 -0.1593
  242MOL0     C33295   4.072   3.875   4.168 -0.6452  0.0348  0.5839
  242MOL0     C33296   3.944   3.879   4.231 -0.1062  0.6244 -0.2425
  242MOL0     C33297   3.872   3.751   4.213  0.2880 -0.8921 -0.7457
  242MOL0     C33298   3.724   3.764   4.264 -0.4400 -0.6097  0.5983
  242MOL0     C33299   3.638   3.633   4.243  0.0326 -0.5348 -0.3743
  242MOL0     C33300   3.497   3.639   4.303 -1.0509 -0.7947 -0.3075
  242MOL0     C33301   3.437   3.502   4.334  0.0260 -0.7117  0.3853
  242MOL0     C33302   3.324   3.525   4.431 -0.7754 -1.0101  0.2540
  242MOL0    Cl33303   3.185   3.551   4.339 -0.0636 -0.0067 -0.2056
  242MOL0     C33304   4.229   3.736   3.960 -0.8707  1.0505  0.5471
  242MOL0     C33305   4.299   3.671   3.857  1.2409 -0.4157  0.6697
  242MOL0     O33306   4.516   3.672   3.670 -0.0308 -0.5386  0.1556
  242MOL0     C33307   4.450   3.588   3.367  0.2848  0.0337  0.6902
  242MOL0     C33308   4.493   3.530   3.249  0.1826 -1.0023 -0.0350
  242MOL0     N33309   4.756   3.015   2.744 -0.2073  0.6783 -0.2882
  242MOL0     N33310   4.644   3.014   2.672  0.0103  0.3422  0.4220
  242MOL0     C33311   4.243   2.627   1.698 -0.4996 -0.5023  0.0625
  242MOL0     C33312   4.165   2.667   1.585 -0.0194 -0.2173 -1.2226
  242MOL0     C33313   3.850   2.929   1.391  0.4514  0.1305 -0.8781
  242MOL0     C33314   3.881   2.926   1.256  0.9617  0.4216 -0.7155
  242MOL0     C33315   3.794   2.942   1.157  1.4403 -0.1975 -0.3865
  242MOL0     C33316   3.656   2.978   1.188 -0.9532 -0.3578 -0.1029
  242MOL0     O33317   3.562   2.974   1.085  0.1609  0.2944 -0.3127
  242MOL0     C33318   3.596   3.039   0.965  0.7602  0.6876 -0.6284
  242MOL0     C33319   3.573   2.935   0.861  0.3933  0.4405  1.2249
  242MOL0     C33320   3.428   2.914   0.810 -0.4180 -0.1691 -0.2411
  242MOL0     C33321   3.434   2.853   0.671 -0.4355  0.7766 -0.1084
  242MOL0     C33322   3.479   2.956   0.583 -0.3432  0.6122 -0.7847
  242MOL0     C33323   3.531   3.036   0.509 -0.7023 -0.1416 -0.2089
  242MOL0     C33324   3.619   3.006   1.327 -0.5366  0.0078  0.3448
  242MOL0     C33325   3.715   2.979   1.429  0.0249  1.1374  0.1987
  242MOL0     C33326   3.675   3.016   1.575 -1.3481 -0.0310 -0.5076
  242MOL0     H33327   4.266   2.970   1.519 -1.7683  0.8307  0.4100
  242MOL0     H33328   4.434   2.911   1.696 -0.8086  0.6175  1.2701
  242MOL0     H33329   4.404   2.885   1.943 -1.7551 -0.2197  4.0840
  242MOL0     H33330   4.562   2.831   1.885  0.2563 -2.3309 -3.2872
  242MOL0     H33331   4.524   2.646   2.058 -1.2077  0.9242 -4.7890
  242MOL0     H33332   4.582   2.813   2.103  0.5104 -0.7395  0.7322
  242MOL0     H33333   4.347   2.855   2.179  1.5004  1.0442  0.5687
  242MOL0     H33334   4.314   2.677   2.141 -2.2525  2.6968 -0.2842
  242MOL0     H33335   4.417   2.604   2.335 -3.1693  2.1413  2.1830
  242MOL0     H33336   4.550   2.703   2.312 -0.6336 -1.6450  0.9659
  242MOL0     H33337   4.287   2.769   2.451  2.3009 -0.9961  3.3471
  242MOL0     H33338   4.391   2.897   2.394 -1.5379  0.9049  2.6751
  242MOL0     H33339   4.498   2.649   2.545  0.6898 -0.2498 -0.9328
  242MOL0     H33340   4.572   2.810   2.537 -0.5940 -0.1586  0.5977
  242MOL0     H33341   4.474   2.735   2.746  0.7728 -0.1005 -0.9809
  242MOL0     H33342   4.309   2.741   2.674 -1.4685  0.7685 -0.5300
  242MOL0     H33343   4.374   2.986   2.622  0.3121 -1.5970  0.2084
  242MOL0     H33344   4.335   2.958   2.799  1.1495 -1.7349  3.6523
  242MOL0     H33345   4.536   2.915   2.958  0.1054  1.2736  1.1320
  242MOL0     H33346   4.915   3.001   2.982  1.2730  0.7812  2.1580
  242MOL0     H33347   4.798   2.892   3.049 -0.0363  1.5614  1.0554
  242MOL0     H33348   4.654   3.109   3.093 -0.0935  1.7882 -2.4606
  242MOL0     H33349   4.795   3.095   3.191  0.9111  0.1688 -0.7186
  242MOL0     H33350   4.918   3.243   3.017  0.6345  4.0411  2.0337
  242MOL0     H33351   4.763   3.270   2.945 -0.5630  3.4878  1.6536
  242MOL0     H33352   4.833   3.342   3.228  0.2669 -3.6786 -0.7286
  242MOL0     H33353   4.821   3.451   3.092 -0.0773  1.4629  0.1242
  242MOL0     H33354   4.680   3.284   3.396 -4.0908 -2.1175  2.3532
  242MOL0     H33355   4.721   3.340   3.645  0.4589 -0.0933 -2.1870
  242MOL0     H33356   4.550   3.277   3.645 -0.3857 -0.5737  0.6087
  242MOL0     H33357   4.589   3.436   3.712 -1.3686  0.0654 -1.0185
  242MOL0     H33358   4.109   3.820   3.597  0.3753  2.2587  0.0544
  242MOL0     H33359   3.991   3.909   3.786 -0.6332  0.8984  0.1438
  242MOL0     H33360   4.113   3.774   4.180  0.3271  0.5161  1.5962
  242MOL0     H33361   4.141   3.947   4.212 -0.0091 -1.7303  2.7122
  242MOL0     H33362   3.968   3.891   4.337 -0.0720  1.3744 -0.3311
  242MOL0     H33363   3.880   3.964   4.207 -0.8870  0.9059  2.4554
  242MOL0     H33364   3.923   3.679   4.278  1.6479 -0.2674 -1.0989
  242MOL0     H33365   3.870   3.719   4.109  0.5887 -1.0315 -0.7104
  242MOL0     H33366   3.668   3.828   4.195 -1.9112 -0.9935  1.4017
  242MOL0     H33367   3.728   3.801   4.367  1.8581  0.7187  0.1052
  242MOL0     H33368   3.628   3.620   4.135 -2.4561  2.0073 -0.5511
  242MOL0     H33369   3.694   3.550   4.288  0.1932  0.6966  1.8394
  242MOL0     H33370   3.426   3.690   4.237 -1.6792 -2.1561 -0.7105
  242MOL0     H33371   3.516   3.694   4.396  0.5568 -3.0587  0.7796
  242MOL0     H33372   3.518   3.441   4.374 -0.3978 -0.9246  0.9305
  242MOL0     H33373   3.397   3.465   4.239 -2.0829 -0.7854  1.2404
  242MOL0     H33374   3.332   3.625   4.475 -2.0100  0.5004 -2.6573
  242MOL0     H33375   3.313   3.448   4.508 -1.1707 -1.2983 -0.0802
  242MOL0     H33376   4.267   3.697   4.054  3.0193  0.0943 -1.1938
  242MOL0     H33377   4.367   3.588   3.863 -1.0827 -2.5562 -0.7221
  242MOL0     H33378   4.398   3.683   3.375  1.5213  0.6681  1.5467
  242MOL0     H33379   4.454   3.576   3.159 -2.0671 -0.8870  0.9541
  242MOL0     H33380   4.241   2.526   1.738  0.3055  0.3357  2.3532
  242MOL0     H33381   4.099   2.591   1.546  2.1114 -2.5837 -0.5495
  242MOL0     H33382   3.979   2.892   1.224  1.0732 -0.3244  0.3506
  242MOL0     H33383   3.833   2.912   1.060  1.8052 -0.9660 -0.0193
  242MOL0     H33384   3.530   3.123   0.942 -1.0674 -1.4545 -4.2218
  242MOL0     H33385   3.700   3.072   0.964  1.6461 -0.9391  4.7237
  242MOL0     H33386   3.604   2.838   0.900 -1.1842 -1.3694 -1.6760
  242MOL0     H33387   3.648   2.955   0.784  0.5116 -4.7555 -0.3798
  242MOL0     H33388   3.381   2.840   0.877 -2.6852  0.2132 -1.3175
  242MOL0     H33389   3.363   3.002   0.814  0.5351  0.5202  2.7818
  242MOL0     H33390   3.338   2.804   0.654 -0.3100  0.3996  0.2414
  242MOL0     H33391   3.505   2.769   0.664 -2.7946 -1.9043  3.9383
  242MOL0     H33392   3.564   3.106   0.434  0.0564 -1.6101 -1.3218
  242MOL0     H33393   3.515   3.035   1.337 -1.1883 -2.6282  2.6842
  242MOL0     H33394   3.666   2.918   1.622  0.1912 -0.0630 -0.2329
  242MOL0     H33395   3.758   3.072   1.618 -0.5460 -0.1629 -1.8219
  242MOL0     H33396   3.581   3.072   1.580 -2.0382 -1.2076 -0.0011
  243MOL0     O33397  11.128   2.268   1.106  0.5678 -0.1200  0.0206
  243MOL0     C33398  11.004   2.286   1.122  0.1095  0.3770  0.6123
  243MOL0     O33399  10.925   2.195   1.182  0.4088 -0.5527 -0.2424
  243MOL0     C33400  10.963   2.064   1.199 -1.4692 -0.7404 -0.1068
  243MOL0     C33401  10.888   2.004   1.299  0.1675  0.7539 -0.5972
  243MOL0     C33402  10.907   1.868   1.311  0.3851 -0.6564 -0.1690
  243MOL0     C33403  11.013   1.793   1.242 -0.1080  2.2265 -0.8980
  243MOL0     O33404  11.016   1.658   1.260 -0.4278  0.2650  0.1833
  243MOL0     C33405  11.071   1.619   1.389  0.9012  0.3541 -0.5968
  243MOL0     C33406  11.196   1.690   1.445 -0.0765  0.6631 -0.4290
  243MOL0     C33407  11.225   1.648   1.586 -0.2688 -0.8813  0.5705
  243MOL0     C33408  11.339   1.728   1.668 -0.0133  1.0856  0.6643
  243MOL0     C33409  11.370   1.662   1.803 -0.6012 -0.2058  0.6181
  243MOL0     C33410  11.277   1.722   1.905  0.8035  0.4813 -1.1175
  243MOL0     C33411  11.330   1.714   2.052  0.5083 -0.1556 -0.0744
  243MOL0     C33412  11.235   1.810   2.142  0.0996  0.4552  0.3327
  243MOL0     N33413  11.274   1.802   2.289 -0.3870 -0.2192 -0.3260
  243MOL0     C33414  11.324   1.698   2.355  0.1198  0.2555  0.2780
  243MOL0     C33415  11.356   1.743   2.477 -1.1575  0.3864 -0.3561
  243MOL0     C33416  11.384   1.648   2.592 -0.9682 -0.8525 -0.4332
  243MOL0     C33417  11.249   1.610   2.669 -0.5662  0.2507 -0.1798
  243MOL0     C33418  11.205   1.730   2.752  0.8710 -0.8337 -0.9149
  243MOL0     C33419  11.110   1.676   2.865  0.4795  0.1187 -0.7910
  243MOL0     O33420  11.200   1.608   2.957 -0.3950 -0.1119 -0.5638
  243MOL0     C33421  11.130   1.555   3.066  0.0707  0.1299  0.1582
  243MOL0     C33422  11.089   1.421   3.062 -0.2937  1.3905 -0.0967
  243MOL0     C33423  11.040   1.365   3.186 -0.8871  0.8105  0.3881
  243MOL0     C33424  10.993   1.218   3.172 -0.4916  0.3920 -0.1284
  243MOL0     C33425  11.023   1.442   3.303 -0.3135  1.0820  0.6105
  243MOL0     C33426  10.972   1.377   3.425 -0.1557 -0.2386  0.3097
  243MOL0     O33427  11.061   1.374   3.532 -0.0022  0.0864  0.4402
  243MOL0     C33428  11.011   1.343   3.652  0.4412 -0.8270  0.2903
  243MOL0     C33429  10.954   1.454   3.718 -0.1346  0.4249  0.3672
  243MOL0     C33430  10.904   1.430   3.844  0.3237 -0.1747  0.6785
  243MOL0     C33431  10.910   1.309   3.909 -0.7585 -0.4884  0.4864
  243MOL0     O33432  10.836   1.296   4.021  0.2700  0.4830 -0.2335
  243MOL0     C33433  10.887   1.223   4.138 -0.0123  0.8653  0.7242
  243MOL0     C33434  11.018   1.276   4.197 -0.4557  0.6770  0.5502
  243MOL0     C33435  11.026   1.430   4.225 -0.2658  0.0442  0.8066
  243MOL0     C33436  10.893   1.480   4.280 -0.5980 -0.1560 -0.3125
  243MOL0     C33437  10.898   1.631   4.263  0.6255  0.1574  0.0630
  243MOL0     C33438  10.765   1.679   4.327 -0.6059 -0.5031 -0.4966
  243MOL0     C33439  10.807   1.697   4.473  0.8952 -0.0747 -0.8614
  243MOL0     C33440  10.703   1.764   4.557 -0.5285 -0.5762  0.0597
  243MOL0    Cl33441  10.775   1.776   4.725  0.2791  0.2877 -0.3824
  243MOL0     C33442  10.960   1.196   3.834 -0.3491 -0.3126 -0.1867
  243MOL0     C33443  11.012   1.217   3.709  0.4199  0.1405  0.4033
  243MOL0     O33444  10.855   1.350   3.431 -0.5303  0.1250 -0.0121
  243MOL0     C33445  11.064   1.575   3.304  0.7650  0.0955  0.6414
  243MOL0     C33446  11.123   1.631   3.186  0.0739 -0.1466 -0.2738
  243MOL0     N33447  11.330   1.881   2.489 -0.2088 -0.1681 -0.7046
  243MOL0     N33448  11.280   1.914   2.376  0.5086  0.3391  0.8264
  243MOL0     C33449  11.094   1.857   1.159 -0.2564  0.5617 -0.3427
  243MOL0     C33450  11.069   1.992   1.129  0.9149 -0.0428 -0.1915
  243MOL0     C33451  10.949   2.419   1.091  0.5385 -0.2460 -0.2638
  243MOL0     C33452  10.822   2.446   1.152 -0.5132 -0.6213  0.4355
  243MOL0     C33453  10.771   2.579   1.153  0.1640 -0.2550  0.7964
  243MOL0     C33454  10.833   2.687   1.085  0.2289  0.8267 -0.4013
  243MOL0     O33455  10.790   2.813   1.072  0.6824 -0.0871  0.0642
  243MOL0     C33456  10.668   2.859   1.147 -0.0315 -1.4444  0.0751
  243MOL0     C33457  10.618   3.005   1.092 -0.3383  0.0233 -0.0021
  243MOL0     C33458  10.509   3.073   1.176 -0.0050 -1.3188  0.1415
  243MOL0     C33459  10.372   3.002   1.198  1.1976  0.5645  0.5984
  243MOL0     C33460  10.282   3.095   1.274  0.2443 -0.0611  0.0831
  243MOL0     C33461  10.204   3.183   1.324 -0.2179  0.8793  0.1369
  243MOL0     C33462  10.958   2.657   1.024  0.4993  0.0213  0.0448
  243MOL0     C33463  11.018   2.530   1.026  0.4141  0.0129 -0.2066
  243MOL0     C33464  11.159   2.528   0.979  0.4764 -0.4426  0.2069
  243MOL0     H33465  10.808   2.053   1.354  1.1313 -1.7355  3.3989
  243MOL0     H33466  10.847   1.811   1.381  0.0865 -1.7298 -1.2508
  243MOL0     H33467  11.084   1.511   1.385  0.5126  0.3310 -1.7338
  243MOL0     H33468  10.981   1.630   1.451  1.0135 -1.8863  0.0447
  243MOL0     H33469  11.284   1.670   1.382 -0.7798  0.3233 -1.3273
  243MOL0     H33470  11.180   1.798   1.438  2.2316  1.0117 -1.2505
  243MOL0     H33471  11.135   1.663   1.647 -1.6872  0.2316 -1.6460
  243MOL0     H33472  11.239   1.540   1.578 -0.0120 -1.1529  3.5771
  243MOL0     H33473  11.431   1.728   1.609  0.5121 -0.7608  1.3984
  243MOL0     H33474  11.313   1.833   1.685  1.2071  1.5261 -0.0577
  243MOL0     H33475  11.476   1.675   1.826  0.2536  0.6772 -3.2096
  243MOL0     H33476  11.358   1.554   1.792 -0.3634 -0.0205 -2.2812
  243MOL0     H33477  11.267   1.831   1.899 -5.0752  0.4813  1.8053
  243MOL0     H33478  11.180   1.676   1.886  0.4810  1.6020 -2.3300
  243MOL0     H33479  11.432   1.750   2.067  1.1492 -2.4477  1.5482
  243MOL0     H33480  11.325   1.611   2.088 -3.0720 -1.1036 -2.6420
  243MOL0     H33481  11.237   1.910   2.097  0.2310  1.0817  1.6578
  243MOL0     H33482  11.131   1.778   2.144 -0.4403  2.1357  1.5271
  243MOL0     H33483  11.336   1.596   2.321  2.1034  1.0698 -1.6730
  243MOL0     H33484  11.456   1.681   2.667  0.3509  2.5561 -2.9603
  243MOL0     H33485  11.426   1.557   2.548 -1.5858 -1.1116 -0.5040
  243MOL0     H33486  11.168   1.585   2.600 -2.0410  0.6302  1.3314
  243MOL0     H33487  11.273   1.524   2.731  1.0569  0.7752 -0.0349
  243MOL0     H33488  11.286   1.792   2.792 -0.4578  0.0447  0.5684
  243MOL0     H33489  11.150   1.799   2.688 -1.4236 -2.0500 -0.3430
  243MOL0     H33490  11.059   1.758   2.917  2.4111  0.1612  1.1562
  243MOL0     H33491  11.031   1.613   2.823  0.1311 -1.8144  2.4592
  243MOL0     H33492  11.110   1.368   2.970 -3.2488 -1.5549  0.7162
  243MOL0     H33493  11.055   1.174   3.093 -1.3879  1.9884 -1.8008
  243MOL0     H33494  10.889   1.213   3.138  0.1336  1.8660 -2.5265
  243MOL0     H33495  11.017   1.159   3.261 -1.2368  1.6916  0.9589
  243MOL0     H33496  10.939   1.547   3.665 -2.0590 -0.6427 -1.0832
  243MOL0     H33497  10.865   1.509   3.907  2.6430  2.7874 -1.3066
  243MOL0     H33498  10.812   1.206   4.216  2.3157 -1.7900  2.6164
  243MOL0     H33499  10.903   1.117   4.116 -3.3862  0.7905 -2.2430
  243MOL0     H33500  11.039   1.230   4.294  4.0294  0.8216 -0.1344
  243MOL0     H33501  11.096   1.235   4.132 -1.2205 -2.9416  1.6533
  243MOL0     H33502  11.067   1.472   4.133 -4.6305  0.0176 -1.3861
  243MOL0     H33503  11.098   1.449   4.305 -0.1881 -2.4313  1.4027
  243MOL0     H33504  10.878   1.461   4.386  1.1918 -1.4805 -0.2618
  243MOL0     H33505  10.804   1.433   4.237 -0.2733  0.7496 -2.0815
  243MOL0     H33506  10.987   1.657   4.321 -0.5595 -1.0240  2.5618
  243MOL0     H33507  10.895   1.659   4.157  0.4941 -1.1056 -0.2791
  243MOL0     H33508  10.684   1.606   4.320  0.7627 -2.0181 -1.0135
  243MOL0     H33509  10.742   1.778   4.285 -0.4403 -0.0231  0.5148
  243MOL0     H33510  10.891   1.766   4.488 -0.9806  1.5604  4.3842
  243MOL0     H33511  10.825   1.599   4.517  0.6518 -0.0941 -0.8059
  243MOL0     H33512  10.612   1.703   4.555  0.3274 -1.8610 -0.5357
  243MOL0     H33513  10.682   1.867   4.527  1.2039  0.5423  2.3231
  243MOL0     H33514  10.957   1.096   3.875  0.2091 -0.2299  0.0691
  243MOL0     H33515  11.038   1.120   3.667 -0.2370  1.3048 -3.0836
  243MOL0     H33516  11.048   1.639   3.391 -1.3012  0.9873 -0.3312
  243MOL0     H33517  11.171   1.728   3.191  1.3723 -0.8353  1.9514
  243MOL0     H33518  11.177   1.811   1.106 -0.9185  1.1257 -1.9166
  243MOL0     H33519  11.128   2.036   1.050  1.4948 -2.7885 -1.4204
  243MOL0     H33520  10.776   2.378   1.223 -0.3741 -0.6354  0.5116
  243MOL0     H33521  10.689   2.608   1.218 -0.0910 -1.7992  1.2121
  243MOL0     H33522  10.584   2.789   1.145 -1.1626 -0.1465 -0.0290
  243MOL0     H33523  10.698   2.860   1.252  0.2476  1.1532  0.0514
  243MOL0     H33524  10.584   2.995   0.988  0.0256 -1.1211 -0.0172
  243MOL0     H33525  10.699   3.078   1.096 -2.2165  2.1820  1.8188
  243MOL0     H33526  10.554   3.097   1.273  3.0641 -0.2119 -1.4159
  243MOL0     H33527  10.499   3.169   1.125  0.9025  0.0341  2.3785
  243MOL0     H33528  10.387   2.916   1.264 -0.3501 -0.3667 -0.2255
  243MOL0     H33529  10.319   2.983   1.104  0.0153  0.3916  1.2805
  243MOL0     H33530  10.124   3.248   1.355 -0.0060 -0.3383  3.6844
  243MOL0     H33531  11.002   2.747   0.982 -1.9454 -0.0020 -2.9258
  243MOL0     H33532  11.184   2.441   0.917 -1.4786 -1.3603  0.6334
  243MOL0     H33533  11.182   2.621   0.926 -1.3604  0.9441  1.7047
  243MOL0     H33534  11.230   2.516   1.061  2.1189 -0.7952 -1.2024
  244MOL0     O33535  11.166   0.057   2.833  1.0209  0.1496  0.6015
  244MOL0     C33536  11.042   0.047   2.837  0.4824 -0.4384  0.0817
  244MOL0     O33537  10.975   0.046   2.954 -0.2898  0.2895 -0.7323
  244MOL0     C33538  11.044   0.068   3.067  0.0893 -0.7052  0.5636
  244MOL0     C33539  11.101  -0.035   3.141 -0.0478  0.0364  0.2885
  244MOL0     C33540  11.172  -0.015   3.255  0.5897 -1.0345  1.0657
  244MOL0     C33541  11.182   0.119   3.303  0.6188 -0.6358 -0.5654
  244MOL0     O33542  11.238   0.151   3.422 -0.9164 -0.1363  0.3783
  244MOL0     C33543  11.342   0.067   3.478  0.1006 -0.1095  0.4580
  244MOL0     C33544  11.416   0.127   3.597 -0.8396 -0.6805  0.2378
  244MOL0     C33545  11.507   0.252   3.564 -0.1559 -0.2708  1.2811
  244MOL0     C33546  11.646   0.220   3.497 -0.9551  0.0694 -0.4434
  244MOL0     C33547  11.721   0.353   3.457 -0.0043 -0.2106 -0.7233
  244MOL0     C33548  11.696   0.414   3.323 -0.1041  0.3637 -0.1062
  244MOL0     C33549  11.810   0.512   3.276 -0.6093  0.6241 -0.2956
  244MOL0     C33550  11.919   0.444   3.191 -0.6508 -0.9589 -0.7642
  244MOL0     N33551  12.031   0.545   3.168  0.1868 -0.3526  0.0913
  244MOL0     C33552  12.116   0.609   3.262  0.1131 -0.5423  0.7326
  244MOL0     C33553  12.186   0.708   3.198 -0.0410 -1.0834 -0.0096
  244MOL0     C33554  12.308   0.788   3.241  0.0257  0.1779 -0.8593
  244MOL0     C33555  12.291   0.874   3.365 -0.6602  0.2443 -0.8864
  244MOL0     C33556  12.197   0.998   3.348 -0.3712 -0.2864 -0.3253
  244MOL0     C33557  12.051   0.964   3.326 -0.8342  0.5980 -0.4432
  244MOL0     O33558  12.008   0.878   3.437  0.1473 -0.4929 -0.4847
  244MOL0     C33559  11.878   0.843   3.443 -0.9149  0.8826 -0.0345
  244MOL0     C33560  11.839   0.782   3.564 -0.2903  0.6116 -0.3425
  244MOL0     C33561  11.704   0.753   3.593 -0.0867 -0.4432 -0.3268
  244MOL0     C33562  11.674   0.699   3.733  0.1341  0.5056 -0.3469
  244MOL0     C33563  11.608   0.785   3.499 -0.4204 -0.3060  0.7909
  244MOL0     C33564  11.463   0.748   3.506  0.0522  0.3713  0.1093
  244MOL0     O33565  11.394   0.767   3.391 -0.4816  0.4137 -0.9791
  244MOL0     C33566  11.263   0.728   3.381 -0.3686 -0.4141  0.0028
  244MOL0     C33567  11.157   0.799   3.445  0.4498 -0.5105  0.8089
  244MOL0     C33568  11.020   0.762   3.419 -0.6516 -0.2204 -0.2023
  244MOL0     C33569  10.994   0.661   3.323  0.4969 -0.4006  0.1977
  244MOL0     O33570  10.862   0.625   3.326  0.4868  1.1135  0.0985
  244MOL0     C33571  10.831   0.488   3.280 -0.5079  0.6808 -0.5624
  244MOL0     C33572  10.687   0.445   3.281  0.4133 -0.1823 -0.0553
  244MOL0     C33573  10.667   0.297   3.227 -0.5950  0.5904  0.3079
  244MOL0     C33574  10.732   0.186   3.297 -0.2987 -0.2670  0.7761
  244MOL0     C33575  10.677   0.048   3.243 -0.0853  0.1903  0.0591
  244MOL0     C33576  10.746  -0.063   3.319  0.1467 -0.0874 -0.1427
  244MOL0     C33577  10.699  -0.068   3.469 -1.2936 -0.3836 -0.3525
  244MOL0     C33578  10.741  -0.195   3.535 -0.5163  0.2967  0.4036
  244MOL0    Cl33579  10.919  -0.177   3.557  0.1539  0.4623  0.1211
  244MOL0     C33580  11.095   0.599   3.257 -0.7917  0.2971 -0.0317
  244MOL0     C33581  11.228   0.624   3.297 -0.5196  0.5862 -0.3907
  244MOL0     O33582  11.412   0.699   3.604  0.3861 -0.2528 -0.0566
  244MOL0     C33583  11.649   0.850   3.377 -0.2415  0.7197 -1.0901
  244MOL0     C33584  11.781   0.881   3.352 -0.3371 -0.7218 -0.1611
  244MOL0     N33585  12.139   0.703   3.066  0.0850  0.4444 -0.9309
  244MOL0     N33586  12.043   0.610   3.049  0.1016 -0.0614 -0.5675
  244MOL0     C33587  11.134   0.221   3.231 -0.3214 -0.7751  0.3786
  244MOL0     C33588  11.063   0.203   3.109 -0.1185 -0.3561  0.3666
  244MOL0     C33589  10.954   0.030   2.715 -0.3680  1.0053  0.4684
  244MOL0     C33590  11.020  -0.034   2.605  0.5419 -0.1469 -0.1462
  244MOL0     C33591  10.952  -0.065   2.489 -0.6114  0.7712 -0.4562
  244MOL0     C33592  10.822  -0.032   2.477  0.3640  0.6444  0.1622
  244MOL0     O33593  10.772  -0.069   2.347  0.0972  0.2411 -0.8799
  244MOL0     C33594  10.637  -0.061   2.327  0.1983  0.7109 -0.7201
  244MOL0     C33595  10.610  -0.111   2.191  1.4244 -0.1969  0.3596
  244MOL0     C33596  10.456  -0.091   2.149 -0.8241  0.6919  0.0057
  244MOL0     C33597  10.360  -0.184   2.221 -0.7287 -1.3899  0.5075
  244MOL0     C33598  10.231  -0.117   2.213  0.1088  0.6922  0.8190
  244MOL0     C33599  10.127  -0.050   2.200  0.1960  0.4098 -0.9852
  244MOL0     C33600  10.755   0.045   2.577  0.2263 -0.1796 -0.2047
  244MOL0     C33601  10.822   0.080   2.699 -0.1803 -0.1181 -0.3212
  244MOL0     C33602  10.761   0.179   2.795 -0.4671 -0.0950  0.8817
  244MOL0     H33603  11.100  -0.132   3.092  1.1331 -0.5273  1.3236
  244MOL0     H33604  11.221  -0.099   3.305  2.2933 -0.1029  1.0584
  244MOL0     H33605  11.413   0.050   3.397  0.2923  2.8457 -0.1041
  244MOL0     H33606  11.302  -0.032   3.498 -0.7143  0.0252 -0.4453
  244MOL0     H33607  11.359   0.164   3.683  2.4041  3.3172  0.9850
  244MOL0     H33608  11.485   0.054   3.641  1.2595  0.1986 -1.3813
  244MOL0     H33609  11.446   0.324   3.509  1.3355 -0.1488 -0.2946
  244MOL0     H33610  11.528   0.289   3.665  1.4115 -1.1905  1.3173
  244MOL0     H33611  11.716   0.168   3.563  0.8214  1.7029 -0.9360
  244MOL0     H33612  11.634   0.158   3.409  2.6082  0.0089 -1.0151
  244MOL0     H33613  11.828   0.330   3.456 -0.3111 -1.7730 -1.1374
  244MOL0     H33614  11.702   0.431   3.531  1.2715  0.4642 -1.0753
  244MOL0     H33615  11.679   0.336   3.249 -0.0935 -1.7022  1.9431
  244MOL0     H33616  11.609   0.479   3.338  1.8572  3.0787  0.3419
  244MOL0     H33617  11.858   0.542   3.369  4.7123 -3.2123 -1.3501
  244MOL0     H33618  11.769   0.603   3.232  0.1221  1.0156 -0.1695
  244MOL0     H33619  11.966   0.360   3.243 -1.1408 -0.5040  0.4643
  244MOL0     H33620  11.891   0.419   3.089 -2.3087  2.7942 -1.4153
  244MOL0     H33621  12.129   0.579   3.365 -0.4119  0.6668  1.1721
  244MOL0     H33622  12.337   0.851   3.156  2.9232  0.9994  0.6339
  244MOL0     H33623  12.374   0.705   3.266  0.0236 -0.2307 -2.1114
  244MOL0     H33624  12.271   0.819   3.457  0.5879 -0.7306 -1.1696
  244MOL0     H33625  12.393   0.911   3.380 -1.4534  2.1631  0.2079
  244MOL0     H33626  12.209   1.060   3.438  0.1162  0.1526 -0.6845
  244MOL0     H33627  12.227   1.061   3.264 -0.3504  2.7612  1.7823
  244MOL0     H33628  11.997   1.059   3.323 -2.9446 -0.5528 -1.6117
  244MOL0     H33629  12.027   0.916   3.231  0.0618  1.7776 -1.2981
  244MOL0     H33630  11.917   0.754   3.634 -1.0547 -3.0441 -0.7301
  244MOL0     H33631  11.591   0.754   3.777 -3.1147 -2.3819 -2.3705
  244MOL0     H33632  11.769   0.694   3.787  1.4169 -0.1142 -2.5514
  244MOL0     H33633  11.652   0.592   3.736  3.0230 -0.2646  4.4600
  244MOL0     H33634  11.180   0.873   3.522  1.1591  0.1953 -0.0553
  244MOL0     H33635  10.937   0.802   3.477 -0.7107  0.0321 -0.4643
  244MOL0     H33636  10.860   0.472   3.176 -2.0058 -0.4437 -0.8453
  244MOL0     H33637  10.892   0.420   3.341  0.2075  2.5547  0.9042
  244MOL0     H33638  10.651   0.438   3.384  0.8133  1.0198  0.1867
  244MOL0     H33639  10.616   0.515   3.234 -2.5586 -1.4801  2.1440
  244MOL0     H33640  10.700   0.306   3.123 -1.7170  2.9116  0.0847
  244MOL0     H33641  10.560   0.276   3.218 -1.0172  2.3694  0.7369
  244MOL0     H33642  10.702   0.193   3.402 -0.2093  0.0602  0.7792
  244MOL0     H33643  10.841   0.181   3.290 -0.4230 -1.7421 -1.0814
  244MOL0     H33644  10.570   0.054   3.263 -0.2979  0.2050 -1.0276
  244MOL0     H33645  10.709   0.048   3.138  1.7356  2.0079  0.5274
  244MOL0     H33646  10.855  -0.054   3.322  0.0799  2.9868 -2.5193
  244MOL0     H33647  10.725  -0.161   3.275 -3.9107 -0.8815  2.9127
  244MOL0     H33648  10.590  -0.060   3.455 -1.1512  0.0056 -1.3122
  244MOL0     H33649  10.727   0.014   3.536 -0.6275 -1.0149  0.1488
  244MOL0     H33650  10.724  -0.286   3.477 -1.4921 -0.8524  2.3580
  244MOL0     H33651  10.717  -0.213   3.640  1.1256  0.2602  0.8064
  244MOL0     H33652  11.091   0.525   3.178  1.1086 -1.0645  1.0493
  244MOL0     H33653  11.295   0.563   3.236 -0.3461 -1.2775  1.5631
  244MOL0     H33654  11.578   0.869   3.298 -2.9603  0.4201  1.1249
  244MOL0     H33655  11.798   0.936   3.260 -2.0500 -1.1585 -0.7673
  244MOL0     H33656  11.153   0.322   3.265 -1.3898  0.1465 -1.5661
  244MOL0     H33657  11.018   0.288   3.058  0.3786  0.8649  1.8898
  244MOL0     H33658  11.123  -0.068   2.607  0.1535 -1.7870 -2.6613
  244MOL0     H33659  11.002  -0.122   2.412 -1.5751  2.7382 -2.6366
  244MOL0     H33660  10.596  -0.138   2.393 -0.3587 -2.1756 -4.0693
  244MOL0     H33661  10.591   0.037   2.341  0.9940  1.0677 -0.5561
  244MOL0     H33662  10.634  -0.218   2.182 -1.9080 -1.0786  0.7886
  244MOL0     H33663  10.666  -0.056   2.115 -1.6734  4.7355  1.2006
  244MOL0     H33664  10.421   0.011   2.171  0.0573  1.8834 -3.4511
  244MOL0     H33665  10.454  -0.102   2.040  1.5283 -0.0954 -0.0233
  244MOL0     H33666  10.396  -0.199   2.323 -2.5638 -0.4779  1.3393
  244MOL0     H33667  10.362  -0.282   2.171  1.4185 -0.0745 -2.2315
  244MOL0     H33668  10.037   0.006   2.215 -2.8122 -3.5278 -2.3017
  244MOL0     H33669  10.655   0.083   2.557 -0.5502 -2.5859 -1.1897
  244MOL0     H33670  10.715   0.259   2.736  1.8831 -0.9336 -2.3169
  244MOL0     H33671  10.680   0.132   2.852 -1.4041  2.3887  1.7396
  244MOL0     H33672  10.842   0.228   2.850 -1.0301 -0.4779  2.1002
  245MOL0     O33673   8.810   2.030  10.116  0.0437 -0.1053  0.5927
  245MOL0     C33674   8.903   2.022  10.199  0.3546 -0.0850  0.0022
  245MOL0     O33675   8.900   2.065  10.329 -0.4979  0.0827  0.3287
  245MOL0     C33676   8.785   2.127  10.379 -0.6379 -1.1917  0.5763
  245MOL0     C33677   8.696   2.040  10.442 -0.4982 -0.4489 -0.0552
  245MOL0     C33678   8.572   2.084  10.476  0.3141 -0.6231  0.0282
  245MOL0     C33679   8.546   2.222  10.465  0.5825 -0.3800 -0.3780
  245MOL0     O33680   8.417   2.274  10.512 -0.3172 -0.3896  0.2290
  245MOL0     C33681   8.335   2.206  10.628 -0.8550  0.0691 -0.4370
  245MOL0     C33682   8.246   2.093  10.577  0.4861 -0.3712  1.7214
  245MOL0     C33683   8.118   2.158  10.521  0.2452  0.8019 -0.7971
  245MOL0     C33684   8.018   2.067  10.458 -0.3316 -0.9807 -0.2676
  245MOL0     C33685   8.067   2.015  10.327  0.7378 -0.7264 -0.0942
  245MOL0     C33686   7.948   1.939  10.261  0.3082  0.8451  1.0761
  245MOL0     C33687   7.838   2.032  10.207 -0.8096 -0.4915 -0.6104
  245MOL0     C33688   7.726   1.968  10.134 -0.1251  0.0123 -0.7268
  245MOL0     N33689   7.777   1.885  10.023  0.1977 -0.3550 -1.2590
  245MOL0     C33690   7.824   1.760  10.022 -0.2861  0.3326 -0.0921
  245MOL0     C33691   7.850   1.729   9.893  0.3087 -0.4269 -0.0120
  245MOL0     C33692   7.907   1.591   9.851 -0.1428 -0.7880 -0.6528
  245MOL0     C33693   8.056   1.563   9.905  0.0325 -0.4223 -0.6124
  245MOL0     C33694   8.063   1.458  10.013  0.6922 -0.4410  0.7557
  245MOL0     C33695   8.016   1.312   9.977  0.6690 -0.4643 -0.4341
  245MOL0     O33696   8.084   1.269   9.856  0.5473  0.2441  0.4577
  245MOL0     C33697   8.012   1.197   9.761  1.0070 -1.2981  0.4202
  245MOL0     C33698   8.089   1.095   9.692  0.2640 -0.5031 -0.0794
  245MOL0     C33699   8.030   1.015   9.588 -1.1687 -0.5438  0.2148
  245MOL0     C33700   8.117   0.904   9.518 -1.0317  0.4912 -0.7571
  245MOL0     C33701   7.897   1.036   9.546  0.7184 -0.9051 -0.6882
  245MOL0     C33702   7.826   0.967   9.440 -0.3282 -0.0285 -0.1687
  245MOL0     O33703   7.751   1.044   9.348  0.6047 -0.0418 -0.7851
  245MOL0     C33704   7.673   1.002   9.247  0.2879 -0.3405  0.3779
  245MOL0     C33705   7.705   0.902   9.153  0.4209  0.3936 -0.6971
  245MOL0     C33706   7.625   0.865   9.036  0.3058 -0.6448 -0.0256
  245MOL0     C33707   7.520   0.944   9.000 -0.9595  0.1203  0.0968
  245MOL0     O33708   7.466   0.926   8.878  0.2419 -0.2749 -0.3679
  245MOL0     C33709   7.327   0.938   8.881  0.2782 -0.8262  0.0884
  245MOL0     C33710   7.257   0.858   8.771 -0.6305  0.8042  0.4447
  245MOL0     C33711   7.286   0.709   8.756 -0.0021  0.9384 -0.6442
  245MOL0     C33712   7.201   0.614   8.846  0.3182 -0.2011 -0.1020
  245MOL0     C33713   7.201   0.463   8.825 -0.1326 -0.0699  0.9948
  245MOL0     C33714   7.332   0.405   8.872 -0.5912 -0.4313  0.7128
  245MOL0     C33715   7.321   0.252   8.868 -0.7506 -0.0769  0.3026
  245MOL0     C33716   7.458   0.197   8.863 -0.4724  0.2701  0.8573
  245MOL0    Cl33717   7.444   0.033   8.807 -0.2607  0.2747  0.0202
  245MOL0     C33718   7.495   1.057   9.082 -0.3946 -0.9402  0.1144
  245MOL0     C33719   7.567   1.080   9.201  0.6601 -0.1275 -0.0094
  245MOL0     O33720   7.836   0.844   9.435  0.6608  0.6384 -0.4681
  245MOL0     C33721   7.829   1.141   9.617 -0.1494  0.2722  0.1353
  245MOL0     C33722   7.885   1.222   9.711  0.3106 -0.8770  0.1168
  245MOL0     N33723   7.822   1.842   9.809  0.2577  0.0839  0.3812
  245MOL0     N33724   7.775   1.932   9.894  0.0994  0.3614 -0.1323
  245MOL0     C33725   8.634   2.317  10.412  0.1578  1.2294 -0.2318
  245MOL0     C33726   8.758   2.268  10.366  0.6455 -0.1085 -0.3200
  245MOL0     C33727   9.040   1.962  10.159  0.3370 -0.3499  0.4259
  245MOL0     C33728   9.121   1.939  10.271 -0.5436 -0.0790 -0.0317
  245MOL0     C33729   9.247   1.897  10.258 -0.2373 -0.5208  0.4014
  245MOL0     C33730   9.315   1.899  10.134  0.6458 -0.2849  0.0228
  245MOL0     O33731   9.443   1.871  10.131 -0.7362 -0.8210  0.2637
  245MOL0     C33732   9.524   1.971  10.198  0.2540  0.1359  0.1364
  245MOL0     C33733   9.543   2.092  10.103  0.6580 -0.1377  0.0996
  245MOL0     C33734   9.605   2.049   9.971  0.0589 -0.8383 -0.1296
  245MOL0     C33735   9.738   1.970   9.978  0.3965 -0.0054  0.3257
  245MOL0     C33736   9.849   2.046  10.029  0.2887 -0.1400 -0.8496
  245MOL0     C33737   9.952   2.086  10.073 -0.4706  0.0605 -0.3752
  245MOL0     C33738   9.231   1.921  10.021 -0.3532  0.3300 -0.2203
  245MOL0     C33739   9.100   1.965  10.026  0.1275 -0.2306  1.1459
  245MOL0     C33740   9.025   1.974   9.899  0.1710  0.1435 -0.1764
  245MOL0     H33741   8.721   1.936  10.460  1.7628  0.0830  0.1142
  245MOL0     H33742   8.492   2.020  10.512 -1.1572  1.2388  0.2936
  245MOL0     H33743   8.284   2.286  10.683 -0.7264  1.4784 -2.2430
  245MOL0     H33744   8.404   2.166  10.702 -0.2007  3.2288  0.8262
  245MOL0     H33745   8.293   2.023  10.507 -1.4033 -2.1880  2.1860
  245MOL0     H33746   8.223   2.027  10.662 -0.3987 -0.9908  1.0221
  245MOL0     H33747   8.064   2.219  10.594 -0.0718  2.0522 -2.0213
  245MOL0     H33748   8.133   2.243  10.454  0.1252 -0.4332 -2.4610
  245MOL0     H33749   7.991   1.994  10.535 -2.7603 -1.3615 -1.3814
  245MOL0     H33750   7.930   2.130  10.444  1.2977  2.3896  2.8541
  245MOL0     H33751   8.155   1.953  10.343  0.7403 -0.7628 -0.2478
  245MOL0     H33752   8.101   2.087  10.252  1.4850 -0.6391  0.3249
  245MOL0     H33753   8.005   1.882  10.187  2.1400  0.7255  2.5096
  245MOL0     H33754   7.908   1.861  10.326 -0.5283 -0.0796 -0.4661
  245MOL0     H33755   7.895   2.105  10.150  4.5470 -1.9007  2.3266
  245MOL0     H33756   7.794   2.099  10.281  2.4857  0.0106  1.0598
  245MOL0     H33757   7.663   1.914  10.205  2.9421 -3.1163 -0.1018
  245MOL0     H33758   7.674   2.053  10.089 -2.6022 -0.0754  1.6899
  245MOL0     H33759   7.843   1.703  10.113  0.9016  0.2695 -0.3666
  245MOL0     H33760   7.910   1.589   9.742 -1.5122  1.5852 -0.8005
  245MOL0     H33761   7.834   1.512   9.870 -1.3639  0.1827 -1.1927
  245MOL0     H33762   8.124   1.548   9.821 -1.4559 -2.7628 -1.5095
  245MOL0     H33763   8.093   1.656   9.948 -0.2148 -0.3597 -0.5309
  245MOL0     H33764   8.164   1.448  10.054  0.6752  0.5544  1.0823
  245MOL0     H33765   7.996   1.496  10.090 -0.4559 -2.4223  0.7905
  245MOL0     H33766   8.034   1.246  10.063 -1.7780  1.1173  1.4229
  245MOL0     H33767   7.908   1.317   9.962  1.0496 -0.3141 -3.7686
  245MOL0     H33768   8.193   1.097   9.724  0.2385  1.0346  0.0070
  245MOL0     H33769   8.218   0.932   9.547 -1.7778  2.2350  0.3762
  245MOL0     H33770   8.112   0.908   9.409 -0.2270  0.8268 -0.7826
  245MOL0     H33771   8.101   0.803   9.558 -2.3729  1.7409  2.1726
  245MOL0     H33772   7.788   0.838   9.180 -0.7200  0.0485  2.5320
  245MOL0     H33773   7.639   0.780   8.971 -0.1892  0.2694 -1.3717
  245MOL0     H33774   7.293   0.889   8.973  0.0037 -2.8101 -1.0108
  245MOL0     H33775   7.290   1.041   8.882  0.5642 -0.7222  0.8096
  245MOL0     H33776   7.147   0.861   8.777 -0.8201 -0.7660 -1.4280
  245MOL0     H33777   7.271   0.906   8.674 -0.6629  3.4917  1.6589
  245MOL0     H33778   7.393   0.684   8.760  0.2563  2.0135 -0.3974
  245MOL0     H33779   7.246   0.688   8.657 -2.4674 -2.1532  0.8204
  245MOL0     H33780   7.097   0.642   8.826  1.1333  2.2820 -1.2767
  245MOL0     H33781   7.217   0.640   8.951  1.6250  0.2805 -0.4011
  245MOL0     H33782   7.117   0.419   8.879 -1.1359  1.2762  0.5927
  245MOL0     H33783   7.196   0.433   8.720 -2.5499  0.7968  0.7891
  245MOL0     H33784   7.351   0.431   8.976  5.3179 -2.4024  0.4831
  245MOL0     H33785   7.419   0.445   8.819  0.6067 -1.3541  1.9160
  245MOL0     H33786   7.275   0.210   8.778 -2.5147 -2.0476  2.0267
  245MOL0     H33787   7.263   0.211   8.951 -0.2349  1.3446  1.3994
  245MOL0     H33788   7.506   0.205   8.961  0.3220 -1.0051  0.5935
  245MOL0     H33789   7.519   0.249   8.789  1.0876 -1.3138  0.9518
  245MOL0     H33790   7.420   1.130   9.053 -0.0971 -1.3251 -1.7792
  245MOL0     H33791   7.560   1.169   9.263 -0.4771 -1.0051  1.1849
  245MOL0     H33792   7.726   1.160   9.587 -0.6141 -2.6623 -0.4301
  245MOL0     H33793   7.823   1.301   9.750  1.4427 -0.9797  2.2528
  245MOL0     H33794   8.604   2.420  10.394  0.1415  1.3800  0.6362
  245MOL0     H33795   8.832   2.338  10.326 -0.5716  0.3551 -1.8556
  245MOL0     H33796   9.089   1.953  10.373  2.8782  1.5360  0.9706
  245MOL0     H33797   9.309   1.884  10.346 -0.7683  1.5376  1.1119
  245MOL0     H33798   9.488   2.018  10.290  2.4327 -2.9098  2.7444
  245MOL0     H33799   9.625   1.933  10.213  1.3595  1.5339 -2.8666
  245MOL0     H33800   9.601   2.176  10.143  1.5300  0.0725 -1.5209
  245MOL0     H33801   9.440   2.120  10.080 -0.5083 -2.0806  2.4086
  245MOL0     H33802   9.534   1.993   9.910  0.8091 -1.0443 -0.8249
  245MOL0     H33803   9.632   2.140   9.918  1.1246 -1.4524 -0.6792
  245MOL0     H33804   9.768   1.958   9.873  1.4906  4.7786 -0.1284
  245MOL0     H33805   9.714   1.875  10.028 -0.1846 -1.1453 -1.9891
  245MOL0     H33806  10.041   2.118  10.123 -2.1628  2.0030  1.6275
  245MOL0     H33807   9.280   1.904   9.926 -1.9691 -2.5930 -0.6540
  245MOL0     H33808   9.017   2.079   9.869 -2.9467  0.2946  0.7946
  245MOL0     H33809   9.084   1.920   9.825  1.4964  2.0199 -0.5481
  245MOL0     H33810   8.920   1.945   9.913  0.0216  1.4686  1.9466
  246MOL0     O33811   5.775   9.190   1.907  0.7940  0.3240 -0.6063
  246MOL0     C33812   5.754   9.096   1.991  0.4131  0.1681  0.3438
  246MOL0     O33813   5.660   9.004   1.969 -0.6917 -0.7299 -0.6539
  246MOL0     C33814   5.589   9.009   1.851 -0.4264  1.0706 -0.4935
  246MOL0     C33815   5.630   8.942   1.734 -0.4624 -0.1609  0.4546
  246MOL0     C33816   5.542   8.940   1.629  0.9385 -0.6600  0.6234
  246MOL0     C33817   5.421   9.004   1.624 -0.3037  0.4900 -0.6391
  246MOL0     O33818   5.348   8.999   1.511 -0.1831  0.8089  0.6461
  246MOL0     C33819   5.323   9.127   1.452  0.7513 -0.2107 -0.0129
  246MOL0     C33820   5.165   9.134   1.425  0.7246 -0.0169 -0.5916
  246MOL0     C33821   5.137   9.196   1.284 -0.4304  0.6647 -0.1803
  246MOL0     C33822   4.992   9.247   1.290  0.4176  0.3603  0.4687
  246MOL0     C33823   4.907   9.120   1.276  0.2573 -0.5124  0.0168
  246MOL0     C33824   4.782   9.121   1.360 -1.1205  0.6408 -0.0333
  246MOL0     C33825   4.662   9.032   1.303 -0.1499 -0.4616  0.0524
  246MOL0     C33826   4.607   9.084   1.171 -0.0638 -0.5211  0.6587
  246MOL0     N33827   4.482   9.012   1.142  1.3078 -0.0729  0.1226
  246MOL0     C33828   4.366   9.044   1.209  0.1046 -0.2012  0.7877
  246MOL0     C33829   4.269   8.963   1.155 -0.1323  0.3496 -0.0332
  246MOL0     C33830   4.123   8.968   1.201  0.1503  0.1970 -0.7452
  246MOL0     C33831   4.065   9.056   1.100  0.0023  0.1298  0.0240
  246MOL0     C33832   3.927   9.125   1.145  0.9290  0.9956  0.1242
  246MOL0     C33833   3.895   9.247   1.055 -0.0425 -0.8958  0.0105
  246MOL0     O33834   3.994   9.349   1.059  0.4560 -0.0577 -0.0951
  246MOL0     C33835   3.959   9.477   1.070  0.0485 -0.3478  0.1246
  246MOL0     C33836   4.070   9.555   1.060 -0.6885 -0.3520 -0.0754
  246MOL0     C33837   4.059   9.688   1.075 -0.1568 -0.5004  0.5895
  246MOL0     C33838   4.189   9.763   1.090  0.4442  0.8864  0.6734
  246MOL0     C33839   3.932   9.754   1.087  0.0926 -0.3787  0.6816
  246MOL0     C33840   3.916   9.905   1.106  0.7580 -0.9422 -0.2508
  246MOL0     O33841   3.788   9.934   1.132  0.0957 -0.7881  0.4851
  246MOL0     C33842   3.745  10.052   1.186 -0.5422 -0.5691  0.0627
  246MOL0     C33843   3.819  10.164   1.227  0.1051  0.3767 -0.3072
  246MOL0     C33844   3.753  10.287   1.258 -0.0149  0.6647 -0.3942
  246MOL0     C33845   3.615  10.290   1.268  0.6432 -0.7470  0.6109
  246MOL0     O33846   3.527  10.395   1.311 -0.5373  0.1854  0.2058
  246MOL0     C33847   3.586  10.490   1.397  0.5063 -0.5919 -0.4021
  246MOL0     C33848   3.473  10.580   1.465 -0.7134 -0.3239  1.2665
  246MOL0     C33849   3.524  10.707   1.509  1.6102 -0.2868  0.4866
  246MOL0     C33850   3.429  10.777   1.602 -0.0324  1.0316  0.7908
  246MOL0     C33851   3.448  10.928   1.645  0.2872 -0.1066  0.6441
  246MOL0     C33852   3.351  10.980   1.748  0.0217 -0.2797  0.2110
  246MOL0     C33853   3.418  11.026   1.878  0.7051 -0.6309 -0.3121
  246MOL0     C33854   3.320  11.047   1.996  0.0558 -0.4993  0.3161
  246MOL0    Cl33855   3.212  11.191   1.955 -0.4339  0.5807 -0.3775
  246MOL0     C33856   3.551  10.170   1.246 -0.4291  0.5065 -0.3971
  246MOL0     C33857   3.612  10.056   1.208 -0.4045  0.4897  0.5960
  246MOL0     O33858   4.003   9.987   1.100  0.3680  0.2930  0.2530
  246MOL0     C33859   3.816   9.667   1.082 -0.9496 -0.3574 -0.4378
  246MOL0     C33860   3.831   9.535   1.071  1.2640  0.6233  0.2109
  246MOL0     N33861   4.333   8.868   1.078  0.5344 -0.2131 -0.4321
  246MOL0     N33862   4.459   8.911   1.053 -0.2697 -0.6626 -0.5002
  246MOL0     C33863   5.378   9.059   1.746 -0.3328 -0.8817 -0.0102
  246MOL0     C33864   5.460   9.059   1.860 -0.3241  0.7524 -0.2008
  246MOL0     C33865   5.839   9.073   2.116 -0.3671  0.8763  0.0462
  246MOL0     C33866   5.845   8.943   2.172  0.0752 -0.4167 -0.3153
  246MOL0     C33867   5.919   8.917   2.280  0.4477 -0.7975  0.0155
  246MOL0     C33868   5.979   9.015   2.354 -0.0481 -0.4968 -0.1272
  246MOL0     O33869   6.053   8.984   2.474 -0.1857  0.2123  0.6505
  246MOL0     C33870   6.110   9.090   2.550  0.3014  0.3126 -0.8477
  246MOL0     C33871   6.178   9.028   2.674  0.5830 -0.1083  0.9092
  246MOL0     C33872   6.077   8.944   2.754 -0.5974  0.0131  0.4928
  246MOL0     C33873   6.140   8.899   2.888 -0.3780  0.1218  0.3791
  246MOL0     C33874   6.061   8.791   2.948 -0.7074  0.1121  0.1140
  246MOL0     C33875   5.998   8.689   2.974 -0.5714  0.8257  0.5263
  246MOL0     C33876   5.964   9.149   2.301 -0.6427  0.1592 -0.7018
  246MOL0     C33877   5.893   9.181   2.189 -0.5471 -0.2058 -0.1545
  246MOL0     C33878   5.885   9.321   2.144 -0.7100 -0.3031  0.2818
  246MOL0     H33879   5.731   8.903   1.738  0.0815  1.1294 -0.0040
  246MOL0     H33880   5.574   8.869   1.554 -0.5592 -0.9499  0.2245
  246MOL0     H33881   5.367   9.145   1.354 -0.7423  0.4364 -0.5957
  246MOL0     H33882   5.351   9.208   1.520 -4.8731  1.9441  0.3044
  246MOL0     H33883   5.127   9.035   1.448 -3.1140  1.1441 -1.2282
  246MOL0     H33884   5.134   9.213   1.493 -1.8947 -0.1285 -1.5468
  246MOL0     H33885   5.214   9.273   1.270  0.2900 -0.3783 -2.4058
  246MOL0     H33886   5.148   9.119   1.207 -2.4083 -0.5445  0.6796
  246MOL0     H33887   4.980   9.302   1.384  1.1224  1.5340 -0.1069
  246MOL0     H33888   4.966   9.315   1.209 -2.4133 -1.1803 -0.0379
  246MOL0     H33889   4.960   9.027   1.298  0.3461 -1.4905 -3.7338
  246MOL0     H33890   4.873   9.107   1.173  0.6502 -4.0229  0.2150
  246MOL0     H33891   4.820   9.097   1.459 -0.2700 -2.0756 -0.9215
  246MOL0     H33892   4.752   9.226   1.364 -0.1990  0.9639 -0.9060
  246MOL0     H33893   4.581   9.021   1.376 -0.8809  1.8752 -0.3419
  246MOL0     H33894   4.705   8.932   1.292  0.0920 -0.2537 -1.0901
  246MOL0     H33895   4.591   9.192   1.158 -0.1954 -0.5310  0.7357
  246MOL0     H33896   4.673   9.057   1.089 -2.8388 -0.1564 -1.8744
  246MOL0     H33897   4.346   9.116   1.288 -1.8270 -1.6441  1.7058
  246MOL0     H33898   4.123   9.002   1.305  2.3352 -1.5533 -0.0791
  246MOL0     H33899   4.070   8.872   1.202  0.8460 -0.3529  3.4553
  246MOL0     H33900   4.135   9.140   1.097  1.1039 -0.6542  1.8092
  246MOL0     H33901   4.052   9.007   1.004 -1.7774 -0.2731  0.4284
  246MOL0     H33902   3.849   9.049   1.135 -0.0172  1.7592  1.4336
  246MOL0     H33903   3.915   9.165   1.246  0.1961 -1.8571  1.2580
  246MOL0     H33904   3.888   9.215   0.951  1.6938  0.6277 -0.6435
  246MOL0     H33905   3.793   9.275   1.083  0.6776 -0.5240  2.5431
  246MOL0     H33906   4.166   9.505   1.049  0.0767  0.8119  0.9681
  246MOL0     H33907   4.203   9.833   1.007 -2.6845  2.8723  1.6075
  246MOL0     H33908   4.270   9.691   1.101 -0.8235 -0.3564  2.5479
  246MOL0     H33909   4.188   9.809   1.189  3.4447 -2.1210  2.2883
  246MOL0     H33910   3.926  10.156   1.241  0.5165  2.7635 -1.5483
  246MOL0     H33911   3.816  10.373   1.278 -1.7402  2.9128 -3.6233
  246MOL0     H33912   3.642  10.435   1.474  2.3683 -2.3476 -2.8473
  246MOL0     H33913   3.644  10.561   1.337  1.0678 -0.7227 -0.0164
  246MOL0     H33914   3.397  10.598   1.387  0.0019 -1.3347  0.3084
  246MOL0     H33915   3.414  10.521   1.537 -2.7146 -1.9517 -1.4764
  246MOL0     H33916   3.532  10.775   1.423 -0.7285 -0.1318  0.3406
  246MOL0     H33917   3.624  10.701   1.553  0.7343 -1.9076  2.3938
  246MOL0     H33918   3.429  10.718   1.694  1.0002  1.0308  0.7957
  246MOL0     H33919   3.329  10.773   1.558  1.1767 -1.3508 -2.1259
  246MOL0     H33920   3.552  10.942   1.674  0.5666  0.1190 -0.4119
  246MOL0     H33921   3.436  10.987   1.554  2.7954 -2.7351 -1.6041
  246MOL0     H33922   3.278  10.902   1.771 -0.2631 -0.1022 -0.0806
  246MOL0     H33923   3.303  11.070   1.709 -0.2251 -0.4730  0.0639
  246MOL0     H33924   3.475  11.119   1.874  0.3870 -0.4471 -0.6976
  246MOL0     H33925   3.484  10.945   1.910  1.3834  0.2756  0.6552
  246MOL0     H33926   3.377  11.077   2.084  0.5429 -1.1420  0.2291
  246MOL0     H33927   3.257  10.959   2.014  2.6734 -2.1894  1.9697
  246MOL0     H33928   3.447  10.170   1.276  0.5169  1.4905  3.3984
  246MOL0     H33929   3.544   9.977   1.176  0.3888 -0.1156  0.3774
  246MOL0     H33930   3.723   9.721   1.096 -1.4050 -0.0989 -3.7349
  246MOL0     H33931   3.747   9.466   1.072  0.9449  1.0171  0.5998
  246MOL0     H33932   5.273   9.082   1.753  0.3600  3.5000 -0.9760
  246MOL0     H33933   5.427   9.116   1.947  1.3650  1.2760  0.1217
  246MOL0     H33934   5.797   8.853   2.136  0.7364 -1.2947  0.9312
  246MOL0     H33935   5.932   8.814   2.312 -1.3229 -1.3972 -1.0203
  246MOL0     H33936   6.185   9.148   2.496 -1.1278  6.0213  2.5149
  246MOL0     H33937   6.030   9.156   2.583 -0.9077 -1.7065  0.5233
  246MOL0     H33938   6.228   9.101   2.739 -3.1602  0.5361  3.3493
  246MOL0     H33939   6.251   8.950   2.651  0.2116 -1.1095  2.9361
  246MOL0     H33940   5.984   8.999   2.773 -1.4348 -1.3436  0.4280
  246MOL0     H33941   6.054   8.853   2.698  2.6301 -0.0208 -1.0213
  246MOL0     H33942   6.160   8.985   2.952  2.0632  0.1914 -0.3830
  246MOL0     H33943   6.244   8.873   2.871  0.1587 -0.3422  3.5904
  246MOL0     H33944   5.960   8.596   3.012 -0.3061  1.5699  2.7254
  246MOL0     H33945   6.012   9.231   2.354  0.2344 -2.7011  3.3954
  246MOL0     H33946   5.781   9.354   2.156 -2.5507 -4.1583 -2.7999
  246MOL0     H33947   5.957   9.388   2.192 -0.9387 -0.1339  0.3901
  246MOL0     H33948   5.922   9.333   2.041  0.6716  2.5645  0.9913
  247MOL0     O33949   9.210   5.467   3.353  0.8605 -0.3533 -0.1445
  247MOL0     C33950   9.260   5.356   3.333  0.3109  0.0682  0.1626
  247MOL0     O33951   9.364   5.332   3.253 -0.9449 -0.3795  1.1048
  247MOL0     C33952   9.378   5.416   3.139  1.4619  0.1109 -0.6434
  247MOL0     C33953   9.505   5.461   3.109  0.1579  0.8445 -0.3345
  247MOL0     C33954   9.526   5.556   3.022  0.3513 -0.1630 -0.0251
  247MOL0     C33955   9.419   5.627   2.961 -1.1927  0.1855  0.2775
  247MOL0     O33956   9.435   5.727   2.863  0.4911  0.5872 -0.7740
  247MOL0     C33957   9.555   5.804   2.882 -0.2503 -1.2498  0.3027
  247MOL0     C33958   9.535   5.942   2.814  0.3124 -0.2205 -0.1867
  247MOL0     C33959   9.499   6.040   2.924  0.0319  0.1920  0.3290
  247MOL0     C33960   9.448   6.181   2.870  0.3945 -0.7599 -0.1266
  247MOL0     C33961   9.415   6.277   2.979  1.4252  0.1078 -0.6884
  247MOL0     C33962   9.294   6.251   3.069 -0.5643  0.0068 -0.6096
  247MOL0     C33963   9.309   6.340   3.202  0.1937  0.1763 -0.4208
  247MOL0     C33964   9.171   6.363   3.266  0.4063 -0.4939  1.0275
  247MOL0     N33965   9.160   6.498   3.324 -0.4377 -0.7652  0.3818
  247MOL0     C33966   9.082   6.594   3.264  0.6146 -0.0255  1.1658
  247MOL0     C33967   9.087   6.698   3.351  0.5750  0.0285 -0.4222
  247MOL0     C33968   9.009   6.824   3.337  0.1033  0.5416 -0.0935
  247MOL0     C33969   8.870   6.779   3.382 -0.0092  0.3236 -1.1127
  247MOL0     C33970   8.772   6.899   3.367 -0.3096 -0.4295  0.2414
  247MOL0     C33971   8.652   6.874   3.454 -0.5839 -0.4758  0.2137
  247MOL0     O33972   8.556   6.977   3.425  0.4443 -0.3669  0.0935
  247MOL0     C33973   8.586   7.115   3.447  0.3331  0.5557  1.0566
  247MOL0     C33974   8.525   7.213   3.367 -0.5134 -0.2214  0.0871
  247MOL0     C33975   8.550   7.343   3.386  1.2387 -0.1902 -0.4972
  247MOL0     C33976   8.482   7.453   3.301  0.1071  0.3681 -0.5386
  247MOL0     C33977   8.630   7.385   3.494 -0.4103 -0.0085 -0.5056
  247MOL0     C33978   8.650   7.534   3.532  0.1445  0.6916 -0.1871
  247MOL0     O33979   8.581   7.593   3.634 -0.1422  0.5775 -0.4826
  247MOL0     C33980   8.616   7.720   3.672 -0.8343  0.5053 -0.1048
  247MOL0     C33981   8.725   7.750   3.759 -1.2533 -0.5871  0.0373
  247MOL0     C33982   8.755   7.890   3.782  0.0405  0.6253  0.4687
  247MOL0     C33983   8.655   7.995   3.746  0.7608  0.0682  0.4912
  247MOL0     O33984   8.667   8.133   3.768 -0.1105  0.2509  0.5643
  247MOL0     C33985   8.771   8.181   3.856 -1.0742  0.5779 -1.3102
  247MOL0     C33986   8.761   8.329   3.872  0.6273  1.1608 -1.1788
  247MOL0     C33987   8.635   8.373   3.961 -0.4661  0.6760 -0.3913
  247MOL0     C33988   8.626   8.520   3.974  0.2604 -0.5805 -1.2345
  247MOL0     C33989   8.486   8.563   4.030  0.3942 -0.8735 -0.7150
  247MOL0     C33990   8.480   8.719   4.050  0.1830 -0.7737  0.2946
  247MOL0     C33991   8.576   8.782   4.158 -0.0300  0.7657  0.3405
  247MOL0     C33992   8.571   8.696   4.294 -0.0938 -0.1084 -0.2907
  247MOL0    Cl33993   8.697   8.574   4.279  0.3302 -0.2775 -0.1214
  247MOL0     C33994   8.543   7.948   3.664 -0.8693 -0.1090  0.2590
  247MOL0     C33995   8.521   7.816   3.636  0.4570  0.1295 -0.1016
  247MOL0     O33996   8.739   7.587   3.476 -0.2852  1.2645  0.3868
  247MOL0     C33997   8.679   7.289   3.580 -0.7153  0.0064  0.0114
  247MOL0     C33998   8.670   7.155   3.556 -1.0690 -0.2988  0.6588
  247MOL0     N33999   9.160   6.648   3.460 -0.2485 -0.3244 -0.4434
  247MOL0     N34000   9.212   6.530   3.447  0.8614  0.0290  0.1938
  247MOL0     C34001   9.287   5.589   2.995  0.0643  0.5283 -0.1482
  247MOL0     C34002   9.265   5.484   3.079 -0.6865  1.2769 -0.5426
  247MOL0     C34003   9.222   5.251   3.433  0.3469 -0.8885 -0.1443
  247MOL0     C34004   9.188   5.301   3.563 -0.0929 -0.3148 -0.1302
  247MOL0     C34005   9.147   5.207   3.664 -0.4312  0.0311  1.0412
  247MOL0     C34006   9.129   5.072   3.639 -0.0021 -0.5254  0.1622
  247MOL0     O34007   9.076   4.986   3.728 -1.1289  0.0632 -0.4393
  247MOL0     C34008   9.076   5.016   3.868  0.0826  0.4821 -0.0340
  247MOL0     C34009   9.221   4.993   3.920  0.8458  0.7031 -0.5082
  247MOL0     C34010   9.242   5.042   4.057 -0.4250  0.2069 -1.1405
  247MOL0     C34011   9.322   4.953   4.154 -0.3028 -0.7215 -0.6217
  247MOL0     C34012   9.326   5.027   4.288 -0.3607  0.5062 -0.9696
  247MOL0     C34013   9.325   5.069   4.405  0.9697 -0.0242  0.4306
  247MOL0     C34014   9.161   5.024   3.508 -0.0773 -0.6931 -0.2450
  247MOL0     C34015   9.208   5.110   3.410  0.3296  0.0604  0.8912
  247MOL0     C34016   9.246   5.040   3.286  0.0277 -0.0372 -0.4965
  247MOL0     H34017   9.590   5.406   3.149 -0.7677 -2.5371 -2.5873
  247MOL0     H34018   9.627   5.585   2.996  0.4415 -1.6472 -1.5369
  247MOL0     H34019   9.644   5.757   2.837 -0.2218 -1.2099  0.3180
  247MOL0     H34020   9.583   5.814   2.987 -0.0419  2.0811  0.0221
  247MOL0     H34021   9.626   5.983   2.770 -0.0721 -1.9769 -2.9120
  247MOL0     H34022   9.455   5.940   2.739  0.3042  2.0644 -0.3145
  247MOL0     H34023   9.435   6.004   3.006 -1.3763 -0.2389 -0.9086
  247MOL0     H34024   9.597   6.067   2.964  1.0036  1.4969 -2.6774
  247MOL0     H34025   9.520   6.226   2.802 -1.8604 -0.5843 -2.5500
  247MOL0     H34026   9.356   6.158   2.815  0.3960 -1.9873  0.3507
  247MOL0     H34027   9.384   6.364   2.920 -2.3051  0.1684  1.0426
  247MOL0     H34028   9.498   6.291   3.049  1.7353 -0.4551 -0.9377
  247MOL0     H34029   9.209   6.279   3.005 -1.0679 -0.6957 -0.2562
  247MOL0     H34030   9.289   6.148   3.103  2.4178 -0.3574 -1.0411
  247MOL0     H34031   9.349   6.440   3.180  1.2856  0.5807  2.7410
  247MOL0     H34032   9.372   6.295   3.280 -1.2018 -1.2195 -0.0427
  247MOL0     H34033   9.086   6.343   3.201  0.6762 -1.2312  0.8860
  247MOL0     H34034   9.146   6.292   3.345 -3.0522 -0.0113  0.5307
  247MOL0     H34035   9.029   6.578   3.171  4.6062  1.4704 -1.6420
  247MOL0     H34036   9.010   6.861   3.234 -4.0928  1.4624  0.0029
  247MOL0     H34037   9.049   6.906   3.396 -1.1343  0.7815  0.4448
  247MOL0     H34038   8.841   6.682   3.341 -1.4433 -1.3496  3.2537
  247MOL0     H34039   8.868   6.763   3.490 -1.6843 -1.4727 -1.3606
  247MOL0     H34040   8.821   6.995   3.389  0.0098 -0.3821 -0.6554
  247MOL0     H34041   8.737   6.897   3.264  0.4564  1.4874 -0.0980
  247MOL0     H34042   8.607   6.775   3.447  1.5812 -1.5539  0.7249
  247MOL0     H34043   8.692   6.880   3.556 -0.5904 -1.5293  0.2849
  247MOL0     H34044   8.458   7.190   3.286 -0.6566  3.3515 -1.0018
  247MOL0     H34045   8.560   7.526   3.281 -1.3653  1.6351 -1.9845
  247MOL0     H34046   8.397   7.496   3.356  1.7965  0.5811  2.0767
  247MOL0     H34047   8.436   7.404   3.215 -0.7823  2.8003 -1.5302
  247MOL0     H34048   8.784   7.666   3.793  0.9000 -0.2591 -2.5550
  247MOL0     H34049   8.849   7.914   3.831  1.3184 -1.0236 -1.0378
  247MOL0     H34050   8.755   8.138   3.955 -1.1896  1.4773 -0.9376
  247MOL0     H34051   8.868   8.163   3.809 -1.6173  1.2969 -2.7765
  247MOL0     H34052   8.854   8.365   3.917 -0.0402  0.5097  0.8425
  247MOL0     H34053   8.757   8.376   3.774 -0.4315 -2.4510 -3.0267
  247MOL0     H34054   8.634   8.327   4.060 -3.5559 -2.7645 -1.7676
  247MOL0     H34055   8.548   8.327   3.911  1.6886 -2.5173 -1.5326
  247MOL0     H34056   8.645   8.557   3.873  2.0284  1.2800 -0.2918
  247MOL0     H34057   8.710   8.556   4.035 -1.8557 -0.9735  2.1961
  247MOL0     H34058   8.408   8.539   3.956  0.9758 -1.2357 -1.2202
  247MOL0     H34059   8.465   8.518   4.127 -3.0171  0.5145 -0.6294
  247MOL0     H34060   8.377   8.745   4.077  0.6908  1.2156  0.3987
  247MOL0     H34061   8.505   8.773   3.959 -2.5220  0.9982  0.5007
  247MOL0     H34062   8.554   8.885   4.188 -1.2088  0.1634  1.6274
  247MOL0     H34063   8.676   8.788   4.113  0.4126 -4.5720  0.0417
  247MOL0     H34064   8.475   8.646   4.306  1.5324 -4.2321 -2.5571
  247MOL0     H34065   8.610   8.747   4.383 -1.1883  2.2702 -1.0885
  247MOL0     H34066   8.473   8.024   3.631 -1.0808 -0.2544  0.3756
  247MOL0     H34067   8.434   7.798   3.574 -0.1746  3.7469 -0.5234
  247MOL0     H34068   8.737   7.326   3.664 -0.1806 -2.6878  0.9270
  247MOL0     H34069   8.718   7.090   3.629 -0.4523 -0.6064 -0.0083
  247MOL0     H34070   9.199   5.636   2.952 -0.8466 -1.0267 -0.0500
  247MOL0     H34071   9.169   5.440   3.105 -1.0909  1.6541 -1.3951
  247MOL0     H34072   9.187   5.406   3.592  1.9982 -0.6169  1.2608
  247MOL0     H34073   9.119   5.244   3.762 -1.7352 -0.0885  0.7367
  247MOL0     H34074   9.031   5.113   3.891 -0.0135  0.5631 -0.5647
  247MOL0     H34075   8.999   4.963   3.925  1.0866 -0.6402  0.3318
  247MOL0     H34076   9.290   5.056   3.863  0.7116 -0.9202 -2.5784
  247MOL0     H34077   9.246   4.888   3.902 -3.6083 -0.7847  0.6584
  247MOL0     H34078   9.289   5.141   4.052  0.3311 -0.1704 -1.8329
  247MOL0     H34079   9.144   5.052   4.104 -0.5140  0.5122 -1.3842
  247MOL0     H34080   9.421   4.931   4.114 -0.0626  0.5535 -0.7666
  247MOL0     H34081   9.265   4.859   4.162 -0.6162 -0.4231  0.8790
  247MOL0     H34082   9.316   5.107   4.505 -2.1286 -0.4947  0.4101
  247MOL0     H34083   9.142   4.918   3.492 -4.1245  0.0209 -1.1395
  247MOL0     H34084   9.342   4.992   3.307  1.1643  2.2807 -0.1829
  247MOL0     H34085   9.174   4.966   3.249 -3.1898  1.2392  2.6648
  247MOL0     H34086   9.291   5.110   3.215 -0.0685 -0.8564 -1.3868
  248MOL0     O34087   1.412   9.667   6.150  0.1275  0.5536 -0.4961
  248MOL0     C34088   1.351   9.750   6.216  0.0567  0.8039  0.6766
  248MOL0     O34089   1.215   9.734   6.256 -0.2005 -0.6475  0.0431
  248MOL0     C34090   1.131   9.654   6.183 -0.4861  0.6745 -0.0132
  248MOL0     C34091   1.145   9.629   6.049 -0.4686  0.9005 -0.3708
  248MOL0     C34092   1.057   9.542   5.984 -0.6978 -0.8237  0.0691
  248MOL0     C34093   0.971   9.455   6.066 -0.3207 -0.6012 -0.1326
  248MOL0     O34094   0.906   9.351   6.002  0.1062  0.2978  0.0460
  248MOL0     C34095   0.832   9.381   5.880 -0.2439  0.2802  0.4561
  248MOL0     C34096   0.759   9.262   5.816 -0.9154 -0.4145 -0.3257
  248MOL0     C34097   0.702   9.307   5.681  0.5336 -1.3551  0.5187
  248MOL0     C34098   0.550   9.331   5.696  0.7222 -0.4298  0.1693
  248MOL0     C34099   0.511   9.416   5.575 -0.6382 -0.0742  0.6102
  248MOL0     C34100   0.381   9.484   5.580  0.3538  0.7467  0.3831
  248MOL0     C34101   0.327   9.507   5.431  0.5517  0.4594 -0.2236
  248MOL0     C34102   0.176   9.541   5.455  0.5054 -0.6887 -0.3151
  248MOL0     N34103   0.140   9.664   5.532 -0.8968 -0.0699  0.6675
  248MOL0     C34104   0.141   9.659   5.670 -0.0461 -0.5548 -0.2626
  248MOL0     C34105   0.107   9.786   5.703 -0.8122 -1.0975 -1.0467
  248MOL0     C34106   0.102   9.852   5.844  0.1347 -0.6621  0.5727
  248MOL0     C34107  -0.037   9.881   5.903 -0.0759  2.2343  0.1302
  248MOL0     C34108  -0.040   9.970   6.023 -0.5744 -0.8703 -0.0345
  248MOL0     C34109  -0.174   9.964   6.105 -0.4993  0.6794  0.2777
  248MOL0     O34110  -0.191   9.831   6.162 -0.5567  0.5992  0.6772
  248MOL0     C34111  -0.252   9.808   6.281 -0.0226 -0.1675 -0.3011
  248MOL0     C34112  -0.177   9.746   6.381  0.7342  0.5593 -0.6428
  248MOL0     C34113  -0.229   9.721   6.510 -0.7475 -0.0935 -0.5270
  248MOL0     C34114  -0.141   9.647   6.606  0.1009 -0.5040  0.5123
  248MOL0     C34115  -0.362   9.756   6.536 -0.0374 -0.2846 -0.2720
  248MOL0     C34116  -0.444   9.730   6.663  0.3602  0.2556  0.2563
  248MOL0     O34117  -0.386   9.645   6.751 -0.4984  0.0117  0.2244
  248MOL0     C34118  -0.411   9.667   6.884  0.4833  0.8891 -0.0867
  248MOL0     C34119  -0.427   9.790   6.939 -0.7178  0.3569  0.6445
  248MOL0     C34120  -0.451   9.804   7.072 -0.3166 -0.1150  1.2496
  248MOL0     C34121  -0.469   9.692   7.158 -0.5626  0.2595 -0.6915
  248MOL0     O34122  -0.486   9.711   7.290 -0.0984 -0.4383  0.2414
  248MOL0     C34123  -0.389   9.650   7.372  0.2692  0.1013 -0.1493
  248MOL0     C34124  -0.267   9.738   7.388 -0.7834  0.4970 -0.3777
  248MOL0     C34125  -0.177   9.689   7.504  0.3466 -0.0712  0.5375
  248MOL0     C34126  -0.027   9.729   7.491 -0.7222 -0.1582 -0.0755
  248MOL0     C34127  -0.013   9.879   7.491 -0.1708  0.2542 -0.0724
  248MOL0     C34128   0.138   9.903   7.529  0.4094  0.4176  0.2169
  248MOL0     C34129   0.202  10.044   7.506  0.2546  0.1210 -0.3965
  248MOL0     C34130   0.217  10.078   7.357 -0.0381  0.2235 -0.2572
  248MOL0    Cl34131   0.363  10.173   7.311 -0.2360 -0.2736 -0.2494
  248MOL0     C34132  -0.457   9.563   7.103  0.5170 -0.0681 -1.5780
  248MOL0     C34133  -0.428   9.550   6.966 -0.4621 -0.8919  0.6197
  248MOL0     O34134  -0.554   9.789   6.683  0.2262 -0.4116 -0.0115
  248MOL0     C34135  -0.440   9.816   6.433 -0.1701  0.8185 -0.4623
  248MOL0     C34136  -0.385   9.832   6.309  0.2866  0.4754 -0.7044
  248MOL0     N34137   0.088   9.857   5.590  1.1543  0.1961 -0.9448
  248MOL0     N34138   0.104   9.783   5.489 -0.1582 -0.0705  0.7676
  248MOL0     C34139   0.964   9.462   6.212 -0.2189 -0.2277  0.4651
  248MOL0     C34140   1.048   9.562   6.257 -0.3833 -0.0083 -0.1501
  248MOL0     C34141   1.415   9.868   6.246 -0.1811  0.5161 -0.4176
  248MOL0     C34142   1.437   9.896   6.387  0.2203  0.5646 -0.1875
  248MOL0     C34143   1.512  10.001   6.420 -0.1913  0.5712  0.4729
  248MOL0     C34144   1.570  10.090   6.322  0.3783 -0.1557 -1.3848
  248MOL0     O34145   1.632  10.204   6.385 -0.2288  0.3358  0.5671
  248MOL0     C34146   1.641  10.327   6.310  0.1597 -0.1175 -0.3889
  248MOL0     C34147   1.506  10.402   6.263 -0.2498  0.9217 -0.3603
  248MOL0     C34148   1.468  10.511   6.363 -0.4906 -0.6029  0.7514
  248MOL0     C34149   1.324  10.565   6.334 -0.2924 -0.9459 -0.1101
  248MOL0     C34150   1.315  10.614   6.194  0.0330 -0.0052  0.6298
  248MOL0     C34151   1.316  10.659   6.081 -0.0184  0.2397 -0.4512
  248MOL0     C34152   1.552  10.065   6.194  0.1287  0.5070  0.6577
  248MOL0     C34153   1.483   9.949   6.157  0.4143 -0.1951  0.7002
  248MOL0     C34154   1.472   9.934   6.011 -0.4815  0.3037 -0.1846
  248MOL0     H34155   1.210   9.698   5.996 -1.3883  1.6772 -0.5104
  248MOL0     H34156   1.064   9.529   5.876 -1.1521 -1.0988  0.0697
  248MOL0     H34157   0.902   9.432   5.813  0.9988 -1.6483  0.2064
  248MOL0     H34158   0.757   9.455   5.909 -0.0993  0.9320 -0.7542
  248MOL0     H34159   0.832   9.183   5.795 -1.5278 -1.6954  2.0773
  248MOL0     H34160   0.687   9.214   5.882 -1.4805  4.4492  3.0638
  248MOL0     H34161   0.751   9.400   5.649  1.1637 -1.4744  1.1067
  248MOL0     H34162   0.719   9.231   5.604  1.2532 -3.1618  2.3668
  248MOL0     H34163   0.487   9.243   5.710 -1.8564  1.4164  1.0048
  248MOL0     H34164   0.535   9.393   5.785  0.4822 -3.4640  2.3859
  248MOL0     H34165   0.514   9.342   5.494  2.4356 -0.5543  1.0162
  248MOL0     H34166   0.591   9.491   5.567 -1.1619  0.3177 -4.2019
  248MOL0     H34167   0.316   9.419   5.640  0.7817 -1.5636 -1.5262
  248MOL0     H34168   0.384   9.585   5.623 -0.6464  2.5599 -3.3569
  248MOL0     H34169   0.333   9.418   5.368  0.2640 -0.5679  1.1586
  248MOL0     H34170   0.377   9.591   5.382 -0.9716  3.0970  2.4081
  248MOL0     H34171   0.116   9.549   5.364 -2.9272 -1.6355  1.6849
  248MOL0     H34172   0.131   9.465   5.520 -0.2663  0.1481  0.1462
  248MOL0     H34173   0.183   9.586   5.738  1.1145 -0.3510 -0.7265
  248MOL0     H34174   0.146   9.952   5.841 -1.6996  0.1647 -1.3564
  248MOL0     H34175   0.155   9.779   5.907  1.1086 -1.4394 -1.0565
  248MOL0     H34176  -0.114   9.908   5.830 -0.1706  1.2036 -0.1702
  248MOL0     H34177  -0.059   9.783   5.946 -1.0531  1.4745 -1.9660
  248MOL0     H34178   0.033   9.921   6.089  1.1594 -3.3418 -3.4790
  248MOL0     H34179  -0.011  10.074   6.007 -0.7244 -0.6328  1.1709
  248MOL0     H34180  -0.165  10.037   6.185 -0.3698 -0.6534  1.5205
  248MOL0     H34181  -0.259   9.992   6.042 -1.7833  1.3755  2.2432
  248MOL0     H34182  -0.074   9.713   6.374  0.4615 -1.3614  2.2637
  248MOL0     H34183  -0.136   9.693   6.705  0.2407 -1.9710  1.2253
  248MOL0     H34184  -0.044   9.632   6.558 -1.3698 -3.2678 -1.9605
  248MOL0     H34185  -0.190   9.549   6.617  0.3179 -0.4469  2.2254
  248MOL0     H34186  -0.420   9.877   6.875 -0.1812 -0.1462 -0.0001
  248MOL0     H34187  -0.453   9.903   7.118 -2.4862  0.9282 -0.8553
  248MOL0     H34188  -0.444   9.636   7.466 -0.2920  0.7864 -0.3639
  248MOL0     H34189  -0.371   9.548   7.336 -0.9514  0.4418 -1.8975
  248MOL0     H34190  -0.209   9.736   7.295 -0.1897  1.0862 -0.0257
  248MOL0     H34191  -0.300   9.842   7.402 -3.3416 -0.4948  1.7958
  248MOL0     H34192  -0.199   9.583   7.520 -3.5893  0.4936 -0.2251
  248MOL0     H34193  -0.211   9.742   7.594 -1.8790 -1.3868  0.5195
  248MOL0     H34194   0.007   9.694   7.393 -2.2399  1.5698 -1.2978
  248MOL0     H34195   0.024   9.674   7.570  0.5835  2.9281  1.4035
  248MOL0     H34196  -0.030   9.929   7.395 -0.1144  0.2498 -0.0851
  248MOL0     H34197  -0.083   9.930   7.558 -1.2514 -0.3465 -0.7243
  248MOL0     H34198   0.194   9.823   7.480 -2.7510 -2.6503  1.2311
  248MOL0     H34199   0.145   9.891   7.637 -1.0629  0.4119  0.3230
  248MOL0     H34200   0.299  10.045   7.556 -0.5666  1.6362  1.2853
  248MOL0     H34201   0.140  10.119   7.556  0.9622  0.3662  0.1219
  248MOL0     H34202   0.120  10.111   7.317 -0.6347 -2.0073 -0.7917
  248MOL0     H34203   0.250   9.992   7.299  5.1582 -0.1215  2.6549
  248MOL0     H34204  -0.472   9.479   7.170  0.9735  2.6282  2.2399
  248MOL0     H34205  -0.417   9.450   6.925 -0.2175 -0.2677 -0.9164
  248MOL0     H34206  -0.546   9.840   6.437 -1.5081 -3.9023 -1.5515
  248MOL0     H34207  -0.446   9.876   6.231  0.7853 -0.2637 -1.5356
  248MOL0     H34208   0.924   9.407   6.297 -0.2322 -1.5602 -0.3705
  248MOL0     H34209   1.051   9.579   6.365 -1.0205  0.5253 -0.2099
  248MOL0     H34210   1.398   9.846   6.475  0.4824 -0.8952 -0.8775
  248MOL0     H34211   1.503  10.033   6.524  0.6858  2.1203  0.1139
  248MOL0     H34212   1.693  10.406   6.364 -2.2613  1.8059 -0.6682
  248MOL0     H34213   1.705  10.309   6.224  1.1743 -3.9811  0.9715
  248MOL0     H34214   1.430  10.325   6.251  0.3227 -0.1651  2.3910
  248MOL0     H34215   1.505  10.455   6.167 -0.1265 -2.0842 -2.1265
  248MOL0     H34216   1.466  10.494   6.471  0.4219  1.4910  1.1430
  248MOL0     H34217   1.529  10.601   6.353 -3.5555  1.4999 -0.9153
  248MOL0     H34218   1.278  10.639   6.400  0.4346 -0.4684 -0.1176
  248MOL0     H34219   1.255  10.481   6.342 -1.6022 -0.0521 -1.3522
  248MOL0     H34220   1.309  10.689   5.979  2.8156  0.8938 -0.5346
  248MOL0     H34221   1.580  10.140   6.121 -5.7886  1.8245 -0.8234
  248MOL0     H34222   1.451   9.833   5.975  0.4030  1.1102 -3.2710
  248MOL0     H34223   1.392   9.998   5.972  1.3244  1.8851 -1.5316
  248MOL0     H34224   1.563   9.969   5.961 -0.4650  0.9402  0.2808
  249MOL0     O34225  10.469   0.947   2.291 -0.2872  0.1311 -1.3467
  249MOL0     C34226  10.571   0.970   2.357  0.2171 -0.2148 -0.4763
  249MOL0     O34227  10.581   1.033   2.475 -0.1852 -0.1501 -0.4005
  249MOL0     C34228  10.474   1.108   2.526 -0.9378  0.1879 -0.6385
  249MOL0     C34229  10.394   1.070   2.638  0.2842  0.2373 -0.0863
  249MOL0     C34230  10.301   1.170   2.681  0.3177 -0.5565  0.2158
  249MOL0     C34231  10.275   1.292   2.612 -0.6634  0.1770  0.5701
  249MOL0     O34232  10.176   1.364   2.675  0.3531 -0.0720  0.3980
  249MOL0     C34233  10.143   1.497   2.633 -0.5037  0.9510 -0.3758
  249MOL0     C34234  10.092   1.564   2.755 -0.4403 -0.5445  0.6653
  249MOL0     C34235  10.046   1.711   2.732  0.0034 -0.1735 -0.1065
  249MOL0     C34236  10.159   1.814   2.749  0.7271  0.2980 -0.4649
  249MOL0     C34237  10.103   1.951   2.743 -0.3746 -0.2366  0.8213
  249MOL0     C34238  10.213   2.055   2.737 -0.7971 -0.2260 -0.6563
  249MOL0     C34239  10.168   2.195   2.689 -0.4399  0.4433 -0.0900
  249MOL0     C34240  10.236   2.320   2.757  0.6857  0.2041 -0.3676
  249MOL0     N34241  10.199   2.349   2.900  0.9639 -0.7252  0.6075
  249MOL0     C34242  10.096   2.297   2.978  0.1168  0.4482 -0.8306
  249MOL0     C34243  10.083   2.366   3.086  0.6739  0.2800 -0.7001
  249MOL0     C34244   9.948   2.356   3.157 -0.1170 -0.6063  0.3872
  249MOL0     C34245   9.930   2.463   3.263 -0.0450  0.5375 -0.0190
  249MOL0     C34246   9.774   2.479   3.275  0.5097  0.5547  0.7273
  249MOL0     C34247   9.730   2.596   3.362  0.5383 -0.5437  0.4484
  249MOL0     O34248   9.760   2.565   3.499  0.6206  0.4398 -0.0203
  249MOL0     C34249   9.687   2.637   3.583  0.0942  0.7435 -0.1734
  249MOL0     C34250   9.543   2.605   3.602 -0.0002  0.9685  0.0259
  249MOL0     C34251   9.477   2.666   3.704 -0.6390 -0.1990 -0.1341
  249MOL0     C34252   9.336   2.620   3.729 -1.0205  1.4007 -0.2925
  249MOL0     C34253   9.543   2.774   3.776 -0.8823  0.4614  0.3255
  249MOL0     C34254   9.474   2.858   3.886  0.4868  0.3180 -1.5684
  249MOL0     O34255   9.552   2.959   3.949 -0.0006 -0.0651  0.5797
  249MOL0     C34256   9.501   3.076   4.010  0.0517  0.1107  0.3918
  249MOL0     C34257   9.587   3.153   4.093 -0.7080  0.2108  1.0463
  249MOL0     C34258   9.552   3.273   4.167  0.4781  0.6781  0.6355
  249MOL0     C34259   9.422   3.326   4.142  0.1446  0.4027  0.3064
  249MOL0     O34260   9.393   3.454   4.199  0.3383 -0.2827  0.3529
  249MOL0     C34261   9.257   3.500   4.192 -0.4642  0.4184 -0.2159
  249MOL0     C34262   9.248   3.641   4.250  0.1414  0.2180  0.0020
  249MOL0     C34263   9.107   3.685   4.275  0.0645 -0.2236  0.0196
  249MOL0     C34264   9.085   3.823   4.332 -0.4569  1.2055 -0.0993
  249MOL0     C34265   8.951   3.881   4.289 -0.0617  0.0269  0.4873
  249MOL0     C34266   8.930   4.031   4.319 -0.2389  0.0079 -1.1911
  249MOL0     C34267   8.788   4.075   4.309  0.8126 -0.1269  0.6806
  249MOL0     C34268   8.760   4.210   4.377 -0.4835 -0.5530  0.7294
  249MOL0    Cl34269   8.797   4.225   4.563 -0.0981  0.0354  0.4764
  249MOL0     C34270   9.337   3.260   4.043 -0.1869  0.4989  0.3872
  249MOL0     C34271   9.372   3.134   3.990  0.5840 -0.0146 -0.2653
  249MOL0     O34272   9.348   2.845   3.900  0.1058  0.0720  0.0273
  249MOL0     C34273   9.682   2.801   3.759 -0.3835  0.7096  0.7320
  249MOL0     C34274   9.749   2.724   3.663 -0.1889 -0.3674 -0.2036
  249MOL0     N34275  10.189   2.460   3.080  0.3865  0.1761 -0.4529
  249MOL0     N34276  10.252   2.454   2.968 -0.9782 -0.4132 -0.4774
  249MOL0     C34277  10.344   1.315   2.490 -0.2785  0.8119 -0.2538
  249MOL0     C34278  10.444   1.229   2.461  0.3961  0.7355  0.4675
  249MOL0     C34279  10.710   0.924   2.306 -0.6137  0.4962 -0.3510
  249MOL0     C34280  10.821   1.006   2.349 -0.2595  0.2333  0.8019
  249MOL0     C34281  10.954   0.979   2.313 -0.4819  0.1700 -0.0212
  249MOL0     C34282  10.980   0.854   2.238  0.2862  0.8677  0.9411
  249MOL0     O34283  11.093   0.811   2.181  0.7859  0.2321  0.3403
  249MOL0     C34284  11.200   0.896   2.166 -0.0133  0.0076 -0.7312
  249MOL0     C34285  11.313   0.823   2.089 -0.4362  0.8587 -0.3087
  249MOL0     C34286  11.442   0.865   2.139 -0.2545 -0.0373  0.5254
  249MOL0     C34287  11.502   0.790   2.257  0.3503 -0.1157  0.0584
  249MOL0     C34288  11.534   0.649   2.224  0.3626 -0.3141  0.6145
  249MOL0     C34289  11.570   0.541   2.197 -0.3328  0.9945  1.1976
  249MOL0     C34290  10.869   0.772   2.204  0.2340  0.0118  0.7482
  249MOL0     C34291  10.733   0.807   2.233 -1.1109  0.5043  0.1393
  249MOL0     C34292  10.623   0.713   2.187  0.6368  0.4431  0.0295
  249MOL0     H34293  10.414   0.974   2.684  3.0924 -0.2235 -2.0856
  249MOL0     H34294  10.243   1.142   2.769 -0.3413 -3.0844 -0.9202
  249MOL0     H34295  10.062   1.499   2.560  0.9465  0.1949 -2.0864
  249MOL0     H34296  10.239   1.546   2.614  0.1152  0.2553  0.8233
  249MOL0     H34297   9.997   1.512   2.772 -2.9310  1.6085 -4.6320
  249MOL0     H34298  10.159   1.558   2.841 -4.1798 -3.3040  3.7629
  249MOL0     H34299  10.013   1.722   2.629 -0.6130 -0.8666  0.0146
  249MOL0     H34300   9.959   1.736   2.794 -1.5612 -1.8563 -1.5135
  249MOL0     H34301  10.215   1.780   2.836 -1.5045 -0.5133  0.7384
  249MOL0     H34302  10.223   1.796   2.662 -1.5136 -0.8591 -1.9734
  249MOL0     H34303  10.047   1.979   2.833 -1.9938  3.2233 -1.0546
  249MOL0     H34304  10.044   1.956   2.652 -1.9474 -0.5138  1.7876
  249MOL0     H34305  10.239   2.063   2.843 -2.7842  1.7016 -0.2169
  249MOL0     H34306  10.289   2.016   2.669  1.3643  1.7974  0.4632
  249MOL0     H34307  10.061   2.197   2.710 -0.0403 -0.8288  2.4855
  249MOL0     H34308  10.198   2.203   2.584  2.3341  1.5588  0.6884
  249MOL0     H34309  10.341   2.290   2.760  0.2557 -1.4417  2.7017
  249MOL0     H34310  10.231   2.406   2.689 -2.4997 -0.4796 -1.1665
  249MOL0     H34311  10.009   2.239   2.946 -2.1347  2.7345  0.7819
  249MOL0     H34312   9.952   2.252   3.191 -0.5695 -1.9744 -3.2466
  249MOL0     H34313   9.861   2.349   3.090 -0.2045 -5.9269  0.6064
  249MOL0     H34314   9.979   2.428   3.355 -1.3309 -0.8181  0.1864
  249MOL0     H34315   9.970   2.560   3.231 -3.5544  2.1125 -0.0101
  249MOL0     H34316   9.739   2.488   3.172  1.1405 -2.6794  0.1109
  249MOL0     H34317   9.742   2.390   3.330  4.2428  0.4707  3.1655
  249MOL0     H34318   9.778   2.694   3.349  2.7875 -1.4062  1.6642
  249MOL0     H34319   9.623   2.598   3.341  0.7629 -2.0299 -0.9905
  249MOL0     H34320   9.515   2.515   3.549  3.9325 -0.5456  0.1657
  249MOL0     H34321   9.269   2.684   3.670  2.0364  2.6017 -2.8190
  249MOL0     H34322   9.317   2.608   3.835  0.2310 -1.7422 -0.3074
  249MOL0     H34323   9.340   2.523   3.679 -0.7915  1.4088 -0.2909
  249MOL0     H34324   9.688   3.115   4.102 -0.4403  0.9773  1.3803
  249MOL0     H34325   9.620   3.323   4.235 -0.9482  1.9580  1.1788
  249MOL0     H34326   9.224   3.498   4.088 -0.8720 -2.0008 -0.0956
  249MOL0     H34327   9.185   3.434   4.241 -1.2626 -0.7649 -2.8446
  249MOL0     H34328   9.305   3.647   4.343  0.7027 -3.3171  0.0055
  249MOL0     H34329   9.307   3.705   4.183 -1.8229  1.1128 -0.9407
  249MOL0     H34330   9.053   3.609   4.332  3.6524 -2.3719  0.8920
  249MOL0     H34331   9.067   3.673   4.174  0.1546 -2.4439  0.1883
  249MOL0     H34332   9.163   3.885   4.286  1.0085 -0.0621  0.5936
  249MOL0     H34333   9.085   3.835   4.441 -1.6212  0.1156  0.0298
  249MOL0     H34334   8.942   3.873   4.180  0.5008  1.2823  0.3333
  249MOL0     H34335   8.867   3.824   4.331 -1.7946  1.2581 -1.1373
  249MOL0     H34336   8.984   4.091   4.245 -0.4634  1.3335 -0.3302
  249MOL0     H34337   8.967   4.046   4.421  0.6069  0.8312 -1.6131
  249MOL0     H34338   8.722   4.007   4.362 -0.4122  1.5045  1.3392
  249MOL0     H34339   8.763   4.068   4.203 -1.0685  2.2755  0.8814
  249MOL0     H34340   8.653   4.230   4.366 -0.4308  0.8384  2.2557
  249MOL0     H34341   8.815   4.288   4.325  1.1334 -3.2271 -1.8767
  249MOL0     H34342   9.253   3.310   3.997 -0.2366 -0.1781 -0.2801
  249MOL0     H34343   9.310   3.078   3.921  0.7440 -1.8018  0.9422
  249MOL0     H34344   9.739   2.870   3.821  4.2979  0.1780 -2.4569
  249MOL0     H34345   9.855   2.736   3.645 -0.6363  1.7943 -1.7210
  249MOL0     H34346  10.327   1.408   2.437  0.2722  0.9410 -0.2050
  249MOL0     H34347  10.499   1.250   2.369  0.1807  2.4675  0.7014
  249MOL0     H34348  10.784   1.096   2.398 -0.9092  0.6220 -0.3640
  249MOL0     H34349  11.033   1.051   2.331  1.7966 -1.1480 -3.5350
  249MOL0     H34350  11.188   0.980   2.096  2.7589  0.3599 -0.9090
  249MOL0     H34351  11.230   0.938   2.262  2.7757 -0.4958 -1.2822
  249MOL0     H34352  11.318   0.849   1.983  0.1459 -2.2438 -1.1555
  249MOL0     H34353  11.298   0.714   2.089  3.0113  0.2439 -1.6269
  249MOL0     H34354  11.510   0.860   2.053 -0.2199  1.2973  0.4526
  249MOL0     H34355  11.440   0.973   2.149  0.3622  0.3843 -2.6954
  249MOL0     H34356  11.423   0.800   2.333 -1.1777  0.9319 -1.5717
  249MOL0     H34357  11.588   0.839   2.302  0.3952 -0.3402  0.2192
  249MOL0     H34358  11.602   0.440   2.186  3.2957  1.9536  1.6240
  249MOL0     H34359  10.878   0.672   2.161  2.6618  0.7723 -0.6943
  249MOL0     H34360  10.607   0.723   2.079  1.1192 -1.6636 -0.2840
  249MOL0     H34361  10.658   0.611   2.205  2.8360  1.4474  2.0249
  249MOL0     H34362  10.529   0.727   2.242  0.9674  1.4460  0.3529
  250MOL0     O34363   6.031   4.192   1.685 -0.4487 -0.2217  0.0189
  250MOL0     C34364   6.045   4.134   1.578 -0.3139 -0.5282  0.5138
  250MOL0     O34365   6.115   4.020   1.559  0.1394 -0.3740  0.3489
  250MOL0     C34366   6.159   3.938   1.662  0.0056 -0.2262  0.9306
  250MOL0     C34367   6.276   3.867   1.635  0.5059 -0.6860  0.9299
  250MOL0     C34368   6.310   3.773   1.723 -0.4374  0.0079  0.6171
  250MOL0     C34369   6.255   3.739   1.845  0.5006 -1.3132 -0.7713
  250MOL0     O34370   6.296   3.620   1.911 -0.0209  0.3515  0.9791
  250MOL0     C34371   6.225   3.588   2.031  1.2524 -0.4377  0.1634
  250MOL0     C34372   6.306   3.484   2.095 -0.5976 -0.4618 -0.3041
  250MOL0     C34373   6.309   3.487   2.250  0.1332 -0.0579 -1.0001
  250MOL0     C34374   6.366   3.359   2.305 -0.0554  0.3193  0.5332
  250MOL0     C34375   6.353   3.359   2.456 -0.0541  0.9032 -0.6077
  250MOL0     C34376   6.449   3.258   2.520 -0.1535 -0.6618 -0.0319
  250MOL0     C34377   6.441   3.261   2.678  0.3096 -0.7321 -0.3758
  250MOL0     C34378   6.551   3.348   2.727  0.1594 -0.8008 -0.5471
  250MOL0     N34379   6.520   3.495   2.720  0.0005 -0.3444 -0.0908
  250MOL0     C34380   6.597   3.598   2.651  0.0699  0.1439 -0.2728
  250MOL0     C34381   6.510   3.706   2.642 -0.0166 -0.6705 -0.2537
  250MOL0     C34382   6.544   3.842   2.584  0.5765 -0.6038 -0.2825
  250MOL0     C34383   6.512   3.871   2.442 -0.6225  0.2281  0.9366
  250MOL0     C34384   6.556   4.013   2.401 -1.1191  0.5376 -0.6103
  250MOL0     C34385   6.509   4.126   2.504  0.6000  0.3763 -0.4927
  250MOL0     O34386   6.537   4.259   2.446 -0.4013  0.6121 -0.2503
  250MOL0     C34387   6.460   4.338   2.358 -0.4999  0.6752  0.8795
  250MOL0     C34388   6.339   4.296   2.304  0.4089  0.8748 -0.5724
  250MOL0     C34389   6.266   4.366   2.206  0.1134 -0.5257 -0.9490
  250MOL0     C34390   6.126   4.331   2.176 -0.7296  0.0363 -0.5589
  250MOL0     C34391   6.320   4.484   2.153  0.0093  0.3515  0.4872
  250MOL0     C34392   6.259   4.561   2.040 -0.1125 -0.1669  0.0579
  250MOL0     O34393   6.216   4.486   1.930  0.1541  0.5521 -0.1708
  250MOL0     C34394   6.130   4.539   1.833 -0.2614 -0.4486 -0.0974
  250MOL0     C34395   6.017   4.634   1.856 -0.6098  0.4817  0.5161
  250MOL0     C34396   5.934   4.669   1.749 -0.3760  0.5883 -0.1417
  250MOL0     C34397   5.972   4.631   1.614  0.6719 -0.4045 -0.1225
  250MOL0     O34398   5.910   4.706   1.519 -0.4587 -0.7518 -0.6585
  250MOL0     C34399   5.951   4.666   1.387  0.5018 -0.1854  0.3702
  250MOL0     C34400   5.869   4.743   1.286 -0.0715 -0.0870 -0.5412
  250MOL0     C34401   5.718   4.704   1.298  0.0395  0.4150 -0.6191
  250MOL0     C34402   5.628   4.807   1.228 -0.1924  0.2859  0.0615
  250MOL0     C34403   5.481   4.771   1.204 -0.0474  0.1888  0.1859
  250MOL0     C34404   5.411   4.759   1.342  0.3495 -0.1453 -0.1138
  250MOL0     C34405   5.259   4.784   1.312 -0.4287  0.1200  0.1212
  250MOL0     C34406   5.204   4.707   1.196 -0.2787 -0.9369  0.1791
  250MOL0    Cl34407   5.243   4.543   1.202  0.4993  0.4036 -0.3063
  250MOL0     C34408   6.077   4.538   1.596 -0.6912 -0.4648  0.3748
  250MOL0     C34409   6.146   4.486   1.701 -0.0575  0.2832 -0.6723
  250MOL0     O34410   6.255   4.684   2.065  0.3338 -0.8591  0.2568
  250MOL0     C34411   6.441   4.527   2.199 -0.3230 -0.6713 -0.0009
  250MOL0     C34412   6.513   4.453   2.302 -0.3845 -0.6939 -0.3894
  250MOL0     N34413   6.395   3.674   2.708 -0.1309  0.6222 -0.7919
  250MOL0     N34414   6.402   3.549   2.753  0.0178 -0.1193  0.7082
  250MOL0     C34415   6.144   3.819   1.873  0.1824  0.7210 -1.1077
  250MOL0     C34416   6.092   3.919   1.791 -0.2391  0.2872  1.0413
  250MOL0     C34417   5.958   4.170   1.463  1.0010 -0.0953 -0.4695
  250MOL0     C34418   6.005   4.139   1.336 -0.1433  0.6631  0.1453
  250MOL0     C34419   5.951   4.189   1.223  0.7604  0.3830 -0.3444
  250MOL0     C34420   5.836   4.268   1.233  0.4030  0.5357  1.1399
  250MOL0     O34421   5.772   4.326   1.123 -0.1029  0.3703 -0.2714
  250MOL0     C34422   5.824   4.313   0.993 -0.2727  0.8115  0.4259
  250MOL0     C34423   5.753   4.416   0.904  0.4286  0.9899 -0.2583
  250MOL0     C34424   5.785   4.565   0.925  0.1774  0.5179 -0.3331
  250MOL0     C34425   5.707   4.631   0.808  0.2391  0.2286  0.5396
  250MOL0     C34426   5.695   4.780   0.808 -0.1800 -0.8423  0.2608
  250MOL0     C34427   5.653   4.890   0.829 -0.4773  0.8069 -0.9010
  250MOL0     C34428   5.785   4.300   1.357 -0.2645  0.6906  0.2107
  250MOL0     C34429   5.842   4.246   1.476 -0.7168  0.7946  0.3396
  250MOL0     C34430   5.762   4.262   1.602  0.3704 -0.0355  0.3188
  250MOL0     H34431   6.331   3.882   1.543  1.2042 -1.3670  1.2216
  250MOL0     H34432   6.395   3.709   1.701 -1.0681 -0.4991 -0.4201
  250MOL0     H34433   6.126   3.554   1.997  1.4786  0.0298 -1.0292
  250MOL0     H34434   6.204   3.674   2.094 -0.1578 -1.5983  1.3783
  250MOL0     H34435   6.281   3.382   2.062 -0.1117 -0.7776  0.2922
  250MOL0     H34436   6.409   3.487   2.060  0.0874  1.4157  1.7314
  250MOL0     H34437   6.358   3.578   2.286 -1.7264  0.0175  1.7045
  250MOL0     H34438   6.204   3.493   2.281  0.7255  1.4481  0.9617
  250MOL0     H34439   6.312   3.276   2.259 -0.8762  0.2966  1.4965
  250MOL0     H34440   6.473   3.349   2.287 -0.0213 -3.7875  1.9796
  250MOL0     H34441   6.253   3.323   2.482 -0.2373  1.8915  0.0898
  250MOL0     H34442   6.371   3.461   2.489 -0.7098  0.6363  0.6080
  250MOL0     H34443   6.423   3.159   2.482 -3.3571 -0.2683  0.8710
  250MOL0     H34444   6.550   3.269   2.480  0.4774 -2.6803  0.8794
  250MOL0     H34445   6.463   3.165   2.725  2.4416 -1.3955 -2.5528
  250MOL0     H34446   6.342   3.297   2.706 -1.5514 -4.2031 -1.8814
  250MOL0     H34447   6.557   3.339   2.836 -0.3952 -1.3867 -0.5626
  250MOL0     H34448   6.646   3.321   2.681 -0.2686  0.4247 -2.2248
  250MOL0     H34449   6.700   3.587   2.617 -0.0530 -1.5421 -0.1848
  250MOL0     H34450   6.649   3.864   2.603  0.9974 -1.6527 -1.2902
  250MOL0     H34451   6.479   3.913   2.636  0.0759 -0.5151 -1.0075
  250MOL0     H34452   6.573   3.797   2.389 -1.1931  1.2497 -1.2640
  250MOL0     H34453   6.406   3.855   2.418  0.4861 -2.9771 -2.9546
  250MOL0     H34454   6.665   4.024   2.390 -1.0676 -0.4663 -1.2025
  250MOL0     H34455   6.520   4.017   2.298  2.2724 -1.7333 -2.0811
  250MOL0     H34456   6.403   4.101   2.517  0.3342 -1.8829 -5.1245
  250MOL0     H34457   6.563   4.123   2.599 -2.8770  2.0280  1.7615
  250MOL0     H34458   6.286   4.215   2.353 -0.2585  3.0587  2.6020
  250MOL0     H34459   6.118   4.241   2.114  1.3048  0.7309 -1.9569
  250MOL0     H34460   6.084   4.418   2.123  0.1877  2.6070  2.6109
  250MOL0     H34461   6.072   4.310   2.268 -1.7333  0.9956 -0.9052
  250MOL0     H34462   5.998   4.670   1.957  0.3940 -3.8593  2.4743
  250MOL0     H34463   5.855   4.743   1.758  2.7959  4.1989  0.3998
  250MOL0     H34464   6.056   4.684   1.361  0.3696 -1.1923 -0.9081
  250MOL0     H34465   5.925   4.563   1.363  1.7027  0.4965 -4.9491
  250MOL0     H34466   5.880   4.851   1.296  1.7092  0.0682 -3.2628
  250MOL0     H34467   5.899   4.722   1.183 -0.5922 -1.0217 -0.5159
  250MOL0     H34468   5.690   4.703   1.404 -1.1746 -0.1198 -0.9174
  250MOL0     H34469   5.704   4.601   1.263 -2.2320 -0.9393  3.5639
  250MOL0     H34470   5.682   4.832   1.136  0.7022  1.0912  0.7831
  250MOL0     H34471   5.632   4.908   1.269 -0.8818  1.0765 -1.7250
  250MOL0     H34472   5.451   4.858   1.146 -1.6964  0.4789  1.4183
  250MOL0     H34473   5.478   4.683   1.139 -0.6229  0.9238 -0.7997
  250MOL0     H34474   5.445   4.833   1.415 -0.7474 -0.1093  0.3643
  250MOL0     H34475   5.409   4.657   1.382 -2.4022 -0.3140 -0.5389
  250MOL0     H34476   5.235   4.890   1.296  1.4850  0.5403 -0.1803
  250MOL0     H34477   5.206   4.750   1.401 -0.1046 -1.0363 -0.1131
  250MOL0     H34478   5.223   4.747   1.097 -4.3172 -3.4716 -1.8757
  250MOL0     H34479   5.096   4.709   1.211 -0.2058 -0.2916  0.6888
  250MOL0     H34480   6.117   4.516   1.497 -1.4272  0.9645 -0.2746
  250MOL0     H34481   6.234   4.424   1.688  0.4878  0.4223  1.8900
  250MOL0     H34482   6.490   4.616   2.160  2.8234 -1.7270  1.2351
  250MOL0     H34483   6.614   4.477   2.333 -0.3715 -1.8918  0.5897
  250MOL0     H34484   6.092   3.787   1.962  3.1371  0.7912  0.7580
  250MOL0     H34485   6.000   3.973   1.809 -1.3906 -1.2559  0.0622
  250MOL0     H34486   6.098   4.084   1.324 -0.1796  1.0613 -2.8406
  250MOL0     H34487   5.986   4.152   1.127  1.7990  2.3731 -0.7984
  250MOL0     H34488   5.933   4.315   0.987  0.0182 -0.1377  3.4716
  250MOL0     H34489   5.785   4.217   0.956  1.6350 -0.3330  1.1970
  250MOL0     H34490   5.646   4.395   0.916  0.0414  1.9369 -1.7723
  250MOL0     H34491   5.786   4.392   0.802 -0.6713  0.6109 -0.5398
  250MOL0     H34492   5.745   4.610   1.017  2.2498  0.4016  0.6861
  250MOL0     H34493   5.893   4.583   0.924  0.0487  2.0144  2.2970
  250MOL0     H34494   5.605   4.592   0.808  1.4135 -3.1913  1.6954
  250MOL0     H34495   5.759   4.599   0.717 -0.7790 -2.1704  0.7344
  250MOL0     H34496   5.627   4.989   0.859  0.0222 -0.1225  3.3312
  250MOL0     H34497   5.702   4.370   1.355 -1.8944 -1.0741 -3.2857
  250MOL0     H34498   5.763   4.364   1.641  1.9461 -0.6489  2.0534
  250MOL0     H34499   5.661   4.233   1.571  0.9406 -2.4402  0.5128
  250MOL0     H34500   5.801   4.185   1.670 -1.0833 -2.1743 -1.1464
  251MOL0     O34501   0.865  10.138  10.037 -0.5409 -0.4577 -0.3827
  251MOL0     C34502   0.867  10.256  10.046  0.0741  0.5962 -0.8734
  251MOL0     O34503   0.879  10.339   9.936 -0.1120  0.5340  0.4176
  251MOL0     C34504   0.881  10.289   9.805 -0.5256  0.2431  0.3206
  251MOL0     C34505   0.982  10.314   9.712 -1.3584  0.2848 -0.3512
  251MOL0     C34506   0.971  10.259   9.585  0.2399  0.8998  0.5510
  251MOL0     C34507   0.865  10.177   9.548 -0.8382  0.0070  0.1811
  251MOL0     O34508   0.863  10.123   9.420  0.0711 -0.5419  0.7140
  251MOL0     C34509   0.811   9.992   9.380 -0.1890 -0.2663  0.1913
  251MOL0     C34510   0.706  10.015   9.264 -0.3928 -0.6265 -0.3844
  251MOL0     C34511   0.576  10.079   9.322  0.1838  0.3206 -0.3940
  251MOL0     C34512   0.454  10.069   9.226 -1.0885 -0.3254 -0.2910
  251MOL0     C34513   0.364  10.183   9.273 -0.4780 -0.2908  0.0623
  251MOL0     C34514   0.235  10.200   9.181 -0.8803 -0.2799  0.8977
  251MOL0     C34515   0.147  10.316   9.237 -0.4759  0.8969 -0.3031
  251MOL0     C34516   0.031  10.347   9.143  1.1893 -1.2558  0.5827
  251MOL0     N34517  -0.061  10.436   9.210 -0.2411  1.2583  0.5566
  251MOL0     C34518  -0.082  10.569   9.179 -0.3352 -0.5765  0.8255
  251MOL0     C34519  -0.149  10.634   9.272  2.1733 -0.0411  0.3777
  251MOL0     C34520  -0.197  10.774   9.272  0.1537 -0.9358 -0.9524
  251MOL0     C34521  -0.096  10.862   9.342  0.5541 -0.3162  0.7407
  251MOL0     C34522  -0.096  10.862   9.494  0.5908 -0.2929  0.6319
  251MOL0     C34523  -0.003  10.958   9.562 -0.0728  0.4313 -0.1428
  251MOL0     O34524   0.136  10.913   9.548  0.3178 -0.3766 -0.5607
  251MOL0     C34525   0.228  11.000   9.588  0.2304 -0.4650 -0.3652
  251MOL0     C34526   0.223  11.072   9.716 -0.1520  1.2378 -0.3721
  251MOL0     C34527   0.310  11.173   9.741 -0.2276  0.5145  0.4391
  251MOL0     C34528   0.305  11.246   9.880  0.1966 -0.1556  0.5787
  251MOL0     C34529   0.415  11.208   9.648  0.0704 -0.0892  0.0405
  251MOL0     C34530   0.524  11.320   9.654  0.2990  0.6571 -0.3273
  251MOL0     O34531   0.631  11.318   9.557 -0.3936 -0.3324 -0.5456
  251MOL0     C34532   0.698  11.429   9.520 -0.0465 -0.5411 -0.7406
  251MOL0     C34533   0.812  11.406   9.438  0.5403  0.2108 -0.8252
  251MOL0     C34534   0.889  11.507   9.389 -0.3065  0.1104 -0.7565
  251MOL0     C34535   0.863  11.642   9.432  0.8058  0.2253  0.0735
  251MOL0     O34536   0.937  11.756   9.389 -0.4942 -0.8287  0.2028
  251MOL0     C34537   0.941  11.760   9.243  0.1558 -0.0580  0.1251
  251MOL0     C34538   0.831  11.852   9.195 -0.3305 -0.0142  0.9151
  251MOL0     C34539   0.863  11.926   9.066  0.3952  0.5099 -0.6718
  251MOL0     C34540   0.963  12.041   9.097  0.0580  0.2953  0.2059
  251MOL0     C34541   0.927  12.165   9.189 -0.1682 -0.8117  0.0591
  251MOL0     C34542   0.808  12.257   9.147  0.6977  0.5013 -0.2909
  251MOL0     C34543   0.788  12.383   9.227 -0.0463 -0.0953  0.2698
  251MOL0     C34544   0.699  12.475   9.147 -0.0663  0.5931 -1.4170
  251MOL0    Cl34545   0.774  12.549   9.006 -0.1016 -0.0498  0.2936
  251MOL0     C34546   0.757  11.659   9.526 -0.4941 -0.8185  0.3490
  251MOL0     C34547   0.677  11.560   9.564  0.7677 -1.4563 -0.4615
  251MOL0     O34548   0.505  11.407   9.737  0.3342 -0.2057 -0.6275
  251MOL0     C34549   0.424  11.121   9.540 -0.8567  0.7024 -0.4551
  251MOL0     C34550   0.333  11.027   9.507 -0.5539  0.1553  1.3685
  251MOL0     N34551  -0.175  10.526   9.368 -0.1950 -0.4457  0.7980
  251MOL0     N34552  -0.126  10.421   9.330 -0.0888  0.3622  0.0768
  251MOL0     C34553   0.761  10.163   9.636 -0.0420 -0.5411 -0.1573
  251MOL0     C34554   0.769  10.211   9.769 -0.1844  0.5834  1.0705
  251MOL0     C34555   0.866  10.310  10.177 -0.1718 -0.8702 -0.7599
  251MOL0     C34556   0.939  10.432  10.198  0.5195 -0.0623 -0.2618
  251MOL0     C34557   0.951  10.495  10.315 -0.0947 -0.5269  0.0812
  251MOL0     C34558   0.891  10.438  10.427  0.0008  0.6115  1.2020
  251MOL0     O34559   0.905  10.476  10.554 -0.4228 -0.4773 -0.5599
  251MOL0     C34560   1.006  10.563  10.603 -0.2622  0.3849  0.1765
  251MOL0     C34561   1.137  10.485  10.607  0.5225 -0.7488  0.0292
  251MOL0     C34562   1.126  10.369  10.701 -1.0254  0.2669 -0.2880
  251MOL0     C34563   1.260  10.307  10.725  0.1188 -0.0232  0.0589
  251MOL0     C34564   1.247  10.192  10.820  0.1434  0.5943  0.2089
  251MOL0     C34565   1.279  10.100  10.899  0.2581  0.1249 -0.6854
  251MOL0     C34566   0.817  10.320  10.418 -0.3860  1.0297 -0.2066
  251MOL0     C34567   0.803  10.250  10.290 -0.0486  0.5210 -0.1604
  251MOL0     C34568   0.715  10.110  10.293 -0.2701 -0.8445  0.1999
  251MOL0     H34569   1.070  10.376   9.729  1.2780 -3.3681  0.5733
  251MOL0     H34570   1.046  10.273   9.508 -0.7080  0.8174 -0.4213
  251MOL0     H34571   0.763   9.935   9.460  2.6819 -0.3198  2.0096
  251MOL0     H34572   0.903   9.944   9.346  0.4060  0.7244  0.3562
  251MOL0     H34573   0.746  10.085   9.190 -1.0394 -1.1919 -1.2790
  251MOL0     H34574   0.684   9.930   9.200 -1.3428  0.1735 -1.1396
  251MOL0     H34575   0.547  10.017   9.407 -1.7645  0.6297 -0.8017
  251MOL0     H34576   0.599  10.183   9.346  1.1074  0.5405 -2.1143
  251MOL0     H34577   0.473  10.103   9.123 -0.7615  3.5973  0.8954
  251MOL0     H34578   0.402   9.974   9.239  1.2215 -1.4472  1.5631
  251MOL0     H34579   0.425  10.273   9.268  0.9878 -1.0323  2.7272
  251MOL0     H34580   0.330  10.158   9.374  0.9894  0.5530  0.7949
  251MOL0     H34581   0.268  10.238   9.084  1.1274 -0.3838  1.4937
  251MOL0     H34582   0.187  10.108   9.147 -1.2437  0.5108 -0.8224
  251MOL0     H34583   0.214  10.402   9.227  0.0804  0.2243 -3.6509
  251MOL0     H34584   0.106  10.312   9.338 -0.8377  0.5624 -0.4618
  251MOL0     H34585   0.074  10.405   9.060 -1.2872  1.8652  1.2798
  251MOL0     H34586  -0.027  10.264   9.103 -1.6133 -0.2921  2.3077
  251MOL0     H34587  -0.057  10.617   9.085 -0.2571 -0.3058  0.9811
  251MOL0     H34588  -0.297  10.783   9.316  0.4921  1.3417 -0.4816
  251MOL0     H34589  -0.198  10.807   9.167 -1.0736 -0.4546 -0.8045
  251MOL0     H34590   0.005  10.853   9.303  1.6820 -1.3806  3.6260
  251MOL0     H34591  -0.114  10.967   9.318  0.0924 -0.5079  0.2298
  251MOL0     H34592  -0.197  10.897   9.515  1.2503  2.8677 -0.8364
  251MOL0     H34593  -0.079  10.758   9.522 -1.4453 -0.9949 -0.5610
  251MOL0     H34594  -0.022  11.058   9.523 -2.4692  0.0158 -0.1955
  251MOL0     H34595  -0.020  10.969   9.670  2.1465 -0.4930  0.3444
  251MOL0     H34596   0.150  11.053   9.795  1.0865 -0.6258  0.4134
  251MOL0     H34597   0.216  11.215   9.936 -1.1122 -1.7347 -2.1286
  251MOL0     H34598   0.285  11.352   9.863  1.4365 -0.2587 -1.9505
  251MOL0     H34599   0.398  11.228   9.934 -0.1049 -0.0575  1.1389
  251MOL0     H34600   0.829  11.301   9.418 -1.1741 -0.6549  1.7225
  251MOL0     H34601   0.965  11.476   9.319 -3.2543 -0.5476 -3.9209
  251MOL0     H34602   1.041  11.799   9.222 -0.4511  2.8457  2.0788
  251MOL0     H34603   0.924  11.660   9.202 -1.0447  1.0364 -2.2365
  251MOL0     H34604   0.744  11.788   9.182  0.1679 -0.2368 -2.1905
  251MOL0     H34605   0.809  11.929   9.269  0.1856  0.5639  0.4852
  251MOL0     H34606   0.775  11.973   9.021  1.4453  4.4931  0.9391
  251MOL0     H34607   0.901  11.860   8.987  0.4318 -0.5653  0.2239
  251MOL0     H34608   1.012  12.073   9.005 -0.6517  2.1952  0.4484
  251MOL0     H34609   1.045  11.997   9.153  1.3957  1.6361 -0.6153
  251MOL0     H34610   0.904  12.117   9.284 -2.7839 -1.1109 -0.6495
  251MOL0     H34611   1.015  12.231   9.195 -0.8404  0.5016 -2.5651
  251MOL0     H34612   0.721  12.191   9.150  1.5411 -0.7246 -1.5268
  251MOL0     H34613   0.820  12.276   9.040 -0.1116 -2.8383 -1.0747
  251MOL0     H34614   0.880  12.430   9.266 -2.1450  3.3062  1.5730
  251MOL0     H34615   0.733  12.353   9.316 -2.0503  0.1929 -0.8111
  251MOL0     H34616   0.660  12.546   9.220  1.6749 -2.1517  2.4948
  251MOL0     H34617   0.615  12.410   9.116 -0.6367  2.6456 -4.6315
  251MOL0     H34618   0.731  11.762   9.549 -0.2405 -0.6865  0.0618
  251MOL0     H34619   0.607  11.595   9.640  1.4246 -1.7973  0.3168
  251MOL0     H34620   0.507  11.129   9.472 -2.3362  2.0535 -2.1832
  251MOL0     H34621   0.334  10.960   9.422 -0.1691  1.3623  0.4043
  251MOL0     H34622   0.667  10.118   9.607 -0.1115 -0.8907  0.5934
  251MOL0     H34623   0.682  10.215   9.834 -0.6720  2.3014  0.3611
  251MOL0     H34624   0.997  10.478  10.119 -1.9510  1.7100 -1.1596
  251MOL0     H34625   1.004  10.588  10.331 -0.5636 -0.4444  1.2892
  251MOL0     H34626   1.012  10.648  10.535  2.8247 -1.9529 -2.8052
  251MOL0     H34627   0.967  10.600  10.699  1.1815 -2.9693  2.2852
  251MOL0     H34628   1.215  10.549  10.649 -0.2503  0.7279 -0.7052
  251MOL0     H34629   1.151  10.461  10.501  2.5917 -0.5454  0.2182
  251MOL0     H34630   1.087  10.393  10.800  0.4564 -1.5727  0.8197
  251MOL0     H34631   1.073  10.281  10.662  0.9767 -1.5304  0.7999
  251MOL0     H34632   1.329  10.384  10.764 -0.4121  0.1205  0.7399
  251MOL0     H34633   1.304  10.269  10.633  0.7851 -1.0712  0.7918
  251MOL0     H34634   1.296  10.011  10.956  1.7337 -0.3314 -1.7924
  251MOL0     H34635   0.758  10.275  10.498  1.1023 -1.6650 -0.5343
  251MOL0     H34636   0.681  10.097  10.397 -0.7640  2.8680  0.6446
  251MOL0     H34637   0.632  10.119  10.223 -1.0251 -2.8622  0.7666
  251MOL0     H34638   0.770  10.022  10.257 -0.8157 -1.0909 -0.0470
  252MOL0     O34639   2.802   3.510   6.626 -0.0906 -0.8528  0.0008
  252MOL0     C34640   2.842   3.492   6.509  1.1297 -0.5277 -0.9711
  252MOL0     O34641   2.970   3.480   6.475  0.0891 -0.5780 -0.0535
  252MOL0     C34642   3.060   3.528   6.564  0.4243 -0.1949 -1.2362
  252MOL0     C34643   3.186   3.463   6.587  0.6832 -0.0991 -0.0747
  252MOL0     C34644   3.274   3.515   6.684 -0.8469 -0.9031  0.4805
  252MOL0     C34645   3.250   3.634   6.754 -0.2317 -0.0910  0.5931
  252MOL0     O34646   3.331   3.685   6.853  0.4996 -0.2089  0.2568
  252MOL0     C34647   3.276   3.670   6.978  0.0907  0.9005 -0.4846
  252MOL0     C34648   3.381   3.652   7.082  0.4476  0.1518  0.1320
  252MOL0     C34649   3.445   3.781   7.119 -0.6900 -0.6979 -0.6187
  252MOL0     C34650   3.529   3.766   7.250 -0.2563  0.9807 -0.2250
  252MOL0     C34651   3.610   3.893   7.290  0.0141  0.4440  0.8842
  252MOL0     C34652   3.749   3.878   7.227 -0.4849 -0.1750 -0.8719
  252MOL0     C34653   3.849   3.961   7.295  0.4128 -0.3591  0.3324
  252MOL0     C34654   3.814   4.113   7.289  0.4621  0.0110  0.5903
  252MOL0     N34655   3.918   4.184   7.361 -0.8303 -0.6510  0.2462
  252MOL0     C34656   4.046   4.197   7.313 -0.2414 -0.2209  0.0011
  252MOL0     C34657   4.113   4.232   7.426 -0.1021 -0.1717  0.0171
  252MOL0     C34658   4.264   4.258   7.427 -0.5213  0.5375  1.3590
  252MOL0     C34659   4.346   4.131   7.438  1.3605  0.3247  0.3315
  252MOL0     C34660   4.491   4.162   7.428  0.0183 -0.5068 -0.3184
  252MOL0     C34661   4.585   4.061   7.492  0.1665 -0.3978  0.6265
  252MOL0     O34662   4.529   4.017   7.613  0.2637 -0.8695 -0.4980
  252MOL0     C34663   4.598   3.917   7.690  1.0359  0.2631  0.3031
  252MOL0     C34664   4.539   3.881   7.817  0.0625 -0.7897 -0.1857
  252MOL0     C34665   4.604   3.797   7.908  0.4078  0.1414  0.2854
  252MOL0     C34666   4.527   3.773   8.040  0.5202  0.7653  0.0633
  252MOL0     C34667   4.721   3.727   7.869 -1.0446 -0.3972  0.6172
  252MOL0     C34668   4.786   3.624   7.954  0.0085 -0.7602  0.3367
  252MOL0     O34669   4.924   3.623   7.957  0.1049  1.0493  0.2265
  252MOL0     C34670   4.997   3.523   8.021  0.3922 -0.6353  0.6989
  252MOL0     C34671   5.124   3.566   8.038 -0.8722 -0.2107  0.2482
  252MOL0     C34672   5.221   3.494   8.104 -0.4930  0.8019  0.8157
  252MOL0     C34673   5.179   3.370   8.160 -0.2603  0.6491 -0.5974
  252MOL0     O34674   5.267   3.293   8.235 -0.0646 -0.7206 -0.5237
  252MOL0     C34675   5.330   3.178   8.181  0.4690 -0.0900 -0.5521
  252MOL0     C34676   5.344   3.068   8.296  0.1111 -0.7416  1.0736
  252MOL0     C34677   5.414   3.100   8.423  0.6304 -0.4654 -0.2218
  252MOL0     C34678   5.491   2.982   8.493  1.1134 -1.2058  0.0521
  252MOL0     C34679   5.395   2.877   8.559  1.0102  0.3838  0.8650
  252MOL0     C34680   5.323   2.776   8.472 -0.5426 -0.1947 -0.2306
  252MOL0     C34681   5.414   2.689   8.382  0.3959 -0.7490  0.6622
  252MOL0     C34682   5.343   2.571   8.317  0.3647 -1.0032 -0.1009
  252MOL0    Cl34683   5.287   2.450   8.436 -0.1287  0.1377 -0.3550
  252MOL0     C34684   5.057   3.317   8.121  0.2682 -0.2749  0.1875
  252MOL0     C34685   4.958   3.389   8.057 -0.8801 -0.3081  0.0335
  252MOL0     O34686   4.716   3.550   8.022 -0.1447 -0.1106 -0.6169
  252MOL0     C34687   4.780   3.768   7.745  0.2381  0.8632 -0.1915
  252MOL0     C34688   4.717   3.855   7.650 -0.0850 -0.2544 -0.1921
  252MOL0     N34689   4.026   4.257   7.530  0.3314  0.1907 -0.8486
  252MOL0     N34690   3.910   4.221   7.491  0.6511  0.1172 -0.0668
  252MOL0     C34691   3.132   3.705   6.719  1.3081 -0.2616 -0.3507
  252MOL0     C34692   3.044   3.654   6.623 -0.1799  0.5587  0.6966
  252MOL0     C34693   2.733   3.493   6.414 -0.6095 -0.7879  0.0799
  252MOL0     C34694   2.745   3.405   6.309 -0.3816 -0.0776 -0.0639
  252MOL0     C34695   2.652   3.392   6.207 -0.0219 -0.7213  0.3085
  252MOL0     C34696   2.538   3.468   6.210 -0.8054 -1.0092 -0.6827
  252MOL0     O34697   2.439   3.481   6.112  0.1393  0.2254 -0.2637
  252MOL0     C34698   2.415   3.366   6.025 -0.0575  0.3238 -0.6100
  252MOL0     C34699   2.268   3.356   6.001 -0.2517 -0.5351  0.2043
  252MOL0     C34700   2.230   3.215   6.002 -0.0177  0.6604 -0.3112
  252MOL0     C34701   2.246   3.123   5.878 -0.9785 -0.4302  0.5240
  252MOL0     C34702   2.378   3.135   5.823  0.0038  0.0401 -0.8896
  252MOL0     C34703   2.489   3.137   5.775 -0.2736 -0.6338 -1.7552
  252MOL0     C34704   2.522   3.559   6.317  0.1777 -0.2586  0.0414
  252MOL0     C34705   2.612   3.572   6.422  0.4316 -0.3922 -0.4416
  252MOL0     C34706   2.590   3.687   6.528 -0.0106 -0.3620 -0.2267
  252MOL0     H34707   3.219   3.380   6.525  0.6819  0.1721 -0.4398
  252MOL0     H34708   3.363   3.458   6.710  2.1375  2.1361 -2.2176
  252MOL0     H34709   3.217   3.579   6.992  3.3992 -1.2345  0.6278
  252MOL0     H34710   3.205   3.750   7.003 -1.6315 -0.3413 -1.1744
  252MOL0     H34711   3.325   3.617   7.169 -0.6926  0.1027 -0.6096
  252MOL0     H34712   3.462   3.588   7.044  2.1361  2.8849 -1.2381
  252MOL0     H34713   3.508   3.803   7.033  0.7200 -1.8622  0.0709
  252MOL0     H34714   3.366   3.856   7.126 -0.5610 -0.7369  2.8579
  252MOL0     H34715   3.468   3.740   7.336  2.6689  0.2134  1.7879
  252MOL0     H34716   3.598   3.682   7.239 -3.4510 -1.6944 -1.4275
  252MOL0     H34717   3.622   3.900   7.398 -0.0927  3.9457  0.7763
  252MOL0     H34718   3.556   3.981   7.254 -0.4273 -0.0138  0.4029
  252MOL0     H34719   3.787   3.778   7.248  2.2635  0.9724  0.0850
  252MOL0     H34720   3.744   3.883   7.118 -0.4011 -0.3932 -0.8860
  252MOL0     H34721   3.945   3.949   7.245  0.0728 -0.4264 -0.3075
  252MOL0     H34722   3.850   3.931   7.401 -1.1496 -0.9852  0.2016
  252MOL0     H34723   3.827   4.140   7.184 -0.6361 -2.9449 -0.4220
  252MOL0     H34724   3.715   4.150   7.318  0.5993  1.3510 -0.5376
  252MOL0     H34725   4.088   4.176   7.215 -0.6934  0.2727 -0.3039
  252MOL0     H34726   4.282   4.325   7.512  0.2640 -0.6224  2.1283
  252MOL0     H34727   4.291   4.314   7.336  2.0855  0.5246  2.0361
  252MOL0     H34728   4.325   4.076   7.530  5.6939 -1.1735  0.6606
  252MOL0     H34729   4.320   4.067   7.354  0.1060  0.0836  0.8754
  252MOL0     H34730   4.510   4.178   7.322 -0.8510  0.6013 -0.3225
  252MOL0     H34731   4.519   4.257   7.473 -0.9525 -0.9754  1.3901
  252MOL0     H34732   4.595   3.977   7.422  3.1106 -0.1492  0.6295
  252MOL0     H34733   4.682   4.106   7.513 -0.4262 -0.3888  3.7736
  252MOL0     H34734   4.448   3.931   7.849 -0.5139 -1.4152 -0.8261
  252MOL0     H34735   4.442   3.841   8.058 -0.9763 -0.9682 -0.1400
  252MOL0     H34736   4.600   3.776   8.120 -1.6357 -2.3404  2.3872
  252MOL0     H34737   4.476   3.677   8.044 -0.5682  0.6478 -6.1096
  252MOL0     H34738   5.150   3.665   8.005  3.4078 -0.8607  1.0485
  252MOL0     H34739   5.321   3.532   8.123 -0.8878  2.9158 -0.9592
  252MOL0     H34740   5.277   3.137   8.094 -1.9829 -1.3493  1.4118
  252MOL0     H34741   5.434   3.195   8.153  0.5732 -1.7499 -1.2734
  252MOL0     H34742   5.243   3.037   8.325 -1.0165  0.3339 -1.3884
  252MOL0     H34743   5.383   2.983   8.239 -4.0532  0.4050 -4.2700
  252MOL0     H34744   5.344   3.149   8.492  1.2927  0.8343 -0.4343
  252MOL0     H34745   5.484   3.182   8.402 -0.4976  1.4976  2.9293
  252MOL0     H34746   5.545   3.032   8.574  0.5011 -2.3498  1.2088
  252MOL0     H34747   5.556   2.925   8.426  2.2291 -3.0709  2.5627
  252MOL0     H34748   5.456   2.817   8.627  0.4016 -2.3802 -0.8663
  252MOL0     H34749   5.317   2.933   8.612  0.3146  0.9356 -0.6753
  252MOL0     H34750   5.247   2.830   8.414 -0.4771  2.9208  2.3130
  252MOL0     H34751   5.275   2.701   8.535 -0.5081 -4.5063 -4.7551
  252MOL0     H34752   5.508   2.664   8.432 -0.0450 -0.0237  1.9004
  252MOL0     H34753   5.435   2.763   8.305 -1.3388  3.3966  3.8123
  252MOL0     H34754   5.402   2.516   8.243  2.3539 -1.1916  1.5141
  252MOL0     H34755   5.255   2.615   8.270 -1.5026 -0.8918  3.1555
  252MOL0     H34756   5.032   3.216   8.153 -2.1320  0.7895  1.9217
  252MOL0     H34757   4.868   3.343   8.017  0.4698 -2.3889 -0.7602
  252MOL0     H34758   4.877   3.729   7.718 -1.2259 -4.2540  0.9303
  252MOL0     H34759   4.763   3.880   7.554 -0.7494  2.1886  0.0436
  252MOL0     H34760   3.115   3.799   6.769  1.7374 -0.0231 -0.6504
  252MOL0     H34761   2.952   3.709   6.612  0.9143  2.2405 -0.4430
  252MOL0     H34762   2.836   3.351   6.284 -0.5196 -0.0017 -0.7678
  252MOL0     H34763   2.649   3.323   6.124  0.6053 -0.0275 -0.3020
  252MOL0     H34764   2.453   3.363   5.922 -3.6117 -0.1590 -2.0370
  252MOL0     H34765   2.456   3.280   6.080  0.7454  1.5449  0.7898
  252MOL0     H34766   2.256   3.413   5.908 -3.6558 -0.2995  0.6682
  252MOL0     H34767   2.213   3.407   6.081 -0.7510 -2.3173  1.0621
  252MOL0     H34768   2.282   3.165   6.084  3.5945 -0.7868 -3.1804
  252MOL0     H34769   2.126   3.215   6.034  0.3614  0.4534  1.0042
  252MOL0     H34770   2.180   3.162   5.800 -0.8202 -0.4619  0.3736
  252MOL0     H34771   2.232   3.020   5.911  1.1580 -0.9078  0.0862
  252MOL0     H34772   2.591   3.142   5.743 -0.1942 -2.5079 -1.9252
  252MOL0     H34773   2.446   3.636   6.312 -1.4122 -1.6482  1.7048
  252MOL0     H34774   2.583   3.647   6.629 -0.5680  0.8018  0.2140
  252MOL0     H34775   2.671   3.760   6.526  0.7459 -1.1595  0.5864
  252MOL0     H34776   2.490   3.727   6.512  1.3647  4.3358  1.3890
  253MOL0     O34777  11.183   6.632  10.355 -0.8223  0.1783 -0.3502
  253MOL0     C34778  11.085   6.709  10.327 -0.3571  0.7416  0.7232
  253MOL0     O34779  10.994   6.675  10.235 -0.6736 -0.6003  0.6163
  253MOL0     C34780  10.984   6.543  10.179  0.5173 -0.2046  0.1991
  253MOL0     C34781  10.938   6.538  10.047  0.0348  0.0455 -1.0427
  253MOL0     C34782  10.910   6.411   9.987  0.2002  0.2594  0.4846
  253MOL0     C34783  10.942   6.290  10.048 -0.0461 -0.3064  0.5015
  253MOL0     O34784  10.925   6.166   9.985  0.1174  0.7236 -0.8400
  253MOL0     C34785  11.032   6.069   9.989 -0.0917 -0.2626  0.4131
  253MOL0     C34786  11.037   5.981   9.860  0.0610  0.2597  0.4647
  253MOL0     C34787  11.167   5.902   9.848 -0.6980  0.4477 -0.1968
  253MOL0     C34788  11.157   5.796   9.723  0.4559 -0.2873 -0.2976
  253MOL0     C34789  11.283   5.711   9.705  0.7629  0.3483  0.0977
  253MOL0     C34790  11.283   5.622   9.589  0.6558  0.1174  0.1878
  253MOL0     C34791  11.284   5.706   9.458  0.1035  0.3291  1.1067
  253MOL0     C34792  11.302   5.611   9.340 -1.5187 -0.0738 -0.1739
  253MOL0     N34793  11.178   5.543   9.306 -0.0396 -0.4213 -0.0234
  253MOL0     C34794  11.097   5.562   9.192  0.4359 -0.1927 -0.4310
  253MOL0     C34795  10.999   5.474   9.199  0.9036  0.2359 -0.1700
  253MOL0     C34796  10.875   5.474   9.096  0.1240  0.0767 -0.5985
  253MOL0     C34797  10.943   5.474   8.955  0.8791 -0.5215  0.5157
  253MOL0     C34798  10.895   5.350   8.882  0.3195  0.2867  0.1468
  253MOL0     C34799  10.943   5.220   8.950  0.5931 -0.1653  0.5444
  253MOL0     O34800  10.927   5.107   8.861  0.8326  0.6173 -0.0974
  253MOL0     C34801  10.803   5.042   8.870  0.8821 -0.3021  0.0072
  253MOL0     C34802  10.728   5.024   8.761  0.0427 -0.5854 -1.0003
  253MOL0     C34803  10.616   4.944   8.741  0.1522  0.3093 -0.8618
  253MOL0     C34804  10.553   4.930   8.608 -0.7157 -0.5153  0.4740
  253MOL0     C34805  10.567   4.885   8.860 -1.0822  0.0709 -0.0713
  253MOL0     C34806  10.440   4.798   8.861  0.1522 -0.0406  0.4616
  253MOL0     O34807  10.389   4.754   8.742  0.8976  0.3311  0.0931
  253MOL0     C34808  10.280   4.665   8.752 -0.1091 -0.1938 -1.1952
  253MOL0     C34809  10.175   4.714   8.675  0.8652  0.8388  1.2111
  253MOL0     C34810  10.048   4.644   8.665  0.6353  0.7179 -0.4444
  253MOL0     C34811  10.030   4.524   8.739  0.3990  0.3321 -0.5678
  253MOL0     O34812   9.911   4.469   8.727 -0.7214 -0.1333  0.6755
  253MOL0     C34813   9.895   4.332   8.762 -0.2690 -0.6489  0.2934
  253MOL0     C34814   9.776   4.286   8.676  0.6830  0.3611  0.3864
  253MOL0     C34815   9.743   4.135   8.666  0.3293 -0.0808 -0.2886
  253MOL0     C34816   9.663   4.089   8.792  0.5098 -0.5563 -0.2290
  253MOL0     C34817   9.623   3.945   8.783  0.3379 -0.3841 -0.3992
  253MOL0     C34818   9.496   3.924   8.683 -0.5190 -0.5699 -0.4374
  253MOL0     C34819   9.446   3.784   8.661  0.4362 -0.0664 -0.4943
  253MOL0     C34820   9.312   3.770   8.586  0.5814  0.0739  0.2025
  253MOL0    Cl34821   9.186   3.853   8.667  0.1187  0.2606  0.2020
  253MOL0     C34822  10.142   4.474   8.813  0.0540 -0.8779  0.7362
  253MOL0     C34823  10.267   4.541   8.808 -0.2263  0.2273  0.2762
  253MOL0     O34824  10.402   4.765   8.976 -0.0369 -0.1149  0.1736
  253MOL0     C34825  10.626   4.905   8.987 -0.4739 -0.1756  0.3702
  253MOL0     C34826  10.756   4.974   8.984 -0.1908 -0.0426 -1.3691
  253MOL0     N34827  11.018   5.397   9.312  0.0254 -0.4290 -0.0202
  253MOL0     N34828  11.131   5.429   9.368  0.4773 -0.1671  0.0404
  253MOL0     C34829  10.996   6.295  10.179 -0.7190 -0.3977 -0.1359
  253MOL0     C34830  11.012   6.422  10.242  0.2848 -0.2032 -0.7163
  253MOL0     C34831  11.077   6.838  10.396 -0.1154 -1.0451  0.0134
  253MOL0     C34832  11.185   6.894  10.472 -0.6963  0.5642  0.1234
  253MOL0     C34833  11.181   7.005  10.558  0.1575  0.5510  0.3433
  253MOL0     C34834  11.069   7.087  10.564  0.9095  0.8491  0.0913
  253MOL0     O34835  11.050   7.202  10.631  0.7861  0.4864  0.0870
  253MOL0     C34836  11.164   7.266  10.701 -0.7839 -0.2468 -0.3981
  253MOL0     C34837  11.126   7.414  10.720  0.4313  0.5429  0.9911
  253MOL0     C34838  10.990   7.448  10.775  0.7659  0.8673 -0.2815
  253MOL0     C34839  10.970   7.601  10.799  0.2721  0.4229 -0.1871
  253MOL0     C34840  11.059   7.671  10.900 -0.1824  0.5230 -0.2256
  253MOL0     C34841  11.139   7.722  10.974 -0.4526  0.1188 -0.5714
  253MOL0     C34842  10.956   7.032  10.494 -0.6603  0.8867  1.2326
  253MOL0     C34843  10.961   6.915  10.407  0.1220  1.4966 -0.0446
  253MOL0     C34844  10.827   6.879  10.356 -0.0822 -0.8927  0.8416
  253MOL0     H34845  10.917   6.634  10.000 -2.0329  0.6783  0.9940
  253MOL0     H34846  10.865   6.422   9.889  0.4217 -0.9886  0.2225
  253MOL0     H34847  11.034   5.996  10.070 -0.6417 -2.2047 -1.2157
  253MOL0     H34848  11.123   6.129   9.982  0.8994 -1.8125 -0.3579
  253MOL0     H34849  10.948   5.919   9.848 -0.1716  0.6388  0.1995
  253MOL0     H34850  11.051   6.048   9.775  2.3208 -0.5003  0.1718
  253MOL0     H34851  11.244   5.972   9.816  0.0491 -0.5758 -0.7261
  253MOL0     H34852  11.192   5.854   9.943  2.0048 -0.8562 -1.4344
  253MOL0     H34853  11.066   5.740   9.744  0.1009 -0.1335 -1.3617
  253MOL0     H34854  11.149   5.849   9.628  1.7232 -0.4462 -0.5142
  253MOL0     H34855  11.298   5.649   9.794  1.6326  0.7277  0.2305
  253MOL0     H34856  11.368   5.778   9.685  1.3354 -1.3975 -4.4789
  253MOL0     H34857  11.368   5.553   9.597 -1.4048 -2.7533 -0.8679
  253MOL0     H34858  11.197   5.555   9.600 -0.9760  2.3575  2.3516
  253MOL0     H34859  11.360   5.785   9.465 -0.1399  0.8636 -1.3451
  253MOL0     H34860  11.194   5.764   9.433 -1.0653 -2.1928 -1.1267
  253MOL0     H34861  11.336   5.659   9.247  1.7428 -1.8009 -0.0397
  253MOL0     H34862  11.388   5.546   9.360  0.1440  1.9470 -0.2907
  253MOL0     H34863  11.120   5.638   9.118 -0.8143  1.5043  0.8418
  253MOL0     H34864  10.823   5.567   9.122  0.8035 -0.0734  1.4687
  253MOL0     H34865  10.804   5.392   9.113 -1.1452  1.0906 -0.7933
  253MOL0     H34866  10.919   5.565   8.899  0.5344 -1.2105 -0.4872
  253MOL0     H34867  11.052   5.479   8.954  0.9318 -1.1499  1.4327
  253MOL0     H34868  10.786   5.352   8.891  0.1521 -3.3468  0.6118
  253MOL0     H34869  10.929   5.365   8.779 -1.3619 -0.8632 -0.6215
  253MOL0     H34870  11.049   5.217   8.977  1.3547 -1.5316 -2.2362
  253MOL0     H34871  10.887   5.211   9.044 -0.1125  1.6624  0.3413
  253MOL0     H34872  10.768   5.085   8.680 -2.9036  1.0665 -1.3508
  253MOL0     H34873  10.603   4.992   8.533  2.3878 -2.0363  1.1399
  253MOL0     H34874  10.454   4.978   8.602  0.3480  1.8944  0.8708
  253MOL0     H34875  10.556   4.825   8.579  2.0638 -0.3411 -0.1488
  253MOL0     H34876  10.201   4.805   8.621  0.0489 -0.2208 -1.1237
  253MOL0     H34877   9.972   4.695   8.607 -0.6324 -0.8507 -0.2187
  253MOL0     H34878   9.979   4.264   8.746 -1.2771 -1.3063 -3.1593
  253MOL0     H34879   9.874   4.323   8.869  0.3969  0.0791  0.5001
  253MOL0     H34880   9.688   4.343   8.707 -0.5243 -1.4895  0.5344
  253MOL0     H34881   9.796   4.315   8.572 -0.3713  1.7609  0.5395
  253MOL0     H34882   9.837   4.081   8.646  0.0944 -0.5256 -0.1827
  253MOL0     H34883   9.679   4.119   8.579  0.9269  0.6918 -0.9003
  253MOL0     H34884   9.574   4.146   8.820  1.3337  0.5095  0.2835
  253MOL0     H34885   9.727   4.086   8.881  2.1417 -1.1291 -1.3656
  253MOL0     H34886   9.706   3.887   8.742 -0.9884 -3.1137  0.5551
  253MOL0     H34887   9.601   3.905   8.882  1.8201 -1.2769 -0.4018
  253MOL0     H34888   9.531   3.953   8.583 -0.0765 -3.8967 -1.3696
  253MOL0     H34889   9.417   3.996   8.706 -2.0953 -2.7177  1.2713
  253MOL0     H34890   9.445   3.732   8.757 -1.5297  2.9677  1.3071
  253MOL0     H34891   9.521   3.749   8.589  0.6121 -1.5070  0.3386
  253MOL0     H34892   9.281   3.665   8.577  0.4464  0.2934 -3.0016
  253MOL0     H34893   9.325   3.803   8.482 -1.8721  2.7416  0.6254
  253MOL0     H34894  10.132   4.374   8.854  1.0946 -0.2680  2.6452
  253MOL0     H34895  10.347   4.506   8.872  1.9564  0.1591 -2.2976
  253MOL0     H34896  10.591   4.864   9.082 -1.3648 -1.3648 -0.4390
  253MOL0     H34897  10.808   4.997   9.076 -1.1602  2.4238 -1.3601
  253MOL0     H34898  11.033   6.203  10.221  2.8655  0.9794  0.1045
  253MOL0     H34899  11.059   6.425  10.340  0.1743 -3.2430 -0.4931
  253MOL0     H34900  11.283   6.849  10.484 -2.9519 -4.4921  2.9190
  253MOL0     H34901  11.275   7.034  10.605 -0.0235  1.6850  0.0366
  253MOL0     H34902  11.187   7.231  10.803  4.2798  0.3626 -1.0627
  253MOL0     H34903  11.251   7.247  10.638 -0.8888 -1.5620 -0.1748
  253MOL0     H34904  11.140   7.451  10.619  1.3805 -4.0534 -0.8209
  253MOL0     H34905  11.202   7.465  10.781  2.2280  0.5966 -1.1667
  253MOL0     H34906  10.912   7.420  10.703 -0.9150  2.3126  0.8913
  253MOL0     H34907  10.963   7.386  10.861 -2.9037  1.6528 -0.6593
  253MOL0     H34908  10.876   7.623  10.852  1.8129  1.0839  2.4766
  253MOL0     H34909  10.970   7.654  10.704  0.5432  0.2890 -0.2627
  253MOL0     H34910  11.222   7.767  11.024  3.5651 -5.1552 -1.6595
  253MOL0     H34911  10.860   7.082  10.505 -0.0720  2.2503  0.4036
  253MOL0     H34912  10.775   6.790  10.393  0.0478 -1.2540  0.1634
  253MOL0     H34913  10.762   6.965  10.375  1.6501  0.4585  0.9176
  253MOL0     H34914  10.830   6.861  10.248 -1.9425 -2.2613  0.9802
  254MOL0     O34915   3.814   0.148   9.921  0.4382  0.1465 -0.5933
  254MOL0     C34916   3.701   0.145   9.959 -0.9522  0.9655 -0.8860
  254MOL0     O34917   3.648   0.227  10.050  0.6519 -0.3066  0.1062
  254MOL0     C34918   3.727   0.312  10.125  0.3832  0.4870 -0.1948
  254MOL0     C34919   3.867   0.280  10.167  0.6842 -0.2619 -0.2155
  254MOL0     C34920   3.934   0.373  10.251 -0.4570  1.1329 -1.3480
  254MOL0     C34921   3.871   0.497  10.279 -0.8427  0.6508  0.5583
  254MOL0     O34922   3.927   0.593  10.357  0.1791  0.1617  0.3317
  254MOL0     C34923   4.049   0.563  10.423 -0.0178  0.2247  1.4798
  254MOL0     C34924   4.092   0.679  10.519 -0.7723 -0.0313  0.4434
  254MOL0     C34925   4.100   0.810  10.442 -1.0461 -0.1924 -0.0364
  254MOL0     C34926   4.199   0.820  10.326  0.2657  0.2567  0.2345
  254MOL0     C34927   4.344   0.783  10.371 -1.0341 -0.5029 -0.1545
  254MOL0     C34928   4.399   0.881  10.469 -0.2261 -0.5009  0.4939
  254MOL0     C34929   4.523   0.821  10.543 -0.4437 -0.1563 -0.3524
  254MOL0     C34930   4.659   0.833  10.479 -0.3983  0.6829  1.0891
  254MOL0     N34931   4.685   0.968  10.425 -0.4771 -0.6661 -0.1526
  254MOL0     C34932   4.668   1.081  10.498  0.0538  0.0552 -0.2605
  254MOL0     C34933   4.695   1.185  10.410  0.4315  1.0555  0.1493
  254MOL0     C34934   4.665   1.330  10.405  0.8092 -0.2728 -0.9310
  254MOL0     C34935   4.772   1.417  10.349  0.0624 -0.1201  0.5732
  254MOL0     C34936   4.877   1.452  10.454  0.1844  0.3199 -0.7036
  254MOL0     C34937   4.995   1.512  10.387 -0.3776 -0.8670  0.4469
  254MOL0     O34938   4.982   1.654  10.409  0.5162 -0.2862 -0.1588
  254MOL0     C34939   5.104   1.731  10.400  0.2740 -0.5913  0.4198
  254MOL0     C34940   5.098   1.865  10.421 -0.5110 -0.3468  0.1132
  254MOL0     C34941   5.210   1.944  10.417  0.1996 -0.6894  0.6208
  254MOL0     C34942   5.189   2.092  10.431  0.5699 -1.0845  0.7045
  254MOL0     C34943   5.334   1.886  10.393 -0.0576 -0.3507  0.6413
  254MOL0     C34944   5.462   1.965  10.388 -0.6456 -1.3333 -0.0068
  254MOL0     O34945   5.501   2.050  10.484 -0.4505  0.5035  0.2957
  254MOL0     C34946   5.622   2.114  10.477  0.5071 -0.6576 -0.4033
  254MOL0     C34947   5.746   2.052  10.462 -0.1284  0.1435 -0.1545
  254MOL0     C34948   5.864   2.118  10.463 -0.3055 -0.4440  0.4022
  254MOL0     C34949   5.856   2.257  10.501 -0.5491  0.5727  0.2112
  254MOL0     O34950   5.971   2.333  10.521 -0.2915  0.3029 -0.3388
  254MOL0     C34951   6.091   2.269  10.488  0.2907 -0.2139  0.3119
  254MOL0     C34952   6.211   2.359  10.518 -1.2154  1.0301  0.4183
  254MOL0     C34953   6.225   2.473  10.419 -0.2078 -0.1104  0.8132
  254MOL0     C34954   6.381   2.522  10.415  0.4787  0.4633  0.8321
  254MOL0     C34955   6.389   2.669  10.362 -0.0859 -0.5773  0.2354
  254MOL0     C34956   6.519   2.731  10.413  0.2778  0.3073 -0.0809
  254MOL0     C34957   6.533   2.881  10.368 -0.6096  0.1010 -0.1637
  254MOL0     C34958   6.685   2.927  10.375  0.1626  0.3242  0.0257
  254MOL0    Cl34959   6.763   2.885  10.537  0.0173  0.2947  0.1480
  254MOL0     C34960   5.736   2.317  10.524  0.7853 -0.5658 -0.1463
  254MOL0     C34961   5.615   2.247  10.507  0.9716 -0.4642  0.5558
  254MOL0     O34962   5.541   1.932  10.300 -0.7000  0.1811  0.2330
  254MOL0     C34963   5.343   1.748  10.379 -0.7167 -0.7714 -0.8101
  254MOL0     C34964   5.226   1.670  10.374  0.1472 -0.4247 -0.9462
  254MOL0     N34965   4.743   1.125  10.294 -0.4497  0.1261 -0.6069
  254MOL0     N34966   4.755   0.998  10.318 -0.1387  0.4752 -0.0854
  254MOL0     C34967   3.743   0.521  10.238 -0.0980  0.8090 -0.3799
  254MOL0     C34968   3.670   0.423  10.175  0.7102 -0.0000  0.3041
  254MOL0     C34969   3.616   0.046   9.896 -0.0168  1.3504 -0.2663
  254MOL0     C34970   3.483   0.077   9.856 -0.0062  0.4025 -0.0944
  254MOL0     C34971   3.398  -0.021   9.810 -0.6682  0.0208  0.3643
  254MOL0     C34972   3.434  -0.154   9.809  0.8624  0.5259  0.2244
  254MOL0     O34973   3.350  -0.251   9.759  0.2747 -0.4282 -0.9815
  254MOL0     C34974   3.209  -0.226   9.768  0.4244 -0.5498 -0.3744
  254MOL0     C34975   3.143  -0.364   9.755 -0.0960 -0.7956  0.1889
  254MOL0     C34976   3.171  -0.456   9.872 -0.0299 -0.1980 -0.2641
  254MOL0     C34977   3.312  -0.523   9.865 -0.0927 -0.7493 -0.0040
  254MOL0     C34978   3.317  -0.597   9.735 -0.0200  0.7628  0.5570
  254MOL0     C34979   3.309  -0.656   9.628  0.2667 -0.9784  0.5105
  254MOL0     C34980   3.567  -0.178   9.842 -0.4226 -0.3004  0.2289
  254MOL0     C34981   3.663  -0.092   9.885 -0.3155 -0.8110  0.1456
  254MOL0     C34982   3.794  -0.139   9.949  0.1660 -0.8372 -0.1557
  254MOL0     H34983   3.923   0.190  10.148  0.0945 -0.6385 -0.1904
  254MOL0     H34984   4.029   0.332  10.283 -0.7178  2.4037  1.4041
  254MOL0     H34985   4.135   0.549  10.357 -0.2489 -1.7093  1.5511
  254MOL0     H34986   4.026   0.472  10.477  1.7126 -2.2248 -1.5555
  254MOL0     H34987   4.019   0.686  10.600 -0.9002 -0.9225  0.4207
  254MOL0     H34988   4.189   0.660  10.567 -0.5774  1.6639  0.7771
  254MOL0     H34989   4.004   0.831  10.394  0.4173  0.7964 -2.7533
  254MOL0     H34990   4.125   0.890  10.513 -0.4233  1.0196 -1.5537
  254MOL0     H34991   4.182   0.754  10.240  1.6323  1.6796 -1.1943
  254MOL0     H34992   4.209   0.919  10.281  0.7509 -0.7947 -2.1337
  254MOL0     H34993   4.413   0.784  10.286  0.5558  0.4856  1.0841
  254MOL0     H34994   4.341   0.683  10.415 -5.0781 -0.1612  0.7095
  254MOL0     H34995   4.411   0.979  10.422 -0.6835 -2.1041 -3.3538
  254MOL0     H34996   4.319   0.907  10.539 -0.9498  3.8799 -1.6795
  254MOL0     H34997   4.495   0.716  10.558  0.8904 -0.4710 -0.0090
  254MOL0     H34998   4.531   0.861  10.644  0.0189 -0.7764 -0.1375
  254MOL0     H34999   4.731   0.805  10.556 -1.0056  0.1977  1.4882
  254MOL0     H35000   4.659   0.764  10.394 -1.7746  1.6503  0.2459
  254MOL0     H35001   4.624   1.080  10.597 -0.6606  0.4766 -0.5664
  254MOL0     H35002   4.626   1.368  10.500  1.3693  1.6077 -1.3956
  254MOL0     H35003   4.578   1.331  10.339  0.9023 -1.1067 -1.0712
  254MOL0     H35004   4.833   1.371  10.270  1.6978  2.6802  0.0951
  254MOL0     H35005   4.727   1.510  10.315 -1.8270 -1.6599 -1.4855
  254MOL0     H35006   4.848   1.522  10.533 -1.2392  1.3056 -2.0300
  254MOL0     H35007   4.919   1.362  10.499 -2.1459  0.7399  2.6975
  254MOL0     H35008   5.084   1.475  10.437  0.7756 -0.9079 -1.5373
  254MOL0     H35009   5.009   1.494  10.280  0.1766 -1.0001  0.5384
  254MOL0     H35010   5.008   1.910  10.462  0.1695  0.9668  0.2458
  254MOL0     H35011   5.232   2.136  10.522  0.3466  0.6662 -0.0015
  254MOL0     H35012   5.082   2.114  10.426  0.3075 -2.5400 -3.1106
  254MOL0     H35013   5.244   2.134  10.346 -0.0106 -1.0352  0.3507
  254MOL0     H35014   5.751   1.943  10.455 -0.6105  0.0650  0.5963
  254MOL0     H35015   5.956   2.069  10.435 -0.4839 -0.1332 -0.8083
  254MOL0     H35016   6.097   2.183  10.555 -1.5034  0.3572  1.2827
  254MOL0     H35017   6.082   2.233  10.385 -0.8409 -1.8841  0.9546
  254MOL0     H35018   6.212   2.401  10.620  2.0364  0.6511  0.6492
  254MOL0     H35019   6.293   2.288  10.520 -0.5861  1.7508  1.7367
  254MOL0     H35020   6.170   2.566  10.433  0.8747  0.5325  0.9286
  254MOL0     H35021   6.209   2.446  10.314 -0.7888  0.7528  0.6715
  254MOL0     H35022   6.439   2.450  10.356 -1.8510  0.8952 -2.2714
  254MOL0     H35023   6.420   2.507  10.516  1.8415  0.1572  0.2909
  254MOL0     H35024   6.386   2.675  10.253  0.7788  0.0755  0.2468
  254MOL0     H35025   6.305   2.733  10.390  1.0912  1.5622 -0.9075
  254MOL0     H35026   6.603   2.681  10.364 -0.3437  1.4699 -2.5084
  254MOL0     H35027   6.515   2.708  10.519 -0.1874 -0.1154 -0.1850
  254MOL0     H35028   6.466   2.942  10.430 -1.0480  0.4395 -0.9575
  254MOL0     H35029   6.506   2.901  10.264  1.2073  1.2453 -0.4642
  254MOL0     H35030   6.698   3.031  10.344  0.8306 -0.0137 -0.8711
  254MOL0     H35031   6.742   2.875  10.296  1.7765  3.3263 -0.9505
  254MOL0     H35032   5.712   2.416  10.562  0.2234 -1.0192  0.7296
  254MOL0     H35033   5.515   2.288  10.521 -0.6719 -3.9941  0.3976
  254MOL0     H35034   5.444   1.710  10.368  0.2241  1.4654 -0.4976
  254MOL0     H35035   5.260   1.569  10.354  0.7652 -0.4212 -0.0015
  254MOL0     H35036   3.686   0.610  10.261 -0.5795  0.7915 -1.4149
  254MOL0     H35037   3.572   0.449  10.136  0.8658  1.7700  1.0197
  254MOL0     H35038   3.469   0.184   9.858  0.6732  0.4978 -0.2556
  254MOL0     H35039   3.306   0.011   9.760 -0.5812  0.8772  0.7252
  254MOL0     H35040   3.178  -0.183   9.863 -0.4515 -0.1395 -0.8357
  254MOL0     H35041   3.178  -0.162   9.685  2.0826  0.1522 -0.4821
  254MOL0     H35042   3.181  -0.398   9.659 -2.2421 -2.6126 -0.0932
  254MOL0     H35043   3.034  -0.356   9.748 -0.0463  1.8755  1.1051
  254MOL0     H35044   3.172  -0.391   9.960 -2.2244  0.7703 -0.8834
  254MOL0     H35045   3.094  -0.532   9.885  0.3008 -0.2768  1.5029
  254MOL0     H35046   3.321  -0.580   9.958  2.8031 -0.0158  0.2575
  254MOL0     H35047   3.391  -0.447   9.858 -1.1581  0.2450 -2.1956
  254MOL0     H35048   3.309  -0.708   9.534  0.5827 -1.4128  0.7457
  254MOL0     H35049   3.608  -0.275   9.816  2.8168  0.2598  2.6381
  254MOL0     H35050   3.877  -0.095   9.893 -0.7662 -0.0131 -0.9398
  254MOL0     H35051   3.790  -0.107  10.053 -0.2623  0.9465 -0.6678
  254MOL0     H35052   3.796  -0.247   9.935 -1.4804 -0.7231 -1.7968
  255MOL0     O35053   6.754   4.215   1.000 -0.2513  0.2970 -1.0663
  255MOL0     C35054   6.835   4.126   0.971  0.2818 -0.9816  0.3433
  255MOL0     O35055   6.919   4.072   1.059 -0.0126 -1.2646 -0.3107
  255MOL0     C35056   7.028   3.988   1.031 -0.2405 -0.5941 -0.6564
  255MOL0     C35057   7.153   4.021   1.082 -0.4341 -0.3986 -1.0672
  255MOL0     C35058   7.261   3.935   1.068  0.1402 -0.4205  0.4484
  255MOL0     C35059   7.253   3.811   1.008 -0.6660 -0.7783 -0.1137
  255MOL0     O35060   7.354   3.710   1.004  0.0394 -0.1608  0.4896
  255MOL0     C35061   7.480   3.745   1.066 -0.8907 -0.2452 -0.2653
  255MOL0     C35062   7.568   3.819   0.970  1.2964 -0.1965 -1.0166
  255MOL0     C35063   7.681   3.748   0.916  0.6170 -0.0027  0.4007
  255MOL0     C35064   7.761   3.837   0.815 -0.3416  0.2360 -0.9359
  255MOL0     C35065   7.894   3.770   0.772 -0.4745  0.8862 -0.2615
  255MOL0     C35066   7.872   3.650   0.675  0.0848 -0.2437 -1.1476
  255MOL0     C35067   8.009   3.623   0.614  0.1019  0.5067 -0.4304
  255MOL0     C35068   8.041   3.473   0.575 -0.4241  0.7822 -0.1734
  255MOL0     N35069   8.068   3.394   0.701 -0.1378  0.1296 -0.0933
  255MOL0     C35070   8.143   3.416   0.813  0.1779  0.2374 -0.0236
  255MOL0     C35071   8.127   3.312   0.898  0.3260  0.0781 -0.4886
  255MOL0     C35072   8.195   3.299   1.026 -0.5549 -0.2441 -0.8978
  255MOL0     C35073   8.348   3.261   1.003 -0.1519 -0.1683 -0.5528
  255MOL0     C35074   8.418   3.226   1.127  0.9496  0.9483 -0.0154
  255MOL0     C35075   8.566   3.234   1.132 -0.3597  0.6999 -0.8922
  255MOL0     O35076   8.615   3.202   1.266  0.6111  0.3167 -0.4037
  255MOL0     C35077   8.721   3.276   1.306 -0.1061 -0.3684 -0.5388
  255MOL0     C35078   8.706   3.413   1.329  0.3138 -0.5177  0.6017
  255MOL0     C35079   8.810   3.502   1.364 -0.2982  0.3938 -0.1836
  255MOL0     C35080   8.791   3.649   1.369 -0.2063  0.0410 -0.1232
  255MOL0     C35081   8.941   3.448   1.385 -0.0662 -0.4711 -0.7303
  255MOL0     C35082   9.053   3.519   1.443  0.7599  1.1425  0.5043
  255MOL0     O35083   9.072   3.649   1.385  0.3062  0.3658 -0.3870
  255MOL0     C35084   9.177   3.717   1.444 -0.5995 -0.2495  0.2940
  255MOL0     C35085   9.156   3.833   1.510 -0.1027 -1.2542 -0.4485
  255MOL0     C35086   9.248   3.890   1.598 -0.5157 -0.2100  0.6871
  255MOL0     C35087   9.371   3.841   1.621 -0.1195  0.4148  0.0328
  255MOL0     O35088   9.460   3.907   1.693 -0.5370 -0.3993 -0.6117
  255MOL0     C35089   9.428   3.983   1.811 -0.2241  0.1042  0.4442
  255MOL0     C35090   9.548   4.015   1.890 -0.1783 -0.4182  0.2193
  255MOL0     C35091   9.638   4.120   1.815 -0.3279 -0.5628  0.3753
  255MOL0     C35092   9.757   4.162   1.911  0.1214  1.3115 -0.3097
  255MOL0     C35093   9.849   4.275   1.865 -0.2096  0.3701 -0.4895
  255MOL0     C35094   9.903   4.256   1.725  1.0935 -0.6820 -0.5796
  255MOL0     C35095   9.819   4.320   1.608  0.0704 -0.3404  0.6810
  255MOL0     C35096   9.866   4.267   1.467  0.1823 -1.3146  0.3575
  255MOL0    Cl35097   9.853   4.095   1.479  0.1547  0.3088  0.0867
  255MOL0     C35098   9.402   3.723   1.543  0.2207  0.1750 -0.9752
  255MOL0     C35099   9.310   3.663   1.457 -0.4416 -0.6150  0.0222
  255MOL0     O35100   9.117   3.459   1.524 -0.6092 -0.5785  0.0098
  255MOL0     C35101   8.950   3.310   1.371  0.1777  0.3912  1.1705
  255MOL0     C35102   8.844   3.222   1.327 -0.1199 -0.0092  0.6165
  255MOL0     N35103   8.047   3.216   0.837 -0.1506  0.4389 -0.3363
  255MOL0     N35104   8.005   3.270   0.725 -0.3101 -0.3293  0.3610
  255MOL0     C35105   7.131   3.777   0.961  0.6148  0.6180 -0.2441
  255MOL0     C35106   7.019   3.865   0.956  0.1195 -0.0770 -0.7326
  255MOL0     C35107   6.843   4.075   0.829  0.0029 -0.4253 -1.6227
  255MOL0     C35108   6.946   4.126   0.753 -0.2494 -0.4854 -0.6860
  255MOL0     C35109   6.969   4.092   0.625 -0.0385 -0.4077 -0.6931
  255MOL0     C35110   6.878   4.013   0.565 -0.7539 -0.1148  0.3068
  255MOL0     O35111   6.871   3.983   0.425  0.6921  0.2463  0.4018
  255MOL0     C35112   6.968   4.040   0.334  0.0071 -0.3218 -0.1173
  255MOL0     C35113   7.096   3.966   0.334 -0.0120  1.6813  0.4333
  255MOL0     C35114   7.085   3.831   0.261 -0.6647 -0.0984 -0.5353
  255MOL0     C35115   7.013   3.722   0.335  0.0493  0.5868  0.7979
  255MOL0     C35116   7.079   3.686   0.465  0.6421 -0.5899  0.2753
  255MOL0     C35117   7.129   3.646   0.563  0.0318  0.5922  0.2850
  255MOL0     C35118   6.770   3.953   0.636 -0.4081  0.1296 -0.2803
  255MOL0     C35119   6.754   3.982   0.776 -0.6853  0.0425 -0.3320
  255MOL0     C35120   6.647   3.927   0.865  0.7058 -0.2133 -0.4539
  255MOL0     H35121   7.170   4.112   1.140  2.3753 -1.3080 -0.3062
  255MOL0     H35122   7.356   3.963   1.113 -0.4088  1.9861  0.2812
  255MOL0     H35123   7.528   3.651   1.097 -0.8716 -1.0424 -2.5714
  255MOL0     H35124   7.461   3.800   1.159 -1.1914 -2.1298  0.8631
  255MOL0     H35125   7.501   3.854   0.890 -0.9849  0.2611  0.9528
  255MOL0     H35126   7.603   3.903   1.032  0.5692 -1.2777  0.9388
  255MOL0     H35127   7.754   3.725   0.995  2.3730 -0.7607 -1.3662
  255MOL0     H35128   7.647   3.653   0.875  1.3283 -0.6475  1.2540
  255MOL0     H35129   7.691   3.850   0.732 -1.2409  2.5144  0.1024
  255MOL0     H35130   7.791   3.930   0.864  2.6068 -0.4193 -1.2656
  255MOL0     H35131   7.950   3.730   0.857  1.0273  0.0653 -1.5764
  255MOL0     H35132   7.959   3.837   0.716  5.3488 -3.8711 -0.1378
  255MOL0     H35133   7.833   3.562   0.728  2.0076  0.5220  1.8138
  255MOL0     H35134   7.800   3.671   0.596 -1.6332 -2.2198 -0.2209
  255MOL0     H35135   8.083   3.654   0.689  0.6317 -1.5791 -0.0314
  255MOL0     H35136   8.028   3.687   0.527 -1.3942  0.2785 -0.9474
  255MOL0     H35137   7.963   3.414   0.526  0.7287 -0.6416 -0.3644
  255MOL0     H35138   8.130   3.463   0.512  0.0555 -1.7264  0.7950
  255MOL0     H35139   8.210   3.496   0.843  2.2543 -1.7217  0.8439
  255MOL0     H35140   8.145   3.215   1.077 -2.0608  0.0985 -1.7408
  255MOL0     H35141   8.186   3.397   1.074 -0.6597  0.8360 -3.0180
  255MOL0     H35142   8.343   3.175   0.935  3.4582  1.6803 -3.4771
  255MOL0     H35143   8.387   3.350   0.954 -0.6751  0.7060  0.5796
  255MOL0     H35144   8.376   3.285   1.210  1.9813  0.8378  0.6117
  255MOL0     H35145   8.405   3.119   1.145  0.9267  0.8422 -0.6479
  255MOL0     H35146   8.611   3.160   1.065 -1.6126 -2.3356  1.3895
  255MOL0     H35147   8.591   3.336   1.102 -2.2898  1.0958 -1.2709
  255MOL0     H35148   8.607   3.457   1.331 -0.0762 -1.3881  1.7495
  255MOL0     H35149   8.852   3.680   1.283 -1.8561  1.5272 -0.8183
  255MOL0     H35150   8.832   3.689   1.462  0.6728  1.3767 -1.0369
  255MOL0     H35151   8.685   3.668   1.354 -0.6289 -2.2558 -0.4908
  255MOL0     H35152   9.055   3.873   1.511  0.7891  1.3820  2.5223
  255MOL0     H35153   9.222   3.980   1.654 -1.3256  0.1831 -0.2824
  255MOL0     H35154   9.382   4.078   1.782 -1.2491 -0.2356  0.8970
  255MOL0     H35155   9.357   3.932   1.876  0.8208 -1.0052  0.7552
  255MOL0     H35156   9.521   4.070   1.980  1.8924  3.8659 -1.4747
  255MOL0     H35157   9.603   3.922   1.911  1.7259  0.9185  1.5505
  255MOL0     H35158   9.578   4.209   1.796  3.8312  2.1698 -1.5701
  255MOL0     H35159   9.668   4.097   1.712 -1.7013  2.6219 -0.8758
  255MOL0     H35160   9.819   4.072   1.909  1.0570  1.9415 -0.9179
  255MOL0     H35161   9.737   4.169   2.018 -3.0641  0.5559 -0.7589
  255MOL0     H35162   9.787   4.364   1.870 -0.1945  0.3337  1.4205
  255MOL0     H35163   9.929   4.293   1.938  1.0909  1.3568 -2.0848
  255MOL0     H35164   9.941   4.154   1.717  1.6302 -0.5656  0.3593
  255MOL0     H35165   9.996   4.313   1.713  1.7712 -1.7474 -0.5191
  255MOL0     H35166   9.808   4.429   1.608 -1.7385 -0.4645 -0.9719
  255MOL0     H35167   9.719   4.278   1.617 -0.6967  0.4978 -2.5449
  255MOL0     H35168   9.965   4.302   1.438  0.6683 -0.4494  2.8182
  255MOL0     H35169   9.794   4.300   1.392  0.7257  0.8284  0.6979
  255MOL0     H35170   9.500   3.675   1.552  0.1748  0.4305  2.2504
  255MOL0     H35171   9.337   3.569   1.410  3.4576  0.5040 -0.2506
  255MOL0     H35172   9.051   3.271   1.383 -0.1918  0.1079  4.0683
  255MOL0     H35173   8.870   3.116   1.323  4.2149  0.8015  1.4979
  255MOL0     H35174   7.130   3.678   0.917 -1.2048  1.4909 -2.3407
  255MOL0     H35175   6.930   3.828   0.906  0.7575 -3.2278  0.2081
  255MOL0     H35176   7.010   4.203   0.795 -3.7870  3.8438 -2.5603
  255MOL0     H35177   7.045   4.140   0.563 -1.4954 -0.2100 -2.4211
  255MOL0     H35178   6.918   4.026   0.238  2.0345  0.6776 -1.3914
  255MOL0     H35179   6.975   4.149   0.343  3.2724 -0.5907  2.3987
  255MOL0     H35180   7.134   3.947   0.434 -0.4040  2.0978  0.6619
  255MOL0     H35181   7.173   4.037   0.302  0.1539  2.0031  1.5358
  255MOL0     H35182   7.032   3.851   0.167 -2.2939 -4.9983 -0.9482
  255MOL0     H35183   7.183   3.786   0.241  0.2103  1.4044  0.2653
  255MOL0     H35184   7.015   3.635   0.269  1.1017  1.9867 -1.1306
  255MOL0     H35185   6.906   3.744   0.344 -0.4176 -0.7435 -0.9121
  255MOL0     H35186   7.193   3.609   0.641  0.7680  2.0355  0.4033
  255MOL0     H35187   6.710   3.881   0.581  1.8266 -0.3528 -2.2647
  255MOL0     H35188   6.573   4.004   0.891  0.2703 -1.0247  0.8107
  255MOL0     H35189   6.593   3.849   0.809  0.4589  0.4069 -1.0973
  255MOL0     H35190   6.702   3.893   0.953  2.2241  4.4832  0.7035
  256MOL0     O35191   1.038   5.719   0.194 -0.1885  0.3498 -0.1171
  256MOL0     C35192   1.112   5.623   0.192 -0.5174  1.2202 -0.4197
  256MOL0     O35193   1.070   5.490   0.209  0.3361  0.5576 -0.6686
  256MOL0     C35194   0.936   5.454   0.204  0.9251 -0.5035 -0.2082
  256MOL0     C35195   0.838   5.513   0.118  0.8554 -0.2146 -0.9553
  256MOL0     C35196   0.711   5.474   0.126 -0.2747  1.0300 -0.1184
  256MOL0     C35197   0.664   5.367   0.208  0.2029  0.0295  0.6080
  256MOL0     O35198   0.529   5.337   0.195  0.1607 -0.4563  0.1050
  256MOL0     C35199   0.474   5.240   0.282  0.1288  1.0479  0.4331
  256MOL0     C35200   0.326   5.234   0.269  0.3171  0.1209  0.2599
  256MOL0     C35201   0.269   5.117   0.358 -0.7497 -0.2841  0.9440
  256MOL0     C35202   0.164   5.047   0.276  0.6599  0.4000 -0.8304
  256MOL0     C35203   0.114   4.926   0.357  0.9254  0.1551  0.1644
  256MOL0     C35204   0.001   4.859   0.281  0.4442  0.3273 -0.8128
  256MOL0     C35205  -0.050   4.717   0.323  0.6474  0.4054  0.2283
  256MOL0     C35206   0.042   4.594   0.296 -0.9620  0.3736  0.0899
  256MOL0     N35207  -0.042   4.471   0.302  0.2871 -0.6517 -0.1625
  256MOL0     C35208  -0.041   4.389   0.411 -0.5757 -0.2578  0.3135
  256MOL0     C35209  -0.113   4.286   0.369 -0.1142 -0.1838  0.4633
  256MOL0     C35210  -0.105   4.161   0.439 -0.6402  0.4673 -0.6177
  256MOL0     C35211  -0.162   4.044   0.358  0.5660  0.5731  0.0703
  256MOL0     C35212  -0.066   3.975   0.258  0.7377 -0.0003 -0.5366
  256MOL0     C35213  -0.138   3.876   0.171  0.0189 -0.8237 -0.1237
  256MOL0     O35214  -0.197   3.954   0.060  0.2729  0.1711 -0.3731
  256MOL0     C35215  -0.237   3.881  -0.048 -0.5467  0.2734 -0.3515
  256MOL0     C35216  -0.221   3.743  -0.068  0.0520  0.2703  0.5128
  256MOL0     C35217  -0.289   3.687  -0.175 -0.4051  1.3782 -0.3375
  256MOL0     C35218  -0.271   3.537  -0.179  1.3002 -0.1584  0.5494
  256MOL0     C35219  -0.363   3.760  -0.273 -0.6669 -0.1985 -0.2153
  256MOL0     C35220  -0.413   3.687  -0.390 -0.3733  0.0151 -0.4723
  256MOL0     O35221  -0.313   3.628  -0.465  0.2214 -0.9476 -0.8507
  256MOL0     C35222  -0.333   3.531  -0.564 -0.1741 -0.5715  0.8346
  256MOL0     C35223  -0.414   3.411  -0.549 -0.1221  0.4140 -0.4651
  256MOL0     C35224  -0.427   3.314  -0.637 -0.3387  0.1451  0.5917
  256MOL0     C35225  -0.352   3.315  -0.750 -0.2423 -0.3008  0.0966
  256MOL0     O35226  -0.368   3.207  -0.836  1.1591 -0.2683 -0.1481
  256MOL0     C35227  -0.338   3.219  -0.973 -0.5063  0.8884  0.2910
  256MOL0     C35228  -0.412   3.110  -1.058 -0.3242  1.2292 -0.4254
  256MOL0     C35229  -0.349   3.096  -1.202  0.4427  0.4100 -0.6748
  256MOL0     C35230  -0.446   3.012  -1.281 -0.9712  0.5299  0.1190
  256MOL0     C35231  -0.390   2.944  -1.398  0.5178  1.0310  0.1614
  256MOL0     C35232  -0.493   2.830  -1.427  0.5045 -0.5335  0.2329
  256MOL0     C35233  -0.455   2.760  -1.555 -0.3447  0.3622  0.6425
  256MOL0     C35234  -0.516   2.617  -1.561 -0.2793 -1.9230  0.2322
  256MOL0    Cl35235  -0.476   2.518  -1.420 -0.1900 -0.2471  0.6220
  256MOL0     C35236  -0.269   3.425  -0.776 -0.4428 -0.0623 -0.0819
  256MOL0     C35237  -0.257   3.535  -0.680  0.8010 -1.1329  0.3598
  256MOL0     O35238  -0.537   3.678  -0.414 -0.8049 -0.2364  0.1396
  256MOL0     C35239  -0.368   3.897  -0.250  0.2996  0.2862 -0.2184
  256MOL0     C35240  -0.302   3.954  -0.144 -0.6016 -0.0128  0.0300
  256MOL0     N35241  -0.170   4.314   0.236  0.6296  1.2894 -0.6173
  256MOL0     N35242  -0.125   4.427   0.204 -0.6251  0.2732  0.1600
  256MOL0     C35243   0.764   5.308   0.287  0.3138  0.6254 -0.5734
  256MOL0     C35244   0.892   5.354   0.297  0.8696  0.1015 -0.1590
  256MOL0     C35245   1.255   5.648   0.200 -0.1099 -0.4346 -0.1852
  256MOL0     C35246   1.349   5.543   0.190  0.4357 -0.9893  0.7731
  256MOL0     C35247   1.489   5.565   0.188 -0.2098 -0.5299 -0.1227
  256MOL0     C35248   1.539   5.692   0.218 -0.4314 -0.4439  0.1630
  256MOL0     O35249   1.677   5.698   0.234  0.0029  0.1967 -0.0416
  256MOL0     C35250   1.729   5.806   0.316  0.2008 -0.4709  0.1660
  256MOL0     C35251   1.751   5.938   0.232  0.0845  0.6028 -0.0528
  256MOL0     C35252   1.801   6.061   0.311 -0.1671  0.7329  0.0963
  256MOL0     C35253   1.693   6.157   0.336  0.6656  0.1899 -0.4584
  256MOL0     C35254   1.590   6.118   0.433  0.5915  0.4934 -0.6498
  256MOL0     C35255   1.497   6.089   0.494  0.0407 -0.1899  0.4575
  256MOL0     C35256   1.445   5.792   0.241  0.0422 -0.9007 -0.2596
  256MOL0     C35257   1.307   5.775   0.225 -0.2224 -0.5904 -0.4870
  256MOL0     C35258   1.233   5.906   0.234  0.8178  0.0093  0.7780
  256MOL0     H35259   0.855   5.598   0.052 -0.3336 -0.3826 -1.5078
  256MOL0     H35260   0.638   5.521   0.062 -2.0110 -1.6389 -0.2178
  256MOL0     H35261   0.514   5.249   0.383 -1.6424 -2.6905  1.6828
  256MOL0     H35262   0.515   5.145   0.245  1.9872  1.0599  2.3207
  256MOL0     H35263   0.287   5.335   0.286 -0.2630 -0.2076  0.8898
  256MOL0     H35264   0.304   5.206   0.165 -1.8251 -0.2107  0.7489
  256MOL0     H35265   0.343   5.039   0.378 -1.6096 -1.5402 -0.4509
  256MOL0     H35266   0.234   5.153   0.455 -0.8685  1.0564  0.4240
  256MOL0     H35267   0.077   5.108   0.252  0.9971  0.9587 -0.6551
  256MOL0     H35268   0.202   5.007   0.182  1.4129  0.3188 -0.5059
  256MOL0     H35269   0.083   4.955   0.458  0.2638 -0.4865  0.1510
  256MOL0     H35270   0.195   4.853   0.371  1.6009  1.2178  2.2681
  256MOL0     H35271  -0.083   4.928   0.277  0.7327  0.6575 -1.2893
  256MOL0     H35272   0.039   4.854   0.179 -1.5004 -0.5571 -1.5387
  256MOL0     H35273  -0.147   4.698   0.276  0.1372  3.2113 -0.0329
  256MOL0     H35274  -0.071   4.719   0.430  0.1734 -1.6106  0.2203
  256MOL0     H35275   0.083   4.588   0.195  1.5566  0.4381  1.0350
  256MOL0     H35276   0.120   4.597   0.373 -3.1152  3.3119  2.3955
  256MOL0     H35277   0.004   4.410   0.507 -1.0011 -2.1273  0.9657
  256MOL0     H35278  -0.150   4.180   0.537  1.3697  0.0966  0.4379
  256MOL0     H35279   0.002   4.140   0.451 -0.8825 -0.6764 -0.4144
  256MOL0     H35280  -0.193   3.966   0.428  0.6095  1.1254  0.7140
  256MOL0     H35281  -0.255   4.071   0.307 -1.7002 -3.9084  1.2506
  256MOL0     H35282  -0.006   4.046   0.202 -0.2160  0.9192 -0.4151
  256MOL0     H35283   0.021   3.919   0.296  1.1994  0.6818 -0.5667
  256MOL0     H35284  -0.070   3.796   0.141 -1.3543 -1.0085 -3.0949
  256MOL0     H35285  -0.226   3.831   0.219 -1.8186  1.9834 -0.6032
  256MOL0     H35286  -0.191   3.672   0.008 -0.0123 -0.4814 -0.1534
  256MOL0     H35287  -0.233   3.499  -0.084  1.1095  0.8851  1.0650
  256MOL0     H35288  -0.195   3.515  -0.255  1.7308 -0.2766  1.0111
  256MOL0     H35289  -0.364   3.483  -0.199 -0.2411  1.5348  2.6800
  256MOL0     H35290  -0.462   3.399  -0.452 -0.5147  0.4603 -0.6519
  256MOL0     H35291  -0.478   3.223  -0.606  0.9727 -1.0392 -0.6007
  256MOL0     H35292  -0.383   3.308  -1.019 -0.0751  0.2183 -1.5401
  256MOL0     H35293  -0.230   3.215  -0.990 -0.8312 -0.1152 -2.0182
  256MOL0     H35294  -0.398   3.018  -1.001 -0.9141  3.6796  4.1595
  256MOL0     H35295  -0.521   3.123  -1.065 -0.2276  2.7619  0.4326
  256MOL0     H35296  -0.251   3.047  -1.196  0.1985 -0.1075 -0.7997
  256MOL0     H35297  -0.335   3.195  -1.246  0.2357  0.9662  0.4571
  256MOL0     H35298  -0.525   3.080  -1.312 -0.5989  1.2732  0.7647
  256MOL0     H35299  -0.498   2.938  -1.220 -1.5196  0.3298 -0.5808
  256MOL0     H35300  -0.376   3.020  -1.476  0.0478  0.2799 -0.6746
  256MOL0     H35301  -0.290   2.906  -1.377  1.3551  3.4551  0.8931
  256MOL0     H35302  -0.591   2.874  -1.447  0.8563 -0.6929 -2.0653
  256MOL0     H35303  -0.507   2.765  -1.340  1.2789 -1.5309 -0.3677
  256MOL0     H35304  -0.348   2.737  -1.563 -0.9901 -2.3608 -1.3159
  256MOL0     H35305  -0.482   2.825  -1.639  2.9892 -0.3471 -1.1544
  256MOL0     H35306  -0.468   2.568  -1.646 -2.4825 -4.6334  0.4081
  256MOL0     H35307  -0.624   2.628  -1.574  0.2378  1.2104 -2.9488
  256MOL0     H35308  -0.204   3.427  -0.862  1.8524 -2.1641  1.4746
  256MOL0     H35309  -0.189   3.616  -0.702 -3.5795  2.6018 -1.0820
  256MOL0     H35310  -0.420   3.945  -0.333 -2.1019 -0.6736  0.6466
  256MOL0     H35311  -0.296   4.062  -0.145  2.4025 -0.1073 -0.3835
  256MOL0     H35312   0.731   5.219   0.339 -2.7648  1.9531 -0.0742
  256MOL0     H35313   0.961   5.298   0.360  1.4055 -0.2886 -1.0721
  256MOL0     H35314   1.314   5.441   0.175  0.6894 -0.8702 -0.8458
  256MOL0     H35315   1.551   5.477   0.177 -0.2160 -0.2027 -3.9691
  256MOL0     H35316   1.662   5.829   0.399  0.0383  0.8185 -0.2979
  256MOL0     H35317   1.830   5.784   0.353 -0.4045 -0.1619  2.0854
  256MOL0     H35318   1.663   5.958   0.170  2.9909  0.8007 -4.5653
  256MOL0     H35319   1.829   5.906   0.162 -0.1587 -1.9413  0.7341
  256MOL0     H35320   1.851   6.017   0.398  1.0882 -0.2495 -1.0547
  256MOL0     H35321   1.873   6.117   0.250 -1.6049 -0.5544 -3.0308
  256MOL0     H35322   1.642   6.192   0.246 -1.1219 -2.2715 -0.5004
  256MOL0     H35323   1.740   6.248   0.375 -2.7122  1.5463  0.8945
  256MOL0     H35324   1.413   6.063   0.555  2.6903 -1.6246  3.8122
  256MOL0     H35325   1.491   5.890   0.252 -0.5655 -0.4045 -1.8680
  256MOL0     H35326   1.292   5.997   0.236 -0.5844  1.1163 -2.2540
  256MOL0     H35327   1.172   5.921   0.144  2.0393 -0.5648 -0.1810
  256MOL0     H35328   1.174   5.900   0.327 -0.7911  2.7556  0.0540
  257MOL0     O35329  10.553   6.733   1.269  0.0204  0.2593  0.2955
  257MOL0     C35330  10.570   6.613   1.240 -0.5590 -0.5751 -0.0257
  257MOL0     O35331  10.622   6.522   1.324 -0.3066  0.5411  0.1548
  257MOL0     C35332  10.640   6.534   1.463 -0.7500 -0.4465 -0.7698
  257MOL0     C35333  10.660   6.416   1.529  0.7931  0.2155 -0.4180
  257MOL0     C35334  10.681   6.412   1.664 -0.8049  0.1968  0.3481
  257MOL0     C35335  10.680   6.527   1.738  0.3861  0.0788  0.0321
  257MOL0     O35336  10.714   6.503   1.865 -0.5454 -0.6309  0.3639
  257MOL0     C35337  10.684   6.610   1.960  0.1590 -0.3460  0.5210
  257MOL0     C35338  10.678   6.543   2.104 -0.8271 -0.5285  0.3616
  257MOL0     C35339  10.814   6.517   2.174 -0.1085 -0.1068  1.0375
  257MOL0     C35340  10.800   6.428   2.299  0.6751  0.3591 -0.0420
  257MOL0     C35341  10.922   6.347   2.324  0.4232  0.3286  0.7709
  257MOL0     C35342  10.921   6.269   2.442 -0.4128 -0.1432  0.3051
  257MOL0     C35343  10.848   6.134   2.433  0.8287 -1.2019  0.1736
  257MOL0     C35344  10.852   6.050   2.562  0.4019  0.2002  1.0652
  257MOL0     N35345  10.809   5.915   2.523  0.1027 -0.1229 -0.9119
  257MOL0     C35346  10.683   5.859   2.558 -0.2767  0.6277 -0.2745
  257MOL0     C35347  10.679   5.732   2.506  0.0148  0.4532 -0.2495
  257MOL0     C35348  10.569   5.627   2.536 -0.1599  0.3700  0.5243
  257MOL0     C35349  10.436   5.699   2.519 -0.6530  0.1515  0.7020
  257MOL0     C35350  10.319   5.609   2.560  0.7004  0.4376 -0.7480
  257MOL0     C35351  10.266   5.510   2.456  0.0336  0.2434  0.1289
  257MOL0     O35352  10.155   5.419   2.492 -0.4351  0.7686  0.3077
  257MOL0     C35353  10.180   5.320   2.588 -0.2454 -0.7107 -0.8430
  257MOL0     C35354  10.300   5.296   2.647  0.8094  0.9115  0.5122
  257MOL0     C35355  10.316   5.220   2.763  1.1846  0.0183  0.0321
  257MOL0     C35356  10.453   5.203   2.806  0.7637 -0.2826  0.1014
  257MOL0     C35357  10.195   5.182   2.828 -0.2393 -0.6057  0.1398
  257MOL0     C35358  10.197   5.101   2.949  0.3326  1.4087 -1.0777
  257MOL0     O35359  10.276   5.132   3.058  0.3833 -0.4853  0.2581
  257MOL0     C35360  10.306   5.032   3.153 -0.0457 -0.4283  0.5268
  257MOL0     C35361  10.361   4.907   3.111  0.2323  1.3140  0.3428
  257MOL0     C35362  10.383   4.812   3.212 -0.1968  0.1008  0.0615
  257MOL0     C35363  10.350   4.837   3.348  0.1716  0.4251 -0.2839
  257MOL0     O35364  10.362   4.740   3.442 -0.1923 -0.3198  0.3761
  257MOL0     C35365  10.333   4.609   3.392 -1.0935  0.6001  0.5052
  257MOL0     C35366  10.309   4.529   3.524 -0.1562  0.3942  0.6962
  257MOL0     C35367  10.412   4.558   3.633  0.2212 -0.6600  0.3539
  257MOL0     C35368  10.556   4.509   3.574  0.0744 -0.3053 -0.4442
  257MOL0     C35369  10.652   4.560   3.666  0.6058  0.2923  0.2216
  257MOL0     C35370  10.792   4.502   3.622  0.5732 -0.0898 -0.5018
  257MOL0     C35371  10.900   4.592   3.674 -0.5629 -0.2085 -0.4618
  257MOL0     C35372  11.039   4.550   3.629  0.5722  0.6164 -0.4782
  257MOL0    Cl35373  11.048   4.603   3.458 -0.3702 -0.1798  0.2100
  257MOL0     C35374  10.296   4.959   3.385 -1.0996  0.2185 -0.9371
  257MOL0     C35375  10.281   5.058   3.287 -0.1914  0.5023 -0.4992
  257MOL0     O35376  10.117   5.005   2.950 -0.4570  0.3905 -0.0879
  257MOL0     C35377  10.066   5.212   2.774  0.7240 -0.1912  0.3165
  257MOL0     C35378  10.067   5.272   2.649  0.1977 -0.8011 -0.7857
  257MOL0     N35379  10.809   5.706   2.461  0.6954  1.0866  0.6339
  257MOL0     N35380  10.882   5.813   2.465 -0.2995 -0.4934 -0.2552
  257MOL0     C35381  10.656   6.648   1.667 -0.9718 -0.3570  0.7389
  257MOL0     C35382  10.645   6.646   1.532  0.0617  0.2016 -0.2772
  257MOL0     C35383  10.546   6.577   1.103 -0.0860 -1.2301 -0.0791
  257MOL0     C35384  10.436   6.642   1.043  0.2252 -0.1274  0.1926
  257MOL0     C35385  10.408   6.608   0.910  0.0310  0.6795 -0.0153
  257MOL0     C35386  10.463   6.505   0.841  0.0609  0.9244 -0.1239
  257MOL0     O35387  10.397   6.463   0.727 -0.5864 -0.5121  0.0038
  257MOL0     C35388  10.470   6.384   0.639 -0.2135  0.3594 -0.8206
  257MOL0     C35389  10.359   6.324   0.550 -0.8362  0.0735  0.5392
  257MOL0     C35390  10.420   6.265   0.409  0.4767  0.8272 -0.2885
  257MOL0     C35391  10.516   6.155   0.433 -0.8995 -0.0234 -0.1719
  257MOL0     C35392  10.647   6.207   0.435  0.3637  0.2868 -1.0547
  257MOL0     C35393  10.759   6.251   0.422  0.9475 -0.0847 -0.1411
  257MOL0     C35394  10.568   6.443   0.902  0.5482  0.0267 -0.3446
  257MOL0     C35395  10.614   6.472   1.034  0.0625 -0.2519  0.9121
  257MOL0     C35396  10.721   6.387   1.097  0.1959 -0.0923  0.0688
  257MOL0     H35397  10.656   6.319   1.479 -1.2156 -0.1165  0.3013
  257MOL0     H35398  10.698   6.315   1.709  0.4830 -1.4583 -3.2704
  257MOL0     H35399  10.587   6.650   1.928  0.9247  1.4888  0.3927
  257MOL0     H35400  10.756   6.692   1.962  0.0881 -0.3030  1.9081
  257MOL0     H35401  10.626   6.603   2.179  2.0752  1.0208  1.3075
  257MOL0     H35402  10.625   6.449   2.090  0.6655 -1.7571  2.4286
  257MOL0     H35403  10.878   6.466   2.101 -3.0214  0.3139 -2.0614
  257MOL0     H35404  10.868   6.604   2.209  0.8762 -0.6071  0.8005
  257MOL0     H35405  10.776   6.482   2.391  2.4257 -0.9783  1.2854
  257MOL0     H35406  10.714   6.368   2.271  0.7122 -1.2329  2.8734
  257MOL0     H35407  11.014   6.407   2.326 -0.9451  2.5021  0.8946
  257MOL0     H35408  10.937   6.276   2.242 -1.3720 -0.6577  1.2504
  257MOL0     H35409  11.026   6.256   2.469  0.3860  4.3246  0.1108
  257MOL0     H35410  10.878   6.323   2.527  0.6556 -0.8002  1.2900
  257MOL0     H35411  10.883   6.078   2.345 -0.5548 -2.7367  0.5665
  257MOL0     H35412  10.742   6.152   2.415  0.9927  1.0141  1.0305
  257MOL0     H35413  10.955   6.050   2.601  1.3741 -1.1869 -1.2613
  257MOL0     H35414  10.789   6.110   2.628  1.9510  4.3068 -0.8194
  257MOL0     H35415  10.616   5.909   2.627  2.3417  1.6953  1.6649
  257MOL0     H35416  10.583   5.582   2.635  1.9254 -0.0501  0.0849
  257MOL0     H35417  10.586   5.560   2.452 -1.6288  1.1366 -0.4339
  257MOL0     H35418  10.431   5.783   2.590 -1.0503  0.3114  0.4895
  257MOL0     H35419  10.410   5.738   2.420 -0.0307 -1.3045 -0.0644
  257MOL0     H35420  10.355   5.555   2.648 -3.0011 -3.6640 -1.4041
  257MOL0     H35421  10.234   5.667   2.598  0.9149  1.0526 -1.1853
  257MOL0     H35422  10.222   5.569   2.375  0.1885  2.2951  1.4642
  257MOL0     H35423  10.346   5.452   2.410  0.5637  0.7612  0.3858
  257MOL0     H35424  10.391   5.333   2.601  1.8898  0.8386  2.4563
  257MOL0     H35425  10.499   5.302   2.817  0.7544 -0.3476  0.7141
  257MOL0     H35426  10.509   5.162   2.721 -0.5100 -3.2024  0.5604
  257MOL0     H35427  10.460   5.153   2.903 -0.6337 -0.2283  0.2422
  257MOL0     H35428  10.376   4.885   3.006  1.1179 -0.1656  0.7589
  257MOL0     H35429  10.438   4.726   3.176  0.8345  0.4146  0.8341
  257MOL0     H35430  10.244   4.608   3.329 -2.3678  1.2071  2.2342
  257MOL0     H35431  10.425   4.571   3.346 -1.4065 -1.6277  1.5788
  257MOL0     H35432  10.213   4.563   3.564 -0.9829 -1.6079  0.5346
  257MOL0     H35433  10.306   4.420   3.512  1.7610  0.2257  1.3425
  257MOL0     H35434  10.396   4.504   3.727 -2.1216  0.4770  0.6822
  257MOL0     H35435  10.421   4.662   3.666 -3.3778 -0.4001  0.8614
  257MOL0     H35436  10.566   4.545   3.471 -1.4940 -3.3878 -1.7758
  257MOL0     H35437  10.562   4.400   3.567 -2.2110 -0.4476 -0.8926
  257MOL0     H35438  10.644   4.669   3.661 -2.5971  0.1089 -0.6556
  257MOL0     H35439  10.636   4.537   3.772  1.7520 -2.0498 -0.0535
  257MOL0     H35440  10.802   4.491   3.514 -1.1910  1.2253 -0.8496
  257MOL0     H35441  10.802   4.403   3.667 -1.9571 -1.1004 -1.9360
  257MOL0     H35442  10.892   4.581   3.783 -1.0083 -0.7496 -0.5427
  257MOL0     H35443  10.881   4.697   3.650  0.5800  0.4581  1.3897
  257MOL0     H35444  11.060   4.447   3.656  2.6399  1.3123  0.8070
  257MOL0     H35445  11.121   4.608   3.673  2.4891 -3.2158  1.4401
  257MOL0     H35446  10.274   4.986   3.488 -1.9730  2.7533 -1.7193
  257MOL0     H35447  10.244   5.158   3.303  0.6594  1.3941 -3.5091
  257MOL0     H35448   9.973   5.188   2.825 -1.6801  1.2151 -3.0550
  257MOL0     H35449   9.969   5.284   2.603  1.2310 -1.4369 -3.3308
  257MOL0     H35450  10.664   6.746   1.713 -0.6369 -0.7171  1.4569
  257MOL0     H35451  10.641   6.739   1.476  1.1108 -0.9068 -2.3059
  257MOL0     H35452  10.381   6.712   1.105  0.8230  0.6882 -0.1726
  257MOL0     H35453  10.327   6.661   0.861 -2.7947  0.4083  3.9423
  257MOL0     H35454  10.547   6.441   0.586 -0.5507  1.8065  0.2263
  257MOL0     H35455  10.519   6.297   0.685 -0.2454  0.8900  0.2325
  257MOL0     H35456  10.283   6.395   0.516 -0.7905 -0.6695 -1.1888
  257MOL0     H35457  10.312   6.237   0.597  0.0480 -0.3346  0.6885
  257MOL0     H35458  10.331   6.225   0.361 -1.9216  2.9783  2.0603
  257MOL0     H35459  10.458   6.342   0.342 -2.7380  1.2313 -1.8124
  257MOL0     H35460  10.501   6.080   0.355  1.2692 -1.9333  1.1289
  257MOL0     H35461  10.493   6.111   0.531  1.4886  0.4869  0.6803
  257MOL0     H35462  10.852   6.304   0.426  0.6108  0.6247 -1.2254
  257MOL0     H35463  10.623   6.365   0.851  1.5409 -1.0228  2.1760
  257MOL0     H35464  10.676   6.301   1.148  2.1295 -1.8002 -0.9646
  257MOL0     H35465  10.784   6.354   1.014  0.9604  2.6179 -0.5284
  257MOL0     H35466  10.793   6.438   1.161  1.2199 -2.3085  0.7957
  258MOL0     O35467   6.573   5.386   6.193 -0.1508 -0.1624  0.1562
  258MOL0     C35468   6.651   5.354   6.102 -0.6704  0.0787  0.0509
  258MOL0     O35469   6.698   5.435   5.998 -0.4063 -0.3413 -0.0970
  258MOL0     C35470   6.645   5.557   5.970 -0.8463  0.1331 -0.1208
  258MOL0     C35471   6.581   5.566   5.850  0.1698  1.1264  0.1998
  258MOL0     C35472   6.529   5.689   5.806  0.2289  0.4805  0.0615
  258MOL0     C35473   6.503   5.788   5.899  0.0241  0.4061  0.2514
  258MOL0     O35474   6.433   5.902   5.880  0.0157  0.1905 -0.1426
  258MOL0     C35475   6.301   5.887   5.839  0.4311  0.6911  0.5173
  258MOL0     C35476   6.238   6.019   5.773 -0.0357  0.1107  0.1737
  258MOL0     C35477   6.321   6.059   5.646  0.3090  0.4258 -0.1070
  258MOL0     C35478   6.244   6.178   5.563  0.5230 -0.2277 -0.4143
  258MOL0     C35479   6.341   6.224   5.459  0.3607  0.3937 -0.8196
  258MOL0     C35480   6.264   6.328   5.377  0.0538 -0.2521  0.9013
  258MOL0     C35481   6.359   6.426   5.301 -0.1817 -0.8891 -0.2811
  258MOL0     C35482   6.281   6.557   5.267  0.1260  1.1053 -0.1824
  258MOL0     N35483   6.368   6.660   5.203 -0.5385 -0.6817  0.4828
  258MOL0     C35484   6.493   6.646   5.157 -0.6215  0.3856  0.1631
  258MOL0     C35485   6.544   6.768   5.168  0.4832  0.4737 -0.0422
  258MOL0     C35486   6.683   6.806   5.122  0.0117  0.7651  0.1306
  258MOL0     C35487   6.702   6.939   5.032 -0.0966 -0.6687  0.6686
  258MOL0     C35488   6.637   7.067   5.084 -0.1469  0.6742 -1.3537
  258MOL0     C35489   6.656   7.086   5.228 -0.5737 -0.1471  0.3944
  258MOL0     O35490   6.786   7.136   5.253 -0.1684  0.0545  0.3654
  258MOL0     C35491   6.812   7.195   5.374 -1.4015 -0.0271 -0.3387
  258MOL0     C35492   6.950   7.244   5.392  0.3723  0.1091  0.3240
  258MOL0     C35493   6.978   7.320   5.501 -0.3793 -0.1580  0.8015
  258MOL0     C35494   7.128   7.361   5.513  0.0131 -0.5797  0.2229
  258MOL0     C35495   6.881   7.352   5.592  0.0708 -0.6118 -0.7252
  258MOL0     C35496   6.907   7.423   5.720 -0.0075 -1.0056  0.8887
  258MOL0     O35497   6.805   7.436   5.807  0.7626 -0.4654 -0.1701
  258MOL0     C35498   6.816   7.496   5.934  0.5475 -0.1991  0.1871
  258MOL0     C35499   6.833   7.420   6.048  0.4088  0.7684  0.0232
  258MOL0     C35500   6.812   7.478   6.170  0.1734  0.4796  0.1822
  258MOL0     C35501   6.783   7.621   6.184  0.1889  0.7568 -0.4262
  258MOL0     O35502   6.774   7.681   6.302  0.6262 -0.5578 -0.3405
  258MOL0     C35503   6.805   7.816   6.318  0.2915 -0.5170  0.3071
  258MOL0     C35504   6.780   7.867   6.460 -0.4986  1.0729  0.1068
  258MOL0     C35505   6.824   7.779   6.579  0.0616 -0.7542 -0.6509
  258MOL0     C35506   6.964   7.829   6.615  1.2033 -0.0658  0.4704
  258MOL0     C35507   6.969   7.963   6.705 -0.0145  0.0308 -0.0368
  258MOL0     C35508   7.110   7.999   6.751 -0.0079 -0.3674  0.2753
  258MOL0     C35509   7.218   7.998   6.638 -0.3865  0.3479  0.0968
  258MOL0     C35510   7.324   8.103   6.670 -0.0781 -0.5969 -0.5938
  258MOL0    Cl35511   7.358   8.125   6.845 -0.3163  0.5124 -0.1345
  258MOL0     C35512   6.751   7.696   6.065  0.6075 -0.5106 -0.1636
  258MOL0     C35513   6.767   7.634   5.942  0.0193 -0.1228  0.0331
  258MOL0     O35514   7.019   7.452   5.751  0.2149 -0.1731  0.7518
  258MOL0     C35515   6.748   7.295   5.583  0.1303 -0.6123  0.2287
  258MOL0     C35516   6.715   7.214   5.470  0.7263 -0.7179 -0.3873
  258MOL0     N35517   6.447   6.849   5.224 -1.1594  0.1900 -0.5367
  258MOL0     N35518   6.334   6.788   5.247 -0.1061  0.8671  0.2762
  258MOL0     C35519   6.572   5.779   6.017 -0.8462  0.2016  0.2510
  258MOL0     C35520   6.647   5.671   6.063  0.3745  0.1467  0.8724
  258MOL0     C35521   6.693   5.211   6.115  0.4567  0.4826 -0.5204
  258MOL0     C35522   6.670   5.142   6.233 -0.0062  0.5708 -0.5983
  258MOL0     C35523   6.715   5.018   6.242 -0.4048  0.3297  0.9050
  258MOL0     C35524   6.780   4.939   6.142  0.2283 -0.4238  1.0477
  258MOL0     O35525   6.829   4.815   6.165  0.5737  0.6053 -0.3149
  258MOL0     C35526   6.753   4.744   6.269  0.4859 -0.4835 -0.2786
  258MOL0     C35527   6.801   4.600   6.268  0.4001 -0.0371  0.4886
  258MOL0     C35528   6.955   4.578   6.265  0.3879 -0.9947  0.6269
  258MOL0     C35529   6.992   4.437   6.318  0.4432 -0.4794  0.3320
  258MOL0     C35530   7.136   4.419   6.310 -0.2957 -0.8141  0.5246
  258MOL0     C35531   7.252   4.389   6.317 -0.1388  0.0460 -0.2470
  258MOL0     C35532   6.785   5.000   6.013 -0.3315 -0.3723 -0.1706
  258MOL0     C35533   6.741   5.134   6.005 -0.2547 -0.4971  0.7615
  258MOL0     C35534   6.734   5.187   5.859  0.3617 -0.1298  0.0827
  258MOL0     H35535   6.566   5.482   5.784 -2.6401 -0.1101  2.2246
  258MOL0     H35536   6.471   5.684   5.714 -0.7863 -2.3759  0.7407
  258MOL0     H35537   6.255   5.869   5.937  2.0893  1.3573  1.4683
  258MOL0     H35538   6.285   5.800   5.776  0.5456 -1.0104  2.6969
  258MOL0     H35539   6.141   5.998   5.727  2.0440 -4.8271 -2.7573
  258MOL0     H35540   6.220   6.105   5.838  0.0734 -0.9024  1.5936
  258MOL0     H35541   6.421   6.088   5.678  1.5754 -4.1666  0.8336
  258MOL0     H35542   6.325   5.973   5.579 -0.1962  0.6335 -0.4177
  258MOL0     H35543   6.144   6.150   5.531  0.2616  0.3158 -0.1027
  258MOL0     H35544   6.224   6.255   5.639  0.1471 -1.8389  1.1783
  258MOL0     H35545   6.378   6.141   5.397  2.4466  0.4195  0.3248
  258MOL0     H35546   6.423   6.260   5.521 -0.0777  0.1665 -0.0888
  258MOL0     H35547   6.193   6.291   5.303  1.1918  3.2526 -2.2349
  258MOL0     H35548   6.202   6.387   5.446 -1.3487  0.3385 -0.7776
  258MOL0     H35549   6.392   6.376   5.209 -1.9554 -1.5159 -0.6090
  258MOL0     H35550   6.446   6.451   5.363  1.4974 -0.4557 -2.6432
  258MOL0     H35551   6.199   6.524   5.203 -1.5677 -1.1638  2.8849
  258MOL0     H35552   6.230   6.590   5.359  0.1846 -0.1188  0.3078
  258MOL0     H35553   6.544   6.559   5.117  0.2071  0.3608  1.2239
  258MOL0     H35554   6.720   6.717   5.071  0.2359 -1.0161  3.1613
  258MOL0     H35555   6.739   6.824   5.214  0.4036  1.0476 -0.1579
  258MOL0     H35556   6.809   6.954   5.013 -0.4808 -1.1532 -2.4279
  258MOL0     H35557   6.659   6.913   4.935 -0.7467 -3.7062  1.6471
  258MOL0     H35558   6.684   7.147   5.025  1.2134  1.0093  0.1308
  258MOL0     H35559   6.530   7.057   5.060 -1.0733  1.4099  1.9780
  258MOL0     H35560   6.585   7.167   5.249 -0.5935 -0.0386 -0.0781
  258MOL0     H35561   6.632   6.997   5.287 -3.4242  0.7820  0.8240
  258MOL0     H35562   7.017   7.228   5.308 -0.8135 -1.8303 -0.3115
  258MOL0     H35563   7.180   7.354   5.417 -3.0365 -0.6837 -1.5651
  258MOL0     H35564   7.177   7.299   5.588  0.3518 -1.8249 -0.9947
  258MOL0     H35565   7.139   7.464   5.549  2.5038  0.1950 -2.3987
  258MOL0     H35566   6.870   7.320   6.026 -0.9297 -0.1109  1.6113
  258MOL0     H35567   6.826   7.419   6.260  3.1605  2.0099  0.8232
  258MOL0     H35568   6.912   7.822   6.296  0.9397  0.4120  3.2886
  258MOL0     H35569   6.743   7.881   6.256  0.3937  1.0659  1.8057
  258MOL0     H35570   6.836   7.961   6.459 -2.8879  2.5951 -1.5234
  258MOL0     H35571   6.675   7.891   6.481 -0.5986 -0.0342  0.9904
  258MOL0     H35572   6.819   7.675   6.546  0.7570 -0.5013 -1.5792
  258MOL0     H35573   6.762   7.791   6.669 -0.8493 -1.6104 -1.1457
  258MOL0     H35574   7.010   7.847   6.518  0.6835 -1.3541 -0.0381
  258MOL0     H35575   7.020   7.748   6.662  0.0919 -4.5814 -4.9098
  258MOL0     H35576   6.937   8.059   6.662 -0.2125  0.2665  0.6199
  258MOL0     H35577   6.904   7.938   6.789  0.8891  1.5574  1.1622
  258MOL0     H35578   7.134   7.934   6.836  1.3316  0.8804  0.9002
  258MOL0     H35579   7.088   8.097   6.794 -1.7826 -0.6674  0.1301
  258MOL0     H35580   7.162   8.016   6.546 -3.0233 -2.9607  0.8362
  258MOL0     H35581   7.264   7.899   6.642 -4.0024 -1.4963  0.5977
  258MOL0     H35582   7.292   8.198   6.628 -0.5950  1.4384  3.8928
  258MOL0     H35583   7.410   8.072   6.610 -2.5021 -1.6194 -3.8226
  258MOL0     H35584   6.726   7.802   6.073  0.5717 -0.5257 -0.0702
  258MOL0     H35585   6.755   7.680   5.845  2.9086  3.3515  1.1199
  258MOL0     H35586   6.675   7.296   5.663  0.0464 -0.2270  0.1504
  258MOL0     H35587   6.625   7.154   5.471  1.9401 -2.6288  1.4214
  258MOL0     H35588   6.565   5.868   6.079  2.5950  0.4723  0.4108
  258MOL0     H35589   6.703   5.658   6.155  2.7256 -1.6930 -0.6938
  258MOL0     H35590   6.633   5.185   6.325 -0.3753  1.0734 -0.9735
  258MOL0     H35591   6.689   4.974   6.338  1.4428  1.2769  1.9032
  258MOL0     H35592   6.766   4.791   6.367  0.1032 -0.6629 -0.1409
  258MOL0     H35593   6.645   4.736   6.256 -0.2219 -1.0857  4.3507
  258MOL0     H35594   6.758   4.555   6.179 -0.4904  2.2887 -0.3361
  258MOL0     H35595   6.774   4.544   6.358  0.6604 -1.9768 -0.5749
  258MOL0     H35596   6.991   4.601   6.164 -0.1635  0.0298  0.6475
  258MOL0     H35597   6.993   4.654   6.335 -1.0964 -0.2990  0.7060
  258MOL0     H35598   6.935   4.358   6.268  3.5285 -2.1010 -0.8700
  258MOL0     H35599   6.975   4.433   6.426  2.7620 -0.1078  0.7499
  258MOL0     H35600   7.359   4.392   6.328 -0.3619 -0.6144  3.2926
  258MOL0     H35601   6.805   4.947   5.920 -2.9742 -0.1123 -0.9682
  258MOL0     H35602   6.812   5.263   5.848 -2.2831  2.3854 -3.7921
  258MOL0     H35603   6.740   5.111   5.782 -3.4042  0.0548 -0.5971
  258MOL0     H35604   6.636   5.233   5.844  0.4014 -0.7617 -2.4937
  259MOL0     O35605   4.850   9.843   8.702 -0.2695 -0.9773 -0.5664
  259MOL0     C35606   4.955   9.854   8.635  0.1425 -0.8611 -0.2027
  259MOL0     O35607   5.072   9.899   8.684  0.2428 -0.6996 -0.1094
  259MOL0     C35608   5.072   9.952   8.808  0.6292 -0.2980 -0.4236
  259MOL0     C35609   4.990  10.061   8.856 -0.5430 -0.3850  0.5788
  259MOL0     C35610   5.025  10.118   8.978  0.3435  0.4798  0.2141
  259MOL0     C35611   5.134  10.070   9.052 -0.1500  0.9067  0.3444
  259MOL0     O35612   5.153  10.112   9.178  0.3224 -0.7343 -1.3131
  259MOL0     C35613   5.082  10.046   9.287 -0.6561  0.1133  0.3837
  259MOL0     C35614   5.180  10.002   9.399 -0.2068  0.0525  0.5320
  259MOL0     C35615   5.313   9.941   9.349  0.4230  0.1794 -0.6608
  259MOL0     C35616   5.424   9.951   9.453  0.1676  0.0185  0.0034
  259MOL0     C35617   5.395   9.870   9.592  0.0772  0.6529  0.7208
  259MOL0     C35618   5.516   9.781   9.616 -0.3177  0.0088 -0.5272
  259MOL0     C35619   5.500   9.725   9.749 -0.3193  0.0754 -0.6118
  259MOL0     C35620   5.620   9.642   9.795 -0.6956 -0.9623 -0.1030
  259MOL0     N35621   5.628   9.507   9.737 -0.6171  0.4698  0.7564
  259MOL0     C35622   5.687   9.464   9.624  0.0751 -1.3759 -0.0607
  259MOL0     C35623   5.690   9.332   9.616 -0.7575 -0.1876 -0.5893
  259MOL0     C35624   5.770   9.244   9.526 -0.0012 -0.1119 -0.0257
  259MOL0     C35625   5.889   9.178   9.607  0.0782  0.5485 -0.2528
  259MOL0     C35626   5.993   9.132   9.499 -0.4012  0.1164 -0.9278
  259MOL0     C35627   5.956   9.005   9.436 -0.1346  0.1346  1.1219
  259MOL0     O35628   5.947   8.901   9.537 -0.6459 -0.3252  0.8698
  259MOL0     C35629   5.907   8.781   9.504 -0.3060  0.0837  1.0591
  259MOL0     C35630   5.892   8.696   9.611  0.3683 -0.0060  0.0620
  259MOL0     C35631   5.873   8.556   9.595 -0.5030  0.1165  0.5895
  259MOL0     C35632   5.863   8.477   9.733 -0.8225 -0.1641  0.6687
  259MOL0     C35633   5.838   8.509   9.462 -0.0022 -1.0432  1.3660
  259MOL0     C35634   5.780   8.378   9.429  0.2315  0.7044  0.6957
  259MOL0     O35635   5.688   8.321   9.513  0.6693  0.3672 -0.9160
  259MOL0     C35636   5.681   8.179   9.505  0.2881 -0.1008 -0.9891
  259MOL0     C35637   5.747   8.083   9.588  0.2045 -0.4806 -0.8062
  259MOL0     C35638   5.734   7.949   9.569 -0.5203  0.5038 -0.4230
  259MOL0     C35639   5.664   7.899   9.462 -0.5394 -0.1433 -0.5963
  259MOL0     O35640   5.650   7.770   9.428  1.1622 -0.5254 -0.0072
  259MOL0     C35641   5.623   7.682   9.537  0.4799 -0.9555 -0.1011
  259MOL0     C35642   5.743   7.586   9.533  0.0552 -0.9483  0.5871
  259MOL0     C35643   5.716   7.460   9.605 -0.3850 -0.9654  0.4835
  259MOL0     C35644   5.849   7.385   9.614  0.4388 -0.5562  0.0425
  259MOL0     C35645   5.805   7.248   9.661 -0.0226  0.5877 -0.6144
  259MOL0     C35646   5.927   7.163   9.709  0.1828  0.1815  0.7929
  259MOL0     C35647   5.889   7.040   9.776  0.8010 -0.1811  0.6509
  259MOL0     C35648   5.853   6.932   9.675  0.2143  0.2833 -0.6062
  259MOL0    Cl35649   5.867   6.777   9.754  0.3157  0.1942 -0.6348
  259MOL0     C35650   5.601   7.991   9.378  0.7139  0.7615  0.3367
  259MOL0     C35651   5.607   8.129   9.400  0.3727  0.2578 -0.0906
  259MOL0     O35652   5.825   8.326   9.325  0.5524 -0.3993  0.2617
  259MOL0     C35653   5.856   8.605   9.354 -0.5205  0.0296  0.6514
  259MOL0     C35654   5.889   8.736   9.381  0.0890  0.3773  0.5184
  259MOL0     N35655   5.615   9.288   9.722 -0.8127  0.2755 -1.2659
  259MOL0     N35656   5.582   9.391   9.790  0.4121 -0.1679 -0.7151
  259MOL0     C35657   5.207   9.967   9.005 -0.2818  0.4400  0.6513
  259MOL0     C35658   5.184   9.911   8.878  0.0236 -0.2233  0.1808
  259MOL0     C35659   4.957   9.798   8.498 -0.4561  0.3593  0.2701
  259MOL0     C35660   5.084   9.793   8.436 -0.3436 -0.2097 -0.1330
  259MOL0     C35661   5.103   9.748   8.301 -0.1880  0.3941 -0.8532
  259MOL0     C35662   4.995   9.696   8.231  0.5910  0.0599 -0.3007
  259MOL0     O35663   5.011   9.643   8.105  0.7059 -0.0680  0.2769
  259MOL0     C35664   4.913   9.566   8.037  0.1906 -0.7866  0.5094
  259MOL0     C35665   4.978   9.533   7.898  0.5755 -0.1122 -0.6732
  259MOL0     C35666   5.112   9.460   7.902 -0.0887 -0.0099 -0.9298
  259MOL0     C35667   5.133   9.315   7.954 -0.6607 -0.2761  0.3978
  259MOL0     C35668   5.018   9.231   7.929 -0.0601  0.1660  0.9448
  259MOL0     C35669   4.915   9.166   7.938  0.7553  0.0770 -1.1912
  259MOL0     C35670   4.868   9.695   8.293  0.3370 -0.6155 -0.7622
  259MOL0     C35671   4.844   9.749   8.427 -0.4351  0.6031  0.3888
  259MOL0     C35672   4.698   9.771   8.467 -0.0791 -0.2302  0.1318
  259MOL0     H35673   4.921  10.106   8.785  0.0601  1.5447  1.1509
  259MOL0     H35674   4.965  10.203   9.006  1.6341  1.7004 -0.5983
  259MOL0     H35675   5.041   9.955   9.240  3.2316 -1.8515  0.3524
  259MOL0     H35676   5.007  10.109   9.334  0.3631 -2.3132  6.1280
  259MOL0     H35677   5.203  10.094   9.454 -2.0050  0.8180  0.0566
  259MOL0     H35678   5.142   9.923   9.465  1.7605  0.0454  1.7357
  259MOL0     H35679   5.307   9.832   9.336 -1.2314  0.2620 -0.8904
  259MOL0     H35680   5.349   9.990   9.258 -2.6548  0.2796 -1.9826
  259MOL0     H35681   5.512   9.899   9.412  0.7688  0.6405  0.4719
  259MOL0     H35682   5.447  10.057   9.467 -3.0810  0.5227  2.7480
  259MOL0     H35683   5.310   9.801   9.585  0.2279  0.6408 -1.9309
  259MOL0     H35684   5.378   9.937   9.676  1.3988  0.5603  1.0879
  259MOL0     H35685   5.539   9.704   9.543 -0.0662  0.5245 -1.0030
  259MOL0     H35686   5.605   9.846   9.623  0.1432 -0.7258  0.7457
  259MOL0     H35687   5.408   9.667   9.741 -1.4100  1.6693 -0.2471
  259MOL0     H35688   5.484   9.804   9.824  0.1163  1.0663 -1.5392
  259MOL0     H35689   5.710   9.702   9.775 -1.9695  1.3202  0.6624
  259MOL0     H35690   5.619   9.640   9.904 -1.0711  2.2181  0.0599
  259MOL0     H35691   5.729   9.528   9.547  0.6136 -1.0091  0.5196
  259MOL0     H35692   5.801   9.309   9.444 -1.1597  1.9513  1.0734
  259MOL0     H35693   5.712   9.159   9.491 -0.1090 -0.8469  1.8045
  259MOL0     H35694   5.949   9.250   9.663  0.4747 -2.0406  2.9549
  259MOL0     H35695   5.859   9.098   9.676  1.2415  0.1185 -0.2329
  259MOL0     H35696   6.005   9.217   9.431 -0.2324  1.2396  0.4571
  259MOL0     H35697   6.094   9.116   9.537 -0.9943 -0.8186  0.3129
  259MOL0     H35698   5.864   9.032   9.382 -0.7292  0.4819  2.2723
  259MOL0     H35699   6.031   8.982   9.360 -2.3555  1.0760 -1.5441
  259MOL0     H35700   5.896   8.745   9.708 -1.9912  1.8030 -0.6671
  259MOL0     H35701   5.850   8.370   9.714  0.3231 -0.2634  0.3142
  259MOL0     H35702   5.779   8.519   9.789 -1.0336 -0.0671  0.2836
  259MOL0     H35703   5.959   8.487   9.785  1.3416 -0.5508 -2.8664
  259MOL0     H35704   5.817   8.123   9.661 -1.8516 -0.8996  1.5393
  259MOL0     H35705   5.789   7.876   9.628  2.1005  0.0139 -3.2252
  259MOL0     H35706   5.596   7.731   9.631 -0.7599 -0.4117 -0.7299
  259MOL0     H35707   5.531   7.626   9.516 -1.6096  2.3300 -0.4288
  259MOL0     H35708   5.770   7.573   9.428 -0.1719  0.4655  0.3224
  259MOL0     H35709   5.828   7.629   9.587  2.9441 -3.7872 -1.3313
  259MOL0     H35710   5.636   7.400   9.563  0.8287 -1.3539 -1.4125
  259MOL0     H35711   5.684   7.492   9.705 -2.5318  4.4275 -1.5580
  259MOL0     H35712   5.910   7.430   9.693  2.1282 -3.0251  0.2599
  259MOL0     H35713   5.917   7.386   9.529  0.6592  0.2166  0.2151
  259MOL0     H35714   5.741   7.258   9.749 -0.2343  3.0704 -0.9584
  259MOL0     H35715   5.749   7.191   9.586 -0.4197  1.8809 -1.3399
  259MOL0     H35716   6.003   7.225   9.759 -0.5003  0.2726  1.7431
  259MOL0     H35717   5.972   7.146   9.611 -0.4267 -0.3048  0.5912
  259MOL0     H35718   5.801   7.063   9.837 -1.0652  1.2790 -2.3685
  259MOL0     H35719   5.974   7.015   9.840  0.3241  1.0960  1.8385
  259MOL0     H35720   5.920   6.938   9.589  0.7234 -0.1118 -0.2462
  259MOL0     H35721   5.752   6.949   9.637  0.4317  0.1683 -1.2344
  259MOL0     H35722   5.550   7.940   9.296  1.9992 -3.3959  1.8652
  259MOL0     H35723   5.558   8.195   9.328  0.3356  0.0010 -0.3001
  259MOL0     H35724   5.836   8.577   9.251  0.9186  1.6865 -0.1544
  259MOL0     H35725   5.908   8.791   9.289  0.3904  0.1772  0.4596
  259MOL0     H35726   5.285   9.935   9.074  0.1409  3.1063  1.5527
  259MOL0     H35727   5.246   9.833   8.837 -0.7802 -0.3652 -0.8173
  259MOL0     H35728   5.157   9.845   8.497 -0.8763  1.9544 -1.2467
  259MOL0     H35729   5.197   9.744   8.246  0.2479  1.7066 -0.2408
  259MOL0     H35730   4.894   9.482   8.104  2.1118  0.8161  3.2702
  259MOL0     H35731   4.817   9.618   8.030  0.7930  0.1536 -1.1270
  259MOL0     H35732   4.982   9.624   7.838 -1.8850  0.3453 -0.2480
  259MOL0     H35733   4.908   9.472   7.841  0.2165 -0.7924  0.4671
  259MOL0     H35734   5.144   9.459   7.797  0.8995  0.7259 -0.6525
  259MOL0     H35735   5.180   9.523   7.961 -0.3301  0.4018 -1.0871
  259MOL0     H35736   5.146   9.305   8.062  2.0672  1.6316  0.3408
  259MOL0     H35737   5.226   9.278   7.910 -0.0526 -1.8887  2.8182
  259MOL0     H35738   4.827   9.105   7.940  0.0776  0.9895  1.8742
  259MOL0     H35739   4.785   9.649   8.241 -1.1245  2.1399 -1.0962
  259MOL0     H35740   4.627   9.733   8.393  1.2858 -0.5340 -1.0736
  259MOL0     H35741   4.680   9.725   8.564  0.1774 -2.6633 -0.9133
  259MOL0     H35742   4.663   9.874   8.480 -2.0058 -0.7282 -0.7281
  260MOL0     O35743   9.467  11.138   8.774 -0.9117  0.4553  0.9410
  260MOL0     C35744   9.406  11.241   8.744  0.4091  0.0073 -0.8122
  260MOL0     O35745   9.261  11.250   8.753  0.1739  1.0051  0.0490
  260MOL0     C35746   9.198  11.133   8.767  0.4887 -0.1750 -0.0311
  260MOL0     C35747   9.199  11.036   8.667  0.6610 -1.0056  0.3668
  260MOL0     C35748   9.124  10.918   8.687 -0.1629 -0.2333 -0.0763
  260MOL0     C35749   9.056  10.885   8.808  0.7754 -0.1987 -0.1510
  260MOL0     O35750   9.007  10.759   8.822  0.1897  0.3258 -0.3114
  260MOL0     C35751   9.005  10.691   8.954  0.3257 -0.3850  0.0003
  260MOL0     C35752   9.133  10.658   9.022  0.6220 -0.1233  1.0799
  260MOL0     C35753   9.120  10.581   9.159  0.4792 -0.4984 -0.3769
  260MOL0     C35754   9.214  10.472   9.150  0.6129 -0.1017  0.5340
  260MOL0     C35755   9.184  10.383   9.270  0.6840 -0.6561  0.7444
  260MOL0     C35756   9.252  10.458   9.389 -0.3796  0.9354 -0.4418
  260MOL0     C35757   9.247  10.382   9.526 -0.7846 -0.1767  0.6147
  260MOL0     C35758   9.110  10.364   9.595 -0.3807 -0.0831 -0.2765
  260MOL0     N35759   9.122  10.252   9.689  0.0083 -0.4823 -0.0537
  260MOL0     C35760   9.157  10.260   9.818 -1.5473 -0.4664 -0.8802
  260MOL0     C35761   9.171  10.132   9.858  0.1706 -0.1884 -0.3452
  260MOL0     C35762   9.225  10.106   9.998  0.1384 -0.3543  1.0343
  260MOL0     C35763   9.123  10.093  10.100  0.3439 -1.0971 -0.1216
  260MOL0     C35764   9.022   9.977  10.085  0.0954  0.1103 -0.5052
  260MOL0     C35765   8.951   9.957  10.217  0.4621 -0.3047 -0.4924
  260MOL0     O35766   8.899  10.074  10.270  0.2316 -0.4143 -0.4374
  260MOL0     C35767   8.826  10.068  10.391  0.3295 -0.0553  0.1892
  260MOL0     C35768   8.765  10.192  10.425 -0.1670  0.2633  0.1940
  260MOL0     C35769   8.677  10.214  10.534 -0.0470 -0.3339  0.6288
  260MOL0     C35770   8.623  10.352  10.557  0.9104 -0.3055 -0.5482
  260MOL0     C35771   8.660  10.096  10.607 -0.4997  0.8385 -1.2434
  260MOL0     C35772   8.558  10.103  10.720 -0.3322  0.5411  0.1201
  260MOL0     O35773   8.517   9.985  10.764 -0.7172  0.9959  0.7630
  260MOL0     C35774   8.466   9.958  10.887  0.4954 -0.1870  0.4056
  260MOL0     C35775   8.328   9.982  10.907 -0.4941 -0.1031 -0.2791
  260MOL0     C35776   8.275   9.960  11.038 -1.2402 -0.3488  0.0475
  260MOL0     C35777   8.358   9.926  11.143  0.2797  0.2164 -0.4075
  260MOL0     O35778   8.309   9.923  11.270  1.4947 -0.6257 -0.4412
  260MOL0     C35779   8.373   9.850  11.375 -0.4548  0.6178 -0.1019
  260MOL0     C35780   8.258   9.797  11.467 -0.0140  0.3580  0.5773
  260MOL0     C35781   8.200   9.903  11.560 -0.0211 -0.5046  0.9715
  260MOL0     C35782   8.125   9.837  11.672  0.8532  0.0490 -0.8553
  260MOL0     C35783   8.058   9.930  11.777 -0.3182  0.2592  0.0116
  260MOL0     C35784   8.000   9.838  11.894  0.2376  0.4535  0.3644
  260MOL0     C35785   7.946   9.910  12.014 -0.0485 -0.4124  0.0483
  260MOL0     C35786   7.864   9.828  12.106 -0.0241  0.1039  0.4112
  260MOL0    Cl35787   7.795   9.929  12.244  0.2503  0.3194 -0.0985
  260MOL0     C35788   8.497   9.895  11.117 -0.2136  0.0200  1.0645
  260MOL0     C35789   8.548   9.900  10.984  0.0451 -0.8373 -0.2567
  260MOL0     O35790   8.530  10.210  10.777 -0.5404 -0.9241 -0.6975
  260MOL0     C35791   8.707   9.965  10.574 -0.1123 -1.0200 -0.4304
  260MOL0     C35792   8.806   9.955  10.471 -0.4535 -0.1412  0.2086
  260MOL0     N35793   9.117  10.052   9.761  0.0456 -0.0640  0.3061
  260MOL0     N35794   9.100  10.124   9.654  0.2102 -0.5904 -0.7395
  260MOL0     C35795   9.052  10.991   8.898 -0.1526 -0.7506 -0.1999
  260MOL0     C35796   9.111  11.111   8.883 -0.3571 -0.3243 -0.2498
  260MOL0     C35797   9.473  11.362   8.702  0.5994  0.6116  1.0075
  260MOL0     C35798   9.395  11.461   8.644  0.7159  0.0874 -0.4565
  260MOL0     C35799   9.443  11.586   8.595  0.1762  1.2329 -0.0234
  260MOL0     C35800   9.580  11.609   8.608  0.7882  0.5830  0.3534
  260MOL0     O35801   9.620  11.740   8.576  0.0991  1.1725  0.0547
  260MOL0     C35802   9.751  11.758   8.506  0.0961  0.6590  0.1703
  260MOL0     C35803   9.724  11.875   8.414 -0.5714 -0.6716  0.0638
  260MOL0     C35804   9.740  12.009   8.499 -0.1594 -1.1391  0.3894
  260MOL0     C35805   9.704  12.128   8.396 -0.6994 -0.2426  0.5271
  260MOL0     C35806   9.727  12.254   8.466 -0.1762  0.1281 -0.4622
  260MOL0     C35807   9.743  12.349   8.541 -0.1438  0.9555 -0.7010
  260MOL0     C35808   9.668  11.503   8.651  0.5141 -0.2333  0.7174
  260MOL0     C35809   9.615  11.387   8.708  0.6269 -0.8139  0.3989
  260MOL0     C35810   9.714  11.285   8.764 -0.2570  0.5178  0.0127
  260MOL0     H35811   9.275  11.048   8.590 -0.7159 -2.4297 -1.2936
  260MOL0     H35812   9.134  10.840   8.612  3.3673 -0.4581  0.4397
  260MOL0     H35813   8.939  10.604   8.944 -0.2503 -0.1939  1.8141
  260MOL0     H35814   8.956  10.773   9.007  5.2606  2.4475  0.7906
  260MOL0     H35815   9.175  10.591   8.946 -3.6538 -0.8900 -0.8774
  260MOL0     H35816   9.195  10.745   9.045 -0.1238  0.5370  0.6519
  260MOL0     H35817   9.136  10.646   9.245 -2.5660 -0.5847  0.3904
  260MOL0     H35818   9.015  10.552   9.171  0.8146 -1.9755 -0.8265
  260MOL0     H35819   9.206  10.405   9.064 -0.8651  1.8834 -0.9631
  260MOL0     H35820   9.319  10.502   9.142  1.0583 -0.8710  2.8682
  260MOL0     H35821   9.231  10.285   9.257  1.3102 -0.2954  0.2055
  260MOL0     H35822   9.077  10.390   9.289  0.6862  1.8441  0.1100
  260MOL0     H35823   9.355  10.481   9.362  0.2697 -2.4459 -1.3146
  260MOL0     H35824   9.199  10.550   9.414  0.3470  0.8002  1.7873
  260MOL0     H35825   9.301  10.439   9.602  0.4285 -3.5366  2.4857
  260MOL0     H35826   9.289  10.283   9.508 -0.4578 -0.3196  2.0906
  260MOL0     H35827   9.075  10.463   9.625 -1.2812  0.4921 -2.9297
  260MOL0     H35828   9.038  10.329   9.520  0.0644 -0.8589 -0.3600
  260MOL0     H35829   9.191  10.348   9.872  0.3674 -2.6321  1.7176
  260MOL0     H35830   9.314  10.167  10.019  0.0721  0.8373 -1.6653
  260MOL0     H35831   9.275  10.013   9.970 -1.0782 -0.4208 -1.2388
  260MOL0     H35832   9.163  10.093  10.201  0.3631  4.3780  0.1818
  260MOL0     H35833   9.063  10.185  10.100  0.6103 -0.9240  0.2210
  260MOL0     H35834   8.938   9.996  10.017 -0.3775 -1.2381 -0.3476
  260MOL0     H35835   9.079   9.887  10.060  3.7220  2.1864 -0.3771
  260MOL0     H35836   8.868   9.886  10.211 -3.3227  3.6732  0.0779
  260MOL0     H35837   9.027   9.917  10.285 -1.1450 -1.6080  0.6255
  260MOL0     H35838   8.777  10.273  10.354 -5.7957  1.2183 -0.1026
  260MOL0     H35839   8.661  10.378  10.656  0.6114 -2.1867  0.1033
  260MOL0     H35840   8.515  10.339  10.572  0.5946  0.2337 -2.1485
  260MOL0     H35841   8.639  10.431  10.483 -2.9777  0.8031 -0.4093
  260MOL0     H35842   8.256   9.997  10.827 -0.5117 -1.7232 -0.6155
  260MOL0     H35843   8.171   9.983  11.059 -1.7774 -1.3752 -1.2810
  260MOL0     H35844   8.422   9.762  11.333 -1.2339 -0.5857  1.4013
  260MOL0     H35845   8.447   9.913  11.425 -0.9616  0.1601  1.2795
  260MOL0     H35846   8.185   9.746  11.402 -1.0761  2.7696 -0.2697
  260MOL0     H35847   8.305   9.728  11.536 -0.7947  0.6345  1.4059
  260MOL0     H35848   8.133   9.969  11.505 -0.0279 -1.6230 -0.4372
  260MOL0     H35849   8.284   9.967  11.588 -1.1325  0.3779  2.3709
  260MOL0     H35850   8.186   9.778  11.740  0.5275 -0.0214 -0.6243
  260MOL0     H35851   8.045   9.769  11.641  2.2136 -1.4958 -1.1086
  260MOL0     H35852   8.133   9.993  11.827 -0.8488  0.7880  0.1587
  260MOL0     H35853   7.987   9.996  11.727 -1.2606 -0.0044  0.9665
  260MOL0     H35854   8.065   9.752  11.912  0.9897  0.2632 -2.6903
  260MOL0     H35855   7.915   9.789  11.845 -0.5317  2.9592 -0.9957
  260MOL0     H35856   7.878   9.990  11.982 -0.8428 -0.6601  1.0696
  260MOL0     H35857   8.031   9.947  12.073 -0.5401 -1.2960  1.3465
  260MOL0     H35858   7.927   9.747  12.145 -0.2054 -0.0764  0.3321
  260MOL0     H35859   7.780   9.788  12.047  0.5015  0.0991 -0.3471
  260MOL0     H35860   8.562   9.883  11.203 -1.3995 -1.0761  1.8295
  260MOL0     H35861   8.650   9.891  10.948  1.2175 -0.7551  2.7846
  260MOL0     H35862   8.686   9.877  10.633 -2.4703  0.1599  0.6323
  260MOL0     H35863   8.850   9.859  10.447 -0.9707 -0.2512 -0.2982
  260MOL0     H35864   9.010  10.981   8.998 -1.3148  2.2907 -0.2884
  260MOL0     H35865   9.082  11.192   8.951  1.1131 -0.4040  0.5008
  260MOL0     H35866   9.292  11.431   8.628  1.6215 -2.7962 -1.4734
  260MOL0     H35867   9.384  11.662   8.545 -1.4211  1.7970  2.5397
  260MOL0     H35868   9.824  11.778   8.584 -0.5701 -2.1791  1.6473
  260MOL0     H35869   9.790  11.679   8.441  1.6172 -1.2094  3.1142
  260MOL0     H35870   9.622  11.867   8.375 -0.4606  1.0936 -0.6633
  260MOL0     H35871   9.780  11.871   8.321 -1.5230  0.7786 -0.6030
  260MOL0     H35872   9.674  12.013   8.587  2.5928  3.7512  2.6513
  260MOL0     H35873   9.839  12.026   8.542 -0.7546  4.0598  0.3377
  260MOL0     H35874   9.600  12.125   8.363 -0.4689 -1.7467 -0.1757
  260MOL0     H35875   9.767  12.111   8.309  0.3523  0.7238  1.0727
  260MOL0     H35876   9.756  12.438   8.599 -1.2101  0.9440 -0.4334
  260MOL0     H35877   9.775  11.523   8.655  0.6122  0.4689 -2.6751
  260MOL0     H35878   9.674  11.258   8.861  0.3351  0.0511  0.1337
  260MOL0     H35879   9.717  11.196   8.700  2.9642  0.7450 -0.3159
  260MOL0     H35880   9.815  11.326   8.768 -0.3844  0.7032  3.2555
  261MOL0     O35881  10.751   2.282   0.186 -0.3111  0.1408 -0.5037
  261MOL0     C35882  10.856   2.297   0.250 -1.1969 -1.4429  0.1226
  261MOL0     O35883  10.897   2.208   0.343  0.3364  0.4648 -0.0829
  261MOL0     C35884  10.838   2.088   0.355  0.1327 -0.6715  0.4587
  261MOL0     C35885  10.907   1.974   0.328  0.0740  0.1353 -1.1350
  261MOL0     C35886  10.848   1.854   0.350 -0.6836  0.5937 -0.6910
  261MOL0     C35887  10.712   1.844   0.394 -0.7348 -0.7331 -0.0163
  261MOL0     O35888  10.660   1.713   0.393  0.0898 -0.3179 -0.4701
  261MOL0     C35889  10.516   1.684   0.392  0.4754  0.1793 -0.0625
  261MOL0     C35890  10.503   1.534   0.402  0.0859  0.7122  0.6845
  261MOL0     C35891  10.355   1.508   0.440  0.3075 -0.6691 -0.2907
  261MOL0     C35892  10.325   1.355   0.440  0.1619  0.0319 -0.5070
  261MOL0     C35893  10.179   1.329   0.491 -0.2166  0.7269  0.1844
  261MOL0     C35894  10.073   1.361   0.385  0.1967 -0.0876  0.4521
  261MOL0     C35895   9.928   1.323   0.432 -0.0945 -0.0747 -0.6233
  261MOL0     C35896   9.919   1.166   0.462 -0.6688  0.2600 -0.2800
  261MOL0     N35897   9.780   1.130   0.478 -0.4126  0.3854  1.5329
  261MOL0     C35898   9.727   1.018   0.539  0.1122 -0.3701  0.5663
  261MOL0     C35899   9.602   1.024   0.525  0.0392  0.0788  0.6571
  261MOL0     C35900   9.511   0.920   0.588 -0.4927  0.3970  0.1331
  261MOL0     C35901   9.415   0.874   0.474  0.5333 -0.3141 -0.0822
  261MOL0     C35902   9.368   0.731   0.483  0.2823 -0.1886 -0.6761
  261MOL0     C35903   9.475   0.627   0.456  0.1981  0.2764  0.3749
  261MOL0     O35904   9.416   0.500   0.474  0.7532  0.2514 -0.0392
  261MOL0     C35905   9.323   0.436   0.384 -1.0898  0.1237  0.7376
  261MOL0     C35906   9.325   0.441   0.240 -0.4003 -0.8428  0.3904
  261MOL0     C35907   9.225   0.385   0.167  0.2478  0.3851 -0.1532
  261MOL0     C35908   9.237   0.418   0.018 -0.0471 -0.0787 -0.0644
  261MOL0     C35909   9.117   0.310   0.229  0.0738  0.1406  0.0520
  261MOL0     C35910   9.004   0.235   0.163 -0.8963 -0.6360 -0.2984
  261MOL0     O35911   8.920   0.147   0.234 -0.0876  1.0359 -0.3166
  261MOL0     C35912   8.849   0.066   0.154  0.1690 -0.2238 -0.0795
  261MOL0     C35913   8.710   0.079   0.158  0.0999  0.1851  0.1464
  261MOL0     C35914   8.623  -0.002   0.086  0.8152 -0.0520 -0.0778
  261MOL0     C35915   8.686  -0.122   0.024  0.2661  0.5725  0.3497
  261MOL0     O35916   8.594  -0.203  -0.041 -0.3556 -0.3508 -0.0847
  261MOL0     C35917   8.640  -0.326  -0.092  0.7857 -0.1947  0.1684
  261MOL0     C35918   8.709  -0.311  -0.231  0.2348  0.3409 -0.4049
  261MOL0     C35919   8.762  -0.445  -0.284 -0.6657 -1.1448 -0.0140
  261MOL0     C35920   8.794  -0.432  -0.438  0.8126 -0.5731 -0.3359
  261MOL0     C35921   8.826  -0.555  -0.500 -0.0940  0.6904  0.1804
  261MOL0     C35922   8.978  -0.583  -0.514 -0.0674 -0.6673 -0.3385
  261MOL0     C35923   9.043  -0.649  -0.387  0.2791 -0.0777  1.4780
  261MOL0     C35924   9.192  -0.610  -0.372  0.8207 -0.8250 -0.0805
  261MOL0    Cl35925   9.288  -0.663  -0.531 -0.1310  0.5152  0.2235
  261MOL0     C35926   8.831  -0.140   0.021 -0.1334 -0.1003  0.1756
  261MOL0     C35927   8.911  -0.039   0.081 -0.0541 -0.7071 -0.7039
  261MOL0     O35928   9.001   0.242   0.039 -0.9674  0.2105  0.7124
  261MOL0     C35929   9.113   0.306   0.367 -0.7859  0.2651 -0.5747
  261MOL0     C35930   9.220   0.362   0.441 -0.2238  0.1291  0.9577
  261MOL0     N35931   9.565   1.137   0.456  0.5556  0.1293  0.0307
  261MOL0     N35932   9.676   1.193   0.423  0.0790  0.7220  1.5128
  261MOL0     C35933  10.640   1.960   0.419  0.1650 -0.4109 -0.1959
  261MOL0     C35934  10.702   2.084   0.399 -0.7203  0.0766 -0.8666
  261MOL0     C35935  10.947   2.419   0.228 -1.0539  0.4981 -0.0500
  261MOL0     C35936  10.902   2.518   0.148  0.4606  0.7006  0.5725
  261MOL0     C35937  10.968   2.636   0.122  0.6351  0.8954 -0.3006
  261MOL0     C35938  11.097   2.657   0.166 -0.4255 -1.4756 -0.6730
  261MOL0     O35939  11.161   2.780   0.150 -0.9957  0.4587 -0.1892
  261MOL0     C35940  11.271   2.814   0.230  0.5051 -0.2934 -0.0332
  261MOL0     C35941  11.283   2.972   0.219  0.1311 -0.7939 -0.4155
  261MOL0     C35942  11.388   3.012   0.109  1.1780 -0.1822 -0.0816
  261MOL0     C35943  11.369   3.164   0.069 -0.2617 -0.5716  0.3695
  261MOL0     C35944  11.260   3.190  -0.022  0.1291 -0.3061 -0.1467
  261MOL0     C35945  11.165   3.188  -0.101 -0.2883 -0.3512 -0.4537
  261MOL0     C35946  11.157   2.551   0.233  0.0725  0.6656  0.3975
  261MOL0     C35947  11.080   2.423   0.255 -0.3635 -0.0135 -0.2905
  261MOL0     C35948  11.157   2.319   0.320 -0.6067 -0.4275 -0.1521
  261MOL0     H35949  11.007   1.977   0.286  0.0871  4.0211 -1.1669
  261MOL0     H35950  10.908   1.764   0.339 -0.7683  0.6459 -1.6509
  261MOL0     H35951  10.473   1.725   0.300 -0.6974 -3.9141 -1.5407
  261MOL0     H35952  10.472   1.731   0.481  1.0155  3.1719 -1.2521
  261MOL0     H35953  10.535   1.498   0.304 -0.4391  0.4346  0.6095
  261MOL0     H35954  10.564   1.478   0.473 -0.1249  0.0780  0.3731
  261MOL0     H35955  10.333   1.567   0.530 -2.7287 -3.1596  0.8067
  261MOL0     H35956  10.296   1.548   0.357 -1.1459 -5.4387 -1.8820
  261MOL0     H35957  10.354   1.313   0.344  1.5991  0.8460 -0.4593
  261MOL0     H35958  10.386   1.309   0.519  1.8191  2.4009 -0.2961
  261MOL0     H35959  10.155   1.391   0.578 -0.9870  0.5751  0.0904
  261MOL0     H35960  10.182   1.225   0.525  2.5833  1.1236  1.3992
  261MOL0     H35961  10.062   1.465   0.351  0.2535 -1.2640 -3.6977
  261MOL0     H35962  10.090   1.301   0.295 -0.9335 -0.2679  0.3528
  261MOL0     H35963   9.854   1.365   0.364  1.2703  1.1470 -1.4192
  261MOL0     H35964   9.913   1.384   0.522 -0.5892 -0.7518 -0.2384
  261MOL0     H35965   9.958   1.107   0.379  0.4511  1.3154 -0.5272
  261MOL0     H35966   9.967   1.136   0.555  2.9401 -3.8770 -3.0794
  261MOL0     H35967   9.779   0.935   0.586 -0.5239 -0.7655  0.5794
  261MOL0     H35968   9.457   0.960   0.674  1.7424  0.7388  1.4455
  261MOL0     H35969   9.581   0.856   0.643 -0.8679  0.0262  0.1849
  261MOL0     H35970   9.326   0.937   0.476 -0.0955 -0.9399 -3.4352
  261MOL0     H35971   9.457   0.887   0.374 -0.9890  1.1098 -0.5840
  261MOL0     H35972   9.320   0.708   0.579  1.1578  0.3440 -0.0968
  261MOL0     H35973   9.288   0.727   0.409 -0.7113  0.8891  0.3111
  261MOL0     H35974   9.534   0.634   0.364  2.3267  0.6657  1.7357
  261MOL0     H35975   9.544   0.634   0.540  2.9094 -0.2633 -1.6724
  261MOL0     H35976   9.398   0.499   0.184 -1.1423 -0.6238 -0.3794
  261MOL0     H35977   9.290   0.504  -0.023 -3.8790  1.0238 -3.4063
  261MOL0     H35978   9.136   0.439  -0.019 -1.7573 -4.0918  1.6725
  261MOL0     H35979   9.286   0.332  -0.029  0.3339  0.2597 -0.2853
  261MOL0     H35980   8.656   0.146   0.224 -0.0922 -1.2276  1.4616
  261MOL0     H35981   8.517   0.016   0.102  1.0839  1.8633 -0.2165
  261MOL0     H35982   8.699  -0.378  -0.016  0.7933  0.2462  0.4662
  261MOL0     H35983   8.545  -0.380  -0.099 -0.5310  1.9074  0.8582
  261MOL0     H35984   8.630  -0.277  -0.298  0.5919  1.7279 -0.1498
  261MOL0     H35985   8.788  -0.235  -0.235  0.9045 -0.3174 -0.0909
  261MOL0     H35986   8.683  -0.520  -0.272  2.1701 -4.4338 -0.1755
  261MOL0     H35987   8.847  -0.478  -0.224 -2.1815 -1.9265  1.8239
  261MOL0     H35988   8.878  -0.364  -0.452 -1.0561  1.6126 -1.7699
  261MOL0     H35989   8.716  -0.380  -0.495  1.7648 -0.0252 -1.1842
  261MOL0     H35990   8.778  -0.628  -0.434  0.5526 -1.6782 -1.8263
  261MOL0     H35991   8.776  -0.564  -0.597  0.3438 -0.6957  0.0710
  261MOL0     H35992   9.022  -0.490  -0.551  0.4740 -1.2703 -1.2645
  261MOL0     H35993   8.977  -0.654  -0.597 -0.5100 -0.8639 -0.1657
  261MOL0     H35994   9.038  -0.756  -0.404  1.3323  0.1643 -0.6355
  261MOL0     H35995   8.994  -0.611  -0.296 -1.9304 -1.0254  0.7598
  261MOL0     H35996   9.238  -0.653  -0.283  1.5900  0.0254 -0.0552
  261MOL0     H35997   9.202  -0.503  -0.352  0.7964 -0.8710  0.1821
  261MOL0     H35998   8.872  -0.232  -0.019 -0.4890 -0.3908  0.4668
  261MOL0     H35999   9.020  -0.034   0.077 -0.1486  1.9307 -1.9447
  261MOL0     H36000   9.028   0.260   0.414 -0.6814 -2.0741 -2.4506
  261MOL0     H36001   9.208   0.362   0.549 -2.7595  1.1729  0.7372
  261MOL0     H36002  10.536   1.952   0.447 -0.2855  0.6794 -1.4454
  261MOL0     H36003  10.653   2.177   0.425  2.1740  1.6616 -0.6436
  261MOL0     H36004  10.800   2.504   0.114 -0.2164  0.5145  2.5414
  261MOL0     H36005  10.917   2.714   0.067 -0.3090  0.5095  0.0117
  261MOL0     H36006  11.254   2.784   0.334 -0.1641  2.2273  0.6655
  261MOL0     H36007  11.365   2.781   0.186 -0.5745  0.3732 -3.1277
  261MOL0     H36008  11.318   3.025   0.308 -1.8743  1.3197 -0.8042
  261MOL0     H36009  11.186   3.014   0.194  0.4511 -0.0702 -0.4551
  261MOL0     H36010  11.491   2.985   0.135  0.8770  1.2742  3.0326
  261MOL0     H36011  11.367   2.951   0.021  1.6573  2.4297 -2.1608
  261MOL0     H36012  11.454   3.208   0.016 -0.8684  2.5964  1.7540
  261MOL0     H36013  11.368   3.224   0.161  0.1234  0.6249 -0.3745
  261MOL0     H36014  11.084   3.199  -0.170  0.0688  2.2048 -0.5563
  261MOL0     H36015  11.256   2.555   0.277 -0.0405  1.2012  0.6094
  261MOL0     H36016  11.257   2.354   0.350 -0.3158 -0.9171 -0.5421
  261MOL0     H36017  11.109   2.279   0.410 -0.8355  1.5254  0.6485
  261MOL0     H36018  11.186   2.240   0.250  1.5741 -1.1199  1.4090
  262MOL0     O36019   4.839  10.832   0.282  0.3427 -0.0533 -1.0761
  262MOL0     C36020   4.810  10.843   0.406 -0.9257  0.5444 -0.0318
  262MOL0     O36021   4.734  10.944   0.465 -1.7920 -0.3651 -0.4738
  262MOL0     C36022   4.681  11.039   0.381 -0.2421 -0.0592  0.1709
  262MOL0     C36023   4.544  11.074   0.406 -0.9505 -0.3601  0.8435
  262MOL0     C36024   4.485  11.166   0.318  0.3216  0.6821  0.6199
  262MOL0     C36025   4.561  11.231   0.221  0.2987 -0.5541  0.1231
  262MOL0     O36026   4.516  11.330   0.132 -0.1238  0.0455  0.2282
  262MOL0     C36027   4.401  11.303   0.051  0.3119  0.2132 -0.4819
  262MOL0     C36028   4.418  11.370  -0.083 -1.1572  1.0402  0.2459
  262MOL0     C36029   4.494  11.279  -0.184 -0.4220  0.2459 -0.0452
  262MOL0     C36030   4.504  11.357  -0.319 -0.7804  0.0868  1.0239
  262MOL0     C36031   4.386  11.313  -0.415  0.7293 -0.2385  0.6732
  262MOL0     C36032   4.412  11.346  -0.560 -0.6000 -0.5955  0.5724
  262MOL0     C36033   4.280  11.382  -0.641  0.1746 -0.5188 -0.1059
  262MOL0     C36034   4.309  11.451  -0.767  0.6967  0.0839  0.1906
  262MOL0     N36035   4.363  11.578  -0.727  0.4498  0.5482 -0.1288
  262MOL0     C36036   4.276  11.681  -0.714  0.2348  0.5338 -0.0698
  262MOL0     C36037   4.355  11.787  -0.713  0.0667 -0.0482 -0.3792
  262MOL0     C36038   4.286  11.926  -0.715 -0.8257 -0.3157  0.4511
  262MOL0     C36039   4.367  12.024  -0.800 -0.3065  0.5556  0.9451
  262MOL0     C36040   4.459  12.114  -0.713 -0.2998  1.0100 -0.5961
  262MOL0     C36041   4.397  12.211  -0.608  0.2728 -0.1043 -0.3943
  262MOL0     O36042   4.272  12.264  -0.671 -0.8029 -1.2566  0.0181
  262MOL0     C36043   4.219  12.371  -0.616 -0.4947  0.8392 -0.1056
  262MOL0     C36044   4.112  12.422  -0.681 -0.8091  0.1571 -0.1895
  262MOL0     C36045   4.038  12.529  -0.631  0.2470  0.0155  0.1562
  262MOL0     C36046   3.929  12.580  -0.718 -0.2001  0.1416  0.8315
  262MOL0     C36047   4.064  12.592  -0.514  0.7330 -0.4872  0.5581
  262MOL0     C36048   3.983  12.698  -0.455  0.6714 -0.0003 -1.0077
  262MOL0     O36049   4.052  12.797  -0.391  0.1772 -0.8637  0.1760
  262MOL0     C36050   3.984  12.902  -0.348 -0.3728 -0.2491  0.4209
  262MOL0     C36051   4.001  13.030  -0.401 -0.3308 -0.2187  0.5968
  262MOL0     C36052   3.960  13.151  -0.340  0.9239  0.7981  0.7588
  262MOL0     C36053   3.891  13.144  -0.209  0.7575  1.1178  0.4341
  262MOL0     O36054   3.833  13.242  -0.135 -0.2477  0.0951  0.5438
  262MOL0     C36055   3.854  13.378  -0.179  0.3972 -0.2834 -0.3244
  262MOL0     C36056   3.905  13.478  -0.070  0.1238  0.2649 -0.6785
  262MOL0     C36057   3.899  13.618  -0.121  0.7912 -0.6399 -0.0879
  262MOL0     C36058   3.960  13.647  -0.252  1.0311 -0.5109  0.3873
  262MOL0     C36059   3.948  13.789  -0.305 -0.3346 -0.4679  0.5268
  262MOL0     C36060   3.980  13.905  -0.205  0.0423  0.0701  0.5988
  262MOL0     C36061   3.968  14.037  -0.287 -0.3572 -0.5014  0.3359
  262MOL0     C36062   4.067  14.148  -0.243  0.1806  1.2785 -0.2407
  262MOL0    Cl36063   4.057  14.181  -0.071  0.3516  0.3442  0.0097
  262MOL0     C36064   3.867  13.010  -0.166  0.4153 -0.5667  0.8095
  262MOL0     C36065   3.920  12.889  -0.224  0.7014 -0.9988  0.6987
  262MOL0     O36066   3.855  12.690  -0.476 -0.0808 -0.4407  0.1477
  262MOL0     C36067   4.177  12.546  -0.449 -0.5723  0.4737 -0.3223
  262MOL0     C36068   4.252  12.440  -0.500 -0.4980 -0.1129  0.1679
  262MOL0     N36069   4.490  11.751  -0.713 -0.1750  0.5055 -0.5275
  262MOL0     N36070   4.491  11.620  -0.718  0.2111 -0.0486 -0.0337
  262MOL0     C36071   4.698  11.205   0.207 -0.2563  0.3160 -1.0576
  262MOL0     C36072   4.757  11.111   0.281  0.5062  0.0101 -0.7740
  262MOL0     C36073   4.869  10.750   0.508 -0.2288  0.0076 -0.8672
  262MOL0     C36074   4.886  10.793   0.643 -0.6962 -0.1566 -0.8758
  262MOL0     C36075   4.908  10.705   0.746  0.1650 -0.0335  0.3600
  262MOL0     C36076   4.918  10.565   0.708 -0.2117 -0.0104 -0.0282
  262MOL0     O36077   4.926  10.483   0.815  0.9509  1.3381  0.9133
  262MOL0     C36078   4.804  10.421   0.862 -0.0313 -0.0939  0.0213
  262MOL0     C36079   4.796  10.283   0.807  0.1752  0.0337  0.3551
  262MOL0     C36080   4.661  10.228   0.847  0.5545  0.0549  1.0660
  262MOL0     C36081   4.629  10.082   0.799  0.4487  0.0342 -0.0719
  262MOL0     C36082   4.589  10.005   0.916  0.4892  0.3649  0.3249
  262MOL0     C36083   4.531   9.942   1.000  0.4173  0.0998  0.1822
  262MOL0     C36084   4.919  10.515   0.582  1.2728 -0.1107  0.2558
  262MOL0     C36085   4.889  10.607   0.479 -0.1593 -0.3170 -0.3341
  262MOL0     C36086   4.875  10.552   0.336  0.9273 -0.4673  0.2287
  262MOL0     H36087   4.501  11.034   0.497 -0.2671  0.5015  1.5553
  262MOL0     H36088   4.379  11.186   0.306  0.5264  0.3797 -2.7500
  262MOL0     H36089   4.312  11.350   0.095  0.3753  2.4575 -2.5462
  262MOL0     H36090   4.393  11.194   0.053 -0.0581  0.2465  0.2688
  262MOL0     H36091   4.319  11.386  -0.125 -0.8096 -3.2159 -2.8851
  262MOL0     H36092   4.479  11.460  -0.079 -0.0066  0.3860 -1.4148
  262MOL0     H36093   4.594  11.271  -0.139  0.4580  1.2551 -1.7049
  262MOL0     H36094   4.445  11.183  -0.200  0.2135 -0.2085  0.6652
  262MOL0     H36095   4.521  11.465  -0.318  1.5112 -0.1519 -1.0022
  262MOL0     H36096   4.600  11.325  -0.362  0.2372 -1.5914  4.1635
  262MOL0     H36097   4.308  11.385  -0.391  0.5618 -0.0907 -0.2658
  262MOL0     H36098   4.363  11.208  -0.394 -0.5813 -0.1579 -0.2177
  262MOL0     H36099   4.480  11.431  -0.563 -2.8991  1.3097 -1.1540
  262MOL0     H36100   4.456  11.264  -0.617  0.0043  0.3559 -0.3609
  262MOL0     H36101   4.221  11.452  -0.581 -4.1222 -3.7269 -0.1278
  262MOL0     H36102   4.218  11.295  -0.661  2.0816 -1.6036 -1.6173
  262MOL0     H36103   4.386  11.395  -0.821  0.3290 -0.6437  0.4069
  262MOL0     H36104   4.219  11.450  -0.831  0.1848 -0.3391  0.9065
  262MOL0     H36105   4.169  11.662  -0.713  0.4407 -0.9320 -1.7982
  262MOL0     H36106   4.279  11.970  -0.615 -1.0815  2.5334 -0.7484
  262MOL0     H36107   4.188  11.912  -0.761 -0.7001 -0.7790  0.3128
  262MOL0     H36108   4.432  11.968  -0.867  1.5881  2.8107  0.7779
  262MOL0     H36109   4.295  12.084  -0.856 -0.2526  1.7350  2.0977
  262MOL0     H36110   4.525  12.047  -0.658 -2.2613  0.4563  1.2058
  262MOL0     H36111   4.526  12.164  -0.784  1.4255 -2.1048 -1.3747
  262MOL0     H36112   4.370  12.155  -0.518 -0.4946  1.2313  0.2404
  262MOL0     H36113   4.456  12.297  -0.573 -0.8574  1.2542 -1.7158
  262MOL0     H36114   4.086  12.380  -0.778  1.6109  0.5491 -1.0573
  262MOL0     H36115   3.924  12.511  -0.802  1.4644 -0.5661  1.2681
  262MOL0     H36116   3.941  12.681  -0.760 -1.3437  0.8414  2.0918
  262MOL0     H36117   3.828  12.568  -0.677 -0.2694  0.7323  0.8451
  262MOL0     H36118   4.062  13.040  -0.490 -0.8266 -0.3029  0.2451
  262MOL0     H36119   3.988  13.242  -0.392 -2.2012  2.3902  1.5975
  262MOL0     H36120   3.930  13.382  -0.257  2.5530 -1.4543  1.5820
  262MOL0     H36121   3.761  13.413  -0.224  0.5557  1.1382  0.4056
  262MOL0     H36122   3.841  13.455   0.016  3.7344 -1.8414  1.7141
  262MOL0     H36123   4.008  13.464  -0.035  0.1278  0.9751 -0.3932
  262MOL0     H36124   3.933  13.695  -0.051 -2.7218  1.6996 -0.6828
  262MOL0     H36125   3.792  13.636  -0.132  0.4023 -0.5327  3.1056
  262MOL0     H36126   3.921  13.584  -0.332 -0.8247  0.2195  0.6603
  262MOL0     H36127   4.068  13.633  -0.246  1.1654 -0.2067 -1.0618
  262MOL0     H36128   4.022  13.807  -0.384  1.0997 -0.8977  1.7251
  262MOL0     H36129   3.852  13.810  -0.353 -0.4569 -1.0008  0.5383
  262MOL0     H36130   4.082  13.885  -0.170  0.0535 -3.3165 -0.9032
  262MOL0     H36131   3.906  13.903  -0.125  0.9442  0.8756  1.4747
  262MOL0     H36132   3.867  14.071  -0.263 -0.2906 -1.1762  1.6480
  262MOL0     H36133   3.987  14.027  -0.395 -3.7214  0.9919 -0.5237
  262MOL0     H36134   4.045  14.235  -0.305 -0.0087  0.3322 -1.5467
  262MOL0     H36135   4.166  14.115  -0.273  0.0688  2.5189 -2.1445
  262MOL0     H36136   3.825  12.988  -0.068  0.0228  0.1480  0.8102
  262MOL0     H36137   3.912  12.796  -0.168 -0.9321 -0.6924  1.0464
  262MOL0     H36138   4.212  12.599  -0.361 -1.1709 -1.2259  1.0107
  262MOL0     H36139   4.345  12.410  -0.452  0.4253 -2.5062 -2.7871
  262MOL0     H36140   4.766  11.247   0.133  0.4934  0.9025 -0.0555
  262MOL0     H36141   4.861  11.088   0.262  0.4424 -0.8836 -0.0885
  262MOL0     H36142   4.849  10.891   0.672  1.9927  1.0853 -1.3244
  262MOL0     H36143   4.895  10.742   0.847 -1.1400 -1.5724  0.8010
  262MOL0     H36144   4.820  10.416   0.970 -1.1748 -0.5031  0.1854
  262MOL0     H36145   4.718  10.485   0.846 -2.3021 -3.1700 -1.0959
  262MOL0     H36146   4.882  10.232   0.851  0.0110 -0.1322  0.4808
  262MOL0     H36147   4.804  10.292   0.698 -1.3984 -2.5318 -0.0322
  262MOL0     H36148   4.648  10.229   0.956  1.0876 -0.9964  1.1552
  262MOL0     H36149   4.582  10.293   0.809  0.1375 -0.3222  1.2756
  262MOL0     H36150   4.714  10.052   0.736 -1.5388 -0.6062 -2.6019
  262MOL0     H36151   4.539  10.088   0.738  1.7317 -1.6525 -2.2810
  262MOL0     H36152   4.486   9.886   1.081  1.3897 -0.7080  0.1828
  262MOL0     H36153   4.941  10.409   0.569  2.0188  0.1268 -0.5405
  262MOL0     H36154   4.772  10.519   0.324  0.6899 -0.0046  0.9530
  262MOL0     H36155   4.913  10.606   0.249 -0.8811 -1.4396 -1.2422
  262MOL0     H36156   4.938  10.463   0.352  1.8802  0.2988  0.8846
  263MOL0     O36157   7.745   8.147   1.138  0.2289  0.5185 -0.3985
  263MOL0     C36158   7.702   8.141   1.255 -0.8558 -0.2341  0.8048
  263MOL0     O36159   7.578   8.176   1.298 -0.2633 -0.1294  0.2836
  263MOL0     C36160   7.488   8.215   1.201 -0.9800 -0.4585  0.4082
  263MOL0     C36161   7.423   8.128   1.114  0.2800  0.6397 -0.1678
  263MOL0     C36162   7.324   8.175   1.030 -0.3723 -0.3951  0.9077
  263MOL0     C36163   7.276   8.313   1.032  0.7843  0.0760  0.3561
  263MOL0     O36164   7.179   8.355   0.943 -0.5575  0.5090  0.0015
  263MOL0     C36165   7.083   8.437   0.999 -0.2647 -0.7512 -0.2437
  263MOL0     C36166   6.948   8.402   0.953  1.0081 -0.3947  0.2779
  263MOL0     C36167   6.891   8.270   1.001  0.1095 -0.5521  1.1389
  263MOL0     C36168   6.744   8.294   1.014  0.7674 -0.8273 -0.9624
  263MOL0     C36169   6.657   8.171   1.056 -0.4808 -0.7167  0.7013
  263MOL0     C36170   6.509   8.204   1.059  0.6368 -0.3106  0.3093
  263MOL0     C36171   6.425   8.099   1.151  0.1432 -0.0320  0.6636
  263MOL0     C36172   6.464   8.093   1.306  0.4214  0.1266 -0.2599
  263MOL0     N36173   6.454   8.214   1.384 -0.5638 -0.8058  0.1233
  263MOL0     C36174   6.340   8.303   1.395 -0.2688 -0.3323 -0.3566
  263MOL0     C36175   6.381   8.422   1.452  1.0695 -0.0531  0.5134
  263MOL0     C36176   6.304   8.541   1.475  0.1430 -0.1080  0.1719
  263MOL0     C36177   6.261   8.563   1.622  0.0381 -0.1163  1.0026
  263MOL0     C36178   6.215   8.704   1.659 -0.4756 -1.6482  0.0718
  263MOL0     C36179   6.115   8.765   1.569  0.0080  0.4247 -0.3021
  263MOL0     O36180   6.065   8.876   1.634 -0.3007 -0.7296  0.2787
  263MOL0     C36181   5.971   8.955   1.574 -0.7487 -0.6951 -0.2090
  263MOL0     C36182   5.903   8.924   1.457  0.7952 -0.7223  0.1847
  263MOL0     C36183   5.811   9.012   1.394 -0.3694  0.0287 -0.1829
  263MOL0     C36184   5.740   8.952   1.274  0.4515  1.0622  0.4435
  263MOL0     C36185   5.796   9.148   1.440  0.4051 -0.0265  0.5942
  263MOL0     C36186   5.705   9.252   1.388  0.7094  0.1302  0.1116
  263MOL0     O36187   5.696   9.375   1.455  0.5006  0.2229 -0.1111
  263MOL0     C36188   5.606   9.474   1.411  0.3530  0.3522  0.2663
  263MOL0     C36189   5.657   9.609   1.408 -1.1002 -0.4494  0.4361
  263MOL0     C36190   5.582   9.717   1.362  0.2917 -0.4159 -1.3779
  263MOL0     C36191   5.454   9.693   1.314 -0.1127  0.0425 -0.6769
  263MOL0     O36192   5.386   9.800   1.275 -0.0210 -0.0081  0.6136
  263MOL0     C36193   5.259   9.820   1.315  0.7451  0.2210 -0.7650
  263MOL0     C36194   5.252   9.959   1.348  0.6473 -0.6337 -1.3978
  263MOL0     C36195   5.114   9.992   1.407  0.4812 -0.1446 -0.2545
  263MOL0     C36196   5.066   9.914   1.541  0.1957 -0.3800 -0.0206
  263MOL0     C36197   4.919   9.934   1.577 -0.3838  0.2869  0.4655
  263MOL0     C36198   4.837   9.848   1.481  0.8532  1.0725  0.4649
  263MOL0     C36199   4.689   9.849   1.512 -0.3627  0.5266  0.0264
  263MOL0     C36200   4.601   9.805   1.400  1.3395  1.5059  0.2712
  263MOL0    Cl36201   4.428   9.840   1.443 -0.2196 -0.0865 -0.1043
  263MOL0     C36202   5.399   9.563   1.319 -0.8629  0.1416 -0.5348
  263MOL0     C36203   5.472   9.448   1.361  0.4623 -1.1254  0.3513
  263MOL0     O36204   5.654   9.231   1.278 -0.3019  0.1999  0.6585
  263MOL0     C36205   5.863   9.175   1.559 -1.3750  0.2490 -0.1860
  263MOL0     C36206   5.951   9.083   1.619  0.1675 -0.3449  0.2493
  263MOL0     N36207   6.519   8.407   1.458 -0.4999 -0.3366  0.0098
  263MOL0     N36208   6.565   8.291   1.423 -0.3667  0.6838  0.1895
  263MOL0     C36209   7.329   8.398   1.127  0.1312 -0.7386  0.3174
  263MOL0     C36210   7.435   8.348   1.211 -0.1988  0.0120  0.5135
  263MOL0     C36211   7.805   8.105   1.365 -1.2504 -0.7496  0.7695
  263MOL0     C36212   7.892   7.998   1.339  0.1362 -0.7386  0.3923
  263MOL0     C36213   7.977   7.958   1.447 -0.1088  0.3215 -0.3450
  263MOL0     C36214   7.987   8.036   1.560  1.0803  0.6084 -0.6107
  263MOL0     O36215   8.101   7.984   1.625 -0.2393  0.1100 -0.1190
  263MOL0     C36216   8.182   8.071   1.695 -0.6683  0.4057  0.2141
  263MOL0     C36217   8.228   7.979   1.800 -0.1640  0.0185  0.4646
  263MOL0     C36218   8.347   8.035   1.873 -0.9902  0.5043 -1.1271
  263MOL0     C36219   8.351   8.187   1.901  0.0513 -0.1267  0.2708
  263MOL0     C36220   8.219   8.232   1.959 -0.6304 -0.0706  0.2431
  263MOL0     C36221   8.105   8.269   1.989  0.3896  0.3211 -0.3727
  263MOL0     C36222   7.903   8.150   1.583 -1.3001 -0.3591 -0.1180
  263MOL0     C36223   7.810   8.181   1.487  0.0995  0.7297  0.3642
  263MOL0     C36224   7.714   8.283   1.521  0.2469 -1.0038 -0.1092
  263MOL0     H36225   7.484   8.038   1.118  1.0995  1.2367  2.3277
  263MOL0     H36226   7.288   8.102   0.958  0.2961  2.5397 -2.7368
  263MOL0     H36227   7.101   8.537   0.959 -0.1128 -1.5715 -2.3363
  263MOL0     H36228   7.089   8.445   1.108 -1.5255  0.4958 -0.2413
  263MOL0     H36229   6.891   8.490   0.985  0.1918 -0.7329 -0.2132
  263MOL0     H36230   6.958   8.399   0.844  6.9813 -0.0670  0.4978
  263MOL0     H36231   6.912   8.201   0.919  1.7402  0.1594  0.9326
  263MOL0     H36232   6.940   8.231   1.090  1.8970 -0.8320  0.0822
  263MOL0     H36233   6.726   8.379   1.081  0.0361 -2.6091  1.2590
  263MOL0     H36234   6.702   8.339   0.924 -1.0119 -0.3986  0.0483
  263MOL0     H36235   6.689   8.135   1.154 -1.1416 -2.4978  0.2944
  263MOL0     H36236   6.670   8.098   0.976 -0.5314  0.0402 -0.0170
  263MOL0     H36237   6.508   8.299   1.112  1.5019  0.3233 -0.7633
  263MOL0     H36238   6.464   8.216   0.960 -1.5783 -4.9102  0.4883
  263MOL0     H36239   6.431   8.003   1.099  2.7645  0.5291 -0.2243
  263MOL0     H36240   6.321   8.132   1.148  0.3618  0.5935 -0.5488
  263MOL0     H36241   6.406   8.014   1.355 -0.6045  0.7345 -0.4711
  263MOL0     H36242   6.569   8.065   1.322  0.9854  2.2261  0.0149
  263MOL0     H36243   6.239   8.281   1.362 -0.3929  0.1713 -0.3254
  263MOL0     H36244   6.213   8.546   1.415 -0.5078 -0.0518  1.1454
  263MOL0     H36245   6.364   8.631   1.458 -1.0497  1.0308  1.6894
  263MOL0     H36246   6.190   8.486   1.654 -0.8595 -0.2159 -1.1076
  263MOL0     H36247   6.349   8.529   1.677  0.6554 -1.1496 -0.5563
  263MOL0     H36248   6.173   8.706   1.760 -4.5652 -0.1162 -1.4536
  263MOL0     H36249   6.297   8.776   1.653 -1.4243 -0.5942 -0.9315
  263MOL0     H36250   6.176   8.788   1.481  2.9045  0.4156  1.5717
  263MOL0     H36251   6.042   8.685   1.555  1.1129 -1.0102  1.6724
  263MOL0     H36252   5.917   8.832   1.400 -2.6488  1.3402 -4.6870
  263MOL0     H36253   5.769   9.001   1.180 -2.9540 -1.1869 -2.0134
  263MOL0     H36254   5.632   8.967   1.283  0.5157  1.2679  0.8935
  263MOL0     H36255   5.769   8.847   1.261 -0.1633  0.8486  0.7887
  263MOL0     H36256   5.760   9.610   1.443 -1.6787 -2.8346  2.5586
  263MOL0     H36257   5.621   9.818   1.367 -0.2368 -0.2503  2.0883
  263MOL0     H36258   5.191   9.800   1.232 -0.8070 -0.4455  0.6221
  263MOL0     H36259   5.232   9.747   1.392 -2.1872  0.5950 -1.3390
  263MOL0     H36260   5.333   9.962   1.422  0.1439  0.1530 -0.8730
  263MOL0     H36261   5.264  10.022   1.259  1.2132  0.1150 -0.8076
  263MOL0     H36262   5.045   9.984   1.323  0.6710  2.1941 -0.6865
  263MOL0     H36263   5.121  10.095   1.443 -2.3513 -0.1437  0.5695
  263MOL0     H36264   5.129   9.940   1.627 -3.4803  1.7541  2.3101
  263MOL0     H36265   5.083   9.810   1.514 -0.1990 -0.7594  1.1411
  263MOL0     H36266   4.923   9.899   1.681  0.9533  1.7268  0.9406
  263MOL0     H36267   4.869  10.031   1.583 -2.0439 -0.1617 -3.4928
  263MOL0     H36268   4.871   9.744   1.484 -1.7887  0.1407  2.2494
  263MOL0     H36269   4.842   9.883   1.378  0.1918 -3.0009 -1.1163
  263MOL0     H36270   4.673   9.952   1.545 -1.6209 -0.2439  1.9761
  263MOL0     H36271   4.673   9.788   1.601 -1.0719  0.5095 -0.1036
  263MOL0     H36272   4.620   9.697   1.399 -0.3274  1.1759  0.9575
  263MOL0     H36273   4.633   9.856   1.309  0.2107  1.5435 -0.1197
  263MOL0     H36274   5.294   9.545   1.298 -1.9771 -3.1615  5.6974
  263MOL0     H36275   5.436   9.346   1.353  1.0489 -1.5372  2.3213
  263MOL0     H36276   5.851   9.266   1.616 -3.9856  1.0889 -1.9060
  263MOL0     H36277   6.004   9.120   1.706 -0.9533  3.5440 -0.5449
  263MOL0     H36278   7.304   8.502   1.146  5.0690  0.8791 -0.5482
  263MOL0     H36279   7.466   8.430   1.275  3.3609 -1.2949  0.6812
  263MOL0     H36280   7.887   7.942   1.246 -0.1901  1.7448 -1.1478
  263MOL0     H36281   8.050   7.882   1.419  0.9923  0.0993  2.8238
  263MOL0     H36282   8.270   8.103   1.638 -1.9348  4.7621  0.2919
  263MOL0     H36283   8.135   8.161   1.736 -0.5761  1.0937 -1.1328
  263MOL0     H36284   8.267   7.887   1.754 -0.5721  0.3489 -0.5626
  263MOL0     H36285   8.146   7.968   1.871  0.3582  0.3200  1.1187
  263MOL0     H36286   8.350   7.991   1.973  2.3894 -2.6734 -2.4063
  263MOL0     H36287   8.447   8.012   1.834 -0.4646 -1.5555  1.2173
  263MOL0     H36288   8.375   8.240   1.808 -0.5425  3.4942  1.9775
  263MOL0     H36289   8.438   8.216   1.962  0.6851  1.0896 -1.1500
  263MOL0     H36290   8.010   8.319   1.988 -0.3741 -1.0564  0.1746
  263MOL0     H36291   7.911   8.199   1.680  3.5629  0.2588 -0.5696
  263MOL0     H36292   7.715   8.349   1.434 -1.1202  2.1750  2.1029
  263MOL0     H36293   7.614   8.243   1.540 -0.4419  0.3267 -0.8510
  263MOL0     H36294   7.747   8.341   1.608  1.1087 -2.2711  0.4374
  264MOL0     O36295   4.916   8.574   2.674  0.5210 -0.6550 -0.7905
  264MOL0     C36296   4.925   8.531   2.564 -0.7760  0.4873 -0.6770
  264MOL0     O36297   4.840   8.435   2.514  0.5614 -0.2835 -0.5689
  264MOL0     C36298   4.726   8.415   2.592  0.4207  0.1637 -0.0340
  264MOL0     C36299   4.729   8.332   2.700  0.2818  0.5042 -0.5167
  264MOL0     C36300   4.614   8.299   2.774 -0.7776 -0.0070  0.1426
  264MOL0     C36301   4.497   8.374   2.740 -0.4833 -0.0956  0.2570
  264MOL0     O36302   4.365   8.354   2.791  0.2858  0.0849  0.5851
  264MOL0     C36303   4.362   8.274   2.910 -0.2658  0.4934  0.3329
  264MOL0     C36304   4.363   8.128   2.865  0.5717 -0.2908  0.3881
  264MOL0     C36305   4.232   8.051   2.862  1.1488  0.4825 -0.0896
  264MOL0     C36306   4.165   8.070   2.731 -1.3387  0.8810 -0.3898
  264MOL0     C36307   4.014   8.033   2.719  0.2152  0.1722 -0.0349
  264MOL0     C36308   3.987   7.887   2.743  0.7757 -1.0580 -0.2230
  264MOL0     C36309   3.987   7.778   2.644  0.5575 -0.4362 -0.0937
  264MOL0     C36310   3.846   7.783   2.575 -1.0353  0.0851  0.4153
  264MOL0     N36311   3.816   7.659   2.509 -0.1618  0.5523  0.2185
  264MOL0     C36312   3.867   7.616   2.388  0.0447 -1.0932 -0.2203
  264MOL0     C36313   3.793   7.502   2.362  0.7865  0.1373 -0.0496
  264MOL0     C36314   3.824   7.417   2.238 -0.0786  0.6665 -0.5448
  264MOL0     C36315   3.691   7.370   2.168  0.5764  0.3722  0.0193
  264MOL0     C36316   3.730   7.310   2.033 -0.5114 -0.8336  0.0680
  264MOL0     C36317   3.602   7.241   1.967  0.4017 -0.1138  0.2514
  264MOL0     O36318   3.586   7.245   1.827  0.3063  0.1214  1.2444
  264MOL0     C36319   3.549   7.351   1.757  0.2953 -0.0062  0.1799
  264MOL0     C36320   3.536   7.333   1.619 -0.7199  0.2554 -1.4687
  264MOL0     C36321   3.512   7.440   1.535 -0.2788 -0.6406  0.3954
  264MOL0     C36322   3.512   7.415   1.388 -0.1834  1.1387  0.5713
  264MOL0     C36323   3.483   7.572   1.587  0.3804 -0.5119  0.8696
  264MOL0     C36324   3.431   7.700   1.526 -0.2213  0.2059  0.9222
  264MOL0     O36325   3.388   7.801   1.609  0.4516  0.1011  0.3479
  264MOL0     C36326   3.351   7.929   1.567 -0.4156  0.3291 -0.0182
  264MOL0     C36327   3.272   8.009   1.652 -0.4883  0.0094  0.2590
  264MOL0     C36328   3.232   8.135   1.615  1.0342 -0.2221  0.4635
  264MOL0     C36329   3.285   8.203   1.505 -0.5081  0.5789  0.9176
  264MOL0     O36330   3.244   8.332   1.498  0.8968 -0.5288  0.1241
  264MOL0     C36331   3.219   8.393   1.371 -0.2484 -0.4637 -0.4026
  264MOL0     C36332   3.173   8.536   1.392  0.0436  0.5087 -0.3454
  264MOL0     C36333   3.271   8.619   1.476 -0.1652  0.9050  0.4241
  264MOL0     C36334   3.244   8.774   1.471 -0.6527  0.1979 -0.9884
  264MOL0     C36335   3.108   8.813   1.530  0.2181  0.4802 -0.1856
  264MOL0     C36336   3.100   8.968   1.549 -0.1154  0.1692  0.3306
  264MOL0     C36337   2.959   9.018   1.587  0.2873 -0.3827 -0.5813
  264MOL0     C36338   2.961   9.158   1.644 -0.6533 -0.3319 -0.1256
  264MOL0    Cl36339   3.014   9.154   1.819  0.1379 -0.3075 -0.0868
  264MOL0     C36340   3.364   8.126   1.417 -0.2998 -0.6705  0.6689
  264MOL0     C36341   3.398   7.994   1.446  0.8400 -0.9942  0.2337
  264MOL0     O36342   3.419   7.697   1.400 -0.3948  0.1482 -0.7641
  264MOL0     C36343   3.502   7.591   1.721  0.6632 -0.4834 -0.2759
  264MOL0     C36344   3.525   7.485   1.805  0.4786 -0.0631  1.1078
  264MOL0     N36345   3.698   7.486   2.466  1.2600  0.2890 -0.1121
  264MOL0     N36346   3.708   7.582   2.550 -0.3190  0.3705  0.0798
  264MOL0     C36347   4.491   8.453   2.617 -0.6115 -0.4144 -1.1672
  264MOL0     C36348   4.607   8.472   2.548  0.6443 -0.2063  1.0128
  264MOL0     C36349   5.061   8.523   2.497 -0.2592  0.6763  1.1226
  264MOL0     C36350   5.078   8.432   2.387 -0.0885 -0.2867 -0.6855
  264MOL0     C36351   5.203   8.427   2.331 -0.3258  0.8932 -0.0628
  264MOL0     C36352   5.302   8.520   2.346 -1.1918  0.4154  0.7193
  264MOL0     O36353   5.414   8.511   2.264  0.2255 -1.2983  0.2261
  264MOL0     C36354   5.502   8.629   2.250 -0.2329  0.2712  0.7932
  264MOL0     C36355   5.625   8.599   2.161 -0.5981  0.4852  0.0464
  264MOL0     C36356   5.576   8.574   2.019  0.0565 -0.0195 -0.3202
  264MOL0     C36357   5.670   8.502   1.930 -0.0530  0.4388 -0.2992
  264MOL0     C36358   5.764   8.600   1.883 -0.4868  0.5859 -0.1885
  264MOL0     C36359   5.838   8.682   1.839 -0.8383  0.2288 -0.1184
  264MOL0     C36360   5.275   8.621   2.442 -0.5709 -0.9240  0.1023
  264MOL0     C36361   5.166   8.612   2.526 -0.5865 -0.9210 -0.4632
  264MOL0     C36362   5.166   8.716   2.636  0.4636 -0.5659  0.0601
  264MOL0     H36363   4.820   8.281   2.733  1.3396  2.5670 -0.0839
  264MOL0     H36364   4.615   8.216   2.844  1.9358 -1.7022 -1.7287
  264MOL0     H36365   4.273   8.292   2.972  0.9944  1.0443  2.0541
  264MOL0     H36366   4.454   8.287   2.968  2.0395 -0.0781 -2.9449
  264MOL0     H36367   4.398   8.109   2.763 -4.7706  0.8271 -2.0109
  264MOL0     H36368   4.440   8.079   2.925  1.3098 -0.0132 -0.3252
  264MOL0     H36369   4.239   7.945   2.886  0.1176  0.6956  1.3104
  264MOL0     H36370   4.163   8.100   2.932  0.9704 -1.2989  1.0377
  264MOL0     H36371   4.176   8.176   2.706 -0.3573  1.0616  0.6975
  264MOL0     H36372   4.225   8.016   2.657 -0.6453 -0.4103  1.0410
  264MOL0     H36373   3.978   8.062   2.619  0.7832  2.1317  0.2786
  264MOL0     H36374   3.962   8.090   2.797 -0.3728  0.0908 -0.3601
  264MOL0     H36375   4.053   7.858   2.826  0.6377  1.2242  0.7587
  264MOL0     H36376   3.890   7.890   2.794  0.5850 -1.1666 -0.5767
  264MOL0     H36377   3.995   7.688   2.705  0.9254  0.7000  1.6151
  264MOL0     H36378   4.075   7.770   2.579  1.4070 -1.8622  1.1818
  264MOL0     H36379   3.769   7.804   2.650 -0.5397  3.3757  0.1640
  264MOL0     H36380   3.833   7.867   2.506 -2.1629  0.2841  0.8469
  264MOL0     H36381   3.944   7.662   2.327  0.2566  1.4476  1.7746
  264MOL0     H36382   3.890   7.334   2.263  0.6184  0.8738 -1.6142
  264MOL0     H36383   3.894   7.478   2.181  0.8610  0.6434  0.5484
  264MOL0     H36384   3.652   7.290   2.232  0.2649 -1.5125 -2.4097
  264MOL0     H36385   3.621   7.454   2.166  0.0377 -0.0933 -1.4226
  264MOL0     H36386   3.774   7.381   1.962  2.8590 -1.5349  1.3132
  264MOL0     H36387   3.814   7.240   2.036  0.7545  0.6253 -0.1929
  264MOL0     H36388   3.595   7.141   2.012 -0.1372  0.7968  2.2902
  264MOL0     H36389   3.514   7.293   2.006  0.8700  2.5240 -1.9507
  264MOL0     H36390   3.558   7.236   1.576  0.1095  1.6801 -4.6218
  264MOL0     H36391   3.517   7.309   1.364  4.4977  0.9953  1.2330
  264MOL0     H36392   3.590   7.462   1.326  1.8396 -1.8339  0.6608
  264MOL0     H36393   3.414   7.454   1.360 -1.2899  0.2698  2.9487
  264MOL0     H36394   3.224   7.966   1.740  0.1322  2.6602  2.0246
  264MOL0     H36395   3.162   8.195   1.672  0.1141  0.6833 -1.5437
  264MOL0     H36396   3.298   8.403   1.296 -2.8453  0.1343 -3.2946
  264MOL0     H36397   3.139   8.328   1.333 -0.5343 -0.5492  0.3388
  264MOL0     H36398   3.165   8.573   1.289 -1.9932  1.0851 -0.0209
  264MOL0     H36399   3.071   8.530   1.431 -1.6204 -0.9831 -4.3350
  264MOL0     H36400   3.368   8.588   1.439 -0.8596 -0.9340  0.0504
  264MOL0     H36401   3.271   8.598   1.584 -3.2254  1.5889  0.6519
  264MOL0     H36402   3.231   8.797   1.364 -5.3718  1.3202 -0.4016
  264MOL0     H36403   3.330   8.832   1.505  0.8048 -2.3794 -0.0256
  264MOL0     H36404   3.033   8.784   1.455  1.2504  2.0468 -1.9309
  264MOL0     H36405   3.087   8.759   1.623 -1.9513  1.3911 -0.0838
  264MOL0     H36406   3.140   9.024   1.464 -0.6381 -2.4040 -1.7614
  264MOL0     H36407   3.160   9.003   1.634  0.7510 -0.5020  0.0055
  264MOL0     H36408   2.911   8.948   1.656  0.4929 -2.8723 -2.7582
  264MOL0     H36409   2.901   9.036   1.496  0.6599 -0.0124 -0.7510
  264MOL0     H36410   2.865   9.208   1.628 -0.1421  0.1871 -1.8359
  264MOL0     H36411   3.027   9.229   1.594  0.6276  0.7529  2.8628
  264MOL0     H36412   3.400   8.168   1.324  1.3993  0.0328  1.6145
  264MOL0     H36413   3.461   7.939   1.377  1.5728 -2.7530  2.1815
  264MOL0     H36414   3.501   7.692   1.759 -0.9527 -0.5711  0.0028
  264MOL0     H36415   3.531   7.497   1.913  0.7115 -0.5286  1.1456
  264MOL0     H36416   4.397   8.506   2.605 -1.5818 -1.9538 -0.6850
  264MOL0     H36417   4.621   8.551   2.475 -5.7961 -0.9641 -1.7164
  264MOL0     H36418   5.004   8.358   2.356  0.2736  0.7409 -4.5176
  264MOL0     H36419   5.228   8.348   2.260 -0.8744 -0.1613  0.8809
  264MOL0     H36420   5.440   8.707   2.205 -1.7240 -1.5010 -0.3646
  264MOL0     H36421   5.532   8.651   2.353 -0.3533 -1.2653  1.1895
  264MOL0     H36422   5.689   8.520   2.202 -1.7164  0.7702  2.5272
  264MOL0     H36423   5.680   8.693   2.155 -3.0005  1.8867 -2.2403
  264MOL0     H36424   5.490   8.507   2.021  0.0512 -0.0088  1.5644
  264MOL0     H36425   5.538   8.664   1.970  1.2952  0.3607 -0.6198
  264MOL0     H36426   5.611   8.454   1.851  2.3894  1.8299 -3.2002
  264MOL0     H36427   5.719   8.422   1.987 -1.7529  1.4196  2.6882
  264MOL0     H36428   5.906   8.761   1.814  0.4203 -0.2469  1.6463
  264MOL0     H36429   5.351   8.696   2.462 -0.4600 -0.2992 -2.3640
  264MOL0     H36430   5.171   8.662   2.731 -3.7176 -0.2533  0.6560
  264MOL0     H36431   5.252   8.779   2.611 -1.3449  1.8627 -0.3707
  264MOL0     H36432   5.080   8.783   2.627  2.9160  2.4847 -3.4114
  265MOL0     O36433   4.676  10.631   3.833 -0.5231  0.0523 -0.9418
  265MOL0     C36434   4.721  10.717   3.907  0.6832  0.3990 -0.5603
  265MOL0     O36435   4.683  10.848   3.904  0.5394  0.1571  0.0076
  265MOL0     C36436   4.591  10.882   3.814  1.1237 -0.9846  0.7329
  265MOL0     C36437   4.467  10.939   3.856 -0.8224 -0.0394 -0.2804
  265MOL0     C36438   4.375  10.987   3.761  0.0178 -0.1943 -0.1251
  265MOL0     C36439   4.402  10.982   3.626  0.2963  0.7933  0.7185
  265MOL0     O36440   4.313  11.027   3.529  0.3790 -0.4872 -0.2121
  265MOL0     C36441   4.223  11.133   3.540 -0.5658 -0.6652 -0.6237
  265MOL0     C36442   4.083  11.080   3.529  0.2344  0.3266  0.3980
  265MOL0     C36443   3.985  11.208   3.531 -0.2296  0.1500 -0.5121
  265MOL0     C36444   3.837  11.169   3.521  1.0294  1.3762 -0.5477
  265MOL0     C36445   3.748  11.299   3.520 -0.7524  1.4485 -0.1710
  265MOL0     C36446   3.606  11.261   3.471 -0.8476 -0.6753 -0.3914
  265MOL0     C36447   3.512  11.384   3.493  0.9790  0.2582  0.0597
  265MOL0     C36448   3.372  11.354   3.424  0.3859  0.9673  0.2815
  265MOL0     N36449   3.281  11.468   3.434 -0.2532  0.3475 -0.5499
  265MOL0     C36450   3.219  11.518   3.545  0.2079 -0.1087  0.1201
  265MOL0     C36451   3.141  11.627   3.507 -0.2388  0.1044 -0.3709
  265MOL0     C36452   3.054  11.727   3.593 -0.6961 -0.4715  0.2131
  265MOL0     C36453   3.158  11.815   3.662  0.6541  0.3774 -0.1921
  265MOL0     C36454   3.106  11.949   3.718 -0.1746 -0.2002  0.2918
  265MOL0     C36455   3.228  12.016   3.793  0.4732  0.0996  0.5170
  265MOL0     O36456   3.188  12.128   3.884 -0.0052 -0.4368  0.4606
  265MOL0     C36457   3.192  12.252   3.821  0.4191  0.1073 -1.4423
  265MOL0     C36458   3.158  12.356   3.914  0.2758 -0.7202 -0.9723
  265MOL0     C36459   3.149  12.493   3.872 -0.2682 -0.0128 -0.8510
  265MOL0     C36460   3.106  12.590   3.987 -0.6143 -0.2475  0.8941
  265MOL0     C36461   3.176  12.519   3.738  0.5539  0.8088  1.6957
  265MOL0     C36462   3.168  12.660   3.684  0.2336  0.1128  0.2843
  265MOL0     O36463   3.154  12.755   3.775  0.0560 -0.1919  0.5542
  265MOL0     C36464   3.191  12.888   3.759 -0.2386  0.4894 -0.0417
  265MOL0     C36465   3.299  12.932   3.835  0.1324  0.0885 -0.4376
  265MOL0     C36466   3.319  13.069   3.860 -0.6572  0.3901  0.3392
  265MOL0     C36467   3.242  13.160   3.795  0.2358  0.0133 -0.2331
  265MOL0     O36468   3.242  13.296   3.810  0.3959  0.3073  0.2352
  265MOL0     C36469   3.347  13.361   3.889 -0.4246 -0.4931 -0.9808
  265MOL0     C36470   3.342  13.507   3.857 -0.6146  0.1077 -0.8197
  265MOL0     C36471   3.447  13.587   3.944  0.5131 -0.0167  0.3892
  265MOL0     C36472   3.462  13.719   3.869 -0.0009 -0.3950 -0.6092
  265MOL0     C36473   3.561  13.804   3.953  0.1764  0.3083 -0.6985
  265MOL0     C36474   3.577  13.933   3.877  0.0854 -0.2482 -0.1293
  265MOL0     C36475   3.659  14.044   3.937  0.5256 -0.3797  0.5751
  265MOL0     C36476   3.631  14.178   3.867  0.2546  0.2271 -0.4210
  265MOL0    Cl36477   3.735  14.299   3.959  0.0252 -0.2995 -0.0255
  265MOL0     C36478   3.141  13.116   3.713  0.7262  0.4042  0.4349
  265MOL0     C36479   3.103  12.980   3.698 -0.1666 -0.2964 -0.6174
  265MOL0     O36480   3.163  12.680   3.562 -0.7515 -0.2666 -0.2134
  265MOL0     C36481   3.208  12.419   3.649 -0.1079  0.3510  0.6657
  265MOL0     C36482   3.216  12.291   3.696  1.0086 -0.1404 -0.6111
  265MOL0     N36483   3.161  11.637   3.372 -0.0288 -0.0951 -0.7410
  265MOL0     N36484   3.242  11.543   3.331  0.5413 -0.2276  0.1759
  265MOL0     C36485   4.521  10.921   3.586  0.1472 -0.2016  0.0093
  265MOL0     C36486   4.611  10.879   3.682 -0.3486  0.0723  0.0546
  265MOL0     C36487   4.837  10.690   4.003  0.0612 -0.0833  0.6958
  265MOL0     C36488   4.895  10.797   4.074 -1.8955 -0.2578 -0.1496
  265MOL0     C36489   4.997  10.784   4.169  0.2464  0.4515  0.6449
  265MOL0     C36490   5.051  10.658   4.187 -0.6510  0.5414 -1.7382
  265MOL0     O36491   5.165  10.649   4.267  0.5303  0.2699  0.1151
  265MOL0     C36492   5.239  10.535   4.286 -0.8923 -0.8115 -0.1800
  265MOL0     C36493   5.161  10.442   4.386  0.6269 -0.3862  0.2352
  265MOL0     C36494   5.190  10.471   4.534 -0.3008 -0.0933  0.6476
  265MOL0     C36495   5.080  10.397   4.621 -0.2008 -0.9812  1.0738
  265MOL0     C36496   5.099  10.411   4.766 -0.0765 -0.0507 -0.2746
  265MOL0     C36497   5.124  10.415   4.881  0.0389  0.3511  0.3427
  265MOL0     C36498   4.997  10.550   4.123  0.9893 -0.2333 -0.6374
  265MOL0     C36499   4.889  10.559   4.041  0.8434 -0.6968 -0.4493
  265MOL0     C36500   4.832  10.428   3.980  0.5519 -0.7782  0.0550
  265MOL0     H36501   4.467  10.944   3.964  0.1637 -1.4237 -0.1946
  265MOL0     H36502   4.277  11.027   3.786  0.2186  0.1840  0.0716
  265MOL0     H36503   4.247  11.202   3.459 -0.4754 -1.6929 -1.4988
  265MOL0     H36504   4.248  11.194   3.627 -1.1747 -2.6169  1.0097
  265MOL0     H36505   4.084  11.015   3.442 -3.0225 -0.9034  1.1490
  265MOL0     H36506   4.053  11.015   3.612  0.8314 -2.4351 -1.4120
  265MOL0     H36507   3.992  11.272   3.620 -0.5924 -0.4768 -0.0244
  265MOL0     H36508   4.013  11.266   3.443  0.4034  0.7896  0.0934
  265MOL0     H36509   3.814  11.104   3.436 -1.8625  0.5699  0.7290
  265MOL0     H36510   3.822  11.099   3.603 -2.8778  1.4161 -1.0183
  265MOL0     H36511   3.796  11.368   3.450 -2.4992  1.1241 -1.7722
  265MOL0     H36512   3.743  11.334   3.624  0.3794 -1.0434  0.8071
  265MOL0     H36513   3.602  11.226   3.367 -5.4061 -0.5442 -0.4839
  265MOL0     H36514   3.577  11.171   3.527  0.4344 -0.7923  0.1056
  265MOL0     H36515   3.560  11.477   3.459  1.3562 -0.7803 -2.4642
  265MOL0     H36516   3.484  11.387   3.599  1.2021  1.7822  0.1040
  265MOL0     H36517   3.402  11.339   3.320  2.5897 -2.0271  1.1868
  265MOL0     H36518   3.336  11.266   3.478 -0.8726  1.8740  0.9763
  265MOL0     H36519   3.212  11.481   3.647 -0.1796 -0.2351  0.0516
  265MOL0     H36520   2.987  11.679   3.664 -1.6113 -0.0991 -0.3708
  265MOL0     H36521   3.004  11.788   3.516  3.6970  0.5169 -2.2287
  265MOL0     H36522   3.204  11.756   3.741  0.1728 -0.7271 -0.7081
  265MOL0     H36523   3.231  11.842   3.586 -1.8626 -2.3080 -3.9644
  265MOL0     H36524   3.070  12.009   3.633 -0.1223 -1.2128 -0.4663
  265MOL0     H36525   3.016  11.942   3.778 -0.6351  0.2326 -0.3317
  265MOL0     H36526   3.275  11.938   3.854 -1.3477 -4.3612 -3.2043
  265MOL0     H36527   3.308  12.041   3.723 -2.9424 -0.2806 -3.9257
  265MOL0     H36528   3.121  12.334   4.014 -2.6698  2.6474 -1.1136
  265MOL0     H36529   3.010  12.642   3.974  0.3643  1.9466  1.9621
  265MOL0     H36530   3.191  12.659   3.992  1.2675 -2.2594 -0.8991
  265MOL0     H36531   3.099  12.543   4.085 -2.2022  1.4640  1.6552
  265MOL0     H36532   3.356  12.870   3.902 -2.0271  0.6092  2.0498
  265MOL0     H36533   3.388  13.100   3.938  0.4029  1.2968 -0.9143
  265MOL0     H36534   3.345  13.342   3.997  2.4935 -0.8220 -0.9068
  265MOL0     H36535   3.444  13.342   3.843  0.2662  2.2820 -0.8672
  265MOL0     H36536   3.358  13.515   3.749  1.5536 -0.5769 -0.5891
  265MOL0     H36537   3.242  13.541   3.889 -0.7150 -0.1897 -0.8163
  265MOL0     H36538   3.541  13.535   3.961 -0.7551 -1.8823  2.0823
  265MOL0     H36539   3.398  13.607   4.039  1.1982  0.6544  0.6112
  265MOL0     H36540   3.371  13.778   3.860  1.4517  2.3609  1.0812
  265MOL0     H36541   3.512  13.695   3.775  2.6350 -0.9678  0.8087
  265MOL0     H36542   3.513  13.834   4.046  0.1555 -1.3418 -0.1522
  265MOL0     H36543   3.656  13.752   3.969  0.9763  1.6503 -0.9337
  265MOL0     H36544   3.477  13.977   3.880 -0.6742 -1.6557 -2.5102
  265MOL0     H36545   3.604  13.915   3.772  0.9984 -1.6606  0.3017
  265MOL0     H36546   3.763  14.010   3.937  0.3212 -1.0133  0.4074
  265MOL0     H36547   3.630  14.056   4.042  1.2731  0.9456  0.6640
  265MOL0     H36548   3.526  14.205   3.884 -0.3383 -2.7424  1.2934
  265MOL0     H36549   3.647  14.183   3.759  0.4145  0.2753 -0.3943
  265MOL0     H36550   3.076  13.192   3.672 -0.2863 -1.9945 -2.8541
  265MOL0     H36551   3.021  12.948   3.635 -0.2717  2.6206 -2.1462
  265MOL0     H36552   3.222  12.431   3.542 -1.8703 -0.0523  0.3611
  265MOL0     H36553   3.236  12.220   3.616  4.0447 -0.0680 -0.0258
  265MOL0     H36554   4.547  10.927   3.481  3.3813  3.4700  0.7600
  265MOL0     H36555   4.712  10.859   3.648 -0.5917 -0.4301 -0.3909
  265MOL0     H36556   4.869  10.897   4.040  0.2076 -0.6822 -3.5434
  265MOL0     H36557   5.041  10.870   4.219 -0.3767  1.2697 -0.1907
  265MOL0     H36558   5.243  10.479   4.193 -1.8313 -4.3766  1.7293
  265MOL0     H36559   5.339  10.569   4.314 -0.7836  2.0270 -3.4149
  265MOL0     H36560   5.188  10.340   4.356 -2.3509 -0.3644 -3.2604
  265MOL0     H36561   5.052  10.456   4.382  0.7204  1.5738  2.5631
  265MOL0     H36562   5.288  10.432   4.562  0.0264 -1.8837 -2.5129
  265MOL0     H36563   5.197  10.580   4.545  1.4214  0.0260 -1.1393
  265MOL0     H36564   5.089  10.290   4.603  0.0923 -1.0119  1.4127
  265MOL0     H36565   4.981  10.433   4.589  0.1232 -0.8183  0.2424
  265MOL0     H36566   5.153  10.434   4.983  1.0986 -0.2256  0.1613
  265MOL0     H36567   5.033  10.449   4.134  0.8958 -0.4540 -2.0711
  265MOL0     H36568   4.725  10.437   3.958  0.3068 -0.2458  1.3812
  265MOL0     H36569   4.891  10.403   3.891  0.0068  1.6614 -1.1029
  265MOL0     H36570   4.847  10.342   4.045  1.3868 -1.1277 -0.5670
  266MOL0     O36571   8.053   5.303   5.203  0.9264 -0.2770 -0.2771
  266MOL0     C36572   8.131   5.333   5.296 -0.0878 -0.4254 -0.1520
  266MOL0     O36573   8.248   5.269   5.328 -0.0398 -0.2661 -0.2862
  266MOL0     C36574   8.283   5.165   5.248 -0.3222 -1.0273 -0.1826
  266MOL0     C36575   8.306   5.182   5.112 -0.1388 -0.7376  0.6249
  266MOL0     C36576   8.353   5.070   5.042  0.1347  0.5250 -0.6484
  266MOL0     C36577   8.393   4.944   5.097 -0.7255  0.2662 -0.1344
  266MOL0     O36578   8.441   4.834   5.019  0.2757  0.4813 -0.4390
  266MOL0     C36579   8.374   4.807   4.894 -0.1370 -0.2827  0.4038
  266MOL0     C36580   8.432   4.685   4.822 -0.1151 -0.1383 -0.3962
  266MOL0     C36581   8.578   4.706   4.786 -0.1871  0.5104 -0.4738
  266MOL0     C36582   8.645   4.569   4.767 -1.0543  0.4345  0.4219
  266MOL0     C36583   8.689   4.523   4.906 -0.0918 -0.0701  0.0166
  266MOL0     C36584   8.812   4.605   4.958  0.0705  0.1012 -0.1429
  266MOL0     C36585   8.814   4.622   5.119  0.0858  0.5229 -0.2503
  266MOL0     C36586   8.728   4.732   5.176 -0.5519 -0.5049  0.0892
  266MOL0     N36587   8.766   4.780   5.304 -0.2766 -0.7627  0.3559
  266MOL0     C36588   8.900   4.794   5.334  0.2487  0.5643  0.9776
  266MOL0     C36589   8.897   4.866   5.455  0.3218 -0.1328 -0.8868
  266MOL0     C36590   9.023   4.885   5.535  0.5712 -0.2870  0.1963
  266MOL0     C36591   9.091   5.021   5.508  0.1908  0.5086  0.3323
  266MOL0     C36592   9.206   5.028   5.608 -0.1305 -1.1744  0.0176
  266MOL0     C36593   9.282   5.160   5.577  0.1743 -0.2391 -1.2051
  266MOL0     O36594   9.367   5.157   5.461 -0.6116 -0.3738 -0.8933
  266MOL0     C36595   9.462   5.251   5.462 -1.4242  0.8711  1.1189
  266MOL0     C36596   9.447   5.381   5.505  0.3135 -0.0914 -0.1057
  266MOL0     C36597   9.540   5.480   5.481 -0.2073 -0.5186  0.3639
  266MOL0     C36598   9.506   5.631   5.520  0.4084 -0.1830  0.8404
  266MOL0     C36599   9.661   5.439   5.426  1.0602  0.9318 -0.6427
  266MOL0     C36600   9.773   5.528   5.406 -1.0143 -0.1082  0.4240
  266MOL0     O36601   9.755   5.654   5.410  0.1839 -0.0511 -0.2133
  266MOL0     C36602   9.860   5.744   5.397  1.4144  0.2043 -1.0347
  266MOL0     C36603   9.845   5.841   5.305 -0.1119  0.4963  0.0699
  266MOL0     C36604   9.949   5.933   5.303 -0.4405 -0.0697  0.1826
  266MOL0     C36605  10.058   5.936   5.392 -0.3189 -0.0710 -0.8996
  266MOL0     O36606  10.157   6.033   5.366 -0.2293 -1.0020  0.7413
  266MOL0     C36607  10.262   6.041   5.460 -1.1430  0.0622  0.5005
  266MOL0     C36608  10.309   6.189   5.476 -0.6600 -0.9660 -0.1365
  266MOL0     C36609  10.209   6.306   5.452  0.5360 -0.0483 -0.5462
  266MOL0     C36610  10.222   6.405   5.567 -0.3008  0.2574 -0.2742
  266MOL0     C36611  10.132   6.522   5.545 -1.1639  0.5610 -0.1506
  266MOL0     C36612  10.113   6.607   5.673  0.1689 -0.6838 -0.7650
  266MOL0     C36613  10.247   6.688   5.707  0.2516 -0.1896 -0.3932
  266MOL0     C36614  10.223   6.760   5.838 -0.0028 -0.6766 -0.6999
  266MOL0    Cl36615  10.203   6.632   5.968  0.6764  0.1356  0.4178
  266MOL0     C36616  10.055   5.839   5.496 -0.4551  0.2619 -0.5434
  266MOL0     C36617   9.954   5.752   5.497  0.3561 -0.7280 -0.5998
  266MOL0     O36618   9.881   5.482   5.390 -0.4128 -0.4530  0.7090
  266MOL0     C36619   9.684   5.302   5.399 -0.6034 -0.1877  0.1511
  266MOL0     C36620   9.589   5.211   5.420 -0.3758 -0.0193  0.2474
  266MOL0     N36621   8.768   4.911   5.473 -0.0931  0.0673  0.1246
  266MOL0     N36622   8.698   4.875   5.379 -0.1034 -0.1447  0.2220
  266MOL0     C36623   8.362   4.931   5.235 -0.7014 -0.2257 -0.2267
  266MOL0     C36624   8.318   5.043   5.307  0.8597  0.4110  0.0685
  266MOL0     C36625   8.098   5.441   5.392 -0.1185  0.8233 -0.1410
  266MOL0     C36626   8.062   5.407   5.527  0.4885  0.1340 -0.0720
  266MOL0     C36627   7.999   5.499   5.610  0.4167  0.6159  0.0551
  266MOL0     C36628   7.987   5.631   5.573 -0.1717 -0.1154 -0.9406
  266MOL0     O36629   7.911   5.709   5.653 -0.1573  0.3932  0.2838
  266MOL0     C36630   7.888   5.833   5.609  0.4906 -0.3883 -0.2822
  266MOL0     C36631   7.815   5.918   5.714 -0.2237  0.0163  0.5667
  266MOL0     C36632   7.888   5.932   5.852  0.3471  0.3074  0.1171
  266MOL0     C36633   7.832   6.042   5.952 -0.3758 -0.1924  0.7728
  266MOL0     C36634   7.901   6.056   6.085  0.0163 -0.1331  1.2057
  266MOL0     C36635   7.979   6.061   6.180  0.7384 -0.5389  0.4454
  266MOL0     C36636   8.028   5.671   5.441 -0.2373 -0.8914 -0.5626
  266MOL0     C36637   8.078   5.577   5.350 -1.0961  0.4117  0.1141
  266MOL0     C36638   8.114   5.609   5.209  0.5154  0.0553  0.5868
  266MOL0     H36639   8.296   5.275   5.058  0.0876 -0.6376  0.7525
  266MOL0     H36640   8.385   5.084   4.939  1.9364  0.3330 -0.1378
  266MOL0     H36641   8.375   4.897   4.832 -0.3383 -1.2380 -1.0303
  266MOL0     H36642   8.270   4.778   4.916 -1.0459  1.9521 -0.5700
  266MOL0     H36643   8.417   4.607   4.897 -1.3539  1.1236  0.6999
  266MOL0     H36644   8.371   4.674   4.732  1.0581 -0.3443 -1.1942
  266MOL0     H36645   8.582   4.764   4.693  3.6220  2.7928  0.8670
  266MOL0     H36646   8.623   4.759   4.871 -0.5104 -0.8595  0.5855
  266MOL0     H36647   8.569   4.502   4.724  0.0870 -0.4454 -0.3124
  266MOL0     H36648   8.728   4.582   4.697 -3.0414  2.2060 -1.7890
  266MOL0     H36649   8.714   4.416   4.903 -1.9699 -0.5220 -0.3774
  266MOL0     H36650   8.603   4.525   4.973 -0.8058 -0.3307 -0.8690
  266MOL0     H36651   8.903   4.558   4.918 -1.7177 -1.4149 -2.6999
  266MOL0     H36652   8.809   4.705   4.912  0.0307  0.3785  0.4499
  266MOL0     H36653   8.919   4.648   5.134  0.4658 -1.3131  0.5121
  266MOL0     H36654   8.789   4.525   5.162  0.0764  0.2054 -0.9566
  266MOL0     H36655   8.727   4.812   5.101 -1.1219 -0.6277 -0.0386
  266MOL0     H36656   8.630   4.689   5.199 -0.8536 -0.1265 -0.4530
  266MOL0     H36657   8.983   4.774   5.268  0.2174  2.3066  0.3501
  266MOL0     H36658   9.094   4.810   5.500  0.8190  0.7371 -1.6620
  266MOL0     H36659   8.995   4.865   5.639  0.5359 -2.3244 -0.1683
  266MOL0     H36660   9.130   5.010   5.407  2.4895  1.2189  1.0753
  266MOL0     H36661   9.026   5.107   5.497 -1.2885 -0.5268  0.6716
  266MOL0     H36662   9.172   5.044   5.711  0.7956 -3.0388  0.6731
  266MOL0     H36663   9.282   4.949   5.611  0.6436 -0.4315  0.6342
  266MOL0     H36664   9.201   5.228   5.550  0.3446  0.0646 -0.9595
  266MOL0     H36665   9.328   5.190   5.672 -0.7272 -0.0744 -0.8116
  266MOL0     H36666   9.352   5.410   5.549  0.0112 -0.5541 -0.4534
  266MOL0     H36667   9.398   5.647   5.515  0.5292  1.3275 -5.9313
  266MOL0     H36668   9.539   5.705   5.447  2.8336 -2.3686 -0.4418
  266MOL0     H36669   9.551   5.654   5.617  1.7172  0.7807  0.0262
  266MOL0     H36670   9.757   5.834   5.242 -1.4835 -2.9438  2.0878
  266MOL0     H36671   9.940   6.001   5.218  3.1576  1.2179  0.6988
  266MOL0     H36672  10.241   6.003   5.561 -0.1559 -0.1504  0.6426
  266MOL0     H36673  10.350   5.988   5.421 -2.4207 -0.3041 -2.0914
  266MOL0     H36674  10.363   6.193   5.571  0.4092 -0.4635 -0.7459
  266MOL0     H36675  10.385   6.190   5.397 -3.3355  1.5007 -3.0197
  266MOL0     H36676  10.109   6.262   5.443 -0.3963  1.3077  2.0142
  266MOL0     H36677  10.238   6.356   5.359  1.6449  1.8445  0.7539
  266MOL0     H36678  10.328   6.431   5.580 -0.9530  2.4978  1.1256
  266MOL0     H36679  10.191   6.341   5.650  0.4948 -1.4147 -1.2104
  266MOL0     H36680  10.198   6.572   5.472  0.7024  0.7531  1.5823
  266MOL0     H36681  10.046   6.502   5.481  0.6074 -2.5433 -1.8334
  266MOL0     H36682  10.087   6.540   5.756  1.9420 -1.8734 -1.1083
  266MOL0     H36683  10.035   6.681   5.654  0.8848 -0.5564 -3.5218
  266MOL0     H36684  10.277   6.754   5.626  3.2562 -1.6944 -0.6467
  266MOL0     H36685  10.331   6.618   5.711  0.4595 -0.0351 -1.5830
  266MOL0     H36686  10.131   6.817   5.831  0.3237 -0.0604 -0.1426
  266MOL0     H36687  10.303   6.828   5.870 -0.2014 -0.9595  0.4420
  266MOL0     H36688  10.132   5.828   5.572 -3.1757 -0.3621  2.3174
  266MOL0     H36689   9.947   5.671   5.569 -0.4884  0.9166  1.2518
  266MOL0     H36690   9.779   5.262   5.365 -2.1184 -2.3501 -1.9090
  266MOL0     H36691   9.620   5.108   5.401  4.0457  0.4741  3.2403
  266MOL0     H36692   8.390   4.836   5.280  4.8186  1.3377  0.4282
  266MOL0     H36693   8.309   5.027   5.414 -0.5727 -4.0199 -0.5259
  266MOL0     H36694   8.085   5.304   5.554  1.7553 -0.6007 -3.4457
  266MOL0     H36695   7.961   5.478   5.710 -0.5376  0.0305 -0.4132
  266MOL0     H36696   7.988   5.870   5.583  1.1132 -1.3899  0.6491
  266MOL0     H36697   7.826   5.827   5.518  0.0243  1.0393 -0.0975
  266MOL0     H36698   7.714   5.878   5.727  0.2724 -2.0475 -1.2840
  266MOL0     H36699   7.806   6.019   5.676 -1.5226  0.0125  0.8002
  266MOL0     H36700   7.892   5.838   5.909  2.9775  1.6128  2.3207
  266MOL0     H36701   7.995   5.936   5.830 -0.2258  0.6373 -2.9449
  266MOL0     H36702   7.735   5.996   5.968  0.3146 -0.9289  3.2903
  266MOL0     H36703   7.833   6.143   5.910  2.7532 -0.6984 -0.6702
  266MOL0     H36704   8.051   6.070   6.259 -0.3911 -1.8678  1.6811
  266MOL0     H36705   8.013   5.772   5.404 -2.8462 -0.5333  1.1919
  266MOL0     H36706   8.205   5.563   5.169 -1.4862 -3.5861 -0.1691
  266MOL0     H36707   8.034   5.583   5.140 -0.3239  2.8780  0.3788
  266MOL0     H36708   8.119   5.717   5.194 -1.8907 -0.2037 -3.0711
  267MOL0     O36709   2.724   1.504   1.436 -0.0488 -0.3106 -0.5420
  267MOL0     C36710   2.844   1.521   1.446 -0.1748 -0.0047 -0.0396
  267MOL0     O36711   2.896   1.616   1.531 -0.7327 -0.6757 -0.3309
  267MOL0     C36712   2.810   1.684   1.622  0.2857  0.6860  0.4545
  267MOL0     C36713   2.687   1.738   1.590 -0.0055 -0.2041 -0.0016
  267MOL0     C36714   2.608   1.802   1.694 -0.3714 -0.0505 -0.4919
  267MOL0     C36715   2.664   1.835   1.822 -0.0374  0.3299 -0.2556
  267MOL0     O36716   2.591   1.917   1.904 -0.0996 -0.7986  0.5627
  267MOL0     C36717   2.655   2.024   1.964  0.4617  0.4955  0.1014
  267MOL0     C36718   2.570   2.090   2.078  0.2905 -0.4290  0.5823
  267MOL0     C36719   2.581   2.040   2.224 -0.0470 -0.7422  0.3842
  267MOL0     C36720   2.470   2.083   2.309  0.7336 -0.3758 -0.5913
  267MOL0     C36721   2.437   2.244   2.316 -0.4295  0.2158  0.0164
  267MOL0     C36722   2.314   2.280   2.412 -0.6930  0.3137 -0.2165
  267MOL0     C36723   2.316   2.425   2.454  0.5741 -0.7057 -0.3816
  267MOL0     C36724   2.433   2.463   2.548 -0.5126 -1.2293  1.0630
  267MOL0     N36725   2.435   2.396   2.679 -0.8062 -0.4834 -0.8230
  267MOL0     C36726   2.553   2.354   2.731 -0.7969  0.3610  0.3790
  267MOL0     C36727   2.549   2.380   2.866 -0.4498  0.7339  0.1893
  267MOL0     C36728   2.648   2.330   2.969  1.2016 -0.4433  0.1527
  267MOL0     C36729   2.690   2.429   3.076  0.1358 -0.0197  0.7777
  267MOL0     C36730   2.729   2.573   3.033 -0.3459  0.4908  0.0685
  267MOL0     C36731   2.883   2.567   3.006  0.2203 -0.0615 -0.3076
  267MOL0     O36732   2.905   2.506   2.874  0.4185  0.0347  0.0913
  267MOL0     C36733   2.890   2.551   2.745  0.4674 -0.1632 -0.0448
  267MOL0     C36734   2.937   2.471   2.650 -0.0955  0.6112  0.7011
  267MOL0     C36735   2.932   2.515   2.509 -1.1620  0.4200  0.5890
  267MOL0     C36736   3.010   2.423   2.407  0.7538 -0.4260 -0.9464
  267MOL0     C36737   2.882   2.646   2.475  0.2262 -0.0822 -0.1067
  267MOL0     C36738   2.868   2.707   2.334 -0.8158  0.3710  0.2225
  267MOL0     O36739   2.789   2.818   2.337 -0.5404 -0.5246  0.0909
  267MOL0     C36740   2.781   2.914   2.241  0.1929 -0.5142 -0.9958
  267MOL0     C36741   2.852   2.926   2.128 -0.8553 -0.7423 -0.5317
  267MOL0     C36742   2.840   3.048   2.053 -0.1166  0.4513 -0.1590
  267MOL0     C36743   2.743   3.147   2.071 -0.2794  1.0059 -0.9944
  267MOL0     O36744   2.708   3.247   1.980  0.8049  0.0730 -0.5841
  267MOL0     C36745   2.818   3.296   1.901  0.0854 -0.0797  0.5243
  267MOL0     C36746   2.770   3.437   1.870  0.8055  0.3246 -0.0835
  267MOL0     C36747   2.758   3.525   1.984  0.2136 -0.6190  0.1717
  267MOL0     C36748   2.681   3.652   1.935 -0.2428 -0.3167 -0.3500
  267MOL0     C36749   2.690   3.758   2.042 -0.4746  0.3415 -0.3177
  267MOL0     C36750   2.645   3.712   2.178 -0.1103 -0.3567 -0.1676
  267MOL0     C36751   2.606   3.813   2.290  0.6171 -0.7228  0.7901
  267MOL0     C36752   2.484   3.877   2.239 -0.1728 -0.4692  0.0189
  267MOL0    Cl36753   2.442   4.008   2.348 -0.3147  0.0706  0.2786
  267MOL0     C36754   2.666   3.115   2.176  0.0506 -0.5954  0.5770
  267MOL0     C36755   2.685   3.013   2.263  0.0823  0.4065  0.6924
  267MOL0     O36756   2.916   2.655   2.235  0.3651 -0.0004 -0.2137
  267MOL0     C36757   2.834   2.723   2.583 -0.0623 -0.0263 -0.2688
  267MOL0     C36758   2.836   2.673   2.717 -0.1245 -0.0197  0.2554
  267MOL0     N36759   2.432   2.442   2.889  0.5189 -0.1074  0.4454
  267MOL0     N36760   2.363   2.450   2.780 -0.1223  0.1968 -0.5458
  267MOL0     C36761   2.796   1.791   1.842  0.0912  0.4262 -0.6161
  267MOL0     C36762   2.858   1.710   1.750  0.0398 -0.4440  0.2375
  267MOL0     C36763   2.934   1.423   1.368 -1.0898 -0.0935  0.1380
  267MOL0     C36764   3.073   1.438   1.399 -0.9202 -0.8982  0.3698
  267MOL0     C36765   3.167   1.356   1.340  0.4630  0.1557 -0.7768
  267MOL0     C36766   3.129   1.242   1.263  0.1947  0.1705 -0.2646
  267MOL0     O36767   3.232   1.178   1.197  0.3204 -0.3900 -0.2147
  267MOL0     C36768   3.197   1.067   1.106 -0.3618 -1.1926  0.0706
  267MOL0     C36769   3.327   0.990   1.099  0.3144  1.4345  0.8501
  267MOL0     C36770   3.335   0.913   1.236 -0.1835  0.1897  0.6390
  267MOL0     C36771   3.436   0.790   1.236 -0.8858 -0.0947 -1.6935
  267MOL0     C36772   3.567   0.839   1.261 -0.7459  0.3771 -0.3684
  267MOL0     C36773   3.679   0.887   1.264 -0.0770  0.2531 -1.0840
  267MOL0     C36774   2.995   1.227   1.249  0.5033  1.3094 -0.0432
  267MOL0     C36775   2.893   1.302   1.296 -0.3019 -0.0918 -0.5649
  267MOL0     C36776   2.751   1.247   1.289  0.7846 -0.2906 -0.8260
  267MOL0     H36777   2.635   1.741   1.495 -0.0301 -1.8784 -0.0762
  267MOL0     H36778   2.510   1.845   1.674 -1.0873 -0.3498  1.9909
  267MOL0     H36779   2.655   2.091   1.877 -0.1717 -0.5848 -0.7556
  267MOL0     H36780   2.750   1.999   2.013  0.5771  0.7431  0.0050
  267MOL0     H36781   2.596   2.196   2.091 -1.4196  0.0099  0.6503
  267MOL0     H36782   2.465   2.080   2.050  0.2807 -1.1005  0.8432
  267MOL0     H36783   2.594   1.932   2.228 -0.5582 -0.8474 -0.4964
  267MOL0     H36784   2.665   2.082   2.280  1.2682 -2.7887  0.0799
  267MOL0     H36785   2.382   2.032   2.270 -0.6309  0.2949  1.4396
  267MOL0     H36786   2.483   2.048   2.412  0.8256  0.6051 -0.2626
  267MOL0     H36787   2.419   2.285   2.216 -1.4134 -1.9137 -0.7502
  267MOL0     H36788   2.527   2.293   2.353 -0.5486  1.1999 -0.9309
  267MOL0     H36789   2.214   2.255   2.375 -2.1473 -1.4430  4.2063
  267MOL0     H36790   2.326   2.220   2.503 -2.6583  1.5044  0.9090
  267MOL0     H36791   2.220   2.443   2.503  0.5922 -2.5959  0.4601
  267MOL0     H36792   2.319   2.485   2.363  0.0030 -0.1273 -0.0302
  267MOL0     H36793   2.528   2.443   2.496 -1.6839 -0.3147 -1.6335
  267MOL0     H36794   2.433   2.571   2.567  4.4731 -0.8774  0.4270
  267MOL0     H36795   2.636   2.307   2.678 -0.0721 -0.8549  2.4678
  267MOL0     H36796   2.741   2.315   2.914  2.0314  0.4967  1.2558
  267MOL0     H36797   2.612   2.234   3.007 -2.7885  0.6922 -0.2307
  267MOL0     H36798   2.601   2.451   3.136 -0.1149  2.7454 -0.4161
  267MOL0     H36799   2.767   2.387   3.140 -1.1152 -2.7086  0.6471
  267MOL0     H36800   2.677   2.607   2.943  4.1729  1.4491 -2.4746
  267MOL0     H36801   2.713   2.644   3.115  3.6939  0.9634  0.6816
  267MOL0     H36802   2.919   2.670   3.001 -0.7536  0.4254  1.6399
  267MOL0     H36803   2.932   2.501   3.078  0.6253 -1.6492 -1.9908
  267MOL0     H36804   3.004   2.392   2.683  2.5981  3.8543  3.9731
  267MOL0     H36805   3.069   2.492   2.346 -0.5856  1.8175  0.1467
  267MOL0     H36806   2.932   2.383   2.342 -1.0695 -0.6205  1.2192
  267MOL0     H36807   3.068   2.348   2.461 -1.6576 -2.2522 -0.7439
  267MOL0     H36808   2.925   2.855   2.091  1.6761  0.2384  2.1960
  267MOL0     H36809   2.900   3.058   1.964  1.0741  0.7907  0.6529
  267MOL0     H36810   2.911   3.293   1.959  0.7298 -2.3161 -0.5440
  267MOL0     H36811   2.823   3.240   1.808 -0.5257 -0.4629  0.7156
  267MOL0     H36812   2.833   3.480   1.792  1.2088 -0.5136 -0.2360
  267MOL0     H36813   2.672   3.434   1.822  1.0679  3.1232 -0.9577
  267MOL0     H36814   2.855   3.553   2.025  0.3871  1.2151 -1.3607
  267MOL0     H36815   2.706   3.483   2.071 -0.6078 -1.7527 -0.8250
  267MOL0     H36816   2.578   3.633   1.903 -1.0144  3.5214 -0.6055
  267MOL0     H36817   2.724   3.691   1.842 -0.6365  2.0122  0.3833
  267MOL0     H36818   2.791   3.793   2.066 -0.7612 -0.1838  1.8912
  267MOL0     H36819   2.634   3.845   2.008  1.1650  0.8109 -1.9483
  267MOL0     H36820   2.731   3.658   2.218  0.9292  3.1685  2.8696
  267MOL0     H36821   2.555   3.649   2.171 -2.6099  1.9576  5.1436
  267MOL0     H36822   2.681   3.888   2.314 -1.1331  1.7051 -0.8506
  267MOL0     H36823   2.597   3.760   2.385 -0.2212  0.9568  1.7011
  267MOL0     H36824   2.413   3.795   2.256  1.1759 -1.9193 -1.1084
  267MOL0     H36825   2.486   3.901   2.133  0.8365  0.7372  0.2800
  267MOL0     H36826   2.589   3.186   2.202  2.6722  2.2009  1.2498
  267MOL0     H36827   2.608   2.994   2.337  0.8010 -1.6179  0.9781
  267MOL0     H36828   2.794   2.822   2.564 -0.3558 -0.2101 -0.6154
  267MOL0     H36829   2.784   2.726   2.796 -1.7888  0.8905 -1.3648
  267MOL0     H36830   2.848   1.827   1.930 -1.7856  2.3382 -0.2098
  267MOL0     H36831   2.962   1.681   1.762 -0.0776  0.0922  3.7032
  267MOL0     H36832   3.110   1.512   1.469 -0.4712 -1.2093  0.4686
  267MOL0     H36833   3.273   1.356   1.361  0.8366 -0.5295 -2.4434
  267MOL0     H36834   3.103   1.017   1.129 -0.9312 -0.0729  0.2478
  267MOL0     H36835   3.191   1.109   1.005  3.2602 -1.9572 -0.6178
  267MOL0     H36836   3.417   1.050   1.085  1.1940  0.2051  0.9911
  267MOL0     H36837   3.327   0.920   1.015 -2.0114  3.3621 -0.8826
  267MOL0     H36838   3.358   0.985   1.315 -0.2776 -0.1231  0.9575
  267MOL0     H36839   3.233   0.876   1.253 -0.5770  2.0570  2.7944
  267MOL0     H36840   3.423   0.714   1.158 -1.1996 -0.4328 -1.3189
  267MOL0     H36841   3.417   0.741   1.332 -1.0120  4.4543  0.8297
  267MOL0     H36842   3.777   0.931   1.262 -0.4649  1.1328 -2.4716
  267MOL0     H36843   2.959   1.138   1.199 -1.5576  3.7631 -3.2671
  267MOL0     H36844   2.715   1.229   1.390 -2.3986  2.0318 -1.3894
  267MOL0     H36845   2.693   1.310   1.221 -0.2629 -1.6375 -1.2236
  267MOL0     H36846   2.737   1.150   1.240 -0.7897 -0.5976  0.1664
  268MOL0     O36847   8.897   5.838  11.248 -0.8077  0.3778  0.2917
  268MOL0     C36848   8.877   5.942  11.187 -0.2493 -1.8301 -0.3810
  268MOL0     O36849   8.981   6.025  11.157  0.5187  0.3696  0.6361
  268MOL0     C36850   9.104   5.982  11.184 -0.1293  0.3373  0.0458
  268MOL0     C36851   9.165   6.034  11.295  0.3798 -0.6865  0.3220
  268MOL0     C36852   9.284   5.993  11.343 -0.5007 -0.9069  0.6630
  268MOL0     C36853   9.354   5.889  11.290 -0.2836 -0.2590 -0.0028
  268MOL0     O36854   9.449   5.826  11.364  0.0855 -0.5648  0.5975
  268MOL0     C36855   9.400   5.772  11.489  0.1880  0.3439  0.5987
  268MOL0     C36856   9.504   5.663  11.525  0.4770 -0.0888  0.5376
  268MOL0     C36857   9.487   5.533  11.448  0.4204 -0.8790 -0.2756
  268MOL0     C36858   9.588   5.420  11.480 -0.3321  0.5618  0.7381
  268MOL0     C36859   9.598   5.390  11.626  1.2569 -0.0515  0.1798
  268MOL0     C36860   9.693   5.284  11.669  0.1514  0.7190  0.2614
  268MOL0     C36861   9.841   5.315  11.640  1.1067  0.8869  0.5043
  268MOL0     C36862   9.932   5.186  11.639 -0.6808 -0.7774  0.3255
  268MOL0     N36863  10.006   5.164  11.775 -0.8287 -0.6494  0.4633
  268MOL0     C36864   9.991   5.046  11.854  0.9743 -1.2423 -0.3372
  268MOL0     C36865  10.112   5.035  11.922  0.6836  0.1560  0.1677
  268MOL0     C36866  10.157   4.933  12.020 -0.1695  0.0925 -0.4199
  268MOL0     C36867  10.270   4.994  12.118  0.9342  0.1714  0.3642
  268MOL0     C36868  10.311   4.907  12.237 -0.1843 -1.2091 -0.0586
  268MOL0     C36869  10.204   4.897  12.346  1.2486  0.2485  0.7016
  268MOL0     O36870  10.125   4.786  12.295  0.2403 -0.5567  0.1202
  268MOL0     C36871  10.058   4.707  12.378  0.2354 -1.0517 -1.1134
  268MOL0     C36872  10.028   4.733  12.512 -0.7299  0.2052 -0.9694
  268MOL0     C36873   9.961   4.640  12.591 -0.0385  0.0299  1.1097
  268MOL0     C36874   9.926   4.697  12.727  0.2932 -0.5118  0.3492
  268MOL0     C36875   9.925   4.509  12.542  0.0285  0.6110  0.3395
  268MOL0     C36876   9.868   4.388  12.614 -0.2502  0.0393 -0.1354
  268MOL0     O36877   9.857   4.266  12.553 -0.3894 -0.1557 -0.1092
  268MOL0     C36878   9.836   4.146  12.612  0.2655 -0.1845 -0.2127
  268MOL0     C36879   9.763   4.117  12.723 -0.9486 -0.2787  0.2469
  268MOL0     C36880   9.731   3.984  12.771  0.7510 -0.6018 -0.2157
  268MOL0     C36881   9.802   3.877  12.724 -0.0965 -0.4472 -0.1040
  268MOL0     O36882   9.786   3.762  12.783 -0.3918  0.4715 -0.3873
  268MOL0     C36883   9.902   3.664  12.802  0.3384 -0.8639 -0.5307
  268MOL0     C36884   9.885   3.546  12.905  0.0405 -1.0842  0.1736
  268MOL0     C36885   9.838   3.594  13.047  0.5565 -0.4856 -0.4391
  268MOL0     C36886   9.953   3.659  13.133 -0.0344  0.3028 -0.7782
  268MOL0     C36887   9.911   3.680  13.278 -0.5271  0.3335  1.2297
  268MOL0     C36888   9.867   3.557  13.359  0.4545 -0.9537  0.0506
  268MOL0     C36889   9.966   3.436  13.389  0.4884  0.3462  0.0890
  268MOL0     C36890   9.911   3.293  13.365 -0.2818  0.6019  0.0081
  268MOL0    Cl36891   9.933   3.259  13.177  0.2275  0.3056 -0.2364
  268MOL0     C36892   9.892   3.905  12.617 -0.7776  0.8372  0.0736
  268MOL0     C36893   9.908   4.030  12.565  0.2401  0.5638  0.1051
  268MOL0     O36894   9.868   4.400  12.733 -0.0663 -0.6381  0.1928
  268MOL0     C36895   9.930   4.492  12.393 -0.6146 -0.2520 -0.1007
  268MOL0     C36896   9.999   4.589  12.319 -0.0303  0.9248  0.4675
  268MOL0     N36897  10.189   5.155  11.892  0.0399 -0.1792  0.3955
  268MOL0     N36898  10.132   5.217  11.801  0.7758  0.2494 -0.1843
  268MOL0     C36899   9.303   5.829  11.177 -1.1400  1.0204  0.2497
  268MOL0     C36900   9.180   5.874  11.125  0.3629  0.7880 -0.1793
  268MOL0     C36901   8.742   5.955  11.132 -0.1520 -0.4471 -0.5612
  268MOL0     C36902   8.630   5.953  11.217  0.6958  0.7395 -0.0930
  268MOL0     C36903   8.496   5.966  11.164  0.0139 -0.3057  0.0061
  268MOL0     C36904   8.476   6.017  11.039  0.1005  0.4321 -0.1946
  268MOL0     O36905   8.349   6.038  10.997 -0.1140 -0.1721 -0.6646
  268MOL0     C36906   8.325   6.098  10.867  0.5793 -0.3257  0.1282
  268MOL0     C36907   8.333   5.987  10.762 -0.8999 -0.8604 -0.4676
  268MOL0     C36908   8.208   5.896  10.746  0.2224  0.5418 -1.5477
  268MOL0     C36909   8.196   5.814  10.623 -0.1478 -0.0162  0.5852
  268MOL0     C36910   8.317   5.732  10.610  0.5274 -0.6308 -0.3037
  268MOL0     C36911   8.424   5.682  10.598 -0.2535 -0.3215  0.3745
  268MOL0     C36912   8.592   6.030  10.957 -0.4176  0.2998 -0.2998
  268MOL0     C36913   8.723   5.989  11.000 -0.0762 -0.0616  0.4143
  268MOL0     C36914   8.832   5.987  10.892  0.8295 -0.2640  0.2971
  268MOL0     H36915   9.109   6.115  11.340 -0.3820 -0.0255 -1.6933
  268MOL0     H36916   9.329   6.046  11.427 -0.8149  1.5111 -0.5834
  268MOL0     H36917   9.300   5.729  11.482  0.2264  0.3847 -0.4189
  268MOL0     H36918   9.394   5.842  11.572 -3.6437 -0.3587  1.0622
  268MOL0     H36919   9.601   5.704  11.497  0.0673  0.3706 -0.2503
  268MOL0     H36920   9.498   5.635  11.631 -0.5792 -1.4118  0.1504
  268MOL0     H36921   9.394   5.491  11.488  1.7807 -2.9103  0.9648
  268MOL0     H36922   9.496   5.556  11.342  0.5958  3.1110  0.4396
  268MOL0     H36923   9.561   5.330  11.425 -0.5370  3.7282 -5.1575
  268MOL0     H36924   9.683   5.455  11.439 -2.3505  2.4275 -2.8694
  268MOL0     H36925   9.497   5.362  11.657  1.0716 -0.3411 -0.6660
  268MOL0     H36926   9.627   5.480  11.680 -1.0252 -1.2188  3.6734
  268MOL0     H36927   9.683   5.275  11.777  2.1922  0.1386  0.4476
  268MOL0     H36928   9.655   5.191  11.626  2.7265 -0.1973 -0.2289
  268MOL0     H36929   9.873   5.390  11.713 -3.9644  3.3166  0.6799
  268MOL0     H36930   9.844   5.359  11.540  1.2380 -0.5702 -0.1592
  268MOL0     H36931   9.880   5.093  11.614  1.7948 -3.1508  3.2458
  268MOL0     H36932   9.994   5.201  11.550 -3.7112 -0.6423 -1.9307
  268MOL0     H36933   9.915   4.969  11.865 -0.7439  0.4571  0.1553
  268MOL0     H36934  10.177   4.841  11.964  0.0159  0.1429 -0.4364
  268MOL0     H36935  10.066   4.910  12.077 -1.6762  1.2594 -2.2264
  268MOL0     H36936  10.356   5.022  12.057  0.2623  0.7021 -0.3658
  268MOL0     H36937  10.235   5.091  12.154  2.0555  1.7374 -2.4822
  268MOL0     H36938  10.343   4.808  12.201  0.9332 -0.5018 -1.0938
  268MOL0     H36939  10.399   4.949  12.286  0.2464 -3.3559  1.1552
  268MOL0     H36940  10.248   4.879  12.445  1.0535  1.9278  1.1368
  268MOL0     H36941  10.144   4.988  12.355 -0.6795 -0.9675  0.7332
  268MOL0     H36942  10.070   4.821  12.561 -1.4283  0.0947 -0.1563
  268MOL0     H36943  10.010   4.754  12.768 -1.6665  1.7548  1.5053
  268MOL0     H36944   9.903   4.625  12.806 -0.8432  0.6910  1.1640
  268MOL0     H36945   9.842   4.767  12.716  1.1590  0.3413 -1.0487
  268MOL0     H36946   9.712   4.197  12.777 -2.9795 -2.1354  1.2443
  268MOL0     H36947   9.664   3.959  12.853  1.8633 -0.7492  0.6847
  268MOL0     H36948   9.933   3.621  12.706  1.5488 -1.0183 -0.0874
  268MOL0     H36949   9.980   3.735  12.831  0.7696 -0.6525 -2.1288
  268MOL0     H36950   9.813   3.479  12.857  0.9847 -0.6080 -1.9954
  268MOL0     H36951   9.980   3.493  12.904  0.5724 -0.4075 -4.2711
  268MOL0     H36952   9.812   3.498  13.093 -3.0492 -1.2035 -3.4949
  268MOL0     H36953   9.754   3.663  13.041  0.9192 -0.0554 -0.5553
  268MOL0     H36954   9.984   3.755  13.089  0.6108  0.7808  0.6701
  268MOL0     H36955  10.039   3.591  13.132  0.9829  1.4676  1.5251
  268MOL0     H36956  10.001   3.728  13.318  0.6559 -1.8555  1.3932
  268MOL0     H36957   9.838   3.761  13.280  0.6235  1.3970  1.8092
  268MOL0     H36958   9.777   3.522  13.307 -2.6764  1.9364  3.0529
  268MOL0     H36959   9.843   3.596  13.458  1.4882 -0.6706  0.2011
  268MOL0     H36960   9.994   3.437  13.495  0.4922  0.8009  0.0831
  268MOL0     H36961  10.060   3.438  13.334 -0.5474 -0.8717 -1.8395
  268MOL0     H36962   9.803   3.298  13.380 -0.1285  2.8811  0.9216
  268MOL0     H36963   9.959   3.226  13.437 -2.4714  1.4653  2.4439
  268MOL0     H36964   9.952   3.828  12.569 -1.0739  1.1873 -0.8850
  268MOL0     H36965   9.958   4.048  12.471  1.7020 -2.2792  0.2349
  268MOL0     H36966   9.901   4.401  12.342  0.1883 -1.6314  1.7874
  268MOL0     H36967  10.027   4.572  12.215  0.6180 -2.2485  1.0577
  268MOL0     H36968   9.370   5.752  11.140 -2.1253 -0.5456  1.5479
  268MOL0     H36969   9.150   5.819  11.036  2.1178 -1.9933  0.8050
  268MOL0     H36970   8.629   5.908  11.315 -1.3390  0.6844 -0.0869
  268MOL0     H36971   8.409   5.940  11.223 -1.0569 -1.3341 -1.9333
  268MOL0     H36972   8.227   6.145  10.859  0.0895 -1.2398  0.6403
  268MOL0     H36973   8.393   6.179  10.839 -0.3234  0.5023  0.3045
  268MOL0     H36974   8.420   5.927  10.791 -0.6775  0.9510  3.3547
  268MOL0     H36975   8.338   6.034  10.663  0.9782 -0.4559 -0.2161
  268MOL0     H36976   8.197   5.840  10.839 -0.2122  2.9575 -0.0459
  268MOL0     H36977   8.128   5.970  10.751 -0.3561 -0.1803  1.4099
  268MOL0     H36978   8.189   5.876  10.533 -1.4635  1.1780  1.4732
  268MOL0     H36979   8.103   5.756  10.633  0.5895 -1.0870  1.5693
  268MOL0     H36980   8.517   5.637  10.568 -1.0497 -0.7616 -1.6036
  268MOL0     H36981   8.574   6.065  10.856 -2.9655 -1.2313 -0.4650
  268MOL0     H36982   8.926   6.026  10.933  1.1785  0.8934 -1.5175
  268MOL0     H36983   8.840   5.882  10.861  0.3775 -0.3805  0.5644
  268MOL0     H36984   8.791   6.048  10.812 -0.2682 -2.7646 -1.1424
  269MOL0     O36985   2.041   5.680   1.249  0.8763 -0.3375  0.1852
  269MOL0     C36986   2.070   5.785   1.192  0.6879 -0.3885 -0.3427
  269MOL0     O36987   1.973   5.887   1.169 -0.2170 -0.4480  0.2454
  269MOL0     C36988   1.837   5.842   1.177 -0.4356 -0.3879  0.2537
  269MOL0     C36989   1.775   5.747   1.087 -0.2021 -1.0562  0.8318
  269MOL0     C36990   1.638   5.740   1.074 -0.3238  0.2378  1.0336
  269MOL0     C36991   1.552   5.808   1.170  1.2232 -0.6088  1.0183
  269MOL0     O36992   1.412   5.803   1.181 -0.0493 -0.1541 -0.2365
  269MOL0     C36993   1.348   5.746   1.073  0.0576 -0.6751 -0.3706
  269MOL0     C36994   1.203   5.774   1.096  1.1637 -0.2801 -0.3484
  269MOL0     C36995   1.109   5.716   0.987  0.2419 -0.2660  0.0468
  269MOL0     C36996   0.967   5.740   1.023 -0.3568 -0.8757 -0.3778
  269MOL0     C36997   0.866   5.660   0.940  0.4410  0.2122 -0.5736
  269MOL0     C36998   0.854   5.513   0.960 -0.3877  0.6405 -0.2050
  269MOL0     C36999   0.715   5.472   0.909 -0.0936 -0.9913 -0.3763
  269MOL0     C37000   0.693   5.322   0.886  1.1435 -0.4009 -0.1689
  269MOL0     N37001   0.802   5.248   0.816  0.7075 -0.0827 -0.3894
  269MOL0     C37002   0.902   5.179   0.868  0.0130  0.1806  0.1277
  269MOL0     C37003   0.984   5.140   0.764  0.4267  0.2634  0.0983
  269MOL0     C37004   1.091   5.039   0.772 -0.0939 -0.2723  0.3414
  269MOL0     C37005   1.031   4.904   0.733  0.8482 -0.5908 -0.1808
  269MOL0     C37006   1.137   4.797   0.742 -1.2187 -0.0479  0.4585
  269MOL0     C37007   1.069   4.659   0.746 -0.5053 -0.3793 -0.8827
  269MOL0     O37008   0.981   4.631   0.641  0.6244  0.1391  0.3986
  269MOL0     C37009   0.902   4.517   0.647  1.2388  0.1022 -0.6505
  269MOL0     C37010   0.864   4.446   0.761 -0.2306 -0.0004 -0.0752
  269MOL0     C37011   0.772   4.333   0.758  1.4093  0.2173 -0.0220
  269MOL0     C37012   0.741   4.275   0.898 -0.0997 -0.2308  0.3380
  269MOL0     C37013   0.720   4.282   0.636 -0.2309  0.2511  0.1891
  269MOL0     C37014   0.625   4.162   0.621 -0.1303 -0.6894 -0.2739
  269MOL0     O37015   0.532   4.166   0.523  0.0898  0.1653  0.6801
  269MOL0     C37016   0.403   4.105   0.532  0.9533 -0.3874 -0.5616
  269MOL0     C37017   0.337   4.081   0.653  0.9424  0.2952 -0.0714
  269MOL0     C37018   0.222   4.000   0.648 -0.6468  0.6243 -0.4974
  269MOL0     C37019   0.164   3.945   0.534 -0.2088 -0.7994 -0.7672
  269MOL0     O37020   0.048   3.875   0.535 -0.3409  0.4561  0.3263
  269MOL0     C37021   0.048   3.754   0.608 -0.3342 -0.1360  0.4557
  269MOL0     C37022   0.117   3.638   0.545  0.1103  1.0850 -0.2650
  269MOL0     C37023   0.042   3.578   0.428  0.4713 -0.8331 -0.8900
  269MOL0     C37024   0.091   3.433   0.415 -0.2226  0.9435  0.9149
  269MOL0     C37025   0.188   3.418   0.287 -0.1901 -0.2789  0.1565
  269MOL0     C37026   0.265   3.287   0.298 -0.5569  0.9221  0.3072
  269MOL0     C37027   0.181   3.165   0.315 -0.2987 -0.0041 -0.4193
  269MOL0     C37028   0.281   3.045   0.342  0.3746  0.6744  0.9675
  269MOL0    Cl37029   0.173   2.907   0.306  0.0805  0.2889 -0.0406
  269MOL0     C37030   0.237   3.966   0.418  0.0581 -0.2390  0.2990
  269MOL0     C37031   0.353   4.051   0.416 -0.9793  0.7844  0.9589
  269MOL0     O37032   0.630   4.073   0.708 -0.0753 -0.0799 -0.0565
  269MOL0     C37033   0.751   4.360   0.522  0.3083  0.8585  1.0807
  269MOL0     C37034   0.833   4.477   0.525  0.2262  0.7583 -0.9665
  269MOL0     N37035   0.929   5.196   0.646  0.3279  0.8310  0.0481
  269MOL0     N37036   0.824   5.267   0.684  0.5264 -0.3426 -0.0750
  269MOL0     C37037   1.613   5.890   1.268 -0.6232  0.5520  1.0057
  269MOL0     C37038   1.752   5.903   1.267 -0.4901  1.1094  0.2420
  269MOL0     C37039   2.206   5.819   1.161 -0.6202 -1.0474  0.3959
  269MOL0     C37040   2.234   5.883   1.032 -0.5447  0.9171 -0.1369
  269MOL0     C37041   2.353   5.929   0.995 -0.8920 -0.1799 -0.4889
  269MOL0     C37042   2.470   5.909   1.071 -0.1632  0.6308 -1.1106
  269MOL0     O37043   2.598   5.959   1.034 -0.0304 -0.6594 -0.4761
  269MOL0     C37044   2.654   5.905   0.914 -0.6408  0.0546  0.2066
  269MOL0     C37045   2.770   5.994   0.869  0.5472  0.8883 -0.3068
  269MOL0     C37046   2.714   6.141   0.845  0.1042 -0.9492 -0.6577
  269MOL0     C37047   2.824   6.235   0.788  0.4980  0.4335  0.5436
  269MOL0     C37048   2.890   6.180   0.664  0.6882 -0.8525  0.2816
  269MOL0     C37049   2.944   6.136   0.563  0.5324 -0.4245  0.3450
  269MOL0     C37050   2.455   5.844   1.186  0.2216  0.7962  0.5206
  269MOL0     C37051   2.329   5.796   1.234  0.4072  0.1861 -0.7373
  269MOL0     C37052   2.340   5.710   1.359 -0.4511 -0.5283  0.6146
  269MOL0     H37053   1.850   5.706   1.019 -1.2408  1.5577 -2.1735
  269MOL0     H37054   1.611   5.671   0.994  2.8115  0.2206 -0.1485
  269MOL0     H37055   1.360   5.638   1.065 -3.9034 -1.1661 -2.7409
  269MOL0     H37056   1.383   5.791   0.979  0.6929 -0.1172  0.1281
  269MOL0     H37057   1.175   5.740   1.196 -0.2884 -1.0673 -0.9937
  269MOL0     H37058   1.186   5.880   1.116 -2.3313  0.1380 -4.2763
  269MOL0     H37059   1.135   5.765   0.892 -2.9736 -1.6095 -1.6773
  269MOL0     H37060   1.125   5.608   0.982  0.1988 -0.4040  2.0720
  269MOL0     H37061   0.956   5.725   1.131 -1.2077  2.1736  0.0669
  269MOL0     H37062   0.943   5.845   1.006 -1.1564 -0.8806  0.6098
  269MOL0     H37063   0.890   5.666   0.833 -0.7584 -0.7119 -0.9127
  269MOL0     H37064   0.770   5.703   0.971  0.9834 -0.8898  3.1478
  269MOL0     H37065   0.941   5.459   0.923  0.7343  1.5214  1.0621
  269MOL0     H37066   0.845   5.477   1.063  0.9490 -0.0673 -0.3219
  269MOL0     H37067   0.697   5.507   0.807 -2.3987 -2.7679 -0.6559
  269MOL0     H37068   0.647   5.513   0.984  0.9065 -1.0192  0.5771
  269MOL0     H37069   0.684   5.270   0.981 -1.2558 -2.3729 -1.3866
  269MOL0     H37070   0.609   5.294   0.823  0.7652 -1.8419  0.9454
  269MOL0     H37071   0.929   5.172   0.973  2.1237  3.0638 -0.1153
  269MOL0     H37072   1.143   5.043   0.868  0.3705 -1.8365  0.1666
  269MOL0     H37073   1.172   5.067   0.705  1.6306  0.8076  2.7165
  269MOL0     H37074   0.941   4.875   0.788  0.3820 -1.7754 -1.5306
  269MOL0     H37075   0.992   4.907   0.631  2.0101 -1.1897 -0.6629
  269MOL0     H37076   1.199   4.809   0.653  0.5196  1.0826  1.7550
  269MOL0     H37077   1.197   4.820   0.830  0.5327 -0.8918 -0.4659
  269MOL0     H37078   1.148   4.584   0.757  0.9777  0.7246 -3.1408
  269MOL0     H37079   1.019   4.658   0.843 -4.0319  3.3595 -2.3956
  269MOL0     H37080   0.913   4.474   0.853  0.4348 -1.7048  0.1221
  269MOL0     H37081   0.634   4.252   0.907  0.1287 -1.2999  0.4503
  269MOL0     H37082   0.782   4.346   0.971 -0.4969  3.8716 -3.0882
  269MOL0     H37083   0.798   4.182   0.896 -0.0485 -0.2069  0.6699
  269MOL0     H37084   0.376   4.111   0.750 -3.4424 -0.1752  2.0931
  269MOL0     H37085   0.155   3.975   0.730 -2.2819  0.6158 -1.7696
  269MOL0     H37086   0.091   3.776   0.706 -1.2447  0.9475  0.6252
  269MOL0     H37087  -0.054   3.715   0.615 -0.3825  0.1710  1.8504
  269MOL0     H37088   0.216   3.672   0.511  0.4451 -0.7531 -1.2908
  269MOL0     H37089   0.134   3.564   0.624  2.6637 -0.1268 -1.7927
  269MOL0     H37090   0.066   3.633   0.336 -0.9951  0.5295 -0.5063
  269MOL0     H37091  -0.065   3.586   0.446  0.7988  0.8809  0.6263
  269MOL0     H37092   0.002   3.373   0.398 -1.7301  3.6320 -1.8799
  269MOL0     H37093   0.149   3.400   0.502  2.2882  3.4188  0.3372
  269MOL0     H37094   0.121   3.409   0.201  2.0857 -0.8772 -1.6650
  269MOL0     H37095   0.259   3.500   0.278 -2.0882  2.0797  4.0944
  269MOL0     H37096   0.339   3.300   0.378  2.0670  0.5298 -1.9002
  269MOL0     H37097   0.326   3.261   0.211 -0.4781 -2.2536  1.2052
  269MOL0     H37098   0.120   3.152   0.225  1.3587 -0.2657 -1.5461
  269MOL0     H37099   0.109   3.175   0.397 -1.9208 -1.5853 -1.5748
  269MOL0     H37100   0.311   3.031   0.446  2.1634  0.4061  0.4668
  269MOL0     H37101   0.360   3.048   0.266 -1.3372  0.3292 -0.9204
  269MOL0     H37102   0.207   3.908   0.332 -0.4441  0.5421 -0.0578
  269MOL0     H37103   0.402   4.045   0.320 -0.7435  2.9510  0.8921
  269MOL0     H37104   0.699   4.330   0.431 -0.4951 -3.4999  2.7404
  269MOL0     H37105   0.853   4.546   0.444 -2.1194 -0.8196 -3.0082
  269MOL0     H37106   1.561   5.963   1.328  0.7199  2.3674  0.0824
  269MOL0     H37107   1.789   5.979   1.334 -1.7841  2.1349 -0.1570
  269MOL0     H37108   2.146   5.894   0.969 -0.7273  0.1772 -0.0281
  269MOL0     H37109   2.363   5.983   0.901 -3.4672  0.8494 -0.2415
  269MOL0     H37110   2.688   5.804   0.942 -2.3852 -1.4710 -2.6798
  269MOL0     H37111   2.591   5.898   0.825 -1.0995 -1.7232  0.6339
  269MOL0     H37112   2.802   5.952   0.773  0.2765 -3.3792  1.2722
  269MOL0     H37113   2.852   5.978   0.940  0.4546  1.0355 -0.1679
  269MOL0     H37114   2.626   6.121   0.784  0.3018 -4.3135 -0.0416
  269MOL0     H37115   2.696   6.171   0.948  3.0049 -2.4743  0.4074
  269MOL0     H37116   2.907   6.243   0.860  0.6643  1.4196  0.2645
  269MOL0     H37117   2.777   6.330   0.763  1.1328  0.3401 -1.1324
  269MOL0     H37118   2.986   6.091   0.476  0.0119 -1.2268  0.4963
  269MOL0     H37119   2.540   5.823   1.251  0.6083 -0.7243 -0.4434
  269MOL0     H37120   2.380   5.614   1.325  0.7806 -0.2375  1.2034
  269MOL0     H37121   2.399   5.756   1.439 -1.8149  0.4972  1.0848
  269MOL0     H37122   2.236   5.691   1.389 -0.5235 -1.8811 -0.3773
  270MOL0     O37123   1.527  10.091   7.701  0.0362 -0.4762 -0.2300
  270MOL0     C37124   1.624  10.072   7.628  0.0525  0.4457  0.7953
  270MOL0     O37125   1.638  10.121   7.507  0.8750  0.0663  0.5733
  270MOL0     C37126   1.580  10.244   7.489 -0.3450 -0.4662 -0.4126
  270MOL0     C37127   1.443  10.274   7.513  1.3252  0.3352 -0.0224
  270MOL0     C37128   1.400  10.401   7.484  0.7661  0.2103  0.6987
  270MOL0     C37129   1.480  10.504   7.426  0.2988  1.3716  0.3335
  270MOL0     O37130   1.444  10.633   7.398 -0.2948 -0.4591 -0.6496
  270MOL0     C37131   1.314  10.681   7.427  0.5636  0.1887  0.7229
  270MOL0     C37132   1.301  10.820   7.374  0.7476 -0.3824  0.2322
  270MOL0     C37133   1.162  10.882   7.368  0.1583 -0.3502 -0.1541
  270MOL0     C37134   1.153  10.980   7.490 -0.6114  0.0851 -0.4722
  270MOL0     C37135   1.025  11.070   7.481 -0.6218 -0.5930  0.7182
  270MOL0     C37136   1.019  11.174   7.582 -0.3192 -0.0653 -0.1110
  270MOL0     C37137   0.880  11.240   7.586 -0.3408  0.0174  0.0389
  270MOL0     C37138   0.860  11.347   7.691 -0.8580  0.6766 -0.2169
  270MOL0     N37139   0.720  11.355   7.738  0.0565 -0.0083  1.1294
  270MOL0     C37140   0.618  11.385   7.660  0.3546 -0.2233 -0.1492
  270MOL0     C37141   0.506  11.340   7.719  0.4491 -0.2378  0.3863
  270MOL0     C37142   0.367  11.373   7.675  1.5504  0.0593  1.1364
  270MOL0     C37143   0.314  11.286   7.554 -0.1961  0.1148 -0.1219
  270MOL0     C37144   0.365  11.146   7.552  0.4508 -0.1822 -0.0053
  270MOL0     C37145   0.279  11.071   7.454 -0.5465  0.5930 -0.1375
  270MOL0     O37146   0.339  10.948   7.409 -0.0794  0.0893  0.6153
  270MOL0     C37147   0.250  10.843   7.385 -0.1514 -0.3970  0.2016
  270MOL0     C37148   0.123  10.856   7.339  0.2025  1.4714  0.6349
  270MOL0     C37149   0.048  10.738   7.304  0.6563 -0.1293 -0.6693
  270MOL0     C37150  -0.087  10.764   7.258  0.1632 -0.1675  0.4324
  270MOL0     C37151   0.115  10.610   7.319  0.2999  0.2621  0.6662
  270MOL0     C37152   0.052  10.477   7.292 -0.4919  0.4782  0.5819
  270MOL0     O37153  -0.079  10.475   7.246 -0.7023  0.5193  0.4233
  270MOL0     C37154  -0.161  10.362   7.269 -0.1718  0.6425  0.6455
  270MOL0     C37155  -0.287  10.369   7.209  0.2390 -0.0033  0.1469
  270MOL0     C37156  -0.383  10.266   7.208 -0.2205 -0.4811  0.0252
  270MOL0     C37157  -0.351  10.153   7.286 -0.5030  0.2850 -0.8796
  270MOL0     O37158  -0.446  10.056   7.305  0.2935  0.1921  0.0330
  270MOL0     C37159  -0.575  10.111   7.318  0.2140 -0.9203 -0.8640
  270MOL0     C37160  -0.653  10.000   7.385  0.5402 -0.0658 -0.0361
  270MOL0     C37161  -0.611   9.974   7.530  0.4653  1.0009 -0.4453
  270MOL0     C37162  -0.690   9.858   7.598  0.0776 -0.4302 -0.0894
  270MOL0     C37163  -0.647   9.850   7.737 -0.3095  0.5326 -0.6587
  270MOL0     C37164  -0.750   9.807   7.845 -0.2259 -0.3399  0.0762
  270MOL0     C37165  -0.797   9.669   7.833  0.1949 -0.9190  0.0869
  270MOL0     C37166  -0.877   9.638   7.957  0.1473 -0.2880  0.1806
  270MOL0    Cl37167  -0.973   9.504   7.904  0.2090 -0.3487 -0.4089
  270MOL0     C37168  -0.232  10.147   7.352 -0.4350 -0.8591  1.5661
  270MOL0     C37169  -0.127  10.244   7.341  0.0592 -0.3640 -0.0460
  270MOL0     O37170   0.123  10.378   7.322 -0.1206  0.1261 -0.5853
  270MOL0     C37171   0.245  10.609   7.363  0.0062  1.0072 -0.0094
  270MOL0     C37172   0.317  10.728   7.396  0.5260 -0.4034 -1.1471
  270MOL0     N37173   0.548  11.274   7.835  0.5557  0.4343 -0.2036
  270MOL0     N37174   0.678  11.289   7.841 -0.4943 -0.0297 -0.4499
  270MOL0     C37175   1.609  10.469   7.409 -0.7642 -0.3225 -0.1569
  270MOL0     C37176   1.667  10.347   7.446  0.8046 -0.6865  0.7973
  270MOL0     C37177   1.715   9.949   7.657 -0.4184  0.3833  0.2373
  270MOL0     C37178   1.742   9.858   7.558 -0.9456  0.0175  0.2362
  270MOL0     C37179   1.824   9.745   7.588 -0.8105 -0.2259  0.7338
  270MOL0     C37180   1.872   9.714   7.715 -0.0225  0.3276 -0.1287
  270MOL0     O37181   1.932   9.594   7.748 -0.2897  0.3261  0.1907
  270MOL0     C37182   2.039   9.594   7.837  0.3282  0.0422  0.1172
  270MOL0     C37183   2.093   9.454   7.835 -0.2222 -0.4573  0.3122
  270MOL0     C37184   2.167   9.417   7.711  0.4711 -0.0022 -0.8776
  270MOL0     C37185   2.307   9.480   7.695  0.7117 -0.1287 -0.3480
  270MOL0     C37186   2.368   9.438   7.570 -0.2280  0.7890 -0.2854
  270MOL0     C37187   2.435   9.391   7.477 -0.9953  0.1105 -0.1583
  270MOL0     C37188   1.839   9.800   7.816  0.4042  0.2264 -0.1064
  270MOL0     C37189   1.764   9.919   7.790 -0.2780 -0.3916 -0.0620
  270MOL0     C37190   1.743  10.015   7.907 -0.5335  0.1408 -0.1588
  270MOL0     H37191   1.369  10.207   7.555 -0.8773  1.5041 -1.8024
  270MOL0     H37192   1.296  10.425   7.506  0.1523 -0.3736 -1.3766
  270MOL0     H37193   1.292  10.682   7.534  2.7867 -3.9415  1.4176
  270MOL0     H37194   1.242  10.615   7.377  0.1421  1.8124 -0.9134
  270MOL0     H37195   1.370  10.876   7.438 -2.3246  2.4515  1.3605
  270MOL0     H37196   1.338  10.830   7.272 -1.4957 -1.2674 -0.7306
  270MOL0     H37197   1.154  10.943   7.278 -0.7293 -0.5857 -0.2422
  270MOL0     H37198   1.089  10.801   7.375  1.0803 -1.0374  3.3595
  270MOL0     H37199   1.158  10.920   7.582  3.4268  0.4207 -0.2643
  270MOL0     H37200   1.244  11.041   7.500  0.5869 -1.4050 -1.6843
  270MOL0     H37201   0.931  11.014   7.477 -0.9212 -0.0416 -2.1524
  270MOL0     H37202   1.035  11.122   7.385 -0.4496 -2.5130 -0.3628
  270MOL0     H37203   1.032  11.127   7.680 -2.1254  1.6076  1.0154
  270MOL0     H37204   1.098  11.248   7.566 -1.1187  1.1686  1.4001
  270MOL0     H37205   0.792  11.178   7.599 -2.4806  2.8126 -0.0596
  270MOL0     H37206   0.859  11.294   7.493 -3.3961 -0.5577  0.3040
  270MOL0     H37207   0.921  11.313   7.775  1.5722  0.2407 -2.0769
  270MOL0     H37208   0.886  11.445   7.650  1.4865 -0.3551 -1.3289
  270MOL0     H37209   0.612  11.444   7.568  0.1610  1.8387  1.1207
  270MOL0     H37210   0.356  11.476   7.641  2.2246  0.2848  1.5745
  270MOL0     H37211   0.291  11.356   7.752 -0.0961 -2.1662 -0.8364
  270MOL0     H37212   0.205  11.285   7.565 -0.0594  1.7814  2.0161
  270MOL0     H37213   0.343  11.319   7.454 -0.3913 -0.8660 -0.5158
  270MOL0     H37214   0.471  11.135   7.526 -0.0395 -0.2768 -2.0925
  270MOL0     H37215   0.353  11.103   7.652  0.7646 -0.4246 -0.0715
  270MOL0     H37216   0.187  11.057   7.511 -1.3573  2.3618 -0.9446
  270MOL0     H37217   0.262  11.126   7.362  0.2382 -2.2512 -2.1415
  270MOL0     H37218   0.076  10.953   7.334  2.1681  2.4796  0.7096
  270MOL0     H37219  -0.166  10.733   7.328  1.8357 -0.2476  2.3678
  270MOL0     H37220  -0.104  10.701   7.170 -1.7725 -0.4905  0.9872
  270MOL0     H37221  -0.109  10.868   7.233  0.2355 -0.5990 -1.5765
  270MOL0     H37222  -0.305  10.454   7.143  0.0931 -0.4281 -0.3672
  270MOL0     H37223  -0.482  10.285   7.169 -0.0767  0.5050  0.1257
  270MOL0     H37224  -0.578  10.195   7.387  3.6367 -1.8455  0.6029
  270MOL0     H37225  -0.628  10.142   7.227 -4.3699 -0.1342  1.7442
  270MOL0     H37226  -0.761  10.015   7.370  0.2422 -0.6099  1.4584
  270MOL0     H37227  -0.626   9.900   7.349 -1.1202 -0.4988 -0.1963
  270MOL0     H37228  -0.642  10.054   7.598  2.1022  0.4857  0.9880
  270MOL0     H37229  -0.504   9.955   7.543  0.6784  0.9703 -1.9939
  270MOL0     H37230  -0.665   9.762   7.552 -0.6237 -1.8292  2.2723
  270MOL0     H37231  -0.792   9.891   7.581  0.5270  2.8388  2.5589
  270MOL0     H37232  -0.576   9.766   7.739 -2.2851 -1.3140 -2.4988
  270MOL0     H37233  -0.585   9.935   7.767  1.6850 -0.9614 -0.3217
  270MOL0     H37234  -0.833   9.877   7.858  0.9324  0.6663  2.8889
  270MOL0     H37235  -0.694   9.799   7.939  1.0545 -2.1230 -0.7789
  270MOL0     H37236  -0.709   9.606   7.812  2.3484  0.7047  3.3981
  270MOL0     H37237  -0.866   9.655   7.750 -2.0735 -3.8654  2.2741
  270MOL0     H37238  -0.944   9.718   7.992  0.0873  0.4437 -1.5091
  270MOL0     H37239  -0.808   9.617   8.039  0.3594  0.0533  0.0921
  270MOL0     H37240  -0.211  10.066   7.421 -0.7708 -0.4392  2.1831
  270MOL0     H37241  -0.035  10.243   7.398  0.7847  1.2349 -1.1146
  270MOL0     H37242   0.295  10.513   7.352 -2.8372 -0.4958 -0.7358
  270MOL0     H37243   0.425  10.721   7.413  0.8910  3.5130 -0.9178
  270MOL0     H37244   1.680  10.546   7.380 -2.2746  1.0040 -0.4886
  270MOL0     H37245   1.775  10.334   7.436  1.1855  1.6822  1.2408
  270MOL0     H37246   1.717   9.864   7.452  2.4456 -0.3858 -0.7285
  270MOL0     H37247   1.842   9.679   7.503  2.1506 -0.3061  1.3146
  270MOL0     H37248   2.122   9.662   7.820  3.0512 -3.1357 -0.4739
  270MOL0     H37249   1.997   9.606   7.937  1.9744 -1.2043  1.0074
  270MOL0     H37250   2.000   9.396   7.834 -0.8119  0.3740 -2.3989
  270MOL0     H37251   2.154   9.433   7.923  0.4562 -1.2207 -0.3215
  270MOL0     H37252   2.168   9.308   7.719 -0.9970  0.1023  2.2367
  270MOL0     H37253   2.110   9.444   7.622  2.9573  1.8127 -2.0196
  270MOL0     H37254   2.380   9.456   7.774 -0.4701  0.1935  0.8896
  270MOL0     H37255   2.296   9.589   7.697  1.0269  0.0433  4.3499
  270MOL0     H37256   2.498   9.360   7.396 -2.1012 -4.5216  0.5010
  270MOL0     H37257   1.867   9.778   7.919 -2.4427  0.7563  0.8741
  270MOL0     H37258   1.782  10.111   7.874  2.2880 -0.1023  2.1205
  270MOL0     H37259   1.639  10.033   7.936 -0.9858  0.5214 -1.8631
  270MOL0     H37260   1.802   9.976   7.990 -1.5742 -2.0460 -0.3749
  271MOL0     O37261  10.282   3.687   4.845 -0.0936 -0.6593 -0.4239
  271MOL0     C37262  10.268   3.623   4.952 -0.3025 -0.0730 -0.4721
  271MOL0     O37263  10.232   3.679   5.082 -0.4259 -0.1206  0.0795
  271MOL0     C37264  10.208   3.600   5.187  0.7584  0.8130  0.8136
  271MOL0     C37265  10.256   3.625   5.307  0.3828 -0.0504  0.6541
  271MOL0     C37266  10.229   3.536   5.413  0.5076  0.1771  0.0193
  271MOL0     C37267  10.121   3.451   5.396 -0.0009  0.2514 -0.9621
  271MOL0     O37268  10.062   3.387   5.503  0.9123 -0.4888  0.3713
  271MOL0     C37269   9.994   3.469   5.590  0.0322 -0.9848  0.3350
  271MOL0     C37270   9.952   3.368   5.701 -0.1732 -0.5026 -0.0483
  271MOL0     C37271   9.930   3.440   5.837 -0.6274  0.5648 -0.2919
  271MOL0     C37272  10.069   3.493   5.887 -0.4699 -0.2337  0.1399
  271MOL0     C37273  10.060   3.546   6.027  0.0247  0.2083  0.6351
  271MOL0     C37274  10.009   3.694   6.038 -0.3130  0.6102  0.7804
  271MOL0     C37275   9.984   3.731   6.182  0.3584  0.4632  0.6795
  271MOL0     C37276   9.956   3.888   6.198 -0.6348  0.0476 -0.3540
  271MOL0     N37277   9.941   3.919   6.340  0.1208 -0.3530  0.4047
  271MOL0     C37278  10.028   3.890   6.439 -0.0105  0.5211  1.1984
  271MOL0     C37279   9.984   3.947   6.552 -0.2718 -0.4734  0.1817
  271MOL0     C37280  10.044   3.927   6.690  1.4424  0.8029  0.2986
  271MOL0     C37281   9.934   3.955   6.800  0.0908 -0.7121  0.7190
  271MOL0     C37282   9.993   3.986   6.938 -0.7462 -0.1342  0.6747
  271MOL0     C37283  10.043   3.855   7.011 -0.0046 -2.2029 -0.6368
  271MOL0     O37284  10.165   3.812   6.954 -1.1160 -0.9356 -0.6019
  271MOL0     C37285  10.284   3.892   6.971 -0.5698  1.2640  0.0367
  271MOL0     C37286  10.403   3.837   6.904 -0.0054 -0.1499  0.5457
  271MOL0     C37287  10.527   3.897   6.930  0.4455 -0.2165 -0.7692
  271MOL0     C37288  10.643   3.823   6.863 -0.0657 -0.5368  1.4346
  271MOL0     C37289  10.542   4.002   7.021  0.8717  0.6395  0.6726
  271MOL0     C37290  10.674   4.062   7.034  0.7325  0.1742 -0.6711
  271MOL0     O37291  10.717   4.112   7.154 -0.0525  0.5392 -0.4652
  271MOL0     C37292  10.843   4.155   7.170  0.1358 -0.0677 -0.9246
  271MOL0     C37293  10.953   4.165   7.073 -0.6070 -0.2076  0.6553
  271MOL0     C37294  11.083   4.206   7.117  0.4402 -0.4173  0.0623
  271MOL0     C37295  11.104   4.250   7.249 -0.3038  0.0473  0.0612
  271MOL0     O37296  11.230   4.277   7.289  0.3742  0.2604  0.2948
  271MOL0     C37297  11.253   4.375   7.391  0.0997  0.0460  0.2138
  271MOL0     C37298  11.229   4.517   7.349  0.5259 -0.2008  0.3315
  271MOL0     C37299  11.255   4.631   7.446 -0.9148  0.7572  0.4673
  271MOL0     C37300  11.399   4.620   7.501  0.0984 -0.8698  0.2479
  271MOL0     C37301  11.441   4.735   7.601  0.1693 -0.8774  0.8358
  271MOL0     C37302  11.464   4.884   7.545  1.0978 -0.1343 -0.3783
  271MOL0     C37303  11.564   4.890   7.430  0.2897 -0.9611  0.9579
  271MOL0     C37304  11.627   5.022   7.409  1.0217  0.2112 -0.8918
  271MOL0    Cl37305  11.721   5.034   7.263  0.3576  0.0939 -0.2478
  271MOL0     C37306  10.996   4.240   7.346 -0.3212 -0.1982 -0.4885
  271MOL0     C37307  10.870   4.194   7.303 -0.6381 -0.9599 -0.7201
  271MOL0     O37308  10.729   4.081   6.921  0.4782 -0.3743 -0.7914
  271MOL0     C37309  10.423   4.055   7.083 -0.7574  0.2856  0.4360
  271MOL0     C37310  10.289   4.004   7.057  0.1831  0.6470  0.3978
  271MOL0     N37311   9.873   4.026   6.517  0.0346  0.7571  0.3532
  271MOL0     N37312   9.858   4.010   6.392  0.4280 -0.1502  0.3821
  271MOL0     C37313  10.062   3.419   5.265 -0.5758 -0.1889 -0.9174
  271MOL0     C37314  10.118   3.494   5.166 -0.1163  0.3180  0.5607
  271MOL0     C37315  10.317   3.483   4.937 -0.1681  0.3445 -0.2981
  271MOL0     C37316  10.442   3.445   4.993  0.9842  0.7276 -0.0874
  271MOL0     C37317  10.498   3.313   4.987 -0.8303  0.1605 -0.0441
  271MOL0     C37318  10.420   3.218   4.917 -0.6482 -0.1486  0.8597
  271MOL0     O37319  10.441   3.085   4.907  0.0852  0.4708  0.0513
  271MOL0     C37320  10.542   3.040   5.003 -0.0341 -0.2302 -0.0394
  271MOL0     C37321  10.545   2.892   5.001 -0.2536  1.8592  0.7987
  271MOL0     C37322  10.582   2.831   4.862 -0.4647 -0.3187 -0.3096
  271MOL0     C37323  10.588   2.685   4.879  0.7982  0.0371  0.3314
  271MOL0     C37324  10.604   2.629   4.746 -0.1510  0.7123 -0.0992
  271MOL0     C37325  10.626   2.583   4.634 -0.2588  0.8487 -0.1613
  271MOL0     C37326  10.303   3.255   4.860 -0.5596  1.1134 -0.2819
  271MOL0     C37327  10.257   3.379   4.860 -0.4587 -0.1374  0.4712
  271MOL0     C37328  10.135   3.408   4.767 -0.2467 -0.9253 -0.6715
  271MOL0     H37329  10.319   3.711   5.324  0.7896 -0.5339  1.5968
  271MOL0     H37330  10.254   3.553   5.517 -0.3893  1.8520 -0.0057
  271MOL0     H37331   9.908   3.517   5.543 -0.7929 -3.1048 -0.4648
  271MOL0     H37332  10.050   3.553   5.630 -1.1474  0.8485 -1.6482
  271MOL0     H37333   9.855   3.322   5.676  1.0449 -3.6335  0.4521
  271MOL0     H37334  10.024   3.286   5.713 -0.7237 -0.6638  2.7242
  271MOL0     H37335   9.849   3.513   5.830 -3.2572 -1.9836  0.9485
  271MOL0     H37336   9.893   3.376   5.917  2.3763 -0.9899 -0.0180
  271MOL0     H37337  10.140   3.411   5.872 -0.9626 -0.3274 -2.1971
  271MOL0     H37338  10.112   3.574   5.827  1.2767 -0.2070  1.3695
  271MOL0     H37339  10.160   3.534   6.069 -1.1358 -0.3242  3.4142
  271MOL0     H37340   9.998   3.479   6.086 -1.9755  1.1090 -0.3519
  271MOL0     H37341  10.084   3.758   5.991  0.2591  2.5688  4.1070
  271MOL0     H37342   9.926   3.717   5.970  1.2515 -1.2022 -1.9593
  271MOL0     H37343  10.070   3.707   6.246  2.5886 -0.3841 -2.4372
  271MOL0     H37344   9.891   3.678   6.205  1.1082 -0.7326  1.0542
  271MOL0     H37345  10.044   3.935   6.154 -0.5385 -0.9714 -1.2716
  271MOL0     H37346   9.871   3.925   6.139 -0.8859 -2.1042 -1.4387
  271MOL0     H37347  10.117   3.830   6.421 -0.6510 -0.2645  0.6151
  271MOL0     H37348  10.125   3.997   6.713  1.4138  0.2547  2.3004
  271MOL0     H37349  10.073   3.823   6.703  3.8033  1.5450  1.7614
  271MOL0     H37350   9.880   4.047   6.775  1.1159 -0.7916 -2.2200
  271MOL0     H37351   9.859   3.876   6.803 -1.6561  0.6821 -1.9688
  271MOL0     H37352  10.074   4.058   6.926 -1.1275  0.1636 -0.2233
  271MOL0     H37353   9.908   4.032   6.990 -0.8940  2.1655 -1.4328
  271MOL0     H37354  10.056   3.875   7.118  0.8443  1.3419 -1.2797
  271MOL0     H37355   9.973   3.772   7.013 -0.5196 -1.8154 -1.9697
  271MOL0     H37356  10.399   3.742   6.852  0.7830  0.2991 -0.3784
  271MOL0     H37357  10.693   3.772   6.945  1.4066  2.5258  2.5739
  271MOL0     H37358  10.711   3.874   6.794  0.3410 -2.1253  0.6102
  271MOL0     H37359  10.601   3.748   6.794 -0.7171  0.4021  0.7918
  271MOL0     H37360  10.944   4.141   6.968 -0.5855 -0.2859  0.6718
  271MOL0     H37361  11.169   4.190   7.052  2.7775  0.3097  2.7567
  271MOL0     H37362  11.194   4.368   7.483 -1.4371 -0.8898 -0.7943
  271MOL0     H37363  11.361   4.379   7.410 -0.2007 -0.3457  2.2101
  271MOL0     H37364  11.288   4.541   7.260 -0.8770  0.0624 -0.5611
  271MOL0     H37365  11.132   4.543   7.305  1.5263  2.0932 -0.6925
  271MOL0     H37366  11.187   4.637   7.531  0.1105  1.1364  1.2852
  271MOL0     H37367  11.256   4.722   7.384  1.3217 -0.3585 -1.3244
  271MOL0     H37368  11.463   4.626   7.413 -0.5908 -1.9743 -0.3455
  271MOL0     H37369  11.401   4.527   7.558  1.3749 -1.6969 -1.0752
  271MOL0     H37370  11.367   4.741   7.682  0.3745  4.4376  0.9894
  271MOL0     H37371  11.536   4.694   7.635  1.1285  0.4457 -0.1261
  271MOL0     H37372  11.503   4.937   7.633  1.3680 -1.0857  0.0917
  271MOL0     H37373  11.368   4.928   7.516  1.8515  0.6864 -1.7560
  271MOL0     H37374  11.502   4.863   7.344  3.3643 -1.3942 -1.3153
  271MOL0     H37375  11.637   4.810   7.447  1.3223 -0.3905 -0.5757
  271MOL0     H37376  11.674   5.057   7.501  3.2578 -0.9830 -1.5046
  271MOL0     H37377  11.541   5.086   7.388  0.3552 -0.2889  0.2358
  271MOL0     H37378  11.011   4.254   7.453 -3.3548  1.1389 -0.1576
  271MOL0     H37379  10.783   4.188   7.368 -0.2350  1.6470  0.1655
  271MOL0     H37380  10.432   4.139   7.151  1.3575 -0.9257  1.7728
  271MOL0     H37381  10.205   4.044   7.114  0.2716  0.6037  0.5575
  271MOL0     H37382   9.986   3.348   5.234 -0.1467 -0.2488 -1.8480
  271MOL0     H37383  10.087   3.473   5.064 -0.3945  0.6704  0.5722
  271MOL0     H37384  10.506   3.513   5.048  2.0918  0.1371 -0.6139
  271MOL0     H37385  10.592   3.298   5.039 -1.2735  1.3945  1.1861
  271MOL0     H37386  10.640   3.084   4.984 -0.7440 -0.1114 -4.1632
  271MOL0     H37387  10.522   3.063   5.108  1.3058 -2.2921  0.7513
  271MOL0     H37388  10.441   2.872   5.028 -0.0978  1.9224  1.4535
  271MOL0     H37389  10.616   2.839   5.065 -0.8023 -2.5585 -1.7661
  271MOL0     H37390  10.515   2.868   4.783  3.3174  0.8207 -3.3314
  271MOL0     H37391  10.679   2.867   4.825  0.3207 -1.1286  0.8729
  271MOL0     H37392  10.489   2.647   4.906 -0.4878  2.1855 -0.9959
  271MOL0     H37393  10.669   2.648   4.942  1.3279 -0.9451 -0.8876
  271MOL0     H37394  10.620   2.542   4.535 -2.2644  1.8626 -0.5136
  271MOL0     H37395  10.253   3.177   4.803  0.6976 -0.0971  0.1986
  271MOL0     H37396  10.124   3.323   4.700  2.0565 -2.8052  1.1327
  271MOL0     H37397  10.048   3.427   4.830  1.2414  1.3804  0.8932
  271MOL0     H37398  10.149   3.497   4.705 -1.3471  0.6860  1.2731
  272MOL0     O37399   0.212   5.583   6.653 -0.1860 -0.5942 -0.0975
  272MOL0     C37400   0.327   5.595   6.606 -0.0772 -0.1351  0.4911
  272MOL0     O37401   0.421   5.503   6.623  0.0551 -0.2832  0.2146
  272MOL0     C37402   0.397   5.375   6.663  0.6353  1.4678 -0.0351
  272MOL0     C37403   0.314   5.339   6.768 -0.7917 -0.1757 -0.2674
  272MOL0     C37404   0.303   5.201   6.818 -0.3725 -0.9975  0.2971
  272MOL0     C37405   0.374   5.107   6.758 -1.0178  0.8015  0.1806
  272MOL0     O37406   0.343   4.976   6.797  0.3184 -0.6041  0.0020
  272MOL0     C37407   0.443   4.886   6.852 -0.8965 -0.3620  0.7227
  272MOL0     C37408   0.482   4.921   6.998  0.2606  0.1785 -0.4163
  272MOL0     C37409   0.590   5.047   7.011  0.1923 -0.4036  0.6767
  272MOL0     C37410   0.610   5.086   7.163 -0.4286  0.9503 -0.7401
  272MOL0     C37411   0.488   5.172   7.219  0.0049  0.3644 -0.1544
  272MOL0     C37412   0.516   5.318   7.232  0.1714  0.5195 -0.2159
  272MOL0     C37413   0.389   5.400   7.265 -0.0615 -0.2852 -0.2565
  272MOL0     C37414   0.348   5.384   7.411 -0.6607 -0.6715 -0.7624
  272MOL0     N37415   0.222   5.450   7.443  0.9085 -0.1767 -0.0239
  272MOL0     C37416   0.104   5.392   7.413 -0.4873 -0.6279 -0.0550
  272MOL0     C37417   0.011   5.467   7.452  1.2864 -0.9744  0.1228
  272MOL0     C37418  -0.142   5.440   7.448  0.1012 -0.4625  0.0951
  272MOL0     C37419  -0.231   5.528   7.543  1.1107  0.1516 -0.7134
  272MOL0     C37420  -0.192   5.507   7.692  0.4162 -0.1326 -0.0273
  272MOL0     C37421  -0.311   5.555   7.775  0.2142  0.2867  0.8066
  272MOL0     O37422  -0.286   5.599   7.914 -1.3630  0.9875  0.6557
  272MOL0     C37423  -0.382   5.668   7.985 -0.3865 -0.0434 -0.2525
  272MOL0     C37424  -0.347   5.673   8.115  0.1888  0.2446  0.0176
  272MOL0     C37425  -0.441   5.696   8.218 -0.1612 -0.5315  0.8103
  272MOL0     C37426  -0.390   5.716   8.360  0.1855 -0.2408  1.0866
  272MOL0     C37427  -0.574   5.713   8.179 -0.1290  0.0522  0.1268
  272MOL0     C37428  -0.692   5.724   8.272 -0.6413 -0.5047 -0.4507
  272MOL0     O37429  -0.808   5.674   8.231  1.5675 -1.4895  0.6723
  272MOL0     C37430  -0.898   5.766   8.182  0.7484  0.6952 -0.5676
  272MOL0     C37431  -1.032   5.716   8.157 -0.2032 -0.3409 -0.1823
  272MOL0     C37432  -1.144   5.806   8.130 -0.7567 -0.2940  0.1086
  272MOL0     C37433  -1.124   5.949   8.127  0.3526  0.8662 -0.3558
  272MOL0     O37434  -1.227   6.037   8.112  0.0604 -0.7040 -0.6646
  272MOL0     C37435  -1.309   6.050   8.233 -1.2647  0.4920 -0.3705
  272MOL0     C37436  -1.225   6.106   8.361 -0.4882  0.4484  0.4128
  272MOL0     C37437  -1.296   6.113   8.497 -0.8228  0.0835  0.4340
  272MOL0     C37438  -1.207   6.187   8.609 -0.2486  0.6602  0.3395
  272MOL0     C37439  -1.270   6.150   8.743  1.0078  0.8412  0.1739
  272MOL0     C37440  -1.200   6.212   8.862 -0.6372 -0.0430 -0.7174
  272MOL0     C37441  -1.254   6.160   8.998  0.4143 -0.7832 -0.5245
  272MOL0     C37442  -1.393   6.207   9.025 -0.5567 -0.5433  0.6326
  272MOL0    Cl37443  -1.449   6.144   9.178  0.5112 -0.2389 -0.2691
  272MOL0     C37444  -0.989   5.990   8.127  0.2153  0.7256  0.7441
  272MOL0     C37445  -0.886   5.904   8.158  0.3385  0.3035 -0.1875
  272MOL0     O37446  -0.677   5.779   8.384 -0.2124  0.0184  0.6456
  272MOL0     C37447  -0.607   5.712   8.042 -1.1530  0.2671  0.0513
  272MOL0     C37448  -0.504   5.701   7.941 -0.1306  0.6699  0.0659
  272MOL0     N37449   0.064   5.585   7.500  0.7541  0.2678  0.2782
  272MOL0     N37450   0.189   5.578   7.488 -0.0114 -0.1519  0.0218
  272MOL0     C37451   0.462   5.135   6.652  0.2745  0.5632 -0.1965
  272MOL0     C37452   0.472   5.271   6.608 -0.3668  0.4115  1.1626
  272MOL0     C37453   0.367   5.721   6.532 -0.3781 -0.1053  0.1981
  272MOL0     C37454   0.494   5.724   6.465  0.2279 -0.2213  0.5649
  272MOL0     C37455   0.534   5.827   6.391 -0.4382  1.5528  0.2501
  272MOL0     C37456   0.452   5.938   6.375 -0.2328 -0.1147 -0.1121
  272MOL0     O37457   0.493   6.028   6.290 -0.2257  0.4912  0.9071
  272MOL0     C37458   0.575   6.131   6.340  1.0318  0.4844  0.6312
  272MOL0     C37459   0.710   6.125   6.275  0.4284  0.2045 -0.5925
  272MOL0     C37460   0.809   6.226   6.349  0.6517  0.0961  1.0453
  272MOL0     C37461   0.954   6.206   6.311 -0.7671  0.6170 -0.2103
  272MOL0     C37462   1.005   6.078   6.361 -0.0320 -0.2290  0.1359
  272MOL0     C37463   1.056   5.979   6.413 -0.0367 -0.2343  0.3474
  272MOL0     C37464   0.328   5.934   6.433 -0.1348  0.4926 -0.6813
  272MOL0     C37465   0.286   5.839   6.515  0.3410 -0.5924 -0.8704
  272MOL0     C37466   0.151   5.861   6.575  0.4147  0.1243  0.1967
  272MOL0     H37467   0.260   5.416   6.824 -0.8236 -0.1009 -0.3992
  272MOL0     H37468   0.265   5.167   6.913  2.6881 -2.1842  1.2165
  272MOL0     H37469   0.533   4.892   6.790 -3.0733  1.7327 -2.5224
  272MOL0     H37470   0.405   4.784   6.848  1.1111 -1.1096 -0.3884
  272MOL0     H37471   0.394   4.934   7.062  1.9872  2.5909  1.6697
  272MOL0     H37472   0.534   4.839   7.048 -2.5254 -0.7852  1.1383
  272MOL0     H37473   0.683   5.029   6.956  1.1178  0.9386  1.7377
  272MOL0     H37474   0.555   5.140   6.966 -1.8709 -1.0231  0.9179
  272MOL0     H37475   0.602   4.995   7.222 -0.3017  0.9827 -0.6748
  272MOL0     H37476   0.701   5.146   7.168 -0.4707  1.2358 -2.4975
  272MOL0     H37477   0.461   5.130   7.317 -0.8136  1.4565  0.1152
  272MOL0     H37478   0.399   5.166   7.157  1.3860 -1.2111 -2.0919
  272MOL0     H37479   0.585   5.339   7.314  2.0585 -0.0752 -1.5884
  272MOL0     H37480   0.554   5.357   7.138 -0.2506  2.9796  0.5629
  272MOL0     H37481   0.302   5.396   7.198 -0.1370 -1.1691 -0.1161
  272MOL0     H37482   0.430   5.501   7.271  2.5767 -1.2237 -0.9911
  272MOL0     H37483   0.349   5.277   7.433  3.0235 -1.3706 -3.3601
  272MOL0     H37484   0.433   5.434   7.458 -1.4576  0.7515 -0.7861
  272MOL0     H37485   0.099   5.296   7.362  0.7254  1.0444 -3.6597
  272MOL0     H37486  -0.164   5.333   7.457 -2.7203 -0.0438 -0.9726
  272MOL0     H37487  -0.183   5.457   7.349 -4.2849  1.7310  2.0325
  272MOL0     H37488  -0.218   5.633   7.514  1.7558  0.1451 -0.4590
  272MOL0     H37489  -0.335   5.500   7.525  1.6577 -1.3365 -1.7034
  272MOL0     H37490  -0.179   5.401   7.716 -0.9610  0.0940  1.9976
  272MOL0     H37491  -0.094   5.551   7.711  0.4699  0.7891 -2.1718
  272MOL0     H37492  -0.326   5.654   7.730  1.5128  0.8482  1.5480
  272MOL0     H37493  -0.400   5.492   7.765 -0.4526  1.3956 -0.5815
  272MOL0     H37494  -0.242   5.660   8.139  0.1267  0.5403  0.4751
  272MOL0     H37495  -0.405   5.818   8.397 -4.4940 -0.4248  0.3656
  272MOL0     H37496  -0.284   5.695   8.376  0.0944 -1.2280  0.4826
  272MOL0     H37497  -0.455   5.646   8.413 -2.8537  4.1228  3.8033
  272MOL0     H37498  -1.046   5.611   8.179  3.0857 -0.5858  1.3584
  272MOL0     H37499  -1.246   5.772   8.120 -0.1204 -2.0343 -0.9584
  272MOL0     H37500  -1.397   6.115   8.226 -0.7638  1.3479  0.7818
  272MOL0     H37501  -1.351   5.952   8.252 -0.3766 -0.4409 -2.8181
  272MOL0     H37502  -1.130   6.052   8.371  0.7425  2.0910 -1.6712
  272MOL0     H37503  -1.200   6.210   8.339  1.9756 -0.2408 -0.2877
  272MOL0     H37504  -1.313   6.009   8.529  0.4144 -0.5264 -0.7734
  272MOL0     H37505  -1.391   6.164   8.481 -2.1194 -2.6776 -1.6361
  272MOL0     H37506  -1.209   6.295   8.591  2.3595  0.5331 -1.1772
  272MOL0     H37507  -1.103   6.151   8.610 -0.0070  1.3460  0.8843
  272MOL0     H37508  -1.372   6.187   8.749 -0.4018 -2.6825  0.3438
  272MOL0     H37509  -1.277   6.041   8.742  2.2237  0.7075 -2.6825
  272MOL0     H37510  -1.232   6.317   8.860  1.0657  0.6973  2.7197
  272MOL0     H37511  -1.092   6.215   8.846 -0.3721 -0.7537  0.7947
  272MOL0     H37512  -1.175   6.197   9.064  3.7475 -2.3521 -3.3272
  272MOL0     H37513  -1.249   6.051   8.987  0.9410 -0.6248 -1.9777
  272MOL0     H37514  -1.458   6.163   8.948 -2.0601 -0.9210  2.0486
  272MOL0     H37515  -1.390   6.316   9.023 -0.0559 -0.5122 -3.1134
  272MOL0     H37516  -0.972   6.094   8.101 -0.9392  0.2925 -2.0838
  272MOL0     H37517  -0.785   5.945   8.164  0.5024  0.1200 -1.5256
  272MOL0     H37518  -0.704   5.723   7.995 -0.8353 -2.5643 -1.5251
  272MOL0     H37519  -0.527   5.709   7.835  0.1495  2.3732  0.1039
  272MOL0     H37520   0.512   5.051   6.605  1.8489  0.2493  1.9101
  272MOL0     H37521   0.532   5.298   6.522  0.8432  3.5795  2.8734
  272MOL0     H37522   0.568   5.645   6.461  2.5320  1.7890  1.3926
  272MOL0     H37523   0.625   5.805   6.335 -1.2234  1.0727 -0.8696
  272MOL0     H37524   0.526   6.226   6.315  1.5072  0.7544  0.7103
  272MOL0     H37525   0.586   6.117   6.448 -2.9371 -1.1155  0.9770
  272MOL0     H37526   0.719   6.147   6.168  4.6733 -1.0945 -0.6887
  272MOL0     H37527   0.750   6.024   6.284  2.4555  1.1659  2.2719
  272MOL0     H37528   0.785   6.329   6.318  2.9535  0.4901  0.3994
  272MOL0     H37529   0.801   6.220   6.458 -0.7824 -0.4771  0.9337
  272MOL0     H37530   1.024   6.286   6.334  0.0804  0.2435 -1.3565
  272MOL0     H37531   0.958   6.185   6.203  2.3727 -3.8736  0.4603
  272MOL0     H37532   1.078   5.891   6.470  1.4906  1.3188  2.3452
  272MOL0     H37533   0.270   6.024   6.418 -0.8870  0.2468  0.5715
  272MOL0     H37534   0.156   5.842   6.683 -1.0587  2.0679  0.6659
  272MOL0     H37535   0.123   5.966   6.561  0.7266  0.3151  0.9333
  272MOL0     H37536   0.067   5.796   6.551  0.1893  0.4224  0.1644
  273MOL0     O37537   9.537   7.668   6.032 -0.0422 -0.4646  0.1393
  273MOL0     C37538   9.579   7.557   6.006  0.0939  0.7445  0.5596
  273MOL0     O37539   9.535   7.477   5.911  0.5474  0.0583 -0.1837
  273MOL0     C37540   9.456   7.523   5.806 -0.5061  0.4027  0.2093
  273MOL0     C37541   9.335   7.462   5.790 -0.2259  0.2850 -0.2585
  273MOL0     C37542   9.252   7.510   5.676 -0.1363  0.5453 -1.0478
  273MOL0     C37543   9.287   7.618   5.596  0.5696 -0.3124  0.2114
  273MOL0     O37544   9.229   7.672   5.486 -0.0628  0.1179 -0.3018
  273MOL0     C37545   9.105   7.612   5.433 -0.1808 -0.1907 -0.0139
  273MOL0     C37546   9.073   7.674   5.302  0.6487  0.5572 -0.4965
  273MOL0     C37547   8.953   7.612   5.225  0.5401 -0.0427  0.3355
  273MOL0     C37548   8.963   7.456   5.219  1.0422 -1.2656  0.2894
  273MOL0     C37549   8.839   7.399   5.148 -0.1082 -0.4282 -1.1484
  273MOL0     C37550   8.828   7.253   5.181  0.6143 -0.3692 -0.0718
  273MOL0     C37551   8.739   7.169   5.094 -1.0604  0.3404  0.1394
  273MOL0     C37552   8.596   7.175   5.159 -0.0781 -0.6449  0.6386
  273MOL0     N37553   8.515   7.297   5.118  0.0960 -0.0854 -0.5863
  273MOL0     C37554   8.477   7.324   4.989  1.1340 -0.2434  0.7112
  273MOL0     C37555   8.385   7.424   4.991  0.7297 -0.0037  0.0035
  273MOL0     C37556   8.314   7.486   4.876  0.5000  0.6745  0.4872
  273MOL0     C37557   8.159   7.467   4.894  0.0963 -0.3880 -0.1039
  273MOL0     C37558   8.129   7.318   4.912 -0.2772  1.0263 -0.1805
  273MOL0     C37559   7.983   7.278   4.898 -0.2864 -0.0020  0.3636
  273MOL0     O37560   7.963   7.295   4.764  0.1849 -0.3566 -0.2590
  273MOL0     C37561   7.896   7.202   4.698 -0.1609  0.0155 -0.1114
  273MOL0     C37562   7.788   7.238   4.621 -0.1530 -0.5388  0.1278
  273MOL0     C37563   7.719   7.151   4.545 -0.1739  0.5334 -0.8227
  273MOL0     C37564   7.604   7.205   4.452 -0.2299 -1.2949 -0.3728
  273MOL0     C37565   7.769   7.014   4.559 -0.1907  1.0356  0.6070
  273MOL0     C37566   7.699   6.905   4.486  0.2555  0.0272 -0.4133
  273MOL0     O37567   7.607   6.826   4.547 -0.5296 -0.3998 -1.2678
  273MOL0     C37568   7.566   6.710   4.496  0.7177  0.8181  0.6850
  273MOL0     C37569   7.654   6.603   4.487 -0.9612  0.9615  0.1880
  273MOL0     C37570   7.618   6.484   4.426 -0.5200  0.2961 -0.1420
  273MOL0     C37571   7.490   6.465   4.368 -0.1929  0.9464 -0.6875
  273MOL0     O37572   7.460   6.337   4.306 -0.3476 -0.8450  0.6013
  273MOL0     C37573   7.363   6.355   4.203 -0.1634 -0.6810 -0.0788
  273MOL0     C37574   7.344   6.218   4.139 -0.8433 -0.2780 -0.4637
  273MOL0     C37575   7.252   6.231   4.018 -0.1766 -0.7518  0.7016
  273MOL0     C37576   7.226   6.096   3.947  0.1693 -0.2127 -0.0868
  273MOL0     C37577   7.341   5.994   3.943 -0.2900  1.1666 -0.0847
  273MOL0     C37578   7.304   5.864   3.871  0.3881  0.2995  0.4049
  273MOL0     C37579   7.323   5.881   3.718 -0.6360 -0.1155  0.7937
  273MOL0     C37580   7.452   5.928   3.669  0.2486  0.4889  0.2726
  273MOL0    Cl37581   7.569   5.797   3.692  0.1419 -0.3551  0.5945
  273MOL0     C37582   7.401   6.574   4.384  0.4280  0.3087  0.3085
  273MOL0     C37583   7.439   6.691   4.437 -0.2114  0.0324  0.0367
  273MOL0     O37584   7.722   6.906   4.366  0.5246  0.0442 -0.4350
  273MOL0     C37585   7.871   6.974   4.637 -1.0968  0.3184 -0.4864
  273MOL0     C37586   7.943   7.069   4.706  0.4753 -0.3757 -0.1254
  273MOL0     N37587   8.380   7.467   5.125  0.1362 -0.1499  0.0649
  273MOL0     N37588   8.454   7.386   5.205  0.9437 -0.3611  0.6737
  273MOL0     C37589   9.406   7.684   5.635 -0.0450  0.7002 -0.4920
  273MOL0     C37590   9.490   7.639   5.733  1.2338 -0.2352  0.6366
  273MOL0     C37591   9.646   7.482   6.109 -0.1966  0.2629  0.2708
  273MOL0     C37592   9.614   7.513   6.236 -0.1106 -0.4872 -1.6127
  273MOL0     C37593   9.660   7.428   6.339 -0.2244 -0.9516 -1.3496
  273MOL0     C37594   9.765   7.335   6.314 -0.4667 -0.1157 -1.0435
  273MOL0     O37595   9.814   7.244   6.405  0.8007  0.1771 -1.1105
  273MOL0     C37596   9.799   7.277   6.543  0.2660 -0.8066  0.1284
  273MOL0     C37597   9.843   7.159   6.628  0.0358  0.6719  0.4118
  273MOL0     C37598   9.769   7.030   6.574  0.4060  0.3593  0.7157
  273MOL0     C37599   9.860   6.918   6.515 -0.5637 -0.1724  0.4682
  273MOL0     C37600   9.776   6.801   6.469  0.7885 -1.2229  0.1000
  273MOL0     C37601   9.727   6.688   6.453  0.2430  0.2316  0.1914
  273MOL0     C37602   9.807   7.319   6.190 -0.8585 -0.1869  0.0342
  273MOL0     C37603   9.751   7.390   6.083 -0.3352 -0.0900 -0.2931
  273MOL0     C37604   9.798   7.362   5.940 -1.2566  1.0102 -0.0090
  273MOL0     H37605   9.295   7.388   5.859  0.3705  1.7622  1.7983
  273MOL0     H37606   9.160   7.452   5.669 -1.4660  2.4586 -0.2694
  273MOL0     H37607   9.023   7.624   5.505 -1.2075 -2.0207 -0.7923
  273MOL0     H37608   9.136   7.511   5.408  2.3705 -0.1114  2.3514
  273MOL0     H37609   9.044   7.779   5.318 -0.2619  0.3481 -0.6943
  273MOL0     H37610   9.159   7.664   5.236  0.4658 -0.9974 -0.5250
  273MOL0     H37611   8.860   7.655   5.262  1.2342 -0.1815  2.3625
  273MOL0     H37612   8.972   7.649   5.124  0.7354  0.9864  0.7325
  273MOL0     H37613   9.055   7.417   5.175  1.0661 -1.0762  0.1728
  273MOL0     H37614   8.960   7.419   5.322 -0.4578 -0.4106  0.5767
  273MOL0     H37615   8.837   7.416   5.040 -1.4330 -3.2550 -1.6741
  273MOL0     H37616   8.749   7.448   5.187 -1.1438 -3.1754  0.2371
  273MOL0     H37617   8.929   7.210   5.185  1.2769  1.1027 -0.4469
  273MOL0     H37618   8.805   7.243   5.287 -0.1794 -1.8718 -0.3534
  273MOL0     H37619   8.776   7.066   5.099  0.8806  0.6963 -3.5898
  273MOL0     H37620   8.737   7.194   4.988  1.8733 -1.1507 -0.3869
  273MOL0     H37621   8.545   7.085   5.126 -2.2621  0.3407  1.1788
  273MOL0     H37622   8.589   7.170   5.268 -2.2263  1.5555  0.6923
  273MOL0     H37623   8.496   7.275   4.894 -0.2771 -1.4378  1.0163
  273MOL0     H37624   8.335   7.434   4.782 -1.9421  0.3113  0.0793
  273MOL0     H37625   8.355   7.583   4.847  3.4634 -0.6423 -0.0333
  273MOL0     H37626   8.127   7.524   4.982 -2.0070 -0.2362 -0.9234
  273MOL0     H37627   8.111   7.509   4.806  0.3890  1.7485  0.6968
  273MOL0     H37628   8.182   7.271   4.828  1.1215  0.6648  0.8572
  273MOL0     H37629   8.166   7.269   5.003  0.1350 -1.7295 -1.7289
  273MOL0     H37630   7.950   7.178   4.927 -2.9015 -0.1885 -2.6707
  273MOL0     H37631   7.912   7.340   4.954 -0.2416 -0.1643  0.6032
  273MOL0     H37632   7.763   7.343   4.610  2.3312 -0.0960 -2.4318
  273MOL0     H37633   7.572   7.295   4.505  4.4516 -0.8604  2.2416
  273MOL0     H37634   7.529   7.127   4.437 -1.5108 -0.2877  0.5548
  273MOL0     H37635   7.651   7.241   4.360  1.8053  3.5209  2.1770
  273MOL0     H37636   7.747   6.612   4.543  0.0710  0.0213 -1.3254
  273MOL0     H37637   7.695   6.408   4.438  0.1227  0.9267 -0.1877
  273MOL0     H37638   7.273   6.395   4.251  0.4302  1.1972 -0.4324
  273MOL0     H37639   7.398   6.428   4.130 -0.1333  2.2595  2.6372
  273MOL0     H37640   7.439   6.170   4.115  0.6160  0.4119  3.2267
  273MOL0     H37641   7.300   6.146   4.209 -1.0332 -0.3614 -0.6684
  273MOL0     H37642   7.303   6.293   3.944 -1.0633  0.3610  1.0067
  273MOL0     H37643   7.152   6.268   4.042 -0.2081 -1.1254  1.1500
  273MOL0     H37644   7.196   6.118   3.844  1.7225  0.2450 -0.4658
  273MOL0     H37645   7.139   6.050   3.995  0.2771  1.7799  2.2289
  273MOL0     H37646   7.439   6.036   3.919  0.8042 -1.3466 -0.3852
  273MOL0     H37647   7.360   5.959   4.045 -0.9490 -1.1863 -0.7020
  273MOL0     H37648   7.200   5.852   3.904 -0.2064  3.5570  0.0144
  273MOL0     H37649   7.360   5.785   3.922  0.8169  1.0611  1.1279
  273MOL0     H37650   7.249   5.954   3.685 -2.4780 -2.3856 -0.3817
  273MOL0     H37651   7.298   5.792   3.659  2.4390 -1.4107  1.2565
  273MOL0     H37652   7.482   6.022   3.716  1.3496  0.5778 -0.5769
  273MOL0     H37653   7.450   5.948   3.561 -4.5220 -0.8719 -0.1407
  273MOL0     H37654   7.298   6.567   4.350  0.1440 -0.3482  1.2873
  273MOL0     H37655   7.364   6.769   4.446  1.7974  1.8760  1.8250
  273MOL0     H37656   7.901   6.870   4.636  1.8583  1.0855 -1.6378
  273MOL0     H37657   8.032   7.048   4.765  0.3732  2.0457  1.0051
  273MOL0     H37658   9.436   7.780   5.592  1.6559  0.3599 -0.1552
  273MOL0     H37659   9.578   7.702   5.743  0.6652  0.5725  0.6572
  273MOL0     H37660   9.550   7.594   6.268 -1.4670 -0.1168 -4.9264
  273MOL0     H37661   9.613   7.443   6.435  0.4946 -0.3393 -1.0850
  273MOL0     H37662   9.859   7.362   6.574  0.9491 -0.4266 -2.0208
  273MOL0     H37663   9.693   7.297   6.565  1.0413  2.2150  1.5622
  273MOL0     H37664   9.819   7.183   6.732 -0.2668  0.4789  0.3885
  273MOL0     H37665   9.951   7.152   6.618 -0.1026  0.5652 -1.1826
  273MOL0     H37666   9.713   6.989   6.659 -0.0832 -2.1536 -0.7219
  273MOL0     H37667   9.700   7.047   6.491  0.5846 -1.2071  0.2083
  273MOL0     H37668   9.934   6.875   6.584 -1.6062 -1.1117  1.0345
  273MOL0     H37669   9.913   6.964   6.431  2.8691 -1.5087  1.6912
  273MOL0     H37670   9.682   6.591   6.445  0.9106 -0.1302  0.7086
  273MOL0     H37671   9.876   7.240   6.161 -0.6828  0.4170 -1.2389
  273MOL0     H37672   9.889   7.301   5.950 -0.8715  1.1755 -2.1125
  273MOL0     H37673   9.728   7.295   5.890 -0.2058  0.4026 -0.7015
  273MOL0     H37674   9.820   7.452   5.882  0.5014  1.4872  1.2899
  274MOL0     O37675   6.365   5.689   0.695 -0.6702 -0.2885  0.1412
  274MOL0     C37676   6.436   5.774   0.637 -0.7762  0.0559  0.7465
  274MOL0     O37677   6.390   5.856   0.543 -0.0502 -0.2386  0.1688
  274MOL0     C37678   6.249   5.856   0.522  0.8661 -0.4704 -0.1575
  274MOL0     C37679   6.182   5.789   0.418 -1.0141  0.0160  0.7214
  274MOL0     C37680   6.049   5.793   0.401 -0.6149  1.1667  1.4834
  274MOL0     C37681   5.963   5.842   0.498  0.2722 -0.4411 -0.5199
  274MOL0     O37682   5.827   5.843   0.489  0.8257 -0.5521  0.1339
  274MOL0     C37683   5.781   5.710   0.481  0.0091  0.3716 -0.2756
  274MOL0     C37684   5.649   5.708   0.401  0.0615 -0.0820  0.5948
  274MOL0     C37685   5.516   5.751   0.478 -0.0528 -1.0045 -0.7376
  274MOL0     C37686   5.413   5.802   0.382 -0.1964  0.8742  0.2282
  274MOL0     C37687   5.353   5.687   0.296  0.1701 -0.1320  0.1440
  274MOL0     C37688   5.231   5.724   0.218  0.0754  0.7625  0.1991
  274MOL0     C37689   5.266   5.836   0.115  0.0891  0.3147 -0.1815
  274MOL0     C37690   5.126   5.882   0.058  0.6921 -0.0632  1.2224
  274MOL0     N37691   5.134   6.000  -0.039  0.0073 -0.3212 -0.4649
  274MOL0     C37692   5.151   6.004  -0.176  0.1250 -0.0747  0.8860
  274MOL0     C37693   5.199   6.135  -0.200 -0.4654 -0.7246 -0.3887
  274MOL0     C37694   5.242   6.192  -0.343 -0.0517 -0.5747 -0.3182
  274MOL0     C37695   5.242   6.082  -0.448  0.0159  0.3944 -0.1226
  274MOL0     C37696   5.256   6.150  -0.575  0.0106  0.7035  0.1580
  274MOL0     C37697   5.201   6.064  -0.695 -1.1573 -0.6897  0.3070
  274MOL0     O37698   5.066   6.027  -0.679  0.5624  0.2875 -0.2421
  274MOL0     C37699   5.005   5.968  -0.781  0.1860  1.0120 -0.6845
  274MOL0     C37700   4.880   5.907  -0.754 -0.1840 -0.7888  0.4377
  274MOL0     C37701   4.801   5.839  -0.843  0.7790 -0.6404  0.6935
  274MOL0     C37702   4.663   5.800  -0.794  0.8362 -0.4379  0.5548
  274MOL0     C37703   4.858   5.809  -0.974  0.3288  1.1816  0.0086
  274MOL0     C37704   4.789   5.717  -1.071  0.5396 -0.3504 -0.3152
  274MOL0     O37705   4.654   5.669  -1.042  0.1426  0.2441 -0.4865
  274MOL0     C37706   4.610   5.555  -1.096 -0.5041  0.9153  0.5863
  274MOL0     C37707   4.471   5.560  -1.128  0.6606  0.5772 -0.7335
  274MOL0     C37708   4.397   5.456  -1.194 -0.0223  0.2382  0.8144
  274MOL0     C37709   4.462   5.335  -1.210 -0.7528 -0.4222  0.6340
  274MOL0     O37710   4.395   5.235  -1.275 -0.0646  0.7790 -1.2180
  274MOL0     C37711   4.418   5.087  -1.259 -0.1210 -0.5790  0.7241
  274MOL0     C37712   4.332   5.015  -1.364  0.7806 -0.5785  1.0147
  274MOL0     C37713   4.301   4.866  -1.331 -0.6216 -0.9228  0.0755
  274MOL0     C37714   4.427   4.780  -1.337 -0.1344  0.9222 -0.8816
  274MOL0     C37715   4.408   4.629  -1.320  0.4939 -1.0977 -0.7112
  274MOL0     C37716   4.530   4.544  -1.354  0.0707  0.2265 -0.2717
  274MOL0     C37717   4.491   4.390  -1.347  0.1557  0.3375 -0.5170
  274MOL0     C37718   4.604   4.288  -1.382  0.5539 -0.6395 -0.3771
  274MOL0    Cl37719   4.616   4.280  -1.565 -0.6469 -0.4536 -0.2110
  274MOL0     C37720   4.590   5.319  -1.167 -0.1465 -0.2416  0.1265
  274MOL0     C37721   4.671   5.427  -1.112 -0.2394 -0.3246 -0.2270
  274MOL0     O37722   4.850   5.694  -1.180 -0.0604  0.6597  0.0083
  274MOL0     C37723   4.991   5.851  -0.993 -0.9677 -0.4097  0.8725
  274MOL0     C37724   5.058   5.941  -0.910 -0.0128  0.0852 -0.7550
  274MOL0     N37725   5.205   6.206  -0.081 -0.0301 -0.5445  0.1174
  274MOL0     N37726   5.159   6.129   0.014  0.8201  1.0019 -0.3759
  274MOL0     C37727   6.018   5.904   0.610 -0.3600 -0.6575  0.7790
  274MOL0     C37728   6.160   5.915   0.619  0.0773  0.5065  1.2226
  274MOL0     C37729   6.584   5.775   0.666  0.7698 -0.4010 -0.0902
  274MOL0     C37730   6.665   5.806   0.555  0.1456  0.0670  0.1772
  274MOL0     C37731   6.807   5.812   0.559  0.8808 -0.2173  0.6885
  274MOL0     C37732   6.869   5.795   0.684  0.2805 -0.3957 -0.8985
  274MOL0     O37733   7.007   5.822   0.686 -0.7293 -0.5354  0.0037
  274MOL0     C37734   7.072   5.820   0.815  0.4263 -0.5421 -0.1913
  274MOL0     C37735   7.224   5.795   0.808 -0.0371  1.5955 -0.2582
  274MOL0     C37736   7.261   5.640   0.796  0.1865 -0.3123 -0.1532
  274MOL0     C37737   7.375   5.625   0.688  1.0706 -0.1131 -0.2811
  274MOL0     C37738   7.326   5.649   0.549 -0.5972  0.2681 -0.8688
  274MOL0     C37739   7.285   5.648   0.431 -0.5712 -0.1122 -0.4122
  274MOL0     C37740   6.790   5.765   0.797 -0.0277 -0.2760  0.1198
  274MOL0     C37741   6.654   5.750   0.788  0.3904  0.1787 -0.3701
  274MOL0     C37742   6.585   5.696   0.908 -0.8013  0.9850 -0.7912
  274MOL0     H37743   6.245   5.741   0.343 -2.2508 -2.7496  1.3220
  274MOL0     H37744   5.998   5.784   0.305  0.0453  2.7229  0.9485
  274MOL0     H37745   5.753   5.686   0.584  2.4822 -2.7571 -0.1801
  274MOL0     H37746   5.848   5.636   0.436 -1.1356 -1.8448  1.4642
  274MOL0     H37747   5.657   5.777   0.316 -3.7370 -1.4151 -1.0409
  274MOL0     H37748   5.633   5.612   0.353  1.9702  1.0933 -2.7349
  274MOL0     H37749   5.492   5.669   0.546  1.7598  0.8571  2.4375
  274MOL0     H37750   5.541   5.833   0.546  1.3514 -0.2120 -2.1370
  274MOL0     H37751   5.335   5.862   0.430 -1.4907 -0.2778 -0.3541
  274MOL0     H37752   5.457   5.876   0.314 -0.6655 -1.0834 -2.3432
  274MOL0     H37753   5.323   5.611   0.368 -0.3912 -1.8026 -1.7459
  274MOL0     H37754   5.418   5.629   0.230 -1.6223 -1.9859 -0.0989
  274MOL0     H37755   5.213   5.631   0.163 -0.3204 -0.5185  2.3701
  274MOL0     H37756   5.154   5.753   0.291  0.0418 -2.5528  1.6644
  274MOL0     H37757   5.341   5.802   0.043  0.8701  0.0060  0.7676
  274MOL0     H37758   5.308   5.926   0.160 -0.2922 -0.1693  1.1626
  274MOL0     H37759   5.080   5.794   0.014  2.1303  0.2423 -1.0889
  274MOL0     H37760   5.074   5.918   0.147  2.3007  3.8737  0.7780
  274MOL0     H37761   5.165   5.915  -0.237  1.8944 -1.5133  3.2418
  274MOL0     H37762   5.338   6.242  -0.331  0.4116 -1.7305  1.1779
  274MOL0     H37763   5.158   6.261  -0.360  0.1401 -0.6617 -1.7470
  274MOL0     H37764   5.325   6.017  -0.420 -0.7562 -0.1043  1.0927
  274MOL0     H37765   5.145   6.032  -0.444 -0.8129  2.0207  1.2514
  274MOL0     H37766   5.196   6.242  -0.576 -1.4900 -0.2378  0.7657
  274MOL0     H37767   5.363   6.171  -0.588 -0.3103  3.4797  1.1704
  274MOL0     H37768   5.206   6.128  -0.783 -0.0966  0.8535  1.4583
  274MOL0     H37769   5.269   5.979  -0.708  2.5009  1.9139  1.1566
  274MOL0     H37770   4.842   5.936  -0.656 -0.0799  1.4266 -0.1185
  274MOL0     H37771   4.634   5.855  -0.704 -0.1355  0.4324 -0.2636
  274MOL0     H37772   4.665   5.701  -0.748 -0.0414  0.6794  3.2127
  274MOL0     H37773   4.584   5.810  -0.869 -0.1202 -3.2137  1.0824
  274MOL0     H37774   4.425   5.655  -1.105  0.2206  0.7134 -2.0723
  274MOL0     H37775   4.293   5.458  -1.226  0.5574 -2.8272 -1.6304
  274MOL0     H37776   4.520   5.048  -1.265 -0.5926 -1.6712 -1.1631
  274MOL0     H37777   4.391   5.052  -1.159 -1.1225 -0.9508  0.3376
  274MOL0     H37778   4.238   5.072  -1.359  1.9669  1.3927  2.9902
  274MOL0     H37779   4.378   5.025  -1.462 -0.8501 -0.8510  0.1851
  274MOL0     H37780   4.238   4.813  -1.403 -0.4838 -0.5109 -0.3520
  274MOL0     H37781   4.241   4.867  -1.239 -0.6518  4.1968  0.2796
  274MOL0     H37782   4.490   4.798  -1.250  1.3735 -1.7837 -1.3310
  274MOL0     H37783   4.486   4.787  -1.429 -0.4367 -2.9979 -1.5470
  274MOL0     H37784   4.366   4.604  -1.222 -3.0175 -0.4569 -1.9392
  274MOL0     H37785   4.335   4.598  -1.395 -0.2760 -0.3654 -0.2714
  274MOL0     H37786   4.611   4.563  -1.283  0.6340 -1.2179 -0.5080
  274MOL0     H37787   4.572   4.569  -1.452  1.7139 -1.2150  0.0174
  274MOL0     H37788   4.405   4.373  -1.412  0.2564  1.7903 -1.0665
  274MOL0     H37789   4.467   4.367  -1.242  0.4536  0.0765 -0.5035
  274MOL0     H37790   4.581   4.187  -1.346  1.2175  0.3339  3.1902
  274MOL0     H37791   4.693   4.322  -1.327 -1.7260 -0.0196  3.3239
  274MOL0     H37792   4.648   5.229  -1.185  2.6957  1.4634  0.2829
  274MOL0     H37793   4.775   5.421  -1.084 -0.9701  0.7229  3.2252
  274MOL0     H37794   5.043   5.811  -1.079  0.4380 -3.1955  2.8574
  274MOL0     H37795   5.155   5.972  -0.948  0.5683 -1.0657 -0.2634
  274MOL0     H37796   5.947   5.950   0.678 -1.8409 -2.0260  0.2384
  274MOL0     H37797   6.204   5.975   0.698  2.3415  0.8496 -0.1803
  274MOL0     H37798   6.619   5.821   0.458  0.1013  1.1534  0.3525
  274MOL0     H37799   6.871   5.841   0.477  2.4440  0.9682  2.2399
  274MOL0     H37800   7.057   5.924   0.847 -0.3358  0.3956 -3.2275
  274MOL0     H37801   7.034   5.741   0.879 -0.4504 -2.7078 -3.1371
  274MOL0     H37802   7.266   5.837   0.900  3.0384 -1.4046 -0.0972
  274MOL0     H37803   7.258   5.848   0.719  0.4885  0.7426 -0.5763
  274MOL0     H37804   7.298   5.609   0.894 -0.7504  0.7238  0.5470
  274MOL0     H37805   7.181   5.568   0.776  2.9255 -3.8206  0.4297
  274MOL0     H37806   7.403   5.519   0.686  0.8909 -0.1802 -2.7009
  274MOL0     H37807   7.460   5.689   0.713  2.1890 -1.8219  0.5225
  274MOL0     H37808   7.282   5.627   0.326 -1.3496 -3.0737  0.1432
  274MOL0     H37809   6.828   5.751   0.898  0.0462  0.6961  0.2351
  274MOL0     H37810   6.530   5.780   0.950 -3.0791 -0.7393 -0.1001
  274MOL0     H37811   6.515   5.615   0.885 -0.8306  0.0248  2.1833
  274MOL0     H37812   6.659   5.653   0.976  2.4518  4.2755 -1.9515
  275MOL0     O37813  10.810   4.723  10.838 -0.3625 -0.0605  0.5574
  275MOL0     C37814  10.845   4.826  10.785 -0.5491  0.9812  0.4851
  275MOL0     O37815  10.799   4.952  10.806  0.4368 -0.1968  0.1945
  275MOL0     C37816  10.678   4.980  10.868 -0.1780  0.1603  0.1244
  275MOL0     C37817  10.574   4.897  10.909 -0.0955 -0.0152  0.3340
  275MOL0     C37818  10.456   4.955  10.946  0.6149  0.0681 -0.0301
  275MOL0     C37819  10.436   5.098  10.958  0.3184  0.1084  0.7510
  275MOL0     O37820  10.312   5.142  10.988  0.2195 -0.2312  0.0279
  275MOL0     C37821  10.278   5.285  10.995  0.1164  0.3453  0.8304
  275MOL0     C37822  10.122   5.285  11.020 -0.5520  0.4658 -0.0646
  275MOL0     C37823  10.039   5.260  10.895  0.4324 -0.2534  0.3130
  275MOL0     C37824   9.902   5.194  10.921  0.3425  1.0444 -0.2349
  275MOL0     C37825   9.808   5.188  10.797  0.2064  0.0945 -0.4532
  275MOL0     C37826   9.845   5.078  10.692 -0.0034 -0.4322 -0.8279
  275MOL0     C37827   9.723   5.036  10.597 -0.2673 -0.2834 -1.1817
  275MOL0     C37828   9.690   5.139  10.487  0.6850 -0.1701  0.2595
  275MOL0     N37829   9.539   5.153  10.477 -0.0430  0.0367 -0.0364
  275MOL0     C37830   9.453   5.080  10.398 -0.4371  0.8013 -0.3647
  275MOL0     C37831   9.326   5.122  10.434  0.5590  0.5827  0.4639
  275MOL0     C37832   9.204   5.047  10.380  0.3094 -0.2682 -0.1045
  275MOL0     C37833   9.121   5.152  10.295 -0.7891 -0.2982 -0.6496
  275MOL0     C37834   8.979   5.103  10.260  0.3539  0.4737  0.1161
  275MOL0     C37835   8.898   5.205  10.179  0.1021 -0.5496  0.2536
  275MOL0     O37836   8.773   5.138  10.178  0.2187 -0.0530  0.3786
  275MOL0     C37837   8.682   5.195  10.092 -0.0108  0.0218 -0.4171
  275MOL0     C37838   8.696   5.294   9.999 -0.2955 -0.2638  0.6927
  275MOL0     C37839   8.589   5.334   9.918 -0.4250 -0.5770  0.3873
  275MOL0     C37840   8.626   5.433   9.804  0.3148 -0.5272  0.2746
  275MOL0     C37841   8.458   5.276   9.935  0.0455  0.4449 -1.0998
  275MOL0     C37842   8.328   5.304   9.866  0.1364 -1.0240  0.9222
  275MOL0     O37843   8.218   5.268   9.920  0.1652  0.6573 -0.1372
  275MOL0     C37844   8.099   5.312   9.860  0.0192  0.4692  0.6392
  275MOL0     C37845   8.048   5.446   9.895  0.3455  0.6127  0.2208
  275MOL0     C37846   7.940   5.500   9.831  0.3882  0.0477 -0.4796
  275MOL0     C37847   7.862   5.417   9.741  0.3841  0.6635 -0.3831
  275MOL0     O37848   7.764   5.458   9.652  0.7113  0.2902  0.0151
  275MOL0     C37849   7.738   5.590   9.632  0.1613 -0.7195  0.0733
  275MOL0     C37850   7.637   5.602   9.520  0.3722  0.1238  0.1100
  275MOL0     C37851   7.507   5.529   9.547 -0.4296  0.2241  0.5262
  275MOL0     C37852   7.410   5.527   9.425  0.3575  0.9417 -0.6945
  275MOL0     C37853   7.312   5.646   9.417  0.0193  0.3494  0.7953
  275MOL0     C37854   7.385   5.781   9.418  0.6139 -1.0189 -0.0973
  275MOL0     C37855   7.275   5.897   9.406  0.7861 -0.2190  0.2971
  275MOL0     C37856   7.308   5.998   9.507 -0.6912 -0.0761  0.8046
  275MOL0    Cl37857   7.451   6.080   9.457  0.3427 -0.6295  0.1103
  275MOL0     C37858   7.907   5.284   9.708 -0.2584  0.3108 -0.1036
  275MOL0     C37859   8.021   5.234   9.764 -0.4393  0.7432 -0.2422
  275MOL0     O37860   8.330   5.352   9.753 -0.1185  0.1295 -0.4258
  275MOL0     C37861   8.452   5.170  10.029  1.4500 -0.3330 -0.4000
  275MOL0     C37862   8.555   5.135  10.107  0.1071 -0.3509  0.5458
  275MOL0     N37863   9.337   5.221  10.529  0.1903  0.0178 -0.3247
  275MOL0     N37864   9.470   5.243  10.550  0.5264 -0.1646  0.1654
  275MOL0     C37865  10.547   5.179  10.927 -0.1585  0.2483  0.2926
  275MOL0     C37866  10.669   5.119  10.887 -0.2821  0.0680  0.2812
  275MOL0     C37867  10.951   4.798  10.691  0.4976  0.3268 -0.2959
  275MOL0     C37868  10.938   4.694  10.605  0.6611  0.1190  0.1895
  275MOL0     C37869  11.026   4.672  10.502 -0.3755  0.8994 -0.3357
  275MOL0     C37870  11.133   4.753  10.485  0.2839  0.0267  0.0179
  275MOL0     O37871  11.214   4.736  10.376  0.4510 -0.1082  0.5071
  275MOL0     C37872  11.162   4.830  10.270 -1.0678  0.9931 -0.2592
  275MOL0     C37873  11.251   4.819  10.145  0.3954 -0.5762  0.3615
  275MOL0     C37874  11.238   4.691  10.071 -0.2880 -0.6116 -0.3407
  275MOL0     C37875  11.354   4.681   9.955 -0.1900  0.0042 -0.3369
  275MOL0     C37876  11.365   4.542   9.899 -0.3559 -0.2629  0.1044
  275MOL0     C37877  11.377   4.427   9.844  0.3941  0.3511 -0.2600
  275MOL0     C37878  11.148   4.860  10.568  0.1104 -0.0403 -0.5676
  275MOL0     C37879  11.067   4.878  10.679 -0.4185  0.1802  0.0601
  275MOL0     C37880  11.104   4.965  10.796 -0.2974  0.0779 -0.2730
  275MOL0     H37881  10.572   4.791  10.890  0.9471  0.0680 -0.2813
  275MOL0     H37882  10.367   4.895  10.957 -0.1774  1.5897  3.4108
  275MOL0     H37883  10.303   5.338  10.903 -2.9726 -1.4220 -1.2093
  275MOL0     H37884  10.316   5.332  11.086 -2.9522 -1.9193  3.5546
  275MOL0     H37885  10.083   5.214  11.093 -0.3155  1.3891  0.9848
  275MOL0     H37886  10.089   5.384  11.054 -0.9981  0.3382 -0.1283
  275MOL0     H37887  10.014   5.356  10.847 -1.9751 -2.0025 -2.3508
  275MOL0     H37888  10.101   5.196  10.831  1.5624 -0.0158  1.1523
  275MOL0     H37889   9.920   5.089  10.946  0.5742  0.7952 -1.4085
  275MOL0     H37890   9.851   5.232  11.010 -5.0779 -2.3103 -1.4505
  275MOL0     H37891   9.817   5.288  10.753 -1.2585  1.5022  2.1641
  275MOL0     H37892   9.710   5.161  10.836  0.4142 -0.3915 -0.2628
  275MOL0     H37893   9.926   5.116  10.629  0.4467 -1.6937 -1.0479
  275MOL0     H37894   9.883   4.989  10.744 -1.4605  0.4893  2.0020
  275MOL0     H37895   9.636   5.007  10.657 -1.1746 -0.3168 -2.4809
  275MOL0     H37896   9.749   4.934  10.569 -1.8453 -0.7828 -0.9562
  275MOL0     H37897   9.734   5.234  10.517  1.1332  0.7029 -2.8144
  275MOL0     H37898   9.733   5.117  10.389  3.5736  1.7355  0.9832
  275MOL0     H37899   9.484   5.006  10.325 -0.0996 -1.6876  2.1411
  275MOL0     H37900   9.147   5.018  10.469  3.1255  2.0669  2.6716
  275MOL0     H37901   9.227   4.962  10.315  0.4670  1.5578 -2.5823
  275MOL0     H37902   9.110   5.247  10.349  0.0884 -0.2695 -0.5015
  275MOL0     H37903   9.181   5.181  10.209  0.3995 -1.8922 -0.3978
  275MOL0     H37904   8.976   5.022  10.187 -0.9915  0.3043  0.3243
  275MOL0     H37905   8.942   5.073  10.359 -0.8684  0.9835 -0.1648
  275MOL0     H37906   8.889   5.295  10.240  2.6146 -0.3310  0.3983
  275MOL0     H37907   8.942   5.232  10.083 -1.0477 -1.4236 -0.5460
  275MOL0     H37908   8.787   5.353   9.997 -0.4469  0.0177  1.6011
  275MOL0     H37909   8.727   5.468   9.831 -1.1295  1.8835  3.2744
  275MOL0     H37910   8.555   5.516   9.814  0.4704 -0.5148  1.4032
  275MOL0     H37911   8.616   5.373   9.713 -1.4880 -1.3264  0.9475
  275MOL0     H37912   8.095   5.502   9.975 -0.6332  1.8566 -0.0368
  275MOL0     H37913   7.909   5.603   9.850 -1.9481 -0.7056  0.0579
  275MOL0     H37914   7.697   5.627   9.726 -0.1441  0.8975 -0.6741
  275MOL0     H37915   7.828   5.642   9.597  0.1070 -0.8201 -0.2190
  275MOL0     H37916   7.617   5.707   9.497  0.1964  0.4750  1.7138
  275MOL0     H37917   7.679   5.561   9.428  0.1759  0.3474 -0.0820
  275MOL0     H37918   7.454   5.583   9.625 -2.4494  2.5063 -2.2503
  275MOL0     H37919   7.535   5.429   9.583 -0.2524 -0.0327 -0.2904
  275MOL0     H37920   7.354   5.434   9.444 -0.5872  1.6148 -0.1055
  275MOL0     H37921   7.464   5.520   9.330  2.1947 -2.2086  0.3936
  275MOL0     H37922   7.258   5.629   9.323 -0.0114 -0.0217  0.8757
  275MOL0     H37923   7.235   5.638   9.495 -1.4880 -4.0296 -0.8026
  275MOL0     H37924   7.460   5.793   9.339  0.9852 -1.4529  0.1853
  275MOL0     H37925   7.425   5.795   9.519 -3.3261 -2.6467  1.8864
  275MOL0     H37926   7.173   5.862   9.418  0.2021  0.7263 -1.5130
  275MOL0     H37927   7.267   5.953   9.313 -2.6162  0.9257  1.1608
  275MOL0     H37928   7.315   5.958   9.609 -2.0272 -0.0309  0.9319
  275MOL0     H37929   7.229   6.073   9.503 -1.6479 -1.1022 -0.8921
  275MOL0     H37930   7.879   5.223   9.624 -1.8269 -0.9342  1.2514
  275MOL0     H37931   8.039   5.128   9.748 -2.2457  0.6958 -2.6879
  275MOL0     H37932   8.365   5.105  10.041  1.6175 -0.7020 -1.1210
  275MOL0     H37933   8.558   5.044  10.166 -0.7698 -3.1606 -3.3318
  275MOL0     H37934  10.560   5.286  10.921 -2.1476  0.6420  1.9605
  275MOL0     H37935  10.753   5.177  10.849  1.9487 -4.3973 -2.5273
  275MOL0     H37936  10.851   4.629  10.603  2.6977 -2.7754 -1.2182
  275MOL0     H37937  10.998   4.594  10.432 -0.3874  0.6375 -0.0395
  275MOL0     H37938  11.063   4.797  10.236 -0.0802 -1.6990 -0.7551
  275MOL0     H37939  11.143   4.931  10.308 -1.3679 -0.1173  2.8024
  275MOL0     H37940  11.354   4.842  10.172  0.4957 -0.8178  0.1896
  275MOL0     H37941  11.205   4.899  10.087 -1.7963  0.7801  3.6773
  275MOL0     H37942  11.256   4.611  10.144  0.5385 -2.0554 -2.0500
  275MOL0     H37943  11.147   4.671  10.015  2.8679 -3.6374 -5.1497
  275MOL0     H37944  11.449   4.705  10.003  1.8248 -2.2840 -2.8626
  275MOL0     H37945  11.322   4.747   9.874  0.4498  0.3153 -0.3392
  275MOL0     H37946  11.379   4.326   9.810 -2.7473 -0.2163  0.8904
  275MOL0     H37947  11.235   4.919  10.542  0.8122 -1.2069 -0.9739
  275MOL0     H37948  11.213   4.978  10.805 -0.2324  0.4670 -1.4726
  275MOL0     H37949  11.052   5.060  10.782  1.1170  0.9640  0.2794
  275MOL0     H37950  11.081   4.927  10.895  0.6501  2.0609  0.7672
  276MOL0     O37951   1.118   7.334   7.070 -0.5377 -0.4689 -0.2747
  276MOL0     C37952   1.099   7.276   7.173  0.0239 -0.6980  0.4652
  276MOL0     O37953   1.194   7.224   7.252  0.0138 -0.9056 -0.0024
  276MOL0     C37954   1.317   7.278   7.250 -1.0894 -0.7614  0.1209
  276MOL0     C37955   1.335   7.417   7.255  0.2517 -0.4880  0.4747
  276MOL0     C37956   1.467   7.471   7.244  0.2627  0.1664  0.3140
  276MOL0     C37957   1.578   7.390   7.217  0.7324  0.3655  0.2139
  276MOL0     O37958   1.702   7.454   7.188  0.5630 -0.4614 -0.7200
  276MOL0     C37959   1.814   7.362   7.159 -0.7675 -0.3769 -0.0394
  276MOL0     C37960   1.935   7.423   7.090 -0.9670 -0.0668  0.8984
  276MOL0     C37961   1.995   7.537   7.183  0.1304  0.6454  0.0698
  276MOL0     C37962   2.114   7.604   7.118  0.3092  0.1078 -0.7147
  276MOL0     C37963   2.140   7.727   7.199 -0.2726  0.6629  0.4309
  276MOL0     C37964   2.125   7.716   7.355  0.5344  0.1196 -1.1021
  276MOL0     C37965   2.196   7.829   7.427 -0.7588  0.7411  0.4251
  276MOL0     C37966   2.354   7.802   7.433  1.0056 -0.5767  0.2187
  276MOL0     N37967   2.398   7.821   7.570  0.4740 -0.1001 -0.6546
  276MOL0     C37968   2.366   7.923   7.652  0.1388 -0.6383  1.0225
  276MOL0     C37969   2.422   7.893   7.768 -0.0495 -0.1903  0.4882
  276MOL0     C37970   2.414   7.980   7.887 -0.5119  0.9290  0.8758
  276MOL0     C37971   2.437   8.139   7.870 -0.1753  1.2454  0.2159
  276MOL0     C37972   2.303   8.214   7.895 -0.4291  0.5195  0.3999
  276MOL0     C37973   2.265   8.307   7.777 -0.4683  0.3070 -0.6632
  276MOL0     O37974   2.373   8.383   7.727  0.1309 -0.5095 -0.1204
  276MOL0     C37975   2.359   8.460   7.625  0.0631  0.3299 -0.1182
  276MOL0     C37976   2.484   8.507   7.579  0.2454 -0.4281  0.5331
  276MOL0     C37977   2.496   8.589   7.460  0.1205  0.5284 -0.7664
  276MOL0     C37978   2.646   8.608   7.423  0.0001 -0.4014  0.3811
  276MOL0     C37979   2.378   8.639   7.401 -0.2207 -0.5791 -0.2463
  276MOL0     C37980   2.380   8.730   7.287  0.6574 -0.0979  0.0051
  276MOL0     O37981   2.251   8.768   7.237  0.3306  0.4619  0.2703
  276MOL0     C37982   2.251   8.791   7.102  0.6272 -0.3623  0.5418
  276MOL0     C37983   2.190   8.691   7.011 -0.5791 -1.0543 -0.9744
  276MOL0     C37984   2.170   8.719   6.873 -0.5738 -0.1091  1.3444
  276MOL0     C37985   2.225   8.847   6.829 -0.0551  1.0699  0.7925
  276MOL0     O37986   2.213   8.889   6.694  0.6013 -0.2103  0.0879
  276MOL0     C37987   2.169   8.801   6.594  0.4817 -0.0674  0.4182
  276MOL0     C37988   2.198   8.843   6.450 -0.4721 -0.6515  0.4736
  276MOL0     C37989   2.178   8.753   6.319 -0.1323 -0.3003 -0.4212
  276MOL0     C37990   2.277   8.769   6.207 -1.5285 -0.7037  0.1824
  276MOL0     C37991   2.263   8.668   6.085 -0.1427 -0.2327 -0.8171
  276MOL0     C37992   2.356   8.713   5.966  0.6088  0.4994 -0.1485
  276MOL0     C37993   2.319   8.639   5.839 -0.5725 -0.2332  0.4557
  276MOL0     C37994   2.444   8.591   5.771  0.1648  0.4860  0.2159
  276MOL0    Cl37995   2.403   8.495   5.626 -0.1665  0.2537  0.1008
  276MOL0     C37996   2.289   8.935   6.913 -0.0729  0.1823  0.1064
  276MOL0     C37997   2.297   8.911   7.050  0.6856  0.2578 -0.0254
  276MOL0     O37998   2.491   8.764   7.235 -0.3094 -0.0423 -0.0179
  276MOL0     C37999   2.255   8.592   7.449  0.3515 -0.1662 -0.2687
  276MOL0     C38000   2.242   8.499   7.555  0.2071 -0.1166 -0.7896
  276MOL0     N38001   2.479   7.769   7.758 -0.1526 -0.7214  0.0163
  276MOL0     N38002   2.463   7.734   7.639 -0.1083  0.6425  0.1248
  276MOL0     C38003   1.562   7.251   7.234 -0.2446  0.3593 -0.1390
  276MOL0     C38004   1.430   7.195   7.257  0.0011 -0.6719 -0.4253
  276MOL0     C38005   0.954   7.257   7.216  0.0040  0.6104 -0.0699
  276MOL0     C38006   0.855   7.255   7.118  0.4824 -0.0464 -0.8728
  276MOL0     C38007   0.717   7.246   7.142  0.2317 -0.9782 -0.5017
  276MOL0     C38008   0.668   7.234   7.271  0.5245 -0.1356  0.0539
  276MOL0     O38009   0.532   7.225   7.310  0.1315 -0.1669  0.3048
  276MOL0     C38010   0.427   7.182   7.230  0.1579 -0.5778 -0.1393
  276MOL0     C38011   0.305   7.227   7.308 -0.1256 -0.5870  0.4515
  276MOL0     C38012   0.254   7.352   7.247  0.2951 -0.7870 -0.6011
  276MOL0     C38013   0.129   7.397   7.326  0.7063 -0.5922 -0.3031
  276MOL0     C38014   0.012   7.303   7.331 -0.2381 -0.5883  0.5377
  276MOL0     C38015  -0.079   7.217   7.334 -0.2013 -1.2057 -0.6400
  276MOL0     C38016   0.762   7.217   7.367 -0.7123 -0.2628 -0.3700
  276MOL0     C38017   0.906   7.239   7.343  0.3411  0.0944 -0.4601
  276MOL0     C38018   0.996   7.245   7.463 -0.6557  0.7963  0.5139
  276MOL0     H38019   1.246   7.473   7.285  0.1095  0.1965 -1.1034
  276MOL0     H38020   1.477   7.579   7.252 -0.3526  0.2113  0.5268
  276MOL0     H38021   1.789   7.277   7.095  0.8513  0.3605 -1.7313
  276MOL0     H38022   1.858   7.325   7.252 -0.1921 -4.4137 -1.6958
  276MOL0     H38023   2.008   7.344   7.071  0.4503  1.3596  0.0848
  276MOL0     H38024   1.912   7.471   6.995  0.0319 -2.5011 -0.6556
  276MOL0     H38025   1.913   7.609   7.196  0.3440  0.8707  0.1793
  276MOL0     H38026   2.021   7.488   7.278  3.1840 -1.0211 -1.4689
  276MOL0     H38027   2.201   7.538   7.110  0.4232 -0.1782  1.9204
  276MOL0     H38028   2.082   7.626   7.015 -0.3082  1.1278 -0.3204
  276MOL0     H38029   2.080   7.815   7.173  1.1054  2.1857  2.1318
  276MOL0     H38030   2.241   7.757   7.170  0.7523 -0.5336  2.5085
  276MOL0     H38031   2.018   7.731   7.371  0.7097  1.3962 -1.0025
  276MOL0     H38032   2.156   7.620   7.398  0.0648 -0.0232 -1.0739
  276MOL0     H38033   2.152   7.851   7.525  3.4055  1.0665  2.4513
  276MOL0     H38034   2.170   7.916   7.366 -1.9475 -0.3345 -0.6873
  276MOL0     H38035   2.392   7.708   7.391  3.3584  0.0274  0.8463
  276MOL0     H38036   2.399   7.889   7.384 -2.2912  1.9594  1.3496
  276MOL0     H38037   2.316   8.016   7.628  0.1580 -0.8765  0.0197
  276MOL0     H38038   2.498   7.954   7.952  0.0650  2.1774  0.6694
  276MOL0     H38039   2.324   7.953   7.943 -2.2662  1.4219 -1.5356
  276MOL0     H38040   2.504   8.157   7.955  4.0889 -1.1534 -2.2852
  276MOL0     H38041   2.481   8.158   7.772 -0.7050  0.6758 -0.1321
  276MOL0     H38042   2.215   8.156   7.923 -0.5410  0.1375 -0.6862
  276MOL0     H38043   2.318   8.286   7.976 -0.2411 -1.8769  2.6021
  276MOL0     H38044   2.237   8.241   7.694 -0.3467  2.3465 -2.4249
  276MOL0     H38045   2.188   8.378   7.811 -0.6004  0.3462 -1.0394
  276MOL0     H38046   2.569   8.481   7.640 -0.5024 -1.8615  1.0155
  276MOL0     H38047   2.715   8.589   7.505  0.4191  0.1210  0.1532
  276MOL0     H38048   2.666   8.711   7.392 -0.1645 -1.0381 -2.1283
  276MOL0     H38049   2.668   8.539   7.341  0.6230 -1.5380  1.4718
  276MOL0     H38050   2.157   8.592   7.040 -1.6620 -0.0916  1.3883
  276MOL0     H38051   2.102   8.658   6.815 -1.2786  1.6465  0.2320
  276MOL0     H38052   2.220   8.704   6.605  1.0048  0.3164  1.5562
  276MOL0     H38053   2.060   8.794   6.602 -0.4079  2.7442 -4.9462
  276MOL0     H38054   2.145   8.936   6.424  0.5226 -0.2398 -0.1648
  276MOL0     H38055   2.301   8.878   6.455 -2.2057  5.9997 -0.3723
  276MOL0     H38056   2.086   8.793   6.276 -0.1493  0.3692  0.2138
  276MOL0     H38057   2.161   8.651   6.353  0.2715  0.1213  1.1214
  276MOL0     H38058   2.380   8.758   6.242 -0.5511  1.3781 -1.7611
  276MOL0     H38059   2.291   8.873   6.176  0.6623 -0.3777  1.9964
  276MOL0     H38060   2.289   8.565   6.109 -2.7600 -0.5232  1.1390
  276MOL0     H38061   2.160   8.661   6.051 -0.1244  0.9782 -1.1882
  276MOL0     H38062   2.458   8.688   5.995  0.2512  2.6774  3.7737
  276MOL0     H38063   2.349   8.821   5.957  1.2378  0.4382 -1.5761
  276MOL0     H38064   2.269   8.712   5.776  0.6171  0.6792  0.5262
  276MOL0     H38065   2.248   8.557   5.853 -1.0919 -0.4416 -2.7753
  276MOL0     H38066   2.483   8.530   5.853 -1.8483 -0.7882  0.2881
  276MOL0     H38067   2.507   8.676   5.745 -0.5553  0.7994 -0.5598
  276MOL0     H38068   2.335   9.030   6.888 -0.1252  0.1843  0.0167
  276MOL0     H38069   2.336   8.983   7.122  1.6539 -1.2785  1.0510
  276MOL0     H38070   2.160   8.628   7.412  1.8741  1.4851 -2.9113
  276MOL0     H38071   2.146   8.464   7.590  0.7659 -0.1234  0.7946
  276MOL0     H38072   1.649   7.186   7.224  0.2899  0.6388  2.0687
  276MOL0     H38073   1.419   7.088   7.262 -0.6123 -0.5573  2.0436
  276MOL0     H38074   0.885   7.269   7.014  2.6327 -0.5222 -0.3764
  276MOL0     H38075   0.651   7.255   7.056  0.1002  0.0969 -0.3017
  276MOL0     H38076   0.430   7.218   7.127  1.2792 -0.7088 -0.1722
  276MOL0     H38077   0.430   7.073   7.225 -4.1999 -0.8685 -0.2160
  276MOL0     H38078   0.338   7.238   7.412  1.8411  0.2622 -0.2037
  276MOL0     H38079   0.227   7.151   7.300  2.9543 -4.0367  0.2957
  276MOL0     H38080   0.338   7.421   7.242 -0.8668  0.8618  1.4126
  276MOL0     H38081   0.222   7.336   7.143  0.5193  0.3442 -0.8576
  276MOL0     H38082   0.092   7.498   7.305 -4.4903 -1.4043  3.2103
  276MOL0     H38083   0.167   7.398   7.428  0.0610 -0.2770 -0.0588
  276MOL0     H38084  -0.167   7.156   7.335 -0.0190 -1.5354 -2.2094
  276MOL0     H38085   0.733   7.204   7.470  2.2000  5.4253  1.5936
  276MOL0     H38086   1.041   7.342   7.485  3.6081 -1.0327  0.7589
  276MOL0     H38087   0.942   7.207   7.550 -3.6351  0.4104 -1.3430
  276MOL0     H38088   1.082   7.180   7.449  1.1700  3.6373 -3.3377
  277MOL0     O38089   5.590   1.103   8.402 -0.4938 -0.6637  0.0991
  277MOL0     C38090   5.575   1.028   8.307 -0.2068  0.5794  0.3779
  277MOL0     O38091   5.524   0.898   8.312 -0.2569  0.0384 -0.3284
  277MOL0     C38092   5.491   0.833   8.426  0.5108 -0.1209  0.2362
  277MOL0     C38093   5.561   0.834   8.548 -0.4489  0.7868  0.0941
  277MOL0     C38094   5.522   0.759   8.657 -0.2804 -0.4104 -0.4042
  277MOL0     C38095   5.418   0.665   8.658  0.3260 -0.4931  0.0989
  277MOL0     O38096   5.394   0.589   8.774  0.8124  0.7717  0.3926
  277MOL0     C38097   5.260   0.542   8.799 -0.7710  0.7499 -0.2402
  277MOL0     C38098   5.259   0.383   8.781  0.6231 -0.1274  0.2881
  277MOL0     C38099   5.309   0.293   8.903  0.8671 -0.7160  0.2277
  277MOL0     C38100   5.333   0.148   8.865  0.6751  0.7966 -0.0124
  277MOL0     C38101   5.391   0.085   8.985 -0.3185  0.5828  0.7699
  277MOL0     C38102   5.405  -0.066   8.958  0.4667 -0.2882  0.1439
  277MOL0     C38103   5.483  -0.109   8.841  0.2743 -0.0485  0.3292
  277MOL0     C38104   5.531  -0.251   8.856  0.4589 -1.2987 -0.3530
  277MOL0     N38105   5.668  -0.261   8.900 -0.2048  0.1598 -0.5141
  277MOL0     C38106   5.715  -0.213   9.020  0.0883 -0.4067  0.7734
  277MOL0     C38107   5.836  -0.274   9.043  0.0982  0.6169 -1.0656
  277MOL0     C38108   5.934  -0.245   9.154 -0.8650  0.4415 -0.0799
  277MOL0     C38109   5.865  -0.295   9.297 -0.6397 -0.8471 -0.2496
  277MOL0     C38110   5.901  -0.442   9.323 -0.2591 -0.4035 -0.1933
  277MOL0     C38111   5.825  -0.484   9.452 -0.8414  0.4420 -0.4304
  277MOL0     O38112   5.861  -0.619   9.496 -0.0081 -0.4032 -0.1539
  277MOL0     C38113   5.982  -0.625   9.559 -0.2913  0.3166  0.2444
  277MOL0     C38114   6.015  -0.756   9.590 -0.6176  0.3141 -0.0822
  277MOL0     C38115   6.123  -0.798   9.670  0.9093 -0.5905  1.0995
  277MOL0     C38116   6.141  -0.947   9.679  0.0105 -0.5883  0.5707
  277MOL0     C38117   6.201  -0.702   9.728 -0.2475 -1.1870 -0.0589
  277MOL0     C38118   6.331  -0.730   9.814 -0.2059  0.1091  1.0569
  277MOL0     O38119   6.345  -0.865   9.843 -0.6857 -0.1328  0.1502
  277MOL0     C38120   6.428  -0.910   9.941  0.0875 -1.2471 -0.0873
  277MOL0     C38121   6.522  -0.838  10.023 -0.5880  0.0003  1.2059
  277MOL0     C38122   6.590  -0.902  10.127  0.8691 -0.3775  1.2389
  277MOL0     C38123   6.568  -1.032  10.158  0.4034 -0.2842 -0.0927
  277MOL0     O38124   6.647  -1.086  10.260  0.1549 -0.1118 -0.4655
  277MOL0     C38125   6.582  -1.062  10.389 -0.9232 -0.6874  0.4583
  277MOL0     C38126   6.692  -1.091  10.497  0.0763  0.4534 -0.1704
  277MOL0     C38127   6.645  -1.040  10.641 -0.5279 -0.0690  0.2696
  277MOL0     C38128   6.520  -1.099  10.696  0.1474 -0.0999  0.5508
  277MOL0     C38129   6.481  -1.018  10.824  0.2891 -0.6566 -0.1322
  277MOL0     C38130   6.327  -1.040  10.851  0.2077 -0.5646  0.0078
  277MOL0     C38131   6.316  -1.166  10.933 -0.1547  0.2245  0.0970
  277MOL0     C38132   6.185  -1.202  10.992 -0.0623 -0.9982  0.1982
  277MOL0    Cl38133   6.188  -1.358  11.078 -0.4523 -0.3152 -0.3211
  277MOL0     C38134   6.476  -1.116  10.080  0.6398 -1.3681  1.1802
  277MOL0     C38135   6.405  -1.044   9.980 -1.1905 -0.9222 -0.3983
  277MOL0     O38136   6.396  -0.637   9.849 -0.6288  0.5962 -0.2965
  277MOL0     C38137   6.180  -0.561   9.688 -0.7945  0.6729  0.5588
  277MOL0     C38138   6.074  -0.532   9.605  0.0871 -0.6873  0.3160
  277MOL0     N38139   5.847  -0.365   8.944  0.0937 -0.1614 -0.1169
  277MOL0     N38140   5.749  -0.359   8.854 -0.4201  0.2070 -0.0339
  277MOL0     C38141   5.348   0.661   8.538  0.2403  0.3916 -0.0651
  277MOL0     C38142   5.381   0.742   8.431  0.6484 -0.2635  0.1339
  277MOL0     C38143   5.612   1.073   8.170 -0.1716 -0.3564  0.9438
  277MOL0     C38144   5.547   1.007   8.060  0.9799  0.3343 -0.2349
  277MOL0     C38145   5.567   1.051   7.922  0.5007  0.6900  0.4186
  277MOL0     C38146   5.660   1.150   7.895  0.8886 -0.1344  0.6496
  277MOL0     O38147   5.656   1.192   7.763  0.2202  0.6082 -0.1213
  277MOL0     C38148   5.622   1.325   7.736 -0.5818  0.1532  0.0987
  277MOL0     C38149   5.478   1.355   7.786 -0.0551 -0.7512  0.5634
  277MOL0     C38150   5.423   1.468   7.690  0.4368 -0.5108 -0.0121
  277MOL0     C38151   5.266   1.462   7.684 -0.0156 -1.4119 -0.9251
  277MOL0     C38152   5.197   1.472   7.818 -0.7869  0.4412 -0.3056
  277MOL0     C38153   5.153   1.485   7.930  0.6950 -1.0572  0.0857
  277MOL0     C38154   5.725   1.215   7.993  0.1776 -0.6731 -0.7232
  277MOL0     C38155   5.708   1.171   8.127  0.0249 -0.1221  0.5828
  277MOL0     C38156   5.782   1.244   8.233 -0.2092  0.4880 -0.3360
  277MOL0     H38157   5.641   0.905   8.563  2.5018 -2.3797  0.8300
  277MOL0     H38158   5.576   0.769   8.751  0.4417  3.8763 -1.1163
  277MOL0     H38159   5.183   0.594   8.741 -0.0791  0.0115 -1.8895
  277MOL0     H38160   5.238   0.555   8.906 -3.5357 -0.9435 -0.4814
  277MOL0     H38161   5.161   0.352   8.745 -0.4253  1.0291  2.0108
  277MOL0     H38162   5.331   0.365   8.700  1.2724 -2.8508  1.3263
  277MOL0     H38163   5.395   0.340   8.951 -0.4782 -0.2373  2.2958
  277MOL0     H38164   5.228   0.289   8.976  0.9875  1.4516  0.5551
  277MOL0     H38165   5.242   0.098   8.832 -0.7417  3.4668 -0.4358
  277MOL0     H38166   5.408   0.157   8.785 -0.7060  1.8199 -1.2707
  277MOL0     H38167   5.323   0.105   9.069 -0.8229  3.8031 -0.2550
  277MOL0     H38168   5.489   0.126   9.007  0.3190 -0.7690  0.5445
  277MOL0     H38169   5.440  -0.115   9.050 -0.8271  1.1854  1.4788
  277MOL0     H38170   5.309  -0.117   8.949  0.3444 -0.8189  3.2699
  277MOL0     H38171   5.564  -0.039   8.821 -0.8279  0.7348 -1.6679
  277MOL0     H38172   5.411  -0.106   8.758  1.5558 -2.2624 -0.9694
  277MOL0     H38173   5.466  -0.311   8.921 -0.2879 -0.4273 -0.2630
  277MOL0     H38174   5.523  -0.290   8.754 -2.7674  0.6165 -1.0105
  277MOL0     H38175   5.678  -0.140   9.091  0.6963 -0.2863  0.9756
  277MOL0     H38176   5.947  -0.137   9.159  0.7705  0.2439  0.9300
  277MOL0     H38177   6.027  -0.294   9.124 -1.1273 -0.4768  0.5649
  277MOL0     H38178   5.902  -0.234   9.379 -1.3955 -0.1409 -0.4164
  277MOL0     H38179   5.757  -0.276   9.294 -0.5715  0.4859  2.5822
  277MOL0     H38180   5.857  -0.499   9.241  0.9642  0.3507 -1.4177
  277MOL0     H38181   6.010  -0.448   9.326 -0.0381  0.9408 -2.8507
  277MOL0     H38182   5.844  -0.407   9.528 -1.4599 -0.8685  1.1098
  277MOL0     H38183   5.717  -0.484   9.435 -0.6943 -0.8527 -1.5464
  277MOL0     H38184   5.951  -0.833   9.547  0.3613  0.7480 -2.5299
  277MOL0     H38185   6.081  -1.000   9.605  1.2428  2.7346 -3.1947
  277MOL0     H38186   6.113  -0.991   9.775 -0.7071 -0.0320  0.6217
  277MOL0     H38187   6.247  -0.967   9.662  0.3351  1.9274 -0.9628
  277MOL0     H38188   6.561  -0.739  10.003 -0.4125 -0.7688 -3.7068
  277MOL0     H38189   6.653  -0.850  10.199  1.8958 -1.5989  1.2572
  277MOL0     H38190   6.540  -0.962  10.404 -3.8828 -1.7061 -0.2246
  277MOL0     H38191   6.502  -1.136  10.395 -1.6541  0.1922  2.5193
  277MOL0     H38192   6.725  -1.194  10.512 -1.5293  0.1302  1.6222
  277MOL0     H38193   6.784  -1.049  10.457 -1.2974  2.2769 -1.6006
  277MOL0     H38194   6.622  -0.936  10.616  0.2783 -0.4117 -2.2638
  277MOL0     H38195   6.733  -1.047  10.706 -1.0684 -1.0119  0.9170
  277MOL0     H38196   6.528  -1.206  10.715  1.2129 -0.6606 -2.5598
  277MOL0     H38197   6.449  -1.087  10.613  0.6057 -2.0654 -0.1809
  277MOL0     H38198   6.555  -1.042  10.900  0.9024  1.0519 -0.1436
  277MOL0     H38199   6.491  -0.911  10.804  1.8110 -1.0936 -1.9846
  277MOL0     H38200   6.271  -1.063  10.760 -2.5679 -1.2252  1.7839
  277MOL0     H38201   6.280  -0.961  10.909 -0.7180 -0.8203 -0.3734
  277MOL0     H38202   6.384  -1.154  11.018  0.7702  1.8422 -0.8236
  277MOL0     H38203   6.347  -1.258  10.883 -1.1223 -2.0388  3.3687
  277MOL0     H38204   6.102  -1.208  10.921 -3.1111  4.1705  2.7346
  277MOL0     H38205   6.149  -1.125  11.061  1.0030  0.6790 -1.0300
  277MOL0     H38206   6.467  -1.223  10.095 -0.0201 -1.2407  1.7770
  277MOL0     H38207   6.329  -1.094   9.922 -0.6102 -1.8073 -0.4126
  277MOL0     H38208   6.234  -0.470   9.713 -1.8233  2.8609 -4.0296
  277MOL0     H38209   6.051  -0.427   9.596  0.2515 -0.5159  1.7087
  277MOL0     H38210   5.270   0.585   8.542 -0.1834  0.8522  0.7445
  277MOL0     H38211   5.335   0.726   8.334 -0.9190 -1.9191  1.0818
  277MOL0     H38212   5.473   0.929   8.074  0.8790  0.5234  0.3191
  277MOL0     H38213   5.521   1.006   7.835 -1.7874  1.1123  1.3304
  277MOL0     H38214   5.692   1.394   7.783 -1.4628 -0.0870  1.8160
  277MOL0     H38215   5.628   1.339   7.627  0.5469  3.2089  0.4561
  277MOL0     H38216   5.482   1.384   7.891 -1.5342  1.0584  0.1634
  277MOL0     H38217   5.408   1.271   7.778 -1.5669  0.6385 -1.9903
  277MOL0     H38218   5.461   1.565   7.722  5.3596 -1.6924 -1.3811
  277MOL0     H38219   5.465   1.452   7.590 -1.1691 -0.6037 -0.7037
  277MOL0     H38220   5.232   1.369   7.639 -0.5125 -0.7057 -2.0575
  277MOL0     H38221   5.233   1.545   7.621  0.2128 -0.1157  0.5929
  277MOL0     H38222   5.113   1.492   8.029 -0.8009  3.3498 -0.5746
  277MOL0     H38223   5.800   1.289   7.965  0.0488  0.9515  2.7627
  277MOL0     H38224   5.717   1.314   8.287 -3.1241 -2.1661 -0.0997
  277MOL0     H38225   5.840   1.179   8.300 -0.1054  1.0309  0.1093
  277MOL0     H38226   5.849   1.319   8.191  1.2446  0.0961  1.1524
  278MOL0     O38227   4.617   8.783   2.358 -0.4661  0.1274  1.2973
  278MOL0     C38228   4.662   8.897   2.350 -1.1178 -0.1838  0.8214
  278MOL0     O38229   4.654   8.991   2.441  0.7044 -0.4310 -0.1642
  278MOL0     C38230   4.612   8.952   2.564  0.0551 -0.0485 -0.1800
  278MOL0     C38231   4.680   8.860   2.634 -0.6929 -0.4307  0.3571
  278MOL0     C38232   4.642   8.828   2.761 -0.5397  0.3945  0.0232
  278MOL0     C38233   4.551   8.906   2.832  0.5255 -0.2473  0.3347
  278MOL0     O38234   4.520   8.883   2.968  0.2408  0.9114  0.7064
  278MOL0     C38235   4.492   8.744   3.003 -0.0918 -0.7672  0.6727
  278MOL0     C38236   4.451   8.753   3.147 -0.7443  0.5013  0.6421
  278MOL0     C38237   4.302   8.767   3.145 -0.1442 -0.2802  0.4976
  278MOL0     C38238   4.271   8.765   3.299 -0.6830  0.4378  0.9411
  278MOL0     C38239   4.131   8.818   3.328  1.0807  0.1672  0.7915
  278MOL0     C38240   4.109   8.823   3.479 -1.2359 -0.4010 -0.3873
  278MOL0     C38241   3.973   8.882   3.517 -0.8194 -0.5413  0.1684
  278MOL0     C38242   3.848   8.794   3.491  0.0664 -0.8216 -0.0010
  278MOL0     N38243   3.861   8.659   3.529 -0.4163  0.2515 -0.9992
  278MOL0     C38244   3.870   8.621   3.653  0.4739 -1.3338 -0.5452
  278MOL0     C38245   3.916   8.499   3.647  0.2039 -0.2380 -0.2207
  278MOL0     C38246   3.937   8.402   3.770 -0.0325  0.0655  0.1242
  278MOL0     C38247   3.815   8.300   3.792  1.1560  0.2542  0.0530
  278MOL0     C38248   3.786   8.278   3.941 -0.5750 -0.5963 -0.0056
  278MOL0     C38249   3.724   8.397   4.014  0.3045  0.0639 -0.3422
  278MOL0     O38250   3.629   8.470   3.933  1.1692  0.1348  0.7645
  278MOL0     C38251   3.500   8.418   3.928  0.3594  0.1967 -0.5368
  278MOL0     C38252   3.445   8.407   3.801 -1.5628  0.0193  0.5992
  278MOL0     C38253   3.314   8.363   3.773 -0.2705  0.2072  0.8079
  278MOL0     C38254   3.269   8.373   3.628 -0.2721 -0.7830 -0.4988
  278MOL0     C38255   3.230   8.344   3.889 -0.6544 -0.6621 -0.4724
  278MOL0     C38256   3.089   8.298   3.891  0.3636 -0.2755 -0.2098
  278MOL0     O38257   3.022   8.311   4.003 -0.3141  0.1647 -0.3189
  278MOL0     C38258   2.902   8.249   4.008  0.9060  0.1685  0.2115
  278MOL0     C38259   2.798   8.331   4.061 -0.8653  0.5276  0.4343
  278MOL0     C38260   2.671   8.279   4.077 -0.6353  0.2671  1.1072
  278MOL0     C38261   2.653   8.146   4.057  0.7887  0.8724  0.0417
  278MOL0     O38262   2.533   8.088   4.079 -0.2170  0.6701  0.6667
  278MOL0     C38263   2.424   8.114   3.996  0.3230 -1.5556 -0.6494
  278MOL0     C38264   2.304   8.058   4.069  0.1523  0.6408  0.2556
  278MOL0     C38265   2.173   8.116   4.011  0.6839  0.3667  0.2345
  278MOL0     C38266   2.052   8.015   4.026 -0.3644  0.4159  0.1500
  278MOL0     C38267   1.997   8.016   4.168  0.8742 -0.4485  0.3592
  278MOL0     C38268   1.876   7.927   4.172 -0.2444 -0.6349  0.1071
  278MOL0     C38269   1.739   8.001   4.134 -0.5616 -0.3137  0.0442
  278MOL0     C38270   1.659   7.902   4.055  0.2002  0.1688 -0.0841
  278MOL0    Cl38271   1.610   7.766   4.157  0.2714  0.3585  0.1469
  278MOL0     C38272   2.756   8.061   4.015 -0.4677  0.4539 -0.8552
  278MOL0     C38273   2.883   8.110   3.981  1.0632 -0.6017  0.3931
  278MOL0     O38274   3.040   8.245   3.786 -0.0529  0.2684 -0.1768
  278MOL0     C38275   3.284   8.368   4.018  0.9188  0.0570  0.3996
  278MOL0     C38276   3.417   8.400   4.038 -0.3549  0.0127  0.1930
  278MOL0     N38277   3.928   8.458   3.511 -0.7764  0.3793 -0.1099
  278MOL0     N38278   3.885   8.561   3.448  0.3878  0.2006  0.4271
  278MOL0     C38279   4.484   9.006   2.765 -0.1632 -0.0622  0.3106
  278MOL0     C38280   4.509   9.028   2.622  0.4969  0.7790 -0.1067
  278MOL0     C38281   4.741   8.935   2.231  0.3086 -0.6467 -0.1723
  278MOL0     C38282   4.769   9.071   2.220 -0.0283  0.4962 -0.4164
  278MOL0     C38283   4.807   9.132   2.105 -0.7183  0.4817 -0.5264
  278MOL0     C38284   4.818   9.060   1.987  0.0740  0.6485  0.4488
  278MOL0     O38285   4.845   9.111   1.860  0.2858 -0.2475  0.2018
  278MOL0     C38286   4.914   9.238   1.857  0.5791 -0.2904  0.6316
  278MOL0     C38287   4.908   9.289   1.708  0.4998 -0.4242  0.5115
  278MOL0     C38288   4.768   9.339   1.653 -0.2031  1.0895 -0.9940
  278MOL0     C38289   4.733   9.476   1.711  0.2397 -0.0292 -0.8986
  278MOL0     C38290   4.593   9.518   1.693 -1.1096  0.1177 -0.0101
  278MOL0     C38291   4.476   9.538   1.698 -0.3347  0.4573  0.1729
  278MOL0     C38292   4.799   8.918   1.998 -0.2886 -0.5305  0.3458
  278MOL0     C38293   4.762   8.854   2.115 -0.9249 -0.3013 -1.0940
  278MOL0     C38294   4.762   8.699   2.098  0.3015 -1.3308 -0.2477
  278MOL0     H38295   4.762   8.812   2.582 -2.2700  0.1930 -2.9383
  278MOL0     H38296   4.704   8.746   2.794  0.0243 -0.1773 -2.2433
  278MOL0     H38297   4.576   8.676   2.984 -0.4650 -1.2280  0.6609
  278MOL0     H38298   4.407   8.704   2.947 -1.4947  0.3200  1.9578
  278MOL0     H38299   4.500   8.679   3.209  4.2963  1.3976 -1.7733
  278MOL0     H38300   4.490   8.847   3.187  0.2614  0.7673 -0.8913
  278MOL0     H38301   4.265   8.861   3.104 -0.7106 -0.9458 -0.5626
  278MOL0     H38302   4.248   8.688   3.092 -0.5783 -0.8864  1.7903
  278MOL0     H38303   4.281   8.660   3.329  0.0798  0.8565  2.2579
  278MOL0     H38304   4.343   8.821   3.360  0.6621  0.8314 -0.9369
  278MOL0     H38305   4.057   8.761   3.271 -0.4989  0.6250  2.3033
  278MOL0     H38306   4.117   8.922   3.298 -1.5234 -0.4150 -0.2408
  278MOL0     H38307   4.109   8.719   3.512  0.9537  0.0308  1.2503
  278MOL0     H38308   4.193   8.874   3.528 -1.0215  0.2173 -1.3755
  278MOL0     H38309   3.957   8.977   3.464 -0.0292 -0.9172 -0.7864
  278MOL0     H38310   3.972   8.919   3.620  3.0326  1.5653 -0.3896
  278MOL0     H38311   3.769   8.848   3.545  0.9696  0.9451 -0.3951
  278MOL0     H38312   3.832   8.792   3.383  0.9210 -1.7998 -0.1224
  278MOL0     H38313   3.839   8.681   3.739  0.4915  0.5369 -1.7778
  278MOL0     H38314   3.952   8.462   3.861  2.4284 -1.5302  0.8624
  278MOL0     H38315   4.037   8.358   3.762  1.3068  2.9452 -0.5161
  278MOL0     H38316   3.724   8.334   3.740  1.5497  0.9537 -0.1856
  278MOL0     H38317   3.855   8.205   3.756  0.9891 -0.2943  1.2755
  278MOL0     H38318   3.722   8.190   3.940  0.0310 -1.0438 -0.3268
  278MOL0     H38319   3.876   8.250   3.997 -0.2083 -0.4778 -0.5235
  278MOL0     H38320   3.674   8.359   4.103  2.7110 -1.4015  0.4666
  278MOL0     H38321   3.795   8.475   4.043 -1.0251  1.3185 -0.3109
  278MOL0     H38322   3.510   8.421   3.715  0.9877  1.8156  2.6941
  278MOL0     H38323   3.179   8.313   3.615 -2.2418  1.6851  0.8631
  278MOL0     H38324   3.336   8.347   3.546 -2.0189  1.6022 -2.8622
  278MOL0     H38325   3.252   8.480   3.612  1.7042 -0.8107 -3.8958
  278MOL0     H38326   2.828   8.435   4.076  2.5934 -0.0386 -1.4805
  278MOL0     H38327   2.590   8.350   4.091 -0.3711  1.6173 -2.8850
  278MOL0     H38328   2.413   8.222   3.983 -0.1317 -1.6907 -1.3956
  278MOL0     H38329   2.447   8.075   3.897  1.5183  2.0583 -1.9497
  278MOL0     H38330   2.301   7.948   4.066 -1.0739  0.6630  0.1649
  278MOL0     H38331   2.318   8.091   4.172  0.3820  2.1412 -0.2310
  278MOL0     H38332   2.184   8.132   3.903  0.1055  0.9895  0.2601
  278MOL0     H38333   2.145   8.212   4.055 -1.0838 -1.1149  2.5457
  278MOL0     H38334   2.091   7.916   4.004  1.8751  1.4694 -1.0110
  278MOL0     H38335   1.966   8.039   3.962 -0.9176  0.6595  0.9675
  278MOL0     H38336   2.069   7.962   4.230  0.6520  1.6694  2.6250
  278MOL0     H38337   1.969   8.116   4.202 -1.5326 -2.2356  4.4781
  278MOL0     H38338   1.860   7.893   4.274 -1.1306 -0.3801  0.0616
  278MOL0     H38339   1.902   7.837   4.116  1.8330 -0.2438  0.3840
  278MOL0     H38340   1.770   8.085   4.071 -2.7953  0.7586  0.2894
  278MOL0     H38341   1.697   8.048   4.223  2.2235  1.9385  0.3074
  278MOL0     H38342   1.714   7.878   3.963 -2.3893  1.1419 -1.9940
  278MOL0     H38343   1.575   7.958   4.014 -0.3099 -0.4525  0.0914
  278MOL0     H38344   2.733   7.957   3.992  0.6498 -0.1966  0.7938
  278MOL0     H38345   2.968   8.045   3.961 -0.4624 -2.7755  0.7466
  278MOL0     H38346   3.212   8.367   4.099 -1.0138 -1.8288 -1.2087
  278MOL0     H38347   3.453   8.429   4.137  2.3072  2.0770 -1.2427
  278MOL0     H38348   4.411   9.062   2.822  0.4532 -0.6498  1.7008
  278MOL0     H38349   4.453   9.105   2.570 -2.1484 -1.4599 -0.8041
  278MOL0     H38350   4.762   9.141   2.302 -1.7827 -0.4614  0.3248
  278MOL0     H38351   4.847   9.233   2.111 -1.2773  0.6527  0.6795
  278MOL0     H38352   4.858   9.311   1.916 -3.1487 -1.8912 -0.6020
  278MOL0     H38353   5.018   9.223   1.885  1.0566  0.1305 -0.8214
  278MOL0     H38354   4.949   9.212   1.642 -1.4428 -1.9332  0.9620
  278MOL0     H38355   4.973   9.376   1.700 -1.5216  1.1180 -0.0547
  278MOL0     H38356   4.766   9.356   1.544 -1.1970  2.9779 -0.7309
  278MOL0     H38357   4.691   9.267   1.683 -1.3024  0.5916 -4.5123
  278MOL0     H38358   4.795   9.559   1.675  3.2253 -0.7825  2.0227
  278MOL0     H38359   4.762   9.484   1.816  2.8292 -0.7091 -1.4798
  278MOL0     H38360   4.369   9.551   1.700 -0.5967 -1.4058 -0.5271
  278MOL0     H38361   4.807   8.874   1.900  1.3841  0.1698  0.1324
  278MOL0     H38362   4.685   8.641   2.151 -0.3610  0.1669  0.4971
  278MOL0     H38363   4.751   8.666   1.995 -0.6165 -1.0323 -0.2505
  278MOL0     H38364   4.852   8.655   2.142 -0.7512 -0.4663  3.0848
  279MOL0     O38365   5.830   4.123   8.647 -0.3583 -0.3387  0.4468
  279MOL0     C38366   5.823   4.056   8.548 -1.2881  0.3632  0.5702
  279MOL0     O38367   5.924   4.061   8.444 -0.0045 -0.4143  0.1111
  279MOL0     C38368   6.047   4.070   8.507 -0.2197  0.4611 -0.1570
  279MOL0     C38369   6.141   4.168   8.476 -0.9387  0.2542  0.1580
  279MOL0     C38370   6.257   4.173   8.554  0.3281  0.4222 -0.6545
  279MOL0     C38371   6.289   4.075   8.649  0.7403  0.0688 -0.0228
  279MOL0     O38372   6.397   4.080   8.723 -0.5423  0.4434 -1.0445
  279MOL0     C38373   6.370   4.092   8.869  0.3063 -0.2276 -0.5083
  279MOL0     C38374   6.465   4.008   8.950  0.5891  0.0938  0.8033
  279MOL0     C38375   6.470   4.043   9.089 -0.4806  0.2650 -0.2611
  279MOL0     C38376   6.570   3.966   9.183 -0.4251  0.2163  0.8094
  279MOL0     C38377   6.559   4.009   9.336 -0.3554  0.5788  0.1872
  279MOL0     C38378   6.700   3.973   9.404  0.9514 -0.3928  0.0431
  279MOL0     C38379   6.700   4.008   9.563  0.5400 -0.2730 -0.8253
  279MOL0     C38380   6.568   3.959   9.631  0.0197  0.1596  0.6182
  279MOL0     N38381   6.573   3.973   9.781  0.6305  0.0578  0.9342
  279MOL0     C38382   6.666   4.040   9.859  0.3530  0.1211  0.3854
  279MOL0     C38383   6.654   3.973   9.985 -0.2798  0.7080 -0.1458
  279MOL0     C38384   6.758   4.000  10.099 -0.1290 -0.3791  0.4283
  279MOL0     C38385   6.804   3.873  10.156  0.4916  0.5296 -0.0630
  279MOL0     C38386   6.932   3.872  10.237 -0.0762 -0.9269 -0.9236
  279MOL0     C38387   6.930   3.968  10.364 -0.1308  0.0589  0.3285
  279MOL0     O38388   7.015   3.913  10.468 -0.0103  0.6257 -0.2898
  279MOL0     C38389   7.026   3.967  10.588 -0.5637  0.0905  0.1180
  279MOL0     C38390   7.081   3.908  10.696  0.3181  0.7282 -0.6285
  279MOL0     C38391   7.101   3.972  10.819 -0.1863  0.1410 -0.4789
  279MOL0     C38392   7.132   3.878  10.931 -0.3659  0.3728  0.3648
  279MOL0     C38393   7.062   4.107  10.832  0.5527  0.4453 -0.5624
  279MOL0     C38394   7.075   4.194  10.949 -0.7265 -0.1185  0.5244
  279MOL0     O38395   7.010   4.315  10.943 -0.2323 -0.2205  0.4109
  279MOL0     C38396   7.021   4.403  11.061  1.0269 -0.7728  0.6269
  279MOL0     C38397   6.910   4.417  11.145  0.0215  0.1124  0.1124
  279MOL0     C38398   6.913   4.511  11.241  0.5393  0.5539  0.1109
  279MOL0     C38399   7.028   4.580  11.276 -0.2798  0.2955  0.4939
  279MOL0     O38400   7.035   4.658  11.391  0.2551  0.8785 -0.1011
  279MOL0     C38401   6.937   4.756  11.419  0.4656 -0.1355 -0.5751
  279MOL0     C38402   6.865   4.727  11.550 -0.4832 -1.1540  0.3006
  279MOL0     C38403   6.961   4.736  11.669 -0.3157  0.3990 -0.0033
  279MOL0     C38404   6.902   4.681  11.795 -0.6833 -0.0864 -0.1742
  279MOL0     C38405   7.020   4.622  11.890  0.2662 -0.0808 -0.1905
  279MOL0     C38406   7.057   4.481  11.866 -0.2859  0.4074  0.3010
  279MOL0     C38407   7.181   4.438  11.959  0.3211  0.0386  0.0495
  279MOL0     C38408   7.290   4.379  11.879 -0.6837 -0.0293  0.1224
  279MOL0    Cl38409   7.338   4.487  11.749 -0.0198  0.0654  0.6400
  279MOL0     C38410   7.143   4.556  11.193 -0.3578  0.4161 -0.0620
  279MOL0     C38411   7.136   4.483  11.079 -0.1063 -0.1444 -0.5044
  279MOL0     O38412   7.143   4.156  11.050  0.1079 -0.4387 -0.5738
  279MOL0     C38413   7.003   4.165  10.722  0.0146 -0.7610  0.1149
  279MOL0     C38414   6.987   4.093  10.606 -0.4870  0.1138 -0.7407
  279MOL0     N38415   6.561   3.876   9.974  0.5930  0.1075  0.1264
  279MOL0     N38416   6.516   3.874   9.856  0.0034  0.1392 -0.7010
  279MOL0     C38417   6.207   3.960   8.658  0.2224  0.2408 -0.8912
  279MOL0     C38418   6.077   3.962   8.601  0.3528 -0.0312  0.2279
  279MOL0     C38419   5.712   3.961   8.550 -0.6074  0.5367 -0.0107
  279MOL0     C38420   5.667   3.914   8.674  0.5131 -0.4941 -1.3064
  279MOL0     C38421   5.557   3.832   8.675  0.1382 -0.3452 -0.4753
  279MOL0     C38422   5.496   3.789   8.564  1.2623 -0.2062 -0.2572
  279MOL0     O38423   5.390   3.698   8.573  0.1388  0.7801 -0.9089
  279MOL0     C38424   5.352   3.634   8.446 -0.1563 -0.6605  0.2987
  279MOL0     C38425   5.218   3.558   8.479 -0.3993  0.7833  0.6406
  279MOL0     C38426   5.253   3.441   8.573 -0.6568  0.2421  0.5776
  279MOL0     C38427   5.122   3.381   8.615 -0.0122  0.2320  0.0912
  279MOL0     C38428   5.141   3.241   8.654 -0.0644 -0.4079  0.5114
  279MOL0     C38429   5.120   3.123   8.666 -0.1021  0.0211 -0.4247
  279MOL0     C38430   5.545   3.833   8.440 -0.2569 -0.6942  0.9813
  279MOL0     C38431   5.643   3.934   8.429 -0.8301 -0.2748 -0.1641
  279MOL0     C38432   5.687   3.978   8.288  0.2260 -0.1582  0.0968
  279MOL0     H38433   6.113   4.256   8.419 -2.0315 -0.8120 -1.0368
  279MOL0     H38434   6.320   4.259   8.537 -1.8570  1.9081 -1.6945
  279MOL0     H38435   6.270   4.059   8.899 -0.8159  3.3454  0.2117
  279MOL0     H38436   6.401   4.191   8.906  0.4007 -0.7075  0.7484
  279MOL0     H38437   6.438   3.902   8.941  0.5090  0.1476  0.3567
  279MOL0     H38438   6.565   4.016   8.906  1.0399  0.9981  1.9570
  279MOL0     H38439   6.500   4.148   9.086 -0.1397  0.5529  4.7690
  279MOL0     H38440   6.371   4.023   9.131  0.6451 -0.7283  2.1571
  279MOL0     H38441   6.537   3.862   9.172 -1.2719  0.5604 -0.0235
  279MOL0     H38442   6.674   3.984   9.157  0.0409 -1.9650  0.9304
  279MOL0     H38443   6.489   3.939   9.382  1.9882 -2.3862 -0.4001
  279MOL0     H38444   6.537   4.115   9.352  0.7439  1.0086 -1.0146
  279MOL0     H38445   6.728   3.868   9.393  0.6013 -0.3637 -1.2475
  279MOL0     H38446   6.772   4.047   9.369  0.7729  0.6964  1.8546
  279MOL0     H38447   6.705   4.113   9.593 -2.4147  0.3803 -2.2022
  279MOL0     H38448   6.788   3.957   9.604  0.1303 -1.9901 -1.9722
  279MOL0     H38449   6.497   4.029   9.587  0.7231  0.5970  0.1597
  279MOL0     H38450   6.542   3.864   9.583 -1.1410  2.3714 -3.5713
  279MOL0     H38451   6.734   4.115   9.820  1.4121 -2.3209 -2.8952
  279MOL0     H38452   6.712   4.047  10.187  0.2464  2.7258 -0.8960
  279MOL0     H38453   6.833   4.066  10.054 -0.3899 -1.8039 -2.2748
  279MOL0     H38454   6.720   3.836  10.215  3.4787 -0.2165  4.1928
  279MOL0     H38455   6.825   3.814  10.066 -1.9093  0.2757 -0.5232
  279MOL0     H38456   6.953   3.767  10.263 -1.2591 -0.6590  1.4037
  279MOL0     H38457   7.015   3.912  10.178 -1.1904  3.0788 -0.0684
  279MOL0     H38458   6.952   4.071  10.338  1.4618 -0.3725 -0.1130
  279MOL0     H38459   6.825   3.974  10.394  0.3427  0.4414  1.9875
  279MOL0     H38460   7.114   3.807  10.671  1.9511  1.7359 -2.8532
  279MOL0     H38461   7.232   3.915  10.957 -0.0930 -0.3043  0.2856
  279MOL0     H38462   7.126   3.773  10.905 -0.5763  0.5370 -0.2484
  279MOL0     H38463   7.077   3.890  11.026 -1.4867 -0.6957 -0.1207
  279MOL0     H38464   6.822   4.356  11.128  0.4988 -0.8190  0.8775
  279MOL0     H38465   6.823   4.522  11.300  0.8833 -1.0413  1.0216
  279MOL0     H38466   6.981   4.856  11.422 -2.9797  1.5476 -1.3831
  279MOL0     H38467   6.858   4.749  11.343 -0.7748 -1.4520  0.7685
  279MOL0     H38468   6.779   4.794  11.557  0.3702  0.3283 -2.1526
  279MOL0     H38469   6.830   4.624  11.554 -1.7423 -0.7988 -0.8193
  279MOL0     H38470   6.998   4.836  11.692 -1.2253  1.0160 -1.0727
  279MOL0     H38471   7.045   4.669  11.652 -3.0980 -3.3367 -0.3715
  279MOL0     H38472   6.832   4.601  11.770 -2.3783  1.4196 -0.4831
  279MOL0     H38473   6.836   4.756  11.840 -0.9640 -1.5450  1.9830
  279MOL0     H38474   7.107   4.689  11.887 -0.2194  0.5383 -1.7420
  279MOL0     H38475   6.983   4.636  11.992 -0.6129 -1.5720 -0.2713
  279MOL0     H38476   7.081   4.469  11.760  0.8138  1.6605  0.3921
  279MOL0     H38477   6.968   4.420  11.886 -0.5532 -0.1385 -2.2705
  279MOL0     H38478   7.150   4.382  12.048 -4.3911  6.5045  3.3296
  279MOL0     H38479   7.216   4.533  12.001 -0.1209 -0.6828  2.1844
  279MOL0     H38480   7.263   4.274  11.860 -2.1745 -0.1965  2.8016
  279MOL0     H38481   7.387   4.383  11.930 -0.6994  3.2632  0.1138
  279MOL0     H38482   7.225   4.624  11.212 -0.5752  1.0314 -1.2214
  279MOL0     H38483   7.221   4.491  11.012 -0.0803 -2.3548 -0.8164
  279MOL0     H38484   6.960   4.265  10.728 -0.7021 -1.1661  3.3987
  279MOL0     H38485   6.925   4.148  10.535 -1.0928  0.7317  0.2457
  279MOL0     H38486   6.240   3.882   8.726 -0.7773 -1.1816 -1.9837
  279MOL0     H38487   6.003   3.885   8.618 -0.2542  1.0377  2.8789
  279MOL0     H38488   5.706   3.951   8.769 -4.3088 -0.8960  1.1152
  279MOL0     H38489   5.517   3.795   8.769  2.9462  1.1166  1.4606
  279MOL0     H38490   5.320   3.715   8.379 -1.4688 -0.9032  0.5888
  279MOL0     H38491   5.437   3.582   8.402  1.4222 -0.5397  2.9897
  279MOL0     H38492   5.160   3.517   8.395  0.2334  3.4153 -1.1905
  279MOL0     H38493   5.153   3.633   8.525  1.1142  0.9772  2.5937
  279MOL0     H38494   5.315   3.373   8.513  0.6842  0.5812  1.5289
  279MOL0     H38495   5.315   3.472   8.658 -1.6810 -1.4872  2.0146
  279MOL0     H38496   5.052   3.370   8.532  0.9075 -0.3869 -0.6255
  279MOL0     H38497   5.071   3.433   8.696 -2.7298 -0.0015 -1.3447
  279MOL0     H38498   5.119   3.022   8.699 -1.1642  0.2841  0.4103
  279MOL0     H38499   5.496   3.802   8.348 -0.0671 -1.8138  1.2385
  279MOL0     H38500   5.736   4.076   8.284  1.2221 -0.6118  0.8864
  279MOL0     H38501   5.764   3.914   8.246 -1.1979 -2.1887  0.4421
  279MOL0     H38502   5.605   3.978   8.216 -0.6838  1.1687  1.0788
  280MOL0     O38503   2.946  11.506   5.470  0.2121 -0.2563  0.3147
  280MOL0     C38504   2.835  11.483   5.513 -0.4648 -0.4510  0.5439
  280MOL0     O38505   2.732  11.578   5.526  0.0204  0.5125 -0.6312
  280MOL0     C38506   2.769  11.710   5.516  0.5128 -0.0203 -0.5669
  280MOL0     C38507   2.785  11.777   5.634  0.5843  0.8169  0.0228
  280MOL0     C38508   2.830  11.907   5.643 -0.1798 -0.3771 -0.4674
  280MOL0     C38509   2.853  11.971   5.525 -0.4140 -1.0048  0.0171
  280MOL0     O38510   2.917  12.094   5.514  0.1076  0.2793 -0.7705
  280MOL0     C38511   2.881  12.193   5.613  1.1152 -0.2586 -0.2515
  280MOL0     C38512   2.926  12.331   5.563  0.2604  0.1687 -1.0375
  280MOL0     C38513   2.957  12.425   5.683  0.3595 -0.5773 -0.0105
  280MOL0     C38514   3.020  12.557   5.634  0.4532  0.5656 -0.0094
  280MOL0     C38515   3.007  12.678   5.728 -0.7730  0.1718  0.3842
  280MOL0     C38516   3.089  12.793   5.695  0.2589  0.3418  0.2032
  280MOL0     C38517   3.089  12.891   5.815 -0.6195  0.2445  1.0498
  280MOL0     C38518   3.168  12.818   5.937 -0.2404  0.4158 -0.6365
  280MOL0     N38519   3.231  12.911   6.025 -0.0304  1.0669  0.2889
  280MOL0     C38520   3.356  12.914   6.076  0.6933  0.9310  0.3795
  280MOL0     C38521   3.360  13.030   6.153  0.1398  0.1656  0.3596
  280MOL0     C38522   3.484  13.079   6.232 -0.3890  0.2949  0.3339
  280MOL0     C38523   3.567  13.178   6.156  0.0987  0.4846 -0.1763
  280MOL0     C38524   3.695  13.212   6.238 -0.1514 -0.8918 -0.5115
  280MOL0     C38525   3.691  13.300   6.369 -0.7108  0.4756 -0.5336
  280MOL0     O38526   3.818  13.311   6.426 -0.8628  0.2899  0.4091
  280MOL0     C38527   3.861  13.208   6.514 -0.4210  0.4183 -0.2377
  280MOL0     C38528   3.975  13.223   6.593  0.6893  0.2390  0.4965
  280MOL0     C38529   4.022  13.130   6.693 -0.2929 -0.1761  0.7766
  280MOL0     C38530   4.150  13.167   6.774 -0.1932  0.9162 -0.4308
  280MOL0     C38531   3.945  13.013   6.717  0.2127 -0.4222  0.0700
  280MOL0     C38532   3.964  12.915   6.825 -1.2383  1.1817 -0.4242
  280MOL0     O38533   3.876  12.814   6.826  0.6027  0.3830 -0.1397
  280MOL0     C38534   3.862  12.717   6.927  0.1397 -0.4280  0.2777
  280MOL0     C38535   3.782  12.607   6.894  0.5678 -0.7406  0.0146
  280MOL0     C38536   3.766  12.502   6.989  0.3414 -0.3054 -0.5411
  280MOL0     C38537   3.816  12.510   7.119  0.1497 -0.2872  1.4639
  280MOL0     O38538   3.793  12.401   7.200  0.1707  0.3685  0.0469
  280MOL0     C38539   3.878  12.391   7.316  0.0558  0.1109 -0.3315
  280MOL0     C38540   3.881  12.245   7.368 -0.6914 -0.3055 -0.2297
  280MOL0     C38541   3.758  12.204   7.456 -0.4800  0.1405  0.5611
  280MOL0     C38542   3.737  12.285   7.582  0.7187  0.6805  0.2396
  280MOL0     C38543   3.621  12.228   7.670  0.1024  0.9618  0.0280
  280MOL0     C38544   3.630  12.302   7.810  0.6584 -0.0075 -0.7102
  280MOL0     C38545   3.506  12.268   7.884 -0.4929 -0.2106  0.6016
  280MOL0     C38546   3.525  12.298   8.026  0.0307  0.1282 -0.0206
  280MOL0    Cl38547   3.575  12.464   8.070 -0.4199 -0.4606 -0.1647
  280MOL0     C38548   3.883  12.631   7.148 -0.1031  0.4296  0.5121
  280MOL0     C38549   3.910  12.734   7.055  0.4401  1.6806  0.0271
  280MOL0     O38550   4.064  12.916   6.895  0.4121 -0.2142  0.0271
  280MOL0     C38551   3.835  12.990   6.622  0.3216  0.7560 -0.3341
  280MOL0     C38552   3.800  13.082   6.524 -0.2754  0.3999 -0.9144
  280MOL0     N38553   3.232  13.080   6.158 -0.0401 -0.4501 -0.7084
  280MOL0     N38554   3.159  13.004   6.092 -0.7568  0.0476  0.1384
  280MOL0     C38555   2.850  11.903   5.402 -0.4759  0.6353 -0.8353
  280MOL0     C38556   2.800  11.762   5.398 -0.0257 -0.8041 -0.4425
  280MOL0     C38557   2.813  11.347   5.525  0.0412  0.8540 -0.2304
  280MOL0     C38558   2.687  11.302   5.487  0.2820  0.5645  0.6991
  280MOL0     C38559   2.653  11.175   5.519  0.2387 -0.3140 -0.0516
  280MOL0     C38560   2.738  11.074   5.565 -0.8744  0.3511  1.7631
  280MOL0     O38561   2.693  10.945   5.588 -1.1325 -0.1630  0.4552
  280MOL0     C38562   2.783  10.833   5.600  1.2191 -0.2932  0.2089
  280MOL0     C38563   2.689  10.714   5.623 -0.2659  0.5112  1.1355
  280MOL0     C38564   2.597  10.689   5.506 -0.0796 -0.4678 -0.0972
  280MOL0     C38565   2.463  10.764   5.543 -0.2481  0.0841  0.3255
  280MOL0     C38566   2.374  10.757   5.427  0.2882  0.1567  0.2800
  280MOL0     C38567   2.309  10.755   5.331  0.5874  0.2223  0.8068
  280MOL0     C38568   2.866  11.114   5.582 -0.0563 -0.7787  0.2602
  280MOL0     C38569   2.906  11.250   5.569  0.7524 -0.8661 -0.6684
  280MOL0     C38570   3.047  11.277   5.616  0.1093  0.1781 -0.2384
  280MOL0     H38571   2.767  11.723   5.727  0.7924 -0.8977 -0.8992
  280MOL0     H38572   2.853  11.968   5.730  1.0559  1.1913 -1.8288
  280MOL0     H38573   2.932  12.178   5.708 -1.1241 -3.6533  0.6091
  280MOL0     H38574   2.776  12.187   5.643  1.9913 -3.7482  2.8241
  280MOL0     H38575   3.014  12.318   5.498  0.7702 -2.2829  0.0330
  280MOL0     H38576   2.853  12.381   5.499 -0.7431 -0.5410 -0.4748
  280MOL0     H38577   2.855  12.455   5.706  1.1159  1.3738  1.0753
  280MOL0     H38578   3.005  12.381   5.771  2.7326  3.0681  0.7639
  280MOL0     H38579   3.127  12.547   5.612 -0.5147 -4.5026 -4.5061
  280MOL0     H38580   2.981  12.588   5.537  0.0439 -0.0584 -0.0522
  280MOL0     H38581   3.034  12.647   5.829  0.7488  3.2825  1.0371
  280MOL0     H38582   2.901  12.706   5.732 -0.8824 -0.1921  0.1364
  280MOL0     H38583   3.193  12.761   5.683 -0.7426 -2.4863 -2.1379
  280MOL0     H38584   3.064  12.844   5.602  1.5897  0.0077 -0.3602
  280MOL0     H38585   2.984  12.918   5.829 -0.3703  2.3604 -0.6282
  280MOL0     H38586   3.147  12.972   5.772 -1.6636  1.5908  2.0916
  280MOL0     H38587   3.089  12.767   5.995 -0.3222 -0.3962 -1.4371
  280MOL0     H38588   3.236  12.737   5.908  0.1653  0.4355  0.2439
  280MOL0     H38589   3.435  12.848   6.043  0.0548 -0.6139  1.7720
  280MOL0     H38590   3.544  12.992   6.260  0.9955  1.1830  0.2192
  280MOL0     H38591   3.449  13.138   6.317 -3.6636  0.9047 -1.2862
  280MOL0     H38592   3.589  13.138   6.056  0.2206 -1.9281  0.7540
  280MOL0     H38593   3.511  13.270   6.137 -0.0902  0.3234 -0.4222
  280MOL0     H38594   3.758  13.124   6.254  0.8220  0.2939  3.3265
  280MOL0     H38595   3.736  13.276   6.160  3.1165 -3.2947 -0.9635
  280MOL0     H38596   3.660  13.398   6.333  1.2990  0.7373 -1.6920
  280MOL0     H38597   3.617  13.261   6.439 -1.1410  1.4066 -0.4573
  280MOL0     H38598   4.023  13.320   6.600  0.5393  0.5703 -2.0904
  280MOL0     H38599   4.213  13.238   6.721  1.7857  1.4773  2.4390
  280MOL0     H38600   4.223  13.086   6.788  0.7359  1.9455  0.9572
  280MOL0     H38601   4.123  13.207   6.872  2.3402 -2.0667  1.7000
  280MOL0     H38602   3.758  12.602   6.789  0.6969  1.0153 -0.1237
  280MOL0     H38603   3.726  12.404   6.965  1.2854 -0.9107  0.2912
  280MOL0     H38604   3.979  12.407   7.276 -0.4849  0.3059 -1.6576
  280MOL0     H38605   3.855  12.465   7.394 -0.8957  2.0882 -2.3796
  280MOL0     H38606   3.872  12.178   7.282 -0.5023  0.5193 -0.9162
  280MOL0     H38607   3.969  12.224   7.429  0.6169  2.0214 -1.2048
  280MOL0     H38608   3.781  12.101   7.483 -0.9153  0.1678  1.0475
  280MOL0     H38609   3.662  12.209   7.404  0.1556 -0.3399 -0.7034
  280MOL0     H38610   3.710  12.387   7.554 -2.6421 -0.4621 -1.1944
  280MOL0     H38611   3.833  12.293   7.635  0.0639 -0.8239  1.7370
  280MOL0     H38612   3.525  12.259   7.628 -0.1134  0.5743  0.2290
  280MOL0     H38613   3.622  12.118   7.676 -1.3404  0.9863  1.4508
  280MOL0     H38614   3.619  12.410   7.791 -2.0045  0.2099  1.3931
  280MOL0     H38615   3.724  12.280   7.861  2.0829  2.0388 -2.2685
  280MOL0     H38616   3.479  12.162   7.877 -2.6446  0.2690  1.1049
  280MOL0     H38617   3.426  12.326   7.838  2.8118 -0.2438 -6.6285
  280MOL0     H38618   3.609  12.239   8.064  0.5596  0.6969 -0.2906
  280MOL0     H38619   3.440  12.278   8.093 -0.4632  1.5904 -0.1599
  280MOL0     H38620   3.918  12.646   7.250  0.6151  0.0593  0.3305
  280MOL0     H38621   3.966  12.823   7.081 -0.6658  2.7554 -1.1147
  280MOL0     H38622   3.782  12.896   6.632  2.4141 -0.3108  2.1686
  280MOL0     H38623   3.718  13.050   6.461 -1.7959  1.4080  0.4676
  280MOL0     H38624   2.876  11.948   5.307 -0.9317  0.8150 -0.8778
  280MOL0     H38625   2.793  11.707   5.305 -1.3476 -0.1044 -0.7885
  280MOL0     H38626   2.623  11.380   5.448  2.2425  2.0068  0.2098
  280MOL0     H38627   2.548  11.146   5.509  0.1842 -1.1201  2.2484
  280MOL0     H38628   2.855  10.810   5.521  0.1640 -2.0459 -0.2728
  280MOL0     H38629   2.841  10.850   5.692  0.3235 -0.6876  0.8537
  280MOL0     H38630   2.626  10.720   5.713 -1.2362  0.4547  0.4765
  280MOL0     H38631   2.763  10.634   5.629  1.8473  2.3084  0.0415
  280MOL0     H38632   2.631  10.729   5.410 -0.1859  1.5246  0.6332
  280MOL0     H38633   2.577  10.582   5.500  1.2363 -0.6399 -1.9900
  280MOL0     H38634   2.482  10.871   5.556  0.4782 -0.2150  1.9342
  280MOL0     H38635   2.402  10.721   5.622 -1.1017  2.3481  0.9813
  280MOL0     H38636   2.260  10.754   5.236  1.4486  1.9115  0.3058
  280MOL0     H38637   2.925  11.026   5.603 -1.4998 -1.7790  0.2665
  280MOL0     H38638   3.103  11.334   5.542  0.5469  0.0329 -0.0180
  280MOL0     H38639   3.049  11.321   5.716 -1.6239  0.5313 -0.3158
  280MOL0     H38640   3.085  11.175   5.625 -1.8757 -0.5609  0.4246
  281MOL0     O38641   5.888   3.465   2.059  0.3398 -0.3676 -0.0337
  281MOL0     C38642   5.776   3.411   2.055  0.2527  0.0923  0.4808
  281MOL0     O38643   5.697   3.394   2.161  0.1629  1.2463 -0.2673
  281MOL0     C38644   5.749   3.440   2.281  0.6018  0.1693  0.1042
  281MOL0     C38645   5.720   3.560   2.342 -0.4996 -0.4394  0.1611
  281MOL0     C38646   5.771   3.582   2.475 -0.1018  0.6142 -0.4683
  281MOL0     C38647   5.871   3.506   2.528 -0.8168  0.1515 -1.5046
  281MOL0     O38648   5.906   3.538   2.656 -0.6873 -0.6080 -0.2606
  281MOL0     C38649   6.027   3.492   2.710  0.4867  0.2833 -1.0261
  281MOL0     C38650   6.009   3.484   2.861 -0.3593 -0.2030 -0.3429
  281MOL0     C38651   5.887   3.395   2.889 -0.8692  0.6666 -0.4463
  281MOL0     C38652   5.874   3.365   3.036  0.2351 -1.2575 -0.8950
  281MOL0     C38653   5.745   3.302   3.070  0.2827 -0.2633  0.7386
  281MOL0     C38654   5.703   3.225   3.187  0.3743 -0.0525  0.6686
  281MOL0     C38655   5.814   3.120   3.216  0.5986 -0.1960 -0.8065
  281MOL0     C38656   5.784   3.026   3.338 -0.0493  0.0046 -0.0269
  281MOL0     N38657   5.707   2.909   3.290  0.0835 -0.6035 -0.1483
  281MOL0     C38658   5.736   2.825   3.179  0.3069  0.1448 -0.1876
  281MOL0     C38659   5.634   2.729   3.177 -1.1430 -1.0285  0.8314
  281MOL0     C38660   5.643   2.597   3.111 -0.3828 -0.5975  0.8170
  281MOL0     C38661   5.705   2.605   2.968  0.5475  0.2026 -0.5102
  281MOL0     C38662   5.700   2.485   2.873  0.0490 -0.2995 -0.2461
  281MOL0     C38663   5.770   2.355   2.924 -0.6409  0.7631 -0.4660
  281MOL0     O38664   5.913   2.353   2.890 -0.1585  0.2019  0.1261
  281MOL0     C38665   5.966   2.224   2.903 -0.6380 -0.2863  0.3308
  281MOL0     C38666   5.914   2.116   2.979 -0.0186 -0.0419  0.8725
  281MOL0     C38667   5.974   1.994   2.998 -0.3274  1.2227 -0.6429
  281MOL0     C38668   5.886   1.883   3.045  0.7587 -0.1005 -0.1743
  281MOL0     C38669   6.099   1.977   2.940  0.3879 -0.0094  0.4788
  281MOL0     C38670   6.171   1.842   2.937 -0.1553  0.3526  0.9390
  281MOL0     O38671   6.219   1.797   2.821  0.4741 -1.0414  0.5343
  281MOL0     C38672   6.271   1.672   2.828  0.4596 -0.7320 -0.9097
  281MOL0     C38673   6.193   1.553   2.832  0.1653 -0.6695  0.0974
  281MOL0     C38674   6.245   1.425   2.817 -1.0331  0.2341 -0.5534
  281MOL0     C38675   6.375   1.404   2.773  0.0185  0.6323 -0.3784
  281MOL0     O38676   6.439   1.281   2.768  0.2203  0.5131  0.5702
  281MOL0     C38677   6.370   1.161   2.780  1.0905 -0.2082  0.6690
  281MOL0     C38678   6.471   1.051   2.809 -0.0015 -0.3213 -0.3177
  281MOL0     C38679   6.551   1.023   2.674 -0.4258 -0.2788  0.4797
  281MOL0     C38680   6.641   0.903   2.701  0.1502 -0.0750 -0.0066
  281MOL0     C38681   6.736   0.880   2.584  0.0108 -0.1393 -0.0341
  281MOL0     C38682   6.838   0.765   2.621 -0.4532  0.0695 -0.2654
  281MOL0     C38683   6.882   0.703   2.487 -0.6029 -0.1387 -0.1482
  281MOL0     C38684   6.990   0.600   2.495  0.3933  0.3741 -0.4287
  281MOL0    Cl38685   7.131   0.681   2.546 -1.0015  0.0245  0.2393
  281MOL0     C38686   6.460   1.516   2.766 -0.7667 -0.2595 -0.7530
  281MOL0     C38687   6.409   1.646   2.790 -0.0611  0.3585  0.2456
  281MOL0     O38688   6.154   1.771   3.038 -1.2704 -0.2963 -0.1862
  281MOL0     C38689   6.163   2.084   2.869 -0.2815  0.1730 -0.2517
  281MOL0     C38690   6.094   2.200   2.841 -0.2173 -0.6046  0.0519
  281MOL0     N38691   5.542   2.764   3.273  0.2828  0.1145  0.1740
  281MOL0     N38692   5.577   2.873   3.324  0.8954  0.6344 -0.0879
  281MOL0     C38693   5.918   3.399   2.448  0.5080  0.0912  0.0811
  281MOL0     C38694   5.855   3.362   2.330  0.3490 -0.0993  0.2623
  281MOL0     C38695   5.740   3.366   1.923  0.5340 -0.2980  1.1311
  281MOL0     C38696   5.598   3.376   1.900 -0.2241  0.7756 -0.7716
  281MOL0     C38697   5.544   3.329   1.778 -0.3153 -0.0480 -0.3027
  281MOL0     C38698   5.631   3.274   1.680 -0.3075 -0.3458 -0.5032
  281MOL0     O38699   5.574   3.240   1.570  0.2730 -0.1372 -0.0728
  281MOL0     C38700   5.620   3.323   1.455 -0.1933 -0.0292 -0.5033
  281MOL0     C38701   5.563   3.283   1.325 -0.6565 -0.2632  1.0170
  281MOL0     C38702   5.418   3.231   1.342  0.0004  0.4453  0.0482
  281MOL0     C38703   5.357   3.172   1.211 -0.2718  0.0222 -0.2757
  281MOL0     C38704   5.396   3.232   1.087  0.7153  0.1913 -0.3084
  281MOL0     C38705   5.437   3.276   0.980 -0.0717  0.9585 -0.1586
  281MOL0     C38706   5.769   3.257   1.709 -0.2500 -0.4977  0.1106
  281MOL0     C38707   5.824   3.311   1.825 -0.3988  0.0591 -0.2991
  281MOL0     C38708   5.969   3.268   1.852 -0.2965  0.3280 -1.1231
  281MOL0     H38709   5.651   3.630   2.297  0.8694 -0.5278 -2.2546
  281MOL0     H38710   5.737   3.663   2.539 -0.6372 -1.0577  1.4832
  281MOL0     H38711   6.111   3.561   2.704  2.9961 -2.3321  1.1053
  281MOL0     H38712   6.050   3.389   2.682 -2.4899 -0.4224 -1.2791
  281MOL0     H38713   6.094   3.432   2.907  0.0950  3.2445  3.2729
  281MOL0     H38714   6.005   3.587   2.899  1.7600  1.0312 -3.0939
  281MOL0     H38715   5.796   3.449   2.861 -0.3606  1.7569 -0.0598
  281MOL0     H38716   5.886   3.296   2.843 -0.5059 -2.3304  5.1134
  281MOL0     H38717   5.960   3.304   3.067  1.4224  0.9640  0.4005
  281MOL0     H38718   5.879   3.455   3.097 -0.7958 -1.8154  0.0597
  281MOL0     H38719   5.722   3.239   2.983  2.6226  1.1621 -1.0578
  281MOL0     H38720   5.672   3.383   3.061  0.9466  0.6477  2.9080
  281MOL0     H38721   5.692   3.296   3.269  1.0482  1.6545 -0.6724
  281MOL0     H38722   5.603   3.181   3.181  0.8513 -1.1744  0.7759
  281MOL0     H38723   5.904   3.175   3.247  2.3867 -2.7888 -1.0914
  281MOL0     H38724   5.829   3.071   3.119 -1.1006  0.9651 -1.7000
  281MOL0     H38725   5.887   3.001   3.364  1.3366  1.2973 -3.5812
  281MOL0     H38726   5.729   3.085   3.412 -3.7499 -1.7342 -1.1509
  281MOL0     H38727   5.825   2.815   3.116 -0.7076 -1.8676 -1.4055
  281MOL0     H38728   5.540   2.561   3.104 -1.5079  2.2675  1.0979
  281MOL0     H38729   5.705   2.532   3.173  0.8511  1.4325  1.8599
  281MOL0     H38730   5.663   2.689   2.912  1.3019  1.4465  0.7218
  281MOL0     H38731   5.810   2.627   2.988  0.4303 -0.0468  0.4292
  281MOL0     H38732   5.595   2.456   2.866 -0.8621  2.2217  1.2496
  281MOL0     H38733   5.747   2.523   2.782 -0.8830  1.4104 -0.0589
  281MOL0     H38734   5.760   2.348   3.033  1.9006 -0.3254 -0.2398
  281MOL0     H38735   5.724   2.272   2.869  0.3637  0.5240 -0.9731
  281MOL0     H38736   5.811   2.128   3.011 -1.2101 -3.0241 -1.3270
  281MOL0     H38737   5.909   1.844   3.145  1.7282  2.0836  0.4983
  281MOL0     H38738   5.883   1.810   2.963 -0.1616 -1.4012  0.9605
  281MOL0     H38739   5.782   1.917   3.057  1.2601  1.2061  0.6195
  281MOL0     H38740   6.092   1.556   2.871  1.5112  3.4475  4.3158
  281MOL0     H38741   6.185   1.337   2.837 -1.5423  0.7185  0.1123
  281MOL0     H38742   6.316   1.177   2.874  1.4362  1.4781  0.6184
  281MOL0     H38743   6.306   1.144   2.693  0.0286  1.2187  1.1298
  281MOL0     H38744   6.537   1.076   2.893  0.0129 -1.4766  0.0203
  281MOL0     H38745   6.408   0.965   2.831  0.5259 -0.4595  0.7178
  281MOL0     H38746   6.618   1.103   2.643  1.0876 -1.6669  0.0801
  281MOL0     H38747   6.483   1.000   2.592  1.2279  1.9586 -1.6617
  281MOL0     H38748   6.584   0.814   2.727  1.1987 -0.5111  0.8604
  281MOL0     H38749   6.706   0.931   2.784 -1.0958  3.1900  0.0257
  281MOL0     H38750   6.680   0.839   2.499  1.6377  1.0371 -1.7571
  281MOL0     H38751   6.786   0.970   2.546  0.7494 -2.2799 -4.8734
  281MOL0     H38752   6.800   0.696   2.697  1.0520 -1.1231 -0.5463
  281MOL0     H38753   6.923   0.805   2.676  0.4112 -2.8627  0.7184
  281MOL0     H38754   6.927   0.775   2.418  3.2686 -1.3617  0.8306
  281MOL0     H38755   6.795   0.658   2.439  0.1885  1.4927 -3.3840
  281MOL0     H38756   7.011   0.543   2.404  0.9821 -4.0672  2.1758
  281MOL0     H38757   6.963   0.524   2.569 -0.6164  1.4386  0.3312
  281MOL0     H38758   6.565   1.507   2.740 -0.4380 -0.8751  0.6992
  281MOL0     H38759   6.468   1.733   2.763  1.2478 -0.8747 -1.0302
  281MOL0     H38760   6.262   2.067   2.827 -1.0471 -0.6436 -1.8283
  281MOL0     H38761   6.150   2.282   2.797 -1.2934 -0.6690 -1.5228
  281MOL0     H38762   6.002   3.343   2.488  0.2485  0.7733  1.6247
  281MOL0     H38763   5.883   3.269   2.281  1.6686  0.0966  0.6236
  281MOL0     H38764   5.534   3.419   1.977 -0.1146  3.3739 -2.0379
  281MOL0     H38765   5.437   3.345   1.767 -0.0111  3.8313  0.9164
  281MOL0     H38766   5.587   3.423   1.482  5.3445  1.1853  3.5650
  281MOL0     H38767   5.729   3.323   1.444 -0.2502  0.5667 -1.0966
  281MOL0     H38768   5.624   3.203   1.280 -1.6361  0.0522 -0.9731
  281MOL0     H38769   5.571   3.367   1.255 -2.1433 -1.5923 -0.8437
  281MOL0     H38770   5.427   3.151   1.416  1.0370 -1.2314 -1.7872
  281MOL0     H38771   5.351   3.312   1.372 -0.5228  0.1899 -0.3974
  281MOL0     H38772   5.247   3.172   1.213 -0.3974 -2.2231 -2.1757
  281MOL0     H38773   5.378   3.064   1.210 -2.2593 -0.4683  1.4594
  281MOL0     H38774   5.468   3.322   0.888  1.6798 -0.8172 -0.5149
  281MOL0     H38775   5.839   3.196   1.654  1.4401  0.6138  0.9354
  281MOL0     H38776   5.997   3.285   1.956  0.9248 -1.0129 -1.2031
  281MOL0     H38777   5.973   3.162   1.824  0.1649  0.4249 -1.4350
  281MOL0     H38778   6.049   3.319   1.797  2.1827 -0.6798  1.3482
  282MOL0     O38779   4.046  10.624   6.802 -0.0266 -0.6333  0.3679
  282MOL0     C38780   4.070  10.688   6.706  0.2275 -0.4496  0.1048
  282MOL0     O38781   4.007  10.680   6.585  0.1110  0.4989  0.7158
  282MOL0     C38782   3.941  10.569   6.546 -0.7389  0.1405 -0.4055
  282MOL0     C38783   3.921  10.568   6.407 -0.7447  0.0028 -0.4702
  282MOL0     C38784   3.855  10.461   6.353 -0.2283  0.1785  0.6037
  282MOL0     C38785   3.790  10.365   6.426  0.8235 -0.1827 -1.6318
  282MOL0     O38786   3.749  10.251   6.370  0.1984 -0.0437 -0.9703
  282MOL0     C38787   3.828  10.197   6.253  0.1173  0.0392 -0.2381
  282MOL0     C38788   3.745  10.180   6.129  0.5321  0.0363  0.2927
  282MOL0     C38789   3.825  10.204   5.999  0.2898  0.1796  0.5537
  282MOL0     C38790   3.773  10.128   5.872  0.5851  0.3576  0.8082
  282MOL0     C38791   3.830  10.170   5.736  0.7044  0.6991 -0.0838
  282MOL0     C38792   3.727  10.146   5.624  0.0222  0.6172  0.5557
  282MOL0     C38793   3.601  10.245   5.630 -0.1346  0.3690  0.0719
  282MOL0     C38794   3.637  10.392   5.609 -0.7400  0.3355 -0.3375
  282MOL0     N38795   3.685  10.428   5.476  0.2494 -0.7106  0.1868
  282MOL0     C38796   3.610  10.398   5.359  0.9894 -0.2920 -0.5676
  282MOL0     C38797   3.665  10.473   5.265 -0.4947  0.7468 -0.0430
  282MOL0     C38798   3.610  10.488   5.120  0.1471  0.2942 -0.3381
  282MOL0     C38799   3.545  10.631   5.116 -0.3249  0.6348 -0.2940
  282MOL0     C38800   3.538  10.685   4.973  0.8726  0.2596 -0.3302
  282MOL0     C38801   3.492  10.830   4.981  0.0079 -0.5522 -0.8017
  282MOL0     O38802   3.587  10.894   4.897  0.0294  0.8120  0.1836
  282MOL0     C38803   3.564  10.922   4.769 -0.4503 -0.1927  0.0989
  282MOL0     C38804   3.672  10.959   4.700  0.2324 -1.1942 -0.3642
  282MOL0     C38805   3.661  10.993   4.567 -0.4203  0.6524  0.2880
  282MOL0     C38806   3.778  11.063   4.503  0.6668  0.1967 -0.0022
  282MOL0     C38807   3.544  10.961   4.490  0.1920  0.0742  0.9492
  282MOL0     C38808   3.525  10.978   4.348 -1.0572  0.0445  0.3332
  282MOL0     O38809   3.399  10.954   4.302  0.1059 -0.1266 -0.9101
  282MOL0     C38810   3.374  10.964   4.166 -0.2741  0.4178  0.4391
  282MOL0     C38811   3.340  10.849   4.091 -0.4227  0.5973  0.3761
  282MOL0     C38812   3.294  10.869   3.958 -0.3569 -0.7246  0.4851
  282MOL0     C38813   3.303  10.996   3.896  0.7229 -0.2255  0.5479
  282MOL0     O38814   3.273  11.000   3.760  0.8150  0.1936  0.1674
  282MOL0     C38815   3.140  11.056   3.737  0.0523  0.3764 -0.9511
  282MOL0     C38816   3.113  11.068   3.593 -0.0998 -0.5268 -0.5479
  282MOL0     C38817   3.015  11.178   3.555 -0.1704  0.7484  0.9963
  282MOL0     C38818   2.978  11.160   3.403 -0.4916 -0.3386 -0.0063
  282MOL0     C38819   2.931  11.293   3.338  0.3614  0.8099 -0.3961
  282MOL0     C38820   2.832  11.367   3.419 -0.4589  0.8445 -0.0064
  282MOL0     C38821   2.788  11.496   3.339  0.7073 -0.2430 -0.0034
  282MOL0     C38822   2.725  11.493   3.201 -0.2121 -0.0523 -0.0790
  282MOL0    Cl38823   2.550  11.443   3.200 -0.1380  0.1954  0.6349
  282MOL0     C38824   3.346  11.104   3.964 -0.0588  1.1700 -0.8388
  282MOL0     C38825   3.388  11.088   4.096  0.6107 -0.4051  0.6829
  282MOL0     O38826   3.623  10.999   4.272  0.2988  0.4424 -0.4713
  282MOL0     C38827   3.435  10.925   4.564  0.3418  0.6190 -0.3645
  282MOL0     C38828   3.441  10.906   4.706  0.1747 -0.0770  0.3709
  282MOL0     N38829   3.787  10.512   5.318 -0.5150  0.1071  0.2432
  282MOL0     N38830   3.801  10.495   5.440 -0.0540 -0.2447  0.5668
  282MOL0     C38831   3.801  10.371   6.567  1.0111 -0.7643  0.0440
  282MOL0     C38832   3.867  10.481   6.628  0.8014 -0.1061  0.5999
  282MOL0     C38833   4.177  10.796   6.713  0.7035 -0.4230 -0.1254
  282MOL0     C38834   4.153  10.919   6.646  1.0593  1.0102  1.1205
  282MOL0     C38835   4.227  11.035   6.668 -1.1195  0.4159  0.1474
  282MOL0     C38836   4.349  11.020   6.748  0.4477  0.2592 -0.1258
  282MOL0     O38837   4.433  11.130   6.774  0.2216  0.1492 -0.2570
  282MOL0     C38838   4.444  11.236   6.670 -0.2519 -0.8584  0.2936
  282MOL0     C38839   4.553  11.337   6.712 -0.0315  0.1146 -0.6292
  282MOL0     C38840   4.519  11.404   6.848  0.7376 -0.5118  0.4645
  282MOL0     C38841   4.424  11.537   6.827 -0.4688  0.1069 -0.1369
  282MOL0     C38842   4.384  11.588   6.956  0.6802 -0.2575  1.1465
  282MOL0     C38843   4.342  11.633   7.056  0.0347 -0.0633 -0.1718
  282MOL0     C38844   4.369  10.901   6.816 -0.6718  0.2055  0.4470
  282MOL0     C38845   4.287  10.791   6.792 -0.9350 -0.3220 -0.8573
  282MOL0     C38846   4.328  10.657   6.856 -0.5659  0.7342  0.4712
  282MOL0     H38847   3.962  10.647   6.345 -1.2674  0.6080 -0.0506
  282MOL0     H38848   3.843  10.456   6.246  0.6591 -3.7666  0.5333
  282MOL0     H38849   3.871  10.099   6.278  2.3770  1.2177  0.8206
  282MOL0     H38850   3.916  10.257   6.227 -0.5156  1.6279  1.1385
  282MOL0     H38851   3.699  10.083   6.111  2.4494 -0.7182 -0.7290
  282MOL0     H38852   3.664  10.253   6.115  0.2952 -0.6607 -2.8876
  282MOL0     H38853   3.817  10.309   5.970 -3.1161 -0.5738 -1.8929
  282MOL0     H38854   3.932  10.199   6.021  0.4782  1.9308  0.1167
  282MOL0     H38855   3.786  10.020   5.888  1.7689  0.2961 -0.4170
  282MOL0     H38856   3.664  10.135   5.880  0.7052  2.1470  1.2706
  282MOL0     H38857   3.911  10.102   5.707 -2.4644 -4.2922  1.3760
  282MOL0     H38858   3.860  10.275   5.735  2.6519  0.2022 -1.7938
  282MOL0     H38859   3.780  10.146   5.529  1.1787  0.3204  1.1751
  282MOL0     H38860   3.689  10.044   5.632 -0.5502  0.8596  1.0482
  282MOL0     H38861   3.549  10.229   5.725  0.3485  0.9677  0.4391
  282MOL0     H38862   3.523  10.220   5.557 -0.2869 -0.8520  0.6192
  282MOL0     H38863   3.554  10.461   5.627 -0.0883  0.6526  1.7782
  282MOL0     H38864   3.720  10.420   5.675  0.1571 -2.2967 -0.2236
  282MOL0     H38865   3.525  10.332   5.347 -1.7765  3.0106 -1.0124
  282MOL0     H38866   3.542  10.409   5.085 -1.8988  2.0057 -0.4665
  282MOL0     H38867   3.699  10.483   5.056  0.4580  2.3639 -0.1389
  282MOL0     H38868   3.445  10.617   5.157 -0.4354 -1.8618 -1.2548
  282MOL0     H38869   3.607  10.691   5.184  0.3943 -0.0207 -0.3531
  282MOL0     H38870   3.642  10.671   4.943  1.0911  0.3831  0.3552
  282MOL0     H38871   3.477  10.630   4.901  1.8092  0.9120 -1.6579
  282MOL0     H38872   3.393  10.841   4.936  1.4446 -0.1841 -4.1117
  282MOL0     H38873   3.491  10.867   5.085  0.8906  0.2629 -1.0690
  282MOL0     H38874   3.769  10.973   4.749  1.0662  0.6133 -2.3595
  282MOL0     H38875   3.850  10.985   4.477  0.3867 -0.0169 -0.1484
  282MOL0     H38876   3.821  11.135   4.573 -0.5564  2.9738 -1.9351
  282MOL0     H38877   3.748  11.123   4.417 -3.4533  0.3823  1.3329
  282MOL0     H38878   3.323  10.753   4.139 -1.8987 -0.1623 -1.5346
  282MOL0     H38879   3.243  10.794   3.899 -1.7002  1.6581 -1.5862
  282MOL0     H38880   3.068  10.998   3.795  0.0105  0.0190 -1.3559
  282MOL0     H38881   3.144  11.161   3.767  1.3461  0.0575  0.0440
  282MOL0     H38882   3.211  11.090   3.550  1.3708 -1.6707  1.9779
  282MOL0     H38883   3.075  10.971   3.557  2.6608 -0.9249 -2.8110
  282MOL0     H38884   3.057  11.279   3.551 -0.8681  1.0279 -2.0149
  282MOL0     H38885   2.924  11.178   3.615 -2.3692  0.9392 -2.1174
  282MOL0     H38886   2.885  11.104   3.415 -0.8447  0.7399  3.3551
  282MOL0     H38887   3.050  11.114   3.335 -0.2322  3.5506 -2.6659
  282MOL0     H38888   3.016  11.361   3.329  1.0656 -0.0355 -0.2789
  282MOL0     H38889   2.896  11.271   3.237  3.0464  1.5587 -1.5738
  282MOL0     H38890   2.876  11.394   3.516 -1.7734  1.0255  0.5661
  282MOL0     H38891   2.746  11.306   3.449  0.1796  0.2243  0.5888
  282MOL0     H38892   2.880  11.555   3.336  0.9883 -0.7059 -1.2683
  282MOL0     H38893   2.710  11.556   3.387  0.8339  1.2539 -1.5798
  282MOL0     H38894   2.785  11.426   3.139  2.5710  5.2091 -3.7974
  282MOL0     H38895   2.728  11.593   3.157  0.0514  0.9170  2.0619
  282MOL0     H38896   3.365  11.196   3.909  2.6783  0.7350 -0.7905
  282MOL0     H38897   3.448  11.167   4.140 -0.5115  0.4435  0.7113
  282MOL0     H38898   3.333  10.912   4.528 -0.3282  0.8116  1.3171
  282MOL0     H38899   3.351  10.890   4.763 -0.3906  4.1460  1.0085
  282MOL0     H38900   3.734  10.309   6.626 -0.0338 -0.2967 -0.6127
  282MOL0     H38901   3.862  10.497   6.735  2.5321 -2.8402  1.2110
  282MOL0     H38902   4.060  10.941   6.593  1.8442  0.4978 -0.5304
  282MOL0     H38903   4.222  11.131   6.617 -1.2381 -0.8029 -2.3054
  282MOL0     H38904   4.471  11.192   6.574 -0.9028  0.4033 -0.4814
  282MOL0     H38905   4.364  11.304   6.641  0.1513 -2.1957 -4.8531
  282MOL0     H38906   4.570  11.408   6.631 -0.5985  2.7757  1.4668
  282MOL0     H38907   4.645  11.283   6.737 -0.5159 -0.0327  0.9646
  282MOL0     H38908   4.470  11.338   6.920  1.5899 -2.0825 -0.3422
  282MOL0     H38909   4.612  11.444   6.891  0.1984  0.1506  1.0339
  282MOL0     H38910   4.333  11.509   6.772 -0.5571 -0.5333  0.3258
  282MOL0     H38911   4.489  11.606   6.773 -0.6466 -1.8110 -3.0444
  282MOL0     H38912   4.293  11.683   7.137  2.0988  0.3845  0.8744
  282MOL0     H38913   4.458  10.899   6.877 -0.2613  2.1534 -0.0139
  282MOL0     H38914   4.343  10.573   6.788 -0.3093  1.4764 -0.4048
  282MOL0     H38915   4.418  10.665   6.917 -1.3016 -1.3535  1.9573
  282MOL0     H38916   4.248  10.634   6.926 -1.8210  1.6174 -0.6183
  283MOL0     O38917   4.090   8.719   8.134 -0.2406  0.3385  0.3340
  283MOL0     C38918   4.190   8.680   8.077  0.4620  0.8637  0.0408
  283MOL0     O38919   4.206   8.554   8.038 -0.2866 -0.9717  0.6669
  283MOL0     C38920   4.146   8.450   8.108 -0.0072 -0.7804  0.4999
  283MOL0     C38921   4.031   8.397   8.047  1.0408 -0.1790 -0.4666
  283MOL0     C38922   3.963   8.292   8.101  0.1400 -0.2284 -0.0923
  283MOL0     C38923   4.019   8.228   8.218  0.4635 -0.0921  0.0983
  283MOL0     O38924   3.974   8.123   8.289  0.4003 -0.9974 -0.1303
  283MOL0     C38925   3.891   8.031   8.223 -0.2801  0.0276  0.4593
  283MOL0     C38926   3.885   7.903   8.308  0.1772  0.0838  0.1948
  283MOL0     C38927   3.783   7.808   8.254 -0.8685  0.7215  0.9316
  283MOL0     C38928   3.826   7.742   8.117 -0.0185 -0.5140  0.4862
  283MOL0     C38929   3.722   7.626   8.083 -0.3903 -0.5988 -0.1101
  283MOL0     C38930   3.765   7.529   7.985  0.4749 -0.8664  0.0125
  283MOL0     C38931   3.698   7.385   7.987  0.1026 -0.2166  0.1157
  283MOL0     C38932   3.682   7.324   7.850 -0.6488  0.8465 -0.3337
  283MOL0     N38933   3.577   7.388   7.760 -0.3417  1.5161 -0.4899
  283MOL0     C38934   3.592   7.413   7.624 -0.4065  0.2848  0.3734
  283MOL0     C38935   3.489   7.489   7.596  0.9129  0.6015  0.6844
  283MOL0     C38936   3.466   7.549   7.453  0.5617 -0.5206 -0.2342
  283MOL0     C38937   3.479   7.437   7.353  0.2821  0.2846  0.7321
  283MOL0     C38938   3.505   7.496   7.210  0.1062  0.5323  0.9997
  283MOL0     C38939   3.508   7.382   7.097 -0.2381  0.5262  0.5863
  283MOL0     O38940   3.511   7.248   7.147  0.9929  0.1438 -0.5379
  283MOL0     C38941   3.498   7.133   7.064  0.2499 -1.0188 -0.7094
  283MOL0     C38942   3.497   7.131   6.918 -0.2788  0.1926  0.4470
  283MOL0     C38943   3.475   7.004   6.853  0.2755 -0.2543  0.4827
  283MOL0     C38944   3.474   7.000   6.707 -0.2124  0.2425  0.4934
  283MOL0     C38945   3.475   6.884   6.926  0.7020  0.1669 -0.3808
  283MOL0     C38946   3.458   6.751   6.871  0.2142  0.0336  0.1052
  283MOL0     O38947   3.564   6.660   6.898  0.1059 -0.0996  0.1815
  283MOL0     C38948   3.537   6.529   6.880 -0.3254 -1.3499 -0.7385
  283MOL0     C38949   3.510   6.451   6.989  0.8775 -0.6551  0.5229
  283MOL0     C38950   3.476   6.313   6.971 -0.7242 -0.4899  0.7881
  283MOL0     C38951   3.453   6.260   6.844 -0.8559  0.2362  0.7275
  283MOL0     O38952   3.414   6.136   6.849  0.3348 -0.1153 -0.0350
  283MOL0     C38953   3.367   6.065   6.731 -0.8490 -0.8106  0.9279
  283MOL0     C38954   3.309   5.926   6.750 -0.2491 -0.0445 -0.0680
  283MOL0     C38955   3.421   5.847   6.810 -0.5032 -0.5238  0.3528
  283MOL0     C38956   3.384   5.698   6.820 -1.3738  0.0310  0.1473
  283MOL0     C38957   3.506   5.620   6.882 -0.6506  0.2497  0.9840
  283MOL0     C38958   3.480   5.477   6.842 -0.4277 -0.2605  0.7214
  283MOL0     C38959   3.534   5.376   6.947 -0.1747 -0.2386 -0.7487
  283MOL0     C38960   3.674   5.336   6.925 -0.4556 -0.3587  1.8385
  283MOL0    Cl38961   3.672   5.220   6.786  0.0401 -0.0068  0.1787
  283MOL0     C38962   3.468   6.345   6.739 -0.6526  0.1180  0.6181
  283MOL0     C38963   3.512   6.477   6.752 -0.7436 -0.4557 -0.1435
  283MOL0     O38964   3.359   6.726   6.797 -0.2190  0.0430 -0.3826
  283MOL0     C38965   3.482   6.889   7.066 -0.7081 -0.2346 -0.3362
  283MOL0     C38966   3.494   7.012   7.136 -0.4784 -0.1209 -0.6359
  283MOL0     N38967   3.413   7.511   7.707  0.0584 -0.1474  0.1027
  283MOL0     N38968   3.462   7.441   7.804 -0.0195  0.1333  0.5317
  283MOL0     C38969   4.129   8.281   8.276  0.0645  0.4732 -0.3032
  283MOL0     C38970   4.193   8.389   8.216  0.2625 -0.0044 -0.3735
  283MOL0     C38971   4.278   8.792   8.022 -0.6637  0.3554 -0.8422
  283MOL0     C38972   4.237   8.925   8.028  0.5592 -0.0714 -0.4782
  283MOL0     C38973   4.312   9.033   7.984 -1.3127 -0.2048 -0.6761
  283MOL0     C38974   4.443   9.008   7.934 -0.6049 -0.7491  0.0895
  283MOL0     O38975   4.535   9.099   7.889 -0.3526 -0.3745  0.1214
  283MOL0     C38976   4.487   9.202   7.804 -0.1735 -0.3031  0.0384
  283MOL0     C38977   4.531   9.335   7.868 -0.3820  0.6445  0.7224
  283MOL0     C38978   4.483   9.345   8.016 -0.2233 -0.0255 -0.1573
  283MOL0     C38979   4.561   9.456   8.092 -0.1530  0.4750  0.6449
  283MOL0     C38980   4.566   9.587   8.021 -0.2041  0.1639  0.6761
  283MOL0     C38981   4.568   9.689   7.953  0.1889  0.1177 -0.2720
  283MOL0     C38982   4.491   8.879   7.950 -0.2704 -0.4910 -0.4875
  283MOL0     C38983   4.411   8.770   7.988 -0.5859  0.1980 -0.1003
  283MOL0     C38984   4.488   8.641   7.988  0.3118  0.9152 -0.0327
  283MOL0     H38985   3.993   8.445   7.958 -0.6398 -0.7262 -0.0699
  283MOL0     H38986   3.873   8.257   8.052 -0.7779  1.9990 -0.1012
  283MOL0     H38987   3.936   7.998   8.129  0.8336 -0.9019  1.2907
  283MOL0     H38988   3.795   8.081   8.206 -0.5292 -0.7413 -0.4622
  283MOL0     H38989   3.980   7.848   8.309 -0.4041 -0.9729 -0.4081
  283MOL0     H38990   3.859   7.927   8.411  0.4062 -1.0642  0.5402
  283MOL0     H38991   3.798   7.718   8.313  2.8003 -1.4205 -2.7364
  283MOL0     H38992   3.681   7.850   8.253 -0.5176  1.6486 -0.4937
  283MOL0     H38993   3.826   7.810   8.031 -3.4029 -0.9896 -0.0151
  283MOL0     H38994   3.921   7.692   8.139  1.1758  2.5490  3.0536
  283MOL0     H38995   3.624   7.669   8.062  0.6135  2.5236  1.0257
  283MOL0     H38996   3.712   7.569   8.176 -1.1214  0.1081  0.2581
  283MOL0     H38997   3.736   7.578   7.891 -0.5963 -1.7810 -0.1596
  283MOL0     H38998   3.874   7.521   7.985  0.6052  0.5374  0.0666
  283MOL0     H38999   3.601   7.393   8.036 -1.0976 -2.5831 -1.6809
  283MOL0     H39000   3.759   7.320   8.050  0.8680 -0.0632 -0.4505
  283MOL0     H39001   3.779   7.325   7.799  0.9212  0.0652  2.4157
  283MOL0     H39002   3.670   7.216   7.864  0.6124  1.0383  3.2887
  283MOL0     H39003   3.671   7.384   7.556 -1.6103 -1.6235 -0.3194
  283MOL0     H39004   3.525   7.636   7.424 -1.0840 -0.0905 -2.5845
  283MOL0     H39005   3.360   7.576   7.457 -0.2969 -3.5785  3.8698
  283MOL0     H39006   3.571   7.382   7.374  0.7645 -0.5998 -3.0128
  283MOL0     H39007   3.386   7.380   7.358 -1.4929  2.9973  0.8683
  283MOL0     H39008   3.414   7.549   7.183 -2.0799 -2.6313  1.6876
  283MOL0     H39009   3.592   7.562   7.200 -0.9224  1.8883  0.7360
  283MOL0     H39010   3.416   7.391   7.039  2.3288  2.6036 -3.7289
  283MOL0     H39011   3.585   7.416   7.026 -0.2890  1.7138  1.0718
  283MOL0     H39012   3.520   7.224   6.868  3.0187 -0.6266  0.2193
  283MOL0     H39013   3.379   6.967   6.666  0.2941  1.7999 -2.1615
  283MOL0     H39014   3.550   6.932   6.669 -1.2468  0.1881 -1.5797
  283MOL0     H39015   3.485   7.096   6.656 -1.5938 -0.7887 -1.9015
  283MOL0     H39016   3.524   6.483   7.091 -0.3520 -2.6428  1.3777
  283MOL0     H39017   3.474   6.247   7.057  0.8414 -2.9257 -0.9173
  283MOL0     H39018   3.285   6.121   6.687  0.8871  0.5981 -0.6843
  283MOL0     H39019   3.449   6.065   6.658 -2.1201 -0.1621 -0.5581
  283MOL0     H39020   3.224   5.941   6.818 -1.9342 -1.1130 -1.8548
  283MOL0     H39021   3.286   5.893   6.649  0.7946  1.5947 -0.8742
  283MOL0     H39022   3.462   5.889   6.902  4.0215  2.3970 -2.6251
  283MOL0     H39023   3.501   5.840   6.736 -0.6884 -3.5470  0.3039
  283MOL0     H39024   3.370   5.663   6.718 -0.9161  4.1553 -1.5357
  283MOL0     H39025   3.294   5.680   6.880  0.5375 -2.2242  2.6309
  283MOL0     H39026   3.598   5.655   6.833 -2.5763  2.1848 -1.5376
  283MOL0     H39027   3.511   5.633   6.990 -1.5858 -3.9580  1.7312
  283MOL0     H39028   3.526   5.466   6.743  0.1600 -0.3676  1.0075
  283MOL0     H39029   3.372   5.461   6.831 -0.5635  0.4607  0.9335
  283MOL0     H39030   3.474   5.284   6.942 -2.6184  0.8957  3.2082
  283MOL0     H39031   3.527   5.413   7.049  1.6420  0.8674 -0.9768
  283MOL0     H39032   3.722   5.288   7.010  2.1130 -0.3231  0.4868
  283MOL0     H39033   3.728   5.426   6.894 -1.2528 -0.6689 -0.6023
  283MOL0     H39034   3.450   6.313   6.637 -0.2073  1.0880  0.2200
  283MOL0     H39035   3.513   6.537   6.662  0.7157 -1.1644 -0.6261
  283MOL0     H39036   3.464   6.791   7.110  0.4067 -0.4904 -0.4271
  283MOL0     H39037   3.491   7.006   7.244 -0.5095  2.0582 -0.4558
  283MOL0     H39038   4.170   8.246   8.370 -0.7066  2.6839  0.9519
  283MOL0     H39039   4.291   8.426   8.247  0.4842  0.5782 -1.7172
  283MOL0     H39040   4.139   8.941   8.071  1.2297 -3.9339  3.0905
  283MOL0     H39041   4.272   9.134   7.972 -0.0377  1.0347  3.5413
  283MOL0     H39042   4.551   9.206   7.716 -1.5792 -1.4708 -1.0761
  283MOL0     H39043   4.380   9.195   7.784 -0.3465 -2.0800  1.2821
  283MOL0     H39044   4.486   9.413   7.805  3.5362 -1.1298 -5.0764
  283MOL0     H39045   4.640   9.333   7.863 -0.3484  2.0022  0.6805
  283MOL0     H39046   4.376   9.360   8.033  0.2421  0.0612  3.5474
  283MOL0     H39047   4.515   9.256   8.070 -0.8764  0.3717  0.9118
  283MOL0     H39048   4.663   9.426   8.117 -0.3124 -2.0141 -1.2926
  283MOL0     H39049   4.495   9.475   8.177 -1.0904 -3.5370  0.9882
  283MOL0     H39050   4.585   9.780   7.898  0.1642  2.0349  2.6523
  283MOL0     H39051   4.600   8.882   7.947 -0.2157  0.9894  0.9769
  283MOL0     H39052   4.503   8.613   8.092  2.2829  1.9341  0.0128
  283MOL0     H39053   4.437   8.555   7.944  3.3767 -1.1660  0.1522
  283MOL0     H39054   4.593   8.641   7.956  0.5963 -3.1574  0.3504
  284MOL0     O39055   9.833   2.177   5.008 -0.2492  0.5074  0.2946
  284MOL0     C39056   9.884   2.277   5.055  0.3997 -1.5419 -0.0055
  284MOL0     O39057   9.819   2.383   5.089 -0.1795  0.5624  0.1334
  284MOL0     C39058   9.703   2.402   5.023 -0.3077  0.2538 -0.2116
  284MOL0     C39059   9.697   2.403   4.884 -1.4502  0.4229  0.2314
  284MOL0     C39060   9.583   2.440   4.809  0.7471  0.6144 -0.0356
  284MOL0     C39061   9.467   2.494   4.881 -0.5456  0.3141  0.7993
  284MOL0     O39062   9.359   2.541   4.806  0.1037 -0.6639  0.0724
  284MOL0     C39063   9.228   2.483   4.834  0.0115  0.4560 -0.6424
  284MOL0     C39064   9.109   2.519   4.749  0.3424 -0.1452 -0.9123
  284MOL0     C39065   9.114   2.469   4.607 -0.2154  0.1555  0.6997
  284MOL0     C39066   9.028   2.549   4.503  0.1392  0.8253  0.4209
  284MOL0     C39067   8.884   2.501   4.503  0.5427  0.3598  0.4452
  284MOL0     C39068   8.804   2.588   4.405 -0.9256  0.7270 -0.2276
  284MOL0     C39069   8.687   2.502   4.358  0.2283 -0.7013 -0.2083
  284MOL0     C39070   8.623   2.567   4.235  0.5549  0.0573  0.7747
  284MOL0     N39071   8.511   2.485   4.203  0.6288  1.3681 -0.1560
  284MOL0     C39072   8.529   2.356   4.157 -0.3087 -0.4684 -0.0222
  284MOL0     C39073   8.406   2.320   4.126 -0.2436 -0.0047  0.5235
  284MOL0     C39074   8.376   2.177   4.082  0.3884 -0.1323 -0.0844
  284MOL0     C39075   8.378   2.145   3.936 -0.3795  0.9916 -0.6869
  284MOL0     C39076   8.311   2.017   3.886  0.0139  0.6481 -0.1309
  284MOL0     C39077   8.404   1.907   3.890 -0.4696 -0.2315 -0.4785
  284MOL0     O39078   8.445   1.890   4.029 -0.8379 -0.6570 -0.0471
  284MOL0     C39079   8.584   1.901   4.057  1.0427  0.0741  0.0740
  284MOL0     C39080   8.628   1.825   4.166  0.3693  0.2777 -0.2014
  284MOL0     C39081   8.752   1.828   4.227  0.6653 -0.2435 -0.9304
  284MOL0     C39082   8.772   1.759   4.363 -0.4062 -0.6794  0.6694
  284MOL0     C39083   8.841   1.920   4.165 -0.8811  0.2519  0.2091
  284MOL0     C39084   8.979   1.949   4.217  0.2580 -0.2891 -0.2866
  284MOL0     O39085   9.038   2.053   4.158 -0.7673 -0.0586  0.0570
  284MOL0     C39086   9.152   2.097   4.206  0.0341  0.3928  0.5849
  284MOL0     C39087   9.162   2.219   4.266  0.1497  0.0015  1.1866
  284MOL0     C39088   9.286   2.269   4.311 -0.1530 -0.3862 -0.0981
  284MOL0     C39089   9.397   2.191   4.302 -1.2604 -0.7995 -0.6130
  284MOL0     O39090   9.518   2.230   4.364  0.1033 -0.3016 -0.7190
  284MOL0     C39091   9.650   2.202   4.317  1.8144 -0.4817  1.0949
  284MOL0     C39092   9.709   2.327   4.256  0.1719 -0.5443  0.4706
  284MOL0     C39093   9.726   2.443   4.368  0.9067  1.1049 -0.1316
  284MOL0     C39094   9.852   2.414   4.456 -0.6079  0.3051 -0.7394
  284MOL0     C39095   9.887   2.543   4.534  0.2083  0.2323  0.1315
  284MOL0     C39096  10.021   2.531   4.618 -0.0425  0.2222  0.0981
  284MOL0     C39097  10.056   2.672   4.674  0.2258  0.2951 -0.0191
  284MOL0     C39098  10.212   2.683   4.700  1.3831 -0.3692 -0.1984
  284MOL0    Cl39099  10.241   2.846   4.781  0.4084  0.3340  0.3994
  284MOL0     C39100   9.390   2.069   4.241 -0.4065 -1.0854 -0.4678
  284MOL0     C39101   9.271   2.023   4.186 -0.0143 -0.7167  0.5054
  284MOL0     O39102   9.030   1.871   4.286 -0.1148  0.6572  0.5118
  284MOL0     C39103   8.806   1.983   4.044 -0.7537  0.5159 -1.0968
  284MOL0     C39104   8.679   1.975   3.989  0.4124  0.3812 -0.9098
  284MOL0     N39105   8.314   2.422   4.148 -0.3500 -0.9424 -0.0383
  284MOL0     N39106   8.383   2.528   4.185  0.1847  0.2093 -0.1427
  284MOL0     C39107   9.474   2.491   5.024  0.1571 -1.1717 -0.7990
  284MOL0     C39108   9.589   2.447   5.095 -1.3666  0.5162  1.1740
  284MOL0     C39109  10.030   2.282   5.081  0.1301 -0.2686  0.8627
  284MOL0     C39110  10.106   2.166   5.075  0.4093  0.1489  1.0239
  284MOL0     C39111  10.245   2.152   5.098 -0.1785  0.6247  0.0427
  284MOL0     C39112  10.323   2.273   5.109  1.1477 -0.6328 -0.5063
  284MOL0     O39113  10.460   2.268   5.127  0.0421 -0.2521 -0.0655
  284MOL0     C39114  10.497   2.219   5.258  0.1735 -0.7532 -0.5274
  284MOL0     C39115  10.646   2.260   5.289  0.4710  0.2707  0.8348
  284MOL0     C39116  10.710   2.164   5.383  0.2887  0.4040  0.0539
  284MOL0     C39117  10.658   2.188   5.534  0.2003 -0.3224  0.5479
  284MOL0     C39118  10.737   2.290   5.609 -0.0362 -0.1102  0.1628
  284MOL0     C39119  10.801   2.368   5.678  0.0047  0.6628 -0.2758
  284MOL0     C39120  10.254   2.395   5.112  0.8861 -1.0683 -0.1717
  284MOL0     C39121  10.107   2.397   5.089 -0.1307 -0.2087  0.3059
  284MOL0     C39122  10.066   2.541   5.057  0.1392 -0.1161 -0.7470
  284MOL0     H39123   9.785   2.387   4.823 -0.9101  3.1688  0.1878
  284MOL0     H39124   9.573   2.430   4.702 -0.0804 -1.9972  0.2049
  284MOL0     H39125   9.189   2.505   4.934 -0.4974 -0.5675 -0.5950
  284MOL0     H39126   9.244   2.374   4.832  3.6141  0.8791 -1.4744
  284MOL0     H39127   9.023   2.481   4.804 -1.1634  2.9058 -0.9574
  284MOL0     H39128   9.083   2.624   4.767  0.4524 -0.6038  2.7846
  284MOL0     H39129   9.213   2.486   4.564  0.7099 -3.8291  0.9140
  284MOL0     H39130   9.103   2.361   4.594  0.3588  0.1048  0.6270
  284MOL0     H39131   9.028   2.656   4.527 -3.3181  1.0547 -0.1041
  284MOL0     H39132   9.056   2.527   4.400 -1.7375 -2.0416  0.4187
  284MOL0     H39133   8.830   2.507   4.599 -3.3087  2.2849 -1.6206
  284MOL0     H39134   8.876   2.394   4.482  0.9938  0.6050 -1.0320
  284MOL0     H39135   8.775   2.686   4.444  1.3880  0.6635  1.9250
  284MOL0     H39136   8.862   2.597   4.313  1.7138  0.3925  1.2722
  284MOL0     H39137   8.617   2.485   4.440  0.6006 -2.8598 -0.2915
  284MOL0     H39138   8.726   2.401   4.340  0.4996 -0.6985  0.3246
  284MOL0     H39139   8.591   2.668   4.263  1.1349  1.6668 -3.6702
  284MOL0     H39140   8.685   2.589   4.149  0.4574 -0.9995  0.4134
  284MOL0     H39141   8.616   2.291   4.151  0.1154  0.2406 -3.3958
  284MOL0     H39142   8.278   2.152   4.124 -1.2328  3.2884 -1.4784
  284MOL0     H39143   8.451   2.115   4.131  1.0210 -0.3569 -1.2880
  284MOL0     H39144   8.332   2.226   3.879  0.6766  1.8715 -0.3408
  284MOL0     H39145   8.485   2.141   3.912 -0.8055 -2.7525 -2.5851
  284MOL0     H39146   8.218   1.990   3.936  0.2453 -0.3839 -0.2312
  284MOL0     H39147   8.281   2.029   3.782 -0.4499 -0.8207 -0.1799
  284MOL0     H39148   8.351   1.814   3.866 -0.5809 -0.0123 -1.0869
  284MOL0     H39149   8.488   1.916   3.819 -0.3530  0.6874 -0.2275
  284MOL0     H39150   8.552   1.762   4.212  0.4203 -0.0967 -0.6223
  284MOL0     H39151   8.802   1.829   4.441 -3.6531  0.5734  0.9496
  284MOL0     H39152   8.841   1.675   4.352  0.8277  0.3309  0.5324
  284MOL0     H39153   8.680   1.707   4.392  0.1250 -1.4201  1.0663
  284MOL0     H39154   9.076   2.284   4.277 -0.3831 -0.7317  1.4270
  284MOL0     H39155   9.297   2.361   4.368  1.9564 -1.1316  0.7685
  284MOL0     H39156   9.718   2.162   4.394  0.4637  0.7075  2.9699
  284MOL0     H39157   9.638   2.129   4.236  5.8749  1.6187 -1.7988
  284MOL0     H39158   9.803   2.306   4.205  1.7925  1.8445  2.2429
  284MOL0     H39159   9.638   2.365   4.182 -0.0968 -1.5217  0.2146
  284MOL0     H39160   9.637   2.450   4.430  0.3508  0.4854 -0.8415
  284MOL0     H39161   9.737   2.539   4.317 -0.5366  1.6705  0.5714
  284MOL0     H39162   9.937   2.394   4.390 -0.3087 -0.2220 -0.2008
  284MOL0     H39163   9.835   2.329   4.524  0.4463  0.2627 -0.5139
  284MOL0     H39164   9.896   2.617   4.454 -5.1140 -1.5997 -2.6463
  284MOL0     H39165   9.802   2.569   4.597  0.3132 -0.7655  0.7139
  284MOL0     H39166  10.095   2.486   4.550  1.0386  2.6798 -0.4505
  284MOL0     H39167  10.018   2.449   4.690  3.7586 -0.6717 -0.5145
  284MOL0     H39168  10.008   2.701   4.767  2.4200  3.2227  0.3371
  284MOL0     H39169  10.017   2.742   4.599 -1.0453  0.0822  0.4325
  284MOL0     H39170  10.271   2.673   4.609  2.0326 -0.7272  0.2483
  284MOL0     H39171  10.235   2.612   4.780  0.4490 -1.7506 -1.1219
  284MOL0     H39172   9.472   1.998   4.236  0.7597  0.1193  0.4367
  284MOL0     H39173   9.268   1.925   4.138  2.6093 -1.1610  1.1271
  284MOL0     H39174   8.863   2.055   3.986  0.1876  2.1726  1.6499
  284MOL0     H39175   8.669   2.026   3.894  1.3427 -3.7840 -3.5454
  284MOL0     H39176   9.391   2.540   5.074  1.0917 -0.0138 -0.3290
  284MOL0     H39177   9.581   2.462   5.202 -1.6235  0.2803  1.1888
  284MOL0     H39178  10.046   2.078   5.056  0.6324  0.8079 -4.6431
  284MOL0     H39179  10.283   2.050   5.094  1.0328  1.0430  0.6883
  284MOL0     H39180  10.426   2.259   5.332  2.2411 -1.9850  2.2804
  284MOL0     H39181  10.490   2.110   5.259  0.2704 -0.8472  3.0904
  284MOL0     H39182  10.650   2.360   5.333 -0.0150  0.7848 -0.2534
  284MOL0     H39183  10.707   2.273   5.200  0.6004 -2.2028  0.4802
  284MOL0     H39184  10.688   2.062   5.353 -2.0646  1.1504 -1.0485
  284MOL0     H39185  10.819   2.164   5.387  0.3012 -1.7637  1.1440
  284MOL0     H39186  10.674   2.091   5.582  1.0067 -1.0121 -1.0379
  284MOL0     H39187  10.552   2.213   5.545 -0.4744 -3.7468  4.2757
  284MOL0     H39188  10.845   2.436   5.748 -0.8191  2.9670 -1.8790
  284MOL0     H39189  10.304   2.491   5.108 -0.0295 -0.5652  0.0431
  284MOL0     H39190  10.013   2.565   4.964 -2.0695  2.2555  0.9640
  284MOL0     H39191  10.001   2.573   5.139  1.8725  2.8033 -0.3729
  284MOL0     H39192  10.147   2.615   5.057 -2.1065  2.5408 -1.6894
  285MOL0     O39193  11.414   5.298   8.613 -0.1814 -1.2686 -0.0255
  285MOL0     C39194  11.325   5.243   8.678  0.2488  0.1175 -0.0767
  285MOL0     O39195  11.227   5.305   8.749 -0.5186  0.6740  0.0227
  285MOL0     C39196  11.246   5.443   8.752  0.1421 -0.4303  0.4551
  285MOL0     C39197  11.160   5.535   8.693  0.4706 -0.1877  0.2982
  285MOL0     C39198  11.171   5.672   8.685  0.9080  0.2440  0.2494
  285MOL0     C39199  11.283   5.731   8.744  0.8337 -0.3100 -0.0744
  285MOL0     O39200  11.291   5.868   8.764  0.4638 -0.4807  0.4690
  285MOL0     C39201  11.168   5.943   8.778 -1.3442 -1.1601  0.1893
  285MOL0     C39202  11.143   6.043   8.667  0.1437  0.4923  0.2944
  285MOL0     C39203  11.114   6.189   8.703  0.1282 -0.3243 -1.2028
  285MOL0     C39204  11.238   6.256   8.746  1.3282 -0.8205  0.8652
  285MOL0     C39205  11.233   6.410   8.755  0.0426 -0.2724 -0.7904
  285MOL0     C39206  11.100   6.455   8.812 -0.3251 -0.4107  0.7546
  285MOL0     C39207  11.122   6.594   8.879  0.3317  0.7178  0.0852
  285MOL0     C39208  10.985   6.639   8.952  0.2796 -0.2584 -1.1869
  285MOL0     N39209  10.917   6.552   9.045 -0.5411  0.2193  0.6799
  285MOL0     C39210  10.836   6.444   9.000 -0.6500  0.0618  0.5417
  285MOL0     C39211  10.780   6.397   9.108 -0.2005  0.0905  0.5112
  285MOL0     C39212  10.691   6.275   9.101 -0.0477 -0.7680 -0.1572
  285MOL0     C39213  10.765   6.148   9.076  0.6989 -0.2061 -0.3520
  285MOL0     C39214  10.763   6.131   8.927  0.4337  0.1532  0.8119
  285MOL0     C39215  10.847   6.005   8.886  0.0143  0.3764 -0.0893
  285MOL0     O39216  10.787   5.880   8.934 -0.0840 -0.3186 -0.0594
  285MOL0     C39217  10.670   5.841   8.880  1.2027  0.2103 -0.4737
  285MOL0     C39218  10.664   5.808   8.752 -0.1785  0.4777  1.7759
  285MOL0     C39219  10.545   5.775   8.686 -0.4007 -0.0241 -0.1980
  285MOL0     C39220  10.553   5.749   8.541 -0.3626  0.1944 -0.3135
  285MOL0     C39221  10.419   5.770   8.767 -0.5699 -0.4780 -0.2409
  285MOL0     C39222  10.283   5.736   8.720  0.1910  0.2161  1.4523
  285MOL0     O39223  10.182   5.770   8.791  0.3977  0.0059 -0.3532
  285MOL0     C39224  10.057   5.737   8.757 -0.1202 -0.7996 -0.8472
  285MOL0     C39225   9.994   5.647   8.833  0.2089  0.0716  0.2438
  285MOL0     C39226   9.865   5.599   8.797 -0.2485 -0.2226  0.3605
  285MOL0     C39227   9.797   5.656   8.692 -0.1566 -1.5974  0.4069
  285MOL0     O39228   9.663   5.637   8.681 -0.0592  0.5099  0.0563
  285MOL0     C39229   9.581   5.582   8.791 -0.1808  0.2055 -0.3587
  285MOL0     C39230   9.432   5.576   8.759  0.1592  0.6514 -0.0014
  285MOL0     C39231   9.352   5.507   8.866  0.4055 -0.8170 -0.3210
  285MOL0     C39232   9.215   5.470   8.797  0.0636 -0.1346 -0.0498
  285MOL0     C39233   9.139   5.392   8.908  0.5134  0.7314 -0.7456
  285MOL0     C39234   9.194   5.240   8.901  0.4538 -0.4094  0.1984
  285MOL0     C39235   9.097   5.144   8.978 -0.3890  0.3809 -0.3018
  285MOL0     C39236   9.160   5.001   8.989  0.7220 -0.4937  1.1141
  285MOL0    Cl39237   9.232   4.991   9.140  0.2386 -0.6817  0.1743
  285MOL0     C39238   9.858   5.756   8.616  0.0728  0.1151 -0.8015
  285MOL0     C39239   9.989   5.805   8.654  0.1865  0.1457 -0.0983
  285MOL0     O39240  10.280   5.686   8.603  0.1274  0.0088 -0.4274
  285MOL0     C39241  10.439   5.801   8.905  0.3913  0.4442  0.0659
  285MOL0     C39242  10.559   5.841   8.955  0.2512 -0.1423  0.0037
  285MOL0     N39243  10.798   6.483   9.212 -0.5421  0.7789 -0.2039
  285MOL0     N39244  10.891   6.571   9.172 -0.2864 -0.2708  0.5490
  285MOL0     C39245  11.372   5.650   8.813  0.4842 -0.1833 -0.8527
  285MOL0     C39246  11.351   5.507   8.824 -0.0291  0.1778  0.5581
  285MOL0     C39247  11.317   5.099   8.660  0.8255  0.0429 -1.8574
  285MOL0     C39248  11.197   5.038   8.664  0.3678  0.3888  0.7205
  285MOL0     C39249  11.184   4.896   8.677  0.4354  0.7380 -0.3117
  285MOL0     C39250  11.299   4.816   8.691  0.4812 -1.0440  0.4576
  285MOL0     O39251  11.308   4.686   8.704 -0.2869  0.0874 -0.4860
  285MOL0     C39252  11.186   4.627   8.759  0.0627 -0.7109 -1.1436
  285MOL0     C39253  11.214   4.486   8.818 -0.8625  0.7289  0.1109
  285MOL0     C39254  11.295   4.396   8.723  0.7918 -0.9579  0.5987
  285MOL0     C39255  11.231   4.343   8.593  0.1382  0.0696  0.8456
  285MOL0     C39256  11.114   4.257   8.606  0.1077  0.4855 -0.0364
  285MOL0     C39257  11.018   4.189   8.605  0.3232 -0.5451 -0.5834
  285MOL0     C39258  11.424   4.882   8.684  1.4933 -0.6679  0.3028
  285MOL0     C39259  11.429   5.023   8.672 -0.1651 -0.1079  0.1109
  285MOL0     C39260  11.568   5.071   8.671  0.8971  0.2460 -0.3189
  285MOL0     H39261  11.080   5.482   8.643  1.9193 -1.9487 -0.2601
  285MOL0     H39262  11.093   5.735   8.643 -3.2930 -1.4998  4.4490
  285MOL0     H39263  11.178   6.006   8.867  0.1506  1.8911 -1.9704
  285MOL0     H39264  11.077   5.882   8.780 -2.0406 -0.3125 -2.3995
  285MOL0     H39265  11.230   6.047   8.600  1.8854  3.9703  2.4578
  285MOL0     H39266  11.063   6.014   8.599  0.9791 -0.3534 -0.3718
  285MOL0     H39267  11.078   6.250   8.619  2.5992  2.2197 -0.5563
  285MOL0     H39268  11.026   6.193   8.768  1.0868 -0.6540  0.1424
  285MOL0     H39269  11.266   6.223   8.847  0.8576  0.0254  1.2869
  285MOL0     H39270  11.313   6.230   8.671  0.0538 -3.4290  0.4132
  285MOL0     H39271  11.247   6.471   8.665  1.2143  0.8716  0.1288
  285MOL0     H39272  11.318   6.438   8.818  0.2528  2.0602 -2.0131
  285MOL0     H39273  11.026   6.469   8.733  1.4658  3.0892 -0.5194
  285MOL0     H39274  11.057   6.382   8.882 -2.5526 -0.7290 -0.8317
  285MOL0     H39275  11.161   6.671   8.811  0.6501  1.1356  0.7261
  285MOL0     H39276  11.192   6.591   8.962  0.4706  0.5635 -0.0378
  285MOL0     H39277  11.013   6.730   9.007  1.8859 -1.5111  0.1855
  285MOL0     H39278  10.913   6.669   8.876  2.7993  1.4074 -3.1139
  285MOL0     H39279  10.826   6.411   8.897  2.8231  0.4706 -0.0626
  285MOL0     H39280  10.597   6.296   9.049  0.2995 -0.0138 -0.4970
  285MOL0     H39281  10.663   6.259   9.205  0.0560 -2.0944 -0.3062
  285MOL0     H39282  10.868   6.153   9.115  1.4777 -1.4210 -2.1346
  285MOL0     H39283  10.725   6.062   9.129  1.7930  0.7071  2.1240
  285MOL0     H39284  10.662   6.112   8.890 -0.5100 -0.0763  3.3074
  285MOL0     H39285  10.794   6.218   8.869 -2.4153  1.7862  1.5443
  285MOL0     H39286  10.854   6.001   8.777 -2.2314 -0.5317 -0.2406
  285MOL0     H39287  10.950   6.017   8.923  1.1117  1.3053 -3.1332
  285MOL0     H39288  10.761   5.824   8.705 -1.3996  2.7332 -0.2291
  285MOL0     H39289  10.508   5.830   8.484  1.5136 -0.5230 -2.9894
  285MOL0     H39290  10.501   5.654   8.525  1.5261 -0.7743 -0.9697
  285MOL0     H39291  10.657   5.732   8.511  0.8295  2.4423  2.0986
  285MOL0     H39292  10.042   5.598   8.917  1.3793  1.8281  0.6528
  285MOL0     H39293   9.830   5.516   8.857 -0.2428 -1.4514 -1.2695
  285MOL0     H39294   9.617   5.479   8.796 -0.6754  0.0272 -0.4072
  285MOL0     H39295   9.585   5.632   8.889  0.6156 -4.4495  2.2827
  285MOL0     H39296   9.392   5.677   8.743  0.8317  0.6080 -2.2514
  285MOL0     H39297   9.420   5.520   8.666 -3.8316  0.5098  0.4386
  285MOL0     H39298   9.345   5.572   8.954 -1.7022  0.7538 -1.5370
  285MOL0     H39299   9.404   5.418   8.901  0.6621  0.7564  3.9093
  285MOL0     H39300   9.237   5.416   8.705 -0.4644 -0.3507 -0.0488
  285MOL0     H39301   9.152   5.559   8.783 -0.3036 -0.1827  1.2057
  285MOL0     H39302   9.157   5.429   9.009  4.0210 -0.6575 -0.7104
  285MOL0     H39303   9.034   5.369   8.889  0.8915 -1.5876 -0.3740
  285MOL0     H39304   9.295   5.225   8.941  0.9573 -2.6157 -1.6489
  285MOL0     H39305   9.204   5.206   8.797  0.3642 -1.3427  0.4810
  285MOL0     H39306   9.004   5.131   8.920 -1.0815  0.1006  0.8320
  285MOL0     H39307   9.063   5.177   9.077  2.1989  2.6562 -0.0794
  285MOL0     H39308   9.231   4.972   8.910  0.1649 -3.2598  1.5083
  285MOL0     H39309   9.080   4.928   8.976  2.2569 -1.8285 -2.1833
  285MOL0     H39310   9.799   5.809   8.542 -1.4498  0.7521  0.7807
  285MOL0     H39311  10.034   5.897   8.617 -0.2900  0.5196  0.2413
  285MOL0     H39312  10.358   5.791   8.977  0.9282 -0.6950  0.5491
  285MOL0     H39313  10.571   5.886   9.053  1.9962  1.2328 -0.7772
  285MOL0     H39314  11.452   5.705   8.861 -1.1293  3.4926 -2.0377
  285MOL0     H39315  11.426   5.445   8.872  0.4108  0.8880  0.8162
  285MOL0     H39316  11.107   5.097   8.649  2.3017  3.7438  1.3097
  285MOL0     H39317  11.086   4.850   8.670  0.9961 -0.6410  0.5363
  285MOL0     H39318  11.148   4.689   8.841  1.8467  0.2210 -0.9511
  285MOL0     H39319  11.103   4.626   8.688 -0.2495  4.3064 -1.2051
  285MOL0     H39320  11.134   4.426   8.863 -0.4860 -1.4729 -1.9135
  285MOL0     H39321  11.279   4.500   8.904  1.2283 -3.6110 -0.4815
  285MOL0     H39322  11.384   4.451   8.693  0.0455  0.1893  0.4235
  285MOL0     H39323  11.333   4.308   8.776 -0.6182 -1.3054  1.0933
  285MOL0     H39324  11.299   4.300   8.518 -0.3324  4.4066 -2.4664
  285MOL0     H39325  11.196   4.433   8.542  2.3420 -0.7192 -2.4129
  285MOL0     H39326  10.920   4.147   8.595 -1.0189  1.9277  0.9579
  285MOL0     H39327  11.511   4.817   8.690  2.2039  0.2294 -0.1894
  285MOL0     H39328  11.576   5.159   8.735  0.9017  0.7259 -0.9629
  285MOL0     H39329  11.632   4.988   8.700  1.8123 -0.3533 -3.6192
  285MOL0     H39330  11.602   5.108   8.574 -0.4348  1.9286 -0.2058
  286MOL0     O39331   2.028   2.013  10.735 -0.3767  0.0273 -0.0368
  286MOL0     C39332   2.042   1.891  10.768 -0.1232 -0.9503  1.0279
  286MOL0     O39333   2.100   1.804  10.686 -0.0944 -0.0868 -0.6825
  286MOL0     C39334   2.197   1.855  10.606  0.0055 -0.5240  0.4122
  286MOL0     C39335   2.333   1.861  10.636 -0.0467  0.3001 -0.0619
  286MOL0     C39336   2.424   1.923  10.556 -0.0878 -0.7472  0.0907
  286MOL0     C39337   2.389   1.974  10.427 -0.4567  0.1612  0.9379
  286MOL0     O39338   2.491   2.011  10.335 -0.6579 -0.2311 -0.0853
  286MOL0     C39339   2.468   2.094  10.219 -0.4031 -0.5665 -0.4017
  286MOL0     C39340   2.419   2.240  10.246 -0.5303  0.7342  1.2139
  286MOL0     C39341   2.516   2.331  10.329  0.3890 -0.5693  0.1429
  286MOL0     C39342   2.450   2.477  10.354  0.2479  0.5505  0.1740
  286MOL0     C39343   2.516   2.551  10.459 -0.4076 -0.2547  0.2415
  286MOL0     C39344   2.663   2.611  10.431  1.1820 -0.2358 -0.4918
  286MOL0     C39345   2.718   2.663  10.562 -0.4883  0.1068  0.3314
  286MOL0     C39346   2.653   2.800  10.597  0.0068 -0.5053 -0.2309
  286MOL0     N39347   2.588   2.805  10.729  0.5202 -0.7862 -0.2530
  286MOL0     C39348   2.456   2.761  10.767 -0.1788 -0.6880  0.3186
  286MOL0     C39349   2.454   2.802  10.888  0.1095  0.1781 -0.8177
  286MOL0     C39350   2.321   2.796  10.977  0.0015 -0.1835 -0.1519
  286MOL0     C39351   2.309   2.686  11.081 -0.3326 -0.5107 -0.2784
  286MOL0     C39352   2.322   2.547  11.008 -0.1639 -0.3213 -0.1920
  286MOL0     C39353   2.310   2.422  11.097 -0.1282  0.1197  0.0045
  286MOL0     O39354   2.184   2.413  11.157  0.8942 -0.0343 -0.0656
  286MOL0     C39355   2.155   2.336  11.265  0.0821 -0.5118 -0.2462
  286MOL0     C39356   2.252   2.270  11.334  0.2113  0.1880  0.0505
  286MOL0     C39357   2.229   2.186  11.438 -1.1244 -0.3967  0.0706
  286MOL0     C39358   2.339   2.104  11.498  0.4506 -0.0454 -0.6426
  286MOL0     C39359   2.099   2.185  11.502  0.9127  0.6730  0.4279
  286MOL0     C39360   2.064   2.121  11.633 -0.0987  0.2724  0.3932
  286MOL0     O39361   1.936   2.076  11.643 -0.3271 -0.2639  0.1870
  286MOL0     C39362   1.894   2.035  11.765 -0.1228  0.5271  0.5708
  286MOL0     C39363   1.882   1.898  11.787  0.2270  0.0618  0.1439
  286MOL0     C39364   1.835   1.851  11.909  0.0615  0.2298 -0.2812
  286MOL0     C39365   1.815   1.942  12.013 -0.0662  0.6959 -0.1641
  286MOL0     O39366   1.761   1.913  12.134  0.0966  0.4269  0.5961
  286MOL0     C39367   1.639   1.832  12.127  0.7468  0.2586 -0.6186
  286MOL0     C39368   1.518   1.914  12.068 -0.1998  0.3438 -0.2406
  286MOL0     C39369   1.467   2.018  12.171 -0.3994  0.1096 -0.0126
  286MOL0     C39370   1.549   2.153  12.187  0.7581 -0.3870 -0.7325
  286MOL0     C39371   1.505   2.247  12.301  0.5584  0.3111  0.9076
  286MOL0     C39372   1.578   2.214  12.432 -1.0493  0.7326  0.0993
  286MOL0     C39373   1.557   2.318  12.543 -0.0487  0.0730  1.1178
  286MOL0     C39374   1.649   2.290  12.675  0.7255 -1.3737 -0.0102
  286MOL0    Cl39375   1.566   2.365  12.823  0.1759  0.2898  0.1743
  286MOL0     C39376   1.832   2.082  11.990 -0.2260 -0.6718 -0.3118
  286MOL0     C39377   1.867   2.127  11.863 -0.0889 -0.4686  0.3895
  286MOL0     O39378   2.148   2.127  11.725 -0.0973 -0.2556 -0.5537
  286MOL0     C39379   2.002   2.249  11.433 -0.7728  0.1929 -0.2363
  286MOL0     C39380   2.028   2.328  11.318  0.4216  0.7416 -0.2937
  286MOL0     N39381   2.565   2.866  10.931  0.2852 -0.4630  0.1743
  286MOL0     N39382   2.648   2.871  10.835 -0.0488 -0.4003 -1.4041
  286MOL0     C39383   2.258   1.955  10.388  0.9205  0.1932  0.6032
  286MOL0     C39384   2.163   1.901  10.479  0.1591 -0.1816 -0.2919
  286MOL0     C39385   1.982   1.841  10.891  1.0915 -0.6121  0.8117
  286MOL0     C39386   1.901   1.723  10.880 -0.0462 -0.5192 -0.9968
  286MOL0     C39387   1.834   1.671  10.988 -0.1696  0.1290  0.6053
  286MOL0     C39388   1.862   1.724  11.117  0.5284  0.6367  0.0568
  286MOL0     O39389   1.810   1.651  11.221  0.1874 -0.2284 -0.5904
  286MOL0     C39390   1.775   1.718  11.342  0.2661 -0.5770  0.0000
  286MOL0     C39391   1.693   1.615  11.417 -0.3974  0.1677 -0.5835
  286MOL0     C39392   1.552   1.672  11.469  0.0615  0.4027  0.6350
  286MOL0     C39393   1.497   1.572  11.572  0.1871 -0.0312 -0.3667
  286MOL0     C39394   1.482   1.434  11.530  0.0073  0.3440 -0.9380
  286MOL0     C39395   1.471   1.324  11.485 -0.0863  0.1199  0.0641
  286MOL0     C39396   1.950   1.840  11.125  0.1659 -0.7945  1.2668
  286MOL0     C39397   2.018   1.894  11.016  0.8495 -1.0379  0.4511
  286MOL0     C39398   2.110   2.012  11.038 -0.0159 -0.2697  0.0689
  286MOL0     H39399   2.373   1.812  10.724  0.7249 -0.8327 -1.0064
  286MOL0     H39400   2.525   1.922  10.595  0.1648 -0.5588 -0.5557
  286MOL0     H39401   2.388   2.060  10.153 -1.0869  2.5436 -1.3384
  286MOL0     H39402   2.558   2.087  10.158  0.2154 -2.1804  0.6142
  286MOL0     H39403   2.396   2.287  10.150  1.7713  2.0948  1.2550
  286MOL0     H39404   2.326   2.234  10.303 -0.6486  0.0775  0.9534
  286MOL0     H39405   2.537   2.280  10.423 -0.6557  0.8499  1.1889
  286MOL0     H39406   2.605   2.353  10.269 -0.0564  1.1628  0.0458
  286MOL0     H39407   2.454   2.531  10.259  0.2508  1.9371  0.9301
  286MOL0     H39408   2.345   2.467  10.383 -0.2011  2.7174 -0.5359
  286MOL0     H39409   2.502   2.495  10.552  0.0228  3.2375  2.6088
  286MOL0     H39410   2.456   2.641  10.472  0.0191 -0.2164  2.2873
  286MOL0     H39411   2.711   2.524  10.385 -2.7361 -2.8059 -0.2619
  286MOL0     H39412   2.654   2.695  10.361 -0.0268 -0.0602 -0.1522
  286MOL0     H39413   2.827   2.663  10.563 -0.4624  0.5005  2.4055
  286MOL0     H39414   2.692   2.583  10.632  1.0027 -4.8803 -4.1921
  286MOL0     H39415   2.716   2.889  10.583  1.0291 -1.5461 -2.9154
  286MOL0     H39416   2.578   2.820  10.521  0.4256 -1.6502 -0.9802
  286MOL0     H39417   2.387   2.696  10.716 -2.1009  1.2420  0.3352
  286MOL0     H39418   2.237   2.789  10.907 -2.0380 -0.6305  2.2178
  286MOL0     H39419   2.304   2.892  11.027  0.0351  0.5550 -1.5023
  286MOL0     H39420   2.385   2.711  11.157 -1.9757 -0.4554  1.4350
  286MOL0     H39421   2.217   2.683  11.140 -0.1380  1.1867  0.1835
  286MOL0     H39422   2.234   2.547  10.943 -1.8688 -1.2892  1.9832
  286MOL0     H39423   2.414   2.549  10.948  0.9935  2.8387  1.4415
  286MOL0     H39424   2.319   2.331  11.037 -0.9341 -0.9665  1.4693
  286MOL0     H39425   2.394   2.430  11.167 -1.0085  5.1744  0.8764
  286MOL0     H39426   2.354   2.268  11.296 -0.5362  0.5091 -2.1313
  286MOL0     H39427   2.395   2.157  11.576  0.3141 -0.1607 -0.4668
  286MOL0     H39428   2.407   2.069  11.419 -0.3089 -0.0065 -1.3186
  286MOL0     H39429   2.300   2.022  11.559  3.9274 -0.5652  1.1496
  286MOL0     H39430   1.906   1.822  11.714  2.5182  1.4890 -0.6934
  286MOL0     H39431   1.813   1.746  11.919  1.4243 -0.1662 -1.2059
  286MOL0     H39432   1.651   1.735  12.078  0.7181 -0.5474  0.9013
  286MOL0     H39433   1.614   1.794  12.226  1.4810 -5.5831 -2.3244
  286MOL0     H39434   1.550   1.957  11.973 -0.9936 -1.5597 -1.4217
  286MOL0     H39435   1.447   1.836  12.040 -3.0017  2.0072  1.7452
  286MOL0     H39436   1.466   1.971  12.269  3.9501  2.4112  1.3816
  286MOL0     H39437   1.369   2.043  12.128 -0.0538 -0.7480 -1.3405
  286MOL0     H39438   1.556   2.203  12.091 -3.1302 -0.2258 -1.0949
  286MOL0     H39439   1.653   2.123  12.197  0.5499 -0.9575 -0.1325
  286MOL0     H39440   1.537   2.351  12.287  0.5668  0.3105  0.9235
  286MOL0     H39441   1.397   2.243  12.314  0.4981  0.8261  0.5886
  286MOL0     H39442   1.686   2.208  12.415 -1.4278 -2.6666 -1.8593
  286MOL0     H39443   1.550   2.112  12.458  3.0163 -0.6987 -0.4309
  286MOL0     H39444   1.453   2.304  12.573 -0.6109 -2.5615 -1.6089
  286MOL0     H39445   1.573   2.421  12.508  1.4642 -0.4831  0.0776
  286MOL0     H39446   1.746   2.333  12.650 -0.0219  0.0987 -0.5057
  286MOL0     H39447   1.672   2.183  12.683  1.4157 -1.2764 -0.5605
  286MOL0     H39448   1.798   2.154  12.065  3.0546 -0.1330  0.8136
  286MOL0     H39449   1.877   2.232  11.836 -2.1522 -0.6758 -1.4724
  286MOL0     H39450   1.898   2.249  11.465 -0.9911 -0.0706 -0.9299
  286MOL0     H39451   1.948   2.369  11.258 -1.6639 -1.8795  0.5356
  286MOL0     H39452   2.227   1.971  10.286  0.5192  4.5555  1.1938
  286MOL0     H39453   2.062   1.887  10.444 -0.5638  1.6482  0.8842
  286MOL0     H39454   1.868   1.692  10.781 -2.0885 -2.1139  0.1343
  286MOL0     H39455   1.771   1.586  10.962  1.1578 -0.0160 -2.7277
  286MOL0     H39456   1.845   1.760  11.414 -0.8873  0.4376  0.5697
  286MOL0     H39457   1.707   1.800  11.316  0.6940 -0.5013 -0.9274
  286MOL0     H39458   1.751   1.583  11.503  2.0288  0.5635 -1.9803
  286MOL0     H39459   1.676   1.535  11.344  1.0035  0.6165 -1.4253
  286MOL0     H39460   1.567   1.768  11.521 -0.1325  1.3378 -0.9806
  286MOL0     H39461   1.493   1.692  11.380 -1.3209  0.8890  1.6187
  286MOL0     H39462   1.397   1.604  11.602  1.0433 -0.0954  2.9489
  286MOL0     H39463   1.549   1.576  11.669 -2.4969 -2.0304  1.3009
  286MOL0     H39464   1.458   1.225  11.445  2.6379  0.4087 -1.8109
  286MOL0     H39465   1.987   1.876  11.220  1.3520 -1.6761  1.1525
  286MOL0     H39466   2.215   1.991  11.017  0.3231  0.4506  0.9297
  286MOL0     H39467   2.062   2.087  10.974 -2.5908 -0.4779  1.6184
  286MOL0     H39468   2.103   2.042  11.143  0.8872  1.7798 -0.3877
  287MOL0     O39469   1.951   8.511   0.627 -0.0573  0.1419  0.1068
  287MOL0     C39470   2.021   8.599   0.583  0.2357  0.1009 -0.3027
  287MOL0     O39471   2.136   8.581   0.508  0.3079 -0.6446 -0.0783
  287MOL0     C39472   2.200   8.466   0.506  0.6474 -0.8081  0.8341
  287MOL0     C39473   2.197   8.409   0.377  0.1272 -0.4483  0.3783
  287MOL0     C39474   2.263   8.297   0.340 -0.1934  0.2364 -0.2295
  287MOL0     C39475   2.340   8.227   0.434 -0.2699  0.2561 -0.0667
  287MOL0     O39476   2.412   8.118   0.401  0.1513 -0.4200  0.5953
  287MOL0     C39477   2.412   8.003   0.497  0.0464  0.5588  0.0730
  287MOL0     C39478   2.552   8.005   0.557 -0.6273 -0.1689  0.3603
  287MOL0     C39479   2.567   7.874   0.644 -0.2222 -0.3065  0.0239
  287MOL0     C39480   2.589   7.744   0.563 -0.6785 -0.0711  0.0849
  287MOL0     C39481   2.518   7.624   0.629  0.3937 -0.8864  1.4241
  287MOL0     C39482   2.367   7.638   0.601 -0.1681  1.1154 -0.5712
  287MOL0     C39483   2.314   7.531   0.498 -0.2717  0.2967  0.6145
  287MOL0     C39484   2.361   7.529   0.355 -0.8529 -0.4651  0.1630
  287MOL0     N39485   2.346   7.646   0.277  1.1989  0.2337  0.1581
  287MOL0     C39486   2.228   7.722   0.279  0.7911  1.0829  0.2383
  287MOL0     C39487   2.250   7.820   0.203  0.5985  0.1368  0.1844
  287MOL0     C39488   2.138   7.919   0.169 -0.1664  0.5583  0.3372
  287MOL0     C39489   2.042   7.858   0.070 -1.3688  0.2373 -0.3531
  287MOL0     C39490   1.925   7.957   0.035  0.5599 -0.3991 -0.8570
  287MOL0     C39491   1.818   7.899  -0.057  0.4747  0.1741 -0.3931
  287MOL0     O39492   1.778   7.765  -0.034  0.2987 -0.2478 -0.3779
  287MOL0     C39493   1.722   7.731   0.085 -0.7272  0.3546  0.5944
  287MOL0     C39494   1.711   7.600   0.126  0.6151 -0.8300  0.1847
  287MOL0     C39495   1.634   7.562   0.243  0.5606 -0.4843  1.1243
  287MOL0     C39496   1.598   7.418   0.238 -0.2481  0.3197 -0.7511
  287MOL0     C39497   1.587   7.664   0.334 -1.8948  0.9927  0.0705
  287MOL0     C39498   1.538   7.637   0.465  0.1230  0.4005  0.0003
  287MOL0     O39499   1.528   7.499   0.497  0.6273  1.0248  0.0073
  287MOL0     C39500   1.472   7.466   0.612 -0.7015  0.2742 -0.3385
  287MOL0     C39501   1.335   7.483   0.626 -0.5669  0.2418 -0.4528
  287MOL0     C39502   1.270   7.450   0.743 -0.2232  0.6466  0.7872
  287MOL0     C39503   1.337   7.392   0.855 -0.2538  0.0241  0.6529
  287MOL0     O39504   1.277   7.347   0.967  0.3327 -0.9001  0.3335
  287MOL0     C39505   1.208   7.463   1.024  0.0829 -0.3321 -0.7383
  287MOL0     C39506   1.114   7.406   1.127  0.4304  0.8562 -0.4681
  287MOL0     C39507   1.169   7.325   1.251  0.1370  0.4557 -0.4902
  287MOL0     C39508   1.051   7.314   1.355 -0.4573 -0.6150  0.2119
  287MOL0     C39509   1.103   7.311   1.504  1.1190  0.8660  0.1521
  287MOL0     C39510   0.982   7.295   1.594 -0.5916  1.3248  0.9894
  287MOL0     C39511   1.015   7.361   1.735  0.3142 -0.0886 -0.3325
  287MOL0     C39512   1.132   7.294   1.803  0.0012 -0.3246 -0.6754
  287MOL0    Cl39513   1.285   7.362   1.767 -0.1909  0.0672 -0.2127
  287MOL0     C39514   1.471   7.348   0.833 -0.2129 -0.8514 -0.1435
  287MOL0     C39515   1.535   7.400   0.712  0.2919  1.1083 -0.5815
  287MOL0     O39516   1.540   7.730   0.542  0.3648  0.4080  0.6471
  287MOL0     C39517   1.618   7.797   0.293 -0.7645  0.3161 -1.5492
  287MOL0     C39518   1.677   7.825   0.176  0.3196 -0.1163  0.0775
  287MOL0     N39519   2.374   7.805   0.143 -0.7738 -0.5532 -0.1704
  287MOL0     N39520   2.432   7.701   0.189 -0.4306  0.3654 -0.6945
  287MOL0     C39521   2.344   8.283   0.565  0.3297  0.6198 -0.1336
  287MOL0     C39522   2.276   8.399   0.601  0.0967 -0.7735 -0.0916
  287MOL0     C39523   1.994   8.739   0.634 -0.6040 -0.5522  0.0069
  287MOL0     C39524   1.875   8.769   0.690  0.4028  0.2666  0.1741
  287MOL0     C39525   1.852   8.895   0.743 -0.2820 -0.5944 -0.2255
  287MOL0     C39526   1.936   9.011   0.720  0.5196  0.0710 -0.3780
  287MOL0     O39527   1.918   9.143   0.767 -0.0726 -0.0061 -0.0734
  287MOL0     C39528   1.793   9.184   0.819  0.3612 -0.4635  0.5127
  287MOL0     C39529   1.678   9.176   0.718  0.4576  0.5135 -0.0011
  287MOL0     C39530   1.703   9.258   0.582 -0.5044 -0.2027 -0.2240
  287MOL0     C39531   1.616   9.209   0.463  0.3060 -0.5475  0.0214
  287MOL0     C39532   1.598   9.314   0.361 -0.0207  0.1605  0.4243
  287MOL0     C39533   1.592   9.388   0.268  0.2712 -0.3993  0.4687
  287MOL0     C39534   2.051   8.979   0.663  0.0711  0.7067 -0.0976
  287MOL0     C39535   2.085   8.854   0.621  0.9044  0.5798  0.2622
  287MOL0     C39536   2.222   8.848   0.549 -0.8495  0.6159  0.2119
  287MOL0     H39537   2.156   8.465   0.294  1.3914 -0.0484  0.0102
  287MOL0     H39538   2.256   8.263   0.237 -2.8202 -2.7660  0.7927
  287MOL0     H39539   2.392   7.913   0.439  1.3902  1.6262 -2.1540
  287MOL0     H39540   2.336   8.013   0.575  1.2327  3.4486  0.9901
  287MOL0     H39541   2.631   8.031   0.485 -1.0438  1.6868  0.5394
  287MOL0     H39542   2.555   8.080   0.636 -0.2217 -2.5650  2.7962
  287MOL0     H39543   2.645   7.895   0.717 -0.3809 -0.4421  0.2319
  287MOL0     H39544   2.475   7.859   0.700 -1.6907  0.0039 -2.1795
  287MOL0     H39545   2.558   7.751   0.459  1.0601 -1.0718 -0.5491
  287MOL0     H39546   2.695   7.717   0.554 -0.4578  1.4623 -2.8909
  287MOL0     H39547   2.549   7.616   0.734  3.6095 -0.6195  0.6128
  287MOL0     H39548   2.551   7.527   0.591  1.4592 -0.4887  1.2803
  287MOL0     H39549   2.314   7.626   0.697 -1.2550 -0.2523 -1.2993
  287MOL0     H39550   2.348   7.734   0.552 -1.8296  1.7612  1.2115
  287MOL0     H39551   2.206   7.547   0.490 -0.4626 -1.2566 -0.3708
  287MOL0     H39552   2.325   7.429   0.536 -3.2810 -0.6198 -0.6652
  287MOL0     H39553   2.465   7.498   0.352 -0.8566 -0.4155 -0.6911
  287MOL0     H39554   2.308   7.452   0.297  1.2474 -0.4588 -1.9068
  287MOL0     H39555   2.141   7.699   0.339  1.1916 -3.9610 -0.6366
  287MOL0     H39556   2.183   8.009   0.127 -1.4586  0.8983 -0.3525
  287MOL0     H39557   2.087   7.938   0.264  0.0885 -0.4504  0.6900
  287MOL0     H39558   2.095   7.833  -0.023 -0.3884  0.8995  0.0148
  287MOL0     H39559   2.012   7.761   0.112  2.5544 -0.2214  1.8328
  287MOL0     H39560   1.878   7.982   0.131  1.5431  1.7668 -0.8626
  287MOL0     H39561   1.971   8.038  -0.022 -0.3613  0.3722 -0.5306
  287MOL0     H39562   1.734   7.969  -0.047 -1.3513 -1.6701 -1.9412
  287MOL0     H39563   1.858   7.909  -0.158 -0.4024 -0.5428 -0.8285
  287MOL0     H39564   1.746   7.518   0.065 -1.3302 -1.2035 -0.4987
  287MOL0     H39565   1.676   7.353   0.278 -0.8205  1.0122  1.6525
  287MOL0     H39566   1.567   7.377   0.141 -0.3647 -2.7741  0.4701
  287MOL0     H39567   1.501   7.397   0.285 -0.2700 -4.8600 -2.4924
  287MOL0     H39568   1.289   7.534   0.543 -2.1362 -2.6274 -1.4884
  287MOL0     H39569   1.167   7.486   0.739  0.1589  1.6820 -0.7313
  287MOL0     H39570   1.282   7.518   1.084 -0.2819  0.1037 -0.6843
  287MOL0     H39571   1.154   7.526   0.953 -2.7937  0.4930  1.9570
  287MOL0     H39572   1.070   7.497   1.169 -1.6553 -0.4336  0.3021
  287MOL0     H39573   1.035   7.344   1.086  2.8935 -2.7098 -0.3242
  287MOL0     H39574   1.245   7.388   1.298 -0.9239  2.2416 -1.0583
  287MOL0     H39575   1.212   7.228   1.221  1.3853  0.1010  2.1942
  287MOL0     H39576   0.989   7.229   1.328 -4.5559  2.6230 -1.6869
  287MOL0     H39577   0.975   7.392   1.343  0.8133  0.7723  0.8588
  287MOL0     H39578   1.159   7.220   1.527  2.4801  1.1704 -1.7705
  287MOL0     H39579   1.159   7.401   1.529 -0.8320  2.2682 -0.2332
  287MOL0     H39580   0.965   7.188   1.605  0.3718  0.7889 -1.8721
  287MOL0     H39581   0.895   7.342   1.547  0.2647  0.1835 -2.0169
  287MOL0     H39582   0.921   7.356   1.791  0.6397  2.9614  0.7029
  287MOL0     H39583   1.020   7.470   1.726 -3.6473  0.8823  4.5366
  287MOL0     H39584   1.132   7.187   1.779  0.8964 -1.1567  2.4948
  287MOL0     H39585   1.116   7.305   1.911 -2.4915  0.0178 -1.0203
  287MOL0     H39586   1.528   7.295   0.909 -0.7345  0.4077  1.1544
  287MOL0     H39587   1.637   7.364   0.702 -0.2063 -1.6375  2.4551
  287MOL0     H39588   1.594   7.880   0.359 -1.0695 -0.4999 -0.6004
  287MOL0     H39589   1.677   7.931   0.153 -0.3193 -0.4450 -1.5507
  287MOL0     H39590   2.394   8.238   0.650 -1.9007  0.2048  1.0425
  287MOL0     H39591   2.288   8.434   0.703 -0.4749 -0.0949 -0.2555
  287MOL0     H39592   1.810   8.684   0.708 -2.2155  2.4248  1.7269
  287MOL0     H39593   1.755   8.905   0.792  0.3494  0.7487  0.8106
  287MOL0     H39594   1.783   9.124   0.909  0.4941 -1.3974 -0.0806
  287MOL0     H39595   1.790   9.291   0.841 -1.7339 -0.4331  0.2323
  287MOL0     H39596   1.591   9.216   0.770  2.5549  2.0334  2.6424
  287MOL0     H39597   1.666   9.069   0.698  4.2298 -0.5847  2.3551
  287MOL0     H39598   1.672   9.363   0.592 -1.9154 -0.6501  0.2355
  287MOL0     H39599   1.809   9.253   0.557 -0.6002  0.2240 -0.7502
  287MOL0     H39600   1.526   9.163   0.506 -0.2521  0.6705  0.2064
  287MOL0     H39601   1.682   9.131   0.425  0.4818  0.8954 -2.9315
  287MOL0     H39602   1.589   9.441   0.175 -0.7219  0.9886  1.2619
  287MOL0     H39603   2.117   9.062   0.637  0.6035  0.9537  1.9304
  287MOL0     H39604   2.296   8.784   0.597  1.8785  2.5435 -1.1476
  287MOL0     H39605   2.206   8.819   0.445  2.7519  1.6976 -0.7791
  287MOL0     H39606   2.267   8.948   0.546  1.2964 -0.2995 -0.0529
  288MOL0     O39607   0.921   0.935   1.654 -1.0943 -0.0993  0.6356
  288MOL0     C39608   0.857   0.945   1.548  1.1665  0.1079 -0.0167
  288MOL0     O39609   0.912   0.933   1.423 -0.2270  0.8853 -0.0670
  288MOL0     C39610   1.049   0.920   1.405 -0.7222 -0.2216 -0.7416
  288MOL0     C39611   1.147   0.999   1.473 -0.6573 -0.2307 -0.1493
  288MOL0     C39612   1.282   0.998   1.446 -0.1679  0.0397 -0.5560
  288MOL0     C39613   1.335   0.899   1.364  0.0354 -0.6807 -0.0569
  288MOL0     O39614   1.475   0.889   1.357  0.3528 -0.2517 -0.6886
  288MOL0     C39615   1.527   0.971   1.254  0.5959  0.0810 -0.3307
  288MOL0     C39616   1.505   0.918   1.107  0.5810 -0.0987  0.1816
  288MOL0     C39617   1.475   1.036   1.008  0.2229 -0.4657  0.0242
  288MOL0     C39618   1.611   1.107   0.968 -0.3766  0.1817 -0.7087
  288MOL0     C39619   1.600   1.131   0.812 -0.0423  0.2385  0.0960
  288MOL0     C39620   1.716   1.220   0.762 -0.5763  0.6026  0.6707
  288MOL0     C39621   1.707   1.234   0.609 -0.4951  0.1444 -0.1328
  288MOL0     C39622   1.834   1.292   0.557  0.2280  0.1229  0.6302
  288MOL0     N39623   1.806   1.330   0.414  0.2276  0.2793 -0.0118
  288MOL0     C39624   1.849   1.261   0.305  0.4364  0.3920  0.6425
  288MOL0     C39625   1.817   1.340   0.203 -0.3881  0.3725  0.5090
  288MOL0     C39626   1.836   1.311   0.055 -0.3532 -0.2043  0.1392
  288MOL0     C39627   1.977   1.312  -0.003 -0.5923  0.0465 -0.9599
  288MOL0     C39628   2.061   1.180  -0.001  0.2391  0.7799 -1.2090
  288MOL0     C39629   2.173   1.190  -0.093 -0.9864 -0.3361 -0.0394
  288MOL0     O39630   2.206   1.059  -0.136 -0.1762 -0.7543 -0.3857
  288MOL0     C39631   2.330   1.035  -0.184  1.3434  0.4066  1.0871
  288MOL0     C39632   2.439   1.017  -0.112 -0.7063  0.4075 -0.0638
  288MOL0     C39633   2.569   0.993  -0.162  1.8008  0.1767 -0.5841
  288MOL0     C39634   2.681   0.982  -0.059 -0.6576 -0.6570 -0.1953
  288MOL0     C39635   2.582   0.979  -0.305  0.8352 -0.2451 -0.3650
  288MOL0     C39636   2.710   0.942  -0.377  0.2354 -0.1527 -0.0265
  288MOL0     O39637   2.711   0.914  -0.508  0.4679 -0.8074 -0.2413
  288MOL0     C39638   2.808   0.841  -0.574 -0.1870  0.6069 -0.3579
  288MOL0     C39639   2.763   0.799  -0.705 -0.4893  0.3271 -0.3989
  288MOL0     C39640   2.853   0.716  -0.775 -0.0709  0.8281  0.7250
  288MOL0     C39641   2.975   0.675  -0.736 -1.1832  0.4425 -0.3363
  288MOL0     O39642   3.070   0.606  -0.817 -0.4218 -1.3732  0.2288
  288MOL0     C39643   3.018   0.485  -0.868  1.3038  0.0608  0.7570
  288MOL0     C39644   3.068   0.369  -0.784 -0.0601 -0.7957 -0.8961
  288MOL0     C39645   3.209   0.389  -0.731 -1.1199  0.6063  0.0924
  288MOL0     C39646   3.256   0.259  -0.659  0.2266  0.7636  0.5301
  288MOL0     C39647   3.404   0.269  -0.607 -0.8239  0.5730 -0.3573
  288MOL0     C39648   3.514   0.274  -0.713 -0.7170  0.4429 -0.4946
  288MOL0     C39649   3.637   0.348  -0.644  0.6709  0.2232  0.5160
  288MOL0     C39650   3.762   0.320  -0.708  0.0346  0.3171  0.0643
  288MOL0    Cl39651   3.809   0.149  -0.659 -0.2391  0.2220  0.1304
  288MOL0     C39652   3.019   0.737  -0.622  0.3986  0.6628 -0.6044
  288MOL0     C39653   2.944   0.812  -0.529  0.5060  0.2679  0.3711
  288MOL0     O39654   2.809   0.964  -0.309  0.4296 -0.7247  0.2090
  288MOL0     C39655   2.459   0.985  -0.383 -0.6297  0.3444  0.0005
  288MOL0     C39656   2.338   1.005  -0.323 -0.2067 -0.5593 -0.3348
  288MOL0     N39657   1.746   1.454   0.252  0.1337  1.0148 -0.6188
  288MOL0     N39658   1.738   1.449   0.380  0.6902 -0.2772  0.8534
  288MOL0     C39659   1.248   0.816   1.306 -0.4422 -0.2589  0.2011
  288MOL0     C39660   1.104   0.823   1.325 -0.4823 -0.9313 -0.6163
  288MOL0     C39661   0.707   0.968   1.574  0.5060  0.0873  0.5557
  288MOL0     C39662   0.653   0.959   1.713  0.7068 -0.8042  0.2273
  288MOL0     C39663   0.528   1.014   1.761 -1.3548  0.7880 -0.2257
  288MOL0     C39664   0.444   1.063   1.661 -0.6849 -0.3464 -0.7819
  288MOL0     O39665   0.330   1.126   1.696 -0.1101  0.1707 -0.0248
  288MOL0     C39666   0.322   1.251   1.770 -0.6999 -0.5520  0.0738
  288MOL0     C39667   0.262   1.241   1.907 -1.5536  0.4997 -0.4671
  288MOL0     C39668   0.130   1.293   1.948  0.4112  0.3442 -0.7161
  288MOL0     C39669   0.015   1.213   1.885  0.4549 -0.4329  1.5044
  288MOL0     C39670  -0.119   1.264   1.900  0.9898  0.1501 -0.9849
  288MOL0     C39671  -0.224   1.320   1.930 -1.0318  0.2234  0.0418
  288MOL0     C39672   0.481   1.045   1.527 -0.1693 -0.0769 -0.2994
  288MOL0     C39673   0.603   0.995   1.485  0.7336  0.3990  1.0503
  288MOL0     C39674   0.614   0.966   1.340 -0.9819  0.0332  0.7125
  288MOL0     H39675   1.110   1.080   1.535  0.2963  0.1857 -0.1202
  288MOL0     H39676   1.357   1.060   1.493 -0.6884 -0.3205  0.7869
  288MOL0     H39677   1.635   0.974   1.272  0.6641 -2.1665 -0.0654
  288MOL0     H39678   1.480   1.070   1.263  1.3880  0.2557  3.2738
  288MOL0     H39679   1.589   0.872   1.052  1.4156  1.8385 -0.2455
  288MOL0     H39680   1.421   0.849   1.108  0.2616  0.2676  1.9843
  288MOL0     H39681   1.435   0.996   0.914 -3.4183 -1.6037  1.8904
  288MOL0     H39682   1.415   1.110   1.060  0.9452 -1.4299  2.3627
  288MOL0     H39683   1.628   1.200   1.023  3.8260 -1.5593  1.3225
  288MOL0     H39684   1.699   1.052   1.000 -1.4358 -1.5805 -0.7050
  288MOL0     H39685   1.501   1.165   0.780 -0.2618 -0.1406  0.3700
  288MOL0     H39686   1.626   1.035   0.766 -2.2500 -1.5188  2.2714
  288MOL0     H39687   1.690   1.318   0.803 -2.7042 -0.7289  2.7609
  288MOL0     H39688   1.815   1.180   0.785  0.9383  1.7567 -3.0652
  288MOL0     H39689   1.626   1.306   0.592 -0.5953  0.2048  0.5476
  288MOL0     H39690   1.676   1.135   0.574 -2.6934  0.5565  0.4806
  288MOL0     H39691   1.861   1.384   0.610  1.6749 -0.7237  1.4079
  288MOL0     H39692   1.923   1.229   0.551  2.3756  2.8760  1.4409
  288MOL0     H39693   1.899   1.165   0.313  0.6318  0.6161  2.3887
  288MOL0     H39694   1.774   1.378  -0.006  0.8434  0.2185 -0.6488
  288MOL0     H39695   1.798   1.212   0.029  0.6061 -0.5146 -0.1103
  288MOL0     H39696   1.977   1.343  -0.108  4.2282  0.1068 -1.1431
  288MOL0     H39697   2.020   1.392   0.058 -1.8859  2.2464 -2.7794
  288MOL0     H39698   2.094   1.155   0.101  0.2004 -1.5980 -1.7205
  288MOL0     H39699   1.998   1.099  -0.040  0.1427  0.8611 -1.2239
  288MOL0     H39700   2.160   1.251  -0.182  1.3133 -0.8125 -0.7594
  288MOL0     H39701   2.263   1.220  -0.038  0.7607 -2.9388 -1.3188
  288MOL0     H39702   2.424   1.030  -0.006  0.3499  1.4188 -0.0090
  288MOL0     H39703   2.747   1.067  -0.081 -1.2895 -0.1777 -0.2698
  288MOL0     H39704   2.748   0.897  -0.075  1.5364  0.7059  1.1716
  288MOL0     H39705   2.646   1.002   0.042 -2.4745  1.6047 -1.1697
  288MOL0     H39706   2.664   0.813  -0.745 -0.0415 -0.5575 -1.8618
  288MOL0     H39707   2.807   0.689  -0.869  1.8000  3.4072 -1.0705
  288MOL0     H39708   2.909   0.483  -0.879  1.4896 -2.0543 -1.8020
  288MOL0     H39709   3.053   0.473  -0.971 -2.7200  0.5285 -0.8612
  288MOL0     H39710   3.002   0.357  -0.698  1.3644  0.0159  0.3580
  288MOL0     H39711   3.076   0.281  -0.848  2.2066  0.6686 -2.8300
  288MOL0     H39712   3.229   0.473  -0.664  2.3829 -1.0017  1.2957
  288MOL0     H39713   3.273   0.399  -0.819 -0.6218 -2.9691 -0.1074
  288MOL0     H39714   3.253   0.173  -0.726 -0.1590  0.7370  0.5805
  288MOL0     H39715   3.184   0.240  -0.579 -0.3708 -4.4327 -0.8781
  288MOL0     H39716   3.412   0.362  -0.550  2.1759  0.6867 -0.8081
  288MOL0     H39717   3.413   0.189  -0.533 -0.8698  0.7752 -0.1317
  288MOL0     H39718   3.483   0.338  -0.796  0.2734  1.1936 -0.2961
  288MOL0     H39719   3.531   0.173  -0.752  0.0536  0.6872 -0.8044
  288MOL0     H39720   3.652   0.312  -0.542  5.3094 -0.5725 -0.2173
  288MOL0     H39721   3.616   0.455  -0.653  2.7571  0.6347  0.0007
  288MOL0     H39722   3.837   0.390  -0.669  0.9812 -2.1910  3.2103
  288MOL0     H39723   3.754   0.320  -0.817 -1.1419 -1.8284  0.0971
  288MOL0     H39724   3.126   0.737  -0.604  0.3947  0.4182 -0.5860
  288MOL0     H39725   2.981   0.860  -0.440 -0.9577  3.4195 -0.5637
  288MOL0     H39726   2.479   0.989  -0.490 -0.4993 -0.7659 -0.0293
  288MOL0     H39727   2.262   0.986  -0.399  0.9224 -1.1707 -1.3439
  288MOL0     H39728   1.286   0.743   1.235  2.3438  2.7558 -1.7878
  288MOL0     H39729   1.027   0.761   1.282 -0.4753 -0.2102 -1.7115
  288MOL0     H39730   0.728   0.918   1.780  2.1142  0.3976 -0.5428
  288MOL0     H39731   0.518   1.030   1.868 -1.2965  1.3833 -0.3055
  288MOL0     H39732   0.417   1.304   1.778 -2.6567  3.1629  1.0811
  288MOL0     H39733   0.258   1.321   1.715 -1.5814 -2.4118 -1.4099
  288MOL0     H39734   0.329   1.306   1.965 -1.2072 -1.6685  1.7379
  288MOL0     H39735   0.264   1.143   1.955 -0.4112  2.3869  3.7581
  288MOL0     H39736   0.140   1.269   2.054 -1.2896 -2.3904 -1.0736
  288MOL0     H39737   0.108   1.400   1.956  0.1789  0.1761  4.0768
  288MOL0     H39738   0.016   1.114   1.931  0.2156 -1.6307 -0.9051
  288MOL0     H39739   0.030   1.219   1.777 -4.1565  1.7195  0.7521
  288MOL0     H39740  -0.322   1.359   1.946 -1.0654  0.4380 -0.6455
  288MOL0     H39741   0.406   1.082   1.458 -1.2337 -2.3745 -0.4620
  288MOL0     H39742   0.620   0.858   1.327 -2.3803 -0.1982  1.7810
  288MOL0     H39743   0.534   1.011   1.279 -0.6775 -0.7563 -0.3024
  288MOL0     H39744   0.702   1.022   1.305 -0.1655 -1.7331 -0.1556
  289MOL0     O39745   0.975  11.214   9.592  0.5714 -0.5630  0.5388
  289MOL0     C39746   0.885  11.144   9.636 -0.0600  0.4970 -0.4822
  289MOL0     O39747   0.817  11.050   9.566  1.5263  0.0339 -0.1706
  289MOL0     C39748   0.832  11.027   9.429 -0.9824  0.1695  0.6689
  289MOL0     C39749   0.937  11.054   9.343 -0.0161  0.7800  0.2944
  289MOL0     C39750   0.928  11.046   9.203 -0.0510 -0.0866  0.2417
  289MOL0     C39751   0.813  10.994   9.143  0.3516 -0.5283 -0.6918
  289MOL0     O39752   0.824  10.987   9.007  0.2600 -0.2846 -0.4027
  289MOL0     C39753   0.702  10.975   8.932 -0.7548  0.7203 -0.6909
  289MOL0     C39754   0.728  11.029   8.789  0.2632  0.2794  0.2587
  289MOL0     C39755   0.617  10.979   8.691 -0.4114 -0.7597  0.0805
  289MOL0     C39756   0.654  11.005   8.542 -0.2660 -0.3978 -0.2477
  289MOL0     C39757   0.541  10.976   8.441 -0.7519 -0.2522  0.0600
  289MOL0     C39758   0.573  10.992   8.282 -0.9466  0.7496 -0.4925
  289MOL0     C39759   0.451  10.970   8.192 -0.1158  0.2432  0.2785
  289MOL0     C39760   0.472  10.981   8.040  0.3904  0.4301 -0.2629
  289MOL0     N39761   0.485  10.849   7.967  0.4209 -0.1429 -0.0751
  289MOL0     C39762   0.431  10.812   7.843 -0.8801 -0.1303  0.3269
  289MOL0     C39763   0.477  10.688   7.822  0.0775 -0.1240 -1.0093
  289MOL0     C39764   0.456  10.603   7.696  0.3204 -0.6164 -0.2792
  289MOL0     C39765   0.406  10.464   7.739 -0.8605 -0.4406  0.4872
  289MOL0     C39766   0.261  10.456   7.803 -0.4142 -0.0750  0.1780
  289MOL0     C39767   0.151  10.443   7.691 -0.0290 -0.5158 -0.4987
  289MOL0     O39768   0.017  10.423   7.752  0.3499 -0.4124 -0.1385
  289MOL0     C39769  -0.088  10.467   7.676  0.3722  0.9046 -0.8861
  289MOL0     C39770  -0.210  10.386   7.679 -0.1144 -0.5490  0.0100
  289MOL0     C39771  -0.315  10.433   7.609 -0.5884  0.0711 -0.3992
  289MOL0     C39772  -0.415  10.327   7.601  0.2901  0.1680  0.3797
  289MOL0     C39773  -0.322  10.560   7.547 -0.6697  0.8737  0.2339
  289MOL0     C39774  -0.437  10.621   7.472 -0.7984  0.2620  0.3355
  289MOL0     O39775  -0.403  10.729   7.396 -0.8923 -0.5851 -0.9408
  289MOL0     C39776  -0.471  10.751   7.284  0.3919  0.1787 -0.1020
  289MOL0     C39777  -0.429  10.869   7.224  0.5233  1.2478  0.5487
  289MOL0     C39778  -0.494  10.903   7.113 -0.1944  0.1537  0.1874
  289MOL0     C39779  -0.586  10.818   7.042 -0.7117  0.0621 -0.2450
  289MOL0     O39780  -0.629  10.857   6.923  0.1271 -0.2150  0.3374
  289MOL0     C39781  -0.530  10.855   6.817 -0.4510 -0.0392  0.5640
  289MOL0     C39782  -0.573  10.746   6.717 -0.7247 -0.1748  0.1320
  289MOL0     C39783  -0.717  10.749   6.687 -0.1781 -0.5941 -0.6998
  289MOL0     C39784  -0.762  10.856   6.584 -1.3803 -0.0569 -0.8998
  289MOL0     C39785  -0.911  10.844   6.560 -1.1340  0.1491  0.8054
  289MOL0     C39786  -0.960  10.969   6.490  0.3166 -0.7557 -0.2898
  289MOL0     C39787  -0.924  10.976   6.341  0.6034 -0.1912 -0.3362
  289MOL0     C39788  -0.983  11.111   6.280  0.2983  0.2475  0.6113
  289MOL0    Cl39789  -1.101  11.205   6.375  0.0867  0.0721  0.1161
  289MOL0     C39790  -0.628  10.707   7.110 -0.8853  1.0578 -0.5658
  289MOL0     C39791  -0.573  10.667   7.230  0.2931  0.2731 -0.7549
  289MOL0     O39792  -0.545  10.574   7.491  0.0140  1.1121 -0.2731
  289MOL0     C39793  -0.210  10.637   7.568  0.2776 -0.2937  0.3952
  289MOL0     C39794  -0.098  10.589   7.616 -0.1221  0.1661  1.0249
  289MOL0     N39795   0.557  10.649   7.930 -0.3787  0.7355  0.2407
  289MOL0     N39796   0.564  10.749   8.012 -0.3471 -0.1327  0.5911
  289MOL0     C39797   0.715  10.945   9.237 -0.0063 -0.2142  0.9504
  289MOL0     C39798   0.730  10.957   9.367 -0.1360  0.1864 -0.4743
  289MOL0     C39799   0.836  11.169   9.775  0.3127  1.4486  0.2264
  289MOL0     C39800   0.873  11.285   9.842  0.3521 -0.3715  0.1046
  289MOL0     C39801   0.851  11.307   9.975 -0.1430  0.7485  0.0263
  289MOL0     C39802   0.809  11.205  10.063  0.2344 -0.1238 -0.6364
  289MOL0     O39803   0.810  11.239  10.201  0.3627  0.6791  0.5075
  289MOL0     C39804   0.738  11.161  10.291  0.0211  0.7946 -0.7808
  289MOL0     C39805   0.812  11.039  10.350  0.8901 -0.4241 -0.6194
  289MOL0     C39806   0.958  11.061  10.368  0.1536 -0.0381  0.5736
  289MOL0     C39807   1.033  10.947  10.442  0.2635 -0.8070 -0.1578
  289MOL0     C39808   0.969  10.925  10.571 -0.6887 -0.2343  0.1116
  289MOL0     C39809   0.908  10.919  10.680 -0.6309  0.6632 -0.2237
  289MOL0     C39810   0.746  11.093  10.004 -0.6372  0.1496  0.3947
  289MOL0     C39811   0.760  11.073   9.859  0.2018 -0.2851 -0.2804
  289MOL0     C39812   0.704  10.939   9.810 -0.3688 -0.9040  0.1249
  289MOL0     H39813   1.025  11.106   9.379 -0.2851  2.7721 -1.7519
  289MOL0     H39814   1.011  11.083   9.143  0.7211  1.1353  1.9743
  289MOL0     H39815   0.626  11.027   8.991  0.3651 -1.2779  2.8449
  289MOL0     H39816   0.695  10.866   8.944  2.0081  0.4205 -1.1944
  289MOL0     H39817   0.737  11.138   8.786 -0.0536  0.2823 -1.3220
  289MOL0     H39818   0.824  10.982   8.767  0.9581  0.3435  2.7851
  289MOL0     H39819   0.625  10.871   8.706  1.4071 -1.0196 -2.1720
  289MOL0     H39820   0.521  11.018   8.726 -1.4268  0.3437 -3.5273
  289MOL0     H39821   0.680  11.110   8.526  0.3259 -0.2612  1.3840
  289MOL0     H39822   0.738  10.939   8.520  2.4639  0.9389  4.6822
  289MOL0     H39823   0.455  11.040   8.467 -0.7225  1.9486 -4.3800
  289MOL0     H39824   0.509  10.872   8.452 -1.3003  0.0480  1.6691
  289MOL0     H39825   0.613  11.092   8.265 -0.9710  0.2585 -4.1015
  289MOL0     H39826   0.649  10.914   8.272  1.1920  2.4754  1.2351
  289MOL0     H39827   0.380  11.049   8.220  0.4433  0.8722 -0.0212
  289MOL0     H39828   0.408  10.873   8.216 -0.3708  0.3174  0.1282
  289MOL0     H39829   0.393  11.046   8.004 -1.4261  2.0480  5.5273
  289MOL0     H39830   0.570  11.028   8.028  1.6095 -2.2926 -2.2030
  289MOL0     H39831   0.387  10.887   7.778  3.2038  3.6824  1.4786
  289MOL0     H39832   0.545  10.583   7.634 -0.3590 -3.7274 -0.3976
  289MOL0     H39833   0.378  10.646   7.632 -0.4718 -3.0464 -1.0479
  289MOL0     H39834   0.424  10.390   7.660  2.0642  0.3025  0.3305
  289MOL0     H39835   0.469  10.416   7.814  0.6708  0.1099 -0.3986
  289MOL0     H39836   0.255  10.375   7.875 -1.4941  0.3195  0.5554
  289MOL0     H39837   0.237  10.547   7.860 -1.8804 -0.1011 -0.3616
  289MOL0     H39838   0.153  10.534   7.631 -4.3304 -0.5607 -0.9931
  289MOL0     H39839   0.166  10.354   7.629  1.0093 -1.2937  0.8019
  289MOL0     H39840  -0.218  10.302   7.746  0.6882  0.0100  0.8230
  289MOL0     H39841  -0.503  10.337   7.666 -0.0786 -0.5797  0.0106
  289MOL0     H39842  -0.375  10.225   7.602  2.9568  1.1382  1.2368
  289MOL0     H39843  -0.456  10.323   7.500  0.0924  1.0252  0.4166
  289MOL0     H39844  -0.350  10.928   7.270  0.8578  0.1409  1.4275
  289MOL0     H39845  -0.463  10.999   7.071 -0.0194  0.5628  1.2128
  289MOL0     H39846  -0.543  10.950   6.764 -2.8228 -1.0092 -0.7609
  289MOL0     H39847  -0.425  10.854   6.850  0.3867 -0.0570 -1.9090
  289MOL0     H39848  -0.504  10.759   6.633  1.8332 -1.6497  1.8716
  289MOL0     H39849  -0.541  10.653   6.765  0.6726  0.3415  0.2410
  289MOL0     H39850  -0.784  10.756   6.773 -0.1387 -0.4510 -0.6818
  289MOL0     H39851  -0.735  10.659   6.627 -0.2708 -1.5442  0.6979
  289MOL0     H39852  -0.705  10.847   6.491 -0.0342 -1.5803  0.0126
  289MOL0     H39853  -0.739  10.953   6.629 -3.2286  0.0947 -0.2328
  289MOL0     H39854  -0.932  10.752   6.505  0.6215  0.3577 -0.3016
  289MOL0     H39855  -0.969  10.841   6.652 -2.4266  0.7290  0.0415
  289MOL0     H39856  -0.907  11.052   6.538 -0.0219 -1.1172  0.7389
  289MOL0     H39857  -1.069  10.970   6.498  0.3613  0.1292  0.4540
  289MOL0     H39858  -0.972  10.890   6.292 -1.4610  1.5292 -1.4972
  289MOL0     H39859  -0.817  10.979   6.318  0.6724  0.9938  0.0907
  289MOL0     H39860  -1.033  11.083   6.187 -2.2809 -0.2042  2.0282
  289MOL0     H39861  -0.910  11.188   6.256 -0.1425  0.2946 -0.6654
  289MOL0     H39862  -0.702  10.646   7.059 -0.3214  0.5328 -0.7674
  289MOL0     H39863  -0.609  10.569   7.260  1.3373 -0.3928 -1.6153
  289MOL0     H39864  -0.212  10.739   7.532  0.7667 -1.3171 -2.8602
  289MOL0     H39865  -0.018  10.662   7.618 -0.8553  1.0218  0.4313
  289MOL0     H39866   0.623  10.908   9.193  1.6641 -2.0259 -1.3172
  289MOL0     H39867   0.649  10.920   9.428  0.8833  0.9422  1.4361
  289MOL0     H39868   0.916  11.369   9.788 -0.0999 -0.0015  0.3092
  289MOL0     H39869   0.886  11.397  10.025  3.4229  0.1943 -1.1407
  289MOL0     H39870   0.706  11.213  10.381  0.1659 -2.2479  1.1684
  289MOL0     H39871   0.645  11.141  10.237  0.6383 -1.4851 -1.1140
  289MOL0     H39872   0.804  10.954  10.282 -0.8886 -0.3395 -0.5797
  289MOL0     H39873   0.758  11.012  10.442 -0.7707 -0.9882 -1.7162
  289MOL0     H39874   1.008  11.089  10.275  0.0103  1.6255  0.9714
  289MOL0     H39875   0.971  11.141  10.442 -1.1985  1.7695 -1.0516
  289MOL0     H39876   1.139  10.972  10.448  0.1315  0.1254 -1.3585
  289MOL0     H39877   1.021  10.851  10.391 -1.9606  0.7883 -2.9497
  289MOL0     H39878   0.836  10.910  10.759 -1.2595  2.7512 -0.4973
  289MOL0     H39879   0.693  11.016  10.059 -2.3384  1.2693  0.4108
  289MOL0     H39880   0.687  10.876   9.898  0.2389  2.2981  2.7522
  289MOL0     H39881   0.619  10.949   9.742 -0.9657 -3.1679  0.4545
  289MOL0     H39882   0.781  10.891   9.750  1.3762  1.4393  0.3399
  290MOL0     O39883   9.099   3.227   9.825 -0.2330  0.0481 -0.2176
  290MOL0     C39884   9.198   3.153   9.806 -0.3624  0.3521 -0.3967
  290MOL0     O39885   9.243   3.104   9.683  0.4077  0.5866  0.0768
  290MOL0     C39886   9.147   3.109   9.581 -0.9285  0.6545  0.0781
  290MOL0     C39887   9.194   3.162   9.453  1.2238 -0.1732 -0.5442
  290MOL0     C39888   9.115   3.173   9.338 -0.8735  0.2382 -0.7770
  290MOL0     C39889   8.989   3.105   9.337  0.8525  0.1718 -1.1845
  290MOL0     O39890   8.899   3.103   9.237 -0.7513  0.4724 -0.1296
  290MOL0     C39891   8.970   3.109   9.115 -0.1559 -0.2799  0.1679
  290MOL0     C39892   8.869   3.090   9.008  0.3920  0.2655  0.6471
  290MOL0     C39893   8.768   3.201   8.999 -0.1906  1.4582 -0.5208
  290MOL0     C39894   8.663   3.180   8.886 -0.1627  0.2687  0.2798
  290MOL0     C39895   8.565   3.062   8.909 -0.5626 -0.1214 -0.6561
  290MOL0     C39896   8.447   3.054   8.807  0.0662  0.8357  0.4926
  290MOL0     C39897   8.334   2.962   8.860  0.4058  0.4431  0.9399
  290MOL0     C39898   8.230   3.025   8.965  0.5768  0.1704 -0.5143
  290MOL0     N39899   8.266   2.998   9.105 -0.5212 -0.3258 -0.6255
  290MOL0     C39900   8.325   3.099   9.182  0.4140 -0.3562 -0.0840
  290MOL0     C39901   8.334   3.041   9.302 -0.3095 -0.5496 -0.5077
  290MOL0     C39902   8.395   3.102   9.429 -0.0397  0.1297 -0.5649
  290MOL0     C39903   8.524   3.182   9.415  0.1881 -0.2948 -0.1658
  290MOL0     C39904   8.546   3.264   9.543 -1.5733  0.1375 -0.5137
  290MOL0     C39905   8.696   3.305   9.559  0.2302  0.6359  0.0879
  290MOL0     O39906   8.721   3.388   9.443 -0.3537 -0.3890 -0.4762
  290MOL0     C39907   8.851   3.437   9.436  0.3742 -0.0283 -0.9031
  290MOL0     C39908   8.889   3.470   9.308 -0.0375  0.1374 -0.1259
  290MOL0     C39909   9.021   3.508   9.280 -0.0690 -0.1932  0.8327
  290MOL0     C39910   9.075   3.523   9.139  0.6769  0.0720 -0.5857
  290MOL0     C39911   9.110   3.526   9.384 -0.4074  0.8408 -0.0373
  290MOL0     C39912   9.248   3.571   9.355  1.0626  0.7037 -0.4530
  290MOL0     O39913   9.292   3.695   9.398 -0.0670  0.5339 -0.7538
  290MOL0     C39914   9.415   3.730   9.358  0.9271  0.3184 -0.2213
  290MOL0     C39915   9.523   3.731   9.450  0.7322  1.5745  0.2646
  290MOL0     C39916   9.652   3.778   9.409  0.9878 -1.2693  0.8129
  290MOL0     C39917   9.672   3.822   9.282  0.4389 -0.0700 -0.1305
  290MOL0     O39918   9.802   3.854   9.264 -0.1189 -0.9054 -0.2631
  290MOL0     C39919   9.837   3.894   9.132  0.7825  0.1707 -0.2387
  290MOL0     C39920   9.993   3.919   9.119 -0.0359  0.5900 -0.0826
  290MOL0     C39921  10.038   3.996   8.994  0.2351 -0.3294 -0.1763
  290MOL0     C39922  10.188   3.978   8.935 -0.3140 -0.6354 -0.3633
  290MOL0     C39923  10.190   4.026   8.787  0.3126 -0.7637  0.4804
  290MOL0     C39924  10.322   4.000   8.720  0.8723  0.2859 -0.0608
  290MOL0     C39925  10.417   4.117   8.742  0.2704  0.2318  0.2029
  290MOL0     C39926  10.546   4.087   8.673  0.2274 -1.2045 -0.8896
  290MOL0    Cl39927  10.640   3.983   8.781  0.4161  0.6409 -0.1643
  290MOL0     C39928   9.566   3.823   9.190  0.1944  0.3566 -0.2722
  290MOL0     C39929   9.436   3.783   9.226  0.1946  0.1300 -0.0616
  290MOL0     O39930   9.314   3.486   9.296  0.4668 -0.6553 -0.0717
  290MOL0     C39931   9.073   3.501   9.516  0.2463  0.8959  0.6342
  290MOL0     C39932   8.937   3.458   9.546 -0.8612  0.2567  0.4802
  290MOL0     N39933   8.283   2.915   9.301 -0.7663 -0.6173 -0.1482
  290MOL0     N39934   8.248   2.888   9.179  0.2542 -0.0612  0.1425
  290MOL0     C39935   8.954   3.036   9.464  0.0979 -0.5144  0.2062
  290MOL0     C39936   9.023   3.046   9.580  0.1958  0.5591 -1.1822
  290MOL0     C39937   9.285   3.131   9.924  0.0605  0.2095  0.1058
  290MOL0     C39938   9.413   3.062   9.895  0.8656  0.4213 -0.5276
  290MOL0     C39939   9.517   3.061   9.981  0.9535  0.1903  0.3483
  290MOL0     C39940   9.500   3.119  10.112  0.0818 -0.0469  0.0347
  290MOL0     O39941   9.599   3.121  10.213  0.3779  0.8886  0.5168
  290MOL0     C39942   9.739   3.086  10.176  0.3329 -0.4758 -0.2334
  290MOL0     C39943   9.829   3.155  10.269  0.3363  0.6070  0.1513
  290MOL0     C39944   9.853   3.097  10.402 -0.3614 -0.0872 -0.2459
  290MOL0     C39945   9.884   3.209  10.498 -0.4757  0.0452  0.4605
  290MOL0     C39946   9.943   3.150  10.611  0.6287  0.0815  1.4870
  290MOL0     C39947   9.994   3.123  10.718  0.6565  0.0605  0.4439
  290MOL0     C39948   9.378   3.171  10.141 -1.3459  0.3184 -0.9692
  290MOL0     C39949   9.271   3.182  10.062 -0.3684 -0.3116  0.1647
  290MOL0     C39950   9.157   3.259  10.102  0.2229  0.2045 -0.5272
  290MOL0     H39951   9.293   3.207   9.449  2.0308 -1.5866  1.7550
  290MOL0     H39952   9.153   3.238   9.260 -1.0532  2.1310  0.6310
  290MOL0     H39953   9.047   3.032   9.108 -1.7409 -2.1067  1.8577
  290MOL0     H39954   9.017   3.208   9.107 -1.5200  0.5820  1.9119
  290MOL0     H39955   8.923   3.102   8.914 -1.8507 -0.6699 -0.8551
  290MOL0     H39956   8.816   2.994   9.015  0.4600  0.3399  3.0701
  290MOL0     H39957   8.715   3.210   9.095 -2.2364  0.9152 -1.5452
  290MOL0     H39958   8.832   3.290   8.998  2.6090 -0.3716  1.7306
  290MOL0     H39959   8.611   3.276   8.882  0.6201  0.6735 -0.7646
  290MOL0     H39960   8.725   3.171   8.796  0.5927 -0.8225  0.8940
  290MOL0     H39961   8.520   3.072   9.008 -1.0154  1.7930 -1.0225
  290MOL0     H39962   8.621   2.969   8.898 -2.5661 -1.3313 -1.2501
  290MOL0     H39963   8.411   3.156   8.793 -0.7673  0.7013  1.5938
  290MOL0     H39964   8.476   3.019   8.708 -1.8644 -0.4786  0.3360
  290MOL0     H39965   8.372   2.868   8.901 -1.0194 -0.4280  0.3394
  290MOL0     H39966   8.273   2.938   8.773 -1.7746  4.3783  1.1551
  290MOL0     H39967   8.221   3.131   8.938 -0.2741  0.5989  1.3061
  290MOL0     H39968   8.130   2.981   8.965  1.3927 -1.9784  2.1635
  290MOL0     H39969   8.347   3.201   9.153  3.2114 -0.5197  1.2131
  290MOL0     H39970   8.420   3.026   9.502  1.7247  0.4581 -0.7840
  290MOL0     H39971   8.317   3.172   9.460  0.6424  0.4819  0.3729
  290MOL0     H39972   8.613   3.119   9.406  1.2042  1.1532 -0.6896
  290MOL0     H39973   8.523   3.238   9.321  0.5862 -1.1675 -0.7057
  290MOL0     H39974   8.492   3.357   9.524  0.3154  1.7929  1.5965
  290MOL0     H39975   8.507   3.223   9.637  2.1054 -2.1843  0.1909
  290MOL0     H39976   8.708   3.359   9.653  0.7400 -1.5295  1.3406
  290MOL0     H39977   8.767   3.223   9.574 -1.3142 -0.6452  0.8229
  290MOL0     H39978   8.820   3.435   9.233 -1.5053 -2.6403  2.3134
  290MOL0     H39979   9.103   3.420   9.112 -0.4860 -1.0942  2.2307
  290MOL0     H39980   9.151   3.600   9.122 -0.3994  1.4928  0.7651
  290MOL0     H39981   9.000   3.567   9.073  1.0755  0.7372 -0.6021
  290MOL0     H39982   9.510   3.701   9.553 -0.2240 -0.3360 -0.3672
  290MOL0     H39983   9.737   3.776   9.476  1.2832  1.2084  0.6038
  290MOL0     H39984   9.811   3.813   9.063 -2.0133 -1.5185  2.5416
  290MOL0     H39985   9.791   3.988   9.100 -0.5580 -0.0340  0.9890
  290MOL0     H39986  10.015   3.981   9.206 -2.4803  1.4519  0.0144
  290MOL0     H39987  10.052   3.828   9.132  1.3439  1.7477  2.3240
  290MOL0     H39988  10.035   4.104   9.014 -2.2162 -0.0681 -1.6424
  290MOL0     H39989   9.962   3.972   8.919  1.2133 -1.0824 -0.9544
  290MOL0     H39990  10.212   3.871   8.941 -0.6319 -0.8932 -2.7740
  290MOL0     H39991  10.263   4.035   8.989 -0.9781 -0.8246  0.7843
  290MOL0     H39992  10.110   3.972   8.736  0.0596  0.6565 -0.6952
  290MOL0     H39993  10.165   4.133   8.788 -2.5958 -1.3003 -1.7101
  290MOL0     H39994  10.303   3.998   8.612  0.3596  0.0837  0.0323
  290MOL0     H39995  10.360   3.902   8.750  0.8221  0.2662 -0.0620
  290MOL0     H39996  10.442   4.133   8.847 -0.4472  0.3516  0.3620
  290MOL0     H39997  10.381   4.206   8.690  1.5870  0.4874 -0.3122
  290MOL0     H39998  10.598   4.182   8.662 -2.3836  0.0212 -5.1413
  290MOL0     H39999  10.535   4.047   8.571 -0.9353 -1.8295 -0.5352
  290MOL0     H40000   9.585   3.861   9.090  1.6745 -0.2115 -0.2295
  290MOL0     H40001   9.364   3.765   9.147 -0.2072  0.8826  0.1208
  290MOL0     H40002   9.141   3.497   9.600  0.9144  3.9357  0.3596
  290MOL0     H40003   8.901   3.433   9.645 -2.9736  1.2925  0.0189
  290MOL0     H40004   8.867   2.971   9.461  1.6471 -2.7078 -2.0786
  290MOL0     H40005   8.993   2.990   9.667  2.7804  0.5431 -0.2425
  290MOL0     H40006   9.446   3.022   9.799  1.6780  0.0623 -0.1108
  290MOL0     H40007   9.612   3.016   9.954  0.8958  2.3734 -4.4590
  290MOL0     H40008   9.753   2.977  10.179  0.3964 -0.4874 -0.8264
  290MOL0     H40009   9.763   3.128  10.077 -2.5821 -0.3969 -1.0126
  290MOL0     H40010   9.783   3.253  10.281  0.7342  0.8764 -0.4320
  290MOL0     H40011   9.927   3.168  10.222 -0.0328 -0.0933 -0.8521
  290MOL0     H40012   9.766   3.041  10.439  0.9475 -0.0620  3.3396
  290MOL0     H40013   9.932   3.021  10.395 -1.3358 -1.1077 -0.4234
  290MOL0     H40014   9.786   3.245  10.528 -1.1312  0.6772 -2.2012
  290MOL0     H40015   9.950   3.291  10.468 -2.0117  0.9695 -0.5475
  290MOL0     H40016  10.034   3.101  10.814  1.0597 -2.4592 -0.2239
  290MOL0     H40017   9.377   3.202  10.245  1.8653  1.7373 -1.2282
  290MOL0     H40018   9.130   3.337  10.031 -0.2093  1.5009  0.9909
  290MOL0     H40019   9.076   3.187  10.117  1.5617 -1.7661 -2.1738
  290MOL0     H40020   9.173   3.308  10.198  1.3332 -0.7446 -0.2008
  291MOL0     O40021   4.858   6.742   3.028  0.1293  0.2548  0.3902
  291MOL0     C40022   4.785   6.745   2.932  1.1212 -0.2274 -0.5912
  291MOL0     O40023   4.657   6.701   2.926 -0.0316 -0.1275  0.2564
  291MOL0     C40024   4.614   6.621   3.037 -1.3520  0.1797  0.3197
  291MOL0     C40025   4.694   6.505   3.066 -0.1172 -1.3571  0.3106
  291MOL0     C40026   4.668   6.438   3.188 -0.3926 -0.1049  0.7368
  291MOL0     C40027   4.566   6.485   3.275  0.6078 -0.0111  0.4324
  291MOL0     O40028   4.531   6.438   3.404  0.7050 -0.2620  0.3358
  291MOL0     C40029   4.578   6.321   3.448  0.9273 -0.3253  0.4526
  291MOL0     C40030   4.512   6.313   3.596 -0.3521  0.0793  0.3325
  291MOL0     C40031   4.588   6.206   3.670 -0.1478  0.0949 -0.3879
  291MOL0     C40032   4.561   6.224   3.823  0.4400 -0.9621 -0.8965
  291MOL0     C40033   4.605   6.107   3.915  0.1137 -1.3168 -0.6193
  291MOL0     C40034   4.520   6.107   4.056 -0.0657  0.5704  0.5626
  291MOL0     C40035   4.556   5.982   4.141  0.0605  1.0533  0.0648
  291MOL0     C40036   4.669   6.010   4.231 -0.3362 -0.5973 -0.1732
  291MOL0     N40037   4.719   5.895   4.293 -0.1097  0.3650  0.1280
  291MOL0     C40038   4.644   5.795   4.346  0.6498  0.1074 -0.5867
  291MOL0     C40039   4.733   5.706   4.396 -1.0879 -1.1749 -0.8471
  291MOL0     C40040   4.711   5.578   4.481  0.6356  0.0749  0.8087
  291MOL0     C40041   4.716   5.608   4.625 -0.8301  0.1997  0.8148
  291MOL0     C40042   4.620   5.706   4.686  0.5400 -0.4251  0.0915
  291MOL0     C40043   4.468   5.674   4.684  0.2059 -0.5295 -0.1106
  291MOL0     O40044   4.397   5.666   4.556  0.0980 -0.0054 -0.0460
  291MOL0     C40045   4.270   5.609   4.557  0.1266 -0.3010 -0.2714
  291MOL0     C40046   4.210   5.592   4.433 -0.3032 -0.3706 -0.2432
  291MOL0     C40047   4.084   5.544   4.405 -0.2067 -0.2457 -0.7325
  291MOL0     C40048   4.047   5.548   4.262  0.1490 -0.4578 -0.2650
  291MOL0     C40049   4.000   5.517   4.517 -0.3168 -0.5692 -0.2934
  291MOL0     C40050   3.851   5.487   4.511  0.2337 -0.4277 -0.3566
  291MOL0     O40051   3.797   5.470   4.629 -0.0029  0.0163 -0.5167
  291MOL0     C40052   3.660   5.445   4.635  0.2022  0.0112 -0.0665
  291MOL0     C40053   3.564   5.545   4.629  0.0715 -1.3026 -0.0961
  291MOL0     C40054   3.426   5.513   4.641 -1.1018  0.5915 -0.0459
  291MOL0     C40055   3.393   5.381   4.668  0.0426 -0.1978  0.7793
  291MOL0     O40056   3.265   5.334   4.668  0.2702  0.0689  0.5981
  291MOL0     C40057   3.170   5.410   4.744  0.0487  0.2218  0.1481
  291MOL0     C40058   3.084   5.322   4.836  0.4080 -0.0030 -0.5153
  291MOL0     C40059   2.980   5.425   4.893  0.9590 -0.5325 -0.1855
  291MOL0     C40060   2.875   5.339   4.973 -0.3468 -1.0864  0.4799
  291MOL0     C40061   2.743   5.399   5.010  0.2995  0.0079 -0.7313
  291MOL0     C40062   2.759   5.530   5.076  0.0487 -0.0981  0.6571
  291MOL0     C40063   2.645   5.561   5.170  0.9072 -0.2626  0.2313
  291MOL0     C40064   2.519   5.586   5.093  0.2395 -0.3120 -1.0876
  291MOL0    Cl40065   2.529   5.694   4.936 -0.3126  0.0580 -0.4743
  291MOL0     C40066   3.489   5.278   4.687 -0.1213 -0.4553 -0.0873
  291MOL0     C40067   3.626   5.314   4.664 -0.2243 -0.3687 -0.5357
  291MOL0     O40068   3.803   5.473   4.398  0.2844 -0.3523 -0.0173
  291MOL0     C40069   4.059   5.522   4.647  0.4146  0.5557  0.3535
  291MOL0     C40070   4.185   5.583   4.662  0.9254 -1.2134 -0.6884
  291MOL0     N40071   4.856   5.761   4.364 -0.0708 -0.5378  0.3368
  291MOL0     N40072   4.847   5.869   4.301 -0.2317 -0.6608  0.0606
  291MOL0     C40073   4.493   6.598   3.234  0.2915 -0.3317 -0.5532
  291MOL0     C40074   4.520   6.670   3.124 -0.7630  0.3207  0.7428
  291MOL0     C40075   4.826   6.821   2.814 -0.4082 -0.1506  1.0754
  291MOL0     C40076   4.721   6.876   2.739  0.3371  0.2419 -0.2504
  291MOL0     C40077   4.740   6.947   2.617 -0.2056  1.3434  0.3190
  291MOL0     C40078   4.869   6.978   2.571 -0.3922 -0.0834 -0.9248
  291MOL0     O40079   4.900   7.047   2.459  0.8152  0.1687  0.1890
  291MOL0     C40080   4.811   7.057   2.344 -0.1832 -0.0537 -0.3144
  291MOL0     C40081   4.829   6.935   2.255 -0.0710  0.6367  0.2535
  291MOL0     C40082   4.786   6.806   2.323 -0.3613 -0.2168  0.7594
  291MOL0     C40083   4.793   6.684   2.220  0.5016  0.3882  0.1161
  291MOL0     C40084   4.928   6.658   2.167  0.0589  0.4365  0.4807
  291MOL0     C40085   5.046   6.643   2.138  0.2191 -0.2705 -0.5534
  291MOL0     C40086   4.972   6.931   2.650  0.6800  0.1242  0.0405
  291MOL0     C40087   4.947   6.853   2.767 -0.6766  0.3163  0.0690
  291MOL0     C40088   5.068   6.802   2.850  0.0706 -0.8009  0.6332
  291MOL0     H40089   4.760   6.467   2.989  1.1457 -0.5729  0.9531
  291MOL0     H40090   4.728   6.350   3.207  0.2846 -0.2115 -1.5764
  291MOL0     H40091   4.687   6.317   3.452  0.9075  0.0224  2.8777
  291MOL0     H40092   4.533   6.241   3.389 -1.0352  0.6220  0.5738
  291MOL0     H40093   4.517   6.413   3.641 -4.6740  1.5658 -1.8827
  291MOL0     H40094   4.409   6.278   3.582 -1.1526  1.3275  2.5713
  291MOL0     H40095   4.548   6.106   3.650 -2.8734  0.5834  1.8373
  291MOL0     H40096   4.692   6.214   3.639  0.3407  2.7374  1.5495
  291MOL0     H40097   4.605   6.318   3.858 -3.3624  1.6221 -2.3623
  291MOL0     H40098   4.455   6.246   3.841  1.0757  1.0892  0.8269
  291MOL0     H40099   4.710   6.135   3.929  0.7664 -2.8233 -2.1566
  291MOL0     H40100   4.599   6.006   3.874  0.1272 -1.7098  0.3148
  291MOL0     H40101   4.536   6.203   4.106 -2.6837  2.7839 -2.4449
  291MOL0     H40102   4.413   6.092   4.038  0.3624 -1.0560 -0.9072
  291MOL0     H40103   4.587   5.892   4.088 -2.4076  0.4322 -0.4422
  291MOL0     H40104   4.461   5.955   4.188 -0.8447  4.7980  0.7025
  291MOL0     H40105   4.750   6.050   4.170 -0.1996 -1.8005 -0.8216
  291MOL0     H40106   4.626   6.070   4.311 -3.2485 -0.0067 -2.0140
  291MOL0     H40107   4.536   5.797   4.344  0.6504  0.6778 -0.2359
  291MOL0     H40108   4.778   5.494   4.459 -0.3799 -0.7071  0.6053
  291MOL0     H40109   4.614   5.535   4.454  1.9088 -0.6333 -3.4205
  291MOL0     H40110   4.690   5.511   4.669  1.4911 -1.0082 -0.2773
  291MOL0     H40111   4.822   5.634   4.634 -0.0528 -2.4416  0.2265
  291MOL0     H40112   4.653   5.718   4.789 -1.0318  0.2569  0.5453
  291MOL0     H40113   4.635   5.805   4.643 -2.8211  0.2400  0.2170
  291MOL0     H40114   4.447   5.580   4.736 -1.7619  0.5267  1.1285
  291MOL0     H40115   4.422   5.749   4.748  0.6435 -1.1192  0.9112
  291MOL0     H40116   4.275   5.619   4.350  1.2751 -3.8676 -0.3226
  291MOL0     H40117   4.039   5.653   4.230 -0.5185 -0.7236 -1.0044
  291MOL0     H40118   3.964   5.482   4.236 -0.0096  0.9542 -4.0299
  291MOL0     H40119   4.123   5.509   4.193 -0.3707  0.5017 -1.4197
  291MOL0     H40120   3.603   5.645   4.612  0.2614 -1.3280  0.1826
  291MOL0     H40121   3.345   5.580   4.616  0.3970  2.5476  0.1380
  291MOL0     H40122   3.228   5.485   4.798  0.4916  0.9447 -1.2876
  291MOL0     H40123   3.110   5.475   4.679 -1.6081 -0.2412  1.1408
  291MOL0     H40124   3.035   5.241   4.783  0.4716  0.4634 -1.3100
  291MOL0     H40125   3.147   5.280   4.915 -1.5085 -2.4491 -0.1703
  291MOL0     H40126   2.933   5.474   4.807 -1.5378  1.1379  1.9789
  291MOL0     H40127   3.024   5.497   4.962 -0.9133 -0.6434  1.1971
  291MOL0     H40128   2.914   5.314   5.072  2.1673  4.1161  1.1543
  291MOL0     H40129   2.858   5.243   4.924  3.9616 -2.1730  0.6876
  291MOL0     H40130   2.688   5.399   4.916 -1.1913 -1.0527  0.0992
  291MOL0     H40131   2.695   5.323   5.071  0.3772  2.0987  2.1278
  291MOL0     H40132   2.770   5.599   4.992  0.2381 -2.5684 -1.4456
  291MOL0     H40133   2.854   5.540   5.130 -0.2260  1.5068  0.9106
  291MOL0     H40134   2.674   5.641   5.239  0.5088 -0.1796  0.3046
  291MOL0     H40135   2.634   5.469   5.229 -1.4684 -0.7427 -0.8452
  291MOL0     H40136   2.449   5.633   5.161 -0.0451 -1.0507 -0.8582
  291MOL0     H40137   2.480   5.485   5.075  2.5600 -1.3495 -0.6789
  291MOL0     H40138   3.456   5.177   4.710 -3.1236  0.3592 -0.3165
  291MOL0     H40139   3.706   5.246   4.691 -1.7512 -2.2920 -0.6407
  291MOL0     H40140   4.000   5.486   4.731 -1.3416 -2.2064 -1.8861
  291MOL0     H40141   4.224   5.594   4.763 -1.4853 -2.8491  0.5199
  291MOL0     H40142   4.406   6.625   3.294  0.6334  1.4738 -0.8045
  291MOL0     H40143   4.458   6.758   3.105 -1.7195 -0.6827 -0.9842
  291MOL0     H40144   4.621   6.848   2.772  0.6954 -0.8203 -0.0554
  291MOL0     H40145   4.649   6.965   2.561 -0.5503  3.6280  1.4997
  291MOL0     H40146   4.705   7.060   2.370 -0.0445 -1.4728  0.5435
  291MOL0     H40147   4.832   7.152   2.294  0.1779 -0.2817 -0.6056
  291MOL0     H40148   4.935   6.930   2.227  0.2918  0.7257  1.5259
  291MOL0     H40149   4.767   6.950   2.167 -0.5768 -2.9477 -0.1291
  291MOL0     H40150   4.852   6.785   2.408 -0.5475 -1.3385  0.6309
  291MOL0     H40151   4.686   6.802   2.368 -0.6346 -0.0114  0.1816
  291MOL0     H40152   4.744   6.711   2.125  2.4483  0.6459 -0.8678
  291MOL0     H40153   4.743   6.598   2.263 -1.1767  1.6754  0.8453
  291MOL0     H40154   5.150   6.643   2.114 -0.1895  1.5175 -2.5955
  291MOL0     H40155   5.075   6.947   2.620  0.5179  2.3286  0.5085
  291MOL0     H40156   5.051   6.697   2.879 -1.3094 -0.9041 -0.4236
  291MOL0     H40157   5.164   6.818   2.801  0.2690 -1.5304  0.7723
  291MOL0     H40158   5.072   6.853   2.947  1.7626  0.5002 -0.0858
  292MOL0     O40159   2.926   0.248  11.388 -0.0070 -0.5222 -0.1892
  292MOL0     C40160   3.023   0.195  11.343 -1.7712 -1.0203 -1.2254
  292MOL0     O40161   3.041   0.059  11.321  1.1806 -0.0675 -0.1152
  292MOL0     C40162   2.923   0.001  11.293 -0.2022 -0.6569 -0.3237
  292MOL0     C40163   2.862   0.006  11.162 -0.1510 -0.3404  0.0226
  292MOL0     C40164   2.740  -0.070  11.145 -0.0909 -0.8830 -0.2294
  292MOL0     C40165   2.672  -0.139  11.242 -1.0998  0.5982  0.4707
  292MOL0     O40166   2.558  -0.202  11.214 -0.3027  0.6485  0.2431
  292MOL0     C40167   2.494  -0.281  11.320  0.2265 -0.2735 -0.1613
  292MOL0     C40168   2.360  -0.348  11.263  0.0339  0.2504  0.6699
  292MOL0     C40169   2.317  -0.455  11.364 -0.8209 -0.3682 -0.4925
  292MOL0     C40170   2.184  -0.524  11.345  0.2324 -0.1295 -0.6066
  292MOL0     C40171   2.065  -0.430  11.362  0.3219 -0.2740 -0.0476
  292MOL0     C40172   2.056  -0.375  11.506  0.5144 -0.4033 -0.7845
  292MOL0     C40173   1.930  -0.297  11.540  0.6223 -0.4616  0.8260
  292MOL0     C40174   1.950  -0.208  11.667  0.0643 -0.3176  0.1725
  292MOL0     N40175   1.840  -0.119  11.694  0.2755  0.0389  0.0372
  292MOL0     C40176   1.721  -0.161  11.756 -0.2747 -0.3704  0.3171
  292MOL0     C40177   1.637  -0.054  11.742  0.3170 -1.1366 -1.4966
  292MOL0     C40178   1.493  -0.056  11.806 -0.2002  1.3213  0.0057
  292MOL0     C40179   1.474   0.027  11.939  0.4237  0.1778  0.4091
  292MOL0     C40180   1.480   0.170  11.904 -1.1167  0.2146  0.5466
  292MOL0     C40181   1.471   0.257  12.031  0.8158  0.8857 -0.4505
  292MOL0     O40182   1.356   0.229  12.113  0.5505  0.0979 -0.7060
  292MOL0     C40183   1.370   0.292  12.233  0.1488 -1.7757  0.3939
  292MOL0     C40184   1.357   0.436  12.254 -0.2303  0.6800 -0.5683
  292MOL0     C40185   1.355   0.479  12.394  0.6421 -0.9306 -0.1962
  292MOL0     C40186   1.359   0.636  12.417 -0.2053  0.5076 -0.1868
  292MOL0     C40187   1.376   0.388  12.506  0.1759 -0.0015 -0.3641
  292MOL0     C40188   1.411   0.418  12.647 -0.1968  0.3001  0.2138
  292MOL0     O40189   1.364   0.338  12.747 -0.2036  0.2165 -0.4477
  292MOL0     C40190   1.425   0.297  12.870  0.4225 -0.2916  0.1727
  292MOL0     C40191   1.544   0.343  12.918 -0.4598  0.5286  0.2839
  292MOL0     C40192   1.598   0.299  13.044  0.2905  0.2646 -0.4343
  292MOL0     C40193   1.525   0.207  13.114 -0.0884  0.0327 -1.1671
  292MOL0     O40194   1.566   0.157  13.242  0.4714 -0.4174  0.2262
  292MOL0     C40195   1.481   0.097  13.338 -0.1789 -0.4051  1.2393
  292MOL0     C40196   1.528  -0.052  13.337  0.1179 -0.3852 -0.7370
  292MOL0     C40197   1.469  -0.120  13.470 -0.2313 -0.7550  1.0216
  292MOL0     C40198   1.558  -0.231  13.509  0.2154  0.2636  0.5584
  292MOL0     C40199   1.513  -0.306  13.635 -0.2777 -0.4317 -0.4362
  292MOL0     C40200   1.634  -0.376  13.697  0.6214  0.4212 -0.1105
  292MOL0     C40201   1.610  -0.461  13.822  0.0054  0.3470  0.9219
  292MOL0     C40202   1.738  -0.523  13.865  0.1493 -0.7067  0.1598
  292MOL0    Cl40203   1.777  -0.662  13.762  0.3040 -0.1525  0.0973
  292MOL0     C40204   1.401   0.163  13.065 -0.3315 -0.7422  0.7397
  292MOL0     C40205   1.352   0.197  12.939 -0.4282 -0.6332 -0.3965
  292MOL0     O40206   1.470   0.519  12.665 -0.1285 -0.2336  0.0786
  292MOL0     C40207   1.390   0.251  12.471  0.6162  0.5701  0.5445
  292MOL0     C40208   1.385   0.205  12.339  0.2876  0.0984  0.7601
  292MOL0     N40209   1.699   0.047  11.670  0.6834 -0.4136 -0.0384
  292MOL0     N40210   1.822   0.009  11.643 -0.2515 -0.5683  0.3773
  292MOL0     C40211   2.743  -0.148  11.367  0.5329  0.4720 -0.7798
  292MOL0     C40212   2.862  -0.071  11.383  0.1898 -0.0532 -0.8728
  292MOL0     C40213   3.146   0.271  11.337  0.5334  0.2452 -0.9331
  292MOL0     C40214   3.254   0.222  11.402 -0.0719  0.4569  0.5217
  292MOL0     C40215   3.385   0.265  11.369  0.6048 -0.2461  0.3755
  292MOL0     C40216   3.389   0.380  11.284  0.1044  0.7901 -1.0966
  292MOL0     O40217   3.509   0.443  11.245  0.4145 -0.4278  0.3412
  292MOL0     C40218   3.623   0.434  11.337  0.1951  0.7199  0.7488
  292MOL0     C40219   3.753   0.489  11.285 -0.4933  0.4991 -0.2941
  292MOL0     C40220   3.739   0.644  11.251 -0.6356 -0.2829 -0.7977
  292MOL0     C40221   3.864   0.682  11.179 -0.1881  0.2325 -0.1067
  292MOL0     C40222   3.990   0.626  11.226 -0.3512  0.5029 -0.1167
  292MOL0     C40223   4.096   0.579  11.262  0.5721  1.0715  0.2545
  292MOL0     C40224   3.273   0.439  11.228 -0.3438 -0.8141 -0.5594
  292MOL0     C40225   3.150   0.380  11.250 -0.2912  0.1506  0.5815
  292MOL0     C40226   3.026   0.452  11.199 -0.1826 -0.4967 -0.2064
  292MOL0     H40227   2.909   0.081  11.100  0.6983  1.6987  2.9376
  292MOL0     H40228   2.703  -0.073  11.043  0.0029 -0.1064 -0.2948
  292MOL0     H40229   2.462  -0.210  11.397 -2.6569  0.0527 -1.5555
  292MOL0     H40230   2.570  -0.355  11.350 -0.5587 -1.4717 -1.0263
  292MOL0     H40231   2.286  -0.272  11.237  0.0554 -0.0967 -0.4295
  292MOL0     H40232   2.367  -0.395  11.165  1.9316  0.9370  0.4359
  292MOL0     H40233   2.393  -0.530  11.340  0.9135  1.5555 -1.3761
  292MOL0     H40234   2.335  -0.411  11.463 -4.4046  2.4920 -0.9115
  292MOL0     H40235   2.184  -0.576  11.248 -1.1431 -0.7430 -0.2977
  292MOL0     H40236   2.173  -0.599  11.423 -0.2602  0.3038 -0.2574
  292MOL0     H40237   1.973  -0.476  11.326  0.0218  1.6458 -1.9472
  292MOL0     H40238   2.079  -0.339  11.302  1.0563  0.4983  1.2439
  292MOL0     H40239   2.065  -0.453  11.582 -3.9759 -0.1644  0.2648
  292MOL0     H40240   2.134  -0.301  11.520 -0.1954 -0.0595  1.7179
  292MOL0     H40241   1.843  -0.358  11.566 -1.2029 -0.2481 -3.9044
  292MOL0     H40242   1.916  -0.235  11.451  5.1322 -0.9264 -0.4609
  292MOL0     H40243   1.969  -0.279  11.748  3.1915 -0.5017 -0.5864
  292MOL0     H40244   2.041  -0.148  11.661  1.0996 -1.8838 -0.7834
  292MOL0     H40245   1.693  -0.258  11.794 -0.0645 -2.0331 -3.3048
  292MOL0     H40246   1.459  -0.157  11.831 -2.9777  1.3551 -3.0485
  292MOL0     H40247   1.422  -0.038  11.725 -1.1229 -4.3592 -0.8880
  292MOL0     H40248   1.374   0.000  11.973  0.1453  2.0783  1.2128
  292MOL0     H40249   1.549   0.007  12.017 -0.7504  2.2682  2.2066
  292MOL0     H40250   1.578   0.199  11.864  0.9866 -1.7887  3.7725
  292MOL0     H40251   1.400   0.194  11.833 -1.9647  4.4853  2.6341
  292MOL0     H40252   1.568   0.263  12.081  0.2149 -0.9421  1.0387
  292MOL0     H40253   1.460   0.360  11.995  1.3000  0.6568 -1.2672
  292MOL0     H40254   1.345   0.515  12.180 -0.5996  2.5398  1.3601
  292MOL0     H40255   1.287   0.667  12.493 -2.2418  0.1909 -1.8868
  292MOL0     H40256   1.328   0.685  12.324 -1.8425  1.4636  0.8011
  292MOL0     H40257   1.460   0.662  12.449  0.1211 -3.2091  2.4742
  292MOL0     H40258   1.594   0.405  12.845 -0.0657 -1.8707 -1.5993
  292MOL0     H40259   1.684   0.338  13.097 -0.0777  1.7027 -0.8726
  292MOL0     H40260   1.521   0.129  13.435 -1.9098 -1.7606  2.4481
  292MOL0     H40261   1.373   0.109  13.331  0.1603  3.1768  0.1691
  292MOL0     H40262   1.505  -0.112  13.248 -1.9134 -0.0899 -0.4636
  292MOL0     H40263   1.637  -0.046  13.344  0.0407  0.3651 -0.0651
  292MOL0     H40264   1.375  -0.171  13.443  0.5710 -1.3098 -0.9344
  292MOL0     H40265   1.457  -0.052  13.555 -1.5448 -4.7552  4.3779
  292MOL0     H40266   1.649  -0.181  13.544  1.5695 -2.4458  1.2172
  292MOL0     H40267   1.572  -0.290  13.419  1.1866  2.6940 -0.9683
  292MOL0     H40268   1.468  -0.241  13.711 -0.0168  0.6771 -1.2098
  292MOL0     H40269   1.432  -0.377  13.615 -0.2665 -1.0474  1.4940
  292MOL0     H40270   1.713  -0.306  13.726  1.6499 -1.2397  1.3483
  292MOL0     H40271   1.683  -0.446  13.628  0.1656 -1.9378  1.8165
  292MOL0     H40272   1.529  -0.528  13.792  0.0090  0.2756  1.0664
  292MOL0     H40273   1.569  -0.412  13.911 -0.7408 -2.5175  2.2870
  292MOL0     H40274   1.729  -0.546  13.972 -2.2011  0.0813  0.1877
  292MOL0     H40275   1.807  -0.439  13.866  1.1991 -1.5491  1.4692
  292MOL0     H40276   1.336   0.088  13.109 -1.4553 -1.1839 -1.5123
  292MOL0     H40277   1.259   0.167  12.893 -2.4887  3.9835  0.2262
  292MOL0     H40278   1.416   0.175  12.544  3.9238  1.1305  0.1096
  292MOL0     H40279   1.380   0.098  12.319 -2.3162  0.2872  0.0714
  292MOL0     H40280   2.690  -0.195  11.449 -0.9960  2.3316 -0.6314
  292MOL0     H40281   2.915  -0.085  11.477 -2.3682  3.9890  1.4853
  292MOL0     H40282   3.260   0.140  11.473  2.4002  1.6614  1.8282
  292MOL0     H40283   3.472   0.217  11.413  0.1366 -0.3511  1.2181
  292MOL0     H40284   3.583   0.499  11.416 -1.3951  1.2873 -0.4847
  292MOL0     H40285   3.654   0.338  11.379  4.9657  1.7083  0.0737
  292MOL0     H40286   3.781   0.422  11.204  1.8962 -0.2092  1.0261
  292MOL0     H40287   3.826   0.480  11.366 -1.5154 -2.4589  0.4486
  292MOL0     H40288   3.651   0.661  11.189 -1.3842  2.5962  0.8503
  292MOL0     H40289   3.740   0.700  11.346 -0.1681 -1.2901 -0.1893
  292MOL0     H40290   3.872   0.791  11.185  0.6464  0.2198 -0.6982
  292MOL0     H40291   3.858   0.659  11.072 -1.1035 -1.1677  0.2284
  292MOL0     H40292   4.178   0.516  11.292 -1.0350 -1.5765 -0.5542
  292MOL0     H40293   3.296   0.525  11.165 -1.5583  2.7836  3.4731
  292MOL0     H40294   2.924   0.413  11.206 -1.9435  3.4985 -0.5699
  292MOL0     H40295   3.031   0.559  11.222 -0.1640 -0.7152  0.8401
  292MOL0     H40296   3.045   0.476  11.094 -0.0964 -0.7661 -0.2519
  293MOL0     O40297  10.749   4.890   9.320 -0.5463  0.2430  0.6106
  293MOL0     C40298  10.718   4.912   9.435 -0.4782  0.4778  0.5815
  293MOL0     O40299  10.717   4.820   9.536  0.3981 -0.0783  0.1487
  293MOL0     C40300  10.711   4.684   9.509 -0.2671 -0.7239 -0.4464
  293MOL0     C40301  10.818   4.620   9.448  0.1422 -0.5601  0.0141
  293MOL0     C40302  10.822   4.485   9.438 -0.3522  0.1925  1.1540
  293MOL0     C40303  10.712   4.399   9.477  0.2119  0.3883 -0.5714
  293MOL0     O40304  10.741   4.266   9.468 -0.4980  0.6308 -0.4397
  293MOL0     C40305  10.647   4.181   9.533  0.4822  0.8783 -0.4275
  293MOL0     C40306  10.703   4.037   9.527  0.2660 -0.1416  1.1925
  293MOL0     C40307  10.700   3.985   9.382 -0.2661  0.6118 -0.6694
  293MOL0     C40308  10.634   3.846   9.371 -0.0484 -0.1658 -0.7428
  293MOL0     C40309  10.649   3.790   9.235 -0.0174  1.1968  0.4731
  293MOL0     C40310  10.556   3.665   9.208  0.0886 -0.4388 -0.2535
  293MOL0     C40311  10.574   3.616   9.054  1.4484  0.5799 -0.6230
  293MOL0     C40312  10.489   3.494   9.009 -0.8425 -0.1934 -0.5358
  293MOL0     N40313  10.475   3.394   9.120  0.3342 -1.0632  0.1459
  293MOL0     C40314  10.357   3.371   9.183 -0.8530 -0.6604  0.4291
  293MOL0     C40315  10.382   3.273   9.270  0.4931  0.1465  0.4503
  293MOL0     C40316  10.309   3.181   9.368  0.0894 -0.0565  0.3265
  293MOL0     C40317  10.185   3.136   9.289 -0.0643 -0.0725  0.4969
  293MOL0     C40318  10.087   3.048   9.367  0.0757  0.1348 -0.1729
  293MOL0     C40319   9.975   3.002   9.275 -0.0316 -0.3796  0.3851
  293MOL0     O40320   9.902   3.123   9.232 -0.0006  1.3766 -0.0985
  293MOL0     C40321   9.777   3.113   9.176 -0.4904  0.1641  0.0813
  293MOL0     C40322   9.710   2.991   9.132  1.8052 -0.2639 -0.5912
  293MOL0     C40323   9.583   3.001   9.068  0.4708  0.8863 -1.1109
  293MOL0     C40324   9.530   2.887   8.986  0.8395 -0.1163  0.0115
  293MOL0     C40325   9.509   3.125   9.071  0.4045 -0.2355  0.3582
  293MOL0     C40326   9.371   3.146   9.007 -0.1093  0.2295 -1.5082
  293MOL0     O40327   9.349   3.246   8.921 -0.2704 -0.3130 -0.1998
  293MOL0     C40328   9.235   3.251   8.841  1.2933  0.6990 -1.2503
  293MOL0     C40329   9.186   3.383   8.824  0.4250  0.4366 -0.9057
  293MOL0     C40330   9.073   3.409   8.739  0.7601 -0.0752  0.3682
  293MOL0     C40331   9.009   3.307   8.666  0.0796 -0.1160  0.1064
  293MOL0     O40332   8.903   3.333   8.584 -0.6371 -0.4930  0.3946
  293MOL0     C40333   8.804   3.436   8.599  0.1250  0.1879  0.7607
  293MOL0     C40334   8.794   3.515   8.461 -0.3980 -0.0062  0.2618
  293MOL0     C40335   8.910   3.606   8.432 -1.0184 -0.3652 -0.4837
  293MOL0     C40336   8.887   3.659   8.290 -0.1131 -0.4514  0.0343
  293MOL0     C40337   9.013   3.730   8.243  0.3462 -0.7744 -0.7253
  293MOL0     C40338   8.981   3.813   8.108  0.9591 -0.2215  0.2653
  293MOL0     C40339   8.998   3.721   7.988  0.4623 -0.4803 -0.0244
  293MOL0     C40340   8.901   3.749   7.881  0.3263 -0.2046  0.3495
  293MOL0    Cl40341   8.949   3.869   7.765  0.3077  0.1226  0.3329
  293MOL0     C40342   9.051   3.174   8.692  0.9079 -1.7632  0.2837
  293MOL0     C40343   9.162   3.152   8.779 -0.9378 -0.7296 -0.5748
  293MOL0     O40344   9.285   3.062   9.043 -0.0110  0.3056 -0.4627
  293MOL0     C40345   9.566   3.235   9.135  1.0863  0.6050 -0.2085
  293MOL0     C40346   9.698   3.229   9.191  0.1870 -0.6116  0.0069
  293MOL0     N40347  10.514   3.259   9.279 -0.6927 -0.6958 -0.4714
  293MOL0     N40348  10.571   3.343   9.199 -0.2778 -0.4571  0.2042
  293MOL0     C40349  10.593   4.467   9.534 -0.6440 -0.1529 -0.1266
  293MOL0     C40350  10.602   4.606   9.545 -0.3545 -0.6080 -0.4999
  293MOL0     C40351  10.693   5.050   9.478 -0.3085 -0.4036 -0.4028
  293MOL0     C40352  10.807   5.123   9.502  0.4942 -1.0264 -0.0113
  293MOL0     C40353  10.794   5.256   9.544 -0.3656 -1.6523  0.1561
  293MOL0     C40354  10.667   5.310   9.581 -0.9892 -1.0338 -1.0447
  293MOL0     O40355  10.652   5.432   9.634  0.4468 -0.3660 -0.2105
  293MOL0     C40356  10.751   5.533   9.662  0.2662  0.6409 -0.5325
  293MOL0     C40357  10.812   5.600   9.537  0.2495 -0.1366 -0.1079
  293MOL0     C40358  10.694   5.673   9.468 -0.3132 -0.3956  0.5491
  293MOL0     C40359  10.750   5.772   9.364  0.0656  0.8431  0.2703
  293MOL0     C40360  10.650   5.876   9.331  0.4847 -0.2040 -0.3539
  293MOL0     C40361  10.561   5.952   9.303 -0.2367 -0.5284 -0.8348
  293MOL0     C40362  10.561   5.233   9.563  0.7186  0.4399  0.1526
  293MOL0     C40363  10.571   5.103   9.515 -0.0551  0.8340  0.3958
  293MOL0     C40364  10.449   5.019   9.480 -0.4887 -0.3753 -0.4040
  293MOL0     H40365  10.903   4.682   9.419  2.1289 -3.7074 -1.3663
  293MOL0     H40366  10.917   4.443   9.407 -1.6590 -1.6101 -0.6959
  293MOL0     H40367  10.548   4.180   9.487 -0.2859 -0.2594  1.1410
  293MOL0     H40368  10.635   4.204   9.640 -0.5638 -1.6541  0.0729
  293MOL0     H40369  10.808   4.039   9.559  1.0490  2.4369 -1.0869
  293MOL0     H40370  10.646   3.971   9.592 -2.6598 -0.8512 -1.8254
  293MOL0     H40371  10.641   4.048   9.315 -1.8698 -1.8508 -1.7560
  293MOL0     H40372  10.800   3.982   9.338 -1.2396 -2.2206 -3.0450
  293MOL0     H40373  10.681   3.773   9.438  2.8635  0.3057 -2.0973
  293MOL0     H40374  10.527   3.852   9.389  0.2269 -1.0691  1.6662
  293MOL0     H40375  10.749   3.752   9.214 -0.5657  0.5363 -1.0483
  293MOL0     H40376  10.631   3.868   9.161 -1.8302  0.9640  0.6137
  293MOL0     H40377  10.560   3.584   9.282 -0.8273 -1.6388 -1.4782
  293MOL0     H40378  10.457   3.709   9.217  0.4897  0.2240  1.3718
  293MOL0     H40379  10.679   3.593   9.037  2.1449  0.7856  2.7526
  293MOL0     H40380  10.556   3.691   8.976  2.8412  0.8020 -0.7459
  293MOL0     H40381  10.388   3.520   8.975 -1.0766  0.6773  0.7569
  293MOL0     H40382  10.551   3.453   8.929  1.7085  1.5961  0.3841
  293MOL0     H40383  10.268   3.427   9.156  0.9883  2.3813  0.2201
  293MOL0     H40384  10.289   3.238   9.459 -1.6501  1.2594 -0.8049
  293MOL0     H40385  10.382   3.104   9.395  1.8731  1.9757  1.5892
  293MOL0     H40386  10.133   3.229   9.263 -1.4912 -0.9332  0.1914
  293MOL0     H40387  10.221   3.081   9.202 -0.7152  0.1994  0.0509
  293MOL0     H40388  10.135   2.954   9.398  0.4639  1.4495  3.7064
  293MOL0     H40389  10.050   3.098   9.456  0.2408 -1.5052  0.8548
  293MOL0     H40390  10.012   2.950   9.185 -2.1428  0.0309 -0.7874
  293MOL0     H40391   9.908   2.937   9.332  1.1561 -1.8039  0.2383
  293MOL0     H40392   9.758   2.894   9.144 -2.1808 -2.2782  0.8004
  293MOL0     H40393   9.465   2.826   9.048  2.5822 -0.0805  1.9598
  293MOL0     H40394   9.615   2.838   8.937  0.0244 -1.2513 -0.3109
  293MOL0     H40395   9.467   2.925   8.904  2.6813  1.8567 -0.5791
  293MOL0     H40396   9.239   3.460   8.878 -0.5062 -1.7603  3.6605
  293MOL0     H40397   9.037   3.509   8.717  0.5561 -0.2249  0.0150
  293MOL0     H40398   8.713   3.387   8.635  0.6381 -0.0141  1.8370
  293MOL0     H40399   8.844   3.501   8.678  0.5246 -0.6888  1.2929
  293MOL0     H40400   8.797   3.438   8.383 -1.3332  0.6982 -0.5018
  293MOL0     H40401   8.701   3.572   8.448 -0.2551 -0.1761 -1.9121
  293MOL0     H40402   8.999   3.543   8.434 -0.2908  0.5405 -2.1961
  293MOL0     H40403   8.928   3.674   8.516 -2.6140  0.4393 -0.7625
  293MOL0     H40404   8.799   3.724   8.293  0.5575  0.4510  0.5211
  293MOL0     H40405   8.875   3.578   8.217  0.7835 -0.3255 -0.2679
  293MOL0     H40406   9.049   3.801   8.318 -2.0485 -0.3848  0.1581
  293MOL0     H40407   9.093   3.660   8.220  0.5343 -0.5612 -0.7217
  293MOL0     H40408   9.055   3.891   8.091  0.8046 -0.5002 -1.9105
  293MOL0     H40409   8.881   3.857   8.114  0.2383 -0.9958 -3.5571
  293MOL0     H40410   8.982   3.620   8.027 -2.5787  1.4842  4.7972
  293MOL0     H40411   9.102   3.726   7.954 -0.0545 -0.2145 -1.6522
  293MOL0     H40412   8.812   3.800   7.920  0.4557  0.9117 -0.7358
  293MOL0     H40413   8.865   3.660   7.828 -1.5468  0.8637 -0.2765
  293MOL0     H40414   8.999   3.089   8.648 -2.0425 -0.0778  0.2684
  293MOL0     H40415   9.197   3.050   8.796  0.0739 -0.3278 -0.1764
  293MOL0     H40416   9.522   3.334   9.139  0.0734  0.1361  1.6695
  293MOL0     H40417   9.739   3.307   9.253 -1.9727 -0.9165  1.9362
  293MOL0     H40418  10.505   4.410   9.561  0.0955 -1.7985 -1.0251
  293MOL0     H40419  10.526   4.675   9.581  0.9905 -0.1434  1.6436
  293MOL0     H40420  10.895   5.068   9.472  1.4544  0.8498 -0.7382
  293MOL0     H40421  10.878   5.324   9.542 -2.8684  1.7008  0.3202
  293MOL0     H40422  10.707   5.599   9.737 -1.3273  0.1316 -0.9616
  293MOL0     H40423  10.838   5.483   9.706  1.0953  1.4499 -1.2142
  293MOL0     H40424  10.861   5.536   9.463  2.2137  1.1428  0.0071
  293MOL0     H40425  10.887   5.671   9.571  0.0708  0.9568 -1.8769
  293MOL0     H40426  10.623   5.603   9.424  1.3338 -1.1814 -0.9699
  293MOL0     H40427  10.642   5.736   9.541 -2.0640  0.3332 -1.2522
  293MOL0     H40428  10.775   5.713   9.276 -0.9483 -1.6840  1.5995
  293MOL0     H40429  10.834   5.835   9.396  0.0758  2.3305 -2.4656
  293MOL0     H40430  10.492   6.028   9.274  1.6805  1.3708 -0.6632
  293MOL0     H40431  10.462   5.267   9.591  0.0094 -2.2832  1.3269
  293MOL0     H40432  10.437   5.021   9.371  0.5271  1.8398 -0.5318
  293MOL0     H40433  10.451   4.918   9.522  1.6723  0.2140  1.0836
  293MOL0     H40434  10.356   5.066   9.513 -0.4366 -1.6491  1.7210
  294MOL0     O40435   8.509   8.194   7.466 -0.2119  1.0656 -0.3384
  294MOL0     C40436   8.409   8.160   7.396 -0.4240  0.7188 -0.6558
  294MOL0     O40437   8.389   8.182   7.265 -0.9426  0.2029  0.8902
  294MOL0     C40438   8.489   8.261   7.211  0.3889 -0.4867  1.1876
  294MOL0     C40439   8.588   8.198   7.130  0.7308  0.3474 -0.0651
  294MOL0     C40440   8.687   8.281   7.065  0.4401  0.3925 -0.2679
  294MOL0     C40441   8.706   8.412   7.104 -0.3517 -0.3111 -0.4565
  294MOL0     O40442   8.832   8.470   7.063  0.9537 -0.3406  0.4657
  294MOL0     C40443   8.908   8.550   7.151  0.6646  0.0542  0.5631
  294MOL0     C40444   9.049   8.516   7.123 -0.8618 -0.0225  0.8300
  294MOL0     C40445   9.148   8.549   7.239  1.1177  0.7991  0.7724
  294MOL0     C40446   9.112   8.493   7.384  0.4365 -0.3575 -0.7032
  294MOL0     C40447   9.227   8.522   7.481 -0.2744 -0.9506  0.4308
  294MOL0     C40448   9.175   8.534   7.623 -0.5964 -0.1215  0.3577
  294MOL0     C40449   9.276   8.483   7.726 -0.0482 -0.6291  0.2190
  294MOL0     C40450   9.212   8.469   7.866  0.2573  0.8634 -0.3665
  294MOL0     N40451   9.161   8.596   7.917 -0.5007  0.4728 -0.0093
  294MOL0     C40452   9.032   8.608   7.971 -0.6044 -0.5151 -0.2488
  294MOL0     C40453   9.036   8.728   8.039 -0.3126 -0.1190  0.1546
  294MOL0     C40454   8.941   8.805   8.128 -0.2389 -0.0227 -0.1877
  294MOL0     C40455   8.849   8.715   8.214  0.0441 -0.4391  0.9376
  294MOL0     C40456   8.754   8.630   8.135 -0.0045 -0.2827  1.4652
  294MOL0     C40457   8.651   8.581   8.230 -0.2222  0.2231  0.5909
  294MOL0     O40458   8.550   8.500   8.151 -0.0135  0.1741 -0.4458
  294MOL0     C40459   8.431   8.465   8.215  0.7410  0.5482  0.7454
  294MOL0     C40460   8.321   8.450   8.133 -0.3175  0.9723  0.4964
  294MOL0     C40461   8.194   8.426   8.172  0.2947  0.1152 -0.9228
  294MOL0     C40462   8.093   8.403   8.065  0.6702 -0.1936  0.9020
  294MOL0     C40463   8.175   8.426   8.312 -0.3256 -0.3387 -0.4065
  294MOL0     C40464   8.046   8.380   8.373  0.5269 -0.1897 -0.5081
  294MOL0     O40465   8.049   8.373   8.511 -1.1346  0.1789  0.2984
  294MOL0     C40466   7.953   8.330   8.594  0.3959  0.6165 -0.1930
  294MOL0     C40467   7.988   8.356   8.731 -0.5777  0.2109  0.5324
  294MOL0     C40468   7.913   8.311   8.832 -0.5545  0.1447  0.5703
  294MOL0     C40469   7.792   8.250   8.805  0.1896  0.3371  0.5209
  294MOL0     O40470   7.701   8.242   8.905 -0.7483 -0.3340  0.4283
  294MOL0     C40471   7.582   8.155   8.885  0.1107 -0.3175  0.1085
  294MOL0     C40472   7.521   8.126   9.024 -0.4152 -0.5348  0.5566
  294MOL0     C40473   7.375   8.075   9.023 -0.0365  0.0898  0.5291
  294MOL0     C40474   7.380   7.926   9.053  0.2877 -0.8972 -0.4297
  294MOL0     C40475   7.435   7.836   8.943 -0.7878  0.0642  0.4719
  294MOL0     C40476   7.409   7.685   8.968 -0.0420 -0.8347 -0.0658
  294MOL0     C40477   7.479   7.614   8.857  0.6771  0.8559  0.0583
  294MOL0     C40478   7.479   7.460   8.884  0.1507 -0.1683 -0.1771
  294MOL0    Cl40479   7.537   7.433   9.050  0.1209 -0.1589  0.8112
  294MOL0     C40480   7.756   8.211   8.675 -0.6093 -0.2296  0.6669
  294MOL0     C40481   7.828   8.260   8.569 -0.4642 -0.3416 -0.7683
  294MOL0     O40482   7.946   8.362   8.309  0.2420 -0.2911  0.7022
  294MOL0     C40483   8.280   8.456   8.403 -0.2367  0.7587  1.1656
  294MOL0     C40484   8.409   8.459   8.351 -0.2935  0.0609 -0.4665
  294MOL0     N40485   9.169   8.778   8.028  0.6267 -0.0074 -0.0033
  294MOL0     N40486   9.239   8.692   7.957  0.4211 -0.3526  0.0778
  294MOL0     C40487   8.599   8.476   7.177  0.1446 -0.7578 -0.3440
  294MOL0     C40488   8.501   8.402   7.231  0.8452 -0.0238  0.1706
  294MOL0     C40489   8.309   8.076   7.458  0.6042  0.0744 -0.4635
  294MOL0     C40490   8.252   7.970   7.390 -0.2986 -0.5353  0.8077
  294MOL0     C40491   8.169   7.874   7.451 -0.2238  0.3246 -0.6725
  294MOL0     C40492   8.127   7.896   7.589  0.1233 -0.8229  0.1165
  294MOL0     O40493   8.068   7.786   7.656 -0.2249  0.0215 -1.0281
  294MOL0     C40494   7.943   7.824   7.714 -0.1895  1.5017 -0.4304
  294MOL0     C40495   7.848   7.696   7.721 -0.0892  0.6613  0.0231
  294MOL0     C40496   7.702   7.750   7.700 -0.6644  0.0773 -0.5563
  294MOL0     C40497   7.609   7.633   7.688 -0.0646 -1.0499 -0.1040
  294MOL0     C40498   7.593   7.580   7.549 -0.9806 -0.5256 -0.1531
  294MOL0     C40499   7.588   7.510   7.449 -0.3302  0.3331  0.3136
  294MOL0     C40500   8.181   8.004   7.649 -0.4630  0.7455  0.0319
  294MOL0     C40501   8.270   8.095   7.596  1.0228 -0.6273  0.4101
  294MOL0     C40502   8.295   8.227   7.664  0.3481 -0.0965 -1.0183
  294MOL0     H40503   8.584   8.090   7.132 -2.1700  0.3528  2.4881
  294MOL0     H40504   8.765   8.230   7.009 -1.1808 -2.8683  0.2277
  294MOL0     H40505   8.870   8.514   7.247 -2.1031  5.2521  1.7687
  294MOL0     H40506   8.887   8.656   7.136 -2.6168 -0.4866  0.4821
  294MOL0     H40507   9.043   8.409   7.102 -1.7135 -0.0145  0.9982
  294MOL0     H40508   9.077   8.560   7.027 -1.8249 -0.9618  0.0989
  294MOL0     H40509   9.237   8.490   7.218  0.8477  1.4619 -2.8097
  294MOL0     H40510   9.176   8.654   7.249 -0.0524  1.1681  0.3908
  294MOL0     H40511   9.032   8.549   7.435  2.0075 -0.5417  2.1715
  294MOL0     H40512   9.087   8.387   7.380 -0.0132 -0.3216  0.5591
  294MOL0     H40513   9.284   8.608   7.447 -1.5612 -0.3993 -0.4148
  294MOL0     H40514   9.307   8.449   7.465  1.8027  1.9112 -4.1944
  294MOL0     H40515   9.145   8.635   7.650 -1.1169 -0.0232 -0.5635
  294MOL0     H40516   9.085   8.474   7.637 -0.0658 -1.0120  0.0870
  294MOL0     H40517   9.347   8.565   7.743  0.3702 -0.7486 -0.8461
  294MOL0     H40518   9.317   8.386   7.697 -0.8720 -0.1078 -3.1385
  294MOL0     H40519   9.133   8.397   7.842  0.1804  1.1589 -1.0464
  294MOL0     H40520   9.286   8.428   7.934 -1.0788 -2.3917 -0.6921
  294MOL0     H40521   8.947   8.544   7.947 -0.1734 -0.6593 -1.4399
  294MOL0     H40522   8.880   8.853   8.052  0.4821 -0.1092 -0.8320
  294MOL0     H40523   8.982   8.884   8.192 -0.4598  0.5999 -0.8097
  294MOL0     H40524   8.912   8.655   8.281  0.6628 -0.4610  0.3429
  294MOL0     H40525   8.791   8.793   8.265  2.1328  1.4023  0.6794
  294MOL0     H40526   8.717   8.684   8.048  1.1869  1.1405  1.8010
  294MOL0     H40527   8.816   8.550   8.093  0.8983  1.6230 -1.0117
  294MOL0     H40528   8.700   8.525   8.311  0.9473  0.6845  0.2159
  294MOL0     H40529   8.601   8.672   8.266 -3.5925 -1.0089 -0.5934
  294MOL0     H40530   8.345   8.447   8.027 -1.0668  0.2251  0.3442
  294MOL0     H40531   8.008   8.472   8.073  1.4309  0.7426  1.0358
  294MOL0     H40532   8.064   8.297   8.061  2.3560 -0.6697 -0.2629
  294MOL0     H40533   8.140   8.434   7.971  2.0605  1.5715  2.1263
  294MOL0     H40534   8.078   8.409   8.760 -0.5596 -0.1109  1.0793
  294MOL0     H40535   7.941   8.353   8.928  0.2286  0.5983  0.1585
  294MOL0     H40536   7.510   8.210   8.822 -1.8863 -2.4285  0.4099
  294MOL0     H40537   7.611   8.067   8.828  0.4916  0.0285 -0.2391
  294MOL0     H40538   7.591   8.061   9.077  1.3624 -0.2428 -1.2987
  294MOL0     H40539   7.520   8.226   9.070 -1.2098 -0.0496 -0.4801
  294MOL0     H40540   7.318   8.084   8.931  1.0251 -0.8422 -0.2468
  294MOL0     H40541   7.323   8.135   9.098 -0.0083 -0.9192  1.3834
  294MOL0     H40542   7.274   7.905   9.064  0.2518 -0.0366  0.9486
  294MOL0     H40543   7.412   7.901   9.154 -1.1811  0.1196  0.3121
  294MOL0     H40544   7.396   7.873   8.849 -0.5131 -2.3955 -0.7062
  294MOL0     H40545   7.544   7.839   8.951 -0.6029 -3.4017  1.1407
  294MOL0     H40546   7.304   7.654   8.961  0.0397 -0.9129 -1.1769
  294MOL0     H40547   7.438   7.668   9.072 -4.9322  2.2401  2.2289
  294MOL0     H40548   7.579   7.658   8.851  0.1367  1.9417 -1.9562
  294MOL0     H40549   7.426   7.636   8.764 -0.3451  2.5985  1.0147
  294MOL0     H40550   7.539   7.414   8.806 -1.6842  1.9008 -2.9970
  294MOL0     H40551   7.376   7.423   8.883 -0.5251  1.5801  0.6026
  294MOL0     H40552   7.668   8.156   8.644 -1.6540  1.2577  0.8651
  294MOL0     H40553   7.789   8.241   8.470 -2.5329 -1.9385  0.2525
  294MOL0     H40554   8.256   8.465   8.509 -3.2466 -0.4788  0.7000
  294MOL0     H40555   8.491   8.474   8.420 -0.9981 -0.2759  0.4621
  294MOL0     H40556   8.615   8.580   7.203 -1.3730 -0.7632  0.7430
  294MOL0     H40557   8.420   8.439   7.293  1.5470 -1.1054  1.7887
  294MOL0     H40558   8.270   7.949   7.286 -0.6752 -0.0265  0.6344
  294MOL0     H40559   8.131   7.781   7.409  0.4625 -1.8661  3.1280
  294MOL0     H40560   7.966   7.867   7.812  3.1920  0.3912 -0.6043
  294MOL0     H40561   7.893   7.904   7.660 -0.3595  1.8751  0.2665
  294MOL0     H40562   7.853   7.636   7.812 -1.6569  0.0939 -0.2431
  294MOL0     H40563   7.865   7.613   7.652  1.4485 -1.9406  3.2451
  294MOL0     H40564   7.672   7.800   7.792 -1.2168 -1.3756  0.0681
  294MOL0     H40565   7.690   7.820   7.616  2.3565  1.2628 -0.1400
  294MOL0     H40566   7.512   7.665   7.726  0.7764  1.4601  0.1182
  294MOL0     H40567   7.639   7.558   7.762 -1.4131 -0.1678  1.3984
  294MOL0     H40568   7.576   7.478   7.348 -4.0058  1.1979  0.3073
  294MOL0     H40569   8.169   8.018   7.756  2.0469  1.2450  0.3173
  294MOL0     H40570   8.312   8.322   7.612 -1.6619  2.5101  2.5845
  294MOL0     H40571   8.211   8.245   7.732 -1.7105 -3.4784 -2.4000
  294MOL0     H40572   8.388   8.210   7.718  0.1267  0.1095 -0.5599
  295MOL0     O40573   1.776   0.530   2.347  0.3347  0.6656 -1.0279
  295MOL0     C40574   1.713   0.599   2.426  0.1649 -0.3880 -0.9487
  295MOL0     O40575   1.676   0.731   2.411  0.2060  0.5159 -0.4070
  295MOL0     C40576   1.732   0.791   2.298 -0.9270  0.3861 -0.8666
  295MOL0     C40577   1.869   0.833   2.291 -0.1893  0.1164 -0.1647
  295MOL0     C40578   1.919   0.903   2.179 -0.5471 -0.4546 -0.4604
  295MOL0     C40579   1.818   0.949   2.086 -0.0760 -0.0746  0.1670
  295MOL0     O40580   1.862   1.055   1.995 -0.6856 -0.0303 -0.0998
  295MOL0     C40581   1.946   0.997   1.891 -0.0876 -0.3488  0.0867
  295MOL0     C40582   2.085   1.063   1.887 -0.1652 -0.5876 -0.1522
  295MOL0     C40583   2.162   0.989   1.772  0.2163 -0.5567  0.2357
  295MOL0     C40584   2.256   1.083   1.697 -0.1072  1.1831  0.6303
  295MOL0     C40585   2.360   1.009   1.608  0.2422  0.2898 -0.4857
  295MOL0     C40586   2.291   0.989   1.471 -0.5659  1.0037 -0.7361
  295MOL0     C40587   2.368   0.896   1.372  0.7898  0.6978 -0.3088
  295MOL0     C40588   2.501   0.952   1.331 -0.3789 -0.8867  0.1455
  295MOL0     N40589   2.532   0.888   1.205 -0.6164  0.7369 -0.5923
  295MOL0     C40590   2.541   0.747   1.181 -0.4054 -0.2759  0.2140
  295MOL0     C40591   2.592   0.742   1.052  0.6750  1.1330 -0.6438
  295MOL0     C40592   2.591   0.635   0.951 -0.3654  0.7519 -0.7277
  295MOL0     C40593   2.713   0.537   0.940 -0.5426 -0.8675  0.5610
  295MOL0     C40594   2.759   0.480   1.079 -1.1235 -0.2022 -0.3052
  295MOL0     C40595   2.651   0.407   1.155 -0.3288  0.0271  0.6160
  295MOL0     O40596   2.578   0.317   1.062  0.0285  0.2654  0.2234
  295MOL0     C40597   2.624   0.195   1.011  0.2957 -0.5331  0.2463
  295MOL0     C40598   2.551   0.121   0.913  1.1561  0.5811 -0.7553
  295MOL0     C40599   2.603   0.007   0.852  0.4303  0.2869 -0.8167
  295MOL0     C40600   2.515  -0.049   0.742  0.6343  0.2014 -0.6725
  295MOL0     C40601   2.732  -0.038   0.876  0.2836  0.6389 -0.0051
  295MOL0     C40602   2.793  -0.161   0.806  0.2828 -0.0371 -0.2674
  295MOL0     O40603   2.887  -0.225   0.887  0.0956  0.0338  0.5794
  295MOL0     C40604   2.970  -0.314   0.827 -0.5188  0.3304  0.2545
  295MOL0     C40605   3.094  -0.267   0.791  0.4086  0.0384  0.0442
  295MOL0     C40606   3.176  -0.346   0.708  0.3732 -0.2750  0.1660
  295MOL0     C40607   3.145  -0.482   0.682 -0.2796  1.0614 -0.7403
  295MOL0     O40608   3.242  -0.548   0.615 -0.2799 -0.5454 -0.6335
  295MOL0     C40609   3.245  -0.692   0.634  0.2148  0.3495  0.4245
  295MOL0     C40610   3.379  -0.742   0.573 -0.0854 -0.8980 -0.0030
  295MOL0     C40611   3.385  -0.891   0.585 -0.1527 -0.1850 -0.6763
  295MOL0     C40612   3.528  -0.951   0.560 -0.4260 -0.5569 -0.6552
  295MOL0     C40613   3.562  -0.961   0.402 -1.1761  0.8662 -0.5096
  295MOL0     C40614   3.681  -1.059   0.386 -0.1898  0.3539  0.3817
  295MOL0     C40615   3.741  -1.054   0.238 -0.2732 -0.1186 -0.7365
  295MOL0     C40616   3.895  -1.040   0.225 -1.2629 -1.3750 -0.5133
  295MOL0    Cl40617   3.969  -1.192   0.308 -0.3451 -0.0137  0.7758
  295MOL0     C40618   3.017  -0.532   0.745 -0.2357 -0.1550  1.0992
  295MOL0     C40619   2.936  -0.451   0.813 -0.6698 -0.1523  0.5313
  295MOL0     O40620   2.763  -0.183   0.687  0.0095  0.5955 -0.1749
  295MOL0     C40621   2.803   0.027   0.980 -0.5264  0.0702  0.6583
  295MOL0     C40622   2.752   0.142   1.042  0.9166  0.1827 -0.1722
  295MOL0     N40623   2.629   0.869   1.013  0.1508  0.4664 -0.6423
  295MOL0     N40624   2.590   0.953   1.108  0.0236 -0.2231  0.7899
  295MOL0     C40625   1.686   0.903   2.084  0.4562 -0.4093 -0.7081
  295MOL0     C40626   1.647   0.817   2.191  0.1764 -0.2442 -0.4531
  295MOL0     C40627   1.660   0.529   2.540  0.6831 -0.6238 -1.2893
  295MOL0     C40628   1.523   0.530   2.567  0.4060 -1.3615 -0.3484
  295MOL0     C40629   1.477   0.482   2.685  0.0422  0.3403 -0.4280
  295MOL0     C40630   1.556   0.409   2.775  1.1445  0.7942  1.4683
  295MOL0     O40631   1.485   0.342   2.865 -0.6061  0.0098  1.0870
  295MOL0     C40632   1.551   0.284   2.973  0.0998  0.7507  0.0809
  295MOL0     C40633   1.521   0.133   2.979 -0.5691  0.0952  0.2766
  295MOL0     C40634   1.606   0.056   3.082  0.2984  0.7383  0.3068
  295MOL0     C40635   1.580   0.077   3.237  0.2305 -0.3608  0.6287
  295MOL0     C40636   1.700   0.104   3.325 -0.4123 -0.8551  0.4389
  295MOL0     C40637   1.785   0.132   3.403 -0.3823 -0.3151 -0.1241
  295MOL0     C40638   1.687   0.395   2.741  0.2736 -0.4328  0.6236
  295MOL0     C40639   1.744   0.464   2.634  0.2512  0.0610  0.1569
  295MOL0     C40640   1.892   0.453   2.620  0.3190  0.3240 -1.0621
  295MOL0     H40641   1.936   0.826   2.376  1.6660  1.9080 -1.4018
  295MOL0     H40642   2.022   0.937   2.178 -1.0331  1.2984 -2.9776
  295MOL0     H40643   1.904   1.019   1.792 -3.5115  1.2706  1.7265
  295MOL0     H40644   1.954   0.888   1.893  3.4301 -0.2158  0.6376
  295MOL0     H40645   2.080   1.165   1.849 -3.2294 -0.0210  1.4770
  295MOL0     H40646   2.133   1.055   1.985 -0.7080 -0.4579  0.1280
  295MOL0     H40647   2.217   0.900   1.806  0.3764 -0.7121 -0.4108
  295MOL0     H40648   2.095   0.951   1.695 -2.2774  0.9845  1.5380
  295MOL0     H40649   2.195   1.145   1.630 -0.4532 -1.3824 -1.6316
  295MOL0     H40650   2.311   1.150   1.764  2.2225  1.1323 -1.1237
  295MOL0     H40651   2.419   0.933   1.660  0.0880  1.0252  0.8087
  295MOL0     H40652   2.433   1.087   1.583 -1.0032  0.9583 -2.1678
  295MOL0     H40653   2.193   0.942   1.482  0.0203 -0.2949 -0.8956
  295MOL0     H40654   2.297   1.086   1.420  0.5194  0.6510 -1.3156
  295MOL0     H40655   2.308   0.897   1.281 -1.3813  0.8282  1.0512
  295MOL0     H40656   2.387   0.799   1.418  1.1151  0.7646 -0.3005
  295MOL0     H40657   2.498   1.058   1.305  2.0326 -0.5847  0.9070
  295MOL0     H40658   2.577   0.938   1.408  0.3563 -4.2583 -1.0020
  295MOL0     H40659   2.496   0.666   1.238  2.3327 -1.3226  1.0541
  295MOL0     H40660   2.583   0.671   0.848 -1.9118 -1.2700 -1.3787
  295MOL0     H40661   2.509   0.567   0.978  1.2299 -0.0493  2.6678
  295MOL0     H40662   2.688   0.457   0.869 -1.6147 -0.7175  0.7650
  295MOL0     H40663   2.798   0.585   0.889 -2.2013 -0.5026 -2.0356
  295MOL0     H40664   2.838   0.407   1.060 -0.5942  0.5432 -1.0743
  295MOL0     H40665   2.794   0.563   1.142 -1.8173  0.1496 -0.3798
  295MOL0     H40666   2.691   0.344   1.235  1.0711 -1.8134 -1.4159
  295MOL0     H40667   2.581   0.479   1.198 -1.1535 -2.6492  4.3242
  295MOL0     H40668   2.455   0.155   0.877 -0.1282 -0.2497  1.6292
  295MOL0     H40669   2.406  -0.049   0.756  0.6229 -3.2526  0.1278
  295MOL0     H40670   2.539  -0.155   0.740 -0.8233 -0.2696  2.0260
  295MOL0     H40671   2.532  -0.003   0.644 -0.3108  0.1141 -0.8948
  295MOL0     H40672   3.126  -0.169   0.824  2.2359 -0.8343  0.9826
  295MOL0     H40673   3.268  -0.308   0.664 -1.6503  0.2934 -4.0334
  295MOL0     H40674   3.236  -0.726   0.738  0.9329 -3.0712 -0.5074
  295MOL0     H40675   3.168  -0.745   0.578  2.1163 -2.0868 -0.0902
  295MOL0     H40676   3.377  -0.717   0.467 -0.7721 -2.0981 -0.2918
  295MOL0     H40677   3.471  -0.706   0.622 -1.2561  1.1513  0.8106
  295MOL0     H40678   3.308  -0.944   0.528 -0.6510 -0.6791  0.4243
  295MOL0     H40679   3.365  -0.910   0.691  1.5641 -2.2395 -0.6562
  295MOL0     H40680   3.543  -1.046   0.611  2.5557  1.4197  2.5489
  295MOL0     H40681   3.598  -0.885   0.612 -0.2131 -1.0153 -0.3662
  295MOL0     H40682   3.477  -1.004   0.349  0.2197 -0.8235 -1.4610
  295MOL0     H40683   3.584  -0.861   0.363 -0.5392  1.2631  0.8169
  295MOL0     H40684   3.653  -1.163   0.407  1.5504  0.1206  1.8012
  295MOL0     H40685   3.764  -1.041   0.455  1.8234 -2.2303 -1.1237
  295MOL0     H40686   3.704  -0.958   0.200 -0.4427  0.6358  1.2376
  295MOL0     H40687   3.700  -1.139   0.184 -1.9435  0.5823 -0.6376
  295MOL0     H40688   3.927  -0.953   0.283  1.2886 -2.1390 -0.6463
  295MOL0     H40689   3.929  -1.030   0.122  0.5855  1.4993  0.2345
  295MOL0     H40690   2.979  -0.634   0.743  0.7626 -0.5347 -1.2406
  295MOL0     H40691   2.843  -0.488   0.853 -3.2141  1.8933 -2.9632
  295MOL0     H40692   2.893  -0.019   1.019 -1.3364 -1.7549  0.4944
  295MOL0     H40693   2.820   0.187   1.113  1.0896  0.5599 -0.5735
  295MOL0     H40694   1.611   0.945   2.018  0.6096 -1.6847 -1.7347
  295MOL0     H40695   1.548   0.774   2.196 -0.1687  0.6786  1.7211
  295MOL0     H40696   1.456   0.575   2.494 -1.2932 -2.6927  0.3291
  295MOL0     H40697   1.370   0.489   2.703 -0.3771  5.1662 -2.9200
  295MOL0     H40698   1.660   0.296   2.966 -0.0978  1.7686 -2.5565
  295MOL0     H40699   1.516   0.345   3.057 -2.5170  0.1156 -0.4789
  295MOL0     H40700   1.545   0.076   2.889 -2.7060  0.0732 -0.3394
  295MOL0     H40701   1.413   0.125   2.997 -0.7025 -0.7538 -0.7714
  295MOL0     H40702   1.566  -0.044   3.065 -1.8451  1.8390 -1.6967
  295MOL0     H40703   1.712   0.053   3.053  0.2282  2.4509 -0.2258
  295MOL0     H40704   1.521  -0.010   3.268  0.4815 -1.2541 -1.2341
  295MOL0     H40705   1.505   0.156   3.242 -1.9027 -2.3151  1.5844
  295MOL0     H40706   1.865   0.128   3.475 -2.1910 -1.5712  1.9408
  295MOL0     H40707   1.757   0.332   2.795  0.4959 -0.5100  0.2512
  295MOL0     H40708   1.930   0.554   2.641  0.3133 -0.2434  2.3185
  295MOL0     H40709   1.947   0.388   2.689  0.3673  1.8450  0.4203
  295MOL0     H40710   1.929   0.424   2.521 -1.3531 -2.7883 -0.8799
  296MOL0     O40711   5.397   1.425   3.355  0.1068 -0.3230  0.1141
  296MOL0     C40712   5.500   1.465   3.301 -0.2070 -0.0092  0.6239
  296MOL0     O40713   5.504   1.594   3.252 -0.6708 -0.2458  0.4585
  296MOL0     C40714   5.383   1.651   3.226  0.1443  0.3222  0.4021
  296MOL0     C40715   5.335   1.638   3.094  0.0966  0.8850 -0.1369
  296MOL0     C40716   5.212   1.705   3.058  0.2149  0.6815  1.0391
  296MOL0     C40717   5.129   1.764   3.154 -0.3312  0.8132  0.9368
  296MOL0     O40718   5.017   1.832   3.117  0.2101  0.4741 -0.4609
  296MOL0     C40719   4.983   1.851   2.976 -1.3353 -0.9255 -0.0124
  296MOL0     C40720   4.861   1.928   2.977 -0.1736  0.0780 -0.6233
  296MOL0     C40721   4.795   1.938   2.838 -0.0674  0.7062 -0.6127
  296MOL0     C40722   4.892   2.002   2.740 -0.0248  0.3411 -0.8153
  296MOL0     C40723   4.825   2.001   2.603  0.7403 -0.0386  0.2561
  296MOL0     C40724   4.839   1.867   2.531 -0.3437 -0.4090 -0.2516
  296MOL0     C40725   4.770   1.862   2.392 -0.0761  0.4085  0.6262
  296MOL0     C40726   4.790   1.732   2.306  0.2457  0.2571  0.8761
  296MOL0     N40727   4.670   1.741   2.210 -0.4100  0.1941 -1.1543
  296MOL0     C40728   4.661   1.828   2.099 -0.2794 -0.5273 -0.1519
  296MOL0     C40729   4.538   1.805   2.042 -0.4365  0.3124  0.2813
  296MOL0     C40730   4.486   1.863   1.915 -0.3117  0.8688 -0.7740
  296MOL0     C40731   4.443   1.765   1.808 -0.7726 -0.7201  0.4644
  296MOL0     C40732   4.559   1.703   1.726  0.1126  0.2028 -0.5528
  296MOL0     C40733   4.507   1.614   1.624 -0.8288  0.2930  0.4109
  296MOL0     O40734   4.614   1.568   1.541 -0.3981  0.0995  0.4720
  296MOL0     C40735   4.685   1.454   1.566  0.1765 -0.7061  0.2112
  296MOL0     C40736   4.789   1.415   1.486  0.1723 -0.2474  0.0984
  296MOL0     C40737   4.873   1.300   1.517 -0.8433 -0.6877  0.3784
  296MOL0     C40738   4.993   1.270   1.429  0.1747 -0.2114 -0.1102
  296MOL0     C40739   4.840   1.222   1.632  0.3868  0.0038 -0.5654
  296MOL0     C40740   4.896   1.090   1.668  0.1780  0.2990  1.2944
  296MOL0     O40741   4.819   0.992   1.727  0.4685  0.2107  0.1162
  296MOL0     C40742   4.885   0.872   1.747 -0.0094  0.1179 -0.1221
  296MOL0     C40743   4.840   0.764   1.666  0.2024  0.8953  0.7334
  296MOL0     C40744   4.869   0.635   1.700  0.0955  1.2483 -0.4770
  296MOL0     C40745   4.954   0.611   1.800 -0.2533 -0.3266 -0.7790
  296MOL0     O40746   4.982   0.482   1.824 -0.0736 -0.4179  0.2550
  296MOL0     C40747   5.126   0.462   1.817 -0.2405  0.2287 -0.5361
  296MOL0     C40748   5.177   0.441   1.957 -0.0339 -0.0133 -0.0446
  296MOL0     C40749   5.324   0.480   1.952  0.4050  0.5193  0.1974
  296MOL0     C40750   5.405   0.426   2.080  0.5596 -0.2925 -0.2337
  296MOL0     C40751   5.347   0.477   2.212 -0.4169 -0.4700 -0.2414
  296MOL0     C40752   5.386   0.633   2.231  0.4441 -0.2746 -0.6733
  296MOL0     C40753   5.529   0.682   2.280 -0.1845  1.0017 -0.2509
  296MOL0     C40754   5.606   0.595   2.382 -0.4137 -0.5255  0.3407
  296MOL0    Cl40755   5.768   0.688   2.396 -0.5873  0.3721  0.1256
  296MOL0     C40756   4.998   0.722   1.879  0.4944 -0.1300 -0.7657
  296MOL0     C40757   4.966   0.853   1.853 -1.1524  0.9146  0.9032
  296MOL0     O40758   5.020   1.078   1.639 -0.5790 -0.0801 -0.7807
  296MOL0     C40759   4.733   1.259   1.726 -0.5595 -0.4439  0.7607
  296MOL0     C40760   4.665   1.377   1.687  1.0129 -0.1443  0.9952
  296MOL0     N40761   4.473   1.708   2.127  0.3246 -0.2129 -0.0412
  296MOL0     N40762   4.553   1.684   2.227 -1.0133 -0.7549  0.2233
  296MOL0     C40763   5.183   1.777   3.285  0.4047  0.1706  0.2225
  296MOL0     C40764   5.302   1.723   3.318 -0.0174  0.5742  1.3081
  296MOL0     C40765   5.609   1.364   3.287 -0.4574  0.1518  0.4471
  296MOL0     C40766   5.579   1.228   3.292  0.5001  0.5543  0.3429
  296MOL0     C40767   5.673   1.135   3.256  0.3657  0.1123 -0.7749
  296MOL0     C40768   5.803   1.170   3.241 -0.8650  0.6768  0.6589
  296MOL0     O40769   5.888   1.067   3.211  0.2617 -0.5926  0.5268
  296MOL0     C40770   6.017   1.097   3.150 -0.4663  0.0639  0.6293
  296MOL0     C40771   6.097   0.969   3.160  0.7983 -0.0518 -0.8514
  296MOL0     C40772   6.215   0.948   3.060  0.1614 -0.0046  0.1134
  296MOL0     C40773   6.313   0.856   3.114 -1.6284  0.1406  0.3805
  296MOL0     C40774   6.270   0.722   3.070 -0.0735  0.2986 -0.6654
  296MOL0     C40775   6.258   0.605   3.044  0.0625  0.2556 -0.5983
  296MOL0     C40776   5.838   1.304   3.245 -0.5085 -0.5447  1.0770
  296MOL0     C40777   5.745   1.400   3.273 -0.3607  0.8247  0.4086
  296MOL0     C40778   5.790   1.541   3.293 -0.0869  0.0017 -0.3208
  296MOL0     H40779   5.397   1.579   3.027 -0.6116  0.3306 -0.3145
  296MOL0     H40780   5.189   1.697   2.952  1.6223  1.8518  0.6047
  296MOL0     H40781   4.969   1.760   2.918 -3.4328 -1.2030  0.8498
  296MOL0     H40782   5.062   1.913   2.931 -3.0450  1.8442  0.5243
  296MOL0     H40783   4.789   1.886   3.047  0.4716 -0.2784 -0.1708
  296MOL0     H40784   4.878   2.023   3.029 -0.2991 -2.0162  3.6618
  296MOL0     H40785   4.758   1.838   2.816  1.3728 -0.3321  1.3633
  296MOL0     H40786   4.709   2.006   2.848 -0.3032  0.1676  1.7805
  296MOL0     H40787   4.915   2.104   2.773  1.9030 -0.5067  0.6504
  296MOL0     H40788   4.986   1.948   2.730  1.2576  2.2823  0.0090
  296MOL0     H40789   4.887   2.072   2.548  3.6400 -1.6679  1.2319
  296MOL0     H40790   4.719   2.030   2.609 -0.0800 -2.9539  2.3267
  296MOL0     H40791   4.946   1.844   2.529 -0.5757 -1.5161 -1.3158
  296MOL0     H40792   4.799   1.784   2.590  0.3575 -1.8051 -1.6487
  296MOL0     H40793   4.799   1.946   2.328  1.4252 -0.6178 -0.1221
  296MOL0     H40794   4.664   1.872   2.418 -0.3824 -1.6368  0.3855
  296MOL0     H40795   4.888   1.736   2.259  0.1415 -1.1046  0.5060
  296MOL0     H40796   4.776   1.641   2.366  2.9123 -0.4281  0.5844
  296MOL0     H40797   4.742   1.887   2.059 -0.6163 -1.1069 -1.7836
  296MOL0     H40798   4.560   1.938   1.884 -0.9296  1.7963 -0.0546
  296MOL0     H40799   4.395   1.922   1.927 -0.5651  0.5879 -1.2721
  296MOL0     H40800   4.383   1.682   1.847 -1.2509 -0.5345  0.1445
  296MOL0     H40801   4.378   1.830   1.748 -2.3719 -2.3800  0.2954
  296MOL0     H40802   4.621   1.785   1.689 -1.7489  1.0695 -1.8712
  296MOL0     H40803   4.629   1.636   1.778  0.1536  0.3560 -0.4086
  296MOL0     H40804   4.465   1.534   1.685 -0.1296  0.8953  1.7389
  296MOL0     H40805   4.428   1.649   1.558 -0.2322 -0.3211 -0.6559
  296MOL0     H40806   4.820   1.487   1.410  1.0156 -0.9594 -0.2612
  296MOL0     H40807   5.011   1.356   1.364  0.9590  2.1682  3.0393
  296MOL0     H40808   4.964   1.186   1.366  3.1462 -1.5970  0.2255
  296MOL0     H40809   5.085   1.249   1.484  2.0028  1.4372 -2.3114
  296MOL0     H40810   4.762   0.771   1.591  0.2231 -0.5570  0.5584
  296MOL0     H40811   4.824   0.556   1.641  0.8323 -0.7432  1.4973
  296MOL0     H40812   5.151   0.374   1.757  0.9370 -1.8214  2.6961
  296MOL0     H40813   5.186   0.547   1.781  3.0804  0.9564  5.3747
  296MOL0     H40814   5.129   0.509   2.029  0.5630  0.5970 -0.2076
  296MOL0     H40815   5.158   0.338   1.986 -1.1618  0.5071  1.2140
  296MOL0     H40816   5.342   0.585   1.931 -1.4379  1.0692  1.1953
  296MOL0     H40817   5.362   0.423   1.867  5.3201  2.5896  0.6370
  296MOL0     H40818   5.508   0.460   2.065  1.3541 -3.0139 -1.6025
  296MOL0     H40819   5.399   0.317   2.076 -1.5185 -0.1947 -0.7626
  296MOL0     H40820   5.238   0.472   2.209 -0.8240  2.2629  3.4545
  296MOL0     H40821   5.385   0.438   2.306  0.8132  0.7035 -0.2253
  296MOL0     H40822   5.302   0.669   2.292  1.5316  0.5538  0.3911
  296MOL0     H40823   5.371   0.677   2.132 -1.9649 -1.4645 -0.9046
  296MOL0     H40824   5.515   0.783   2.320  2.8572  1.4787 -0.1902
  296MOL0     H40825   5.591   0.689   2.191  2.2860  0.6519  1.3563
  296MOL0     H40826   5.622   0.491   2.353 -1.8917 -0.6812  0.0283
  296MOL0     H40827   5.560   0.593   2.481  0.0730 -1.3289  0.5557
  296MOL0     H40828   5.054   0.698   1.968 -0.7742  3.0072  1.0231
  296MOL0     H40829   4.999   0.941   1.907  1.6603  0.0311  0.7837
  296MOL0     H40830   4.710   1.213   1.821  1.3641  0.3130  1.6418
  296MOL0     H40831   4.587   1.400   1.758 -0.2073 -1.4285  0.1186
  296MOL0     H40832   5.130   1.834   3.361  1.2474  0.0640  0.9074
  296MOL0     H40833   5.353   1.736   3.413 -0.4062  2.0256  1.3429
  296MOL0     H40834   5.476   1.202   3.318  0.3062  1.3256  0.3700
  296MOL0     H40835   5.659   1.028   3.249  2.5798 -0.2833  0.0641
  296MOL0     H40836   6.016   1.129   3.046 -0.0710 -2.1884 -0.1050
  296MOL0     H40837   6.083   1.170   3.198 -1.0431 -0.3008  2.0308
  296MOL0     H40838   6.022   0.891   3.143 -0.2224  1.2766 -2.9052
  296MOL0     H40839   6.130   0.950   3.262  0.2343 -1.8338 -0.9695
  296MOL0     H40840   6.173   0.909   2.967 -0.1792 -0.4397  0.4441
  296MOL0     H40841   6.273   1.039   3.041  0.4827  0.0511  1.3211
  296MOL0     H40842   6.333   0.859   3.222  1.4869 -3.7787  0.1259
  296MOL0     H40843   6.411   0.884   3.078 -1.0529 -2.5600 -0.4093
  296MOL0     H40844   6.234   0.505   3.015  1.9869 -1.3816  2.7676
  296MOL0     H40845   5.941   1.336   3.245  0.1364 -2.5340  1.6412
  296MOL0     H40846   5.743   1.572   3.387  2.8797 -0.3287  1.3730
  296MOL0     H40847   5.897   1.560   3.293  0.0363 -0.4274 -2.1732
  296MOL0     H40848   5.767   1.614   3.214 -0.5339  1.2752  0.9455
  297MOL0     O40849   9.517   5.427   0.828 -0.3168  0.6691 -0.2600
  297MOL0     C40850   9.530   5.366   0.721 -0.2013 -0.0091 -0.3687
  297MOL0     O40851   9.653   5.352   0.645  0.6216  0.2899  0.4504
  297MOL0     C40852   9.761   5.424   0.685  0.5665 -1.0175  0.0696
  297MOL0     C40853   9.873   5.352   0.734 -0.1146  0.5210 -0.0990
  297MOL0     C40854   9.984   5.415   0.798 -0.6637 -0.0569  0.3290
  297MOL0     C40855   9.984   5.546   0.797  0.0227 -0.0701 -0.0429
  297MOL0     O40856  10.097   5.614   0.834 -0.4353 -0.1431 -0.0249
  297MOL0     C40857  10.086   5.649   0.972 -0.0883 -0.2455 -0.2411
  297MOL0     C40858  10.224   5.636   1.029 -0.0575  0.2304  0.2353
  297MOL0     C40859  10.240   5.657   1.182  0.6462 -0.9841 -0.0114
  297MOL0     C40860  10.168   5.776   1.243  0.1495  0.3205 -0.0840
  297MOL0     C40861  10.232   5.908   1.211  0.0053 -0.7500 -0.3407
  297MOL0     C40862  10.371   5.932   1.259  0.3112 -0.6095  0.4132
  297MOL0     C40863  10.382   5.919   1.414 -0.5012 -1.2224 -0.5905
  297MOL0     C40864  10.504   5.972   1.470  0.5789  0.8997  0.2402
  297MOL0     N40865  10.484   6.006   1.613  0.4576  0.1286  0.7213
  297MOL0     C40866  10.420   6.121   1.653 -1.2638 -0.5208  0.8716
  297MOL0     C40867  10.454   6.151   1.776  0.3453  0.2252  0.4218
  297MOL0     C40868  10.413   6.273   1.842  0.1439 -0.0000  0.4293
  297MOL0     C40869  10.263   6.275   1.904  0.0634 -0.0920  0.4980
  297MOL0     C40870  10.160   6.248   1.798 -0.1638  0.4916  0.0370
  297MOL0     C40871  10.018   6.271   1.842 -0.2241  0.3906 -0.2672
  297MOL0     O40872  10.009   6.413   1.841  0.0249  0.3383  0.0381
  297MOL0     C40873   9.941   6.461   1.739 -1.0813  0.4509 -0.6502
  297MOL0     C40874   9.996   6.566   1.672  0.2745 -0.2550  0.1092
  297MOL0     C40875   9.905   6.630   1.587 -0.9005  0.6230 -0.1536
  297MOL0     C40876   9.971   6.757   1.516  0.4605  0.0534  0.4581
  297MOL0     C40877   9.771   6.601   1.582 -0.3841  0.0272  0.4270
  297MOL0     C40878   9.680   6.662   1.479  0.7383 -1.1300  0.8289
  297MOL0     O40879   9.731   6.708   1.359  1.2087  1.0281 -0.1958
  297MOL0     C40880   9.683   6.812   1.295  1.0389 -0.7848  0.0547
  297MOL0     C40881   9.709   6.817   1.163 -0.9471  0.0498  0.8539
  297MOL0     C40882   9.660   6.918   1.081 -0.1269 -0.2136  0.7837
  297MOL0     C40883   9.584   7.021   1.129  0.6054  0.3947  0.6157
  297MOL0     O40884   9.555   7.123   1.043  0.3973 -0.5773  0.3727
  297MOL0     C40885   9.459   7.230   1.078  0.5740  0.6376  0.6544
  297MOL0     C40886   9.489   7.360   1.001  0.2076 -0.4348 -0.4175
  297MOL0     C40887   9.375   7.464   0.990 -0.0355  0.1586  0.8291
  297MOL0     C40888   9.414   7.586   0.902 -0.2510 -0.5934 -0.0028
  297MOL0     C40889   9.532   7.666   0.965  0.3128 -1.0757  0.2014
  297MOL0     C40890   9.603   7.745   0.845 -0.2997 -0.0766 -0.1496
  297MOL0     C40891   9.747   7.796   0.882 -0.6615 -0.1372 -0.1908
  297MOL0     C40892   9.762   7.881   1.008  0.1390 -0.3574  0.3507
  297MOL0    Cl40893   9.927   7.881   1.092 -0.2019  0.4019 -0.1819
  297MOL0     C40894   9.540   7.010   1.264  0.3885 -0.5521 -0.7447
  297MOL0     C40895   9.585   6.908   1.343  0.4871  0.4939 -0.7444
  297MOL0     O40896   9.559   6.674   1.508  0.5600  0.8438  0.0748
  297MOL0     C40897   9.715   6.506   1.664  0.7096  0.0497 -0.4571
  297MOL0     C40898   9.806   6.442   1.750  0.0114  0.4876  0.0553
  297MOL0     N40899  10.537   6.048   1.814  0.5081  0.0496 -0.3565
  297MOL0     N40900  10.559   5.966   1.719 -0.8395 -0.4430  0.5120
  297MOL0     C40901   9.859   5.620   0.776 -0.3220  0.2380  1.1613
  297MOL0     C40902   9.749   5.563   0.721 -0.1459 -0.4771  0.7073
  297MOL0     C40903   9.423   5.260   0.686  0.0428  0.7051 -0.3526
  297MOL0     C40904   9.460   5.157   0.594  0.9832  0.2752  0.1777
  297MOL0     C40905   9.375   5.051   0.592  0.4440  0.6809 -0.2473
  297MOL0     C40906   9.242   5.054   0.634  0.4020  0.0546  0.2015
  297MOL0     O40907   9.162   4.954   0.597  0.6256  0.0022 -0.4116
  297MOL0     C40908   9.037   4.927   0.659 -0.3918 -0.3481 -0.1574
  297MOL0     C40909   9.055   4.834   0.786  0.6138  0.0308  0.5544
  297MOL0     C40910   8.911   4.792   0.837 -0.1009  0.1048 -0.2552
  297MOL0     C40911   8.919   4.671   0.925  0.0120 -0.6502  0.0334
  297MOL0     C40912   8.963   4.547   0.865  0.3577 -0.4955  0.4532
  297MOL0     C40913   8.993   4.442   0.814  0.9610 -0.2814  0.4393
  297MOL0     C40914   9.200   5.171   0.688  0.4670  0.7833 -0.1238
  297MOL0     C40915   9.288   5.255   0.745 -0.7051 -0.9320 -0.1060
  297MOL0     C40916   9.242   5.359   0.848  0.2610 -0.5084  1.2730
  297MOL0     H40917   9.883   5.244   0.727  2.7555  0.7246 -0.6603
  297MOL0     H40918  10.069   5.365   0.844 -0.2466  0.4100  0.0832
  297MOL0     H40919  10.032   5.567   1.020 -1.2345 -0.9634 -2.5923
  297MOL0     H40920  10.039   5.746   0.984 -1.8690 -1.1826  0.7797
  297MOL0     H40921  10.247   5.532   1.004  0.9331 -0.1790  2.5373
  297MOL0     H40922  10.292   5.697   0.969  0.8617 -2.1956 -1.3451
  297MOL0     H40923  10.185   5.579   1.235 -0.9845 -1.0765 -1.7501
  297MOL0     H40924  10.347   5.663   1.206  0.6604 -0.9850 -0.0736
  297MOL0     H40925  10.063   5.773   1.213  0.1693  1.2621 -0.2730
  297MOL0     H40926  10.179   5.775   1.352  0.2446  0.6538 -0.0872
  297MOL0     H40927  10.168   5.988   1.249  0.1326 -0.2377 -1.1861
  297MOL0     H40928  10.234   5.918   1.102  2.8642  1.5609 -0.2137
  297MOL0     H40929  10.441   5.858   1.219  2.0697  0.0676  2.0734
  297MOL0     H40930  10.408   6.031   1.233  2.9318 -1.7434 -0.5410
  297MOL0     H40931  10.371   5.812   1.435 -0.1041 -1.0064  0.7753
  297MOL0     H40932  10.296   5.973   1.454 -0.7842 -1.2509 -1.1482
  297MOL0     H40933  10.580   5.895   1.455 -0.5000 -0.3130  0.8314
  297MOL0     H40934  10.523   6.065   1.415  1.7502 -0.5328 -1.9047
  297MOL0     H40935  10.370   6.177   1.575 -0.6121 -1.5872 -0.3489
  297MOL0     H40936  10.425   6.359   1.775 -1.4387  1.7436  2.2527
  297MOL0     H40937  10.481   6.292   1.926 -0.3208  1.9845  0.4059
  297MOL0     H40938  10.245   6.187   1.966 -0.2710  0.4598  1.1923
  297MOL0     H40939  10.255   6.375   1.946  1.0615  0.0759  0.3068
  297MOL0     H40940  10.189   6.306   1.710  1.1615  1.4179  1.0402
  297MOL0     H40941  10.179   6.144   1.768 -1.3260 -0.2674  1.8013
  297MOL0     H40942   9.949   6.223   1.771 -1.3952 -0.7837  1.5963
  297MOL0     H40943   9.997   6.243   1.945 -0.4300 -3.7571 -1.2650
  297MOL0     H40944  10.096   6.604   1.694 -0.0177 -0.3332  1.6524
  297MOL0     H40945   9.957   6.731   1.411  3.5047 -0.8954  0.1730
  297MOL0     H40946  10.072   6.767   1.557  0.8834 -3.0448  0.4251
  297MOL0     H40947   9.911   6.844   1.540 -0.5426 -0.7750  1.0372
  297MOL0     H40948   9.774   6.752   1.108  1.0215  1.5025  1.3571
  297MOL0     H40949   9.698   6.927   0.979 -1.0487  0.0174  0.4482
  297MOL0     H40950   9.357   7.202   1.048  0.7406  1.9499 -1.3234
  297MOL0     H40951   9.457   7.241   1.187  0.5063  0.6112  0.6563
  297MOL0     H40952   9.575   7.405   1.051 -1.1756  0.6016  1.1457
  297MOL0     H40953   9.524   7.333   0.901  1.5124  0.8336 -0.3260
  297MOL0     H40954   9.339   7.507   1.084  0.0613 -0.4984  1.1752
  297MOL0     H40955   9.289   7.411   0.948  0.6558  1.3090 -2.3155
  297MOL0     H40956   9.328   7.647   0.872  0.4613  1.0251  1.0999
  297MOL0     H40957   9.450   7.535   0.812  4.2399  2.9147 -0.5321
  297MOL0     H40958   9.509   7.712   1.061  0.2214 -0.5136 -0.0811
  297MOL0     H40959   9.611   7.592   0.978  0.9752 -1.9947 -6.0479
  297MOL0     H40960   9.529   7.819   0.812 -0.1734 -0.4990 -1.4708
  297MOL0     H40961   9.616   7.667   0.769  2.5846  1.0387 -0.9405
  297MOL0     H40962   9.794   7.854   0.802 -0.5897 -1.1389 -0.8835
  297MOL0     H40963   9.801   7.702   0.897  0.7614  0.8627  1.3005
  297MOL0     H40964   9.695   7.841   1.085 -1.4666  0.3368 -0.6377
  297MOL0     H40965   9.716   7.980   1.007 -1.9075 -1.2105  1.5961
  297MOL0     H40966   9.461   7.077   1.299  0.5291  0.3449 -2.0699
  297MOL0     H40967   9.532   6.903   1.438 -0.5390  1.8856 -1.2044
  297MOL0     H40968   9.610   6.485   1.651  0.0438  1.4798  1.9826
  297MOL0     H40969   9.768   6.366   1.817 -2.1734  0.4345 -1.1522
  297MOL0     H40970   9.855   5.727   0.792 -0.1943  1.0477 -3.0671
  297MOL0     H40971   9.658   5.620   0.711 -0.7887 -1.7869 -1.5347
  297MOL0     H40972   9.555   5.145   0.544  0.5401  0.0097 -0.6217
  297MOL0     H40973   9.427   4.964   0.551 -1.1262 -0.5193  0.2139
  297MOL0     H40974   8.986   5.021   0.686  4.6083  2.6647  0.0881
  297MOL0     H40975   8.979   4.873   0.584 -1.4042 -1.4390  1.3610
  297MOL0     H40976   9.090   4.893   0.872 -1.0537 -0.9644  1.9818
  297MOL0     H40977   9.111   4.744   0.760 -4.4530 -2.4183 -3.7804
  297MOL0     H40978   8.868   4.879   0.885  2.8888  1.4508  0.2324
  297MOL0     H40979   8.847   4.751   0.758  0.0300 -1.7027  0.5093
  297MOL0     H40980   8.821   4.661   0.972  0.7977  2.2199  2.6726
  297MOL0     H40981   8.992   4.681   1.005 -2.9041 -3.0095  3.2997
  297MOL0     H40982   9.018   4.344   0.779  0.1275  0.0051 -1.0275
  297MOL0     H40983   9.096   5.196   0.704 -0.2537 -2.1418  0.4130
  297MOL0     H40984   9.268   5.459   0.810  0.3077  0.3636  3.4804
  297MOL0     H40985   9.133   5.364   0.844  0.3107  0.3413 -0.5942
  297MOL0     H40986   9.287   5.346   0.947  2.4561  0.4301  0.4659
  298MOL0     O40987   0.169   0.574   9.513  0.0711 -0.2374 -0.4740
  298MOL0     C40988   0.082   0.564   9.430  0.0144  0.3035 -0.2112
  298MOL0     O40989  -0.047   0.541   9.455 -0.1415  1.1731 -0.1353
  298MOL0     C40990  -0.081   0.520   9.582  0.3416  0.4755  0.0966
  298MOL0     C40991  -0.110   0.391   9.632 -0.5036  0.2334  0.1158
  298MOL0     C40992  -0.131   0.378   9.771 -0.5142  0.9874 -0.2745
  298MOL0     C40993  -0.110   0.480   9.860  0.5699 -0.3687 -0.4711
  298MOL0     O40994  -0.124   0.475   9.996 -0.3060  0.4408  0.1361
  298MOL0     C40995  -0.245   0.422  10.058 -0.3631 -1.1775  0.3629
  298MOL0     C40996  -0.353   0.531  10.031 -1.1534  0.2512 -1.2975
  298MOL0     C40997  -0.324   0.657  10.120 -0.0287  0.1995  0.4689
  298MOL0     C40998  -0.416   0.766  10.063 -0.2679 -0.0685  0.2486
  298MOL0     C40999  -0.406   0.906  10.141  0.4591 -0.2024  1.4339
  298MOL0     C41000  -0.421   0.905  10.296  0.5045  0.0085 -0.2747
  298MOL0     C41001  -0.422   1.051  10.352  0.3800  0.7503  0.9225
  298MOL0     C41002  -0.309   1.137  10.300 -0.1058 -0.0750 -0.7670
  298MOL0     N41003  -0.323   1.276  10.334  0.0464 -0.1579 -0.0937
  298MOL0     C41004  -0.278   1.382  10.257  0.3045 -0.1149 -0.5107
  298MOL0     C41005  -0.288   1.489  10.341 -0.2555 -0.4597 -1.5925
  298MOL0     C41006  -0.251   1.633  10.309  0.8184  0.3782  0.2223
  298MOL0     C41007  -0.135   1.640  10.205  0.6062 -1.0877  0.7439
  298MOL0     C41008  -0.006   1.646  10.280 -0.6596 -0.2687  0.1965
  298MOL0     C41009   0.003   1.771  10.368  0.3909  0.1361 -0.5747
  298MOL0     O41010   0.139   1.821  10.370  1.2487 -0.3277  0.0114
  298MOL0     C41011   0.150   1.952  10.387 -0.6645 -0.0953  0.1458
  298MOL0     C41012   0.273   1.988  10.339  0.1946 -0.1613 -0.4282
  298MOL0     C41013   0.335   2.113  10.358 -0.0292  0.4919 -0.4065
  298MOL0     C41014   0.485   2.126  10.327 -0.1778  0.1154  0.0231
  298MOL0     C41015   0.253   2.212  10.422  1.2889  0.6040  0.5227
  298MOL0     C41016   0.321   2.339  10.448 -0.3510  0.2240  0.8943
  298MOL0     O41017   0.309   2.391  10.574 -0.0219 -1.1596 -0.3846
  298MOL0     C41018   0.393   2.492  10.598  0.1539 -1.4624  1.0260
  298MOL0     C41019   0.516   2.481  10.667  0.3782  0.4653 -0.4523
  298MOL0     C41020   0.586   2.605  10.680 -0.5402  1.1108 -0.3780
  298MOL0     C41021   0.540   2.732  10.636  0.8228 -0.2277  0.0188
  298MOL0     O41022   0.592   2.864  10.649 -0.1782  0.8369 -0.5549
  298MOL0     C41023   0.713   2.865  10.730 -0.0406  0.2707  0.1544
  298MOL0     C41024   0.739   3.015  10.754  0.6911 -0.5015 -0.6657
  298MOL0     C41025   0.882   3.037  10.796 -0.2705  0.6080 -1.0229
  298MOL0     C41026   0.949   3.176  10.807  0.5038  0.0157 -0.5344
  298MOL0     C41027   0.903   3.285  10.705  0.7533 -0.1162 -0.0746
  298MOL0     C41028   0.982   3.414  10.722  0.1530  0.2886 -0.3121
  298MOL0     C41029   0.909   3.539  10.683  0.2880  0.1242 -0.3001
  298MOL0     C41030   0.954   3.595  10.541 -0.2129  0.2196  0.3611
  298MOL0    Cl41031   1.133   3.637  10.551 -0.2880 -0.0828  0.2262
  298MOL0     C41032   0.420   2.733  10.568 -0.0726 -0.2834 -0.0092
  298MOL0     C41033   0.350   2.621  10.544  0.6201  0.7342  0.1117
  298MOL0     O41034   0.386   2.390  10.357 -0.1167  0.3694 -0.1243
  298MOL0     C41035   0.127   2.177  10.468 -0.2889 -0.4357 -0.1635
  298MOL0     C41036   0.071   2.048  10.446  0.2231  1.1260 -1.0955
  298MOL0     N41037  -0.330   1.451  10.467  0.2196 -0.8461  0.0526
  298MOL0     N41038  -0.349   1.325  10.458 -0.3659  0.1963  0.2077
  298MOL0     C41039  -0.068   0.601   9.807  0.3565 -0.4867 -1.7214
  298MOL0     C41040  -0.064   0.625   9.671 -0.2147  0.2769  0.4484
  298MOL0     C41041   0.141   0.629   9.309 -0.0939  0.1091 -0.0271
  298MOL0     C41042   0.275   0.614   9.266  0.1764 -0.1736  0.1263
  298MOL0     C41043   0.323   0.650   9.143  1.4826  0.4834 -0.6654
  298MOL0     C41044   0.250   0.732   9.057 -0.4185 -0.6853 -0.0892
  298MOL0     O41045   0.316   0.792   8.950 -0.0288 -0.2954  0.4388
  298MOL0     C41046   0.272   0.908   8.878  0.2508 -0.0963 -0.0414
  298MOL0     C41047   0.274   1.020   8.973 -0.4465  0.9171 -0.6267
  298MOL0     C41048   0.421   1.044   9.022 -0.0310 -0.0569 -0.3078
  298MOL0     C41049   0.452   1.189   9.080 -0.6966 -0.2096  0.0476
  298MOL0     C41050   0.489   1.279   8.976  0.4824 -0.5503 -0.1269
  298MOL0     C41051   0.537   1.365   8.903  0.8031 -0.1393 -0.9142
  298MOL0     C41052   0.117   0.754   9.090 -0.4914 -0.2972 -0.7885
  298MOL0     C41053   0.059   0.710   9.217 -0.0014  0.0649  0.2481
  298MOL0     C41054  -0.081   0.756   9.256  0.4087 -0.5668  0.1702
  298MOL0     H41055  -0.133   0.313   9.560 -2.5103 -0.1528  1.1089
  298MOL0     H41056  -0.156   0.281   9.812  1.2181 -1.0375 -3.5323
  298MOL0     H41057  -0.230   0.393  10.162  1.5580 -2.7831 -0.3019
  298MOL0     H41058  -0.277   0.328  10.011  1.7899 -1.4191 -0.7438
  298MOL0     H41059  -0.360   0.571   9.930  0.1216  0.4269 -1.3301
  298MOL0     H41060  -0.450   0.487  10.056 -0.6440 -1.0246 -1.4845
  298MOL0     H41061  -0.356   0.623  10.219 -3.2912  0.8113 -0.2352
  298MOL0     H41062  -0.221   0.691  10.128 -0.4916  2.1949 -1.1231
  298MOL0     H41063  -0.393   0.785   9.958 -1.3443 -2.0823 -0.4130
  298MOL0     H41064  -0.517   0.724  10.058  0.7779 -2.9012  1.1447
  298MOL0     H41065  -0.469   0.979  10.087  1.1207 -2.1317 -2.2958
  298MOL0     H41066  -0.303   0.930  10.115  1.2546 -3.6029  0.9838
  298MOL0     H41067  -0.518   0.862  10.325  1.2963  0.4652  3.4683
  298MOL0     H41068  -0.343   0.839  10.335  0.6638 -1.5203 -2.9056
  298MOL0     H41069  -0.428   1.049  10.461  3.2351  2.6355  1.2098
  298MOL0     H41070  -0.519   1.097  10.332 -0.0398 -0.1344  0.8799
  298MOL0     H41071  -0.218   1.097  10.345  1.2989  0.3633 -3.0688
  298MOL0     H41072  -0.308   1.133  10.191  1.9284  0.9113 -0.8331
  298MOL0     H41073  -0.275   1.377  10.149  0.1444  2.4630 -0.6784
  298MOL0     H41074  -0.226   1.686  10.401  4.1790 -2.1176  0.9330
  298MOL0     H41075  -0.341   1.656  10.252  1.3740 -2.0266 -1.8111
  298MOL0     H41076  -0.139   1.562  10.129 -2.5674  1.6710 -2.2967
  298MOL0     H41077  -0.158   1.733  10.151 -0.7643 -1.2113  1.0826
  298MOL0     H41078   0.008   1.553  10.336 -2.0492 -1.5980 -1.5445
  298MOL0     H41079   0.080   1.653  10.212 -0.1260 -0.1542  0.8740
  298MOL0     H41080  -0.054   1.852  10.321 -0.0841  0.6288  0.8272
  298MOL0     H41081  -0.042   1.754  10.466 -4.0808  2.1050 -2.0219
  298MOL0     H41082   0.344   1.911  10.309  1.0077 -0.3812  1.8598
  298MOL0     H41083   0.540   2.179  10.405  1.1280 -1.3003  0.0943
  298MOL0     H41084   0.494   2.178  10.231  0.1285  1.3401  0.6886
  298MOL0     H41085   0.532   2.029  10.308 -1.2842 -0.2927 -0.7732
  298MOL0     H41086   0.564   2.406  10.729  3.3638  2.7783  0.3023
  298MOL0     H41087   0.677   2.608  10.739  0.8041  2.8830 -2.4043
  298MOL0     H41088   0.690   2.801  10.816 -2.4997 -1.4318 -1.6161
  298MOL0     H41089   0.789   2.825  10.663 -1.7295 -0.9177 -1.1573
  298MOL0     H41090   0.724   3.059  10.655  0.4859 -1.2230 -0.9626
  298MOL0     H41091   0.669   3.053  10.829 -2.3098 -2.5072 -2.2537
  298MOL0     H41092   0.934   2.981  10.718 -0.6199 -3.2207  1.2738
  298MOL0     H41093   0.900   2.984  10.890 -1.2754  0.4576 -0.9038
  298MOL0     H41094   1.056   3.163  10.793 -0.0867 -3.4705 -3.2879
  298MOL0     H41095   0.926   3.217  10.906  0.2669 -3.1177  0.8092
  298MOL0     H41096   0.901   3.248  10.602  1.1687 -2.5389  0.7050
  298MOL0     H41097   0.796   3.294  10.724  0.9119  1.8549  0.0690
  298MOL0     H41098   1.081   3.403  10.678 -1.0513  0.0374 -3.1758
  298MOL0     H41099   1.001   3.433  10.828 -0.7173 -1.0886  0.1081
  298MOL0     H41100   0.914   3.623  10.753  2.1156  0.1078 -0.3605
  298MOL0     H41101   0.802   3.518  10.674  0.6774 -3.8563  2.0184
  298MOL0     H41102   0.892   3.677  10.503 -1.5833 -1.2183 -0.6616
  298MOL0     H41103   0.952   3.513  10.469  1.0929  2.3115 -2.2369
  298MOL0     H41104   0.376   2.830  10.549  2.2565  0.5787 -1.5076
  298MOL0     H41105   0.257   2.619  10.489  0.3121  0.4309  0.6277
  298MOL0     H41106   0.069   2.258  10.511  0.0564 -0.3437  0.1301
  298MOL0     H41107  -0.030   2.027  10.480 -1.0786  1.8913 -4.1321
  298MOL0     H41108  -0.040   0.682   9.873  2.7377  0.5875 -3.8729
  298MOL0     H41109  -0.022   0.717   9.630  1.1396  0.1955  1.5648
  298MOL0     H41110   0.348   0.552   9.319 -0.3283 -4.1867 -3.3077
  298MOL0     H41111   0.424   0.616   9.122  2.1090  0.6982  1.7332
  298MOL0     H41112   0.340   0.927   8.794  2.6996 -0.9427  1.6238
  298MOL0     H41113   0.170   0.898   8.841 -0.1196  0.9478  0.6593
  298MOL0     H41114   0.214   0.999   9.061 -2.3054  0.3961 -1.9530
  298MOL0     H41115   0.237   1.108   8.920  2.8444  3.4325  0.9211
  298MOL0     H41116   0.417   0.978   9.109  0.0343  1.7498  1.1435
  298MOL0     H41117   0.502   1.021   8.953  2.0754 -2.3901  2.6607
  298MOL0     H41118   0.534   1.180   9.153 -1.7541  1.1018  1.4390
  298MOL0     H41119   0.362   1.237   9.119 -1.9181 -1.1733 -1.4730
  298MOL0     H41120   0.586   1.449   8.858  4.3871 -2.3979 -1.6283
  298MOL0     H41121   0.065   0.815   9.017  0.3431  0.7261 -0.5667
  298MOL0     H41122  -0.155   0.678   9.238 -1.1734  1.2072 -1.4696
  298MOL0     H41123  -0.075   0.794   9.358  1.9305  3.0966 -1.0889
  298MOL0     H41124  -0.101   0.842   9.191  0.1313 -0.2626  0.6568
  299MOL0     O41125   4.482   5.844   5.029 -0.3377  0.5141 -0.6133
  299MOL0     C41126   4.506   5.790   5.141  0.0235 -0.3993 -0.0523
  299MOL0     O41127   4.519   5.656   5.159 -0.3908 -0.8719 -0.2739
  299MOL0     C41128   4.536   5.578   5.047  0.9294 -0.5865  0.1743
  299MOL0     C41129   4.662   5.545   4.999 -0.1546 -0.1022  0.3036
  299MOL0     C41130   4.677   5.456   4.892 -0.3232 -1.1462 -0.6980
  299MOL0     C41131   4.571   5.382   4.851  0.7307 -0.2894 -0.6290
  299MOL0     O41132   4.602   5.298   4.753  0.1977  0.2631  0.3584
  299MOL0     C41133   4.501   5.212   4.701  0.0924  0.1639  0.9265
  299MOL0     C41134   4.548   5.127   4.570 -0.3743  0.1261  0.8028
  299MOL0     C41135   4.611   5.203   4.450  0.0337 -0.3252 -0.2253
  299MOL0     C41136   4.513   5.274   4.351 -0.0226  0.5784 -1.6739
  299MOL0     C41137   4.479   5.174   4.233 -0.4196  0.2409 -0.9230
  299MOL0     C41138   4.594   5.158   4.131  0.3564  0.1953  0.1127
  299MOL0     C41139   4.573   5.037   4.042  0.6687 -0.8300  0.6184
  299MOL0     C41140   4.661   5.019   3.924 -0.5314 -0.2704 -0.5947
  299MOL0     N41141   4.646   5.132   3.828  0.1722 -0.3355 -0.3000
  299MOL0     C41142   4.521   5.166   3.778 -0.7235  0.0304 -0.1717
  299MOL0     C41143   4.544   5.281   3.713 -0.5965 -0.6163 -0.5424
  299MOL0     C41144   4.449   5.347   3.618  0.0068 -0.0984  0.6754
  299MOL0     C41145   4.462   5.325   3.465 -1.1593 -0.0520 -0.2024
  299MOL0     C41146   4.367   5.418   3.372 -0.7469 -0.1173 -0.1136
  299MOL0     C41147   4.405   5.408   3.225 -1.5756 -0.8415  0.1747
  299MOL0     O41148   4.315   5.501   3.155  0.8192 -0.1135  0.3082
  299MOL0     C41149   4.303   5.631   3.190 -0.1566  0.5643 -0.0642
  299MOL0     C41150   4.415   5.706   3.228  0.8033 -0.6355  0.1113
  299MOL0     C41151   4.406   5.840   3.253 -0.4416  0.2317 -0.9590
  299MOL0     C41152   4.534   5.903   3.303  0.2386 -0.3385  0.6330
  299MOL0     C41153   4.291   5.912   3.241 -0.0868  0.1484  0.3218
  299MOL0     C41154   4.274   6.058   3.261 -0.5578  0.1170  0.8980
  299MOL0     O41155   4.164   6.110   3.201 -0.0295 -0.0332  0.5239
  299MOL0     C41156   4.104   6.224   3.259 -0.2110 -0.0668 -0.2851
  299MOL0     C41157   4.172   6.346   3.273 -0.2840  0.3750 -0.1047
  299MOL0     C41158   4.092   6.465   3.319 -0.2189  0.6724  1.2485
  299MOL0     C41159   3.961   6.455   3.368 -0.3331  0.6923  0.8610
  299MOL0     O41160   3.895   6.571   3.406 -0.4076  0.5393 -0.0154
  299MOL0     C41161   3.781   6.573   3.490  0.4091  0.7792 -0.0166
  299MOL0     C41162   3.658   6.558   3.387 -0.2935  0.7346 -0.0032
  299MOL0     C41163   3.654   6.679   3.294  0.3095 -0.3103  1.0143
  299MOL0     C41164   3.554   6.663   3.182 -1.1396  0.4823  0.2155
  299MOL0     C41165   3.574   6.778   3.082  0.7047  0.0893 -0.4700
  299MOL0     C41166   3.457   6.794   2.988  0.0943  0.5897 -0.1993
  299MOL0     C41167   3.475   6.896   2.878 -0.1667  0.2402 -0.5055
  299MOL0     C41168   3.372   6.859   2.773 -0.0938 -0.1270 -0.1247
  299MOL0    Cl41169   3.217   6.916   2.825 -0.4054  0.1286 -0.0741
  299MOL0     C41170   3.902   6.329   3.359 -0.6078 -0.4864  1.3910
  299MOL0     C41171   3.972   6.219   3.303 -0.0129 -0.0929 -0.4486
  299MOL0     O41172   4.345   6.119   3.342  0.3076 -0.1051 -0.4230
  299MOL0     C41173   4.178   5.840   3.190  0.1721  0.1796  0.5181
  299MOL0     C41174   4.185   5.702   3.161  0.8969  0.0510 -0.4575
  299MOL0     N41175   4.668   5.324   3.737  0.1278  0.6441  0.1780
  299MOL0     N41176   4.732   5.238   3.812 -0.5289  0.8875  0.1805
  299MOL0     C41177   4.447   5.396   4.907 -0.5495 -0.4359  0.1266
  299MOL0     C41178   4.427   5.497   5.006  0.0779  0.0100  0.1350
  299MOL0     C41179   4.528   5.881   5.258  0.3970  0.4810 -0.2225
  299MOL0     C41180   4.620   5.847   5.357  0.3672  0.2549 -0.7087
  299MOL0     C41181   4.633   5.923   5.474  0.5334  0.1312 -0.5241
  299MOL0     C41182   4.574   6.054   5.488  0.4032 -0.7642  0.3671
  299MOL0     O41183   4.593   6.150   5.583 -0.0981  0.0660  0.5071
  299MOL0     C41184   4.708   6.137   5.657 -0.6345 -0.5805 -0.6518
  299MOL0     C41185   4.711   6.249   5.766 -0.2256 -0.0284 -0.1722
  299MOL0     C41186   4.627   6.215   5.889  0.0704 -0.1476 -0.0444
  299MOL0     C41187   4.619   6.350   5.967  0.3666  0.9272 -0.3825
  299MOL0     C41188   4.551   6.339   6.100 -0.6116 -0.3962  0.0320
  299MOL0     C41189   4.496   6.323   6.206 -0.8745  0.4246 -0.5448
  299MOL0     C41190   4.481   6.085   5.396 -0.0113  0.3274  0.0811
  299MOL0     C41191   4.457   6.007   5.278 -0.7473  0.2712 -0.3022
  299MOL0     C41192   4.356   6.059   5.186  0.8726  0.1578  0.9951
  299MOL0     H41193   4.741   5.606   5.042  1.5006 -3.2537  2.0911
  299MOL0     H41194   4.777   5.443   4.851 -0.6045 -2.1763 -1.0833
  299MOL0     H41195   4.419   5.277   4.669 -1.1157 -1.5809  0.2665
  299MOL0     H41196   4.472   5.149   4.786 -0.8153  0.1850  0.6421
  299MOL0     H41197   4.631   5.068   4.610 -1.6295 -1.1481  1.5720
  299MOL0     H41198   4.465   5.061   4.543  0.5792 -2.5440  3.7716
  299MOL0     H41199   4.675   5.280   4.493  0.9892 -1.4776  0.4534
  299MOL0     H41200   4.683   5.129   4.415  1.0274 -0.4232  1.8843
  299MOL0     H41201   4.419   5.301   4.398  0.0294  2.2099 -2.4265
  299MOL0     H41202   4.543   5.376   4.326  1.7286  2.2153  5.0897
  299MOL0     H41203   4.395   5.220   4.181 -0.2255 -0.4121 -1.8515
  299MOL0     H41204   4.464   5.074   4.275 -0.0632  0.1040 -1.1109
  299MOL0     H41205   4.592   5.254   4.078 -1.8012  1.1824  1.8100
  299MOL0     H41206   4.690   5.161   4.185  0.6951  2.0383 -0.5174
  299MOL0     H41207   4.470   5.038   4.005  0.9380 -4.0289 -0.6091
  299MOL0     H41208   4.577   4.946   4.103 -1.3375 -1.7051 -0.4492
  299MOL0     H41209   4.762   5.017   3.967 -1.1077  1.1525  0.9372
  299MOL0     H41210   4.621   4.924   3.887 -1.7925 -1.4059  3.1340
  299MOL0     H41211   4.434   5.104   3.798 -0.6928  0.5795  1.9006
  299MOL0     H41212   4.456   5.456   3.627 -0.7940  0.2202 -1.7269
  299MOL0     H41213   4.348   5.318   3.651 -1.1116  2.3065 -0.4041
  299MOL0     H41214   4.561   5.363   3.437 -1.8954  2.8895  0.7872
  299MOL0     H41215   4.441   5.222   3.436 -0.9059  0.2729 -1.6109
  299MOL0     H41216   4.267   5.386   3.403 -1.3907  2.0600  0.2168
  299MOL0     H41217   4.385   5.515   3.418 -0.1093 -1.5702  2.9334
  299MOL0     H41218   4.511   5.434   3.212 -1.4525 -1.1597  0.5041
  299MOL0     H41219   4.388   5.304   3.195 -4.5924 -0.2702 -0.3957
  299MOL0     H41220   4.514   5.663   3.240  0.0936 -1.8910  1.7647
  299MOL0     H41221   4.541   5.929   3.409 -2.5098  0.9224  0.5956
  299MOL0     H41222   4.552   6.000   3.254  0.0031  1.2138  3.3875
  299MOL0     H41223   4.617   5.834   3.286 -1.5172 -2.4117 -0.0419
  299MOL0     H41224   4.272   6.342   3.230 -0.4156  1.1160 -0.5080
  299MOL0     H41225   4.142   6.562   3.316 -1.9092  1.5688 -1.7078
  299MOL0     H41226   3.791   6.489   3.559 -1.8479  0.2052 -0.3183
  299MOL0     H41227   3.779   6.670   3.542 -0.8464  1.2073 -0.8029
  299MOL0     H41228   3.671   6.470   3.324 -4.4057 -0.2503  0.2552
  299MOL0     H41229   3.561   6.533   3.432 -1.2645 -0.8008 -2.6794
  299MOL0     H41230   3.756   6.692   3.257 -0.1308  0.7177  0.0932
  299MOL0     H41231   3.626   6.768   3.351 -3.9425 -0.0253 -1.1536
  299MOL0     H41232   3.451   6.662   3.219 -2.4493 -0.7043 -3.0984
  299MOL0     H41233   3.594   6.572   3.137  2.1306  1.2360  1.3396
  299MOL0     H41234   3.590   6.873   3.134  3.1232 -1.9849  2.9650
  299MOL0     H41235   3.664   6.757   3.022  1.2217  0.7594  0.0479
  299MOL0     H41236   3.370   6.835   3.041 -0.3180 -0.0082 -0.4076
  299MOL0     H41237   3.435   6.693   2.952  3.9691  0.4348 -2.7003
  299MOL0     H41238   3.573   6.891   2.830 -1.3458 -1.9034 -2.9034
  299MOL0     H41239   3.449   6.996   2.915  0.0522  1.0052 -2.2910
  299MOL0     H41240   3.363   6.754   2.744 -0.2085  0.4750 -2.5028
  299MOL0     H41241   3.400   6.911   2.681 -0.0656 -1.0912 -0.6803
  299MOL0     H41242   3.799   6.309   3.385 -0.9023 -2.3571 -0.8570
  299MOL0     H41243   3.927   6.124   3.277  1.0936 -0.9208  0.4932
  299MOL0     H41244   4.093   5.901   3.160  1.9212  2.4123 -0.1346
  299MOL0     H41245   4.096   5.662   3.114  0.9355  1.8920 -2.2233
  299MOL0     H41246   4.358   5.340   4.881 -1.5367 -0.5149  3.2399
  299MOL0     H41247   4.328   5.513   5.047 -0.4352 -0.4946 -0.8836
  299MOL0     H41248   4.665   5.749   5.355  0.0286 -0.1401  3.2661
  299MOL0     H41249   4.690   5.885   5.558  0.8155  1.3473 -0.1446
  299MOL0     H41250   4.716   6.042   5.710 -0.2208  0.4750  1.2696
  299MOL0     H41251   4.791   6.157   5.588 -0.8375 -0.3843 -0.8397
  299MOL0     H41252   4.690   6.347   5.723  1.8869  0.3607 -0.4284
  299MOL0     H41253   4.816   6.250   5.795  0.4267 -1.2295 -2.2799
  299MOL0     H41254   4.523   6.189   5.867 -0.2554 -0.2060  1.4617
  299MOL0     H41255   4.675   6.139   5.951 -0.1826 -0.1299  0.1717
  299MOL0     H41256   4.553   6.404   5.898  1.7782  0.2462 -2.3617
  299MOL0     H41257   4.713   6.406   5.966  1.2622 -0.4466 -3.0734
  299MOL0     H41258   4.461   6.303   6.306 -0.7799 -0.7845 -0.7373
  299MOL0     H41259   4.438   6.184   5.401 -2.0578 -0.5756  2.9073
  299MOL0     H41260   4.292   6.128   5.241  1.8095 -0.5421  3.0830
  299MOL0     H41261   4.404   6.108   5.101 -0.2446  0.3172  0.4410
  299MOL0     H41262   4.286   5.979   5.162  0.5929  1.1227 -1.7392
  300MOL0     O41263  10.550   7.743   6.345 -0.7407 -0.3199  0.1543
  300MOL0     C41264  10.631   7.765   6.441 -0.2983  0.5350  0.2923
  300MOL0     O41265  10.653   7.898   6.496 -0.2643  0.1805  0.1631
  300MOL0     C41266  10.574   7.998   6.439 -0.0088  0.6313  0.2092
  300MOL0     C41267  10.463   8.052   6.510 -0.4883  0.2996  0.5644
  300MOL0     C41268  10.378   8.151   6.446  0.1661  1.2827 -0.7398
  300MOL0     C41269  10.404   8.192   6.316  0.0578  1.1386  0.4194
  300MOL0     O41270  10.320   8.281   6.260  0.2512  1.1005 -0.2753
  300MOL0     C41271  10.249   8.207   6.148 -0.7414 -0.4527 -0.6517
  300MOL0     C41272  10.116   8.280   6.127 -0.2509 -0.4960  0.0716
  300MOL0     C41273  10.130   8.421   6.072 -0.2069  1.2452  0.4098
  300MOL0     C41274   9.991   8.488   6.080  0.3561  0.3266 -0.2023
  300MOL0     C41275   9.993   8.634   6.092  0.1637 -1.6725  0.0090
  300MOL0     C41276   9.848   8.684   6.125  0.2261  0.3700  0.1496
  300MOL0     C41277   9.823   8.681   6.274  0.2245  0.8067  0.2357
  300MOL0     C41278   9.686   8.721   6.317 -1.0980  0.2201 -0.3459
  300MOL0     N41279   9.647   8.844   6.260 -0.7293  0.0932  0.5285
  300MOL0     C41280   9.563   8.855   6.151  0.5553 -0.2754  0.4516
  300MOL0     C41281   9.556   8.989   6.136 -0.7975 -0.4149  0.9033
  300MOL0     C41282   9.471   9.068   6.046  0.4421  0.3880  0.9210
  300MOL0     C41283   9.521   9.053   5.901 -0.1873  0.6561 -0.0188
  300MOL0     C41284   9.431   9.123   5.804 -0.1697 -0.3404  0.0326
  300MOL0     C41285   9.516   9.149   5.681 -0.2860 -0.9741  0.0421
  300MOL0     O41286   9.537   9.035   5.614  0.0439 -0.0770 -0.4071
  300MOL0     C41287   9.610   9.043   5.492 -0.2542 -0.5455 -0.3118
  300MOL0     C41288   9.616   8.920   5.428  1.2869  0.8054  0.5820
  300MOL0     C41289   9.673   8.900   5.303 -1.5007 -1.2332 -0.5438
  300MOL0     C41290   9.653   8.784   5.216  0.3988  0.0747  0.7081
  300MOL0     C41291   9.739   9.019   5.245 -0.0317 -0.4624  0.8562
  300MOL0     C41292   9.788   9.016   5.102 -0.1332 -0.7778  0.0109
  300MOL0     O41293   9.862   8.918   5.053 -0.2526 -0.1533  0.3855
  300MOL0     C41294   9.861   8.898   4.913 -1.0144 -0.1425  0.0691
  300MOL0     C41295   9.752   8.872   4.837 -0.3894  0.4646 -0.1466
  300MOL0     C41296   9.768   8.836   4.700  0.8045  0.7221 -0.5115
  300MOL0     C41297   9.894   8.853   4.643 -0.5573 -0.5417  0.0920
  300MOL0     O41298   9.893   8.816   4.504 -0.4807 -0.4591  0.1756
  300MOL0     C41299  10.010   8.849   4.421 -0.0195 -0.2896  0.3334
  300MOL0     C41300   9.973   8.868   4.279  0.4846 -0.0948 -0.3905
  300MOL0     C41301  10.095   8.877   4.191 -0.3291 -0.4630 -0.5137
  300MOL0     C41302  10.064   8.911   4.048  0.3694  0.2992  0.7929
  300MOL0     C41303   9.958   8.835   3.973 -0.5403  0.3190 -0.4156
  300MOL0     C41304   9.916   8.894   3.839  0.8658 -0.4244 -0.0406
  300MOL0     C41305   9.832   8.789   3.770 -0.8229  0.2231  0.2692
  300MOL0     C41306   9.737   8.841   3.664  0.7285  0.5069 -0.0471
  300MOL0    Cl41307   9.668   8.722   3.555  0.2501  0.3340  0.4980
  300MOL0     C41308  10.007   8.889   4.717  0.2834 -0.2864  0.4245
  300MOL0     C41309   9.987   8.914   4.848  0.9020 -0.7181  0.0170
  300MOL0     O41310   9.766   9.120   5.043  0.5059  0.6594  0.6377
  300MOL0     C41311   9.732   9.149   5.313 -0.6126  0.4696  0.5222
  300MOL0     C41312   9.669   9.155   5.436  0.2400  0.7843 -0.9487
  300MOL0     N41313   9.635   9.055   6.229  0.5357  0.0189  0.3091
  300MOL0     N41314   9.686   8.964   6.303  0.0710 -0.8148  0.4305
  300MOL0     C41315  10.515   8.143   6.248  0.5956 -1.0890  0.2598
  300MOL0     C41316  10.599   8.050   6.309 -1.1121  0.2643  0.0053
  300MOL0     C41317  10.713   7.655   6.495 -0.9461 -0.3119  0.9585
  300MOL0     C41318  10.791   7.685   6.611 -0.2434  0.7256 -0.8172
  300MOL0     C41319  10.882   7.596   6.662 -0.2275 -0.5449  0.8753
  300MOL0     C41320  10.898   7.467   6.609  1.0486 -0.1909 -0.8631
  300MOL0     O41321  10.996   7.385   6.658 -0.1536  0.5568  0.3619
  300MOL0     C41322  11.056   7.404   6.786 -0.2471 -0.2269  0.4725
  300MOL0     C41323  10.965   7.397   6.919 -0.6072 -0.7889  0.0296
  300MOL0     C41324  11.051   7.356   7.048 -0.1539  0.6509  1.0245
  300MOL0     C41325  10.977   7.388   7.177  0.2789  0.1447  0.0677
  300MOL0     C41326  11.057   7.349   7.301 -1.6901 -0.0047 -0.2104
  300MOL0     C41327  11.131   7.327   7.399 -1.4822 -0.2824 -0.7914
  300MOL0     C41328  10.810   7.434   6.502 -0.2306 -0.4740 -0.9954
  300MOL0     C41329  10.722   7.525   6.440 -0.1013  0.6156  0.6335
  300MOL0     C41330  10.661   7.479   6.313 -0.6048 -0.9084  0.7050
  300MOL0     H41331  10.445   8.021   6.612  1.7635 -0.6615  0.7300
  300MOL0     H41332  10.294   8.185   6.505  0.6386  1.5144 -0.1837
  300MOL0     H41333  10.238   8.101   6.175 -0.6994 -0.7601 -1.7966
  300MOL0     H41334  10.301   8.216   6.052 -0.4958  2.9742 -0.3164
  300MOL0     H41335  10.048   8.224   6.062 -1.5775  0.1219  0.8919
  300MOL0     H41336  10.084   8.281   6.232 -0.8416 -1.3505 -0.0914
  300MOL0     H41337  10.198   8.482   6.133 -0.3349 -1.5106  3.5761
  300MOL0     H41338  10.157   8.419   5.966 -2.4943  1.1202 -0.2079
  300MOL0     H41339   9.934   8.472   5.988 -4.2452  2.4298  1.9532
  300MOL0     H41340   9.942   8.436   6.162  2.1900  2.4083  2.3895
  300MOL0     H41341  10.008   8.664   5.988  0.7720  3.6476  1.3429
  300MOL0     H41342  10.082   8.656   6.152  1.2833 -3.0033 -1.0979
  300MOL0     H41343   9.845   8.793   6.109  0.7271  0.5748  1.3761
  300MOL0     H41344   9.776   8.630   6.063  0.7962  2.6823 -2.7974
  300MOL0     H41345   9.895   8.751   6.318  0.5494  1.1961 -0.8533
  300MOL0     H41346   9.845   8.583   6.316  2.6849  1.6806  1.2056
  300MOL0     H41347   9.611   8.642   6.305 -0.0408 -0.5185 -2.6846
  300MOL0     H41348   9.685   8.740   6.425  1.8133  2.9377 -0.6446
  300MOL0     H41349   9.499   8.784   6.099  2.8473 -1.5571 -0.7390
  300MOL0     H41350   9.465   9.174   6.074  1.6356  0.0285  2.7945
  300MOL0     H41351   9.373   9.021   6.052  0.2562  0.7233  0.5707
  300MOL0     H41352   9.627   9.080   5.899  0.0579 -0.2932 -0.6352
  300MOL0     H41353   9.526   8.948   5.873 -4.9194  0.4734 -0.9890
  300MOL0     H41354   9.351   9.051   5.784 -1.6257  0.7947  1.5261
  300MOL0     H41355   9.387   9.220   5.829  0.6449  0.2860 -0.8934
  300MOL0     H41356   9.471   9.214   5.604  1.8531  2.2555  1.2879
  300MOL0     H41357   9.610   9.196   5.713 -1.2252  2.2435 -1.4073
  300MOL0     H41358   9.570   8.833   5.474 -0.4579  0.4647 -1.6398
  300MOL0     H41359   9.600   8.820   5.127  0.2000  0.6055  1.0326
  300MOL0     H41360   9.590   8.719   5.277 -1.7914  2.5310  1.2129
  300MOL0     H41361   9.753   8.743   5.195 -0.1634 -0.0071 -2.3713
  300MOL0     H41362   9.653   8.856   4.879 -0.9572 -3.2773 -2.4691
  300MOL0     H41363   9.694   8.793   4.634  3.2625 -0.7615 -2.4284
  300MOL0     H41364  10.053   8.945   4.454 -0.6130 -0.3313  1.2918
  300MOL0     H41365  10.096   8.784   4.439  1.1315  1.1702  0.3255
  300MOL0     H41366   9.915   8.784   4.241  0.0697 -0.2214  0.5154
  300MOL0     H41367   9.919   8.963   4.277 -0.7007 -0.6753  1.7608
  300MOL0     H41368  10.143   8.778   4.189  0.9757  0.0984 -3.6705
  300MOL0     H41369  10.155   8.960   4.228 -0.2837 -0.9016  0.4181
  300MOL0     H41370  10.164   8.896   4.006 -0.4962 -3.1499 -0.3990
  300MOL0     H41371  10.041   9.018   4.049  0.9344  0.5727 -2.7179
  300MOL0     H41372   9.999   8.733   3.971  1.2413  0.9468 -3.8867
  300MOL0     H41373   9.867   8.830   4.034  0.2311  0.1125  0.7569
  300MOL0     H41374  10.002   8.917   3.775  0.4826  0.8084 -0.1238
  300MOL0     H41375   9.857   8.981   3.869  0.2630 -1.2402  1.2437
  300MOL0     H41376   9.785   8.726   3.846 -0.5200  1.2848  1.3602
  300MOL0     H41377   9.909   8.727   3.723  1.1506  0.2074  3.2655
  300MOL0     H41378   9.805   8.898   3.600  2.1139  0.4053  1.2893
  300MOL0     H41379   9.662   8.904   3.712  1.4338  1.5121 -0.2318
  300MOL0     H41380  10.105   8.900   4.673 -0.1873 -1.9114 -1.1150
  300MOL0     H41381  10.073   8.949   4.904 -0.4716  0.4482  1.5050
  300MOL0     H41382   9.767   9.242   5.269  0.5919  0.1515  0.7563
  300MOL0     H41383   9.662   9.252   5.485  2.9230  0.6213 -0.1005
  300MOL0     H41384  10.531   8.181   6.148 -0.0898 -1.0061  0.1729
  300MOL0     H41385  10.674   7.996   6.252 -0.2795 -0.7815  2.0007
  300MOL0     H41386  10.797   7.787   6.646  0.0595  0.9248 -1.4418
  300MOL0     H41387  10.951   7.631   6.738  1.9200 -1.8980 -0.3239
  300MOL0     H41388  11.117   7.313   6.797 -0.1582 -0.2325 -0.0706
  300MOL0     H41389  11.122   7.491   6.781 -1.7143  1.3522  4.5416
  300MOL0     H41390  10.908   7.307   6.897  0.4099 -2.2347  2.8100
  300MOL0     H41391  10.916   7.495   6.925 -1.0414 -0.9071 -1.3251
  300MOL0     H41392  11.096   7.257   7.046 -1.5021 -0.0146 -1.9745
  300MOL0     H41393  11.142   7.415   7.034 -0.1641  0.0025 -3.5527
  300MOL0     H41394  10.883   7.332   7.183  1.2206 -1.7703 -1.5590
  300MOL0     H41395  10.936   7.489   7.181 -1.3283 -0.4804  0.3874
  300MOL0     H41396  11.198   7.313   7.481  0.7892 -0.4714 -2.5725
  300MOL0     H41397  10.815   7.333   6.462  3.4297  0.7513 -4.3788
  300MOL0     H41398  10.558   7.515   6.310 -0.6933 -1.0271 -2.8697
  300MOL0     H41399  10.713   7.534   6.233 -1.2827 -0.7411  0.3723
  300MOL0     H41400  10.660   7.371   6.296  0.0866 -1.0550  1.5247
  301MOL0     O41401   3.719   7.113   7.549  0.1921  0.0905 -0.1694
  301MOL0     C41402   3.711   6.990   7.549  1.0095  0.7441 -0.6605
  301MOL0     O41403   3.638   6.906   7.638 -0.0891 -0.0672  0.2246
  301MOL0     C41404   3.561   6.963   7.735  0.0190  0.0096 -1.0945
  301MOL0     C41405   3.564   6.896   7.864 -0.0637  0.4613  0.1456
  301MOL0     C41406   3.483   6.942   7.972 -0.3514 -0.4282  0.2131
  301MOL0     C41407   3.402   7.048   7.964  0.7016 -0.9220  0.4692
  301MOL0     O41408   3.313   7.067   8.066 -0.0689 -0.2241  0.0013
  301MOL0     C41409   3.250   7.191   8.077 -0.3886  0.4739  0.6195
  301MOL0     C41410   3.210   7.212   8.215  0.7495 -0.0943 -0.2810
  301MOL0     C41411   3.324   7.245   8.319 -0.2931 -1.0193  0.6389
  301MOL0     C41412   3.372   7.117   8.380 -0.6243 -0.1589 -0.2893
  301MOL0     C41413   3.477   7.132   8.494 -0.3833 -0.1160 -0.5364
  301MOL0     C41414   3.596   7.225   8.475 -0.4898  0.0064  0.3823
  301MOL0     C41415   3.709   7.182   8.367  1.8396 -0.3669 -0.2621
  301MOL0     C41416   3.840   7.142   8.436  1.0251  0.6682  0.3310
  301MOL0     N41417   3.946   7.138   8.338  0.2953 -0.3496  0.1786
  301MOL0     C41418   3.932   7.107   8.204 -0.2157 -0.2396 -0.1261
  301MOL0     C41419   4.033   7.179   8.143 -0.0010 -0.9545  0.2358
  301MOL0     C41420   4.057   7.169   7.994 -0.3197  0.2706  0.2981
  301MOL0     C41421   4.201   7.144   7.956 -0.1779  0.3115  0.1787
  301MOL0     C41422   4.201   7.066   7.823  0.5314  1.5352  0.6288
  301MOL0     C41423   4.335   7.019   7.764 -0.2616 -0.3602 -0.8886
  301MOL0     O41424   4.432   7.117   7.759 -0.1262 -0.1062 -0.2769
  301MOL0     C41425   4.553   7.060   7.714  0.9345 -0.4452 -0.9660
  301MOL0     C41426   4.591   7.090   7.583 -1.6107  0.4833  0.4565
  301MOL0     C41427   4.717   7.047   7.544  0.1701 -0.0848  0.2575
  301MOL0     C41428   4.750   7.073   7.391  0.5417 -0.3560  0.1762
  301MOL0     C41429   4.807   6.969   7.627  0.1821 -0.2268  0.1091
  301MOL0     C41430   4.945   6.929   7.596  0.1527  0.3137  0.0722
  301MOL0     O41431   5.011   6.836   7.689 -0.2802  0.1206 -0.4044
  301MOL0     C41432   5.126   6.768   7.655  0.1535  0.8804  0.0463
  301MOL0     C41433   5.157   6.725   7.525 -0.4608 -0.4369 -0.3521
  301MOL0     C41434   5.275   6.652   7.510 -0.0999  0.2590  0.5663
  301MOL0     C41435   5.355   6.612   7.613 -0.1477  0.9198  0.2654
  301MOL0     O41436   5.475   6.543   7.588 -0.5319 -0.0898 -0.4590
  301MOL0     C41437   5.519   6.448   7.687  0.1937  0.1764 -0.6279
  301MOL0     C41438   5.627   6.523   7.768 -0.0141  1.0785  0.2293
  301MOL0     C41439   5.743   6.413   7.800  0.4154  0.4369  0.4654
  301MOL0     C41440   5.844   6.397   7.686 -0.0845 -0.3208  0.6037
  301MOL0     C41441   5.918   6.270   7.688 -0.9624  0.8974  0.0549
  301MOL0     C41442   5.997   6.245   7.821  0.0861 -0.3346 -0.6845
  301MOL0     C41443   6.094   6.119   7.830  0.2682  0.1727 -0.2168
  301MOL0     C41444   6.117   6.076   7.971 -0.1619 -0.0594  0.9716
  301MOL0    Cl41445   6.199   6.206   8.054  0.3449 -0.1654 -0.3517
  301MOL0     C41446   5.316   6.648   7.747 -0.2794  1.5927  0.0765
  301MOL0     C41447   5.203   6.730   7.761 -0.3002 -0.7418 -0.5319
  301MOL0     O41448   5.007   6.983   7.504 -0.0171  0.0272 -0.9722
  301MOL0     C41449   4.767   6.941   7.755 -0.2137 -0.6478 -0.5767
  301MOL0     C41450   4.632   6.977   7.798 -0.4745 -0.5440 -0.0479
  301MOL0     N41451   4.107   7.243   8.243 -1.6677  0.6652  0.7757
  301MOL0     N41452   4.054   7.223   8.354  0.6551 -0.3293  0.5322
  301MOL0     C41453   3.397   7.115   7.840  0.0666  0.8943  0.9246
  301MOL0     C41454   3.473   7.072   7.725  0.8370 -0.8985  0.5589
  301MOL0     C41455   3.785   6.904   7.451  0.5240 -0.6992 -0.0242
  301MOL0     C41456   3.735   6.783   7.409  0.0653  0.5090 -0.5519
  301MOL0     C41457   3.811   6.688   7.345  0.2778  0.1401 -0.3273
  301MOL0     C41458   3.947   6.715   7.324  0.0966  0.3744 -0.7301
  301MOL0     O41459   4.031   6.621   7.275  0.6642  0.3699 -0.2777
  301MOL0     C41460   4.011   6.478   7.298 -0.3499  0.0140 -0.3722
  301MOL0     C41461   3.967   6.392   7.189  0.9041 -0.7536 -0.0426
  301MOL0     C41462   4.079   6.383   7.089 -0.2745 -0.7897 -0.6958
  301MOL0     C41463   4.039   6.300   6.966 -0.5348 -0.1495  0.1906
  301MOL0     C41464   4.140   6.285   6.863  0.6418 -0.3821 -0.1679
  301MOL0     C41465   4.214   6.295   6.766  0.0131  0.1975 -0.0420
  301MOL0     C41466   3.994   6.843   7.354 -1.1562  0.6819  0.0757
  301MOL0     C41467   3.908   6.944   7.408 -0.5059  0.3803  0.6616
  301MOL0     C41468   3.972   7.080   7.426  0.1830  0.2561 -0.0669
  301MOL0     H41469   3.623   6.806   7.853  0.0310  0.7397 -1.9712
  301MOL0     H41470   3.488   6.890   8.067 -1.1541  1.1173  1.1222
  301MOL0     H41471   3.171   7.189   8.001  0.7343 -2.1726 -0.6056
  301MOL0     H41472   3.306   7.283   8.058 -3.3245  2.2236 -0.2311
  301MOL0     H41473   3.140   7.295   8.211 -1.5797 -1.7459  2.4489
  301MOL0     H41474   3.151   7.127   8.251  0.6273  1.0278  2.3307
  301MOL0     H41475   3.399   7.309   8.271  0.4092 -1.1679  1.5071
  301MOL0     H41476   3.273   7.299   8.399 -0.2705 -4.6114  3.3269
  301MOL0     H41477   3.288   7.064   8.427 -1.2912  2.7999  2.2046
  301MOL0     H41478   3.408   7.056   8.297 -1.6970 -3.3373  1.3826
  301MOL0     H41479   3.506   7.032   8.528 -0.1434 -0.3838 -1.4902
  301MOL0     H41480   3.420   7.164   8.582 -0.2607 -1.0527 -0.0989
  301MOL0     H41481   3.562   7.328   8.464  1.6067  0.4930 -2.8370
  301MOL0     H41482   3.648   7.234   8.570 -3.7328 -1.6031  2.5024
  301MOL0     H41483   3.740   7.270   8.310  3.2959 -1.0162 -0.5294
  301MOL0     H41484   3.663   7.113   8.296  1.8817  1.8521 -2.5639
  301MOL0     H41485   3.852   7.230   8.500  0.8519  0.7537  0.2480
  301MOL0     H41486   3.835   7.049   8.492  0.5415  0.4006 -0.1474
  301MOL0     H41487   3.855   7.054   8.149 -1.4280  0.7156  0.5835
  301MOL0     H41488   4.016   7.254   7.939  0.7341  1.7449  1.6645
  301MOL0     H41489   4.003   7.078   7.969  0.3672 -0.3989  1.1432
  301MOL0     H41490   4.263   7.234   7.944  2.2744 -1.4306 -1.1667
  301MOL0     H41491   4.257   7.078   8.022  2.2214  2.0961  0.0730
  301MOL0     H41492   4.144   6.976   7.849  1.8717  0.5029  0.0850
  301MOL0     H41493   4.147   7.117   7.743  0.1658 -0.5039 -0.4847
  301MOL0     H41494   4.363   6.941   7.835 -0.3530  2.5407  2.6307
  301MOL0     H41495   4.325   6.979   7.663  2.0560 -3.3386 -0.1055
  301MOL0     H41496   4.525   7.151   7.523 -1.4943  1.6203  1.4568
  301MOL0     H41497   4.811   6.993   7.347  0.7258 -0.0532 -0.1233
  301MOL0     H41498   4.810   7.163   7.373 -0.3691  0.2908  0.3111
  301MOL0     H41499   4.674   7.056   7.314 -1.4317 -1.8401  2.2858
  301MOL0     H41500   5.088   6.767   7.452 -2.0042  0.5236  1.5736
  301MOL0     H41501   5.315   6.625   7.413  1.0544  5.0578 -0.5459
  301MOL0     H41502   5.448   6.406   7.758 -1.0049  2.3719 -0.4356
  301MOL0     H41503   5.559   6.362   7.632 -0.6330  0.3050 -1.4619
  301MOL0     H41504   5.674   6.598   7.704  0.6600 -0.6426 -1.3962
  301MOL0     H41505   5.584   6.570   7.856  0.2175  0.7452  0.5245
  301MOL0     H41506   5.690   6.319   7.813  0.0533  0.1230 -2.6711
  301MOL0     H41507   5.798   6.439   7.891  2.1657  2.0812 -0.9779
  301MOL0     H41508   5.905   6.487   7.697  0.6504 -0.9913  2.3745
  301MOL0     H41509   5.789   6.402   7.592 -1.5664  1.0295  1.4732
  301MOL0     H41510   5.854   6.182   7.682  0.9851 -0.4966 -1.6068
  301MOL0     H41511   5.975   6.267   7.594 -1.6828 -0.1320 -0.3640
  301MOL0     H41512   5.921   6.231   7.899  0.1596  2.2768 -0.0546
  301MOL0     H41513   6.048   6.336   7.854 -2.4723  2.1284 -3.0106
  301MOL0     H41514   6.182   6.136   7.768 -1.2335  0.8418 -2.3186
  301MOL0     H41515   6.044   6.033   7.785  2.0468 -0.4661 -1.0540
  301MOL0     H41516   6.167   5.979   7.971 -0.0210  0.0122  1.2517
  301MOL0     H41517   6.023   6.045   8.018 -0.3987 -0.3751  0.3120
  301MOL0     H41518   5.382   6.621   7.829 -0.8023 -0.1693 -0.0485
  301MOL0     H41519   5.169   6.765   7.858 -1.0397 -3.4266  0.2592
  301MOL0     H41520   4.827   6.904   7.837 -0.4371  0.6742  0.2259
  301MOL0     H41521   4.600   6.949   7.898  1.7581 -0.1537  0.8320
  301MOL0     H41522   3.321   7.192   7.828  1.4295  2.1319  0.0014
  301MOL0     H41523   3.463   7.108   7.623 -1.7052 -0.4617  0.9060
  301MOL0     H41524   3.637   6.755   7.447  0.9758  2.4048  3.7323
  301MOL0     H41525   3.755   6.595   7.343  0.2026 -0.1113  3.9090
  301MOL0     H41526   4.112   6.443   7.322 -1.4028 -1.7996  1.7427
  301MOL0     H41527   3.953   6.455   7.388  0.3307  0.4468  0.1904
  301MOL0     H41528   3.876   6.443   7.157  0.2346 -0.3041  2.3214
  301MOL0     H41529   3.940   6.293   7.226 -2.5132 -1.1507 -3.0594
  301MOL0     H41530   4.116   6.481   7.057  0.6474 -0.5430  0.9947
  301MOL0     H41531   4.169   6.346   7.140 -0.3698 -0.9259 -0.6259
  301MOL0     H41532   3.954   6.345   6.914 -1.0244 -2.1987 -0.9025
  301MOL0     H41533   4.013   6.198   6.998  2.2737 -0.0824  3.2048
  301MOL0     H41534   4.288   6.311   6.690  1.1034 -1.3237  0.6513
  301MOL0     H41535   4.099   6.869   7.346 -0.4182 -1.8503  0.4980
  301MOL0     H41536   3.977   7.098   7.534  1.1559 -1.4814  0.2104
  301MOL0     H41537   4.069   7.071   7.378 -0.9429 -1.1670 -2.2568
  301MOL0     H41538   3.917   7.154   7.367 -3.6213 -2.9301 -0.9605
  302MOL0     O41539   5.534   7.143   3.427  0.0228  0.6047  0.2327
  302MOL0     C41540   5.626   7.097   3.369 -0.0222  0.5428  0.1888
  302MOL0     O41541   5.616   6.993   3.280 -0.6453 -0.0604 -0.1459
  302MOL0     C41542   5.495   6.930   3.265 -0.1256  0.0040 -0.8254
  302MOL0     C41543   5.391   6.975   3.205  0.6305 -0.4633 -0.2400
  302MOL0     C41544   5.268   6.906   3.214  0.5300  0.7582 -0.8988
  302MOL0     C41545   5.256   6.789   3.293  0.1250  0.3775  0.0133
  302MOL0     O41546   5.137   6.720   3.278 -0.5960  0.4398 -0.2787
  302MOL0     C41547   5.120   6.596   3.351 -0.9685  0.7010 -0.2248
  302MOL0     C41548   5.169   6.466   3.291  0.4290 -0.0722  0.5235
  302MOL0     C41549   5.090   6.426   3.165  0.4434  0.5059  0.1698
  302MOL0     C41550   5.100   6.270   3.152  0.7506 -0.6367 -0.4466
  302MOL0     C41551   4.977   6.208   3.218  0.6079  0.2684  0.1763
  302MOL0     C41552   5.004   6.052   3.229 -0.4691 -0.3066 -0.7378
  302MOL0     C41553   4.991   5.998   3.374  1.0447 -0.6674  0.0641
  302MOL0     C41554   5.095   6.064   3.468 -0.5533 -0.0153 -0.3300
  302MOL0     N41555   5.044   6.075   3.613 -0.3554 -0.5646  0.5605
  302MOL0     C41556   5.048   5.972   3.708 -0.2995  0.2309 -0.1806
  302MOL0     C41557   4.964   6.000   3.798 -0.3142 -0.7463 -0.4251
  302MOL0     C41558   4.940   5.910   3.914  0.1104 -0.4216 -0.8776
  302MOL0     C41559   4.900   5.767   3.877 -0.3305  0.9798 -0.7780
  302MOL0     C41560   4.853   5.691   3.998  0.4890 -0.3231  0.2866
  302MOL0     C41561   4.807   5.557   3.952 -0.5080  0.1810 -0.1163
  302MOL0     O41562   4.928   5.473   3.946  0.2051  0.0421  0.6145
  302MOL0     C41563   4.960   5.395   4.044 -0.1155  0.9478  0.5165
  302MOL0     C41564   5.068   5.314   4.007 -0.1530 -0.2095 -0.6020
  302MOL0     C41565   5.130   5.224   4.091  0.1278 -0.1563 -0.2225
  302MOL0     C41566   5.253   5.153   4.037 -0.1632 -0.6526 -0.3612
  302MOL0     C41567   5.073   5.204   4.221  0.6310  0.0789  0.2735
  302MOL0     C41568   5.138   5.121   4.322  0.3992 -0.1836  0.0220
  302MOL0     O41569   5.275   5.111   4.328  0.4104  0.2277  0.6150
  302MOL0     C41570   5.344   4.997   4.359  0.2148  0.0412 -0.4195
  302MOL0     C41571   5.478   5.001   4.407 -0.1611  0.4992  0.5004
  302MOL0     C41572   5.561   4.892   4.447 -0.5248  0.1110 -0.4730
  302MOL0     C41573   5.514   4.767   4.415 -0.1858 -0.5372 -0.7464
  302MOL0     O41574   5.594   4.663   4.446  0.6917 -0.3699  0.0209
  302MOL0     C41575   5.642   4.583   4.329 -0.1224 -0.3005 -0.0587
  302MOL0     C41576   5.701   4.451   4.383  0.1068  0.1638 -0.5166
  302MOL0     C41577   5.606   4.368   4.460  1.0694  0.0761 -0.8310
  302MOL0     C41578   5.559   4.248   4.386 -0.1705  0.2310  0.0086
  302MOL0     C41579   5.460   4.175   4.478 -0.7590  1.1261  0.5358
  302MOL0     C41580   5.493   4.143   4.626  0.5618 -0.7349  0.4806
  302MOL0     C41581   5.407   4.022   4.679  1.1667 -0.5982  1.1095
  302MOL0     C41582   5.339   4.044   4.819  0.1529 -0.2468  0.0663
  302MOL0    Cl41583   5.448   4.111   4.941  0.3519 -0.4150  0.1710
  302MOL0     C41584   5.383   4.757   4.369  0.6286  0.2021 -0.0305
  302MOL0     C41585   5.300   4.865   4.335  0.1880 -0.0100  1.1349
  302MOL0     O41586   5.063   5.055   4.395 -0.4424 -0.7355  0.5764
  302MOL0     C41587   4.959   5.283   4.261 -0.2553  0.1431 -0.1162
  302MOL0     C41588   4.915   5.390   4.175  0.2522 -0.5920  0.2167
  302MOL0     N41589   4.903   6.122   3.768 -0.1665  0.2634 -0.1421
  302MOL0     N41590   4.965   6.166   3.664  0.6225 -0.3378 -0.7009
  302MOL0     C41591   5.375   6.735   3.345  0.0962  0.2036 -0.0929
  302MOL0     C41592   5.494   6.803   3.330 -0.0072  0.3789  0.0027
  302MOL0     C41593   5.763   7.152   3.394  0.2208 -0.1842 -0.0528
  302MOL0     C41594   5.863   7.060   3.387 -0.5523 -0.6275  0.1565
  302MOL0     C41595   5.995   7.105   3.402  0.0778 -0.1778 -0.9787
  302MOL0     C41596   6.034   7.239   3.435  1.2164 -0.0830  0.3525
  302MOL0     O41597   6.163   7.272   3.458  0.3438  0.3220  0.3060
  302MOL0     C41598   6.201   7.406   3.428 -0.3785  0.7230  0.2166
  302MOL0     C41599   6.355   7.407   3.423  0.2019 -0.9228 -0.9846
  302MOL0     C41600   6.403   7.368   3.292  0.5711 -0.3093 -0.3068
  302MOL0     C41601   6.545   7.413   3.255  0.2657 -0.8816  0.0294
  302MOL0     C41602   6.548   7.538   3.176 -0.7935  0.0563  0.6772
  302MOL0     C41603   6.561   7.645   3.128  1.3272  0.1736 -0.1935
  302MOL0     C41604   5.921   7.326   3.451 -0.3044  0.1628 -0.4426
  302MOL0     C41605   5.790   7.288   3.421 -0.4068 -0.2598 -0.3510
  302MOL0     C41606   5.695   7.391   3.425  0.3574  0.7967 -0.3681
  302MOL0     H41607   5.396   7.068   3.150  0.8481  0.9483  2.0478
  302MOL0     H41608   5.179   6.936   3.160  0.3408 -2.1098 -2.3631
  302MOL0     H41609   5.013   6.579   3.366 -1.3783  3.2947  0.1731
  302MOL0     H41610   5.161   6.603   3.452  2.2659  1.4608 -1.4781
  302MOL0     H41611   5.276   6.480   3.274  0.6886 -0.5335  1.6558
  302MOL0     H41612   5.167   6.390   3.370 -1.4873 -0.5806  0.0328
  302MOL0     H41613   4.987   6.463   3.171  0.6194  0.8409  1.6363
  302MOL0     H41614   5.131   6.471   3.075 -2.5548 -0.0004 -1.6074
  302MOL0     H41615   5.099   6.251   3.044 -0.0846  0.2276 -0.6056
  302MOL0     H41616   5.191   6.226   3.193  0.8807 -0.4195 -0.4971
  302MOL0     H41617   4.882   6.219   3.165 -0.0170 -1.4311  0.8674
  302MOL0     H41618   4.963   6.257   3.315  1.7519  0.2263  0.3776
  302MOL0     H41619   4.938   5.993   3.164 -2.4950 -0.8659  1.6699
  302MOL0     H41620   5.108   6.031   3.203 -0.6527 -0.1159 -1.6701
  302MOL0     H41621   5.005   5.890   3.385  1.1613 -0.6663 -0.0718
  302MOL0     H41622   4.891   6.020   3.414  2.1211  0.0921  2.4969
  302MOL0     H41623   5.196   6.026   3.451 -0.1112  1.5572 -1.4478
  302MOL0     H41624   5.116   6.168   3.442 -1.0922 -0.4448 -2.6819
  302MOL0     H41625   5.111   5.885   3.691  2.0565  1.0562  3.2612
  302MOL0     H41626   4.862   5.952   3.978 -0.1612  1.4133 -2.3342
  302MOL0     H41627   5.032   5.904   3.974  0.0942  0.7889 -0.7054
  302MOL0     H41628   4.818   5.778   3.805  0.7930  1.3852 -2.0321
  302MOL0     H41629   4.986   5.721   3.829  1.6326  1.0408  2.4074
  302MOL0     H41630   4.936   5.685   4.069  0.4177  2.6270  0.7469
  302MOL0     H41631   4.772   5.738   4.054 -0.9113 -0.6998 -1.3519
  302MOL0     H41632   4.729   5.516   4.016 -1.0553 -0.0644 -0.9267
  302MOL0     H41633   4.766   5.556   3.851  0.0332  3.8667 -0.5127
  302MOL0     H41634   5.100   5.325   3.904 -2.3333 -3.4073 -1.7733
  302MOL0     H41635   5.267   5.165   3.929  1.3058 -4.2038 -0.6933
  302MOL0     H41636   5.241   5.045   4.051 -1.3934 -0.4699  0.0872
  302MOL0     H41637   5.343   5.186   4.090 -0.7252  3.2665 -1.5232
  302MOL0     H41638   5.531   5.095   4.409 -0.6241  0.7934 -0.4074
  302MOL0     H41639   5.660   4.915   4.485 -1.8339  3.2572  1.4809
  302MOL0     H41640   5.560   4.554   4.263  0.3771 -0.1340 -0.7701
  302MOL0     H41641   5.714   4.639   4.268 -1.6672 -0.9794 -2.6835
  302MOL0     H41642   5.719   4.388   4.296 -0.0241  1.1398 -1.2662
  302MOL0     H41643   5.788   4.475   4.445 -1.8530  0.7637  2.1950
  302MOL0     H41644   5.521   4.427   4.497  0.7340 -1.5617  1.1627
  302MOL0     H41645   5.660   4.347   4.553 -1.7279  0.5605  1.0293
  302MOL0     H41646   5.645   4.181   4.370  0.5538  1.4981 -1.7047
  302MOL0     H41647   5.506   4.271   4.293 -3.0240  2.7518  2.0979
  302MOL0     H41648   5.372   4.240   4.483  0.3569  2.6498  1.2166
  302MOL0     H41649   5.424   4.083   4.430 -0.4584  1.9918 -1.4679
  302MOL0     H41650   5.474   4.234   4.684  1.9614 -0.4444  0.5049
  302MOL0     H41651   5.599   4.136   4.651  0.6669  1.8362  1.0094
  302MOL0     H41652   5.450   3.922   4.675 -1.9765 -2.0518  0.1369
  302MOL0     H41653   5.314   4.025   4.620  0.7647  1.8392  1.7580
  302MOL0     H41654   5.293   3.949   4.847 -2.6260  0.3430 -2.0575
  302MOL0     H41655   5.250   4.107   4.813 -0.5138 -0.7841  2.6922
  302MOL0     H41656   5.343   4.657   4.355 -0.1024  0.4537  0.2338
  302MOL0     H41657   5.200   4.850   4.297 -0.4905 -1.9862  3.4757
  302MOL0     H41658   4.910   5.276   4.358 -1.7744  1.6569 -0.7208
  302MOL0     H41659   4.831   5.446   4.215 -2.4817 -4.2781  0.1398
  302MOL0     H41660   5.369   6.641   3.398  0.5876  0.1543 -0.1235
  302MOL0     H41661   5.593   6.769   3.361  1.4632  0.7254 -3.7859
  302MOL0     H41662   5.846   6.954   3.370  0.1510 -1.3878  3.4703
  302MOL0     H41663   6.066   7.023   3.403 -0.1396 -0.3795 -1.7607
  302MOL0     H41664   6.147   7.459   3.350  2.1066  0.4447 -1.8024
  302MOL0     H41665   6.181   7.466   3.517  1.1218  0.1133  1.0150
  302MOL0     H41666   6.405   7.350   3.502  1.0050  0.7569 -0.2171
  302MOL0     H41667   6.387   7.510   3.440  1.3753 -1.5635  0.9825
  302MOL0     H41668   6.412   7.259   3.291  1.5828 -0.3133 -4.1576
  302MOL0     H41669   6.338   7.402   3.211  3.2184 -1.0875 -2.9003
  302MOL0     H41670   6.602   7.337   3.200 -1.8381 -0.7834 -2.4593
  302MOL0     H41671   6.589   7.433   3.353  2.3862  0.6826 -1.1635
  302MOL0     H41672   6.562   7.746   3.092  1.4982  0.4857  0.6560
  302MOL0     H41673   5.943   7.423   3.494 -2.6842 -0.6874  3.1088
  302MOL0     H41674   5.633   7.391   3.335 -2.3715 -2.4602  1.3331
  302MOL0     H41675   5.627   7.376   3.509  0.6924 -0.2801 -0.2750
  302MOL0     H41676   5.746   7.488   3.433 -1.0301  1.5386 -0.3008
  303MOL0     O41677  11.556   1.518   1.457 -0.3202 -0.5094  0.5588
  303MOL0     C41678  11.647   1.444   1.467 -1.0188 -0.0661  0.6280
  303MOL0     O41679  11.779   1.477   1.483  0.2674 -0.0816 -0.1469
  303MOL0     C41680  11.806   1.607   1.518 -0.2939 -0.6209 -0.1507
  303MOL0     C41681  11.873   1.686   1.430  0.6622 -0.0286  0.5469
  303MOL0     C41682  11.916   1.810   1.472 -0.3127  0.3516 -0.5709
  303MOL0     C41683  11.897   1.860   1.598  0.5260 -0.5748  0.4231
  303MOL0     O41684  11.958   1.982   1.628 -0.2052  0.1676 -0.6784
  303MOL0     C41685  11.889   2.051   1.736 -0.0913  0.1122 -0.2848
  303MOL0     C41686  11.947   2.194   1.742  0.1700  0.4212 -0.2665
  303MOL0     C41687  11.913   2.279   1.617  0.2915  0.4098 -0.3762
  303MOL0     C41688  11.765   2.328   1.620 -0.0848  0.2870 -0.1519
  303MOL0     C41689  11.751   2.472   1.669  0.0618 -1.1711  0.8520
  303MOL0     C41690  11.607   2.519   1.703  0.9451 -0.3396  0.2429
  303MOL0     C41691  11.589   2.644   1.779 -0.6523  0.3972 -1.0419
  303MOL0     C41692  11.437   2.669   1.806  0.4500  0.9465 -0.1999
  303MOL0     N41693  11.342   2.671   1.695  0.2858 -0.0112  0.7491
  303MOL0     C41694  11.308   2.778   1.602 -0.1415 -0.5611  0.4428
  303MOL0     C41695  11.211   2.736   1.527 -0.1360 -0.2623  0.3327
  303MOL0     C41696  11.165   2.810   1.412  0.1481 -0.2230  0.2347
  303MOL0     C41697  11.036   2.750   1.351 -0.7655  0.3765 -0.0494
  303MOL0     C41698  10.916   2.776   1.429  0.0183  0.5028  0.5064
  303MOL0     C41699  10.894   2.930   1.443 -1.0493  0.0401  0.1219
  303MOL0     O41700  10.769   2.953   1.500  0.2410 -0.2991 -0.0662
  303MOL0     C41701  10.710   3.084   1.498 -0.5795  0.7901  0.0321
  303MOL0     C41702  10.590   3.093   1.565 -0.0402 -0.1492  0.2666
  303MOL0     C41703  10.524   3.212   1.566 -0.4542 -0.0156  0.5700
  303MOL0     C41704  10.394   3.208   1.649  0.0460 -0.0946 -0.3162
  303MOL0     C41705  10.578   3.330   1.502 -0.0495  0.4788 -0.0813
  303MOL0     C41706  10.500   3.457   1.473 -0.6375  0.5544  0.3057
  303MOL0     O41707  10.542   3.536   1.369  0.7186 -0.6469 -0.2783
  303MOL0     C41708  10.485   3.658   1.357  0.1838  0.1592  0.8914
  303MOL0     C41709  10.388   3.675   1.255 -0.2171  0.2042  0.6769
  303MOL0     C41710  10.308   3.791   1.255 -0.6278 -0.6009 -0.0527
  303MOL0     C41711  10.329   3.895   1.349 -0.8499 -0.0208  0.6145
  303MOL0     O41712  10.258   4.005   1.373  1.4779  0.9881 -0.3391
  303MOL0     C41713  10.159   4.042   1.287 -0.3094 -0.2453  0.4944
  303MOL0     C41714  10.219   4.106   1.164  0.1245 -0.5897  0.0604
  303MOL0     C41715  10.305   4.226   1.194 -0.4849  0.2123 -1.0855
  303MOL0     C41716  10.233   4.357   1.216  0.0225  0.1139 -0.1174
  303MOL0     C41717  10.292   4.447   1.320  0.1829  0.4610  0.7983
  303MOL0     C41718  10.228   4.584   1.313 -0.3769 -0.5124  0.1100
  303MOL0     C41719  10.309   4.683   1.218  0.3521  0.4538  0.1602
  303MOL0     C41720  10.423   4.763   1.277  0.3640  0.0766  0.2121
  303MOL0    Cl41721  10.510   4.837   1.140  0.7326 -0.0657 -0.1151
  303MOL0     C41722  10.428   3.876   1.441  1.0304  0.0348 -0.6212
  303MOL0     C41723  10.506   3.757   1.450  0.1515 -0.3969 -0.2980
  303MOL0     O41724  10.425   3.497   1.558 -0.0009  0.2714 -0.0829
  303MOL0     C41725  10.697   3.310   1.434 -0.0795 -0.9291  0.2506
  303MOL0     C41726  10.773   3.194   1.435  0.3633 -0.0103  0.1908
  303MOL0     N41727  11.163   2.616   1.575  0.2971 -0.0518 -0.6340
  303MOL0     N41728  11.240   2.582   1.681 -0.0972 -0.2541  1.2741
  303MOL0     C41729  11.816   1.781   1.683  0.4188  0.1755  1.3435
  303MOL0     C41730  11.775   1.652   1.650 -0.1814 -0.5201 -0.4116
  303MOL0     C41731  11.615   1.298   1.458  0.6400 -0.5021  0.3639
  303MOL0     C41732  11.726   1.226   1.411 -0.2514 -0.0504  0.5400
  303MOL0     C41733  11.710   1.091   1.370  0.2071  0.1126  0.4182
  303MOL0     C41734  11.582   1.029   1.383  0.3057  0.8453  0.2371
  303MOL0     O41735  11.564   0.899   1.345  0.2104  0.2150 -0.2288
  303MOL0     C41736  11.589   0.859   1.210 -0.8686  0.3799  0.2178
  303MOL0     C41737  11.579   0.705   1.206  0.2079 -0.1125 -0.0844
  303MOL0     C41738  11.699   0.632   1.265 -0.6230  0.5463 -0.1269
  303MOL0     C41739  11.843   0.663   1.219  0.2515 -0.1713  0.5880
  303MOL0     C41740  11.912   0.547   1.164 -0.5477 -0.3640 -0.3340
  303MOL0     C41741  11.975   0.455   1.117  0.1796 -0.2533 -0.7486
  303MOL0     C41742  11.478   1.104   1.427 -0.2870 -0.6068 -0.3126
  303MOL0     C41743  11.485   1.243   1.453 -0.6603  0.2909 -0.5425
  303MOL0     C41744  11.356   1.307   1.499  0.5391 -0.5236  0.9067
  303MOL0     H41745  11.892   1.664   1.326  2.2390  4.8241 -0.4642
  303MOL0     H41746  11.984   1.858   1.403  1.8760  0.5944  1.6140
  303MOL0     H41747  11.904   2.005   1.834 -0.9449  3.3377  1.4890
  303MOL0     H41748  11.782   2.055   1.718  0.1928 -1.1444 -2.6347
  303MOL0     H41749  11.906   2.248   1.828 -0.7152 -0.2083 -0.2773
  303MOL0     H41750  12.054   2.178   1.758  0.1204  0.2050 -0.1543
  303MOL0     H41751  11.987   2.359   1.619  0.6557  0.0645  1.1717
  303MOL0     H41752  11.943   2.225   1.527 -3.2631 -2.2653 -0.1888
  303MOL0     H41753  11.726   2.318   1.518  0.0295 -0.7247 -0.1142
  303MOL0     H41754  11.708   2.273   1.696  0.2776  0.9725  0.6313
  303MOL0     H41755  11.788   2.547   1.599  0.5485  0.0100  2.3146
  303MOL0     H41756  11.813   2.476   1.759 -0.1418 -0.9089  0.9824
  303MOL0     H41757  11.572   2.551   1.604 -0.3747 -2.9018 -0.2049
  303MOL0     H41758  11.539   2.436   1.724  0.0494 -0.7482 -3.4918
  303MOL0     H41759  11.636   2.734   1.738 -0.4909  1.3711  1.1919
  303MOL0     H41760  11.632   2.617   1.875 -1.7746 -1.7107 -1.0707
  303MOL0     H41761  11.409   2.580   1.863 -2.0445 -0.3372 -3.1012
  303MOL0     H41762  11.412   2.750   1.875 -4.5993  0.3664 -0.9156
  303MOL0     H41763  11.373   2.864   1.584  0.8351 -1.0520  1.4720
  303MOL0     H41764  11.246   2.816   1.339 -0.1773  1.2715 -0.0400
  303MOL0     H41765  11.146   2.913   1.444 -5.0124 -0.4300 -1.1821
  303MOL0     H41766  11.020   2.792   1.251 -1.9459  1.8531  0.7208
  303MOL0     H41767  11.051   2.642   1.344 -1.8072 -0.1530  3.5463
  303MOL0     H41768  10.828   2.737   1.376 -1.4955  1.8703  1.8695
  303MOL0     H41769  10.928   2.724   1.524  1.2196 -4.5750 -2.0525
  303MOL0     H41770  10.972   2.975   1.505 -0.3942  0.0517 -0.6884
  303MOL0     H41771  10.904   2.964   1.339  0.2676  1.2885  0.6178
  303MOL0     H41772  10.560   3.006   1.623  0.5650  0.6192  1.7631
  303MOL0     H41773  10.348   3.113   1.622  2.3272 -1.4188  0.2213
  303MOL0     H41774  10.331   3.297   1.649  0.1712 -0.0024 -0.5025
  303MOL0     H41775  10.427   3.190   1.751  1.5177 -0.2233 -0.7849
  303MOL0     H41776  10.369   3.597   1.183 -3.2977  2.0303 -0.6384
  303MOL0     H41777  10.219   3.800   1.194 -1.4810  3.1200  1.4083
  303MOL0     H41778  10.105   3.951   1.258  0.3046 -1.7076  3.6157
  303MOL0     H41779  10.087   4.106   1.339  0.0130 -1.8746  3.1029
  303MOL0     H41780  10.270   4.033   1.101  2.4478  0.8780  0.1231
  303MOL0     H41781  10.126   4.135   1.115 -0.1793 -1.0334  0.3607
  303MOL0     H41782  10.370   4.232   1.106  0.1726 -0.1433 -0.6358
  303MOL0     H41783  10.359   4.204   1.287 -2.5622 -1.4198 -0.1688
  303MOL0     H41784  10.139   4.325   1.262  0.1870 -0.1731  0.0243
  303MOL0     H41785  10.208   4.413   1.126 -0.2454 -0.0127 -0.1228
  303MOL0     H41786  10.269   4.396   1.415  1.2752  0.8307  1.2739
  303MOL0     H41787  10.398   4.452   1.296 -0.1931 -0.5703 -1.3108
  303MOL0     H41788  10.221   4.637   1.408 -1.6762  1.8911 -1.2315
  303MOL0     H41789  10.122   4.574   1.287 -0.7019  1.0189  0.7273
  303MOL0     H41790  10.244   4.744   1.156  1.8534  0.4184 -1.5093
  303MOL0     H41791  10.357   4.614   1.148  0.9139  1.5914 -0.5873
  303MOL0     H41792  10.487   4.707   1.346  0.8219  0.3487  0.0095
  303MOL0     H41793  10.381   4.844   1.338 -2.2753 -2.2158  1.6624
  303MOL0     H41794  10.439   3.949   1.521 -2.4100  0.5302 -0.4490
  303MOL0     H41795  10.572   3.757   1.536 -1.3328 -0.7060  0.8983
  303MOL0     H41796  10.736   3.395   1.380 -4.0090  1.5173  0.8741
  303MOL0     H41797  10.871   3.177   1.394 -0.7648 -6.7698 -0.8183
  303MOL0     H41798  11.783   1.805   1.784 -1.6400  2.4436  0.2132
  303MOL0     H41799  11.716   1.589   1.715 -0.1695 -1.4550 -1.2790
  303MOL0     H41800  11.825   1.268   1.394  0.3093 -0.3354  2.7939
  303MOL0     H41801  11.781   1.020   1.328 -2.0842 -2.0485 -0.0117
  303MOL0     H41802  11.506   0.892   1.147  0.3372  1.5456 -0.8131
  303MOL0     H41803  11.682   0.901   1.171  0.8944 -1.8517  1.7418
  303MOL0     H41804  11.586   0.686   1.099  1.2046 -2.1609  0.3054
  303MOL0     H41805  11.488   0.661   1.247  0.9173 -0.2215  1.4489
  303MOL0     H41806  11.696   0.651   1.372 -1.6797  1.2618 -0.2630
  303MOL0     H41807  11.677   0.525   1.260 -3.1876  0.9693  0.8350
  303MOL0     H41808  11.891   0.708   1.306 -1.1326  2.0657  0.3035
  303MOL0     H41809  11.841   0.742   1.143  0.7330 -0.8786 -0.1754
  303MOL0     H41810  12.018   0.375   1.060 -2.2143 -1.1800 -1.3766
  303MOL0     H41811  11.380   1.059   1.439 -0.2142 -0.7557 -0.2803
  303MOL0     H41812  11.328   1.388   1.432 -0.8749 -0.7779  1.1519
  303MOL0     H41813  11.275   1.234   1.490  0.9788 -0.7908 -1.9578
  303MOL0     H41814  11.379   1.341   1.600  1.6219  1.8244 -0.0501
  304MOL0     O41815   4.926   1.134   0.836 -0.0512 -0.5704 -0.4310
  304MOL0     C41816   4.901   1.037   0.901 -0.4707  0.0181 -0.5006
  304MOL0     O41817   4.881   0.912   0.844 -0.9837  0.7985  0.2357
  304MOL0     C41818   4.864   0.891   0.711 -0.6019  0.0362  0.2447
  304MOL0     C41819   4.729   0.866   0.665  0.2215  0.3326  0.7623
  304MOL0     C41820   4.702   0.868   0.532  0.2061  0.4996  0.5081
  304MOL0     C41821   4.806   0.891   0.439  0.0812 -0.3495 -0.8237
  304MOL0     O41822   4.777   0.919   0.310  0.8465  0.5810  0.5391
  304MOL0     C41823   4.647   0.960   0.262  0.3873 -0.5586 -1.2386
  304MOL0     C41824   4.594   1.102   0.313  0.1497  0.4254  0.0735
  304MOL0     C41825   4.669   1.217   0.252 -0.1951  0.5431  0.4807
  304MOL0     C41826   4.662   1.232   0.098 -0.0386 -0.3969  0.3804
  304MOL0     C41827   4.783   1.323   0.047  0.4356  0.1932 -1.0630
  304MOL0     C41828   4.911   1.233   0.011 -0.2409  0.3609  0.5139
  304MOL0     C41829   5.042   1.308   0.018 -0.2098 -0.6177 -0.0998
  304MOL0     C41830   5.153   1.206   0.053  0.6726 -1.4644 -0.3086
  304MOL0     N41831   5.172   1.104  -0.049 -0.0280  1.0317  0.9783
  304MOL0     C41832   5.138   0.967  -0.035 -0.0033 -0.4268  0.8402
  304MOL0     C41833   5.180   0.915  -0.152 -0.3302  0.1558  0.7407
  304MOL0     C41834   5.190   0.777  -0.198 -0.1382 -0.1787 -0.5492
  304MOL0     C41835   5.319   0.705  -0.164 -0.1227 -0.7269  0.4599
  304MOL0     C41836   5.362   0.606  -0.271 -0.0433 -0.2143  0.8450
  304MOL0     C41837   5.481   0.506  -0.230 -0.3994 -0.8771  0.3913
  304MOL0     O41838   5.613   0.564  -0.247  0.6143 -0.0861 -0.0371
  304MOL0     C41839   5.714   0.479  -0.207 -0.2949  0.0219  0.6757
  304MOL0     C41840   5.707   0.339  -0.170 -0.3085 -0.1138  0.1264
  304MOL0     C41841   5.820   0.266  -0.127  0.6222 -1.0030 -0.2112
  304MOL0     C41842   5.794   0.132  -0.079 -0.0802 -0.8344  0.7158
  304MOL0     C41843   5.947   0.316  -0.153 -0.8561  0.1005  0.1998
  304MOL0     C41844   6.075   0.238  -0.132  0.0190  0.4274  0.6068
  304MOL0     O41845   6.173   0.265  -0.222 -0.2624  0.3238  0.3184
  304MOL0     C41846   6.301   0.208  -0.200 -0.2617  0.1799 -0.2818
  304MOL0     C41847   6.369   0.202  -0.075 -0.2759  0.0920  0.7347
  304MOL0     C41848   6.497   0.131  -0.062  0.2014 -0.9768  0.9688
  304MOL0     C41849   6.563   0.091  -0.179  0.6253  1.1261 -0.3359
  304MOL0     O41850   6.687   0.041  -0.163  0.3441 -0.4543  0.7543
  304MOL0     C41851   6.695  -0.096  -0.133  0.8266  0.2456 -0.5103
  304MOL0     C41852   6.837  -0.145  -0.170 -0.1048  0.0733  0.1204
  304MOL0     C41853   6.851  -0.125  -0.322 -0.3284  0.5509 -0.3314
  304MOL0     C41854   6.995  -0.165  -0.373  0.2032  0.0804  0.8914
  304MOL0     C41855   7.007  -0.149  -0.525 -0.0180  0.5891  1.0249
  304MOL0     C41856   6.924  -0.230  -0.624  0.2678  0.2059 -0.1614
  304MOL0     C41857   6.939  -0.384  -0.617  0.3463 -0.1606  0.3752
  304MOL0     C41858   7.080  -0.436  -0.630 -0.8799  0.4229  0.5560
  304MOL0    Cl41859   7.146  -0.373  -0.782  0.0165 -0.3057  0.2498
  304MOL0     C41860   6.493   0.097  -0.301 -0.6668  0.3125 -0.5417
  304MOL0     C41861   6.365   0.151  -0.313  0.4655  0.6234  0.5972
  304MOL0     O41862   6.079   0.156  -0.039  0.3845 -0.1325  0.4192
  304MOL0     C41863   5.953   0.446  -0.196 -0.8722 -1.2614 -0.2131
  304MOL0     C41864   5.847   0.524  -0.225 -0.5598  0.1122  0.2918
  304MOL0     N41865   5.247   1.012  -0.223 -0.2349  0.0392 -0.6185
  304MOL0     N41866   5.236   1.126  -0.164 -0.5104  0.1229 -0.3749
  304MOL0     C41867   4.935   0.910   0.483 -0.4702  0.0372 -0.2890
  304MOL0     C41868   4.965   0.918   0.622 -0.1725 -0.2320 -0.3408
  304MOL0     C41869   4.850   1.053   1.043 -0.1191 -0.5318  0.1896
  304MOL0     C41870   4.894   0.955   1.137  0.5685  0.9625  0.8171
  304MOL0     C41871   4.831   0.945   1.271  1.1380 -0.3709  0.1026
  304MOL0     C41872   4.728   1.031   1.310  1.1657 -0.2292  0.5497
  304MOL0     O41873   4.664   1.006   1.429  0.4689  0.3473  0.2088
  304MOL0     C41874   4.540   1.070   1.471 -1.1805  0.2749 -0.2543
  304MOL0     C41875   4.500   1.008   1.612  0.1110  0.8198 -0.2371
  304MOL0     C41876   4.454   0.862   1.596 -0.1814  0.5140 -0.3513
  304MOL0     C41877   4.387   0.821   1.727 -0.9046 -0.0190 -0.4179
  304MOL0     C41878   4.371   0.677   1.725  0.8149 -0.1284 -0.0441
  304MOL0     C41879   4.364   0.560   1.737 -0.0410  0.9817  0.3144
  304MOL0     C41880   4.700   1.136   1.217  0.3717 -0.8958 -0.2299
  304MOL0     C41881   4.768   1.159   1.092  0.7462  1.0527  0.2389
  304MOL0     C41882   4.706   1.256   1.007 -0.6534  0.0385 -0.3364
  304MOL0     H41883   4.659   0.849   0.746  0.4206 -2.2962  0.4381
  304MOL0     H41884   4.600   0.850   0.502  0.2708 -0.5112  0.8421
  304MOL0     H41885   4.573   0.884   0.287 -2.8991  3.0936  1.4234
  304MOL0     H41886   4.652   0.963   0.153  0.5685 -0.2266 -1.2217
  304MOL0     H41887   4.489   1.118   0.287  0.5622  2.4430 -0.5322
  304MOL0     H41888   4.614   1.094   0.421 -2.1784 -2.1722  0.4102
  304MOL0     H41889   4.633   1.313   0.292  0.3168  0.1771  1.8591
  304MOL0     H41890   4.774   1.220   0.279 -0.0645 -1.1728  0.2583
  304MOL0     H41891   4.663   1.146   0.031 -2.3720  1.2358 -1.9853
  304MOL0     H41892   4.578   1.301   0.081  1.4827  0.8324 -3.1893
  304MOL0     H41893   4.806   1.402   0.119 -4.0887 -0.9742  2.0768
  304MOL0     H41894   4.744   1.369  -0.045 -0.8877  1.8943  0.2763
  304MOL0     H41895   4.907   1.158   0.090  0.4126  0.0249  0.2383
  304MOL0     H41896   4.888   1.177  -0.080  1.2540 -1.2268  1.0736
  304MOL0     H41897   5.034   1.394   0.084 -3.7019  0.9597 -2.2991
  304MOL0     H41898   5.066   1.342  -0.083  4.4568 -1.0040  0.6251
  304MOL0     H41899   5.248   1.260   0.054  0.1116 -0.2990 -2.6663
  304MOL0     H41900   5.128   1.165   0.151 -0.5316  2.1634  1.0707
  304MOL0     H41901   5.081   0.910   0.038 -4.4375  3.5881  1.0614
  304MOL0     H41902   5.190   0.769  -0.307  1.9716 -0.4130 -0.5834
  304MOL0     H41903   5.105   0.714  -0.171 -0.1856 -0.1043 -0.5257
  304MOL0     H41904   5.397   0.775  -0.137  0.3993 -0.5009 -1.4905
  304MOL0     H41905   5.318   0.661  -0.064  5.0682  0.2017  1.1818
  304MOL0     H41906   5.276   0.545  -0.301  1.2038 -2.4551  1.5870
  304MOL0     H41907   5.401   0.663  -0.356 -1.1054  1.0355  1.1589
  304MOL0     H41908   5.466   0.477  -0.125  0.9968  1.9690  1.4822
  304MOL0     H41909   5.483   0.412  -0.286  0.1854 -0.5276 -0.1990
  304MOL0     H41910   5.614   0.284  -0.176 -0.0003 -0.6592  0.3350
  304MOL0     H41911   5.687   0.114  -0.068 -0.0655 -2.2232 -0.9259
  304MOL0     H41912   5.838   0.122   0.021 -1.8002  0.1211  1.6013
  304MOL0     H41913   5.829   0.063  -0.157  1.7716 -0.1546  0.9048
  304MOL0     H41914   6.316   0.217   0.019  0.9769 -1.2989  1.7301
  304MOL0     H41915   6.546   0.126   0.034 -1.8469 -1.6194  2.0438
  304MOL0     H41916   6.676  -0.099  -0.025 -0.6411 -1.4563 -0.7722
  304MOL0     H41917   6.615  -0.161  -0.171  0.1932 -1.7193  3.6137
  304MOL0     H41918   6.910  -0.078  -0.122 -1.0074  1.3118 -0.1803
  304MOL0     H41919   6.852  -0.250  -0.144 -0.2329 -0.2918 -1.2336
  304MOL0     H41920   6.851  -0.027  -0.370  0.8976  0.8702  0.2666
  304MOL0     H41921   6.769  -0.179  -0.369 -1.0054  0.8548  0.4845
  304MOL0     H41922   7.036  -0.261  -0.341 -0.9831 -0.7735 -0.0469
  304MOL0     H41923   7.068  -0.094  -0.333  1.4239  0.0848 -1.2216
  304MOL0     H41924   6.993  -0.043  -0.551 -1.9544  0.4492  1.4145
  304MOL0     H41925   7.114  -0.156  -0.550 -0.6413  0.4644 -1.9508
  304MOL0     H41926   6.946  -0.204  -0.727  1.7378 -2.0868 -0.4961
  304MOL0     H41927   6.816  -0.210  -0.618  0.8715  3.7794  0.6981
  304MOL0     H41928   6.882  -0.421  -0.703 -1.0646  1.0718  0.7236
  304MOL0     H41929   6.889  -0.420  -0.526  1.2243  0.6960  1.2174
  304MOL0     H41930   7.080  -0.544  -0.642 -0.8963  0.5539 -0.7899
  304MOL0     H41931   7.137  -0.416  -0.539  2.1010 -0.9521 -0.8616
  304MOL0     H41932   6.537   0.068  -0.396 -0.4942  0.9996 -0.6708
  304MOL0     H41933   6.314   0.170  -0.407  0.5059  5.6040  1.2838
  304MOL0     H41934   6.055   0.481  -0.204 -1.3529  1.2928  2.7635
  304MOL0     H41935   5.849   0.623  -0.269 -0.8544 -1.4409 -3.5948
  304MOL0     H41936   5.020   0.932   0.419 -0.5225 -1.3037 -0.8479
  304MOL0     H41937   5.063   0.931   0.665  0.2097 -1.0961 -0.9099
  304MOL0     H41938   4.960   0.872   1.113 -0.1459  0.8686 -1.0089
  304MOL0     H41939   4.854   0.867   1.343  3.4584  1.6721  1.7595
  304MOL0     H41940   4.557   1.177   1.480 -0.1679  0.0624  0.6200
  304MOL0     H41941   4.463   1.039   1.400  0.4140  1.1325 -2.4580
  304MOL0     H41942   4.420   1.065   1.660 -1.0530  0.4655 -1.6929
  304MOL0     H41943   4.586   1.007   1.679  1.2501 -4.8664 -1.3175
  304MOL0     H41944   4.393   0.852   1.506  0.4992 -0.7993 -0.6812
  304MOL0     H41945   4.540   0.795   1.594 -0.3569  0.2787 -0.1541
  304MOL0     H41946   4.285   0.859   1.744 -0.9613 -1.3288  2.9319
  304MOL0     H41947   4.433   0.853   1.821  0.9564  2.1588 -1.9513
  304MOL0     H41948   4.341   0.456   1.736  0.6400  0.8071 -1.6792
  304MOL0     H41949   4.621   1.207   1.240 -0.7600 -1.9725 -0.7262
  304MOL0     H41950   4.758   1.260   0.910 -1.3428  0.5000 -0.7015
  304MOL0     H41951   4.613   1.209   0.972  1.0155 -3.8158 -0.0096
  304MOL0     H41952   4.691   1.352   1.058 -2.4541  0.1192 -0.9137
  305MOL0     O41953   5.224   1.435   1.813  0.1576  0.2345 -0.4420
  305MOL0     C41954   5.106   1.463   1.783 -0.1128  0.7109  0.5241
  305MOL0     O41955   4.998   1.405   1.852 -0.5986  0.0887 -0.7997
  305MOL0     C41956   5.024   1.305   1.947  0.3539  0.5834  0.4344
  305MOL0     C41957   5.110   1.193   1.924  0.5677  0.8889  0.2910
  305MOL0     C41958   5.126   1.096   2.032  0.3192 -0.4758 -0.8186
  305MOL0     C41959   5.065   1.116   2.158 -0.0868 -0.2301  0.3625
  305MOL0     O41960   5.101   1.025   2.261 -0.4105  0.1500 -0.8575
  305MOL0     C41961   5.053   1.056   2.393  0.7839  0.4069  0.5118
  305MOL0     C41962   5.058   0.923   2.481  0.1400 -0.9856 -0.3545
  305MOL0     C41963   5.194   0.880   2.538 -0.0508  0.4327 -0.2851
  305MOL0     C41964   5.197   0.906   2.690 -0.1835  0.4143 -0.1031
  305MOL0     C41965   5.272   0.789   2.763 -0.6927  0.4543  0.1543
  305MOL0     C41966   5.287   0.830   2.907 -0.3037  0.2279  0.2990
  305MOL0     C41967   5.337   0.707   2.992  0.1292 -0.3221  0.4906
  305MOL0     C41968   5.451   0.733   3.089 -0.2676 -0.5773 -0.0234
  305MOL0     N41969   5.414   0.801   3.208 -0.4109 -0.3958 -0.3749
  305MOL0     C41970   5.397   0.742   3.330 -0.0089 -0.2449  0.6527
  305MOL0     C41971   5.370   0.833   3.423  0.8964  0.2015 -1.0023
  305MOL0     C41972   5.321   0.800   3.563  0.6791  1.6148  0.2457
  305MOL0     C41973   5.252   0.669   3.575  1.0341 -0.9993 -0.5423
  305MOL0     C41974   5.185   0.647   3.720 -0.7053 -0.1573  0.2387
  305MOL0     C41975   5.148   0.495   3.729  0.4347 -0.8288  1.2653
  305MOL0     O41976   5.071   0.478   3.846 -0.1021 -0.2375 -0.9250
  305MOL0     C41977   5.006   0.355   3.880 -0.3427 -0.8635 -0.0302
  305MOL0     C41978   4.947   0.273   3.786  0.3567 -0.0230 -0.9501
  305MOL0     C41979   4.880   0.152   3.815  0.3998 -0.5396  0.3112
  305MOL0     C41980   4.816   0.078   3.702  0.2429 -0.4280 -0.5300
  305MOL0     C41981   4.891   0.105   3.951 -0.8505 -0.0257  0.2092
  305MOL0     C41982   4.844  -0.032   4.005  1.0934  0.0809  0.0227
  305MOL0     O41983   4.830  -0.057   4.131  0.0489 -0.5673  0.2769
  305MOL0     C41984   4.789  -0.177   4.187 -0.3226 -0.3694  0.1812
  305MOL0     C41985   4.864  -0.292   4.187  0.1718  1.0384  0.0968
  305MOL0     C41986   4.823  -0.404   4.259 -0.3101 -0.3483 -0.5932
  305MOL0     C41987   4.703  -0.404   4.327  0.4358 -0.1302  0.1461
  305MOL0     O41988   4.675  -0.514   4.397  0.7735 -0.1808 -0.1930
  305MOL0     C41989   4.537  -0.545   4.400  0.3571 -0.5784 -0.4382
  305MOL0     C41990   4.517  -0.695   4.397 -0.0243  0.2050  0.2593
  305MOL0     C41991   4.376  -0.754   4.413  0.3681  0.7146  0.1370
  305MOL0     C41992   4.369  -0.897   4.456 -0.0034  0.2133 -0.1028
  305MOL0     C41993   4.224  -0.956   4.443 -1.6108 -0.4574 -0.4240
  305MOL0     C41994   4.238  -1.105   4.470 -0.1524 -0.1091 -0.3542
  305MOL0     C41995   4.101  -1.177   4.449 -1.0862  0.2846  0.2821
  305MOL0     C41996   4.120  -1.326   4.459  0.3936  0.3454 -0.1998
  305MOL0    Cl41997   3.962  -1.415   4.456 -0.2906 -0.2260  0.0145
  305MOL0     C41998   4.634  -0.284   4.332  0.6000 -0.0125 -0.4909
  305MOL0     C41999   4.666  -0.177   4.255 -0.2532 -0.8946  0.5552
  305MOL0     O42000   4.810  -0.109   3.921  0.1023  0.0339 -0.0357
  305MOL0     C42001   4.944   0.190   4.045 -1.0302  0.2551  1.2664
  305MOL0     C42002   5.002   0.308   4.011 -0.0126 -0.7262 -0.2156
  305MOL0     N42003   5.375   0.955   3.356  0.2273 -0.4387 -0.6126
  305MOL0     N42004   5.395   0.930   3.230 -0.0274  0.7907 -1.2034
  305MOL0     C42005   4.964   1.221   2.177  1.0668 -0.3007 -0.1127
  305MOL0     C42006   4.947   1.307   2.069  0.4762 -0.0656  0.4925
  305MOL0     C42007   5.071   1.553   1.671 -0.3755 -0.7051  0.6613
  305MOL0     C42008   4.951   1.631   1.667 -0.1587 -0.6622 -1.1916
  305MOL0     C42009   4.922   1.715   1.566  0.1494  0.6158  0.1309
  305MOL0     C42010   5.002   1.728   1.456  0.6718  0.2991 -0.1878
  305MOL0     O42011   4.980   1.834   1.370 -0.1990 -0.1879  0.8080
  305MOL0     C42012   4.966   1.805   1.227 -0.1526 -0.3710 -0.0250
  305MOL0     C42013   4.849   1.879   1.183  0.1693 -1.1141 -0.0629
  305MOL0     C42014   4.828   1.866   1.024  0.4864  0.3878 -0.0194
  305MOL0     C42015   4.688   1.923   0.991 -0.7565  0.3472  0.2524
  305MOL0     C42016   4.649   1.898   0.847  0.7127 -0.3648 -0.8138
  305MOL0     C42017   4.614   1.897   0.728 -0.5160 -0.2778 -0.3835
  305MOL0     C42018   5.120   1.651   1.450  0.7373 -1.0535 -0.0480
  305MOL0     C42019   5.155   1.569   1.553  0.5876  0.1936 -0.2803
  305MOL0     C42020   5.278   1.475   1.533  0.0327  0.4235  0.4060
  305MOL0     H42021   5.167   1.189   1.832  0.4025 -0.4211  0.2181
  305MOL0     H42022   5.197   1.014   2.023  0.6187 -0.1144 -1.9380
  305MOL0     H42023   4.949   1.086   2.379  0.9432  1.1595  0.8727
  305MOL0     H42024   5.109   1.141   2.434 -0.3335  0.4352  2.1129
  305MOL0     H42025   4.988   0.944   2.563  0.9357  3.7545 -0.6381
  305MOL0     H42026   5.000   0.859   2.414 -3.7045  2.1164 -0.3559
  305MOL0     H42027   5.211   0.772   2.532 -0.2146  0.2475  1.8137
  305MOL0     H42028   5.278   0.933   2.491  1.3064  0.4998  2.0379
  305MOL0     H42029   5.250   1.001   2.706  2.1980 -1.0824  1.3957
  305MOL0     H42030   5.100   0.909   2.740  0.8677  0.4001  2.0614
  305MOL0     H42031   5.365   0.767   2.710 -0.4866 -3.3140  1.8123
  305MOL0     H42032   5.215   0.696   2.765  0.7849 -0.5534 -1.5718
  305MOL0     H42033   5.349   0.920   2.908 -0.9718  0.7407 -1.4015
  305MOL0     H42034   5.190   0.858   2.950  0.0742  1.1679  0.5538
  305MOL0     H42035   5.373   0.623   2.932  0.2296 -0.5895  0.9217
  305MOL0     H42036   5.258   0.655   3.046 -1.3578  0.5101 -0.7862
  305MOL0     H42037   5.496   0.638   3.119  1.3395  0.8470  2.3826
  305MOL0     H42038   5.537   0.788   3.051 -1.8804  2.5672  0.6054
  305MOL0     H42039   5.409   0.635   3.345  0.8983 -0.4203 -1.0188
  305MOL0     H42040   5.257   0.881   3.597  1.5997  1.5676  2.2088
  305MOL0     H42041   5.402   0.806   3.636 -1.7604  1.6565  3.1276
  305MOL0     H42042   5.172   0.655   3.501  2.6316 -0.6997 -2.4032
  305MOL0     H42043   5.333   0.596   3.567  1.3879 -0.4903 -1.7482
  305MOL0     H42044   5.248   0.681   3.803 -0.5616 -2.3121  1.0857
  305MOL0     H42045   5.095   0.708   3.724 -0.4048  0.2479  0.9372
  305MOL0     H42046   5.105   0.469   3.632  3.0417  0.2432 -0.2754
  305MOL0     H42047   5.236   0.431   3.741  1.6202  0.6087  0.5346
  305MOL0     H42048   4.958   0.302   3.682  0.9630 -2.8802 -1.7719
  305MOL0     H42049   4.873  -0.013   3.684 -0.1703 -0.2602 -3.1019
  305MOL0     H42050   4.798   0.152   3.623 -4.6999 -0.9009 -0.1489
  305MOL0     H42051   4.713   0.049   3.725 -0.4144  2.7819  1.1654
  305MOL0     H42052   4.963  -0.283   4.144  0.8244 -1.3520  0.9215
  305MOL0     H42053   4.885  -0.493   4.253 -1.0575 -0.8393 -1.1859
  305MOL0     H42054   4.479  -0.512   4.488 -2.1860 -3.1546 -0.9929
  305MOL0     H42055   4.484  -0.499   4.316 -0.6733 -0.7314  0.1009
  305MOL0     H42056   4.559  -0.737   4.306 -3.5179 -0.2749 -1.3030
  305MOL0     H42057   4.576  -0.722   4.485 -1.9661 -0.2773  1.4924
  305MOL0     H42058   4.322  -0.740   4.318  0.2708  0.0256  0.0846
  305MOL0     H42059   4.325  -0.694   4.488 -0.0617 -0.1834  0.5720
  305MOL0     H42060   4.392  -0.886   4.562  1.6442 -0.2599 -0.3795
  305MOL0     H42061   4.455  -0.951   4.413 -2.4283 -3.1943 -1.0941
  305MOL0     H42062   4.164  -0.906   4.520  1.4390  0.6652  1.4166
  305MOL0     H42063   4.192  -0.935   4.340 -0.3136  1.2749 -0.5309
  305MOL0     H42064   4.276  -1.126   4.571  2.0733 -2.2980 -1.5474
  305MOL0     H42065   4.316  -1.139   4.402  1.7730 -1.2624  2.2296
  305MOL0     H42066   4.071  -1.162   4.345  1.9133  0.4404 -0.6701
  305MOL0     H42067   4.026  -1.139   4.519 -0.9024  0.1213  0.5682
  305MOL0     H42068   4.184  -1.348   4.545  0.3416 -4.1934 -1.0614
  305MOL0     H42069   4.174  -1.369   4.373 -0.4146 -0.4348 -0.3333
  305MOL0     H42070   4.546  -0.262   4.392  0.6537  1.4429 -0.9067
  305MOL0     H42071   4.617  -0.081   4.243 -1.5377 -1.3962  1.5596
  305MOL0     H42072   4.940   0.163   4.150  1.1011  0.8110  1.5285
  305MOL0     H42073   5.037   0.362   4.099  2.2429 -2.0037 -0.2636
  305MOL0     H42074   4.908   1.253   2.264  1.5069  1.2416 -0.3694
  305MOL0     H42075   4.879   1.390   2.082  1.6502  1.1446 -0.6685
  305MOL0     H42076   4.875   1.624   1.744  0.3389 -0.1157 -0.6451
  305MOL0     H42077   4.827   1.769   1.569  0.4109  1.1574 -0.7714
  305MOL0     H42078   5.054   1.848   1.177 -1.2791  2.0356 -0.1018
  305MOL0     H42079   4.951   1.699   1.205 -1.3193  0.0149 -1.1744
  305MOL0     H42080   4.870   1.980   1.219 -0.0586 -1.5566  1.3642
  305MOL0     H42081   4.756   1.853   1.235  0.3981  1.7020  1.9732
  305MOL0     H42082   4.914   1.908   0.971 -0.7514 -0.5868 -3.0106
  305MOL0     H42083   4.821   1.758   1.009 -0.4048  0.7290 -2.4031
  305MOL0     H42084   4.687   2.031   1.007 -2.6532  0.3531  0.3198
  305MOL0     H42085   4.614   1.879   1.060 -0.0447 -1.0947  0.1419
  305MOL0     H42086   4.594   1.897   0.623  0.9070 -1.7829 -0.7020
  305MOL0     H42087   5.175   1.668   1.358 -0.2593  1.0242 -0.3307
  305MOL0     H42088   5.319   1.472   1.432  2.5529 -1.6122  1.3847
  305MOL0     H42089   5.358   1.510   1.600 -1.4407  0.6198  2.1561
  305MOL0     H42090   5.253   1.372   1.561 -3.8890  0.7209 -1.3747
  306MOL0     O42091   4.747   0.863   5.968 -0.5100  0.2684  0.2851
  306MOL0     C42092   4.806   0.828   6.068 -0.5168 -0.2274 -0.9763
  306MOL0     O42093   4.942   0.779   6.072 -0.3686 -0.6667  0.4679
  306MOL0     C42094   5.024   0.769   5.959  0.2582  0.1513  1.2464
  306MOL0     C42095   4.981   0.781   5.826  0.7048  0.5147 -1.2646
  306MOL0     C42096   5.064   0.778   5.714 -0.0390  0.7087 -0.1512
  306MOL0     C42097   5.201   0.778   5.729  0.6693  0.4055 -0.7458
  306MOL0     O42098   5.284   0.768   5.621 -1.5528  0.3605  0.2130
  306MOL0     C42099   5.412   0.702   5.624  0.7547 -0.8041 -0.0956
  306MOL0     C42100   5.534   0.797   5.644 -0.6255 -0.0751 -1.4032
  306MOL0     C42101   5.651   0.715   5.702 -0.7502  0.3144 -1.4292
  306MOL0     C42102   5.644   0.710   5.856 -0.2946 -0.3379 -0.0060
  306MOL0     C42103   5.755   0.633   5.935  0.3308  0.3007 -0.1325
  306MOL0     C42104   5.901   0.676   5.915  0.3308 -0.0269 -1.0008
  306MOL0     C42105   5.987   0.614   6.020 -0.2493 -0.4203  0.8475
  306MOL0     C42106   6.135   0.638   5.989 -0.3771 -0.0230  0.0036
  306MOL0     N42107   6.207   0.583   6.107  0.9861 -0.1845 -0.8882
  306MOL0     C42108   6.262   0.643   6.222 -0.5636  0.6638  0.9029
  306MOL0     C42109   6.329   0.544   6.287  0.1967 -0.3375  0.6865
  306MOL0     C42110   6.413   0.560   6.410  0.9008 -0.2046  0.5499
  306MOL0     C42111   6.559   0.610   6.394  0.3181 -0.6733 -0.2271
  306MOL0     C42112   6.586   0.750   6.327  0.1941  0.1886  0.0712
  306MOL0     C42113   6.735   0.785   6.319 -0.9215  0.3029  0.9603
  306MOL0     O42114   6.784   0.747   6.185 -0.4166  0.5203  0.0423
  306MOL0     C42115   6.916   0.766   6.154 -0.2384 -0.1711  0.0622
  306MOL0     C42116   6.997   0.879   6.194  0.2364  0.7565 -0.1633
  306MOL0     C42117   7.129   0.901   6.158  0.6677  0.6067 -0.4978
  306MOL0     C42118   7.178   1.045   6.175 -0.1873  0.0008  0.0678
  306MOL0     C42119   7.199   0.792   6.110  0.2960  0.0147 -0.8709
  306MOL0     C42120   7.346   0.800   6.084 -0.0565  0.1846 -0.5708
  306MOL0     O42121   7.386   0.718   5.984 -0.7009 -0.0623  0.2943
  306MOL0     C42122   7.510   0.667   5.980 -0.6553 -0.3511 -0.1901
  306MOL0     C42123   7.543   0.537   6.017 -0.5899  0.6118 -0.3521
  306MOL0     C42124   7.673   0.487   5.999 -0.7850  0.6173 -0.2536
  306MOL0     C42125   7.775   0.556   5.944 -0.0923 -0.4848  0.7185
  306MOL0     O42126   7.903   0.511   5.931 -0.7749  0.5712 -0.1739
  306MOL0     C42127   7.946   0.400   6.016 -1.0527 -0.2495 -0.7624
  306MOL0     C42128   8.095   0.407   6.033 -0.6714  0.5823  0.4016
  306MOL0     C42129   8.174   0.349   5.909 -0.5189  0.5886 -1.0712
  306MOL0     C42130   8.136   0.415   5.780  0.8802  0.3501 -0.1979
  306MOL0     C42131   8.234   0.404   5.664  0.2810  0.8206  0.2666
  306MOL0     C42132   8.272   0.269   5.600  0.0683  0.1826  0.7583
  306MOL0     C42133   8.325   0.261   5.457 -0.6581  0.6231  0.1084
  306MOL0     C42134   8.375   0.125   5.414 -0.3052  0.0815  0.3917
  306MOL0    Cl42135   8.488   0.070   5.525 -0.2911 -0.4099 -0.3318
  306MOL0     C42136   7.749   0.688   5.909  0.3218 -0.2514 -0.1585
  306MOL0     C42137   7.617   0.743   5.928 -0.2160  0.2339 -0.0521
  306MOL0     O42138   7.415   0.859   6.163 -0.3337  0.5128  0.3251
  306MOL0     C42139   7.127   0.674   6.078  0.0853 -0.5855  0.2414
  306MOL0     C42140   6.986   0.667   6.093 -0.0638  0.5757  0.2742
  306MOL0     N42141   6.307   0.430   6.216 -0.1159 -0.2835  0.6651
  306MOL0     N42142   6.242   0.455   6.115  0.1090 -0.1060  1.7175
  306MOL0     C42143   5.249   0.781   5.867  0.7922 -1.5976 -1.5027
  306MOL0     C42144   5.161   0.775   5.970  0.4028 -0.2565 -0.3289
  306MOL0     C42145   4.728   0.834   6.200 -0.1291 -0.4674  0.4114
  306MOL0     C42146   4.791   0.770   6.317 -0.0781 -0.2310  0.4570
  306MOL0     C42147   4.725   0.755   6.439  0.8539 -0.3887 -0.8967
  306MOL0     C42148   4.604   0.808   6.456  1.2466 -0.2657 -0.1725
  306MOL0     O42149   4.548   0.803   6.579  0.0652 -0.2263 -0.2535
  306MOL0     C42150   4.597   0.908   6.670  0.6569 -0.0133 -0.4066
  306MOL0     C42151   4.705   0.846   6.755  0.8342 -0.2856  0.0641
  306MOL0     C42152   4.772   0.954   6.841 -0.7097 -1.1355 -0.1926
  306MOL0     C42153   4.689   1.007   6.958  0.9296 -0.2411  0.1359
  306MOL0     C42154   4.656   0.916   7.066 -1.2513 -0.3864  1.1583
  306MOL0     C42155   4.629   0.846   7.159  1.1582  0.8945  0.0817
  306MOL0     C42156   4.534   0.853   6.346  0.3905 -0.2712 -0.2171
  306MOL0     C42157   4.589   0.865   6.218 -0.3225 -0.1347  0.2257
  306MOL0     C42158   4.482   0.887   6.114 -0.1434 -0.4766 -0.3912
  306MOL0     H42159   4.874   0.771   5.806  0.6032  0.1785 -0.5921
  306MOL0     H42160   5.015   0.777   5.617  0.3098  0.3608 -0.3292
  306MOL0     H42161   5.429   0.654   5.527  3.0249 -1.2128  0.4488
  306MOL0     H42162   5.426   0.629   5.705  3.0183  1.0810  1.3340
  306MOL0     H42163   5.564   0.849   5.552  3.7213 -1.3558 -0.9245
  306MOL0     H42164   5.524   0.882   5.712 -2.7468 -1.1456 -0.2794
  306MOL0     H42165   5.650   0.616   5.655  0.2984 -1.2749  1.6144
  306MOL0     H42166   5.741   0.765   5.665  0.2919 -1.6650 -1.6713
  306MOL0     H42167   5.652   0.812   5.893 -1.7229 -1.3197  3.3955
  306MOL0     H42168   5.544   0.673   5.879 -1.9279  0.8135 -4.2912
  306MOL0     H42169   5.741   0.527   5.912 -3.1732  0.6432 -0.1020
  306MOL0     H42170   5.723   0.633   6.040 -2.1020 -0.0223 -0.8158
  306MOL0     H42171   5.926   0.657   5.810 -0.9110 -0.4417 -1.2430
  306MOL0     H42172   5.901   0.785   5.928  1.5825  0.1689 -2.3740
  306MOL0     H42173   5.968   0.506   6.019  2.4156 -1.1263 -3.8716
  306MOL0     H42174   5.966   0.650   6.121  0.7694  0.8200  0.6395
  306MOL0     H42175   6.146   0.578   5.898 -7.3037  0.9804 -2.0732
  306MOL0     H42176   6.152   0.741   5.958 -2.0754  0.5457  0.8187
  306MOL0     H42177   6.248   0.747   6.253 -1.0553  0.3444  1.7931
  306MOL0     H42178   6.421   0.460   6.454  1.6924  0.1050  1.1458
  306MOL0     H42179   6.347   0.618   6.475  0.5113 -1.7697  1.6268
  306MOL0     H42180   6.611   0.599   6.490 -0.1690  1.2199  0.2912
  306MOL0     H42181   6.600   0.537   6.323 -1.6054  0.5746 -2.7820
  306MOL0     H42182   6.540   0.755   6.228  1.3569  0.2902 -0.4891
  306MOL0     H42183   6.534   0.827   6.384  0.5280  0.2271  0.3279
  306MOL0     H42184   6.746   0.892   6.341 -1.6290  0.3680  1.0356
  306MOL0     H42185   6.799   0.744   6.397 -1.0401  1.2811  1.5922
  306MOL0     H42186   6.947   0.952   6.257 -2.0774 -0.8117 -0.0755
  306MOL0     H42187   7.201   1.081   6.074 -1.2272  1.8804  0.4491
  306MOL0     H42188   7.266   1.061   6.237 -0.0711  0.9056 -0.3228
  306MOL0     H42189   7.102   1.111   6.218  0.1778 -1.0333  2.4594
  306MOL0     H42190   7.470   0.474   6.067 -0.5711  0.0706 -0.9947
  306MOL0     H42191   7.708   0.397   6.049 -0.6981 -1.5561 -3.8542
  306MOL0     H42192   7.912   0.413   6.119  0.1952  4.4849 -0.7216
  306MOL0     H42193   7.909   0.306   5.974 -4.8136  0.7526 -0.0981
  306MOL0     H42194   8.128   0.510   6.053  1.6752  0.6345 -2.8093
  306MOL0     H42195   8.121   0.344   6.119 -2.1891 -2.2293 -1.0559
  306MOL0     H42196   8.156   0.242   5.892  0.5498  0.5247 -1.9425
  306MOL0     H42197   8.282   0.350   5.927 -0.7414  0.1437  0.3525
  306MOL0     H42198   8.121   0.521   5.806 -0.0223  0.7688 -2.2470
  306MOL0     H42199   8.037   0.378   5.754  1.3518 -1.4420  0.4357
  306MOL0     H42200   8.202   0.468   5.581 -2.7351  1.2059  1.5990
  306MOL0     H42201   8.330   0.443   5.700 -0.0590  0.0085  2.1674
  306MOL0     H42202   8.178   0.214   5.591  1.4702 -1.9348 -2.9418
  306MOL0     H42203   8.340   0.222   5.672 -1.3335 -1.4439  1.1025
  306MOL0     H42204   8.410   0.329   5.449  0.1561  0.0669  3.0122
  306MOL0     H42205   8.258   0.294   5.376  1.3068  1.3509 -1.2827
  306MOL0     H42206   8.401   0.119   5.308 -2.6572  0.3924 -0.2829
  306MOL0     H42207   8.296   0.048   5.420  3.4728 -4.1631  1.0402
  306MOL0     H42208   7.826   0.749   5.864 -3.0196  2.5793 -2.6664
  306MOL0     H42209   7.588   0.841   5.890  0.7709 -0.5042 -2.9158
  306MOL0     H42210   7.177   0.588   6.035  0.8583  0.3791 -0.8419
  306MOL0     H42211   6.935   0.575   6.065 -1.3061  1.5213 -0.7345
  306MOL0     H42212   5.355   0.776   5.889  0.4377  1.3681  1.8718
  306MOL0     H42213   5.205   0.776   6.070  1.3290 -2.7114 -0.6518
  306MOL0     H42214   4.885   0.718   6.304 -1.0525 -1.7320 -0.9280
  306MOL0     H42215   4.781   0.714   6.523 -1.0247  0.1080  0.6850
  306MOL0     H42216   4.651   0.980   6.607 -0.8354  2.2091  0.6911
  306MOL0     H42217   4.516   0.955   6.727  1.4104  1.5467 -0.5746
  306MOL0     H42218   4.786   0.794   6.704  1.4951  0.3297  0.4582
  306MOL0     H42219   4.662   0.775   6.826  1.8214 -0.3710  0.5842
  306MOL0     H42220   4.862   0.914   6.887 -1.1679 -0.4335  1.3743
  306MOL0     H42221   4.794   1.038   6.775  2.6251 -3.2724 -2.0830
  306MOL0     H42222   4.596   1.035   6.909  1.0805  0.3163  0.1569
  306MOL0     H42223   4.740   1.094   7.002  0.1558  2.2951 -3.5075
  306MOL0     H42224   4.601   0.789   7.245  0.3556  0.1481 -0.6594
  306MOL0     H42225   4.433   0.880   6.373  1.0161  1.2962  0.6939
  306MOL0     H42226   4.470   0.993   6.087  0.4326 -0.0097  1.0666
  306MOL0     H42227   4.511   0.813   6.039  1.6744 -0.6242  0.3898
  306MOL0     H42228   4.381   0.853   6.138 -0.0655 -0.5033 -0.1033
  307MOL0     O42229   5.039   9.641   9.579 -0.0294  0.0173  0.5547
  307MOL0     C42230   5.022   9.654   9.453 -1.2667  1.2244  1.5215
  307MOL0     O42231   5.104   9.586   9.363  0.0974  0.5935 -0.8182
  307MOL0     C42232   5.164   9.472   9.396 -0.4206 -0.3808  0.3395
  307MOL0     C42233   5.084   9.355   9.390 -0.5352  0.0871  0.5831
  307MOL0     C42234   5.142   9.234   9.427  0.2558  0.1070 -0.2290
  307MOL0     C42235   5.276   9.220   9.439 -0.2375 -0.9995 -0.8595
  307MOL0     O42236   5.320   9.093   9.437 -0.0237 -0.0227  0.0737
  307MOL0     C42237   5.417   9.074   9.536  0.6004  0.3312  0.2486
  307MOL0     C42238   5.436   8.924   9.549 -0.1524  0.2406 -2.0099
  307MOL0     C42239   5.512   8.878   9.669 -0.2401 -0.9556 -0.3785
  307MOL0     C42240   5.466   8.751   9.735 -0.3296 -0.9269  0.9052
  307MOL0     C42241   5.562   8.715   9.852  0.4811  0.1592 -0.0453
  307MOL0     C42242   5.514   8.574   9.915  1.2029  0.3770 -0.7065
  307MOL0     C42243   5.594   8.569  10.038  0.5253  0.7770 -0.6331
  307MOL0     C42244   5.518   8.629  10.166  0.1738 -0.2771  0.7314
  307MOL0     N42245   5.607   8.604  10.278 -0.0698 -0.2438  0.7973
  307MOL0     C42246   5.739   8.639  10.285  0.1821 -1.0927  0.2266
  307MOL0     C42247   5.787   8.570  10.394 -0.5589 -0.1238 -0.3564
  307MOL0     C42248   5.927   8.568  10.459  0.3553 -0.2812  0.1443
  307MOL0     C42249   6.047   8.640  10.387 -0.9227  0.0199  1.0314
  307MOL0     C42250   6.147   8.681  10.486  0.2209 -0.5547  0.0678
  307MOL0     C42251   6.269   8.741  10.415  0.2900  1.2623  0.5249
  307MOL0     O42252   6.316   8.650  10.313  0.5008 -0.1007  0.1179
  307MOL0     C42253   6.409   8.563  10.340  0.6055  0.6752  0.1491
  307MOL0     C42254   6.478   8.530  10.458  0.1710 -0.7514 -0.4433
  307MOL0     C42255   6.590   8.442  10.458 -0.1887 -0.5239 -0.7466
  307MOL0     C42256   6.669   8.424  10.591  0.9936 -0.4440  0.6495
  307MOL0     C42257   6.638   8.385  10.332 -0.0864 -0.4401  0.8624
  307MOL0     C42258   6.765   8.300  10.312  1.0827 -1.0834  0.3238
  307MOL0     O42259   6.805   8.276  10.184 -0.2081  0.0172 -0.1120
  307MOL0     C42260   6.913   8.193  10.157 -0.7044 -1.2296  1.3002
  307MOL0     C42261   6.974   8.098  10.235 -0.0933  0.0166 -0.6935
  307MOL0     C42262   7.081   8.023  10.191  0.4192 -0.1602  0.4357
  307MOL0     C42263   7.138   8.049  10.070  0.3077 -0.3667 -0.5406
  307MOL0     O42264   7.234   7.968  10.011  0.0064 -0.9039 -0.1166
  307MOL0     C42265   7.202   7.921   9.877  0.4660  0.5841  0.4299
  307MOL0     C42266   7.284   7.816   9.800  0.1536 -0.1131 -0.1987
  307MOL0     C42267   7.303   7.694   9.882  0.2492  0.5303  0.6304
  307MOL0     C42268   7.395   7.599   9.797 -0.0324  0.9884  0.4436
  307MOL0     C42269   7.408   7.463   9.867 -0.4335 -0.5454  0.1324
  307MOL0     C42270   7.484   7.361   9.779  0.4776 -0.1350 -0.4239
  307MOL0     C42271   7.466   7.213   9.833 -0.7175  0.4615 -0.6186
  307MOL0     C42272   7.493   7.108   9.722 -0.5793 -0.5621  0.0008
  307MOL0    Cl42273   7.396   6.962   9.758 -0.1009 -0.2079  0.4374
  307MOL0     C42274   7.085   8.155  10.002  1.1021  0.2767  0.8512
  307MOL0     C42275   6.972   8.223  10.035 -0.0677 -0.1585  0.9927
  307MOL0     O42276   6.830   8.268  10.409 -0.1264 -1.4603 -0.6438
  307MOL0     C42277   6.567   8.417  10.218 -0.3217  0.0235  0.0722
  307MOL0     C42278   6.462   8.505  10.221  0.5863 -0.6597 -0.4056
  307MOL0     N42279   5.686   8.499  10.448 -0.0586 -0.0324 -0.0868
  307MOL0     N42280   5.580   8.513  10.374 -0.3315 -0.4671 -0.7549
  307MOL0     C42281   5.356   9.336   9.441 -0.2662  0.4032  0.2005
  307MOL0     C42282   5.293   9.460   9.427 -0.2626  1.1105  0.2740
  307MOL0     C42283   4.919   9.746   9.405  0.2921 -1.1669  0.0481
  307MOL0     C42284   4.895   9.747   9.265  1.0672  0.7652  0.5994
  307MOL0     C42285   4.805   9.839   9.201 -0.8732 -0.4516 -0.5971
  307MOL0     C42286   4.723   9.919   9.277  0.5952  0.2078 -0.4132
  307MOL0     O42287   4.634  10.004   9.220  0.0487 -0.2293 -0.4272
  307MOL0     C42288   4.633  10.151   9.259 -0.1989 -0.6184  0.0569
  307MOL0     C42289   4.534  10.242   9.178 -0.3025  0.0857 -0.6273
  307MOL0     C42290   4.534  10.209   9.028  1.1427  0.5672  0.2021
  307MOL0     C42291   4.516  10.335   8.951  0.0641  0.4728  0.0758
  307MOL0     C42292   4.536  10.311   8.810 -0.2814 -0.6576  0.1637
  307MOL0     C42293   4.544  10.275   8.694 -0.2364  0.2413  1.1381
  307MOL0     C42294   4.741   9.915   9.419  0.3114  0.2677  0.1716
  307MOL0     C42295   4.829   9.823   9.484 -0.0523 -0.2224 -0.2443
  307MOL0     C42296   4.821   9.843   9.630 -0.2612 -0.8999 -0.2631
  307MOL0     H42297   4.980   9.348   9.360  0.1797 -2.4954 -1.7790
  307MOL0     H42298   5.070   9.153   9.425 -3.0154  2.7032  1.2210
  307MOL0     H42299   5.395   9.122   9.632  1.0804  1.2820 -0.1027
  307MOL0     H42300   5.513   9.118   9.509 -0.2862  0.1277 -3.9275
  307MOL0     H42301   5.340   8.870   9.549 -0.6376  1.0773 -1.7192
  307MOL0     H42302   5.502   8.897   9.466  0.7733  1.7438 -1.7987
  307MOL0     H42303   5.619   8.880   9.647 -0.1345  1.2407  0.0579
  307MOL0     H42304   5.504   8.955   9.747 -0.5141  0.5374 -1.8342
  307MOL0     H42305   5.362   8.757   9.770 -0.3188  2.9630  0.6048
  307MOL0     H42306   5.469   8.669   9.663  0.1092 -0.7043  0.6665
  307MOL0     H42307   5.570   8.791   9.931 -2.6172  2.7711 -1.9943
  307MOL0     H42308   5.664   8.712   9.813  0.0271 -1.4425 -1.2114
  307MOL0     H42309   5.407   8.589   9.932  1.2643 -2.6365  4.1309
  307MOL0     H42310   5.527   8.487   9.850 -1.3635 -0.4662 -0.1779
  307MOL0     H42311   5.700   8.596  10.029  0.9838 -0.4310  0.7312
  307MOL0     H42312   5.598   8.463  10.068 -2.4091  0.5023 -0.9354
  307MOL0     H42313   5.490   8.730  10.136 -2.3357 -2.0088 -3.6930
  307MOL0     H42314   5.418   8.588  10.184 -2.0841  3.0656 -2.6327
  307MOL0     H42315   5.796   8.705  10.220 -0.3176 -1.2360 -0.3619
  307MOL0     H42316   5.952   8.462  10.442  1.5303  0.2446 -1.8280
  307MOL0     H42317   5.926   8.604  10.562 -1.9589 -0.6137  0.2793
  307MOL0     H42318   6.073   8.565  10.311 -1.2503 -0.5038  1.4296
  307MOL0     H42319   6.017   8.730  10.332  0.2874  0.6372  1.3581
  307MOL0     H42320   6.093   8.753  10.548 -0.5308 -0.4252 -0.7364
  307MOL0     H42321   6.173   8.598  10.553 -2.1152 -0.9513  0.5675
  307MOL0     H42322   6.239   8.832  10.361 -0.1372  1.8751  1.7538
  307MOL0     H42323   6.351   8.765  10.483  1.8795 -2.5698  0.2001
  307MOL0     H42324   6.459   8.585  10.550 -1.9360  1.3667 -2.0321
  307MOL0     H42325   6.616   8.487  10.663 -2.0595 -1.2759 -0.7187
  307MOL0     H42326   6.772   8.457  10.573  0.3922  1.0924 -0.1874
  307MOL0     H42327   6.668   8.321  10.626 -0.3290  0.1006  2.3702
  307MOL0     H42328   6.919   8.080  10.327 -1.9709  4.7899 -0.5957
  307MOL0     H42329   7.116   7.939  10.250 -0.4137 -0.1404  0.9752
  307MOL0     H42330   7.099   7.886   9.870  0.7380  0.0101 -1.1527
  307MOL0     H42331   7.204   8.010   9.814 -0.8807  1.2791  1.3544
  307MOL0     H42332   7.243   7.793   9.701 -1.4063  1.3604  0.0477
  307MOL0     H42333   7.386   7.852   9.788  1.2056 -2.6917  0.3787
  307MOL0     H42334   7.215   7.631   9.897 -0.6749  0.1551 -4.4207
  307MOL0     H42335   7.343   7.720   9.980 -1.8297 -2.3723  2.4263
  307MOL0     H42336   7.493   7.645   9.783 -0.0918  1.1516  0.5680
  307MOL0     H42337   7.363   7.574   9.695  0.2957 -1.8072  0.9319
  307MOL0     H42338   7.468   7.467   9.959  0.6172 -2.4006 -0.4170
  307MOL0     H42339   7.306   7.430   9.890 -2.2725  3.5908 -1.0178
  307MOL0     H42340   7.590   7.384   9.767  1.2078 -3.4455 -1.2680
  307MOL0     H42341   7.441   7.365   9.678 -0.4389 -1.1274 -0.0957
  307MOL0     H42342   7.364   7.212   9.872 -1.1339  2.2993 -1.5225
  307MOL0     H42343   7.534   7.208   9.918 -1.1995  1.1031 -0.1771
  307MOL0     H42344   7.601   7.094   9.717 -0.6916 -1.2810 -0.5729
  307MOL0     H42345   7.466   7.154   9.627 -3.8262 -0.5470  0.8123
  307MOL0     H42346   7.143   8.178   9.913  1.6917  0.9347  1.4064
  307MOL0     H42347   6.933   8.306   9.977  4.0043 -0.0795 -2.1003
  307MOL0     H42348   6.593   8.380  10.119 -2.8619  0.3964 -0.8296
  307MOL0     H42349   6.400   8.516  10.132 -0.4911  1.0050  0.4992
  307MOL0     H42350   5.463   9.326   9.459  0.1377  2.6199 -0.6601
  307MOL0     H42351   5.350   9.552   9.435 -0.8505  1.4044  1.1193
  307MOL0     H42352   4.962   9.695   9.198 -0.0579 -0.8833  0.6973
  307MOL0     H42353   4.795   9.840   9.093  0.7435  0.6975 -0.7663
  307MOL0     H42354   4.590  10.161   9.359 -0.0280 -0.7841  0.1447
  307MOL0     H42355   4.732  10.196   9.259 -0.0043 -0.5970 -4.1665
  307MOL0     H42356   4.570  10.344   9.199 -0.4678 -0.1409  0.8615
  307MOL0     H42357   4.433  10.232   9.219 -0.1432 -1.9313 -0.6461
  307MOL0     H42358   4.631  10.160   9.017  0.5455 -1.6736  3.4624
  307MOL0     H42359   4.452  10.138   9.009  2.1057 -1.4059  2.8816
  307MOL0     H42360   4.581  10.416   8.986 -1.1339  2.2448 -1.6144
  307MOL0     H42361   4.418  10.380   8.970  0.0335  0.1927  0.6279
  307MOL0     H42362   4.556  10.235   8.596 -0.1096 -1.9559  2.0061
  307MOL0     H42363   4.690   9.986   9.484 -1.5685 -1.0807  0.2657
  307MOL0     H42364   4.788   9.747   9.671 -1.2018  0.0494  1.3191
  307MOL0     H42365   4.919   9.882   9.657 -0.5130  1.1724 -2.0134
  307MOL0     H42366   4.743   9.911   9.666 -1.7448 -1.1804 -2.7269
  308MOL0     O42367   2.901   1.444   2.652 -0.7643 -0.0533 -0.0478
  308MOL0     C42368   2.839   1.332   2.650 -0.0052 -0.3035  0.9411
  308MOL0     O42369   2.859   1.228   2.564 -0.0050  0.1912  0.3296
  308MOL0     C42370   2.974   1.214   2.503 -0.6446 -0.0892  0.3517
  308MOL0     C42371   3.042   1.091   2.511  0.2746  0.2153  0.1989
  308MOL0     C42372   3.163   1.066   2.443  0.0132 -0.8854 -0.2388
  308MOL0     C42373   3.216   1.173   2.369  0.7923 -0.1627  1.0880
  308MOL0     O42374   3.332   1.145   2.311 -0.4199 -0.4447  0.2274
  308MOL0     C42375   3.396   1.249   2.233 -0.1311 -0.5037 -0.7718
  308MOL0     C42376   3.529   1.198   2.170  0.6753  0.3749 -1.3772
  308MOL0     C42377   3.513   1.067   2.087 -0.5376  0.3179  0.0904
  308MOL0     C42378   3.644   1.035   2.013  0.1402  0.4592 -0.1380
  308MOL0     C42379   3.657   0.892   1.956 -0.0346  0.5197  0.0650
  308MOL0     C42380   3.561   0.882   1.833 -0.4928 -0.4762  1.9270
  308MOL0     C42381   3.620   0.931   1.701  0.1944  0.7991 -0.5420
  308MOL0     C42382   3.523   0.927   1.582 -0.9087 -0.2779 -0.6189
  308MOL0     N42383   3.411   1.015   1.592  0.0793  0.4755 -0.3390
  308MOL0     C42384   3.417   1.144   1.646  0.3873 -1.2637  1.3438
  308MOL0     C42385   3.289   1.187   1.634 -0.1095  0.5099  0.6783
  308MOL0     C42386   3.240   1.318   1.680  0.4752 -0.0484  0.0664
  308MOL0     C42387   3.211   1.307   1.831  0.0134 -1.0093 -0.1007
  308MOL0     C42388   3.104   1.198   1.867  0.6225 -0.7701 -0.2099
  308MOL0     C42389   3.028   1.212   2.003  0.3821  0.3663 -0.2171
  308MOL0     O42390   3.006   1.351   2.028 -0.2053 -0.1665  0.3995
  308MOL0     C42391   2.902   1.389   2.114 -0.2159  0.5003  0.7397
  308MOL0     C42392   2.862   1.521   2.108 -0.9538  0.4861 -0.3038
  308MOL0     C42393   2.778   1.576   2.197 -0.7226 -0.3572  0.4010
  308MOL0     C42394   2.747   1.718   2.196 -0.0858  1.0831  0.0883
  308MOL0     C42395   2.695   1.489   2.276 -0.4115  0.1703  0.6944
  308MOL0     C42396   2.585   1.530   2.368 -0.7109  0.3723 -0.3676
  308MOL0     O42397   2.504   1.617   2.315 -0.3053 -0.3574 -0.4059
  308MOL0     C42398   2.402   1.671   2.384  0.8723  0.2811 -0.2758
  308MOL0     C42399   2.383   1.666   2.514  1.4714  0.0063 -0.2676
  308MOL0     C42400   2.269   1.720   2.568  0.0583 -0.0230 -0.2617
  308MOL0     C42401   2.162   1.770   2.482 -0.8417 -0.3309 -0.1377
  308MOL0     O42402   2.041   1.814   2.535  0.5082  0.1414 -0.4634
  308MOL0     C42403   1.991   1.751   2.650 -0.0060  0.1554  0.6450
  308MOL0     C42404   1.842   1.775   2.646  0.9877 -0.1293 -0.0763
  308MOL0     C42405   1.756   1.704   2.745 -0.6217 -0.7571  0.4635
  308MOL0     C42406   1.738   1.550   2.733  0.7210  0.2548 -0.3126
  308MOL0     C42407   1.699   1.480   2.860  0.4351 -0.4405 -0.2721
  308MOL0     C42408   1.567   1.535   2.933 -0.3609 -0.1660  0.0562
  308MOL0     C42409   1.434   1.488   2.885 -0.5681  0.0234  0.1601
  308MOL0     C42410   1.389   1.540   2.750 -0.3496  0.3031 -0.0311
  308MOL0    Cl42411   1.231   1.478   2.717  0.4541 -0.1562 -0.3830
  308MOL0     C42412   2.187   1.779   2.343  0.1763 -0.3040 -0.3013
  308MOL0     C42413   2.306   1.721   2.300  0.0324 -0.1557 -0.1339
  308MOL0     O42414   2.567   1.468   2.469  1.2248  0.8611 -0.1859
  308MOL0     C42415   2.727   1.349   2.282  0.0724 -0.0681 -0.4889
  308MOL0     C42416   2.835   1.301   2.205  0.0815 -0.7768 -0.4563
  308MOL0     N42417   3.219   1.086   1.567  0.1444 -0.0899  0.5411
  308MOL0     N42418   3.286   0.981   1.551 -0.5620  0.1590 -0.0165
  308MOL0     C42419   3.151   1.298   2.355  0.2207  0.5809 -1.2361
  308MOL0     C42420   3.034   1.316   2.425 -0.1680 -0.3481  0.6713
  308MOL0     C42421   2.712   1.314   2.732 -0.3243  0.4600  1.1523
  308MOL0     C42422   2.657   1.180   2.739 -0.1042 -0.3518  0.9900
  308MOL0     C42423   2.540   1.154   2.815  0.3074  0.4334  0.1556
  308MOL0     C42424   2.470   1.263   2.878  0.2281 -0.2529  0.8711
  308MOL0     O42425   2.346   1.237   2.940  0.0931 -0.6010  0.3697
  308MOL0     C42426   2.268   1.339   3.000 -0.8809  0.3567  0.0246
  308MOL0     C42427   2.123   1.306   3.012  0.5624  0.8588 -0.6808
  308MOL0     C42428   2.097   1.168   3.087 -0.1079 -0.1870  0.4349
  308MOL0     C42429   1.948   1.130   3.087 -0.2970 -0.8411 -0.6527
  308MOL0     C42430   1.872   1.246   3.139  0.5677  0.3198  0.2276
  308MOL0     C42431   1.818   1.350   3.181 -0.6036 -0.0881  0.3065
  308MOL0     C42432   2.524   1.391   2.869  0.3828 -0.7953  0.1610
  308MOL0     C42433   2.647   1.420   2.803  0.1852 -0.4557 -0.1337
  308MOL0     C42434   2.685   1.565   2.807 -0.2164 -0.0004 -0.4808
  308MOL0     H42435   3.003   1.006   2.566 -0.6552 -0.3099 -1.2096
  308MOL0     H42436   3.221   0.975   2.449 -0.6036 -1.2561  0.1760
  308MOL0     H42437   3.408   1.338   2.295  0.3148 -0.0043 -1.5701
  308MOL0     H42438   3.333   1.279   2.149  1.7345  3.9536 -0.8633
  308MOL0     H42439   3.565   1.283   2.112 -0.4884  1.8188 -0.0761
  308MOL0     H42440   3.590   1.174   2.258 -1.0348 -1.2843 -0.5710
  308MOL0     H42441   3.498   0.990   2.164 -0.9616  0.2266 -0.0798
  308MOL0     H42442   3.421   1.059   2.028 -2.2766 -4.5953  2.9042
  308MOL0     H42443   3.661   1.109   1.934  2.3029  0.3847  0.2118
  308MOL0     H42444   3.726   1.043   2.084  0.6325 -0.3494 -0.6017
  308MOL0     H42445   3.637   0.813   2.029  0.9041 -0.2525 -0.4883
  308MOL0     H42446   3.758   0.871   1.918 -0.3559 -1.1118  0.0457
  308MOL0     H42447   3.556   0.773   1.827  1.8505 -0.6275  1.5994
  308MOL0     H42448   3.461   0.922   1.852  0.2602  3.7393 -1.5366
  308MOL0     H42449   3.706   0.878   1.661  0.6417  0.5014  0.7919
  308MOL0     H42450   3.637   1.039   1.711  2.3372  0.5136 -0.6445
  308MOL0     H42451   3.570   0.962   1.489 -5.5237  3.5459 -1.9300
  308MOL0     H42452   3.491   0.823   1.565 -0.3308 -0.2419 -2.0949
  308MOL0     H42453   3.496   1.189   1.704  4.3955 -5.7955  0.0781
  308MOL0     H42454   3.141   1.333   1.636 -0.5572 -2.9456  1.1256
  308MOL0     H42455   3.304   1.401   1.649  0.1533 -0.3659 -1.5330
  308MOL0     H42456   3.306   1.285   1.880  0.0318  0.8357  0.7740
  308MOL0     H42457   3.189   1.406   1.873 -1.2808 -0.5136 -1.8441
  308MOL0     H42458   3.026   1.216   1.793 -0.5437  1.5848  1.4312
  308MOL0     H42459   3.145   1.098   1.854 -1.8884 -1.5646 -2.8059
  308MOL0     H42460   2.937   1.151   1.998  3.1604 -4.3843  0.7093
  308MOL0     H42461   3.086   1.174   2.087  0.9518 -3.2810 -2.0324
  308MOL0     H42462   2.905   1.595   2.040  0.1516 -1.4503 -1.7970
  308MOL0     H42463   2.826   1.778   2.149  0.7846 -0.7297 -0.8730
  308MOL0     H42464   2.723   1.759   2.294 -0.2615  0.5664  0.2656
  308MOL0     H42465   2.655   1.723   2.137 -1.5827  0.5652  2.2455
  308MOL0     H42466   2.457   1.623   2.581 -0.2834  0.9613  2.4552
  308MOL0     H42467   2.264   1.699   2.674  0.8248  0.1109 -0.1910
  308MOL0     H42468   2.005   1.643   2.638 -0.4524  0.3105 -1.5662
  308MOL0     H42469   2.040   1.804   2.733  1.0697 -0.0575  0.1694
  308MOL0     H42470   1.836   1.882   2.667 -2.1460  0.5273 -3.2036
  308MOL0     H42471   1.804   1.744   2.548  1.8275  0.2368 -0.5234
  308MOL0     H42472   1.658   1.751   2.730 -1.3284 -3.0578 -3.7190
  308MOL0     H42473   1.800   1.731   2.842 -0.1597 -1.3933  0.4389
  308MOL0     H42474   1.827   1.495   2.705  0.2733 -0.5983 -0.0866
  308MOL0     H42475   1.664   1.534   2.654  1.3606 -0.0793 -0.8519
  308MOL0     H42476   1.698   1.372   2.844 -0.8027 -0.1212 -2.7303
  308MOL0     H42477   1.790   1.498   2.919 -0.4686  0.4921  0.8765
  308MOL0     H42478   1.572   1.643   2.915  2.3124  0.1882  2.2626
  308MOL0     H42479   1.569   1.513   3.040  0.7476  1.1360  0.3267
  308MOL0     H42480   1.350   1.507   2.953 -1.3734  1.9383 -1.2673
  308MOL0     H42481   1.440   1.381   2.865 -1.2054  0.0042  0.0341
  308MOL0     H42482   1.457   1.515   2.668  1.1188 -0.3694  1.3299
  308MOL0     H42483   1.389   1.649   2.761  3.6748  0.4077  0.4307
  308MOL0     H42484   2.107   1.820   2.282 -3.1846  1.5617  4.6750
  308MOL0     H42485   2.334   1.715   2.195 -3.5684  2.4183 -1.4300
  308MOL0     H42486   2.682   1.278   2.350  0.3936 -0.4264 -0.6463
  308MOL0     H42487   2.878   1.202   2.221 -0.5026 -0.5560  3.8767
  308MOL0     H42488   3.183   1.370   2.280  2.0342  0.2915 -0.7679
  308MOL0     H42489   2.986   1.413   2.416  0.8215  0.3259  2.3044
  308MOL0     H42490   2.696   1.091   2.690  1.4357 -2.2645  5.1998
  308MOL0     H42491   2.492   1.058   2.831 -1.6090  1.1149 -1.1104
  308MOL0     H42492   2.308   1.340   3.102 -1.5517  1.5758  0.2914
  308MOL0     H42493   2.260   1.433   2.945 -3.4211  0.3378  0.2465
  308MOL0     H42494   2.069   1.307   2.917  0.4179 -0.8597 -0.6430
  308MOL0     H42495   2.071   1.390   3.060 -0.3958 -1.0042  1.7628
  308MOL0     H42496   2.144   1.082   3.037 -1.8582 -1.0111  0.1011
  308MOL0     H42497   2.134   1.159   3.189  0.2370  3.3466  0.7396
  308MOL0     H42498   1.943   1.043   3.154 -1.4201  0.7379  1.4633
  308MOL0     H42499   1.929   1.104   2.983  1.9730  2.3992 -2.0093
  308MOL0     H42500   1.780   1.436   3.232 -1.9722  1.2261 -2.6900
  308MOL0     H42501   2.461   1.464   2.919 -1.4849 -2.1012 -0.1887
  308MOL0     H42502   2.790   1.582   2.832 -0.8630 -0.2613  2.9600
  308MOL0     H42503   2.647   1.628   2.727 -2.8427  2.4036  2.3772
  308MOL0     H42504   2.633   1.609   2.893  0.5265  2.0474 -1.0266
  309MOL0     O42505   6.767   8.529   3.558 -0.5735 -0.3602  0.4012
  309MOL0     C42506   6.785   8.645   3.601 -0.1605  0.6684 -0.5506
  309MOL0     O42507   6.699   8.716   3.679  0.0661 -0.4297  0.2414
  309MOL0     C42508   6.619   8.641   3.767  0.7205  0.4167  0.8129
  309MOL0     C42509   6.548   8.528   3.731 -0.0591  0.5581  0.9720
  309MOL0     C42510   6.463   8.459   3.813  0.4371 -0.1382 -0.1476
  309MOL0     C42511   6.455   8.480   3.951  0.0231 -0.3821 -0.0647
  309MOL0     O42512   6.353   8.423   4.016 -0.0869  0.4607  0.1407
  309MOL0     C42513   6.354   8.416   4.162  0.2366 -0.4351  0.8099
  309MOL0     C42514   6.323   8.281   4.217 -0.4868 -0.1892  0.4341
  309MOL0     C42515   6.175   8.244   4.176  0.0256 -0.7806 -0.4197
  309MOL0     C42516   6.134   8.095   4.210 -1.2568  0.4612 -0.6250
  309MOL0     C42517   5.990   8.075   4.172 -0.0277 -0.0820  0.5622
  309MOL0     C42518   5.928   7.946   4.220 -0.6342 -0.4870 -0.8663
  309MOL0     C42519   5.780   7.957   4.208  0.7160 -0.5374  0.1179
  309MOL0     C42520   5.715   7.819   4.233 -0.2337 -0.5576  0.1658
  309MOL0     N42521   5.573   7.835   4.178 -0.5987  0.0901  0.0629
  309MOL0     C42522   5.468   7.890   4.232  0.6337 -1.1675  0.3182
  309MOL0     C42523   5.363   7.846   4.149  0.1713 -0.3688  0.2745
  309MOL0     C42524   5.212   7.858   4.158 -1.6447  0.2516  0.1934
  309MOL0     C42525   5.168   7.721   4.210  0.6685  0.3445  0.8921
  309MOL0     C42526   5.018   7.720   4.246  0.6049 -0.0360 -0.5453
  309MOL0     C42527   4.935   7.698   4.116  0.6002  0.3356 -0.4482
  309MOL0     O42528   4.792   7.733   4.125 -0.0332 -0.0491  0.0486
  309MOL0     C42529   4.699   7.676   4.040  0.5976  0.7798 -0.1766
  309MOL0     C42530   4.720   7.596   3.929 -0.8318 -0.2945  0.1524
  309MOL0     C42531   4.620   7.535   3.860  0.6235  0.4552  0.4235
  309MOL0     C42532   4.658   7.438   3.741  0.1742 -0.1612  0.0611
  309MOL0     C42533   4.487   7.556   3.909  0.1458  0.2224  0.0660
  309MOL0     C42534   4.369   7.480   3.853 -0.0311 -0.0599 -0.6748
  309MOL0     O42535   4.260   7.453   3.932 -0.1837  0.3211  0.0751
  309MOL0     C42536   4.173   7.342   3.919 -0.3015  0.0137  0.2556
  309MOL0     C42537   4.038   7.361   3.951 -0.1793  0.5447  0.8391
  309MOL0     C42538   3.952   7.251   3.940  0.5250  0.0299 -0.3348
  309MOL0     C42539   3.999   7.124   3.913 -0.2849  0.2476 -0.7950
  309MOL0     O42540   3.908   7.022   3.922 -0.1461 -0.0097 -0.8078
  309MOL0     C42541   3.959   6.891   3.887 -0.5027 -0.2525  0.0824
  309MOL0     C42542   3.845   6.791   3.904  0.0098 -0.0982  0.2974
  309MOL0     C42543   3.816   6.777   4.054 -0.3167  0.6642 -0.2335
  309MOL0     C42544   3.673   6.708   4.068  0.2076 -0.7974 -0.5874
  309MOL0     C42545   3.638   6.692   4.224  0.5202 -0.5254 -0.0510
  309MOL0     C42546   3.496   6.674   4.256  0.7254  0.2300  1.1374
  309MOL0     C42547   3.475   6.713   4.397  0.3585 -0.4823  0.0995
  309MOL0     C42548   3.322   6.703   4.443 -0.9801 -0.0580  0.2912
  309MOL0    Cl42549   3.286   6.841   4.552  0.1214 -0.0965  0.0800
  309MOL0     C42550   4.128   7.105   3.862  0.6231  1.0010  0.1703
  309MOL0     C42551   4.208   7.218   3.873 -0.3506  0.7352  0.7963
  309MOL0     O42552   4.370   7.455   3.738  0.3027 -0.3402 -0.4282
  309MOL0     C42553   4.462   7.642   4.014  0.8681  0.5658  0.1817
  309MOL0     C42554   4.565   7.701   4.080  0.1674  0.4177  0.5463
  309MOL0     N42555   5.414   7.765   4.050  0.4354  0.2972 -0.2201
  309MOL0     N42556   5.535   7.768   4.064 -0.6914 -0.9285 -0.1800
  309MOL0     C42557   6.542   8.587   3.997  0.8907 -0.0807 -0.1444
  309MOL0     C42558   6.624   8.665   3.903  0.3217  0.5051 -0.6157
  309MOL0     C42559   6.895   8.712   3.530 -0.2104 -0.6980 -0.6027
  309MOL0     C42560   7.008   8.642   3.485  0.6494 -0.9796  0.3291
  309MOL0     C42561   7.112   8.700   3.413 -0.2168 -0.2632 -0.0668
  309MOL0     C42562   7.125   8.834   3.403  0.6531  0.9386  0.5032
  309MOL0     O42563   7.233   8.900   3.358  0.0093 -0.1264 -0.2643
  309MOL0     C42564   7.328   8.830   3.276  0.9196 -0.0733  0.4244
  309MOL0     C42565   7.436   8.919   3.215 -1.0425  0.2417 -0.4078
  309MOL0     C42566   7.495   8.998   3.330 -0.2569 -0.3281  0.0981
  309MOL0     C42567   7.627   9.058   3.283 -0.5968 -0.1752 -0.0369
  309MOL0     C42568   7.623   9.158   3.174  0.5546  0.7587 -0.0957
  309MOL0     C42569   7.611   9.243   3.093  0.5707 -0.1529 -0.9161
  309MOL0     C42570   7.019   8.919   3.453 -0.8362  0.5930 -0.1693
  309MOL0     C42571   6.908   8.861   3.520  0.2958  0.0429  0.4445
  309MOL0     C42572   6.795   8.957   3.559 -1.1668 -0.2107 -0.4744
  309MOL0     H42573   6.543   8.509   3.624 -1.4268  4.3873  0.1910
  309MOL0     H42574   6.386   8.395   3.770 -2.5993  0.8466  3.3541
  309MOL0     H42575   6.266   8.476   4.188  0.5455 -0.0135  0.8948
  309MOL0     H42576   6.435   8.473   4.211 -2.1765  2.8314  1.3526
  309MOL0     H42577   6.394   8.206   4.180 -0.1629  0.3244  0.0033
  309MOL0     H42578   6.345   8.275   4.324  0.9704 -0.4380  0.1520
  309MOL0     H42579   6.115   8.313   4.237  1.9759  0.3702  0.2954
  309MOL0     H42580   6.159   8.261   4.069 -2.9443 -0.0886  0.0295
  309MOL0     H42581   6.205   8.031   4.157 -2.3448 -1.0736 -0.3121
  309MOL0     H42582   6.139   8.075   4.318 -2.2335  0.7109 -0.5250
  309MOL0     H42583   5.982   8.076   4.063  3.4344 -1.0481  0.1705
  309MOL0     H42584   5.930   8.156   4.214  0.1371  0.8487 -0.9206
  309MOL0     H42585   5.970   7.869   4.155  2.5413  1.4002 -1.2474
  309MOL0     H42586   5.958   7.928   4.324 -2.7780 -1.4421 -0.3475
  309MOL0     H42587   5.763   7.994   4.106 -2.5194  0.4183  0.8938
  309MOL0     H42588   5.736   8.027   4.279  1.2918  0.1862 -0.2192
  309MOL0     H42589   5.764   7.733   4.187 -2.2082 -0.2020 -2.9655
  309MOL0     H42590   5.717   7.811   4.342  1.3372  3.3802  0.5985
  309MOL0     H42591   5.455   7.946   4.323 -1.9206 -3.9443  1.8617
  309MOL0     H42592   5.170   7.886   4.061 -2.3471 -0.3321  0.3253
  309MOL0     H42593   5.192   7.938   4.230 -2.6696  2.5319 -2.4165
  309MOL0     H42594   5.170   7.648   4.129 -0.7188  1.4652 -0.1931
  309MOL0     H42595   5.223   7.678   4.294  1.2432  0.8164  0.7600
  309MOL0     H42596   4.994   7.635   4.310  0.4451  0.7139  0.4011
  309MOL0     H42597   4.986   7.800   4.313 -0.2641  0.8199 -1.9325
  309MOL0     H42598   4.965   7.758   4.031 -0.6898 -1.1020 -1.9920
  309MOL0     H42599   4.959   7.593   4.097  1.8038  0.5454 -0.1816
  309MOL0     H42600   4.824   7.591   3.900 -0.9531 -0.8926 -0.1963
  309MOL0     H42601   4.635   7.337   3.777  0.5422 -0.8293 -1.4931
  309MOL0     H42602   4.762   7.447   3.709  0.8606  0.7430  2.3265
  309MOL0     H42603   4.598   7.462   3.653 -3.6095 -0.7311  2.2679
  309MOL0     H42604   3.992   7.459   3.950 -1.9908 -0.2565 -0.5923
  309MOL0     H42605   3.845   7.267   3.949  0.8758  4.0580 -1.1504
  309MOL0     H42606   3.983   6.891   3.780  0.0466  0.5284  0.1981
  309MOL0     H42607   4.051   6.859   3.937  0.0921  1.1501 -0.0846
  309MOL0     H42608   3.764   6.842   3.851 -0.4332 -0.5527  0.5308
  309MOL0     H42609   3.871   6.691   3.870  2.4039  0.0286  1.5508
  309MOL0     H42610   3.816   6.872   4.109  2.4894  0.4476  0.2712
  309MOL0     H42611   3.898   6.721   4.101 -0.5326  1.2584  0.8806
  309MOL0     H42612   3.671   6.608   4.025  1.3203 -0.5793 -1.1945
  309MOL0     H42613   3.603   6.778   4.021 -3.0442 -3.2986  0.1853
  309MOL0     H42614   3.702   6.613   4.265  0.4754  0.2459  1.5531
  309MOL0     H42615   3.673   6.787   4.265 -1.3463  0.2453 -0.1709
  309MOL0     H42616   3.467   6.573   4.226  1.8403  0.8250 -2.4100
  309MOL0     H42617   3.441   6.740   4.189 -0.7101 -2.4924 -0.4888
  309MOL0     H42618   3.502   6.818   4.410 -2.2576  0.3398 -0.6592
  309MOL0     H42619   3.533   6.648   4.464 -0.7671 -0.8012  0.7977
  309MOL0     H42620   3.306   6.603   4.483  0.4829  0.2640  1.7728
  309MOL0     H42621   3.249   6.712   4.361  0.3729  1.0018 -0.8581
  309MOL0     H42622   4.186   7.018   3.834  0.9404  2.4309 -4.4794
  309MOL0     H42623   4.311   7.201   3.843  0.2519 -0.4656  3.2725
  309MOL0     H42624   4.367   7.655   4.066  1.5585 -0.2116  1.6832
  309MOL0     H42625   4.549   7.771   4.161  1.6410  1.1231  0.2673
  309MOL0     H42626   6.543   8.607   4.104 -0.1936 -1.7688  0.2105
  309MOL0     H42627   6.702   8.732   3.938  4.0940 -1.2926 -4.4977
  309MOL0     H42628   7.011   8.534   3.484  2.0829 -0.9832  1.2796
  309MOL0     H42629   7.185   8.631   3.371  0.2869  0.2981 -0.1256
  309MOL0     H42630   7.376   8.742   3.319 -0.5011 -0.1747  1.8601
  309MOL0     H42631   7.265   8.786   3.198 -1.4245  0.1990  2.0992
  309MOL0     H42632   7.386   8.974   3.134  0.6350 -0.6072 -2.1040
  309MOL0     H42633   7.509   8.870   3.149 -2.2886  0.1458 -1.7832
  309MOL0     H42634   7.420   9.068   3.367 -0.5450 -0.6672  0.1592
  309MOL0     H42635   7.526   8.934   3.414  0.6662 -1.8546 -1.3341
  309MOL0     H42636   7.687   8.972   3.250 -3.2579 -3.1123  2.1465
  309MOL0     H42637   7.687   9.099   3.364  0.6724 -0.9667 -0.5469
  309MOL0     H42638   7.583   9.299   3.006  3.2884 -1.1880 -2.5705
  309MOL0     H42639   7.029   9.027   3.446 -1.1073  0.5254 -2.3754
  309MOL0     H42640   6.702   8.918   3.518 -1.5232  1.1851 -1.0557
  309MOL0     H42641   6.778   8.965   3.667 -1.3888  1.6042 -0.6117
  309MOL0     H42642   6.812   9.058   3.519 -0.3817  0.3410  1.1581
  310MOL0     O42643   6.322   6.428   7.164 -0.0715 -0.0832  0.1305
  310MOL0     C42644   6.290   6.455   7.050 -0.7448  0.4581  0.1914
  310MOL0     O42645   6.256   6.371   6.949  0.3825  0.4245  0.9719
  310MOL0     C42646   6.288   6.244   6.975  0.4329  0.2342  0.1272
  310MOL0     C42647   6.421   6.193   6.992 -0.2797 -0.2214  0.3361
  310MOL0     C42648   6.447   6.059   7.008  0.6108 -0.5691  0.0402
  310MOL0     C42649   6.338   5.965   7.011 -0.9356 -0.7274  0.0007
  310MOL0     O42650   6.378   5.840   7.049  0.8998 -0.0783  1.0189
  310MOL0     C42651   6.282   5.728   7.037 -0.2358 -0.1265 -0.6488
  310MOL0     C42652   6.193   5.711   7.169 -0.1050 -0.1595 -0.2466
  310MOL0     C42653   6.261   5.618   7.273 -1.5192 -0.3903  0.2643
  310MOL0     C42654   6.179   5.485   7.291  0.4366  0.6081 -0.4895
  310MOL0     C42655   6.208   5.420   7.425 -0.7854  0.4360  0.4149
  310MOL0     C42656   6.156   5.517   7.538 -0.1199 -1.9046 -0.3492
  310MOL0     C42657   6.254   5.508   7.657 -0.6980 -0.4190  0.5630
  310MOL0     C42658   6.237   5.393   7.751  0.2493 -0.9058 -0.5204
  310MOL0     N42659   6.276   5.256   7.702  0.1739 -0.2549  0.3429
  310MOL0     C42660   6.396   5.220   7.645  0.1266  0.5819  0.4583
  310MOL0     C42661   6.395   5.086   7.616 -0.5254  0.3325 -0.0098
  310MOL0     C42662   6.513   5.006   7.571 -0.3130  0.4443  0.7236
  310MOL0     C42663   6.637   5.021   7.669 -0.2519  0.1105  0.4168
  310MOL0     C42664   6.613   4.960   7.806  0.8197 -0.1831  1.0460
  310MOL0     C42665   6.566   4.802   7.803 -0.2728 -0.1082 -0.4333
  310MOL0     O42666   6.669   4.735   7.721  0.9535  0.0720 -0.0031
  310MOL0     C42667   6.657   4.608   7.681 -0.2633  0.8602  0.3848
  310MOL0     C42668   6.782   4.564   7.626 -1.6091 -0.3469 -0.0527
  310MOL0     C42669   6.801   4.432   7.580 -0.5183  0.1246  0.6816
  310MOL0     C42670   6.942   4.380   7.565 -0.6967  0.4250  0.8766
  310MOL0     C42671   6.683   4.353   7.557  0.4637 -0.8266 -0.0475
  310MOL0     C42672   6.678   4.226   7.492 -1.3723 -0.7376  1.5055
  310MOL0     O42673   6.566   4.148   7.512 -0.1985 -0.4617 -0.5134
  310MOL0     C42674   6.561   4.020   7.457 -0.6804 -0.0928 -0.2988
  310MOL0     C42675   6.600   3.983   7.332  0.5643 -0.3545 -0.2085
  310MOL0     C42676   6.583   3.856   7.288 -0.2502 -0.0744 -0.0349
  310MOL0     C42677   6.529   3.756   7.365 -0.6427 -1.2292  0.8903
  310MOL0     O42678   6.534   3.635   7.315  0.8136  0.5129  0.5628
  310MOL0     C42679   6.567   3.534   7.409 -0.0802  0.0368  0.1373
  310MOL0     C42680   6.601   3.401   7.349  0.5122  0.0703 -0.4910
  310MOL0     C42681   6.717   3.408   7.245  0.1618 -0.0315 -0.2771
  310MOL0     C42682   6.748   3.271   7.184 -0.0941  0.0402  0.4318
  310MOL0     C42683   6.879   3.265   7.101 -0.0569  1.0529 -0.0219
  310MOL0     C42684   6.900   3.125   7.038  0.5767  0.4471 -0.4065
  310MOL0     C42685   7.038   3.127   6.979  0.0796 -0.1314  0.1900
  310MOL0     C42686   7.127   3.033   7.043 -0.7950 -0.5658  0.0066
  310MOL0    Cl42687   7.281   3.018   6.956 -0.0189 -0.1997 -0.0803
  310MOL0     C42688   6.462   3.796   7.484 -0.7256  1.4357  0.4504
  310MOL0     C42689   6.470   3.935   7.523 -0.3211 -0.1494 -0.5489
  310MOL0     O42690   6.769   4.213   7.406 -0.9176  0.4517 -0.3984
  310MOL0     C42691   6.559   4.399   7.609 -0.1495  0.1746 -0.0175
  310MOL0     C42692   6.545   4.523   7.668 -0.5358  0.3382 -0.5745
  310MOL0     N42693   6.272   5.041   7.683 -0.1043 -0.3443  0.8491
  310MOL0     N42694   6.209   5.138   7.737 -0.2706 -1.2594 -0.0626
  310MOL0     C42695   6.208   6.017   6.990 -0.3118  0.2460 -0.1165
  310MOL0     C42696   6.183   6.153   6.979  0.5514 -0.0096 -0.7852
  310MOL0     C42697   6.298   6.607   7.030 -0.9811  0.2762 -1.1699
  310MOL0     C42698   6.409   6.682   7.086 -0.3194 -0.5069  0.5445
  310MOL0     C42699   6.410   6.815   7.098  0.1749 -0.6815  0.3591
  310MOL0     C42700   6.304   6.894   7.046 -0.4308 -0.0739  0.6654
  310MOL0     O42701   6.327   7.024   7.040  0.1527  0.2365 -0.2241
  310MOL0     C42702   6.230   7.126   7.041  0.5224  0.5974 -0.3076
  310MOL0     C42703   6.275   7.241   6.962 -0.3796  0.3363 -0.8752
  310MOL0     C42704   6.245   7.230   6.813  0.3858 -0.2556  0.3582
  310MOL0     C42705   6.110   7.280   6.778  0.1901 -0.3686  0.3893
  310MOL0     C42706   6.070   7.409   6.832 -0.1348 -0.5370  0.4587
  310MOL0     C42707   6.023   7.515   6.861 -0.5290  0.1279 -0.5094
  310MOL0     C42708   6.189   6.824   6.995  0.0994 -0.8908 -0.0809
  310MOL0     C42709   6.184   6.683   6.990 -0.3098  0.5025  0.4907
  310MOL0     C42710   6.067   6.612   6.940 -0.3493 -0.5100 -0.1471
  310MOL0     H42711   6.503   6.261   6.975 -0.8077  0.6754  1.2834
  310MOL0     H42712   6.552   6.050   7.034  0.0233  0.7950  3.3177
  310MOL0     H42713   6.342   5.638   7.025 -0.3448 -0.8688  3.0974
  310MOL0     H42714   6.219   5.743   6.949 -0.6314 -2.2829 -0.7767
  310MOL0     H42715   6.172   5.813   7.203  1.7606  0.5978 -1.1963
  310MOL0     H42716   6.104   5.660   7.130  0.8966 -3.7218  1.6861
  310MOL0     H42717   6.359   5.589   7.232 -1.6752 -2.5381  1.3220
  310MOL0     H42718   6.284   5.670   7.367  1.2963  0.7993 -0.9488
  310MOL0     H42719   6.071   5.498   7.293 -0.0341 -2.3679  2.1861
  310MOL0     H42720   6.210   5.417   7.211 -1.1348 -0.8870  0.0983
  310MOL0     H42721   6.316   5.402   7.435 -0.6565 -1.3462 -2.8656
  310MOL0     H42722   6.148   5.328   7.429  0.5703 -0.5065 -0.1621
  310MOL0     H42723   6.147   5.618   7.499  1.0774 -2.4541 -2.1793
  310MOL0     H42724   6.061   5.497   7.588 -0.4311  3.3214  1.7231
  310MOL0     H42725   6.235   5.598   7.716  1.5019  0.2157  0.4251
  310MOL0     H42726   6.358   5.496   7.623 -1.3770 -0.7375 -1.4949
  310MOL0     H42727   6.294   5.399   7.844 -0.2774  2.2502 -0.2977
  310MOL0     H42728   6.130   5.408   7.763  0.7102  3.9413 -0.6071
  310MOL0     H42729   6.480   5.285   7.625  1.6752 -1.9100 -1.8526
  310MOL0     H42730   6.535   5.054   7.475 -2.4460 -1.6609 -0.9319
  310MOL0     H42731   6.483   4.901   7.565 -0.9062  0.6790 -1.0734
  310MOL0     H42732   6.719   4.969   7.618  0.1393  0.8073  0.3348
  310MOL0     H42733   6.663   5.127   7.675  2.9037 -0.6353  1.8563
  310MOL0     H42734   6.704   4.965   7.866  0.7838  0.5529  1.0500
  310MOL0     H42735   6.547   5.028   7.861  0.3555  0.1276  0.1145
  310MOL0     H42736   6.567   4.755   7.902  3.6380 -1.9338 -1.1661
  310MOL0     H42737   6.470   4.786   7.753  0.5602  0.2360 -2.2099
  310MOL0     H42738   6.868   4.627   7.648 -2.7722  0.5341  2.3351
  310MOL0     H42739   7.020   4.447   7.602  1.5122 -1.3214 -0.3586
  310MOL0     H42740   6.965   4.366   7.459 -0.3187 -0.4338  1.0583
  310MOL0     H42741   6.957   4.286   7.619  2.5444  0.4794  0.2776
  310MOL0     H42742   6.640   4.044   7.251 -1.9934 -1.6822 -2.6214
  310MOL0     H42743   6.632   3.824   7.196  2.4729 -0.3535  1.4055
  310MOL0     H42744   6.652   3.569   7.468 -1.6338  0.7259  2.0800
  310MOL0     H42745   6.476   3.523   7.469 -1.1128 -3.2096 -1.7492
  310MOL0     H42746   6.628   3.333   7.430 -0.2309  0.7690  0.3561
  310MOL0     H42747   6.507   3.365   7.305  0.2669 -1.2303  1.0178
  310MOL0     H42748   6.803   3.449   7.297 -1.2359 -1.2338  3.2686
  310MOL0     H42749   6.676   3.476   7.169 -3.7578  0.0108  1.6350
  310MOL0     H42750   6.675   3.234   7.111  0.1882  1.3276 -0.5432
  310MOL0     H42751   6.756   3.206   7.272  1.5412  0.3026  0.5040
  310MOL0     H42752   6.869   3.343   7.025 -0.6808  1.0029  0.0053
  310MOL0     H42753   6.956   3.290   7.175 -0.2433  1.1789  0.1326
  310MOL0     H42754   6.815   3.100   6.974  0.9848 -1.8192 -0.1490
  310MOL0     H42755   6.893   3.056   7.122  0.9743  1.1991  0.2563
  310MOL0     H42756   7.076   3.230   6.976 -2.2411  0.7731 -0.2847
  310MOL0     H42757   7.020   3.113   6.872  0.1760  1.0529  0.0065
  310MOL0     H42758   7.082   2.935   7.060 -3.4240 -0.0562 -3.2077
  310MOL0     H42759   7.153   3.085   7.137 -0.9653 -0.0910 -0.2030
  310MOL0     H42760   6.412   3.723   7.547  4.3673 -0.7035  2.5500
  310MOL0     H42761   6.408   3.965   7.607  0.1002  1.8913 -0.9028
  310MOL0     H42762   6.463   4.349   7.595  0.7344 -2.5127  2.4872
  310MOL0     H42763   6.455   4.564   7.712  0.0532 -0.3688  1.3876
  310MOL0     H42764   6.123   5.950   6.983 -0.7366  0.4628  2.0899
  310MOL0     H42765   6.082   6.193   6.969  0.1559 -0.9200 -0.5493
  310MOL0     H42766   6.490   6.623   7.129 -1.8800 -1.3466  2.4684
  310MOL0     H42767   6.497   6.871   7.133 -0.5812  0.6918  0.1087
  310MOL0     H42768   6.134   7.088   7.007  1.0453  1.3544 -2.8638
  310MOL0     H42769   6.219   7.161   7.144  1.5256  2.5389 -0.8184
  310MOL0     H42770   6.381   7.247   6.988 -0.4457  1.1454 -0.7714
  310MOL0     H42771   6.224   7.328   7.002  2.5670  2.3235 -1.1324
  310MOL0     H42772   6.311   7.291   6.751  2.9726 -1.1163  2.0884
  310MOL0     H42773   6.255   7.126   6.781 -1.2846  0.2276 -1.8850
  310MOL0     H42774   6.031   7.207   6.794  0.6790 -1.7666 -2.8252
  310MOL0     H42775   6.114   7.281   6.669  3.7632 -0.8131  0.3795
  310MOL0     H42776   5.978   7.607   6.893 -1.7868 -1.5596  3.2341
  310MOL0     H42777   6.101   6.876   6.960  1.8842  1.8249 -0.8359
  310MOL0     H42778   6.006   6.586   7.027 -1.6588 -2.5030 -1.5873
  310MOL0     H42779   6.001   6.678   6.883  0.0835 -2.2370 -2.8471
  310MOL0     H42780   6.085   6.525   6.876  0.5858  0.1392 -0.8132
  311MOL0     O42781   1.741   7.973   6.462  0.6938 -0.1817 -0.7546
  311MOL0     C42782   1.678   8.079   6.456 -0.1011  0.0571  0.2085
  311MOL0     O42783   1.729   8.200   6.439 -0.2424  0.0938  0.1263
  311MOL0     C42784   1.867   8.211   6.455  0.6419 -0.1817 -0.5591
  311MOL0     C42785   1.939   8.252   6.346 -0.0463  0.5572 -0.6719
  311MOL0     C42786   2.068   8.289   6.354  0.1773 -0.0142 -0.5040
  311MOL0     C42787   2.131   8.312   6.476 -0.9987  0.5185 -0.9207
  311MOL0     O42788   2.261   8.346   6.491  0.2729  0.3066 -0.0606
  311MOL0     C42789   2.335   8.370   6.375 -0.5063 -1.0961 -0.8057
  311MOL0     C42790   2.467   8.439   6.426 -0.2805 -0.7068  0.5615
  311MOL0     C42791   2.467   8.563   6.532  0.0233 -0.1438 -0.3013
  311MOL0     C42792   2.605   8.628   6.559  0.6919 -0.0159  0.4307
  311MOL0     C42793   2.589   8.727   6.676  0.2891 -0.6393  0.4875
  311MOL0     C42794   2.725   8.781   6.727 -0.3983 -0.4318  0.0322
  311MOL0     C42795   2.726   8.849   6.859 -0.0813  0.1080 -0.2809
  311MOL0     C42796   2.645   8.985   6.862 -0.1881 -0.4594 -0.0005
  311MOL0     N42797   2.663   9.056   6.989  1.1989 -0.5880  0.4641
  311MOL0     C42798   2.672   9.001   7.115  0.4285 -0.3786  0.7713
  311MOL0     C42799   2.697   9.105   7.202  1.0399 -0.4979  0.1187
  311MOL0     C42800   2.718   9.123   7.354 -1.0781 -0.1346 -0.1479
  311MOL0     C42801   2.619   9.043   7.446  0.4938 -0.1884 -0.7755
  311MOL0     C42802   2.663   9.032   7.591 -0.0959  0.4278 -0.1292
  311MOL0     C42803   2.579   8.930   7.668 -0.6000  0.0416 -0.3220
  311MOL0     O42804   2.649   8.845   7.763  0.2097  0.3728  0.8229
  311MOL0     C42805   2.580   8.758   7.844  0.2375 -0.6944  0.2571
  311MOL0     C42806   2.659   8.672   7.908 -0.0706  0.3378  0.4069
  311MOL0     C42807   2.611   8.581   8.010  0.1315  0.9928  0.4753
  311MOL0     C42808   2.717   8.507   8.083  1.7123  0.3851 -0.1807
  311MOL0     C42809   2.477   8.585   8.043 -0.6072  0.4405 -0.8399
  311MOL0     C42810   2.407   8.498   8.146 -1.3705 -1.1623  0.6007
  311MOL0     O42811   2.487   8.411   8.211 -0.1556  0.0561  0.4681
  311MOL0     C42812   2.427   8.296   8.257  0.5324 -0.9927 -0.0635
  311MOL0     C42813   2.315   8.294   8.349 -0.2535  0.3073  0.5003
  311MOL0     C42814   2.258   8.178   8.385  0.4678 -0.4848 -0.2330
  311MOL0     C42815   2.334   8.056   8.356  0.1154 -0.6176  0.2132
  311MOL0     O42816   2.284   7.929   8.393 -0.1855  0.6854 -0.2106
  311MOL0     C42817   2.215   7.928   8.514 -0.5746  1.0110  0.1663
  311MOL0     C42818   2.202   7.779   8.559  1.1808 -0.8982  0.5356
  311MOL0     C42819   2.141   7.784   8.700 -0.6744  0.0964 -0.6709
  311MOL0     C42820   2.141   7.643   8.765  1.2526  0.2346 -0.0970
  311MOL0     C42821   2.278   7.580   8.799  0.2506  0.1015  0.1047
  311MOL0     C42822   2.269   7.449   8.877 -0.2698 -0.1594 -0.3510
  311MOL0     C42823   2.259   7.494   9.026  0.3992  0.4574  0.3401
  311MOL0     C42824   2.195   7.395   9.119  0.3115 -0.4227  0.4722
  311MOL0    Cl42825   2.317   7.261   9.152 -0.0244  0.2808 -0.3796
  311MOL0     C42826   2.446   8.055   8.276 -0.2168 -0.1705  0.1361
  311MOL0     C42827   2.493   8.178   8.229 -1.0361 -0.4346  0.0437
  311MOL0     O42828   2.285   8.512   8.162 -0.7130  0.3102  0.1562
  311MOL0     C42829   2.389   8.662   7.966 -0.8613  0.0557 -0.5354
  311MOL0     C42830   2.442   8.743   7.859  0.1515  0.1112 -0.1774
  311MOL0     N42831   2.728   9.216   7.122 -0.0831  0.8274 -0.8741
  311MOL0     N42832   2.705   9.185   7.001 -0.4712 -0.1864 -0.2579
  311MOL0     C42833   2.066   8.269   6.589  1.3426  1.0578  0.3222
  311MOL0     C42834   1.931   8.219   6.580 -0.3121  0.7906 -0.2337
  311MOL0     C42835   1.524   8.079   6.449  0.5377 -0.0565 -0.8003
  311MOL0     C42836   1.464   8.187   6.370 -0.6579 -0.2516  0.3939
  311MOL0     C42837   1.326   8.212   6.381  0.3633  0.5121  1.0855
  311MOL0     C42838   1.239   8.120   6.451 -0.7958  0.9340  0.7321
  311MOL0     O42839   1.105   8.134   6.465  0.1579 -0.7855  0.6266
  311MOL0     C42840   1.039   8.240   6.399 -1.2600 -0.1651  0.5154
  311MOL0     C42841   0.892   8.278   6.446  0.6733 -0.3680  0.8460
  311MOL0     C42842   0.789   8.175   6.421  0.1482  0.6058  0.4006
  311MOL0     C42843   0.641   8.195   6.464 -0.5129 -0.0555  0.1895
  311MOL0     C42844   0.640   8.264   6.597  0.3238  1.1231  1.0337
  311MOL0     C42845   0.631   8.307   6.703  0.4382 -0.6261 -1.0089
  311MOL0     C42846   1.302   8.015   6.520 -0.5736 -0.9288 -0.7540
  311MOL0     C42847   1.437   7.992   6.518  0.1984 -0.0611 -0.8388
  311MOL0     C42848   1.494   7.863   6.561  0.1765  0.0345 -0.5642
  311MOL0     H42849   1.894   8.242   6.248  0.9418  1.7826 -1.2710
  311MOL0     H42850   2.118   8.322   6.263  1.4360 -0.5277 -0.0222
  311MOL0     H42851   2.282   8.434   6.304 -0.9700  1.3299  1.5571
  311MOL0     H42852   2.376   8.278   6.332  2.2485  0.5313 -1.9572
  311MOL0     H42853   2.529   8.362   6.472  0.6935  0.2159  0.8265
  311MOL0     H42854   2.516   8.486   6.341  1.0242 -1.2518  0.9894
  311MOL0     H42855   2.399   8.640   6.495 -1.6394  0.9069  4.2384
  311MOL0     H42856   2.425   8.532   6.629 -1.5900  0.8138 -0.6624
  311MOL0     H42857   2.682   8.554   6.583  0.5152 -1.2208 -2.3365
  311MOL0     H42858   2.628   8.685   6.468  0.7228 -3.2744 -1.7747
  311MOL0     H42859   2.536   8.677   6.758 -1.9228  1.1390  0.2573
  311MOL0     H42860   2.525   8.809   6.642  0.4469  0.1205  1.9495
  311MOL0     H42861   2.799   8.703   6.743  2.2775  0.7490 -4.7234
  311MOL0     H42862   2.783   8.837   6.653  0.7197 -1.4111  0.1476
  311MOL0     H42863   2.827   8.876   6.893 -0.3021  0.3495  0.2005
  311MOL0     H42864   2.681   8.780   6.930 -0.2483 -2.1911 -2.5015
  311MOL0     H42865   2.675   9.060   6.787  0.4224  0.8601  1.5108
  311MOL0     H42866   2.539   8.970   6.842 -0.0320  0.5067 -1.8405
  311MOL0     H42867   2.662   8.894   7.132  1.4262 -0.5554  0.2973
  311MOL0     H42868   2.705   9.228   7.382 -2.7416 -0.7635  1.6439
  311MOL0     H42869   2.823   9.092   7.364 -1.0407 -0.2755 -0.9148
  311MOL0     H42870   2.526   9.100   7.438  2.2022  2.7400 -1.2130
  311MOL0     H42871   2.595   8.946   7.401 -0.0272  0.8299 -2.8189
  311MOL0     H42872   2.766   8.998   7.589  0.2288  1.3162 -2.6321
  311MOL0     H42873   2.662   9.130   7.640 -0.3202 -0.0418  0.8053
  311MOL0     H42874   2.484   8.966   7.710 -0.8881  0.9029 -1.6470
  311MOL0     H42875   2.544   8.862   7.590  0.0384 -0.3637 -0.2617
  311MOL0     H42876   2.766   8.683   7.896 -0.1297 -0.1224 -0.6123
  311MOL0     H42877   2.695   8.400   8.080  2.3632  0.1574  1.8493
  311MOL0     H42878   2.709   8.541   8.186 -1.9515 -3.9241  1.2729
  311MOL0     H42879   2.813   8.506   8.029  0.8278  1.3935 -1.8782
  311MOL0     H42880   2.262   8.387   8.367  0.7811  0.4218  3.4542
  311MOL0     H42881   2.166   8.160   8.441  0.6121 -3.0446 -0.6925
  311MOL0     H42882   2.269   7.983   8.591  0.6317 -2.6300  2.1361
  311MOL0     H42883   2.115   7.971   8.506 -0.3260  1.2540 -3.7467
  311MOL0     H42884   2.126   7.737   8.493 -0.5125  1.0647  1.1430
  311MOL0     H42885   2.302   7.734   8.565  1.8274  0.3621 -0.2235
  311MOL0     H42886   2.038   7.818   8.703 -0.7918 -0.1510 -1.5641
  311MOL0     H42887   2.215   7.834   8.763  1.0871  0.0238 -2.5544
  311MOL0     H42888   2.081   7.590   8.690 -1.0956 -1.5771  2.8120
  311MOL0     H42889   2.077   7.640   8.854 -0.3588 -0.5372 -1.2145
  311MOL0     H42890   2.331   7.556   8.707  4.7720 -1.5527  2.8071
  311MOL0     H42891   2.350   7.649   8.845  1.1794  0.7824 -2.2047
  311MOL0     H42892   2.362   7.396   8.855 -1.7205 -1.3678 -4.8629
  311MOL0     H42893   2.180   7.387   8.860  0.9270 -2.2558  0.7983
  311MOL0     H42894   2.208   7.591   9.029  1.0135  0.7695  0.8725
  311MOL0     H42895   2.361   7.520   9.056  1.3775  2.0517 -3.6316
  311MOL0     H42896   2.109   7.348   9.069  2.0421 -0.4830 -2.6591
  311MOL0     H42897   2.158   7.440   9.212  1.3236  1.0595  0.1939
  311MOL0     H42898   2.489   7.957   8.257 -0.6388 -0.6214  1.4256
  311MOL0     H42899   2.563   8.192   8.148 -0.0872 -0.3089  0.8732
  311MOL0     H42900   2.283   8.668   7.988 -1.0402  0.9762 -1.5305
  311MOL0     H42901   2.375   8.797   7.793  0.2811 -1.5187 -1.7510
  311MOL0     H42902   2.121   8.277   6.682 -2.5695  0.1331  2.9840
  311MOL0     H42903   1.890   8.181   6.673  0.8872  2.8765  1.2296
  311MOL0     H42904   1.523   8.248   6.303 -0.8601 -1.2122 -0.6996
  311MOL0     H42905   1.283   8.300   6.334 -0.4927  1.7373  3.9564
  311MOL0     H42906   1.102   8.327   6.422 -1.2538 -0.5217  1.9224
  311MOL0     H42907   1.044   8.218   6.292 -3.0026 -1.1949  0.6115
  311MOL0     H42908   0.854   8.365   6.391  3.6359  0.6228  0.1708
  311MOL0     H42909   0.899   8.297   6.553  1.6513  2.1144  0.4064
  311MOL0     H42910   0.790   8.147   6.315 -0.1225 -0.5436  0.6919
  311MOL0     H42911   0.819   8.094   6.487 -0.4538  2.0475  2.5417
  311MOL0     H42912   0.588   8.101   6.483  0.2275 -0.4925  0.1113
  311MOL0     H42913   0.590   8.251   6.384  2.6814 -1.2608 -2.9481
  311MOL0     H42914   0.653   8.351   6.799  1.3064 -0.0977 -1.4293
  311MOL0     H42915   1.246   7.944   6.579  0.2865 -0.6461  0.4466
  311MOL0     H42916   1.494   7.790   6.479 -0.4690 -0.1689 -0.3875
  311MOL0     H42917   1.596   7.871   6.598  0.4608 -1.3826 -1.0006
  311MOL0     H42918   1.437   7.813   6.640  2.2341  1.1909  1.7855
  312MOL0     O42919   5.041   9.061   2.669  0.9174  0.1002 -0.0868
  312MOL0     C42920   5.061   9.166   2.609  0.0618 -0.1452 -0.4698
  312MOL0     O42921   5.143   9.185   2.498 -0.8469 -0.7351  0.5992
  312MOL0     C42922   5.169   9.099   2.393 -0.3848 -0.0123 -0.1292
  312MOL0     C42923   5.099   8.981   2.372 -0.4283  0.5491  0.1831
  312MOL0     C42924   5.103   8.890   2.260 -0.3574 -0.2672 -0.1278
  312MOL0     C42925   5.200   8.917   2.169  0.4975 -0.1239  0.2944
  312MOL0     O42926   5.234   8.826   2.071  0.4358  0.0297 -0.4576
  312MOL0     C42927   5.125   8.776   1.993 -1.5075 -0.3041  0.1477
  312MOL0     C42928   5.184   8.667   1.904 -0.4143  0.5235  0.8429
  312MOL0     C42929   5.080   8.618   1.802 -0.2223  0.2460 -0.3930
  312MOL0     C42930   5.087   8.702   1.670 -0.6869 -0.2548 -0.5029
  312MOL0     C42931   4.992   8.637   1.577  0.5330  0.9210  0.9691
  312MOL0     C42932   4.977   8.723   1.443  1.0488  0.0695  0.0391
  312MOL0     C42933   4.857   8.700   1.344  0.9581  0.7816 -0.8625
  312MOL0     C42934   4.860   8.569   1.272  0.0023 -0.1370 -0.3302
  312MOL0     N42935   4.720   8.558   1.225  0.5926  0.0930  0.1946
  312MOL0     C42936   4.680   8.595   1.094 -0.2272 -0.1050 -0.0662
  312MOL0     C42937   4.547   8.565   1.093 -0.7874  0.1125 -0.1764
  312MOL0     C42938   4.466   8.577   0.976 -0.0513  0.5396 -0.6788
  312MOL0     C42939   4.449   8.437   0.912  1.1450  0.2805 -0.0260
  312MOL0     C42940   4.570   8.412   0.829  0.9787 -1.1447  0.4476
  312MOL0     C42941   4.580   8.267   0.783  0.4354 -0.2736 -0.8066
  312MOL0     O42942   4.593   8.177   0.896  0.1573  0.7487  0.3561
  312MOL0     C42943   4.682   8.197   0.993 -0.4413 -0.8265  0.7971
  312MOL0     C42944   4.820   8.205   0.959  0.0649  0.3118 -1.2190
  312MOL0     C42945   4.918   8.220   1.062  0.8827  0.2086 -0.0081
  312MOL0     C42946   5.065   8.223   1.026  1.0184 -0.0887  0.9642
  312MOL0     C42947   4.889   8.240   1.196 -0.3687  0.5396  0.6021
  312MOL0     C42948   4.990   8.267   1.305  0.6618 -0.9258  0.7232
  312MOL0     O42949   5.119   8.292   1.284 -0.3268 -0.1510 -0.0658
  312MOL0     C42950   5.197   8.274   1.391 -0.4977  0.2805  0.7056
  312MOL0     C42951   5.235   8.380   1.468  0.4194 -1.5548 -0.0473
  312MOL0     C42952   5.325   8.364   1.572  0.7166  0.3348  0.5085
  312MOL0     C42953   5.357   8.238   1.620  0.5936  0.3391  0.7211
  312MOL0     O42954   5.427   8.233   1.734 -0.5038  0.4541 -0.1483
  312MOL0     C42955   5.378   8.139   1.829 -1.0377 -0.2077 -0.7965
  312MOL0     C42956   5.485   8.109   1.928  0.5501  0.0159  0.2420
  312MOL0     C42957   5.604   8.031   1.868  0.6010  0.6226 -0.2782
  312MOL0     C42958   5.562   7.884   1.875 -0.3290 -0.2330  0.0838
  312MOL0     C42959   5.671   7.788   1.823 -0.3562  0.7630  0.6212
  312MOL0     C42960   5.699   7.813   1.670 -0.6859  0.0876 -0.0927
  312MOL0     C42961   5.812   7.714   1.634  0.7352  0.2729 -0.3914
  312MOL0     C42962   5.898   7.750   1.518 -0.0595 -1.1059  0.6001
  312MOL0    Cl42963   5.930   7.610   1.413  0.2356  0.1429  0.2657
  312MOL0     C42964   5.336   8.128   1.526  0.3563 -0.0009 -0.3309
  312MOL0     C42965   5.246   8.148   1.418  0.0761  0.0570 -0.4985
  312MOL0     O42966   4.941   8.247   1.416 -0.2233  0.4725 -0.5504
  312MOL0     C42967   4.751   8.237   1.224 -0.2971 -0.1197  0.4004
  312MOL0     C42968   4.651   8.214   1.128  1.1122 -0.8505 -1.0844
  312MOL0     N42969   4.512   8.516   1.220  0.4892 -0.4983 -0.0708
  312MOL0     N42970   4.617   8.508   1.291  0.4929  0.1046 -0.9005
  312MOL0     C42971   5.279   9.032   2.186 -0.1376  0.2636  0.4950
  312MOL0     C42972   5.269   9.121   2.297  0.0487 -0.4276  0.2659
  312MOL0     C42973   5.023   9.288   2.688 -0.2281  0.3074  0.7841
  312MOL0     C42974   5.118   9.389   2.701  0.1803 -0.3975  0.3241
  312MOL0     C42975   5.083   9.507   2.769 -0.9397 -0.5558 -1.3860
  312MOL0     C42976   4.960   9.533   2.816 -0.2741  0.2623  0.3807
  312MOL0     O42977   4.934   9.663   2.848  0.7041  0.7699 -0.6598
  312MOL0     C42978   4.796   9.710   2.875  0.4699  0.0159  0.5289
  312MOL0     C42979   4.730   9.761   2.743 -0.3616 -0.1755 -0.2770
  312MOL0     C42980   4.576   9.779   2.742 -0.8838 -0.1215  0.9298
  312MOL0     C42981   4.483   9.680   2.798  0.5923 -0.2804  1.1823
  312MOL0     C42982   4.500   9.545   2.748 -1.2779  0.2497  0.4810
  312MOL0     C42983   4.512   9.431   2.713 -0.7829  0.0634 -0.4512
  312MOL0     C42984   4.865   9.438   2.799 -0.3346  0.2874  0.8721
  312MOL0     C42985   4.894   9.306   2.750  0.2359  0.0876  1.6533
  312MOL0     C42986   4.777   9.215   2.745 -0.1940  0.3438  0.4442
  312MOL0     H42987   5.025   8.957   2.448  1.9486 -0.1506  2.4279
  312MOL0     H42988   5.042   8.801   2.248 -0.4888  0.0350 -1.9760
  312MOL0     H42989   5.095   8.851   1.919  2.8176 -3.9162 -6.2942
  312MOL0     H42990   5.031   8.750   2.043 -1.7856  0.0025 -0.2051
  312MOL0     H42991   5.280   8.700   1.863 -0.4060 -0.1535  0.3020
  312MOL0     H42992   5.210   8.584   1.970 -1.9359 -0.8864 -0.2453
  312MOL0     H42993   5.101   8.514   1.777 -3.9418 -1.2194  1.7673
  312MOL0     H42994   4.980   8.613   1.845 -0.2145 -2.6309 -0.5277
  312MOL0     H42995   5.061   8.803   1.703  0.8636  0.4766 -1.4114
  312MOL0     H42996   5.189   8.690   1.633 -0.7219 -1.3662 -0.2730
  312MOL0     H42997   4.893   8.626   1.621 -0.3091  1.8122 -0.6057
  312MOL0     H42998   5.022   8.535   1.549  0.1804  0.9520  0.4603
  312MOL0     H42999   4.979   8.830   1.467  1.6872  0.5580 -2.0103
  312MOL0     H43000   5.060   8.704   1.374 -0.7346 -1.1919 -1.8972
  312MOL0     H43001   4.845   8.787   1.277 -2.1544  1.8946  0.9343
  312MOL0     H43002   4.766   8.696   1.405 -0.0120 -1.7121 -2.3129
  312MOL0     H43003   4.931   8.564   1.190 -2.1372 -3.8296 -2.2387
  312MOL0     H43004   4.893   8.496   1.347  4.2724  2.2781  0.4977
  312MOL0     H43005   4.740   8.625   1.009 -0.9403 -0.7726 -0.8097
  312MOL0     H43006   4.494   8.658   0.909 -2.2042  2.7414  0.9164
  312MOL0     H43007   4.363   8.594   1.010  0.0414 -4.0420  2.9495
  312MOL0     H43008   4.435   8.353   0.982  6.3360 -2.1440 -1.3573
  312MOL0     H43009   4.373   8.449   0.835  1.5112 -0.3895 -0.5072
  312MOL0     H43010   4.580   8.476   0.741 -2.9491 -1.8459 -0.7254
  312MOL0     H43011   4.652   8.429   0.900  0.4995  1.1098  0.5276
  312MOL0     H43012   4.494   8.228   0.728 -2.1149  1.1302  1.9268
  312MOL0     H43013   4.664   8.269   0.713 -1.7870 -2.3556 -3.8205
  312MOL0     H43014   4.845   8.208   0.853  2.6388  2.9228 -0.6762
  312MOL0     H43015   5.072   8.202   0.919 -0.2683  1.3983  0.5494
  312MOL0     H43016   5.128   8.163   1.092  4.6210  0.3884 -1.7265
  312MOL0     H43017   5.107   8.324   1.025  2.6143 -0.4168 -5.0499
  312MOL0     H43018   5.206   8.481   1.439 -0.8393 -2.0240 -0.4714
  312MOL0     H43019   5.343   8.450   1.635 -0.1743 -1.8752  4.0521
  312MOL0     H43020   5.294   8.178   1.888 -0.6015 -1.9492  1.0652
  312MOL0     H43021   5.344   8.045   1.785  0.3115 -0.2871 -1.7251
  312MOL0     H43022   5.533   8.202   1.959  0.1707 -0.2235  1.6459
  312MOL0     H43023   5.451   8.056   2.017  0.5968  1.8500  1.4102
  312MOL0     H43024   5.694   8.040   1.929  0.5020  4.3233 -0.4854
  312MOL0     H43025   5.634   8.067   1.769  5.3288  1.3485  1.1767
  312MOL0     H43026   5.474   7.868   1.812  0.3271 -0.5099 -0.7812
  312MOL0     H43027   5.521   7.873   1.976 -1.7183  1.1037 -0.3007
  312MOL0     H43028   5.756   7.795   1.892 -0.4843 -1.1216  1.0288
  312MOL0     H43029   5.633   7.687   1.845 -0.3801  0.7266  0.4155
  312MOL0     H43030   5.723   7.918   1.653  1.9633 -0.0724  1.9363
  312MOL0     H43031   5.610   7.789   1.612 -3.1595  3.0922  2.1563
  312MOL0     H43032   5.777   7.611   1.626  0.1010 -0.0755  4.2800
  312MOL0     H43033   5.864   7.705   1.729 -1.6320 -0.4695  0.9243
  312MOL0     H43034   5.992   7.788   1.559  0.8512 -0.3023 -1.9956
  312MOL0     H43035   5.860   7.838   1.466 -3.3341 -1.8339  1.5275
  312MOL0     H43036   5.378   8.035   1.563  0.4854  0.6430  1.1998
  312MOL0     H43037   5.225   8.063   1.353 -0.0391 -1.5910  1.5855
  312MOL0     H43038   4.714   8.245   1.326  0.0909 -4.8877  1.1779
  312MOL0     H43039   4.546   8.219   1.156  1.0965  2.5468 -1.3766
  312MOL0     H43040   5.349   9.057   2.107 -1.3037  1.8295 -0.0803
  312MOL0     H43041   5.340   9.202   2.308  0.6819 -0.7806 -1.0003
  312MOL0     H43042   5.220   9.366   2.672  1.2158 -0.1329  3.3751
  312MOL0     H43043   5.166   9.575   2.785  1.0115 -2.9114 -0.7656
  312MOL0     H43044   4.729   9.630   2.907  0.4085 -0.5700 -0.9753
  312MOL0     H43045   4.800   9.793   2.946 -1.8077  0.2842  0.4460
  312MOL0     H43046   4.755   9.686   2.667 -1.7467 -1.1044  0.1578
  312MOL0     H43047   4.779   9.852   2.705 -0.5660  1.2662  2.6081
  312MOL0     H43048   4.555   9.879   2.782  1.7073  0.7278  0.3985
  312MOL0     H43049   4.551   9.789   2.635  0.8172  3.0296  0.6986
  312MOL0     H43050   4.386   9.720   2.767  0.7698 -1.2572 -0.7479
  312MOL0     H43051   4.484   9.662   2.906 -0.2445  0.4745  1.3256
  312MOL0     H43052   4.523   9.328   2.684  0.5888 -0.2430  0.9582
  312MOL0     H43053   4.764   9.453   2.835 -0.3246 -0.7764  1.3771
  312MOL0     H43054   4.709   9.243   2.826 -0.8717  0.2236 -0.0807
  312MOL0     H43055   4.725   9.218   2.649 -3.1955  1.8963  2.0111
  312MOL0     H43056   4.803   9.112   2.773  0.5658  0.8001  1.4874
  313MOL0     O43057   2.326   8.440   8.651 -0.0984  0.4221  0.0667
  313MOL0     C43058   2.271   8.368   8.732 -0.2091 -0.2838  0.7262
  313MOL0     O43059   2.148   8.394   8.781 -0.2920  0.0129 -0.1670
  313MOL0     C43060   2.064   8.475   8.716 -0.4526  0.7092 -0.5247
  313MOL0     C43061   2.068   8.615   8.719 -0.8874 -0.4863 -0.2641
  313MOL0     C43062   1.984   8.693   8.633 -0.3557  1.2932  0.2434
  313MOL0     C43063   1.885   8.618   8.559  0.6914  0.5962 -0.3180
  313MOL0     O43064   1.779   8.670   8.484  0.0124  0.5558 -0.3681
  313MOL0     C43065   1.794   8.813   8.440 -0.5292 -0.3150 -0.7588
  313MOL0     C43066   1.677   8.858   8.342 -0.5751 -0.8022 -0.5893
  313MOL0     C43067   1.653   8.770   8.225 -0.4147  0.5838 -0.6582
  313MOL0     C43068   1.772   8.748   8.127 -0.2876  0.3488 -0.1161
  313MOL0     C43069   1.750   8.649   8.010 -0.2533  1.0334  0.1503
  313MOL0     C43070   1.864   8.629   7.914  0.1283 -0.4351 -0.3318
  313MOL0     C43071   1.908   8.757   7.837  0.4701 -0.4037  1.1062
  313MOL0     C43072   2.032   8.716   7.753 -0.7279 -0.7730 -0.4888
  313MOL0     N43073   2.090   8.832   7.682  0.5456  0.3263 -0.2297
  313MOL0     C43074   2.085   8.868   7.547  0.1060  0.1602 -0.5303
  313MOL0     C43075   2.162   8.977   7.531  0.0195  0.1608 -0.2754
  313MOL0     C43076   2.172   9.058   7.405 -0.1176 -1.5629 -0.7198
  313MOL0     C43077   2.055   9.157   7.381 -1.8860  0.7448 -0.1220
  313MOL0     C43078   2.067   9.230   7.253  1.0711  0.6986  0.8305
  313MOL0     C43079   2.196   9.292   7.226 -0.0139 -0.8279 -0.7174
  313MOL0     O43080   2.178   9.400   7.135 -0.0960  0.2045 -0.9458
  313MOL0     C43081   2.296   9.456   7.086  0.1229  0.7679 -0.7081
  313MOL0     C43082   2.281   9.574   7.023  0.2109 -1.3263  0.4451
  313MOL0     C43083   2.389   9.660   6.981  0.6528  0.4635  0.4719
  313MOL0     C43084   2.344   9.786   6.918 -0.5552 -0.8392 -0.3857
  313MOL0     C43085   2.518   9.610   6.995  0.4826  0.0004 -0.8922
  313MOL0     C43086   2.634   9.685   6.957 -0.0535 -0.5758  0.6346
  313MOL0     O43087   2.761   9.631   6.981 -0.0914  0.0604 -0.3945
  313MOL0     C43088   2.875   9.689   6.943 -0.6216  1.2766  0.1133
  313MOL0     C43089   2.885   9.748   6.811  0.0264  0.5227  0.1260
  313MOL0     C43090   3.002   9.811   6.779  0.5848 -0.7266 -0.6925
  313MOL0     C43091   3.108   9.822   6.868  0.0201 -1.3140 -0.3191
  313MOL0     O43092   3.226   9.890   6.836  0.3637 -0.9119 -0.6044
  313MOL0     C43093   3.250   9.956   6.709  0.3393  0.7573 -0.3105
  313MOL0     C43094   3.393  10.012   6.708 -0.4074 -0.6375  0.8705
  313MOL0     C43095   3.498   9.911   6.656  0.6896 -0.3508  1.0269
  313MOL0     C43096   3.632   9.966   6.667 -0.1866 -0.0835  0.1581
  313MOL0     C43097   3.747   9.860   6.663  0.4459  0.8251  0.7510
  313MOL0     C43098   3.886   9.927   6.682  0.0213 -0.4325  0.6729
  313MOL0     C43099   4.004   9.831   6.664 -0.2298 -0.6018 -0.4369
  313MOL0     C43100   3.998   9.721   6.773  0.8910  0.4687  0.3985
  313MOL0    Cl43101   3.963   9.794   6.936  0.2417 -0.3659 -0.1846
  313MOL0     C43102   3.104   9.775   6.998  0.2525  0.3923 -0.2829
  313MOL0     C43103   2.984   9.707   7.036 -0.2053 -0.0302 -0.1613
  313MOL0     O43104   2.621   9.797   6.904  0.0185 -0.2822  0.4924
  313MOL0     C43105   2.536   9.492   7.059 -0.0863  0.5808 -0.7308
  313MOL0     C43106   2.427   9.415   7.100  0.1300 -0.6934  0.0248
  313MOL0     N43107   2.216   9.006   7.654 -0.3250 -0.3177 -0.1933
  313MOL0     N43108   2.180   8.920   7.743  0.4955  0.1311  0.2512
  313MOL0     C43109   1.870   8.481   8.581  0.3210 -0.8262  0.2627
  313MOL0     C43110   1.956   8.410   8.661  0.8940  0.4312  0.2193
  313MOL0     C43111   2.346   8.250   8.798 -0.9310  0.3384  0.0336
  313MOL0     C43112   2.266   8.171   8.877 -0.2611  0.6207 -1.1156
  313MOL0     C43113   2.313   8.049   8.936  0.7187  0.2243  0.5235
  313MOL0     C43114   2.448   8.004   8.902 -1.4002  0.0129  0.2050
  313MOL0     O43115   2.520   7.885   8.928 -0.6693  0.5188 -0.2807
  313MOL0     C43116   2.486   7.820   9.051  0.0381  0.5454 -0.5423
  313MOL0     C43117   2.520   7.899   9.188  0.4218  1.1107  1.0424
  313MOL0     C43118   2.667   7.902   9.189 -1.2896  0.9310 -1.2660
  313MOL0     C43119   2.715   7.947   9.328 -0.5182 -0.7388 -0.3324
  313MOL0     C43120   2.852   7.909   9.336 -0.9534 -0.9230  0.3844
  313MOL0     C43121   2.973   7.889   9.338 -1.0835  0.0937 -0.1085
  313MOL0     C43122   2.532   8.095   8.830 -0.7071 -0.0658  0.5770
  313MOL0     C43123   2.483   8.215   8.774 -0.1079 -0.3951  0.0323
  313MOL0     C43124   2.586   8.285   8.680 -0.0032  0.1159 -0.3575
  313MOL0     H43125   2.150   8.656   8.776 -1.6420 -1.0889  1.3092
  313MOL0     H43126   2.000   8.800   8.623  1.7893  0.9453 -0.5741
  313MOL0     H43127   1.887   8.834   8.386 -0.7318 -0.1200 -1.0296
  313MOL0     H43128   1.785   8.870   8.532 -0.4008  0.5368 -1.2679
  313MOL0     H43129   1.582   8.874   8.394 -1.0750  0.6216 -1.8565
  313MOL0     H43130   1.715   8.951   8.298  0.0759 -0.4565  0.6792
  313MOL0     H43131   1.617   8.676   8.268  3.3422 -1.2257 -1.0362
  313MOL0     H43132   1.576   8.814   8.161  1.5536  2.0783 -2.1327
  313MOL0     H43133   1.797   8.843   8.079 -3.7031  0.3494 -2.2434
  313MOL0     H43134   1.854   8.693   8.175  0.2062 -0.2195 -1.5690
  313MOL0     H43135   1.668   8.686   7.948 -0.0875  0.2685 -0.5435
  313MOL0     H43136   1.727   8.557   8.063  0.3554  1.4778  1.2072
  313MOL0     H43137   1.945   8.586   7.973 -0.3413  2.9691  3.2412
  313MOL0     H43138   1.832   8.551   7.845 -1.2862 -1.8382  1.7570
  313MOL0     H43139   1.920   8.837   7.910 -6.1450 -0.3631  2.8464
  313MOL0     H43140   1.825   8.794   7.775  0.8271 -0.2546  0.7121
  313MOL0     H43141   2.112   8.669   7.810  1.8035 -0.1914 -3.3111
  313MOL0     H43142   2.002   8.642   7.678 -2.1209 -0.1617 -0.5643
  313MOL0     H43143   2.021   8.846   7.462  2.4473  0.6201 -2.5497
  313MOL0     H43144   2.170   8.986   7.323 -1.0878  0.1393 -2.2717
  313MOL0     H43145   2.270   9.107   7.405 -0.1097 -1.5672 -1.8422
  313MOL0     H43146   1.957   9.110   7.387 -1.4126 -0.1639  0.8246
  313MOL0     H43147   2.039   9.220   7.468  1.6623 -0.5525  1.6645
  313MOL0     H43148   2.028   9.163   7.176  1.6584 -0.1420  1.2504
  313MOL0     H43149   1.998   9.315   7.254 -0.8578 -0.6902  4.7084
  313MOL0     H43150   2.226   9.345   7.317 -0.6945  1.6329 -1.8235
  313MOL0     H43151   2.267   9.216   7.192  1.0184 -0.2856  0.1518
  313MOL0     H43152   2.178   9.598   6.997  0.1204 -0.9645  1.1283
  313MOL0     H43153   2.245   9.812   6.955  0.5798  0.3157  2.0835
  313MOL0     H43154   2.336   9.772   6.810 -1.0297  0.5440 -0.5533
  313MOL0     H43155   2.401   9.878   6.938 -1.0899 -0.4550 -0.5969
  313MOL0     H43156   2.795   9.751   6.750 -0.2508 -1.0465  0.4148
  313MOL0     H43157   2.998   9.868   6.687  3.0301 -0.0163 -0.4320
  313MOL0     H43158   3.243   9.885   6.626  1.2439  1.3845 -0.9557
  313MOL0     H43159   3.188  10.045   6.696 -2.5921 -0.7345  2.2136
  313MOL0     H43160   3.412  10.096   6.639  1.9702 -0.9886  1.0332
  313MOL0     H43161   3.428  10.049   6.804  0.8186  0.0758  0.1820
  313MOL0     H43162   3.472   9.876   6.555  0.7015 -2.9801  1.8599
  313MOL0     H43163   3.495   9.816   6.711 -1.2551 -2.3728 -2.1745
  313MOL0     H43164   3.648  10.024   6.759 -1.5385  1.0696 -0.2930
  313MOL0     H43165   3.643  10.038   6.586 -2.0907  3.6302  2.8875
  313MOL0     H43166   3.733   9.784   6.741  3.2864 -1.1397 -0.4641
  313MOL0     H43167   3.748   9.811   6.565 -1.5830 -0.5636  1.3603
  313MOL0     H43168   3.903   9.992   6.768  4.2582 -0.6954  0.2407
  313MOL0     H43169   3.899  10.003   6.604 -1.7389  0.3501  1.0885
  313MOL0     H43170   4.097   9.886   6.683 -0.0543 -1.2026  0.4819
  313MOL0     H43171   4.006   9.797   6.560  1.6974  1.7504 -1.2796
  313MOL0     H43172   4.090   9.661   6.779 -0.8186 -2.6656 -2.0195
  313MOL0     H43173   3.918   9.649   6.754  0.8069  0.6450  0.0771
  313MOL0     H43174   3.188   9.801   7.062  0.6113  1.1817 -1.0509
  313MOL0     H43175   2.977   9.665   7.136 -1.2337 -2.9719 -1.3643
  313MOL0     H43176   2.630   9.440   7.045 -0.4990  0.2776 -2.6817
  313MOL0     H43177   2.454   9.331   7.163 -0.8669 -0.1816  1.1849
  313MOL0     H43178   1.790   8.421   8.539  1.6387 -1.8927 -0.7678
  313MOL0     H43179   1.932   8.304   8.671 -1.7850  0.9312 -0.1906
  313MOL0     H43180   2.167   8.196   8.914  0.2827  1.1529  0.0227
  313MOL0     H43181   2.254   8.006   9.016  3.6214  2.6961  4.4082
  313MOL0     H43182   2.380   7.793   9.057  0.1378  0.4486  1.4628
  313MOL0     H43183   2.553   7.735   9.061  2.1862  2.3874  2.1974
  313MOL0     H43184   2.492   7.852   9.283  0.4249  0.6316  0.8058
  313MOL0     H43185   2.485   8.002   9.193  0.6644  1.2419  0.1442
  313MOL0     H43186   2.708   7.801   9.172  2.8767  2.0666  0.5625
  313MOL0     H43187   2.719   7.963   9.115  2.4575  0.3196  0.5672
  313MOL0     H43188   2.662   7.890   9.406 -0.8023  2.6215  2.1533
  313MOL0     H43189   2.716   8.054   9.348 -2.0505  0.2110 -4.4725
  313MOL0     H43190   3.077   7.879   9.359 -1.5765 -2.9689  1.5467
  313MOL0     H43191   2.632   8.059   8.808 -0.4481  0.6040  0.6350
  313MOL0     H43192   2.669   8.215   8.672  0.4654  0.6563 -0.2524
  313MOL0     H43193   2.538   8.301   8.583  0.1686 -1.5856 -0.7670
  313MOL0     H43194   2.621   8.376   8.729 -0.2090 -1.2366  2.5474
  314MOL0     O43195   6.154   1.223  10.632 -0.2210 -1.3852 -0.5802
  314MOL0     C43196   6.272   1.245  10.641  0.1633  0.8487  0.5448
  314MOL0     O43197   6.339   1.292  10.749  0.0103 -0.0757  0.1879
  314MOL0     C43198   6.280   1.324  10.869  0.4243  0.2271 -0.5205
  314MOL0     C43199   6.351   1.306  10.991  0.6300  0.8192  1.5272
  314MOL0     C43200   6.273   1.295  11.113  0.5701  0.0792  0.3746
  314MOL0     C43201   6.141   1.346  11.125  0.4730 -0.5254  0.7105
  314MOL0     O43202   6.089   1.377  11.247 -0.7631 -0.1206 -0.3464
  314MOL0     C43203   6.123   1.511  11.296 -0.6873  0.0085  0.6420
  314MOL0     C43204   6.033   1.537  11.426  0.0629 -0.2764  0.2539
  314MOL0     C43205   6.058   1.672  11.483 -0.2702  0.2220 -0.7534
  314MOL0     C43206   5.977   1.772  11.405 -0.2877  0.1346  0.5516
  314MOL0     C43207   5.951   1.884  11.499  0.1497  0.1328  0.0327
  314MOL0     C43208   5.899   2.019  11.431 -0.9628 -0.3819  0.6253
  314MOL0     C43209   6.020   2.117  11.420 -0.6155 -0.2351 -0.2901
  314MOL0     C43210   5.988   2.258  11.366 -0.6031  0.3141  0.7492
  314MOL0     N43211   6.116   2.327  11.392  0.3881  0.1135 -1.1550
  314MOL0     C43212   6.223   2.320  11.303  0.4106  0.1258  0.4238
  314MOL0     C43213   6.322   2.395  11.354 -0.2519 -0.6101 -0.5200
  314MOL0     C43214   6.460   2.424  11.293  0.1187  0.8528  0.2140
  314MOL0     C43215   6.559   2.329  11.354  0.1645 -1.2676  0.6830
  314MOL0     C43216   6.712   2.343  11.308  1.0036 -0.3238 -0.1558
  314MOL0     C43217   6.803   2.266  11.400 -0.1966 -0.2514 -0.4485
  314MOL0     O43218   6.810   2.120  11.395  0.6355 -0.5752 -0.2582
  314MOL0     C43219   6.913   2.056  11.456  0.2803 -0.0651  0.2960
  314MOL0     C43220   6.932   1.916  11.452 -0.4084  0.5286 -0.2545
  314MOL0     C43221   7.046   1.852  11.507  0.2373 -0.0896 -0.1319
  314MOL0     C43222   7.047   1.702  11.504 -0.4779 -0.2599  0.0771
  314MOL0     C43223   7.146   1.927  11.573  0.6481  0.1638 -0.4866
  314MOL0     C43224   7.261   1.863  11.633 -0.0418  0.3969  0.3328
  314MOL0     O43225   7.319   1.919  11.746  0.3865  0.1919 -0.8936
  314MOL0     C43226   7.412   1.854  11.827 -0.5173  1.2743 -0.3558
  314MOL0     C43227   7.427   1.902  11.962  0.3715  0.1200  0.7622
  314MOL0     C43228   7.518   1.846  12.051 -0.1456  0.8851 -0.6058
  314MOL0     C43229   7.589   1.730  12.012  0.1678 -0.3774 -0.4806
  314MOL0     O43230   7.663   1.662  12.111 -0.1869  0.1192 -0.4858
  314MOL0     C43231   7.800   1.641  12.096 -0.3941 -1.0739  0.6873
  314MOL0     C43232   7.861   1.577  12.222 -0.2262 -0.1979  1.2964
  314MOL0     C43233   8.003   1.519  12.195  0.2809 -0.2232  0.1679
  314MOL0     C43234   8.046   1.431  12.313  0.1900 -0.7083  0.2071
  314MOL0     C43235   8.148   1.327  12.281  0.9826 -0.2631 -0.3859
  314MOL0     C43236   8.206   1.267  12.409 -0.1333 -0.1467 -1.8567
  314MOL0     C43237   8.292   1.152  12.367 -0.1301 -0.3301 -0.7319
  314MOL0     C43238   8.298   1.047  12.479 -0.5448 -0.7433  0.0097
  314MOL0    Cl43239   8.379   1.134  12.608 -0.5580 -0.0806 -0.3143
  314MOL0     C43240   7.568   1.686  11.884  0.6034  0.9651  0.0219
  314MOL0     C43241   7.486   1.745  11.793  0.3851  0.4228  0.2740
  314MOL0     O43242   7.309   1.771  11.563 -0.4600  0.2687 -0.2880
  314MOL0     C43243   7.130   2.063  11.582 -0.7499  0.2731  0.3223
  314MOL0     C43244   7.012   2.123  11.523 -0.5702  0.3339 -0.8402
  314MOL0     N43245   6.278   2.446  11.473 -0.3265  0.2003  0.4069
  314MOL0     N43246   6.151   2.415  11.493  0.6081  0.4181 -0.8883
  314MOL0     C43247   6.073   1.366  11.008  0.2402 -0.6661 -0.6956
  314MOL0     C43248   6.137   1.358  10.878 -0.1143  0.1345 -0.7385
  314MOL0     C43249   6.354   1.201  10.519  0.3287 -0.9816  0.7828
  314MOL0     C43250   6.470   1.269  10.486  0.0385  0.3156 -0.1444
  314MOL0     C43251   6.555   1.232  10.383 -1.2374 -0.1872 -0.1386
  314MOL0     C43252   6.524   1.130  10.297  1.2532 -0.1734 -0.0360
  314MOL0     O43253   6.601   1.087  10.191  0.2437 -0.6296 -0.3601
  314MOL0     C43254   6.561   1.028  10.067  0.4956 -0.6725  0.0278
  314MOL0     C43255   6.677   1.058   9.980 -0.4523  0.0925  0.7253
  314MOL0     C43256   6.704   0.965   9.864  0.4209 -0.2726 -0.2378
  314MOL0     C43257   6.570   0.934   9.787 -0.4299  1.4266  0.3852
  314MOL0     C43258   6.492   0.821   9.849 -0.1339  0.1442 -0.1235
  314MOL0     C43259   6.434   0.729   9.893 -0.4322 -0.3014  1.2366
  314MOL0     C43260   6.404   1.069  10.322 -0.1593 -0.3288 -0.3233
  314MOL0     C43261   6.319   1.099  10.425  0.5407 -0.8694 -0.5312
  314MOL0     C43262   6.196   1.008  10.436  0.3578  0.5731 -0.5299
  314MOL0     H43263   6.458   1.286  10.992 -0.0048 -3.8323  1.2393
  314MOL0     H43264   6.335   1.272  11.199  0.4263 -2.6959 -0.1914
  314MOL0     H43265   6.097   1.591  11.227 -0.0632  0.2615  0.6910
  314MOL0     H43266   6.230   1.516  11.320 -0.9049  0.2574  1.6340
  314MOL0     H43267   5.931   1.537  11.385  0.6333 -3.9796 -1.5447
  314MOL0     H43268   6.037   1.453  11.496 -2.9278 -0.6314  0.1374
  314MOL0     H43269   6.046   1.680  11.591 -1.5590  2.5623 -0.9939
  314MOL0     H43270   6.163   1.697  11.462 -0.4256  3.2573  1.3375
  314MOL0     H43271   6.035   1.805  11.317  0.5627  0.0035  1.0526
  314MOL0     H43272   5.885   1.734  11.360 -1.8174  2.3425  1.6399
  314MOL0     H43273   6.044   1.903  11.554  1.8454 -1.2803 -2.1260
  314MOL0     H43274   5.878   1.854  11.574  0.9300 -0.8838  0.4045
  314MOL0     H43275   5.855   1.994  11.333 -0.8625  1.1473  0.1585
  314MOL0     H43276   5.816   2.074  11.476 -1.5073 -0.7117  0.0537
  314MOL0     H43277   6.104   2.075  11.364  0.1820 -0.7535  1.2287
  314MOL0     H43278   6.053   2.140  11.522  1.6401 -0.7847 -0.8438
  314MOL0     H43279   5.969   2.260  11.259  0.5899  1.4499  0.5344
  314MOL0     H43280   5.897   2.304  11.406 -1.3906  0.8572 -1.5385
  314MOL0     H43281   6.222   2.270  11.207  0.1845  3.2655 -1.3168
  314MOL0     H43282   6.490   2.523  11.328 -0.4717  0.5053  1.8125
  314MOL0     H43283   6.472   2.411  11.185 -1.2265 -1.2811  0.2622
  314MOL0     H43284   6.563   2.337  11.463  1.2502 -1.2207  0.6510
  314MOL0     H43285   6.522   2.226  11.353  0.2225 -1.3270  2.3519
  314MOL0     H43286   6.734   2.309  11.207  2.2415 -1.2620  0.3989
  314MOL0     H43287   6.740   2.449  11.315  0.7015  0.1070 -3.7286
  314MOL0     H43288   6.902   2.308  11.380 -0.8209  2.7212  1.9579
  314MOL0     H43289   6.778   2.293  11.503 -1.4889 -2.4891 -0.1095
  314MOL0     H43290   6.862   1.859  11.390 -1.1216  4.1714 -3.1223
  314MOL0     H43291   7.043   1.653  11.602  2.2131 -0.2851  0.2386
  314MOL0     H43292   7.138   1.668  11.454 -0.8576 -0.2429 -0.6371
  314MOL0     H43293   6.959   1.670  11.447 -1.2954  2.6439 -0.4799
  314MOL0     H43294   7.356   1.978  11.993 -0.1209 -0.8212  2.0684
  314MOL0     H43295   7.532   1.882  12.152 -0.9343 -0.5072  0.0159
  314MOL0     H43296   7.809   1.589  12.000  2.2090  0.0682  0.2433
  314MOL0     H43297   7.837   1.739  12.064 -1.2320 -0.8091  0.4766
  314MOL0     H43298   7.883   1.665  12.283 -3.9631  3.0901 -1.5476
  314MOL0     H43299   7.795   1.509  12.276 -1.6628  1.2066  1.3808
  314MOL0     H43300   8.075   1.599  12.175 -1.1364  0.8477 -0.8311
  314MOL0     H43301   8.005   1.453  12.108  0.7601  0.0194 -0.0101
  314MOL0     H43302   7.956   1.386  12.355  1.2367 -2.2553  0.9156
  314MOL0     H43303   8.086   1.499  12.389 -0.4066  1.0706 -1.0195
  314MOL0     H43304   8.099   1.243  12.230  0.3034 -0.6395  0.8432
  314MOL0     H43305   8.229   1.360  12.215 -0.7673 -0.2346 -2.6320
  314MOL0     H43306   8.124   1.236  12.473 -0.3170 -1.1620 -2.5695
  314MOL0     H43307   8.262   1.327  12.481  0.5091 -2.0731 -0.6670
  314MOL0     H43308   8.395   1.185  12.350 -0.4426  1.7824  1.0883
  314MOL0     H43309   8.255   1.109  12.274  1.4162 -1.1500 -0.9988
  314MOL0     H43310   8.346   0.955  12.446 -0.3815 -1.8478  2.9581
  314MOL0     H43311   8.200   1.018  12.519  0.1170 -1.6113  1.0658
  314MOL0     H43312   7.609   1.589  11.860  0.2656  0.0142  2.9061
  314MOL0     H43313   7.469   1.691  11.700 -2.2551  1.5304  0.0009
  314MOL0     H43314   7.222   2.115  11.609 -1.6686  2.1745 -0.0147
  314MOL0     H43315   7.006   2.231  11.530 -1.5864  0.1959  0.9710
  314MOL0     H43316   5.971   1.401  11.009  0.3893 -0.2191  0.4297
  314MOL0     H43317   6.068   1.377  10.796 -1.7317 -1.7959  0.0765
  314MOL0     H43318   6.496   1.358  10.543 -2.2251  0.9916 -0.1017
  314MOL0     H43319   6.651   1.283  10.378 -0.7736 -0.5141  3.4208
  314MOL0     H43320   6.556   0.920  10.086  0.9045 -1.0007 -1.5320
  314MOL0     H43321   6.460   1.056  10.034  0.5648 -0.5633 -0.0887
  314MOL0     H43322   6.772   1.058  10.036  0.1393 -3.7841  0.0368
  314MOL0     H43323   6.653   1.158   9.943 -3.9485 -0.9594 -0.1517
  314MOL0     H43324   6.770   1.015   9.793 -1.8481 -0.6489 -2.7664
  314MOL0     H43325   6.745   0.868   9.895 -0.5289 -0.5591  0.1552
  314MOL0     H43326   6.595   0.904   9.685 -2.6898 -0.1719  0.2343
  314MOL0     H43327   6.500   1.018   9.786  0.4527  2.2257  1.5978
  314MOL0     H43328   6.379   0.646   9.932  1.6572 -1.6642  1.4573
  314MOL0     H43329   6.374   0.983  10.263  1.4113  0.3655 -2.2453
  314MOL0     H43330   6.212   0.936  10.517 -3.3669  1.7988  1.5219
  314MOL0     H43331   6.098   1.050  10.461  1.0932  1.9908  0.0621
  314MOL0     H43332   6.176   0.955  10.343  0.6892  0.4103 -0.5127
  315MOL0     O43333  10.499   8.255   8.593 -0.0696 -0.6387 -0.2876
  315MOL0     C43334  10.510   8.368   8.529  0.1087  0.0481  0.8526
  315MOL0     O43335  10.430   8.415   8.425 -0.0970 -0.6550  0.5061
  315MOL0     C43336  10.336   8.330   8.368 -0.5674 -1.3198 -0.8644
  315MOL0     C43337  10.371   8.192   8.348  0.0707  0.9921  0.2020
  315MOL0     C43338  10.268   8.115   8.278 -1.1746 -0.7632 -0.2972
  315MOL0     C43339  10.142   8.159   8.239 -0.5330 -0.0846  0.1328
  315MOL0     O43340  10.051   8.081   8.166  0.0943  0.1794 -0.3036
  315MOL0     C43341  10.084   8.059   8.027 -0.6762  0.6435  0.2742
  315MOL0     C43342   9.955   7.991   7.959 -0.0144 -1.0301  0.5933
  315MOL0     C43343   9.829   8.079   7.983 -0.2849  0.3568 -0.9091
  315MOL0     C43344   9.708   7.990   7.941  0.2599  0.3340 -0.6508
  315MOL0     C43345   9.588   8.089   7.933 -0.0835 -0.1992  0.0120
  315MOL0     C43346   9.468   7.995   7.925 -0.1908  0.1375 -0.3661
  315MOL0     C43347   9.345   8.070   7.905  0.6179 -0.6646 -0.3701
  315MOL0     C43348   9.214   8.001   7.922 -0.5910  0.6340  0.1333
  315MOL0     N43349   9.084   8.076   7.908 -0.8478  0.1904 -0.1037
  315MOL0     C43350   9.006   8.079   7.791  0.1178  0.2751  0.6342
  315MOL0     C43351   8.904   8.173   7.812 -1.0716  0.5000 -0.2508
  315MOL0     C43352   8.797   8.215   7.716 -0.6376 -0.3858 -0.8409
  315MOL0     C43353   8.799   8.371   7.709 -0.2397  0.1104 -0.0628
  315MOL0     C43354   8.668   8.439   7.666  0.1978 -0.0021 -0.1487
  315MOL0     C43355   8.656   8.585   7.716 -0.0651 -0.7682  0.4733
  315MOL0     O43356   8.776   8.667   7.696  0.1695 -0.0073 -0.4614
  315MOL0     C43357   8.769   8.795   7.743  0.3780 -0.4919  0.5784
  315MOL0     C43358   8.887   8.871   7.735 -0.3075  0.4286  0.8055
  315MOL0     C43359   8.905   9.005   7.771  0.2774 -0.6841 -0.1005
  315MOL0     C43360   9.057   9.052   7.784  0.9066 -0.7794  0.8067
  315MOL0     C43361   8.796   9.078   7.819 -0.1741 -0.3590  0.2537
  315MOL0     C43362   8.797   9.220   7.869  0.2479  0.5376  1.3638
  315MOL0     O43363   8.670   9.256   7.914 -0.5450  0.5158  0.3898
  315MOL0     C43364   8.623   9.381   7.886 -0.3915  0.9627  0.8623
  315MOL0     C43365   8.503   9.412   7.942  0.0968  0.4337  0.0074
  315MOL0     C43366   8.448   9.544   7.915  1.0966  0.5480  0.2294
  315MOL0     C43367   8.516   9.643   7.837  0.0950  0.5510 -1.5164
  315MOL0     O43368   8.468   9.769   7.828 -0.7132 -0.6489 -0.1865
  315MOL0     C43369   8.552   9.868   7.878 -0.3183  0.7702 -0.0103
  315MOL0     C43370   8.470   9.964   7.962 -0.0455  0.3120 -0.5222
  315MOL0     C43371   8.403   9.900   8.090 -0.3191 -0.2317  0.3928
  315MOL0     C43372   8.283   9.986   8.129  0.3087  0.5451 -0.4409
  315MOL0     C43373   8.201   9.935   8.246 -0.0420  0.9239 -0.0685
  315MOL0     C43374   8.263   9.937   8.386 -0.1292 -0.3101 -1.0882
  315MOL0     C43375   8.321  10.075   8.446 -0.4520 -0.0938  0.2038
  315MOL0     C43376   8.215  10.170   8.446 -0.0922  0.5128  0.8573
  315MOL0    Cl43377   8.261  10.331   8.507 -0.5066 -0.0010 -0.0394
  315MOL0     C43378   8.637   9.604   7.775  0.2872 -0.3213  1.0200
  315MOL0     C43379   8.692   9.479   7.807 -0.0538 -0.4579  0.1225
  315MOL0     O43380   8.896   9.291   7.863 -0.9862  0.8075  0.6607
  315MOL0     C43381   8.670   9.010   7.814 -0.1775 -0.3336 -0.1532
  315MOL0     C43382   8.658   8.875   7.782  0.1009 -0.9427  0.2263
  315MOL0     N43383   8.926   8.219   7.945  0.9278 -0.5629 -0.2600
  315MOL0     N43384   9.030   8.162   8.000 -0.7416 -0.3279 -0.0330
  315MOL0     C43385  10.117   8.296   8.253  0.1325 -0.7061  0.5007
  315MOL0     C43386  10.217   8.385   8.308 -0.8733  0.3021  0.4833
  315MOL0     C43387  10.584   8.475   8.592 -0.3296 -0.0904 -0.5634
  315MOL0     C43388  10.527   8.604   8.588 -0.1524 -0.6017 -0.3656
  315MOL0     C43389  10.594   8.711   8.658  0.4955  0.7207 -1.2085
  315MOL0     C43390  10.721   8.696   8.715 -0.4201  0.1797  0.5019
  315MOL0     O43391  10.791   8.811   8.759 -0.5241 -0.1841 -0.3080
  315MOL0     C43392  10.914   8.788   8.842  1.0663 -0.4481  0.3014
  315MOL0     C43393  10.971   8.915   8.876  0.0908  0.5126 -0.7272
  315MOL0     C43394  10.884   8.973   8.975 -0.9096 -0.0824  0.1619
  315MOL0     C43395  10.959   9.088   9.047 -0.1975  0.1671  0.8556
  315MOL0     C43396  10.942   9.208   8.958 -0.3555  0.0281  0.1771
  315MOL0     C43397  10.935   9.302   8.885 -0.5294 -0.5439 -0.7181
  315MOL0     C43398  10.768   8.568   8.719  0.0561 -0.0859 -0.0129
  315MOL0     C43399  10.708   8.457   8.661 -0.3091  0.5239 -0.6516
  315MOL0     C43400  10.783   8.325   8.663  0.6042 -1.2589  0.1737
  315MOL0     H43401  10.464   8.141   8.375  0.5637  1.9305  0.3138
  315MOL0     H43402  10.299   8.015   8.250  0.6795  0.1777 -1.7830
  315MOL0     H43403  10.167   7.988   8.027 -0.4354  0.8383  2.3837
  315MOL0     H43404  10.114   8.146   7.969 -0.9132 -0.6210 -1.8263
  315MOL0     H43405   9.966   7.995   7.850 -2.9451 -0.3444  0.2519
  315MOL0     H43406   9.958   7.887   7.994  1.7735 -2.1438 -2.5102
  315MOL0     H43407   9.816   8.096   8.090 -0.7692 -1.1748 -0.7008
  315MOL0     H43408   9.815   8.170   7.924 -1.4031 -0.4316 -1.9077
  315MOL0     H43409   9.720   7.934   7.848 -1.6848 -0.6809 -0.3277
  315MOL0     H43410   9.682   7.916   8.017  1.3506  0.6975  0.1129
  315MOL0     H43411   9.602   8.155   7.847  3.4475  1.5672  1.6988
  315MOL0     H43412   9.571   8.141   8.028 -0.6755  2.0686 -1.2763
  315MOL0     H43413   9.478   7.914   7.852 -0.5593  2.4906 -3.2266
  315MOL0     H43414   9.447   7.945   8.020 -0.5554 -2.8455 -1.8819
  315MOL0     H43415   9.344   8.096   7.799  0.3481  0.8235 -0.0209
  315MOL0     H43416   9.332   8.164   7.959 -3.3606  0.4648 -2.8126
  315MOL0     H43417   9.210   7.926   7.843 -0.6190  4.7731 -4.2880
  315MOL0     H43418   9.221   7.961   8.023 -1.1122  2.1643  0.8173
  315MOL0     H43419   9.016   8.025   7.698  0.1566 -0.8406  1.2598
  315MOL0     H43420   8.705   8.170   7.752 -0.6994 -0.7496 -1.4348
  315MOL0     H43421   8.820   8.179   7.615 -0.3054 -1.8582 -0.2673
  315MOL0     H43422   8.834   8.405   7.807  0.8951 -0.1012 -0.3783
  315MOL0     H43423   8.873   8.405   7.636 -1.1548  3.0801  0.2941
  315MOL0     H43424   8.666   8.427   7.557  1.2017 -1.9185  0.0032
  315MOL0     H43425   8.594   8.380   7.723  0.2689 -0.4733 -0.5390
  315MOL0     H43426   8.574   8.630   7.660  0.4317  1.2921  1.2824
  315MOL0     H43427   8.630   8.584   7.822  1.7877  1.1510  1.0303
  315MOL0     H43428   8.980   8.824   7.703 -0.0066  2.3472 -1.3960
  315MOL0     H43429   9.062   9.160   7.766  0.7283 -1.1349 -1.8140
  315MOL0     H43430   9.119   9.017   7.700  1.6283 -0.0330  1.0163
  315MOL0     H43431   9.103   9.022   7.879 -0.8241  0.6914  2.1719
  315MOL0     H43432   8.466   9.351   8.024  0.7822 -1.7825 -1.2528
  315MOL0     H43433   8.370   9.589   7.976  1.9394  2.8921 -0.3083
  315MOL0     H43434   8.639   9.838   7.937  1.0273 -2.3792 -3.2219
  315MOL0     H43435   8.596   9.934   7.803  2.3317 -0.7644  0.0965
  315MOL0     H43436   8.515  10.059   7.993  1.6461 -0.3493 -0.8274
  315MOL0     H43437   8.387  10.001   7.900 -1.9976 -0.9420  1.2241
  315MOL0     H43438   8.485   9.891   8.161 -0.4328 -1.7999  0.3778
  315MOL0     H43439   8.367   9.798   8.069 -4.6658  1.4108 -1.2925
  315MOL0     H43440   8.214   9.997   8.045 -1.6321 -2.1438  0.6719
  315MOL0     H43441   8.313  10.089   8.151  1.3289  0.0302  0.6531
  315MOL0     H43442   8.106   9.989   8.246 -0.4462  0.2380 -0.1237
  315MOL0     H43443   8.170   9.831   8.227 -0.2461  1.2615 -1.7024
  315MOL0     H43444   8.356   9.879   8.391 -1.3557 -2.3349 -0.7897
  315MOL0     H43445   8.201   9.895   8.465  1.6280  1.1948  1.2335
  315MOL0     H43446   8.399  10.121   8.384 -0.3295  1.0116  1.1382
  315MOL0     H43447   8.354  10.068   8.550  0.4497  1.0543  0.0180
  315MOL0     H43448   8.128  10.137   8.504  1.0015 -0.6634  1.8722
  315MOL0     H43449   8.180  10.178   8.343 -2.2600 -3.3664  1.0891
  315MOL0     H43450   8.683   9.677   7.709  0.0760  0.5810  1.8330
  315MOL0     H43451   8.793   9.465   7.771 -0.5545 -0.8650 -1.1775
  315MOL0     H43452   8.574   9.056   7.836 -2.5457 -5.2270  0.9526
  315MOL0     H43453   8.555   8.838   7.783 -1.1921  2.3299  0.3980
  315MOL0     H43454  10.021   8.325   8.210  0.0998 -1.7037 -0.1431
  315MOL0     H43455  10.210   8.492   8.326 -1.7206  0.1858  0.8898
  315MOL0     H43456  10.427   8.623   8.550 -0.3747 -0.0272  0.4651
  315MOL0     H43457  10.555   8.812   8.666 -3.8989 -0.8802  0.6582
  315MOL0     H43458  10.890   8.725   8.928 -2.7923  1.8543  1.1379
  315MOL0     H43459  10.987   8.751   8.769  0.9389  2.0305 -1.2133
  315MOL0     H43460  10.982   8.981   8.790 -1.7165  2.4833  0.4485
  315MOL0     H43461  11.071   8.899   8.919 -0.4179 -2.8879 -0.6000
  315MOL0     H43462  10.786   9.013   8.946  0.2598 -0.1184 -4.7941
  315MOL0     H43463  10.856   8.899   9.051  0.6701  1.4423  2.3600
  315MOL0     H43464  11.063   9.062   9.068  0.3834  2.1556  0.6670
  315MOL0     H43465  10.914   9.099   9.146 -0.2766  1.0003  0.7353
  315MOL0     H43466  10.918   9.401   8.846 -3.6717  0.6702  3.0752
  315MOL0     H43467  10.862   8.544   8.769 -0.6147  0.0093  1.3493
  315MOL0     H43468  10.711   8.256   8.709 -1.3356  1.6255  1.7864
  315MOL0     H43469  10.798   8.292   8.560 -2.4988  2.9004 -1.8897
  315MOL0     H43470  10.879   8.331   8.715  0.4830  1.7613  0.1822
  316MOL0     O43471   9.024   5.845   4.610 -0.1207  0.5745 -0.1326
  316MOL0     C43472   9.089   5.917   4.532 -0.6742 -0.1252 -0.4949
  316MOL0     O43473   9.054   5.954   4.402 -0.6148 -1.1019  0.6833
  316MOL0     C43474   8.934   5.905   4.354 -0.3667 -0.9287  0.0335
  316MOL0     C43475   8.906   5.767   4.351  0.7824 -0.9673  0.1354
  316MOL0     C43476   8.783   5.723   4.291  0.6387  0.4971 -0.5634
  316MOL0     C43477   8.689   5.819   4.246  0.4885  0.7163 -0.2389
  316MOL0     O43478   8.571   5.777   4.186  0.1971 -0.6445 -0.0544
  316MOL0     C43479   8.492   5.858   4.097 -0.5665  0.1202 -0.1875
  316MOL0     C43480   8.365   5.791   4.053  0.5775  0.6170 -0.2648
  316MOL0     C43481   8.245   5.882   4.003 -0.5137 -0.4831  0.2207
  316MOL0     C43482   8.241   5.902   3.850  0.2773 -0.1381  0.0816
  316MOL0     C43483   8.169   6.034   3.812 -0.1598  0.6705  0.2911
  316MOL0     C43484   8.249   6.159   3.847  0.6042 -0.1428 -0.1767
  316MOL0     C43485   8.202   6.273   3.774  0.0931  0.2452  0.6411
  316MOL0     C43486   8.052   6.304   3.818 -0.8240 -0.6407 -0.7022
  316MOL0     N43487   8.025   6.444   3.771  0.6060 -0.9259  0.1117
  316MOL0     C43488   8.023   6.473   3.631  0.5843 -0.3583  0.5852
  316MOL0     C43489   7.989   6.605   3.627  0.2137  0.2331 -0.0376
  316MOL0     C43490   7.981   6.694   3.506 -0.8819 -0.4841 -0.4178
  316MOL0     C43491   7.900   6.641   3.382 -1.0321 -0.0969  0.6282
  316MOL0     C43492   7.747   6.638   3.402 -0.5230  1.1479  0.0765
  316MOL0     C43493   7.688   6.754   3.479 -1.5067  0.3601  0.4249
  316MOL0     O43494   7.727   6.879   3.417  0.4929 -0.7249 -0.9598
  316MOL0     C43495   7.656   6.992   3.444 -0.8144 -0.4823 -0.5186
  316MOL0     C43496   7.566   7.009   3.547  0.3696  0.3177 -0.6717
  316MOL0     C43497   7.501   7.124   3.590 -0.2224 -0.1130  0.3126
  316MOL0     C43498   7.383   7.115   3.689  0.1611  0.3771  0.0360
  316MOL0     C43499   7.540   7.240   3.518 -1.0366  0.5890  0.9186
  316MOL0     C43500   7.479   7.372   3.525 -0.1082 -0.6922  0.2772
  316MOL0     O43501   7.551   7.473   3.483  1.4462 -0.0362 -0.3902
  316MOL0     C43502   7.484   7.593   3.470 -0.4623  0.1655  0.4065
  316MOL0     C43503   7.506   7.688   3.569 -0.0597 -0.2637  0.2085
  316MOL0     C43504   7.464   7.823   3.558  0.6676  0.2874  0.4686
  316MOL0     C43505   7.385   7.858   3.450  0.1423 -0.2807  1.4974
  316MOL0     O43506   7.331   7.987   3.436 -0.7351  0.3853 -0.0554
  316MOL0     C43507   7.380   8.037   3.309 -0.6201  0.1054 -0.4755
  316MOL0     C43508   7.350   8.184   3.290  0.2888  0.4902  0.0902
  316MOL0     C43509   7.397   8.240   3.161 -0.0912 -0.0140  0.5003
  316MOL0     C43510   7.347   8.383   3.137  0.6754 -0.2706  0.0812
  316MOL0     C43511   7.379   8.437   3.000  0.3646  0.3033 -0.2064
  316MOL0     C43512   7.521   8.489   2.994 -0.8369  0.3916 -0.1097
  316MOL0     C43513   7.552   8.554   2.866  0.0811 -0.1181  0.3271
  316MOL0     C43514   7.545   8.712   2.874  0.0483  0.5270 -0.2278
  316MOL0    Cl43515   7.369   8.755   2.900 -0.2686 -0.0326 -0.3866
  316MOL0     C43516   7.354   7.755   3.348 -0.2031 -0.8808 -0.3700
  316MOL0     C43517   7.403   7.628   3.358 -0.5089 -0.8837  0.6757
  316MOL0     O43518   7.381   7.380   3.592 -0.3008 -0.3276 -0.8782
  316MOL0     C43519   7.653   7.236   3.433 -0.8225  0.5717  0.5724
  316MOL0     C43520   7.696   7.112   3.395 -0.3614 -0.7790  0.2843
  316MOL0     N43521   7.985   6.650   3.758  0.8384  0.2758  0.4968
  316MOL0     N43522   7.997   6.553   3.841 -1.2073 -0.6539 -0.2731
  316MOL0     C43523   8.720   5.951   4.261 -0.5834 -0.7838  0.3448
  316MOL0     C43524   8.833   5.998   4.313 -0.4949 -1.0290 -0.9408
  316MOL0     C43525   9.232   5.958   4.576  0.1256  0.4211  0.6008
  316MOL0     C43526   9.299   5.867   4.661  0.5176  0.2740 -0.2590
  316MOL0     C43527   9.426   5.884   4.705  1.0726  0.1729  0.1725
  316MOL0     C43528   9.495   6.000   4.661 -0.0167  0.2427  0.4376
  316MOL0     O43529   9.625   6.030   4.689 -0.2063 -0.0883 -0.4726
  316MOL0     C43530   9.705   5.951   4.781  0.8061 -0.3754 -0.3035
  316MOL0     C43531   9.851   5.989   4.772  0.1854  0.2402 -0.6075
  316MOL0     C43532   9.921   5.941   4.905  0.3878  0.1128  1.1657
  316MOL0     C43533  10.063   5.995   4.896  0.6449 -0.1819 -0.1186
  316MOL0     C43534  10.157   5.902   4.830 -0.3048  0.3170 -0.5028
  316MOL0     C43535  10.221   5.821   4.769  0.0875  0.5089  0.0993
  316MOL0     C43536   9.424   6.094   4.580 -0.7142 -0.2529  0.4814
  316MOL0     C43537   9.293   6.072   4.534 -0.2198 -0.8743 -0.3581
  316MOL0     C43538   9.223   6.184   4.470 -0.1294  0.5388 -0.0542
  316MOL0     H43539   8.977   5.689   4.378  0.4892 -1.4896 -0.5896
  316MOL0     H43540   8.758   5.619   4.307 -1.7161  1.4004  2.8042
  316MOL0     H43541   8.551   5.874   4.006 -1.7531 -0.3080 -1.0496
  316MOL0     H43542   8.472   5.954   4.146  2.4248  0.2624  0.9926
  316MOL0     H43543   8.373   5.707   3.984 -5.2982 -0.7321  0.1358
  316MOL0     H43544   8.326   5.742   4.143 -0.2312 -1.7024 -1.7934
  316MOL0     H43545   8.152   5.834   4.032  0.0794 -1.7048  0.1897
  316MOL0     H43546   8.244   5.978   4.055 -0.1225  1.2428 -2.7004
  316MOL0     H43547   8.344   5.912   3.814  0.2771  0.1846  0.1658
  316MOL0     H43548   8.197   5.821   3.790  1.1169  1.6264 -3.1634
  316MOL0     H43549   8.078   6.059   3.868 -0.3382  1.6765 -0.4190
  316MOL0     H43550   8.132   6.027   3.709  0.8346 -1.2360  0.0179
  316MOL0     H43551   8.255   6.180   3.954 -1.2441 -0.0122 -0.0635
  316MOL0     H43552   8.354   6.138   3.824  1.2549 -4.0481  4.6317
  316MOL0     H43553   8.216   6.261   3.666 -3.2833 -1.1702  0.2563
  316MOL0     H43554   8.252   6.365   3.806  1.0504  0.7583 -2.0795
  316MOL0     H43555   7.971   6.248   3.771 -1.3630 -0.2155 -0.2999
  316MOL0     H43556   8.040   6.299   3.927  0.0856 -1.8026 -0.6423
  316MOL0     H43557   8.036   6.414   3.541 -0.7645 -0.6871  0.5894
  316MOL0     H43558   8.079   6.712   3.461 -1.1507 -4.1719 -2.8549
  316MOL0     H43559   7.937   6.790   3.536 -3.3443 -1.4050 -0.8627
  316MOL0     H43560   7.924   6.704   3.296 -0.8724 -1.2896 -0.2231
  316MOL0     H43561   7.944   6.544   3.356 -1.4524  0.1071 -0.8960
  316MOL0     H43562   7.697   6.634   3.305 -2.6271  1.2864  1.0910
  316MOL0     H43563   7.723   6.547   3.458 -0.6844  2.0005  1.4314
  316MOL0     H43564   7.579   6.747   3.475 -1.4374 -1.5321  0.8122
  316MOL0     H43565   7.717   6.754   3.584 -2.4278 -3.3130  0.8186
  316MOL0     H43566   7.529   6.916   3.590 -0.3564  0.1887 -1.5482
  316MOL0     H43567   7.392   7.197   3.761  0.4586  0.4449 -0.0756
  316MOL0     H43568   7.371   7.021   3.745  2.4186  0.7201  1.2245
  316MOL0     H43569   7.292   7.124   3.629 -0.7046 -2.4210  0.7727
  316MOL0     H43570   7.570   7.651   3.649  0.2766 -2.9056 -1.1849
  316MOL0     H43571   7.469   7.905   3.629 -1.3796  4.2536 -3.4376
  316MOL0     H43572   7.487   8.027   3.290 -0.7349  2.4547 -3.0842
  316MOL0     H43573   7.331   7.983   3.227 -0.8969 -3.5147  1.8505
  316MOL0     H43574   7.241   8.192   3.302  0.0254  0.7414 -2.0645
  316MOL0     H43575   7.380   8.234   3.382 -1.9712 -0.4318  1.4117
  316MOL0     H43576   7.367   8.170   3.082  3.5331  0.1921 -1.2577
  316MOL0     H43577   7.505   8.257   3.160 -0.2875  1.5249  1.8996
  316MOL0     H43578   7.372   8.456   3.215 -0.0143  2.3553 -2.0028
  316MOL0     H43579   7.238   8.375   3.149  0.9088 -2.0286  1.5692
  316MOL0     H43580   7.360   8.362   2.923  1.0593  1.9497 -2.0693
  316MOL0     H43581   7.310   8.512   2.961  2.0049  1.0007 -1.9562
  316MOL0     H43582   7.587   8.402   3.001 -0.7468  0.4139 -0.6587
  316MOL0     H43583   7.542   8.568   3.067 -1.4492 -0.5688  1.1331
  316MOL0     H43584   7.474   8.525   2.796  0.1882 -1.4006  0.7076
  316MOL0     H43585   7.648   8.520   2.828 -1.2837  0.5538 -4.3726
  316MOL0     H43586   7.573   8.762   2.781 -1.0266  0.3348 -0.6660
  316MOL0     H43587   7.605   8.746   2.959  1.1024 -0.9364 -0.3409
  316MOL0     H43588   7.285   7.777   3.267  0.4053 -2.0688 -1.2354
  316MOL0     H43589   7.373   7.549   3.289 -2.0939 -1.3537  1.8434
  316MOL0     H43590   7.694   7.320   3.378  1.2402 -0.2762  0.7288
  316MOL0     H43591   7.779   7.116   3.325 -0.7714 -0.1424 -0.1751
  316MOL0     H43592   8.639   6.015   4.227 -1.2441 -2.2108 -0.9038
  316MOL0     H43593   8.838   6.106   4.329 -0.8172 -1.1224 -0.1264
  316MOL0     H43594   9.265   5.766   4.682  0.9978 -0.0884 -1.1568
  316MOL0     H43595   9.473   5.820   4.779  2.0316 -0.6051 -1.0826
  316MOL0     H43596   9.677   5.961   4.887  0.5095 -0.0835 -0.4071
  316MOL0     H43597   9.690   5.845   4.757 -1.7138 -0.5494  1.6334
  316MOL0     H43598   9.844   6.098   4.773  0.6969  0.2762 -0.6186
  316MOL0     H43599   9.898   5.955   4.680  0.1170 -2.2370  0.1885
  316MOL0     H43600   9.863   5.981   4.989 -0.4642 -0.5922  0.9325
  316MOL0     H43601   9.932   5.833   4.919  1.7696 -0.2893 -2.2684
  316MOL0     H43602  10.096   6.004   5.000  2.8635 -1.2908 -0.6605
  316MOL0     H43603  10.066   6.091   4.842 -0.8807 -0.2643 -0.3940
  316MOL0     H43604  10.266   5.749   4.704  0.3924  0.5934  0.2171
  316MOL0     H43605   9.466   6.189   4.547 -1.0911  0.1181  1.0663
  316MOL0     H43606   9.126   6.195   4.519 -1.8056 -0.9911 -2.7928
  316MOL0     H43607   9.284   6.275   4.468 -2.0866  1.9060 -0.7681
  316MOL0     H43608   9.203   6.161   4.365 -0.7178 -1.0954  0.3860
  317MOL0     O43609   1.084   5.272   2.365  0.7675 -0.6012  0.1289
  317MOL0     C43610   1.010   5.332   2.444 -0.0899 -0.1367 -0.0039
  317MOL0     O43611   0.955   5.461   2.427 -0.7578 -0.3242  0.3968
  317MOL0     C43612   0.970   5.505   2.303  0.4943  0.3717  0.0532
  317MOL0     C43613   0.902   5.449   2.192 -0.9708  0.6611  0.2284
  317MOL0     C43614   0.925   5.497   2.062  1.2278  0.6696  0.6378
  317MOL0     C43615   1.001   5.612   2.038 -0.1308 -0.0033 -0.5569
  317MOL0     O43616   0.996   5.645   1.909 -0.3906  0.1137  0.3471
  317MOL0     C43617   1.067   5.764   1.872 -0.0491 -0.4598  0.7995
  317MOL0     C43618   1.060   5.787   1.723 -0.5932  0.0000  0.9996
  317MOL0     C43619   1.117   5.669   1.638  0.0247 -0.8058 -0.6401
  317MOL0     C43620   1.264   5.663   1.637  0.3591  0.3465 -0.1758
  317MOL0     C43621   1.326   5.588   1.519 -0.1980  0.0223  0.2093
  317MOL0     C43622   1.464   5.545   1.543 -0.2241  0.4060  1.0129
  317MOL0     C43623   1.528   5.481   1.406  0.4186 -0.7899 -0.7851
  317MOL0     C43624   1.669   5.417   1.424  0.1607 -0.3379 -0.4403
  317MOL0     N43625   1.706   5.363   1.291 -0.4120 -0.2779 -0.4910
  317MOL0     C43626   1.805   5.408   1.210  0.5254  0.0170  0.0326
  317MOL0     C43627   1.777   5.346   1.093  0.4098 -0.5554  0.6355
  317MOL0     C43628   1.851   5.381   0.967 -0.2492 -1.3354 -0.0318
  317MOL0     C43629   1.927   5.254   0.913 -0.2050 -0.7160  0.6163
  317MOL0     C43630   1.991   5.272   0.774  0.5844 -0.8452 -0.1316
  317MOL0     C43631   2.082   5.166   0.726  0.0714  0.4511 -0.1327
  317MOL0     O43632   2.189   5.143   0.822 -1.3217 -0.1815 -0.0928
  317MOL0     C43633   2.281   5.240   0.812  0.2611  0.2144 -0.4922
  317MOL0     C43634   2.274   5.353   0.885 -0.2823  0.5498 -0.0375
  317MOL0     C43635   2.382   5.449   0.895 -0.2417 -0.1811  0.4228
  317MOL0     C43636   2.351   5.580   0.958 -1.1883  0.1185 -0.0738
  317MOL0     C43637   2.506   5.422   0.829 -0.3128  0.6116  0.0773
  317MOL0     C43638   2.632   5.509   0.829 -0.2125  1.2426  0.1138
  317MOL0     O43639   2.717   5.490   0.725  1.3440  0.7449 -0.0541
  317MOL0     C43640   2.836   5.548   0.739 -0.7007  0.0462 -0.2889
  317MOL0     C43641   2.948   5.475   0.778  0.9881  0.0370  0.2077
  317MOL0     C43642   3.073   5.528   0.775  0.3516  0.5527 -0.0617
  317MOL0     C43643   3.088   5.660   0.739  0.0483 -1.2045  0.6310
  317MOL0     O43644   3.220   5.702   0.734 -0.5866 -0.2416 -0.3736
  317MOL0     C43645   3.266   5.802   0.644 -0.4952  0.3955 -0.4921
  317MOL0     C43646   3.349   5.923   0.709  0.2368 -0.8157  0.2558
  317MOL0     C43647   3.414   5.998   0.587 -0.2729  0.2878 -0.3557
  317MOL0     C43648   3.479   6.139   0.619 -0.1329 -0.5028  1.2858
  317MOL0     C43649   3.382   6.254   0.656  0.3439 -0.7750  0.5677
  317MOL0     C43650   3.276   6.294   0.544 -0.0238 -0.5305 -0.1960
  317MOL0     C43651   3.342   6.324   0.408  0.9519  0.2483 -0.1457
  317MOL0     C43652   3.236   6.386   0.315 -0.1859 -0.2588  0.6928
  317MOL0    Cl43653   3.096   6.283   0.298  0.1341  0.5023 -0.0161
  317MOL0     C43654   2.981   5.742   0.721  0.5398 -0.3025 -0.0720
  317MOL0     C43655   2.857   5.684   0.708  0.3519 -0.6462  0.0180
  317MOL0     O43656   2.657   5.573   0.929  0.4419 -0.0201 -0.0130
  317MOL0     C43657   2.510   5.299   0.759  0.4174  0.9753 -0.0282
  317MOL0     C43658   2.399   5.214   0.744 -0.0902  0.0493 -0.7090
  317MOL0     N43659   1.660   5.273   1.104 -0.0377  0.0414 -0.1147
  317MOL0     N43660   1.627   5.270   1.228  1.0167  0.5976 -1.1576
  317MOL0     C43661   1.063   5.672   2.153 -0.3638 -1.1499  0.3518
  317MOL0     C43662   1.054   5.614   2.279 -0.8366 -0.5134  0.9485
  317MOL0     C43663   0.962   5.257   2.560 -0.4864 -0.0424  0.4198
  317MOL0     C43664   0.978   5.318   2.690  1.0919 -0.5503 -0.1581
  317MOL0     C43665   0.912   5.262   2.801 -0.8160 -0.3876  0.3541
  317MOL0     C43666   0.832   5.148   2.796 -0.1801 -0.5342  0.4089
  317MOL0     O43667   0.758   5.108   2.913 -0.7708  0.2801 -0.4708
  317MOL0     C43668   0.706   4.973   2.910  0.3595 -0.7136  0.5721
  317MOL0     C43669   0.809   4.874   2.983 -0.3388 -0.2084  1.5448
  317MOL0     C43670   0.769   4.725   2.966 -0.3566 -1.1049  0.2532
  317MOL0     C43671   0.861   4.631   3.056 -0.4030 -0.5899 -0.0094
  317MOL0     C43672   0.816   4.488   3.038  0.3613 -0.1757  0.2866
  317MOL0     C43673   0.786   4.370   3.023 -1.1171 -0.0735 -0.0478
  317MOL0     C43674   0.837   5.072   2.671 -0.3876  0.1314  0.0600
  317MOL0     C43675   0.903   5.131   2.558  0.1706 -0.0167  0.5446
  317MOL0     C43676   0.909   5.041   2.433  0.0967  0.9133  0.1406
  317MOL0     H43677   0.840   5.362   2.215  0.8665  0.4434  6.1240
  317MOL0     H43678   0.894   5.442   1.974  2.4839 -1.7317  1.5979
  317MOL0     H43679   1.173   5.749   1.896  0.5969  0.7640 -1.0914
  317MOL0     H43680   1.018   5.853   1.913 -2.2390 -2.2083  2.2142
  317MOL0     H43681   0.955   5.792   1.692 -1.2214 -1.5486  2.6724
  317MOL0     H43682   1.101   5.881   1.686  0.6068 -1.4459 -1.6122
  317MOL0     H43683   1.079   5.570   1.667 -2.1968 -0.8594 -3.3417
  317MOL0     H43684   1.084   5.688   1.536 -1.5422  0.0553 -0.0162
  317MOL0     H43685   1.306   5.764   1.633  0.0465  0.5001  0.3482
  317MOL0     H43686   1.290   5.612   1.730 -0.5880 -1.5714 -0.9124
  317MOL0     H43687   1.324   5.660   1.437 -0.8348 -0.3595 -0.1151
  317MOL0     H43688   1.269   5.501   1.485  4.2189 -2.5939 -1.2672
  317MOL0     H43689   1.518   5.638   1.564 -3.1498  3.1065 -2.0755
  317MOL0     H43690   1.460   5.465   1.617 -2.1253 -1.0639 -0.5863
  317MOL0     H43691   1.528   5.565   1.337  2.5162  1.4644  1.7308
  317MOL0     H43692   1.453   5.419   1.356  0.5441 -0.8283 -0.9241
  317MOL0     H43693   1.737   5.492   1.465 -0.5647 -1.2113  2.6568
  317MOL0     H43694   1.660   5.339   1.501  0.1380 -1.1881 -1.2931
  317MOL0     H43695   1.887   5.471   1.245  3.2590  0.0188 -5.3979
  317MOL0     H43696   1.920   5.466   0.975  0.2277 -1.6161 -1.0446
  317MOL0     H43697   1.771   5.407   0.898 -0.5066  0.9026  1.0075
  317MOL0     H43698   1.997   5.212   0.985  0.4479 -1.8609 -0.6316
  317MOL0     H43699   1.852   5.175   0.903  2.3005 -3.2127  0.2617
  317MOL0     H43700   1.909   5.279   0.702 -0.6191 -1.6762  1.1127
  317MOL0     H43701   2.039   5.369   0.786  2.0324 -1.6897  1.2811
  317MOL0     H43702   2.041   5.065   0.720  2.0720 -0.4919  0.9934
  317MOL0     H43703   2.112   5.194   0.625 -0.8506 -0.6597 -0.7365
  317MOL0     H43704   2.184   5.361   0.944  0.1970 -0.7996  0.9496
  317MOL0     H43705   2.387   5.664   0.898  2.4463 -0.6981  0.6979
  317MOL0     H43706   2.396   5.577   1.058 -0.4166 -0.8690 -0.4340
  317MOL0     H43707   2.247   5.587   0.989 -1.9880  2.0330 -2.8339
  317MOL0     H43708   2.923   5.374   0.807 -0.0708  0.9173  2.6612
  317MOL0     H43709   3.157   5.469   0.808  0.6120  1.8953  1.9035
  317MOL0     H43710   3.334   5.751   0.574  1.3589  3.2569 -0.9603
  317MOL0     H43711   3.193   5.846   0.576 -2.1902 -0.0370  0.9987
  317MOL0     H43712   3.280   5.987   0.765  1.0911  1.8185 -1.5275
  317MOL0     H43713   3.423   5.883   0.779 -0.9818 -0.8488  1.5639
  317MOL0     H43714   3.340   6.005   0.507 -0.2049 -1.9801 -0.6626
  317MOL0     H43715   3.492   5.928   0.555 -0.9525 -0.1020 -1.2101
  317MOL0     H43716   3.535   6.170   0.531 -2.2545  4.1161  1.2241
  317MOL0     H43717   3.557   6.122   0.694  0.8768 -0.7715  0.1896
  317MOL0     H43718   3.314   6.224   0.737  3.2642 -1.4981  2.9352
  317MOL0     H43719   3.446   6.335   0.690  0.5380 -0.5994 -0.2119
  317MOL0     H43720   3.231   6.388   0.579 -1.3287 -0.1685 -2.6736
  317MOL0     H43721   3.196   6.220   0.532 -1.1213  0.8906 -2.2776
  317MOL0     H43722   3.378   6.231   0.363  0.7490 -0.0823  0.3647
  317MOL0     H43723   3.418   6.402   0.419  0.1045  1.0171  0.3996
  317MOL0     H43724   3.273   6.406   0.214 -0.7791 -1.6178  0.1920
  317MOL0     H43725   3.200   6.483   0.353 -0.3540  0.0011 -0.1030
  317MOL0     H43726   3.000   5.848   0.710 -0.2815 -0.0907  0.5273
  317MOL0     H43727   2.773   5.748   0.683 -0.2726 -2.0552 -1.6413
  317MOL0     H43728   2.602   5.273   0.708 -1.7896 -0.5532 -3.6315
  317MOL0     H43729   2.402   5.119   0.692  2.7267 -0.7776  0.7849
  317MOL0     H43730   1.126   5.759   2.140 -0.2505 -0.9454  2.1047
  317MOL0     H43731   1.112   5.668   2.354 -0.3951  1.9727 -1.0302
  317MOL0     H43732   1.000   5.423   2.706 -2.9286  0.1002  2.8490
  317MOL0     H43733   0.921   5.302   2.902 -1.5369 -0.2251  0.3578
  317MOL0     H43734   0.612   4.966   2.964 -1.2473 -4.1694 -2.2826
  317MOL0     H43735   0.673   4.937   2.813  2.2693  1.8476 -1.1823
  317MOL0     H43736   0.812   4.898   3.090 -5.5089  0.9697  1.6883
  317MOL0     H43737   0.901   4.893   2.928 -0.9435  2.1358  1.2394
  317MOL0     H43738   0.662   4.727   2.987 -0.1698 -2.4370  1.5206
  317MOL0     H43739   0.767   4.691   2.862 -2.8658 -0.6148  0.0682
  317MOL0     H43740   0.859   4.644   3.164  2.7120 -0.5602  0.1506
  317MOL0     H43741   0.967   4.633   3.027  0.1250 -1.2315  1.7591
  317MOL0     H43742   0.774   4.266   2.998  0.2549 -0.0717 -0.8545
  317MOL0     H43743   0.799   4.970   2.664  0.1406  0.0505 -2.9136
  317MOL0     H43744   0.874   5.096   2.345  3.1341 -1.7485 -3.0172
  317MOL0     H43745   1.008   5.005   2.405 -0.4524  0.2485 -0.9986
  317MOL0     H43746   0.845   4.954   2.448 -0.6164  1.1116 -1.4961
  318MOL0     O43747   1.721   6.176   2.782 -0.3516  0.1528  0.2822
  318MOL0     C43748   1.787   6.093   2.725 -0.3527  0.3126  0.0809
  318MOL0     O43749   1.827   5.964   2.774  1.1327  0.0212  0.0042
  318MOL0     C43750   1.762   5.921   2.895 -0.2594 -0.3038 -0.0822
  318MOL0     C43751   1.839   5.900   3.010  1.0763  0.6360 -0.0634
  318MOL0     C43752   1.767   5.871   3.129 -0.3898  0.2977  0.2990
  318MOL0     C43753   1.631   5.867   3.136  0.0047  0.1758  0.2225
  318MOL0     O43754   1.559   5.834   3.250 -0.2657  0.3085  0.2039
  318MOL0     C43755   1.548   5.695   3.272  0.9490 -0.2935  0.2852
  318MOL0     C43756   1.441   5.670   3.382  0.1158  0.1535 -0.0007
  318MOL0     C43757   1.471   5.547   3.463 -0.9300  0.3275 -0.3782
  318MOL0     C43758   1.534   5.589   3.597 -0.3871  0.4282 -0.6918
  318MOL0     C43759   1.568   5.467   3.683  0.6862  0.2107 -0.2322
  318MOL0     C43760   1.630   5.513   3.809 -0.0591 -0.2078  0.1658
  318MOL0     C43761   1.776   5.567   3.801 -0.6699 -0.4670  0.3910
  318MOL0     C43762   1.839   5.563   3.950  0.4411  0.3412 -0.6737
  318MOL0     N43763   1.984   5.532   3.958  0.1025  0.5001 -0.4404
  318MOL0     C43764   2.073   5.595   3.882 -0.1770  0.2492 -0.5207
  318MOL0     C43765   2.184   5.520   3.885 -0.0931  0.0044  1.0089
  318MOL0     C43766   2.306   5.548   3.805 -0.8101  0.3656 -0.0215
  318MOL0     C43767   2.400   5.639   3.877  0.6012 -0.1314 -0.6439
  318MOL0     C43768   2.548   5.631   3.840 -0.4146  0.8197 -0.5536
  318MOL0     C43769   2.647   5.722   3.912 -0.0270 -1.2572  0.4285
  318MOL0     O43770   2.768   5.711   3.835  0.1638  0.2569 -1.5283
  318MOL0     C43771   2.866   5.784   3.889  0.6138  0.2749 -0.0990
  318MOL0     C43772   2.976   5.784   3.809  0.3567  0.2793  0.1751
  318MOL0     C43773   3.086   5.865   3.841  0.6308  1.2503 -0.4267
  318MOL0     C43774   3.185   5.880   3.731 -0.1125 -0.5122  0.3477
  318MOL0     C43775   3.099   5.933   3.959  0.5222 -1.3882 -0.1153
  318MOL0     C43776   3.215   6.004   4.004 -0.0114  0.5179  0.5880
  318MOL0     O43777   3.197   6.131   4.031 -0.5472 -0.3095 -0.2677
  318MOL0     C43778   3.295   6.207   4.100  0.2742  0.4800 -0.4740
  318MOL0     C43779   3.289   6.226   4.236 -0.2660  0.3138 -1.0203
  318MOL0     C43780   3.396   6.281   4.313  0.3533  1.0822 -0.4149
  318MOL0     C43781   3.506   6.308   4.247 -0.0808 -0.6638 -0.9015
  318MOL0     O43782   3.620   6.334   4.317  0.5177  0.1394 -0.1010
  318MOL0     C43783   3.633   6.306   4.459  0.5925  0.5863  0.5694
  318MOL0     C43784   3.782   6.291   4.488  0.3634 -0.1765  0.3686
  318MOL0     C43785   3.872   6.390   4.420  0.0079 -0.9818 -0.6253
  318MOL0     C43786   3.864   6.533   4.497  0.2665 -0.0595  0.8888
  318MOL0     C43787   3.985   6.626   4.458 -0.0796 -0.2362 -0.1932
  318MOL0     C43788   3.961   6.760   4.539 -0.3096  0.1907 -0.7492
  318MOL0     C43789   4.054   6.867   4.488  0.2088  0.6248 -0.3062
  318MOL0     C43790   4.005   6.927   4.359  0.6331  0.0764  0.8432
  318MOL0    Cl43791   4.067   7.097   4.338 -0.4513 -0.5500 -0.1811
  318MOL0     C43792   3.516   6.306   4.110 -0.1927 -0.3523 -0.0883
  318MOL0     C43793   3.407   6.255   4.032  0.1326 -0.3357  1.0944
  318MOL0     O43794   3.307   5.928   4.026  0.0039 -0.8003 -0.2135
  318MOL0     C43795   2.980   5.924   4.042  0.0335  0.3152  0.2299
  318MOL0     C43796   2.859   5.862   4.007  0.9487 -0.0926  1.1333
  318MOL0     N43797   2.172   5.405   3.964 -0.3275 -0.1729 -0.4346
  318MOL0     N43798   2.046   5.413   3.998 -0.2157  0.4393 -0.3426
  318MOL0     C43799   1.564   5.887   3.019  0.0580 -0.2190  0.0671
  318MOL0     C43800   1.631   5.908   2.902  0.2731 -0.7416 -0.2707
  318MOL0     C43801   1.829   6.116   2.585 -0.6791  0.1116  0.4122
  318MOL0     C43802   1.757   6.050   2.480 -0.0585 -0.5244  0.2486
  318MOL0     C43803   1.807   6.048   2.349  0.3028 -0.6835  0.8648
  318MOL0     C43804   1.940   6.089   2.321  0.8351 -0.9461 -0.8602
  318MOL0     O43805   1.998   6.081   2.197  0.1104  0.1426  0.4742
  318MOL0     C43806   1.951   5.975   2.111  0.6880  0.2126  0.1215
  318MOL0     C43807   1.893   6.042   1.981 -0.7830 -0.4932 -0.6510
  318MOL0     C43808   1.846   5.937   1.879 -0.6762 -0.5113  0.0808
  318MOL0     C43809   1.792   6.008   1.755 -1.3625  0.3789  0.2464
  318MOL0     C43810   1.910   6.072   1.689  0.1660  0.3271  0.1482
  318MOL0     C43811   1.979   6.148   1.631  0.2386  0.1003  0.0779
  318MOL0     C43812   2.012   6.150   2.430  0.4618 -0.1169 -0.7391
  318MOL0     C43813   1.956   6.164   2.550  0.4762  0.0601 -0.6631
  318MOL0     C43814   2.043   6.227   2.654 -0.2308  0.4216  0.4291
  318MOL0     H43815   1.944   5.927   2.998  0.3650  3.4793 -0.4994
  318MOL0     H43816   1.820   5.842   3.219 -2.1875  0.1464  1.3377
  318MOL0     H43817   1.647   5.650   3.282  1.7088  0.4015 -2.8830
  318MOL0     H43818   1.501   5.661   3.179 -1.0202  2.1914  0.2483
  318MOL0     H43819   1.443   5.759   3.447 -1.8262 -0.0506  0.3731
  318MOL0     H43820   1.352   5.658   3.320  0.7536  1.8694 -1.3270
  318MOL0     H43821   1.379   5.490   3.478  0.0597 -0.8738  1.3249
  318MOL0     H43822   1.541   5.483   3.409 -0.0770 -0.0585  1.1309
  318MOL0     H43823   1.620   5.657   3.591 -1.4572  2.0356  1.0232
  318MOL0     H43824   1.459   5.643   3.655 -0.2743  2.5725 -2.3758
  318MOL0     H43825   1.648   5.407   3.638  0.8076 -0.2401  0.5634
  318MOL0     H43826   1.473   5.414   3.697  0.4955  0.5739 -0.1410
  318MOL0     H43827   1.567   5.593   3.851 -1.0236 -1.0170  0.3165
  318MOL0     H43828   1.638   5.427   3.875 -1.0264 -0.6288 -0.2435
  318MOL0     H43829   1.752   5.672   3.780 -0.6869 -0.2776  1.3282
  318MOL0     H43830   1.840   5.517   3.728 -1.5267  0.4804 -1.0561
  318MOL0     H43831   1.819   5.661   3.995  4.0634 -0.6718  3.9406
  318MOL0     H43832   1.794   5.483   4.010  0.3450 -0.4416 -1.7627
  318MOL0     H43833   2.051   5.688   3.831  1.1667  2.2558  2.2960
  318MOL0     H43834   2.280   5.582   3.704 -3.2198  4.5800  1.7677
  318MOL0     H43835   2.363   5.455   3.793  1.3626  1.5743  0.3581
  318MOL0     H43836   2.371   5.745   3.877 -2.3376 -0.8307  1.1468
  318MOL0     H43837   2.385   5.620   3.984  1.9654 -0.5184 -0.5072
  318MOL0     H43838   2.567   5.532   3.882  0.7357  1.1507 -0.2528
  318MOL0     H43839   2.575   5.640   3.734  1.5237  3.8188  0.0625
  318MOL0     H43840   2.614   5.826   3.919  1.6074 -0.6270 -0.6711
  318MOL0     H43841   2.667   5.685   4.013  2.4294 -0.1886  0.3959
  318MOL0     H43842   2.962   5.737   3.712  0.9791  0.4217  0.0126
  318MOL0     H43843   3.241   5.789   3.707 -0.6410 -0.2551 -2.2272
  318MOL0     H43844   3.264   5.954   3.749  0.7561 -0.3742 -3.1664
  318MOL0     H43845   3.132   5.921   3.645  1.1142  1.2500  0.3781
  318MOL0     H43846   3.198   6.188   4.281 -0.0571  2.0348  1.0203
  318MOL0     H43847   3.383   6.289   4.420  0.2304 -0.0901 -0.3336
  318MOL0     H43848   3.583   6.377   4.526 -0.7596 -0.1945  0.4193
  318MOL0     H43849   3.582   6.211   4.480 -1.1970  1.3345 -0.1646
  318MOL0     H43850   3.787   6.294   4.597 -2.4698 -1.2459  0.6181
  318MOL0     H43851   3.817   6.192   4.456  1.3290 -0.4266  2.0735
  318MOL0     H43852   3.840   6.406   4.316 -1.6231  0.5752  0.0535
  318MOL0     H43853   3.973   6.351   4.426  1.4341  2.2268 -1.5162
  318MOL0     H43854   3.862   6.530   4.606 -2.6049 -0.7318  0.8779
  318MOL0     H43855   3.767   6.576   4.472  0.7762  1.8209  1.9359
  318MOL0     H43856   4.076   6.579   4.498  0.3943  0.8750  0.0811
  318MOL0     H43857   3.987   6.636   4.349 -2.2873  2.7385 -0.0875
  318MOL0     H43858   3.989   6.734   4.641  1.9264 -1.4605 -1.6735
  318MOL0     H43859   3.859   6.798   4.535  0.2055  1.6856 -0.2098
  318MOL0     H43860   4.158   6.838   4.472 -0.0972  0.7614 -2.9980
  318MOL0     H43861   4.055   6.945   4.565 -2.4815  1.7219 -1.2675
  318MOL0     H43862   3.896   6.934   4.352  0.7369  0.0482 -1.4712
  318MOL0     H43863   4.037   6.870   4.272 -0.2886  2.0513 -0.8734
  318MOL0     H43864   3.603   6.342   4.057 -1.7953  1.0646 -1.8524
  318MOL0     H43865   3.408   6.234   3.925 -1.8833 -1.5445  1.2634
  318MOL0     H43866   2.989   5.980   4.135  1.0999 -1.8436  1.5130
  318MOL0     H43867   2.780   5.879   4.079  2.7500  1.2714  2.8951
  318MOL0     H43868   1.455   5.893   3.017  0.0837  0.3826 -2.8653
  318MOL0     H43869   1.575   5.929   2.811  2.0130 -2.5675 -1.8450
  318MOL0     H43870   1.667   5.999   2.511  1.1630 -1.7475  1.9602
  318MOL0     H43871   1.752   5.999   2.270  2.8505  0.4406 -1.7606
  318MOL0     H43872   2.032   5.911   2.076 -0.3449 -0.0434 -1.9564
  318MOL0     H43873   1.873   5.909   2.150  0.5937 -1.7577 -3.0967
  318MOL0     H43874   1.974   6.109   1.951  0.1873 -1.2023  0.3147
  318MOL0     H43875   1.808   6.105   2.010 -1.0837 -0.0817 -2.3095
  318MOL0     H43876   1.921   5.865   1.844 -0.5092  0.5070 -1.7569
  318MOL0     H43877   1.776   5.873   1.934 -0.4412 -2.3938 -1.6808
  318MOL0     H43878   1.715   6.078   1.791 -0.8790  1.3794 -0.6360
  318MOL0     H43879   1.736   5.934   1.697  1.0538 -2.1766  0.9767
  318MOL0     H43880   2.050   6.206   1.575 -1.2435 -1.2028 -3.4649
  318MOL0     H43881   2.112   6.187   2.410 -1.1336  3.8289 -2.5635
  318MOL0     H43882   2.019   6.193   2.756 -3.5560 -0.9395 -0.6544
  318MOL0     H43883   2.149   6.213   2.633 -1.3111 -4.2435 -4.0711
  318MOL0     H43884   2.019   6.333   2.648  3.5067  1.3496 -4.8006
  319MOL0     O43885  11.163   9.200   7.476 -0.0009  0.0300 -0.2361
  319MOL0     C43886  11.051   9.252   7.440 -0.9094  0.3018 -0.6053
  319MOL0     O43887  10.968   9.333   7.516 -0.2588 -0.3276 -0.2870
  319MOL0     C43888  11.008   9.354   7.643 -1.0167  0.5466  0.3004
  319MOL0     C43889  11.134   9.418   7.684  0.5069  0.9029 -0.6643
  319MOL0     C43890  11.170   9.409   7.822  0.2990 -0.2079  0.9664
  319MOL0     C43891  11.099   9.329   7.916 -0.2028  0.2621 -0.1684
  319MOL0     O43892  11.126   9.293   8.050  0.0969  0.4004 -0.3786
  319MOL0     C43893  11.240   9.355   8.111  0.6586 -0.5562  0.4255
  319MOL0     C43894  11.248   9.307   8.257 -0.5889  0.2887  0.9645
  319MOL0     C43895  11.223   9.413   8.362  1.3699  0.1765 -0.2859
  319MOL0     C43896  11.065   9.454   8.368  0.2024  0.7073  0.0660
  319MOL0     C43897  11.055   9.560   8.474 -0.3253 -0.3688 -0.0310
  319MOL0     C43898  10.913   9.613   8.491 -0.5133  0.8387 -0.5171
  319MOL0     C43899  10.871   9.694   8.621 -0.4441 -0.6704 -0.5528
  319MOL0     C43900  10.991   9.763   8.688 -0.1908 -0.1148 -0.3688
  319MOL0     N43901  10.938   9.845   8.796  0.3609 -0.0640 -0.9933
  319MOL0     C43902  10.908   9.979   8.776 -0.2951  0.1305  0.0138
  319MOL0     C43903  10.921  10.047   8.901 -0.5803  0.3615 -0.1541
  319MOL0     C43904  10.916  10.186   8.947  0.9079 -0.0969 -0.2083
  319MOL0     C43905  11.056  10.254   8.933 -0.3565 -0.4840 -0.8971
  319MOL0     C43906  11.045  10.404   8.976 -0.1505  0.5965 -0.5161
  319MOL0     C43907  11.190  10.456   9.018 -0.2454  0.3929 -0.1337
  319MOL0     O43908  11.194  10.602   9.014  0.5067  0.2687 -0.6475
  319MOL0     C43909  11.127  10.679   9.113 -0.6538  0.4551 -0.2381
  319MOL0     C43910  11.067  10.623   9.228 -0.2077  1.6282 -0.0027
  319MOL0     C43911  10.986  10.689   9.318  0.4377 -0.2799 -0.1456
  319MOL0     C43912  10.935  10.611   9.446  0.1078  0.4345 -1.5748
  319MOL0     C43913  10.949  10.820   9.287  0.3491 -0.2542 -0.2417
  319MOL0     C43914  10.863  10.911   9.375  0.2302  0.5134  0.1261
  319MOL0     O43915  10.831  10.882   9.501  0.3686 -0.4165 -0.1356
  319MOL0     C43916  10.745  10.971   9.572 -0.5720  0.5579  0.6398
  319MOL0     C43917  10.619  10.927   9.593  0.8202 -0.9935 -0.4586
  319MOL0     C43918  10.530  11.010   9.651 -0.0731  0.2609 -0.5140
  319MOL0     C43919  10.571  11.135   9.695 -0.7126 -0.0705  0.8971
  319MOL0     O43920  10.483  11.224   9.757 -0.2512  0.4873 -0.6324
  319MOL0     C43921  10.355  11.180   9.805 -0.3731  0.5658 -0.7696
  319MOL0     C43922  10.267  11.288   9.858  0.3461 -0.4395 -0.2954
  319MOL0     C43923  10.147  11.244   9.943  1.4542 -1.0200  0.2508
  319MOL0     C43924  10.028  11.188   9.864 -0.3313 -0.1653  0.5571
  319MOL0     C43925   9.924  11.108   9.948  0.4075 -0.1309 -1.5017
  319MOL0     C43926   9.849  11.200  10.045  0.3844 -0.1621  0.4258
  319MOL0     C43927   9.756  11.309  10.002  0.7368  1.1447 -0.3912
  319MOL0     C43928   9.738  11.404  10.122 -0.6211  0.5478 -0.6176
  319MOL0    Cl43929   9.686  11.300  10.259 -0.1034  0.7054 -0.0498
  319MOL0     C43930  10.704  11.173   9.682 -0.4969  0.5820  0.1632
  319MOL0     C43931  10.796  11.097   9.617 -0.3279  1.1262  0.1595
  319MOL0     O43932  10.829  11.020   9.317  0.5814  0.6203 -0.3317
  319MOL0     C43933  11.022  10.888   9.180 -0.9868  0.0251 -0.0810
  319MOL0     C43934  11.104  10.814   9.093  0.8400 -0.8236  0.0031
  319MOL0     N43935  10.993   9.951   8.984  0.7931  0.3122 -1.1403
  319MOL0     N43936  10.996   9.838   8.923 -0.9735 -0.0188 -0.4118
  319MOL0     C43937  10.986   9.260   7.867  0.1475 -0.6361 -0.7505
  319MOL0     C43938  10.937   9.272   7.731 -0.4903  0.0549 -0.3814
  319MOL0     C43939  11.022   9.248   7.294  0.2170  0.3140  0.9760
  319MOL0     C43940  10.899   9.310   7.253  0.1356  0.1076  0.2428
  319MOL0     C43941  10.862   9.322   7.120 -0.8947  0.0073 -0.3417
  319MOL0     C43942  10.930   9.259   7.023  0.5241 -0.4082  0.9818
  319MOL0     O43943  10.874   9.240   6.906 -0.3346 -0.2206 -0.0540
  319MOL0     C43944  10.919   9.308   6.787  0.1828  0.3601 -0.5163
  319MOL0     C43945  10.855   9.444   6.752 -0.2076 -0.3514 -0.7318
  319MOL0     C43946  10.709   9.431   6.700  0.3063  0.1339 -0.5065
  319MOL0     C43947  10.605   9.454   6.823 -0.5118  0.6816  0.7818
  319MOL0     C43948  10.477   9.452   6.754 -0.1286  0.2840 -0.0333
  319MOL0     C43949  10.376   9.448   6.687 -0.0109 -0.0643  0.8934
  319MOL0     C43950  11.050   9.198   7.055  1.6090 -0.3644 -0.7547
  319MOL0     C43951  11.108   9.195   7.190 -0.3363 -0.1244  0.3549
  319MOL0     C43952  11.247   9.146   7.205  0.0966  0.7543 -0.2690
  319MOL0     H43953  11.182   9.472   7.602  0.1512 -0.0141 -1.4902
  319MOL0     H43954  11.259   9.468   7.841 -1.2140  2.0746  1.4874
  319MOL0     H43955  11.219   9.462   8.114  1.5245 -0.3439 -0.5825
  319MOL0     H43956  11.336   9.339   8.062 -0.8481 -1.2558 -2.5065
  319MOL0     H43957  11.183   9.219   8.260 -0.4914  0.0492 -1.4696
  319MOL0     H43958  11.353   9.286   8.275  0.1328  0.1344 -2.5945
  319MOL0     H43959  11.259   9.381   8.460  2.4218 -2.0291 -1.3256
  319MOL0     H43960  11.289   9.498   8.342  3.0954 -1.4062 -1.7295
  319MOL0     H43961  11.038   9.493   8.269  2.8457  1.3991 -0.4659
  319MOL0     H43962  11.004   9.366   8.390  0.3482  0.5489 -0.1643
  319MOL0     H43963  11.125   9.642   8.454  0.5734 -1.2505 -0.6149
  319MOL0     H43964  11.100   9.524   8.567 -1.9467  0.8663  1.2923
  319MOL0     H43965  10.875   9.666   8.403  0.4961  0.0187 -1.4666
  319MOL0     H43966  10.845   9.527   8.494 -1.7196  1.7828  2.5343
  319MOL0     H43967  10.829   9.638   8.705 -1.8777  0.8762 -0.1888
  319MOL0     H43968  10.797   9.773   8.602 -0.8260  0.2434  3.7925
  319MOL0     H43969  11.067   9.697   8.731  1.3014  1.9780  0.3603
  319MOL0     H43970  11.057   9.829   8.631  0.7139  1.6489  2.5326
  319MOL0     H43971  10.872  10.030   8.687 -1.8704  0.5408  0.8420
  319MOL0     H43972  10.880  10.185   9.050 -0.5517  3.1455 -0.5540
  319MOL0     H43973  10.843  10.242   8.887 -0.7653 -3.0999 -1.1991
  319MOL0     H43974  11.120  10.203   9.005  0.3024 -1.2657 -2.0189
  319MOL0     H43975  11.092  10.251   8.830 -0.4302  0.3977 -0.9625
  319MOL0     H43976  11.020  10.471   8.894 -1.4027  2.0898  1.0113
  319MOL0     H43977  10.971  10.427   9.053  0.0697 -0.3990  0.0104
  319MOL0     H43978  11.219  10.420   9.118 -1.0292 -0.4435 -0.1966
  319MOL0     H43979  11.265  10.410   8.953 -0.2690 -0.7871  0.6286
  319MOL0     H43980  11.097  10.525   9.262 -1.4843  0.5925 -1.7089
  319MOL0     H43981  10.974  10.508   9.446  1.7125  1.0029  0.2281
  319MOL0     H43982  10.827  10.597   9.452  0.0435  1.4954  2.7909
  319MOL0     H43983  10.961  10.662   9.539  0.5001 -0.7906 -0.9866
  319MOL0     H43984  10.593  10.833   9.547  0.8182  0.1499 -2.9714
  319MOL0     H43985  10.430  10.969   9.651  0.3156 -0.9744  2.5732
  319MOL0     H43986  10.309  11.120   9.726  0.7767  1.5392 -2.2480
  319MOL0     H43987  10.370  11.116   9.893  0.2627  0.3713 -1.0104
  319MOL0     H43988  10.321  11.345   9.934  1.2719 -2.4279  0.6245
  319MOL0     H43989  10.238  11.354   9.776 -3.7735 -0.8617  0.5636
  319MOL0     H43990  10.110  11.328  10.002 -1.5766 -1.7572 -0.4596
  319MOL0     H43991  10.177  11.170  10.018 -0.3430 -1.1622  0.8715
  319MOL0     H43992  10.078  11.109   9.806 -0.5734 -1.7098  2.3432
  319MOL0     H43993   9.976  11.255   9.795 -3.6032 -4.2155 -1.3475
  319MOL0     H43994   9.843  11.078   9.881  0.6851  0.8122 -2.2829
  319MOL0     H43995   9.957  11.019  10.002 -5.5545 -2.5564 -1.0856
  319MOL0     H43996   9.911  11.243  10.124  1.4447 -0.9752  0.0484
  319MOL0     H43997   9.789  11.132  10.106 -0.7399 -0.9396 -1.4545
  319MOL0     H43998   9.660  11.269   9.970  0.4672  1.9747 -0.6533
  319MOL0     H43999   9.813  11.353   9.919  3.9171 -2.0883 -0.1873
  319MOL0     H44000   9.669  11.488  10.106  0.6124  2.2529  2.1122
  319MOL0     H44001   9.834  11.450  10.149 -1.2679  0.4307  2.2623
  319MOL0     H44002  10.743  11.270   9.712 -0.1621  0.4812  0.0661
  319MOL0     H44003  10.900  11.127   9.608 -0.4590  1.3515 -0.7489
  319MOL0     H44004  11.042  10.994   9.170  2.7583 -0.6820 -1.9974
  319MOL0     H44005  11.160  10.869   9.018 -0.9664  1.1662  0.0108
  319MOL0     H44006  10.930   9.189   7.925  0.6475  0.4345  1.1083
  319MOL0     H44007  10.851   9.208   7.717 -0.9382  0.5135  0.2193
  319MOL0     H44008  10.829   9.350   7.326 -1.2444  0.1394 -1.0338
  319MOL0     H44009  10.774   9.381   7.093  0.5291  2.0297 -0.8061
  319MOL0     H44010  11.026   9.332   6.787 -0.1007  1.7136  0.2636
  319MOL0     H44011  10.893   9.251   6.697  1.3111  0.9156 -1.2208
  319MOL0     H44012  10.926   9.481   6.678  0.0085  1.0924  0.1662
  319MOL0     H44013  10.871   9.508   6.839  1.9747  1.6659 -2.4840
  319MOL0     H44014  10.690   9.508   6.625  0.0029 -2.0726 -2.8008
  319MOL0     H44015  10.697   9.334   6.651  2.1362  0.8799 -2.5818
  319MOL0     H44016  10.618   9.556   6.861  0.1440  0.4411  1.2217
  319MOL0     H44017  10.604   9.383   6.906  0.0852 -1.0063 -0.5944
  319MOL0     H44018  10.288   9.423   6.632  1.2367  0.4521 -1.4384
  319MOL0     H44019  11.099   9.141   6.976 -0.8464 -1.6975 -1.4102
  319MOL0     H44020  11.254   9.097   7.302 -0.6587  1.2582  0.0512
  319MOL0     H44021  11.259   9.084   7.115 -1.6588 -0.7996  0.5094
  319MOL0     H44022  11.322   9.226   7.201  1.1491 -0.0886  1.3813
  320MOL0     O44023   9.393   8.059   5.907  0.2375 -0.2359  0.2641
  320MOL0     C44024   9.503   8.083   5.947 -0.7728  0.9418 -0.6756
  320MOL0     O44025   9.599   8.145   5.874  0.7789 -0.2930 -0.2731
  320MOL0     C44026   9.588   8.206   5.757 -0.7780  0.0952  0.5482
  320MOL0     C44027   9.712   8.217   5.692  0.4369  0.5971 -0.2627
  320MOL0     C44028   9.722   8.273   5.573  0.8246  0.2092  0.3461
  320MOL0     C44029   9.609   8.340   5.507 -0.0734 -0.3852  0.7843
  320MOL0     O44030   9.614   8.385   5.379  0.4316  0.6501  0.9789
  320MOL0     C44031   9.728   8.353   5.301 -0.0487  0.2909  0.2931
  320MOL0     C44032   9.711   8.396   5.154  0.7187 -0.6614 -0.8038
  320MOL0     C44033   9.838   8.346   5.069 -0.5016 -1.2883  0.1014
  320MOL0     C44034   9.853   8.436   4.942  0.8241  0.1667  0.4055
  320MOL0     C44035   9.971   8.402   4.859 -0.1177 -0.2346 -0.1520
  320MOL0     C44036   9.995   8.498   4.741 -0.4437  0.4655 -1.2482
  320MOL0     C44037  10.056   8.432   4.618 -0.1428  0.9800  1.0215
  320MOL0     C44038  10.089   8.520   4.501 -0.8787  0.0077  0.8423
  320MOL0     N44039  10.166   8.446   4.399 -0.5859 -0.2273  0.4848
  320MOL0     C44040  10.109   8.414   4.278 -0.5925  0.1292  0.1880
  320MOL0     C44041  10.211   8.353   4.215  0.2928 -0.6087  1.0934
  320MOL0     C44042  10.207   8.301   4.070 -0.2487 -0.3964 -0.8314
  320MOL0     C44043  10.266   8.396   3.961 -0.1061 -0.3556  0.1559
  320MOL0     C44044  10.173   8.514   3.916  0.8885  0.6945  0.2719
  320MOL0     C44045  10.060   8.462   3.826 -0.9527 -0.1617 -0.3180
  320MOL0     O44046  10.118   8.429   3.692 -0.0009  0.2178  0.0316
  320MOL0     C44047  10.029   8.361   3.614 -0.2713 -0.7184 -0.2788
  320MOL0     C44048  10.039   8.225   3.597 -0.0123 -0.2663 -0.2829
  320MOL0     C44049   9.952   8.147   3.516  0.1401  0.1798  0.1835
  320MOL0     C44050   9.994   8.007   3.512  1.3027  0.1607 -0.2326
  320MOL0     C44051   9.844   8.202   3.448 -0.4345 -0.5720  0.0731
  320MOL0     C44052   9.752   8.133   3.353  0.8011 -0.6178  0.6012
  320MOL0     O44053   9.638   8.204   3.326  0.2123  0.0076  0.5190
  320MOL0     C44054   9.556   8.157   3.233  0.0640 -0.1899  0.3676
  320MOL0     C44055   9.509   8.245   3.125 -0.0187  0.6128  0.0150
  320MOL0     C44056   9.427   8.204   3.024  0.6683 -0.5492 -1.1962
  320MOL0     C44057   9.372   8.076   3.035 -0.4972  0.7544  0.9354
  320MOL0     O44058   9.288   8.023   2.942 -0.0260 -1.0859  0.4042
  320MOL0     C44059   9.151   8.066   2.963 -0.4643 -0.0167  0.1828
  320MOL0     C44060   9.099   8.172   2.864 -0.4365 -0.3661  0.2495
  320MOL0     C44061   8.949   8.207   2.889  0.9168 -0.3092  0.7316
  320MOL0     C44062   8.911   8.219   3.027  0.6586 -0.2848 -0.5096
  320MOL0     C44063   8.792   8.309   3.062  0.0084  0.1175 -1.2040
  320MOL0     C44064   8.775   8.315   3.212  0.2248 -0.8322 -0.8834
  320MOL0     C44065   8.690   8.429   3.259  0.7164 -0.8118  0.4020
  320MOL0     C44066   8.648   8.441   3.409  0.0519 -0.4096 -0.1960
  320MOL0    Cl44067   8.572   8.294   3.482 -0.0698 -0.1019 -0.4500
  320MOL0     C44068   9.391   7.996   3.152  0.9623 -0.4023 -0.8849
  320MOL0     C44069   9.492   8.030   3.245 -0.9050 -0.3362  0.4476
  320MOL0     O44070   9.777   8.011   3.316 -0.6393 -0.2990  0.9927
  320MOL0     C44071   9.822   8.339   3.473  0.2766 -1.2633 -0.0800
  320MOL0     C44072   9.910   8.416   3.552 -0.2324  0.1949 -0.2385
  320MOL0     N44073  10.321   8.351   4.305 -1.3309 -0.4991  0.5569
  320MOL0     N44074  10.296   8.419   4.409 -0.1953  0.3967  0.0851
  320MOL0     C44075   9.490   8.332   5.579 -0.2993 -0.5652  0.6821
  320MOL0     C44076   9.473   8.264   5.701  0.0534  0.7209  0.0733
  320MOL0     C44077   9.549   8.014   6.080  0.1116 -0.3192 -0.1337
  320MOL0     C44078   9.443   7.944   6.148  0.7245  0.2065  0.3821
  320MOL0     C44079   9.457   7.880   6.265  0.0930 -0.3873 -0.5162
  320MOL0     C44080   9.587   7.888   6.321 -0.0348 -0.0705 -0.6212
  320MOL0     O44081   9.613   7.824   6.446 -0.3163 -0.0307 -0.1580
  320MOL0     C44082   9.533   7.855   6.553  0.2081 -1.0921  0.0360
  320MOL0     C44083   9.625   7.879   6.673 -0.6423  0.6186 -0.3171
  320MOL0     C44084   9.693   7.739   6.725  0.1280  0.3698  0.5217
  320MOL0     C44085   9.606   7.627   6.757  0.1684  0.2407  1.3535
  320MOL0     C44086   9.476   7.669   6.811  0.2766 -0.0650 -0.4579
  320MOL0     C44087   9.377   7.726   6.854  0.9793  0.4469  0.4960
  320MOL0     C44088   9.690   7.939   6.248 -0.3383 -0.5464 -0.8200
  320MOL0     C44089   9.677   8.011   6.130 -0.3882  0.8988  0.2627
  320MOL0     C44090   9.799   8.083   6.070  0.5868  0.4796  0.0531
  320MOL0     H44091   9.808   8.187   5.733  0.3303  0.8760  0.1975
  320MOL0     H44092   9.823   8.274   5.532  1.0723  1.6357  0.9383
  320MOL0     H44093   9.751   8.246   5.303 -1.4319 -0.0770 -1.3747
  320MOL0     H44094   9.813   8.409   5.342 -0.5039  0.6202  0.7974
  320MOL0     H44095   9.625   8.350   5.105 -1.4546  0.5454  1.6415
  320MOL0     H44096   9.701   8.505   5.152 -3.1632 -0.7742  1.5497
  320MOL0     H44097   9.929   8.343   5.129 -0.4031 -0.8192 -0.0198
  320MOL0     H44098   9.819   8.243   5.038  0.3806 -0.5148 -3.4936
  320MOL0     H44099   9.764   8.432   4.878 -0.1389 -0.3133  1.7121
  320MOL0     H44100   9.868   8.540   4.972  0.1622  0.4240 -0.1493
  320MOL0     H44101   9.952   8.300   4.824 -0.6256 -0.7067  1.4188
  320MOL0     H44102  10.057   8.391   4.925 -0.3544 -0.1790  0.1674
  320MOL0     H44103   9.901   8.543   4.709 -0.0159  0.2917 -2.8567
  320MOL0     H44104  10.061   8.582   4.766 -0.5237  0.1602  0.0606
  320MOL0     H44105   9.992   8.346   4.594  3.7634 -2.2793  1.1243
  320MOL0     H44106  10.151   8.390   4.650 -0.8654 -0.3768  1.4744
  320MOL0     H44107  10.008   8.559   4.439  0.5514 -3.2727 -3.6077
  320MOL0     H44108  10.139   8.606   4.546 -0.5773  0.3955 -0.2020
  320MOL0     H44109  10.013   8.446   4.241 -1.5159 -2.5575  0.0593
  320MOL0     H44110  10.111   8.259   4.039 -0.7692  0.0520  0.1371
  320MOL0     H44111  10.273   8.214   4.073 -1.9713 -1.7340 -0.1183
  320MOL0     H44112  10.354   8.446   4.003 -2.3958  2.6353  1.8511
  320MOL0     H44113  10.295   8.334   3.877 -2.3265 -1.8634  0.4069
  320MOL0     H44114  10.125   8.564   4.001  1.1772 -1.0219  1.5053
  320MOL0     H44115  10.235   8.587   3.864 -0.5035  1.7539  0.0526
  320MOL0     H44116  10.009   8.374   3.867 -1.9108  0.0752 -0.9912
  320MOL0     H44117   9.992   8.546   3.812 -1.1961  0.2977  2.8161
  320MOL0     H44118  10.129   8.186   3.644  0.0204 -0.8498 -0.8050
  320MOL0     H44119  10.059   7.988   3.597 -0.5272 -1.3324  0.8966
  320MOL0     H44120  10.064   7.996   3.428  1.7920  3.4651 -0.4298
  320MOL0     H44121   9.913   7.934   3.515  2.7266 -1.4260  2.5692
  320MOL0     H44122   9.561   8.340   3.116 -0.1730  0.5100 -2.9767
  320MOL0     H44123   9.404   8.269   2.941 -1.1771  1.3156  0.6603
  320MOL0     H44124   9.084   7.982   2.944 -2.8051  0.9294  3.3518
  320MOL0     H44125   9.138   8.092   3.068 -3.2017 -1.5318  0.3172
  320MOL0     H44126   9.162   8.261   2.878 -1.1336  0.2351 -0.3631
  320MOL0     H44127   9.112   8.134   2.762 -0.7986  1.1801 -0.4030
  320MOL0     H44128   8.889   8.131   2.836  0.8278  2.0549 -2.9576
  320MOL0     H44129   8.936   8.302   2.836 -1.7127 -0.7426  0.4397
  320MOL0     H44130   8.993   8.252   3.091 -0.2806  1.2306 -0.0315
  320MOL0     H44131   8.880   8.120   3.061  0.3125 -0.3171 -0.9100
  320MOL0     H44132   8.815   8.413   3.034  0.4042  0.2965 -0.2628
  320MOL0     H44133   8.699   8.273   3.016  0.5093 -0.9089 -1.4250
  320MOL0     H44134   8.872   8.335   3.259 -0.5441  2.3456 -0.4500
  320MOL0     H44135   8.732   8.219   3.241  0.3130 -1.4796 -2.7588
  320MOL0     H44136   8.606   8.429   3.188  1.0799 -0.8032 -0.0306
  320MOL0     H44137   8.739   8.523   3.233 -0.1532  0.4822  3.0694
  320MOL0     H44138   8.572   8.520   3.407  1.5512  1.0995 -0.7460
  320MOL0     H44139   8.732   8.471   3.472  0.8122  0.9113 -1.7499
  320MOL0     H44140   9.340   7.900   3.152  1.1741 -0.5150 -0.6050
  320MOL0     H44141   9.523   7.965   3.326  1.1321  1.4178  1.1647
  320MOL0     H44142   9.728   8.377   3.436 -0.8785 -2.8643  1.0768
  320MOL0     H44143   9.905   8.523   3.574 -0.3239  0.1322  0.0538
  320MOL0     H44144   9.418   8.392   5.525  1.6539  0.1112 -1.3177
  320MOL0     H44145   9.378   8.263   5.754 -0.5314  2.5711 -0.8522
  320MOL0     H44146   9.341   7.940   6.112 -0.4758 -0.6464  3.5780
  320MOL0     H44147   9.380   7.819   6.311 -0.4766  0.4467 -0.3637
  320MOL0     H44148   9.470   7.942   6.528  0.2061 -0.1885  2.8722
  320MOL0     H44149   9.462   7.775   6.576 -1.9614  0.9285  0.7862
  320MOL0     H44150   9.570   7.914   6.761 -1.7317 -2.7463  0.5079
  320MOL0     H44151   9.711   7.938   6.640  1.5956 -1.5243  1.3235
  320MOL0     H44152   9.757   7.699   6.647 -1.7242  0.2695 -1.0328
  320MOL0     H44153   9.750   7.765   6.814  1.7937  1.0695 -0.7011
  320MOL0     H44154   9.647   7.552   6.826  0.7959 -0.6523  0.0540
  320MOL0     H44155   9.589   7.570   6.665 -5.9335  4.3084 -0.6759
  320MOL0     H44156   9.281   7.761   6.886 -0.2683 -0.1595 -2.2700
  320MOL0     H44157   9.789   7.917   6.287 -0.7116 -0.9521 -0.0729
  320MOL0     H44158   9.895   8.066   6.120  1.5658 -0.0873 -1.9370
  320MOL0     H44159   9.828   8.065   5.966  2.6791 -0.1157  0.6855
  320MOL0     H44160   9.769   8.188   6.078 -0.9415  0.1820 -1.3627
  321MOL0     O44161   1.479   5.150   2.862  0.4069 -0.0951 -0.3988
  321MOL0     C44162   1.484   5.269   2.882 -0.5734 -0.2097  0.2007
  321MOL0     O44163   1.512   5.324   3.004  0.5951  0.3575  0.7568
  321MOL0     C44164   1.534   5.234   3.102 -0.2009 -0.2338  0.3542
  321MOL0     C44165   1.639   5.138   3.089  0.8407  0.4796 -0.1049
  321MOL0     C44166   1.658   5.058   3.198 -0.0063 -0.3926 -0.0148
  321MOL0     C44167   1.566   5.055   3.311 -0.4861 -0.2917  0.3968
  321MOL0     O44168   1.598   4.960   3.406  0.5028 -0.0235 -0.6489
  321MOL0     C44169   1.512   4.941   3.529  0.4193  0.4442  1.3024
  321MOL0     C44170   1.591   5.017   3.635 -0.9646 -0.5427 -0.1601
  321MOL0     C44171   1.546   4.975   3.779  0.2520  0.2716 -0.3041
  321MOL0     C44172   1.604   5.060   3.884  0.1824 -0.6971 -0.8431
  321MOL0     C44173   1.542   5.023   4.020 -0.2342  0.7238 -0.3552
  321MOL0     C44174   1.604   5.092   4.135  0.4289  0.5263 -0.0780
  321MOL0     C44175   1.580   5.238   4.137  0.9270 -0.5840  0.5562
  321MOL0     C44176   1.604   5.293   4.269  0.7839 -0.0918  0.1814
  321MOL0     N44177   1.750   5.334   4.275 -0.3882  0.2010  0.3938
  321MOL0     C44178   1.793   5.455   4.300  0.2960 -1.0246  1.1149
  321MOL0     C44179   1.919   5.443   4.331 -0.6543 -0.5021 -0.4672
  321MOL0     C44180   2.010   5.554   4.360 -0.2413 -0.5641  0.4316
  321MOL0     C44181   2.056   5.549   4.503  0.5356 -0.7115 -0.8235
  321MOL0     C44182   2.101   5.684   4.565 -0.3301 -0.6453  0.2634
  321MOL0     C44183   2.227   5.721   4.496  1.0431  0.3554  0.4739
  321MOL0     O44184   2.318   5.606   4.506  0.8885 -0.2872  0.0420
  321MOL0     C44185   2.445   5.637   4.476  0.0444 -0.1435  0.4378
  321MOL0     C44186   2.540   5.632   4.579 -0.7211  0.7354  1.6438
  321MOL0     C44187   2.673   5.678   4.561 -0.0469 -0.7622  0.0431
  321MOL0     C44188   2.764   5.643   4.669  0.5157 -0.3734 -0.1789
  321MOL0     C44189   2.710   5.747   4.449  0.2355  0.0174  1.8848
  321MOL0     C44190   2.841   5.816   4.425 -0.4137 -0.8606 -0.2486
  321MOL0     O44191   2.929   5.813   4.527  0.5151 -0.1806 -0.5083
  321MOL0     C44192   3.063   5.841   4.509 -0.0522  1.1027 -0.9395
  321MOL0     C44193   3.124   5.831   4.383  0.4345  0.7852  0.6631
  321MOL0     C44194   3.261   5.852   4.367  1.6829  0.7032  0.1821
  321MOL0     C44195   3.328   5.880   4.480 -0.2650  0.1926  0.2577
  321MOL0     O44196   3.466   5.909   4.485  0.8071  0.3491  0.0396
  321MOL0     C44197   3.548   5.864   4.379 -0.0042 -0.2626 -0.6352
  321MOL0     C44198   3.682   5.924   4.391 -0.0251 -1.1588 -0.8304
  321MOL0     C44199   3.771   5.866   4.507 -1.1013  0.7583 -0.1131
  321MOL0     C44200   3.896   5.944   4.551  0.1479 -0.7104 -0.7726
  321MOL0     C44201   3.999   5.851   4.619 -0.4587 -0.0509 -0.0007
  321MOL0     C44202   4.121   5.926   4.664 -0.1073  0.1366 -0.1678
  321MOL0     C44203   4.191   6.020   4.563  0.7629  0.3997  0.8897
  321MOL0     C44204   4.342   6.047   4.604 -0.2473 -0.1294  0.1812
  321MOL0    Cl44205   4.366   6.064   4.779 -0.6257  0.4717 -0.6214
  321MOL0     C44206   3.274   5.876   4.609 -0.1052  0.3356 -0.1779
  321MOL0     C44207   3.141   5.860   4.619 -0.0112 -0.2607  0.0360
  321MOL0     O44208   2.850   5.891   4.328 -0.1792 -0.2089  0.2977
  321MOL0     C44209   2.618   5.748   4.343 -0.0257  0.8120  0.3363
  321MOL0     C44210   2.489   5.697   4.354  1.1469  0.8727 -0.3027
  321MOL0     N44211   1.949   5.307   4.331 -0.3882  0.6657 -0.4383
  321MOL0     N44212   1.848   5.242   4.289  0.9890  0.6326  0.1992
  321MOL0     C44213   1.472   5.163   3.323 -0.1599  0.7830  0.2823
  321MOL0     C44214   1.457   5.254   3.220 -0.0763 -0.2502  0.0480
  321MOL0     C44215   1.461   5.357   2.774 -0.0283 -0.4876  0.5280
  321MOL0     C44216   1.438   5.495   2.806  0.9948 -0.9253  0.0420
  321MOL0     C44217   1.400   5.588   2.708  0.2774  0.3904 -0.4006
  321MOL0     C44218   1.376   5.556   2.573 -0.2736  0.7781 -0.4686
  321MOL0     O44219   1.336   5.650   2.486  0.2427  0.8546  0.0893
  321MOL0     C44220   1.376   5.782   2.516  0.1618  1.2261 -0.4114
  321MOL0     C44221   1.385   5.869   2.394  0.6580 -0.2934 -0.1195
  321MOL0     C44222   1.465   5.828   2.269  0.5418  0.0214  1.2148
  321MOL0     C44223   1.435   5.907   2.139  0.1957  0.0795  0.3332
  321MOL0     C44224   1.478   6.051   2.156  0.6508  0.1026  0.4844
  321MOL0     C44225   1.521   6.157   2.196  0.5483  0.5776 -0.0476
  321MOL0     C44226   1.393   5.422   2.540  0.3199  0.4947  0.2419
  321MOL0     C44227   1.429   5.318   2.631 -0.2969 -0.5899 -0.2077
  321MOL0     C44228   1.432   5.179   2.574  0.5190 -0.4049 -0.0255
  321MOL0     H44229   1.701   5.124   3.001 -0.7916 -0.8272 -1.1109
  321MOL0     H44230   1.748   4.998   3.187 -1.0411 -1.9158 -0.5190
  321MOL0     H44231   1.519   4.836   3.557  2.1957  1.0068  3.2556
  321MOL0     H44232   1.406   4.968   3.523  0.7242  1.7099  1.2405
  321MOL0     H44233   1.697   4.995   3.618 -1.1010 -0.1256 -1.6808
  321MOL0     H44234   1.590   5.123   3.610  0.7653 -0.6779 -1.0030
  321MOL0     H44235   1.438   4.994   3.771  0.1601  0.1357  0.4608
  321MOL0     H44236   1.576   4.871   3.799  0.0184 -0.0020 -1.3581
  321MOL0     H44237   1.712   5.043   3.887  0.1330 -1.1256  2.9525
  321MOL0     H44238   1.593   5.167   3.867 -2.0263 -0.8387 -0.5545
  321MOL0     H44239   1.556   4.914   4.029 -2.0515  0.4528 -0.5195
  321MOL0     H44240   1.436   5.050   4.018  0.3195  3.9561  3.0266
  321MOL0     H44241   1.562   5.052   4.227 -2.8318 -1.2404 -2.1285
  321MOL0     H44242   1.712   5.075   4.142  0.0659 -1.5775  1.4564
  321MOL0     H44243   1.480   5.272   4.108  0.3419 -1.1494  1.8493
  321MOL0     H44244   1.651   5.269   4.060  0.0003 -3.5385 -1.7087
  321MOL0     H44245   1.544   5.384   4.277  1.2505  0.3875 -1.4886
  321MOL0     H44246   1.559   5.227   4.344  2.7190 -2.2798 -0.4735
  321MOL0     H44247   1.734   5.546   4.304 -0.2984 -1.2408 -1.3458
  321MOL0     H44248   1.965   5.640   4.309  0.2701 -2.3375 -3.3875
  321MOL0     H44249   2.105   5.539   4.307  1.3826  0.6504  2.8483
  321MOL0     H44250   1.975   5.507   4.564 -0.1702 -1.6556 -2.3404
  321MOL0     H44251   2.134   5.472   4.514  1.7259  0.8498  3.7660
  321MOL0     H44252   2.025   5.760   4.549 -0.0290 -0.1365  1.1978
  321MOL0     H44253   2.117   5.670   4.673  0.0856  0.7597  0.3956
  321MOL0     H44254   2.218   5.755   4.393  0.7421 -1.3654 -0.0984
  321MOL0     H44255   2.276   5.803   4.548  0.5829  0.4427  0.7751
  321MOL0     H44256   2.511   5.577   4.669 -0.4664 -1.4981  0.4482
  321MOL0     H44257   2.794   5.743   4.702  0.1686  0.4248 -2.1083
  321MOL0     H44258   2.851   5.584   4.639  1.3663  0.2460  1.0137
  321MOL0     H44259   2.712   5.582   4.743 -1.8227 -1.3563 -2.4764
  321MOL0     H44260   3.080   5.820   4.285  1.2165  1.8271  0.1798
  321MOL0     H44261   3.308   5.857   4.269 -1.0542 -0.0962 -1.2841
  321MOL0     H44262   3.563   5.757   4.396 -0.9734  0.1415  3.9438
  321MOL0     H44263   3.514   5.888   4.278 -1.3115 -0.7902 -0.3292
  321MOL0     H44264   3.738   5.926   4.297 -1.8587  0.1820 -1.9494
  321MOL0     H44265   3.649   6.025   4.419  1.8184 -0.1674 -2.0329
  321MOL0     H44266   3.804   5.769   4.469 -0.2783  1.7894 -2.2144
  321MOL0     H44267   3.712   5.850   4.597  0.9540 -1.7293  0.9273
  321MOL0     H44268   3.872   6.028   4.616  2.0821  0.1877 -1.1635
  321MOL0     H44269   3.933   5.985   4.457 -3.4785 -0.4129 -2.2653
  321MOL0     H44270   3.944   5.804   4.702 -0.2317 -0.0973  0.1261
  321MOL0     H44271   4.030   5.775   4.547  2.2709  0.9003  0.0249
  321MOL0     H44272   4.194   5.866   4.718  2.5644  1.6342 -1.8984
  321MOL0     H44273   4.077   6.004   4.726 -0.1182  0.0675 -0.0894
  321MOL0     H44274   4.129   6.109   4.552  1.8373  0.9456 -1.4390
  321MOL0     H44275   4.202   5.964   4.470 -1.6368 -1.5747  1.7035
  321MOL0     H44276   4.377   6.134   4.547  0.9415 -1.4801 -1.2548
  321MOL0     H44277   4.410   5.972   4.562 -0.3039 -0.1124  0.0572
  321MOL0     H44278   3.327   5.885   4.703  0.5310  0.0470 -0.4980
  321MOL0     H44279   3.085   5.866   4.711  0.5040  0.9944  0.2896
  321MOL0     H44280   2.657   5.794   4.253  3.0425  1.9480  2.0945
  321MOL0     H44281   2.416   5.721   4.278  2.1632 -0.6301 -1.8423
  321MOL0     H44282   1.416   5.180   3.414  1.1108 -0.3694  1.3473
  321MOL0     H44283   1.381   5.331   3.222  1.7346  1.7518 -2.0239
  321MOL0     H44284   1.440   5.550   2.899 -1.2743 -1.8704  0.7291
  321MOL0     H44285   1.379   5.686   2.751  3.2135  1.7341 -1.7548
  321MOL0     H44286   1.294   5.820   2.578  2.1693  2.6506  1.4989
  321MOL0     H44287   1.467   5.790   2.575 -2.0263  1.5504  3.2470
  321MOL0     H44288   1.425   5.967   2.421  2.7490 -1.7878  2.8679
  321MOL0     H44289   1.279   5.875   2.370 -0.1598  1.3734  3.1930
  321MOL0     H44290   1.573   5.831   2.287  0.9365 -3.5180  0.2224
  321MOL0     H44291   1.455   5.722   2.242  2.3072 -0.0181  0.5991
  321MOL0     H44292   1.327   5.909   2.120  0.2898 -1.2102 -0.4391
  321MOL0     H44293   1.480   5.863   2.050 -2.0398 -1.1267 -0.2705
  321MOL0     H44294   1.562   6.251   2.227  1.0402 -0.4155  2.5181
  321MOL0     H44295   1.383   5.396   2.435 -3.2805  2.7065 -0.1225
  321MOL0     H44296   1.508   5.117   2.623  1.6820 -0.3882 -1.7042
  321MOL0     H44297   1.329   5.144   2.568  0.4243 -0.0935 -5.7804
  321MOL0     H44298   1.461   5.171   2.469  0.4788  0.7981 -0.1457
  322MOL0     O44299   4.254   1.354   1.557  0.0421  0.3552  0.0546
  322MOL0     C44300   4.165   1.358   1.632  0.0363 -0.4275  0.0266
  322MOL0     O44301   4.109   1.246   1.695 -0.4100  1.0003 -0.0341
  322MOL0     C44302   4.095   1.128   1.617 -0.4934  0.5252 -0.3819
  322MOL0     C44303   4.072   1.013   1.693 -0.2248 -0.3487  0.1308
  322MOL0     C44304   4.055   0.892   1.623 -0.0305  0.2036 -0.4273
  322MOL0     C44305   4.058   0.885   1.484  0.5159  0.4293  0.0045
  322MOL0     O44306   4.036   0.764   1.418 -0.1862 -0.5107  0.7817
  322MOL0     C44307   4.079   0.758   1.283 -0.5435  0.4591  1.4446
  322MOL0     C44308   4.035   0.619   1.240  0.0712 -0.2489 -0.4275
  322MOL0     C44309   3.892   0.601   1.262  0.2400  0.4109 -0.1651
  322MOL0     C44310   3.838   0.470   1.210 -0.0035 -0.1203 -1.1516
  322MOL0     C44311   3.697   0.447   1.261  0.5976  0.1374 -1.3841
  322MOL0     C44312   3.635   0.321   1.205 -0.4864  0.4396 -0.2949
  322MOL0     C44313   3.489   0.331   1.244 -0.1895  1.2669 -0.5408
  322MOL0     C44314   3.421   0.207   1.196  0.9211 -0.0238  0.4623
  322MOL0     N44315   3.275   0.214   1.227  0.7294  0.1596  0.7916
  322MOL0     C44316   3.208   0.275   1.331 -0.3779 -0.4378 -0.4246
  322MOL0     C44317   3.077   0.254   1.311  0.4727 -0.2773  0.4731
  322MOL0     C44318   2.974   0.317   1.406 -0.0383 -0.6337  0.5899
  322MOL0     C44319   2.932   0.210   1.501 -0.3206  0.8979  0.5371
  322MOL0     C44320   2.810   0.228   1.589 -0.3558  0.1535  0.4528
  322MOL0     C44321   2.679   0.191   1.522  0.1692 -1.0156 -0.7296
  322MOL0     O44322   2.690   0.063   1.464 -1.1701 -0.5698 -0.4093
  322MOL0     C44323   2.589   0.011   1.387  0.7287  0.9022  0.0095
  322MOL0     C44324   2.454   0.017   1.428 -0.0706 -0.1076 -0.2131
  322MOL0     C44325   2.359  -0.054   1.347  0.1219 -0.4388  0.0879
  322MOL0     C44326   2.216  -0.050   1.405  0.0704  0.3465 -0.1525
  322MOL0     C44327   2.393  -0.115   1.227 -0.8294  1.2376  0.7501
  322MOL0     C44328   2.302  -0.181   1.129  0.1378 -0.0686 -0.7251
  322MOL0     O44329   2.354  -0.275   1.042 -0.5165 -0.6647 -0.2166
  322MOL0     C44330   2.264  -0.356   0.971  0.1393  0.2097 -0.1665
  322MOL0     C44331   2.179  -0.446   1.036  0.6900  0.3714  0.4958
  322MOL0     C44332   2.087  -0.521   0.960 -0.6871 -0.1825 -0.1555
  322MOL0     C44333   2.087  -0.513   0.821 -0.0580 -0.3834 -0.5409
  322MOL0     O44334   1.995  -0.568   0.740  0.4377 -0.7690  0.5645
  322MOL0     C44335   1.946  -0.697   0.766 -0.2558 -0.2301  0.6102
  322MOL0     C44336   1.818  -0.724   0.680  0.2755 -0.3374 -0.4413
  322MOL0     C44337   1.872  -0.782   0.555 -0.0694  0.6018  0.3303
  322MOL0     C44338   1.763  -0.832   0.444  0.9519 -0.3493 -0.6491
  322MOL0     C44339   1.816  -0.884   0.319  0.0673  0.2993 -1.3454
  322MOL0     C44340   1.853  -0.788   0.204 -0.6370  0.7017  0.4012
  322MOL0     C44341   1.878  -0.869   0.073  0.2549 -0.0783  1.0887
  322MOL0     C44342   1.922  -0.774  -0.048  0.2464 -0.2492 -0.8513
  322MOL0    Cl44343   1.807  -0.642  -0.077  0.0906  0.0842  0.2008
  322MOL0     C44344   2.188  -0.435   0.759  0.4658  0.3757 -0.5038
  322MOL0     C44345   2.275  -0.360   0.834  0.0275  1.2524  0.2568
  322MOL0     O44346   2.180  -0.175   1.154 -0.0360 -0.2831  0.8688
  322MOL0     C44347   2.531  -0.125   1.198 -1.2899  0.1867 -0.4174
  322MOL0     C44348   2.626  -0.067   1.278  0.5191  0.4886 -1.0893
  322MOL0     N44349   3.057   0.187   1.199 -0.0880  0.7764 -0.3952
  322MOL0     N44350   3.173   0.167   1.140  0.4669 -0.0809  0.0874
  322MOL0     C44351   4.085   0.999   1.413 -0.8688 -0.2203  1.2922
  322MOL0     C44352   4.104   1.118   1.482  0.4143 -0.0100  1.1068
  322MOL0     C44353   4.152   1.495   1.687 -0.2271 -0.4467 -0.6331
  322MOL0     C44354   4.167   1.514   1.824 -0.3393  0.0959 -0.4839
  322MOL0     C44355   4.143   1.640   1.887  0.1742 -0.6128 -0.2685
  322MOL0     C44356   4.111   1.752   1.807 -0.7306  1.2505  0.2476
  322MOL0     O44357   4.095   1.880   1.853 -0.3171 -0.0863 -0.1353
  322MOL0     C44358   4.083   1.892   1.998 -0.0941  0.4088  0.1690
  322MOL0     C44359   4.016   2.040   2.020  0.2571 -0.8082 -0.0114
  322MOL0     C44360   3.870   2.037   2.068 -0.9858  1.6002 -0.1481
  322MOL0     C44361   3.822   2.174   2.121  0.5948 -0.4498 -0.2991
  322MOL0     C44362   3.907   2.229   2.232 -0.5823 -0.0794  0.9706
  322MOL0     C44363   3.984   2.277   2.311 -0.3038 -0.6503  0.2033
  322MOL0     C44364   4.102   1.731   1.663 -0.0781  0.5355 -0.3504
  322MOL0     C44365   4.115   1.605   1.608 -0.5218 -0.3249 -0.1300
  322MOL0     C44366   4.106   1.589   1.458  0.1677  0.5252 -0.5271
  322MOL0     H44367   4.053   1.046   1.795  2.0606 -1.5936  1.0268
  322MOL0     H44368   4.026   0.800   1.671  0.5220 -1.0593 -2.4279
  322MOL0     H44369   4.187   0.751   1.271 -0.2155  2.4694  2.6077
  322MOL0     H44370   4.035   0.836   1.220  1.6018  0.6810  0.1243
  322MOL0     H44371   4.049   0.638   1.133  0.5720  2.4322  0.0377
  322MOL0     H44372   4.100   0.539   1.277  0.4738  1.1633  2.1320
  322MOL0     H44373   3.871   0.604   1.370  1.4652  1.0373  0.0682
  322MOL0     H44374   3.829   0.671   1.206  1.1042 -0.9339 -3.0304
  322MOL0     H44375   3.818   0.473   1.103  0.9182 -1.9399 -1.4130
  322MOL0     H44376   3.898   0.383   1.238 -2.0092 -1.5447 -1.0705
  322MOL0     H44377   3.638   0.533   1.229 -0.3845 -0.7876 -2.1072
  322MOL0     H44378   3.702   0.455   1.370 -0.4518 -1.0451 -1.2325
  322MOL0     H44379   3.656   0.334   1.099  0.9559  3.6362  0.2545
  322MOL0     H44380   3.684   0.236   1.253  1.2733 -0.7472 -3.8427
  322MOL0     H44381   3.441   0.414   1.191 -1.1116  1.1131  0.0347
  322MOL0     H44382   3.485   0.347   1.352  1.1942 -0.2571 -0.2389
  322MOL0     H44383   3.442   0.204   1.089 -1.4608 -0.0011 -0.0517
  322MOL0     H44384   3.459   0.111   1.233  2.0990  0.4888  0.6338
  322MOL0     H44385   3.246   0.328   1.418  1.3432  1.9514 -2.4815
  322MOL0     H44386   2.893   0.358   1.346  0.2059 -3.4441 -1.9135
  322MOL0     H44387   3.013   0.405   1.458  0.8173 -0.4748 -0.2887
  322MOL0     H44388   2.914   0.119   1.442  2.9807 -0.1738  0.9807
  322MOL0     H44389   3.013   0.181   1.568 -0.7048  1.2631  1.1601
  322MOL0     H44390   2.814   0.153   1.669 -1.1899  0.3912  0.7264
  322MOL0     H44391   2.810   0.327   1.636 -0.5517 -0.7099  2.3751
  322MOL0     H44392   2.599   0.189   1.597  0.1187 -0.8935 -0.7781
  322MOL0     H44393   2.657   0.270   1.448  1.1995  0.6277  0.6459
  322MOL0     H44394   2.429   0.077   1.515  1.4054  3.3603 -1.9563
  322MOL0     H44395   2.209   0.012   1.495  1.8038  0.5613 -0.1408
  322MOL0     H44396   2.182  -0.149   1.436 -1.6231  1.0850  0.4605
  322MOL0     H44397   2.150  -0.011   1.327  0.2563  2.5911  0.7221
  322MOL0     H44398   2.196  -0.446   1.143 -2.1666  0.6990  1.0430
  322MOL0     H44399   2.018  -0.575   1.023 -1.3275  0.7797 -0.0119
  322MOL0     H44400   2.022  -0.774   0.753 -1.1228 -0.9378 -0.4359
  322MOL0     H44401   1.911  -0.720   0.867  0.2539 -1.9520  0.4173
  322MOL0     H44402   1.746  -0.786   0.734  0.2497 -0.3534 -0.4940
  322MOL0     H44403   1.760  -0.632   0.671 -0.7904 -0.8364  0.9125
  322MOL0     H44404   1.941  -0.862   0.584  0.8857  1.1032 -0.4786
  322MOL0     H44405   1.927  -0.702   0.505 -2.9654  0.6757 -3.1863
  322MOL0     H44406   1.705  -0.740   0.431  0.6368 -0.2861  0.9313
  322MOL0     H44407   1.701  -0.911   0.487  1.3773 -0.8909 -1.0186
  322MOL0     H44408   1.904  -0.947   0.334 -1.7505 -2.0394  0.2387
  322MOL0     H44409   1.742  -0.959   0.289 -1.5715  1.1916  0.2331
  322MOL0     H44410   1.945  -0.733   0.224  0.4761 -0.8240 -0.2786
  322MOL0     H44411   1.777  -0.712   0.185 -1.0091 -0.2676 -2.4719
  322MOL0     H44412   1.789  -0.925   0.042  1.3347 -1.0686 -0.3959
  322MOL0     H44413   1.953  -0.946   0.094 -2.3725 -2.1395  3.7193
  322MOL0     H44414   1.928  -0.841  -0.135  2.5966  1.2359 -1.9324
  322MOL0     H44415   2.023  -0.733  -0.037  1.8758 -3.3603 -2.5774
  322MOL0     H44416   2.194  -0.431   0.651 -2.4828  1.8990 -0.7315
  322MOL0     H44417   2.346  -0.302   0.776  1.9899 -0.6923  0.5650
  322MOL0     H44418   2.573  -0.169   1.109  3.1298  1.7173  0.6386
  322MOL0     H44419   2.730  -0.070   1.246  1.8703  0.7623  2.7886
  322MOL0     H44420   4.112   1.002   1.308  1.1938 -1.7485  1.7243
  322MOL0     H44421   4.131   1.204   1.422 -2.0686 -0.7949 -1.3385
  322MOL0     H44422   4.198   1.434   1.890  0.8463 -1.8181 -3.1480
  322MOL0     H44423   4.160   1.654   1.993 -1.0364 -0.9544 -0.0194
  322MOL0     H44424   4.015   1.814   2.033 -2.0008  1.9635  0.1120
  322MOL0     H44425   4.183   1.873   2.037  0.8450 -0.5436 -2.4661
  322MOL0     H44426   4.025   2.090   1.923  0.0962  1.8587  1.2534
  322MOL0     H44427   4.071   2.097   2.094 -3.5142  1.3898  1.3747
  322MOL0     H44428   3.811   2.000   1.983 -0.4271  0.4877 -0.0707
  322MOL0     H44429   3.857   1.963   2.148 -0.5299  1.6436 -0.0340
  322MOL0     H44430   3.718   2.172   2.156 -0.1281  1.0358 -2.1586
  322MOL0     H44431   3.821   2.240   2.034 -1.7750 -1.1399 -0.8825
  322MOL0     H44432   4.056   2.326   2.373  0.5518  1.1229 -2.0282
  322MOL0     H44433   4.073   1.810   1.594 -0.5111  2.4116  1.8564
  322MOL0     H44434   4.039   1.509   1.426 -2.9897  1.8718  2.1710
  322MOL0     H44435   4.063   1.676   1.408  2.4222  1.9553 -0.1574
  322MOL0     H44436   4.211   1.579   1.426  0.7527 -1.7724  1.7776
  323MOL0     O44437   4.878   9.765   4.098 -0.2465  0.0338 -0.1394
  323MOL0     C44438   4.972   9.792   4.019  0.3441  0.0017  0.1382
  323MOL0     O44439   5.101   9.797   4.063  0.2556  0.1171  0.4682
  323MOL0     C44440   5.132   9.873   4.173 -0.0791  0.4743  0.2271
  323MOL0     C44441   5.054   9.984   4.215 -0.2266  0.3845 -0.1931
  323MOL0     C44442   5.091  10.055   4.326 -0.1764 -0.6548  0.0463
  323MOL0     C44443   5.205  10.015   4.401 -0.5182 -0.7880  0.2869
  323MOL0     O44444   5.219  10.099   4.512 -0.4861  0.3860  1.1493
  323MOL0     C44445   5.312  10.089   4.614  0.1879  0.4809 -0.2562
  323MOL0     C44446   5.269  10.005   4.732  0.0372  0.1850 -0.9437
  323MOL0     C44447   5.343  10.036   4.860  0.3325  0.9821 -0.0878
  323MOL0     C44448   5.266   9.987   4.986 -0.1936 -0.6415 -0.2125
  323MOL0     C44449   5.350  10.012   5.121 -0.8965  0.2863  0.0474
  323MOL0     C44450   5.267   9.926   5.228  0.3568  0.0809 -0.0174
  323MOL0     C44451   5.294   9.969   5.374  0.3650  0.6332  0.3174
  323MOL0     C44452   5.191  10.085   5.398 -0.4238  0.2999 -0.2226
  323MOL0     N44453   5.051  10.060   5.447  0.2092 -0.1766  0.0215
  323MOL0     C44454   5.011  10.031   5.580 -0.3519  0.4380 -0.5261
  323MOL0     C44455   4.878  10.032   5.566 -0.4732 -1.4146 -0.2850
  323MOL0     C44456   4.798  10.005   5.685 -0.2016 -0.0975  0.5575
  323MOL0     C44457   4.795   9.853   5.713 -0.1905 -0.2099 -0.4566
  323MOL0     C44458   4.709   9.770   5.616 -0.8519 -0.6405  0.1601
  323MOL0     C44459   4.684   9.624   5.659 -0.8193 -0.8991 -0.9398
  323MOL0     O44460   4.616   9.562   5.547 -0.2885 -0.3713 -0.3590
  323MOL0     C44461   4.485   9.592   5.531 -0.2031 -0.0493  0.3718
  323MOL0     C44462   4.395   9.619   5.632 -0.0738  0.0997 -0.0651
  323MOL0     C44463   4.262   9.660   5.613 -0.0357  0.0133 -1.0174
  323MOL0     C44464   4.177   9.661   5.737  0.2048 -0.2512 -0.3384
  323MOL0     C44465   4.213   9.684   5.480 -0.5691 -0.6349  0.3257
  323MOL0     C44466   4.075   9.724   5.450 -0.3201 -0.8749 -0.1830
  323MOL0     O44467   4.026   9.702   5.327 -0.6347 -0.1307 -0.6790
  323MOL0     C44468   3.888   9.682   5.304 -0.3425 -0.2890  0.1230
  323MOL0     C44469   3.798   9.645   5.402 -0.2231  0.3759  0.6073
  323MOL0     C44470   3.667   9.627   5.374 -0.2522 -0.1037  0.1209
  323MOL0     C44471   3.616   9.628   5.242  0.6663  0.2177 -0.5251
  323MOL0     O44472   3.481   9.598   5.229  0.2440 -0.1164 -0.0364
  323MOL0     C44473   3.413   9.601   5.103 -0.2664 -0.2073  0.7520
  323MOL0     C44474   3.260   9.619   5.118 -0.0857  1.0968 -0.4740
  323MOL0     C44475   3.201   9.639   4.972  0.6785 -0.0522  0.3094
  323MOL0     C44476   3.047   9.609   4.993  0.6310  0.3994  0.5341
  323MOL0     C44477   2.966   9.657   4.866 -0.4129  0.7987 -0.5889
  323MOL0     C44478   2.991   9.581   4.729  0.3790 -0.0553 -1.1900
  323MOL0     C44479   2.900   9.643   4.618 -0.5689  0.0253  0.4741
  323MOL0     C44480   2.959   9.623   4.478  0.8495 -0.6426  0.2123
  323MOL0    Cl44481   3.096   9.725   4.459  0.1106 -0.0348 -0.0954
  323MOL0     C44482   3.710   9.652   5.145 -0.7628 -0.7881  0.1279
  323MOL0     C44483   3.842   9.690   5.178  0.8871 -0.5066  0.5637
  323MOL0     O44484   4.027   9.796   5.535  0.1290 -0.8123 -0.6461
  323MOL0     C44485   4.303   9.660   5.375 -0.4581 -0.1148 -0.4200
  323MOL0     C44486   4.434   9.618   5.404  0.0139 -0.1858  0.7533
  323MOL0     N44487   4.839  10.048   5.433 -0.0766  1.6762 -0.2092
  323MOL0     N44488   4.943  10.077   5.363  0.3941  0.3502 -0.5178
  323MOL0     C44489   5.280   9.898   4.366  0.5407 -0.1324  0.3728
  323MOL0     C44490   5.246   9.832   4.247 -1.0927  0.4824 -0.6602
  323MOL0     C44491   4.953   9.803   3.875 -0.6832  0.0666  0.3332
  323MOL0     C44492   4.823   9.812   3.832  0.8247  0.3599  0.2240
  323MOL0     C44493   4.787   9.820   3.691  0.4606 -0.2583  0.9589
  323MOL0     C44494   4.883   9.792   3.591  0.4410  0.6458 -0.2800
  323MOL0     O44495   4.838   9.801   3.457 -0.1656 -0.4082 -0.4421
  323MOL0     C44496   4.943   9.775   3.355  1.3163  0.5751 -0.4937
  323MOL0     C44497   4.880   9.811   3.219  0.5056  0.1960  0.9617
  323MOL0     C44498   4.879   9.968   3.188  0.4553 -0.1248  0.2830
  323MOL0     C44499   4.784  10.017   3.078  0.1805 -0.2728  0.4343
  323MOL0     C44500   4.649   9.995   3.086  0.5837  0.8161  0.3426
  323MOL0     C44501   4.534   9.971   3.086 -1.0813  0.2747  0.6138
  323MOL0     C44502   5.009   9.760   3.640 -0.6525 -0.9425  0.6567
  323MOL0     C44503   5.044   9.780   3.771 -1.0875 -0.6198  0.2059
  323MOL0     C44504   5.191   9.780   3.796  0.0712  0.0990  0.6372
  323MOL0     H44505   4.970  10.020   4.157 -0.5332 -0.1849 -0.1158
  323MOL0     H44506   5.029  10.139   4.356 -0.5910  0.6084 -3.8716
  323MOL0     H44507   5.302  10.188   4.661  2.5843  0.6581 -0.0008
  323MOL0     H44508   5.416  10.071   4.585  1.1979 -0.5915  3.5000
  323MOL0     H44509   5.164  10.026   4.753  0.6440  0.0472  3.2231
  323MOL0     H44510   5.268   9.899   4.706 -1.6168 -0.0379 -0.1026
  323MOL0     H44511   5.445   9.996   4.853  0.3959  1.4436 -2.5097
  323MOL0     H44512   5.354  10.144   4.865  1.6423  0.9427 -1.3756
  323MOL0     H44513   5.166  10.031   4.985  0.9761  2.4076  1.2859
  323MOL0     H44514   5.257   9.879   4.970 -1.6428 -0.2036 -2.8539
  323MOL0     H44515   5.356  10.118   5.144 -0.0448  0.1486  0.4930
  323MOL0     H44516   5.453   9.976   5.113  0.8240  4.4685  1.1008
  323MOL0     H44517   5.161   9.924   5.202 -0.4178  0.6328  2.7981
  323MOL0     H44518   5.317   9.829   5.220  0.0908  0.0390 -1.5052
  323MOL0     H44519   5.397  10.004   5.381  1.5598 -2.2024 -1.3525
  323MOL0     H44520   5.286   9.875   5.429 -1.8462 -0.2378 -1.3251
  323MOL0     H44521   5.229  10.142   5.483 -1.3368 -0.0211  0.4187
  323MOL0     H44522   5.191  10.146   5.308 -3.9237 -1.1870 -1.4043
  323MOL0     H44523   5.063  10.020   5.675  0.1868  3.4827 -0.3896
  323MOL0     H44524   4.695  10.040   5.674 -0.4269 -0.3752  1.6191
  323MOL0     H44525   4.820  10.053   5.782 -2.2842 -1.2401  1.6588
  323MOL0     H44526   4.893   9.804   5.715 -0.6333 -1.1114  0.8602
  323MOL0     H44527   4.749   9.834   5.810 -1.1194 -1.1385 -1.0515
  323MOL0     H44528   4.620   9.832   5.607 -1.0749 -1.1603 -1.4625
  323MOL0     H44529   4.766   9.769   5.522  2.9764  1.3701  2.2133
  323MOL0     H44530   4.784   9.582   5.670  0.6151  1.9305 -2.1754
  323MOL0     H44531   4.627   9.612   5.751  0.3413  1.8989  0.2474
  323MOL0     H44532   4.424   9.584   5.730 -0.4616 -0.9992 -0.3272
  323MOL0     H44533   4.230   9.604   5.815  1.7626 -0.6912 -1.6471
  323MOL0     H44534   4.087   9.603   5.716 -0.5945  1.3365 -1.4273
  323MOL0     H44535   4.158   9.763   5.771 -1.5513 -0.8092  0.4472
  323MOL0     H44536   3.824   9.644   5.508 -0.2222  2.0955  0.6558
  323MOL0     H44537   3.593   9.611   5.452 -0.8624  2.3881  0.1376
  323MOL0     H44538   3.459   9.669   5.030  1.6251 -0.3184  1.7646
  323MOL0     H44539   3.423   9.496   5.075 -1.7835  0.1075 -1.1563
  323MOL0     H44540   3.226   9.529   5.170  0.8420  1.8652  1.5967
  323MOL0     H44541   3.231   9.703   5.182 -0.7972 -2.4033  4.3780
  323MOL0     H44542   3.244   9.558   4.913  0.8087  0.3180 -0.1053
  323MOL0     H44543   3.230   9.730   4.919 -0.5887  0.7206  0.8848
  323MOL0     H44544   3.002   9.677   5.066 -3.3116  1.0562 -2.1948
  323MOL0     H44545   3.043   9.503   5.020  3.4816 -0.0009 -0.2866
  323MOL0     H44546   2.857   9.657   4.876 -0.5171 -1.5522 -1.1429
  323MOL0     H44547   3.001   9.760   4.854  2.3378 -0.0955 -0.9009
  323MOL0     H44548   2.968   9.476   4.746 -0.0642  0.3379  0.8985
  323MOL0     H44549   3.096   9.589   4.700  1.1580 -0.9146  1.2024
  323MOL0     H44550   2.885   9.751   4.633 -1.5014  0.4689 -2.8593
  323MOL0     H44551   2.800   9.601   4.629 -1.7275  2.0443 -1.4532
  323MOL0     H44552   2.872   9.640   4.414 -0.9131 -0.4681  2.4919
  323MOL0     H44553   2.991   9.519   4.463  2.1971 -0.5965  2.3516
  323MOL0     H44554   3.686   9.652   5.039 -0.2088  0.7798 -0.0271
  323MOL0     H44555   3.912   9.713   5.097  1.4524  0.7654  1.3801
  323MOL0     H44556   4.279   9.685   5.273 -3.7318  0.4177  0.3640
  323MOL0     H44557   4.497   9.607   5.317 -2.0824 -0.9467 -0.7462
  323MOL0     H44558   5.365   9.874   4.429 -0.2397 -2.1263  0.7140
  323MOL0     H44559   5.311   9.751   4.215 -0.4919  0.4980  0.4667
  323MOL0     H44560   4.740   9.835   3.898 -0.3511  3.8732 -2.1825
  323MOL0     H44561   4.688   9.850   3.658  1.1642  3.1297  1.5208
  323MOL0     H44562   5.029   9.841   3.374  1.8389  1.0111 -3.7606
  323MOL0     H44563   4.975   9.671   3.350  1.7089  0.6527  0.2350
  323MOL0     H44564   4.782   9.762   3.211 -0.4217  2.0715  0.0674
  323MOL0     H44565   4.937   9.761   3.140 -0.9019  2.7436 -1.8895
  323MOL0     H44566   4.850  10.022   3.279 -2.0330 -0.6709 -0.1045
  323MOL0     H44567   4.984   9.993   3.168 -0.1552  0.8090 -2.1595
  323MOL0     H44568   4.818   9.992   2.977  0.1861  0.7798  0.1641
  323MOL0     H44569   4.797  10.125   3.069  0.7283 -0.3814 -0.1025
  323MOL0     H44570   4.427   9.967   3.086 -1.0556 -1.0791  1.7529
  323MOL0     H44571   5.091   9.742   3.572 -1.5177 -0.2250 -0.6291
  323MOL0     H44572   5.235   9.878   3.813  3.1992 -0.5832 -2.3598
  323MOL0     H44573   5.215   9.720   3.884 -3.0645 -0.0203  1.5396
  323MOL0     H44574   5.249   9.740   3.712 -1.8217  0.5054 -0.9409
  324MOL0     O44575   2.742   2.001  11.524 -0.3691  0.3977 -0.2993
  324MOL0     C44576   2.815   2.070  11.592  0.2065  0.5586  0.0535
  324MOL0     O44577   2.951   2.042  11.616  0.5574 -0.1606  1.0744
  324MOL0     C44578   3.003   1.935  11.555  0.1277 -1.0913 -0.0334
  324MOL0     C44579   3.049   1.954  11.423 -0.6140  0.2908  1.2215
  324MOL0     C44580   3.109   1.845  11.362 -0.7897 -0.7452 -0.5541
  324MOL0     C44581   3.127   1.725  11.425 -0.8589 -0.1864  1.0054
  324MOL0     O44582   3.177   1.631  11.337  0.0147  0.7221  0.4699
  324MOL0     C44583   3.254   1.523  11.385  0.4387  0.5324  0.4059
  324MOL0     C44584   3.359   1.473  11.284 -0.9462  1.0076  0.9995
  324MOL0     C44585   3.481   1.564  11.273  0.2631 -0.1361  0.7447
  324MOL0     C44586   3.594   1.519  11.183  1.0961 -0.0999  0.7521
  324MOL0     C44587   3.609   1.602  11.062 -0.9137  0.3168  0.1949
  324MOL0     C44588   3.710   1.543  10.964  0.6155 -0.0043  0.0753
  324MOL0     C44589   3.706   1.628  10.832  0.7387 -0.4565 -0.0861
  324MOL0     C44590   3.844   1.624  10.753  0.2058 -0.0414 -0.0827
  324MOL0     N44591   3.969   1.633  10.829 -0.4119 -0.8766 -0.9456
  324MOL0     C44592   4.060   1.533  10.850  0.4113 -0.4850 -0.6018
  324MOL0     C44593   4.178   1.602  10.885  0.4614  0.2490  0.6404
  324MOL0     C44594   4.323   1.548  10.900  0.7187  0.2563  0.2111
  324MOL0     C44595   4.431   1.657  10.900  0.1162 -0.4040 -0.5525
  324MOL0     C44596   4.570   1.602  10.904  1.5372  1.0620  0.0601
  324MOL0     C44597   4.622   1.570  10.757 -0.3230  0.3572  0.6676
  324MOL0     O44598   4.740   1.491  10.758  0.3091 -0.4185  0.4223
  324MOL0     C44599   4.741   1.355  10.785 -0.0552  0.1242 -0.3447
  324MOL0     C44600   4.627   1.279  10.808  0.1808  0.7675 -0.0386
  324MOL0     C44601   4.631   1.145  10.846 -0.3210 -0.2170 -1.3720
  324MOL0     C44602   4.492   1.082  10.883  0.0341  0.4214 -0.4187
  324MOL0     C44603   4.759   1.079  10.860 -0.9984  0.8376  0.5619
  324MOL0     C44604   4.769   0.934  10.879  0.1890 -1.0687  0.1673
  324MOL0     O44605   4.889   0.881  10.897 -0.0290 -0.1050 -0.7954
  324MOL0     C44606   4.907   0.749  10.935 -0.7695 -0.0401  0.0068
  324MOL0     C44607   4.991   0.715  11.038 -1.3310  0.1001 -0.1762
  324MOL0     C44608   5.004   0.584  11.079  1.6043 -0.2071 -0.1116
  324MOL0     C44609   4.932   0.491  11.021 -0.2989 -1.0162  0.9275
  324MOL0     O44610   4.969   0.366  11.051 -0.3589  0.2044 -0.0847
  324MOL0     C44611   4.887   0.247  11.015  0.3947  0.2245 -0.4101
  324MOL0     C44612   4.923   0.137  11.119 -0.6520 -0.1643  1.0266
  324MOL0     C44613   4.865   0.173  11.257 -0.1837 -0.0013  0.3868
  324MOL0     C44614   4.924   0.071  11.362  0.2491  0.2552  0.0193
  324MOL0     C44615   4.905   0.109  11.509  0.2394 -0.6616 -0.0785
  324MOL0     C44616   4.761   0.166  11.546 -0.4920  0.8096 -0.2921
  324MOL0     C44617   4.721   0.160  11.699  0.5423  0.6340 -0.5434
  324MOL0     C44618   4.833   0.208  11.793  0.0481  0.2474 -0.6402
  324MOL0    Cl44619   4.872   0.380  11.773  0.2261  0.1539 -0.2832
  324MOL0     C44620   4.835   0.524  10.920  0.4913  0.2929 -1.7052
  324MOL0     C44621   4.832   0.651  10.870 -0.3320 -1.0024 -0.1161
  324MOL0     O44622   4.665   0.867  10.867 -0.2761  0.1165  0.2149
  324MOL0     C44623   4.884   1.154  10.848  0.6195 -0.6865  0.6245
  324MOL0     C44624   4.866   1.288  10.805  0.1828 -0.0997 -0.3276
  324MOL0     N44625   4.141   1.732  10.899  0.6303 -0.5093  0.0431
  324MOL0     N44626   4.015   1.751  10.880 -0.0378  0.0105  0.3536
  324MOL0     C44627   3.093   1.701  11.553 -1.1175  1.0510 -0.0756
  324MOL0     C44628   3.029   1.809  11.618 -0.0414  0.2148  0.7623
  324MOL0     C44629   2.757   2.192  11.656  0.3286 -0.4540  0.9033
  324MOL0     C44630   2.655   2.177  11.748  0.5660 -0.2830 -0.3977
  324MOL0     C44631   2.603   2.288  11.815  0.4292  0.5239  0.4524
  324MOL0     C44632   2.664   2.412  11.801  0.5345 -0.3583 -0.1087
  324MOL0     O44633   2.608   2.513  11.889 -0.7361 -0.2559 -0.0848
  324MOL0     C44634   2.608   2.645  11.834 -0.2847 -0.9850 -0.2356
  324MOL0     C44635   2.526   2.737  11.926 -0.8673 -0.9248 -0.0259
  324MOL0     C44636   2.377   2.693  11.925  0.2834  0.3843 -0.3061
  324MOL0     C44637   2.294   2.728  11.802  0.0168  0.3557 -0.2015
  324MOL0     C44638   2.261   2.609  11.726 -0.4207 -0.6042 -0.8094
  324MOL0     C44639   2.220   2.508  11.673  0.8892 -0.4996 -0.4024
  324MOL0     C44640   2.762   2.430  11.703 -0.7616  0.7116 -0.1816
  324MOL0     C44641   2.811   2.312  11.626 -1.3244 -0.2213 -0.0534
  324MOL0     C44642   2.932   2.333  11.531  0.1007  0.3240 -0.3345
  324MOL0     H44643   3.061   2.046  11.366  0.9486 -0.4050  0.3519
  324MOL0     H44644   3.136   1.854  11.257  1.9997  1.0862  0.2264
  324MOL0     H44645   3.197   1.433  11.406  1.9166 -0.7796 -0.8584
  324MOL0     H44646   3.311   1.541  11.476 -0.4909 -0.1941  1.1495
  324MOL0     H44647   3.382   1.371  11.316 -2.4431  0.1633 -0.4280
  324MOL0     H44648   3.308   1.464  11.188  0.4412 -2.2817  0.4313
  324MOL0     H44649   3.445   1.662  11.239 -1.0095 -1.6832 -2.7311
  324MOL0     H44650   3.513   1.585  11.376 -1.2251  0.2216  1.1550
  324MOL0     H44651   3.686   1.544  11.237  1.1364  1.5440 -0.0195
  324MOL0     H44652   3.571   1.414  11.162 -2.4271  0.9295 -1.4435
  324MOL0     H44653   3.626   1.709  11.079 -1.0222  0.3061  0.3770
  324MOL0     H44654   3.513   1.591  11.010 -0.0868  1.6735 -1.7666
  324MOL0     H44655   3.811   1.543  11.005  0.0261  2.4009  1.6783
  324MOL0     H44656   3.666   1.443  10.950 -0.6222  0.3356  1.3480
  324MOL0     H44657   3.683   1.729  10.867 -1.6619 -1.5065  1.6488
  324MOL0     H44658   3.624   1.599  10.765  0.8725 -1.9117  0.3289
  324MOL0     H44659   3.849   1.529  10.699  2.4001  0.4224 -0.8114
  324MOL0     H44660   3.843   1.707  10.683 -1.0720 -2.2447 -2.8589
  324MOL0     H44661   4.042   1.427  10.839  4.7466 -1.2361 -2.5329
  324MOL0     H44662   4.341   1.487  10.811  0.5891 -0.5084  0.7004
  324MOL0     H44663   4.323   1.482  10.987 -1.9586  0.3359  0.3691
  324MOL0     H44664   4.411   1.732  10.823 -3.2608  0.4257  0.9295
  324MOL0     H44665   4.425   1.710  10.996 -0.8131 -2.5416  0.6454
  324MOL0     H44666   4.642   1.669  10.951  1.8029  1.0328 -0.2969
  324MOL0     H44667   4.555   1.510  10.961 -3.4715  0.1040 -2.2131
  324MOL0     H44668   4.546   1.509  10.708  0.2799  0.9380 -1.0742
  324MOL0     H44669   4.651   1.657  10.698  3.4662 -1.7156 -0.8713
  324MOL0     H44670   4.526   1.315  10.790  0.9028  2.2267 -1.4952
  324MOL0     H44671   4.463   1.016  10.801 -2.1225 -3.4755  3.0777
  324MOL0     H44672   4.409   1.153  10.889 -1.4836 -1.3579  2.8625
  324MOL0     H44673   4.498   1.021  10.974 -0.9427 -1.0700 -1.2989
  324MOL0     H44674   5.054   0.789  11.085 -2.4364 -0.5692  2.5465
  324MOL0     H44675   5.084   0.555  11.146  2.0826 -0.2773 -0.7027
  324MOL0     H44676   4.779   0.263  11.016  0.5066  1.5976 -2.9191
  324MOL0     H44677   4.913   0.201  10.920 -0.5074  0.1949 -0.6512
  324MOL0     H44678   4.896   0.032  11.104  4.6719 -1.3515 -3.7798
  324MOL0     H44679   5.033   0.138  11.119 -0.5095 -2.3120 -1.9520
  324MOL0     H44680   4.756   0.174  11.264 -0.1850 -2.1135  1.5618
  324MOL0     H44681   4.913   0.267  11.285  2.7687 -0.4712 -2.4825
  324MOL0     H44682   5.031   0.059  11.341  0.2665  0.2250  0.1280
  324MOL0     H44683   4.887  -0.031  11.350  1.0657  0.0690 -1.0969
  324MOL0     H44684   4.927   0.020  11.569  2.6907  0.0097  0.1530
  324MOL0     H44685   4.984   0.184  11.525 -1.0078  0.4229  1.2756
  324MOL0     H44686   4.685   0.113  11.488 -1.2882  1.0118  0.5608
  324MOL0     H44687   4.764   0.272  11.521 -1.4338  0.7497 -0.6814
  324MOL0     H44688   4.700   0.058  11.731  1.2444 -0.3840 -3.1372
  324MOL0     H44689   4.631   0.220  11.715 -1.3882 -1.8416 -1.5876
  324MOL0     H44690   4.920   0.143  11.784 -1.8822 -2.3750 -1.6775
  324MOL0     H44691   4.790   0.192  11.892  3.0435 -0.8449  0.6019
  324MOL0     H44692   4.785   0.442  10.869  0.1542 -1.9879  1.9185
  324MOL0     H44693   4.766   0.671  10.786 -1.5345 -0.7783  0.8576
  324MOL0     H44694   4.981   1.106  10.854  1.2699  0.1761 -2.0227
  324MOL0     H44695   4.955   1.349  10.794 -1.0907  2.7937  3.1656
  324MOL0     H44696   3.116   1.607  11.601  0.2532  1.6533  0.5275
  324MOL0     H44697   2.983   1.793  11.715 -2.2153  3.3016  0.4005
  324MOL0     H44698   2.612   2.082  11.778 -1.2057  0.3958 -0.6466
  324MOL0     H44699   2.511   2.274  11.872 -0.4034 -3.1284 -1.4226
  324MOL0     H44700   2.710   2.684  11.833 -1.1589  1.5347  1.1541
  324MOL0     H44701   2.570   2.640  11.731 -0.2956 -1.7728 -0.1998
  324MOL0     H44702   2.536   2.841  11.891  1.8754 -0.4006  1.9696
  324MOL0     H44703   2.563   2.734  12.029 -1.3441 -0.2538  0.1723
  324MOL0     H44704   2.383   2.586  11.947 -1.2869  0.7421  2.2276
  324MOL0     H44705   2.321   2.737  12.008 -2.3040  1.9260 -2.6953
  324MOL0     H44706   2.354   2.802  11.747  0.9845 -0.0897  0.2371
  324MOL0     H44707   2.200   2.781  11.820 -0.5778 -0.2370 -1.4153
  324MOL0     H44708   2.193   2.415  11.627  1.6380 -0.4209 -1.0053
  324MOL0     H44709   2.807   2.527  11.684  0.1721  0.1786 -0.7766
  324MOL0     H44710   2.915   2.437  11.503 -0.6866 -0.2121 -1.9120
  324MOL0     H44711   3.030   2.332  11.580  0.0363  0.4786 -0.2024
  324MOL0     H44712   2.927   2.271  11.442 -0.7175  0.2472 -0.2461
  325MOL0     O44713   9.940   8.823  10.802 -0.4115 -0.2750 -1.3958
  325MOL0     C44714   9.881   8.719  10.767 -0.2073 -1.6550 -0.2963
  325MOL0     O44715   9.943   8.592  10.761  0.4708 -0.2821 -0.0401
  325MOL0     C44716  10.074   8.568  10.761 -0.6997  0.4291 -0.7199
  325MOL0     C44717  10.178   8.651  10.702  0.3046 -0.7746 -0.4250
  325MOL0     C44718  10.310   8.604  10.698  0.0162  0.0611  0.9385
  325MOL0     C44719  10.341   8.469  10.735  0.2674  0.9274  0.7168
  325MOL0     O44720  10.442   8.395  10.675  0.1217  0.2986  0.2827
  325MOL0     C44721  10.576   8.467  10.672 -1.0036 -0.0923  0.3971
  325MOL0     C44722  10.692   8.368  10.646  0.5436 -0.1632 -1.1176
  325MOL0     C44723  10.706   8.254  10.747 -0.2823 -0.5138 -0.9041
  325MOL0     C44724  10.743   8.307  10.893 -0.4756  0.4428  0.3745
  325MOL0     C44725  10.723   8.194  10.999  0.7403 -1.0017  0.0338
  325MOL0     C44726  10.865   8.177  11.052 -0.3295  0.2524 -0.2171
  325MOL0     C44727  10.866   8.062  11.162 -0.2653 -0.0278 -0.8721
  325MOL0     C44728  10.869   7.924  11.103  0.0770  0.9516  0.0461
  325MOL0     N44729  10.873   7.831  11.216  0.6410  0.9446 -0.3573
  325MOL0     C44730  10.985   7.799  11.282  0.7870  0.2635  0.6657
  325MOL0     C44731  10.945   7.698  11.363  0.4458 -0.0605  0.2102
  325MOL0     C44732  11.038   7.632  11.462 -1.4652  0.6207  0.1039
  325MOL0     C44733  10.980   7.628  11.596  0.8849 -0.4732 -0.4515
  325MOL0     C44734  10.974   7.774  11.661 -0.1717 -0.8484  0.0067
  325MOL0     C44735  10.922   7.759  11.803 -0.6547 -0.6768  0.6274
  325MOL0     O44736  11.001   7.665  11.861 -0.2317 -0.0434 -0.1100
  325MOL0     C44737  10.973   7.621  11.993  0.0171 -0.2971 -0.6700
  325MOL0     C44738  11.073   7.648  12.086  0.4893  0.8178 -0.3434
  325MOL0     C44739  11.050   7.607  12.219  0.5853  0.4645 -0.9001
  325MOL0     C44740  11.161   7.616  12.315  0.6639  0.2622  0.1630
  325MOL0     C44741  10.927   7.541  12.260  0.0043 -0.6265 -0.8678
  325MOL0     C44742  10.907   7.490  12.396 -0.4450 -0.4211  0.2805
  325MOL0     O44743  11.007   7.402  12.441 -0.1243  0.1913 -0.2265
  325MOL0     C44744  11.002   7.338  12.561 -0.2215 -0.9282 -0.4931
  325MOL0     C44745  11.122   7.291  12.611  0.2811 -0.3247  0.3878
  325MOL0     C44746  11.131   7.206  12.721  0.2437 -0.1873 -1.0770
  325MOL0     C44747  11.015   7.178  12.802 -0.0897  0.1429 -0.6392
  325MOL0     O44748  11.023   7.105  12.922 -0.8331  0.9267  0.6300
  325MOL0     C44749  11.147   7.050  12.973  0.1895 -0.0640 -0.2583
  325MOL0     C44750  11.121   6.931  13.055 -0.3475 -0.4554  0.4217
  325MOL0     C44751  11.056   6.813  12.981  0.5567 -0.8174 -1.6265
  325MOL0     C44752  11.077   6.693  13.078 -0.4807 -0.6503 -0.7801
  325MOL0     C44753  11.047   6.549  13.024 -0.8260  0.2634 -0.4434
  325MOL0     C44754  11.065   6.446  13.138  0.1067 -0.2774 -0.7086
  325MOL0     C44755  11.024   6.307  13.088  1.2967  0.1833 -0.0556
  325MOL0     C44756  11.112   6.241  12.988 -0.2044 -0.0690 -0.4165
  325MOL0    Cl44757  11.253   6.176  13.054  0.0439 -0.0656  0.0490
  325MOL0     C44758  10.893   7.221  12.759  0.6047  0.0451 -0.3374
  325MOL0     C44759  10.880   7.301  12.640 -0.3584 -0.3062 -0.2188
  325MOL0     O44760  10.806   7.531  12.459 -0.6117  0.1858 -0.0432
  325MOL0     C44761  10.828   7.533  12.162  0.1426 -0.7071 -0.7367
  325MOL0     C44762  10.854   7.557  12.027  0.5129 -0.1806  0.4019
  325MOL0     N44763  10.806   7.675  11.347 -1.0007  0.2616 -0.6574
  325MOL0     N44764  10.764   7.753  11.256 -0.3481  0.5637 -0.0446
  325MOL0     C44765  10.244   8.393  10.790  0.1151 -0.1095  0.2593
  325MOL0     C44766  10.113   8.439  10.796 -0.0174  0.4745 -0.3190
  325MOL0     C44767   9.742   8.739  10.726  0.2843  0.6502 -0.1152
  325MOL0     C44768   9.700   8.835  10.639  0.1293 -0.0416 -0.1397
  325MOL0     C44769   9.566   8.850  10.594 -0.1344  0.3012  0.3763
  325MOL0     C44770   9.463   8.762  10.634  1.2608 -1.0954 -0.0279
  325MOL0     O44771   9.337   8.784  10.582  0.3972 -0.2253 -0.2512
  325MOL0     C44772   9.243   8.677  10.595  0.5171  0.5403  0.4068
  325MOL0     C44773   9.098   8.711  10.582 -0.7644 -0.0292 -0.6406
  325MOL0     C44774   9.065   8.783  10.447 -0.1580 -0.7428 -0.5567
  325MOL0     C44775   8.910   8.806  10.420  0.4697  0.9818 -0.1102
  325MOL0     C44776   8.899   8.871  10.288 -0.8145 -0.9875  0.3763
  325MOL0     C44777   8.907   8.938  10.184 -0.0187 -0.2926 -0.3364
  325MOL0     C44778   9.502   8.657  10.716 -0.1314 -0.1344 -0.2529
  325MOL0     C44779   9.638   8.640  10.762  0.5873 -0.5212 -0.0967
  325MOL0     C44780   9.674   8.528  10.861  0.3211  0.4588  0.1552
  325MOL0     H44781  10.155   8.753  10.674  0.6635  0.4637  3.1871
  325MOL0     H44782  10.390   8.661  10.652  2.1928 -4.3738 -1.3453
  325MOL0     H44783  10.598   8.507  10.771  0.1569 -4.1692  2.0070
  325MOL0     H44784  10.564   8.534  10.586 -1.5137 -0.5863  0.0750
  325MOL0     H44785  10.678   8.328  10.545  0.9920 -1.3147 -0.7507
  325MOL0     H44786  10.786   8.424  10.653  0.2046  0.4076 -1.1208
  325MOL0     H44787  10.613   8.198  10.758  0.4995 -1.6847  0.0739
  325MOL0     H44788  10.794   8.194  10.721  2.3544  1.9442  1.6069
  325MOL0     H44789  10.840   8.356  10.883 -0.0179 -0.4479  0.2877
  325MOL0     H44790  10.676   8.385  10.930 -2.2906 -2.1342  3.0510
  325MOL0     H44791  10.689   8.104  10.947  0.1716  0.0177 -1.4164
  325MOL0     H44792  10.648   8.225  11.073 -2.5140 -2.2873 -2.4547
  325MOL0     H44793  10.938   8.147  10.976 -0.0477  0.0967  0.1087
  325MOL0     H44794  10.915   8.268  11.087 -1.1525  0.2981  0.8996
  325MOL0     H44795  10.780   8.082  11.226 -0.1114  3.0965 -1.4540
  325MOL0     H44796  10.955   8.078  11.224  1.6495  5.4944 -4.2407
  325MOL0     H44797  10.767   7.916  11.065 -0.0571  0.9471  0.4050
  325MOL0     H44798  10.934   7.893  11.021 -0.2841 -4.1330  1.3291
  325MOL0     H44799  11.078   7.854  11.278 -0.5302  2.7321  1.6969
  325MOL0     H44800  11.138   7.676  11.469  0.0282 -1.6974 -3.7039
  325MOL0     H44801  11.063   7.532  11.424  1.5203  3.1746 -5.9084
  325MOL0     H44802  10.878   7.587  11.594  1.8004 -2.9265 -0.6419
  325MOL0     H44803  11.045   7.563  11.656 -0.0763  0.9549  2.3195
  325MOL0     H44804  11.074   7.816  11.670  1.0124 -2.3910 -3.9103
  325MOL0     H44805  10.920   7.841  11.593  1.7137 -0.1683 -0.8901
  325MOL0     H44806  10.927   7.846  11.869 -1.6661 -0.9418  1.0746
  325MOL0     H44807  10.816   7.733  11.813 -1.0126  0.5425  0.1965
  325MOL0     H44808  11.170   7.688  12.059  0.9883 -0.6262 -0.8301
  325MOL0     H44809  11.230   7.532  12.300  2.3475  1.4382  0.9334
  325MOL0     H44810  11.123   7.616  12.418  2.8816  3.1607  1.1142
  325MOL0     H44811  11.223   7.705  12.304  0.1671  0.3116 -3.5616
  325MOL0     H44812  11.214   7.312  12.558  0.4957 -0.4042  0.7218
  325MOL0     H44813  11.237   7.190  12.738 -0.0253 -1.5213 -0.4969
  325MOL0     H44814  11.219   7.011  12.900  1.1967 -0.6533  1.0236
  325MOL0     H44815  11.194   7.138  13.018  2.3049  0.7192 -3.6363
  325MOL0     H44816  11.219   6.898  13.090 -0.8937 -2.9180 -0.1606
  325MOL0     H44817  11.060   6.956  13.143 -1.9174 -2.5129 -0.0093
  325MOL0     H44818  11.102   6.793  12.884  1.0441  1.6259 -1.9788
  325MOL0     H44819  10.950   6.838  12.968 -0.4473 -3.0710  1.0858
  325MOL0     H44820  11.029   6.709  13.175 -1.1035 -3.3765 -0.5573
  325MOL0     H44821  11.183   6.692  13.104 -0.7740 -0.1668  0.4903
  325MOL0     H44822  10.946   6.533  12.984 -1.2585  2.0009 -0.0880
  325MOL0     H44823  11.123   6.528  12.948  3.6915  0.1530  3.6017
  325MOL0     H44824  11.019   6.478  13.232  1.7087  0.8389 -0.2606
  325MOL0     H44825  11.171   6.443  13.166 -0.0739 -2.3901 -0.0920
  325MOL0     H44826  10.924   6.317  13.045 -0.5534 -3.7603  2.7179
  325MOL0     H44827  11.011   6.241  13.174  3.2166 -1.9135 -1.2758
  325MOL0     H44828  11.143   6.314  12.914  2.3526 -1.1501 -0.5270
  325MOL0     H44829  11.054   6.167  12.933 -0.7914 -1.1470  1.5253
  325MOL0     H44830  10.804   7.201  12.819  2.2203  0.6482  2.4616
  325MOL0     H44831  10.784   7.325  12.597 -0.6410  3.4841  2.1264
  325MOL0     H44832  10.729   7.489  12.174 -0.5150  0.9287  0.2736
  325MOL0     H44833  10.784   7.536  11.946 -0.4054  3.3421  0.0889
  325MOL0     H44834  10.259   8.286  10.796 -1.1548 -0.2707  0.9022
  325MOL0     H44835  10.025   8.380  10.822 -0.7032  0.8843 -1.6352
  325MOL0     H44836   9.776   8.907  10.612  0.8933 -1.2275 -1.2655
  325MOL0     H44837   9.539   8.933  10.530 -1.2704  1.0542  1.7840
  325MOL0     H44838   9.260   8.607  10.513 -1.9434 -1.4746  1.4818
  325MOL0     H44839   9.248   8.620  10.689 -1.5150 -1.1341 -0.4083
  325MOL0     H44840   9.065   8.779  10.661  0.1842 -0.5580  0.2314
  325MOL0     H44841   9.037   8.620  10.589 -1.0006  0.1380 -0.5438
  325MOL0     H44842   9.120   8.878  10.456 -3.1785  1.1006 -0.0707
  325MOL0     H44843   9.109   8.723  10.368 -0.7486 -1.3310 -0.4449
  325MOL0     H44844   8.855   8.861  10.497  1.7888  2.4059 -0.1234
  325MOL0     H44845   8.876   8.702  10.412  3.9572 -0.8113  3.9355
  325MOL0     H44846   8.907   8.997  10.094 -1.2358 -2.6314 -1.9740
  325MOL0     H44847   9.428   8.584  10.748 -1.1305  0.1282 -1.8389
  325MOL0     H44848   9.729   8.451  10.805 -2.6735 -2.1695  0.5269
  325MOL0     H44849   9.742   8.547  10.945 -0.4469 -0.9595  1.1413
  325MOL0     H44850   9.586   8.482  10.906  0.8754  2.6506  3.8438
  326MOL0     O44851   3.356   4.440   6.658  0.2709 -0.5253  0.8245
  326MOL0     C44852   3.284   4.377   6.587 -0.1071 -0.5077  0.4624
  326MOL0     O44853   3.162   4.325   6.625  1.0906  0.1821  0.0780
  326MOL0     C44854   3.110   4.359   6.746  0.1068 -0.7021  0.2113
  326MOL0     C44855   3.003   4.453   6.753  0.9065  0.9805 -0.6618
  326MOL0     C44856   2.945   4.474   6.882  0.5984 -0.2831  0.6098
  326MOL0     C44857   2.989   4.422   7.005  0.6216  0.8311  0.3446
  326MOL0     O44858   2.924   4.470   7.120  0.1528  0.4710 -0.1343
  326MOL0     C44859   2.982   4.415   7.240  0.0813 -1.3303 -0.1519
  326MOL0     C44860   2.905   4.498   7.354 -0.6199  0.0297  0.1844
  326MOL0     C44861   2.930   4.445   7.499 -0.8646 -0.0729  0.6867
  326MOL0     C44862   3.077   4.455   7.544  0.1472  0.2913  0.5013
  326MOL0     C44863   3.088   4.425   7.689 -0.0982  0.4717 -0.0025
  326MOL0     C44864   3.054   4.276   7.721 -0.7691 -0.3576  0.0986
  326MOL0     C44865   3.091   4.243   7.864  0.0973 -1.0798 -0.1421
  326MOL0     C44866   3.238   4.232   7.899 -0.2829 -0.2066 -0.5343
  326MOL0     N44867   3.269   4.181   8.028 -0.2902 -1.1508 -0.7425
  326MOL0     C44868   3.294   4.056   8.060 -1.8868  0.7095  0.3506
  326MOL0     C44869   3.327   4.059   8.183 -0.4095 -0.9777 -1.0619
  326MOL0     C44870   3.348   3.930   8.275  0.3184  0.5114 -0.3732
  326MOL0     C44871   3.419   3.813   8.207  0.6357 -0.0483  0.1988
  326MOL0     C44872   3.569   3.854   8.206  0.2892  0.0744  0.3800
  326MOL0     C44873   3.664   3.760   8.127  1.3339  0.0485  0.1094
  326MOL0     O44874   3.792   3.790   8.179  0.5774 -0.6141  0.3724
  326MOL0     C44875   3.856   3.676   8.215 -0.0517 -0.5184 -0.3940
  326MOL0     C44876   3.944   3.614   8.127 -0.1538 -0.0837 -0.1422
  326MOL0     C44877   4.040   3.516   8.184 -0.2573  0.5496  0.1458
  326MOL0     C44878   4.142   3.455   8.092 -0.0190 -0.3194 -0.5408
  326MOL0     C44879   4.031   3.482   8.318  0.0521 -0.3648 -0.2033
  326MOL0     C44880   4.127   3.389   8.375  1.0847 -0.9996  0.4004
  326MOL0     O44881   4.092   3.260   8.351  0.4243 -0.0965  0.1091
  326MOL0     C44882   4.161   3.167   8.428  0.6962 -0.5287 -0.3105
  326MOL0     C44883   4.099   3.120   8.542 -0.3432 -0.1276  0.4118
  326MOL0     C44884   4.166   3.052   8.643 -1.8948  0.9877  1.5794
  326MOL0     C44885   4.303   3.040   8.638 -0.6266 -0.6929  0.3512
  326MOL0     O44886   4.361   3.009   8.764  1.0801 -0.2058  0.6519
  326MOL0     C44887   4.495   3.057   8.785  0.3727 -0.7866  1.0135
  326MOL0     C44888   4.543   3.034   8.925 -0.0416  0.8930 -0.0343
  326MOL0     C44889   4.489   2.901   8.988 -0.3243 -0.0541  0.2628
  326MOL0     C44890   4.551   2.857   9.120  0.0194 -0.4453 -0.1143
  326MOL0     C44891   4.513   2.956   9.236 -0.0697  0.2471  0.0447
  326MOL0     C44892   4.571   2.913   9.371  1.2119 -0.7798 -0.1298
  326MOL0     C44893   4.489   2.806   9.440  0.2055 -0.0972  0.1357
  326MOL0     C44894   4.569   2.715   9.536 -0.2612  0.1225 -0.1291
  326MOL0    Cl44895   4.653   2.593   9.422  0.8799 -0.4328 -0.0499
  326MOL0     C44896   4.372   3.084   8.519 -0.2621  0.4640 -0.2811
  326MOL0     C44897   4.298   3.135   8.412  0.5054  0.8185  0.7815
  326MOL0     O44898   4.212   3.430   8.455 -1.9280 -0.8247  0.0546
  326MOL0     C44899   3.936   3.539   8.399  0.0489  0.1716  0.2843
  326MOL0     C44900   3.846   3.633   8.350 -0.2495  0.4092 -0.0151
  326MOL0     N44901   3.324   4.192   8.234  0.1907 -0.0196 -1.4623
  326MOL0     N44902   3.279   4.269   8.139  0.2112  0.3584 -0.1956
  326MOL0     C44903   3.100   4.336   6.998 -0.1266  0.8500  0.3681
  326MOL0     C44904   3.153   4.311   6.868 -0.5985  0.1045  0.7399
  326MOL0     C44905   3.324   4.334   6.445  0.5459  0.4725  0.5425
  326MOL0     C44906   3.225   4.332   6.346 -0.2068 -0.7116  0.1300
  326MOL0     C44907   3.238   4.310   6.209 -0.1521 -0.7086  0.0563
  326MOL0     C44908   3.373   4.297   6.165 -0.4565  0.9900 -0.7125
  326MOL0     O44909   3.412   4.277   6.040 -0.3157 -0.2683  0.5692
  326MOL0     C44910   3.327   4.268   5.930  0.1422 -0.9264 -0.1654
  326MOL0     C44911   3.256   4.144   5.923 -0.4224  1.1198  0.5702
  326MOL0     C44912   3.358   4.033   5.914 -0.4684 -0.5463  0.2146
  326MOL0     C44913   3.296   3.902   5.868  0.2088 -0.5634 -0.0912
  326MOL0     C44914   3.403   3.801   5.852  0.0711  0.0465  0.1980
  326MOL0     C44915   3.475   3.698   5.857  0.2246 -1.2843  0.2520
  326MOL0     C44916   3.472   4.292   6.259  0.2869  0.0621 -1.2692
  326MOL0     C44917   3.453   4.312   6.395 -0.0310 -0.3306 -0.2036
  326MOL0     C44918   3.582   4.313   6.489 -0.2851 -0.3762  0.6382
  326MOL0     H44919   2.970   4.508   6.666 -1.3983 -1.5088 -1.4982
  326MOL0     H44920   2.862   4.541   6.902  0.8147  0.0735  0.3117
  326MOL0     H44921   3.089   4.428   7.255 -0.4086  0.4210  2.3186
  326MOL0     H44922   2.972   4.306   7.252  3.5922 -1.6270  0.9827
  326MOL0     H44923   2.930   4.604   7.346 -2.8077  0.6509  0.9094
  326MOL0     H44924   2.797   4.490   7.336 -0.2446 -0.8059 -1.9108
  326MOL0     H44925   2.860   4.495   7.567 -0.8544  0.0301  0.6214
  326MOL0     H44926   2.916   4.336   7.506  0.2341 -0.2346  0.6112
  326MOL0     H44927   3.146   4.398   7.482 -0.0317  1.1964 -0.5472
  326MOL0     H44928   3.106   4.560   7.544  6.4342 -1.0416 -0.7040
  326MOL0     H44929   3.021   4.489   7.747  0.2256  2.3898 -1.6155
  326MOL0     H44930   3.187   4.459   7.717  0.5430 -0.5875 -0.8785
  326MOL0     H44931   2.946   4.270   7.712 -0.5958 -0.1618 -3.2542
  326MOL0     H44932   3.110   4.204   7.660  2.5327  1.3827  0.8017
  326MOL0     H44933   3.038   4.149   7.884  0.0420 -1.0435 -0.1166
  326MOL0     H44934   3.054   4.314   7.938  4.0024  0.9313  0.1708
  326MOL0     H44935   3.281   4.167   7.823  1.8941 -0.4663  0.8531
  326MOL0     H44936   3.283   4.331   7.891 -3.0980  1.0841 -2.3424
  326MOL0     H44937   3.296   3.964   8.002  0.9917  0.0691  1.2717
  326MOL0     H44938   3.254   3.888   8.312  1.3174 -4.2833 -2.5967
  326MOL0     H44939   3.401   3.946   8.370 -0.5602  0.9280  0.0558
  326MOL0     H44940   3.386   3.721   8.256 -1.9213  1.4063  1.3983
  326MOL0     H44941   3.391   3.803   8.102  0.9841 -0.3690  0.1330
  326MOL0     H44942   3.573   3.951   8.156 -4.5268 -0.4546 -1.6137
  326MOL0     H44943   3.604   3.855   8.310  1.9744  1.4603 -0.1612
  326MOL0     H44944   3.634   3.657   8.149  0.2253 -0.1442 -2.0456
  326MOL0     H44945   3.660   3.780   8.020  1.1340  1.7917  0.4059
  326MOL0     H44946   3.953   3.649   8.024 -3.4490 -0.1689 -0.5855
  326MOL0     H44947   4.180   3.529   8.021  0.1674 -0.7316 -0.8782
  326MOL0     H44948   4.109   3.370   8.033 -0.6315 -0.4271 -0.0497
  326MOL0     H44949   4.232   3.418   8.144 -0.9694 -1.6530  0.2178
  326MOL0     H44950   3.995   3.141   8.565  0.1555  0.6309  2.0910
  326MOL0     H44951   4.122   3.032   8.740 -1.9937  1.9257  1.7434
  326MOL0     H44952   4.571   3.017   8.717  1.1671  1.4420  0.4772
  326MOL0     H44953   4.502   3.166   8.777 -0.9465 -0.4953  3.2197
  326MOL0     H44954   4.652   3.035   8.925  0.0979 -2.2518 -0.5077
  326MOL0     H44955   4.511   3.112   8.994  0.1414 -0.9094  2.2254
  326MOL0     H44956   4.521   2.824   8.918  0.4565  1.4326 -1.0800
  326MOL0     H44957   4.380   2.905   9.003 -0.8109 -1.0654 -2.4505
  326MOL0     H44958   4.660   2.846   9.112 -0.2007 -3.8497  0.2844
  326MOL0     H44959   4.511   2.761   9.153  0.9140 -0.8843 -0.2786
  326MOL0     H44960   4.553   3.053   9.204  2.4535 -1.5777 -2.8901
  326MOL0     H44961   4.404   2.961   9.238 -0.1220 -0.6404 -0.0872
  326MOL0     H44962   4.570   2.997   9.441  1.5942  0.0182 -1.0566
  326MOL0     H44963   4.674   2.875   9.369  1.6170  0.1784  0.9898
  326MOL0     H44964   4.456   2.740   9.359  2.1444  0.8538 -1.5348
  326MOL0     H44965   4.400   2.851   9.484 -2.5690 -1.7271 -3.3527
  326MOL0     H44966   4.506   2.674   9.616  0.6511  3.7675  2.7679
  326MOL0     H44967   4.636   2.782   9.591  0.0298  1.8531 -2.4231
  326MOL0     H44968   4.479   3.082   8.500 -0.6306  1.7331 -2.8381
  326MOL0     H44969   4.349   3.158   8.319 -1.6188  0.2208 -0.6007
  326MOL0     H44970   3.925   3.514   8.504 -0.6046 -2.2951 -0.2892
  326MOL0     H44971   3.768   3.684   8.406 -1.4981  3.3180 -3.9468
  326MOL0     H44972   3.142   4.286   7.085 -0.1558 -0.1469 -0.1740
  326MOL0     H44973   3.242   4.250   6.861  0.5185  1.8352 -1.9624
  326MOL0     H44974   3.128   4.359   6.388  0.1976 -0.8548  1.1928
  326MOL0     H44975   3.155   4.297   6.141  1.5538  0.8432 -2.5106
  326MOL0     H44976   3.240   4.333   5.941 -0.7044 -2.1434  0.6498
  326MOL0     H44977   3.378   4.293   5.837 -0.1496  2.4884  0.4711
  326MOL0     H44978   3.190   4.151   5.835 -1.1232  1.6983  1.1210
  326MOL0     H44979   3.182   4.127   6.002 -1.5367 -1.1233 -0.8457
  326MOL0     H44980   3.437   4.061   5.843 -0.4277 -1.6859 -0.2020
  326MOL0     H44981   3.415   4.023   6.007  3.4552 -1.0653 -2.0184
  326MOL0     H44982   3.245   3.921   5.774 -1.2524  0.4809  0.8755
  326MOL0     H44983   3.219   3.857   5.931  1.5860 -1.5016  0.9953
  326MOL0     H44984   3.531   3.608   5.875  0.9391 -0.7713  0.6421
  326MOL0     H44985   3.571   4.280   6.216  0.1791 -0.2063 -1.4469
  326MOL0     H44986   3.600   4.419   6.509 -2.0503  0.1694 -0.4034
  326MOL0     H44987   3.553   4.268   6.585  1.5018  1.3645  2.0660
  326MOL0     H44988   3.660   4.259   6.435 -1.3727 -3.0992  1.6007
  327MOL0     O44989   4.336   9.131   4.504  0.6889  0.0295 -0.5148
  327MOL0     C44990   4.243   9.054   4.505 -0.1106 -1.0460  0.0323
  327MOL0     O44991   4.204   8.983   4.613  0.3255 -0.0363 -0.0632
  327MOL0     C44992   4.292   8.949   4.706 -0.6189  0.2224 -0.4516
  327MOL0     C44993   4.367   8.837   4.695 -1.1241  0.0017 -0.4706
  327MOL0     C44994   4.480   8.815   4.777  0.3943 -0.0700  0.1553
  327MOL0     C44995   4.510   8.891   4.884  0.0164 -0.5916 -0.3024
  327MOL0     O44996   4.619   8.853   4.955 -0.4102  0.0276  0.2187
  327MOL0     C44997   4.684   8.924   5.059  0.6748  0.8679  0.0773
  327MOL0     C44998   4.831   8.919   5.031 -0.0477 -1.0202  0.2202
  327MOL0     C44999   4.910   8.996   5.135  0.4509  0.8106  0.1322
  327MOL0     C45000   5.055   8.942   5.145  0.6682 -0.4023  0.7395
  327MOL0     C45001   5.143   9.037   5.212 -0.3263  0.1876 -0.0283
  327MOL0     C45002   5.290   8.986   5.243 -0.4045  0.3646 -0.0784
  327MOL0     C45003   5.363   8.909   5.129 -0.0993 -0.2472  0.7746
  327MOL0     C45004   5.483   8.836   5.175  0.5812 -0.0135 -0.4315
  327MOL0     N45005   5.593   8.931   5.211  0.0722  0.0509 -0.1172
  327MOL0     C45006   5.616   8.977   5.344  0.7004 -0.6835 -0.3120
  327MOL0     C45007   5.754   8.980   5.357 -0.2567 -0.1611  0.1691
  327MOL0     C45008   5.833   8.975   5.490  0.1406 -0.4948  0.5581
  327MOL0     C45009   5.856   8.831   5.536 -0.7267  0.3396 -0.5726
  327MOL0     C45010   5.791   8.805   5.677  0.9295  0.9882 -0.0983
  327MOL0     C45011   5.642   8.813   5.675 -0.5507  0.2410  0.1633
  327MOL0     O45012   5.595   8.735   5.569 -0.6921 -0.1931  0.1155
  327MOL0     C45013   5.460   8.714   5.572 -0.4389 -0.6915  0.3322
  327MOL0     C45014   5.359   8.805   5.620 -1.5771 -0.3618  1.0849
  327MOL0     C45015   5.228   8.804   5.574  0.4967  0.2150  1.1325
  327MOL0     C45016   5.154   8.923   5.599  0.4560  0.1378 -0.1527
  327MOL0     C45017   5.188   8.684   5.498 -0.3707 -0.5558  0.1870
  327MOL0     C45018   5.055   8.659   5.454  0.5273 -0.0221 -0.0940
  327MOL0     O45019   4.954   8.726   5.520  0.7823 -0.0853 -0.4962
  327MOL0     C45020   4.823   8.729   5.478  0.5948 -0.4251  1.8228
  327MOL0     C45021   4.760   8.856   5.487 -0.7364 -0.0231 -0.2227
  327MOL0     C45022   4.630   8.878   5.441  0.8602 -0.5842 -0.0972
  327MOL0     C45023   4.561   8.773   5.389 -0.3534  0.2924 -0.3600
  327MOL0     O45024   4.427   8.788   5.365  0.3854  0.3644 -0.0161
  327MOL0     C45025   4.381   8.744   5.229 -0.2250 -0.1024 -0.5336
  327MOL0     C45026   4.236   8.796   5.230 -0.6163 -0.0067  0.9055
  327MOL0     C45027   4.175   8.769   5.091  0.3951  0.5290 -0.0859
  327MOL0     C45028   4.042   8.848   5.078 -0.5368  0.8014  0.7567
  327MOL0     C45029   3.973   8.817   4.939 -1.2970  0.7780 -0.2339
  327MOL0     C45030   3.895   8.932   4.875 -0.1374 -0.0799 -0.7262
  327MOL0     C45031   3.828   8.888   4.745 -0.4223  0.3578 -0.6043
  327MOL0     C45032   3.767   9.012   4.666 -0.7760  0.2862 -1.1462
  327MOL0    Cl45033   3.845   9.039   4.517  0.6390 -0.0406  0.4477
  327MOL0     C45034   4.623   8.648   5.384  0.4145 -0.6377 -0.0733
  327MOL0     C45035   4.751   8.625   5.427 -0.1799 -0.0712  0.1184
  327MOL0     O45036   5.027   8.576   5.372 -0.9247 -0.0121  0.6402
  327MOL0     C45037   5.289   8.582   5.474  0.3111 -0.1445 -0.3867
  327MOL0     C45038   5.423   8.600   5.501  0.2357  0.2226  0.4161
  327MOL0     N45039   5.812   8.950   5.229  0.3668  0.2811 -0.6218
  327MOL0     N45040   5.717   8.931   5.147 -0.3777 -0.2551 -0.3201
  327MOL0     C45041   4.412   8.985   4.912  0.0607 -0.1771  0.5875
  327MOL0     C45042   4.306   9.022   4.817 -0.0611  0.5448 -1.2020
  327MOL0     C45043   4.179   9.021   4.376  0.2995 -0.6986 -0.6679
  327MOL0     C45044   4.123   8.889   4.360 -1.0850 -0.1607 -0.1825
  327MOL0     C45045   4.062   8.864   4.243 -0.0848  0.8675 -0.8772
  327MOL0     C45046   4.054   8.958   4.136  0.1023 -0.5084  0.0688
  327MOL0     O45047   4.021   8.927   4.004 -0.4544 -0.6374  0.1197
  327MOL0     C45048   4.121   8.865   3.920 -0.1734 -0.1450 -0.6696
  327MOL0     C45049   4.154   8.718   3.962  0.1365  0.1861  0.8561
  327MOL0     C45050   4.206   8.613   3.853 -0.1574 -1.0554  0.5366
  327MOL0     C45051   4.350   8.630   3.806  0.2778 -1.2468 -0.5172
  327MOL0     C45052   4.393   8.760   3.754  0.2586 -0.0514 -0.1597
  327MOL0     C45053   4.435   8.853   3.699  1.4785  0.7335  0.9703
  327MOL0     C45054   4.114   9.077   4.153  0.5808  0.0557  0.0586
  327MOL0     C45055   4.170   9.118   4.270  0.3677 -1.3638 -0.0009
  327MOL0     C45056   4.220   9.265   4.278 -0.5337  0.1151 -0.2303
  327MOL0     H45057   4.354   8.766   4.613  2.8946 -2.0013  0.3814
  327MOL0     H45058   4.542   8.729   4.757  0.8298  0.4244 -0.6478
  327MOL0     H45059   4.660   8.869   5.151 -4.2369  0.2420 -1.2597
  327MOL0     H45060   4.631   9.019   5.063 -2.6042 -0.7564 -0.6184
  327MOL0     H45061   4.876   8.819   5.029  1.5012 -0.3384 -0.4589
  327MOL0     H45062   4.844   8.963   4.932 -0.2491  2.0047  1.4350
  327MOL0     H45063   4.894   9.101   5.110 -1.2915 -0.2339 -4.0517
  327MOL0     H45064   4.875   8.973   5.236 -1.7555 -1.8564 -1.0772
  327MOL0     H45065   5.048   8.856   5.212  1.7721  0.5164  2.0835
  327MOL0     H45066   5.092   8.906   5.048  0.2021 -1.3101  0.8883
  327MOL0     H45067   5.096   9.064   5.307 -2.1629  2.5875 -1.4921
  327MOL0     H45068   5.139   9.129   5.153  1.7541 -0.6941 -1.6974
  327MOL0     H45069   5.343   9.079   5.267 -0.3328 -0.1405  1.9494
  327MOL0     H45070   5.285   8.922   5.332 -2.8995  2.0882  1.1408
  327MOL0     H45071   5.396   8.979   5.052  1.9180 -0.4034  1.4222
  327MOL0     H45072   5.294   8.835   5.088  0.9638 -0.5891 -0.4705
  327MOL0     H45073   5.462   8.767   5.257 -1.6904  1.2637  0.1471
  327MOL0     H45074   5.524   8.784   5.088  1.4167  1.8291 -1.1928
  327MOL0     H45075   5.545   8.969   5.426  2.2815 -0.5580  1.1089
  327MOL0     H45076   5.775   9.032   5.563  0.7108 -0.3492  0.9034
  327MOL0     H45077   5.932   9.021   5.485 -0.8701  1.7165 -0.5008
  327MOL0     H45078   5.831   8.755   5.461 -0.2476  0.4836 -0.8906
  327MOL0     H45079   5.965   8.816   5.539 -0.9176 -0.9956  1.8079
  327MOL0     H45080   5.810   8.704   5.714 -2.2133  0.2450 -0.1745
  327MOL0     H45081   5.841   8.868   5.752  1.4802 -2.3485  2.6034
  327MOL0     H45082   5.601   8.776   5.769  0.4105 -0.3805  0.3567
  327MOL0     H45083   5.606   8.916   5.667  0.2587  0.4806 -0.6871
  327MOL0     H45084   5.392   8.892   5.675 -4.1146  0.0459  2.1128
  327MOL0     H45085   5.218   9.006   5.629 -1.4442  1.5190  0.3164
  327MOL0     H45086   5.066   8.902   5.661 -1.5007  1.2975 -2.3393
  327MOL0     H45087   5.116   8.950   5.500  1.7570  1.7679 -0.2478
  327MOL0     H45088   4.816   8.943   5.517 -1.8952  0.4103  0.7429
  327MOL0     H45089   4.583   8.974   5.458  0.2427 -1.2435  2.4427
  327MOL0     H45090   4.439   8.785   5.146 -2.3099  0.0842 -1.9766
  327MOL0     H45091   4.377   8.637   5.204 -2.4376 -0.6702  1.8504
  327MOL0     H45092   4.179   8.745   5.308 -0.2827 -1.3728  0.2899
  327MOL0     H45093   4.225   8.903   5.247 -0.9937  0.2595 -0.7816
  327MOL0     H45094   4.145   8.665   5.076 -2.3536  0.5856  3.7535
  327MOL0     H45095   4.237   8.802   5.007 -0.8408 -0.4479 -1.4444
  327MOL0     H45096   4.065   8.955   5.078 -3.1068  1.4233 -0.6187
  327MOL0     H45097   3.976   8.831   5.163  3.2909  1.4776  4.1874
  327MOL0     H45098   4.054   8.795   4.870 -0.9205 -1.2860  0.7641
  327MOL0     H45099   3.919   8.723   4.957  2.5608 -1.2459  2.0870
  327MOL0     H45100   3.970   9.007   4.849 -2.6739  1.7529 -3.4239
  327MOL0     H45101   3.820   8.968   4.947  0.5060 -1.5610  0.7702
  327MOL0     H45102   3.758   8.807   4.768  4.2984 -3.5192  1.9511
  327MOL0     H45103   3.917   8.842   4.701  0.6020  0.5521  1.1732
  327MOL0     H45104   3.781   9.096   4.735  1.3347 -2.1066  1.5868
  327MOL0     H45105   3.660   8.987   4.656 -0.1336 -3.0170 -1.0416
  327MOL0     H45106   4.567   8.568   5.335  2.0292 -0.7072 -1.9271
  327MOL0     H45107   4.794   8.526   5.434 -0.0346 -0.0668 -0.6019
  327MOL0     H45108   5.256   8.492   5.424  1.4252 -0.7715 -0.0066
  327MOL0     H45109   5.490   8.526   5.458  0.0216  0.8268 -1.0176
  327MOL0     H45110   4.416   9.059   4.992  0.6439  4.1836 -3.0740
  327MOL0     H45111   4.248   9.114   4.823 -0.7235  0.1235 -1.1274
  327MOL0     H45112   4.134   8.806   4.429 -1.1438 -0.1922 -0.2102
  327MOL0     H45113   4.029   8.762   4.225  0.8003  0.3761  0.1207
  327MOL0     H45114   4.084   8.870   3.817 -2.5172 -1.0785  0.0653
  327MOL0     H45115   4.212   8.925   3.929  0.6255 -1.0514 -2.1619
  327MOL0     H45116   4.071   8.664   4.008  1.2015 -0.9676  1.4961
  327MOL0     H45117   4.226   8.720   4.045 -0.0655  1.8350  1.0321
  327MOL0     H45118   4.198   8.509   3.885  1.1221 -2.4821 -3.1891
  327MOL0     H45119   4.135   8.621   3.770 -2.4747  0.5674  2.5370
  327MOL0     H45120   4.391   8.548   3.746  1.5303  0.0967 -1.5847
  327MOL0     H45121   4.405   8.622   3.900  1.1599  0.5280 -0.8231
  327MOL0     H45122   4.483   8.934   3.648  1.1863 -0.2092 -0.9090
  327MOL0     H45123   4.117   9.141   4.065  1.5066  1.4977  1.0935
  327MOL0     H45124   4.323   9.262   4.315 -1.9693 -1.7200  4.4531
  327MOL0     H45125   4.200   9.316   4.184 -2.5901  2.2529  1.2349
  327MOL0     H45126   4.162   9.317   4.355  1.0343  0.6131  0.6711
  328MOL0     O45127   6.687   5.279   3.663 -0.4673 -0.0507 -0.3345
  328MOL0     C45128   6.663   5.251   3.780  0.7652  0.3348 -0.5760
  328MOL0     O45129   6.738   5.277   3.894  0.1262 -0.0822  0.0490
  328MOL0     C45130   6.868   5.322   3.884  1.0642  0.4243 -0.6026
  328MOL0     C45131   6.924   5.406   3.983  1.0911  1.4590  0.0023
  328MOL0     C45132   7.063   5.448   3.967 -0.2784 -0.0652 -0.4907
  328MOL0     C45133   7.139   5.396   3.869  0.0311  0.9237  0.1346
  328MOL0     O45134   7.275   5.424   3.880  0.1991 -0.0797  0.6544
  328MOL0     C45135   7.370   5.376   3.785 -0.0387 -0.8416 -0.7869
  328MOL0     C45136   7.502   5.461   3.783 -0.4426  0.0971 -0.5123
  328MOL0     C45137   7.622   5.377   3.736  0.5437  0.2048 -0.3650
  328MOL0     C45138   7.673   5.260   3.831  0.7526  0.1280  0.0430
  328MOL0     C45139   7.814   5.228   3.785 -0.1431  0.2621  0.4224
  328MOL0     C45140   7.864   5.093   3.832 -0.1429  1.2324 -0.3580
  328MOL0     C45141   7.857   5.062   3.977  0.5976 -1.4466  0.8046
  328MOL0     C45142   7.912   4.914   3.996  0.4536 -0.4243  0.4938
  328MOL0     N45143   7.879   4.877   4.130  1.1513  0.5932 -0.4664
  328MOL0     C45144   7.753   4.871   4.192 -0.2701  0.1404 -0.5398
  328MOL0     C45145   7.771   4.803   4.317 -0.9616  0.6478  0.3137
  328MOL0     C45146   7.671   4.781   4.417 -0.5563  0.8936 -0.8342
  328MOL0     C45147   7.621   4.917   4.473  0.7938  0.9313 -0.0695
  328MOL0     C45148   7.496   4.959   4.392  0.1842  0.5824 -0.6361
  328MOL0     C45149   7.445   5.109   4.424  0.3421 -0.4805 -0.0171
  328MOL0     O45150   7.555   5.198   4.392  0.5460 -0.1264  0.0646
  328MOL0     C45151   7.548   5.313   4.463  0.3905 -0.4066 -0.0103
  328MOL0     C45152   7.661   5.384   4.464 -0.8863  0.6294  0.7640
  328MOL0     C45153   7.668   5.515   4.510 -0.3893 -0.0959  0.5548
  328MOL0     C45154   7.805   5.585   4.512 -1.1918 -0.3455  0.3432
  328MOL0     C45155   7.547   5.566   4.578  0.1214  0.5785  0.3639
  328MOL0     C45156   7.547   5.686   4.659  0.0228  0.4148 -0.5491
  328MOL0     O45157   7.608   5.674   4.784  0.3180  0.0239 -0.2902
  328MOL0     C45158   7.642   5.777   4.873 -0.0176  0.2628  0.6009
  328MOL0     C45159   7.600   5.908   4.864  0.9379 -1.8637  0.0836
  328MOL0     C45160   7.628   5.999   4.963  0.2194 -0.6061 -0.6405
  328MOL0     C45161   7.706   5.967   5.071  0.0805 -0.1253 -0.2321
  328MOL0     O45162   7.727   6.065   5.165  0.0472 -0.1362  0.1733
  328MOL0     C45163   7.831   6.041   5.264 -0.5553 -0.4371  0.6004
  328MOL0     C45164   7.977   6.023   5.208 -0.2162 -0.9090  0.2361
  328MOL0     C45165   8.015   6.129   5.094 -0.8740  0.2118 -0.4314
  328MOL0     C45166   8.055   6.263   5.150  0.0024  0.8397 -0.6576
  328MOL0     C45167   7.963   6.373   5.115 -0.6539  0.3370 -0.9073
  328MOL0     C45168   7.969   6.465   5.242  0.6119 -0.3345 -0.0264
  328MOL0     C45169   7.904   6.602   5.213 -0.2510 -0.1253  0.6570
  328MOL0     C45170   7.882   6.682   5.343 -0.0150  0.2696 -0.7836
  328MOL0    Cl45171   7.795   6.832   5.325  0.0777 -0.4838 -0.6630
  328MOL0     C45172   7.741   5.833   5.083  0.3907 -0.5844 -0.7680
  328MOL0     C45173   7.709   5.738   4.985  0.6204  0.3635 -0.4050
  328MOL0     O45174   7.498   5.792   4.619 -0.0606  0.0282  0.4638
  328MOL0     C45175   7.431   5.489   4.569  0.5676 -0.1442 -0.1885
  328MOL0     C45176   7.437   5.363   4.520 -0.1500  0.4096 -0.1857
  328MOL0     N45177   7.898   4.747   4.315  0.0675 -0.0311 -0.4732
  328MOL0     N45178   7.954   4.797   4.207 -0.3985  0.6198  0.0441
  328MOL0     C45179   7.087   5.320   3.762  0.0988 -0.2120  0.4999
  328MOL0     C45180   6.949   5.297   3.773 -0.6657  0.3859  0.4339
  328MOL0     C45181   6.516   5.218   3.803  0.0078 -0.2623 -0.7767
  328MOL0     C45182   6.435   5.241   3.695  0.6796  1.2592  0.3598
  328MOL0     C45183   6.294   5.223   3.709  0.2788 -0.0879  0.4011
  328MOL0     C45184   6.235   5.179   3.829  0.1328  0.7252 -0.1943
  328MOL0     O45185   6.098   5.165   3.838 -0.0737 -0.5871 -0.6230
  328MOL0     C45186   6.017   5.262   3.771  0.3846 -0.1279 -0.2420
  328MOL0     C45187   5.878   5.278   3.846 -0.7594 -0.2522  0.2998
  328MOL0     C45188   5.793   5.150   3.814 -1.9785 -0.1573 -0.1715
  328MOL0     C45189   5.651   5.158   3.856 -0.1430 -0.0201 -0.5624
  328MOL0     C45190   5.649   5.166   4.002  0.1825  0.3658  0.2426
  328MOL0     C45191   5.672   5.167   4.122 -0.2777 -0.3359 -0.0622
  328MOL0     C45192   6.323   5.138   3.934 -0.2557 -0.5921  0.0076
  328MOL0     C45193   6.462   5.166   3.926  0.3150 -0.1770 -0.9309
  328MOL0     C45194   6.535   5.117   4.048  0.5293  0.7965 -0.0992
  328MOL0     H45195   6.867   5.433   4.071  5.0230  0.3248  3.2485
  328MOL0     H45196   7.097   5.525   4.036 -4.5582  3.0745 -1.4420
  328MOL0     H45197   7.327   5.380   3.685  0.3812 -0.2951 -0.9512
  328MOL0     H45198   7.403   5.274   3.809  1.1971 -0.5378 -1.1151
  328MOL0     H45199   7.483   5.551   3.724 -1.3885  0.8434  0.8548
  328MOL0     H45200   7.511   5.497   3.886 -2.6909 -1.0519  0.1585
  328MOL0     H45201   7.603   5.346   3.633 -0.2396  4.4977 -1.7366
  328MOL0     H45202   7.709   5.444   3.733  1.3853 -0.8909 -1.7372
  328MOL0     H45203   7.664   5.286   3.937  1.2281 -1.0002  0.3748
  328MOL0     H45204   7.608   5.177   3.800 -0.5626  0.3576  2.0495
  328MOL0     H45205   7.891   5.302   3.810 -1.1089  0.7880  1.9543
  328MOL0     H45206   7.816   5.224   3.676  1.3111 -2.6645  0.4554
  328MOL0     H45207   7.826   5.011   3.769  1.7814 -0.7042  0.8405
  328MOL0     H45208   7.973   5.098   3.819 -0.2018  0.8998 -1.0395
  328MOL0     H45209   7.758   5.086   4.016 -0.3877 -1.6975 -1.3579
  328MOL0     H45210   7.924   5.134   4.024 -0.4280  0.8554 -1.0652
  328MOL0     H45211   7.853   4.850   3.930 -2.8048  2.9460 -0.2209
  328MOL0     H45212   8.020   4.914   3.976  0.8428 -0.8062  2.3893
  328MOL0     H45213   7.658   4.902   4.148 -2.0190 -1.2744  1.9486
  328MOL0     H45214   7.696   4.711   4.497 -0.8433  1.7398  0.0011
  328MOL0     H45215   7.584   4.732   4.373  0.0924  0.7649 -2.0191
  328MOL0     H45216   7.581   4.912   4.575 -2.1563  0.1232 -1.1484
  328MOL0     H45217   7.701   4.990   4.460  2.0288 -0.2307  0.8197
  328MOL0     H45218   7.501   4.950   4.283 -1.6755 -2.3728 -0.5859
  328MOL0     H45219   7.412   4.891   4.409  1.7130 -1.1013  0.4625
  328MOL0     H45220   7.365   5.138   4.356  0.7383  0.0670 -0.2590
  328MOL0     H45221   7.409   5.110   4.527 -0.9981 -0.2305 -0.4771
  328MOL0     H45222   7.752   5.343   4.419 -1.2187  3.5744 -3.0985
  328MOL0     H45223   7.798   5.688   4.477 -0.5913 -1.4632 -3.6201
  328MOL0     H45224   7.885   5.537   4.454 -1.3236  1.7080 -1.6732
  328MOL0     H45225   7.840   5.584   4.615  0.5636 -0.9681 -0.2251
  328MOL0     H45226   7.544   5.947   4.779  0.3003 -1.1568  0.8146
  328MOL0     H45227   7.590   6.100   4.950 -1.3737 -0.5243  3.0961
  328MOL0     H45228   7.836   6.128   5.330  0.1420  0.5820 -0.7329
  328MOL0     H45229   7.801   5.945   5.307  1.7105 -2.5348 -2.0660
  328MOL0     H45230   8.030   6.043   5.301 -0.3866 -2.0186  0.5941
  328MOL0     H45231   7.996   5.924   5.163 -2.0128  0.1937 -3.3419
  328MOL0     H45232   7.938   6.147   5.018 -0.1322 -0.2167 -1.3050
  328MOL0     H45233   8.095   6.084   5.035  0.2412  2.7335 -1.0091
  328MOL0     H45234   8.153   6.280   5.107  1.6646 -2.6785  1.2521
  328MOL0     H45235   8.068   6.240   5.257  1.0001 -1.0588 -1.1370
  328MOL0     H45236   8.004   6.419   5.024 -0.7090 -1.8152 -2.0945
  328MOL0     H45237   7.859   6.345   5.099 -0.5076 -1.7769  1.3351
  328MOL0     H45238   8.075   6.479   5.261  0.7323 -0.1424 -0.8329
  328MOL0     H45239   7.920   6.435   5.336 -1.4588 -2.3305 -1.6239
  328MOL0     H45240   7.815   6.603   5.150 -0.9569  2.6138  1.5589
  328MOL0     H45241   7.974   6.665   5.157  0.0582 -0.2070  0.9481
  328MOL0     H45242   7.980   6.703   5.388 -0.2216  2.7182 -1.3251
  328MOL0     H45243   7.826   6.638   5.427 -1.0981  3.6229  0.4154
  328MOL0     H45244   7.797   5.792   5.166  0.2936 -1.9972 -1.3785
  328MOL0     H45245   7.750   5.640   5.010 -1.6414  0.1589  3.3473
  328MOL0     H45246   7.343   5.539   4.607  0.0228 -1.2353  0.0002
  328MOL0     H45247   7.348   5.301   4.532  0.6627 -0.7088  0.2707
  328MOL0     H45248   7.145   5.286   3.677  0.0839 -1.3246  0.9182
  328MOL0     H45249   6.918   5.234   3.691 -0.1631  1.2559 -0.4409
  328MOL0     H45250   6.467   5.270   3.595 -2.0579  0.5943 -0.7971
  328MOL0     H45251   6.233   5.248   3.623  1.5173 -1.5425 -0.9587
  328MOL0     H45252   6.068   5.359   3.775  1.1001 -0.4974 -0.2626
  328MOL0     H45253   6.015   5.246   3.663  3.5761  3.2232 -1.0040
  328MOL0     H45254   5.828   5.370   3.817 -0.8974 -0.7069 -0.9584
  328MOL0     H45255   5.899   5.271   3.953  0.4479 -1.9741 -0.0081
  328MOL0     H45256   5.812   5.127   3.708  1.8768 -0.2235  0.3895
  328MOL0     H45257   5.849   5.073   3.868  0.2815  2.3046  1.2381
  328MOL0     H45258   5.600   5.063   3.844  3.9470 -2.6873  1.0137
  328MOL0     H45259   5.594   5.240   3.811 -1.3001 -1.4395 -1.7791
  328MOL0     H45260   5.692   5.171   4.227  1.5966 -3.2135 -0.1944
  328MOL0     H45261   6.280   5.110   4.029 -0.8681 -0.5352 -0.2498
  328MOL0     H45262   6.600   5.191   4.096  0.6504  1.2254 -0.9170
  328MOL0     H45263   6.465   5.085   4.126 -0.4226  1.5068 -0.6418
  328MOL0     H45264   6.602   5.041   4.007  0.5433  1.9093 -2.2726
  329MOL0     O45265   2.095   4.543  10.204 -0.0386 -0.6561  0.1137
  329MOL0     C45266   2.172   4.489  10.123 -0.8325  0.0774 -0.4111
  329MOL0     O45267   2.291   4.419  10.157  0.2706  0.1054 -0.2627
  329MOL0     C45268   2.303   4.358  10.274 -0.1745  0.0237 -0.0928
  329MOL0     C45269   2.428   4.341  10.331 -0.2146 -0.4571 -0.8345
  329MOL0     C45270   2.442   4.268  10.449 -0.3981  0.7750  0.3718
  329MOL0     C45271   2.333   4.213  10.516  0.6438  1.7109  1.8268
  329MOL0     O45272   2.350   4.152  10.645 -0.4269 -0.4136  0.1183
  329MOL0     C45273   2.249   4.184  10.734  0.1588 -0.5127  0.6492
  329MOL0     C45274   2.291   4.170  10.872  0.0648 -0.0450  0.1755
  329MOL0     C45275   2.292   4.021  10.911 -0.2034  0.6605  0.3142
  329MOL0     C45276   2.321   3.997  11.060 -0.6949  0.7165  0.3226
  329MOL0     C45277   2.309   3.838  11.087  0.0442 -0.2372  0.1555
  329MOL0     C45278   2.347   3.814  11.236 -0.6100 -0.1292 -0.0357
  329MOL0     C45279   2.336   3.662  11.273  0.2140 -0.3167  0.3091
  329MOL0     C45280   2.197   3.601  11.270 -0.6461 -0.2888 -0.1004
  329MOL0     N45281   2.199   3.458  11.274 -0.0630  0.2006  0.4970
  329MOL0     C45282   2.269   3.388  11.374  0.7515 -0.2620 -1.0675
  329MOL0     C45283   2.263   3.257  11.342  0.1195 -0.6603 -0.6644
  329MOL0     C45284   2.351   3.155  11.403 -0.2423  0.1321  0.6382
  329MOL0     C45285   2.286   3.023  11.394  0.1377  0.4966 -0.1050
  329MOL0     C45286   2.376   2.911  11.463  0.2742 -0.8676  0.5978
  329MOL0     C45287   2.508   2.887  11.388  0.2501 -0.2560  0.1867
  329MOL0     O45288   2.568   2.777  11.454 -0.1288 -0.5694  0.5965
  329MOL0     C45289   2.609   2.671  11.380 -1.1068  0.1866 -0.2208
  329MOL0     C45290   2.692   2.678  11.272 -0.0301 -0.6751  0.3886
  329MOL0     C45291   2.739   2.564  11.205 -0.0122  0.0597  0.0039
  329MOL0     C45292   2.826   2.600  11.073  0.5109 -0.0610 -0.4416
  329MOL0     C45293   2.694   2.435  11.246  0.3764 -1.0840  0.1868
  329MOL0     C45294   2.720   2.310  11.178 -0.9416  0.1640 -1.0599
  329MOL0     O45295   2.654   2.196  11.206  0.1246 -0.2302  0.2432
  329MOL0     C45296   2.684   2.074  11.149 -0.1873  0.9192  0.3113
  329MOL0     C45297   2.817   2.018  11.130 -0.4095  1.0213  0.7217
  329MOL0     C45298   2.842   1.896  11.071  0.1700  0.4797 -0.2218
  329MOL0     C45299   2.726   1.826  11.018 -0.0270 -0.1322 -0.8658
  329MOL0     O45300   2.734   1.718  10.934 -0.2875 -0.6142  0.2443
  329MOL0     C45301   2.765   1.766  10.798  0.0863 -1.2315  0.0965
  329MOL0     C45302   2.870   1.671  10.744  0.4535 -0.0811 -0.7589
  329MOL0     C45303   2.951   1.739  10.624 -0.0673  0.1947 -0.3574
  329MOL0     C45304   2.886   1.742  10.486  0.4016 -1.1657 -0.3257
  329MOL0     C45305   2.913   1.614  10.407  0.0198  0.7425 -0.1287
  329MOL0     C45306   2.899   1.640  10.256  0.1422  0.7578  0.3653
  329MOL0     C45307   2.753   1.644  10.192  0.5978 -0.2972  0.0169
  329MOL0     C45308   2.708   1.507  10.148 -0.2725 -0.6514  0.0338
  329MOL0    Cl45309   2.802   1.431  10.017  0.1084 -0.1290 -0.0266
  329MOL0     C45310   2.598   1.871  11.055  0.6069  0.3103 -0.9403
  329MOL0     C45311   2.574   1.996  11.116  0.9153 -0.5837 -0.4531
  329MOL0     O45312   2.820   2.317  11.110 -0.4155 -0.7226 -0.1870
  329MOL0     C45313   2.613   2.434  11.365 -0.5209  0.7441  0.3043
  329MOL0     C45314   2.580   2.547  11.437  0.3534 -0.4849  0.2814
  329MOL0     N45315   2.198   3.249  11.219  0.1196  0.2701  0.4146
  329MOL0     N45316   2.158   3.366  11.179 -0.4772  0.6707 -0.3311
  329MOL0     C45317   2.209   4.229  10.451 -0.3215 -0.6320 -1.3016
  329MOL0     C45318   2.193   4.298  10.332  0.3726  0.0493 -0.3787
  329MOL0     C45319   2.142   4.501   9.977  0.4345 -0.2106  0.2286
  329MOL0     C45320   2.033   4.578   9.932  0.7540  0.8883 -0.1230
  329MOL0     C45321   1.987   4.601   9.803 -0.8828 -0.5253  0.1467
  329MOL0     C45322   2.045   4.521   9.704  1.3993  0.2097  0.1485
  329MOL0     O45323   1.994   4.521   9.574 -0.1394 -0.2055 -0.0045
  329MOL0     C45324   1.870   4.578   9.533 -0.3773  0.0596 -0.4808
  329MOL0     C45325   1.747   4.485   9.516 -0.7278  0.2230 -1.0369
  329MOL0     C45326   1.639   4.565   9.448 -0.0196  1.1483 -0.2471
  329MOL0     C45327   1.496   4.508   9.460  0.5001 -0.1470  0.2045
  329MOL0     C45328   1.405   4.616   9.415  0.5184 -0.8254  0.3792
  329MOL0     C45329   1.338   4.707   9.368  0.5081  0.2020 -0.3157
  329MOL0     C45330   2.157   4.442   9.736 -0.2023 -0.0958 -0.3963
  329MOL0     C45331   2.216   4.442   9.864 -0.0929 -0.7269  0.8988
  329MOL0     C45332   2.353   4.396   9.888  0.4724  0.0709 -0.0587
  329MOL0     H45333   2.518   4.384  10.288  2.0420 -1.7699  2.2208
  329MOL0     H45334   2.543   4.251  10.486  0.3397  0.1373 -1.7852
  329MOL0     H45335   2.166   4.123  10.696  0.9795 -1.7902  0.8532
  329MOL0     H45336   2.231   4.291  10.721  0.2957 -0.3547  1.7217
  329MOL0     H45337   2.391   4.214  10.880  2.1488 -4.3886  0.8765
  329MOL0     H45338   2.215   4.217  10.935 -0.5499 -0.4031 -0.2913
  329MOL0     H45339   2.198   3.971  10.886 -0.4935  1.0608  0.5879
  329MOL0     H45340   2.365   3.966  10.852 -2.1794  0.4938 -2.1180
  329MOL0     H45341   2.422   4.028  11.090 -1.4403  2.8608  0.7463
  329MOL0     H45342   2.252   4.053  11.123 -0.2343 -0.6048  2.0804
  329MOL0     H45343   2.379   3.779  11.027 -2.3431 -1.5790 -1.4653
  329MOL0     H45344   2.209   3.799  11.067 -0.9102  1.8754  0.5113
  329MOL0     H45345   2.453   3.840  11.249 -0.4791 -1.3527  1.5428
  329MOL0     H45346   2.279   3.877  11.294 -0.1165  0.7259 -0.3618
  329MOL0     H45347   2.358   3.644  11.378 -2.2749 -0.8871  0.7885
  329MOL0     H45348   2.410   3.608  11.213  1.5443  0.4813  1.1721
  329MOL0     H45349   2.124   3.641  11.341 -1.5124  1.4926 -1.8695
  329MOL0     H45350   2.139   3.620  11.179  1.7308  0.5564 -1.5204
  329MOL0     H45351   2.312   3.432  11.464 -2.3572 -2.7878  1.9023
  329MOL0     H45352   2.369   3.185  11.506  1.4420  3.3938 -0.4496
  329MOL0     H45353   2.440   3.149  11.339  0.8269 -0.9277  2.1713
  329MOL0     H45354   2.192   3.019  11.449  1.2537 -0.9379  1.8622
  329MOL0     H45355   2.266   2.995  11.290 -2.0537  0.3089  0.3238
  329MOL0     H45356   2.382   2.938  11.569 -3.9515  0.5747  0.6263
  329MOL0     H45357   2.315   2.820  11.459  0.7006 -1.1168 -0.7693
  329MOL0     H45358   2.486   2.867  11.283 -0.1088  0.7105  0.0736
  329MOL0     H45359   2.573   2.974  11.401 -1.1557  0.9378 -0.6005
  329MOL0     H45360   2.726   2.776  11.240  2.4183 -1.3923  0.5779
  329MOL0     H45361   2.918   2.540  11.073  0.4158 -0.2081 -0.6829
  329MOL0     H45362   2.858   2.705  11.077 -0.4202  0.2336 -0.6814
  329MOL0     H45363   2.774   2.584  10.979 -0.0131  3.5003 -0.9120
  329MOL0     H45364   2.909   2.072  11.151  1.4331 -1.8856  0.7325
  329MOL0     H45365   2.943   1.858  11.056  0.3488  0.8686 -0.0120
  329MOL0     H45366   2.672   1.770  10.741 -2.6677  2.4836  4.1369
  329MOL0     H45367   2.810   1.866  10.794  1.0213 -1.5150  2.2444
  329MOL0     H45368   2.936   1.653  10.829  1.0914 -1.8427 -1.5748
  329MOL0     H45369   2.828   1.574  10.718  2.2864 -1.5679  1.4499
  329MOL0     H45370   3.043   1.679  10.623 -0.4808 -0.4995  0.8537
  329MOL0     H45371   2.974   1.840  10.658  0.8726 -1.2183  3.7443
  329MOL0     H45372   2.937   1.831  10.450  0.5095 -1.1435 -0.1183
  329MOL0     H45373   2.781   1.763  10.508  0.9244 -0.2613  1.4627
  329MOL0     H45374   3.011   1.574  10.435  0.0207  2.7390  3.3604
  329MOL0     H45375   2.842   1.537  10.441  1.4737 -1.2072 -1.3188
  329MOL0     H45376   2.953   1.562  10.203  0.9589 -0.3541  2.7030
  329MOL0     H45377   2.954   1.733  10.241  2.8917 -0.7542  0.5554
  329MOL0     H45378   2.765   1.709  10.105  3.0081  2.4991  2.2199
  329MOL0     H45379   2.686   1.694  10.263  1.4878  2.8210 -1.1831
  329MOL0     H45380   2.603   1.498  10.121  0.1414  0.0086 -2.0230
  329MOL0     H45381   2.713   1.446  10.238  0.5716  0.7801  0.9942
  329MOL0     H45382   2.515   1.807  11.026  0.0445  0.0873  0.9604
  329MOL0     H45383   2.475   2.036  11.136  1.0904 -0.6146  0.5156
  329MOL0     H45384   2.582   2.341  11.411  1.3650 -0.8643 -1.4395
  329MOL0     H45385   2.517   2.531  11.524  0.4824 -1.2716  0.2295
  329MOL0     H45386   2.117   4.194  10.497  0.2506  0.3790  0.7756
  329MOL0     H45387   2.087   4.304  10.307  0.5076 -3.2751 -2.2105
  329MOL0     H45388   1.984   4.625  10.017 -1.5140 -0.3391 -0.6548
  329MOL0     H45389   1.909   4.676   9.797  0.5070  1.2989  2.8961
  329MOL0     H45390   1.849   4.661   9.601  4.6244  2.8802 -1.8521
  329MOL0     H45391   1.885   4.632   9.440  0.3751  1.1079  0.2173
  329MOL0     H45392   1.702   4.455   9.611  0.8121  4.2768  1.1902
  329MOL0     H45393   1.784   4.392   9.471  1.5319  0.8139 -0.5275
  329MOL0     H45394   1.638   4.668   9.483  0.2252  1.4184 -1.0118
  329MOL0     H45395   1.671   4.578   9.344  2.0003  3.9162  0.5959
  329MOL0     H45396   1.461   4.487   9.562  0.0276 -1.1429 -0.1460
  329MOL0     H45397   1.494   4.412   9.407  0.5861 -0.5019  0.8274
  329MOL0     H45398   1.284   4.794   9.337 -0.8667  0.3237  2.2112
  329MOL0     H45399   2.215   4.411   9.650  0.9427  3.3558 -1.0200
  329MOL0     H45400   2.409   4.370   9.797  0.6400 -0.5116  0.2048
  329MOL0     H45401   2.428   4.464   9.930  3.6159 -2.7861 -0.6361
  329MOL0     H45402   2.347   4.311   9.957 -0.2410 -0.4671 -0.7607
  330MOL0     O45403   1.416   1.187   3.788 -0.0836  0.7136  0.2502
  330MOL0     C45404   1.328   1.254   3.840  0.0426  0.1045 -0.6968
  330MOL0     O45405   1.310   1.391   3.822 -0.0420  0.1964  0.1922
  330MOL0     C45406   1.340   1.450   3.701 -0.3140  0.6486 -0.3981
  330MOL0     C45407   1.309   1.590   3.692 -0.0925 -0.7980 -0.2148
  330MOL0     C45408   1.339   1.674   3.579  0.3898  0.0932 -0.6266
  330MOL0     C45409   1.398   1.607   3.478  0.1203 -0.5403 -0.4325
  330MOL0     O45410   1.410   1.667   3.354  0.1665 -0.5300 -0.2477
  330MOL0     C45411   1.382   1.806   3.347 -0.2755 -0.4718  0.9451
  330MOL0     C45412   1.417   1.851   3.191  0.3789  0.9398 -1.3921
  330MOL0     C45413   1.558   1.826   3.139  0.0297 -0.1869  0.9232
  330MOL0     C45414   1.669   1.862   3.237 -0.1853  0.3090 -0.4402
  330MOL0     C45415   1.804   1.851   3.170 -0.1847 -0.0383  0.8574
  330MOL0     C45416   1.839   1.712   3.150 -0.0394  0.0021 -0.4552
  330MOL0     C45417   1.974   1.699   3.077 -0.4075 -0.0876 -0.7025
  330MOL0     C45418   2.096   1.745   3.173 -0.2783 -0.0137  0.6196
  330MOL0     N45419   2.213   1.750   3.082  0.4111  0.0984  0.4631
  330MOL0     C45420   2.254   1.860   2.997  0.0776 -0.2161 -0.2167
  330MOL0     C45421   2.341   1.817   2.906 -0.8838  0.0468 -1.0297
  330MOL0     C45422   2.411   1.910   2.806  0.2926  0.1124 -0.1003
  330MOL0     C45423   2.538   1.958   2.873  0.2176  0.0071  0.0706
  330MOL0     C45424   2.640   2.010   2.775  0.3120  0.2152 -0.1266
  330MOL0     C45425   2.724   1.910   2.700  0.1189  0.0240  0.5688
  330MOL0     O45426   2.806   1.989   2.613  0.6047  0.4051  0.5781
  330MOL0     C45427   2.881   1.941   2.517  0.3721  0.9262  0.7613
  330MOL0     C45428   2.929   2.038   2.422 -0.6490  0.0359  0.2207
  330MOL0     C45429   2.998   1.999   2.308 -0.5754 -0.6396  0.3419
  330MOL0     C45430   3.010   2.103   2.194 -0.2064 -0.4722 -0.2335
  330MOL0     C45431   3.052   1.869   2.299 -0.2379  0.8353 -0.4882
  330MOL0     C45432   3.161   1.830   2.202  0.1439  0.0756 -0.3840
  330MOL0     O45433   3.159   1.698   2.157  0.0359  0.2790 -0.0289
  330MOL0     C45434   3.254   1.666   2.067 -1.4211  0.4409  0.1128
  330MOL0     C45435   3.369   1.599   2.110  0.5041  0.1088  0.4792
  330MOL0     C45436   3.461   1.557   2.013  0.4880 -0.2205  0.6478
  330MOL0     C45437   3.438   1.572   1.876  0.2648  1.2371  0.6624
  330MOL0     O45438   3.523   1.515   1.781  0.2318 -0.3554  0.7318
  330MOL0     C45439   3.641   1.592   1.760  0.3580 -0.5524 -0.7317
  330MOL0     C45440   3.755   1.500   1.709  0.5770 -0.0085  0.7015
  330MOL0     C45441   3.761   1.470   1.555 -0.4297 -0.9567  0.1311
  330MOL0     C45442   3.695   1.336   1.534  0.1148  0.2634  0.2353
  330MOL0     C45443   3.712   1.275   1.390  0.5461  0.2515  0.4082
  330MOL0     C45444   3.661   1.357   1.262 -1.1112  0.0223 -1.4516
  330MOL0     C45445   3.676   1.276   1.135  0.2649 -0.0706  0.3714
  330MOL0     C45446   3.656   1.374   1.018  0.5402 -0.0959  0.3690
  330MOL0    Cl45447   3.803   1.470   0.988 -0.0723  0.0989  0.5205
  330MOL0     C45448   3.322   1.633   1.836  0.8022 -0.5975 -0.1750
  330MOL0     C45449   3.234   1.681   1.930  0.2544  0.6321  0.1556
  330MOL0     O45450   3.244   1.907   2.168  0.4122  0.0221 -0.0754
  330MOL0     C45451   3.014   1.776   2.397  0.0743 -1.7342 -0.5924
  330MOL0     C45452   2.921   1.806   2.501 -0.4659 -0.2673  0.8737
  330MOL0     N45453   2.356   1.677   2.935 -0.5436 -0.1819  0.6580
  330MOL0     N45454   2.288   1.649   3.040  0.7628  0.1620  0.4482
  330MOL0     C45455   1.416   1.468   3.480 -1.0838 -1.0157  0.3100
  330MOL0     C45456   1.391   1.389   3.586 -0.1003  0.0906  0.8636
  330MOL0     C45457   1.245   1.193   3.942  0.6470  0.7240  0.0753
  330MOL0     C45458   1.158   1.270   4.010  0.0988  0.2892  0.4458
  330MOL0     C45459   1.068   1.231   4.116 -0.3886 -0.8030 -0.1247
  330MOL0     C45460   1.055   1.099   4.144  0.0730 -0.7300 -0.8288
  330MOL0     O45461   0.957   1.034   4.212 -0.1022 -0.6783 -0.5706
  330MOL0     C45462   0.877   1.108   4.302 -0.9582  0.9845  0.6145
  330MOL0     C45463   0.963   1.163   4.428 -0.2053  0.0546  0.1802
  330MOL0     C45464   0.891   1.256   4.519  0.0057  0.6985 -0.0009
  330MOL0     C45465   0.842   1.386   4.464 -0.0048 -0.0919  0.5063
  330MOL0     C45466   0.961   1.464   4.425 -0.2556  0.4554 -0.2765
  330MOL0     C45467   1.049   1.527   4.385  0.4600 -0.4549  0.6532
  330MOL0     C45468   1.141   1.014   4.078 -1.1555 -0.0134 -0.0097
  330MOL0     C45469   1.232   1.054   3.982  0.3767  0.1215  0.2134
  330MOL0     C45470   1.311   0.947   3.915 -0.1265  0.0241  0.7431
  330MOL0     H45471   1.269   1.634   3.783  0.7123  2.1574 -1.1540
  330MOL0     H45472   1.328   1.779   3.604  2.4137 -0.4190  3.0150
  330MOL0     H45473   1.460   1.849   3.411 -1.1629  1.6298  0.7234
  330MOL0     H45474   1.278   1.832   3.368 -0.8893  0.3635 -2.5219
  330MOL0     H45475   1.363   1.790   3.117  1.2173 -1.0027 -0.4816
  330MOL0     H45476   1.391   1.955   3.169 -1.0693  1.0800  0.6338
  330MOL0     H45477   1.575   1.718   3.140  2.7910  0.1783  1.0306
  330MOL0     H45478   1.559   1.864   3.037  0.7975  0.6749  1.2412
  330MOL0     H45479   1.654   1.966   3.270 -1.9442  0.9182 -2.9121
  330MOL0     H45480   1.658   1.795   3.323 -0.8475  0.6709 -0.2376
  330MOL0     H45481   1.870   1.887   3.249 -1.1500 -2.0670  2.6887
  330MOL0     H45482   1.803   1.900   3.072 -1.7168 -0.0364  0.8433
  330MOL0     H45483   1.848   1.649   3.239 -2.2197 -0.3821 -0.4282
  330MOL0     H45484   1.761   1.669   3.086 -2.9092  4.2573 -0.2435
  330MOL0     H45485   1.972   1.754   2.982  0.2725  2.6013  0.7258
  330MOL0     H45486   1.996   1.593   3.060  1.3954 -0.1444  1.4313
  330MOL0     H45487   2.092   1.852   3.195  2.4395  1.2454 -3.7274
  330MOL0     H45488   2.112   1.692   3.267  2.8673  0.0410  0.2187
  330MOL0     H45489   2.221   1.962   3.013  0.9930  0.3113 -1.5291
  330MOL0     H45490   2.351   1.995   2.773 -0.3036 -0.6825 -1.0940
  330MOL0     H45491   2.436   1.849   2.719 -2.3662  0.2783 -1.0704
  330MOL0     H45492   2.509   2.036   2.944 -1.2211  0.8208 -1.3371
  330MOL0     H45493   2.595   1.880   2.924 -0.8193  0.4353  1.9887
  330MOL0     H45494   2.587   2.069   2.700 -2.0315  0.6778  1.7444
  330MOL0     H45495   2.697   2.082   2.836 -1.4544 -0.5384  2.6179
  330MOL0     H45496   2.790   1.849   2.761 -0.2772 -1.2800 -0.2604
  330MOL0     H45497   2.662   1.849   2.632  2.4659  1.8245 -3.5643
  330MOL0     H45498   2.881   2.132   2.447 -2.3313 -0.8249  0.3804
  330MOL0     H45499   2.922   2.168   2.200 -0.5856 -1.1293  3.0927
  330MOL0     H45500   3.015   2.059   2.094 -1.1372 -0.7587 -0.1680
  330MOL0     H45501   3.088   2.178   2.210 -1.8938  2.0243 -2.6184
  330MOL0     H45502   3.392   1.591   2.216  0.9943 -3.1160  0.2192
  330MOL0     H45503   3.549   1.504   2.045  0.1954 -0.1630  1.5713
  330MOL0     H45504   3.632   1.669   1.684 -2.7701 -0.5119 -0.4517
  330MOL0     H45505   3.678   1.638   1.853  2.9888  0.2090 -2.0501
  330MOL0     H45506   3.850   1.547   1.734 -0.3518  0.1485  4.5009
  330MOL0     H45507   3.749   1.403   1.758 -0.4734 -1.1111 -1.4611
  330MOL0     H45508   3.864   1.468   1.518 -0.5165 -2.1650 -0.0987
  330MOL0     H45509   3.706   1.547   1.500  2.4589  1.5211  0.4069
  330MOL0     H45510   3.592   1.329   1.569  0.8431  1.3952  2.8175
  330MOL0     H45511   3.737   1.260   1.601  0.3011  0.6250  0.5303
  330MOL0     H45512   3.820   1.270   1.371 -0.1241 -2.0505 -4.4325
  330MOL0     H45513   3.677   1.172   1.397 -1.6757  1.0561  2.4339
  330MOL0     H45514   3.721   1.448   1.253 -0.2493 -0.2679  0.7694
  330MOL0     H45515   3.560   1.401   1.261  0.2268  3.4747 -0.4846
  330MOL0     H45516   3.606   1.192   1.137  1.4885 -1.1554 -0.3673
  330MOL0     H45517   3.777   1.234   1.128  0.9652  1.7484 -1.9055
  330MOL0     H45518   3.568   1.436   1.040  0.0921  0.2092 -1.9988
  330MOL0     H45519   3.632   1.326   0.922  1.1739  0.8940 -0.3036
  330MOL0     H45520   3.293   1.635   1.731  2.1090 -1.0803 -0.5687
  330MOL0     H45521   3.138   1.724   1.903 -0.4091 -1.7275 -1.5338
  330MOL0     H45522   3.059   1.677   2.398  3.0499 -0.4796 -1.1355
  330MOL0     H45523   2.884   1.729   2.567  1.4696 -0.9975  1.1710
  330MOL0     H45524   1.450   1.429   3.384 -0.1431  1.2298 -0.3269
  330MOL0     H45525   1.401   1.281   3.578 -0.3896 -0.2349  3.7862
  330MOL0     H45526   1.158   1.377   3.989  2.0454  0.1444 -0.4889
  330MOL0     H45527   1.008   1.306   4.166 -0.1096 -0.0132 -0.9394
  330MOL0     H45528   0.822   1.183   4.245  0.5538  0.6748 -1.3875
  330MOL0     H45529   0.796   1.042   4.332 -0.1680  0.6590  2.1739
  330MOL0     H45530   1.059   1.201   4.393  1.2605 -0.5892  3.1784
  330MOL0     H45531   0.997   1.070   4.475 -1.2537 -0.2586  0.3391
  330MOL0     H45532   0.798   1.211   4.552 -1.0696  4.7596  3.2602
  330MOL0     H45533   0.961   1.276   4.601  2.0199  0.0074 -1.4527
  330MOL0     H45534   0.773   1.443   4.527  0.2700  1.0195 -0.1675
  330MOL0     H45535   0.786   1.368   4.372  0.8375 -1.3188  0.2068
  330MOL0     H45536   1.130   1.592   4.359  0.5640 -0.5651  0.7022
  330MOL0     H45537   1.134   0.908   4.103  0.4443 -0.2282 -0.3091
  330MOL0     H45538   1.320   0.966   3.808  1.2881  3.3724  1.3262
  330MOL0     H45539   1.413   0.944   3.955  0.2808  1.6676 -0.0838
  330MOL0     H45540   1.257   0.854   3.938 -5.1008  2.6384  1.1768
  331MOL0     O45541   0.789   0.003   2.401  0.9133  0.0791  0.4736
  331MOL0     C45542   0.724   0.095   2.446 -0.7276  0.3791  0.3178
  331MOL0     O45543   0.777   0.224   2.457  0.8070 -0.0369 -0.2652
  331MOL0     C45544   0.892   0.265   2.403 -0.3252 -0.4669  0.3379
  331MOL0     C45545   0.931   0.226   2.271 -0.9860 -0.1332  0.1611
  331MOL0     C45546   1.051   0.283   2.221  0.3476  0.0264  0.3079
  331MOL0     C45547   1.135   0.363   2.289  0.0294 -0.2324 -0.7823
  331MOL0     O45548   1.246   0.424   2.238 -0.0398  0.6579  0.0083
  331MOL0     C45549   1.354   0.329   2.223 -0.5526 -0.1432 -1.6693
  331MOL0     C45550   1.455   0.377   2.127  0.7415 -0.1621 -0.7098
  331MOL0     C45551   1.400   0.391   1.989 -0.3001  0.7243 -1.2242
  331MOL0     C45552   1.479   0.460   1.888 -0.7903  0.1654  0.6868
  331MOL0     C45553   1.395   0.476   1.753 -0.0557  0.1878 -1.2888
  331MOL0     C45554   1.251   0.534   1.763 -0.0805 -0.5530 -0.0452
  331MOL0     C45555   1.184   0.562   1.620 -0.6544 -0.5712  0.2972
  331MOL0     C45556   1.179   0.432   1.534 -0.3353 -0.1011  0.5035
  331MOL0     N45557   1.063   0.358   1.576  0.5113 -0.0445  0.4483
  331MOL0     C45558   1.049   0.271   1.686  0.2576  0.2918  0.3488
  331MOL0     C45559   0.918   0.228   1.668 -0.0015 -0.2730 -1.3907
  331MOL0     C45560   0.860   0.109   1.748 -0.5353  0.4086  0.2533
  331MOL0     C45561   0.790   0.150   1.881  1.0800  0.1455  1.1455
  331MOL0     C45562   0.690   0.034   1.913 -0.2393  0.0212  0.0911
  331MOL0     C45563   0.749  -0.101   1.961 -0.6082  0.1337  0.0299
  331MOL0     O45564   0.641  -0.177   2.008 -0.1727  0.3062  0.2701
  331MOL0     C45565   0.673  -0.306   2.035  0.6977  0.6520  0.1161
  331MOL0     C45566   0.572  -0.397   2.007 -0.6872  1.2158 -0.2876
  331MOL0     C45567   0.593  -0.536   2.039  0.4224  0.2112  0.4564
  331MOL0     C45568   0.473  -0.625   1.996  0.1688  0.7573 -0.2333
  331MOL0     C45569   0.709  -0.582   2.094  0.2609 -0.1144  0.1941
  331MOL0     C45570   0.745  -0.726   2.098  1.4391  1.0576 -0.0453
  331MOL0     O45571   0.825  -0.749   2.205  0.9428  0.2022  0.1573
  331MOL0     C45572   0.853  -0.885   2.235 -0.1819 -0.1291  0.5504
  331MOL0     C45573   0.818  -0.922   2.361  0.3346  0.0719  0.4911
  331MOL0     C45574   0.866  -1.038   2.410 -0.4821 -0.1796  1.1246
  331MOL0     C45575   0.915  -1.139   2.325 -0.1410  0.4403  0.0904
  331MOL0     O45576   0.937  -1.266   2.372 -0.9853 -0.7612 -0.3130
  331MOL0     C45577   1.057  -1.258   2.462 -0.0412 -0.4319  0.0726
  331MOL0     C45578   1.113  -1.385   2.526  0.2462 -0.4782 -0.2711
  331MOL0     C45579   1.111  -1.497   2.424  1.1708 -0.8255 -1.1194
  331MOL0     C45580   1.252  -1.488   2.357  0.8568  0.0803 -0.1587
  331MOL0     C45581   1.271  -1.557   2.229  0.4897  0.5254 -0.4067
  331MOL0     C45582   1.418  -1.554   2.184 -0.2660 -1.0183 -0.4965
  331MOL0     C45583   1.435  -1.629   2.060  0.6265  0.9941  0.1166
  331MOL0     C45584   1.577  -1.652   2.033  0.3959 -0.2700 -0.2790
  331MOL0    Cl45585   1.578  -1.744   1.879 -0.2026  0.1298  0.1147
  331MOL0     C45586   0.929  -1.098   2.189 -0.1040  0.0356  0.4422
  331MOL0     C45587   0.904  -0.974   2.145 -0.5798  0.1514  0.2951
  331MOL0     O45588   0.719  -0.804   2.004 -0.4283  0.1934 -0.0164
  331MOL0     C45589   0.811  -0.486   2.122 -0.8415  0.4201 -0.6796
  331MOL0     C45590   0.790  -0.352   2.090  0.1937  0.1515  0.0232
  331MOL0     N45591   0.856   0.289   1.563 -0.0239  0.0191  0.3951
  331MOL0     N45592   0.945   0.368   1.515  1.0221  0.1474  0.0579
  331MOL0     C45593   1.090   0.404   2.413  0.0877 -0.4385 -0.1322
  331MOL0     C45594   0.972   0.354   2.463 -0.2342  0.3974  0.6781
  331MOL0     C45595   0.592   0.073   2.507 -0.4959 -0.3688  0.9166
  331MOL0     C45596   0.534   0.171   2.590 -1.1628  0.0383  0.7190
  331MOL0     C45597   0.421   0.161   2.657  0.6766 -0.0588 -0.7451
  331MOL0     C45598   0.326   0.053   2.653 -0.2413 -0.1991 -0.6668
  331MOL0     O45599   0.223   0.044   2.741  0.0210 -0.1096  0.2387
  331MOL0     C45600   0.160  -0.087   2.743  0.6934 -0.6535  0.2738
  331MOL0     C45601   0.071  -0.099   2.865 -0.1861 -0.2459  0.0563
  331MOL0     C45602  -0.065  -0.029   2.843 -0.1644 -0.8323 -0.8889
  331MOL0     C45603  -0.133  -0.008   2.976 -0.5759  0.0180  0.1107
  331MOL0     C45604  -0.160  -0.139   3.050  0.5995 -0.3057 -0.0072
  331MOL0     C45605  -0.187  -0.247   3.103 -0.1006 -0.4772 -0.1312
  331MOL0     C45606   0.371  -0.030   2.548  0.2006  0.1272  0.3209
  331MOL0     C45607   0.491  -0.024   2.474  0.3417  0.2862 -0.1093
  331MOL0     C45608   0.516  -0.122   2.366 -0.0295 -0.1120 -0.3842
  331MOL0     H45609   0.860   0.174   2.208 -0.1651 -0.6445 -0.3654
  331MOL0     H45610   1.079   0.255   2.119 -0.4286 -4.6639  1.1327
  331MOL0     H45611   1.318   0.229   2.196  0.5241 -0.4686 -1.9546
  331MOL0     H45612   1.385   0.338   2.327 -2.1810 -0.9813 -1.0707
  331MOL0     H45613   1.504   0.471   2.156  2.5081 -1.3765  0.3817
  331MOL0     H45614   1.542   0.311   2.121  2.1265  1.3764  1.0594
  331MOL0     H45615   1.383   0.287   1.962  0.0897  0.2428  0.3429
  331MOL0     H45616   1.301   0.435   2.007 -1.6085 -1.4383 -2.6594
  331MOL0     H45617   1.508   0.563   1.909  0.9994  0.0281 -0.8178
  331MOL0     H45618   1.576   0.415   1.862 -0.7721  0.0502  0.9545
  331MOL0     H45619   1.388   0.377   1.707 -2.8571 -0.0349 -0.5383
  331MOL0     H45620   1.460   0.534   1.686  2.0915 -1.3361 -0.6504
  331MOL0     H45621   1.183   0.480   1.829  0.3209 -3.1284 -1.5857
  331MOL0     H45622   1.262   0.629   1.816  1.0576 -1.6773  1.8791
  331MOL0     H45623   1.259   0.620   1.566 -2.0149 -0.8678 -2.0290
  331MOL0     H45624   1.098   0.630   1.626 -0.4075 -0.3052  1.0475
  331MOL0     H45625   1.177   0.457   1.427  1.9787 -0.6441  0.2803
  331MOL0     H45626   1.275   0.380   1.537 -0.1148  0.1740 -0.9625
  331MOL0     H45627   1.127   0.244   1.757  0.8532  1.9182  0.3651
  331MOL0     H45628   0.941   0.037   1.761 -1.1711 -0.4277 -0.2978
  331MOL0     H45629   0.783   0.065   1.684 -1.7532  0.7389  1.4554
  331MOL0     H45630   0.858   0.166   1.965  2.1000  2.7128 -0.0832
  331MOL0     H45631   0.729   0.239   1.866 -0.8729 -1.3606 -0.5394
  331MOL0     H45632   0.641   0.068   2.004  2.0934 -0.9289  1.7874
  331MOL0     H45633   0.609   0.024   1.839  1.1304 -2.1203 -1.2414
  331MOL0     H45634   0.805  -0.150   1.881  0.8528  2.1856 -0.2970
  331MOL0     H45635   0.824  -0.071   2.036 -0.3173  0.4882 -0.3972
  331MOL0     H45636   0.479  -0.361   1.965  0.0341  0.2396 -2.8586
  331MOL0     H45637   0.508  -0.698   1.921  3.1438 -0.2532  1.9627
  331MOL0     H45638   0.387  -0.576   1.948  0.6382  0.9644 -0.8791
  331MOL0     H45639   0.427  -0.669   2.085 -2.4934  3.0344 -0.3351
  331MOL0     H45640   0.774  -0.847   2.426 -1.4215 -0.0634 -0.4829
  331MOL0     H45641   0.838  -1.072   2.509 -1.0589  0.9750  1.3684
  331MOL0     H45642   1.128  -1.206   2.398 -0.5624 -1.1404 -1.1037
  331MOL0     H45643   1.036  -1.187   2.543 -2.0383  1.6049 -2.0760
  331MOL0     H45644   1.209  -1.359   2.571 -0.5621  2.5177 -0.0722
  331MOL0     H45645   1.041  -1.416   2.602 -2.3808  3.0617 -1.0338
  331MOL0     H45646   1.033  -1.478   2.350  1.7465 -0.2277 -1.5898
  331MOL0     H45647   1.087  -1.588   2.479  3.1868  0.3063  1.8512
  331MOL0     H45648   1.312  -1.524   2.442 -0.3710 -0.7131  0.4056
  331MOL0     H45649   1.276  -1.382   2.342  2.1337  0.5365  3.7167
  331MOL0     H45650   1.242  -1.661   2.251 -1.4013  0.7629 -1.5376
  331MOL0     H45651   1.199  -1.516   2.158 -0.2107 -0.9098 -0.5756
  331MOL0     H45652   1.480  -1.590   2.267 -0.1636 -0.8661 -0.5058
  331MOL0     H45653   1.449  -1.450   2.171 -1.4337 -0.4729  0.7446
  331MOL0     H45654   1.397  -1.572   1.974 -3.5212 -0.6258  0.6719
  331MOL0     H45655   1.387  -1.726   2.057 -1.0491  1.7089  2.1093
  331MOL0     H45656   1.624  -1.706   2.116  1.1866  1.3287  0.3407
  331MOL0     H45657   1.630  -1.557   2.028  0.2870 -0.0580  1.6699
  331MOL0     H45658   0.968  -1.170   2.118  1.0388 -1.0774  2.1032
  331MOL0     H45659   0.912  -0.963   2.037 -0.8268 -0.7389  0.1811
  331MOL0     H45660   0.902  -0.531   2.158 -1.5541 -0.5399 -0.0281
  331MOL0     H45661   0.872  -0.285   2.115 -1.3563  2.3930 -0.5840
  331MOL0     H45662   1.150   0.480   2.463  1.8678  0.4999 -3.3743
  331MOL0     H45663   0.932   0.405   2.550 -0.2363  1.7796 -0.0983
  331MOL0     H45664   0.592   0.261   2.607 -0.2759 -0.8664  2.7419
  331MOL0     H45665   0.406   0.237   2.733  1.1086  0.8584 -1.5612
  331MOL0     H45666   0.118  -0.118   2.647  1.9034 -1.4803 -0.0087
  331MOL0     H45667   0.243  -0.157   2.757  0.2556 -0.7458  2.9276
  331MOL0     H45668   0.126  -0.059   2.951  0.8564 -0.9990 -0.2502
  331MOL0     H45669   0.050  -0.206   2.874  2.6011 -0.9696 -1.1968
  331MOL0     H45670  -0.047   0.071   2.801  0.2121 -0.5337 -0.0373
  331MOL0     H45671  -0.124  -0.082   2.767 -0.5912 -3.5608  1.1779
  331MOL0     H45672  -0.223   0.055   2.971  0.2472  1.4436  1.9915
  331MOL0     H45673  -0.062   0.053   3.032 -3.3866  1.2336  2.6312
  331MOL0     H45674  -0.198  -0.340   3.154 -0.4004 -0.7867 -0.7404
  331MOL0     H45675   0.297  -0.107   2.531 -2.2688  2.0374  1.7703
  331MOL0     H45676   0.550  -0.064   2.280 -0.2715 -0.2719 -0.5871
  331MOL0     H45677   0.600  -0.189   2.388  0.1893  0.8860  2.2610
  331MOL0     H45678   0.432  -0.185   2.337 -2.0332  1.2858  1.9615
  332MOL0     O45679   0.021   5.988   8.250  0.0102  0.0972 -0.1528
  332MOL0     C45680  -0.001   5.935   8.360  0.1403  0.4883  0.6303
  332MOL0     O45681  -0.054   5.996   8.474 -0.4564 -0.7562  0.3419
  332MOL0     C45682  -0.093   6.131   8.465  0.1935  0.1626 -0.2745
  332MOL0     C45683  -0.203   6.165   8.391  0.4451 -0.6895  0.2558
  332MOL0     C45684  -0.226   6.303   8.362  0.4502  0.1376 -0.5339
  332MOL0     C45685  -0.137   6.399   8.420  1.1366  0.4434  0.7432
  332MOL0     O45686  -0.159   6.531   8.381 -0.6481  0.0223  0.1672
  332MOL0     C45687  -0.110   6.637   8.474  1.1855 -0.0674  0.5174
  332MOL0     C45688  -0.207   6.760   8.489 -0.7132  0.0070 -0.4644
  332MOL0     C45689  -0.241   6.829   8.356  0.4185 -0.4804  0.0732
  332MOL0     C45690  -0.274   6.972   8.371  0.1942  0.1003 -0.1371
  332MOL0     C45691  -0.329   7.048   8.243 -0.2652  0.3119 -0.6857
  332MOL0     C45692  -0.364   7.196   8.262 -0.8388 -0.3245 -0.5048
  332MOL0     C45693  -0.459   7.252   8.370 -0.3014 -0.9533  0.0546
  332MOL0     C45694  -0.602   7.188   8.373 -0.2556 -0.2559 -0.7501
  332MOL0     N45695  -0.677   7.254   8.266 -1.2481 -0.5092  0.5471
  332MOL0     C45696  -0.636   7.253   8.135 -0.6051 -0.2935 -0.3204
  332MOL0     C45697  -0.691   7.355   8.068 -0.1486 -0.1853 -0.0404
  332MOL0     C45698  -0.668   7.396   7.919 -0.6172  0.3002 -0.9320
  332MOL0     C45699  -0.734   7.303   7.825  0.3511 -0.6009 -0.9542
  332MOL0     C45700  -0.719   7.347   7.683  0.1137  1.8232  0.1727
  332MOL0     C45701  -0.793   7.239   7.590  0.3489 -0.4979 -0.3428
  332MOL0     O45702  -0.935   7.261   7.605  0.5699  0.5412  0.3945
  332MOL0     C45703  -1.016   7.160   7.626 -0.8891  0.7166  0.2786
  332MOL0     C45704  -0.990   7.018   7.641 -0.3848 -0.7802  0.6225
  332MOL0     C45705  -1.103   6.941   7.679 -0.1270 -0.7060 -0.4172
  332MOL0     C45706  -1.064   6.786   7.692 -0.1236  0.4311  0.1475
  332MOL0     C45707  -1.240   6.989   7.693 -0.8671 -0.8166 -0.0417
  332MOL0     C45708  -1.364   6.913   7.723  0.2017  0.6637 -1.0323
  332MOL0     O45709  -1.348   6.783   7.729  0.5280 -0.3220 -0.3981
  332MOL0     C45710  -1.455   6.701   7.694 -0.6120 -0.7657  0.2217
  332MOL0     C45711  -1.575   6.680   7.764 -0.3787  0.2817  0.4669
  332MOL0     C45712  -1.686   6.605   7.722  0.3612 -0.9101  0.7562
  332MOL0     C45713  -1.668   6.533   7.605  0.4559 -0.1642  0.8299
  332MOL0     O45714  -1.770   6.449   7.552 -0.3162 -0.2950  0.6163
  332MOL0     C45715  -1.856   6.359   7.620  0.1206  0.0059  0.6535
  332MOL0     C45716  -1.783   6.225   7.639  0.9337 -0.4657  0.0937
  332MOL0     C45717  -1.835   6.152   7.766 -0.6173  0.2431 -0.3124
  332MOL0     C45718  -1.988   6.117   7.761  0.7558  0.2751 -0.7709
  332MOL0     C45719  -2.040   6.063   7.899 -0.4469  0.2634 -0.2976
  332MOL0     C45720  -2.060   6.161   8.017  0.0274 -0.8487  0.5990
  332MOL0     C45721  -2.081   6.102   8.158  0.8049 -0.2893 -0.1072
  332MOL0     C45722  -2.041   6.193   8.273  0.3537 -1.0210 -0.1520
  332MOL0    Cl45723  -2.085   6.364   8.279  0.0911 -0.1296  0.2834
  332MOL0     C45724  -1.555   6.558   7.529 -0.8414  0.0575 -0.4969
  332MOL0     C45725  -1.444   6.631   7.572 -0.2528  0.3212  0.4480
  332MOL0     O45726  -1.473   6.962   7.726 -0.0167 -0.5177  0.9910
  332MOL0     C45727  -1.250   7.127   7.700  0.8206  0.5258 -0.9737
  332MOL0     C45728  -1.141   7.207   7.657  0.9270  0.6030  0.4831
  332MOL0     N45729  -0.759   7.429   8.162 -0.3518  1.4133 -0.2479
  332MOL0     N45730  -0.756   7.368   8.280 -1.2012  0.5449 -0.8575
  332MOL0     C45731  -0.038   6.369   8.498 -1.2774  0.1170 -0.3885
  332MOL0     C45732  -0.006   6.230   8.523  0.9424 -0.1220  0.1161
  332MOL0     C45733   0.021   5.789   8.384 -0.3663  0.4493 -0.5680
  332MOL0     C45734  -0.008   5.737   8.514 -0.7396 -0.1250 -0.1243
  332MOL0     C45735   0.050   5.615   8.549 -0.5594  0.8650  0.2677
  332MOL0     C45736   0.100   5.520   8.457 -0.7471  0.3371 -0.4764
  332MOL0     O45737   0.154   5.397   8.497 -0.0461  0.3522  0.2751
  332MOL0     C45738   0.276   5.398   8.575 -1.2244  0.6084 -0.6247
  332MOL0     C45739   0.389   5.372   8.463 -0.1923 -0.2144 -0.3247
  332MOL0     C45740   0.518   5.320   8.528  0.4073  0.1789 -0.9041
  332MOL0     C45741   0.597   5.430   8.598 -0.1183 -1.0351 -0.3173
  332MOL0     C45742   0.717   5.474   8.531  0.1142  0.0913  0.7407
  332MOL0     C45743   0.820   5.520   8.479  0.4664  0.8860  1.1612
  332MOL0     C45744   0.121   5.563   8.330  0.2779 -0.1182  0.6075
  332MOL0     C45745   0.085   5.699   8.289 -0.4512 -0.0834  0.0589
  332MOL0     C45746   0.105   5.732   8.146  0.4281  0.5859  0.6622
  332MOL0     H45747  -0.268   6.085   8.359  2.1402 -1.7911 -0.5959
  332MOL0     H45748  -0.312   6.338   8.306  0.3256  1.7753  0.5979
  332MOL0     H45749  -0.016   6.664   8.425  3.0170 -0.9018  3.3647
  332MOL0     H45750  -0.077   6.607   8.574 -0.3609 -1.8087  0.5534
  332MOL0     H45751  -0.297   6.734   8.545  1.0148 -2.5290  1.3321
  332MOL0     H45752  -0.162   6.828   8.562 -1.7573 -1.0449  1.2307
  332MOL0     H45753  -0.166   6.803   8.281 -1.2990  0.3333 -2.0627
  332MOL0     H45754  -0.330   6.782   8.312  1.0284  0.5994 -2.5345
  332MOL0     H45755  -0.343   6.988   8.455 -0.5441 -4.3507  0.3692
  332MOL0     H45756  -0.183   7.029   8.391 -0.6241  1.0574  1.0424
  332MOL0     H45757  -0.419   6.996   8.209 -1.4833  0.0905  2.5104
  332MOL0     H45758  -0.251   7.051   8.167 -0.9284 -0.1363 -1.3943
  332MOL0     H45759  -0.268   7.245   8.282 -0.4237 -1.2104 -0.2696
  332MOL0     H45760  -0.403   7.225   8.164  0.0648 -1.5798 -1.2694
  332MOL0     H45761  -0.464   7.358   8.347  1.2894 -1.2656 -2.0235
  332MOL0     H45762  -0.419   7.232   8.470 -3.4492 -0.8382  1.4706
  332MOL0     H45763  -0.590   7.082   8.348 -0.2274 -0.3454 -0.3716
  332MOL0     H45764  -0.649   7.211   8.469 -2.9900 -3.1345 -1.2222
  332MOL0     H45765  -0.575   7.182   8.081  0.7929  0.3786  0.3298
  332MOL0     H45766  -0.560   7.390   7.910 -0.2644  0.3419  2.1779
  332MOL0     H45767  -0.705   7.499   7.916 -0.0969  0.6421  1.6957
  332MOL0     H45768  -0.686   7.205   7.827  1.8092  0.0994  0.3491
  332MOL0     H45769  -0.839   7.282   7.848  0.1417  0.1601 -1.1791
  332MOL0     H45770  -0.755   7.447   7.656  1.2526  1.7723 -1.6823
  332MOL0     H45771  -0.612   7.357   7.659  0.8610 -2.8202  0.7287
  332MOL0     H45772  -0.773   7.251   7.483 -0.4388 -2.8618 -0.8177
  332MOL0     H45773  -0.761   7.141   7.626  2.6320 -0.1375 -1.2189
  332MOL0     H45774  -0.890   6.975   7.639  0.9552  2.0154 -3.0637
  332MOL0     H45775  -0.960   6.770   7.723  0.7295  2.7267 -1.2917
  332MOL0     H45776  -1.079   6.745   7.592 -4.0848  0.5285  0.5263
  332MOL0     H45777  -1.119   6.739   7.774 -3.4625  1.7160 -1.1832
  332MOL0     H45778  -1.578   6.740   7.854  1.4843 -2.0143  2.2005
  332MOL0     H45779  -1.778   6.594   7.779  0.2105 -0.9279  0.5123
  332MOL0     H45780  -1.894   6.395   7.716  0.7602  2.7701 -0.0253
  332MOL0     H45781  -1.943   6.336   7.558  0.6637 -3.5544  0.9826
  332MOL0     H45782  -1.781   6.155   7.555 -0.5299 -2.6826  1.7787
  332MOL0     H45783  -1.682   6.252   7.673  0.7205 -1.4208  1.6142
  332MOL0     H45784  -1.814   6.209   7.857 -0.3138  0.7207 -0.6760
  332MOL0     H45785  -1.775   6.062   7.778  1.8873  1.8504  0.0956
  332MOL0     H45786  -1.992   6.039   7.684  3.2743 -3.6473  2.6081
  332MOL0     H45787  -2.055   6.199   7.733  1.2846 -0.1441 -3.5656
  332MOL0     H45788  -2.134   6.013   7.879 -0.2009  0.1485 -1.2031
  332MOL0     H45789  -1.974   5.987   7.943 -1.7172 -0.3534  0.5809
  332MOL0     H45790  -2.144   6.229   8.002 -0.6765 -2.0566 -1.2099
  332MOL0     H45791  -1.982   6.238   8.025 -1.3467  0.7115 -0.3285
  332MOL0     H45792  -2.026   6.008   8.165  3.9525  1.1704 -2.4360
  332MOL0     H45793  -2.189   6.091   8.169  1.0394 -0.7214  2.3894
  332MOL0     H45794  -1.931   6.191   8.266  0.3154 -1.0885 -0.7946
  332MOL0     H45795  -2.075   6.158   8.371 -0.3322 -1.4510 -0.5384
  332MOL0     H45796  -1.537   6.495   7.442 -0.0249 -2.3063  1.2759
  332MOL0     H45797  -1.351   6.641   7.517  0.3392 -0.1226  1.3451
  332MOL0     H45798  -1.335   7.191   7.721  2.1051  2.6582 -2.0330
  332MOL0     H45799  -1.161   7.313   7.657  0.3886  0.5040  0.4658
  332MOL0     H45800   0.038   6.438   8.533 -1.0650  0.2688 -1.1209
  332MOL0     H45801   0.081   6.205   8.583  0.2514  0.2876  1.3188
  332MOL0     H45802  -0.052   5.796   8.594 -2.1878  0.7995 -1.5596
  332MOL0     H45803   0.058   5.597   8.655  1.5759  0.3955  0.0692
  332MOL0     H45804   0.293   5.499   8.616 -0.6467 -0.5149  2.1702
  332MOL0     H45805   0.266   5.339   8.667  0.1640 -0.5949 -1.2100
  332MOL0     H45806   0.415   5.466   8.413  2.1637 -1.5389 -1.7459
  332MOL0     H45807   0.367   5.295   8.388 -2.3952  2.8083 -3.0560
  332MOL0     H45808   0.500   5.238   8.598 -0.0966 -1.9488 -3.3668
  332MOL0     H45809   0.571   5.268   8.448  0.2897 -1.6208  0.1485
  332MOL0     H45810   0.627   5.392   8.696 -1.5439 -0.8944  0.1922
  332MOL0     H45811   0.537   5.520   8.614 -0.7974 -2.0128  4.0317
  332MOL0     H45812   0.907   5.559   8.430 -0.1858  0.5685 -0.2956
  332MOL0     H45813   0.175   5.501   8.259  1.9188  3.0874 -1.1357
  332MOL0     H45814   0.010   5.766   8.104 -1.2093 -0.6605  3.1339
  332MOL0     H45815   0.185   5.807   8.149  2.1579 -1.0852 -0.8181
  332MOL0     H45816   0.138   5.639   8.098  0.4609  0.2483  1.3169
  333MOL0     O45817  10.761   8.903   7.579 -0.2463  0.3327  0.9567
  333MOL0     C45818  10.793   8.946   7.471 -0.4066 -1.0773  0.6652
  333MOL0     O45819  10.736   9.052   7.411 -0.6097 -0.0024 -0.6549
  333MOL0     C45820  10.613   9.106   7.469 -0.7514 -0.0806 -0.6619
  333MOL0     C45821  10.607   9.231   7.530  0.0971  1.1354  0.6326
  333MOL0     C45822  10.481   9.287   7.572 -0.2270  0.8578 -0.4217
  333MOL0     C45823  10.362   9.209   7.561  0.2052  0.3410  0.1063
  333MOL0     O45824  10.235   9.256   7.590  0.3579  0.0505  0.8051
  333MOL0     C45825  10.150   9.165   7.654  1.3973 -0.1899 -1.0719
  333MOL0     C45826  10.076   9.226   7.782 -0.0754 -0.8893 -0.6185
  333MOL0     C45827   9.990   9.138   7.873  0.5578 -0.3339 -0.4876
  333MOL0     C45828   9.887   9.204   7.969 -0.1735  0.0761 -0.1735
  333MOL0     C45829   9.828   9.094   8.047  0.6213  0.2137  0.5657
  333MOL0     C45830   9.720   9.145   8.144 -0.3400 -0.2208 -0.4405
  333MOL0     C45831   9.660   9.034   8.225  0.2377 -0.0229  0.3869
  333MOL0     C45832   9.532   9.090   8.285 -0.0026 -0.4179 -0.6367
  333MOL0     N45833   9.455   8.977   8.358  0.2667  0.5477  0.2517
  333MOL0     C45834   9.358   8.889   8.301  0.5925 -0.8214  0.0293
  333MOL0     C45835   9.292   8.840   8.406  0.3474 -0.1260 -0.2616
  333MOL0     C45836   9.175   8.753   8.399  0.5433  0.1806  0.0298
  333MOL0     C45837   9.128   8.688   8.529  0.0356 -0.5179  0.7014
  333MOL0     C45838   9.026   8.787   8.604  0.3312 -0.8725  0.3219
  333MOL0     C45839   8.885   8.792   8.557 -0.1055  0.2843 -0.2343
  333MOL0     O45840   8.831   8.656   8.528  0.0286  0.5422 -0.7120
  333MOL0     C45841   8.717   8.626   8.611 -0.7097  1.0250  1.1583
  333MOL0     C45842   8.598   8.692   8.630  0.5793 -0.0796 -0.0154
  333MOL0     C45843   8.503   8.638   8.715  0.6351  0.4073 -0.1590
  333MOL0     C45844   8.375   8.708   8.718 -0.8266  0.2254  0.5738
  333MOL0     C45845   8.516   8.506   8.767  0.2684  0.3009  0.5977
  333MOL0     C45846   8.400   8.440   8.841 -1.1853  0.3189  0.4109
  333MOL0     O45847   8.440   8.348   8.937  0.1215  0.7525 -0.5300
  333MOL0     C45848   8.333   8.304   9.014 -0.0176 -0.6934  0.4185
  333MOL0     C45849   8.300   8.365   9.138 -0.1090 -0.4428 -0.1053
  333MOL0     C45850   8.193   8.323   9.220 -0.5415  0.8051  0.8850
  333MOL0     C45851   8.116   8.216   9.172  0.7281  1.0235 -0.4032
  333MOL0     O45852   8.005   8.149   9.228 -0.5481  0.2352  0.2180
  333MOL0     C45853   7.945   8.229   9.324  0.3768 -0.4864  0.9318
  333MOL0     C45854   7.820   8.162   9.363 -0.1143  0.4043  0.5049
  333MOL0     C45855   7.753   8.236   9.485  0.6119 -0.4305 -0.0933
  333MOL0     C45856   7.615   8.170   9.509  0.2869 -0.1398 -0.2380
  333MOL0     C45857   7.501   8.245   9.435  0.5716  0.1191 -0.0970
  333MOL0     C45858   7.368   8.160   9.417 -1.2988 -1.1465  0.4792
  333MOL0     C45859   7.294   8.146   9.544  0.2448 -0.7566  0.0787
  333MOL0     C45860   7.180   8.244   9.555  0.8690 -0.5718 -0.3125
  333MOL0    Cl45861   7.212   8.417   9.580 -0.5611  0.1635 -0.3177
  333MOL0     C45862   8.147   8.159   9.047 -0.4442  0.3925 -0.5190
  333MOL0     C45863   8.255   8.198   8.967 -0.0741 -0.2546 -0.9754
  333MOL0     O45864   8.289   8.461   8.801 -0.5618 -0.8554  1.4547
  333MOL0     C45865   8.643   8.442   8.748  0.9778 -0.0647 -0.3723
  333MOL0     C45866   8.739   8.503   8.671  0.9388  0.1064  0.5855
  333MOL0     N45867   9.366   8.872   8.520  0.1503  0.5227  0.6943
  333MOL0     N45868   9.471   8.941   8.491  0.8466  0.6524 -0.2463
  333MOL0     C45869  10.370   9.076   7.508 -0.2919  0.2489 -0.2138
  333MOL0     C45870  10.492   9.034   7.461 -0.3352 -1.1052  0.6406
  333MOL0     C45871  10.905   8.885   7.392  0.4603  0.0431  0.3037
  333MOL0     C45872  10.856   8.821   7.275 -0.3373  0.2403 -0.8738
  333MOL0     C45873  10.947   8.758   7.187 -0.7919 -0.2142  0.2292
  333MOL0     C45874  11.091   8.747   7.215  1.0215 -0.1361 -0.1543
  333MOL0     O45875  11.187   8.702   7.135  0.5453 -0.1828 -0.3773
  333MOL0     C45876  11.153   8.680   7.002 -0.3685  0.5470  0.4698
  333MOL0     C45877  11.278   8.635   6.937  0.1157 -0.4504 -0.4170
  333MOL0     C45878  11.246   8.564   6.798  0.3443 -0.3508 -0.2979
  333MOL0     C45879  11.380   8.554   6.723  0.4036 -0.2636 -0.8283
  333MOL0     C45880  11.357   8.457   6.611 -0.1280 -0.8296 -0.3296
  333MOL0     C45881  11.336   8.377   6.523  0.5716 -0.9700  0.7699
  333MOL0     C45882  11.136   8.799   7.341  0.3982 -0.2929  0.0379
  333MOL0     C45883  11.043   8.867   7.430 -0.1836  1.0802  0.2699
  333MOL0     C45884  11.089   8.912   7.565 -0.0907  1.1213  0.6400
  333MOL0     H45885  10.703   9.281   7.528  0.3008  0.8048 -1.9392
  333MOL0     H45886  10.465   9.390   7.601 -3.0694  0.4572 -0.1761
  333MOL0     H45887  10.207   9.078   7.690  1.1751  0.8241  2.0568
  333MOL0     H45888  10.068   9.123   7.596  0.7288 -1.9563  1.0102
  333MOL0     H45889  10.152   9.275   7.844  1.7860 -0.5641 -3.0048
  333MOL0     H45890  10.007   9.303   7.747 -2.7513 -2.6679  0.4410
  333MOL0     H45891   9.937   9.069   7.807  2.1647 -0.7715 -1.3788
  333MOL0     H45892  10.065   9.089   7.936  2.5304  1.5444 -1.2338
  333MOL0     H45893   9.924   9.277   8.041 -4.4921  0.3157  2.1191
  333MOL0     H45894   9.818   9.270   7.915 -0.0624 -0.3913 -0.9175
  333MOL0     H45895   9.905   9.040   8.103 -0.4181 -0.9028  0.9771
  333MOL0     H45896   9.779   9.025   7.978  0.7196 -0.0424  0.7484
  333MOL0     H45897   9.758   9.216   8.218 -2.6989  0.7436 -0.0497
  333MOL0     H45898   9.644   9.194   8.082 -1.7171 -3.3516 -1.4452
  333MOL0     H45899   9.721   9.002   8.311 -1.0919 -1.2662  0.9134
  333MOL0     H45900   9.636   8.941   8.172 -0.8678  0.5802 -0.1946
  333MOL0     H45901   9.564   9.176   8.344  2.9828 -2.2414  0.5855
  333MOL0     H45902   9.464   9.128   8.207 -0.2313  2.0969  0.6890
  333MOL0     H45903   9.336   8.883   8.195  0.5994  3.1337 -0.3546
  333MOL0     H45904   9.199   8.676   8.326 -2.0169 -0.8804  0.1829
  333MOL0     H45905   9.091   8.817   8.368  0.2727  0.6383  1.5875
  333MOL0     H45906   9.076   8.592   8.522 -0.7824 -0.0627  0.4421
  333MOL0     H45907   9.202   8.669   8.608 -1.6085  3.9167  3.7121
  333MOL0     H45908   9.025   8.782   8.713 -0.9444  6.5822  1.1429
  333MOL0     H45909   9.071   8.885   8.587  0.5140 -0.7988  1.2019
  333MOL0     H45910   8.825   8.842   8.633  2.3816 -1.4243  3.1027
  333MOL0     H45911   8.893   8.861   8.473 -2.8456  0.8443 -0.1239
  333MOL0     H45912   8.599   8.793   8.589  1.8106 -0.1964 -0.3030
  333MOL0     H45913   8.349   8.722   8.823 -0.0874  1.0448  0.6590
  333MOL0     H45914   8.292   8.665   8.661  0.3751  1.1104 -1.9473
  333MOL0     H45915   8.385   8.810   8.679  1.3965  1.1291  3.1890
  333MOL0     H45916   8.353   8.455   9.165 -1.2006  0.0200  0.5405
  333MOL0     H45917   8.183   8.371   9.317  4.4763  0.7402  1.7048
  333MOL0     H45918   8.021   8.234   9.403  0.9952 -2.5125  0.5455
  333MOL0     H45919   7.914   8.326   9.286  3.4968  0.3594  0.2314
  333MOL0     H45920   7.746   8.170   9.284 -1.2778 -1.2860  1.3611
  333MOL0     H45921   7.842   8.058   9.392 -2.3627  0.1111  1.3421
  333MOL0     H45922   7.753   8.344   9.475 -2.0111 -0.4956 -1.5780
  333MOL0     H45923   7.813   8.219   9.576  3.6291  0.1701 -1.8248
  333MOL0     H45924   7.601   8.171   9.618  0.7095  1.9940 -0.1481
  333MOL0     H45925   7.607   8.065   9.481 -1.0852  0.0147 -0.4985
  333MOL0     H45926   7.485   8.335   9.495  0.0269 -0.2424  0.3154
  333MOL0     H45927   7.537   8.281   9.338  3.1435  0.0366  0.7496
  333MOL0     H45928   7.387   8.063   9.370 -2.1097 -0.6325 -0.9833
  333MOL0     H45929   7.307   8.216   9.346  2.9927 -0.8285 -3.3810
  333MOL0     H45930   7.360   8.171   9.628  0.5292  1.3426 -0.7160
  333MOL0     H45931   7.248   8.047   9.550 -1.1486 -0.1876 -0.8037
  333MOL0     H45932   7.114   8.199   9.629 -0.7642 -3.5251 -3.2859
  333MOL0     H45933   7.117   8.231   9.467 -2.0944  0.4776  1.5179
  333MOL0     H45934   8.089   8.078   9.004  0.1810 -0.1976 -0.2705
  333MOL0     H45935   8.272   8.159   8.868  0.9893  2.6255 -2.0156
  333MOL0     H45936   8.665   8.347   8.796 -1.4448  0.2568  1.5389
  333MOL0     H45937   8.832   8.453   8.646  1.9961 -0.4038  4.7674
  333MOL0     H45938  10.282   9.019   7.482  0.3826 -0.6864 -0.5013
  333MOL0     H45939  10.490   8.942   7.402  0.7064  0.6230 -2.3064
  333MOL0     H45940  10.750   8.828   7.253 -1.7414 -0.3390  4.2450
  333MOL0     H45941  10.915   8.721   7.090  1.7277  0.7857 -1.0846
  333MOL0     H45942  11.072   8.606   6.998  0.6731 -0.5513 -2.2764
  333MOL0     H45943  11.124   8.764   6.939  0.3138 -0.7141 -1.6164
  333MOL0     H45944  11.333   8.563   6.998  1.1556  1.5806  1.2039
  333MOL0     H45945  11.347   8.718   6.922 -1.3017  0.7178 -0.7438
  333MOL0     H45946  11.207   8.463   6.815 -0.1953 -0.1180 -0.1530
  333MOL0     H45947  11.180   8.612   6.726  1.2038 -0.2676 -1.0579
  333MOL0     H45948  11.456   8.496   6.776  0.9117  1.1335  0.0530
  333MOL0     H45949  11.422   8.653   6.701  0.1054  0.6183  2.1529
  333MOL0     H45950  11.308   8.299   6.455 -1.2218  0.6285 -0.4476
  333MOL0     H45951  11.239   8.785   7.375  1.0065 -0.2784 -1.6881
  333MOL0     H45952  11.031   8.991   7.614 -1.4648  1.1267 -0.9162
  333MOL0     H45953  11.097   8.826   7.631 -2.1704 -2.1469 -2.9675
  333MOL0     H45954  11.191   8.954   7.560 -0.0867  1.0821  0.3226
  334MOL0     O45955   3.438   8.553   8.468  0.4336  0.3648 -0.6373
  334MOL0     C45956   3.512   8.462   8.435 -0.1313 -0.4599  0.3455
  334MOL0     O45957   3.645   8.477   8.416 -0.3650  0.1715 -0.5269
  334MOL0     C45958   3.727   8.586   8.435 -0.1274 -0.1098 -0.2132
  334MOL0     C45959   3.704   8.690   8.525  0.0610 -1.1240 -0.3598
  334MOL0     C45960   3.815   8.766   8.573 -0.1097 -0.3777  0.4215
  334MOL0     C45961   3.946   8.751   8.518  1.0863  0.6590  0.2575
  334MOL0     O45962   4.059   8.812   8.560 -1.4558  0.4958 -0.6459
  334MOL0     C45963   4.058   8.907   8.668 -0.2989 -0.8666  0.2063
  334MOL0     C45964   4.194   8.983   8.685 -0.2191  0.2450 -0.2301
  334MOL0     C45965   4.317   8.895   8.660 -0.7173 -0.2434  0.1292
  334MOL0     C45966   4.453   8.974   8.662 -0.0857 -0.2586 -0.3688
  334MOL0     C45967   4.499   8.962   8.807  0.3723  0.0058 -0.1826
  334MOL0     C45968   4.614   9.055   8.816 -1.3472 -0.6862  0.4652
  334MOL0     C45969   4.678   9.060   8.953 -0.1129 -0.1015 -0.4682
  334MOL0     C45970   4.609   9.130   9.062  0.6136 -0.9182  0.4333
  334MOL0     N45971   4.660   9.092   9.197 -0.4285 -0.4243  0.7392
  334MOL0     C45972   4.644   8.974   9.248  0.1468  0.4644 -0.2535
  334MOL0     C45973   4.724   8.976   9.358  0.5130 -0.0001  0.5504
  334MOL0     C45974   4.726   8.861   9.460  0.3344  0.4428  0.5600
  334MOL0     C45975   4.639   8.900   9.588 -0.6299 -0.0566  1.6354
  334MOL0     C45976   4.666   8.786   9.692  0.4530  0.0835  0.5765
  334MOL0     C45977   4.696   8.644   9.639  0.3117  0.0273 -0.7431
  334MOL0     O45978   4.602   8.594   9.546 -0.2804  0.7828 -0.6630
  334MOL0     C45979   4.638   8.479   9.486 -0.1367  0.7520  0.0746
  334MOL0     C45980   4.658   8.365   9.552 -0.0698 -0.6392  0.2194
  334MOL0     C45981   4.682   8.250   9.480  0.0625  0.7754  0.1247
  334MOL0     C45982   4.708   8.121   9.557  0.1760 -0.1218 -0.4670
  334MOL0     C45983   4.673   8.244   9.344  0.0275 -0.1569  0.2876
  334MOL0     C45984   4.678   8.117   9.270  0.5317 -0.3021 -0.1000
  334MOL0     O45985   4.780   8.101   9.185 -0.0785 -1.0478  0.5088
  334MOL0     C45986   4.801   7.993   9.104 -0.9336  0.0604 -0.2579
  334MOL0     C45987   4.754   7.868   9.137  0.5492 -0.5337  0.2840
  334MOL0     C45988   4.786   7.755   9.065 -0.2683 -0.3412 -1.3336
  334MOL0     C45989   4.864   7.773   8.952 -0.2800 -0.1609  0.1862
  334MOL0     O45990   4.898   7.662   8.885  0.9848  0.2121  1.3681
  334MOL0     C45991   4.995   7.586   8.959  0.1267  0.4488  0.2198
  334MOL0     C45992   5.032   7.466   8.866  0.5803 -0.8530  0.1037
  334MOL0     C45993   5.142   7.523   8.773  0.1806  0.6780 -0.1628
  334MOL0     C45994   5.169   7.427   8.653 -0.3740 -0.4388  0.1839
  334MOL0     C45995   5.230   7.289   8.677  0.1995 -1.3465 -0.3158
  334MOL0     C45996   5.382   7.287   8.671 -0.4147  0.4456 -0.1296
  334MOL0     C45997   5.431   7.138   8.637  0.9449 -0.0735 -0.0762
  334MOL0     C45998   5.589   7.120   8.643 -0.3610 -0.1399  0.4818
  334MOL0    Cl45999   5.643   6.952   8.661  0.8752  0.1135 -0.0164
  334MOL0     C46000   4.904   7.901   8.911 -0.4280  0.7060  0.2224
  334MOL0     C46001   4.869   8.008   8.986  0.2523 -0.7650 -0.0770
  334MOL0     O46002   4.593   8.036   9.294 -0.2324 -0.5199 -0.0698
  334MOL0     C46003   4.665   8.367   9.270  0.8351 -0.5391 -0.6888
  334MOL0     C46004   4.649   8.485   9.346  0.1855 -0.0428  0.7065
  334MOL0     N46005   4.792   9.095   9.366 -0.6231 -0.0638 -0.0635
  334MOL0     N46006   4.756   9.161   9.260  0.2483  0.1126 -0.8455
  334MOL0     C46007   3.956   8.657   8.418 -1.1010  0.5192 -0.5961
  334MOL0     C46008   3.857   8.570   8.382  0.5473 -0.2773  0.1852
  334MOL0     C46009   3.452   8.324   8.416 -0.7178  0.3602 -0.6761
  334MOL0     C46010   3.355   8.285   8.512 -0.3727 -0.0154  0.2465
  334MOL0     C46011   3.307   8.153   8.497  0.5217 -0.4395  0.2697
  334MOL0     C46012   3.340   8.071   8.388  0.9856 -0.4406 -0.5698
  334MOL0     O46013   3.285   7.942   8.376 -0.4482  0.7224 -0.1445
  334MOL0     C46014   3.204   7.875   8.474  0.9783 -0.0184  0.2279
  334MOL0     C46015   3.150   7.760   8.403 -0.4035 -0.7361 -0.4599
  334MOL0     C46016   3.067   7.802   8.287  0.3612 -0.0285 -0.2016
  334MOL0     C46017   2.970   7.909   8.316 -0.1007 -1.1299 -0.0210
  334MOL0     C46018   2.881   7.945   8.205  0.0779  1.0947 -0.0667
  334MOL0     C46019   2.814   7.975   8.111 -0.7511  0.4132  0.0385
  334MOL0     C46020   3.426   8.117   8.291  0.0759  0.4073 -1.6911
  334MOL0     C46021   3.483   8.242   8.310  0.4999 -0.4098 -0.1776
  334MOL0     C46022   3.588   8.286   8.209 -0.1080 -0.4279  0.3726
  334MOL0     H46023   3.600   8.706   8.552  0.3856  2.0397 -0.5840
  334MOL0     H46024   3.806   8.847   8.644  2.1378  0.6335 -0.3335
  334MOL0     H46025   4.031   8.848   8.756  0.4279  1.3206  1.9691
  334MOL0     H46026   3.985   8.986   8.647 -1.1778 -0.5733  3.7449
  334MOL0     H46027   4.208   9.071   8.620 -2.0461  1.3590  0.8121
  334MOL0     H46028   4.201   9.026   8.785 -2.1831  1.8683 -0.7227
  334MOL0     H46029   4.307   8.822   8.740 -2.3454  1.7049  1.8327
  334MOL0     H46030   4.324   8.843   8.564  0.6932 -0.9106  0.5621
  334MOL0     H46031   4.525   8.920   8.598 -0.9020 -0.8224 -0.8286
  334MOL0     H46032   4.444   9.076   8.624 -2.6620 -0.2981 -0.0350
  334MOL0     H46033   4.540   8.864   8.833  2.8864  1.1330  0.4540
  334MOL0     H46034   4.420   8.982   8.880 -0.5482  0.2411 -1.2306
  334MOL0     H46035   4.689   9.012   8.748 -2.7220  3.2576 -4.1174
  334MOL0     H46036   4.593   9.157   8.782  0.8400 -0.4433 -0.3576
  334MOL0     H46037   4.776   9.104   8.933  0.1548 -0.9938 -1.1788
  334MOL0     H46038   4.694   8.958   8.988 -0.7032  0.4323  1.5084
  334MOL0     H46039   4.621   9.237   9.045  0.9376 -0.5076  2.9271
  334MOL0     H46040   4.501   9.123   9.054  0.3438  1.9087  0.7139
  334MOL0     H46041   4.584   8.894   9.205  2.4016 -0.1764 -2.4040
  334MOL0     H46042   4.831   8.841   9.484  1.3410 -0.2146 -3.5617
  334MOL0     H46043   4.694   8.771   9.406 -1.9425  1.6214 -0.1660
  334MOL0     H46044   4.654   8.996   9.640  2.2910  0.2383  0.4115
  334MOL0     H46045   4.531   8.894   9.573 -0.6013  0.9104  0.9043
  334MOL0     H46046   4.761   8.818   9.737 -0.5326  2.5292  1.0804
  334MOL0     H46047   4.590   8.784   9.770  0.8925  1.2802  1.0578
  334MOL0     H46048   4.792   8.648   9.586  0.7452  4.8352 -0.0442
  334MOL0     H46049   4.698   8.576   9.724 -0.1680  2.8731  1.7058
  334MOL0     H46050   4.661   8.362   9.661 -2.5409  0.8618  0.3978
  334MOL0     H46051   4.718   8.137   9.665  0.1167  1.4888 -0.6679
  334MOL0     H46052   4.789   8.056   9.524  1.3947 -0.6260  3.0266
  334MOL0     H46053   4.615   8.065   9.557 -2.5782  3.5952  4.5195
  334MOL0     H46054   4.687   7.857   9.222 -2.3736  0.0382 -1.8200
  334MOL0     H46055   4.759   7.655   9.098 -0.3504 -0.1122 -0.6884
  334MOL0     H46056   5.078   7.650   8.990  0.1483  0.0854  0.9357
  334MOL0     H46057   4.947   7.543   9.048  1.7567 -4.3269 -0.8994
  334MOL0     H46058   5.067   7.383   8.928 -0.6354 -3.0782 -1.9939
  334MOL0     H46059   4.943   7.431   8.812  1.1773 -1.0821 -0.7689
  334MOL0     H46060   5.236   7.534   8.828 -0.0896 -1.9001  0.9953
  334MOL0     H46061   5.107   7.621   8.742 -0.7407 -0.2896 -2.3863
  334MOL0     H46062   5.223   7.478   8.573  3.1842 -1.4849  1.6929
  334MOL0     H46063   5.074   7.411   8.602 -0.0354  2.1586 -1.4384
  334MOL0     H46064   5.192   7.214   8.748 -0.7407 -0.0142  0.6470
  334MOL0     H46065   5.195   7.238   8.587 -0.8147 -1.7279  0.2674
  334MOL0     H46066   5.428   7.309   8.768 -0.4534  0.2358 -0.0626
  334MOL0     H46067   5.430   7.351   8.597  0.9734 -1.1745 -0.7008
  334MOL0     H46068   5.396   7.115   8.536  0.6580  0.6616 -0.1528
  334MOL0     H46069   5.373   7.080   8.710 -2.3483  1.7730 -1.0001
  334MOL0     H46070   5.638   7.166   8.730  0.1269  1.5517 -0.6599
  334MOL0     H46071   5.622   7.174   8.554  0.6379  2.4461  2.2922
  334MOL0     H46072   4.956   7.907   8.816 -1.5776  1.8862 -0.3629
  334MOL0     H46073   4.893   8.107   8.949 -3.5250 -0.2300 -1.4767
  334MOL0     H46074   4.687   8.368   9.164 -2.5790  0.5764 -1.5248
  334MOL0     H46075   4.621   8.579   9.299  1.5248 -1.1143 -2.5117
  334MOL0     H46076   4.047   8.651   8.360 -1.8202 -1.4918 -1.6384
  334MOL0     H46077   3.883   8.498   8.305 -3.2358 -1.5195 -0.0964
  334MOL0     H46078   3.335   8.352   8.595  1.9321  0.0764  0.7785
  334MOL0     H46079   3.214   8.128   8.546  0.8894 -1.6287  0.3936
  334MOL0     H46080   3.277   7.836   8.546  1.0470 -1.9154 -0.8192
  334MOL0     H46081   3.132   7.945   8.520 -2.4682 -2.0331 -1.7291
  334MOL0     H46082   3.104   7.709   8.489 -0.8954  1.7115  0.8281
  334MOL0     H46083   3.235   7.699   8.371 -0.1261 -1.2919  1.1902
  334MOL0     H46084   3.130   7.825   8.200 -1.6853  1.2440 -1.4300
  334MOL0     H46085   3.013   7.711   8.257  1.7909 -1.4420  1.2690
  334MOL0     H46086   3.024   8.003   8.330 -2.8840  0.2355  2.5527
  334MOL0     H46087   2.903   7.878   8.396 -2.3851  1.6182 -0.7024
  334MOL0     H46088   2.762   8.009   8.023 -0.2988  0.9744 -0.0261
  334MOL0     H46089   3.461   8.054   8.209 -1.6598 -0.3969 -1.8612
  334MOL0     H46090   3.684   8.281   8.262 -1.2342  0.5727  2.6819
  334MOL0     H46091   3.588   8.212   8.129 -1.7296  0.8036 -0.8292
  334MOL0     H46092   3.567   8.383   8.163  0.2800 -1.2773 -1.7006
  335MOL0     O46093  10.206   4.872   6.378  0.6187 -0.7353  0.3067
  335MOL0     C46094  10.158   4.979   6.418 -0.2097 -0.7067 -0.0556
  335MOL0     O46095  10.032   5.014   6.398  0.0848  0.7220 -0.6457
  335MOL0     C46096   9.959   4.934   6.314  0.8275 -0.5598  0.6171
  335MOL0     C46097   9.897   4.976   6.195 -0.1232 -0.0776 -0.8409
  335MOL0     C46098   9.813   4.889   6.120 -0.0925 -0.2229 -0.4416
  335MOL0     C46099   9.801   4.755   6.162  1.0636 -0.1911 -0.1921
  335MOL0     O46100   9.723   4.687   6.075 -0.6529  0.4944 -0.4982
  335MOL0     C46101   9.757   4.560   6.026 -0.2259  1.2504  0.0637
  335MOL0     C46102   9.710   4.527   5.882 -0.1284 -0.2609  0.4184
  335MOL0     C46103   9.696   4.381   5.854  0.5584 -0.6697 -0.0155
  335MOL0     C46104   9.663   4.353   5.704 -0.4173  0.3889  0.1815
  335MOL0     C46105   9.677   4.198   5.687 -0.3489  0.1395 -0.5166
  335MOL0     C46106   9.641   4.159   5.545 -0.0546  0.0891  0.0658
  335MOL0     C46107   9.624   4.001   5.521 -0.5576  0.2263 -0.3234
  335MOL0     C46108   9.502   3.945   5.602  0.0728  0.7758  0.5906
  335MOL0     N46109   9.526   3.800   5.629 -0.6159 -0.0117  0.1726
  335MOL0     C46110   9.427   3.708   5.624  0.1427  0.9087  0.7696
  335MOL0     C46111   9.481   3.600   5.694 -0.0254 -0.2165 -0.1055
  335MOL0     C46112   9.417   3.468   5.724 -0.0789  0.7676 -0.2361
  335MOL0     C46113   9.518   3.364   5.762 -0.4514  0.4633  0.0581
  335MOL0     C46114   9.462   3.216   5.752  0.6074  0.2363 -0.3592
  335MOL0     C46115   9.573   3.109   5.766 -0.8921 -0.0452 -0.0792
  335MOL0     O46116   9.634   3.101   5.901  0.1482 -0.3293 -0.1826
  335MOL0     C46117   9.767   3.078   5.914  1.2869 -0.2027 -0.3809
  335MOL0     C46118   9.851   3.018   5.832  0.8677  0.5603  0.5085
  335MOL0     C46119   9.989   3.016   5.853  0.7325 -0.2290 -0.5398
  335MOL0     C46120  10.061   2.963   5.730 -0.6242  1.0956 -0.6237
  335MOL0     C46121  10.042   3.068   5.968  0.0076 -0.1164 -0.3086
  335MOL0     C46122  10.188   3.071   6.012  0.4953 -0.3702 -0.1870
  335MOL0     O46123  10.194   3.069   6.150 -0.0629  0.1306  0.0119
  335MOL0     C46124  10.306   3.075   6.225  0.3661 -1.2900  0.3993
  335MOL0     C46125  10.420   2.992   6.209  0.1865  0.8813 -0.9196
  335MOL0     C46126  10.536   3.007   6.285  0.4063 -0.6568  0.7028
  335MOL0     C46127  10.534   3.091   6.390  0.8837 -0.7026 -0.5144
  335MOL0     O46128  10.652   3.119   6.454  0.8249  0.1742 -1.1984
  335MOL0     C46129  10.646   3.157   6.589  0.1176  0.5388  0.4775
  335MOL0     C46130  10.574   3.060   6.684  0.1312 -0.1753 -0.2477
  335MOL0     C46131  10.622   3.091   6.832 -0.4500  0.2172  0.1814
  335MOL0     C46132  10.536   3.015   6.938  0.1722 -0.4492 -0.9637
  335MOL0     C46133  10.618   2.988   7.064  1.0390  0.6985 -0.1752
  335MOL0     C46134  10.522   2.957   7.175  0.2309  0.7908 -0.0560
  335MOL0     C46135  10.586   2.915   7.302  0.3054  0.0857 -0.4611
  335MOL0     C46136  10.631   3.027   7.396  0.1111 -0.2044  0.8244
  335MOL0    Cl46137  10.716   2.949   7.546 -0.0484 -0.4284  0.5942
  335MOL0     C46138  10.420   3.169   6.421  0.2212 -0.5734  0.2927
  335MOL0     C46139  10.314   3.167   6.334 -0.0216  0.3995  0.3409
  335MOL0     O46140  10.283   3.073   5.930  0.0310 -0.1431 -0.5098
  335MOL0     C46141   9.955   3.129   6.058 -0.2838  0.8237 -0.1389
  335MOL0     C46142   9.824   3.130   6.031 -0.1742  1.1340 -0.7375
  335MOL0     N46143   9.611   3.629   5.731 -0.0578 -0.2891  0.8043
  335MOL0     N46144   9.632   3.750   5.698 -0.5732 -0.0984 -0.4992
  335MOL0     C46145   9.846   4.718   6.290 -0.4560  0.7360  0.7853
  335MOL0     C46146   9.929   4.803   6.355 -0.5249  0.5362  0.6998
  335MOL0     C46147  10.241   5.071   6.506 -0.0475  0.8118  0.8091
  335MOL0     C46148  10.178   5.166   6.590 -0.1685 -0.0389  0.4971
  335MOL0     C46149  10.253   5.234   6.683  0.1865  0.8233  0.6907
  335MOL0     C46150  10.390   5.233   6.675  0.5503 -0.3249  0.2249
  335MOL0     O46151  10.447   5.328   6.747 -0.3508 -0.6687 -0.2717
  335MOL0     C46152  10.526   5.282   6.856 -0.1964  0.6095 -0.1370
  335MOL0     C46153  10.436   5.232   6.971  0.1425  0.0673 -0.0244
  335MOL0     C46154  10.353   5.347   7.029  0.0315  0.4557 -0.3641
  335MOL0     C46155  10.395   5.389   7.172  0.2407  0.4180 -0.3330
  335MOL0     C46156  10.529   5.449   7.179  0.2957  0.5688 -0.3577
  335MOL0     C46157  10.636   5.503   7.176 -0.6725 -0.4919  0.6645
  335MOL0     C46158  10.456   5.150   6.587  0.4568  1.0149 -0.6216
  335MOL0     C46159  10.386   5.060   6.503 -0.5390 -0.9246  0.8661
  335MOL0     C46160  10.472   4.963   6.410  0.3544  0.5749 -0.7264
  335MOL0     H46161   9.914   5.078   6.161  0.9458  0.3597  0.9110
  335MOL0     H46162   9.756   4.923   6.035 -0.4761  1.2529  0.3702
  335MOL0     H46163   9.740   4.467   6.081  4.3118 -0.3758 -0.7893
  335MOL0     H46164   9.866   4.553   6.031 -0.3658 -0.8719  4.1678
  335MOL0     H46165   9.628   4.597   5.862  2.2050  4.6346  5.3065
  335MOL0     H46166   9.786   4.567   5.815 -1.4787 -1.5180 -2.0278
  335MOL0     H46167   9.792   4.341   5.886  2.5741  4.3840  1.1156
  335MOL0     H46168   9.603   4.346   5.900 -0.1518 -0.5982 -1.3343
  335MOL0     H46169   9.558   4.381   5.693 -0.7877 -1.4113 -1.4210
  335MOL0     H46170   9.726   4.407   5.633 -1.7112  1.2565 -0.3412
  335MOL0     H46171   9.632   4.136   5.765  0.4848  1.2752  0.8957
  335MOL0     H46172   9.783   4.173   5.691 -0.0660  1.3290  3.2321
  335MOL0     H46173   9.548   4.212   5.523  0.2014 -0.1206 -1.6727
  335MOL0     H46174   9.710   4.197   5.468 -1.0556  2.1632  0.1079
  335MOL0     H46175   9.714   3.949   5.555  0.4986  0.8103 -2.1125
  335MOL0     H46176   9.617   3.978   5.415  3.1580  1.5669 -1.0230
  335MOL0     H46177   9.495   4.003   5.694 -3.9460  3.4119 -1.1219
  335MOL0     H46178   9.405   3.969   5.556 -1.1514 -0.2437  2.5034
  335MOL0     H46179   9.325   3.713   5.588  0.6797 -1.0746 -1.2777
  335MOL0     H46180   9.357   3.425   5.643 -2.7957 -2.5317  3.1905
  335MOL0     H46181   9.338   3.489   5.796 -0.0668 -2.8598  1.0159
  335MOL0     H46182   9.603   3.363   5.693  0.5176 -1.1794  1.1925
  335MOL0     H46183   9.556   3.378   5.863 -1.0936 -0.3307  0.4297
  335MOL0     H46184   9.388   3.191   5.829  2.3315 -3.6359  0.2873
  335MOL0     H46185   9.408   3.205   5.658  1.5149 -3.9737 -0.5774
  335MOL0     H46186   9.545   3.009   5.733 -0.7235 -0.2248  0.3076
  335MOL0     H46187   9.644   3.144   5.692  0.1278 -3.3975 -0.8609
  335MOL0     H46188   9.817   2.998   5.730 -0.6548  1.5268  0.7899
  335MOL0     H46189  10.003   2.876   5.695 -1.8152  1.3563  0.6123
  335MOL0     H46190  10.156   2.916   5.757 -1.7861 -2.1632 -1.7302
  335MOL0     H46191  10.065   3.046   5.660 -0.2480  1.9102  0.3500
  335MOL0     H46192  10.425   2.912   6.137 -2.9076  0.5803 -0.9172
  335MOL0     H46193  10.630   2.959   6.262  1.0078  0.9818 -0.3883
  335MOL0     H46194  10.753   3.159   6.612 -0.0611  2.9138  1.4792
  335MOL0     H46195  10.611   3.261   6.599  0.8149  0.6564  1.9077
  335MOL0     H46196  10.465   3.064   6.693  0.1255 -1.4455  0.4564
  335MOL0     H46197  10.612   2.958   6.673  3.8634  0.6429  2.8835
  335MOL0     H46198  10.619   3.197   6.857 -0.5821  0.7303 -1.8318
  335MOL0     H46199  10.727   3.065   6.846 -0.1662  0.2559 -1.5923
  335MOL0     H46200  10.501   2.918   6.902 -4.0671 -0.3219  2.1494
  335MOL0     H46201  10.448   3.078   6.955  0.3014 -0.0921 -1.5496
  335MOL0     H46202  10.689   2.911   7.035  2.4105  2.2129 -0.9504
  335MOL0     H46203  10.668   3.081   7.093 -0.2484  0.9845  1.2958
  335MOL0     H46204  10.456   2.874   7.148  1.6571 -0.1764 -0.7399
  335MOL0     H46205  10.459   3.045   7.188 -0.2387  0.1882  2.2854
  335MOL0     H46206  10.670   2.848   7.280  0.7853  1.1424 -2.0463
  335MOL0     H46207  10.509   2.859   7.357  0.9372 -1.8129 -1.4159
  335MOL0     H46208  10.549   3.092   7.428  2.4452  2.7120  1.3548
  335MOL0     H46209  10.699   3.089   7.336  0.5183 -0.7361  0.7314
  335MOL0     H46210  10.416   3.248   6.496 -0.7373 -0.0643 -0.2793
  335MOL0     H46211  10.236   3.241   6.350  0.2648  0.9750 -0.8195
  335MOL0     H46212   9.974   3.174   6.155 -0.6810 -2.1309  1.4478
  335MOL0     H46213   9.764   3.176   6.108  2.8923  2.4455  1.0257
  335MOL0     H46214   9.830   4.612   6.308 -0.7933  0.0845 -2.6260
  335MOL0     H46215   9.985   4.767   6.441 -0.4204  1.1100  0.8723
  335MOL0     H46216  10.071   5.182   6.594  0.0980  2.0379  0.1732
  335MOL0     H46217  10.205   5.307   6.748 -1.3300  0.8124 -0.3686
  335MOL0     H46218  10.581   5.199   6.812  1.6331  1.0590  1.1681
  335MOL0     H46219  10.600   5.352   6.896  2.2965 -1.9049 -0.0939
  335MOL0     H46220  10.504   5.180   7.040  2.2426  1.3313 -1.0161
  335MOL0     H46221  10.361   5.167   6.925 -0.5807  0.6891  0.2698
  335MOL0     H46222  10.354   5.428   6.956  3.2244  1.4403  0.5916
  335MOL0     H46223  10.251   5.307   7.033  0.0634  0.4156  0.3321
  335MOL0     H46224  10.405   5.302   7.236  0.3836  0.2441 -0.5880
  335MOL0     H46225  10.328   5.465   7.214  0.2548  0.3612 -0.2075
  335MOL0     H46226  10.735   5.542   7.186 -1.5284  2.2832 -0.7226
  335MOL0     H46227  10.564   5.158   6.599  0.9665 -3.7082 -0.0648
  335MOL0     H46228  10.467   4.993   6.304  2.7388  1.5079 -0.6265
  335MOL0     H46229  10.577   4.957   6.438  0.5870 -2.3609 -1.8018
  335MOL0     H46230  10.422   4.865   6.412 -4.1192  2.5434  3.1818
  336MOL0     O46231   8.347   6.264   8.804 -0.3779 -0.0457 -0.1687
  336MOL0     C46232   8.379   6.340   8.895  0.4486  0.1564 -0.7060
  336MOL0     O46233   8.497   6.406   8.900  0.6124  0.1347  0.1064
  336MOL0     C46234   8.583   6.395   8.791 -0.3500  0.5405  0.2096
  336MOL0     C46235   8.670   6.281   8.807  0.5643 -0.0760  0.4214
  336MOL0     C46236   8.782   6.272   8.715 -0.2069  0.4660  0.5031
  336MOL0     C46237   8.814   6.377   8.617 -0.2559  0.8536  0.7745
  336MOL0     O46238   8.913   6.351   8.526 -0.6688  0.2796  0.4901
  336MOL0     C46239   8.934   6.447   8.421 -0.3725 -0.6993 -0.1842
  336MOL0     C46240   9.055   6.429   8.334  0.3093  0.3911  0.0379
  336MOL0     C46241   9.021   6.336   8.213 -0.6629  0.7357 -0.5230
  336MOL0     C46242   9.146   6.298   8.138  0.7874 -0.7306  0.3632
  336MOL0     C46243   9.119   6.205   8.026 -0.0303 -0.2759 -0.3103
  336MOL0     C46244   9.055   6.280   7.916  0.7859 -0.2018 -0.3270
  336MOL0     C46245   9.063   6.209   7.779 -0.6898  0.9854  0.6563
  336MOL0     C46246   9.009   6.072   7.767  0.3049  0.8066  0.8532
  336MOL0     N46247   8.998   6.028   7.626 -1.4709 -0.4786  0.1266
  336MOL0     C46248   8.969   5.898   7.596 -0.3389  0.1612 -0.7809
  336MOL0     C46249   9.014   5.877   7.470 -0.3213  1.0816  0.2802
  336MOL0     C46250   9.017   5.735   7.405  0.3062 -0.5828 -0.3244
  336MOL0     C46251   9.000   5.734   7.249  0.2066  0.6700 -0.1412
  336MOL0     C46252   9.062   5.600   7.203  0.7106 -0.5296 -0.2514
  336MOL0     C46253   9.077   5.604   7.048 -0.4861  0.1179 -0.4078
  336MOL0     O46254   9.155   5.703   6.999 -0.2424 -0.1594  0.2361
  336MOL0     C46255   9.095   5.786   6.907  0.6900  0.2295 -0.3657
  336MOL0     C46256   9.067   5.749   6.776  0.2869 -0.5569 -0.3796
  336MOL0     C46257   8.997   5.843   6.682  0.1137 -0.6345 -0.2027
  336MOL0     C46258   8.956   5.786   6.549 -0.1438  0.4867  0.3462
  336MOL0     C46259   8.981   5.976   6.721  0.2724 -0.6535 -0.6825
  336MOL0     C46260   8.944   6.084   6.622  0.3776  0.9706 -1.1710
  336MOL0     O46261   8.954   6.218   6.670 -0.2509  0.1974 -0.0362
  336MOL0     C46262   8.870   6.305   6.605  0.1952  0.7740 -0.5531
  336MOL0     C46263   8.730   6.289   6.602 -0.4005  0.1326  0.0276
  336MOL0     C46264   8.647   6.392   6.567  0.2099 -1.1592  0.7220
  336MOL0     C46265   8.700   6.513   6.530  0.2356 -0.1256  0.7528
  336MOL0     O46266   8.611   6.613   6.499  0.3000  0.1754 -0.2303
  336MOL0     C46267   8.648   6.740   6.442 -0.4675 -0.7284  0.6359
  336MOL0     C46268   8.519   6.814   6.399  0.3392 -0.8853  0.3650
  336MOL0     C46269   8.435   6.750   6.294  0.5087 -0.0432  0.3103
  336MOL0     C46270   8.482   6.738   6.152 -0.1007 -0.5809  0.4646
  336MOL0     C46271   8.362   6.710   6.064 -0.7000  1.0758  0.9980
  336MOL0     C46272   8.416   6.705   5.920 -0.5011  0.9197  0.2705
  336MOL0     C46273   8.320   6.656   5.819  0.4025  0.1749 -0.7122
  336MOL0     C46274   8.371   6.661   5.669  0.9142 -0.6132 -0.6544
  336MOL0    Cl46275   8.237   6.613   5.556  0.1444  0.1414 -0.2243
  336MOL0     C46276   8.839   6.526   6.525 -0.7311  0.3816 -0.1601
  336MOL0     C46277   8.931   6.427   6.569 -0.4972  0.0827 -0.0859
  336MOL0     O46278   8.916   6.053   6.509 -0.0528  0.4150 -0.5873
  336MOL0     C46279   9.030   6.012   6.850 -0.7446 -0.1619 -0.0411
  336MOL0     C46280   9.076   5.924   6.944  0.1669 -0.3338 -0.0205
  336MOL0     N46281   9.064   5.993   7.420 -0.3697 -0.8627  0.5593
  336MOL0     N46282   9.061   6.082   7.517 -0.5982  0.2300 -1.5105
  336MOL0     C46283   8.722   6.481   8.614 -0.2006  0.1454  0.3215
  336MOL0     C46284   8.612   6.499   8.701  0.3972 -0.4024 -0.7270
  336MOL0     C46285   8.275   6.352   9.004  0.2057 -0.2268  0.4101
  336MOL0     C46286   8.131   6.343   8.960 -0.6877 -0.9381  0.0181
  336MOL0     C46287   8.029   6.375   9.052 -0.0440 -0.4589  0.2919
  336MOL0     C46288   8.062   6.410   9.181  0.0176  0.1333  0.2555
  336MOL0     O46289   7.980   6.444   9.283  0.2957  0.3128  0.0947
  336MOL0     C46290   7.837   6.451   9.248 -0.2271 -0.3655 -0.0761
  336MOL0     C46291   7.757   6.496   9.372  0.4980  1.2495 -0.0173
  336MOL0     C46292   7.807   6.632   9.421  0.6035  0.2632  0.1596
  336MOL0     C46293   7.721   6.661   9.544  0.3006  0.0350  0.4808
  336MOL0     C46294   7.769   6.792   9.587 -0.1501 -0.3537  0.4626
  336MOL0     C46295   7.805   6.900   9.620 -0.6723 -0.3153  0.6597
  336MOL0     C46296   8.201   6.415   9.219  0.0300  0.2009 -0.2421
  336MOL0     C46297   8.312   6.393   9.134 -0.1732 -0.1996 -0.5033
  336MOL0     C46298   8.460   6.396   9.192  0.6295  0.6819 -0.1525
  336MOL0     H46299   8.656   6.214   8.891 -0.8214  1.4232  1.4570
  336MOL0     H46300   8.842   6.182   8.711 -0.6027  0.0914  2.2264
  336MOL0     H46301   8.949   6.538   8.480 -0.7916 -2.1003  2.2215
  336MOL0     H46302   8.843   6.459   8.361 -2.0455  1.6460  2.5605
  336MOL0     H46303   9.085   6.525   8.292  1.2941  0.8384  1.6716
  336MOL0     H46304   9.137   6.384   8.391  0.4859 -0.2465 -0.7046
  336MOL0     H46305   8.967   6.246   8.245  1.1447 -0.6881 -1.2753
  336MOL0     H46306   8.955   6.392   8.146  0.5522  0.1536 -2.2989
  336MOL0     H46307   9.209   6.384   8.113  2.4698 -2.1574 -0.5445
  336MOL0     H46308   9.213   6.246   8.207 -1.2889 -0.2336  2.9298
  336MOL0     H46309   9.055   6.120   8.053 -2.2502  1.7175  1.0830
  336MOL0     H46310   9.217   6.174   7.990  0.1413  0.0528 -0.1312
  336MOL0     H46311   8.952   6.292   7.949  0.4023  0.1474 -1.5872
  336MOL0     H46312   9.100   6.378   7.900  1.2728 -0.5403 -1.1395
  336MOL0     H46313   9.168   6.204   7.751 -0.5643  3.6037  0.3850
  336MOL0     H46314   9.013   6.272   7.704  0.5413  1.2585  0.0320
  336MOL0     H46315   9.078   6.004   7.818  0.2943  0.0885 -0.0776
  336MOL0     H46316   8.902   6.072   7.789  0.3982  0.0342  1.3352
  336MOL0     H46317   8.917   5.828   7.660 -0.6225 -1.4492 -2.6877
  336MOL0     H46318   8.944   5.668   7.452  1.1798 -0.6248  1.0260
  336MOL0     H46319   9.115   5.699   7.436  0.4045 -1.5886 -1.6905
  336MOL0     H46320   8.893   5.749   7.230 -0.1946  0.2198  1.5463
  336MOL0     H46321   9.049   5.821   7.204 -0.6456  1.0341 -0.4024
  336MOL0     H46322   9.157   5.570   7.249  0.4369 -2.5837 -0.9353
  336MOL0     H46323   8.995   5.519   7.233  2.8247 -1.8324  1.2820
  336MOL0     H46324   9.123   5.509   7.020  1.2304  0.0862  2.2423
  336MOL0     H46325   8.978   5.601   7.001 -0.9476  3.2635  0.1565
  336MOL0     H46326   9.095   5.649   6.744  2.2423  0.5955 -2.6031
  336MOL0     H46327   9.016   5.832   6.470 -2.3653 -0.4477 -2.0308
  336MOL0     H46328   8.850   5.805   6.526 -0.2126  1.5637  1.4762
  336MOL0     H46329   8.964   5.677   6.537 -3.2323  0.1230  0.6428
  336MOL0     H46330   8.684   6.197   6.637 -0.6216  0.6546  1.1540
  336MOL0     H46331   8.539   6.383   6.574  0.4201 -2.8574  3.4689
  336MOL0     H46332   8.705   6.804   6.510  0.1449  0.3709 -0.8421
  336MOL0     H46333   8.723   6.721   6.364  1.4971 -1.0711  2.5296
  336MOL0     H46334   8.466   6.823   6.494  0.9895 -0.7223  0.7247
  336MOL0     H46335   8.564   6.909   6.369 -0.1667 -0.6576  0.3215
  336MOL0     H46336   8.349   6.816   6.276  0.3328 -0.5794 -0.8791
  336MOL0     H46337   8.406   6.654   6.338  0.7474 -1.0401 -1.6102
  336MOL0     H46338   8.569   6.673   6.134  0.8833 -0.7877  4.7360
  336MOL0     H46339   8.521   6.834   6.117 -3.1011  0.3223 -0.6719
  336MOL0     H46340   8.325   6.612   6.094 -1.4861  0.9799 -0.2359
  336MOL0     H46341   8.290   6.792   6.070 -2.5095 -0.2787 -0.8695
  336MOL0     H46342   8.497   6.631   5.915 -0.8223  0.4663  1.4767
  336MOL0     H46343   8.461   6.802   5.896 -1.6312  0.7263 -3.2965
  336MOL0     H46344   8.237   6.725   5.829  1.0714  0.7082  2.0768
  336MOL0     H46345   8.284   6.558   5.852  0.2109  0.7011  0.6854
  336MOL0     H46346   8.461   6.604   5.645  0.2858 -1.3833 -1.2209
  336MOL0     H46347   8.398   6.765   5.650 -0.4545  0.0301  0.7347
  336MOL0     H46348   8.886   6.618   6.491  0.8936 -1.2159 -2.5691
  336MOL0     H46349   9.038   6.446   6.572 -0.1098 -0.7295 -3.6345
  336MOL0     H46350   9.027   6.113   6.888  0.1319 -0.2570  0.3192
  336MOL0     H46351   9.098   5.966   7.042  0.3491  0.6250 -0.4677
  336MOL0     H46352   8.742   6.566   8.548 -2.8277  3.1489  2.9954
  336MOL0     H46353   8.540   6.580   8.701  0.1658 -0.6072 -0.8716
  336MOL0     H46354   8.103   6.310   8.861  0.0713 -1.9519  0.1167
  336MOL0     H46355   7.924   6.360   9.026  0.4040 -0.0713 -1.9823
  336MOL0     H46356   7.819   6.527   9.170 -0.4185 -0.2468  0.0835
  336MOL0     H46357   7.798   6.353   9.219  0.0587 -0.9178  1.3505
  336MOL0     H46358   7.761   6.418   9.449 -0.4006  1.3044  0.0950
  336MOL0     H46359   7.652   6.500   9.342  0.5278  1.3563 -0.1106
  336MOL0     H46360   7.908   6.618   9.460  1.0314  2.0396 -0.2206
  336MOL0     H46361   7.798   6.710   9.344 -1.1201  0.1641  0.2123
  336MOL0     H46362   7.739   6.585   9.620  1.4492  0.2493  0.4443
  336MOL0     H46363   7.614   6.651   9.522  0.5489 -0.1249 -0.7789
  336MOL0     H46364   7.838   6.999   9.646  0.8526 -0.7093  0.3109
  336MOL0     H46365   8.216   6.439   9.324 -0.5661 -0.6103  0.0353
  336MOL0     H46366   8.531   6.327   9.146  0.8707  2.4455 -2.5871
  336MOL0     H46367   8.503   6.495   9.175  0.0595  1.1077  0.7817
  336MOL0     H46368   8.453   6.389   9.301 -0.3661  3.3082  0.0191
  337MOL0     O46369   7.625   9.416   4.925 -0.4424 -0.9196 -0.1552
  337MOL0     C46370   7.649   9.483   4.824  0.2791 -0.7858 -0.0733
  337MOL0     O46371   7.572   9.465   4.709 -0.5974  0.5423 -0.5529
  337MOL0     C46372   7.485   9.360   4.704  0.3991 -0.8050 -0.3006
  337MOL0     C46373   7.374   9.338   4.791  0.2376  0.1968 -0.0870
  337MOL0     C46374   7.310   9.212   4.776  0.0349 -0.7599 -0.5587
  337MOL0     C46375   7.325   9.127   4.669 -0.2120 -0.4094  0.1282
  337MOL0     O46376   7.261   9.003   4.649 -0.2700 -0.1605 -0.5501
  337MOL0     C46377   7.152   8.961   4.738 -0.3342  0.1481 -0.0399
  337MOL0     C46378   7.020   9.041   4.723 -0.0517  0.0686 -0.6919
  337MOL0     C46379   6.919   8.984   4.826  0.1491 -0.7309 -0.7946
  337MOL0     C46380   6.829   8.885   4.775 -0.7540  0.2052 -0.4936
  337MOL0     C46381   6.744   8.814   4.881 -0.4857 -0.5146 -1.3188
  337MOL0     C46382   6.809   8.682   4.929  0.5838  0.4856 -0.9508
  337MOL0     C46383   6.740   8.620   5.056 -0.0662  0.1591  0.3893
  337MOL0     C46384   6.629   8.522   5.037  1.0396 -0.6182 -1.2385
  337MOL0     N46385   6.557   8.504   5.167  0.0775  0.7936 -0.3936
  337MOL0     C46386   6.442   8.572   5.204  0.0187  0.0068  0.3116
  337MOL0     C46387   6.420   8.537   5.336  0.0659 -0.3586  0.1497
  337MOL0     C46388   6.320   8.592   5.429  0.7440 -0.8969 -0.4769
  337MOL0     C46389   6.177   8.541   5.413  0.9295  0.4901 -0.2000
  337MOL0     C46390   6.105   8.617   5.292  0.8129  0.0049  1.0797
  337MOL0     C46391   5.987   8.530   5.231  0.3918 -1.0360  0.1562
  337MOL0     O46392   5.899   8.525   5.345 -0.4240  0.7260 -0.2646
  337MOL0     C46393   5.784   8.449   5.309 -0.0233 -0.6907 -0.8177
  337MOL0     C46394   5.783   8.321   5.354 -0.0388  0.1090  0.6790
  337MOL0     C46395   5.668   8.238   5.337  0.3604 -0.0105 -0.3147
  337MOL0     C46396   5.686   8.083   5.368  0.3543  0.0322  0.8110
  337MOL0     C46397   5.557   8.299   5.270 -0.1018  0.1999  0.3304
  337MOL0     C46398   5.430   8.229   5.250 -0.0215  0.7561  0.5723
  337MOL0     O46399   5.427   8.118   5.169 -0.7701 -0.1472  0.9309
  337MOL0     C46400   5.313   8.061   5.121 -0.3472  0.5361 -0.3467
  337MOL0     C46401   5.290   7.928   5.138  0.2777  0.1884 -0.2911
  337MOL0     C46402   5.175   7.870   5.085  1.5107  1.0057  0.3696
  337MOL0     C46403   5.093   7.942   5.009  0.3540 -0.1457  0.5235
  337MOL0     O46404   4.983   7.879   4.963  0.2330 -0.0210  0.4759
  337MOL0     C46405   4.898   7.947   4.884 -0.3611 -0.5560 -0.1292
  337MOL0     C46406   4.819   7.838   4.808  0.6445 -0.2400 -0.0278
  337MOL0     C46407   4.716   7.897   4.701 -0.1950 -0.5429 -0.5024
  337MOL0     C46408   4.787   7.945   4.575 -0.2270  0.9376  0.1566
  337MOL0     C46409   4.699   8.041   4.495 -0.6457  0.9796  0.0562
  337MOL0     C46410   4.750   8.078   4.354  0.0607 -0.2096  0.5127
  337MOL0     C46411   4.892   8.137   4.363 -1.0681  0.0179  1.1250
  337MOL0     C46412   4.948   8.175   4.215  0.6307 -0.2224 -0.4626
  337MOL0    Cl46413   4.949   8.025   4.113  0.0609  0.0141 -0.3851
  337MOL0     C46414   5.111   8.088   4.993 -0.1804 -0.5042  0.5783
  337MOL0     C46415   5.221   8.140   5.059 -0.6025  0.5190  0.8594
  337MOL0     O46416   5.328   8.293   5.281  0.0627 -0.4827  0.0739
  337MOL0     C46417   5.570   8.436   5.211  0.2748 -0.3547 -1.1473
  337MOL0     C46418   5.678   8.517   5.246  0.3187 -0.2830 -0.6870
  337MOL0     N46419   6.520   8.444   5.371  0.4519 -0.7684 -0.0160
  337MOL0     N46420   6.604   8.427   5.273  0.8628 -0.3182 -0.4060
  337MOL0     C46421   7.429   9.161   4.591  0.6780  0.2528  0.0382
  337MOL0     C46422   7.514   9.269   4.603 -0.7033 -0.6744  0.8041
  337MOL0     C46423   7.757   9.577   4.832 -0.5262  1.0768 -0.1518
  337MOL0     C46424   7.791   9.633   4.961 -1.5716  0.3447 -0.1500
  337MOL0     C46425   7.917   9.689   4.985  0.0832 -0.1673 -0.1498
  337MOL0     C46426   7.997   9.717   4.873  0.2681 -0.2911 -0.4701
  337MOL0     O46427   8.118   9.764   4.904  0.2140 -0.0667 -0.1358
  337MOL0     C46428   8.118   9.896   4.955 -0.6708  0.1074 -0.3443
  337MOL0     C46429   8.211   9.986   4.875 -0.4526  0.3094 -0.0737
  337MOL0     C46430   8.175  10.132   4.909 -0.0183  0.3164  0.9694
  337MOL0     C46431   8.281  10.235   4.853  0.5752 -0.0460 -0.0923
  337MOL0     C46432   8.308  10.221   4.711  0.2248  0.3207  0.4018
  337MOL0     C46433   8.331  10.186   4.592 -0.0423  0.4741 -0.6949
  337MOL0     C46434   7.955   9.687   4.743 -0.2567 -0.3013  1.4584
  337MOL0     C46435   7.844   9.607   4.724 -0.5742 -0.3847 -0.1747
  337MOL0     C46436   7.821   9.550   4.582  0.6503  0.1349  0.2894
  337MOL0     H46437   7.343   9.407   4.869 -1.1260  0.0423 -0.4818
  337MOL0     H46438   7.233   9.187   4.848 -0.4516  1.1632 -0.3764
  337MOL0     H46439   7.175   8.957   4.844 -2.9824 -0.7360  0.5822
  337MOL0     H46440   7.113   8.864   4.706 -0.5648  0.4364 -0.6525
  337MOL0     H46441   7.033   9.149   4.735  1.7000 -0.3463  2.5523
  337MOL0     H46442   6.973   9.021   4.627 -1.2738  0.2681 -0.1571
  337MOL0     H46443   6.964   8.937   4.914 -0.3681 -0.4908 -0.3960
  337MOL0     H46444   6.854   9.063   4.864  1.2868 -0.1747  0.0556
  337MOL0     H46445   6.760   8.938   4.710 -1.1438  1.8148  1.1557
  337MOL0     H46446   6.878   8.816   4.705  0.7598  1.7210 -0.9898
  337MOL0     H46447   6.644   8.788   4.847 -0.7044  1.4949 -2.3519
  337MOL0     H46448   6.734   8.869   4.975  2.5878 -2.8228  0.5613
  337MOL0     H46449   6.805   8.611   4.846 -0.1236 -0.4186 -0.1804
  337MOL0     H46450   6.913   8.706   4.951  0.3118  1.3153 -0.5506
  337MOL0     H46451   6.709   8.700   5.124 -0.2957 -0.5209  1.1001
  337MOL0     H46452   6.815   8.569   5.117  0.3904 -0.2429 -0.4839
  337MOL0     H46453   6.566   8.566   4.959  0.1525  1.9437  0.7674
  337MOL0     H46454   6.675   8.431   4.996 -1.3157 -1.9188 -1.1636
  337MOL0     H46455   6.373   8.637   5.152  2.0379  1.6060 -0.5308
  337MOL0     H46456   6.326   8.700   5.416  0.3766 -0.7014  0.7953
  337MOL0     H46457   6.348   8.561   5.531  0.5245 -0.6147 -0.3277
  337MOL0     H46458   6.187   8.432   5.405  0.5897  0.2548  1.8221
  337MOL0     H46459   6.114   8.567   5.499  1.7225  1.8243 -0.0064
  337MOL0     H46460   6.065   8.714   5.326 -0.1467 -0.3491  0.9950
  337MOL0     H46461   6.173   8.635   5.208  1.6834  0.5381  1.8765
  337MOL0     H46462   5.948   8.588   5.146  0.4640 -0.1591  0.7031
  337MOL0     H46463   6.009   8.428   5.198 -0.4866 -1.4945  0.9303
  337MOL0     H46464   5.870   8.281   5.405  1.6427  0.4894 -1.6917
  337MOL0     H46465   5.785   8.043   5.344 -0.5662 -1.5202 -0.6250
  337MOL0     H46466   5.609   8.025   5.316  0.9818 -1.5567  1.5807
  337MOL0     H46467   5.663   8.066   5.474 -2.4408  1.2102  0.4618
  337MOL0     H46468   5.363   7.866   5.187  0.7899 -0.4269 -1.7757
  337MOL0     H46469   5.162   7.764   5.106  1.6615  0.8677 -0.2151
  337MOL0     H46470   4.827   8.012   4.936  0.2156  2.2513 -2.5793
  337MOL0     H46471   4.949   8.011   4.811 -0.3891 -0.7968 -0.3619
  337MOL0     H46472   4.896   7.784   4.752  1.3514  0.2691  0.4289
  337MOL0     H46473   4.786   7.763   4.880 -0.5219 -1.2947 -1.5905
  337MOL0     H46474   4.670   7.986   4.745  0.9696 -1.8207  3.7704
  337MOL0     H46475   4.639   7.823   4.680  0.3525 -1.7659  1.5047
  337MOL0     H46476   4.813   7.856   4.517  2.2721  0.7823  1.3541
  337MOL0     H46477   4.879   8.002   4.594  0.1279  0.4425 -0.0414
  337MOL0     H46478   4.597   8.001   4.490 -0.4186  0.3556  0.2451
  337MOL0     H46479   4.691   8.127   4.562 -0.0218  0.5424  0.7099
  337MOL0     H46480   4.672   8.146   4.319  1.1374  1.1093  0.5891
  337MOL0     H46481   4.746   7.986   4.295 -2.5656 -1.7851  2.8925
  337MOL0     H46482   4.953   8.056   4.403  1.3115  1.8856  1.4667
  337MOL0     H46483   4.892   8.220   4.434  1.2150 -0.0299  1.2538
  337MOL0     H46484   5.051   8.209   4.231  0.2637 -0.3587  3.1458
  337MOL0     H46485   4.888   8.252   4.168  0.7897 -0.4423 -1.0347
  337MOL0     H46486   5.043   8.155   4.943  0.0546 -0.5250  0.2300
  337MOL0     H46487   5.256   8.242   5.045  0.4759  0.2192  1.2690
  337MOL0     H46488   5.483   8.481   5.164  0.8562 -0.0064 -1.8987
  337MOL0     H46489   5.688   8.619   5.210  1.9453 -0.4765 -0.8221
  337MOL0     H46490   7.442   9.086   4.513 -2.3139 -0.6361  0.2654
  337MOL0     H46491   7.586   9.281   4.522  0.2295 -0.7602  1.5956
  337MOL0     H46492   7.734   9.615   5.051 -0.1574 -1.8605  0.3784
  337MOL0     H46493   7.947   9.710   5.087  1.0286 -1.1518 -0.2171
  337MOL0     H46494   8.017   9.936   4.950 -1.2794 -0.9864  1.8677
  337MOL0     H46495   8.153   9.898   5.059  3.8648  1.5357 -1.6721
  337MOL0     H46496   8.208   9.971   4.767 -0.8235  0.2943 -0.0605
  337MOL0     H46497   8.314   9.958   4.901 -0.1441  0.1115 -1.4409
  337MOL0     H46498   8.071  10.145   4.881  0.2116  2.4238  0.9665
  337MOL0     H46499   8.189  10.137   5.017 -1.1649 -0.8720  1.2008
  337MOL0     H46500   8.376  10.219   4.906 -0.7689 -0.9355  2.2243
  337MOL0     H46501   8.252  10.339   4.867  1.8834  0.4009 -0.5325
  337MOL0     H46502   8.356  10.158   4.491  2.0771 -0.2692 -0.0152
  337MOL0     H46503   8.028   9.700   4.664  0.8952  3.8410  2.9432
  337MOL0     H46504   7.726   9.595   4.551  0.7667 -1.4839 -2.8213
  337MOL0     H46505   7.903   9.589   4.521 -2.6213  3.9687 -2.2738
  337MOL0     H46506   7.825   9.443   4.560 -2.8556  0.3672 -2.3592
  338MOL0     O46507   0.007   8.804   5.101  0.0443  0.2478 -0.0454
  338MOL0     C46508   0.072   8.890   5.152 -0.3649 -0.1282  0.4606
  338MOL0     O46509   0.083   9.016   5.108 -0.7528 -0.0438 -0.4601
  338MOL0     C46510   0.012   9.055   4.998  0.2459 -0.3994 -0.1073
  338MOL0     C46511  -0.095   9.140   4.984  0.7248  0.0056  0.1377
  338MOL0     C46512  -0.168   9.161   4.869 -0.5301  0.5274  0.9479
  338MOL0     C46513  -0.116   9.093   4.751  0.0339  0.8070  0.0601
  338MOL0     O46514  -0.174   9.096   4.630 -0.1564 -0.5424 -0.0962
  338MOL0     C46515  -0.303   9.047   4.626  1.1042  0.3634  0.6487
  338MOL0     C46516  -0.328   9.003   4.483  0.6786  0.4643  0.5779
  338MOL0     C46517  -0.231   8.898   4.440  0.1894 -0.5881 -0.3311
  338MOL0     C46518  -0.271   8.826   4.304  0.6964 -0.7942 -0.1523
  338MOL0     C46519  -0.178   8.708   4.279  0.0473  0.6635  0.0282
  338MOL0     C46520  -0.207   8.647   4.140 -0.2443 -0.2113 -0.4130
  338MOL0     C46521  -0.158   8.736   4.025 -0.6860 -0.0360 -0.2446
  338MOL0     C46522  -0.170   8.666   3.888  0.2910 -0.2065  0.5204
  338MOL0     N46523  -0.176   8.779   3.783  0.4788  0.7157 -0.0040
  338MOL0     C46524  -0.271   8.792   3.688  0.2562 -0.2511  0.4897
  338MOL0     C46525  -0.212   8.868   3.593  0.8249  0.3033  0.0240
  338MOL0     C46526  -0.300   8.925   3.478 -0.0851  0.4389 -0.2998
  338MOL0     C46527  -0.307   8.831   3.358 -0.1488 -1.2978 -0.1997
  338MOL0     C46528  -0.354   8.685   3.391 -0.1527 -0.1136 -0.5297
  338MOL0     C46529  -0.390   8.613   3.264 -0.9350 -0.7941  0.0515
  338MOL0     O46530  -0.401   8.477   3.296 -0.1615  0.2080 -0.1561
  338MOL0     C46531  -0.463   8.390   3.206  0.3533  0.0873 -0.5913
  338MOL0     C46532  -0.493   8.263   3.256 -0.1112 -0.1387  0.7477
  338MOL0     C46533  -0.557   8.166   3.178  0.5824  0.5067 -0.8204
  338MOL0     C46534  -0.569   8.021   3.239  0.4856  0.9159 -0.5498
  338MOL0     C46535  -0.615   8.203   3.048 -0.8387 -0.3956 -0.4304
  338MOL0     C46536  -0.701   8.127   2.952  1.1262 -0.3096  0.1130
  338MOL0     O46537  -0.769   8.024   3.013  0.5026 -1.3716  0.4624
  338MOL0     C46538  -0.882   7.973   2.944  0.7937  0.3686 -0.9728
  338MOL0     C46539  -0.971   8.047   2.861 -1.0552 -0.4553  0.1845
  338MOL0     C46540  -1.091   7.989   2.814 -0.2114 -0.6750 -0.8270
  338MOL0     C46541  -1.119   7.855   2.837  0.3942  0.0561  0.0508
  338MOL0     O46542  -1.241   7.810   2.791  0.2052  0.6864  0.3263
  338MOL0     C46543  -1.265   7.668   2.769 -0.2572 -0.1798 -0.5388
  338MOL0     C46544  -1.357   7.646   2.653  0.2541 -0.3955 -0.5590
  338MOL0     C46545  -1.296   7.697   2.522  0.2220  0.0608 -0.0344
  338MOL0     C46546  -1.375   7.641   2.404 -0.1772  0.7533 -0.6226
  338MOL0     C46547  -1.279   7.654   2.273 -0.3276 -0.3134  0.6824
  338MOL0     C46548  -1.363   7.632   2.145 -0.5719  0.3945  0.1659
  338MOL0     C46549  -1.444   7.760   2.104  0.2711 -0.2377 -0.1736
  338MOL0     C46550  -1.540   7.709   1.988 -0.7423  0.1561  0.2072
  338MOL0    Cl46551  -1.454   7.664   1.852  0.1815  0.1557  0.5493
  338MOL0     C46552  -1.018   7.784   2.910  0.5007  0.1676  0.1310
  338MOL0     C46553  -0.898   7.834   2.963 -1.1048 -0.0929  0.4400
  338MOL0     O46554  -0.696   8.149   2.829 -0.1937 -0.2686 -0.3977
  338MOL0     C46555  -0.587   8.339   3.006 -0.8838 -0.2364 -0.0310
  338MOL0     C46556  -0.509   8.425   3.084 -0.4582 -0.0642  0.5446
  338MOL0     N46557  -0.094   8.915   3.627 -0.2385 -0.2782 -0.1001
  338MOL0     N46558  -0.075   8.866   3.744  0.7749  0.2293 -0.3779
  338MOL0     C46559  -0.001   9.022   4.762  0.3598 -0.0785  1.0949
  338MOL0     C46560   0.057   8.996   4.886  0.2177 -0.9990  0.7401
  338MOL0     C46561   0.127   8.856   5.290  0.5920  0.1173  0.8581
  338MOL0     C46562   0.045   8.786   5.379  0.3894 -0.1466 -0.1361
  338MOL0     C46563   0.098   8.742   5.506 -0.3276  0.7136 -0.0676
  338MOL0     C46564   0.227   8.785   5.555  0.5206  0.1226  0.1533
  338MOL0     O46565   0.259   8.780   5.693  0.2383  0.3139 -0.0106
  338MOL0     C46566   0.299   8.896   5.762 -0.0657 -0.9641 -0.3478
  338MOL0     C46567   0.173   8.980   5.803  0.0624  0.2997 -0.3423
  338MOL0     C46568   0.196   9.106   5.882  0.1547 -0.3885  0.5674
  338MOL0     C46569   0.103   9.219   5.828 -0.4097  0.3530 -0.8543
  338MOL0     C46570   0.127   9.351   5.898 -0.3004 -0.1845  0.4338
  338MOL0     C46571   0.144   9.462   5.946  0.2015 -0.0071  0.7011
  338MOL0     C46572   0.296   8.867   5.467  0.2745  0.9174 -0.2065
  338MOL0     C46573   0.257   8.894   5.339  0.3428 -0.2066  0.5403
  338MOL0     C46574   0.356   8.968   5.253  0.3772  0.0466  0.4561
  338MOL0     H46575  -0.127   9.183   5.078 -3.4901 -1.2904 -0.4850
  338MOL0     H46576  -0.263   9.213   4.856 -0.1568  1.2340  1.0096
  338MOL0     H46577  -0.379   9.120   4.653 -0.4823 -0.2309 -1.8327
  338MOL0     H46578  -0.332   8.961   4.686 -3.9334  0.2889 -1.3469
  338MOL0     H46579  -0.426   8.960   4.462  1.4165 -0.1754 -1.9550
  338MOL0     H46580  -0.307   9.087   4.416  1.5693  1.0180  1.5369
  338MOL0     H46581  -0.127   8.930   4.434  1.0071 -2.3314  2.4540
  338MOL0     H46582  -0.221   8.831   4.527 -0.2883  1.3082  1.2579
  338MOL0     H46583  -0.370   8.783   4.317  1.5128 -3.1316 -1.0914
  338MOL0     H46584  -0.268   8.902   4.226 -0.6071 -0.5143  0.0575
  338MOL0     H46585  -0.190   8.628   4.353 -0.9813 -0.5559 -1.3923
  338MOL0     H46586  -0.073   8.735   4.270 -0.3533  1.5026 -3.9581
  338MOL0     H46587  -0.152   8.553   4.129  3.4668  1.9865 -3.0273
  338MOL0     H46588  -0.314   8.624   4.129 -0.1792 -0.4569 -0.5479
  338MOL0     H46589  -0.051   8.753   4.042 -0.6097 -1.8964  1.5991
  338MOL0     H46590  -0.210   8.832   4.020 -0.9210 -0.0220  1.6136
  338MOL0     H46591  -0.087   8.599   3.868  2.3726  1.8484  1.7994
  338MOL0     H46592  -0.267   8.614   3.885  0.4211 -0.6902  2.7063
  338MOL0     H46593  -0.367   8.743   3.682 -0.1298  0.6555 -1.2722
  338MOL0     H46594  -0.247   9.017   3.453  1.6232 -0.5207 -0.3555
  338MOL0     H46595  -0.397   8.947   3.524 -0.4240 -0.0079 -0.7905
  338MOL0     H46596  -0.372   8.894   3.296 -0.7368  1.0960  2.6459
  338MOL0     H46597  -0.206   8.838   3.314  0.8329  0.3149  2.1117
  338MOL0     H46598  -0.267   8.639   3.440 -0.7503 -0.5074  0.1771
  338MOL0     H46599  -0.442   8.666   3.453  0.1856  1.7916  0.6163
  338MOL0     H46600  -0.486   8.649   3.226 -0.6604 -2.1846 -2.1372
  338MOL0     H46601  -0.317   8.625   3.184  1.1342 -0.3376  1.9321
  338MOL0     H46602  -0.468   8.234   3.357 -2.3680 -1.3555  1.0226
  338MOL0     H46603  -0.588   7.942   3.166  3.9108 -1.6155  0.9888
  338MOL0     H46604  -0.648   8.016   3.315  1.6423 -0.9261  0.6266
  338MOL0     H46605  -0.483   7.988   3.298 -0.8846  0.0606  1.0524
  338MOL0     H46606  -0.956   8.154   2.852 -4.0837 -0.0098 -0.7396
  338MOL0     H46607  -1.157   8.052   2.756 -0.1821 -1.6076 -1.9068
  338MOL0     H46608  -1.175   7.610   2.744 -0.7643 -1.4133  0.4219
  338MOL0     H46609  -1.307   7.632   2.862 -5.7587  1.3339 -2.0800
  338MOL0     H46610  -1.376   7.538   2.649 -0.9190 -0.3952  2.4757
  338MOL0     H46611  -1.454   7.693   2.670 -0.4203 -2.8252  3.5362
  338MOL0     H46612  -1.190   7.671   2.521 -0.2256 -2.5424  3.3078
  338MOL0     H46613  -1.313   7.805   2.521 -1.2879 -0.1562 -0.4745
  338MOL0     H46614  -1.467   7.697   2.388  0.5783  1.9137 -1.0514
  338MOL0     H46615  -1.396   7.535   2.418 -0.3587  1.0212  1.5259
  338MOL0     H46616  -1.232   7.753   2.274 -1.5670  0.3022  1.8932
  338MOL0     H46617  -1.213   7.567   2.278  2.6924  1.8580  1.3389
  338MOL0     H46618  -1.421   7.543   2.172  0.9239 -1.3686 -2.1094
  338MOL0     H46619  -1.302   7.592   2.064 -0.9483 -2.6030  1.2173
  338MOL0     H46620  -1.384   7.849   2.082  0.9614 -0.5895  0.2123
  338MOL0     H46621  -1.510   7.783   2.188  2.9964  0.0022  2.0598
  338MOL0     H46622  -1.615   7.784   1.963 -1.0294 -1.2169 -3.6862
  338MOL0     H46623  -1.588   7.618   2.024 -0.2364 -0.8825 -1.6130
  338MOL0     H46624  -1.033   7.676   2.910 -1.9363  0.2021 -5.3999
  338MOL0     H46625  -0.822   7.771   3.008 -0.1541  0.6772 -0.0596
  338MOL0     H46626  -0.629   8.387   2.919 -0.8865  0.4382  0.3414
  338MOL0     H46627  -0.478   8.523   3.049 -0.2347 -0.0576  0.7605
  338MOL0     H46628   0.033   8.967   4.675 -0.9794  1.5834 -0.5386
  338MOL0     H46629   0.137   8.923   4.887 -0.5032 -1.8449 -0.7511
  338MOL0     H46630  -0.061   8.777   5.357  0.4945  1.6219 -1.5802
  338MOL0     H46631   0.025   8.693   5.570 -3.0559  3.8720 -0.4466
  338MOL0     H46632   0.354   8.859   5.849 -0.5405  1.0725  0.8719
  338MOL0     H46633   0.367   8.956   5.701 -1.7772  0.0766 -1.2988
  338MOL0     H46634   0.119   8.919   5.877  0.2827  0.9658  0.3758
  338MOL0     H46635   0.123   8.992   5.706  2.3392 -2.4404 -1.9985
  338MOL0     H46636   0.177   9.087   5.988  0.2520 -1.3177  0.4332
  338MOL0     H46637   0.297   9.144   5.863  0.1605 -1.3423 -1.7028
  338MOL0     H46638   0.002   9.188   5.854 -0.8775  3.5515  1.7616
  338MOL0     H46639   0.113   9.239   5.720  1.8944  3.8717 -0.1579
  338MOL0     H46640   0.139   9.560   5.991  0.7449 -0.6862  2.3247
  338MOL0     H46641   0.393   8.909   5.493  1.5147  0.3462 -3.4465
  338MOL0     H46642   0.458   8.979   5.291  2.6857 -0.3701 -4.7564
  338MOL0     H46643   0.368   8.923   5.154  2.3989  3.8587 -1.2257
  338MOL0     H46644   0.317   9.066   5.223 -0.4468  0.5841  3.0678
  339MOL0     O46645   1.805   9.991   8.279  0.2500  0.1937  0.0167
  339MOL0     C46646   1.802   9.948   8.403  0.1745  0.0144  0.5518
  339MOL0     O46647   1.842   9.821   8.441 -0.8189 -0.2067  0.4947
  339MOL0     C46648   1.840   9.708   8.355 -1.1905 -0.2270  0.5125
  339MOL0     C46649   1.894   9.590   8.398 -0.6047 -0.2288  0.1001
  339MOL0     C46650   1.894   9.473   8.329 -0.8003 -0.0106  0.2527
  339MOL0     C46651   1.858   9.473   8.197  0.7750  0.0564 -0.1740
  339MOL0     O46652   1.902   9.385   8.103 -0.2628 -0.5827 -0.2756
  339MOL0     C46653   1.965   9.269   8.155  0.5142  0.1116 -0.5587
  339MOL0     C46654   2.014   9.177   8.047  0.7575  0.6349 -0.6618
  339MOL0     C46655   2.133   9.094   8.099  0.3799  0.4236  0.2255
  339MOL0     C46656   2.098   9.003   8.226 -0.8096  0.2037  0.8407
  339MOL0     C46657   2.231   8.930   8.281  0.0077  0.2949  0.6205
  339MOL0     C46658   2.213   8.793   8.337 -1.8245 -0.2165  1.1892
  339MOL0     C46659   2.339   8.722   8.391  0.5570  0.4431  0.4469
  339MOL0     C46660   2.390   8.768   8.516  0.7601  0.0742  0.4920
  339MOL0     N46661   2.524   8.714   8.546  0.8746 -0.5439 -0.1600
  339MOL0     C46662   2.574   8.587   8.521  1.2352  0.4417 -0.1240
  339MOL0     C46663   2.699   8.600   8.533  0.4349  0.0057  0.1631
  339MOL0     C46664   2.793   8.495   8.481 -0.6579  0.8482 -0.8342
  339MOL0     C46665   2.897   8.450   8.579 -0.6899  0.5960 -1.1157
  339MOL0     C46666   3.008   8.354   8.522  0.9515 -1.5528  0.3813
  339MOL0     C46667   2.958   8.210   8.547 -0.0614 -0.6862 -0.8654
  339MOL0     O46668   2.951   8.178   8.686 -0.2376  0.1940  0.9787
  339MOL0     C46669   2.926   8.048   8.714  0.2145  0.7412  0.0976
  339MOL0     C46670   2.821   7.978   8.660  0.2427 -0.1031  1.4080
  339MOL0     C46671   2.797   7.838   8.695  0.5955 -0.9634 -0.3774
  339MOL0     C46672   2.695   7.768   8.623  0.4257 -0.6801 -0.0665
  339MOL0     C46673   2.866   7.783   8.801 -0.2542 -0.2794 -0.2955
  339MOL0     C46674   2.840   7.651   8.862  0.5206  0.2680 -0.3673
  339MOL0     O46675   2.710   7.616   8.873 -0.7445 -0.0735  0.6556
  339MOL0     C46676   2.689   7.497   8.932 -1.1539  0.3442 -0.0465
  339MOL0     C46677   2.696   7.385   8.849 -0.3149  0.4211 -0.2553
  339MOL0     C46678   2.677   7.260   8.915 -1.0338 -0.1573 -0.8671
  339MOL0     C46679   2.649   7.244   9.060 -0.0680 -0.1072  0.4129
  339MOL0     O46680   2.633   7.128   9.133  0.0048  0.4299  0.3500
  339MOL0     C46681   2.711   7.010   9.109 -0.4809 -0.1945 -0.0967
  339MOL0     C46682   2.861   7.019   9.137  0.5359 -0.2979 -0.8361
  339MOL0     C46683   2.924   6.890   9.095 -0.6651  0.3368 -0.5125
  339MOL0     C46684   3.073   6.902   9.091  0.3404 -0.0093  0.4338
  339MOL0     C46685   3.121   6.792   8.990 -0.1759  0.3405 -0.9386
  339MOL0     C46686   3.064   6.797   8.856  0.0386  0.1451 -0.2156
  339MOL0     C46687   3.145   6.718   8.747 -0.2199  0.6175  0.8447
  339MOL0     C46688   3.277   6.788   8.711  0.5811 -0.2835  0.0664
  339MOL0    Cl46689   3.429   6.740   8.794  0.1112 -0.0311 -0.8288
  339MOL0     C46690   2.642   7.364   9.131 -0.1742  0.4956  0.0343
  339MOL0     C46691   2.666   7.489   9.069  0.4975 -0.5300 -0.3941
  339MOL0     O46692   2.940   7.587   8.910 -0.0629 -0.3541  0.3547
  339MOL0     C46693   2.982   7.849   8.835  0.3232  0.2040 -0.3030
  339MOL0     C46694   3.008   7.980   8.807 -0.1679 -0.9477  1.3848
  339MOL0     N46695   2.732   8.721   8.578 -0.8383 -0.4603 -0.3113
  339MOL0     N46696   2.627   8.797   8.565  0.5752  0.1204 -0.7696
  339MOL0     C46697   1.783   9.591   8.151 -0.9038  0.0870  0.5360
  339MOL0     C46698   1.782   9.715   8.225 -0.6426  0.5202 -0.0740
  339MOL0     C46699   1.785  10.047   8.510 -0.0467  0.1753 -0.7443
  339MOL0     C46700   1.867  10.027   8.620 -0.7833  0.5687  0.7330
  339MOL0     C46701   1.863  10.112   8.729  0.5689  1.2009 -0.3523
  339MOL0     C46702   1.778  10.221   8.729 -0.2707  0.6557  0.4600
  339MOL0     O46703   1.789  10.293   8.840 -0.4730 -0.4592 -0.0533
  339MOL0     C46704   1.745  10.428   8.865  0.8718 -0.8173  0.8167
  339MOL0     C46705   1.599  10.434   8.902 -1.0055 -0.9660 -0.4323
  339MOL0     C46706   1.534  10.571   8.904  0.3475 -0.0655  0.0159
  339MOL0     C46707   1.525  10.640   8.766 -0.3391  0.4070  0.8784
  339MOL0     C46708   1.437  10.574   8.663  0.7133  0.2605  0.1813
  339MOL0     C46709   1.352  10.556   8.579 -0.1700  0.2754  0.7225
  339MOL0     C46710   1.698  10.247   8.618 -0.4266 -1.0187 -0.0598
  339MOL0     C46711   1.694  10.161   8.506 -0.4331 -0.2307 -0.2997
  339MOL0     C46712   1.601  10.194   8.385  0.3732  0.4022 -0.7441
  339MOL0     H46713   1.925   9.590   8.502  0.0811 -0.2947 -0.0993
  339MOL0     H46714   1.935   9.388   8.382 -0.7452 -0.6077 -0.7206
  339MOL0     H46715   1.886   9.210   8.203 -1.0490  1.5031 -1.3227
  339MOL0     H46716   2.048   9.298   8.221  1.3211 -2.2372 -0.4417
  339MOL0     H46717   1.935   9.105   8.026  0.2854  0.1633  2.2829
  339MOL0     H46718   2.047   9.226   7.954  0.1947 -0.3734 -1.4122
  339MOL0     H46719   2.172   9.029   8.021  3.1738  0.8129  1.1724
  339MOL0     H46720   2.210   9.170   8.120  2.1019 -1.0526 -0.4983
  339MOL0     H46721   2.052   9.063   8.304 -1.9358 -0.7675  0.9347
  339MOL0     H46722   2.019   8.929   8.210  0.7236 -1.8478  2.2122
  339MOL0     H46723   2.267   8.992   8.363 -0.7253 -0.8364  1.8571
  339MOL0     H46724   2.288   8.920   8.189 -3.5227 -0.8236 -1.6509
  339MOL0     H46725   2.147   8.814   8.422 -0.7512  4.4867  1.1175
  339MOL0     H46726   2.162   8.721   8.273  1.1408 -2.3534  1.0210
  339MOL0     H46727   2.424   8.733   8.323  0.9314 -0.0265  0.8332
  339MOL0     H46728   2.324   8.613   8.395  5.3395 -0.7216 -3.5173
  339MOL0     H46729   2.399   8.876   8.500  1.1229 -0.0164  0.0687
  339MOL0     H46730   2.324   8.764   8.603 -0.2366 -0.4184 -0.2622
  339MOL0     H46731   2.510   8.511   8.478  1.9172 -0.3429  0.2390
  339MOL0     H46732   2.843   8.541   8.395  1.8348  1.4002  0.8039
  339MOL0     H46733   2.739   8.409   8.441  2.1210 -1.4416 -0.0390
  339MOL0     H46734   2.943   8.543   8.613 -2.4308  0.3788  2.2522
  339MOL0     H46735   2.854   8.400   8.667  0.2330  1.2837 -0.2468
  339MOL0     H46736   3.017   8.360   8.414  1.1927  0.0305  0.4686
  339MOL0     H46737   3.094   8.382   8.583 -1.1961  3.4662  1.6321
  339MOL0     H46738   2.855   8.220   8.512  0.4345  2.4612 -1.7418
  339MOL0     H46739   3.013   8.136   8.488  2.5096  0.0559  0.4358
  339MOL0     H46740   2.763   8.021   8.579  0.2136 -1.3304  0.7479
  339MOL0     H46741   2.600   7.763   8.677  2.1205  0.4482  3.2979
  339MOL0     H46742   2.728   7.672   8.582 -0.1676 -1.6315  1.5718
  339MOL0     H46743   2.675   7.829   8.534  3.4421  0.4009 -0.1063
  339MOL0     H46744   2.704   7.404   8.743  1.9309 -0.5367 -0.3016
  339MOL0     H46745   2.681   7.165   8.862  0.1343  0.6441 -2.2951
  339MOL0     H46746   2.664   6.935   9.174 -0.6938 -2.4763 -2.6903
  339MOL0     H46747   2.693   6.970   9.008 -1.4298 -0.7603  0.2785
  339MOL0     H46748   2.900   7.105   9.080  3.0106 -0.1768  0.8981
  339MOL0     H46749   2.875   7.036   9.244 -4.4913  0.9788 -0.1174
  339MOL0     H46750   2.868   6.853   9.008  0.0543 -3.9828  0.6667
  339MOL0     H46751   2.900   6.820   9.175 -0.9995 -0.8216 -1.5904
  339MOL0     H46752   3.109   6.871   9.190 -0.0331 -1.4882  0.1245
  339MOL0     H46753   3.109   6.999   9.055  1.1849 -1.5169 -3.1223
  339MOL0     H46754   3.226   6.818   8.971 -1.2628  3.8639 -3.1247
  339MOL0     H46755   3.107   6.692   9.033 -1.9043  0.1048 -1.9672
  339MOL0     H46756   3.053   6.902   8.825 -1.9237 -0.1273 -0.5547
  339MOL0     H46757   2.959   6.769   8.849 -0.2988  1.1011  0.7535
  339MOL0     H46758   3.083   6.714   8.657 -2.0523 -1.2634  2.0813
  339MOL0     H46759   3.171   6.619   8.785  1.7339 -0.0151 -1.8787
  339MOL0     H46760   3.265   6.895   8.731  0.8771 -0.4223  1.0638
  339MOL0     H46761   3.295   6.777   8.604  1.0925 -1.4097  0.2472
  339MOL0     H46762   2.617   7.372   9.236 -1.8016  0.8816 -0.3519
  339MOL0     H46763   2.664   7.581   9.127 -0.0665  0.3313 -1.7310
  339MOL0     H46764   3.055   7.797   8.897 -3.5286 -4.1308  1.2149
  339MOL0     H46765   3.096   8.037   8.831  0.8994  0.0277 -3.6779
  339MOL0     H46766   1.743   9.578   8.051  2.9119 -0.4404 -1.0999
  339MOL0     H46767   1.727   9.797   8.179  1.0831  2.3602  0.9740
  339MOL0     H46768   1.950   9.957   8.615 -1.1467  0.2316 -1.2141
  339MOL0     H46769   1.942  10.101   8.803  0.7319  2.0962 -0.3781
  339MOL0     H46770   1.802  10.483   8.940  0.0303  3.3418 -1.2867
  339MOL0     H46771   1.772  10.488   8.777  0.8676 -1.9719  0.0079
  339MOL0     H46772   1.585  10.383   8.997 -2.1846  0.2219  0.0631
  339MOL0     H46773   1.531  10.389   8.829 -0.1191 -0.0824 -1.8534
  339MOL0     H46774   1.428  10.567   8.932 -1.3749  3.7300 -4.5087
  339MOL0     H46775   1.588  10.634   8.974 -0.3366 -0.4310  0.8823
  339MOL0     H46776   1.624  10.650   8.721 -1.0081 -0.5945 -0.9214
  339MOL0     H46777   1.488  10.740   8.788 -1.7874  0.0131  0.3489
  339MOL0     H46778   1.261  10.564   8.523 -1.3374  3.8689  2.8023
  339MOL0     H46779   1.633  10.334   8.616  3.5788  2.3106 -0.1040
  339MOL0     H46780   1.646  10.204   8.285 -2.8306  2.1560 -2.1727
  339MOL0     H46781   1.522  10.120   8.367 -0.5314  0.4230  2.5021
  339MOL0     H46782   1.550  10.287   8.410 -1.5257 -0.8776  0.3384
  340MOL0     O46783   7.241   7.720   8.592  0.9612 -0.2222  0.5928
  340MOL0     C46784   7.188   7.826   8.568  0.0652 -0.6343  0.1962
  340MOL0     O46785   7.064   7.865   8.606  0.2712  0.3980  1.2315
  340MOL0     C46786   6.981   7.803   8.701 -0.1524 -0.0631  0.0750
  340MOL0     C46787   6.855   7.860   8.726 -0.7501  0.0022 -0.4491
  340MOL0     C46788   6.775   7.822   8.832 -0.6635 -0.2123 -0.0070
  340MOL0     C46789   6.813   7.712   8.913  0.2411  0.3194  0.4137
  340MOL0     O46790   6.739   7.656   9.017 -0.4501  0.0294 -0.1667
  340MOL0     C46791   6.603   7.703   9.047  0.7778 -0.3914  0.0291
  340MOL0     C46792   6.542   7.616   9.158  0.6104 -0.2713  0.3138
  340MOL0     C46793   6.595   7.640   9.307  0.1068  0.2807  0.0650
  340MOL0     C46794   6.528   7.549   9.410  0.1066 -0.4112  0.1509
  340MOL0     C46795   6.581   7.563   9.558  0.5950 -0.2105  0.4417
  340MOL0     C46796   6.727   7.524   9.584 -0.0169 -0.5848  0.3547
  340MOL0     C46797   6.752   7.527   9.728  0.8596 -0.3552  0.6928
  340MOL0     C46798   6.900   7.492   9.765  0.3625 -0.4525  0.1342
  340MOL0     N46799   6.958   7.360   9.724  0.9351 -0.5309  0.6067
  340MOL0     C46800   6.982   7.251   9.801 -1.7170  0.3568  0.0218
  340MOL0     C46801   7.030   7.158   9.725  0.2523  1.3558  0.6185
  340MOL0     C46802   7.062   7.024   9.772 -0.2716 -1.0991 -0.8307
  340MOL0     C46803   6.962   6.963   9.863  0.6672  0.3913  0.2686
  340MOL0     C46804   6.839   6.930   9.784  0.4993 -0.0151 -0.1339
  340MOL0     C46805   6.848   6.804   9.695 -0.1002 -0.5919 -0.5545
  340MOL0     O46806   6.873   6.680   9.769 -0.1542 -0.4518 -0.0699
  340MOL0     C46807   6.892   6.568   9.696  0.3061 -0.9892  0.3036
  340MOL0     C46808   7.003   6.547   9.617  1.1122  0.1292 -0.5975
  340MOL0     C46809   7.036   6.426   9.551  0.4376 -0.3945 -0.0122
  340MOL0     C46810   7.167   6.408   9.474  0.6595 -1.2749 -0.8446
  340MOL0     C46811   6.937   6.320   9.576  0.3890  1.4450 -0.0139
  340MOL0     C46812   6.935   6.185   9.494  0.4203  0.1941 -0.8830
  340MOL0     O46813   6.893   6.085   9.577 -0.0866 -0.0714 -0.3168
  340MOL0     C46814   6.892   5.955   9.542  0.4441 -0.2599  0.3896
  340MOL0     C46815   6.818   5.900   9.430  0.5272 -0.3974 -0.5467
  340MOL0     C46816   6.817   5.763   9.406  0.2659 -0.0080 -0.4903
  340MOL0     C46817   6.885   5.678   9.487 -0.0310  1.0917 -0.0420
  340MOL0     O46818   6.888   5.545   9.459 -0.3570  0.2150  0.2286
  340MOL0     C46819   6.893   5.494   9.324 -0.4463 -0.5790  0.3577
  340MOL0     C46820   6.951   5.356   9.338 -0.3609  0.7473  0.9519
  340MOL0     C46821   7.095   5.346   9.382  0.5396  0.2422 -0.9535
  340MOL0     C46822   7.154   5.208   9.357  0.0586  0.1284  0.7977
  340MOL0     C46823   7.235   5.149   9.465  0.3272  0.4477  0.7235
  340MOL0     C46824   7.286   5.000   9.433 -0.0108  0.0142 -0.0226
  340MOL0     C46825   7.369   4.941   9.549  0.1937  1.0326  0.0589
  340MOL0     C46826   7.388   4.784   9.534 -0.6566  0.4083  0.2454
  340MOL0    Cl46827   7.494   4.746   9.393 -0.3485 -0.3032  0.1515
  340MOL0     C46828   6.945   5.731   9.600 -0.2494  0.6426  0.2725
  340MOL0     C46829   6.951   5.872   9.627  0.3986 -0.6091 -0.6765
  340MOL0     O46830   6.989   6.171   9.385 -0.0026 -0.3342 -1.0327
  340MOL0     C46831   6.822   6.340   9.648 -0.0397  0.4171  0.0365
  340MOL0     C46832   6.796   6.469   9.696 -0.3989  1.0215  0.6911
  340MOL0     N46833   7.021   7.210   9.597  0.0078  1.6569 -0.1825
  340MOL0     N46834   7.000   7.338   9.599  0.5510  1.1479 -0.1913
  340MOL0     C46835   6.928   7.641   8.878  0.7928 -0.1432  0.3204
  340MOL0     C46836   7.021   7.686   8.781 -0.2109 -0.7269 -0.7888
  340MOL0     C46837   7.270   7.927   8.497  0.1211  0.0790  0.4973
  340MOL0     C46838   7.253   8.061   8.537  0.4395  1.5396  0.9188
  340MOL0     C46839   7.330   8.161   8.472  0.3502 -0.2225 -0.2221
  340MOL0     C46840   7.425   8.135   8.375 -0.1519 -0.0379  0.1102
  340MOL0     O46841   7.498   8.237   8.327  0.2568 -0.1264  0.5549
  340MOL0     C46842   7.590   8.229   8.213  0.2799  0.2237  0.0762
  340MOL0     C46843   7.522   8.243   8.078 -0.4479  0.1548 -0.1094
  340MOL0     C46844   7.631   8.245   7.960 -0.0557  0.6526  0.0493
  340MOL0     C46845   7.717   8.119   7.952  0.1313 -0.6325  0.0127
  340MOL0     C46846   7.806   8.123   7.836  0.5175  0.0900 -0.3592
  340MOL0     C46847   7.884   8.144   7.747 -0.8567  0.0245  0.2321
  340MOL0     C46848   7.445   7.997   8.341 -0.5400  0.2092 -0.3479
  340MOL0     C46849   7.366   7.890   8.391 -0.3822  0.7996 -0.9018
  340MOL0     C46850   7.353   7.758   8.321  0.1547 -0.3248 -0.0730
  340MOL0     H46851   6.830   7.936   8.652  1.2881 -0.1811 -1.3923
  340MOL0     H46852   6.682   7.873   8.854 -1.0305 -1.0311  0.3764
  340MOL0     H46853   6.536   7.686   8.962 -0.2801 -0.3121  0.8228
  340MOL0     H46854   6.601   7.810   9.069  1.3457 -0.0515 -1.4430
  340MOL0     H46855   6.432   7.615   9.153  0.6635 -1.2393 -1.4356
  340MOL0     H46856   6.570   7.513   9.136  2.4948  0.4721 -1.0049
  340MOL0     H46857   6.704   7.637   9.298  0.1340  0.1368  0.4244
  340MOL0     H46858   6.568   7.743   9.334 -4.5279 -0.6553 -0.2104
  340MOL0     H46859   6.422   7.573   9.399  0.2265 -0.9056 -3.2262
  340MOL0     H46860   6.524   7.450   9.364 -1.0660 -0.5715  0.5657
  340MOL0     H46861   6.509   7.509   9.621 -0.1511  0.0704 -0.1611
  340MOL0     H46862   6.562   7.668   9.583 -2.6016 -0.6455  0.3069
  340MOL0     H46863   6.767   7.434   9.536  2.0490  0.6031 -0.2699
  340MOL0     H46864   6.779   7.609   9.539  3.0587 -2.3299  0.2798
  340MOL0     H46865   6.691   7.452   9.780  1.3277 -2.9065 -2.1526
  340MOL0     H46866   6.730   7.625   9.770 -1.0890  1.2643 -3.6232
  340MOL0     H46867   6.973   7.562   9.721  1.6306 -1.6302  0.2853
  340MOL0     H46868   6.906   7.495   9.874 -0.6911  1.8743  0.1843
  340MOL0     H46869   6.980   7.239   9.909 -0.6229 -1.8570 -0.1340
  340MOL0     H46870   7.158   7.032   9.824  0.8816  1.0022 -3.1104
  340MOL0     H46871   7.094   6.961   9.689 -1.1471 -0.6994 -1.4856
  340MOL0     H46872   7.012   6.872   9.898 -0.4672 -1.4271 -2.4804
  340MOL0     H46873   6.928   7.034   9.938 -4.0180  3.2058 -3.9330
  340MOL0     H46874   6.756   6.911   9.853  1.4746  0.0113  1.0795
  340MOL0     H46875   6.804   7.012   9.720 -1.8914 -1.7995 -1.2645
  340MOL0     H46876   6.757   6.786   9.636  1.9587 -2.4360 -3.4738
  340MOL0     H46877   6.928   6.824   9.623 -0.2000 -0.3584 -0.6002
  340MOL0     H46878   7.085   6.617   9.609  2.6594 -1.6760 -1.4345
  340MOL0     H46879   7.179   6.492   9.406 -3.5148 -0.7665 -1.2463
  340MOL0     H46880   7.163   6.312   9.422 -4.1934 -0.2614 -2.8553
  340MOL0     H46881   7.257   6.404   9.537 -1.6308 -0.9950  2.7683
  340MOL0     H46882   6.772   5.977   9.368 -1.1594  0.8772  2.1236
  340MOL0     H46883   6.770   5.723   9.317  1.5946 -1.6250 -0.5176
  340MOL0     H46884   6.793   5.492   9.279  0.4281  0.8698 -1.8125
  340MOL0     H46885   6.960   5.556   9.265 -2.2621  0.5413 -0.6292
  340MOL0     H46886   6.894   5.294   9.408  1.7250  0.1620  2.2487
  340MOL0     H46887   6.942   5.312   9.238 -2.3454 -1.1554  1.8752
  340MOL0     H46888   7.101   5.367   9.489  1.7287 -1.0090 -0.7475
  340MOL0     H46889   7.139   5.422   9.317 -0.1673  1.2666 -0.2730
  340MOL0     H46890   7.205   5.208   9.260 -1.5291  2.8275 -0.1758
  340MOL0     H46891   7.074   5.135   9.346  1.2110 -1.2403  1.2733
  340MOL0     H46892   7.323   5.213   9.483  2.4775 -1.4757 -1.9509
  340MOL0     H46893   7.161   5.150   9.545 -2.0814 -1.3251 -1.3162
  340MOL0     H46894   7.345   5.002   9.340 -3.7282 -2.6941 -2.7872
  340MOL0     H46895   7.198   4.942   9.404  2.3129 -1.9205 -4.2405
  340MOL0     H46896   7.313   4.960   9.642  1.3763  0.7288  0.8524
  340MOL0     H46897   7.469   4.984   9.558  0.6514 -0.2621  1.8863
  340MOL0     H46898   7.286   4.744   9.528 -1.4096  1.6206  3.1467
  340MOL0     H46899   7.438   4.749   9.624 -2.2564 -1.5173  0.4509
  340MOL0     H46900   7.003   5.668   9.667  2.3315  1.8861 -0.6929
  340MOL0     H46901   6.993   5.912   9.718 -0.3988  2.1088 -1.3910
  340MOL0     H46902   6.742   6.267   9.650 -0.5757  1.0035  0.1964
  340MOL0     H46903   6.700   6.466   9.746 -0.6664 -1.7828  0.1914
  340MOL0     H46904   6.934   7.545   8.928 -3.6338 -1.1816 -0.7504
  340MOL0     H46905   7.120   7.642   8.779 -1.3701 -3.4844 -2.3950
  340MOL0     H46906   7.181   8.083   8.614  1.5143  1.7878  1.8718
  340MOL0     H46907   7.310   8.263   8.504  0.3063 -0.4094  0.3671
  340MOL0     H46908   7.662   8.311   8.223  0.5689  0.1608 -1.2210
  340MOL0     H46909   7.639   8.133   8.227 -2.1702 -1.2180 -0.5117
  340MOL0     H46910   7.473   8.340   8.065  2.4501  1.6015 -1.3216
  340MOL0     H46911   7.440   8.172   8.068 -0.2628  0.2645 -3.6884
  340MOL0     H46912   7.572   8.256   7.869  0.5949 -0.2480 -0.4961
  340MOL0     H46913   7.695   8.334   7.965  1.7743 -0.2237 -4.2066
  340MOL0     H46914   7.652   8.030   7.952 -2.3685  0.8260  5.3007
  340MOL0     H46915   7.777   8.108   8.043 -0.5425  1.0450  0.6906
  340MOL0     H46916   7.945   8.158   7.660 -0.5285  3.0530  0.8549
  340MOL0     H46917   7.520   7.955   8.275 -0.8117  0.4497 -0.8169
  340MOL0     H46918   7.254   7.716   8.344  0.2984 -1.6085 -1.5946
  340MOL0     H46919   7.359   7.775   8.213 -0.0639  1.7503  0.1896
  340MOL0     H46920   7.444   7.700   8.338  3.1785  4.2783  1.2005
  341MOL0     O46921   1.119  11.374  11.183  0.3681  0.0811 -0.5128
  341MOL0     C46922   1.058  11.323  11.083 -0.1371  0.7602 -0.2781
  341MOL0     O46923   0.946  11.240  11.091  0.5441  0.1690 -0.3781
  341MOL0     C46924   0.921  11.188  11.214 -0.2487  0.4951  0.4300
  341MOL0     C46925   1.017  11.120  11.287 -1.0579 -0.3388 -0.2559
  341MOL0     C46926   0.992  11.061  11.410  0.1048  0.1764 -0.0946
  341MOL0     C46927   0.863  11.067  11.469  0.1130 -0.1500 -1.4072
  341MOL0     O46928   0.829  11.018  11.594  0.1355  0.2019  0.4339
  341MOL0     C46929   0.918  11.017  11.703  0.5078 -0.0584 -0.6104
  341MOL0     C46930   0.863  10.923  11.814  0.0975  0.5112  0.6935
  341MOL0     C46931   0.952  10.946  11.931 -0.5153 -0.0192 -0.7562
  341MOL0     C46932   0.910  10.847  12.043 -1.6292 -0.1723 -0.5584
  341MOL0     C46933   1.016  10.860  12.149 -0.5000  0.3472 -0.4685
  341MOL0     C46934   0.973  10.762  12.258  0.4941 -0.1659 -0.5951
  341MOL0     C46935   1.047  10.812  12.382 -0.3792  0.1637 -0.0680
  341MOL0     C46936   1.012  10.717  12.505  0.1445 -0.2263 -0.9513
  341MOL0     N46937   1.069  10.775  12.625 -0.7708  0.0739 -0.5282
  341MOL0     C46938   1.194  10.753  12.670  0.2095  0.7329 -0.0631
  341MOL0     C46939   1.212  10.838  12.779 -0.5320  0.4650  0.1272
  341MOL0     C46940   1.349  10.837  12.847  0.1292 -0.9671  0.8244
  341MOL0     C46941   1.437  10.942  12.771  0.3332 -0.0981  0.3708
  341MOL0     C46942   1.578  10.887  12.773 -0.5110 -0.1500  0.1103
  341MOL0     C46943   1.679  10.995  12.716  0.0796  0.0241  0.7130
  341MOL0     O46944   1.707  11.113  12.799 -0.2324 -0.6195  0.4308
  341MOL0     C46945   1.751  11.226  12.738  0.1863  0.7473 -1.0788
  341MOL0     C46946   1.767  11.343  12.822 -0.2559  0.4011 -0.0392
  341MOL0     C46947   1.792  11.468  12.766  0.6606  0.0350  0.0314
  341MOL0     C46948   1.805  11.578  12.871  0.1888  0.4073 -0.3788
  341MOL0     C46949   1.812  11.479  12.630  0.0016  0.0276  0.0670
  341MOL0     C46950   1.852  11.616  12.573 -0.2558 -0.2526  0.1626
  341MOL0     O46951   1.907  11.607  12.449 -0.9919  0.4482 -0.1569
  341MOL0     C46952   1.992  11.705  12.397 -0.0794  1.0816 -0.1399
  341MOL0     C46953   2.123  11.668  12.355  1.0726 -0.1790 -0.2356
  341MOL0     C46954   2.204  11.760  12.281  0.3605 -1.1765 -0.3201
  341MOL0     C46955   2.154  11.889  12.251  0.1317  0.8392  0.1810
  341MOL0     O46956   2.228  11.988  12.189 -0.2408  0.0113 -0.4061
  341MOL0     C46957   2.362  12.036  12.233 -0.3389 -0.1635 -0.2303
  341MOL0     C46958   2.481  11.957  12.152  0.9886 -0.8118 -0.1245
  341MOL0     C46959   2.619  12.024  12.165  0.2513 -0.1371  0.4240
  341MOL0     C46960   2.719  11.904  12.174  1.3340  0.3471  0.7299
  341MOL0     C46961   2.867  11.951  12.181  0.9028  0.1689 -0.1787
  341MOL0     C46962   2.946  11.824  12.218 -0.2724 -0.0507 -0.7990
  341MOL0     C46963   3.102  11.835  12.256  0.8807 -0.4392 -0.8693
  341MOL0     C46964   3.134  11.692  12.297  0.6211  0.5553 -0.0833
  341MOL0    Cl46965   3.295  11.688  12.356  0.4019 -0.1138  0.2782
  341MOL0     C46966   2.037  11.922  12.307 -0.1716 -0.7648  0.7042
  341MOL0     C46967   1.957  11.840  12.379 -0.3263 -0.5925 -0.0134
  341MOL0     O46968   1.812  11.724  12.624 -0.4300 -0.0016 -0.4195
  341MOL0     C46969   1.809  11.354  12.546  0.1625  0.4442 -0.1591
  341MOL0     C46970   1.772  11.236  12.598  0.7888  0.4152  0.2988
  341MOL0     N46971   1.089  10.910  12.805 -0.4066 -0.3266  0.3994
  341MOL0     N46972   1.013  10.874  12.701 -0.0043  1.0026  0.2413
  341MOL0     C46973   0.766  11.146  11.411  1.0203 -0.0676  0.3390
  341MOL0     C46974   0.793  11.210  11.275 -0.8176  0.6028 -0.0984
  341MOL0     C46975   1.118  11.329  10.952 -0.0001  0.0628  1.3991
  341MOL0     C46976   1.103  11.221  10.863  0.7170 -0.1122  0.0813
  341MOL0     C46977   1.162  11.207  10.735 -0.2886 -0.1876 -0.9186
  341MOL0     C46978   1.241  11.311  10.688 -0.1798  0.8523 -0.1283
  341MOL0     O46979   1.321  11.305  10.573  0.4573 -0.2522 -0.5030
  341MOL0     C46980   1.270  11.255  10.455  0.1177  0.4072 -0.1649
  341MOL0     C46981   1.203  11.358  10.364  0.2784 -0.2369 -0.8145
  341MOL0     C46982   1.309  11.444  10.294 -0.8607  0.0213 -0.1170
  341MOL0     C46983   1.248  11.555  10.199  0.7351  1.0721 -0.3875
  341MOL0     C46984   1.342  11.599  10.095 -0.1030  0.7433  0.1483
  341MOL0     C46985   1.433  11.641  10.020  0.8421 -0.3056 -0.4837
  341MOL0     C46986   1.263  11.417  10.778 -0.6853 -0.8965  0.3072
  341MOL0     C46987   1.199  11.431  10.898 -0.3555 -0.4058  0.5879
  341MOL0     C46988   1.209  11.562  10.968  0.0675  0.8923  0.4385
  341MOL0     H46989   1.115  11.100  11.243  1.0703  1.4747  3.2301
  341MOL0     H46990   1.065  10.998  11.459  2.2537  1.4615 -1.4816
  341MOL0     H46991   0.929  11.116  11.749  3.1149 -2.2835  4.3819
  341MOL0     H46992   1.007  10.967  11.665 -0.2351 -2.9587  1.1550
  341MOL0     H46993   0.755  10.934  11.828 -0.1091 -2.0489  1.7725
  341MOL0     H46994   0.895  10.823  11.782  0.6201  0.6673  0.7235
  341MOL0     H46995   1.051  10.916  11.895 -0.8029 -3.3933  0.8823
  341MOL0     H46996   0.951  11.047  11.972 -1.1956  0.0748 -0.9918
  341MOL0     H46997   0.816  10.892  12.078  0.3181  1.7819  2.6510
  341MOL0     H46998   0.890  10.742  12.018 -0.0902 -1.2480  2.2894
  341MOL0     H46999   1.009  10.963  12.184  0.0053  0.6741 -1.3073
  341MOL0     H47000   1.110  10.836  12.099 -1.2306 -0.3840 -1.5301
  341MOL0     H47001   0.863  10.758  12.264  0.5473 -1.5494 -0.1972
  341MOL0     H47002   1.001  10.661  12.228 -0.0938 -0.3202 -0.6510
  341MOL0     H47003   1.029  10.918  12.402 -2.0325 -0.2895  1.0202
  341MOL0     H47004   1.152  10.791  12.359 -0.2144 -1.0179  1.5432
  341MOL0     H47005   0.903  10.726  12.507  0.0552 -1.2796  0.3458
  341MOL0     H47006   1.035  10.610  12.500  2.1589  0.1868 -1.3809
  341MOL0     H47007   1.264  10.682  12.627  1.4148  1.6181  0.4111
  341MOL0     H47008   1.395  10.738  12.838  0.9549 -0.4919 -0.6197
  341MOL0     H47009   1.335  10.866  12.951 -2.0149  1.3747 -0.0029
  341MOL0     H47010   1.401  10.957  12.669  0.5546 -0.3336  0.2558
  341MOL0     H47011   1.436  11.040  12.820  0.9201 -0.7145  1.6593
  341MOL0     H47012   1.592  10.866  12.880 -3.3723 -0.0697  0.5756
  341MOL0     H47013   1.590  10.792  12.722  1.4963 -0.0391  0.3013
  341MOL0     H47014   1.776  10.946  12.708 -1.3518 -3.4998  2.6766
  341MOL0     H47015   1.635  11.020  12.618 -2.3913 -1.0252  1.4710
  341MOL0     H47016   1.740  11.329  12.926  0.6793 -2.3800 -0.0855
  341MOL0     H47017   1.717  11.643  12.866 -0.4901 -0.5754 -3.8637
  341MOL0     H47018   1.889  11.643  12.843 -0.5116  0.2683 -3.0611
  341MOL0     H47019   1.815  11.543  12.974 -2.8075  0.7020  0.1009
  341MOL0     H47020   2.154  11.564  12.364 -2.9212 -1.4010  1.4302
  341MOL0     H47021   2.303  11.732  12.247 -0.6798 -0.3818 -4.5286
  341MOL0     H47022   2.380  12.144  12.224 -0.6377 -0.0706  0.2976
  341MOL0     H47023   2.364  12.016  12.340  3.5752  1.9214  0.2997
  341MOL0     H47024   2.481  11.851  12.179 -1.6809 -0.6389  0.8155
  341MOL0     H47025   2.460  11.968  12.045 -1.4459  0.6382  0.4066
  341MOL0     H47026   2.634  12.086  12.254  5.7015 -0.7909  0.3139
  341MOL0     H47027   2.642  12.090  12.081  2.3953  1.2760  2.0002
  341MOL0     H47028   2.709  11.852  12.078  1.3230  0.0647  0.8831
  341MOL0     H47029   2.697  11.838  12.258  1.3352  1.0447  1.2916
  341MOL0     H47030   2.901  11.996  12.087  1.5220 -2.2669 -1.1892
  341MOL0     H47031   2.871  12.015  12.270  0.6520  0.1779 -0.1736
  341MOL0     H47032   2.921  11.751  12.141 -3.6668 -0.3993  0.4757
  341MOL0     H47033   2.900  11.782  12.307 -3.1218 -0.0257 -2.1463
  341MOL0     H47034   3.123  11.890  12.349 -0.2550 -0.5921 -0.5110
  341MOL0     H47035   3.167  11.864  12.173  0.8174 -0.5796 -0.9690
  341MOL0     H47036   3.137  11.629  12.207 -1.7273 -3.5561  2.4537
  341MOL0     H47037   3.065  11.645  12.367 -0.8037  1.5958 -0.7308
  341MOL0     H47038   2.008  12.027  12.305 -1.7690 -1.1458  1.9298
  341MOL0     H47039   1.863  11.881  12.412 -0.8658 -1.0147 -0.9869
  341MOL0     H47040   1.835  11.348  12.440 -1.2653 -1.6078 -0.4633
  341MOL0     H47041   1.764  11.154  12.528 -1.7178  1.7631 -1.1226
  341MOL0     H47042   0.667  11.161  11.452  2.0462 -0.0127  3.0071
  341MOL0     H47043   0.714  11.267  11.227 -1.1051  1.3511  1.1883
  341MOL0     H47044   1.040  11.138  10.896 -1.4112  1.7461  0.9889
  341MOL0     H47045   1.140  11.119  10.675  0.8887 -0.5596 -0.8295
  341MOL0     H47046   1.357  11.216  10.400  1.5052  0.5362  1.8350
  341MOL0     H47047   1.199  11.175  10.481  1.5552 -0.4239  1.3641
  341MOL0     H47048   1.132  11.419  10.421 -2.0750 -1.7107 -2.0102
  341MOL0     H47049   1.142  11.312  10.286 -0.0025  0.0925 -0.7939
  341MOL0     H47050   1.370  11.488  10.374 -0.2246 -1.5221  0.2944
  341MOL0     H47051   1.378  11.382  10.236 -0.7636 -0.5138  0.5556
  341MOL0     H47052   1.215  11.647  10.249 -3.0298  0.3143 -1.1546
  341MOL0     H47053   1.162  11.510  10.150  0.1197  0.9668  0.7494
  341MOL0     H47054   1.500  11.693   9.955  1.3359  1.2087  1.1465
  341MOL0     H47055   1.325  11.501  10.749 -0.4053 -0.8246  1.0783
  341MOL0     H47056   1.263  11.564  11.063  0.3668  1.2962  0.2637
  341MOL0     H47057   1.260  11.626  10.896  2.1975 -0.5155  0.6044
  341MOL0     H47058   1.110  11.605  10.983 -0.1681  1.1201 -1.4392
  342MOL0     O47059   7.815  10.966   1.581  0.4916  0.2710 -0.1365
  342MOL0     C47060   7.693  10.959   1.553 -0.6400  0.5042  0.3040
  342MOL0     O47061   7.595  11.024   1.617 -0.3325  0.3231  0.6339
  342MOL0     C47062   7.616  11.071   1.743  0.1755  0.5533  0.4800
  342MOL0     C47063   7.709  11.160   1.783 -0.2315 -0.0463  1.0912
  342MOL0     C47064   7.719  11.226   1.904 -0.0020  0.2231  0.6301
  342MOL0     C47065   7.628  11.177   2.004 -0.1493  0.0605 -0.0900
  342MOL0     O47066   7.649  11.217   2.133  0.2406 -0.6022  0.3005
  342MOL0     C47067   7.540  11.270   2.201  0.1531  0.1986  0.2050
  342MOL0     C47068   7.584  11.382   2.292 -0.2971  0.3304  0.1615
  342MOL0     C47069   7.461  11.451   2.361  0.2219  0.1749  0.4309
  342MOL0     C47070   7.499  11.557   2.461  0.1271  0.3586  0.3439
  342MOL0     C47071   7.405  11.677   2.459  0.0047 -0.0400  0.1387
  342MOL0     C47072   7.476  11.803   2.506 -0.5619 -0.4322  0.3575
  342MOL0     C47073   7.386  11.934   2.497  0.8826  0.0374 -0.2947
  342MOL0     C47074   7.460  12.057   2.521  0.2907  0.8339  0.1669
  342MOL0     N47075   7.570  12.082   2.432 -0.6888 -1.4871  1.0699
  342MOL0     C47076   7.559  12.077   2.294  0.5860 -0.2441  0.2969
  342MOL0     C47077   7.684  12.082   2.246  0.1062  0.7332  1.3920
  342MOL0     C47078   7.728  12.059   2.100 -0.2730  0.0933 -0.4285
  342MOL0     C47079   7.641  12.130   2.002 -0.0535 -0.1145 -0.9180
  342MOL0     C47080   7.636  12.279   2.032 -0.0788 -0.3162 -0.1478
  342MOL0     C47081   7.532  12.352   1.955  0.1635  0.4815  0.2015
  342MOL0     O47082   7.532  12.479   2.019  0.4497 -0.4238  0.6321
  342MOL0     C47083   7.602  12.588   1.979 -0.3874 -0.7692  0.0566
  342MOL0     C47084   7.645  12.617   1.842 -0.1490  0.2891  0.0117
  342MOL0     C47085   7.715  12.738   1.818  0.4294  0.8368  0.2021
  342MOL0     C47086   7.760  12.769   1.678  0.1835  0.7955 -0.0338
  342MOL0     C47087   7.721  12.836   1.921 -0.0214  0.2429  0.0802
  342MOL0     C47088   7.779  12.962   1.899  0.4353  0.0970 -0.0403
  342MOL0     O47089   7.910  12.957   1.863  0.3372 -0.0599 -1.2767
  342MOL0     C47090   7.972  13.060   1.811  0.1943 -1.7971  0.2498
  342MOL0     C47091   7.912  13.158   1.730 -0.2039  0.2453 -0.1731
  342MOL0     C47092   7.973  13.279   1.692 -1.0053 -0.2043  0.1519
  342MOL0     C47093   8.108  13.297   1.726 -1.1318 -0.0714 -1.0036
  342MOL0     O47094   8.169  13.406   1.672 -0.3499  0.2237  0.1755
  342MOL0     C47095   8.319  13.409   1.685 -0.8152  0.0038 -0.7563
  342MOL0     C47096   8.380  13.514   1.585 -0.3120 -0.2935 -0.0569
  342MOL0     C47097   8.531  13.529   1.615  0.8062 -0.4839 -0.2182
  342MOL0     C47098   8.576  13.643   1.710 -0.4831  1.2410  0.3761
  342MOL0     C47099   8.727  13.649   1.711 -0.7168  0.2324  0.0656
  342MOL0     C47100   8.780  13.524   1.787  0.8843 -0.3135  0.4296
  342MOL0     C47101   8.934  13.534   1.793  0.0926 -0.5572 -0.2611
  342MOL0     C47102   8.984  13.426   1.894 -0.0825 -0.3802 -0.2590
  342MOL0    Cl47103   9.164  13.446   1.922  0.1298  0.6178  0.0366
  342MOL0     C47104   8.168  13.201   1.801  0.4460  0.1086 -0.1958
  342MOL0     C47105   8.103  13.085   1.850 -0.1029  0.3806  0.3123
  342MOL0     O47106   7.727  13.063   1.940 -0.9603  0.5894  0.5504
  342MOL0     C47107   7.669  12.808   2.047  0.6811 -0.5994  0.8255
  342MOL0     C47108   7.610  12.684   2.079 -0.0182  0.0954 -0.3809
  342MOL0     N47109   7.765  12.088   2.348  0.1940 -1.1179 -0.0434
  342MOL0     N47110   7.695  12.080   2.465 -0.5314 -0.4018  0.2834
  342MOL0     C47111   7.523  11.081   1.974  0.0742 -0.3647 -0.5482
  342MOL0     C47112   7.511  11.039   1.835 -1.2323  0.8206  0.1387
  342MOL0     C47113   7.658  10.860   1.448 -0.3077  0.2182 -0.5271
  342MOL0     C47114   7.542  10.788   1.470 -1.5509  1.2277 -0.6038
  342MOL0     C47115   7.512  10.682   1.380 -0.3417  0.7520 -1.2026
  342MOL0     C47116   7.579  10.646   1.266  0.9609 -0.9908  0.1719
  342MOL0     O47117   7.536  10.535   1.201 -0.3393 -0.2039  0.2112
  342MOL0     C47118   7.622  10.469   1.102  0.2836 -0.6805 -0.3785
  342MOL0     C47119   7.550  10.339   1.053 -0.2795 -0.7000  0.3677
  342MOL0     C47120   7.427  10.378   0.967 -0.1805 -1.3395  0.6247
  342MOL0     C47121   7.359  10.268   0.874 -0.0126  0.2335 -0.1884
  342MOL0     C47122   7.461  10.226   0.773 -0.1948  0.2534 -0.0679
  342MOL0     C47123   7.540  10.186   0.693  0.6309  0.5470  0.1210
  342MOL0     C47124   7.702  10.720   1.246 -0.7098  0.7402 -0.4654
  342MOL0     C47125   7.742  10.820   1.334  0.2683  0.8922 -0.0977
  342MOL0     C47126   7.871  10.875   1.313  0.2533 -0.2974  1.0132
  342MOL0     H47127   7.790  11.181   1.714 -1.8223 -0.2076 -0.9178
  342MOL0     H47128   7.796  11.295   1.936  0.1767 -0.9580  3.0190
  342MOL0     H47129   7.484  11.189   2.250  0.5540 -0.5234 -0.5140
  342MOL0     H47130   7.465  11.306   2.130  0.2743 -3.5180 -2.0526
  342MOL0     H47131   7.651  11.343   2.370 -1.6561  1.2619  1.8380
  342MOL0     H47132   7.639  11.449   2.226 -1.3226  0.0598 -0.9898
  342MOL0     H47133   7.395  11.481   2.280  0.0471 -0.9639  0.1309
  342MOL0     H47134   7.396  11.375   2.406 -0.2238 -1.0820 -2.1533
  342MOL0     H47135   7.503  11.505   2.557 -1.2204 -0.0951  0.1760
  342MOL0     H47136   7.600  11.592   2.439  0.8224 -2.2512 -0.9417
  342MOL0     H47137   7.315  11.650   2.514 -0.4044 -0.5817 -0.7717
  342MOL0     H47138   7.380  11.697   2.355  3.4896 -2.6370 -1.3938
  342MOL0     H47139   7.527  11.786   2.602  0.1451 -0.3785 -0.0041
  342MOL0     H47140   7.558  11.814   2.434  0.7436 -1.0734  1.6873
  342MOL0     H47141   7.307  11.920   2.572 -0.0412 -1.5572 -1.4693
  342MOL0     H47142   7.338  11.929   2.398  0.3430  4.0622 -0.3698
  342MOL0     H47143   7.393  12.142   2.535  0.6741  1.1330  0.1841
  342MOL0     H47144   7.514  12.048   2.616  2.4178 -1.2673 -1.1246
  342MOL0     H47145   7.477  12.057   2.225  1.7364 -2.1075 -0.6039
  342MOL0     H47146   7.723  11.954   2.072  1.0372 -0.1673  0.2158
  342MOL0     H47147   7.834  12.087   2.103 -0.7800  2.1324  0.7540
  342MOL0     H47148   7.683  12.113   1.902  1.7412 -1.2592 -0.0048
  342MOL0     H47149   7.548  12.072   2.000 -1.0093  1.3561 -0.8270
  342MOL0     H47150   7.596  12.291   2.134 -2.4621 -2.6167 -0.6763
  342MOL0     H47151   7.736  12.323   2.023 -0.4124  0.0369 -2.7235
  342MOL0     H47152   7.565  12.354   1.851  0.6278 -1.3820  0.2745
  342MOL0     H47153   7.434  12.304   1.962  1.5355 -2.4457  0.6542
  342MOL0     H47154   7.634  12.555   1.754  0.6132  1.5578 -1.0029
  342MOL0     H47155   7.723  12.867   1.648 -0.5849  0.4237 -0.3456
  342MOL0     H47156   7.741  12.700   1.595  2.2808  1.4405 -1.1085
  342MOL0     H47157   7.868  12.754   1.676 -0.0685 -1.5021  0.5935
  342MOL0     H47158   7.813  13.132   1.695 -0.4801  0.5217  0.3920
  342MOL0     H47159   7.920  13.343   1.623 -1.3580  0.3416  0.9116
  342MOL0     H47160   8.341  13.443   1.787 -2.0130 -2.1359  0.2740
  342MOL0     H47161   8.366  13.312   1.670  1.8028  1.0651 -0.0323
  342MOL0     H47162   8.374  13.476   1.483 -1.7351 -3.5136  1.0645
  342MOL0     H47163   8.318  13.603   1.596  0.5196  0.1616  1.2075
  342MOL0     H47164   8.567  13.555   1.515  0.3137  0.3580 -0.1877
  342MOL0     H47165   8.580  13.439   1.653  0.7100 -0.9870 -1.2609
  342MOL0     H47166   8.546  13.634   1.815  0.0690  1.6580  0.5703
  342MOL0     H47167   8.533  13.738   1.677  0.8938  1.2718 -1.4734
  342MOL0     H47168   8.770  13.654   1.610 -0.4424  2.1442  0.2462
  342MOL0     H47169   8.760  13.742   1.758 -0.8320  1.1494 -1.5739
  342MOL0     H47170   8.770  13.431   1.729  1.4724  1.2249 -2.3000
  342MOL0     H47171   8.735  13.509   1.886  1.7949  0.4089  0.9696
  342MOL0     H47172   8.977  13.634   1.808  0.6672 -1.1237  2.6465
  342MOL0     H47173   8.974  13.500   1.697 -0.6682 -0.5568 -0.5781
  342MOL0     H47174   8.961  13.322   1.872  0.1326 -0.7456  1.1342
  342MOL0     H47175   8.934  13.446   1.989 -0.2777 -1.4793 -0.1240
  342MOL0     H47176   8.266  13.212   1.846  1.3860  1.3957 -2.3761
  342MOL0     H47177   8.163  13.017   1.911 -2.3454 -1.6387  0.4483
  342MOL0     H47178   7.694  12.876   2.127 -0.6545  0.8332  0.1026
  342MOL0     H47179   7.589  12.657   2.182  0.4310 -1.2689 -0.6372
  342MOL0     H47180   7.476  11.035   2.060  0.8560 -0.9689 -0.4345
  342MOL0     H47181   7.427  10.972   1.818 -0.3562 -0.8356  1.9644
  342MOL0     H47182   7.488  10.821   1.558  1.4641  0.4112  1.7178
  342MOL0     H47183   7.420  10.623   1.385 -0.3358  0.6628 -2.0311
  342MOL0     H47184   7.630  10.548   1.027 -4.2732  1.3250  0.9197
  342MOL0     H47185   7.715  10.446   1.156  0.9990 -0.0022 -1.2873
  342MOL0     H47186   7.515  10.283   1.141 -2.8561 -1.3013 -0.9488
  342MOL0     H47187   7.601  10.261   0.996 -1.6957 -1.0360 -0.4777
  342MOL0     H47188   7.362  10.414   1.048 -1.0354 -3.9074  1.1774
  342MOL0     H47189   7.447  10.473   0.917 -1.9823  0.1840  2.5913
  342MOL0     H47190   7.278  10.321   0.824  1.2225 -0.2508 -2.9150
  342MOL0     H47191   7.307  10.186   0.923 -3.6181  1.7149 -1.2480
  342MOL0     H47192   7.613  10.158   0.619 -1.3294 -2.1667 -0.9490
  342MOL0     H47193   7.776  10.690   1.172 -1.8554  1.1554 -1.8184
  342MOL0     H47194   7.856  10.982   1.295  2.3828  0.0613  1.1372
  342MOL0     H47195   7.925  10.849   1.405 -1.7464  0.7865  2.5700
  342MOL0     H47196   7.922  10.838   1.224 -0.6449  0.1260  0.3121
  343MOL0     O47197   4.481   2.817  11.282  0.4430 -0.9823 -0.3024
  343MOL0     C47198   4.434   2.854  11.393  0.1983  0.9642 -0.2754
  343MOL0     O47199   4.453   2.786  11.511 -0.1869 -0.1565  0.0714
  343MOL0     C47200   4.517   2.662  11.521  0.2612 -0.0123  0.5185
  343MOL0     C47201   4.506   2.559  11.425  0.0482  0.5295 -0.0338
  343MOL0     C47202   4.582   2.440  11.444  0.1438  0.0870 -0.1099
  343MOL0     C47203   4.664   2.424  11.560  0.0260 -0.9505 -0.0384
  343MOL0     O47204   4.737   2.309  11.573  0.0690  0.3451  0.1015
  343MOL0     C47205   4.781   2.227  11.455 -0.6385 -1.3708 -0.9011
  343MOL0     C47206   4.926   2.164  11.473 -0.5654 -0.6372 -0.2089
  343MOL0     C47207   4.956   2.042  11.390 -0.1840  0.9989  0.2127
  343MOL0     C47208   4.924   2.038  11.246  1.0539  0.1772 -0.5162
  343MOL0     C47209   5.051   2.019  11.154 -0.9614 -0.5860 -0.8445
  343MOL0     C47210   5.133   2.155  11.135 -0.0967  0.8302  0.1122
  343MOL0     C47211   5.272   2.135  11.064 -0.5596 -0.4168  0.5238
  343MOL0     C47212   5.368   2.252  11.066  0.2454  0.7003  0.9268
  343MOL0     N47213   5.444   2.253  11.192 -0.2328  0.4066  0.4814
  343MOL0     C47214   5.393   2.320  11.289  0.1262 -0.2860  0.0653
  343MOL0     C47215   5.495   2.344  11.372 -0.0843  0.6408  0.4020
  343MOL0     C47216   5.487   2.424  11.502  0.9870 -0.1234  0.4501
  343MOL0     C47217   5.617   2.429  11.574  0.5402  0.3876  0.3862
  343MOL0     C47218   5.592   2.507  11.710  0.1237  0.8719  0.0757
  343MOL0     C47219   5.729   2.505  11.778 -0.2997  0.8365 -0.1168
  343MOL0     O47220   5.783   2.376  11.809 -0.4037 -0.1580  0.3431
  343MOL0     C47221   5.757   2.307  11.922 -0.8450  0.1208  0.4679
  343MOL0     C47222   5.660   2.337  12.023  0.2994 -0.3865  0.6824
  343MOL0     C47223   5.651   2.262  12.142  1.1974 -0.6603 -0.6803
  343MOL0     C47224   5.552   2.311  12.239  0.2126  0.7477  1.5277
  343MOL0     C47225   5.729   2.148  12.159  0.5757 -0.1618  0.4492
  343MOL0     C47226   5.713   2.052  12.277 -0.4937 -0.0534  0.5808
  343MOL0     O47227   5.654   2.106  12.384 -0.6565  0.5145 -0.3165
  343MOL0     C47228   5.626   2.039  12.503 -0.4565 -0.2356 -0.8524
  343MOL0     C47229   5.719   1.980  12.592  0.6997 -1.0938  0.7990
  343MOL0     C47230   5.689   1.927  12.718  0.2155 -0.0679 -0.3351
  343MOL0     C47231   5.554   1.916  12.741  0.1084  1.0814 -0.3971
  343MOL0     O47232   5.504   1.841  12.846  0.5981  0.0923 -0.0169
  343MOL0     C47233   5.465   1.924  12.954 -0.1220 -1.1386  0.2602
  343MOL0     C47234   5.437   1.836  13.071  0.7206  0.5302  0.3999
  343MOL0     C47235   5.561   1.783  13.146  0.6412 -0.3233 -0.7411
  343MOL0     C47236   5.521   1.757  13.302  0.0069  0.2091  0.2447
  343MOL0     C47237   5.653   1.738  13.376 -0.2715 -0.5583  0.0310
  343MOL0     C47238   5.631   1.703  13.517  0.1596  0.0685 -0.6874
  343MOL0     C47239   5.757   1.697  13.614  0.0818  0.2403  0.2064
  343MOL0     C47240   5.729   1.640  13.745 -0.3129 -0.2755  0.1841
  343MOL0    Cl47241   5.586   1.727  13.817 -0.3285  0.1111 -0.1523
  343MOL0     C47242   5.458   1.963  12.656  0.5582 -0.8201  0.0572
  343MOL0     C47243   5.491   2.028  12.536  0.2152  0.3801 -0.0173
  343MOL0     O47244   5.761   1.941  12.274 -0.2516 -0.6151 -0.4977
  343MOL0     C47245   5.804   2.108  12.046 -0.3742  0.0461 -0.0064
  343MOL0     C47246   5.836   2.193  11.943 -0.1959 -0.8483  0.3121
  343MOL0     N47247   5.609   2.285  11.318  0.2634  0.2791  0.1594
  343MOL0     N47248   5.572   2.228  11.214 -0.0770  0.0212  0.6159
  343MOL0     C47249   4.671   2.533  11.656  1.0798 -1.0351 -0.8174
  343MOL0     C47250   4.590   2.647  11.635 -1.3157 -0.0852 -0.8856
  343MOL0     C47251   4.342   2.964  11.404  0.9173  0.4143  0.3829
  343MOL0     C47252   4.226   2.946  11.469  0.7724  0.1157 -0.1478
  343MOL0     C47253   4.138   3.052  11.491 -0.4428  0.2470 -0.9183
  343MOL0     C47254   4.155   3.171  11.408 -0.2636  0.4473  0.9889
  343MOL0     O47255   4.066   3.269  11.398 -0.0634  0.0803 -0.4445
  343MOL0     C47256   3.961   3.287  11.506  0.0972  0.3151 -0.4342
  343MOL0     C47257   3.888   3.417  11.496 -0.2000 -0.7718 -0.9048
  343MOL0     C47258   3.990   3.540  11.539  0.0039  0.3323  0.5404
  343MOL0     C47259   3.929   3.684  11.513 -0.0998 -0.5307 -0.2734
  343MOL0     C47260   4.028   3.787  11.517 -0.4293  0.0232 -0.4850
  343MOL0     C47261   4.109   3.872  11.509 -0.2072  0.0384 -0.5165
  343MOL0     C47262   4.266   3.183  11.329  0.0331 -0.0860  0.5723
  343MOL0     C47263   4.363   3.080  11.340  1.0603  0.0555 -0.0223
  343MOL0     C47264   4.477   3.100  11.243 -0.2137 -1.1054 -0.5276
  343MOL0     H47265   4.460   2.580  11.329  0.6012 -1.9309 -0.9111
  343MOL0     H47266   4.554   2.355  11.382 -0.9870 -0.5819  1.2587
  343MOL0     H47267   4.778   2.287  11.363 -1.5884 -3.5605 -2.3906
  343MOL0     H47268   4.704   2.150  11.446 -3.7426  0.9073  3.0658
  343MOL0     H47269   5.005   2.236  11.449  0.3447 -1.1441  1.1601
  343MOL0     H47270   4.941   2.144  11.579  4.3273  0.8881 -0.3686
  343MOL0     H47271   5.058   2.006  11.402 -0.2683 -0.1920 -2.1133
  343MOL0     H47272   4.895   1.960  11.430 -1.4319  1.2610 -1.0779
  343MOL0     H47273   4.855   1.954  11.232  0.8761  0.5465 -2.0612
  343MOL0     H47274   4.882   2.137  11.227  2.0680  1.5529  3.4262
  343MOL0     H47275   5.006   1.993  11.058  0.0045  0.6253 -1.6646
  343MOL0     H47276   5.112   1.937  11.192 -0.8885  0.8307  2.4073
  343MOL0     H47277   5.080   2.227  11.072  0.3374  2.6970  1.8004
  343MOL0     H47278   5.153   2.208  11.228 -0.7650  1.5370 -0.1437
  343MOL0     H47279   5.280   2.120  10.956  3.7425  0.3336  0.5335
  343MOL0     H47280   5.312   2.046  11.113 -1.0367 -0.5835  0.6163
  343MOL0     H47281   5.443   2.242  10.988  0.2498 -0.0024  1.0088
  343MOL0     H47282   5.302   2.338  11.049  1.0894  1.1862  0.0551
  343MOL0     H47283   5.292   2.360  11.291 -0.0702 -0.2198 -3.6662
  343MOL0     H47284   5.397   2.395  11.558  1.1161  1.5177  1.5561
  343MOL0     H47285   5.460   2.525  11.470  0.9410 -0.8698 -2.1206
  343MOL0     H47286   5.659   2.329  11.591 -3.4959 -1.6926 -0.7370
  343MOL0     H47287   5.680   2.492  11.510 -0.6552  1.3926  0.1581
  343MOL0     H47288   5.564   2.609  11.681 -1.8883  1.0949  2.4365
  343MOL0     H47289   5.507   2.461  11.761  0.2338 -2.7994 -2.6312
  343MOL0     H47290   5.804   2.564  11.724  3.7707 -1.0474  2.8888
  343MOL0     H47291   5.710   2.554  11.874 -3.6779 -0.8279  0.2139
  343MOL0     H47292   5.604   2.427  12.001 -0.6451 -1.2442 -0.6047
  343MOL0     H47293   5.514   2.407  12.202 -0.6280 -0.3900 -0.7102
  343MOL0     H47294   5.589   2.339  12.338  0.9671  1.6864  0.9927
  343MOL0     H47295   5.470   2.238  12.240  1.1935 -0.4156  0.4742
  343MOL0     H47296   5.821   2.003  12.564  0.3395  2.7608  2.1007
  343MOL0     H47297   5.758   1.882  12.789 -0.7905 -1.4737 -0.2100
  343MOL0     H47298   5.534   2.007  12.974  1.4815 -1.8530 -1.8549
  343MOL0     H47299   5.377   1.980  12.922  3.1101  2.5621 -3.2234
  343MOL0     H47300   5.378   1.881  13.150  2.9478  1.8066  1.4365
  343MOL0     H47301   5.395   1.749  13.019 -0.0712 -0.0765  2.0130
  343MOL0     H47302   5.646   1.852  13.137  0.6635 -0.4965 -2.1671
  343MOL0     H47303   5.584   1.693  13.089  0.8815 -0.4207 -0.4940
  343MOL0     H47304   5.459   1.667  13.311  0.9644 -0.4358  0.5290
  343MOL0     H47305   5.476   1.847  13.346  0.7932 -0.6990  3.1934
  343MOL0     H47306   5.715   1.656  13.339  1.8199 -1.1579  4.2525
  343MOL0     H47307   5.717   1.827  13.367  1.8215 -2.0261 -0.4523
  343MOL0     H47308   5.589   1.602  13.515 -2.0829  0.9359 -1.2789
  343MOL0     H47309   5.552   1.768  13.558  1.9620  0.6959  2.0740
  343MOL0     H47310   5.797   1.798  13.624  0.0530  0.0215  3.6475
  343MOL0     H47311   5.838   1.629  13.586 -0.5091 -1.6783  2.7597
  343MOL0     H47312   5.809   1.651  13.818 -0.7404 -1.5488  0.8826
  343MOL0     H47313   5.720   1.531  13.733 -1.2552 -0.3389  1.3824
  343MOL0     H47314   5.354   1.943  12.678  1.0180 -0.3197  3.0479
  343MOL0     H47315   5.417   2.037  12.457 -1.3210  0.3953  1.3715
  343MOL0     H47316   5.853   2.011  12.045  0.3026  0.3805 -0.3866
  343MOL0     H47317   5.921   2.159  11.886  1.8699  0.3171  2.5370
  343MOL0     H47318   4.731   2.520  11.745  2.5737 -4.5817 -2.1359
  343MOL0     H47319   4.587   2.717  11.717 -0.4495 -0.0980 -0.8348
  343MOL0     H47320   4.199   2.847  11.505 -3.3273  0.3129 -2.0606
  343MOL0     H47321   4.051   3.034  11.552 -0.3667  0.3110 -0.7910
  343MOL0     H47322   3.890   3.203  11.506 -0.0161  0.4081 -0.0920
  343MOL0     H47323   4.002   3.289  11.608 -0.9936 -0.9278  0.0680
  343MOL0     H47324   3.803   3.420  11.565  0.8236  2.2834  0.3766
  343MOL0     H47325   3.863   3.427  11.390  1.1137 -1.2386 -1.2744
  343MOL0     H47326   3.995   3.531  11.647  3.8210 -1.5274  0.3522
  343MOL0     H47327   4.091   3.527  11.499 -0.3320  0.2113 -0.3094
  343MOL0     H47328   3.853   3.707  11.588  0.5830 -0.2309  0.3418
  343MOL0     H47329   3.886   3.688  11.412 -2.4205  3.4395  0.6968
  343MOL0     H47330   4.190   3.939  11.531 -0.7703 -0.0835  2.3844
  343MOL0     H47331   4.265   3.276  11.274 -2.7375 -1.6568 -2.3107
  343MOL0     H47332   4.431   3.088  11.145 -2.7021  0.9001  0.3002
  343MOL0     H47333   4.514   3.202  11.254 -1.2792 -0.7509 -0.1430
  343MOL0     H47334   4.568   3.042  11.263  1.0265  0.7486 -0.5110
  344MOL0     O47335   1.838   4.903   2.566  0.1544 -0.0994  0.5123
  344MOL0     C47336   1.728   4.880   2.515  0.7314  0.4656 -0.7049
  344MOL0     O47337   1.627   4.798   2.568 -0.4775 -0.6401  0.6316
  344MOL0     C47338   1.640   4.761   2.696 -0.6444 -0.1418 -0.5797
  344MOL0     C47339   1.716   4.651   2.709  0.0951 -0.8134 -0.0532
  344MOL0     C47340   1.726   4.592   2.837 -0.2618  0.3723  0.2031
  344MOL0     C47341   1.680   4.656   2.959 -0.7626 -0.5776 -1.1820
  344MOL0     O47342   1.711   4.620   3.092  0.6972 -0.0218 -0.0186
  344MOL0     C47343   1.849   4.604   3.110  0.4929 -0.4566  0.2291
  344MOL0     C47344   1.890   4.587   3.260  0.0402  0.7593 -0.1904
  344MOL0     C47345   1.884   4.715   3.337 -0.8286  0.2171  0.9427
  344MOL0     C47346   1.856   4.696   3.490 -0.3513  0.0484  0.4859
  344MOL0     C47347   1.933   4.797   3.574  0.2657 -0.6315  0.1928
  344MOL0     C47348   1.903   4.765   3.721 -0.1947 -0.5243  0.5851
  344MOL0     C47349   1.982   4.848   3.825  0.5591 -0.4274  0.8266
  344MOL0     C47350   1.964   4.789   3.961 -0.1790  0.7397  0.1684
  344MOL0     N47351   2.059   4.833   4.066  0.3625 -0.1803 -0.3522
  344MOL0     C47352   2.042   4.926   4.171 -0.0563  0.5590 -0.4245
  344MOL0     C47353   2.161   4.921   4.231 -0.0649 -0.7895  0.1222
  344MOL0     C47354   2.197   5.013   4.346  0.8171  0.2351  0.2997
  344MOL0     C47355   2.327   5.086   4.309 -1.2257 -0.6073 -0.0744
  344MOL0     C47356   2.291   5.233   4.279 -0.1289 -1.7677  0.0770
  344MOL0     C47357   2.405   5.303   4.225 -0.4280 -0.3887  0.8566
  344MOL0     O47358   2.502   5.342   4.323  0.3258 -0.0895 -0.3832
  344MOL0     C47359   2.628   5.362   4.286 -0.3444  0.4119 -0.4158
  344MOL0     C47360   2.733   5.322   4.370 -0.0063 -0.0083  1.0736
  344MOL0     C47361   2.864   5.353   4.342  0.1564 -0.4784  0.1830
  344MOL0     C47362   2.974   5.310   4.434  0.1549 -0.0642  0.2145
  344MOL0     C47363   2.895   5.427   4.226  0.2041  1.0367  0.8858
  344MOL0     C47364   3.023   5.451   4.177 -0.2135 -1.0382 -0.0720
  344MOL0     O47365   3.081   5.566   4.215 -0.0992  0.0454 -0.2409
  344MOL0     C47366   3.210   5.586   4.175  0.0314  0.9654  0.1712
  344MOL0     C47367   3.316   5.561   4.266  0.3427  0.2660  0.0719
  344MOL0     C47368   3.452   5.571   4.221  0.2138  0.1875 -0.7040
  344MOL0     C47369   3.478   5.596   4.089 -0.1112 -0.5486 -0.7281
  344MOL0     O47370   3.617   5.590   4.052  0.5692  0.7056 -0.0295
  344MOL0     C47371   3.668   5.591   3.919  0.0923 -1.6030 -0.1723
  344MOL0     C47372   3.808   5.665   3.926 -0.0940 -0.2875 -0.2583
  344MOL0     C47373   3.828   5.781   4.023 -0.8734 -0.1808 -0.2214
  344MOL0     C47374   3.965   5.851   4.007 -0.4642  0.6445 -0.3666
  344MOL0     C47375   3.991   5.960   4.112 -0.2940  0.1445 -0.3187
  344MOL0     C47376   4.106   6.049   4.071  0.4252 -0.5188 -0.1256
  344MOL0     C47377   4.155   6.135   4.185 -0.3970  0.2598  0.8733
  344MOL0     C47378   4.171   6.272   4.111  0.6876 -0.9256  0.0323
  344MOL0    Cl47379   4.211   6.409   4.232  0.1476  0.3055  0.1800
  344MOL0     C47380   3.374   5.642   3.994 -0.9297  0.1214 -0.3092
  344MOL0     C47381   3.243   5.631   4.040 -0.5440  0.5067  0.4605
  344MOL0     O47382   3.070   5.363   4.113  0.0702  0.3796 -0.2694
  344MOL0     C47383   2.792   5.489   4.152 -0.5810 -0.0252 -0.8024
  344MOL0     C47384   2.660   5.456   4.187 -0.6580 -0.1848  0.3663
  344MOL0     N47385   2.257   4.833   4.169  0.1285  1.0755 -0.0610
  344MOL0     N47386   2.184   4.775   4.076  0.1953 -0.3737 -0.7866
  344MOL0     C47387   1.611   4.779   2.939  0.2903 -0.1399  0.3449
  344MOL0     C47388   1.588   4.828   2.812  0.3915 -1.1603 -0.8113
  344MOL0     C47389   1.702   4.942   2.390 -0.1118 -0.1301  0.8535
  344MOL0     C47390   1.731   5.076   2.373  0.0467 -0.2366  0.7519
  344MOL0     C47391   1.697   5.146   2.253 -0.9167 -0.4917 -0.7029
  344MOL0     C47392   1.662   5.077   2.138 -0.3125  0.1420 -1.2167
  344MOL0     O47393   1.641   5.141   2.018 -0.2212  0.2666 -0.1540
  344MOL0     C47394   1.517   5.121   1.941 -0.6024 -0.8850 -0.0564
  344MOL0     C47395   1.389   5.143   2.028 -0.3951 -0.8306 -0.5234
  344MOL0     C47396   1.361   5.293   2.054 -0.0684 -0.2867  1.3083
  344MOL0     C47397   1.244   5.356   1.961  0.2316 -0.0146 -0.3572
  344MOL0     C47398   1.254   5.332   1.822 -0.1489 -0.1421  0.2973
  344MOL0     C47399   1.268   5.300   1.701 -0.2568 -0.1396  0.9415
  344MOL0     C47400   1.623   4.945   2.162  0.5696  0.4794 -0.7819
  344MOL0     C47401   1.644   4.871   2.283  0.2488 -0.7668  0.5327
  344MOL0     C47402   1.597   4.732   2.277  0.3594  0.4838  0.5985
  344MOL0     H47403   1.760   4.602   2.622 -0.6880  2.0339 -2.2039
  344MOL0     H47404   1.775   4.495   2.835 -1.9725 -0.6471 -4.1421
  344MOL0     H47405   1.891   4.699   3.073  0.4201 -0.6689 -0.4168
  344MOL0     H47406   1.895   4.530   3.043 -0.3770  0.0920 -1.0185
  344MOL0     H47407   1.833   4.506   3.305  2.1506 -1.0198 -0.5527
  344MOL0     H47408   1.995   4.554   3.265  0.1038  1.1895  3.3058
  344MOL0     H47409   1.980   4.764   3.326 -1.3434  1.8832  3.1634
  344MOL0     H47410   1.808   4.779   3.292  0.1254  2.0716  1.8685
  344MOL0     H47411   1.748   4.698   3.510 -0.9120 -2.7514 -1.5845
  344MOL0     H47412   1.901   4.601   3.520  3.5906  1.0957 -1.5132
  344MOL0     H47413   1.917   4.899   3.539  2.4634  0.0602  1.0241
  344MOL0     H47414   2.039   4.785   3.551  0.3482  0.9771 -0.3774
  344MOL0     H47415   1.794   4.766   3.736 -0.4679  0.3265 -1.2504
  344MOL0     H47416   1.946   4.665   3.730 -0.4435 -0.7118 -0.2551
  344MOL0     H47417   1.951   4.951   3.804 -1.8156 -1.4430 -1.0824
  344MOL0     H47418   2.089   4.859   3.805  0.4737  3.9390  1.8359
  344MOL0     H47419   1.859   4.794   3.992 -0.5636 -0.8363 -0.7629
  344MOL0     H47420   1.974   4.681   3.952 -2.1586  0.3570  1.7711
  344MOL0     H47421   1.953   4.974   4.210  1.2321  2.2321  0.5778
  344MOL0     H47422   2.205   4.955   4.439  0.4286 -0.4177 -0.0692
  344MOL0     H47423   2.115   5.083   4.364  0.8174  0.1667  0.5796
  344MOL0     H47424   2.392   5.079   4.396 -1.4227 -0.6967  0.0675
  344MOL0     H47425   2.375   5.038   4.223 -1.9087  0.3726 -1.0363
  344MOL0     H47426   2.221   5.236   4.195  0.5725  1.9330 -0.5224
  344MOL0     H47427   2.260   5.287   4.368  2.3588 -1.9793  1.1726
  344MOL0     H47428   2.450   5.253   4.139 -1.4543 -2.0178  1.2270
  344MOL0     H47429   2.374   5.399   4.184  2.2474 -0.0426 -0.5799
  344MOL0     H47430   2.708   5.265   4.459 -0.2003 -4.8385 -1.7202
  344MOL0     H47431   2.933   5.298   4.534  1.1326  4.8109  1.4510
  344MOL0     H47432   3.051   5.388   4.434  1.3506 -1.1044  3.4298
  344MOL0     H47433   3.024   5.219   4.399 -1.1625 -1.2405  1.2949
  344MOL0     H47434   3.305   5.534   4.371  4.2358  3.9039  1.7077
  344MOL0     H47435   3.533   5.548   4.288  0.3476 -1.3091 -1.3350
  344MOL0     H47436   3.672   5.494   3.870  0.1314 -0.3326 -2.8542
  344MOL0     H47437   3.600   5.650   3.856  2.8568  1.0707 -0.8858
  344MOL0     H47438   3.890   5.598   3.957  1.0739  0.6353 -1.2486
  344MOL0     H47439   3.829   5.691   3.822  0.9530  1.8990  0.4458
  344MOL0     H47440   3.824   5.755   4.129  3.5962  2.1950  0.7828
  344MOL0     H47441   3.744   5.852   4.020 -1.4653 -0.6988  2.2022
  344MOL0     H47442   3.983   5.885   3.905  3.0482  1.3252  0.3447
  344MOL0     H47443   4.046   5.781   4.029 -1.7078 -0.3405  1.3312
  344MOL0     H47444   3.909   6.029   4.137  1.0065  1.4515  0.5023
  344MOL0     H47445   4.002   5.903   4.204 -2.7972  2.3437  1.4996
  344MOL0     H47446   4.058   6.110   3.994 -0.3043 -1.2088 -0.2368
  344MOL0     H47447   4.197   5.993   4.046  0.1447 -2.2309  2.2506
  344MOL0     H47448   4.245   6.096   4.234 -1.6626 -0.9094  2.3682
  344MOL0     H47449   4.087   6.132   4.270  2.2497 -3.3230  3.1480
  344MOL0     H47450   4.079   6.301   4.060  1.4999 -0.6954 -1.3301
  344MOL0     H47451   4.251   6.258   4.038  1.1543 -1.2935  0.6015
  344MOL0     H47452   3.392   5.691   3.899 -2.8510  0.5133 -0.5274
  344MOL0     H47453   3.168   5.660   3.967  0.5146  0.7444 -0.5627
  344MOL0     H47454   2.812   5.542   4.059  4.6436  2.5258  1.3644
  344MOL0     H47455   2.595   5.513   4.121 -1.6190 -1.6637 -0.0100
  344MOL0     H47456   1.575   4.830   3.027  0.0088 -4.5715  3.1381
  344MOL0     H47457   1.523   4.914   2.807  3.1370  1.2049  0.9596
  344MOL0     H47458   1.791   5.124   2.450  2.0196  0.6955 -1.2469
  344MOL0     H47459   1.715   5.253   2.258 -1.1415 -0.4507 -0.7816
  344MOL0     H47460   1.500   5.199   1.866 -2.5347 -2.4344 -1.3472
  344MOL0     H47461   1.514   5.025   1.889 -1.5626 -1.4776  1.0771
  344MOL0     H47462   1.406   5.099   2.127 -1.6227 -2.1606 -0.8787
  344MOL0     H47463   1.307   5.084   1.986 -0.1292 -1.2346 -0.4789
  344MOL0     H47464   1.339   5.305   2.160  2.5771 -0.3607  1.9483
  344MOL0     H47465   1.444   5.363   2.037 -3.0364  3.0829 -0.4849
  344MOL0     H47466   1.250   5.461   1.990 -0.0136 -0.6266  2.0781
  344MOL0     H47467   1.147   5.322   1.999  0.7564  2.1445  3.3547
  344MOL0     H47468   1.298   5.293   1.599  1.4205 -0.8649  1.4467
  344MOL0     H47469   1.574   4.892   2.081 -1.0772 -2.2842  1.8206
  344MOL0     H47470   1.490   4.739   2.256  0.0085 -1.3642  1.5217
  344MOL0     H47471   1.649   4.673   2.200 -1.0714  1.9327 -1.6024
  344MOL0     H47472   1.618   4.681   2.372 -0.5137 -0.1451  0.4723
  345MOL0     O47473   8.880   8.353   0.580  0.6504  0.3521  0.4916
  345MOL0     C47474   8.790   8.270   0.574  0.1486 -0.4143 -1.2825
  345MOL0     O47475   8.807   8.139   0.598 -0.5077  0.0231  0.1987
  345MOL0     C47476   8.912   8.070   0.544 -0.0141 -0.0793  1.1826
  345MOL0     C47477   8.932   7.938   0.584  0.4029  1.2405 -0.2379
  345MOL0     C47478   9.040   7.863   0.532  0.2356  0.2926 -0.2964
  345MOL0     C47479   9.140   7.931   0.447  0.2602 -0.1829 -0.4835
  345MOL0     O47480   9.255   7.864   0.398  0.1990 -1.2797 -0.1415
  345MOL0     C47481   9.282   7.727   0.433  0.6580 -0.4127 -0.1969
  345MOL0     C47482   9.412   7.683   0.363  0.4374 -0.1753 -0.4220
  345MOL0     C47483   9.534   7.762   0.412 -0.5402  0.9455 -0.3917
  345MOL0     C47484   9.665   7.700   0.354  0.6261 -0.4519 -0.1655
  345MOL0     C47485   9.785   7.779   0.421  0.0972 -0.9427  0.0682
  345MOL0     C47486   9.917   7.731   0.372  0.0501 -0.1962 -0.4864
  345MOL0     C47487  10.018   7.840   0.382  0.1478 -0.5608  0.7790
  345MOL0     C47488  10.139   7.793   0.300 -0.1908  0.2350  0.0580
  345MOL0     N47489  10.179   7.665   0.368 -0.6832  0.6663 -0.6752
  345MOL0     C47490  10.230   7.669   0.493  0.2545  0.4863  0.4877
  345MOL0     C47491  10.257   7.541   0.518  0.7892  0.5154 -1.2715
  345MOL0     C47492  10.307   7.490   0.647 -0.2128 -0.0892  0.0683
  345MOL0     C47493  10.339   7.336   0.643 -0.4267 -0.6299 -0.1065
  345MOL0     C47494  10.402   7.298   0.775 -0.7183  0.4639 -0.5462
  345MOL0     C47495  10.491   7.174   0.755 -0.5237 -0.3028 -0.4986
  345MOL0     O47496  10.552   7.139   0.884  0.2897  0.4492 -0.1802
  345MOL0     C47497  10.620   7.018   0.892 -0.4836 -0.0348  0.1285
  345MOL0     C47498  10.691   6.995   1.011 -0.4109 -0.1697  0.2053
  345MOL0     C47499  10.775   6.883   1.021 -0.9681 -0.2692 -0.8132
  345MOL0     C47500  10.857   6.873   1.151  0.7114 -0.0517  0.6365
  345MOL0     C47501  10.762   6.782   0.923 -0.0505 -0.4949 -0.4406
  345MOL0     C47502  10.853   6.662   0.910  0.5702  0.2018  0.8020
  345MOL0     O47503  10.819   6.573   0.807 -0.4279 -1.0142 -0.1863
  345MOL0     C47504  10.915   6.482   0.769  0.3999  0.1240 -0.5131
  345MOL0     C47505  11.052   6.519   0.747 -0.0343 -0.1243  0.1819
  345MOL0     C47506  11.149   6.430   0.697  0.6080  0.0833  0.3019
  345MOL0     C47507  11.109   6.303   0.650 -0.2630  0.1647 -0.5680
  345MOL0     O47508  11.209   6.222   0.608 -1.0114 -0.4640  0.8941
  345MOL0     C47509  11.227   6.189   0.464  1.2561  0.1255 -0.7995
  345MOL0     C47510  11.376   6.174   0.442  1.0030  0.1387  0.2170
  345MOL0     C47511  11.447   6.066   0.532  0.7725 -0.7228 -0.3883
  345MOL0     C47512  11.590   6.034   0.470  0.5671 -0.1330  0.0600
  345MOL0     C47513  11.678   5.933   0.537 -0.1354  0.1440 -0.6227
  345MOL0     C47514  11.754   5.965   0.675  0.0703 -0.5448  0.3112
  345MOL0     C47515  11.871   6.066   0.655  0.2840  0.1858  0.2488
  345MOL0     C47516  11.983   6.090   0.752  0.8306  0.6082 -0.5152
  345MOL0    Cl47517  11.923   6.168   0.901  0.1545 -0.3607  0.1679
  345MOL0     C47518  10.973   6.271   0.671 -0.0570 -0.3985 -0.1317
  345MOL0     C47519  10.885   6.355   0.727 -0.0653  0.3486  0.7741
  345MOL0     O47520  10.938   6.644   0.994  0.8272  0.7591 -0.2229
  345MOL0     C47521  10.674   6.793   0.816  0.3581  0.3774  0.5071
  345MOL0     C47522  10.611   6.909   0.798 -1.1271 -0.1184  0.1279
  345MOL0     N47523  10.231   7.470   0.406  0.2685  0.2146  0.8743
  345MOL0     N47524  10.186   7.550   0.315  0.8796  0.6431 -0.2898
  345MOL0     C47525   9.106   8.052   0.389 -1.6814 -1.1554  0.3890
  345MOL0     C47526   8.991   8.122   0.436 -0.3177  0.1534  1.4774
  345MOL0     C47527   8.652   8.322   0.575 -1.0718 -1.3260  0.2627
  345MOL0     C47528   8.623   8.403   0.686 -0.3462  0.0953 -0.2771
  345MOL0     C47529   8.492   8.442   0.689  0.2371 -0.0895 -0.4560
  345MOL0     C47530   8.385   8.408   0.599 -0.9731  0.1007 -0.2575
  345MOL0     O47531   8.262   8.453   0.618  0.1073  0.0249 -0.8873
  345MOL0     C47532   8.171   8.461   0.502 -0.6744  0.2387  1.2076
  345MOL0     C47533   8.039   8.535   0.543 -0.0261 -0.2899  1.0321
  345MOL0     C47534   7.955   8.463   0.641 -0.5577 -0.6371  0.1326
  345MOL0     C47535   7.874   8.585   0.704  0.2725  0.1343 -0.6160
  345MOL0     C47536   7.749   8.539   0.752 -0.8726  0.2074  0.0958
  345MOL0     C47537   7.657   8.500   0.824 -0.4842  0.3960  1.0061
  345MOL0     C47538   8.422   8.327   0.492 -0.3630 -0.4474  0.1870
  345MOL0     C47539   8.557   8.278   0.480  0.6047  0.4891 -0.2408
  345MOL0     C47540   8.592   8.183   0.365 -0.8051  0.6945 -0.2751
  345MOL0     H47541   8.863   7.891   0.653  0.4021 -2.0259 -2.2357
  345MOL0     H47542   9.052   7.761   0.566 -0.2253 -0.3489 -1.9693
  345MOL0     H47543   9.203   7.659   0.400  1.9753 -2.0957 -0.0272
  345MOL0     H47544   9.280   7.711   0.541 -2.5032  2.4921  0.3302
  345MOL0     H47545   9.427   7.576   0.379 -2.3661 -0.4689  0.8406
  345MOL0     H47546   9.395   7.691   0.256 -1.7297  2.0852  0.0077
  345MOL0     H47547   9.521   7.864   0.375 -1.5319  2.0625  2.7335
  345MOL0     H47548   9.536   7.764   0.521 -0.7756  0.3918 -0.3722
  345MOL0     H47549   9.670   7.595   0.384 -0.8179 -0.3969  0.3602
  345MOL0     H47550   9.663   7.697   0.245 -2.8320  0.6628 -0.2564
  345MOL0     H47551   9.779   7.766   0.529  2.0563  1.7205  0.5734
  345MOL0     H47552   9.773   7.881   0.384 -0.2428 -1.4619 -1.3237
  345MOL0     H47553   9.936   7.640   0.430  2.6678  0.7201  0.2344
  345MOL0     H47554   9.913   7.698   0.268  1.5246  1.1903 -1.0179
  345MOL0     H47555  10.053   7.861   0.483 -0.5738  3.4728  0.3554
  345MOL0     H47556   9.980   7.928   0.329 -0.3150 -0.3224  1.5018
  345MOL0     H47557  10.103   7.771   0.199 -0.5200 -1.0026  0.4388
  345MOL0     H47558  10.221   7.865   0.289  1.9731 -1.7536  2.1075
  345MOL0     H47559  10.238   7.752   0.563  0.3420 -0.7685  2.0309
  345MOL0     H47560  10.236   7.513   0.726  3.1719  3.3134  2.4713
  345MOL0     H47561  10.399   7.538   0.682  0.3322 -0.7126 -0.4775
  345MOL0     H47562  10.246   7.279   0.634 -1.2572  0.1427  2.6131
  345MOL0     H47563  10.410   7.323   0.561  1.7726  4.5406  0.5568
  345MOL0     H47564  10.478   7.368   0.813  0.5650 -1.1815  0.0542
  345MOL0     H47565  10.330   7.273   0.853  0.7565 -2.7843 -0.0577
  345MOL0     H47566  10.432   7.095   0.708 -2.5335  1.2002 -0.6181
  345MOL0     H47567  10.566   7.203   0.680  0.8661  0.4148  1.1147
  345MOL0     H47568  10.682   7.090   1.063  0.6563  1.6586 -2.7245
  345MOL0     H47569  10.856   6.770   1.187  0.2596  0.6815  2.8684
  345MOL0     H47570  10.810   6.936   1.226 -0.0385 -1.6315  1.5431
  345MOL0     H47571  10.960   6.902   1.130  0.4176  0.9811  0.5837
  345MOL0     H47572  11.076   6.619   0.782  0.4706 -1.0705  2.7799
  345MOL0     H47573  11.252   6.460   0.682  1.0527 -0.9368  1.1611
  345MOL0     H47574  11.166   6.101   0.439 -2.0401  2.5040 -1.8090
  345MOL0     H47575  11.181   6.268   0.404 -1.3211  1.0846  2.1404
  345MOL0     H47576  11.392   6.151   0.336 -1.7788 -0.3153 -0.1578
  345MOL0     H47577  11.423   6.270   0.465  0.6353  0.3607  0.0493
  345MOL0     H47578  11.399   5.968   0.537  1.0059 -1.3399 -5.1475
  345MOL0     H47579  11.461   6.115   0.628  2.0583  0.3993 -1.1051
  345MOL0     H47580  11.642   6.130   0.466 -1.1326  0.8240 -0.5420
  345MOL0     H47581  11.566   6.006   0.367 -0.9626  0.7245  0.1566
  345MOL0     H47582  11.612   5.846   0.546 -1.2085  0.6396 -2.9127
  345MOL0     H47583  11.756   5.898   0.470 -1.7432  2.1537 -3.8219
  345MOL0     H47584  11.799   5.870   0.705  1.4007 -0.4995 -1.3838
  345MOL0     H47585  11.689   6.007   0.752  1.3970  1.2533  0.5138
  345MOL0     H47586  11.834   6.168   0.638 -0.9215 -0.0344  1.3647
  345MOL0     H47587  11.912   6.025   0.562 -1.2610 -1.0519  0.0769
  345MOL0     H47588  12.064   6.142   0.700  1.8298 -2.6875 -2.6403
  345MOL0     H47589  12.033   5.999   0.789 -0.2731  0.6223  1.0821
  345MOL0     H47590  10.939   6.173   0.642 -2.0664 -0.1667  1.2281
  345MOL0     H47591  10.783   6.321   0.743  0.4849 -1.3572  0.7868
  345MOL0     H47592  10.667   6.710   0.746  2.3578 -2.2157  3.1325
  345MOL0     H47593  10.560   6.926   0.704  4.2763  2.5557 -2.8023
  345MOL0     H47594   9.167   8.102   0.315  0.0829  1.1526  3.1750
  345MOL0     H47595   8.969   8.223   0.403 -0.9674 -0.1982  0.8164
  345MOL0     H47596   8.694   8.423   0.765  1.5332 -1.9537 -1.3496
  345MOL0     H47597   8.480   8.509   0.773  3.1345  0.3040 -0.2624
  345MOL0     H47598   8.223   8.513   0.420  0.6336 -0.8374  1.3131
  345MOL0     H47599   8.147   8.358   0.473  2.5199 -0.7321  1.5791
  345MOL0     H47600   7.979   8.541   0.452  0.9792  0.1114  0.3862
  345MOL0     H47601   8.054   8.640   0.570  0.1296 -0.5252  1.8886
  345MOL0     H47602   7.879   8.399   0.596 -2.4061 -0.4118  2.7472
  345MOL0     H47603   8.022   8.418   0.716  1.3349 -3.9216 -3.1590
  345MOL0     H47604   7.851   8.664   0.632  2.0929  0.0752 -1.3363
  345MOL0     H47605   7.928   8.635   0.785  1.4091 -0.0750 -1.2182
  345MOL0     H47606   7.575   8.460   0.881  0.5000 -0.2519  2.0223
  345MOL0     H47607   8.357   8.294   0.412 -1.8445  1.7809  0.3758
  345MOL0     H47608   8.592   8.089   0.420 -1.6014  2.3263  2.7065
  345MOL0     H47609   8.530   8.180   0.274  2.4289  0.1399 -2.6387
  345MOL0     H47610   8.690   8.193   0.318 -1.7666  1.3207 -2.2844
  346MOL0     O47611   3.511   5.002   3.417  0.0706  0.6719 -0.4415
  346MOL0     C47612   3.610   4.994   3.488 -0.1211 -1.1878  0.1827
  346MOL0     O47613   3.638   5.077   3.592  0.1724  0.8316  0.7068
  346MOL0     C47614   3.540   5.167   3.615 -0.5140 -0.6534  0.7975
  346MOL0     C47615   3.547   5.289   3.550 -0.4305 -0.8880  0.1277
  346MOL0     C47616   3.456   5.386   3.581 -0.0499  0.4261 -0.1979
  346MOL0     C47617   3.355   5.366   3.672  0.1081  0.1802 -0.5717
  346MOL0     O47618   3.260   5.459   3.686 -0.1824  0.7890  0.1984
  346MOL0     C47619   3.152   5.444   3.778 -0.1944  0.5502 -0.4323
  346MOL0     C47620   3.054   5.331   3.724  1.1260 -0.5473  0.9270
  346MOL0     C47621   2.916   5.348   3.790  0.1867  0.0261 -0.6303
  346MOL0     C47622   2.816   5.238   3.754  0.1810 -0.0368 -0.2884
  346MOL0     C47623   2.673   5.238   3.825 -0.0817 -0.0722  0.8538
  346MOL0     C47624   2.603   5.105   3.805  0.3770  0.0647 -0.2136
  346MOL0     C47625   2.477   5.097   3.902  0.5019  0.4909  0.2696
  346MOL0     C47626   2.374   4.986   3.866  0.6383 -0.7243 -0.4641
  346MOL0     N47627   2.278   5.016   3.755  0.6277  0.6039 -0.5253
  346MOL0     C47628   2.202   5.132   3.752 -0.3576  0.2357 -0.0807
  346MOL0     C47629   2.169   5.145   3.622 -0.2591  0.5798  0.7218
  346MOL0     C47630   2.090   5.258   3.554  0.5362 -0.2998  0.1108
  346MOL0     C47631   1.941   5.206   3.542 -0.7800 -0.7999  0.7893
  346MOL0     C47632   1.868   5.297   3.436  1.0308 -0.3887 -0.4551
  346MOL0     C47633   1.922   5.278   3.294  0.6750  0.1904 -0.3279
  346MOL0     O47634   1.868   5.390   3.228  0.0343  0.1558 -0.4390
  346MOL0     C47635   1.865   5.390   3.082  0.6278 -0.6651  0.7779
  346MOL0     C47636   1.939   5.297   3.006  0.6176  0.3373 -0.5396
  346MOL0     C47637   1.936   5.297   2.873 -1.0695  0.5829  0.2776
  346MOL0     C47638   1.995   5.181   2.800  0.3237  0.7436  0.1619
  346MOL0     C47639   1.879   5.408   2.809 -0.0406 -1.2126  0.4469
  346MOL0     C47640   1.866   5.428   2.661 -0.6794  0.1332  0.1688
  346MOL0     O47641   1.827   5.552   2.608 -0.2068  0.0376 -0.0437
  346MOL0     C47642   1.807   5.561   2.475  0.1324 -1.0189 -0.3678
  346MOL0     C47643   1.687   5.544   2.413 -0.1822 -0.4816 -0.1595
  346MOL0     C47644   1.683   5.562   2.269 -0.3708  0.6816 -0.8076
  346MOL0     C47645   1.797   5.587   2.199 -0.3697  0.0569 -0.1874
  346MOL0     O47646   1.802   5.621   2.065  0.4530  0.4586  0.3425
  346MOL0     C47647   1.687   5.564   1.998 -0.3618 -0.2453 -0.2815
  346MOL0     C47648   1.684   5.599   1.847  0.6172 -0.4273  0.8623
  346MOL0     C47649   1.814   5.559   1.784 -0.3012 -1.2219  0.8932
  346MOL0     C47650   1.805   5.407   1.754 -0.0467 -1.1926 -0.4007
  346MOL0     C47651   1.927   5.372   1.677  0.3325  0.2225  0.1426
  346MOL0     C47652   1.954   5.224   1.642 -0.3738  0.8876 -0.7974
  346MOL0     C47653   1.990   5.126   1.760  0.2463 -0.0256  0.5387
  346MOL0     C47654   2.079   5.032   1.679 -0.2251 -0.1912  0.1814
  346MOL0    Cl47655   2.114   4.923   1.806  0.0975  0.0785  0.4541
  346MOL0     C47656   1.914   5.587   2.270  0.5107  0.1905  0.7324
  346MOL0     C47657   1.925   5.581   2.403 -0.6926  0.4758 -0.6058
  346MOL0     O47658   1.913   5.340   2.595  0.5921 -0.3257  0.0445
  346MOL0     C47659   1.809   5.504   2.872 -0.0966 -0.5590  0.0145
  346MOL0     C47660   1.795   5.488   3.014  0.2056 -0.4302 -0.1359
  346MOL0     N47661   2.222   5.038   3.548  0.5360 -0.1016 -0.3959
  346MOL0     N47662   2.289   4.966   3.631 -0.3680 -0.3478 -0.3132
  346MOL0     C47663   3.348   5.248   3.742  0.1296  1.0563 -0.0769
  346MOL0     C47664   3.436   5.145   3.708  0.0192  0.1068  1.2591
  346MOL0     C47665   3.709   4.905   3.446 -0.3788  0.3195  1.0978
  346MOL0     C47666   3.753   4.902   3.310 -0.0192 -0.5387  0.0195
  346MOL0     C47667   3.859   4.826   3.272  0.4015  0.2266 -0.0194
  346MOL0     C47668   3.906   4.729   3.357  0.0469  0.0332 -0.3988
  346MOL0     O47669   4.008   4.641   3.337  0.0675  0.8657  0.4770
  346MOL0     C47670   4.112   4.683   3.248 -0.4150 -0.9556 -0.1413
  346MOL0     C47671   4.225   4.583   3.255  0.0197  1.2782  0.1230
  346MOL0     C47672   4.198   4.452   3.177  0.6407 -0.3045 -0.8447
  346MOL0     C47673   4.289   4.399   3.077 -0.3970  0.8034  0.5895
  346MOL0     C47674   4.426   4.358   3.118  0.4318  0.4583  0.0441
  346MOL0     C47675   4.538   4.309   3.140 -0.1497 -0.6107 -0.6456
  346MOL0     C47676   3.869   4.723   3.494 -0.8509 -0.9532  0.2321
  346MOL0     C47677   3.772   4.821   3.541 -0.7516  0.4463  0.8885
  346MOL0     C47678   3.737   4.821   3.686 -0.1573  0.0671 -0.6628
  346MOL0     H47679   3.623   5.321   3.479 -1.4636  4.7791  1.1392
  346MOL0     H47680   3.462   5.475   3.519  3.7474  1.2429  1.0356
  346MOL0     H47681   3.108   5.544   3.778 -2.1121 -0.2394 -1.6812
  346MOL0     H47682   3.191   5.425   3.879  0.2822  0.3715 -0.6510
  346MOL0     H47683   3.052   5.339   3.615  2.5923  0.8102  0.9677
  346MOL0     H47684   3.089   5.230   3.746 -0.0559 -1.3590 -0.7320
  346MOL0     H47685   2.923   5.350   3.899 -3.5474 -1.1663 -0.2327
  346MOL0     H47686   2.884   5.450   3.766 -1.9373 -0.8388 -1.7841
  346MOL0     H47687   2.795   5.243   3.647  0.5148  3.7668 -0.3144
  346MOL0     H47688   2.856   5.142   3.787 -0.2959  0.1126  0.7672
  346MOL0     H47689   2.618   5.322   3.782  1.4825 -0.1774 -1.5734
  346MOL0     H47690   2.693   5.243   3.932 -0.0494 -0.2419  0.8570
  346MOL0     H47691   2.565   5.109   3.703  2.2728  1.0847 -0.9183
  346MOL0     H47692   2.675   5.026   3.829 -1.2168 -1.6861 -0.9177
  346MOL0     H47693   2.434   5.197   3.892 -2.1084 -0.7464 -2.5456
  346MOL0     H47694   2.516   5.076   4.002 -1.1228 -1.4684  0.5771
  346MOL0     H47695   2.435   4.903   3.830 -0.5767 -1.3951 -1.0170
  346MOL0     H47696   2.315   4.968   3.955  1.6784 -0.3652  0.3205
  346MOL0     H47697   2.178   5.197   3.835  4.5900  1.4043  0.7560
  346MOL0     H47698   2.136   5.288   3.459  1.5915  2.7201  1.4855
  346MOL0     H47699   2.094   5.340   3.625  3.7267 -1.3761  1.3431
  346MOL0     H47700   1.942   5.101   3.511  2.8722  0.2835 -3.8945
  346MOL0     H47701   1.886   5.221   3.635 -1.3570 -2.6288  0.7921
  346MOL0     H47702   1.761   5.275   3.433  0.2307  2.9712 -0.6377
  346MOL0     H47703   1.865   5.400   3.472  0.6647 -0.2466 -0.8926
  346MOL0     H47704   2.031   5.283   3.285  0.6628 -1.5675 -2.0730
  346MOL0     H47705   1.888   5.182   3.256  0.1389  0.3717 -0.3121
  346MOL0     H47706   1.998   5.224   3.060  0.0903  0.7132  0.5690
  346MOL0     H47707   2.091   5.216   2.760  0.4842  1.4752  1.1368
  346MOL0     H47708   1.939   5.139   2.717  1.9906 -3.2062  0.7693
  346MOL0     H47709   2.015   5.093   2.862  2.2385  0.2338 -1.1085
  346MOL0     H47710   1.606   5.529   2.483 -1.6753 -0.6748 -1.8545
  346MOL0     H47711   1.579   5.545   2.241 -0.5578  0.4312 -0.0001
  346MOL0     H47712   1.702   5.455   2.001  0.8178 -0.1623 -1.6010
  346MOL0     H47713   1.587   5.586   2.035 -1.0800  1.7869 -3.0891
  346MOL0     H47714   1.598   5.553   1.798 -0.3552  0.2971  1.8365
  346MOL0     H47715   1.675   5.705   1.822  2.5289 -0.9544 -2.8148
  346MOL0     H47716   1.894   5.587   1.852 -0.5047 -1.5258  1.2565
  346MOL0     H47717   1.831   5.612   1.689  2.1846 -1.6517  1.0244
  346MOL0     H47718   1.711   5.390   1.699 -0.3003  4.1555 -2.1839
  346MOL0     H47719   1.816   5.357   1.850  1.9360  0.8347  0.4951
  346MOL0     H47720   1.924   5.421   1.580 -1.2926 -0.8602 -0.3825
  346MOL0     H47721   2.014   5.410   1.733 -0.6513 -0.5618  2.3136
  346MOL0     H47722   2.028   5.227   1.561  1.7394 -0.6330  0.9746
  346MOL0     H47723   1.856   5.193   1.604  0.1288 -0.3177 -1.1318
  346MOL0     H47724   1.902   5.071   1.793 -2.0369  0.4843 -3.9238
  346MOL0     H47725   2.027   5.177   1.850  0.2009 -0.5007  0.8252
  346MOL0     H47726   2.177   5.074   1.653 -0.4206 -1.7059 -3.5497
  346MOL0     H47727   2.035   4.978   1.595  2.3744 -1.1368 -0.6878
  346MOL0     H47728   1.998   5.617   2.208  1.8339 -0.0814  2.3317
  346MOL0     H47729   2.015   5.607   2.457 -0.7393 -2.4591  1.0788
  346MOL0     H47730   1.768   5.596   2.831  1.1929 -0.9985 -2.4350
  346MOL0     H47731   1.751   5.569   3.071  3.5946  1.2127  0.4388
  346MOL0     H47732   3.285   5.226   3.828 -0.3210  0.0526 -0.6512
  346MOL0     H47733   3.416   5.053   3.761 -0.1187 -0.3734  0.3923
  346MOL0     H47734   3.709   4.968   3.236  0.6754 -1.0377 -0.8632
  346MOL0     H47735   3.906   4.831   3.174 -0.9018  0.9328 -0.6454
  346MOL0     H47736   4.067   4.692   3.148 -0.9361  2.6058  0.2897
  346MOL0     H47737   4.161   4.778   3.268 -0.4186 -1.4321  2.4077
  346MOL0     H47738   4.241   4.573   3.362 -1.6457  3.4694  0.6725
  346MOL0     H47739   4.317   4.627   3.216  2.0205 -0.3759  2.6595
  346MOL0     H47740   4.176   4.371   3.248  3.5727 -3.0636 -2.7809
  346MOL0     H47741   4.098   4.469   3.137  0.6025  3.5434  0.5426
  346MOL0     H47742   4.305   4.474   2.999  1.1100 -0.7880 -0.7252
  346MOL0     H47743   4.228   4.317   3.036  0.6477 -1.0199  2.4898
  346MOL0     H47744   4.629   4.259   3.165 -0.8857 -1.3796  0.5891
  346MOL0     H47745   3.924   4.658   3.561  0.3633 -0.0762  0.1294
  346MOL0     H47746   3.631   4.837   3.704  0.2910  2.6646  0.0861
  346MOL0     H47747   3.757   4.723   3.731  1.6073  0.3294 -0.7805
  346MOL0     H47748   3.801   4.894   3.736  1.1091  0.8359 -3.2215
  347MOL0     O47749   4.225   5.986  10.582 -0.2478 -0.3579 -0.9465
  347MOL0     C47750   4.194   6.103  10.598  1.0000  0.5531  0.2306
  347MOL0     O47751   4.182   6.161  10.719  0.6713 -0.2571  0.2703
  347MOL0     C47752   4.267   6.115  10.815  0.8426 -0.0150 -0.6351
  347MOL0     C47753   4.210   6.039  10.918 -0.0603  0.4701  1.2678
  347MOL0     C47754   4.294   5.994  11.024  0.3960 -0.1007  0.2375
  347MOL0     C47755   4.430   6.014  11.020 -0.2062 -0.5618  1.0892
  347MOL0     O47756   4.498   5.960  11.120 -0.3078  0.3956 -0.4673
  347MOL0     C47757   4.626   6.002  11.167  0.3902 -0.9032 -0.3334
  347MOL0     C47758   4.692   5.893  11.250  0.1197 -0.8165  0.2954
  347MOL0     C47759   4.738   5.776  11.166  0.0446 -0.4945  0.4043
  347MOL0     C47760   4.885   5.766  11.144 -0.4700 -1.1196 -0.5695
  347MOL0     C47761   4.960   5.710  11.270  0.6046  1.0152  0.4992
  347MOL0     C47762   4.930   5.559  11.306  0.6165 -0.2033  0.5554
  347MOL0     C47763   5.026   5.490  11.399 -0.1249 -0.4802 -0.6086
  347MOL0     C47764   5.151   5.426  11.348 -0.2033  0.9007  0.1756
  347MOL0     N47765   5.244   5.529  11.310 -0.9490 -0.1246  0.6025
  347MOL0     C47766   5.336   5.523  11.203 -0.8228  0.2056  0.0519
  347MOL0     C47767   5.417   5.630  11.218  0.2914  0.8446  0.0674
  347MOL0     C47768   5.525   5.657  11.116 -0.0027  0.3623  0.6703
  347MOL0     C47769   5.656   5.688  11.194  0.9257 -0.1905 -0.4317
  347MOL0     C47770   5.747   5.570  11.165 -0.0762  0.2351  0.1032
  347MOL0     C47771   5.878   5.604  11.233 -0.2099 -0.7704 -0.2455
  347MOL0     O47772   5.952   5.716  11.176  0.6334  0.2489 -0.5545
  347MOL0     C47773   6.053   5.690  11.091  0.3571 -0.2289 -0.3152
  347MOL0     C47774   6.165   5.774  11.094 -0.2066 -0.0989 -1.0251
  347MOL0     C47775   6.283   5.751  11.029 -0.7468 -0.1153 -0.3645
  347MOL0     C47776   6.376   5.869  11.028  0.0604 -1.1019  0.0262
  347MOL0     C47777   6.304   5.634  10.947  0.5595  0.0042 -0.1406
  347MOL0     C47778   6.425   5.600  10.861  0.3678  0.5873 -0.6970
  347MOL0     O47779   6.418   5.490  10.785 -1.0491 -0.5971  0.1364
  347MOL0     C47780   6.533   5.433  10.729 -0.4244  0.3402  1.0538
  347MOL0     C47781   6.652   5.497  10.680  0.4644 -0.5547 -0.4962
  347MOL0     C47782   6.760   5.416  10.631  1.1128 -0.3473  1.0543
  347MOL0     C47783   6.753   5.281  10.639  0.6480 -0.3012  0.5502
  347MOL0     O47784   6.853   5.216  10.565  0.3866 -0.1861 -0.2976
  347MOL0     C47785   6.836   5.071  10.540 -0.4318 -0.8632  0.4079
  347MOL0     C47786   6.893   4.995  10.652 -0.3075 -0.0115  0.2482
  347MOL0     C47787   7.034   4.944  10.637  0.1820  0.4217  0.1620
  347MOL0     C47788   7.084   4.849  10.749 -0.4232  0.5308  0.1048
  347MOL0     C47789   7.196   4.765  10.703  0.7172  0.1982  0.1510
  347MOL0     C47790   7.136   4.651  10.603  0.4262  0.9548  0.0476
  347MOL0     C47791   7.233   4.529  10.612 -0.2010  0.1837 -0.4094
  347MOL0     C47792   7.251   4.436  10.488  0.2713 -0.8782 -0.0095
  347MOL0    Cl47793   7.102   4.340  10.454 -0.3310 -0.1633 -0.0679
  347MOL0     C47794   6.641   5.217  10.681  0.6184 -0.1182 -0.8554
  347MOL0     C47795   6.530   5.296  10.731  0.1066  0.7697  0.5300
  347MOL0     O47796   6.528   5.664  10.875 -0.4503 -0.0171  0.3420
  347MOL0     C47797   6.192   5.550  10.945  0.0215  0.0290  0.1210
  347MOL0     C47798   6.065   5.578  11.006 -0.4693  1.0977 -0.3168
  347MOL0     N47799   5.379   5.703  11.331  0.4210  0.5928 -0.3818
  347MOL0     N47800   5.277   5.636  11.388 -0.5220  0.6991 -0.1754
  347MOL0     C47801   4.487   6.090  10.916  0.0807  0.6500  0.4627
  347MOL0     C47802   4.406   6.139  10.823  0.3585 -0.7012  0.2282
  347MOL0     C47803   4.136   6.181  10.482  0.3100  0.1173  0.6835
  347MOL0     C47804   4.079   6.307  10.520 -0.0247 -0.0078  0.9108
  347MOL0     C47805   4.045   6.402  10.420  0.0520  0.6274 -0.0555
  347MOL0     C47806   4.053   6.368  10.281 -0.6976  0.8234 -0.2420
  347MOL0     O47807   4.053   6.468  10.185 -0.3654 -0.2855 -0.2807
  347MOL0     C47808   4.042   6.430  10.042  0.5530 -0.9972 -0.6993
  347MOL0     C47809   4.018   6.564   9.969  0.3484  0.3194  1.2699
  347MOL0     C47810   4.141   6.651   9.938  0.3929 -0.3331 -0.3591
  347MOL0     C47811   4.088   6.789   9.906 -0.1074 -0.3268  0.3772
  347MOL0     C47812   4.170   6.877   9.826 -0.2562  0.0274 -0.1611
  347MOL0     C47813   4.240   6.957   9.769  0.0746  0.3759  0.2236
  347MOL0     C47814   4.069   6.229  10.257 -0.4622 -0.4073  0.2267
  347MOL0     C47815   4.112   6.137  10.353 -0.0059 -0.1495  0.4068
  347MOL0     C47816   4.151   6.000  10.305  0.2886 -0.1537 -0.2389
  347MOL0     H47817   4.103   6.022  10.916 -0.9079  3.5047 -4.6730
  347MOL0     H47818   4.248   5.940  11.107 -2.0547  1.4345 -0.0216
  347MOL0     H47819   4.603   6.093  11.224 -0.7917 -1.1518 -0.3929
  347MOL0     H47820   4.694   6.021  11.083 -0.5398  1.8898 -0.5765
  347MOL0     H47821   4.765   5.923  11.326  1.1383  1.9441 -1.6384
  347MOL0     H47822   4.607   5.858  11.310  0.6855 -0.8709  1.0800
  347MOL0     H47823   4.714   5.683  11.219  0.6777 -2.0716 -1.9247
  347MOL0     H47824   4.676   5.771  11.076  0.1809  0.8581  0.2132
  347MOL0     H47825   4.904   5.694  11.064  0.1112 -1.4421 -0.1613
  347MOL0     H47826   4.931   5.857  11.105 -0.4695 -1.6598 -1.8884
  347MOL0     H47827   4.937   5.770  11.358 -0.8117 -2.7978  2.9482
  347MOL0     H47828   5.067   5.707  11.247  0.7953  1.3518  1.3117
  347MOL0     H47829   4.827   5.551  11.341  0.4204  1.3363  0.3895
  347MOL0     H47830   4.938   5.501  11.213 -0.9895  0.8372 -0.2891
  347MOL0     H47831   4.955   5.414  11.434 -2.9817  1.3237 -2.1088
  347MOL0     H47832   5.044   5.552  11.487  2.3067  0.9626 -2.0455
  347MOL0     H47833   5.186   5.354  11.422 -0.4238 -1.3646 -1.8362
  347MOL0     H47834   5.108   5.372  11.264  1.1734 -0.6703  0.4418
  347MOL0     H47835   5.329   5.456  11.118 -0.8277  0.8554 -0.4745
  347MOL0     H47836   5.509   5.754  11.067  2.3085  2.9909  4.5401
  347MOL0     H47837   5.518   5.582  11.037  1.4027 -2.0189  2.6797
  347MOL0     H47838   5.694   5.785  11.161  3.3876  0.3795  3.4675
  347MOL0     H47839   5.651   5.691  11.303  3.5398 -2.5468 -0.1527
  347MOL0     H47840   5.704   5.478  11.207 -1.8636  0.2703 -1.5201
  347MOL0     H47841   5.763   5.551  11.058 -0.5437  1.4384 -0.1914
  347MOL0     H47842   5.868   5.612  11.342  1.9622  0.3083 -0.0662
  347MOL0     H47843   5.951   5.527  11.205  0.0609  0.9740 -5.4614
  347MOL0     H47844   6.165   5.875  11.132  0.8694  0.8848 -3.4568
  347MOL0     H47845   6.456   5.861  10.953 -1.4158  0.8000 -1.8964
  347MOL0     H47846   6.427   5.878  11.124 -1.0460  0.4110  0.5129
  347MOL0     H47847   6.321   5.962  11.014  0.9233 -0.4384  0.9104
  347MOL0     H47848   6.657   5.605  10.686 -0.6285 -0.5419  0.6710
  347MOL0     H47849   6.858   5.452  10.602  0.8669 -0.9344 -0.6203
  347MOL0     H47850   6.733   5.044  10.512 -2.0591  4.0529  0.5697
  347MOL0     H47851   6.889   5.050  10.446  0.0587  1.0703  0.1936
  347MOL0     H47852   6.884   5.053  10.744 -3.3870  0.2203 -0.1155
  347MOL0     H47853   6.832   4.904  10.649 -1.6098  0.8395 -2.7054
  347MOL0     H47854   7.105   5.027  10.646  1.2086  0.0378 -3.0690
  347MOL0     H47855   7.044   4.891  10.542 -1.0673 -1.3184  0.9459
  347MOL0     H47856   6.994   4.791  10.771 -1.4482  1.0192 -2.4401
  347MOL0     H47857   7.123   4.890  10.842 -0.8498 -4.7755  2.9841
  347MOL0     H47858   7.269   4.836  10.663 -0.0140  0.0413 -1.5492
  347MOL0     H47859   7.245   4.716  10.788  2.2414  0.2579 -0.6487
  347MOL0     H47860   7.120   4.687  10.500 -1.0383  2.2108  0.6792
  347MOL0     H47861   7.039   4.621  10.641 -0.3362  0.4935 -2.0859
  347MOL0     H47862   7.204   4.453  10.686  0.5952  0.2029 -0.0760
  347MOL0     H47863   7.328   4.569  10.645 -0.3449  1.7599 -1.7928
  347MOL0     H47864   7.340   4.381  10.520  0.4691 -0.2587  0.5122
  347MOL0     H47865   7.272   4.499  10.400  3.5208  0.2006  1.3729
  347MOL0     H47866   6.636   5.110  10.695  1.3806 -0.3924 -2.3929
  347MOL0     H47867   6.438   5.249  10.765  1.1848  0.2819  2.9950
  347MOL0     H47868   6.205   5.459  10.888  0.5026  0.4552 -0.4561
  347MOL0     H47869   5.992   5.499  11.017  0.8525 -0.6070 -2.7890
  347MOL0     H47870   4.590   6.123  10.925 -0.1044  1.2427  0.4330
  347MOL0     H47871   4.423   6.216  10.748 -3.6182  1.9717  1.7263
  347MOL0     H47872   4.081   6.340  10.623 -0.6366 -1.1265  1.3038
  347MOL0     H47873   4.040   6.508  10.442  3.0624  0.0816  4.5506
  347MOL0     H47874   4.126   6.371  10.004  1.4470 -0.0613 -0.2544
  347MOL0     H47875   3.946   6.379  10.034  0.5814 -1.0049 -0.9804
  347MOL0     H47876   3.944   6.621  10.025  1.0360  0.7350  1.7593
  347MOL0     H47877   3.974   6.543   9.871  1.5487  1.9780  0.3318
  347MOL0     H47878   4.208   6.658  10.024  0.0516 -0.1722 -0.1003
  347MOL0     H47879   4.213   6.616   9.864  0.0006 -0.5871 -0.6288
  347MOL0     H47880   4.056   6.832  10.001 -2.0170 -0.7056 -0.0522
  347MOL0     H47881   3.998   6.779   9.844  0.2946  2.7461 -0.8569
  347MOL0     H47882   4.295   7.017   9.700 -0.7081  0.8638  0.0212
  347MOL0     H47883   4.056   6.184  10.159 -2.7188  0.5868 -0.0025
  347MOL0     H47884   4.257   5.977  10.293  0.8558  1.2239  1.6630
  347MOL0     H47885   4.118   5.925  10.378  0.4885 -3.3987 -3.1718
  347MOL0     H47886   4.100   5.973  10.212  2.4504 -0.8739 -1.2806
  348MOL0     O47887   4.872   5.184   3.425  0.1435 -0.4500 -0.4251
  348MOL0     C47888   4.940   5.290   3.429 -0.8262 -0.4144 -0.0315
  348MOL0     O47889   5.050   5.317   3.510  0.3610 -0.2156 -0.0527
  348MOL0     C47890   5.091   5.210   3.594  0.3157 -0.0094 -0.6316
  348MOL0     C47891   5.012   5.128   3.665 -0.3764 -0.5762 -0.6252
  348MOL0     C47892   5.065   5.015   3.742  0.0674  1.0403  0.2437
  348MOL0     C47893   5.202   5.000   3.740  0.1475  0.1619 -0.5194
  348MOL0     O47894   5.270   4.898   3.806  0.5062  0.0411 -1.0284
  348MOL0     C47895   5.199   4.785   3.865 -0.7424  0.9091 -0.0424
  348MOL0     C47896   5.283   4.722   3.976  0.6685  0.4595  0.5893
  348MOL0     C47897   5.226   4.597   4.032  0.2030  0.3030  0.0141
  348MOL0     C47898   5.267   4.469   3.946 -0.4597 -0.4852  0.3692
  348MOL0     C47899   5.226   4.336   4.030 -0.3524 -0.8464  0.1133
  348MOL0     C47900   5.074   4.318   4.038  0.7839 -0.0967 -0.1625
  348MOL0     C47901   5.026   4.190   4.110 -0.1220  0.3764  0.7984
  348MOL0     C47902   5.099   4.166   4.245  0.1744 -0.0441  0.4517
  348MOL0     N47903   5.074   4.026   4.299  0.2683  0.0437 -0.3367
  348MOL0     C47904   4.947   3.969   4.320 -0.6820  1.0743  0.2332
  348MOL0     C47905   4.970   3.868   4.408 -0.5967  0.6542 -1.1183
  348MOL0     C47906   4.876   3.784   4.484  0.0794  0.2126 -0.1282
  348MOL0     C47907   4.841   3.825   4.619 -0.5735  0.6761  0.4567
  348MOL0     C47908   4.931   3.773   4.732 -0.0928  0.2212 -1.1285
  348MOL0     C47909   4.883   3.814   4.876  0.0342  0.0678 -0.1782
  348MOL0     O47910   4.732   3.813   4.884 -0.1581  0.6138  0.2002
  348MOL0     C47911   4.678   3.691   4.900 -0.6944 -0.0076 -0.0342
  348MOL0     C47912   4.542   3.688   4.897 -0.1841  0.6089  0.2606
  348MOL0     C47913   4.469   3.573   4.919  0.0030  0.4827  0.1857
  348MOL0     C47914   4.322   3.580   4.902 -0.5093  0.4334 -0.5399
  348MOL0     C47915   4.534   3.450   4.950 -0.2928  0.2905  0.6062
  348MOL0     C47916   4.469   3.316   4.987  0.9155 -0.4294  0.6099
  348MOL0     O47917   4.348   3.305   5.058  0.2160  0.4844  0.6243
  348MOL0     C47918   4.314   3.185   5.106 -0.0983  0.0257  0.4874
  348MOL0     C47919   4.280   3.182   5.238 -0.1337  0.2970 -0.7639
  348MOL0     C47920   4.237   3.067   5.302  0.3005 -0.4710  0.4673
  348MOL0     C47921   4.225   2.952   5.235  0.6004  0.1652  1.4486
  348MOL0     O47922   4.181   2.833   5.286  0.5567  0.3970  0.1090
  348MOL0     C47923   4.191   2.802   5.426 -0.2744 -0.8435  1.0047
  348MOL0     C47924   4.127   2.666   5.450  0.9099  0.3819 -0.0810
  348MOL0     C47925   4.112   2.634   5.597 -0.0638  0.0917 -0.5330
  348MOL0     C47926   4.234   2.572   5.654 -0.5813  0.0730 -0.7319
  348MOL0     C47927   4.200   2.509   5.786  0.0566  0.6477  0.8490
  348MOL0     C47928   4.329   2.435   5.833  0.6131 -0.8387  0.6204
  348MOL0     C47929   4.324   2.355   5.968  0.1801  0.4838 -0.0906
  348MOL0     C47930   4.283   2.428   6.092 -0.8660 -0.3013 -0.0753
  348MOL0    Cl47931   4.311   2.324   6.237  0.2443 -0.1122 -0.4602
  348MOL0     C47932   4.248   2.949   5.094 -0.8458  0.2623  0.7107
  348MOL0     C47933   4.293   3.063   5.034  0.3383 -0.5896 -0.6921
  348MOL0     O47934   4.510   3.223   4.916 -0.1040  0.7878 -0.3875
  348MOL0     C47935   4.670   3.458   4.940 -0.5869 -0.0521  0.2090
  348MOL0     C47936   4.749   3.570   4.926 -0.0819  0.2536 -0.2918
  348MOL0     N47937   5.105   3.861   4.431  0.8942  0.0084  0.9699
  348MOL0     N47938   5.170   3.949   4.355 -0.2593  0.3617 -0.4810
  348MOL0     C47939   5.282   5.095   3.670 -1.3613 -0.2094  0.4494
  348MOL0     C47940   5.231   5.199   3.593 -0.3056 -0.7786  1.1295
  348MOL0     C47941   4.883   5.389   3.349  0.0597  0.3566  0.2421
  348MOL0     C47942   4.852   5.355   3.210 -0.9409 -0.9111  0.1225
  348MOL0     C47943   4.814   5.462   3.126 -0.4594 -0.0486  0.4792
  348MOL0     C47944   4.816   5.594   3.166  0.2069 -0.2772 -0.4574
  348MOL0     O47945   4.786   5.705   3.094  0.1140  0.0133 -0.0406
  348MOL0     C47946   4.793   5.693   2.944  0.1726  0.4760  0.4260
  348MOL0     C47947   4.774   5.816   2.862  0.5631 -0.2847  0.4440
  348MOL0     C47948   4.646   5.897   2.875  0.7525 -1.3204 -0.6306
  348MOL0     C47949   4.519   5.806   2.883  0.7023 -0.2899 -0.7554
  348MOL0     C47950   4.399   5.895   2.891  0.3099 -0.3107 -0.0690
  348MOL0     C47951   4.320   5.984   2.901  0.2510  0.6494  0.8359
  348MOL0     C47952   4.837   5.623   3.300 -0.1945  0.5968  0.1060
  348MOL0     C47953   4.860   5.525   3.394 -0.0085 -0.2147  0.3752
  348MOL0     C47954   4.867   5.569   3.544 -0.2619 -0.1069 -0.4552
  348MOL0     H47955   4.904   5.139   3.662 -0.2917  0.7813 -4.5244
  348MOL0     H47956   4.995   4.951   3.794  2.1052 -1.7574 -0.2411
  348MOL0     H47957   5.172   4.701   3.800 -0.3346  1.1230 -0.4975
  348MOL0     H47958   5.108   4.821   3.912 -2.0445 -0.3066 -1.5134
  348MOL0     H47959   5.380   4.694   3.935 -0.1117 -0.3950 -0.7481
  348MOL0     H47960   5.293   4.796   4.056 -0.9862  1.6133 -0.2182
  348MOL0     H47961   5.252   4.565   4.133 -0.2750 -0.3970 -0.0827
  348MOL0     H47962   5.118   4.611   4.042  0.1298 -0.3852  0.2191
  348MOL0     H47963   5.232   4.467   3.842  1.4605 -1.4782 -0.3073
  348MOL0     H47964   5.376   4.473   3.940 -0.3166 -1.8161  1.6044
  348MOL0     H47965   5.272   4.342   4.129  2.7306 -5.0220 -0.7674
  348MOL0     H47966   5.265   4.248   3.980 -0.1742 -0.3160 -0.6950
  348MOL0     H47967   5.033   4.408   4.085  0.2878  0.8840 -2.3709
  348MOL0     H47968   5.026   4.312   3.940  0.3830  1.4391 -0.0745
  348MOL0     H47969   5.049   4.106   4.043 -2.2178  0.4315 -0.0489
  348MOL0     H47970   4.919   4.191   4.129  0.4455 -1.4474  5.0460
  348MOL0     H47971   5.205   4.179   4.221  0.2835  4.6990  2.2933
  348MOL0     H47972   5.073   4.246   4.315  3.1476 -0.3532  2.0495
  348MOL0     H47973   4.857   4.004   4.271  0.9808  2.8483 -1.7648
  348MOL0     H47974   4.902   3.678   4.481  0.4738  0.1465  2.8139
  348MOL0     H47975   4.778   3.795   4.435  0.2925  0.7425 -0.4418
  348MOL0     H47976   4.819   3.932   4.619 -2.3729  0.4113 -2.5840
  348MOL0     H47977   4.747   3.774   4.640 -0.6368  0.9884  0.9398
  348MOL0     H47978   4.940   3.664   4.728  2.3545  0.2078  1.4264
  348MOL0     H47979   5.033   3.808   4.721  0.6470 -2.2353 -2.9231
  348MOL0     H47980   4.932   3.768   4.962  1.1268 -0.4019 -1.0312
  348MOL0     H47981   4.910   3.920   4.876 -5.2510  1.7166 -0.2780
  348MOL0     H47982   4.477   3.775   4.891  0.7368  1.5227  2.3495
  348MOL0     H47983   4.276   3.635   4.985 -1.4586 -2.3353  0.9174
  348MOL0     H47984   4.281   3.479   4.902  0.3885 -0.0282  2.1923
  348MOL0     H47985   4.300   3.629   4.807 -0.8805  3.9458  1.2108
  348MOL0     H47986   4.283   3.273   5.298 -3.2988  1.4297 -2.0832
  348MOL0     H47987   4.193   3.073   5.401 -0.1990  2.2739  0.1670
  348MOL0     H47988   4.301   2.804   5.429 -0.2292  1.1220 -0.1412
  348MOL0     H47989   4.149   2.880   5.490  0.5115  0.4685 -0.0264
  348MOL0     H47990   4.028   2.657   5.404  0.5744  0.5248  0.5973
  348MOL0     H47991   4.190   2.593   5.398 -1.5703 -2.6791  0.8929
  348MOL0     H47992   4.031   2.564   5.615 -1.1105  2.0359  3.3112
  348MOL0     H47993   4.086   2.724   5.654 -3.5236 -1.0004 -0.1753
  348MOL0     H47994   4.315   2.645   5.661  0.6642 -1.3692  0.6495
  348MOL0     H47995   4.260   2.491   5.584  1.8688 -2.0123  2.3536
  348MOL0     H47996   4.166   2.577   5.865 -0.1655  1.2083  0.2758
  348MOL0     H47997   4.118   2.436   5.784  0.6671 -0.2907  4.0863
  348MOL0     H47998   4.397   2.519   5.847 -1.1995  0.6145  1.0537
  348MOL0     H47999   4.375   2.381   5.750  0.0983  1.6208 -1.4029
  348MOL0     H48000   4.425   2.320   5.989  0.4236  0.8132 -0.6771
  348MOL0     H48001   4.267   2.262   5.958  0.0159  0.5651  0.0810
  348MOL0     H48002   4.179   2.460   6.079  0.1910  2.8858 -1.6009
  348MOL0     H48003   4.353   2.512   6.097 -1.3346  0.0971 -0.1681
  348MOL0     H48004   4.239   2.855   5.040  0.1466 -0.9905  2.5817
  348MOL0     H48005   4.295   3.069   4.926 -0.0194  1.2603 -0.6286
  348MOL0     H48006   4.714   3.363   4.971 -0.3384  0.3882  1.2605
  348MOL0     H48007   4.857   3.565   4.935  0.0003  2.1539  0.3064
  348MOL0     H48008   5.390   5.087   3.681 -1.1877 -0.0326 -0.8680
  348MOL0     H48009   5.292   5.267   3.535 -2.9273  0.1359 -0.7417
  348MOL0     H48010   4.869   5.253   3.176  1.9676 -0.2196 -0.7863
  348MOL0     H48011   4.797   5.437   3.021  0.6582 -4.2331  1.1020
  348MOL0     H48012   4.892   5.651   2.923 -0.4848 -1.5322  1.1176
  348MOL0     H48013   4.729   5.616   2.899  0.4599  0.6005 -0.2119
  348MOL0     H48014   4.767   5.784   2.758 -0.3653  2.4570 -0.4199
  348MOL0     H48015   4.865   5.875   2.874  0.3316  0.8787 -2.6880
  348MOL0     H48016   4.649   5.951   2.970  4.2135  0.0712 -1.3447
  348MOL0     H48017   4.634   5.972   2.796 -0.1041 -0.2733  0.4585
  348MOL0     H48018   4.516   5.741   2.971 -1.3114  0.6721 -0.0463
  348MOL0     H48019   4.510   5.748   2.790 -1.2168 -0.0463 -0.7717
  348MOL0     H48020   4.253   6.067   2.895 -1.4220 -0.7195 -1.7570
  348MOL0     H48021   4.849   5.729   3.324 -0.2985  0.6612 -0.1170
  348MOL0     H48022   4.777   5.617   3.582  1.2987  2.4991  0.2354
  348MOL0     H48023   4.901   5.496   3.618  0.6746  2.1320  1.4431
  348MOL0     H48024   4.945   5.645   3.545 -3.0205  2.9428  1.0203
  349MOL0     O48025   6.654   4.337   6.406  0.3611 -1.2130  0.0629
  349MOL0     C48026   6.647   4.269   6.510  0.5854  0.7059  0.4816
  349MOL0     O48027   6.614   4.317   6.634  0.1365 -0.3993  1.1693
  349MOL0     C48028   6.576   4.446   6.656  0.1208 -0.1436 -0.5460
  349MOL0     C48029   6.480   4.510   6.573  0.3415  0.7516  0.2752
  349MOL0     C48030   6.422   4.630   6.603  0.0401 -0.4395  0.3157
  349MOL0     C48031   6.467   4.699   6.714 -0.3027 -0.0779  0.2115
  349MOL0     O48032   6.423   4.827   6.737 -1.1801  1.2112 -0.7575
  349MOL0     C48033   6.445   4.906   6.627 -0.5027 -0.6660 -0.2434
  349MOL0     C48034   6.465   5.059   6.672 -0.0810 -0.3021  0.2652
  349MOL0     C48035   6.342   5.152   6.677  0.1086 -0.6382  0.7563
  349MOL0     C48036   6.401   5.291   6.707 -0.3238  0.3090  0.1248
  349MOL0     C48037   6.291   5.392   6.753 -0.3120 -0.1163  0.2157
  349MOL0     C48038   6.221   5.446   6.628  0.0313  0.1760 -0.3678
  349MOL0     C48039   6.126   5.558   6.679 -0.2495 -0.4404  0.9339
  349MOL0     C48040   6.119   5.663   6.559  0.7934 -0.1159 -0.8472
  349MOL0     N48041   6.014   5.762   6.592 -0.4315  0.3470 -0.2652
  349MOL0     C48042   6.040   5.892   6.599  0.1386 -0.6578 -0.3222
  349MOL0     C48043   5.931   5.948   6.659 -0.3795 -0.0006  0.4611
  349MOL0     C48044   5.904   6.089   6.694 -0.9159 -0.3097  0.2986
  349MOL0     C48045   5.926   6.173   6.572 -0.2109  0.2393  0.1935
  349MOL0     C48046   5.921   6.324   6.614  1.0573  0.2064 -0.3387
  349MOL0     C48047   5.951   6.414   6.501 -0.2244 -0.8015  0.1731
  349MOL0     O48048   5.990   6.556   6.541  0.6090  0.4725 -1.0703
  349MOL0     C48049   6.114   6.589   6.581  0.1111 -0.5393  0.0275
  349MOL0     C48050   6.219   6.494   6.583 -0.1944 -0.1774  0.2840
  349MOL0     C48051   6.349   6.539   6.622  0.4082  0.7488 -0.6302
  349MOL0     C48052   6.458   6.433   6.622 -0.0048  0.8992 -0.1588
  349MOL0     C48053   6.366   6.672   6.660 -0.8206 -0.6876  0.4804
  349MOL0     C48054   6.502   6.715   6.691 -0.3263  0.1708  0.6550
  349MOL0     O48055   6.559   6.683   6.813 -0.4300 -0.3176 -0.3420
  349MOL0     C48056   6.667   6.765   6.855  0.6500  0.7795  0.2174
  349MOL0     C48057   6.780   6.703   6.904  0.1725 -0.2309  0.0889
  349MOL0     C48058   6.881   6.779   6.950 -0.3271 -0.1713 -0.9543
  349MOL0     C48059   6.875   6.917   6.962 -0.0281  0.7588  0.9619
  349MOL0     O48060   6.984   6.990   7.012 -0.3764  0.0589  0.1272
  349MOL0     C48061   6.964   7.125   7.053  0.3120  1.3998  0.1603
  349MOL0     C48062   7.085   7.195   7.110  0.0306 -0.8204 -0.1538
  349MOL0     C48063   7.081   7.226   7.255 -0.2726 -1.2129 -0.2886
  349MOL0     C48064   7.221   7.288   7.297 -0.4109  0.1844  0.7858
  349MOL0     C48065   7.215   7.371   7.425  0.8892  0.0461  0.7560
  349MOL0     C48066   7.225   7.273   7.544  0.6867  0.3502  0.6855
  349MOL0     C48067   7.224   7.345   7.681 -0.7072  0.1943  0.6223
  349MOL0     C48068   7.082   7.383   7.719 -0.6771  0.1709 -0.3452
  349MOL0    Cl48069   7.101   7.484   7.868 -0.1891 -0.3425 -0.2640
  349MOL0     C48070   6.759   6.978   6.908 -0.7715 -0.1223  0.1262
  349MOL0     C48071   6.654   6.904   6.849  0.7736  0.7872  0.0538
  349MOL0     O48072   6.556   6.774   6.598  0.2615 -0.2506  0.2618
  349MOL0     C48073   6.263   6.765   6.663  0.2799  0.0039 -0.2009
  349MOL0     C48074   6.140   6.725   6.621 -0.0603  0.6850 -0.5502
  349MOL0     N48075   5.832   5.852   6.675  0.6651  0.1640  0.1855
  349MOL0     N48076   5.888   5.742   6.641 -0.4966  0.5345 -0.3036
  349MOL0     C48077   6.556   4.647   6.798 -0.5729  0.8512 -0.0186
  349MOL0     C48078   6.607   4.515   6.777 -0.7604  0.2693  0.0121
  349MOL0     C48079   6.667   4.131   6.495 -0.2434  0.7048 -1.3257
  349MOL0     C48080   6.801   4.092   6.469  0.4695 -0.0052  0.3099
  349MOL0     C48081   6.822   3.953   6.464 -0.2052  0.0009 -0.5359
  349MOL0     C48082   6.721   3.857   6.462 -0.4963  0.2459 -0.1378
  349MOL0     O48083   6.722   3.719   6.450 -0.3398  0.2631 -0.5561
  349MOL0     C48084   6.848   3.646   6.438 -0.3790  0.7741  0.6711
  349MOL0     C48085   6.833   3.494   6.446 -0.1921  0.1705  0.9267
  349MOL0     C48086   6.923   3.407   6.351 -0.0132 -0.0030 -0.4036
  349MOL0     C48087   6.872   3.416   6.206 -0.4022 -0.4028  0.2308
  349MOL0     C48088   6.983   3.336   6.138  0.0263 -0.4127  0.4779
  349MOL0     C48089   7.063   3.258   6.081 -0.7888  1.0945 -0.4076
  349MOL0     C48090   6.589   3.908   6.475  0.2246  0.5604 -0.9388
  349MOL0     C48091   6.561   4.041   6.502  0.2669 -0.3263  0.2270
  349MOL0     C48092   6.419   4.071   6.552  0.1524  0.4384 -0.0804
  349MOL0     H48093   6.448   4.464   6.480 -3.4425  0.5498  1.5074
  349MOL0     H48094   6.349   4.683   6.543  3.7649  2.1032 -2.4997
  349MOL0     H48095   6.369   4.891   6.550 -0.7221 -1.9010  0.1913
  349MOL0     H48096   6.535   4.863   6.582 -1.3404 -4.7973  1.5458
  349MOL0     H48097   6.530   5.071   6.760  1.0591 -2.3695 -0.2373
  349MOL0     H48098   6.526   5.097   6.590 -1.3488  1.1279 -0.0730
  349MOL0     H48099   6.299   5.165   6.578  0.1573  1.2095  0.9470
  349MOL0     H48100   6.267   5.113   6.745  1.2169  0.3306  2.6151
  349MOL0     H48101   6.463   5.266   6.793 -0.8671 -2.6707 -0.2542
  349MOL0     H48102   6.471   5.330   6.633  1.7152 -0.4765  1.5497
  349MOL0     H48103   6.345   5.467   6.812  0.3350 -2.9295  3.5667
  349MOL0     H48104   6.221   5.344   6.822 -0.4781 -1.5506 -0.9161
  349MOL0     H48105   6.293   5.483   6.554  0.0074  0.6237 -0.1737
  349MOL0     H48106   6.161   5.366   6.586  0.2533  0.2066 -0.7443
  349MOL0     H48107   6.165   5.611   6.766 -4.2759  2.6536  1.1556
  349MOL0     H48108   6.033   5.506   6.706  0.3116 -0.5236  2.7881
  349MOL0     H48109   6.217   5.713   6.557  1.9851 -2.0060  2.8764
  349MOL0     H48110   6.098   5.624   6.459  1.3542 -0.7824 -0.7081
  349MOL0     H48111   6.135   5.935   6.567  1.2080 -2.6395  0.0590
  349MOL0     H48112   5.978   6.118   6.768  1.6828  0.0084 -2.2393
  349MOL0     H48113   5.804   6.110   6.734 -0.0850  4.4771  0.4067
  349MOL0     H48114   6.027   6.154   6.534  0.0955 -2.5214  2.0695
  349MOL0     H48115   5.851   6.141   6.500  0.6025  0.2553 -0.6851
  349MOL0     H48116   5.820   6.337   6.654  1.9141 -1.3775  2.6038
  349MOL0     H48117   5.987   6.352   6.697 -0.1005  0.1653  0.6140
  349MOL0     H48118   6.021   6.367   6.431 -0.3762  1.8887 -1.9360
  349MOL0     H48119   5.862   6.410   6.438  1.0502 -0.1616 -1.7417
  349MOL0     H48120   6.192   6.399   6.538 -1.4408  0.9663 -1.5194
  349MOL0     H48121   6.468   6.389   6.721  1.7532 -1.4386 -1.2913
  349MOL0     H48122   6.559   6.471   6.602 -0.1237  1.2572 -0.1016
  349MOL0     H48123   6.433   6.351   6.554 -0.4019 -0.2507  1.3278
  349MOL0     H48124   6.782   6.596   6.885  0.7927  0.0931 -1.9019
  349MOL0     H48125   6.978   6.738   6.979 -0.2000  1.2380  0.8432
  349MOL0     H48126   6.944   7.179   6.960 -1.2802 -3.2647 -2.4781
  349MOL0     H48127   6.883   7.127   7.126  0.8981  0.8582  0.8388
  349MOL0     H48128   7.179   7.145   7.083  1.1971  1.6462 -1.0192
  349MOL0     H48129   7.088   7.285   7.048  1.6137 -0.2954  0.6149
  349MOL0     H48130   7.042   7.139   7.309  1.0900 -1.7409 -0.1089
  349MOL0     H48131   6.999   7.298   7.259 -0.1390 -0.9672 -1.6253
  349MOL0     H48132   7.248   7.357   7.216 -0.0867 -1.3548 -0.4497
  349MOL0     H48133   7.300   7.213   7.307 -1.1418 -0.5528  1.1801
  349MOL0     H48134   7.293   7.448   7.428 -1.0356  2.2918 -1.8718
  349MOL0     H48135   7.118   7.419   7.438  1.9810  1.9327  2.5169
  349MOL0     H48136   7.324   7.230   7.529 -0.0132 -1.5586  1.2322
  349MOL0     H48137   7.148   7.195   7.540  3.1517 -2.2513  0.7169
  349MOL0     H48138   7.289   7.432   7.674 -0.7491  0.1281 -1.1284
  349MOL0     H48139   7.269   7.281   7.758 -0.2405  0.4446  0.5583
  349MOL0     H48140   7.017   7.300   7.746  1.4240 -0.5215  3.3928
  349MOL0     H48141   7.034   7.453   7.650 -2.6508  0.1692  0.9361
  349MOL0     H48142   6.752   7.086   6.913 -1.0776  0.2910 -4.7989
  349MOL0     H48143   6.566   6.948   6.803  0.6746 -0.1562 -0.6670
  349MOL0     H48144   6.279   6.869   6.688 -0.5521 -0.2119  1.4017
  349MOL0     H48145   6.056   6.793   6.624 -1.1979 -0.7242  1.5539
  349MOL0     H48146   6.583   4.706   6.885 -0.6162 -0.3143  0.8042
  349MOL0     H48147   6.670   4.469   6.852 -2.0764 -2.0696 -0.2269
  349MOL0     H48148   6.873   4.173   6.476  1.1844 -0.7606  3.5220
  349MOL0     H48149   6.925   3.920   6.470  0.2885  1.7280  3.0985
  349MOL0     H48150   6.888   3.669   6.339 -0.0024  1.4328  0.9674
  349MOL0     H48151   6.922   3.679   6.512  0.2829 -1.2354  0.9467
  349MOL0     H48152   6.728   3.472   6.421 -1.3270  3.9654  1.6606
  349MOL0     H48153   6.853   3.467   6.549  0.2914  1.6143  1.2407
  349MOL0     H48154   7.024   3.447   6.354 -0.5950  1.4706  2.1603
  349MOL0     H48155   6.923   3.302   6.383  1.4261 -0.7144 -2.5060
  349MOL0     H48156   6.871   3.520   6.171  0.0662  0.1594  1.8213
  349MOL0     H48157   6.775   3.370   6.187 -0.9915  0.8188  0.1737
  349MOL0     H48158   7.134   3.196   6.031 -0.3460  1.8077 -0.6868
  349MOL0     H48159   6.507   3.838   6.489  0.5040  0.5808  1.1327
  349MOL0     H48160   6.394   4.149   6.480 -0.2554  3.4865  3.0979
  349MOL0     H48161   6.349   3.987   6.546  0.0294  0.6555 -2.1709
  349MOL0     H48162   6.417   4.120   6.650  1.5773  1.4784 -0.5440
  350MOL0     O48163   6.070   0.881   4.672 -0.8793  0.4641  0.8037
  350MOL0     C48164   5.964   0.902   4.727 -0.3729  0.1476 -0.2190
  350MOL0     O48165   5.905   0.819   4.828  0.2457 -0.0876 -0.6884
  350MOL0     C48166   5.994   0.726   4.878  0.3359  0.0026 -0.1824
  350MOL0     C48167   6.051   0.739   4.998 -0.8259  0.2089  0.4519
  350MOL0     C48168   6.130   0.636   5.052 -0.2425 -0.1815  0.4061
  350MOL0     C48169   6.136   0.507   4.987  0.7738  0.6104 -0.3745
  350MOL0     O48170   6.213   0.410   5.053  0.0779 -0.1973 -0.4209
  350MOL0     C48171   6.262   0.294   4.985  0.7233  0.1372 -0.4236
  350MOL0     C48172   6.369   0.228   5.069 -0.2690  0.2018  0.2823
  350MOL0     C48173   6.488   0.319   5.089 -0.7973  0.9491  0.6095
  350MOL0     C48174   6.572   0.272   5.217 -0.2816  0.5521 -1.0292
  350MOL0     C48175   6.711   0.345   5.235  0.0882 -0.2631 -0.2827
  350MOL0     C48176   6.758   0.319   5.378  0.6400  0.3041 -0.7007
  350MOL0     C48177   6.769   0.168   5.416 -0.6306  0.4520  0.3923
  350MOL0     C48178   6.825   0.154   5.562  0.1372  0.4769 -0.2700
  350MOL0     N48179   6.968   0.182   5.566  0.7270 -0.1128 -1.1238
  350MOL0     C48180   7.018   0.286   5.639  0.7284 -0.7951  0.1260
  350MOL0     C48181   7.148   0.285   5.648 -0.4778 -0.0536 -0.0837
  350MOL0     C48182   7.243   0.377   5.724 -0.6211  1.0815 -0.3202
  350MOL0     C48183   7.230   0.515   5.663  0.0653  0.9586 -0.3008
  350MOL0     C48184   7.264   0.520   5.512  0.1417  0.2481 -0.2710
  350MOL0     C48185   7.418   0.530   5.495 -0.5062  0.3500 -0.6555
  350MOL0     O48186   7.448   0.537   5.350 -0.3239 -0.0246 -0.2802
  350MOL0     C48187   7.444   0.432   5.268  0.8369 -0.0951  0.5107
  350MOL0     C48188   7.489   0.453   5.140 -0.1875  0.8483 -0.3267
  350MOL0     C48189   7.495   0.346   5.044 -0.3870  0.0352  0.2400
  350MOL0     C48190   7.568   0.390   4.922 -1.4171 -0.6280  1.1323
  350MOL0     C48191   7.463   0.212   5.092 -1.1696  0.1714 -0.5240
  350MOL0     C48192   7.481   0.092   5.018 -0.4498  1.7938  0.9530
  350MOL0     O48193   7.433  -0.028   5.077 -0.6539 -0.9221  0.1105
  350MOL0     C48194   7.485  -0.142   5.030 -0.1792  0.6768  1.6754
  350MOL0     C48195   7.581  -0.201   5.106 -0.5269  0.3136 -0.0656
  350MOL0     C48196   7.644  -0.323   5.074  0.1341 -0.3463  0.2658
  350MOL0     C48197   7.599  -0.390   4.960  0.0585 -0.5483  0.9970
  350MOL0     O48198   7.657  -0.500   4.918  0.0470 -0.4219  0.9409
  350MOL0     C48199   7.576  -0.624   4.915  0.7674 -0.0785  0.1002
  350MOL0     C48200   7.670  -0.739   4.917  0.5237 -0.1646 -0.0594
  350MOL0     C48201   7.711  -0.775   4.779 -0.6785 -0.2220  0.4666
  350MOL0     C48202   7.816  -0.884   4.782  0.4324  0.6079 -0.4809
  350MOL0     C48203   7.893  -0.901   4.656  0.3143  0.5443  0.6451
  350MOL0     C48204   7.948  -1.045   4.651  0.0598  0.0516  0.2947
  350MOL0     C48205   8.086  -1.062   4.566  0.2211 -0.1256  1.0034
  350MOL0     C48206   8.074  -1.021   4.418 -0.2970  0.1185 -0.1266
  350MOL0    Cl48207   8.236  -1.064   4.352  0.1294  0.2040 -0.0164
  350MOL0     C48208   7.493  -0.337   4.881 -0.1317  0.3662  0.0717
  350MOL0     C48209   7.437  -0.213   4.918  1.1788 -1.1070 -0.4083
  350MOL0     O48210   7.536   0.100   4.905 -0.3868  0.2377 -0.3789
  350MOL0     C48211   7.419   0.198   5.225 -0.1223 -0.7125 -0.0828
  350MOL0     C48212   7.404   0.305   5.311  0.5119 -0.7200  0.9089
  350MOL0     N48213   7.177   0.172   5.572 -0.1981  0.1979  0.8509
  350MOL0     N48214   7.067   0.113   5.506 -0.1334 -0.1891 -0.4859
  350MOL0     C48215   6.078   0.502   4.858  0.3165  0.4292 -0.0537
  350MOL0     C48216   6.009   0.606   4.800  0.8885  0.0310 -0.8457
  350MOL0     C48217   5.899   1.027   4.704 -0.9570  0.0650 -0.4768
  350MOL0     C48218   5.764   1.044   4.713  0.4056  0.0963 -0.3543
  350MOL0     C48219   5.691   1.162   4.695  0.8236 -0.0973 -0.3838
  350MOL0     C48220   5.759   1.285   4.666  0.7126 -0.3897  0.1712
  350MOL0     O48221   5.699   1.406   4.629 -0.1064 -0.1167  0.0928
  350MOL0     C48222   5.562   1.426   4.657  0.2771 -0.4561 -0.3237
  350MOL0     C48223   5.521   1.571   4.645  0.1929  1.0274  0.3259
  350MOL0     C48224   5.375   1.591   4.663 -0.1087  0.6337 -0.1995
  350MOL0     C48225   5.345   1.736   4.695 -0.4821 -0.3888 -0.3482
  350MOL0     C48226   5.226   1.739   4.787 -0.2034  0.3931 -0.2093
  350MOL0     C48227   5.127   1.722   4.863 -1.4451  0.0516 -0.3318
  350MOL0     C48228   5.899   1.265   4.648  0.4575  0.0520  1.2271
  350MOL0     C48229   5.969   1.149   4.675 -0.1289  0.0094 -0.4495
  350MOL0     C48230   6.118   1.150   4.645 -0.3708 -0.0040 -0.2639
  350MOL0     H48231   6.043   0.827   5.061  0.2516  0.0546  0.8371
  350MOL0     H48232   6.181   0.644   5.148 -0.8942 -0.4179  0.7763
  350MOL0     H48233   6.296   0.328   4.887  2.1107 -0.9587 -0.3436
  350MOL0     H48234   6.187   0.215   4.983 -0.1732  0.9375  0.4636
  350MOL0     H48235   6.327   0.195   5.165  0.9926 -0.6393  0.5700
  350MOL0     H48236   6.413   0.135   5.032  0.4523 -1.1680  4.1419
  350MOL0     H48237   6.557   0.301   5.006 -1.4874 -2.7756  0.6492
  350MOL0     H48238   6.461   0.422   5.113  1.0884  1.0697  2.5627
  350MOL0     H48239   6.526   0.300   5.312  2.4175  1.9213 -0.0332
  350MOL0     H48240   6.587   0.165   5.228  3.3302  1.1753  2.2573
  350MOL0     H48241   6.718   0.453   5.221 -0.2734 -0.2821 -0.6443
  350MOL0     H48242   6.779   0.298   5.163 -3.0109 -1.0673 -2.9351
  350MOL0     H48243   6.853   0.372   5.384 -0.0180  1.3950  0.6051
  350MOL0     H48244   6.685   0.365   5.445  2.0728  0.6289  0.6944
  350MOL0     H48245   6.843   0.139   5.342  2.4610  4.3670  1.5772
  350MOL0     H48246   6.668   0.127   5.405 -0.7226  0.6616  0.4453
  350MOL0     H48247   6.775   0.214   5.639 -1.2500  0.5063 -1.1522
  350MOL0     H48248   6.821   0.050   5.598 -0.1860 -0.2606 -2.3275
  350MOL0     H48249   6.958   0.358   5.692 -4.2309 -2.1938 -2.8578
  350MOL0     H48250   7.345   0.338   5.717 -0.8474  0.0978  1.3550
  350MOL0     H48251   7.219   0.386   5.830  1.4041 -0.9537  0.3943
  350MOL0     H48252   7.125   0.539   5.680  0.3235  3.1782 -1.5132
  350MOL0     H48253   7.292   0.583   5.722  0.0758  0.8448 -0.1826
  350MOL0     H48254   7.215   0.438   5.459 -0.3885  0.7069 -0.5016
  350MOL0     H48255   7.230   0.615   5.469  1.3338  0.6797 -0.2960
  350MOL0     H48256   7.460   0.625   5.530  1.9035 -1.8702  3.2508
  350MOL0     H48257   7.467   0.446   5.544  2.8891  2.2938 -0.3783
  350MOL0     H48258   7.513   0.555   5.112 -2.4400  1.6916  0.5483
  350MOL0     H48259   7.516   0.480   4.888 -1.7502 -1.7606 -1.6650
  350MOL0     H48260   7.550   0.323   4.837 -2.9750 -0.4587  1.3133
  350MOL0     H48261   7.673   0.409   4.945 -1.3045 -1.6798  1.5477
  350MOL0     H48262   7.607  -0.148   5.197 -0.4213 -0.6739  0.4954
  350MOL0     H48263   7.716  -0.361   5.145  2.0022  2.9813  0.3695
  350MOL0     H48264   7.503  -0.626   4.996  0.1269 -0.1486 -0.4628
  350MOL0     H48265   7.508  -0.615   4.829 -0.7490  1.9266  1.4103
  350MOL0     H48266   7.758  -0.712   4.976  0.1310  1.8986 -0.3182
  350MOL0     H48267   7.627  -0.830   4.959  0.9222 -1.1187 -1.6437
  350MOL0     H48268   7.765  -0.685   4.748  0.6332 -0.0126  3.0545
  350MOL0     H48269   7.632  -0.797   4.708 -0.4524 -1.3002  0.5336
  350MOL0     H48270   7.770  -0.979   4.810  0.8454 -0.0952 -2.0691
  350MOL0     H48271   7.886  -0.855   4.861 -1.6325  1.5422  1.1002
  350MOL0     H48272   7.834  -0.879   4.566  0.3959  1.3926  0.7918
  350MOL0     H48273   7.975  -0.829   4.666 -0.0084  1.1920 -1.0710
  350MOL0     H48274   7.870  -1.109   4.608 -1.2878  0.8175  1.5085
  350MOL0     H48275   7.969  -1.068   4.756  0.4983  0.8946  0.4018
  350MOL0     H48276   8.101  -1.170   4.561 -4.7144 -1.0041 -0.2477
  350MOL0     H48277   8.166  -1.011   4.620  0.6899  0.5471 -0.2733
  350MOL0     H48278   8.059  -0.913   4.431 -2.3468 -0.1657  0.1976
  350MOL0     H48279   7.993  -1.075   4.367 -1.1432  1.2504 -0.0436
  350MOL0     H48280   7.456  -0.407   4.806 -0.5782  0.0646  0.5693
  350MOL0     H48281   7.345  -0.171   4.878  2.1357  1.3911 -0.1899
  350MOL0     H48282   7.401   0.097   5.261  0.5127 -0.4302  1.0633
  350MOL0     H48283   7.382   0.303   5.417  0.8906  0.8333  1.0434
  350MOL0     H48284   6.074   0.406   4.809  0.8488 -1.0638  2.6176
  350MOL0     H48285   5.947   0.589   4.713  0.5659 -0.7389 -0.4663
  350MOL0     H48286   5.710   0.950   4.715 -2.2414  1.4697 -2.0244
  350MOL0     H48287   5.583   1.149   4.704  0.8027 -2.7378 -2.9210
  350MOL0     H48288   5.488   1.363   4.606 -1.6564  0.9387  0.6136
  350MOL0     H48289   5.550   1.395   4.761  1.2179 -0.3320 -0.1740
  350MOL0     H48290   5.544   1.609   4.545 -1.5786  0.7251 -0.2354
  350MOL0     H48291   5.579   1.630   4.717  1.8126  0.0543 -0.1321
  350MOL0     H48292   5.333   1.574   4.563  0.0599  3.3621 -0.8155
  350MOL0     H48293   5.335   1.527   4.742 -0.6802 -0.0250 -1.0016
  350MOL0     H48294   5.338   1.812   4.617  2.5376  2.2376  1.6589
  350MOL0     H48295   5.429   1.779   4.750 -0.9450 -0.6212  0.5583
  350MOL0     H48296   5.046   1.706   4.932 -0.9517  2.1836  0.8585
  350MOL0     H48297   5.958   1.343   4.600 -2.2288  0.1500 -2.2795
  350MOL0     H48298   6.160   1.251   4.646 -1.2540  0.5233 -3.8084
  350MOL0     H48299   6.177   1.088   4.714 -3.5879 -1.5660  1.2824
  350MOL0     H48300   6.131   1.101   4.548 -0.8937  0.5673 -0.6234
  351MOL0     O48301   8.099  10.203   9.575 -0.0735  0.2889 -0.6669
  351MOL0     C48302   8.050  10.149   9.475  0.0992  0.0349 -0.7283
  351MOL0     O48303   7.978  10.210   9.380 -0.0258 -0.1236  0.1156
  351MOL0     C48304   7.881  10.302   9.410 -0.0238 -0.6766 -0.0984
  351MOL0     C48305   7.805  10.314   9.525 -0.3038 -0.4212 -0.0841
  351MOL0     C48306   7.709  10.417   9.544 -0.3730  0.9514  0.1482
  351MOL0     C48307   7.695  10.514   9.449 -0.9371  0.4875  0.3991
  351MOL0     O48308   7.605  10.605   9.467 -0.2914 -0.1886  0.1686
  351MOL0     C48309   7.508  10.630   9.362  0.9428  0.2573  0.0529
  351MOL0     C48310   7.404  10.744   9.401 -0.0086 -0.4512 -0.6391
  351MOL0     C48311   7.422  10.821   9.537  0.1838  0.3550 -0.1593
  351MOL0     C48312   7.499  10.955   9.512  0.8076 -0.2564 -0.7593
  351MOL0     C48313   7.649  10.923   9.505 -0.4027 -0.7926 -0.3425
  351MOL0     C48314   7.728  11.043   9.531  0.1841 -0.0751 -0.3543
  351MOL0     C48315   7.869  11.028   9.568  0.3252 -0.4155 -0.5155
  351MOL0     C48316   7.958  11.046   9.443 -0.7642  0.2788  1.3293
  351MOL0     N48317   8.081  10.974   9.445 -0.1353 -0.3934  0.2464
  351MOL0     C48318   8.076  10.835   9.460  0.6007  0.6041 -0.5162
  351MOL0     C48319   8.179  10.793   9.533  0.7181 -0.3706  0.5755
  351MOL0     C48320   8.192  10.664   9.617 -0.3368 -0.4211 -0.2359
  351MOL0     C48321   8.173  10.532   9.545  0.7956 -0.3831 -0.3152
  351MOL0     C48322   8.295  10.505   9.462 -0.1802  0.1537  0.9463
  351MOL0     C48323   8.281  10.407   9.358 -0.9573 -0.9571 -0.0657
  351MOL0     O48324   8.372  10.427   9.248 -0.5402 -0.1709  0.3049
  351MOL0     C48325   8.358  10.505   9.135 -0.6867  0.0682  0.1075
  351MOL0     C48326   8.258  10.593   9.103  0.7534 -1.1774  0.1624
  351MOL0     C48327   8.269  10.669   8.990  1.0225  0.1817 -0.1614
  351MOL0     C48328   8.160  10.765   8.949 -0.8196 -0.2466 -0.2014
  351MOL0     C48329   8.375  10.647   8.901 -0.5093 -0.0719  0.3728
  351MOL0     C48330   8.400  10.725   8.782 -0.0432  0.4513  0.5163
  351MOL0     O48331   8.304  10.731   8.684  0.0943 -0.1800  0.3273
  351MOL0     C48332   8.352  10.749   8.558 -0.4234  0.3014  0.8032
  351MOL0     C48333   8.399  10.650   8.468  0.4836  0.7227  0.4868
  351MOL0     C48334   8.443  10.684   8.335 -1.2381 -0.2306 -0.3305
  351MOL0     C48335   8.438  10.815   8.289  0.6308  0.6214  0.1012
  351MOL0     O48336   8.479  10.842   8.164 -0.5076  0.1955  0.1002
  351MOL0     C48337   8.616  10.799   8.133  0.4360 -0.1865  1.0381
  351MOL0     C48338   8.641  10.828   7.982 -0.0220  0.8223  0.0169
  351MOL0     C48339   8.545  10.746   7.888 -0.8950 -0.5794 -0.3635
  351MOL0     C48340   8.586  10.778   7.748  0.9038  0.6511 -0.4124
  351MOL0     C48341   8.705  10.694   7.702 -0.2536 -0.7999  0.9835
  351MOL0     C48342   8.751  10.739   7.554 -0.2761  0.3490  0.2440
  351MOL0     C48343   8.878  10.669   7.506 -0.2475  0.7444 -0.3557
  351MOL0     C48344   8.867  10.556   7.414  0.4681 -0.5013 -0.3605
  351MOL0    Cl48345   8.797  10.426   7.516 -0.2044 -0.0634  0.0809
  351MOL0     C48346   8.385  10.911   8.372  0.0657  0.4178 -0.5823
  351MOL0     C48347   8.347  10.877   8.498  0.2141 -0.8373  0.1907
  351MOL0     O48348   8.519  10.756   8.766 -0.3143  0.2801  0.0931
  351MOL0     C48349   8.463  10.546   8.924  1.1648  0.3371 -0.4969
  351MOL0     C48350   8.467  10.489   9.052  0.7772  0.1108 -0.1867
  351MOL0     N48351   8.253  10.901   9.560  0.2646 -0.5709 -0.0023
  351MOL0     N48352   8.202  11.010   9.500  0.3643  0.2212 -0.2158
  351MOL0     C48353   7.765  10.493   9.326  0.0199  0.6233 -0.6049
  351MOL0     C48354   7.859  10.391   9.306  0.3477 -0.7685 -0.7777
  351MOL0     C48355   8.065  10.006   9.451 -0.4586 -0.4114 -0.9045
  351MOL0     C48356   7.978   9.949   9.361  0.5508  1.3657 -0.8378
  351MOL0     C48357   7.980   9.809   9.343  0.5166  0.1022 -0.6189
  351MOL0     C48358   8.060   9.727   9.412 -0.5871  0.5926 -0.3319
  351MOL0     O48359   8.052   9.592   9.374  0.1433 -0.6520  0.4266
  351MOL0     C48360   8.159   9.497   9.408 -0.3338 -0.6777 -0.1774
  351MOL0     C48361   8.127   9.435   9.546  0.0375  0.7145  0.3379
  351MOL0     C48362   8.262   9.363   9.600  0.7942  0.6855  0.6885
  351MOL0     C48363   8.294   9.240   9.514 -0.0975  1.2617 -0.7258
  351MOL0     C48364   8.381   9.154   9.605 -0.0935  0.9957  0.0051
  351MOL0     C48365   8.462   9.087   9.665 -1.3761  0.6624  0.2026
  351MOL0     C48366   8.161   9.786   9.495  0.5911 -1.5179 -0.1144
  351MOL0     C48367   8.168   9.927   9.514 -1.6844 -1.0929  0.1489
  351MOL0     C48368   8.284   9.972   9.602  0.4541  0.9302  0.6303
  351MOL0     H48369   7.807  10.238   9.604 -1.2723  0.1069  0.4627
  351MOL0     H48370   7.634  10.427   9.621  0.1566  1.0835  0.6550
  351MOL0     H48371   7.458  10.533   9.351 -0.3967  0.5619  2.6930
  351MOL0     H48372   7.547  10.669   9.268 -2.5313 -3.0833 -3.1185
  351MOL0     H48373   7.412  10.813   9.316 -0.3425 -1.2759 -1.3478
  351MOL0     H48374   7.306  10.697   9.397 -0.6515  0.8072 -0.3453
  351MOL0     H48375   7.322  10.821   9.581  1.3927 -4.6434  3.5627
  351MOL0     H48376   7.482  10.774   9.616 -0.5438  1.1652  0.9138
  351MOL0     H48377   7.455  11.016   9.433 -0.4313 -0.3788 -0.1885
  351MOL0     H48378   7.491  11.019   9.600  0.2297  2.0652 -2.4069
  351MOL0     H48379   7.679  10.893   9.404  0.8048  2.9640 -1.2680
  351MOL0     H48380   7.677  10.858   9.589 -2.5667  2.9161  3.6668
  351MOL0     H48381   7.717  11.118   9.452  2.4675 -0.0594 -0.7323
  351MOL0     H48382   7.687  11.085   9.624  0.5730 -1.4001  0.4488
  351MOL0     H48383   7.880  10.943   9.636 -1.1369 -0.6674 -0.5540
  351MOL0     H48384   7.890  11.122   9.620 -0.6408  1.2641 -2.9676
  351MOL0     H48385   7.901  11.023   9.353  0.0362  4.2464 -0.4292
  351MOL0     H48386   7.976  11.151   9.417 -2.2384  0.2268 -0.0363
  351MOL0     H48387   7.993  10.767   9.447  1.1915 -0.1206 -0.5937
  351MOL0     H48388   8.113  10.669   9.692  0.7088  1.2019  0.8274
  351MOL0     H48389   8.285  10.667   9.675 -0.2060 -0.0952 -0.4631
  351MOL0     H48390   8.170  10.458   9.625  0.8698  0.7691  0.7964
  351MOL0     H48391   8.083  10.546   9.485  0.7236  1.8170  0.2143
  351MOL0     H48392   8.331  10.597   9.415  1.4656 -1.1081 -0.3717
  351MOL0     H48393   8.373  10.476   9.533 -1.5287 -2.8279  1.3846
  351MOL0     H48394   8.300  10.306   9.397  0.2735 -0.6902  0.0666
  351MOL0     H48395   8.181  10.405   9.313 -0.2599 -2.1789 -1.6717
  351MOL0     H48396   8.175  10.618   9.169  1.9885  0.1827  1.2858
  351MOL0     H48397   8.203  10.864   8.934 -2.4235  0.4257 -0.5406
  351MOL0     H48398   8.077  10.780   9.018 -0.9521 -0.2723 -0.3572
  351MOL0     H48399   8.125  10.741   8.849 -0.9943  1.4933 -0.5920
  351MOL0     H48400   8.407  10.547   8.502 -0.5742  0.8350  1.1019
  351MOL0     H48401   8.471  10.592   8.284 -1.3807 -1.2483  1.3259
  351MOL0     H48402   8.688  10.858   8.189  2.1847 -1.5331  0.2833
  351MOL0     H48403   8.617  10.691   8.147  4.8265 -0.4234  0.1819
  351MOL0     H48404   8.617  10.934   7.968 -2.5470  0.3701  0.3437
  351MOL0     H48405   8.748  10.821   7.963 -0.0992 -1.2656  0.1547
  351MOL0     H48406   8.442  10.764   7.919 -0.0585  0.9574  1.7972
  351MOL0     H48407   8.560  10.637   7.888  1.0006 -0.4362  3.0741
  351MOL0     H48408   8.618  10.882   7.737 -0.4198  1.2962  1.2292
  351MOL0     H48409   8.492  10.760   7.694 -1.3212  0.3241  3.2138
  351MOL0     H48410   8.790  10.699   7.770  0.8653  0.3738 -0.4327
  351MOL0     H48411   8.671  10.590   7.700 -0.4488 -0.8049 -3.0743
  351MOL0     H48412   8.774  10.846   7.550 -0.2922  0.3188 -0.9539
  351MOL0     H48413   8.665  10.727   7.487 -1.2043 -0.3771  1.5054
  351MOL0     H48414   8.916  10.622   7.597 -1.6641  0.8295  0.3062
  351MOL0     H48415   8.949  10.744   7.469  0.6234  1.1834  2.0599
  351MOL0     H48416   8.964  10.525   7.374 -0.0138 -0.5880 -1.5032
  351MOL0     H48417   8.801  10.576   7.329 -1.8287  2.8356  1.9535
  351MOL0     H48418   8.387  11.012   8.330 -0.1289  1.5724  2.0138
  351MOL0     H48419   8.320  10.959   8.563 -0.9273 -1.3127  0.3466
  351MOL0     H48420   8.537  10.522   8.848 -1.6524 -1.3527 -2.9594
  351MOL0     H48421   8.543  10.419   9.086  0.1054 -1.4578 -1.7774
  351MOL0     H48422   7.760  10.561   9.241  2.2498  2.7044  0.7869
  351MOL0     H48423   7.930  10.392   9.223  2.9878  0.6717  1.3507
  351MOL0     H48424   7.910   9.997   9.291  1.3971  0.4757 -2.3043
  351MOL0     H48425   7.917   9.775   9.262  0.4259  0.8439 -0.8675
  351MOL0     H48426   8.171   9.421   9.331  0.4963  1.1845 -1.9785
  351MOL0     H48427   8.257   9.547   9.410  1.1840 -3.4348  2.2617
  351MOL0     H48428   8.043   9.364   9.541  1.5816 -1.2546  1.2212
  351MOL0     H48429   8.091   9.519   9.607 -3.4765 -1.4833  1.6277
  351MOL0     H48430   8.348   9.431   9.595  2.1387 -0.9005  1.0377
  351MOL0     H48431   8.243   9.325   9.702  0.0944 -0.2634  0.2226
  351MOL0     H48432   8.357   9.257   9.426  1.0615  1.5530  0.1321
  351MOL0     H48433   8.202   9.185   9.492  0.1578  1.0059 -1.1682
  351MOL0     H48434   8.532   9.041   9.732  0.4434  4.1239  0.9436
  351MOL0     H48435   8.231   9.721   9.546  0.2644 -2.7353 -1.1557
  351MOL0     H48436   8.369   9.978   9.533  1.0703  0.1947  1.3123
  351MOL0     H48437   8.261  10.061   9.662 -1.3492 -0.5530  2.2746
  351MOL0     H48438   8.298   9.900   9.683 -2.7096  0.7321  1.1091
  352MOL0     O48439   0.576  10.973   4.417  0.4459  0.2203 -0.4531
  352MOL0     C48440   0.686  11.001   4.368  0.3498 -0.4888  0.0153
  352MOL0     O48441   0.769  11.095   4.414 -0.3717 -0.1185 -0.2512
  352MOL0     C48442   0.737  11.195   4.510  0.6122  0.0974 -0.3043
  352MOL0     C48443   0.607  11.234   4.552  0.0005 -0.1987 -0.6676
  352MOL0     C48444   0.588  11.319   4.669  0.6652  0.0324 -0.1307
  352MOL0     C48445   0.703  11.353   4.743  0.6210 -1.3736 -0.0001
  352MOL0     O48446   0.693  11.410   4.867 -0.2736 -0.2762 -0.1112
  352MOL0     C48447   0.633  11.344   4.980  0.1851  0.0710 -0.5914
  352MOL0     C48448   0.727  11.242   5.031  0.2109  0.1877  0.5231
  352MOL0     C48449   0.693  11.169   5.161  0.2970  0.3376 -0.1261
  352MOL0     C48450   0.597  11.239   5.259  0.1998  0.6026 -0.8281
  352MOL0     C48451   0.562  11.178   5.394  0.5403  0.3450 -0.6672
  352MOL0     C48452   0.462  11.269   5.463  0.5469 -0.2363 -0.1738
  352MOL0     C48453   0.413  11.232   5.608 -0.4045  0.2505  0.1196
  352MOL0     C48454   0.320  11.336   5.666  0.6923 -0.4752  1.6143
  352MOL0     N48455   0.256  11.308   5.799 -0.3628  0.2821  0.3108
  352MOL0     C48456   0.191  11.192   5.819 -0.8023 -0.3160  0.1837
  352MOL0     C48457   0.164  11.196   5.954 -0.4446 -0.5165  0.1802
  352MOL0     C48458   0.134  11.086   6.043 -0.1544 -0.0006 -0.3587
  352MOL0     C48459   0.249  10.982   6.053 -0.6384 -0.3262  0.0647
  352MOL0     C48460   0.211  10.869   6.152  0.2939 -0.5766  0.3796
  352MOL0     C48461   0.322  10.755   6.167  0.2335 -0.0521  0.3332
  352MOL0     O48462   0.456  10.816   6.195  0.0702  0.2847 -0.1324
  352MOL0     C48463   0.557  10.733   6.232 -0.2767 -0.7396 -0.2298
  352MOL0     C48464   0.673  10.796   6.286  0.2781 -0.7676  1.1999
  352MOL0     C48465   0.795  10.725   6.302 -0.4276  0.8344 -0.6792
  352MOL0     C48466   0.913  10.807   6.342  0.2030  0.2265 -0.5354
  352MOL0     C48467   0.786  10.581   6.301 -0.7480  0.5656 -0.5533
  352MOL0     C48468   0.899  10.498   6.359 -1.0024 -0.0398  0.7308
  352MOL0     O48469   0.885  10.354   6.334 -0.5383  0.0754 -0.3514
  352MOL0     C48470   0.971  10.271   6.402 -0.1024  0.7170 -0.1947
  352MOL0     C48471   0.934  10.195   6.505  1.2045 -0.0087 -0.0866
  352MOL0     C48472   1.023  10.117   6.576  0.6264  0.8234 -0.0583
  352MOL0     C48473   1.155  10.122   6.562  0.2267  1.4111  0.2313
  352MOL0     O48474   1.240  10.063   6.656  0.5063 -0.3087  0.2755
  352MOL0     C48475   1.190   9.972   6.757  0.8598 -0.7366 -0.2560
  352MOL0     C48476   1.298   9.872   6.797  0.5476  0.5144 -0.2130
  352MOL0     C48477   1.275   9.795   6.919  0.5852 -0.4280  1.0476
  352MOL0     C48478   1.140   9.725   6.925  0.3482 -0.5414 -0.0611
  352MOL0     C48479   1.111   9.665   7.065 -0.5811  0.1023 -0.6398
  352MOL0     C48480   0.974   9.589   7.074  0.0518 -1.3129  0.1592
  352MOL0     C48481   0.963   9.510   7.209 -0.3679  0.7002 -0.2139
  352MOL0     C48482   0.823   9.446   7.226 -0.9232 -0.5572  0.3168
  352MOL0    Cl48483   0.819   9.285   7.147 -0.3144 -0.3151  0.6652
  352MOL0     C48484   1.205  10.191   6.453 -0.0765 -0.0584  0.2825
  352MOL0     C48485   1.111  10.261   6.372  0.1247  0.4698  0.5226
  352MOL0     O48486   0.986  10.547   6.426 -0.7024 -0.4895 -0.1669
  352MOL0     C48487   0.671  10.519   6.246  0.0706  1.0784  0.6577
  352MOL0     C48488   0.560  10.597   6.218  0.6673  0.0878 -0.1490
  352MOL0     N48489   0.184  11.327   5.991  0.3606  0.0513 -0.2823
  352MOL0     N48490   0.233  11.398   5.894  0.5820 -0.7269 -0.0242
  352MOL0     C48491   0.827  11.319   4.695  0.5205 -0.3978  0.1588
  352MOL0     C48492   0.843  11.244   4.581 -0.0043  0.7329 -0.2289
  352MOL0     C48493   0.729  10.915   4.245  0.3006 -0.2366  0.4845
  352MOL0     C48494   0.627  10.847   4.178  0.4485  0.4034 -0.3388
  352MOL0     C48495   0.650  10.749   4.080  0.0237 -0.0943 -0.7722
  352MOL0     C48496   0.782  10.724   4.043 -0.1339  0.1238  0.4553
  352MOL0     O48497   0.812  10.618   3.958  0.3013 -0.2616  0.2759
  352MOL0     C48498   0.726  10.570   3.858 -1.0472  0.1749 -0.1582
  352MOL0     C48499   0.641  10.453   3.891  0.4627  0.6749  0.0460
  352MOL0     C48500   0.518  10.429   3.798  0.6213 -0.8765 -0.2708
  352MOL0     C48501   0.440  10.307   3.826  1.4956 -0.2465  0.0179
  352MOL0     C48502   0.516  10.181   3.799 -0.4174  0.9982  0.4275
  352MOL0     C48503   0.556  10.069   3.775 -0.1295  0.5298 -0.1527
  352MOL0     C48504   0.881  10.802   4.100  1.1071 -0.4407  0.8960
  352MOL0     C48505   0.859  10.895   4.198 -0.0446 -0.2520 -0.8843
  352MOL0     C48506   0.976  10.992   4.229 -0.0078 -0.3354 -0.1147
  352MOL0     H48507   0.521  11.203   4.494  0.6245  0.0686 -1.7526
  352MOL0     H48508   0.486  11.339   4.702  0.9552 -0.8133  1.3917
  352MOL0     H48509   0.533  11.303   4.964 -0.2759 -0.4869  2.9863
  352MOL0     H48510   0.621  11.423   5.055  4.8699 -0.2494  0.8191
  352MOL0     H48511   0.737  11.163   4.956 -1.2144  0.4066  0.0792
  352MOL0     H48512   0.828  11.282   5.045  0.3502  0.4641 -1.1240
  352MOL0     H48513   0.657  11.067   5.145 -1.2932  1.1983 -2.6270
  352MOL0     H48514   0.787  11.157   5.217 -0.1907 -0.5900  0.5179
  352MOL0     H48515   0.633  11.341   5.276  1.5858 -0.0908  0.6145
  352MOL0     H48516   0.502  11.251   5.205 -0.5015  0.2817  0.2979
  352MOL0     H48517   0.643  11.187   5.467 -1.0953  1.8026  1.0862
  352MOL0     H48518   0.530  11.073   5.392  0.7511  0.2316  0.6321
  352MOL0     H48519   0.498  11.372   5.468 -2.3564  0.8585  3.5032
  352MOL0     H48520   0.381  11.262   5.391  0.5943 -1.9333 -0.1067
  352MOL0     H48521   0.506  11.236   5.667 -0.2503 -2.9415  0.2269
  352MOL0     H48522   0.376  11.130   5.618 -0.4835  0.3183  0.5676
  352MOL0     H48523   0.371  11.433   5.658  1.7861 -1.1483 -0.2292
  352MOL0     H48524   0.232  11.344   5.601  2.4800  1.2980 -0.8146
  352MOL0     H48525   0.181  11.107   5.752 -4.8344 -0.3680  0.6395
  352MOL0     H48526   0.036  11.051   6.008 -0.0108  1.3794 -2.2707
  352MOL0     H48527   0.128  11.119   6.147 -0.2940  0.0685 -0.3882
  352MOL0     H48528   0.270  10.937   5.955  0.8726  0.8762 -0.2110
  352MOL0     H48529   0.336  11.030   6.100  0.8477 -4.7894  2.3833
  352MOL0     H48530   0.202  10.921   6.248  1.2974 -0.3593  0.3621
  352MOL0     H48531   0.117  10.825   6.116 -0.6216  1.9457 -0.4893
  352MOL0     H48532   0.294  10.679   6.241 -1.7490  0.2870 -0.0274
  352MOL0     H48533   0.337  10.702   6.072 -3.1259  0.7997 -0.8234
  352MOL0     H48534   0.673  10.904   6.286 -3.5807 -0.4983 -2.2526
  352MOL0     H48535   1.000  10.756   6.299 -0.8771 -0.9165 -1.4379
  352MOL0     H48536   0.918  10.817   6.451  0.0067 -3.0629 -0.1417
  352MOL0     H48537   0.909  10.908   6.300 -2.1806 -0.5197 -2.2868
  352MOL0     H48538   0.831  10.192   6.541  1.7578  1.4930  1.8037
  352MOL0     H48539   0.969  10.068   6.657 -0.6737  1.4571 -0.5121
  352MOL0     H48540   1.155  10.030   6.843 -1.6466 -1.2597 -0.8380
  352MOL0     H48541   1.101   9.922   6.718  0.7183 -0.4278 -0.3302
  352MOL0     H48542   1.319   9.803   6.715 -0.9257  0.5590 -0.6450
  352MOL0     H48543   1.391   9.928   6.813  1.7567 -1.7766  1.4783
  352MOL0     H48544   1.293   9.860   7.005 -3.2060 -0.6772  2.2320
  352MOL0     H48545   1.346   9.712   6.921  1.0486 -0.2082 -1.7930
  352MOL0     H48546   1.138   9.642   6.854  0.2315  2.9483 -4.5520
  352MOL0     H48547   1.059   9.789   6.892 -0.1404 -2.3532 -2.6549
  352MOL0     H48548   1.181   9.588   7.097 -2.8870 -1.7097  0.3117
  352MOL0     H48549   1.113   9.749   7.135 -1.6606 -1.8097  1.8512
  352MOL0     H48550   0.957   9.520   6.991 -2.5134  0.2486 -0.7199
  352MOL0     H48551   0.897   9.665   7.062 -0.1346 -1.7041 -1.2349
  352MOL0     H48552   0.951   9.586   7.286 -3.2590 -0.2654  0.4295
  352MOL0     H48553   1.041   9.435   7.223  0.0393  0.6439 -2.3828
  352MOL0     H48554   0.738   9.500   7.183 -0.8019 -0.1846  0.5354
  352MOL0     H48555   0.809   9.435   7.334 -2.4095  1.3184  0.3746
  352MOL0     H48556   1.308  10.208   6.423 -0.0977 -0.3175  0.0645
  352MOL0     H48557   1.147  10.308   6.281  2.6594 -2.2376 -0.0235
  352MOL0     H48558   0.671  10.412   6.227  2.5814  1.0240  0.5998
  352MOL0     H48559   0.472  10.545   6.181  1.6032 -2.1990  0.6724
  352MOL0     H48560   0.900  11.334   4.774 -0.1231 -1.3266  0.9568
  352MOL0     H48561   0.945  11.221   4.556  0.0811  3.3340 -2.7483
  352MOL0     H48562   0.525  10.855   4.215  1.3025  1.7844  1.8514
  352MOL0     H48563   0.568  10.687   4.044  1.9509 -1.4209 -3.2036
  352MOL0     H48564   0.663  10.651   3.820 -2.5845  0.2562  2.3448
  352MOL0     H48565   0.792  10.538   3.777 -1.6650  4.4928 -2.7328
  352MOL0     H48566   0.596  10.455   3.991 -0.1832 -0.1480 -0.2123
  352MOL0     H48567   0.692  10.356   3.887 -0.8260 -0.0220 -0.2511
  352MOL0     H48568   0.457  10.520   3.803  1.3774 -0.3692 -0.1196
  352MOL0     H48569   0.540  10.430   3.691 -2.2400  0.8165 -0.9402
  352MOL0     H48570   0.345  10.311   3.772 -1.1802 -3.9797  3.7763
  352MOL0     H48571   0.404  10.313   3.929 -0.7747  2.9635 -0.8054
  352MOL0     H48572   0.582   9.966   3.759 -1.1011  0.4629 -1.4175
  352MOL0     H48573   0.986  10.793   4.073  0.3315 -1.0854 -2.2204
  352MOL0     H48574   0.998  10.993   4.336  4.2882  0.7487 -0.8230
  352MOL0     H48575   1.071  10.979   4.176  2.2529  0.6064  3.3352
  352MOL0     H48576   0.939  11.088   4.193  4.1055  1.5359  0.0631
  353MOL0     O48577   6.331   3.346   0.478  0.6920  0.2296  0.1021
  353MOL0     C48578   6.240   3.347   0.569 -0.6981  0.5202  0.7175
  353MOL0     O48579   6.137   3.268   0.577  0.6757  0.1771 -0.0367
  353MOL0     C48580   6.149   3.133   0.535 -0.7209 -0.4898 -0.3993
  353MOL0     C48581   6.027   3.064   0.529  0.1451 -0.3445 -0.2237
  353MOL0     C48582   6.018   2.928   0.501  0.1589 -0.4016  0.4698
  353MOL0     C48583   6.134   2.852   0.472 -0.0014 -0.5875  0.3843
  353MOL0     O48584   6.133   2.721   0.420 -0.2989  0.2611  0.6706
  353MOL0     C48585   6.016   2.641   0.449 -0.3216  0.1126 -0.1672
  353MOL0     C48586   6.043   2.491   0.434 -0.9026  0.4496  0.9914
  353MOL0     C48587   6.166   2.433   0.528  1.0357 -0.1333  0.1502
  353MOL0     C48588   6.154   2.279   0.547  0.1400  0.9921 -0.1445
  353MOL0     C48589   6.077   2.231   0.671 -0.5916  0.1523  0.3182
  353MOL0     C48590   6.166   2.240   0.797 -0.4076  0.0618 -0.5055
  353MOL0     C48591   6.119   2.126   0.893  0.4612 -0.0574 -0.6209
  353MOL0     C48592   6.218   2.105   1.011  0.5869  0.0506  0.4529
  353MOL0     N48593   6.191   1.979   1.076 -0.5035  0.3724 -0.4848
  353MOL0     C48594   6.293   1.888   1.102 -0.0375  0.0332  0.1180
  353MOL0     C48595   6.221   1.779   1.159  0.5435  0.1360  0.0987
  353MOL0     C48596   6.272   1.650   1.219  0.0918 -0.5332  0.9777
  353MOL0     C48597   6.375   1.580   1.130 -0.3283  0.3081 -0.2771
  353MOL0     C48598   6.408   1.435   1.193  0.5010  0.0865 -0.0139
  353MOL0     C48599   6.433   1.424   1.345  0.1998  0.5274 -0.5077
  353MOL0     O48600   6.476   1.288   1.379 -0.0632  0.2836  0.4335
  353MOL0     C48601   6.614   1.285   1.372  0.1398  0.2597  0.1997
  353MOL0     C48602   6.690   1.340   1.481 -0.5145 -0.4715 -0.0786
  353MOL0     C48603   6.827   1.305   1.491  0.6598  0.3721  1.2179
  353MOL0     C48604   6.902   1.340   1.613  0.7070 -0.0506  0.1612
  353MOL0     C48605   6.889   1.218   1.396  1.2037  0.0761 -0.0084
  353MOL0     C48606   7.029   1.182   1.422  0.0097 -0.0360  0.0298
  353MOL0     O48607   7.059   1.049   1.409 -0.2232 -0.4263 -0.0741
  353MOL0     C48608   7.172   0.997   1.456  0.2971 -0.3082  0.2060
  353MOL0     C48609   7.230   0.895   1.379  0.4768  0.4866  0.2395
  353MOL0     C48610   7.355   0.840   1.420  0.5606  0.0678  0.3546
  353MOL0     C48611   7.413   0.881   1.543 -0.6636  0.9213  0.1136
  353MOL0     O48612   7.522   0.807   1.596 -0.1305  0.1017 -0.7982
  353MOL0     C48613   7.645   0.807   1.512 -0.5242 -0.4605 -0.2676
  353MOL0     C48614   7.732   0.686   1.531 -0.5320 -0.6459  0.0670
  353MOL0     C48615   7.825   0.686   1.649  0.1271 -0.3712 -0.0458
  353MOL0     C48616   7.964   0.753   1.629  0.1263  0.2854 -0.1315
  353MOL0     C48617   8.064   0.750   1.750 -0.1305  0.5900  0.1130
  353MOL0     C48618   8.064   0.629   1.832  0.9670 -0.3997 -0.2792
  353MOL0     C48619   8.121   0.662   1.958  0.6288 -0.4871 -0.9756
  353MOL0     C48620   8.161   0.540   2.039  1.2611  0.7150 -0.2049
  353MOL0    Cl48621   8.044   0.398   2.023  0.0328 -0.0510  0.5672
  353MOL0     C48622   7.352   0.982   1.622  0.3877  0.9726 -0.1037
  353MOL0     C48623   7.233   1.043   1.574 -0.4616 -0.1328 -0.0230
  353MOL0     O48624   7.115   1.270   1.436 -0.1966  0.0410 -0.0772
  353MOL0     C48625   6.813   1.158   1.298  0.0736 -0.5456  0.0559
  353MOL0     C48626   6.674   1.195   1.283 -0.1125  0.0915 -0.5624
  353MOL0     N48627   6.093   1.824   1.184  0.0542 -0.1651 -0.2664
  353MOL0     N48628   6.071   1.937   1.124  0.5960  0.3152  0.4230
  353MOL0     C48629   6.260   2.918   0.491 -0.1747 -0.2599  0.4160
  353MOL0     C48630   6.268   3.053   0.516 -0.5207 -1.3585 -0.0174
  353MOL0     C48631   6.262   3.447   0.686  0.2876 -0.0080  1.0123
  353MOL0     C48632   6.155   3.453   0.776  0.3476  0.5702  0.1525
  353MOL0     C48633   6.149   3.539   0.884  0.2148  0.0396 -0.7511
  353MOL0     C48634   6.232   3.645   0.881  0.4986 -0.4229  0.3523
  353MOL0     O48635   6.203   3.745   0.969  0.4383 -0.4733 -0.8804
  353MOL0     C48636   6.279   3.866   0.959  0.9459  0.7881  0.4234
  353MOL0     C48637   6.202   3.957   1.047 -0.1649  0.2357  0.2287
  353MOL0     C48638   6.285   4.092   1.057 -0.3455 -0.2064 -1.1818
  353MOL0     C48639   6.317   4.171   0.931 -0.1628 -0.1289  0.0325
  353MOL0     C48640   6.193   4.184   0.860  0.5480 -0.1573  0.4635
  353MOL0     C48641   6.091   4.180   0.780 -0.6537  0.5198 -0.8055
  353MOL0     C48642   6.345   3.645   0.793 -0.9217  1.0504 -0.3542
  353MOL0     C48643   6.367   3.537   0.694 -0.5563  0.7345  0.0845
  353MOL0     C48644   6.481   3.551   0.589  0.3984  0.0217 -0.4005
  353MOL0     H48645   5.939   3.128   0.532  1.9174  2.2423  0.7538
  353MOL0     H48646   5.928   2.868   0.502  0.1148 -0.3406  0.0401
  353MOL0     H48647   5.936   2.683   0.388  0.6200 -0.1127 -1.5964
  353MOL0     H48648   5.977   2.651   0.551  3.7530  0.8813  1.5191
  353MOL0     H48649   5.946   2.445   0.456  0.6575 -3.4425  0.6548
  353MOL0     H48650   6.068   2.471   0.330  0.3972 -0.6167  1.4757
  353MOL0     H48651   6.252   2.449   0.463  1.4062  2.3804  1.1240
  353MOL0     H48652   6.175   2.486   0.623 -2.4105  0.2625  0.4033
  353MOL0     H48653   6.108   2.238   0.457 -3.6527  0.0098  1.9926
  353MOL0     H48654   6.258   2.248   0.554  0.0600  0.7761  0.0991
  353MOL0     H48655   6.052   2.128   0.643 -3.6918  1.4371 -2.3141
  353MOL0     H48656   5.988   2.293   0.683  1.1582  3.2140 -1.2874
  353MOL0     H48657   6.267   2.221   0.759 -0.0603 -3.0206  1.5590
  353MOL0     H48658   6.157   2.337   0.846 -3.2382 -0.6774  0.6520
  353MOL0     H48659   6.103   2.034   0.837 -0.8590  0.1560 -0.6103
  353MOL0     H48660   6.028   2.155   0.945  1.9392  3.3366  0.3827
  353MOL0     H48661   6.321   2.117   0.974 -0.1910  0.4511 -1.7229
  353MOL0     H48662   6.198   2.178   1.091 -1.1897  3.6121 -2.8931
  353MOL0     H48663   6.397   1.911   1.082  0.1764 -0.0098  1.0971
  353MOL0     H48664   6.188   1.580   1.213 -1.1328  0.9053  1.0090
  353MOL0     H48665   6.293   1.664   1.325 -1.6899 -0.1628  1.3084
  353MOL0     H48666   6.335   1.555   1.032  0.7980  0.8404 -0.8870
  353MOL0     H48667   6.469   1.633   1.113  0.0729  0.0015  0.8679
  353MOL0     H48668   6.333   1.365   1.155  2.1192 -0.6124 -2.1496
  353MOL0     H48669   6.502   1.404   1.146  0.2097  2.7477 -2.6216
  353MOL0     H48670   6.485   1.504   1.399 -0.0919  0.9945 -0.8978
  353MOL0     H48671   6.330   1.440   1.378 -1.0888  0.5790 -4.1014
  353MOL0     H48672   6.640   1.406   1.551 -1.5121  0.1524 -1.3454
  353MOL0     H48673   6.832   1.384   1.684 -3.3695 -4.3072 -0.7673
  353MOL0     H48674   6.982   1.405   1.574 -0.1204 -0.1510 -1.8533
  353MOL0     H48675   6.945   1.250   1.658  2.9238  0.7235 -0.2560
  353MOL0     H48676   7.173   0.847   1.300 -0.2035 -0.8060  1.4698
  353MOL0     H48677   7.393   0.758   1.359  0.5171  0.0336  0.3738
  353MOL0     H48678   7.628   0.822   1.405  0.0114 -0.2791 -0.3277
  353MOL0     H48679   7.708   0.889   1.546 -0.1252 -0.0877 -1.8393
  353MOL0     H48680   7.673   0.594   1.534  1.7514 -2.1918  0.4410
  353MOL0     H48681   7.808   0.688   1.453  2.9756  5.0104  2.9064
  353MOL0     H48682   7.841   0.579   1.664 -0.6474 -0.6824 -1.2469
  353MOL0     H48683   7.780   0.736   1.735  1.4887 -1.5823  1.4152
  353MOL0     H48684   7.936   0.859   1.626 -1.5121  0.1649  3.9344
  353MOL0     H48685   8.015   0.734   1.534 -2.6601 -0.7750 -1.5169
  353MOL0     H48686   8.165   0.769   1.713  0.2732  1.2750  1.4950
  353MOL0     H48687   8.051   0.838   1.814 -3.3558  0.0862  0.3368
  353MOL0     H48688   8.131   0.564   1.774  1.1188 -1.0064  0.5553
  353MOL0     H48689   7.968   0.579   1.846  0.0119  1.5197  0.2319
  353MOL0     H48690   8.067   0.739   2.013  0.1572 -0.6554 -1.1984
  353MOL0     H48691   8.217   0.714   1.947 -0.2689  1.6522  0.4958
  353MOL0     H48692   8.167   0.573   2.143  0.5405  0.1609  0.0262
  353MOL0     H48693   8.258   0.513   1.996  0.5382  0.0880 -1.4969
  353MOL0     H48694   7.382   1.001   1.725 -0.6409  1.6361  0.0865
  353MOL0     H48695   7.180   1.118   1.631 -2.3148 -1.9490  0.7701
  353MOL0     H48696   6.860   1.099   1.220  1.7581 -0.4297  0.9214
  353MOL0     H48697   6.616   1.162   1.197  1.1848 -1.9772 -0.7066
  353MOL0     H48698   6.346   2.853   0.501  0.9509  1.3995  2.0037
  353MOL0     H48699   6.366   3.092   0.539 -0.9770 -0.8629  1.1575
  353MOL0     H48700   6.074   3.381   0.769  0.9119 -0.1069  0.3962
  353MOL0     H48701   6.078   3.533   0.966  1.2167 -1.2893  0.0666
  353MOL0     H48702   6.375   3.859   1.010  0.5321  2.9343  1.6269
  353MOL0     H48703   6.294   3.911   0.860 -1.0753  0.0955 -0.2458
  353MOL0     H48704   6.188   3.919   1.149  0.5901 -0.7482 -0.0255
  353MOL0     H48705   6.099   3.969   1.014 -0.1685 -0.9758 -0.2428
  353MOL0     H48706   6.221   4.154   1.119 -2.6071 -0.8125 -2.7975
  353MOL0     H48707   6.377   4.074   1.114 -1.2865 -0.1010  0.4145
  353MOL0     H48708   6.395   4.123   0.871  1.8821 -0.8559  3.0348
  353MOL0     H48709   6.351   4.269   0.966  1.2548  1.1185 -4.1618
  353MOL0     H48710   5.997   4.199   0.731 -1.3573  1.3787  0.8137
  353MOL0     H48711   6.406   3.735   0.785 -0.4440  0.7561 -0.0822
  353MOL0     H48712   6.552   3.469   0.598  1.4549  0.8959 -0.5874
  353MOL0     H48713   6.438   3.556   0.489 -1.7140 -0.7595  0.3810
  353MOL0     H48714   6.541   3.641   0.605  2.5685 -1.6289  1.3044
  354MOL0     O48715   6.728  10.689   4.617  0.6454  1.0644 -0.0683
  354MOL0     C48716   6.753  10.629   4.725 -0.6622 -0.0063  0.9371
  354MOL0     O48717   6.686  10.640   4.842 -0.0038  0.4963  0.0091
  354MOL0     C48718   6.581  10.734   4.839 -0.1559  0.5411  0.3812
  354MOL0     C48719   6.441  10.703   4.841  0.0166  0.6267 -0.2448
  354MOL0     C48720   6.343  10.796   4.858  0.9779  0.7298  0.7595
  354MOL0     C48721   6.379  10.921   4.875 -0.1879 -1.1792  0.3634
  354MOL0     O48722   6.272  11.004   4.888 -0.5081  0.3399  0.2351
  354MOL0     C48723   6.294  11.108   4.983  0.9261  0.3616  0.3225
  354MOL0     C48724   6.158  11.155   5.039 -0.3660  0.3475  0.3209
  354MOL0     C48725   6.175  11.250   5.156 -0.1175 -0.1660  0.4947
  354MOL0     C48726   6.045  11.296   5.213  0.6325 -0.4775  0.2063
  354MOL0     C48727   6.070  11.380   5.340  0.6783  0.3011  0.0773
  354MOL0     C48728   5.961  11.356   5.442  1.0903 -0.4836 -0.8121
  354MOL0     C48729   5.981  11.416   5.580  0.1608 -0.3021  0.1138
  354MOL0     C48730   6.017  11.567   5.594 -0.3143 -0.3698 -0.4442
  354MOL0     N48731   5.941  11.671   5.520  0.3169 -0.4926 -0.6457
  354MOL0     C48732   5.969  11.721   5.396  1.0881 -0.0941  1.0584
  354MOL0     C48733   5.852  11.792   5.355  0.1467  0.4106 -0.0929
  354MOL0     C48734   5.830  11.856   5.225  0.3458 -1.4686  0.2053
  354MOL0     C48735   5.868  11.754   5.106 -0.0096  0.4915  0.3272
  354MOL0     C48736   5.768  11.632   5.096  0.1262 -0.0580  0.7576
  354MOL0     C48737   5.775  11.578   4.961  0.0707  0.3350  0.2134
  354MOL0     O48738   5.749  11.679   4.861 -0.5759  0.0037  0.0192
  354MOL0     C48739   5.724  11.636   4.738  0.8001 -1.0974  0.0728
  354MOL0     C48740   5.667  11.738   4.656  0.9973  0.6947 -0.0240
  354MOL0     C48741   5.624  11.705   4.522 -0.3035 -0.3795  0.5463
  354MOL0     C48742   5.557  11.813   4.436 -0.3839 -0.1342 -0.4376
  354MOL0     C48743   5.649  11.574   4.475  0.2011  0.9606  0.3587
  354MOL0     C48744   5.608  11.535   4.335  0.5201 -0.7143  0.3207
  354MOL0     O48745   5.476  11.557   4.288  0.0686  0.3894 -0.1801
  354MOL0     C48746   5.436  11.536   4.159 -0.0229 -1.1825 -0.3490
  354MOL0     C48747   5.337  11.626   4.109  0.7529  0.4512 -0.4520
  354MOL0     C48748   5.287  11.609   3.986  0.2587 -0.1495  0.2635
  354MOL0     C48749   5.349  11.520   3.898 -0.0993 -0.7164 -0.2112
  354MOL0     O48750   5.319  11.504   3.767  0.1168  0.0492  0.1806
  354MOL0     C48751   5.229  11.591   3.695  0.6954  0.7584  0.0841
  354MOL0     C48752   5.254  11.558   3.549 -0.1166  0.2934 -0.3446
  354MOL0     C48753   5.182  11.670   3.468 -0.5727 -0.1355  0.0155
  354MOL0     C48754   5.253  11.803   3.458 -0.4231  0.6145  0.8256
  354MOL0     C48755   5.168  11.920   3.392  0.6822 -0.5480 -0.1383
  354MOL0     C48756   5.143  11.900   3.243  0.0087 -0.2665 -0.0114
  354MOL0     C48757   5.081  12.025   3.177  0.8448  0.7430  0.0347
  354MOL0     C48758   5.015  11.975   3.045  0.4700 -0.1802  0.2051
  354MOL0    Cl48759   4.929  12.120   2.978  0.0361 -0.2045 -0.1754
  354MOL0     C48760   5.444  11.443   3.949 -0.0426 -0.0856  0.2283
  354MOL0     C48761   5.488  11.447   4.079  0.9940  0.7821 -0.0587
  354MOL0     O48762   5.704  11.493   4.271  0.0941 -0.6060  0.2064
  354MOL0     C48763   5.701  11.477   4.565  0.4284  0.3464 -0.4559
  354MOL0     C48764   5.742  11.507   4.693  0.8705 -0.7796 -0.6387
  354MOL0     N48765   5.764  11.782   5.467  0.8694 -0.0525  0.1478
  354MOL0     N48766   5.816  11.700   5.551 -1.1224 -0.3427  0.2258
  354MOL0     C48767   6.515  10.962   4.880 -0.6877  1.0793  1.3584
  354MOL0     C48768   6.619  10.872   4.856  0.4835  0.6331 -0.1752
  354MOL0     C48769   6.853  10.527   4.719 -0.1183 -0.1422 -0.0424
  354MOL0     C48770   6.860  10.449   4.607  0.4130 -0.8941  0.0698
  354MOL0     C48771   6.933  10.321   4.608 -0.4958 -0.0452  1.6536
  354MOL0     C48772   7.032  10.298   4.704 -0.4768  0.0395  0.7017
  354MOL0     O48773   7.123  10.190   4.700 -0.7658 -0.5269  0.1949
  354MOL0     C48774   7.119  10.111   4.574 -1.0072 -0.4225  0.0259
  354MOL0     C48775   7.233  10.007   4.566  0.2092 -0.4520  0.2735
  354MOL0     C48776   7.186   9.887   4.645 -0.3755 -0.3506 -0.3099
  354MOL0     C48777   7.285   9.782   4.660 -0.7329  0.1783  0.2856
  354MOL0     C48778   7.420   9.825   4.706 -0.2490  0.5439  0.1525
  354MOL0     C48779   7.537   9.847   4.746 -0.6295 -0.1850  0.7307
  354MOL0     C48780   7.046  10.392   4.809 -0.0251  0.1205 -0.9330
  354MOL0     C48781   6.960  10.506   4.815  0.3580  0.3308  0.5897
  354MOL0     C48782   6.966  10.600   4.932 -1.1034  0.8150 -0.7044
  354MOL0     H48783   6.406  10.601   4.826 -0.3117  0.9238 -1.6095
  354MOL0     H48784   6.238  10.771   4.858  0.9737  0.7281  0.1227
  354MOL0     H48785   6.342  11.196   4.939 -0.4449  1.3178  0.6777
  354MOL0     H48786   6.340  11.065   5.072 -0.2468 -1.1045  0.2539
  354MOL0     H48787   6.102  11.215   4.966 -0.5133 -0.5079 -0.2809
  354MOL0     H48788   6.107  11.069   5.083  1.7963 -0.6920  0.9231
  354MOL0     H48789   6.242  11.201   5.227  2.2010 -1.2302 -2.2113
  354MOL0     H48790   6.224  11.337   5.111  4.5494 -2.8239 -0.1718
  354MOL0     H48791   5.983  11.356   5.145  0.9628 -1.4874 -1.0108
  354MOL0     H48792   5.988  11.208   5.246  0.2419  0.4183  2.0691
  354MOL0     H48793   6.077  11.484   5.306 -3.6849 -0.1118 -2.8719
  354MOL0     H48794   6.162  11.344   5.388 -0.0297 -0.4090  0.9224
  354MOL0     H48795   5.867  11.385   5.393  0.1519 -1.9432  0.0421
  354MOL0     H48796   5.950  11.248   5.445 -0.6449 -0.3277  1.0363
  354MOL0     H48797   6.064  11.358   5.623 -0.0919 -1.6061 -1.0886
  354MOL0     H48798   5.895  11.390   5.642 -1.6416 -2.0928 -2.9074
  354MOL0     H48799   6.017  11.593   5.700 -2.4447  0.4131 -0.5936
  354MOL0     H48800   6.120  11.573   5.557 -0.6995  1.4361 -1.3485
  354MOL0     H48801   6.066  11.729   5.348  1.3362  0.4498  1.6393
  354MOL0     H48802   5.897  11.942   5.229 -1.7000  0.2195  0.5148
  354MOL0     H48803   5.726  11.890   5.213  1.0721  1.2357  0.8419
  354MOL0     H48804   5.882  11.802   5.008  0.3081 -1.8705 -0.8605
  354MOL0     H48805   5.966  11.709   5.125  1.0606  2.1552 -0.9077
  354MOL0     H48806   5.796  11.553   5.167  1.7271  0.2848  0.5435
  354MOL0     H48807   5.662  11.655   5.107 -0.1486 -0.9266  0.0091
  354MOL0     H48808   5.870  11.531   4.934  0.0056  1.2546 -1.7923
  354MOL0     H48809   5.698  11.500   4.963 -0.4711  0.7836 -1.5071
  354MOL0     H48810   5.661  11.839   4.694 -1.5231  0.4306  0.5063
  354MOL0     H48811   5.595  11.910   4.470 -0.9041  0.0927 -0.4875
  354MOL0     H48812   5.449  11.808   4.453  0.1844 -3.2268  4.1067
  354MOL0     H48813   5.570  11.813   4.328 -1.1799  0.7113 -0.5475
  354MOL0     H48814   5.310  11.704   4.179  1.0126 -1.3208  1.7421
  354MOL0     H48815   5.199  11.660   3.947 -1.2154 -2.1779  0.7490
  354MOL0     H48816   5.130  11.572   3.738  0.8415 -1.9741 -0.5626
  354MOL0     H48817   5.263  11.694   3.707  1.1664  0.7398 -0.9624
  354MOL0     H48818   5.361  11.571   3.533 -0.2827  0.2990 -1.5240
  354MOL0     H48819   5.208  11.463   3.520  0.0500  0.6879 -1.9783
  354MOL0     H48820   5.087  11.688   3.519 -1.7064 -0.5528 -1.8348
  354MOL0     H48821   5.152  11.634   3.369  3.6060 -2.1532 -0.7138
  354MOL0     H48822   5.348  11.776   3.411  0.2655 -0.6730  2.8207
  354MOL0     H48823   5.277  11.843   3.557 -4.9922 -0.4116  2.5994
  354MOL0     H48824   5.073  11.927   3.446  0.4886  1.1455 -0.6516
  354MOL0     H48825   5.214  12.016   3.416 -2.0287  0.4705  1.3911
  354MOL0     H48826   5.075  11.815   3.228  1.6505 -1.2725 -2.4616
  354MOL0     H48827   5.236  11.874   3.192  0.4684  1.1812  0.0450
  354MOL0     H48828   5.148  12.110   3.164  0.3423  2.1014  4.4957
  354MOL0     H48829   5.007  12.065   3.247 -1.1584 -2.4055 -0.0700
  354MOL0     H48830   4.948  11.891   3.064  0.0751  0.2169  0.5961
  354MOL0     H48831   5.090  11.940   2.974  1.5780  1.1385  0.6900
  354MOL0     H48832   5.500  11.382   3.879  0.3908  1.1416 -0.5270
  354MOL0     H48833   5.554  11.369   4.115 -1.1694 -1.9127 -1.5331
  354MOL0     H48834   5.716  11.377   4.527  2.5929  0.1235  0.8659
  354MOL0     H48835   5.798  11.435   4.752 -0.4891  0.8714  2.9139
  354MOL0     H48836   6.550  11.064   4.894  2.4755 -0.1438  3.3931
  354MOL0     H48837   6.721  10.907   4.844  0.6886 -0.2525 -1.1565
  354MOL0     H48838   6.798  10.467   4.521 -0.4816  0.7107  0.9944
  354MOL0     H48839   6.913  10.256   4.524  0.6736  0.3405  1.0695
  354MOL0     H48840   7.022  10.062   4.570 -1.0382 -0.4026 -3.9225
  354MOL0     H48841   7.122  10.179   4.488 -1.9290  0.4929  0.7013
  354MOL0     H48842   7.326  10.050   4.604  1.2998 -1.8601 -0.7241
  354MOL0     H48843   7.251   9.975   4.464  0.6749 -0.6883  0.4255
  354MOL0     H48844   7.141   9.911   4.742 -0.8554 -3.1200  0.2548
  354MOL0     H48845   7.104   9.843   4.587 -1.3195  1.3358 -0.3216
  354MOL0     H48846   7.289   9.721   4.570 -3.0161 -1.1165  0.9873
  354MOL0     H48847   7.253   9.711   4.737 -1.8182  0.1866 -0.1347
  354MOL0     H48848   7.636   9.859   4.785  1.0435  0.8257 -3.3290
  354MOL0     H48849   7.125  10.383   4.883  2.7606 -1.6459 -3.8503
  354MOL0     H48850   6.971  10.705   4.902 -0.0843  0.4006 -2.0798
  354MOL0     H48851   6.879  10.572   4.992 -1.2888 -0.4960 -1.5367
  354MOL0     H48852   7.058  10.577   4.987 -1.7482 -2.0543 -0.6523
  355MOL0     O48853   1.870   8.365   1.398  0.1624  0.5553 -0.5419
  355MOL0     C48854   1.776   8.407   1.330  0.5228  1.2632 -1.4696
  355MOL0     O48855   1.657   8.463   1.393  0.1654  0.3900  0.3504
  355MOL0     C48856   1.660   8.522   1.521  0.2340  0.4608  0.4116
  355MOL0     C48857   1.670   8.444   1.637  0.6975  0.0069 -0.8871
  355MOL0     C48858   1.677   8.516   1.761  0.1154 -1.0116 -0.0030
  355MOL0     C48859   1.653   8.651   1.766  0.0753 -0.1102 -0.3191
  355MOL0     O48860   1.671   8.698   1.895 -0.4595 -0.2073 -0.1139
  355MOL0     C48861   1.625   8.824   1.916  0.0774 -1.4263  0.6448
  355MOL0     C48862   1.656   8.847   2.068  0.1842 -0.9056 -0.8027
  355MOL0     C48863   1.608   8.985   2.111  0.2047 -0.4689  0.3850
  355MOL0     C48864   1.596   9.008   2.266 -0.1270 -0.3516  0.1596
  355MOL0     C48865   1.492   8.926   2.341 -0.2951 -0.3946 -0.6948
  355MOL0     C48866   1.347   8.897   2.282  0.3820 -0.2916  0.1101
  355MOL0     C48867   1.272   9.018   2.246 -0.3131  0.7439 -1.0041
  355MOL0     C48868   1.136   8.980   2.183  0.6288 -0.3382  0.1947
  355MOL0     N48869   1.054   9.101   2.171  0.2450  0.6127 -0.0314
  355MOL0     C48870   0.929   9.123   2.229  0.5520  0.6664  0.4136
  355MOL0     C48871   0.880   9.237   2.169 -0.2407  0.4811 -0.0587
  355MOL0     C48872   0.753   9.306   2.210  0.4947 -0.0163 -0.0682
  355MOL0     C48873   0.776   9.401   2.325 -0.0275  0.6221  0.1803
  355MOL0     C48874   0.654   9.466   2.390 -0.4260  0.2633  0.7133
  355MOL0     C48875   0.540   9.370   2.429 -0.6036  0.1026  0.3855
  355MOL0     O48876   0.580   9.264   2.515  0.2815 -0.4192 -0.3396
  355MOL0     C48877   0.471   9.191   2.572  0.0118  0.0439  0.4580
  355MOL0     C48878   0.500   9.096   2.671  0.0072 -0.1880 -0.1929
  355MOL0     C48879   0.405   9.004   2.727 -0.4015 -0.0054  0.9000
  355MOL0     C48880   0.449   8.912   2.836  1.0304 -0.0929  0.4089
  355MOL0     C48881   0.274   9.011   2.674 -0.4251 -0.0922  0.2951
  355MOL0     C48882   0.159   8.921   2.712  0.3009 -0.3353  0.2645
  355MOL0     O48883   0.193   8.794   2.757 -0.7238 -0.4081 -1.2737
  355MOL0     C48884   0.083   8.714   2.776 -0.2226  0.7670  0.1164
  355MOL0     C48885   0.031   8.695   2.905  0.0627  0.5469 -0.0881
  355MOL0     C48886  -0.080   8.618   2.922 -0.2279  0.4762 -0.5356
  355MOL0     C48887  -0.147   8.550   2.819  0.0987  0.3008  0.4354
  355MOL0     O48888  -0.257   8.480   2.860  0.0118 -0.1097  0.2027
  355MOL0     C48889  -0.314   8.396   2.760  0.4745  0.1201  0.3432
  355MOL0     C48890  -0.222   8.280   2.731 -0.1425  0.1540 -0.3384
  355MOL0     C48891  -0.247   8.176   2.844 -0.5249  0.4125 -0.2329
  355MOL0     C48892  -0.121   8.074   2.859 -0.0865 -0.4869 -0.3033
  355MOL0     C48893  -0.076   8.021   2.725  0.5033  0.6708 -0.2157
  355MOL0     C48894  -0.179   7.927   2.651  0.6437  0.2012  0.7727
  355MOL0     C48895  -0.127   7.906   2.505  0.4655 -0.1230  0.5680
  355MOL0     C48896  -0.219   7.810   2.433 -0.2738  0.0807 -0.0547
  355MOL0    Cl48897  -0.177   7.815   2.250  0.2688  0.0847  0.5793
  355MOL0     C48898  -0.092   8.566   2.692  0.6566 -0.0028 -0.0245
  355MOL0     C48899   0.023   8.635   2.670  0.8056  0.8058  0.0284
  355MOL0     O48900   0.041   8.957   2.694  0.1603 -0.0238 -0.3309
  355MOL0     C48901   0.246   9.124   2.589 -0.1072  0.3227  0.4350
  355MOL0     C48902   0.337   9.210   2.530  0.7502  0.6015  0.1243
  355MOL0     N48903   0.984   9.276   2.088  0.8103  0.3982 -0.4330
  355MOL0     N48904   1.087   9.199   2.083 -0.8712  0.0591  0.7168
  355MOL0     C48905   1.638   8.723   1.645 -1.9431  0.0428 -0.5244
  355MOL0     C48906   1.643   8.662   1.529 -0.0019  0.7327  0.0147
  355MOL0     C48907   1.768   8.372   1.186  0.3060 -0.2762  0.5119
  355MOL0     C48908   1.646   8.401   1.110 -0.2573  0.6686  1.1487
  355MOL0     C48909   1.628   8.358   0.985 -1.1348 -0.1135  0.1113
  355MOL0     C48910   1.729   8.291   0.924 -0.2457  0.2107 -0.5878
  355MOL0     O48911   1.700   8.253   0.794 -0.9994 -0.1669  0.6931
  355MOL0     C48912   1.805   8.219   0.700  0.4824 -0.1892  0.1618
  355MOL0     C48913   1.766   8.204   0.560 -0.2039 -0.4990  1.0331
  355MOL0     C48914   1.895   8.193   0.471 -0.2511 -0.1048 -0.5612
  355MOL0     C48915   1.993   8.085   0.510 -0.1046  0.5539  0.5580
  355MOL0     C48916   1.942   7.947   0.510 -0.6663 -0.0299  0.1447
  355MOL0     C48917   1.902   7.832   0.517  0.6331  0.3339  0.0610
  355MOL0     C48918   1.850   8.262   0.987  0.4833 -0.0630  0.4934
  355MOL0     C48919   1.876   8.308   1.117 -0.3806  1.1691 -0.1098
  355MOL0     C48920   2.011   8.275   1.180 -0.0062 -0.2878  0.2701
  355MOL0     H48921   1.675   8.337   1.627 -1.5059  0.0014 -2.7141
  355MOL0     H48922   1.699   8.459   1.850 -1.3804 -1.3488  0.1701
  355MOL0     H48923   1.518   8.836   1.898  1.0219  4.0658 -3.9343
  355MOL0     H48924   1.676   8.903   1.861 -0.1490  0.7478  3.3444
  355MOL0     H48925   1.604   8.768   2.123 -1.0536 -0.7440 -1.7061
  355MOL0     H48926   1.762   8.839   2.092  0.6993  1.0633 -2.2118
  355MOL0     H48927   1.663   9.076   2.082 -0.2560 -0.1739  0.4341
  355MOL0     H48928   1.506   8.979   2.074  0.0100 -1.3626  1.0527
  355MOL0     H48929   1.696   8.991   2.305 -0.6371 -2.7988  0.5709
  355MOL0     H48930   1.579   9.115   2.282  1.2889 -0.3249  1.6574
  355MOL0     H48931   1.468   8.983   2.431 -1.0392 -0.4137 -0.8795
  355MOL0     H48932   1.543   8.829   2.349 -0.8526 -0.7071 -0.9019
  355MOL0     H48933   1.358   8.825   2.200 -2.5142 -3.1175  1.9274
  355MOL0     H48934   1.284   8.848   2.358 -1.2541  2.8173  0.9367
  355MOL0     H48935   1.325   9.089   2.182  0.1391  0.3432 -1.0712
  355MOL0     H48936   1.250   9.076   2.336  2.5174  1.8622 -0.9377
  355MOL0     H48937   1.154   8.925   2.090  1.6159  0.4089 -0.0750
  355MOL0     H48938   1.085   8.910   2.249  1.9786 -0.4690  1.1401
  355MOL0     H48939   0.876   9.059   2.298 -0.3848 -0.9371 -1.6713
  355MOL0     H48940   0.690   9.226   2.251 -4.4538  3.1020 -0.7405
  355MOL0     H48941   0.695   9.351   2.129 -0.3979 -1.1497 -0.0911
  355MOL0     H48942   0.832   9.338   2.395 -2.3278 -1.9070 -0.1258
  355MOL0     H48943   0.846   9.476   2.285  2.3554 -2.9335 -3.0464
  355MOL0     H48944   0.688   9.513   2.483 -1.7690  0.0475  1.3418
  355MOL0     H48945   0.618   9.545   2.323  1.6227 -1.5941 -2.8795
  355MOL0     H48946   0.455   9.433   2.459 -0.3784  3.8263 -5.1228
  355MOL0     H48947   0.508   9.327   2.334  2.1370 -0.1736 -0.4960
  355MOL0     H48948   0.591   9.106   2.729 -1.5713  1.6682  2.1890
  355MOL0     H48949   0.466   8.814   2.789 -0.8550  0.3949 -1.4227
  355MOL0     H48950   0.368   8.914   2.909  0.2505  1.4264 -0.4375
  355MOL0     H48951   0.538   8.961   2.876  2.6464  0.7491 -3.7459
  355MOL0     H48952   0.077   8.748   2.987  1.1578  2.0254 -1.5817
  355MOL0     H48953  -0.130   8.620   3.019 -1.4148  0.2976 -1.1191
  355MOL0     H48954  -0.419   8.370   2.782 -0.4151  0.1412 -3.2312
  355MOL0     H48955  -0.333   8.456   2.671 -1.7469 -2.9881 -1.4841
  355MOL0     H48956  -0.244   8.244   2.630 -0.8872 -2.8598  0.7888
  355MOL0     H48957  -0.119   8.313   2.724 -0.3095  0.3334 -3.2379
  355MOL0     H48958  -0.329   8.113   2.810 -0.7343  1.3296 -1.5224
  355MOL0     H48959  -0.274   8.222   2.939 -0.1614  1.7640 -0.7570
  355MOL0     H48960  -0.151   7.994   2.927  1.3745 -0.0216  0.9555
  355MOL0     H48961  -0.038   8.121   2.912  1.2346  0.3992 -2.9668
  355MOL0     H48962  -0.050   8.098   2.651 -3.6985 -0.6872 -3.4951
  355MOL0     H48963   0.011   7.960   2.750  0.9574  0.9537 -1.0362
  355MOL0     H48964  -0.278   7.972   2.639  1.0616  0.5630 -2.3593
  355MOL0     H48965  -0.184   7.831   2.703 -1.3581  0.1104  0.4989
  355MOL0     H48966  -0.031   7.852   2.505 -0.4187 -1.9107 -2.0543
  355MOL0     H48967  -0.113   7.995   2.443  0.6054 -2.4534 -3.0906
  355MOL0     H48968  -0.326   7.829   2.447 -1.0305 -2.2082 -2.0666
  355MOL0     H48969  -0.200   7.708   2.468 -4.4571 -0.6884  0.4324
  355MOL0     H48970  -0.139   8.544   2.596  0.4263  2.1575 -0.4501
  355MOL0     H48971   0.045   8.648   2.565 -0.7549 -1.2647 -0.6286
  355MOL0     H48972   0.143   9.139   2.557 -0.1736  1.5422  1.1979
  355MOL0     H48973   0.291   9.284   2.465 -1.3776  0.9159  1.8849
  355MOL0     H48974   1.648   8.831   1.639  2.4814 -0.1175  0.3394
  355MOL0     H48975   1.627   8.717   1.437 -1.8522  0.3363  0.0438
  355MOL0     H48976   1.563   8.455   1.155  0.2197  2.0164  0.4683
  355MOL0     H48977   1.532   8.377   0.937 -1.1519 -1.0689 -0.2523
  355MOL0     H48978   1.874   8.303   0.712 -0.3011  0.8795 -2.2047
  355MOL0     H48979   1.848   8.130   0.749 -2.6906 -0.5688  2.5741
  355MOL0     H48980   1.706   8.291   0.532  2.2958  1.0667  0.1898
  355MOL0     H48981   1.707   8.113   0.548  1.0372 -1.1531 -0.4287
  355MOL0     H48982   1.867   8.190   0.365 -0.5717  2.3531 -0.5987
  355MOL0     H48983   1.944   8.290   0.482  1.2379 -0.9498  0.7227
  355MOL0     H48984   2.047   8.109   0.602  0.4758 -0.6358  0.5497
  355MOL0     H48985   2.069   8.097   0.433 -2.6335  2.5684 -1.8272
  355MOL0     H48986   1.862   7.732   0.522 -2.6003  1.5329  1.2659
  355MOL0     H48987   1.937   8.216   0.940  3.3737  3.3427  2.1014
  355MOL0     H48988   2.073   8.215   1.114 -0.4659 -1.1563  0.6145
  355MOL0     H48989   2.068   8.366   1.201  3.4160 -1.9704 -1.0595
  355MOL0     H48990   2.007   8.222   1.276  1.6821  2.2834  1.9041
  356MOL0     O48991   9.447   8.707   4.515 -0.2006 -0.0855 -0.6850
  356MOL0     C48992   9.467   8.583   4.515  0.4683  0.3404 -0.6775
  356MOL0     O48993   9.400   8.495   4.592  0.2981  0.2254 -0.2441
  356MOL0     C48994   9.365   8.510   4.726  0.4307  0.5086  0.6611
  356MOL0     C48995   9.421   8.597   4.817 -0.3339 -0.0568 -0.3480
  356MOL0     C48996   9.356   8.617   4.941  0.7546  0.0755 -0.4133
  356MOL0     C48997   9.257   8.535   4.985  0.4329 -0.1296  0.4399
  356MOL0     O48998   9.181   8.531   5.104  0.2839 -0.1497  0.4094
  356MOL0     C48999   9.239   8.602   5.214 -0.1307  0.1657  0.5731
  356MOL0     C49000   9.161   8.550   5.340  0.4888  0.7653  0.1624
  356MOL0     C49001   9.196   8.405   5.359 -0.8158 -0.0250  0.4068
  356MOL0     C49002   9.165   8.347   5.501  0.4812 -0.7986  0.2881
  356MOL0     C49003   9.174   8.192   5.501  0.3676 -0.6426  0.2678
  356MOL0     C49004   9.116   8.142   5.630  0.4501 -0.3429  0.1810
  356MOL0     C49005   9.077   7.999   5.600  1.0428  0.5398 -0.3365
  356MOL0     C49006   9.107   7.904   5.719 -0.4491  0.3635  0.5009
  356MOL0     N49007   9.027   7.935   5.837  0.6567 -0.8843  0.4044
  356MOL0     C49008   9.080   7.996   5.954  0.6494  0.3591  1.4206
  356MOL0     C49009   8.974   8.006   6.037 -0.3785  0.6606  0.1612
  356MOL0     C49010   8.979   8.061   6.170  0.1651 -0.4863 -0.3305
  356MOL0     C49011   8.875   8.168   6.209 -0.5525  1.0080  0.7262
  356MOL0     C49012   8.840   8.253   6.082 -0.3802  0.1231 -0.6362
  356MOL0     C49013   8.958   8.331   6.010 -0.2828  0.6069  0.1461
  356MOL0     O49014   8.914   8.461   5.945  0.0424  1.3252 -0.0247
  356MOL0     C49015   8.880   8.566   6.026  0.0641 -0.5604 -0.8173
  356MOL0     C49016   8.844   8.690   5.961 -0.8148 -0.3398 -1.1132
  356MOL0     C49017   8.814   8.809   6.036  0.0023  0.1530 -1.0652
  356MOL0     C49018   8.762   8.924   5.954  0.6974  0.1536  0.3106
  356MOL0     C49019   8.815   8.802   6.180 -0.1052 -0.1429 -1.0772
  356MOL0     C49020   8.791   8.914   6.257  0.1710  0.1843  0.0551
  356MOL0     O49021   8.838   8.896   6.385  0.2314 -0.0427  0.7336
  356MOL0     C49022   8.875   9.004   6.465 -0.6070 -0.1234 -0.4269
  356MOL0     C49023   8.930   9.131   6.430  0.0970  0.6636 -0.9569
  356MOL0     C49024   8.966   9.223   6.528 -0.3381 -1.0053  0.8520
  356MOL0     C49025   8.970   9.185   6.661 -0.5613 -0.0637  0.0693
  356MOL0     O49026   9.006   9.263   6.772 -0.7994 -0.0851  0.4269
  356MOL0     C49027   9.032   9.405   6.755  0.2066  0.3328  0.3878
  356MOL0     C49028   9.030   9.460   6.888  0.3042 -0.1452 -0.6610
  356MOL0     C49029   8.891   9.484   6.937 -0.1418  0.3019  0.1849
  356MOL0     C49030   8.862   9.603   7.025 -0.4505  0.1363 -0.6788
  356MOL0     C49031   8.728   9.588   7.104  0.2601  0.0730  0.3158
  356MOL0     C49032   8.712   9.704   7.195  0.6303  0.3466 -0.1890
  356MOL0     C49033   8.646   9.829   7.130 -0.5587 -0.5733 -0.1059
  356MOL0     C49034   8.558   9.894   7.243  0.1293 -0.5000 -0.7758
  356MOL0    Cl49035   8.662   9.955   7.374 -0.0934  0.4745 -0.1512
  356MOL0     C49036   8.928   9.059   6.696 -0.1983  0.8428 -0.0196
  356MOL0     C49037   8.879   8.969   6.602  0.7465  0.0757 -0.3685
  356MOL0     O49038   8.760   9.019   6.208  0.0347  0.1400  0.3164
  356MOL0     C49039   8.856   8.680   6.237 -0.4937 -1.1442 -0.7945
  356MOL0     C49040   8.883   8.566   6.165 -1.2423 -0.3335 -0.9060
  356MOL0     N49041   8.867   7.950   5.976 -0.3688  1.4672  0.2414
  356MOL0     N49042   8.900   7.910   5.863 -0.2609 -0.0339  0.0865
  356MOL0     C49043   9.208   8.437   4.896  0.2198  0.8770  0.1946
  356MOL0     C49044   9.256   8.426   4.766 -0.3881  0.5320 -0.6004
  356MOL0     C49045   9.568   8.534   4.419  0.5634 -0.6724  0.6360
  356MOL0     C49046   9.611   8.619   4.310 -0.4939 -0.6604 -0.1525
  356MOL0     C49047   9.709   8.575   4.218 -0.4841 -0.4214  0.2138
  356MOL0     C49048   9.740   8.441   4.214 -0.2849  0.1315  0.0714
  356MOL0     O49049   9.807   8.393   4.110 -0.2115  0.3941  0.4860
  356MOL0     C49050   9.738   8.357   3.986  0.5065  0.2561  0.1900
  356MOL0     C49051   9.747   8.210   3.939 -0.1627 -0.0814 -0.2731
  356MOL0     C49052   9.639   8.178   3.829  0.6283 -0.6075 -0.2631
  356MOL0     C49053   9.623   8.031   3.777 -0.4988 -0.2457  0.7226
  356MOL0     C49054   9.513   8.014   3.683 -0.2697 -0.4401  0.4368
  356MOL0     C49055   9.408   8.007   3.626  0.7466 -0.4690 -0.0821
  356MOL0     C49056   9.717   8.368   4.320  0.0989  0.2415  0.2721
  356MOL0     C49057   9.637   8.407   4.427  0.7295  0.4163 -0.8696
  356MOL0     C49058   9.628   8.302   4.528 -0.0320 -0.3363 -0.4547
  356MOL0     H49059   9.503   8.664   4.790 -0.1415  0.6776  1.8655
  356MOL0     H49060   9.402   8.693   5.004  1.6621  1.7716 -2.9837
  356MOL0     H49061   9.234   8.709   5.190  1.6272 -0.6039 -4.2560
  356MOL0     H49062   9.342   8.569   5.225 -0.2880 -0.6168 -0.2506
  356MOL0     H49063   9.188   8.614   5.424  2.5474 -0.4433  0.4698
  356MOL0     H49064   9.054   8.554   5.314  0.8389  1.4960 -1.2463
  356MOL0     H49065   9.133   8.339   5.300  1.1456 -3.1417  1.5568
  356MOL0     H49066   9.302   8.385   5.342 -0.3666  0.8919  1.8989
  356MOL0     H49067   9.223   8.390   5.584  0.1035 -1.0857  0.7018
  356MOL0     H49068   9.068   8.387   5.529  0.9053  2.1164 -1.9091
  356MOL0     H49069   9.280   8.169   5.491  0.2993 -0.3109 -1.4388
  356MOL0     H49070   9.119   8.154   5.414 -0.6229  0.8712  0.1954
  356MOL0     H49071   9.192   8.145   5.708  0.4431  0.0014  0.1751
  356MOL0     H49072   9.035   8.212   5.650  1.2014  0.7846 -0.5993
  356MOL0     H49073   9.134   7.962   5.514  1.4895  1.2786 -0.3730
  356MOL0     H49074   8.974   7.993   5.563 -0.2820 -0.3454  3.1311
  356MOL0     H49075   9.088   7.798   5.696  0.6222  0.5815 -1.5942
  356MOL0     H49076   9.214   7.914   5.737  0.4422 -3.5959 -1.3030
  356MOL0     H49077   9.182   8.027   5.970  0.5199  1.7590 -0.2165
  356MOL0     H49078   9.075   8.113   6.180 -0.3303  0.2088  0.9097
  356MOL0     H49079   8.975   7.983   6.247  1.0726 -2.0830 -1.8125
  356MOL0     H49080   8.781   8.116   6.234 -0.4142 -0.0014 -0.7367
  356MOL0     H49081   8.922   8.232   6.284  4.7938 -0.5344 -0.9252
  356MOL0     H49082   8.783   8.201   6.006 -1.3935  0.5610 -0.1963
  356MOL0     H49083   8.768   8.331   6.111 -1.2494 -0.6375 -0.7125
  356MOL0     H49084   9.038   8.355   6.081  1.7132 -3.0311 -0.5924
  356MOL0     H49085   9.023   8.267   5.950 -0.5063 -1.7333  2.2177
  356MOL0     H49086   8.839   8.691   5.853 -2.3484  1.5243 -1.0800
  356MOL0     H49087   8.824   9.012   5.974 -1.0018  1.8323 -1.3599
  356MOL0     H49088   8.667   8.957   5.996  1.3682  1.2048  1.0540
  356MOL0     H49089   8.761   8.904   5.846 -0.1356 -0.5361  0.4400
  356MOL0     H49090   8.941   9.163   6.327  0.8260  1.8464 -0.5232
  356MOL0     H49091   8.996   9.322   6.498  1.8308 -1.6447  0.6636
  356MOL0     H49092   9.122   9.410   6.693 -1.1811  0.9489 -1.6825
  356MOL0     H49093   8.958   9.444   6.685  2.3769  2.0497 -1.0559
  356MOL0     H49094   9.093   9.412   6.963 -0.1093 -0.5720 -0.5861
  356MOL0     H49095   9.071   9.562   6.884  0.5195 -0.1877  0.2611
  356MOL0     H49096   8.849   9.389   6.970 -0.4454 -0.9296 -3.3260
  356MOL0     H49097   8.827   9.507   6.851 -0.9543 -0.5875  0.5359
  356MOL0     H49098   8.853   9.696   6.967 -2.6165 -0.2431 -1.0569
  356MOL0     H49099   8.944   9.608   7.097 -1.8210 -0.3394  0.9728
  356MOL0     H49100   8.648   9.574   7.031 -0.1159 -1.3845  0.9636
  356MOL0     H49101   8.729   9.501   7.171 -5.6996 -0.8144 -0.1843
  356MOL0     H49102   8.806   9.733   7.243  0.6376 -1.4694  0.9700
  356MOL0     H49103   8.661   9.671   7.286  0.8076  1.9103  0.5101
  356MOL0     H49104   8.588   9.804   7.041 -0.4999 -0.7596 -0.0907
  356MOL0     H49105   8.717   9.906   7.099 -1.1099  0.6547  1.5326
  356MOL0     H49106   8.478   9.826   7.275 -0.6049  0.6951  0.0238
  356MOL0     H49107   8.507   9.981   7.201 -0.7741 -1.4961 -1.8026
  356MOL0     H49108   8.940   9.029   6.800 -0.7552 -1.7892 -0.6435
  356MOL0     H49109   8.858   8.867   6.633 -2.1183  0.6469 -0.1231
  356MOL0     H49110   8.856   8.668   6.345  0.9561  3.3843 -0.0542
  356MOL0     H49111   8.899   8.472   6.217 -0.9461 -1.0190 -2.1752
  356MOL0     H49112   9.116   8.388   4.925 -0.9747  2.2953 -1.0220
  356MOL0     H49113   9.215   8.357   4.692  0.4884  1.7859 -2.3184
  356MOL0     H49114   9.566   8.717   4.320  1.8203  0.2860  2.1693
  356MOL0     H49115   9.743   8.649   4.147 -0.2682 -1.8773 -1.2430
  356MOL0     H49116   9.636   8.393   4.004  1.4673  1.4089  4.8860
  356MOL0     H49117   9.776   8.408   3.897 -2.3239  1.9498 -0.1576
  356MOL0     H49118   9.725   8.140   4.019 -1.7850 -0.5517 -1.1017
  356MOL0     H49119   9.845   8.187   3.896 -0.8186 -3.2352 -0.3090
  356MOL0     H49120   9.543   8.227   3.848  1.6029  0.6117  1.8166
  356MOL0     H49121   9.671   8.233   3.741  3.3352 -2.5707 -0.6400
  356MOL0     H49122   9.598   7.964   3.859 -1.6192 -0.4438  0.2348
  356MOL0     H49123   9.714   7.998   3.725 -0.7796 -0.2675  0.2363
  356MOL0     H49124   9.318   8.001   3.568  0.1595 -0.6427  0.8208
  356MOL0     H49125   9.744   8.263   4.316 -0.2632  0.0817  1.5444
  356MOL0     H49126   9.527   8.266   4.551  0.5896 -2.3654 -0.7358
  356MOL0     H49127   9.690   8.215   4.505 -1.4166 -1.1800 -1.1116
  356MOL0     H49128   9.661   8.347   4.622  0.3070  1.0477 -1.2245
  357MOL0     O49129   5.555   3.991   2.218  0.3199 -0.2257  0.0552
  357MOL0     C49130   5.584   4.014   2.101 -0.3477 -0.9701  0.4638
  357MOL0     O49131   5.709   3.992   2.059 -0.5444 -0.8331  0.4034
  357MOL0     C49132   5.809   3.983   2.154  0.9033  0.0295  0.5204
  357MOL0     C49133   5.866   4.086   2.231  1.3753  0.1520 -1.2269
  357MOL0     C49134   5.967   4.067   2.318 -1.1275  0.1463  0.8336
  357MOL0     C49135   6.008   3.942   2.334 -0.2173 -0.4900 -0.8526
  357MOL0     O49136   6.120   3.917   2.407  0.0616 -0.1100 -0.8810
  357MOL0     C49137   6.100   3.817   2.507  0.0918 -0.1398  0.4535
  357MOL0     C49138   6.023   3.879   2.628 -0.6916 -0.8010  0.6248
  357MOL0     C49139   6.120   3.981   2.690 -0.1447  0.8039  0.7823
  357MOL0     C49140   6.028   4.099   2.735 -0.8872  1.4877  0.1456
  357MOL0     C49141   6.103   4.207   2.806  1.1014  0.2063 -0.0837
  357MOL0     C49142   6.014   4.291   2.910 -0.5537  0.5577  0.8851
  357MOL0     C49143   6.097   4.388   2.993  0.6076  0.2320 -0.2016
  357MOL0     C49144   6.021   4.442   3.115 -0.2738  0.1519 -0.5711
  357MOL0     N49145   5.894   4.509   3.072 -0.0532 -0.1327  0.1222
  357MOL0     C49146   5.776   4.447   3.059 -0.6493  0.2913  0.0042
  357MOL0     C49147   5.701   4.562   3.029  0.2453  0.3029 -0.1193
  357MOL0     C49148   5.549   4.553   3.033  0.1703  0.9556  0.0094
  357MOL0     C49149   5.500   4.562   2.883  0.2553 -0.1372  0.1598
  357MOL0     C49150   5.356   4.609   2.866  0.4100 -0.2245  0.5624
  357MOL0     C49151   5.316   4.732   2.947  0.0797  0.2053 -0.2307
  357MOL0     O49152   5.409   4.835   2.929 -0.1999  0.0975  0.4193
  357MOL0     C49153   5.417   4.934   3.026 -0.3593  0.6113 -0.4798
  357MOL0     C49154   5.308   5.008   3.072 -0.0001 -0.6337  1.0303
  357MOL0     C49155   5.334   5.125   3.152  0.1095  0.0462 -0.2697
  357MOL0     C49156   5.208   5.209   3.183 -0.1763 -0.8253 -0.0397
  357MOL0     C49157   5.460   5.159   3.192 -0.6157  0.1369 -0.0402
  357MOL0     C49158   5.494   5.269   3.288  0.1606 -0.4261  0.5080
  357MOL0     O49159   5.609   5.249   3.355 -0.2967 -0.4012 -0.8692
  357MOL0     C49160   5.655   5.344   3.443  0.3898 -0.5423 -0.9235
  357MOL0     C49161   5.591   5.393   3.552  1.4753 -0.5071 -0.5689
  357MOL0     C49162   5.652   5.497   3.629 -1.1228 -0.3050  0.8530
  357MOL0     C49163   5.786   5.535   3.607 -0.5689 -0.1303  0.5667
  357MOL0     O49164   5.858   5.633   3.674 -0.4010  0.9657  0.2673
  357MOL0     C49165   5.790   5.692   3.781 -0.4586  0.5294 -0.1670
  357MOL0     C49166   5.884   5.792   3.848  0.0190 -0.2995  0.3006
  357MOL0     C49167   5.980   5.716   3.931 -0.5095 -0.3039  1.4401
  357MOL0     C49168   5.929   5.642   4.055  0.6168  0.6681 -0.6781
  357MOL0     C49169   6.031   5.566   4.148 -0.0841  0.2707  0.4901
  357MOL0     C49170   5.969   5.505   4.275 -0.3288  0.0646  0.5387
  357MOL0     C49171   6.086   5.439   4.358  0.4301 -0.5924  0.6746
  357MOL0     C49172   6.034   5.351   4.475  0.4159 -0.3289  0.3597
  357MOL0    Cl49173   6.160   5.288   4.573 -0.7251  0.0162  0.0462
  357MOL0     C49174   5.859   5.483   3.501  0.9389  0.1612  1.1139
  357MOL0     C49175   5.793   5.390   3.415 -0.0217  0.8308  0.5945
  357MOL0     O49176   5.421   5.372   3.294 -0.4163  0.8957 -1.0006
  357MOL0     C49177   5.565   5.076   3.146 -0.3403  0.7825 -1.0437
  357MOL0     C49178   5.547   4.975   3.058  0.0672 -0.2175 -0.2442
  357MOL0     N49179   5.767   4.685   3.032  0.8500  0.2396  0.4294
  357MOL0     N49180   5.888   4.644   3.043  0.0486 -0.0974 -0.4172
  357MOL0     C49181   5.960   3.831   2.261 -0.0719  0.5330 -0.1841
  357MOL0     C49182   5.848   3.852   2.178 -0.6683  0.4861  0.1805
  357MOL0     C49183   5.496   4.099   2.014  0.4913 -1.7062  0.4510
  357MOL0     C49184   5.537   4.150   1.890 -0.0775 -0.4203 -0.3021
  357MOL0     C49185   5.454   4.224   1.803  0.1422 -0.2191 -0.0819
  357MOL0     C49186   5.320   4.248   1.839  0.2776  0.7360 -0.0583
  357MOL0     O49187   5.238   4.310   1.755  0.0068 -0.6658  0.1762
  357MOL0     C49188   5.151   4.405   1.813 -0.2775 -0.0725  0.1228
  357MOL0     C49189   5.066   4.441   1.684  0.2505  0.0451 -0.8103
  357MOL0     C49190   4.937   4.518   1.726 -0.1398  0.4681 -0.0379
  357MOL0     C49191   4.820   4.425   1.770 -0.2393 -0.4092  0.4526
  357MOL0     C49192   4.692   4.485   1.783 -0.6396  0.6686  0.1046
  357MOL0     C49193   4.585   4.530   1.779 -0.2679  0.9451 -0.3268
  357MOL0     C49194   5.279   4.202   1.961  0.4552  0.6158 -0.2934
  357MOL0     C49195   5.362   4.134   2.046  0.3550 -0.0765  0.3741
  357MOL0     C49196   5.305   4.131   2.185 -0.6393 -0.0931  0.5645
  357MOL0     H49197   5.816   4.182   2.218 -1.9881 -1.5336 -1.9619
  357MOL0     H49198   5.995   4.144   2.389  0.4612  0.3052  0.0658
  357MOL0     H49199   6.197   3.773   2.531  0.0156 -3.2355 -3.7539
  357MOL0     H49200   6.025   3.740   2.485 -0.3760 -1.6067  5.8621
  357MOL0     H49201   5.940   3.928   2.577 -1.0553 -1.6959  0.3451
  357MOL0     H49202   5.989   3.802   2.696 -0.3395 -0.1304  1.5808
  357MOL0     H49203   6.169   3.932   2.774 -0.0857  1.4874  1.1485
  357MOL0     H49204   6.187   4.034   2.622 -1.0005  3.9812  2.2102
  357MOL0     H49205   5.982   4.138   2.643 -2.3434 -3.4625 -1.5628
  357MOL0     H49206   5.946   4.064   2.799  0.6812 -0.2454  1.3047
  357MOL0     H49207   6.157   4.275   2.740 -1.6565 -0.0351 -2.8388
  357MOL0     H49208   6.179   4.155   2.866 -0.6345 -1.5811  0.6835
  357MOL0     H49209   5.923   4.331   2.866 -1.4997 -2.1574  0.1387
  357MOL0     H49210   5.971   4.234   2.993  0.8654  0.8465  1.8683
  357MOL0     H49211   6.134   4.476   2.939 -0.4686 -0.1513 -1.6313
  357MOL0     H49212   6.191   4.339   3.022 -0.0731 -0.8598  0.2391
  357MOL0     H49213   6.005   4.362   3.188  4.3764 -0.0967  0.4888
  357MOL0     H49214   6.083   4.509   3.174 -0.4384 -2.2672  2.6118
  357MOL0     H49215   5.748   4.345   3.083  1.2752 -0.0000  1.2139
  357MOL0     H49216   5.518   4.636   3.097  1.0696  0.2494  1.4203
  357MOL0     H49217   5.508   4.461   3.076 -1.7467  0.6550 -2.3042
  357MOL0     H49218   5.562   4.626   2.819  0.4185 -2.2853 -1.9538
  357MOL0     H49219   5.525   4.473   2.826  0.9680 -1.5290  2.4924
  357MOL0     H49220   5.348   4.645   2.763 -2.4201  1.0300  1.1312
  357MOL0     H49221   5.286   4.525   2.875  0.3599 -0.4626 -1.5275
  357MOL0     H49222   5.211   4.750   2.922 -0.0924 -0.1277  0.2357
  357MOL0     H49223   5.314   4.704   3.052  0.7089  5.2937  1.3978
  357MOL0     H49224   5.209   4.990   3.032  1.1328 -0.8588 -1.9198
  357MOL0     H49225   5.116   5.165   3.144 -0.9254  0.6321  0.0236
  357MOL0     H49226   5.218   5.314   3.154  1.4170 -1.3556 -1.6005
  357MOL0     H49227   5.180   5.205   3.289  4.7108 -0.8763  1.5103
  357MOL0     H49228   5.491   5.371   3.588  1.1422  0.7188 -0.6839
  357MOL0     H49229   5.592   5.543   3.707 -2.0798 -1.1044  0.6184
  357MOL0     H49230   5.713   5.756   3.738 -2.6191 -1.8720 -0.0514
  357MOL0     H49231   5.747   5.622   3.853  2.0520 -1.7243 -0.7167
  357MOL0     H49232   5.927   5.858   3.772 -1.3693  2.7946  2.0170
  357MOL0     H49233   5.816   5.856   3.905 -0.2092 -1.1474  1.0046
  357MOL0     H49234   6.052   5.794   3.958 -1.7281  0.6276  2.1115
  357MOL0     H49235   6.031   5.647   3.863 -3.2793  1.6413 -3.0757
  357MOL0     H49236   5.860   5.568   4.012  0.4277  0.2071  0.3720
  357MOL0     H49237   5.871   5.713   4.114  0.0595 -1.0677  0.9986
  357MOL0     H49238   6.068   5.492   4.077 -2.8009 -0.7396 -0.0131
  357MOL0     H49239   6.112   5.631   4.180  1.1172  0.0997 -2.0211
  357MOL0     H49240   5.892   5.431   4.251  0.0524 -0.0266 -0.4353
  357MOL0     H49241   5.918   5.584   4.332  1.0091 -0.4167  2.4897
  357MOL0     H49242   6.163   5.503   4.401  3.0511 -0.7108 -3.3118
  357MOL0     H49243   6.125   5.367   4.285 -0.3887  0.7366 -1.1637
  357MOL0     H49244   5.985   5.261   4.438  1.3309 -2.0999  3.1977
  357MOL0     H49245   5.961   5.404   4.536  1.2427  1.8711 -0.4197
  357MOL0     H49246   5.961   5.515   3.483  0.3854  1.7811  0.5911
  357MOL0     H49247   5.847   5.348   3.331  1.5539  0.7661  1.6203
  357MOL0     H49248   5.667   5.104   3.170 -0.3162  1.9598 -2.3694
  357MOL0     H49249   5.634   4.920   3.021  0.2432 -1.1225  1.4263
  357MOL0     H49250   6.006   3.735   2.284 -1.2676  0.5049  2.5316
  357MOL0     H49251   5.808   3.764   2.129  5.4107 -1.1506 -2.9915
  357MOL0     H49252   5.639   4.137   1.853 -0.6791 -1.2154 -1.7573
  357MOL0     H49253   5.486   4.255   1.704  0.0716  1.1447  0.3116
  357MOL0     H49254   5.071   4.375   1.881 -1.0072  2.0577  0.2906
  357MOL0     H49255   5.208   4.485   1.861 -0.2689 -2.4449  4.6819
  357MOL0     H49256   5.037   4.355   1.623  1.8410 -0.4678 -0.8949
  357MOL0     H49257   5.136   4.499   1.624  1.2452 -0.9392 -0.6266
  357MOL0     H49258   4.962   4.585   1.808 -2.4880  0.0620  1.0984
  357MOL0     H49259   4.899   4.571   1.637 -5.7779 -1.0080  1.0604
  357MOL0     H49260   4.843   4.380   1.867 -0.3898 -1.0180  0.2132
  357MOL0     H49261   4.817   4.355   1.686  4.4305 -0.5279  0.1212
  357MOL0     H49262   4.485   4.564   1.760 -1.9674 -2.9741  0.5708
  357MOL0     H49263   5.186   4.231   2.009  0.5882  1.0633 -0.3057
  357MOL0     H49264   5.278   4.235   2.204  1.0952  0.2511  1.3421
  357MOL0     H49265   5.229   4.061   2.220  3.2500 -4.3217  1.5372
  357MOL0     H49266   5.382   4.128   2.263 -0.0043  3.0880  0.2155
  358MOL0     O49267   2.674   4.170   0.507  0.7715  0.1907 -0.4699
  358MOL0     C49268   2.770   4.135   0.576 -0.9659  0.3261 -0.4715
  358MOL0     O49269   2.898   4.179   0.557 -0.9828 -0.6992 -0.1338
  358MOL0     C49270   2.922   4.293   0.480  0.6146  0.3424 -0.1650
  358MOL0     C49271   3.033   4.305   0.391  0.4397  0.7338  0.5313
  358MOL0     C49272   3.069   4.417   0.331 -0.5359  0.1979 -0.7605
  358MOL0     C49273   2.983   4.533   0.320 -0.8988  1.0452  0.0911
  358MOL0     O49274   3.052   4.643   0.268 -0.0962  0.5378 -0.2595
  358MOL0     C49275   2.984   4.764   0.283  0.5066 -0.7231 -0.0589
  358MOL0     C49276   3.062   4.881   0.250  0.7327 -0.3335 -0.0927
  358MOL0     C49277   3.116   4.868   0.105 -0.3815 -0.9301 -0.3511
  358MOL0     C49278   3.193   4.988   0.058 -0.9259 -1.0544 -0.2736
  358MOL0     C49279   3.238   4.984  -0.087 -0.5145  0.5564 -0.5294
  358MOL0     C49280   3.349   5.085  -0.137 -0.6886  1.1320 -1.0714
  358MOL0     C49281   3.490   5.042  -0.068 -0.4280  0.0638  0.6335
  358MOL0     C49282   3.563   4.941  -0.145 -0.5205 -0.5988 -0.3409
  358MOL0     N49283   3.616   4.996  -0.269  0.2628 -0.2700  0.4731
  358MOL0     C49284   3.718   5.085  -0.298 -0.0405  0.1744 -0.1793
  358MOL0     C49285   3.747   5.069  -0.424  0.1722  0.0883 -0.8740
  358MOL0     C49286   3.845   5.128  -0.513 -0.1103 -0.1312  0.0689
  358MOL0     C49287   3.778   5.252  -0.575  0.5272 -0.2969 -1.0503
  358MOL0     C49288   3.854   5.324  -0.685 -0.7486  0.2998  0.9651
  358MOL0     C49289   3.750   5.393  -0.787  0.5531 -0.6083 -0.1177
  358MOL0     O49290   3.684   5.484  -0.701  0.5093  0.2852 -0.0484
  358MOL0     C49291   3.692   5.616  -0.745  0.9612  0.4667 -1.1431
  358MOL0     C49292   3.804   5.684  -0.797 -0.7681 -0.2272 -0.4735
  358MOL0     C49293   3.802   5.816  -0.852 -0.1586 -0.5861  0.9906
  358MOL0     C49294   3.932   5.882  -0.903  0.3489  0.3406 -0.2919
  358MOL0     C49295   3.674   5.885  -0.843  0.4658 -0.2691 -0.1506
  358MOL0     C49296   3.666   6.034  -0.873  0.7732  0.1929  0.6598
  358MOL0     O49297   3.757   6.112  -0.808  0.1328 -0.1122 -0.9767
  358MOL0     C49298   3.744   6.251  -0.801  0.5927 -0.2494  1.4963
  358MOL0     C49299   3.723   6.325  -0.687 -0.8278  0.2738 -0.6155
  358MOL0     C49300   3.695   6.464  -0.680  0.1132  1.2890  0.4163
  358MOL0     C49301   3.699   6.535  -0.801 -1.0306 -0.3324 -0.5938
  358MOL0     O49302   3.675   6.669  -0.799  0.1385  0.4479 -0.6685
  358MOL0     C49303   3.719   6.749  -0.914  0.9491  0.4317 -0.5171
  358MOL0     C49304   3.686   6.897  -0.870 -0.5761 -0.5850 -0.1313
  358MOL0     C49305   3.721   7.001  -0.977  0.0877 -0.2833 -0.8639
  358MOL0     C49306   3.700   7.144  -0.922  0.1939  0.5403  0.3831
  358MOL0     C49307   3.804   7.249  -0.953  0.5848  0.3721 -0.2188
  358MOL0     C49308   3.799   7.277  -1.107  0.6028  0.4380 -0.1734
  358MOL0     C49309   3.915   7.360  -1.159  0.2792 -0.3699  0.4275
  358MOL0     C49310   3.960   7.498  -1.102  0.3346 -0.4765 -0.4153
  358MOL0    Cl49311   4.087   7.567  -1.201  0.3079 -0.7824  0.1449
  358MOL0     C49312   3.726   6.463  -0.925 -0.9422 -0.4873  0.8164
  358MOL0     C49313   3.746   6.322  -0.925  0.3809  1.0987  0.2341
  358MOL0     O49314   3.577   6.072  -0.945 -0.0397 -0.3611 -0.4911
  358MOL0     C49315   3.566   5.813  -0.808  0.8761 -0.1818 -1.0097
  358MOL0     C49316   3.573   5.687  -0.752 -0.1706  0.0979  0.1007
  358MOL0     N49317   3.662   4.971  -0.485  0.3829 -0.4382  0.3038
  358MOL0     N49318   3.584   4.937  -0.390  0.3674 -0.1392  0.2236
  358MOL0     C49319   2.854   4.520   0.386  0.0330 -0.6601 -0.2497
  358MOL0     C49320   2.837   4.405   0.473  1.1209  0.2384  1.3741
  358MOL0     C49321   2.757   4.045   0.698  0.1432  1.4444  0.5280
  358MOL0     C49322   2.619   3.999   0.712 -0.4642 -0.3264 -0.0785
  358MOL0     C49323   2.584   3.924   0.823 -0.5885  0.3254  0.5210
  358MOL0     C49324   2.683   3.886   0.917 -0.3117 -1.2465 -0.0645
  358MOL0     O49325   2.656   3.814   1.029 -0.8396  0.2543 -0.6640
  358MOL0     C49326   2.521   3.810   1.082  0.3424  0.2667 -0.5778
  358MOL0     C49327   2.466   3.949   1.127  1.0849 -0.3735 -0.1076
  358MOL0     C49328   2.328   3.941   1.189 -0.0372  0.1197 -0.4432
  358MOL0     C49329   2.288   4.075   1.247 -0.0780 -0.0832 -0.3893
  358MOL0     C49330   2.149   4.081   1.300  0.4492 -0.6273  1.1309
  358MOL0     C49331   2.046   4.089   1.367  0.0311 -0.6197  0.6994
  358MOL0     C49332   2.815   3.913   0.898 -0.3747 -0.2845  0.8589
  358MOL0     C49333   2.849   3.994   0.789  0.1469  0.8090  0.1698
  358MOL0     C49334   2.999   4.035   0.783 -0.1455 -0.7803  0.3717
  358MOL0     H49335   3.090   4.214   0.378 -0.8542 -0.1232  0.6623
  358MOL0     H49336   3.170   4.414   0.291 -0.9030 -0.4214 -1.6689
  358MOL0     H49337   2.959   4.782   0.388 -3.9215  0.5672 -1.1408
  358MOL0     H49338   2.897   4.757   0.217  1.6683  1.6261 -2.0412
  358MOL0     H49339   3.001   4.971   0.249 -1.0356 -1.4421 -2.7283
  358MOL0     H49340   3.144   4.874   0.322 -0.2395  0.1467  1.1016
  358MOL0     H49341   3.166   4.775   0.075  1.3338  0.0017 -0.4998
  358MOL0     H49342   3.020   4.876   0.053 -0.4882 -0.6142 -0.1077
  358MOL0     H49343   3.140   5.083   0.062  3.5494  1.7568 -0.0566
  358MOL0     H49344   3.278   4.996   0.127 -0.8190  2.4425 -0.6565
  358MOL0     H49345   3.151   5.001  -0.150 -1.6034 -1.7794  0.2219
  358MOL0     H49346   3.281   4.884  -0.100  0.2468  0.9023 -0.7183
  358MOL0     H49347   3.352   5.070  -0.245  1.0862 -3.3747 -0.6167
  358MOL0     H49348   3.339   5.187  -0.098 -1.5182  1.1243 -1.2483
  358MOL0     H49349   3.481   5.018   0.038  0.1709  1.1476  0.9378
  358MOL0     H49350   3.549   5.134  -0.070 -2.0731  1.1537 -0.3849
  358MOL0     H49351   3.645   4.916  -0.078 -2.5282 -1.4737  1.9503
  358MOL0     H49352   3.491   4.861  -0.167 -2.4314  1.1025 -0.6278
  358MOL0     H49353   3.765   5.152  -0.228 -1.6473 -0.9523  2.1100
  358MOL0     H49354   3.882   5.063  -0.593  0.9713  2.7150 -1.9398
  358MOL0     H49355   3.934   5.168  -0.464  1.8679  1.0004 -3.9652
  358MOL0     H49356   3.682   5.218  -0.615 -0.1330  1.0595 -0.6862
  358MOL0     H49357   3.770   5.321  -0.490  1.9690 -2.1419  0.6459
  358MOL0     H49358   3.922   5.404  -0.653  1.8132 -1.0268 -0.8422
  358MOL0     H49359   3.912   5.250  -0.740 -1.2027  1.2070 -0.8051
  358MOL0     H49360   3.788   5.443  -0.877  3.2527 -1.7277  0.3356
  358MOL0     H49361   3.671   5.324  -0.820 -0.8834  0.5627  0.7399
  358MOL0     H49362   3.896   5.628  -0.782  0.3106  2.1632  3.0833
  358MOL0     H49363   3.949   5.975  -0.849  0.1407  2.1052 -3.0858
  358MOL0     H49364   3.925   5.919  -1.006 -0.6308  1.1199  0.0363
  358MOL0     H49365   4.020   5.818  -0.894 -0.8135 -0.9851  3.8571
  358MOL0     H49366   3.707   6.268  -0.595  2.3466 -1.6118 -1.0688
  358MOL0     H49367   3.643   6.501  -0.592 -1.0809  1.8796 -0.5120
  358MOL0     H49368   3.827   6.738  -0.930  1.4613  2.8998  0.6097
  358MOL0     H49369   3.658   6.715  -0.998  0.4318 -1.2740  0.5080
  358MOL0     H49370   3.583   6.915  -0.838 -0.6538  1.4877 -1.3211
  358MOL0     H49371   3.739   6.919  -0.777  1.0133  0.7109 -1.2867
  358MOL0     H49372   3.673   6.984  -1.074 -0.3866  1.9460 -1.0760
  358MOL0     H49373   3.829   6.986  -0.991  0.5474  0.6728  1.3108
  358MOL0     H49374   3.677   7.142  -0.815 -1.8179 -0.8266 -0.0285
  358MOL0     H49375   3.608   7.182  -0.967  2.7191  3.4931 -2.8946
  358MOL0     H49376   3.785   7.346  -0.908  0.4333 -0.3697  1.3799
  358MOL0     H49377   3.907   7.218  -0.931  0.0599 -0.2526  1.4679
  358MOL0     H49378   3.710   7.339  -1.119  2.1393  3.1156  1.4830
  358MOL0     H49379   3.797   7.181  -1.161  1.7756 -0.4972  1.3464
  358MOL0     H49380   3.873   7.391  -1.256 -3.1830 -2.1397  1.2191
  358MOL0     H49381   4.003   7.296  -1.176 -0.1718 -0.5508 -1.5121
  358MOL0     H49382   3.993   7.480  -1.000 -2.0924 -1.7067  0.2487
  358MOL0     H49383   3.887   7.579  -1.093  1.5825  0.4374  2.0875
  358MOL0     H49384   3.742   6.511  -1.021  0.1194  0.1668  1.3084
  358MOL0     H49385   3.772   6.268  -1.015 -0.7985  2.0473 -0.6965
  358MOL0     H49386   3.465   5.853  -0.814  1.4495  1.2674 -1.5597
  358MOL0     H49387   3.485   5.631  -0.722  0.8332 -0.7676  1.5402
  358MOL0     H49388   2.776   4.596   0.375  1.6511  0.9636 -1.0929
  358MOL0     H49389   2.775   4.400   0.562  3.2064  0.4758  2.9372
  358MOL0     H49390   2.541   4.016   0.638 -0.2720  1.5493  0.0969
  358MOL0     H49391   2.482   3.886   0.819 -0.3408 -0.2401 -0.6610
  358MOL0     H49392   2.445   3.765   1.018  0.2927  0.0492 -0.3682
  358MOL0     H49393   2.515   3.756   1.177 -3.9056  0.2026 -0.6627
  358MOL0     H49394   2.457   4.014   1.039 -3.8919 -1.7584 -0.9835
  358MOL0     H49395   2.530   3.990   1.205 -1.6044  0.8415  1.6241
  358MOL0     H49396   2.250   3.913   1.117 -2.7962  1.0002  2.0240
  358MOL0     H49397   2.333   3.862   1.265  2.5884 -1.5353 -2.1404
  358MOL0     H49398   2.299   4.153   1.172  2.7610 -0.2119 -0.2054
  358MOL0     H49399   2.353   4.091   1.333 -3.7796 -0.5865  2.7703
  358MOL0     H49400   1.956   4.106   1.423 -0.6117  0.8215 -0.6687
  358MOL0     H49401   2.895   3.881   0.964  0.4504 -2.7678 -1.2000
  358MOL0     H49402   3.035   4.133   0.818  2.2502 -1.5019  0.1301
  358MOL0     H49403   3.056   3.956   0.833  1.1845  1.1621  2.0876
  358MOL0     H49404   3.036   4.035   0.680 -0.6969  0.3886  0.1545
  359MOL0     O49405   3.532   2.415   0.651  0.2011  0.5144  0.3417
  359MOL0     C49406   3.622   2.404   0.573 -0.4348  0.5972  1.0307
  359MOL0     O49407   3.757   2.419   0.598 -0.4689  0.3936 -0.1791
  359MOL0     C49408   3.792   2.497   0.706 -0.3882  0.4375 -0.2501
  359MOL0     C49409   3.908   2.572   0.684 -0.8869  0.0339 -0.3361
  359MOL0     C49410   3.981   2.635   0.786  0.0588  0.1709 -0.9750
  359MOL0     C49411   3.935   2.622   0.917  0.3948  0.4091 -0.7909
  359MOL0     O49412   4.006   2.681   1.019  0.1071 -0.4018 -0.4841
  359MOL0     C49413   4.048   2.596   1.128  1.0452 -0.4764  0.2422
  359MOL0     C49414   4.206   2.566   1.129  1.1116  0.8079  1.0453
  359MOL0     C49415   4.294   2.688   1.088  0.7122  1.1990 -0.3223
  359MOL0     C49416   4.274   2.787   1.198  0.3883  0.5470  0.8225
  359MOL0     C49417   4.377   2.896   1.206 -0.0261 -1.1311 -0.7397
  359MOL0     C49418   4.510   2.833   1.258  0.2821  0.1527  0.1659
  359MOL0     C49419   4.612   2.954   1.273  0.2050  0.7535 -0.3213
  359MOL0     C49420   4.583   3.037   1.397 -0.2445  0.3100 -0.0700
  359MOL0     N49421   4.688   3.123   1.441 -0.1154 -0.0933  0.6133
  359MOL0     C49422   4.722   3.240   1.376  0.1783  0.3197 -0.8052
  359MOL0     C49423   4.832   3.283   1.438  0.1366 -0.7928  0.5904
  359MOL0     C49424   4.918   3.407   1.421 -0.0116 -0.1975 -0.2401
  359MOL0     C49425   4.867   3.519   1.334  1.0639 -0.8498 -0.6812
  359MOL0     C49426   4.885   3.653   1.405  0.6905  0.3343  0.9263
  359MOL0     C49427   4.807   3.675   1.544  0.1414 -0.5793  0.8231
  359MOL0     O49428   4.671   3.629   1.535 -0.2001 -0.6566  1.5062
  359MOL0     C49429   4.592   3.671   1.643 -0.3271 -0.1237  0.5004
  359MOL0     C49430   4.459   3.649   1.634  0.0602 -1.1244  0.0790
  359MOL0     C49431   4.366   3.690   1.732  0.1031  0.2721 -0.0960
  359MOL0     C49432   4.227   3.654   1.713 -0.6766 -0.3593  0.0427
  359MOL0     C49433   4.408   3.771   1.838 -0.4232 -1.0877  0.0847
  359MOL0     C49434   4.324   3.839   1.941 -0.2371  0.0331  0.2212
  359MOL0     O49435   4.396   3.909   2.039  0.0779 -0.2244  0.0386
  359MOL0     C49436   4.317   3.982   2.116 -1.0191  1.0068  0.5150
  359MOL0     C49437   4.310   4.118   2.104  0.4825 -0.9136  0.7456
  359MOL0     C49438   4.220   4.195   2.171 -1.0168  0.5342 -0.0762
  359MOL0     C49439   4.138   4.130   2.271  0.2429  0.0685 -1.2379
  359MOL0     O49440   4.071   4.207   2.364  0.1489  0.5170 -0.2843
  359MOL0     C49441   3.941   4.168   2.396  0.7815 -0.1140  0.5368
  359MOL0     C49442   3.861   4.291   2.438  1.8310  0.5724 -0.5365
  359MOL0     C49443   3.737   4.246   2.504  0.3143  0.2249 -0.1869
  359MOL0     C49444   3.640   4.369   2.530  0.2206 -0.2568  0.3566
  359MOL0     C49445   3.520   4.335   2.630  0.1287  0.1309 -0.0980
  359MOL0     C49446   3.425   4.448   2.651  0.7012  0.2102 -0.4167
  359MOL0     C49447   3.341   4.408   2.773 -0.8807 -0.4559  0.0247
  359MOL0     C49448   3.405   4.460   2.902  0.2829  0.0622  0.4759
  359MOL0    Cl49449   3.314   4.378   3.034 -0.1982  0.0588  0.1906
  359MOL0     C49450   4.157   3.991   2.292 -0.7431  0.2301  0.0331
  359MOL0     C49451   4.248   3.918   2.212 -0.5140  0.2076 -0.3992
  359MOL0     O49452   4.202   3.849   1.924  0.0414 -0.1352 -0.3654
  359MOL0     C49453   4.548   3.796   1.845  0.9022  0.7247 -0.2850
  359MOL0     C49454   4.640   3.728   1.758  0.9280 -0.8579  0.9668
  359MOL0     N49455   4.873   3.181   1.529  0.5211  0.2153  0.1025
  359MOL0     N49456   4.788   3.081   1.518 -0.4530 -0.1123  0.2748
  359MOL0     C49457   3.822   2.552   0.944 -0.1499  0.5575  0.3533
  359MOL0     C49458   3.752   2.492   0.839 -0.0565  0.4233 -0.0036
  359MOL0     C49459   3.582   2.338   0.447 -0.0072  0.1238 -0.2040
  359MOL0     C49460   3.467   2.259   0.448  0.6883  0.7159  0.1426
  359MOL0     C49461   3.427   2.192   0.333 -0.6072  0.5718  0.2732
  359MOL0     C49462   3.498   2.197   0.218  0.0078  0.3655 -0.5686
  359MOL0     O49463   3.460   2.151   0.089 -1.0559  0.8545 -0.1791
  359MOL0     C49464   3.339   2.080   0.090 -0.6543  0.0034 -0.2967
  359MOL0     C49465   3.359   1.944   0.151 -0.3015 -0.4082 -0.2393
  359MOL0     C49466   3.446   1.857   0.062  0.2382 -0.2810  0.1660
  359MOL0     C49467   3.465   1.710   0.113 -0.0808 -0.1121  0.1939
  359MOL0     C49468   3.553   1.698   0.230  0.1687  0.4288 -0.4847
  359MOL0     C49469   3.609   1.695   0.336 -0.3045  0.6294  0.3954
  359MOL0     C49470   3.619   2.267   0.216 -0.0053  0.9324 -0.3512
  359MOL0     C49471   3.666   2.342   0.328  0.7794 -0.5634  0.2175
  359MOL0     C49472   3.788   2.421   0.312 -0.2942  0.2498  0.6057
  359MOL0     H49473   3.943   2.576   0.581  0.7832  2.9516  0.2334
  359MOL0     H49474   4.068   2.693   0.757 -0.3343  0.7162 -1.0691
  359MOL0     H49475   3.989   2.504   1.127 -1.4820  1.0197  1.7352
  359MOL0     H49476   4.022   2.654   1.216 -0.8466  2.4391 -2.0374
  359MOL0     H49477   4.223   2.546   1.235 -1.7610  4.5288  2.4237
  359MOL0     H49478   4.234   2.481   1.066  0.8208  1.1404  0.4612
  359MOL0     H49479   4.398   2.655   1.081  1.8462  4.5315 -1.2470
  359MOL0     H49480   4.275   2.749   0.998  0.2619  1.1905 -0.2348
  359MOL0     H49481   4.173   2.826   1.180  0.9831  2.0119  0.5395
  359MOL0     H49482   4.272   2.739   1.296  1.5295 -1.6037 -0.1220
  359MOL0     H49483   4.335   2.968   1.277  2.2668  1.3798 -1.6983
  359MOL0     H49484   4.393   2.956   1.115  1.2429 -1.1040 -0.5115
  359MOL0     H49485   4.500   2.776   1.351  1.2500  1.0443  0.8401
  359MOL0     H49486   4.559   2.759   1.193 -1.9537 -0.3528 -1.0344
  359MOL0     H49487   4.616   3.010   1.179  1.1309 -1.6621 -1.8145
  359MOL0     H49488   4.709   2.904   1.282 -0.9894 -1.4807  0.8868
  359MOL0     H49489   4.494   3.095   1.369 -0.1482 -0.1162 -1.3365
  359MOL0     H49490   4.553   2.979   1.485 -2.0619 -1.0978 -1.5060
  359MOL0     H49491   4.681   3.284   1.286  0.8469  4.4491  0.7005
  359MOL0     H49492   5.012   3.369   1.378  0.7900  3.7171 -2.4277
  359MOL0     H49493   4.942   3.434   1.524 -3.9801 -0.1925  0.8125
  359MOL0     H49494   4.928   3.525   1.244 -0.0878  0.9315 -1.3859
  359MOL0     H49495   4.761   3.500   1.315  0.8754 -0.1918 -0.3033
  359MOL0     H49496   4.994   3.664   1.416  1.0595 -1.9150  0.0425
  359MOL0     H49497   4.863   3.727   1.327  0.8474  0.0569  0.6171
  359MOL0     H49498   4.857   3.616   1.621  1.8826  0.4583  0.5412
  359MOL0     H49499   4.809   3.782   1.566 -3.6607  0.7187 -3.5110
  359MOL0     H49500   4.441   3.611   1.534  2.1907  0.3928 -0.9614
  359MOL0     H49501   4.172   3.641   1.807  1.4062 -0.7534  1.2592
  359MOL0     H49502   4.230   3.561   1.656  2.9206 -1.2237  1.4098
  359MOL0     H49503   4.166   3.731   1.664 -1.8230 -0.5738  1.0623
  359MOL0     H49504   4.379   4.170   2.039 -0.3965 -0.4683  0.1542
  359MOL0     H49505   4.220   4.302   2.153  3.2852  0.3349 -2.8782
  359MOL0     H49506   3.890   4.111   2.317 -1.0793  2.4960 -0.2686
  359MOL0     H49507   3.927   4.098   2.479 -0.8555 -1.1572 -0.5504
  359MOL0     H49508   3.923   4.349   2.506 -1.4699  2.2129  1.3048
  359MOL0     H49509   3.851   4.343   2.342  2.3682 -2.5752 -2.4563
  359MOL0     H49510   3.771   4.209   2.602  0.3805 -2.7457 -1.2207
  359MOL0     H49511   3.681   4.175   2.443  0.4259  1.8865 -2.3262
  359MOL0     H49512   3.597   4.406   2.437 -0.2566 -1.9672 -0.1355
  359MOL0     H49513   3.698   4.448   2.580  0.4519  0.1977 -0.6160
  359MOL0     H49514   3.456   4.255   2.589 -4.0068  1.5359  2.9970
  359MOL0     H49515   3.565   4.295   2.721  0.1758 -0.3273 -0.3147
  359MOL0     H49516   3.360   4.453   2.564  0.8227 -1.2130 -0.6080
  359MOL0     H49517   3.479   4.541   2.670  2.5263 -1.1957  1.8007
  359MOL0     H49518   3.324   4.300   2.778 -2.2655 -0.2090  1.7030
  359MOL0     H49519   3.239   4.448   2.768 -0.0996  1.6880  0.0616
  359MOL0     H49520   3.388   4.567   2.913 -1.6530 -0.1641  0.0243
  359MOL0     H49521   3.507   4.423   2.915 -0.7839 -2.3282  2.8687
  359MOL0     H49522   4.089   3.954   2.367  0.2910  2.9813  2.5191
  359MOL0     H49523   4.246   3.810   2.218 -2.5391  0.1590 -1.2162
  359MOL0     H49524   4.582   3.852   1.932  0.0837  0.8707 -0.0513
  359MOL0     H49525   4.743   3.729   1.793  1.1540  1.9159  0.5009
  359MOL0     H49526   3.791   2.530   1.045  0.3070  2.5349  0.9677
  359MOL0     H49527   3.666   2.434   0.869 -0.3909  1.0328  0.2198
  359MOL0     H49528   3.414   2.246   0.541 -0.3332  1.5498 -0.3030
  359MOL0     H49529   3.325   2.160   0.350 -0.0838 -0.6552  1.3271
  359MOL0     H49530   3.267   2.133   0.153  1.6671  1.1527  1.5521
  359MOL0     H49531   3.292   2.076  -0.009 -0.8377 -1.2279 -0.1658
  359MOL0     H49532   3.262   1.894   0.155  0.1204 -1.1647  1.5234
  359MOL0     H49533   3.403   1.942   0.251  0.7304 -1.8051 -0.6955
  359MOL0     H49534   3.409   1.856  -0.041  2.5561  2.4077 -0.8357
  359MOL0     H49535   3.546   1.901   0.065  0.8121 -1.2175 -2.6515
  359MOL0     H49536   3.503   1.653   0.027 -0.8800 -5.2766  2.8350
  359MOL0     H49537   3.368   1.659   0.118 -1.2905  1.7427 -2.1538
  359MOL0     H49538   3.668   1.682   0.425  1.8061 -0.9435 -1.1202
  359MOL0     H49539   3.675   2.258   0.124 -3.2600 -0.7062 -2.3702
  359MOL0     H49540   3.775   2.510   0.374  1.9489 -0.6806  2.5900
  359MOL0     H49541   3.878   2.366   0.340  0.5981  0.5629 -1.4511
  359MOL0     H49542   3.801   2.463   0.212  1.6871  2.4983  1.7059
  360MOL0     O49543   4.666   3.005   7.709 -0.3485 -0.3051  0.1053
  360MOL0     C49544   4.672   3.112   7.776  0.3066 -0.0733 -0.2160
  360MOL0     O49545   4.768   3.139   7.864 -0.1713  0.0108 -0.1561
  360MOL0     C49546   4.869   3.052   7.905 -1.0097  0.5411  0.8217
  360MOL0     C49547   4.840   2.922   7.941  0.4710 -0.3121 -0.2205
  360MOL0     C49548   4.940   2.822   7.945  0.3269 -0.7085 -0.3296
  360MOL0     C49549   5.075   2.862   7.934 -0.2478  0.0221  0.2383
  360MOL0     O49550   5.172   2.774   7.952 -0.0094 -0.4473 -0.1283
  360MOL0     C49551   5.155   2.637   7.948 -0.1650  0.8348 -0.2927
  360MOL0     C49552   5.302   2.584   7.955 -0.7001 -0.2791  0.3552
  360MOL0     C49553   5.291   2.433   7.963  0.4385  0.9103 -0.3390
  360MOL0     C49554   5.434   2.350   7.958  0.4515 -0.6402  1.1496
  360MOL0     C49555   5.411   2.199   7.995  0.7798  0.7691 -0.1389
  360MOL0     C49556   5.537   2.112   7.965 -0.1397  1.6931  0.2632
  360MOL0     C49557   5.509   1.959   7.987  0.1726 -0.2281 -0.1604
  360MOL0     C49558   5.634   1.874   7.964  0.2932  0.4063  0.8102
  360MOL0     N49559   5.612   1.739   8.016 -0.0246  0.2898 -0.3877
  360MOL0     C49560   5.496   1.678   8.037  0.1149  0.3253  0.0814
  360MOL0     C49561   5.525   1.575   8.109  0.0788 -0.2999  0.1646
  360MOL0     C49562   5.434   1.468   8.189 -0.3632 -0.0276 -0.7065
  360MOL0     C49563   5.435   1.493   8.353 -0.0306  0.0768  0.4989
  360MOL0     C49564   5.441   1.641   8.395 -0.2281  0.3781  1.0436
  360MOL0     C49565   5.315   1.723   8.383  0.3645  0.3517  0.6473
  360MOL0     O49566   5.248   1.718   8.254  0.9344  0.5102 -0.7996
  360MOL0     C49567   5.193   1.832   8.204 -0.1144  0.0355  0.3060
  360MOL0     C49568   5.179   1.960   8.268 -1.3099  0.1232  0.8739
  360MOL0     C49569   5.123   2.076   8.211 -0.7013  0.1053  0.1006
  360MOL0     C49570   5.124   2.197   8.310  0.4143 -0.0860 -0.5807
  360MOL0     C49571   5.072   2.068   8.078 -0.2349 -0.1843  0.3039
  360MOL0     C49572   5.002   2.181   8.002 -0.2382  0.0863  0.8427
  360MOL0     O49573   4.939   2.150   7.889  0.3312 -0.1332  0.5588
  360MOL0     C49574   4.849   2.246   7.844 -0.5180 -0.1836  1.3264
  360MOL0     C49575   4.874   2.307   7.722 -0.2077 -1.5109 -1.0034
  360MOL0     C49576   4.789   2.413   7.684 -1.0312  1.0228 -0.6127
  360MOL0     C49577   4.676   2.445   7.754  0.3373 -0.1876 -0.3538
  360MOL0     O49578   4.596   2.537   7.688 -0.3423  0.2209 -0.1761
  360MOL0     C49579   4.596   2.670   7.750  0.3181  0.5796  0.2158
  360MOL0     C49580   4.451   2.692   7.798 -0.2072 -0.2749 -1.2680
  360MOL0     C49581   4.456   2.814   7.894 -1.1591 -0.2591  0.2798
  360MOL0     C49582   4.345   2.809   7.985 -0.0920  0.3024  0.5323
  360MOL0     C49583   4.348   2.931   8.086 -0.6290 -0.6145 -0.9362
  360MOL0     C49584   4.293   3.063   8.034  0.2470 -0.0504  0.8802
  360MOL0     C49585   4.141   3.058   8.036 -0.2335  0.5317  0.0808
  360MOL0     C49586   4.097   3.113   7.896 -0.3966  0.9276  0.9124
  360MOL0    Cl49587   4.164   2.999   7.775 -0.2235  0.3574 -0.1473
  360MOL0     C49588   4.642   2.364   7.862  1.1156 -0.0872  0.1329
  360MOL0     C49589   4.728   2.271   7.911 -0.5493 -0.7458  0.4317
  360MOL0     O49590   5.002   2.291   8.054 -0.0825 -0.3080 -0.2004
  360MOL0     C49591   5.093   1.947   8.013  0.1067  0.2848 -0.3342
  360MOL0     C49592   5.148   1.833   8.069 -0.2425 -0.7355  0.6742
  360MOL0     N49593   5.658   1.566   8.141 -0.9170  0.4786  0.7773
  360MOL0     N49594   5.718   1.669   8.083 -0.4097  0.0207  0.1422
  360MOL0     C49595   5.105   2.990   7.890 -0.3406 -0.3068  0.2628
  360MOL0     C49596   5.009   3.081   7.881  0.0507  0.5823 -0.5033
  360MOL0     C49597   4.566   3.220   7.742 -0.0818  0.1792 -0.0233
  360MOL0     C49598   4.550   3.332   7.830  0.5168  0.2352 -0.6405
  360MOL0     C49599   4.463   3.434   7.796  1.2056 -0.0614 -0.4340
  360MOL0     C49600   4.385   3.436   7.681  0.5103  0.8622  0.6034
  360MOL0     O49601   4.293   3.534   7.647 -0.5663 -0.9845 -0.3702
  360MOL0     C49602   4.308   3.664   7.696 -0.5300 -0.4413 -0.2830
  360MOL0     C49603   4.245   3.775   7.604 -0.2578 -0.3499 -0.1256
  360MOL0     C49604   4.094   3.746   7.576  0.6741  0.9064 -0.3276
  360MOL0     C49605   4.002   3.816   7.678 -0.2053  0.4470  0.3091
  360MOL0     C49606   3.869   3.756   7.684  0.0091  0.1017  0.3788
  360MOL0     C49607   3.767   3.685   7.673  0.8558  0.9705 -0.4829
  360MOL0     C49608   4.388   3.318   7.599 -0.0315 -0.8150 -0.5152
  360MOL0     C49609   4.479   3.209   7.624 -0.7797  1.2041 -0.1767
  360MOL0     C49610   4.486   3.095   7.526 -0.1558  0.2720 -0.2844
  360MOL0     H49611   4.737   2.897   7.962 -0.0035 -0.3611 -2.3646
  360MOL0     H49612   4.906   2.720   7.965 -2.2691  0.4719  1.9199
  360MOL0     H49613   5.120   2.610   7.848  2.5560  1.1394 -1.4262
  360MOL0     H49614   5.103   2.585   8.029 -0.8656  2.0773  0.0706
  360MOL0     H49615   5.348   2.621   7.863  0.4291 -2.2443  0.0752
  360MOL0     H49616   5.352   2.634   8.039  0.0278 -2.0666  1.0291
  360MOL0     H49617   5.242   2.409   8.058  0.8581  0.2431 -0.2819
  360MOL0     H49618   5.216   2.395   7.892 -0.9568  1.9655  0.5218
  360MOL0     H49619   5.486   2.350   7.862 -2.6007  3.3786 -0.7989
  360MOL0     H49620   5.502   2.398   8.030  0.9543 -1.1418  1.0197
  360MOL0     H49621   5.329   2.174   7.926 -0.2016  0.7088  1.0209
  360MOL0     H49622   5.376   2.202   8.098 -0.3166  0.1346 -0.4739
  360MOL0     H49623   5.557   2.116   7.857  0.4803 -1.5320  0.1786
  360MOL0     H49624   5.624   2.155   8.015  1.8820 -1.6207 -0.1052
  360MOL0     H49625   5.440   1.920   7.911  0.3480 -2.1311  0.5919
  360MOL0     H49626   5.470   1.940   8.088 -1.7183 -0.3909 -0.8756
  360MOL0     H49627   5.651   1.867   7.856 -1.0673  1.7209  0.4753
  360MOL0     H49628   5.714   1.926   8.017 -2.1712  2.0962  3.1564
  360MOL0     H49629   5.394   1.714   8.046 -0.8037 -2.2583  0.9465
  360MOL0     H49630   5.486   1.373   8.175  0.3423 -0.0258  1.5718
  360MOL0     H49631   5.329   1.456   8.158 -0.7573 -0.9710  0.9214
  360MOL0     H49632   5.345   1.450   8.397  1.1792 -1.8882  1.1768
  360MOL0     H49633   5.523   1.447   8.399 -2.0699 -3.7763  0.9752
  360MOL0     H49634   5.472   1.636   8.500  2.0941  0.6818  0.4242
  360MOL0     H49635   5.521   1.686   8.336 -0.6317 -0.6474 -0.3277
  360MOL0     H49636   5.250   1.687   8.464 -0.9045  0.8123 -0.1259
  360MOL0     H49637   5.341   1.823   8.420 -2.1191  1.1718  0.3725
  360MOL0     H49638   5.213   1.957   8.371 -2.0067 -0.2389  1.0948
  360MOL0     H49639   5.178   2.178   8.403  0.3252 -2.7145 -0.9968
  360MOL0     H49640   5.021   2.226   8.333 -0.7269  1.4912 -6.1517
  360MOL0     H49641   5.162   2.282   8.252  0.4461  0.5615  0.3700
  360MOL0     H49642   4.954   2.269   7.658  2.4433  0.5272  0.8436
  360MOL0     H49643   4.813   2.478   7.600 -1.1762  1.9733  0.0650
  360MOL0     H49644   4.659   2.666   7.839 -0.2339 -0.7531  0.5662
  360MOL0     H49645   4.638   2.747   7.685 -1.0731  0.7953 -0.4757
  360MOL0     H49646   4.384   2.714   7.714 -2.9532 -2.1095  0.2795
  360MOL0     H49647   4.409   2.603   7.845  1.0159 -0.1074  0.2360
  360MOL0     H49648   4.452   2.903   7.830 -0.1675 -2.7609 -3.5819
  360MOL0     H49649   4.545   2.817   7.958  0.2416  1.1955 -1.6225
  360MOL0     H49650   4.357   2.725   8.054  3.3876  1.4840  1.5934
  360MOL0     H49651   4.247   2.801   7.939  0.4784  2.6183 -1.2757
  360MOL0     H49652   4.310   2.898   8.184  0.4248  1.0197  0.0853
  360MOL0     H49653   4.453   2.936   8.116  0.5079 -1.1636 -4.4787
  360MOL0     H49654   4.331   3.082   7.933 -0.5766 -3.7991 -0.3295
  360MOL0     H49655   4.321   3.138   8.108  1.0233  0.2779  0.2601
  360MOL0     H49656   4.098   3.114   8.119  2.8317  0.4679  1.8804
  360MOL0     H49657   4.108   2.954   8.045  1.1315  0.1268  0.7406
  360MOL0     H49658   4.136   3.213   7.876 -1.8063  1.4481  0.7113
  360MOL0     H49659   3.988   3.114   7.894 -0.4334 -0.3589  1.3614
  360MOL0     H49660   4.546   2.389   7.905  2.0216  0.1126  2.1522
  360MOL0     H49661   4.695   2.210   7.995  0.6576 -0.3695  1.1984
  360MOL0     H49662   5.078   1.934   7.907 -0.9957 -1.4858 -0.0141
  360MOL0     H49663   5.165   1.743   8.011 -0.9767 -0.6846  0.3697
  360MOL0     H49664   5.207   3.019   7.867  0.3336 -0.9905  2.1941
  360MOL0     H49665   5.030   3.175   7.832 -0.5713 -0.7988 -3.6338
  360MOL0     H49666   4.623   3.350   7.909  1.2535  2.4658 -1.7465
  360MOL0     H49667   4.452   3.521   7.861  2.3432 -1.5070  1.8499
  360MOL0     H49668   4.272   3.668   7.799  3.1758  0.8750  1.1016
  360MOL0     H49669   4.414   3.688   7.700 -0.0870 -2.4069  0.8063
  360MOL0     H49670   4.306   3.793   7.515  0.0343 -0.5301  0.0379
  360MOL0     H49671   4.242   3.871   7.658 -3.8462 -0.3658 -0.0768
  360MOL0     H49672   4.062   3.762   7.473 -1.4501 -1.5722 -0.1664
  360MOL0     H49673   4.073   3.643   7.608 -1.1557  1.5737  0.7680
  360MOL0     H49674   3.989   3.924   7.663 -0.8153  0.3943  0.4328
  360MOL0     H49675   4.046   3.803   7.777 -1.6996 -0.3347  0.8902
  360MOL0     H49676   3.685   3.616   7.669 -2.0297  4.0735  0.9666
  360MOL0     H49677   4.322   3.309   7.513 -1.9532 -3.6908  1.0732
  360MOL0     H49678   4.443   3.005   7.572  0.7421 -0.3401 -0.6056
  360MOL0     H49679   4.423   3.114   7.439 -1.6998 -1.7998  0.2831
  360MOL0     H49680   4.591   3.068   7.508 -0.2961 -1.3014  0.9738
  361MOL0     O49681   6.573   3.801   0.347 -0.8209  0.8468 -0.3536
  361MOL0     C49682   6.476   3.800   0.274  0.0153 -1.1857 -0.5309
  361MOL0     O49683   6.473   3.820   0.133  0.2013 -0.3591 -0.9496
  361MOL0     C49684   6.590   3.806   0.067  0.0742 -0.5226 -0.3259
  361MOL0     C49685   6.622   3.688   0.008 -0.5843  0.4780  0.7297
  361MOL0     C49686   6.746   3.671  -0.054  0.2646  0.3546 -0.3299
  361MOL0     C49687   6.826   3.777  -0.085 -0.4480  0.2988 -0.2112
  361MOL0     O49688   6.936   3.741  -0.155  0.0574  0.1193  0.0293
  361MOL0     C49689   7.032   3.842  -0.193  0.7459  0.0725 -0.5481
  361MOL0     C49690   7.155   3.779  -0.281 -0.7080  0.6986  0.7341
  361MOL0     C49691   7.213   3.659  -0.218  0.2146  0.1819 -0.8980
  361MOL0     C49692   7.359   3.641  -0.248 -0.1413  0.3765  0.1859
  361MOL0     C49693   7.365   3.598  -0.394 -0.2701  0.2352  1.1575
  361MOL0     C49694   7.287   3.458  -0.441 -0.0439 -0.0872 -0.1399
  361MOL0     C49695   7.327   3.337  -0.355 -0.8212  0.4792 -0.1340
  361MOL0     C49696   7.472   3.284  -0.379 -0.4443  0.3046  0.0047
  361MOL0     N49697   7.489   3.230  -0.514  0.5188 -1.0778  0.5913
  361MOL0     C49698   7.489   3.100  -0.561  0.8867  0.5412  0.1079
  361MOL0     C49699   7.566   3.107  -0.673 -0.8034 -0.3841  0.2911
  361MOL0     C49700   7.598   2.995  -0.769 -0.2777  0.2289  0.5339
  361MOL0     C49701   7.715   3.039  -0.851  0.6855 -0.6532 -0.0567
  361MOL0     C49702   7.769   2.932  -0.947 -0.2612 -0.3380 -0.0105
  361MOL0     C49703   7.840   2.813  -0.875  0.5855 -0.5417 -0.1478
  361MOL0     O49704   7.742   2.726  -0.817 -0.8187 -0.6637 -0.1167
  361MOL0     C49705   7.690   2.631  -0.892 -0.0450 -0.0824 -0.4701
  361MOL0     C49706   7.550   2.648  -0.939  0.1183  0.3169 -0.3280
  361MOL0     C49707   7.493   2.553  -1.025  0.1752  0.3845 -0.2284
  361MOL0     C49708   7.344   2.568  -1.038  0.5106  0.8729  0.5143
  361MOL0     C49709   7.558   2.434  -1.062  0.0840  0.9915 -0.8212
  361MOL0     C49710   7.501   2.313  -1.135  1.2954  0.6532 -0.0361
  361MOL0     O49711   7.365   2.324  -1.169  0.0035 -0.4297  0.7384
  361MOL0     C49712   7.306   2.212  -1.223  0.2345 -0.5191  0.3628
  361MOL0     C49713   7.170   2.180  -1.170 -0.3497 -0.6791 -0.1989
  361MOL0     C49714   7.096   2.074  -1.216 -0.7034 -0.3041  0.0315
  361MOL0     C49715   7.159   1.990  -1.311 -0.0215 -0.1733 -0.7503
  361MOL0     O49716   7.085   1.883  -1.356 -0.1793  0.1056  0.0325
  361MOL0     C49717   7.066   1.878  -1.502  0.6609  0.9830  0.3953
  361MOL0     C49718   6.927   1.823  -1.544 -0.2324  0.1905  0.0160
  361MOL0     C49719   6.888   1.675  -1.520  0.3459 -0.0194 -0.2282
  361MOL0     C49720   6.767   1.634  -1.596  0.1808  0.0287  0.2803
  361MOL0     C49721   6.795   1.595  -1.747 -0.3269  0.0495  0.4311
  361MOL0     C49722   6.659   1.554  -1.804  0.0894  1.2594 -0.1539
  361MOL0     C49723   6.670   1.506  -1.948 -0.1571  0.4854  0.1509
  361MOL0     C49724   6.570   1.389  -1.966 -0.0842  1.0476 -0.5930
  361MOL0    Cl49725   6.648   1.244  -1.916  0.0599 -0.0373 -0.0625
  361MOL0     C49726   7.287   2.010  -1.366 -0.1645 -0.5078 -0.3135
  361MOL0     C49727   7.357   2.128  -1.329 -0.2391  0.1942 -0.8651
  361MOL0     O49728   7.571   2.221  -1.155 -0.4064 -0.0228 -0.0057
  361MOL0     C49729   7.686   2.413  -0.997 -0.5199 -0.1033  0.1355
  361MOL0     C49730   7.742   2.504  -0.913 -0.4180 -0.2425 -1.0175
  361MOL0     N49731   7.590   3.234  -0.702  0.7171 -0.0099 -0.9845
  361MOL0     N49732   7.530   3.306  -0.615 -0.8278 -0.9700 -0.3627
  361MOL0     C49733   6.796   3.902  -0.033 -0.3927  0.2555 -0.6268
  361MOL0     C49734   6.676   3.918   0.039 -0.2298  0.0548  0.3762
  361MOL0     C49735   6.356   3.791   0.353 -0.1931  0.2074 -0.0327
  361MOL0     C49736   6.265   3.703   0.294  0.5093  1.0095  0.0764
  361MOL0     C49737   6.137   3.667   0.354 -0.3627 -0.2637  0.2382
  361MOL0     C49738   6.094   3.730   0.468 -0.7484 -0.0381 -0.1539
  361MOL0     O49739   5.972   3.711   0.525  0.2157  0.1738  0.4279
  361MOL0     C49740   5.930   3.784   0.638 -0.6822 -0.4608  0.2288
  361MOL0     C49741   5.799   3.727   0.692  0.9263 -0.4568 -0.9945
  361MOL0     C49742   5.813   3.581   0.741  0.5795  0.2125 -0.9546
  361MOL0     C49743   5.809   3.571   0.890 -0.3897  0.4737  0.1801
  361MOL0     C49744   5.836   3.430   0.930 -0.3848  0.3969  0.5865
  361MOL0     C49745   5.855   3.315   0.966 -0.0172 -0.6655  0.7783
  361MOL0     C49746   6.182   3.825   0.527 -0.7834  0.0554 -0.9768
  361MOL0     C49747   6.317   3.843   0.476  0.0769 -0.7052 -0.9268
  361MOL0     C49748   6.412   3.936   0.554  0.4598 -0.6135  1.1492
  361MOL0     H49749   6.575   3.592   0.027 -0.6458  0.5676  1.0501
  361MOL0     H49750   6.782   3.571  -0.078 -3.5840 -1.1146 -0.7650
  361MOL0     H49751   7.077   3.883  -0.102  1.8832 -0.3892 -0.8860
  361MOL0     H49752   6.980   3.926  -0.239  1.6098  1.3541  0.7131
  361MOL0     H49753   7.106   3.756  -0.376 -1.8870  3.7532  0.4773
  361MOL0     H49754   7.229   3.857  -0.304 -0.2769 -0.2798 -1.4463
  361MOL0     H49755   7.194   3.639  -0.112  1.4401 -2.2115 -1.0481
  361MOL0     H49756   7.154   3.571  -0.248 -0.3022  0.2179 -0.0103
  361MOL0     H49757   7.415   3.732  -0.223 -1.5307  0.7104  2.2857
  361MOL0     H49758   7.411   3.559  -0.197 -1.3764 -1.1504 -0.8945
  361MOL0     H49759   7.469   3.587  -0.425  0.0570 -1.5731  2.7823
  361MOL0     H49760   7.328   3.687  -0.448  1.9819  2.3240  2.8568
  361MOL0     H49761   7.179   3.478  -0.442 -0.1603 -0.6609  0.5895
  361MOL0     H49762   7.308   3.445  -0.548  1.4788 -0.0830  0.1408
  361MOL0     H49763   7.266   3.253  -0.388  1.5900 -0.5560 -2.2365
  361MOL0     H49764   7.326   3.355  -0.247 -1.2275 -1.0527  0.1340
  361MOL0     H49765   7.552   3.358  -0.367 -0.9125  0.9095 -0.4796
  361MOL0     H49766   7.480   3.207  -0.302 -0.1866  0.5020  0.1779
  361MOL0     H49767   7.447   3.007  -0.526 -0.5044  0.3160 -1.9642
  361MOL0     H49768   7.512   2.982  -0.835  1.2414 -1.0057 -1.2869
  361MOL0     H49769   7.605   2.897  -0.722  1.9401  0.5767  1.0641
  361MOL0     H49770   7.682   3.118  -0.918  0.3309  1.6917  2.6774
  361MOL0     H49771   7.791   3.066  -0.777 -2.0050 -1.9384  3.4685
  361MOL0     H49772   7.690   2.880  -1.003 -0.9841  0.6609  0.0561
  361MOL0     H49773   7.831   2.983  -1.022 -0.7577  3.9135  2.1743
  361MOL0     H49774   7.908   2.759  -0.941 -0.7514 -0.8368 -1.3256
  361MOL0     H49775   7.900   2.858  -0.795 -0.5224 -0.1171  0.4712
  361MOL0     H49776   7.490   2.732  -0.905 -1.4426 -1.0030  0.3113
  361MOL0     H49777   7.292   2.480  -1.000  2.3953 -0.2597  0.6023
  361MOL0     H49778   7.331   2.576  -1.146  0.8156 -2.5915  0.1026
  361MOL0     H49779   7.299   2.645  -0.975  2.5500  2.0668  0.6190
  361MOL0     H49780   7.139   2.236  -1.083  0.8121 -0.9258  0.3935
  361MOL0     H49781   7.001   2.042  -1.176 -1.2862 -2.4349 -2.6925
  361MOL0     H49782   7.082   1.975  -1.550 -1.2592  0.6884 -0.9405
  361MOL0     H49783   7.140   1.807  -1.538  2.2582  1.9070  1.6724
  361MOL0     H49784   6.847   1.880  -1.498  1.5265  1.8483  1.1521
  361MOL0     H49785   6.931   1.838  -1.652  0.4651  3.0988  0.3684
  361MOL0     H49786   6.869   1.664  -1.413 -4.0551  3.6195 -0.3540
  361MOL0     H49787   6.968   1.610  -1.555  0.9408 -1.1295  2.8576
  361MOL0     H49788   6.690   1.712  -1.598  1.1461  0.9780 -0.0889
  361MOL0     H49789   6.719   1.552  -1.540  2.2218 -1.4102  0.0137
  361MOL0     H49790   6.842   1.682  -1.793  0.9385 -0.2325  1.1763
  361MOL0     H49791   6.867   1.513  -1.753  1.6986  1.8305 -1.7192
  361MOL0     H49792   6.595   1.643  -1.800 -2.2512 -0.3706  3.0017
  361MOL0     H49793   6.610   1.476  -1.746  2.9266  0.5794  1.5155
  361MOL0     H49794   6.770   1.464  -1.965 -0.8704 -0.8709 -0.8518
  361MOL0     H49795   6.645   1.586  -2.018  1.2177  1.8361  1.1509
  361MOL0     H49796   6.557   1.375  -2.074  0.2816 -2.1801 -0.3087
  361MOL0     H49797   6.469   1.408  -1.932 -0.2464 -2.2310  1.1400
  361MOL0     H49798   7.337   1.938  -1.430  0.6910  0.5498 -0.8702
  361MOL0     H49799   7.450   2.144  -1.383 -0.0362 -1.3015 -0.9960
  361MOL0     H49800   7.754   2.332  -1.021  0.1181 -0.0471  1.6456
  361MOL0     H49801   7.841   2.489  -0.871 -1.5299 -1.8311  1.2356
  361MOL0     H49802   6.857   3.991  -0.040  0.6241 -0.1350  1.9591
  361MOL0     H49803   6.655   4.023   0.059 -0.4761  0.5261 -1.9603
  361MOL0     H49804   6.283   3.653   0.200 -1.0872 -2.2667  1.3564
  361MOL0     H49805   6.061   3.605   0.308 -0.3249  0.1084 -0.3286
  361MOL0     H49806   6.002   3.773   0.720 -1.7961  1.5100  1.5556
  361MOL0     H49807   5.929   3.889   0.606 -2.2658 -0.1678  1.1440
  361MOL0     H49808   5.717   3.729   0.620 -0.5883 -2.1966  0.5699
  361MOL0     H49809   5.760   3.787   0.775  0.9207 -2.2605  0.3676
  361MOL0     H49810   5.739   3.511   0.701  0.3321 -3.7501  5.0454
  361MOL0     H49811   5.910   3.547   0.704  1.1088  0.4863  0.1450
  361MOL0     H49812   5.723   3.618   0.940 -0.7013  0.0851  0.0151
  361MOL0     H49813   5.891   3.627   0.935 -0.7664  0.2771  1.1459
  361MOL0     H49814   5.866   3.211   0.991 -1.6679 -0.4980  2.4160
  361MOL0     H49815   6.143   3.873   0.616 -1.9902 -0.3025 -1.2988
  361MOL0     H49816   6.483   3.885   0.619 -0.2602 -0.0846  2.4097
  361MOL0     H49817   6.464   4.000   0.483  0.1271 -0.9918  0.5545
  361MOL0     H49818   6.349   3.995   0.622  2.1903  2.0652  0.5958
  362MOL0     O49819   1.377  11.230   0.671 -0.1204  0.5067 -0.2817
  362MOL0     C49820   1.434  11.316   0.739 -0.5685  0.5181  0.5732
  362MOL0     O49821   1.488  11.422   0.679 -0.0872 -0.4241  0.1329
  362MOL0     C49822   1.616  11.405   0.640 -0.3081 -0.8455  0.8820
  362MOL0     C49823   1.697  11.513   0.652 -0.2736 -0.8465  0.0260
  362MOL0     C49824   1.828  11.507   0.591  0.4153  0.1726 -0.8459
  362MOL0     C49825   1.871  11.386   0.526  0.3149 -0.9952 -1.0885
  362MOL0     O49826   1.990  11.379   0.465 -0.3613  0.4950  0.1050
  362MOL0     C49827   2.104  11.450   0.516 -0.5076 -1.4201  0.0299
  362MOL0     C49828   2.196  11.487   0.393  0.3377  0.6775  0.5160
  362MOL0     C49829   2.327  11.567   0.423  0.3216  0.4134 -0.3624
  362MOL0     C49830   2.404  11.603   0.296 -0.2119  0.0247  1.2828
  362MOL0     C49831   2.535  11.677   0.316 -0.4863  0.7109 -0.2017
  362MOL0     C49832   2.615  11.682   0.189 -0.3847  0.7875 -0.8565
  362MOL0     C49833   2.762  11.719   0.211 -1.3801 -0.9568 -0.4358
  362MOL0     C49834   2.838  11.779   0.097  0.6589  0.5067 -0.9507
  362MOL0     N49835   2.984  11.782   0.117  0.8884  1.1488 -0.1837
  362MOL0     C49836   3.065  11.676   0.098  0.0179  1.0939  0.0357
  362MOL0     C49837   3.175  11.694   0.171 -0.0028  0.3772  0.1847
  362MOL0     C49838   3.272  11.592   0.214  0.9491 -0.0813  0.8945
  362MOL0     C49839   3.415  11.614   0.154 -0.0126  0.7529 -1.4187
  362MOL0     C49840   3.515  11.500   0.167  0.6464 -0.2091 -0.2400
  362MOL0     C49841   3.537  11.439   0.294  0.2377  1.1772 -0.2673
  362MOL0     O49842   3.606  11.510   0.393  0.6308  0.0846  0.2181
  362MOL0     C49843   3.578  11.501   0.530 -1.5456 -0.3466 -0.2340
  362MOL0     C49844   3.609  11.612   0.612 -0.5122  0.7118 -0.3489
  362MOL0     C49845   3.591  11.600   0.755 -0.1466 -1.3037  1.2595
  362MOL0     C49846   3.632  11.723   0.841  0.0052  0.4148  0.2690
  362MOL0     C49847   3.555  11.477   0.812 -0.1749  0.3954 -0.2992
  362MOL0     C49848   3.525  11.458   0.953 -0.6545  0.2436 -0.8009
  362MOL0     O49849   3.447  11.340   0.983 -0.5321 -0.4468  0.1287
  362MOL0     C49850   3.405  11.323   1.111 -0.1314  0.2888 -0.5492
  362MOL0     C49851   3.304  11.408   1.155  0.2512 -0.3316 -0.5437
  362MOL0     C49852   3.249  11.395   1.282 -0.2873  0.4430 -0.6438
  362MOL0     C49853   3.277  11.283   1.364 -0.5105 -0.1281  0.2811
  362MOL0     O49854   3.243  11.268   1.492  0.2214 -0.0887  0.2705
  362MOL0     C49855   3.105  11.241   1.511 -0.2100  0.5773 -0.7631
  362MOL0     C49856   3.050  11.324   1.634  0.7986 -0.4849  0.2570
  362MOL0     C49857   2.923  11.278   1.704  0.2748 -1.5450 -0.6695
  362MOL0     C49858   2.802  11.258   1.609  0.2366  0.1868 -0.6066
  362MOL0     C49859   2.673  11.254   1.677  0.7615  0.2189  0.1686
  362MOL0     C49860   2.555  11.206   1.591  1.2484 -0.8462  0.0161
  362MOL0     C49861   2.428  11.209   1.682  1.0083 -0.1056 -0.3916
  362MOL0     C49862   2.311  11.111   1.644 -0.2327 -0.2584 -0.2626
  362MOL0    Cl49863   2.262  11.139   1.483  0.0946 -0.0153  0.2976
  362MOL0     C49864   3.373  11.193   1.313 -0.0134  0.8743 -0.9289
  362MOL0     C49865   3.447  11.210   1.192  0.0414  0.3161  1.1992
  362MOL0     O49866   3.586  11.523   1.036 -0.4351 -0.1300  0.2085
  362MOL0     C49867   3.523  11.372   0.722  0.5369 -0.6003  0.0569
  362MOL0     C49868   3.535  11.389   0.585  0.1454  0.7880  0.0566
  362MOL0     N49869   3.163  11.805   0.241  0.7540 -0.4309 -0.3372
  362MOL0     N49870   3.044  11.856   0.212 -0.1110  0.4238 -0.8161
  362MOL0     C49871   1.787  11.283   0.520 -0.6465  0.4609  0.1779
  362MOL0     C49872   1.660  11.281   0.583  0.3127  0.7653  0.4562
  362MOL0     C49873   1.410  11.324   0.883  0.7826  0.0028 -0.0621
  362MOL0     C49874   1.446  11.449   0.948 -0.1487 -0.1432  0.0783
  362MOL0     C49875   1.424  11.471   1.081  0.7206  0.4373 -0.7576
  362MOL0     C49876   1.376  11.365   1.164 -0.4780 -0.3682 -0.2456
  362MOL0     O49877   1.383  11.392   1.298 -0.7130 -0.1777 -0.2041
  362MOL0     C49878   1.359  11.294   1.410 -0.3343  0.7168  0.4469
  362MOL0     C49879   1.211  11.266   1.430 -0.4070 -0.1766  0.3724
  362MOL0     C49880   1.143  11.386   1.508  0.4561  1.3234 -0.9060
  362MOL0     C49881   0.990  11.370   1.513  0.3086 -0.3470 -0.6449
  362MOL0     C49882   0.943  11.245   1.585  0.2956  0.0760 -0.7836
  362MOL0     C49883   0.904  11.150   1.655 -0.1490  0.7021  0.0954
  362MOL0     C49884   1.318  11.257   1.107 -0.2007 -0.5302  1.2536
  362MOL0     C49885   1.341  11.227   0.971  1.0994 -0.1402 -0.4763
  362MOL0     C49886   1.284  11.091   0.919 -0.3974  0.4691 -0.6868
  362MOL0     H49887   1.658  11.595   0.712  0.1228 -1.3593  1.0192
  362MOL0     H49888   1.895  11.591   0.605  0.6027 -0.2892  1.3696
  362MOL0     H49889   2.160  11.384   0.583  0.7800 -1.1363 -0.7349
  362MOL0     H49890   2.082  11.547   0.561  0.0160 -0.6327 -1.3386
  362MOL0     H49891   2.226  11.390   0.351 -0.7882  0.4462  0.2084
  362MOL0     H49892   2.135  11.540   0.320 -0.4968  0.2670  0.8995
  362MOL0     H49893   2.300  11.657   0.481  1.0788  1.6871 -1.9037
  362MOL0     H49894   2.396  11.512   0.487 -0.4644  0.6978  0.7667
  362MOL0     H49895   2.413  11.503   0.254 -2.8733  0.7242 -1.2427
  362MOL0     H49896   2.340  11.665   0.232  0.9545  1.2734  1.2611
  362MOL0     H49897   2.601  11.615   0.377  1.8578  0.5386 -2.7446
  362MOL0     H49898   2.525  11.780   0.351  0.8741  0.7153  0.2332
  362MOL0     H49899   2.608  11.582   0.144 -4.1123  0.4626  0.1391
  362MOL0     H49900   2.563  11.754   0.125 -1.8762 -1.1641 -1.9650
  362MOL0     H49901   2.811  11.627   0.247 -2.1399 -0.2717  2.5768
  362MOL0     H49902   2.770  11.797   0.286  1.6438  0.6453 -2.2398
  362MOL0     H49903   2.818  11.723   0.005  0.1842 -0.8650 -0.0493
  362MOL0     H49904   2.801  11.879   0.071  0.4895  1.2108  1.7465
  362MOL0     H49905   3.043  11.586   0.042 -0.9487 -0.2513  2.4120
  362MOL0     H49906   3.243  11.493   0.177  1.5930  1.3221 -4.0818
  362MOL0     H49907   3.274  11.599   0.323 -0.7691  1.2863  0.8828
  362MOL0     H49908   3.406  11.634   0.047 -1.7843  1.1441 -1.2299
  362MOL0     H49909   3.449  11.702   0.210 -0.8544 -1.2151  2.5797
  362MOL0     H49910   3.488  11.415   0.103  3.4403 -2.9306  1.8351
  362MOL0     H49911   3.610  11.532   0.122  0.7360  2.0052  1.4148
  362MOL0     H49912   3.445  11.393   0.330  2.0376  0.2507  3.5950
  362MOL0     H49913   3.609  11.362   0.266  1.7010  2.4591 -0.1589
  362MOL0     H49914   3.634  11.705   0.562 -3.4139  0.8201 -1.7565
  362MOL0     H49915   3.539  11.743   0.894  1.1990  1.1230  2.1777
  362MOL0     H49916   3.664  11.805   0.775 -2.4321  0.7667 -0.5717
  362MOL0     H49917   3.708  11.706   0.918 -1.8881 -0.1928  2.0862
  362MOL0     H49918   3.253  11.486   1.099  1.4672  1.3571  0.6234
  362MOL0     H49919   3.172  11.470   1.301  2.2905  2.8389  1.0718
  362MOL0     H49920   3.044  11.262   1.423 -0.8542  1.9343 -0.0387
  362MOL0     H49921   3.090  11.136   1.537  1.4512  0.4625 -0.1205
  362MOL0     H49922   3.124  11.324   1.714  3.1072  1.7748 -1.6889
  362MOL0     H49923   3.033  11.430   1.612 -0.2368 -0.2459  2.0936
  362MOL0     H49924   2.891  11.354   1.775  3.0922 -1.9253  1.1462
  362MOL0     H49925   2.935  11.186   1.762  0.7026  0.2553  2.3124
  362MOL0     H49926   2.818  11.159   1.567 -0.5492 -0.2689  0.1245
  362MOL0     H49927   2.801  11.338   1.535  0.4816  2.2183  1.4732
  362MOL0     H49928   2.680  11.194   1.767  2.8045  0.0908 -0.0243
  362MOL0     H49929   2.651  11.351   1.723  0.7200  0.3412 -0.1030
  362MOL0     H49930   2.570  11.107   1.546 -1.5311 -0.8472 -1.0983
  362MOL0     H49931   2.539  11.263   1.499  0.0400 -1.9721 -0.5066
  362MOL0     H49932   2.394  11.313   1.691  2.3749  0.4184 -0.8645
  362MOL0     H49933   2.457  11.199   1.787  0.7838  3.8765  0.2205
  362MOL0     H49934   2.237  11.124   1.724  2.0046  0.6243  1.7609
  362MOL0     H49935   2.346  11.009   1.656  2.3506  0.5328 -0.4766
  362MOL0     H49936   3.391  11.103   1.370 -1.6181  0.4405 -1.0608
  362MOL0     H49937   3.523  11.144   1.153  1.9881  3.2973 -0.4653
  362MOL0     H49938   3.490  11.280   0.769  0.8378 -0.7276  0.0187
  362MOL0     H49939   3.512  11.307   0.518 -0.2195  0.3813  0.6751
  362MOL0     H49940   1.831  11.196   0.472 -1.5418  0.5314 -0.8213
  362MOL0     H49941   1.600  11.198   0.544 -1.7113  1.6206  1.6105
  362MOL0     H49942   1.480  11.534   0.888 -2.4126  1.7325  1.2961
  362MOL0     H49943   1.444  11.563   1.135  1.1384  1.9691 -3.3579
  362MOL0     H49944   1.421  11.207   1.387 -0.5959 -0.6004  3.9855
  362MOL0     H49945   1.399  11.353   1.494  1.1776  2.1747 -1.2117
  362MOL0     H49946   1.199  11.167   1.476 -3.2547  1.4252  3.4831
  362MOL0     H49947   1.163  11.261   1.331 -1.6800 -0.0610  0.9702
  362MOL0     H49948   1.181  11.410   1.608  0.5811 -0.7672 -0.4187
  362MOL0     H49949   1.168  11.475   1.450  3.2582  0.9468 -0.3890
  362MOL0     H49950   0.955  11.374   1.410 -1.5845  1.5333 -0.0146
  362MOL0     H49951   0.941  11.451   1.568 -2.1283 -2.0694 -0.1358
  362MOL0     H49952   0.873  11.078   1.728 -0.3584  0.9309  0.2321
  362MOL0     H49953   1.280  11.174   1.166 -0.8857 -1.6152 -0.6326
  362MOL0     H49954   1.366  11.024   0.892 -0.4206 -0.4145  1.2730
  362MOL0     H49955   1.232  11.031   0.994  1.1996 -1.7629 -1.2799
  362MOL0     H49956   1.219  11.109   0.833  0.6314 -1.7252 -1.9921
  363MOL0     O49957   6.530  11.361   4.923 -0.0390 -0.6719 -0.3595
  363MOL0     C49958   6.590  11.467   4.942 -0.1295 -0.6953 -0.4929
  363MOL0     O49959   6.627  11.518   5.065 -0.1965 -0.5271  0.1338
  363MOL0     C49960   6.620  11.430   5.176 -0.7722  0.3661  0.3762
  363MOL0     C49961   6.733  11.378   5.231 -0.1755 -0.9294  0.3697
  363MOL0     C49962   6.723  11.299   5.339  0.9410 -0.2525 -0.1585
  363MOL0     C49963   6.606  11.276   5.412 -0.4615 -0.3064  0.1256
  363MOL0     O49964   6.583  11.189   5.511  0.0192 -0.3021 -0.9411
  363MOL0     C49965   6.687  11.098   5.540  0.2086  0.3455 -0.8108
  363MOL0     C49966   6.658  11.018   5.660 -0.2828 -0.3276  0.2912
  363MOL0     C49967   6.788  10.942   5.706  0.6209 -1.1469  0.2458
  363MOL0     C49968   6.813  10.823   5.614 -0.7792 -0.7771  0.2199
  363MOL0     C49969   6.943  10.753   5.641  0.3709 -0.0522 -0.2568
  363MOL0     C49970   6.987  10.720   5.786 -0.2782 -0.1430  0.3339
  363MOL0     C49971   7.122  10.781   5.811  0.0545  0.5025  0.3387
  363MOL0     C49972   7.190  10.704   5.932 -0.2026 -0.5998 -0.3904
  363MOL0     N49973   7.099  10.689   6.055 -0.9506  0.9421  0.8280
  363MOL0     C49974   7.052  10.783   6.143 -0.9784 -0.3792  0.0956
  363MOL0     C49975   6.924  10.750   6.183  0.3066 -0.4750  1.0790
  363MOL0     C49976   6.824  10.828   6.261  0.7744 -0.1158  0.3794
  363MOL0     C49977   6.703  10.876   6.167  0.2660  0.3091  0.4264
  363MOL0     C49978   6.747  10.992   6.070 -0.3479  0.0870  0.4950
  363MOL0     C49979   6.731  11.139   6.133  0.2663  0.1651 -0.4835
  363MOL0     O49980   6.783  11.232   6.045 -0.1217 -0.0989 -0.8589
  363MOL0     C49981   6.920  11.224   6.018  0.3157 -0.0462  0.0967
  363MOL0     C49982   6.958  11.237   5.885 -0.1727  0.8037 -0.3856
  363MOL0     C49983   7.080  11.187   5.842  0.9496  0.5850 -0.6585
  363MOL0     C49984   7.101  11.192   5.690 -0.7883 -0.1258  0.0549
  363MOL0     C49985   7.174  11.130   5.938  0.3431 -0.6615 -0.1066
  363MOL0     C49986   7.311  11.090   5.899  0.8863 -0.0332 -0.3737
  363MOL0     O49987   7.400  11.091   6.001 -0.0928 -0.0142 -0.0456
  363MOL0     C49988   7.530  11.045   5.974  0.3911  0.5002  0.3532
  363MOL0     C49989   7.619  11.107   5.893  0.5521 -0.8264  0.3145
  363MOL0     C49990   7.741  11.052   5.861  1.0464 -0.0793 -0.1331
  363MOL0     C49991   7.777  10.925   5.908  0.3208 -0.6277  0.3619
  363MOL0     O49992   7.891  10.869   5.863 -0.7984  0.2317 -0.6669
  363MOL0     C49993   8.006  10.951   5.907 -0.2292  0.0345  0.0863
  363MOL0     C49994   8.132  10.864   5.888 -0.8619  0.1275  0.8688
  363MOL0     C49995   8.167  10.871   5.735  0.6707  0.5414  0.3401
  363MOL0     C49996   8.175  11.002   5.664 -0.2866  0.2027 -0.4662
  363MOL0     C49997   8.250  11.003   5.527  0.3189  0.9115 -0.8861
  363MOL0     C49998   8.400  10.967   5.556 -0.5586  1.2283  0.3260
  363MOL0     C49999   8.487  11.001   5.437 -1.0296 -0.2843 -0.5229
  363MOL0     C50000   8.628  10.953   5.452 -0.0278 -0.5261 -0.8268
  363MOL0    Cl50001   8.728  11.040   5.575 -0.0367 -0.0721 -0.0057
  363MOL0     C50002   7.683  10.853   5.976 -1.2148 -0.0129 -0.4012
  363MOL0     C50003   7.560  10.910   6.013  0.2690  0.5865 -0.0823
  363MOL0     O50004   7.333  11.054   5.781 -0.1826  0.2594 -0.7161
  363MOL0     C50005   7.143  11.144   6.070 -0.0579  0.0250  0.6293
  363MOL0     C50006   7.019  11.185   6.115  1.0549 -0.4595  0.4785
  363MOL0     N50007   6.919  10.614   6.152  0.2151  0.2238 -0.1896
  363MOL0     N50008   7.023  10.580   6.074  0.7524  0.2142  1.2880
  363MOL0     C50009   6.485  11.334   5.353  0.3212  0.5458  0.4151
  363MOL0     C50010   6.494  11.408   5.234  0.2813 -0.0777 -0.2211
  363MOL0     C50011   6.628  11.562   4.830  1.1051  0.4470  0.3659
  363MOL0     C50012   6.706  11.680   4.853 -0.1170 -0.1614 -0.6895
  363MOL0     C50013   6.729  11.781   4.753 -0.1754  0.0492  0.8816
  363MOL0     C50014   6.682  11.763   4.624 -1.0409 -1.1937 -0.1838
  363MOL0     O50015   6.684  11.844   4.516  0.0611  0.0656 -0.6262
  363MOL0     C50016   6.741  11.969   4.534  0.5358 -0.2537  0.2488
  363MOL0     C50017   6.702  12.047   4.405  0.0448 -0.0652 -0.3096
  363MOL0     C50018   6.768  12.184   4.415 -0.6653 -0.9061 -0.0429
  363MOL0     C50019   6.917  12.190   4.400  0.1189  0.3058  0.1219
  363MOL0     C50020   6.980  12.096   4.303 -0.8250 -1.1610  0.0428
  363MOL0     C50021   7.038  12.021   4.226  0.1112  0.5428 -0.1322
  363MOL0     C50022   6.608  11.646   4.599  0.1896 -0.6043 -0.8077
  363MOL0     C50023   6.585  11.544   4.695 -0.5551  0.7654 -0.5498
  363MOL0     C50024   6.523  11.420   4.641  0.2454 -0.1224 -1.1841
  363MOL0     H50025   6.826  11.396   5.179 -0.6630 -1.6415 -0.7853
  363MOL0     H50026   6.812  11.242   5.363  0.7693 -0.8944 -0.9931
  363MOL0     H50027   6.782  11.151   5.554  0.2066  0.2961 -0.6127
  363MOL0     H50028   6.703  11.022   5.463  2.2419 -2.5975  2.2123
  363MOL0     H50029   6.625  11.086   5.739 -4.3584  1.9351 -2.9688
  363MOL0     H50030   6.577  10.950   5.634 -1.1161  1.2583 -1.4948
  363MOL0     H50031   6.872  11.010   5.719  0.1920 -0.6716  0.5979
  363MOL0     H50032   6.766  10.892   5.801 -5.3325  1.6708  0.8201
  363MOL0     H50033   6.728  10.756   5.625 -1.9277  0.4331 -0.8593
  363MOL0     H50034   6.826  10.854   5.510 -2.5653  2.1145  0.7479
  363MOL0     H50035   7.021  10.808   5.589  2.5355 -1.1768  1.6431
  363MOL0     H50036   6.925  10.655   5.596 -2.0903  0.3334 -0.3036
  363MOL0     H50037   6.909  10.746   5.858  1.4731  3.2648  1.2353
  363MOL0     H50038   7.011  10.613   5.797 -1.0045 -0.7552 -3.0374
  363MOL0     H50039   7.110  10.888   5.830 -4.2274  0.2204  0.1171
  363MOL0     H50040   7.183  10.764   5.721 -0.3811 -0.0771  0.1475
  363MOL0     H50041   7.217  10.601   5.905 -0.2472 -1.0571  1.2106
  363MOL0     H50042   7.274  10.770   5.957  1.2770 -2.2276 -0.8249
  363MOL0     H50043   7.119  10.866   6.164  0.5950 -1.4662 -0.4721
  363MOL0     H50044   6.868  10.918   6.306  0.5441 -0.3657  1.1059
  363MOL0     H50045   6.784  10.769   6.343 -0.4923  0.1640 -0.0162
  363MOL0     H50046   6.662  10.791   6.111 -1.9697  0.9802  0.9524
  363MOL0     H50047   6.623  10.915   6.229 -0.7706  0.3224 -0.8776
  363MOL0     H50048   6.850  10.977   6.039 -0.7102  0.5913 -1.0668
  363MOL0     H50049   6.676  10.980   5.987  0.4017 -2.6029  0.1460
  363MOL0     H50050   6.625  11.159   6.152 -0.2320 -2.8639  0.5284
  363MOL0     H50051   6.776  11.138   6.232 -0.7470  0.6286 -0.0020
  363MOL0     H50052   6.880  11.257   5.812  0.7202  3.8857 -0.6632
  363MOL0     H50053   7.189  11.254   5.669 -0.1559 -0.9690  0.1847
  363MOL0     H50054   7.015  11.225   5.630 -2.7557 -0.0189  2.7214
  363MOL0     H50055   7.112  11.091   5.651  1.5760  0.7807 -1.8625
  363MOL0     H50056   7.593  11.205   5.856  0.2647 -0.3281  1.7741
  363MOL0     H50057   7.798  11.123   5.801 -4.8579  2.7616 -3.2514
  363MOL0     H50058   8.012  11.047   5.856  0.5398 -0.8326 -1.5309
  363MOL0     H50059   7.999  10.966   6.015 -1.0113  3.8049 -0.3596
  363MOL0     H50060   8.210  10.917   5.943  1.5154  0.2875 -2.3887
  363MOL0     H50061   8.123  10.760   5.919  4.7623 -0.1057  2.8375
  363MOL0     H50062   8.092  10.823   5.672  0.3333  0.0478  1.1066
  363MOL0     H50063   8.260  10.816   5.720  2.0595  0.7077  5.9523
  363MOL0     H50064   8.234  11.069   5.728  0.3369 -0.2582 -0.5462
  363MOL0     H50065   8.072  11.035   5.649  0.1762  2.2054  0.4347
  363MOL0     H50066   8.195  10.923   5.475  0.5736 -0.1448  0.4264
  363MOL0     H50067   8.247  11.100   5.476  1.6683  0.7514 -1.3012
  363MOL0     H50068   8.409  10.863   5.590  0.5980  0.3768 -2.2875
  363MOL0     H50069   8.451  11.022   5.635  2.8884  1.6073 -1.9313
  363MOL0     H50070   8.490  11.109   5.425  3.3215  0.2152  2.7260
  363MOL0     H50071   8.442  10.963   5.344 -1.3002  0.4471 -0.6962
  363MOL0     H50072   8.675  10.980   5.357  4.5164  2.5150  1.9276
  363MOL0     H50073   8.646  10.848   5.476  2.5633 -0.0260 -0.3166
  363MOL0     H50074   7.709  10.751   6.006  0.0061  1.3156  3.8076
  363MOL0     H50075   7.483  10.854   6.066 -1.6725  1.1486 -2.1505
  363MOL0     H50076   7.222  11.128   6.143  2.9430  3.3359 -1.5445
  363MOL0     H50077   6.997  11.183   6.221  0.8702 -3.3700  0.4595
  363MOL0     H50078   6.389  11.302   5.393 -0.0462 -0.9237 -1.4870
  363MOL0     H50079   6.401  11.447   5.195  2.9033  4.2572 -3.1287
  363MOL0     H50080   6.760  11.696   4.945  0.2696 -1.2120 -0.7290
  363MOL0     H50081   6.774  11.873   4.788  2.5819 -0.8549 -0.0906
  363MOL0     H50082   6.702  12.019   4.623 -0.1212 -1.4196  0.6330
  363MOL0     H50083   6.850  11.973   4.545  0.4884 -1.0137  1.0059
  363MOL0     H50084   6.593  12.057   4.407 -0.0019 -0.5921  1.9556
  363MOL0     H50085   6.728  12.003   4.308 -0.7839 -2.3806  0.4583
  363MOL0     H50086   6.716  12.255   4.350 -0.3241  0.9184  1.5946
  363MOL0     H50087   6.745  12.219   4.516 -1.9618 -1.7430 -0.0298
  363MOL0     H50088   6.961  12.176   4.499  0.3281 -0.4245 -0.0694
  363MOL0     H50089   6.948  12.291   4.370  3.0652 -0.6176 -0.2653
  363MOL0     H50090   7.096  11.950   4.170  0.7677  0.6156  0.4398
  363MOL0     H50091   6.572  11.626   4.498 -1.6221 -0.4728 -0.2253
  363MOL0     H50092   6.440  11.371   4.691  1.3819 -1.5496 -0.6248
  363MOL0     H50093   6.477  11.436   4.543 -2.4324  0.9470  0.1395
  363MOL0     H50094   6.595  11.337   4.637 -0.3457 -1.3111  4.5785
  364MOL0     O50095   6.346   9.410   5.938 -0.2758  0.0089  0.1210
  364MOL0     C50096   6.435   9.360   5.997 -0.0056  0.9372  0.1986
  364MOL0     O50097   6.506   9.253   5.946  0.3068  0.2514 -0.5090
  364MOL0     C50098   6.589   9.175   6.028 -0.1099  0.6338  0.0685
  364MOL0     C50099   6.532   9.104   6.135  0.3290  0.0465  2.1948
  364MOL0     C50100   6.598   9.005   6.211 -0.7378 -1.1674  0.2532
  364MOL0     C50101   6.735   8.977   6.183  0.0445 -0.3827  0.4295
  364MOL0     O50102   6.817   8.888   6.248  0.0021  0.0107  0.6428
  364MOL0     C50103   6.777   8.830   6.364 -0.3576 -0.1115  0.3005
  364MOL0     C50104   6.746   8.682   6.346  0.4479 -0.3131  0.5485
  364MOL0     C50105   6.650   8.663   6.226 -0.6602  0.3613 -0.5515
  364MOL0     C50106   6.622   8.516   6.209 -0.7430 -0.2397  0.2882
  364MOL0     C50107   6.470   8.482   6.248 -0.2588 -0.3865  0.1563
  364MOL0     C50108   6.449   8.488   6.397  0.0160 -0.3152 -0.1149
  364MOL0     C50109   6.299   8.455   6.432 -0.4072 -0.2377  0.7687
  364MOL0     C50110   6.273   8.496   6.574  0.0133  1.2473  0.5364
  364MOL0     N50111   6.133   8.462   6.604  0.3311 -0.4663  0.6390
  364MOL0     C50112   6.087   8.354   6.670 -0.1061 -1.0367  0.4765
  364MOL0     C50113   5.954   8.373   6.674 -0.2436  0.5696 -0.6481
  364MOL0     C50114   5.850   8.291   6.736 -0.5286 -0.1030  0.2022
  364MOL0     C50115   5.854   8.144   6.684  0.2136  0.3229  0.0045
  364MOL0     C50116   5.796   8.130   6.547 -0.2598 -0.2338  0.4109
  364MOL0     C50117   5.816   7.986   6.493 -0.4429  0.3813  0.4282
  364MOL0     O50118   5.795   7.889   6.589  0.6185 -0.6150 -0.3800
  364MOL0     C50119   5.779   7.749   6.558 -0.2215  0.0037 -0.4479
  364MOL0     C50120   5.815   7.698   6.437  0.3552  0.5451 -0.5452
  364MOL0     C50121   5.812   7.553   6.420  0.8100 -0.0655 -0.6485
  364MOL0     C50122   5.816   7.501   6.274  0.0484 -0.5643  0.0842
  364MOL0     C50123   5.769   7.474   6.532  0.3119 -0.5285  0.1942
  364MOL0     C50124   5.752   7.326   6.524 -0.1059 -0.1881 -0.7382
  364MOL0     O50125   5.799   7.253   6.633 -0.0245 -0.2820  0.0311
  364MOL0     C50126   5.774   7.120   6.657 -0.4745  0.4720  0.3662
  364MOL0     C50127   5.768   7.084   6.790 -0.4420 -1.0018  0.0052
  364MOL0     C50128   5.757   6.949   6.821  0.3885  0.4248  0.1426
  364MOL0     C50129   5.751   6.845   6.732  0.0474  0.7240 -0.4163
  364MOL0     O50130   5.740   6.710   6.769 -0.4861  0.3652 -0.2854
  364MOL0     C50131   5.658   6.681   6.886 -0.8653 -0.5034  0.5979
  364MOL0     C50132   5.631   6.530   6.891  0.9724 -0.5306 -0.1663
  364MOL0     C50133   5.551   6.474   6.775 -0.1751 -1.0402 -0.0309
  364MOL0     C50134   5.538   6.323   6.780 -0.2581 -0.3302  0.2280
  364MOL0     C50135   5.456   6.274   6.657 -1.1924  0.3170  0.3174
  364MOL0     C50136   5.449   6.121   6.627  0.1041  0.3481 -0.1430
  364MOL0     C50137   5.377   6.086   6.487  0.3700  0.1304 -0.6194
  364MOL0     C50138   5.231   6.150   6.471 -0.5249  0.0573 -0.1534
  364MOL0    Cl50139   5.114   6.086   6.591  0.4428  0.3388 -0.1704
  364MOL0     C50140   5.768   6.880   6.600 -0.3405 -0.4711  0.2507
  364MOL0     C50141   5.768   7.019   6.557 -0.9932  0.1047 -0.1630
  364MOL0     O50142   5.692   7.275   6.434  0.6219 -0.3827 -0.1718
  364MOL0     C50143   5.742   7.531   6.661 -0.4510  0.4821  0.8185
  364MOL0     C50144   5.747   7.671   6.676 -0.2037 -0.8481  0.0338
  364MOL0     N50145   5.925   8.491   6.617  0.4692  0.1585  0.8410
  364MOL0     N50146   6.025   8.532   6.559  0.0084 -0.1366 -0.1489
  364MOL0     C50147   6.787   9.048   6.068 -0.7825 -0.2898 -0.1590
  364MOL0     C50148   6.721   9.145   5.992 -0.3592 -0.3698 -1.0409
  364MOL0     C50149   6.472   9.404   6.140 -0.3186 -0.2963 -0.2478
  364MOL0     C50150   6.594   9.472   6.168  0.5935  0.5089  1.0378
  364MOL0     C50151   6.625   9.526   6.290  0.5404  0.6593 -0.4112
  364MOL0     C50152   6.535   9.519   6.400 -0.3094 -0.6738  0.7608
  364MOL0     O50153   6.561   9.567   6.520  0.3350 -0.5240  0.1341
  364MOL0     C50154   6.696   9.585   6.549 -0.3269  0.3958  0.7273
  364MOL0     C50155   6.709   9.628   6.695 -0.7967  0.1472 -0.5115
  364MOL0     C50156   6.648   9.763   6.727 -0.2201 -0.4411  0.7791
  364MOL0     C50157   6.723   9.845   6.832  0.0074  0.0886 -0.0138
  364MOL0     C50158   6.851   9.909   6.790 -0.6456  0.4715  0.5137
  364MOL0     C50159   6.944   9.954   6.727  0.3405 -0.1678  0.1114
  364MOL0     C50160   6.406   9.459   6.370  0.2683  0.3494  0.5078
  364MOL0     C50161   6.378   9.400   6.244 -0.1050  0.8851 -0.7436
  364MOL0     C50162   6.240   9.354   6.235 -0.1281 -1.0095 -0.6168
  364MOL0     H50163   6.431   9.130   6.163 -0.4838  0.3601 -0.7495
  364MOL0     H50164   6.536   8.967   6.292  0.6661  1.3012  2.6392
  364MOL0     H50165   6.682   8.879   6.388 -1.4775 -1.9679 -0.1729
  364MOL0     H50166   6.853   8.848   6.440  1.8886  0.8838 -2.0611
  364MOL0     H50167   6.833   8.621   6.318  0.6668  1.4608 -3.3218
  364MOL0     H50168   6.703   8.636   6.436  1.7081 -1.2308  0.7106
  364MOL0     H50169   6.565   8.727   6.251 -1.1599  0.1065 -1.5221
  364MOL0     H50170   6.690   8.703   6.132 -2.6100 -0.2000 -1.6983
  364MOL0     H50171   6.648   8.503   6.104 -0.0258 -1.4799  0.5918
  364MOL0     H50172   6.685   8.451   6.271  0.4004  1.0315  0.5121
  364MOL0     H50173   6.434   8.392   6.197 -0.5614  0.2689 -0.8203
  364MOL0     H50174   6.414   8.569   6.212  0.7162  0.9905  1.7900
  364MOL0     H50175   6.522   8.421   6.443 -0.6506 -1.2297 -0.3669
  364MOL0     H50176   6.480   8.586   6.435  2.0220 -1.5822  1.7817
  364MOL0     H50177   6.294   8.346   6.417 -3.8348 -0.3237  1.6458
  364MOL0     H50178   6.219   8.500   6.373 -0.2151 -0.0991  0.6124
  364MOL0     H50179   6.326   8.440   6.651  1.1431  2.2012  0.4804
  364MOL0     H50180   6.291   8.604   6.587  1.1661  0.9085  2.0616
  364MOL0     H50181   6.150   8.279   6.717  1.8869 -0.3280 -0.9458
  364MOL0     H50182   5.753   8.340   6.725 -0.2863  0.4822  0.5364
  364MOL0     H50183   5.874   8.288   6.843  3.5995 -1.0253 -0.5742
  364MOL0     H50184   5.961   8.121   6.673 -0.0221  0.0048 -1.9032
  364MOL0     H50185   5.810   8.075   6.756  1.2944  0.0811  0.4661
  364MOL0     H50186   5.689   8.149   6.545 -0.2511  0.2757 -3.6684
  364MOL0     H50187   5.834   8.195   6.467 -1.8671  0.3004  0.0484
  364MOL0     H50188   5.755   7.968   6.404  3.6405 -1.4587 -2.2448
  364MOL0     H50189   5.918   7.965   6.461  0.1988 -0.0579  2.6089
  364MOL0     H50190   5.829   7.765   6.352 -0.2712  1.7008  0.2302
  364MOL0     H50191   5.717   7.474   6.237  0.4077 -0.6507 -0.8192
  364MOL0     H50192   5.879   7.412   6.286  1.2137  0.1417 -0.6134
  364MOL0     H50193   5.864   7.572   6.206  1.7852  0.2434  2.0406
  364MOL0     H50194   5.783   7.161   6.864  2.2470 -1.8261  0.4274
  364MOL0     H50195   5.766   6.914   6.924  0.2494  0.6312  0.2263
  364MOL0     H50196   5.700   6.724   6.977  1.4911 -1.2259 -0.0690
  364MOL0     H50197   5.573   6.748   6.875  0.9995  2.6727  3.3829
  364MOL0     H50198   5.724   6.472   6.899  0.2789 -1.4975  1.3589
  364MOL0     H50199   5.586   6.510   6.989 -2.2633  1.4636 -1.0876
  364MOL0     H50200   5.613   6.501   6.689 -1.4623  1.1408 -0.3313
  364MOL0     H50201   5.452   6.522   6.776 -0.7200 -2.0004  3.0221
  364MOL0     H50202   5.492   6.289   6.873  3.1779 -2.1476  1.4325
  364MOL0     H50203   5.638   6.279   6.774  0.3743  1.2090 -3.1404
  364MOL0     H50204   5.351   6.299   6.673 -0.9599  0.5519  1.5791
  364MOL0     H50205   5.497   6.330   6.572 -1.1525 -1.4864 -0.9064
  364MOL0     H50206   5.398   6.063   6.704 -1.5498 -0.5149 -1.8004
  364MOL0     H50207   5.552   6.085   6.627 -0.0928 -1.2020 -6.1442
  364MOL0     H50208   5.378   5.977   6.471  1.9136 -0.1011  0.8529
  364MOL0     H50209   5.442   6.121   6.407 -1.0962  2.4767 -0.8712
  364MOL0     H50210   5.200   6.131   6.368  0.3133  0.1425 -0.4240
  364MOL0     H50211   5.249   6.257   6.487 -0.9852 -0.1908  2.7313
  364MOL0     H50212   5.769   6.804   6.523 -0.7914 -0.2623  0.0352
  364MOL0     H50213   5.777   7.047   6.453 -0.7247 -1.3432 -0.5546
  364MOL0     H50214   5.713   7.472   6.747  2.5387  0.3777  1.8707
  364MOL0     H50215   5.747   7.713   6.776  2.8899  1.7053 -0.8723
  364MOL0     H50216   6.885   9.016   6.035 -0.6626 -0.4615  0.3554
  364MOL0     H50217   6.768   9.210   5.919 -2.7974  4.8098  1.4625
  364MOL0     H50218   6.657   9.490   6.082 -1.4574  0.7542 -0.5021
  364MOL0     H50219   6.720   9.578   6.290  2.4297 -2.5420  0.2205
  364MOL0     H50220   6.744   9.487   6.539 -0.3240  0.4656 -0.0399
  364MOL0     H50221   6.749   9.657   6.486  0.7737 -2.7602 -2.2746
  364MOL0     H50222   6.815   9.636   6.721 -0.2613 -2.4212 -1.6364
  364MOL0     H50223   6.666   9.549   6.757 -0.7521  2.0611  2.1095
  364MOL0     H50224   6.660   9.821   6.635 -0.8082 -1.7703 -0.1731
  364MOL0     H50225   6.544   9.743   6.754 -0.7538  1.8010  0.5620
  364MOL0     H50226   6.730   9.774   6.915  2.2539 -0.0345 -0.2369
  364MOL0     H50227   6.660   9.930   6.861 -1.3997 -0.5040 -1.2101
  364MOL0     H50228   7.029   9.982   6.669  0.7319 -1.4181  0.0418
  364MOL0     H50229   6.326   9.458   6.444  0.8711  2.7444  1.2699
  364MOL0     H50230   6.173   9.440   6.235  1.0969 -0.0100  0.7561
  364MOL0     H50231   6.234   9.295   6.143  3.7578 -1.0706 -0.9822
  364MOL0     H50232   6.205   9.301   6.324  0.5800 -1.2408 -0.4733
  365MOL0     O50233   4.865   0.458   9.880  0.2170  0.1274 -0.5528
  365MOL0     C50234   4.883   0.379   9.786 -1.0403  0.1182  0.8696
  365MOL0     O50235   4.834   0.389   9.659 -0.0696  0.1080 -0.2771
  365MOL0     C50236   4.787   0.502   9.604  0.6365 -0.5163 -0.3231
  365MOL0     C50237   4.657   0.534   9.640 -0.3201 -0.4650 -0.0870
  365MOL0     C50238   4.602   0.650   9.599  0.6805  0.1555 -0.2983
  365MOL0     C50239   4.672   0.731   9.503  0.6928  0.3176  0.1298
  365MOL0     O50240   4.597   0.827   9.445 -0.1889  0.5071  0.4339
  365MOL0     C50241   4.587   0.943   9.529  0.5836  0.4026  0.8122
  365MOL0     C50242   4.459   1.022   9.496 -0.7524 -0.0770  0.0453
  365MOL0     C50243   4.339   0.937   9.461 -0.1414  0.3226 -0.2790
  365MOL0     C50244   4.201   1.020   9.478 -0.5225 -0.1008 -0.6235
  365MOL0     C50245   4.091   0.924   9.479 -0.4070  0.3099  0.7217
  365MOL0     C50246   4.080   0.825   9.351  0.1114 -0.0729  0.0761
  365MOL0     C50247   3.938   0.764   9.354 -0.8874  0.7381  0.6690
  365MOL0     C50248   3.927   0.664   9.233 -0.2194 -0.1064  0.2334
  365MOL0     N50249   3.905   0.722   9.099  0.0341 -0.6547  0.4416
  365MOL0     C50250   3.987   0.678   8.996  0.6552 -0.8022 -0.4195
  365MOL0     C50251   3.922   0.726   8.883  0.1936  0.5274 -0.8801
  365MOL0     C50252   3.969   0.684   8.737  0.5711 -0.8236 -0.2289
  365MOL0     C50253   4.021   0.800   8.666  0.1120  0.7193  0.8354
  365MOL0     C50254   4.053   0.755   8.517 -0.0953  0.2539 -0.2418
  365MOL0     C50255   4.114   0.875   8.438 -0.4984 -0.5986  0.3975
  365MOL0     O50256   4.169   0.813   8.321  0.5658  0.8551 -0.2733
  365MOL0     C50257   4.113   0.843   8.192 -0.3125  0.2826 -0.0936
  365MOL0     C50258   4.203   0.830   8.083 -0.0430  0.4594 -0.6005
  365MOL0     C50259   4.152   0.837   7.949 -0.3988  0.7861 -0.2399
  365MOL0     C50260   4.250   0.790   7.845  0.1095  0.2052  0.4133
  365MOL0     C50261   4.024   0.886   7.911 -0.4011  0.0513  0.5879
  365MOL0     C50262   3.978   0.933   7.781  0.7384  0.1038 -0.5970
  365MOL0     O50263   3.855   1.001   7.785  0.7124  0.3731  0.7284
  365MOL0     C50264   3.823   1.088   7.685  0.5956  0.3574 -0.3975
  365MOL0     C50265   3.688   1.108   7.662 -0.3970 -0.0308  0.0353
  365MOL0     C50266   3.658   1.192   7.560  0.1215 -1.5004 -0.2300
  365MOL0     C50267   3.751   1.266   7.474  0.3459  0.1664  0.6674
  365MOL0     O50268   3.690   1.346   7.374 -0.9869  0.3341  0.0022
  365MOL0     C50269   3.774   1.411   7.283  0.1286 -0.9770 -0.5448
  365MOL0     C50270   3.689   1.455   7.168 -0.5304 -0.4182 -0.6719
  365MOL0     C50271   3.541   1.473   7.209  1.5723 -0.1335 -0.1335
  365MOL0     C50272   3.450   1.522   7.091  0.2280 -0.9070 -0.3202
  365MOL0     C50273   3.306   1.538   7.131  0.4801  0.5609 -0.0230
  365MOL0     C50274   3.227   1.634   7.029 -0.2214 -0.6485 -0.2629
  365MOL0     C50275   3.098   1.671   7.090  1.9237 -0.6033  0.1835
  365MOL0     C50276   3.006   1.756   7.002  0.3445  0.1262  0.4924
  365MOL0    Cl50277   2.855   1.775   7.085 -0.0766 -0.3263  0.2591
  365MOL0     C50278   3.885   1.252   7.500 -0.0203 -0.5551 -0.7303
  365MOL0     C50279   3.921   1.160   7.605  0.3502 -0.0590  0.4829
  365MOL0     O50280   4.035   0.910   7.679  0.4102 -0.2938  0.7437
  365MOL0     C50281   3.938   0.909   8.033 -0.9049  0.3834  1.0814
  365MOL0     C50282   3.976   0.885   8.166 -0.0315 -0.2497 -0.3364
  365MOL0     N50283   3.812   0.799   8.919  0.2324  0.5039  0.4691
  365MOL0     N50284   3.812   0.801   9.048 -0.5256 -0.7510  0.7902
  365MOL0     C50285   4.797   0.705   9.459 -0.3938  0.1248 -0.4269
  365MOL0     C50286   4.866   0.589   9.518 -0.4086  0.2044  0.5439
  365MOL0     C50287   4.990   0.272   9.801  0.9965 -0.2001  0.4813
  365MOL0     C50288   5.033   0.194   9.690 -0.7380  0.0255  0.3358
  365MOL0     C50289   5.127   0.095   9.700 -0.4553  0.4020 -0.9733
  365MOL0     C50290   5.174   0.057   9.828 -0.3144  0.2087  0.5399
  365MOL0     O50291   5.261  -0.046   9.854  0.6533  0.7331 -0.3645
  365MOL0     C50292   5.304  -0.130   9.747 -0.1395  0.0624 -0.3074
  365MOL0     C50293   5.203  -0.227   9.689  0.2671  0.7057 -0.4944
  365MOL0     C50294   5.157  -0.341   9.782  0.1964  0.4846  0.4364
  365MOL0     C50295   5.271  -0.418   9.841 -0.4795 -0.0769 -1.0988
  365MOL0     C50296   5.238  -0.549   9.881 -0.0178 -0.8611 -0.1961
  365MOL0     C50297   5.193  -0.660   9.911 -0.1820  0.3876 -0.1054
  365MOL0     C50298   5.140   0.143   9.936  0.1823 -0.7577  0.9320
  365MOL0     C50299   5.052   0.248   9.925  0.3108 -0.7145  0.6122
  365MOL0     C50300   5.020   0.316  10.061  0.7681 -0.1332 -0.1840
  365MOL0     H50301   4.595   0.467   9.698 -0.9128  0.4144  0.3279
  365MOL0     H50302   4.509   0.684   9.646  2.2366  1.4976  2.0109
  365MOL0     H50303   4.683   0.996   9.526 -1.3190  4.1121 -1.2888
  365MOL0     H50304   4.573   0.921   9.635 -1.3663 -0.3928  0.4219
  365MOL0     H50305   4.460   1.073   9.592  0.8273  0.2823 -0.1351
  365MOL0     H50306   4.484   1.093   9.416  0.5559 -3.4847 -2.8490
  365MOL0     H50307   4.351   0.877   9.371 -0.1763 -0.3432  0.1561
  365MOL0     H50308   4.345   0.856   9.534  0.3628 -0.6982 -1.4085
  365MOL0     H50309   4.208   1.078   9.570 -2.3054  1.3624 -1.3495
  365MOL0     H50310   4.185   1.088   9.394  0.6339  1.4119  0.3386
  365MOL0     H50311   3.999   0.981   9.492  0.1137  1.2086  0.5532
  365MOL0     H50312   4.105   0.861   9.568 -0.1196 -0.5658  0.0648
  365MOL0     H50313   4.097   0.876   9.255 -0.7539  2.8960  1.3707
  365MOL0     H50314   4.150   0.742   9.361  0.9352  0.2931 -2.0514
  365MOL0     H50315   3.856   0.836   9.344 -2.1369 -0.7737 -0.6502
  365MOL0     H50316   3.914   0.718   9.450  0.5251 -1.4244  0.0540
  365MOL0     H50317   4.017   0.603   9.228 -0.5337 -0.4923 -1.1117
  365MOL0     H50318   3.846   0.595   9.255 -0.5724 -0.5956 -2.3189
  365MOL0     H50319   4.077   0.618   9.000  1.5637  0.5615  1.0346
  365MOL0     H50320   3.881   0.649   8.683 -0.4166 -1.0485  1.4576
  365MOL0     H50321   4.035   0.597   8.740  1.3092 -0.2705 -0.2383
  365MOL0     H50322   3.950   0.883   8.669  2.9657  3.3764  0.0625
  365MOL0     H50323   4.108   0.833   8.724  1.3458  2.2445 -1.6938
  365MOL0     H50324   4.121   0.670   8.529  0.3991  0.8734  1.7758
  365MOL0     H50325   3.965   0.717   8.465 -1.6381  0.4802  2.0527
  365MOL0     H50326   4.035   0.947   8.415 -0.2276  0.7625  3.3249
  365MOL0     H50327   4.194   0.923   8.496 -1.0145  1.0691 -0.2244
  365MOL0     H50328   4.305   0.802   8.108  0.6626  2.6617 -0.7981
  365MOL0     H50329   4.213   0.701   7.793  1.2657  0.3083 -0.6566
  365MOL0     H50330   4.345   0.765   7.895 -0.2000  0.8543  1.3437
  365MOL0     H50331   4.276   0.868   7.772 -0.1109 -1.1887 -1.2323
  365MOL0     H50332   3.626   1.048   7.728  1.4731 -1.4221  0.6046
  365MOL0     H50333   3.552   1.212   7.551 -0.0622 -2.4510 -0.1769
  365MOL0     H50334   3.809   1.504   7.328 -3.0764  1.3659 -2.4331
  365MOL0     H50335   3.856   1.343   7.259 -1.0824 -2.6317 -0.1347
  365MOL0     H50336   3.731   1.535   7.106  0.0030 -1.8824 -2.2882
  365MOL0     H50337   3.692   1.374   7.095 -2.0004  0.0476 -1.2966
  365MOL0     H50338   3.537   1.549   7.287  2.1513 -0.2758  0.0435
  365MOL0     H50339   3.489   1.383   7.242  2.1937 -0.1217  0.9357
  365MOL0     H50340   3.454   1.449   7.011 -1.0014  1.9816 -3.2363
  365MOL0     H50341   3.482   1.618   7.050 -0.9988  0.2095  1.1795
  365MOL0     H50342   3.253   1.442   7.136  3.0894 -0.9550  0.7241
  365MOL0     H50343   3.310   1.577   7.233  2.0035  1.5221 -0.4182
  365MOL0     H50344   3.211   1.575   6.938  1.6122  1.0148 -1.7632
  365MOL0     H50345   3.289   1.714   6.986  1.2995 -1.9126 -0.5034
  365MOL0     H50346   3.123   1.737   7.174  1.7768 -0.7131  0.3136
  365MOL0     H50347   3.045   1.582   7.126 -2.4097  1.5147 -0.2969
  365MOL0     H50348   2.987   1.701   6.909  0.7239  1.2716 -0.2863
  365MOL0     H50349   3.048   1.853   6.974  0.0727  0.2058  0.3667
  365MOL0     H50350   3.969   1.294   7.445  0.0311  1.8160  1.0141
  365MOL0     H50351   4.025   1.129   7.619 -0.2888 -2.0827  1.1031
  365MOL0     H50352   3.833   0.936   8.029 -1.2397 -0.9400 -1.1708
  365MOL0     H50353   3.893   0.906   8.233 -3.1161 -1.4214 -3.4481
  365MOL0     H50354   4.833   0.767   9.378 -0.8916 -0.3742 -1.0447
  365MOL0     H50355   4.953   0.551   9.466 -1.5124  0.1192 -1.3238
  365MOL0     H50356   4.990   0.208   9.591 -1.4686 -1.5234  0.3932
  365MOL0     H50357   5.163   0.046   9.610  1.4970  1.5914 -0.8855
  365MOL0     H50358   5.329  -0.058   9.669  1.7988  0.0689  0.2849
  365MOL0     H50359   5.398  -0.174   9.781  0.1970  1.4408  0.6244
  365MOL0     H50360   5.252  -0.275   9.603  2.7401  0.1819  1.1022
  365MOL0     H50361   5.115  -0.178   9.646  0.8415  2.3375  0.1280
  365MOL0     H50362   5.099  -0.302   9.866 -1.4891  0.8343 -0.8227
  365MOL0     H50363   5.091  -0.399   9.716 -0.0158  1.3484 -0.1315
  365MOL0     H50364   5.302  -0.364   9.931  0.2506 -3.1636  0.6653
  365MOL0     H50365   5.359  -0.430   9.776 -0.7076  2.7590 -2.0720
  365MOL0     H50366   5.151  -0.756   9.934 -0.5611  0.1956 -1.5011
  365MOL0     H50367   5.190   0.117  10.029  3.4733 -0.4395 -0.6158
  365MOL0     H50368   5.072   0.412  10.051  0.4564  0.0162 -0.3939
  365MOL0     H50369   4.911   0.312  10.068  0.8237  0.1910  0.9729
  365MOL0     H50370   5.066   0.263  10.145  0.3886 -1.6297 -0.8933
  366MOL0     O50371   1.614   6.818  10.376  0.6399  0.2938 -0.2117
  366MOL0     C50372   1.673   6.919  10.337 -0.0076  0.1085 -0.1965
  366MOL0     O50373   1.618   7.000  10.237 -0.0426  0.4266  0.0595
  366MOL0     C50374   1.508   6.954  10.166 -0.1879  0.9355 -0.0256
  366MOL0     C50375   1.387   6.895  10.218  0.7244 -0.6039  0.1852
  366MOL0     C50376   1.286   6.859  10.130 -0.2253  0.5477 -0.1044
  366MOL0     C50377   1.308   6.868   9.989 -0.9626 -0.1640 -0.2762
  366MOL0     O50378   1.205   6.815   9.910  0.5797  0.3663 -0.1989
  366MOL0     C50379   1.213   6.781   9.772 -0.2523  0.2265  0.8662
  366MOL0     C50380   1.181   6.634   9.748 -0.0059 -0.7948  0.1399
  366MOL0     C50381   1.301   6.544   9.802 -0.5698 -0.1099 -0.3910
  366MOL0     C50382   1.296   6.395   9.767  0.1263  1.1272 -0.5436
  366MOL0     C50383   1.432   6.328   9.785  0.4277  0.6811 -0.5136
  366MOL0     C50384   1.526   6.337   9.664  0.0454  0.1530 -0.5805
  366MOL0     C50385   1.640   6.243   9.703 -0.0926  0.0202  0.1108
  366MOL0     C50386   1.762   6.237   9.611 -0.0460  0.3705  0.2426
  366MOL0     N50387   1.851   6.354   9.607  0.8176 -0.3863  0.7858
  366MOL0     C50388   1.977   6.359   9.669 -0.0256  0.4583 -0.3175
  366MOL0     C50389   2.026   6.471   9.619 -0.4753 -0.9847  0.0376
  366MOL0     C50390   2.160   6.529   9.653  0.0843  0.5157 -0.5291
  366MOL0     C50391   2.184   6.667   9.589  0.0038  1.3536  0.4428
  366MOL0     C50392   2.259   6.749   9.693  0.0461 -1.2415 -0.7569
  366MOL0     C50393   2.290   6.888   9.644  0.1528  0.4153 -0.0418
  366MOL0     O50394   2.383   6.892   9.538 -0.1742  0.2152 -0.3866
  366MOL0     C50395   2.507   6.829   9.564  0.3748  0.1860  0.2149
  366MOL0     C50396   2.579   6.838   9.683  0.8210  0.1443  0.5082
  366MOL0     C50397   2.714   6.799   9.699  0.2562  0.1493  0.5534
  366MOL0     C50398   2.759   6.814   9.840 -0.8161  0.2373  0.2681
  366MOL0     C50399   2.781   6.757   9.584 -0.0812  1.0586 -0.3716
  366MOL0     C50400   2.937   6.737   9.575  0.2661  0.7205  0.6676
  366MOL0     O50401   2.998   6.756   9.448 -1.2251  0.4427 -0.1772
  366MOL0     C50402   3.126   6.702   9.436  0.0751  0.1326 -0.1834
  366MOL0     C50403   3.233   6.791   9.460  0.2377  0.5257  0.0182
  366MOL0     C50404   3.349   6.733   9.450 -0.5145 -0.3798 -0.6484
  366MOL0     C50405   3.383   6.599   9.400 -0.6724  0.5765 -0.0850
  366MOL0     O50406   3.511   6.551   9.388  0.0317  0.2422  0.0709
  366MOL0     C50407   3.582   6.629   9.286 -0.9705  0.3468 -0.3910
  366MOL0     C50408   3.709   6.558   9.223  0.5543 -0.3875 -0.6371
  366MOL0     C50409   3.662   6.466   9.113 -0.2903 -0.1085 -0.8113
  366MOL0     C50410   3.730   6.471   8.978 -0.2779  0.0206 -0.0345
  366MOL0     C50411   3.692   6.352   8.888  0.1024  0.1022  0.6669
  366MOL0     C50412   3.706   6.370   8.733  0.2596  0.0296  0.6488
  366MOL0     C50413   3.824   6.456   8.690  0.1282  0.1219 -0.1700
  366MOL0     C50414   3.881   6.407   8.558 -0.0562 -0.1240  0.5590
  366MOL0    Cl50415   4.014   6.511   8.503 -0.2931 -0.4396 -0.2234
  366MOL0     C50416   3.275   6.517   9.389  1.4497 -1.1635 -0.6433
  366MOL0     C50417   3.144   6.565   9.401 -0.5730  0.6295 -0.3386
  366MOL0     O50418   2.988   6.687   9.673 -0.2763  0.1814 -0.9540
  366MOL0     C50419   2.709   6.745   9.463  0.0370 -0.5876 -0.2415
  366MOL0     C50420   2.577   6.784   9.455  1.2900  1.2369  0.1608
  366MOL0     N50421   1.936   6.534   9.534  0.3905  0.4120  0.1260
  366MOL0     N50422   1.830   6.463   9.531 -0.1907 -0.5683  0.0349
  366MOL0     C50423   1.428   6.925   9.945 -0.2696 -0.2094  0.9431
  366MOL0     C50424   1.524   6.966  10.024  0.0574 -0.7384 -0.5138
  366MOL0     C50425   1.808   6.961  10.399  0.1907  0.1046  0.1455
  366MOL0     C50426   1.874   7.069  10.339 -0.7055 -0.0026 -0.1756
  366MOL0     C50427   1.996   7.106  10.402 -0.4364  0.6418  0.1554
  366MOL0     C50428   2.037   7.054  10.520  0.7534 -0.1910 -0.0160
  366MOL0     O50429   2.155   7.092  10.587 -0.8007  0.4240  0.6136
  366MOL0     C50430   2.251   7.001  10.641  0.5706  1.5806  0.1068
  366MOL0     C50431   2.401   7.033  10.613  0.3147 -0.8830  0.1308
  366MOL0     C50432   2.428   7.172  10.666 -0.0654  0.1039 -0.1092
  366MOL0     C50433   2.581   7.208  10.634  0.2402 -0.4445 -0.4705
  366MOL0     C50434   2.620   7.347  10.648  0.5408  0.9852  0.3445
  366MOL0     C50435   2.619   7.466  10.657 -0.4481  0.2051  0.6970
  366MOL0     C50436   1.963   6.957  10.576 -0.2697  0.2912  0.1246
  366MOL0     C50437   1.856   6.908  10.516  0.9042  0.6518  0.1729
  366MOL0     C50438   1.786   6.792  10.575 -0.7327  0.1336  0.0587
  366MOL0     H50439   1.369   6.885  10.324  0.1908  0.0236  0.1641
  366MOL0     H50440   1.201   6.817  10.183 -1.1717  0.6383 -1.4940
  366MOL0     H50441   1.313   6.803   9.734 -1.9885  1.3942 -3.7592
  366MOL0     H50442   1.149   6.844   9.709  0.1516  0.5173  0.7370
  366MOL0     H50443   1.092   6.602   9.802 -0.0625  2.0707  1.9686
  366MOL0     H50444   1.171   6.602   9.644 -0.2731 -1.0603  0.2465
  366MOL0     H50445   1.399   6.586   9.779 -1.7038  1.2944 -3.1026
  366MOL0     H50446   1.312   6.559   9.910 -1.4231  1.4368 -0.4902
  366MOL0     H50447   1.226   6.334   9.825  0.9755 -1.9305 -2.4881
  366MOL0     H50448   1.264   6.379   9.663  3.7673 -1.4684 -1.4458
  366MOL0     H50449   1.411   6.223   9.807  1.7892  0.7292  1.1434
  366MOL0     H50450   1.482   6.370   9.873  1.1671 -1.2379  0.0313
  366MOL0     H50451   1.481   6.303   9.570  2.7998 -1.6628 -1.3915
  366MOL0     H50452   1.557   6.440   9.646 -1.8965  0.7230 -0.8068
  366MOL0     H50453   1.599   6.145   9.727  0.1660  0.4226  2.3881
  366MOL0     H50454   1.685   6.276   9.797  1.2303  2.7809 -1.3572
  366MOL0     H50455   1.816   6.151   9.651 -1.8999 -0.6396  0.6551
  366MOL0     H50456   1.732   6.204   9.511 -1.0218  0.6635  0.4350
  366MOL0     H50457   2.026   6.280   9.727 -1.3597 -1.5723 -1.8163
  366MOL0     H50458   2.242   6.457   9.642 -2.2828 -2.4970  0.2829
  366MOL0     H50459   2.159   6.548   9.761  2.2510  2.5915 -0.8029
  366MOL0     H50460   2.246   6.648   9.500  1.8747 -0.0302  1.9402
  366MOL0     H50461   2.093   6.715   9.553 -0.3660 -0.8105 -1.8690
  366MOL0     H50462   2.191   6.754   9.779  0.0301 -2.7089 -0.6491
  366MOL0     H50463   2.359   6.714   9.721  1.4767  2.1695 -1.1311
  366MOL0     H50464   2.195   6.926   9.605  0.5200 -0.8372 -2.3438
  366MOL0     H50465   2.311   6.954   9.729 -0.5573 -0.6894  1.0267
  366MOL0     H50466   2.524   6.887   9.762 -0.6310  0.1556 -0.4835
  366MOL0     H50467   2.688   6.863   9.907 -0.1254  1.1725  0.3317
  366MOL0     H50468   2.842   6.884   9.857  2.5023 -3.1346 -0.6067
  366MOL0     H50469   2.789   6.716   9.879 -2.4631 -1.7450 -2.9935
  366MOL0     H50470   3.217   6.888   9.506 -2.2324 -1.1766  3.1946
  366MOL0     H50471   3.431   6.790   9.494  0.5430 -3.2331  1.4043
  366MOL0     H50472   3.514   6.661   9.207 -1.5433  0.8068  0.2723
  366MOL0     H50473   3.624   6.714   9.342 -2.5400  0.8137  0.1147
  366MOL0     H50474   3.764   6.639   9.173  1.2872  0.1516  0.9686
  366MOL0     H50475   3.772   6.507   9.297 -0.6497 -0.6202  0.2519
  366MOL0     H50476   3.553   6.455   9.109 -0.3507 -0.5213  1.2114
  366MOL0     H50477   3.684   6.362   9.139 -0.1663 -0.2183 -1.3406
  366MOL0     H50478   3.839   6.463   8.982 -0.2934  0.1086  0.5768
  366MOL0     H50479   3.715   6.563   8.921  2.1389 -0.5781 -1.8258
  366MOL0     H50480   3.758   6.274   8.927 -1.7156 -1.7529  0.2257
  366MOL0     H50481   3.591   6.316   8.914 -1.9884  3.6151 -1.7435
  366MOL0     H50482   3.616   6.416   8.692  0.5872  2.0439  2.0550
  366MOL0     H50483   3.706   6.268   8.693  1.8431 -1.6860  4.4208
  366MOL0     H50484   3.904   6.455   8.765  1.8020 -0.0560 -1.8750
  366MOL0     H50485   3.794   6.559   8.669 -0.2457 -0.1801 -1.1453
  366MOL0     H50486   3.804   6.397   8.481 -0.5187 -0.2888  1.0384
  366MOL0     H50487   3.930   6.311   8.579 -0.6934 -0.2203  1.6857
  366MOL0     H50488   3.289   6.414   9.360 -1.6176 -2.0964  0.7793
  366MOL0     H50489   3.075   6.486   9.374 -1.5818  1.1424  0.6636
  366MOL0     H50490   2.753   6.717   9.368  0.4385  0.5422 -0.4042
  366MOL0     H50491   2.535   6.781   9.355  0.0719 -1.5942  0.6831
  366MOL0     H50492   1.440   6.939   9.838 -0.1706  1.7916  1.1808
  366MOL0     H50493   1.614   7.008   9.981  0.0363  2.7906  2.3654
  366MOL0     H50494   1.840   7.117  10.248  1.1900 -3.2135 -2.8129
  366MOL0     H50495   2.064   7.182  10.363 -0.1284 -1.2862 -3.5415
  366MOL0     H50496   2.228   6.986  10.746  1.9357  1.6905  0.4442
  366MOL0     H50497   2.243   6.901  10.596 -0.3188  1.8202 -0.2812
  366MOL0     H50498   2.427   7.034  10.507 -0.2955  3.9406 -0.1891
  366MOL0     H50499   2.464   6.964  10.668  0.0930 -0.9203  0.3396
  366MOL0     H50500   2.354   7.240  10.624  1.6198  0.8821 -2.0409
  366MOL0     H50501   2.422   7.175  10.775  2.2418 -0.6988  0.1040
  366MOL0     H50502   2.606   7.190  10.529 -3.4378  1.4919 -1.8494
  366MOL0     H50503   2.645   7.148  10.700  2.6833  0.4836 -1.8632
  366MOL0     H50504   2.631   7.572  10.654 -2.6670  0.4869 -0.6174
  366MOL0     H50505   1.984   6.917  10.675  0.5533  1.4376  0.4241
  366MOL0     H50506   1.783   6.705  10.509 -1.6430  2.5935 -3.4100
  366MOL0     H50507   1.833   6.765  10.670 -0.0027 -1.4920 -0.7297
  366MOL0     H50508   1.685   6.818  10.610 -0.7672  1.4811 -0.9894
  367MOL0     O50509   5.882   7.232  10.595  0.2664  0.1417  0.1923
  367MOL0     C50510   5.805   7.328  10.574  0.0003  0.0738  0.1189
  367MOL0     O50511   5.696   7.331  10.481  0.3957  0.2304  0.3552
  367MOL0     C50512   5.646   7.201  10.463 -1.1268  0.1667  0.7812
  367MOL0     C50513   5.651   7.158  10.326 -0.7549  0.0503 -0.3783
  367MOL0     C50514   5.597   7.036  10.294  0.2101  0.5589  0.3686
  367MOL0     C50515   5.540   6.948  10.381 -0.1734  0.3733 -0.4264
  367MOL0     O50516   5.495   6.821  10.339 -0.5732  0.4451 -0.3433
  367MOL0     C50517   5.513   6.766  10.202  0.4824  0.0508 -0.6905
  367MOL0     C50518   5.497   6.620  10.223 -0.4589 -0.2057 -0.6619
  367MOL0     C50519   5.525   6.533  10.091  0.0437 -0.9695  0.8692
  367MOL0     C50520   5.459   6.399  10.099  0.2466  0.6173 -0.0588
  367MOL0     C50521   5.469   6.335   9.963  0.7345 -1.0443 -0.4468
  367MOL0     C50522   5.396   6.197   9.971 -0.6353 -0.1034  0.8352
  367MOL0     C50523   5.369   6.126   9.833  0.2028 -0.5148  0.1986
  367MOL0     C50524   5.507   6.090   9.782  0.9970  0.5617  0.3379
  367MOL0     N50525   5.500   5.993   9.665  1.0369 -0.1663  0.6889
  367MOL0     C50526   5.557   6.017   9.545 -0.3128 -0.7714 -0.3380
  367MOL0     C50527   5.486   5.940   9.460  0.6459  0.5554 -0.3728
  367MOL0     C50528   5.501   5.952   9.312 -1.1592  0.1118  0.7897
  367MOL0     C50529   5.423   6.081   9.262 -0.4196  0.9967  0.1869
  367MOL0     C50530   5.394   6.059   9.113 -0.1200  0.6032 -0.0708
  367MOL0     C50531   5.277   6.147   9.053 -0.6079 -0.7519 -0.5073
  367MOL0     O50532   5.332   6.282   9.077 -0.7622  0.1940  1.2634
  367MOL0     C50533   5.242   6.374   9.118 -0.2377 -0.5784  0.1682
  367MOL0     C50534   5.104   6.388   9.078 -0.0047  0.1776 -0.7844
  367MOL0     C50535   5.027   6.501   9.111 -0.0527  0.3075  0.9578
  367MOL0     C50536   4.884   6.510   9.057 -0.4838 -0.4112 -1.6309
  367MOL0     C50537   5.091   6.600   9.192 -0.4064 -0.1105 -0.6912
  367MOL0     C50538   5.018   6.717   9.242  0.2785  0.4047 -1.6953
  367MOL0     O50539   5.041   6.751   9.368 -0.4899  0.1795  0.0222
  367MOL0     C50540   4.955   6.833   9.437 -0.3061  0.4224 -0.0806
  367MOL0     C50541   4.819   6.860   9.415  0.6396  0.1363 -0.1587
  367MOL0     C50542   4.747   6.942   9.509 -0.4822  0.1757  1.0175
  367MOL0     C50543   4.809   7.003   9.616 -1.0186 -0.0997 -0.3506
  367MOL0     O50544   4.729   7.074   9.704  0.2052  0.3738  0.0345
  367MOL0     C50545   4.663   7.008   9.814 -0.3249 -0.0565  0.0011
  367MOL0     C50546   4.645   7.111   9.935 -0.8926  0.0628 -0.1092
  367MOL0     C50547   4.514   7.187   9.927  0.4946  0.1936  0.1868
  367MOL0     C50548   4.539   7.320   9.847  1.0813  0.6894 -0.6133
  367MOL0     C50549   4.403   7.395   9.822  0.0332 -0.0935 -0.7092
  367MOL0     C50550   4.315   7.328   9.710 -0.1206  0.0451  0.1064
  367MOL0     C50551   4.179   7.398   9.712  1.1816  0.5247  0.5987
  367MOL0     C50552   4.115   7.342   9.595 -0.0851 -0.8493 -0.0587
  367MOL0    Cl50553   3.956   7.404   9.585  0.4535 -0.0784  0.1518
  367MOL0     C50554   4.951   6.986   9.633  0.1515 -0.7982  0.5885
  367MOL0     C50555   5.018   6.895   9.542 -0.7055 -0.7855  0.7892
  367MOL0     O50556   4.936   6.768   9.171  0.2938 -0.4928 -0.0943
  367MOL0     C50557   5.218   6.583   9.245 -0.0385  0.4246 -0.2624
  367MOL0     C50558   5.290   6.466   9.208 -0.0650 -0.1405  0.4790
  367MOL0     N50559   5.399   5.857   9.526 -0.1680 -1.0043 -0.3833
  367MOL0     N50560   5.405   5.889   9.644 -0.2676  1.0087  0.5353
  367MOL0     C50561   5.539   6.983  10.518  0.1800 -0.9216 -0.0095
  367MOL0     C50562   5.592   7.110  10.558  0.1101 -0.8209  0.4312
  367MOL0     C50563   5.843   7.455  10.633 -0.3059  0.8356  0.1845
  367MOL0     C50564   5.861   7.485  10.772 -0.1201  0.4922  0.1547
  367MOL0     C50565   5.903   7.618  10.808  0.1646  0.6169 -0.8486
  367MOL0     C50566   5.912   7.720  10.713  0.9563  0.3171  0.2737
  367MOL0     O50567   5.953   7.845  10.752 -0.2067  0.3091  0.2575
  367MOL0     C50568   5.871   7.952  10.793  0.1703 -0.0727 -0.2293
  367MOL0     C50569   5.810   8.009  10.667  0.4202 -1.0736  0.8203
  367MOL0     C50570   5.914   8.090  10.576 -0.5063  0.0641 -0.4411
  367MOL0     C50571   5.853   8.169  10.457 -0.7924  1.0066  0.7440
  367MOL0     C50572   5.772   8.088  10.370 -0.1753 -0.5114  0.7151
  367MOL0     C50573   5.696   8.024  10.298  0.0430 -0.5572  0.2271
  367MOL0     C50574   5.875   7.697  10.582  0.1661 -0.2581 -0.1587
  367MOL0     C50575   5.855   7.569  10.546  0.6645  0.6014 -0.1522
  367MOL0     C50576   5.852   7.550  10.397 -0.3525 -0.1544 -0.5906
  367MOL0     H50577   5.700   7.218  10.251  1.7618 -0.7248  0.5220
  367MOL0     H50578   5.602   7.002  10.191 -1.3366 -1.1001  0.7951
  367MOL0     H50579   5.613   6.783  10.162  0.4443 -3.1821 -2.4963
  367MOL0     H50580   5.438   6.806  10.133 -1.2706 -0.7098  0.6869
  367MOL0     H50581   5.576   6.587  10.291 -0.2423  3.4235  1.0684
  367MOL0     H50582   5.402   6.599  10.272 -1.9495  3.6494 -1.5012
  367MOL0     H50583   5.486   6.589  10.005 -1.5858 -2.9003  0.2794
  367MOL0     H50584   5.634   6.536  10.094  0.0520  0.9061  0.1266
  367MOL0     H50585   5.502   6.343  10.183 -3.7069 -1.3469  0.8805
  367MOL0     H50586   5.353   6.418  10.114 -0.1410  0.1365 -1.9484
  367MOL0     H50587   5.577   6.329   9.947  1.4415  0.8908  2.7636
  367MOL0     H50588   5.428   6.403   9.888 -0.0946 -0.3602  0.5992
  367MOL0     H50589   5.443   6.122  10.035  2.4482  0.6065 -0.4024
  367MOL0     H50590   5.300   6.214  10.021 -0.3156  0.6882  1.1969
  367MOL0     H50591   5.308   6.201   9.782  0.6007  1.6139  2.6156
  367MOL0     H50592   5.316   6.031   9.846  0.8062 -0.6746  1.7586
  367MOL0     H50593   5.564   6.180   9.755 -0.5456  1.1011 -1.3187
  367MOL0     H50594   5.558   6.040   9.865 -2.9039 -1.2338  1.9094
  367MOL0     H50595   5.638   6.086   9.527 -0.2884 -0.7887 -0.2913
  367MOL0     H50596   5.456   5.863   9.268  2.7838 -3.1372  2.6253
  367MOL0     H50597   5.605   5.958   9.277 -1.0236  1.0522  1.3135
  367MOL0     H50598   5.330   6.087   9.320 -0.7205 -0.0503 -0.1603
  367MOL0     H50599   5.478   6.171   9.288  1.9568 -1.7272  6.9075
  367MOL0     H50600   5.483   6.057   9.049 -0.9001 -2.9815 -1.2741
  367MOL0     H50601   5.357   5.958   9.095 -1.7845  1.1848 -0.0851
  367MOL0     H50602   5.246   6.133   8.949 -1.0976 -2.1023 -0.1992
  367MOL0     H50603   5.191   6.135   9.120  0.5431  0.4743  1.2678
  367MOL0     H50604   5.065   6.312   9.011 -1.0287  0.9821 -1.1301
  367MOL0     H50605   4.837   6.420   9.015 -3.9935  0.0903  0.7402
  367MOL0     H50606   4.879   6.587   8.980  2.9696  1.8861  0.1609
  367MOL0     H50607   4.819   6.545   9.138  1.1285 -1.1038  0.0689
  367MOL0     H50608   4.764   6.809   9.337 -1.8308  1.9111  0.3039
  367MOL0     H50609   4.642   6.959   9.489 -0.0342 -0.7313 -2.8003
  367MOL0     H50610   4.566   6.966   9.784  1.3385 -4.4718  0.0986
  367MOL0     H50611   4.733   6.927   9.834  1.6334  0.9171 -2.3964
  367MOL0     H50612   4.648   7.053  10.027  1.1889  1.0020  0.4811
  367MOL0     H50613   4.736   7.170   9.918  0.1809 -2.1837 -3.3773
  367MOL0     H50614   4.483   7.219  10.027 -2.2522  1.6798 -1.0488
  367MOL0     H50615   4.430   7.129   9.888 -1.6342  2.0938  1.6912
  367MOL0     H50616   4.589   7.296   9.752 -1.0397 -1.3065 -1.3192
  367MOL0     H50617   4.601   7.389   9.906 -1.4938  1.6709  1.0814
  367MOL0     H50618   4.350   7.413   9.916 -0.8513  1.3080 -1.4413
  367MOL0     H50619   4.417   7.497   9.786  0.8091 -0.2175 -0.7865
  367MOL0     H50620   4.294   7.225   9.740 -2.7491 -0.0415 -1.7458
  367MOL0     H50621   4.359   7.331   9.610 -0.1044  0.2131  0.1197
  367MOL0     H50622   4.184   7.507   9.703  2.1969  1.0046  4.7367
  367MOL0     H50623   4.128   7.372   9.806  1.8540 -1.6455  0.4201
  367MOL0     H50624   4.115   7.232   9.593 -0.9981 -0.8579 -1.6658
  367MOL0     H50625   4.176   7.367   9.507 -1.1694 -3.7904 -1.8271
  367MOL0     H50626   4.998   7.008   9.729 -2.9016  0.8723  1.8424
  367MOL0     H50627   5.123   6.873   9.550 -0.5025 -0.0680  0.2843
  367MOL0     H50628   5.251   6.648   9.325 -0.7441 -1.9493  2.1155
  367MOL0     H50629   5.386   6.448   9.255 -0.5064 -2.4398  0.6138
  367MOL0     H50630   5.499   6.924  10.600 -2.4286  2.3926  1.3474
  367MOL0     H50631   5.607   7.138  10.662 -0.8330 -0.0559  0.3737
  367MOL0     H50632   5.848   7.401  10.840 -2.6347  0.3792 -0.3814
  367MOL0     H50633   5.915   7.648  10.912  1.0704  2.6895 -1.4839
  367MOL0     H50634   5.799   7.920  10.869 -0.1962  0.0183 -0.5323
  367MOL0     H50635   5.940   8.018  10.847  0.8582 -1.5444  0.7507
  367MOL0     H50636   5.721   8.064  10.700  1.8256  1.7286  0.2556
  367MOL0     H50637   5.761   7.929  10.611 -0.2526 -0.6675  0.8169
  367MOL0     H50638   5.967   8.164  10.636 -2.3701  1.3436 -0.2883
  367MOL0     H50639   5.995   8.025  10.540 -2.1330 -1.2735 -1.8581
  367MOL0     H50640   5.932   8.217  10.398 -1.3813  1.3633  0.2299
  367MOL0     H50641   5.786   8.250  10.489 -1.2341  2.5773 -3.4634
  367MOL0     H50642   5.614   7.975  10.248  0.6636 -0.5647 -0.8140
  367MOL0     H50643   5.893   7.772  10.507  1.0428  1.6952  1.8873
  367MOL0     H50644   5.906   7.631  10.348  0.5210 -2.7979 -4.4163
  367MOL0     H50645   5.888   7.451  10.366 -1.0131 -0.6488  0.1504
  367MOL0     H50646   5.754   7.556  10.349  0.4808 -2.4251 -2.7960
  368MOL0     O50647   1.076   2.872   4.396  0.7022 -0.3385 -0.2835
  368MOL0     C50648   1.075   2.789   4.484 -1.2850 -0.2493 -0.3595
  368MOL0     O50649   1.037   2.803   4.611 -0.1400 -0.2446 -0.3139
  368MOL0     C50650   1.018   2.926   4.667 -0.2828 -0.5152 -0.5047
  368MOL0     C50651   1.073   3.049   4.613 -0.3206  0.4124 -0.1678
  368MOL0     C50652   1.053   3.167   4.679 -0.0726  1.3935  0.1268
  368MOL0     C50653   1.017   3.169   4.813  0.0928  0.0194  0.8344
  368MOL0     O50654   1.013   3.292   4.880  0.5316 -0.2345  0.5615
  368MOL0     C50655   0.922   3.399   4.842  0.7121  0.3591  0.1405
  368MOL0     C50656   0.969   3.520   4.912 -0.1882  0.1004 -0.1011
  368MOL0     C50657   1.075   3.594   4.828  0.2931  0.4456 -0.2935
  368MOL0     C50658   1.074   3.750   4.857  0.2791 -0.1929 -0.0475
  368MOL0     C50659   1.213   3.796   4.807  0.7688  0.1163 -1.1495
  368MOL0     C50660   1.215   3.941   4.741  0.0647  1.2371  0.3904
  368MOL0     C50661   1.362   4.001   4.705  0.6001  0.2933  0.6667
  368MOL0     C50662   1.342   4.147   4.662 -0.4189 -0.5546  0.2361
  368MOL0     N50663   1.472   4.218   4.630 -0.2777  0.0931  0.6904
  368MOL0     C50664   1.517   4.334   4.683 -0.6322  0.5025  0.5999
  368MOL0     C50665   1.644   4.345   4.639 -0.4900  0.8422  0.5590
  368MOL0     C50666   1.732   4.463   4.678  0.9456  0.0542 -0.3280
  368MOL0     C50667   1.876   4.413   4.658 -0.2063 -0.7754 -0.1635
  368MOL0     C50668   1.971   4.529   4.683 -0.5555  0.9126 -0.8845
  368MOL0     C50669   2.110   4.485   4.732  0.3861  0.4543 -0.4409
  368MOL0     O50670   2.191   4.600   4.760 -0.0183 -0.4001 -0.3543
  368MOL0     C50671   2.272   4.601   4.864 -0.3450  0.6436 -0.4312
  368MOL0     C50672   2.316   4.480   4.925 -0.9249  0.9822 -0.5774
  368MOL0     C50673   2.404   4.474   5.031 -0.5471  0.3445 -0.3607
  368MOL0     C50674   2.451   4.337   5.087  1.0965 -0.5071  0.1688
  368MOL0     C50675   2.453   4.601   5.085 -0.8238  0.4806 -0.5842
  368MOL0     C50676   2.543   4.596   5.208 -0.0370  0.6231 -0.5313
  368MOL0     O50677   2.682   4.580   5.196 -0.0964 -0.1368  0.1909
  368MOL0     C50678   2.764   4.579   5.309 -0.0239 -0.1296  0.1756
  368MOL0     C50679   2.774   4.689   5.398 -0.7299  0.1611  0.4675
  368MOL0     C50680   2.852   4.675   5.510  0.6415 -0.5225  0.0002
  368MOL0     C50681   2.919   4.561   5.552 -0.5573 -0.0140  0.7904
  368MOL0     O50682   2.991   4.552   5.672 -1.2578  0.3561  0.7813
  368MOL0     C50683   3.084   4.655   5.688  0.6871  0.0637 -0.1896
  368MOL0     C50684   3.191   4.626   5.796 -0.9608  0.1055 -0.5858
  368MOL0     C50685   3.136   4.641   5.940  0.6324  0.2067 -0.1034
  368MOL0     C50686   3.240   4.700   6.037 -1.3873  1.3696  0.6682
  368MOL0     C50687   3.194   4.725   6.179 -0.3600  0.0242 -0.2965
  368MOL0     C50688   3.307   4.789   6.258 -0.5639  0.3874  0.4450
  368MOL0     C50689   3.258   4.826   6.404 -0.1289  0.7432  0.6435
  368MOL0     C50690   3.183   4.719   6.485  0.2191  0.4741 -0.0629
  368MOL0    Cl50691   3.003   4.694   6.437  0.0903  0.8963  0.2762
  368MOL0     C50692   2.914   4.458   5.461 -0.3176 -0.2480  0.0514
  368MOL0     C50693   2.840   4.464   5.338  0.3469  0.1391 -1.1153
  368MOL0     O50694   2.475   4.600   5.313  0.1034  0.1746  0.1524
  368MOL0     C50695   2.401   4.724   5.032  0.4656 -0.1354  0.6168
  368MOL0     C50696   2.306   4.713   4.925 -0.3635 -1.0106 -0.3699
  368MOL0     N50697   1.673   4.229   4.566  0.1636 -0.0829  0.4110
  368MOL0     N50698   1.574   4.152   4.566  0.8007 -0.1851  0.2981
  368MOL0     C50699   0.965   3.054   4.872  0.2752 -0.3021 -0.3362
  368MOL0     C50700   0.964   2.939   4.792 -0.2628 -0.6185 -1.2059
  368MOL0     C50701   1.116   2.643   4.455 -0.7071 -0.4893 -0.0018
  368MOL0     C50702   1.129   2.558   4.564  0.9376  1.4227 -0.9149
  368MOL0     C50703   1.152   2.417   4.545 -1.5187 -0.3457 -0.1702
  368MOL0     C50704   1.150   2.359   4.418  1.4287  0.5736 -0.1059
  368MOL0     O50705   1.165   2.221   4.412  0.3094 -0.2827  0.3132
  368MOL0     C50706   1.059   2.139   4.367  0.6606 -0.5767  0.3756
  368MOL0     C50707   1.005   2.048   4.480 -0.0786 -0.3147 -0.5786
  368MOL0     C50708   1.106   1.953   4.527 -0.0355  0.8348 -0.0425
  368MOL0     C50709   1.047   1.844   4.627 -0.6576  0.4262 -0.0024
  368MOL0     C50710   1.079   1.873   4.765  0.0399 -0.2140  0.1390
  368MOL0     C50711   1.116   1.894   4.881 -0.0628  1.2196 -0.5169
  368MOL0     C50712   1.150   2.450   4.309  0.5921  0.2716 -0.3896
  368MOL0     C50713   1.141   2.588   4.329 -0.3383  0.1624  0.1451
  368MOL0     C50714   1.162   2.661   4.198 -0.4353  0.6718 -0.3607
  368MOL0     H50715   1.124   3.061   4.518  2.0544  1.4868  1.1702
  368MOL0     H50716   1.079   3.264   4.637 -1.1345  0.8859 -1.8519
  368MOL0     H50717   0.820   3.374   4.872  1.1959 -3.2799 -0.7957
  368MOL0     H50718   0.925   3.405   4.733  4.0140  0.5473  0.1243
  368MOL0     H50719   0.885   3.591   4.917 -0.4082  0.0510 -2.2156
  368MOL0     H50720   1.000   3.483   5.010  3.7950 -1.3720 -1.7212
  368MOL0     H50721   1.177   3.566   4.855  0.6276  2.2413  0.4504
  368MOL0     H50722   1.065   3.569   4.722  2.9825 -2.7997  0.0388
  368MOL0     H50723   0.998   3.792   4.791  1.7434  3.4322  0.3091
  368MOL0     H50724   1.043   3.783   4.956 -0.7878  2.6966 -1.2168
  368MOL0     H50725   1.245   3.731   4.725  1.9045 -0.2045 -0.4867
  368MOL0     H50726   1.281   3.794   4.894 -2.6003 -0.2133  1.7123
  368MOL0     H50727   1.147   3.949   4.656  2.0888  2.5642 -1.2046
  368MOL0     H50728   1.160   4.002   4.813 -1.9341 -0.6124  0.5195
  368MOL0     H50729   1.411   3.949   4.622 -4.0893 -1.1220 -1.5255
  368MOL0     H50730   1.438   3.999   4.784 -0.4336 -0.4046  1.6775
  368MOL0     H50731   1.285   4.151   4.570 -0.6097  1.0198  0.4042
  368MOL0     H50732   1.297   4.201   4.746  0.8841 -0.5617  0.9670
  368MOL0     H50733   1.463   4.410   4.740  0.6380 -0.3975  3.1584
  368MOL0     H50734   1.695   4.496   4.775 -1.7479 -2.7069 -0.2601
  368MOL0     H50735   1.712   4.544   4.607  2.3131 -0.6083 -1.5091
  368MOL0     H50736   1.896   4.326   4.721 -1.4850 -1.8129 -1.1457
  368MOL0     H50737   1.883   4.393   4.551 -0.3721  2.0585 -0.8024
  368MOL0     H50738   1.991   4.583   4.590  2.3645 -0.0673 -0.9255
  368MOL0     H50739   1.926   4.596   4.757  2.4060  3.5157 -1.2109
  368MOL0     H50740   2.085   4.435   4.826  1.3986  0.8800  0.0740
  368MOL0     H50741   2.148   4.406   4.666  0.7030 -0.9039  1.2964
  368MOL0     H50742   2.286   4.384   4.886 -0.2679  0.1785  0.7918
  368MOL0     H50743   2.399   4.252   5.042 -0.0561  0.8368 -1.1487
  368MOL0     H50744   2.434   4.339   5.195  1.0826 -3.0556  0.2758
  368MOL0     H50745   2.557   4.318   5.068  0.6875 -3.1649  0.1678
  368MOL0     H50746   2.719   4.782   5.384 -0.2826  0.3812  0.1395
  368MOL0     H50747   2.852   4.764   5.574  1.1899 -0.0601 -0.6405
  368MOL0     H50748   3.144   4.672   5.599  2.9350 -0.5980  1.1313
  368MOL0     H50749   3.029   4.745   5.718 -0.5352 -1.9579  4.5738
  368MOL0     H50750   3.221   4.522   5.787 -0.6102 -0.1696  2.5148
  368MOL0     H50751   3.277   4.692   5.811  2.5287 -4.6456  3.9872
  368MOL0     H50752   3.108   4.543   5.981 -0.6668  0.1243 -1.1225
  368MOL0     H50753   3.039   4.691   5.931 -1.2650 -3.3333 -1.7996
  368MOL0     H50754   3.305   4.780   5.997 -0.3627 -0.5815 -1.8805
  368MOL0     H50755   3.315   4.621   6.030 -0.1364  2.4965  0.9507
  368MOL0     H50756   3.107   4.791   6.185 -0.4847 -0.0552 -1.1801
  368MOL0     H50757   3.171   4.625   6.217  1.6400  0.2808  1.8834
  368MOL0     H50758   3.366   4.862   6.202  1.4657 -2.2065 -1.0495
  368MOL0     H50759   3.381   4.708   6.259  0.9915  1.7631  1.3679
  368MOL0     H50760   3.182   4.903   6.386  2.1301  2.8554 -0.5780
  368MOL0     H50761   3.337   4.876   6.461  0.5196  0.3964  0.0730
  368MOL0     H50762   3.186   4.763   6.585 -2.0812  0.3518  0.1065
  368MOL0     H50763   3.230   4.621   6.469 -1.8153 -0.2238 -2.4890
  368MOL0     H50764   2.981   4.377   5.486  2.7150  2.5985  2.0804
  368MOL0     H50765   2.821   4.372   5.284  1.7543 -2.1639  2.0589
  368MOL0     H50766   2.444   4.808   5.086 -0.0586 -0.0190  0.8599
  368MOL0     H50767   2.258   4.801   4.883  0.7558 -0.8873 -1.4477
  368MOL0     H50768   0.913   3.068   4.966 -1.2787 -2.6137 -0.7676
  368MOL0     H50769   0.925   2.844   4.825 -0.2797 -0.8396 -1.8530
  368MOL0     H50770   1.132   2.594   4.666  1.7612 -1.7087  0.2884
  368MOL0     H50771   1.180   2.352   4.627  0.1335  1.5754  0.8916
  368MOL0     H50772   0.969   2.196   4.342  0.9296  0.4456  1.5984
  368MOL0     H50773   1.115   2.080   4.294 -0.1402  0.3504 -1.0374
  368MOL0     H50774   0.922   1.995   4.433  1.6011 -1.3158 -2.5713
  368MOL0     H50775   0.976   2.109   4.566 -0.2167 -1.1289 -0.0376
  368MOL0     H50776   1.147   1.901   4.440 -0.6032  0.7088 -0.2388
  368MOL0     H50777   1.188   2.016   4.562  0.2650 -0.0244  0.8273
  368MOL0     H50778   1.082   1.744   4.598 -1.3607  0.9424 -3.0036
  368MOL0     H50779   0.938   1.841   4.618 -1.2802  1.5337  4.7364
  368MOL0     H50780   1.155   1.889   4.981  2.6434 -2.8708 -1.5263
  368MOL0     H50781   1.150   2.391   4.218 -0.0682 -0.5292  0.1060
  368MOL0     H50782   1.084   2.738   4.192 -0.4575  0.7542  0.8027
  368MOL0     H50783   1.261   2.708   4.200  0.1964 -0.6040  1.7293
  368MOL0     H50784   1.143   2.592   4.115 -0.5193  0.9119 -0.5421
  369MOL0     O50785   1.493  10.425   8.217 -0.6589  0.4109  0.3998
  369MOL0     C50786   1.418  10.504   8.163  0.0670 -0.3522  0.5674
  369MOL0     O50787   1.307  10.476   8.089 -0.5396  0.6937  0.9790
  369MOL0     C50788   1.258  10.356   8.052 -0.2980 -0.8120  0.5534
  369MOL0     C50789   1.261  10.323   7.916 -0.0545  0.0463 -0.3070
  369MOL0     C50790   1.242  10.199   7.860 -0.6891  0.4334 -0.2301
  369MOL0     C50791   1.222  10.094   7.948 -0.0217  0.5458 -0.0663
  369MOL0     O50792   1.197   9.956   7.909 -0.0539  0.7110 -0.0613
  369MOL0     C50793   1.297   9.857   7.938  0.1695  0.2708 -0.5896
  369MOL0     C50794   1.322   9.774   7.814 -0.4661  0.0162  0.3460
  369MOL0     C50795   1.401   9.647   7.841  0.3114 -0.4303 -0.0558
  369MOL0     C50796   1.448   9.558   7.722  0.6367  0.0601 -0.2848
  369MOL0     C50797   1.492   9.414   7.753 -0.3163 -0.1328 -0.5321
  369MOL0     C50798   1.616   9.402   7.847 -0.3497  0.2383 -0.1629
  369MOL0     C50799   1.702   9.268   7.824  0.8264 -0.5306 -0.4705
  369MOL0     C50800   1.789   9.252   7.700  0.2733  0.2206  0.5044
  369MOL0     N50801   1.729   9.157   7.603 -0.1332 -0.1573  0.1004
  369MOL0     C50802   1.660   9.199   7.493  1.0218 -0.1683  0.1711
  369MOL0     C50803   1.663   9.090   7.402  0.0661  0.0871 -0.2492
  369MOL0     C50804   1.597   9.101   7.262  0.4680  0.1598 -0.0761
  369MOL0     C50805   1.645   8.990   7.180  0.0715 -0.1067 -0.3465
  369MOL0     C50806   1.604   9.015   7.034  0.4458  0.0614  0.4768
  369MOL0     C50807   1.460   8.969   7.021  0.5159  0.8532 -0.0836
  369MOL0     O50808   1.439   8.834   7.077 -0.6703  0.1536  0.1384
  369MOL0     C50809   1.306   8.811   7.074 -0.8465  0.2601  0.1712
  369MOL0     C50810   1.252   8.715   6.987 -0.0511  0.2552  0.1994
  369MOL0     C50811   1.117   8.684   6.999 -0.6550  0.2519 -0.3537
  369MOL0     C50812   1.060   8.602   6.890 -0.0809 -0.0323 -0.5312
  369MOL0     C50813   1.033   8.748   7.087  1.1583 -1.0054 -0.4164
  369MOL0     C50814   0.885   8.731   7.092  0.5561  0.0217 -0.4497
  369MOL0     O50815   0.834   8.605   7.092  0.0156 -0.4350  0.4828
  369MOL0     C50816   0.706   8.565   7.111  0.0054 -0.2446 -0.1489
  369MOL0     C50817   0.682   8.423   7.125 -0.4165  0.0793  0.4275
  369MOL0     C50818   0.552   8.375   7.137  0.3660 -0.0834  0.4146
  369MOL0     C50819   0.445   8.458   7.151 -0.1143 -0.5351 -0.1723
  369MOL0     O50820   0.321   8.404   7.159  0.6703 -0.6793 -0.0767
  369MOL0     C50821   0.209   8.487   7.137 -0.4813 -0.1963  0.4971
  369MOL0     C50822   0.146   8.549   7.264  0.2999 -0.3055 -0.3090
  369MOL0     C50823   0.090   8.692   7.253 -0.5114  0.2272  0.5090
  369MOL0     C50824   0.067   8.757   7.388 -0.0977  0.2296  0.5790
  369MOL0     C50825   0.015   8.904   7.375  0.8289 -0.5037 -0.2877
  369MOL0     C50826  -0.038   8.950   7.518 -0.6297  0.1596 -1.2907
  369MOL0     C50827  -0.057   9.108   7.534  0.0468  0.0760  0.8031
  369MOL0     C50828  -0.084   9.148   7.680  0.6665 -0.2829 -0.7294
  369MOL0    Cl50829  -0.068   9.317   7.722  0.3061 -0.0280 -0.2754
  369MOL0     C50830   0.470   8.596   7.164 -0.0052 -0.0062 -0.3969
  369MOL0     C50831   0.600   8.643   7.133  0.1564 -0.5466 -0.5871
  369MOL0     O50832   0.820   8.832   7.119 -0.0746 -0.0255 -0.2705
  369MOL0     C50833   1.087   8.852   7.165 -0.0621  0.1788 -0.1750
  369MOL0     C50834   1.220   8.881   7.158  0.4370  0.1110 -0.2002
  369MOL0     N50835   1.716   8.986   7.473 -1.3485  0.0050 -0.6790
  369MOL0     N50836   1.750   9.025   7.596  0.6298  0.9982  0.1883
  369MOL0     C50837   1.203  10.116   8.089 -0.9808 -0.4038  0.3853
  369MOL0     C50838   1.226  10.247   8.142 -0.0776 -0.3399  1.0895
  369MOL0     C50839   1.430  10.654   8.212 -0.2500  0.3046 -0.6699
  369MOL0     C50840   1.328  10.739   8.169 -0.0699  0.0375  0.5957
  369MOL0     C50841   1.329  10.878   8.197  0.7282  0.0157 -0.6385
  369MOL0     C50842   1.436  10.936   8.253 -0.6532 -0.6605  0.0760
  369MOL0     O50843   1.437  11.067   8.270  0.0644 -0.0622 -0.1680
  369MOL0     C50844   1.427  11.107   8.404 -1.1183 -0.5098 -0.1712
  369MOL0     C50845   1.288  11.080   8.472  0.4040  0.6134  0.5613
  369MOL0     C50846   1.284  11.097   8.627  0.1444  0.2724  0.9666
  369MOL0     C50847   1.136  11.093   8.674 -0.0048 -0.7929  0.0431
  369MOL0     C50848   1.092  10.949   8.673  0.5207  0.1265 -0.5765
  369MOL0     C50849   1.071  10.833   8.660 -0.1149  0.4896  0.8057
  369MOL0     C50850   1.533  10.856   8.300 -0.4616 -0.1788  0.3247
  369MOL0     C50851   1.534  10.720   8.284 -1.2015  0.7395  0.2225
  369MOL0     C50852   1.650  10.628   8.329 -0.1244 -0.1506  0.1011
  369MOL0     H50853   1.281  10.403   7.844  1.0665 -1.8687 -2.2252
  369MOL0     H50854   1.270  10.172   7.759  0.7542 -1.8347  0.7062
  369MOL0     H50855   1.236   9.795   8.004 -0.1073 -1.9180 -2.7693
  369MOL0     H50856   1.392   9.897   7.975  0.5062  0.6486 -1.8176
  369MOL0     H50857   1.228   9.743   7.768 -0.2593 -1.2692  0.7484
  369MOL0     H50858   1.381   9.830   7.741  0.0413  0.1370  0.8382
  369MOL0     H50859   1.487   9.666   7.906 -1.2333 -0.1451  1.9919
  369MOL0     H50860   1.348   9.577   7.907  0.3886 -1.5272 -1.1140
  369MOL0     H50861   1.358   9.551   7.660  0.6956  0.8570 -0.4771
  369MOL0     H50862   1.522   9.615   7.665 -0.8103 -0.0999 -2.4140
  369MOL0     H50863   1.521   9.377   7.655  2.5932 -0.4950  0.3767
  369MOL0     H50864   1.406   9.365   7.800 -0.2902  1.7963  1.7002
  369MOL0     H50865   1.684   9.487   7.836 -2.9805  2.6770  1.2508
  369MOL0     H50866   1.583   9.414   7.950 -1.4827  1.7630 -0.6698
  369MOL0     H50867   1.620   9.196   7.833 -2.0760  2.7756  3.5601
  369MOL0     H50868   1.772   9.255   7.908 -0.9332  1.5075  1.4394
  369MOL0     H50869   1.813   9.353   7.665 -1.7308  0.0972 -1.5132
  369MOL0     H50870   1.890   9.215   7.721  0.3121  0.5637  0.9447
  369MOL0     H50871   1.604   9.290   7.474  2.2933  0.6362  0.2163
  369MOL0     H50872   1.633   9.199   7.227 -1.5629  1.3125  0.9096
  369MOL0     H50873   1.490   9.119   7.267  1.0003  3.9396  1.6844
  369MOL0     H50874   1.755   8.990   7.178  0.1873 -3.7534 -2.1071
  369MOL0     H50875   1.616   8.890   7.214  0.3219  0.1151  0.5475
  369MOL0     H50876   1.605   9.121   7.007 -0.8548 -0.1092 -0.2998
  369MOL0     H50877   1.676   8.960   6.972 -1.8253 -0.4765 -1.8396
  369MOL0     H50878   1.391   9.040   7.068  0.6055  0.0934  1.2154
  369MOL0     H50879   1.436   8.959   6.914  2.4600 -3.3689 -0.3376
  369MOL0     H50880   1.316   8.660   6.919 -2.4692 -0.7947 -1.3544
  369MOL0     H50881   1.119   8.623   6.800 -1.7552  0.4849 -1.5586
  369MOL0     H50882   0.956   8.614   6.857 -1.0334 -1.9661  1.5207
  369MOL0     H50883   1.059   8.497   6.917 -3.9193 -0.5653 -2.0465
  369MOL0     H50884   0.757   8.346   7.110 -0.8240  0.0558 -1.8292
  369MOL0     H50885   0.525   8.270   7.124  1.1165 -0.3188  0.7131
  369MOL0     H50886   0.240   8.562   7.064  0.0436 -0.8174  0.0693
  369MOL0     H50887   0.125   8.425   7.105 -1.5152  0.4344  1.8635
  369MOL0     H50888   0.059   8.499   7.307  0.5233  1.4162  2.3701
  369MOL0     H50889   0.209   8.562   7.353 -2.1156 -0.3566  1.5151
  369MOL0     H50890   0.002   8.700   7.189  0.2047  0.2221 -0.5091
  369MOL0     H50891   0.172   8.749   7.209 -0.0509  1.2976  2.6190
  369MOL0     H50892   0.157   8.755   7.450 -0.5526  0.5594  1.2602
  369MOL0     H50893  -0.003   8.688   7.437  0.6120  0.7194  2.3771
  369MOL0     H50894   0.088   8.974   7.333  1.3674 -0.3156  0.9186
  369MOL0     H50895  -0.068   8.907   7.304  1.2568  0.6316 -0.7599
  369MOL0     H50896   0.043   8.924   7.587 -0.4578 -2.8526 -2.4851
  369MOL0     H50897  -0.128   8.892   7.541  0.6949 -1.1293  1.0232
  369MOL0     H50898  -0.139   9.152   7.477 -3.0746  1.8061  5.9751
  369MOL0     H50899   0.037   9.155   7.502  0.2341 -0.0184  1.2110
  369MOL0     H50900  -0.018   9.087   7.742 -0.4529 -1.5545 -0.7321
  369MOL0     H50901  -0.185   9.115   7.706  1.3293 -2.2463 -0.5065
  369MOL0     H50902   0.393   8.671   7.177 -0.7818 -0.6408 -1.2090
  369MOL0     H50903   0.594   8.751   7.131 -0.2749 -0.4283  2.2577
  369MOL0     H50904   1.024   8.907   7.235 -1.2433 -1.0493 -0.2369
  369MOL0     H50905   1.272   8.947   7.227 -0.5900 -1.6760  2.4377
  369MOL0     H50906   1.183  10.035   8.157 -2.4342  1.0092  1.7159
  369MOL0     H50907   1.234  10.252   8.250  6.6049 -0.0170  0.9981
  369MOL0     H50908   1.239  10.718   8.112 -0.1000  0.9626  0.2770
  369MOL0     H50909   1.247  10.937   8.159 -0.3848 -1.0597  0.0437
  369MOL0     H50910   1.494  11.056   8.474 -2.1294  0.7687  1.8435
  369MOL0     H50911   1.447  11.214   8.417  0.7902 -0.8969  0.4725
  369MOL0     H50912   1.267  10.974   8.456  1.6540  0.5230 -0.6457
  369MOL0     H50913   1.217  11.150   8.425 -0.1619  0.9379  1.8483
  369MOL0     H50914   1.345  11.021   8.676 -0.8361 -1.2053  0.0055
  369MOL0     H50915   1.328  11.192   8.657 -1.2613  1.3795 -0.2835
  369MOL0     H50916   1.071  11.159   8.615 -0.2619 -1.0291  0.0598
  369MOL0     H50917   1.126  11.136   8.774 -2.0587  2.1384 -1.2653
  369MOL0     H50918   1.058  10.730   8.632  0.8804  0.8255 -1.0665
  369MOL0     H50919   1.626  10.899   8.336  1.4546  3.6898 -7.0335
  369MOL0     H50920   1.714  10.606   8.243 -2.7377 -0.1252 -1.9780
  369MOL0     H50921   1.709  10.677   8.407 -1.1713  1.5029 -0.0914
  369MOL0     H50922   1.617  10.538   8.380  1.2794 -0.3231  0.7523
  370MOL0     O50923  10.874   6.899   2.067  0.2098  0.0664  0.3955
  370MOL0     C50924  10.916   6.922   1.954  0.5154  0.4431 -1.1120
  370MOL0     O50925  11.021   6.864   1.902  0.1988 -0.0995 -0.7606
  370MOL0     C50926  11.083   6.769   1.978  0.1053 -1.0097  0.0174
  370MOL0     C50927  11.085   6.628   1.949  0.3935 -0.4110  0.2701
  370MOL0     C50928  11.142   6.544   2.042  1.2029  0.9496  0.4299
  370MOL0     C50929  11.199   6.588   2.157 -0.2838 -0.1321 -0.4932
  370MOL0     O50930  11.243   6.499   2.251 -0.0721  0.4068  0.1870
  370MOL0     C50931  11.379   6.455   2.225  0.8685  1.5931 -0.2836
  370MOL0     C50932  11.419   6.352   2.335  0.3026 -0.0050  0.1667
  370MOL0     C50933  11.332   6.218   2.332 -0.0711 -0.3062  0.1848
  370MOL0     C50934  11.375   6.126   2.436  1.0584 -0.5528 -0.3432
  370MOL0     C50935  11.271   6.012   2.462 -0.1625 -0.6279 -0.1335
  370MOL0     C50936  11.273   5.902   2.354 -0.2987  0.4536  0.4305
  370MOL0     C50937  11.189   5.787   2.387  0.3719  0.0029 -0.1693
  370MOL0     C50938  11.274   5.669   2.432  0.5608 -0.2964 -1.3730
  370MOL0     N50939  11.342   5.694   2.563  0.0075  0.8575  0.2420
  370MOL0     C50940  11.283   5.665   2.685 -0.8161  0.1171 -0.2482
  370MOL0     C50941  11.389   5.658   2.779 -0.6712  0.1180 -0.2587
  370MOL0     C50942  11.375   5.632   2.923  0.0112  1.1178 -0.3536
  370MOL0     C50943  11.270   5.716   2.994  1.2329  0.2254 -0.7660
  370MOL0     C50944  11.251   5.664   3.139  0.0073 -0.3371  0.6345
  370MOL0     C50945  11.109   5.704   3.187 -0.5798  0.0314 -0.3046
  370MOL0     O50946  11.062   5.843   3.183 -1.0094 -0.9405 -0.2568
  370MOL0     C50947  11.129   5.935   3.262 -0.0233 -0.2419  0.5328
  370MOL0     C50948  11.244   5.919   3.331  0.0806 -0.5235 -0.7739
  370MOL0     C50949  11.315   6.033   3.376 -0.1078 -0.3864  0.3804
  370MOL0     C50950  11.432   6.007   3.468  0.2357  0.8962 -0.3945
  370MOL0     C50951  11.266   6.173   3.352  0.6446  0.3155  0.1088
  370MOL0     C50952  11.313   6.295   3.410  0.7452 -0.8975 -0.6634
  370MOL0     O50953  11.246   6.405   3.385  0.6580 -0.7385  0.1777
  370MOL0     C50954  11.275   6.519   3.450 -0.1335 -0.1756  0.3085
  370MOL0     C50955  11.161   6.586   3.505 -0.2323  0.8602 -0.8821
  370MOL0     C50956  11.175   6.708   3.568  0.0050 -0.2522 -0.3029
  370MOL0     C50957  11.301   6.776   3.576  0.2124 -0.9607 -0.3358
  370MOL0     O50958  11.311   6.900   3.630 -0.4785 -0.4000 -0.3403
  370MOL0     C50959  11.296   6.913   3.769  0.8301 -0.0573  0.2631
  370MOL0     C50960  11.196   7.010   3.819  0.3654  0.3792  0.7972
  370MOL0     C50961  11.255   7.082   3.939  0.0999  0.5157  0.5895
  370MOL0     C50962  11.164   7.075   4.059  0.0722 -1.2146 -0.4544
  370MOL0     C50963  11.229   7.137   4.188  0.0175  0.2817  0.7806
  370MOL0     C50964  11.176   7.092   4.318  0.1012  0.7014 -0.7246
  370MOL0     C50965  11.034   7.154   4.344 -0.2802 -0.9695 -0.6779
  370MOL0     C50966  10.986   7.119   4.492  0.0981 -0.3264  0.8546
  370MOL0    Cl50967  11.124   7.161   4.605  0.2556  0.5062 -0.0968
  370MOL0     C50968  11.413   6.717   3.520  0.0802  0.8110 -0.0605
  370MOL0     C50969  11.403   6.586   3.457 -0.5513 -0.8506  0.5675
  370MOL0     O50970  11.399   6.287   3.497  0.4039  0.1357 -0.2165
  370MOL0     C50971  11.144   6.178   3.280 -1.2244 -0.4707  0.4483
  370MOL0     C50972  11.080   6.061   3.241  0.2241 -0.3338  0.2366
  370MOL0     N50973  11.500   5.697   2.710 -0.0375  0.2203 -0.4518
  370MOL0     N50974  11.473   5.710   2.590 -0.4672 -0.5514 -0.0020
  370MOL0     C50975  11.204   6.722   2.183 -0.4486  0.8009 -0.1344
  370MOL0     C50976  11.145   6.813   2.096  0.4624  0.9124  0.1414
  370MOL0     C50977  10.866   7.035   1.874 -0.0167  0.2560 -0.5683
  370MOL0     C50978  10.878   7.038   1.735 -0.1521  0.1134  0.0352
  370MOL0     C50979  10.847   7.154   1.661 -0.2294  0.7152  0.8910
  370MOL0     C50980  10.799   7.267   1.717 -0.0976  0.3156  0.2003
  370MOL0     O50981  10.767   7.379   1.642 -0.3697  0.6323 -0.0507
  370MOL0     C50982  10.837   7.413   1.534 -0.2051 -0.1194  1.2135
  370MOL0     C50983  10.781   7.537   1.464  0.3471  0.2954  0.9139
  370MOL0     C50984  10.792   7.663   1.558  0.3304 -0.4992 -0.2007
  370MOL0     C50985  10.717   7.782   1.499  0.9395  0.7461 -1.1469
  370MOL0     C50986  10.741   7.911   1.565  1.1329 -0.1723 -0.3425
  370MOL0     C50987  10.772   8.023   1.595  0.4434  0.5789 -0.5818
  370MOL0     C50988  10.786   7.270   1.853 -0.3256  0.1298  0.3187
  370MOL0     C50989  10.814   7.154   1.927 -0.5083 -0.0209 -0.0198
  370MOL0     C50990  10.808   7.166   2.074 -0.3215 -0.4950 -0.1585
  370MOL0     H50991  11.047   6.591   1.854 -3.9979  1.6070  0.9652
  370MOL0     H50992  11.159   6.444   2.002 -0.7490  1.4201 -1.8692
  370MOL0     H50993  11.448   6.539   2.221  1.6383  0.9251 -1.8862
  370MOL0     H50994  11.380   6.413   2.124 -3.0101 -0.5164  0.3455
  370MOL0     H50995  11.525   6.325   2.331  0.6556  1.3987 -1.4536
  370MOL0     H50996  11.393   6.398   2.431 -0.2988 -3.6102  1.9132
  370MOL0     H50997  11.226   6.246   2.335 -0.3066 -1.1686  0.4368
  370MOL0     H50998  11.341   6.161   2.239  1.3392  1.7780 -1.0357
  370MOL0     H50999  11.475   6.084   2.418  2.2830  1.6689  0.8479
  370MOL0     H51000  11.381   6.171   2.536  2.1940 -3.4751  1.0604
  370MOL0     H51001  11.174   6.063   2.466  1.3926  2.4756  2.0752
  370MOL0     H51002  11.284   5.972   2.562  1.9965 -0.6774 -0.3927
  370MOL0     H51003  11.243   5.945   2.258  0.3636 -0.6044 -0.2793
  370MOL0     H51004  11.379   5.876   2.341  0.1559  3.4559 -3.5502
  370MOL0     H51005  11.136   5.764   2.295  1.8625  5.2664 -2.7357
  370MOL0     H51006  11.121   5.816   2.468  2.0570  1.0355  0.9603
  370MOL0     H51007  11.215   5.580   2.456  1.4410  0.1837  3.4852
  370MOL0     H51008  11.349   5.648   2.354  4.6273 -2.0129  2.5450
  370MOL0     H51009  11.178   5.640   2.688 -0.4503 -1.4866  0.0250
  370MOL0     H51010  11.475   5.641   2.966  1.6310 -3.0957 -2.7022
  370MOL0     H51011  11.351   5.528   2.944 -0.8788  1.7344  1.9602
  370MOL0     H51012  11.302   5.821   2.985 -0.2300  0.5659 -2.5646
  370MOL0     H51013  11.179   5.712   2.934 -0.0134  1.4586  0.9326
  370MOL0     H51014  11.267   5.556   3.142  0.5167 -0.4177 -2.2290
  370MOL0     H51015  11.324   5.704   3.210  0.4915 -1.9896  1.1016
  370MOL0     H51016  11.031   5.637   3.151  0.1733  0.0325 -2.0508
  370MOL0     H51017  11.106   5.667   3.290  3.1191 -1.0737 -0.4163
  370MOL0     H51018  11.303   5.830   3.348  1.7708  0.6169 -0.2981
  370MOL0     H51019  11.477   5.907   3.461  0.1708  0.8191  0.2580
  370MOL0     H51020  11.392   6.010   3.570  2.8426  1.8016  0.6972
  370MOL0     H51021  11.509   6.085   3.460 -1.3885  2.5433 -0.5188
  370MOL0     H51022  11.057   6.556   3.496 -0.1774  0.9896 -2.2769
  370MOL0     H51023  11.092   6.766   3.607  0.7762  0.5069  0.2540
  370MOL0     H51024  11.268   6.813   3.801 -0.0466 -0.7105 -2.2805
  370MOL0     H51025  11.396   6.943   3.801  0.9400  1.0281 -1.0135
  370MOL0     H51026  11.172   7.082   3.741  1.4533  1.7304  1.6624
  370MOL0     H51027  11.099   6.969   3.848  0.0351  1.8568  1.9459
  370MOL0     H51028  11.283   7.179   3.897  1.9339  0.1047  0.7736
  370MOL0     H51029  11.343   7.035   3.984  0.6999  0.2725 -0.7605
  370MOL0     H51030  11.154   6.966   4.068 -1.6636 -1.1033 -0.6134
  370MOL0     H51031  11.062   7.114   4.051  0.1436 -1.0324 -0.4739
  370MOL0     H51032  11.334   7.105   4.193  0.4714  1.4990 -0.4084
  370MOL0     H51033  11.244   7.245   4.183  0.0564  0.4013  2.7255
  370MOL0     H51034  11.244   7.108   4.402  0.9611 -2.8258 -0.5815
  370MOL0     H51035  11.158   6.984   4.326  2.8522  0.3050  2.0835
  370MOL0     H51036  10.963   7.126   4.265  1.1077  2.2347 -3.3198
  370MOL0     H51037  11.048   7.263   4.348 -2.0795 -0.7175  2.2957
  370MOL0     H51038  10.962   7.014   4.507 -0.3505 -0.4435 -0.4783
  370MOL0     H51039  10.901   7.185   4.513  0.0296 -1.0650  3.1023
  370MOL0     H51040  11.503   6.778   3.521  0.7215 -0.1026 -0.3721
  370MOL0     H51041  11.488   6.527   3.426 -3.2638 -3.0810 -3.3388
  370MOL0     H51042  11.099   6.274   3.258 -0.4220 -0.0636  0.5426
  370MOL0     H51043  10.981   6.080   3.201  0.6971  2.2122  0.0913
  370MOL0     H51044  11.255   6.748   2.275  1.2401  0.6583 -0.9817
  370MOL0     H51045  11.131   6.916   2.128 -0.2725  0.9799 -0.3806
  370MOL0     H51046  10.918   6.951   1.683  1.1292 -0.6860  2.2212
  370MOL0     H51047  10.872   7.139   1.557 -2.1119  1.4954  0.2860
  370MOL0     H51048  10.942   7.438   1.553 -0.5715  2.4745  0.3196
  370MOL0     H51049  10.837   7.335   1.458  0.0420  0.3918  0.6859
  370MOL0     H51050  10.679   7.507   1.437  0.0825 -0.6080  2.7222
  370MOL0     H51051  10.820   7.561   1.365  0.1762  2.2520  1.2805
  370MOL0     H51052  10.752   7.650   1.659 -0.5039  0.0237 -0.4467
  370MOL0     H51053  10.894   7.697   1.577 -0.6241  2.0753  0.8906
  370MOL0     H51054  10.610   7.758   1.501  1.3496 -1.2030 -1.1562
  370MOL0     H51055  10.763   7.794   1.401 -0.1265  2.8992 -1.4368
  370MOL0     H51056  10.797   8.120   1.633 -1.3059  0.9255 -0.2264
  370MOL0     H51057  10.739   7.351   1.908 -1.6154 -1.8060  2.2381
  370MOL0     H51058  10.903   7.144   2.124 -1.3624 -2.8716  0.9088
  370MOL0     H51059  10.807   7.268   2.113  1.5231 -1.1177  1.7319
  370MOL0     H51060  10.720   7.121   2.121 -1.4588  1.0462 -0.7001
  371MOL0     O51061   3.581   3.506   0.744  0.3695  0.7398 -0.1197
  371MOL0     C51062   3.574   3.385   0.753 -0.4760  0.7038 -0.7462
  371MOL0     O51063   3.471   3.302   0.725 -0.6447 -0.8090  0.2452
  371MOL0     C51064   3.360   3.342   0.665 -0.1861  0.3153  0.1208
  371MOL0     C51065   3.376   3.422   0.547 -0.1500  0.2500  0.8799
  371MOL0     C51066   3.267   3.474   0.486  0.5036  0.6144  0.0502
  371MOL0     C51067   3.134   3.460   0.525 -0.1227 -0.3678 -0.0866
  371MOL0     O51068   3.027   3.500   0.443  0.4240  0.6758  0.9792
  371MOL0     C51069   2.937   3.596   0.508 -0.4270 -0.8057 -1.0926
  371MOL0     C51070   2.964   3.745   0.478 -0.3617 -0.1161 -0.2106
  371MOL0     C51071   2.916   3.761   0.344 -0.2214  0.3328 -0.3549
  371MOL0     C51072   2.976   3.890   0.281  0.7995 -0.7278 -0.7883
  371MOL0     C51073   2.922   3.897   0.139 -0.4209  0.1056  0.0965
  371MOL0     C51074   2.941   4.040   0.087  0.0175 -0.6323 -0.2180
  371MOL0     C51075   2.852   4.150   0.142  1.1720  0.3207 -1.1534
  371MOL0     C51076   2.731   4.169   0.060  0.4334  0.2171  0.0662
  371MOL0     N51077   2.626   4.074   0.079 -0.3622  0.6872  0.1212
  371MOL0     C51078   2.545   4.071   0.194 -0.0671 -0.3126  0.0588
  371MOL0     C51079   2.461   3.971   0.167 -0.1085  0.0377  1.5631
  371MOL0     C51080   2.354   3.931   0.260 -0.0952  0.3473 -0.1113
  371MOL0     C51081   2.400   3.826   0.353  0.2083 -0.3065  0.0165
  371MOL0     C51082   2.291   3.770   0.448 -0.2131 -0.1346  0.1589
  371MOL0     C51083   2.348   3.657   0.533  0.3548  0.3548  0.6490
  371MOL0     O51084   2.452   3.693   0.627  0.3452  0.1797  0.1496
  371MOL0     C51085   2.508   3.581   0.683 -0.8803 -1.1676 -0.8379
  371MOL0     C51086   2.639   3.603   0.741  0.3107 -0.2480 -0.7509
  371MOL0     C51087   2.705   3.498   0.808 -0.0547 -0.6150  0.8192
  371MOL0     C51088   2.818   3.536   0.900  0.2180 -1.1796 -0.0928
  371MOL0     C51089   2.660   3.368   0.810  0.4296  0.4530  0.1325
  371MOL0     C51090   2.732   3.249   0.873 -0.1340  0.3034 -0.4182
  371MOL0     O51091   2.866   3.252   0.885  0.1842 -0.3319 -0.7531
  371MOL0     C51092   2.932   3.173   0.982  0.3885 -0.5024  0.5410
  371MOL0     C51093   2.900   3.180   1.120 -0.0668 -0.3025 -0.3257
  371MOL0     C51094   2.979   3.105   1.213 -0.4106  0.2995 -0.2642
  371MOL0     C51095   3.068   3.007   1.165 -0.5515  0.0156 -0.5372
  371MOL0     O51096   3.146   2.923   1.240  0.4341  0.2451 -0.8997
  371MOL0     C51097   3.064   2.857   1.341  0.0931  0.1779  0.9677
  371MOL0     C51098   3.098   2.708   1.336 -0.2288 -0.6872 -0.5948
  371MOL0     C51099   3.038   2.632   1.456  0.1611 -0.3829  0.1206
  371MOL0     C51100   3.074   2.488   1.447  0.4118  0.4993 -0.0569
  371MOL0     C51101   3.005   2.398   1.545  1.6861 -0.6213  0.1694
  371MOL0     C51102   2.907   2.299   1.483 -0.1708  0.6305 -0.1833
  371MOL0     C51103   2.855   2.198   1.585 -0.0965 -0.5763  0.7977
  371MOL0     C51104   2.852   2.051   1.536  0.2983  0.0358 -0.5242
  371MOL0    Cl51105   3.016   1.997   1.496  0.1014  0.3309 -0.4542
  371MOL0     C51106   3.089   3.010   1.027 -0.7793 -0.3223  0.0703
  371MOL0     C51107   3.031   3.093   0.939  0.5222 -0.5071 -0.9906
  371MOL0     O51108   2.658   3.163   0.924  0.3948  0.8171  0.0960
  371MOL0     C51109   2.529   3.342   0.744 -1.5754 -0.1697  0.7233
  371MOL0     C51110   2.456   3.445   0.685  1.2332 -0.7090 -0.1270
  371MOL0     N51111   2.483   3.918   0.035  0.2042  0.1727  0.6403
  371MOL0     N51112   2.582   3.985  -0.013 -0.4756 -0.3372  0.1794
  371MOL0     C51113   3.120   3.381   0.642 -0.0638 -0.3431  0.4911
  371MOL0     C51114   3.228   3.324   0.711 -0.5965 -0.3952 -0.8600
  371MOL0     C51115   3.706   3.322   0.798 -0.0548 -0.7052  0.4057
  371MOL0     C51116   3.772   3.261   0.697  0.1109 -0.2502  1.4988
  371MOL0     C51117   3.899   3.209   0.726 -0.3137  0.6634 -0.2401
  371MOL0     C51118   3.950   3.201   0.859 -0.5612  0.5729  0.5698
  371MOL0     O51119   4.066   3.135   0.892  0.1780  0.1170 -0.2225
  371MOL0     C51120   4.185   3.164   0.812 -0.9639 -0.9736 -0.3468
  371MOL0     C51121   4.223   3.063   0.698  1.0082  0.5884 -0.8625
  371MOL0     C51122   4.274   2.932   0.770  0.0797 -0.4649 -0.4999
  371MOL0     C51123   4.348   2.843   0.667  0.0248 -0.0563 -0.8466
  371MOL0     C51124   4.451   2.767   0.731 -0.7199 -0.2094 -0.5327
  371MOL0     C51125   4.525   2.688   0.794  0.7763 -0.3178  0.4017
  371MOL0     C51126   3.880   3.271   0.959 -0.2598 -1.3844  0.8075
  371MOL0     C51127   3.757   3.338   0.932  1.0673  0.1110 -1.2012
  371MOL0     C51128   3.672   3.417   1.038 -0.4901 -0.5374 -0.0274
  371MOL0     H51129   3.465   3.440   0.486  1.3520 -0.5127  2.7279
  371MOL0     H51130   3.274   3.520   0.389  2.2557 -0.1303 -0.2106
  371MOL0     H51131   2.971   3.584   0.612  1.7587  0.9340 -1.5179
  371MOL0     H51132   2.832   3.572   0.494 -0.7945 -0.1514  0.3042
  371MOL0     H51133   2.901   3.791   0.555  0.3464  1.1723 -0.3755
  371MOL0     H51134   3.069   3.774   0.479 -0.1145 -0.5726 -3.2579
  371MOL0     H51135   2.948   3.675   0.285 -0.7843 -1.1057  1.3848
  371MOL0     H51136   2.807   3.761   0.351 -0.1507  1.6906  1.7709
  371MOL0     H51137   2.950   3.973   0.348  1.3437 -2.0217  1.0919
  371MOL0     H51138   3.085   3.881   0.275  0.7012 -4.3767  0.3352
  371MOL0     H51139   2.818   3.862   0.140 -0.2312 -0.5456 -1.0776
  371MOL0     H51140   2.975   3.823   0.078 -1.3054 -2.4564  2.2260
  371MOL0     H51141   3.032   4.084   0.128 -0.5320  1.4020 -1.0561
  371MOL0     H51142   2.947   4.049  -0.022  0.6199  0.7699 -0.0922
  371MOL0     H51143   2.910   4.242   0.147 -0.5524  1.4471 -1.0420
  371MOL0     H51144   2.814   4.132   0.243  1.0595 -1.9964 -1.5424
  371MOL0     H51145   2.686   4.269   0.058  0.9937  0.4759 -2.2423
  371MOL0     H51146   2.774   4.165  -0.040 -0.1231  2.9087 -0.3594
  371MOL0     H51147   2.543   4.137   0.280  0.3106 -2.4766  1.8016
  371MOL0     H51148   2.262   3.908   0.206  0.9987 -1.2195 -1.4494
  371MOL0     H51149   2.332   4.013   0.328 -1.1104 -0.1965  0.2313
  371MOL0     H51150   2.434   3.740   0.295  0.3903 -0.6891  0.6728
  371MOL0     H51151   2.478   3.866   0.419 -3.0394  0.6869  3.5881
  371MOL0     H51152   2.258   3.855   0.509 -1.8524  0.0228 -0.8794
  371MOL0     H51153   2.200   3.749   0.391 -1.2935  1.6376  1.1406
  371MOL0     H51154   2.257   3.621   0.583  0.0851  0.3608  0.1695
  371MOL0     H51155   2.370   3.572   0.468 -1.5929 -0.0939  0.5100
  371MOL0     H51156   2.673   3.706   0.737  0.1749 -0.2405 -2.9092
  371MOL0     H51157   2.789   3.498   0.998  1.7526 -1.6293  0.2137
  371MOL0     H51158   2.833   3.644   0.909  0.2129 -1.2961  1.7780
  371MOL0     H51159   2.915   3.498   0.868  0.9891  1.3827 -1.0097
  371MOL0     H51160   2.821   3.248   1.150 -1.2661 -1.3226 -1.0659
  371MOL0     H51161   2.964   3.115   1.320  0.4902  1.6528 -0.2437
  371MOL0     H51162   3.078   2.901   1.440 -1.9832  0.3799  1.2120
  371MOL0     H51163   2.958   2.866   1.313 -0.1515 -3.8469  0.0154
  371MOL0     H51164   3.065   2.667   1.240  0.2073  0.2668 -1.1656
  371MOL0     H51165   3.206   2.692   1.332 -0.2145 -1.6295  1.9262
  371MOL0     H51166   2.931   2.650   1.469  0.2968  0.3020  0.3044
  371MOL0     H51167   3.093   2.694   1.527 -1.5908  0.0683  1.1224
  371MOL0     H51168   3.179   2.495   1.478  0.0627  2.3983  0.7856
  371MOL0     H51169   3.068   2.434   1.351 -0.0663 -0.7812  0.6678
  371MOL0     H51170   3.077   2.325   1.583 -1.6011 -3.6124  1.2155
  371MOL0     H51171   2.975   2.450   1.636  0.6384 -2.4625  0.9371
  371MOL0     H51172   2.964   2.250   1.403 -0.9631  0.8203 -0.8722
  371MOL0     H51173   2.828   2.339   1.419  0.7160  0.4790 -1.4237
  371MOL0     H51174   2.754   2.221   1.617 -0.8438 -1.1205 -1.0240
  371MOL0     H51175   2.920   2.204   1.673  0.3771  1.9193  0.3503
  371MOL0     H51176   2.785   2.044   1.449 -1.9147  2.2712  0.8560
  371MOL0     H51177   2.808   1.993   1.618 -2.9040  0.1446 -2.0243
  371MOL0     H51178   3.172   2.943   1.005 -3.5711 -3.8693 -0.6063
  371MOL0     H51179   3.061   3.092   0.835  2.3386 -4.4254 -0.6331
  371MOL0     H51180   2.491   3.241   0.753 -1.1108 -0.6477 -1.9002
  371MOL0     H51181   2.356   3.417   0.653  0.8563  0.7037 -0.2472
  371MOL0     H51182   3.019   3.354   0.671 -1.7768  3.6884 -1.0877
  371MOL0     H51183   3.204   3.269   0.802 -5.4792 -0.5621 -1.9426
  371MOL0     H51184   3.732   3.259   0.596 -2.1728  2.1010  2.2626
  371MOL0     H51185   3.944   3.153   0.646 -1.5583 -0.8516  0.0737
  371MOL0     H51186   4.172   3.257   0.756 -0.0340  0.9359  2.4295
  371MOL0     H51187   4.268   3.191   0.877  2.6557 -0.7053 -4.5928
  371MOL0     H51188   4.309   3.100   0.642  2.1582 -0.6609  0.0243
  371MOL0     H51189   4.136   3.036   0.638  1.3486  1.8458 -1.9574
  371MOL0     H51190   4.344   2.967   0.846 -2.0218  1.5398  0.6412
  371MOL0     H51191   4.190   2.888   0.825  1.4430 -4.6814 -1.4158
  371MOL0     H51192   4.392   2.897   0.582 -2.5663  1.6796 -1.1906
  371MOL0     H51193   4.268   2.782   0.625 -1.1269 -0.0230  1.1960
  371MOL0     H51194   4.594   2.626   0.848 -1.8990 -1.7073  2.4875
  371MOL0     H51195   3.905   3.273   1.065  0.6724 -1.8494  0.6056
  371MOL0     H51196   3.567   3.389   1.028 -0.9991  0.7498  1.3221
  371MOL0     H51197   3.696   3.405   1.144 -3.1777  6.9343  2.0043
  371MOL0     H51198   3.683   3.523   1.015  2.2938 -0.8015 -0.2680
  372MOL0     O51199   7.221  11.068   9.201 -0.6736 -0.2624  0.4911
  372MOL0     C51200   7.168  11.163   9.147  0.9394  0.1741  0.2813
  372MOL0     O51201   7.063  11.241   9.196  0.5850 -0.2259  0.0349
  372MOL0     C51202   7.024  11.237   9.330  1.0149 -0.5998 -0.6143
  372MOL0     C51203   6.893  11.271   9.357  0.9121  0.5329 -0.1557
  372MOL0     C51204   6.838  11.271   9.484  0.8319  0.0759 -0.5938
  372MOL0     C51205   6.905  11.210   9.586 -0.5281 -0.4455  0.1128
  372MOL0     O51206   6.864  11.183   9.719  0.2514  0.1376  0.1133
  372MOL0     C51207   6.726  11.190   9.759  0.6531 -0.2953  0.1495
  372MOL0     C51208   6.688  11.109   9.880 -0.4324 -0.0080 -0.3384
  372MOL0     C51209   6.755  11.157  10.012 -0.2490  0.1470  0.2837
  372MOL0     C51210   6.679  11.277  10.065 -0.3154 -0.2085  0.0448
  372MOL0     C51211   6.558  11.247  10.153  0.2167 -0.1643 -0.2325
  372MOL0     C51212   6.449  11.356  10.130 -0.7964 -0.1353 -0.5853
  372MOL0     C51213   6.320  11.334  10.217 -0.1955 -0.0453 -0.2094
  372MOL0     C51214   6.347  11.408  10.346  0.2486 -0.0005 -0.6966
  372MOL0     N51215   6.241  11.379  10.445 -1.0106 -1.0624  0.6053
  372MOL0     C51216   6.120  11.450  10.468 -0.3828 -0.4489  0.2107
  372MOL0     C51217   6.055  11.374  10.559 -0.3157  0.5329 -0.8913
  372MOL0     C51218   5.928  11.407  10.629  0.3036 -0.5935 -0.0441
  372MOL0     C51219   5.815  11.451  10.534 -0.2757 -0.3998 -0.7053
  372MOL0     C51220   5.675  11.429  10.595 -0.9736  0.7164 -0.3137
  372MOL0     C51221   5.629  11.285  10.643 -0.0360  0.1642 -0.9500
  372MOL0     O51222   5.487  11.290  10.685 -0.3783  0.1430 -0.1688
  372MOL0     C51223   5.437  11.163  10.682 -0.3070 -0.1475 -0.3334
  372MOL0     C51224   5.495  11.053  10.738 -0.0696 -0.1215  0.5182
  372MOL0     C51225   5.435  10.928  10.731 -0.3973  0.1323 -0.2288
  372MOL0     C51226   5.520  10.816  10.798 -0.1377 -0.5493 -0.5596
  372MOL0     C51227   5.317  10.908  10.656 -0.3487 -0.3132 -0.6681
  372MOL0     C51228   5.239  10.784  10.650 -0.0068  0.3834  0.2749
  372MOL0     O51229   5.108  10.790  10.627 -0.1456  0.5989  0.6774
  372MOL0     C51230   5.039  10.679  10.596  0.2038  0.3188  0.3672
  372MOL0     C51231   5.098  10.573  10.517  0.3760 -1.3404  0.7392
  372MOL0     C51232   5.038  10.450  10.484 -0.5613 -0.4663  0.3815
  372MOL0     C51233   4.917  10.423  10.542  0.0571  0.0966 -0.2993
  372MOL0     O51234   4.850  10.309  10.505 -1.1400  0.0368 -0.2519
  372MOL0     C51235   4.922  10.188  10.477 -0.3921 -0.0236 -0.2885
  372MOL0     C51236   5.017  10.127  10.580  0.3556  1.3858 -0.2253
  372MOL0     C51237   4.936  10.061  10.694  0.7688  0.1310  1.3657
  372MOL0     C51238   4.897  10.168  10.805  0.4945  0.4519 -0.6923
  372MOL0     C51239   4.811  10.110  10.916 -0.4979  0.2823 -0.5775
  372MOL0     C51240   4.890  10.015  11.009  0.0562  1.0461  0.3900
  372MOL0     C51241   4.791   9.941  11.107  0.5223  0.2156 -0.0477
  372MOL0     C51242   4.860   9.827  11.199  0.9549  0.8607 -0.3779
  372MOL0    Cl51243   4.879   9.680  11.103  0.2909  0.1297 -0.2083
  372MOL0     C51244   4.858  10.519  10.629 -0.5302  0.8666 -0.1041
  372MOL0     C51245   4.921  10.636  10.655  0.3170 -0.1763 -0.2270
  372MOL0     O51246   5.300  10.683  10.685 -0.5615 -0.4300  0.5506
  372MOL0     C51247   5.263  11.023  10.602  0.6489 -0.1267 -0.0224
  372MOL0     C51248   5.323  11.153  10.616  0.5827 -0.3261  0.5305
  372MOL0     N51249   6.134  11.271  10.588  1.2423  0.7649  0.1684
  372MOL0     N51250   6.252  11.270  10.536 -0.0971  0.3312  0.3588
  372MOL0     C51251   7.040  11.172   9.562  0.8796 -0.5136 -0.4105
  372MOL0     C51252   7.102  11.202   9.439 -0.2601  0.1748  0.1098
  372MOL0     C51253   7.222  11.186   9.012  0.5819 -0.8578  0.0087
  372MOL0     C51254   7.265  11.079   8.941 -0.6106  0.2998 -0.5176
  372MOL0     C51255   7.324  11.096   8.814  0.8469 -0.6814 -0.4934
  372MOL0     C51256   7.330  11.228   8.760 -0.7391  0.3596 -0.0992
  372MOL0     O51257   7.374  11.258   8.632  0.1323 -0.6249 -0.7336
  372MOL0     C51258   7.507  11.214   8.591  0.9283 -0.9658  0.1265
  372MOL0     C51259   7.510  11.160   8.449 -0.2589  0.0588 -0.1862
  372MOL0     C51260   7.398  11.070   8.413  0.6985  0.2172  0.7543
  372MOL0     C51261   7.272  11.139   8.351  0.1597  0.1528 -0.2331
  372MOL0     C51262   7.201  11.028   8.280  0.1073 -0.4352  0.0136
  372MOL0     C51263   7.151  10.953   8.208  0.1287 -0.0285 -0.7024
  372MOL0     C51264   7.271  11.329   8.831  0.7880 -0.4598  0.2354
  372MOL0     C51265   7.213  11.320   8.953 -0.0206  0.0965 -0.3160
  372MOL0     C51266   7.155  11.445   9.000 -0.6308  0.2266 -0.0887
  372MOL0     H51267   6.821  11.302   9.282 -0.8507 -1.4389  0.6222
  372MOL0     H51268   6.737  11.310   9.495  0.3689 -1.4953  1.2718
  372MOL0     H51269   6.666  11.156   9.675  0.9715  1.3124 -0.7623
  372MOL0     H51270   6.690  11.291   9.778 -1.6838 -1.0590  0.1164
  372MOL0     H51271   6.579  11.100   9.879 -0.6661  2.2266 -2.1660
  372MOL0     H51272   6.720  11.006   9.866  1.9014  0.8525 -1.9457
  372MOL0     H51273   6.768  11.078  10.087  1.4093 -3.5220 -3.4825
  372MOL0     H51274   6.863  11.172   9.996  0.2786 -0.5038  2.7571
  372MOL0     H51275   6.753  11.326  10.128 -0.2427 -1.3518  0.8626
  372MOL0     H51276   6.662  11.339   9.976  3.4208 -0.6125 -1.1280
  372MOL0     H51277   6.576  11.242  10.261 -0.2038  0.2246 -0.1444
  372MOL0     H51278   6.526  11.146  10.128 -1.9897  0.3069  0.4959
  372MOL0     H51279   6.487  11.452  10.166  0.1418 -0.9457  0.6487
  372MOL0     H51280   6.426  11.359  10.023  1.3136 -3.2138 -1.2375
  372MOL0     H51281   6.313  11.226  10.235  2.1947 -0.7785 -2.8447
  372MOL0     H51282   6.232  11.384  10.177 -1.1136 -0.1595  1.5733
  372MOL0     H51283   6.444  11.368  10.374  0.6258 -2.1576 -4.3915
  372MOL0     H51284   6.369  11.513  10.324  2.3658 -0.6346 -1.8997
  372MOL0     H51285   6.064  11.531  10.423 -0.8522  0.9135  3.0637
  372MOL0     H51286   5.945  11.495  10.691 -1.9457  0.4335 -0.7646
  372MOL0     H51287   5.896  11.327  10.697  0.1544 -2.2281 -1.9293
  372MOL0     H51288   5.823  11.560  10.528 -2.1034 -0.1665  0.2692
  372MOL0     H51289   5.832  11.412  10.433  0.6685  2.5102 -1.7585
  372MOL0     H51290   5.674  11.489  10.687 -0.7545  1.4039 -0.7524
  372MOL0     H51291   5.596  11.475  10.535 -0.7270 -0.1303 -1.3139
  372MOL0     H51292   5.638  11.223  10.553 -0.6683  0.1620 -1.0125
  372MOL0     H51293   5.691  11.254  10.728 -3.2726  1.9067  2.3129
  372MOL0     H51294   5.588  11.072  10.791  0.9420 -3.4579  0.1353
  372MOL0     H51295   5.584  10.860  10.874 -1.2357  1.5688 -0.7796
  372MOL0     H51296   5.577  10.768  10.717  0.4722 -0.5599 -0.1277
  372MOL0     H51297   5.462  10.739  10.850 -2.6521  1.4965 -0.1565
  372MOL0     H51298   5.194  10.593  10.470 -0.0594 -1.6863 -0.3382
  372MOL0     H51299   5.095  10.379  10.424  0.2046  0.4311  0.0279
  372MOL0     H51300   4.857  10.102  10.459 -2.3948  1.1763  0.9125
  372MOL0     H51301   4.985  10.188  10.387  2.0951  1.9656  1.3365
  372MOL0     H51302   5.084  10.051  10.539  0.7189  2.2750 -1.3138
  372MOL0     H51303   5.074  10.209  10.626 -1.4410  1.2085  2.5976
  372MOL0     H51304   5.013   9.992  10.729  2.5955 -0.2465 -2.8364
  372MOL0     H51305   4.859  10.000  10.644  1.2681  0.8205 -0.3278
  372MOL0     H51306   4.843  10.252  10.761  0.5070  0.4140 -0.7790
  372MOL0     H51307   4.991  10.203  10.850 -0.7694  3.0145  0.1622
  372MOL0     H51308   4.776  10.189  10.983 -1.8439 -1.6605  1.1825
  372MOL0     H51309   4.724  10.057  10.876 -0.5059 -0.1750  0.0330
  372MOL0     H51310   4.966  10.061  11.072 -1.0089  0.8616  1.8643
  372MOL0     H51311   4.942   9.932  10.959  0.4848 -1.4549  4.5172
  372MOL0     H51312   4.703   9.915  11.047 -0.4219  0.4426  1.2051
  372MOL0     H51313   4.744  10.012  11.175 -1.7780 -3.0472  2.0578
  372MOL0     H51314   4.795   9.800  11.282 -4.2634 -0.1360 -4.2871
  372MOL0     H51315   4.960   9.853  11.235  0.5900 -1.5598  2.7540
  372MOL0     H51316   4.771  10.482  10.682  1.6488 -2.8040  1.2696
  372MOL0     H51317   4.881  10.714  10.719  1.0019  0.1194 -0.1472
  372MOL0     H51318   5.170  11.013  10.547 -0.2337  1.2428  1.1493
  372MOL0     H51319   5.277  11.240  10.570 -1.8028 -1.8798 -0.2364
  372MOL0     H51320   7.098  11.131   9.644  1.3266  0.3668 -0.2768
  372MOL0     H51321   7.208  11.188   9.420  0.2558  3.7291 -0.3686
  372MOL0     H51322   7.244  10.979   8.976 -0.8683  1.0135  1.5007
  372MOL0     H51323   7.347  11.018   8.742 -0.7634 -0.5699 -1.1777
  372MOL0     H51324   7.568  11.304   8.605  2.6214 -2.3422  2.2665
  372MOL0     H51325   7.541  11.135   8.659 -0.6874 -1.0097  0.9269
  372MOL0     H51326   7.599  11.105   8.418  1.1406  1.5379  0.9659
  372MOL0     H51327   7.529  11.244   8.382  1.5764 -0.6465 -0.6088
  372MOL0     H51328   7.432  10.987   8.350 -4.1024 -0.9751 -0.7098
  372MOL0     H51329   7.362  11.016   8.501  0.6826 -2.5142 -0.8005
  372MOL0     H51330   7.304  11.225   8.290 -2.8548  1.3916 -0.2441
  372MOL0     H51331   7.210  11.174   8.434  1.6585 -0.3786  1.1561
  372MOL0     H51332   7.088  10.888   8.150 -1.0414  2.3897 -2.2681
  372MOL0     H51333   7.261  11.422   8.776 -2.0155 -0.3900  0.7461
  372MOL0     H51334   7.150  11.518   8.918  3.0136 -0.0179 -0.6894
  372MOL0     H51335   7.052  11.424   9.030 -0.5128 -1.9437 -0.9960
  372MOL0     H51336   7.227  11.491   9.068 -0.5223  1.2724 -0.8722
  373MOL0     O51337   9.456   9.476   3.974  0.0622 -0.8206  1.7290
  373MOL0     C51338   9.432   9.525   4.081  1.0853  0.7213 -0.0289
  373MOL0     O51339   9.506   9.624   4.137 -0.9702 -0.2953 -0.5062
  373MOL0     C51340   9.614   9.679   4.067  0.4334  0.0561 -0.2496
  373MOL0     C51341   9.727   9.601   4.058 -0.9329  0.5318  0.5144
  373MOL0     C51342   9.819   9.638   3.966 -0.2082 -1.6005  0.7220
  373MOL0     C51343   9.802   9.745   3.883 -0.1947  0.0931 -0.6377
  373MOL0     O51344   9.903   9.770   3.788  0.4093  0.7584  0.4986
  373MOL0     C51345   9.868   9.825   3.663 -0.2984 -0.2268  0.3165
  373MOL0     C51346   9.937   9.952   3.644  0.5228  0.0088  0.5373
  373MOL0     C51347   9.945   9.998   3.496  0.9338  0.3906  0.7839
  373MOL0     C51348   9.802  10.016   3.433 -0.6155  0.4930  0.4449
  373MOL0     C51349   9.768  10.150   3.380 -0.6074 -0.5380  2.1357
  373MOL0     C51350   9.856  10.190   3.259 -0.7221  0.7636 -0.6644
  373MOL0     C51351   9.851  10.088   3.148 -0.4668  0.1960  0.2865
  373MOL0     C51352   9.720  10.080   3.072  0.4530 -0.0485  0.3430
  373MOL0     N51353   9.676  10.208   3.003  0.2984  0.6481 -0.8682
  373MOL0     C51354   9.752  10.275   2.910  0.7355 -0.8135 -0.3211
  373MOL0     C51355   9.651  10.339   2.843 -0.2015 -0.9932 -0.3052
  373MOL0     C51356   9.672  10.449   2.736  0.3280 -0.7540 -0.1296
  373MOL0     C51357   9.647  10.583   2.801  1.0217  0.0748 -0.0816
  373MOL0     C51358   9.618  10.709   2.713  0.3747  0.5090  0.2951
  373MOL0     C51359   9.605  10.834   2.807 -0.4370 -0.3096 -0.7890
  373MOL0     O51360   9.737  10.871   2.821  0.0279 -0.3675  0.1320
  373MOL0     C51361   9.757  11.000   2.871  0.3539 -0.3485 -0.0491
  373MOL0     C51362   9.868  11.072   2.824  0.1242  0.1357  0.3105
  373MOL0     C51363   9.908  11.206   2.865  0.1661  0.0921  0.7962
  373MOL0     C51364  10.029  11.267   2.794  0.3475 -0.4504  1.2449
  373MOL0     C51365   9.819  11.275   2.958  0.7397  1.0991  0.1645
  373MOL0     C51366   9.814  11.410   3.016 -0.0994  0.4827 -0.1097
  373MOL0     O51367   9.699  11.463   3.053 -0.2401 -0.3684 -0.1124
  373MOL0     C51368   9.699  11.600   3.091 -0.0513  0.4952  0.8676
  373MOL0     C51369   9.766  11.641   3.209 -0.5056  0.3588 -0.2734
  373MOL0     C51370   9.778  11.775   3.248  0.1811 -1.3963  0.3996
  373MOL0     C51371   9.716  11.878   3.167  1.0645  0.6320  0.1959
  373MOL0     O51372   9.728  12.015   3.185 -0.2906 -0.5884  0.0169
  373MOL0     C51373   9.823  12.055   3.290  0.0879  0.9812  0.6144
  373MOL0     C51374   9.846  12.207   3.293  0.4404  0.8277  1.1844
  373MOL0     C51375   9.938  12.246   3.173  0.7331  0.0285  0.3315
  373MOL0     C51376   9.958  12.400   3.160 -1.1505 -0.3698 -0.0745
  373MOL0     C51377  10.085  12.450   3.240  0.8081  0.0367 -0.0244
  373MOL0     C51378  10.081  12.446   3.389  0.5666  0.2829 -0.0335
  373MOL0     C51379  10.215  12.441   3.464 -0.6426  0.0273 -0.3286
  373MOL0     C51380  10.179  12.477   3.611  0.5345  0.5853 -0.7505
  373MOL0    Cl51381  10.235  12.641   3.665 -0.4377  0.0577  0.1724
  373MOL0     C51382   9.634  11.838   3.052 -0.2883 -0.3170 -0.3445
  373MOL0     C51383   9.636  11.700   3.007  0.3335  0.4000 -1.7101
  373MOL0     O51384   9.926  11.473   3.010  0.5635  0.2494  0.3966
  373MOL0     C51385   9.710  11.194   3.014  0.7106 -0.6943  1.0451
  373MOL0     C51386   9.678  11.065   2.966 -0.5313 -0.5773 -0.0513
  373MOL0     N51387   9.529  10.293   2.883  0.1423  0.0886  0.2858
  373MOL0     N51388   9.546  10.208   2.973 -0.3077 -0.1364 -0.2898
  373MOL0     C51389   9.696   9.838   3.908  0.1191  0.5188 -0.5965
  373MOL0     C51390   9.594   9.797   3.997  1.2566 -0.3804  0.2170
  373MOL0     C51391   9.334   9.455   4.165  0.3432  0.9046 -0.2150
  373MOL0     C51392   9.330   9.489   4.300  0.8966  0.1094  0.5460
  373MOL0     C51393   9.242   9.418   4.397 -0.1874  0.5073  0.1514
  373MOL0     C51394   9.165   9.308   4.350 -0.0413  0.0730 -0.2487
  373MOL0     O51395   9.081   9.243   4.432 -0.4889 -0.1782 -0.1462
  373MOL0     C51396   9.039   9.112   4.395  0.6275 -0.3084  0.0876
  373MOL0     C51397   8.977   9.034   4.514 -0.5055 -0.5879 -0.6551
  373MOL0     C51398   8.929   8.895   4.467 -0.0301 -0.6139 -0.6978
  373MOL0     C51399   9.038   8.792   4.482  0.3603  1.3344  0.4409
  373MOL0     C51400   9.061   8.756   4.619 -0.1801 -0.4374 -0.4934
  373MOL0     C51401   9.103   8.727   4.733 -0.0868  0.3055  0.7777
  373MOL0     C51402   9.156   9.286   4.205  1.0490 -0.4767  0.5043
  373MOL0     C51403   9.231   9.367   4.113  0.7044  0.0691 -0.4123
  373MOL0     C51404   9.209   9.355   3.972 -0.1698  0.4111  0.0985
  373MOL0     H51405   9.742   9.510   4.114  1.5833  0.9256  0.5959
  373MOL0     H51406   9.911   9.585   3.946  3.1125  3.9005 -0.7762
  373MOL0     H51407   9.759   9.839   3.657 -0.3406 -1.0907 -4.1060
  373MOL0     H51408   9.893   9.750   3.588 -0.8687 -0.6578  0.5456
  373MOL0     H51409   9.898  10.034   3.706 -0.4848 -2.5141  3.5463
  373MOL0     H51410  10.036   9.915   3.673  0.5687  0.9934  1.6975
  373MOL0     H51411  10.012  10.083   3.479 -0.2017  1.0412 -0.6497
  373MOL0     H51412   9.995   9.917   3.442  1.0865  2.3933 -2.3239
  373MOL0     H51413   9.771   9.934   3.368  1.1782  1.4452 -1.7540
  373MOL0     H51414   9.732  10.014   3.516 -0.6268  3.3948  0.6050
  373MOL0     H51415   9.771  10.233   3.450 -0.1554  3.0459 -1.7310
  373MOL0     H51416   9.665  10.148   3.341 -0.2099 -0.4994  1.0418
  373MOL0     H51417   9.821  10.288   3.225  1.3149  1.7098 -0.2075
  373MOL0     H51418   9.958  10.199   3.300 -1.1388  0.8004  0.3944
  373MOL0     H51419   9.870   9.992   3.196 -1.6021 -0.2446 -0.1025
  373MOL0     H51420   9.940  10.101   3.086  0.7469 -3.8048  0.9380
  373MOL0     H51421   9.725  10.007   2.990  3.6843  1.8430 -1.3454
  373MOL0     H51422   9.648  10.046   3.147 -2.0547  3.1077 -0.4199
  373MOL0     H51423   9.859  10.282   2.899  0.8997 -2.6754 -0.1592
  373MOL0     H51424   9.610  10.433   2.648  0.6362 -3.3006  0.0580
  373MOL0     H51425   9.776  10.457   2.702 -0.8074  1.2019 -3.6770
  373MOL0     H51426   9.556  10.574   2.862  0.1480  1.6884 -1.0635
  373MOL0     H51427   9.732  10.603   2.866 -1.0472  1.8778  2.2816
  373MOL0     H51428   9.691  10.723   2.633 -1.0356  0.5872 -1.0216
  373MOL0     H51429   9.517  10.694   2.672 -0.2278 -2.0429  2.3917
  373MOL0     H51430   9.557  10.922   2.763  0.8416  1.0247  0.3782
  373MOL0     H51431   9.571  10.820   2.910  0.9904  1.6667  0.0360
  373MOL0     H51432   9.926  11.021   2.747  0.3892  0.1338  0.5090
  373MOL0     H51433  10.075  11.338   2.863  0.8690  1.1039 -0.6011
  373MOL0     H51434   9.999  11.315   2.700  2.1031 -1.7401 -0.0485
  373MOL0     H51435  10.106  11.191   2.779 -2.7855 -5.4697  6.4351
  373MOL0     H51436   9.804  11.566   3.278 -0.9015  3.3039  3.4335
  373MOL0     H51437   9.831  11.794   3.341  2.3518 -1.8771 -0.6976
  373MOL0     H51438   9.779  12.021   3.384 -1.2127  0.7204 -0.0639
  373MOL0     H51439   9.922  12.012   3.271  0.4086  2.0390 -0.2049
  373MOL0     H51440   9.751  12.262   3.300  0.4941  1.9065 -3.3456
  373MOL0     H51441   9.888  12.222   3.393  1.9773  0.4033  0.6346
  373MOL0     H51442   9.889  12.217   3.079  0.6049  1.2051  0.0290
  373MOL0     H51443  10.033  12.194   3.187  0.7297 -0.2645 -0.6230
  373MOL0     H51444   9.871  12.456   3.197  0.5839  3.8301 -1.7820
  373MOL0     H51445   9.963  12.428   3.055 -0.2768  0.8566  0.2717
  373MOL0     H51446  10.175  12.397   3.209 -0.5359 -2.9516  0.8553
  373MOL0     H51447  10.077  12.557   3.219 -0.0388  0.2298  1.2047
  373MOL0     H51448  10.025  12.359   3.424  0.8092  0.2454  0.2650
  373MOL0     H51449  10.036  12.541   3.422  5.1064  2.6307  0.1967
  373MOL0     H51450  10.300  12.505   3.437  0.6258 -2.0990 -1.6067
  373MOL0     H51451  10.247  12.338   3.480 -2.2842 -0.1182  2.8239
  373MOL0     H51452  10.223  12.403   3.679 -2.2101 -1.0371 -0.5871
  373MOL0     H51453  10.071  12.465   3.625  0.1521  0.1620 -3.5763
  373MOL0     H51454   9.592  11.920   2.995  2.1461  2.2439  1.3379
  373MOL0     H51455   9.593  11.654   2.919  1.0479 -1.3275 -1.2036
  373MOL0     H51456   9.642  11.226   3.092 -1.4815  1.8050 -1.6459
  373MOL0     H51457   9.585  11.033   3.013 -1.1188 -4.6997 -3.3461
  373MOL0     H51458   9.678   9.932   3.857 -1.3542 -0.2863 -1.6620
  373MOL0     H51459   9.497   9.844   4.013  1.4281 -0.8359  3.0583
  373MOL0     H51460   9.406   9.557   4.337  0.8811 -0.8331  2.4127
  373MOL0     H51461   9.244   9.450   4.500  0.2979 -0.2892  0.4031
  373MOL0     H51462   8.965   9.106   4.315 -0.4144  0.7424  0.9377
  373MOL0     H51463   9.115   9.044   4.356 -1.1739 -2.1101 -0.4672
  373MOL0     H51464   8.887   9.088   4.544  0.1540  0.4569 -0.4802
  373MOL0     H51465   9.049   9.018   4.595  0.1526 -0.8748 -1.2909
  373MOL0     H51466   8.843   8.866   4.528  1.7481 -1.5715  1.5359
  373MOL0     H51467   8.899   8.892   4.362 -0.8465 -4.3564 -0.4899
  373MOL0     H51468   9.130   8.827   4.435  0.3637 -0.0426 -0.6498
  373MOL0     H51469   9.011   8.701   4.427 -0.9916  0.9584  1.6523
  373MOL0     H51470   9.134   8.699   4.832 -2.5910 -3.1092  0.7856
  373MOL0     H51471   9.098   9.202   4.169  0.6379  0.2662 -0.6094
  373MOL0     H51472   9.120   9.297   3.948  0.8529 -1.5276  0.7374
  373MOL0     H51473   9.209   9.456   3.930 -0.2440 -0.2304 -1.5183
  373MOL0     H51474   9.290   9.290   3.938 -1.9729 -2.2785  0.6816
  374MOL0     O51475   5.022   3.617   3.227 -0.0684  0.1031 -0.2405
  374MOL0     C51476   4.983   3.690   3.141 -0.1213  0.7940 -0.3302
  374MOL0     O51477   5.060   3.740   3.049 -0.1270 -0.1502 -1.2147
  374MOL0     C51478   5.170   3.677   2.997 -0.2137 -0.1845 -0.0629
  374MOL0     C51479   5.272   3.755   2.950  0.1867  1.2351 -0.3179
  374MOL0     C51480   5.390   3.693   2.907  0.4991  0.0225 -0.5153
  374MOL0     C51481   5.394   3.558   2.906 -0.4969  0.1639 -0.4406
  374MOL0     O51482   5.519   3.505   2.869 -0.2384  0.0945  0.7854
  374MOL0     C51483   5.526   3.386   2.792 -0.5589 -0.0619 -0.4416
  374MOL0     C51484   5.537   3.421   2.644  0.3534  0.1571 -0.0120
  374MOL0     C51485   5.408   3.442   2.563 -0.2630 -0.0196  0.0635
  374MOL0     C51486   5.290   3.342   2.584  0.8262  0.0561  0.3811
  374MOL0     C51487   5.162   3.360   2.505 -0.1822 -0.7907  0.2149
  374MOL0     C51488   5.101   3.499   2.529  0.3349 -0.2150  0.4556
  374MOL0     C51489   5.096   3.528   2.674 -0.4798  0.7745  0.1212
  374MOL0     C51490   4.981   3.627   2.698 -1.0208 -0.3489  0.1929
  374MOL0     N51491   4.845   3.587   2.709  0.4123 -0.1103  0.6118
  374MOL0     C51492   4.786   3.459   2.707 -0.2744  0.4947 -0.8343
  374MOL0     C51493   4.653   3.478   2.704  0.6321  0.3359 -0.2265
  374MOL0     C51494   4.534   3.395   2.720 -0.3978 -0.4945  0.0238
  374MOL0     C51495   4.438   3.442   2.840  0.4857  0.2542 -0.3496
  374MOL0     C51496   4.299   3.373   2.837 -0.3774  0.5209  0.5635
  374MOL0     C51497   4.215   3.423   2.959 -0.1428 -0.5008 -1.0061
  374MOL0     O51498   4.114   3.321   2.976 -0.2609  0.1720 -0.8666
  374MOL0     C51499   3.992   3.344   2.937  0.2119 -0.5114  0.0441
  374MOL0     C51500   3.885   3.333   3.032 -0.1302 -0.3381 -0.2290
  374MOL0     C51501   3.750   3.361   3.000 -0.5534 -0.4598  0.2024
  374MOL0     C51502   3.648   3.329   3.119  0.5192  0.3700  0.2272
  374MOL0     C51503   3.714   3.394   2.868  0.1359 -0.6417 -1.0864
  374MOL0     C51504   3.567   3.423   2.822  0.7641  0.7580 -0.2452
  374MOL0     O51505   3.469   3.396   2.905  0.5626  0.2308  1.1719
  374MOL0     C51506   3.344   3.360   2.864 -0.1944  0.0053  0.4254
  374MOL0     C51507   3.231   3.393   2.941  0.8568 -0.4518  0.3130
  374MOL0     C51508   3.105   3.352   2.902  0.1891  0.7284 -0.0747
  374MOL0     C51509   3.089   3.256   2.794 -1.1889 -0.5251 -0.0290
  374MOL0     O51510   2.969   3.214   2.746  0.0222 -0.0222  0.0150
  374MOL0     C51511   2.882   3.147   2.839 -0.5364 -0.1638  0.0455
  374MOL0     C51512   2.760   3.122   2.762  0.7720  0.2430  0.3700
  374MOL0     C51513   2.663   3.018   2.817  0.9318  0.5453  0.3267
  374MOL0     C51514   2.549   3.010   2.718  0.2781 -1.4661  0.8373
  374MOL0     C51515   2.451   2.894   2.748  0.3712 -0.1462  0.9168
  374MOL0     C51516   2.350   2.864   2.626 -0.5183  0.0229  0.7162
  374MOL0     C51517   2.265   2.987   2.577 -0.0962  0.5430  0.3060
  374MOL0     C51518   2.197   3.050   2.696  0.8064  0.5200 -0.8824
  374MOL0    Cl51519   2.080   3.166   2.646 -0.4105 -0.4355  0.3906
  374MOL0     C51520   3.204   3.203   2.737  0.4422  0.1914 -0.6739
  374MOL0     C51521   3.329   3.264   2.760 -0.1685 -0.9361 -0.8161
  374MOL0     O51522   3.548   3.449   2.700  0.3651  0.8000 -0.8294
  374MOL0     C51523   3.818   3.378   2.766  0.0901 -0.3291  0.0811
  374MOL0     C51524   3.957   3.365   2.805  0.4898  0.0382 -1.3563
  374MOL0     N51525   4.626   3.604   2.703  0.0987 -0.3002 -0.3912
  374MOL0     N51526   4.738   3.673   2.706 -0.1508  0.1121  0.6501
  374MOL0     C51527   5.288   3.477   2.945  0.8609 -0.3819  0.4272
  374MOL0     C51528   5.175   3.537   2.993 -0.6052 -0.1253 -0.2652
  374MOL0     C51529   4.847   3.747   3.162 -0.1613 -0.2455 -0.9025
  374MOL0     C51530   4.787   3.786   3.042  0.4333 -0.7057  0.1275
  374MOL0     C51531   4.658   3.837   3.042 -0.8544 -0.7545 -1.1502
  374MOL0     C51532   4.587   3.843   3.163 -0.4676  0.1326 -0.2654
  374MOL0     O51533   4.451   3.868   3.175 -0.2028  0.6313  0.3171
  374MOL0     C51534   4.369   3.905   3.066 -0.3555 -0.2282  1.0073
  374MOL0     C51535   4.223   3.910   3.086 -0.3620  0.6126  0.9080
  374MOL0     C51536   4.202   4.013   3.205  0.2269 -0.7069 -0.0903
  374MOL0     C51537   4.052   4.048   3.204  0.0276 -0.0935 -0.4934
  374MOL0     C51538   4.026   4.139   3.317  0.1799 -0.4224  0.7129
  374MOL0     C51539   4.012   4.223   3.400  0.2716 -0.8177  0.0787
  374MOL0     C51540   4.647   3.809   3.279 -0.1229  0.1761 -0.9428
  374MOL0     C51541   4.775   3.766   3.284 -0.3702 -0.1246 -0.1240
  374MOL0     C51542   4.846   3.748   3.418  0.6822 -0.3812  1.3997
  374MOL0     H51543   5.262   3.863   2.954  1.0464  1.3159 -0.0439
  374MOL0     H51544   5.463   3.762   2.866  0.5669  1.0109  1.1687
  374MOL0     H51545   5.438   3.321   2.797  0.3975 -1.3157  1.4244
  374MOL0     H51546   5.614   3.337   2.835 -1.3965 -1.4777 -0.2869
  374MOL0     H51547   5.596   3.513   2.634  0.5442  0.1692  1.0541
  374MOL0     H51548   5.590   3.338   2.597 -3.5712 -2.1008 -0.9146
  374MOL0     H51549   5.362   3.541   2.571 -1.6870 -0.8133  3.1162
  374MOL0     H51550   5.445   3.423   2.462 -1.5930 -0.8214 -0.2881
  374MOL0     H51551   5.338   3.245   2.567  2.6463  0.6059  2.0966
  374MOL0     H51552   5.266   3.348   2.690  0.4940  0.8710  0.2703
  374MOL0     H51553   5.081   3.292   2.533 -0.8482 -0.7933 -1.6442
  374MOL0     H51554   5.174   3.354   2.397 -0.1300 -1.4080  0.2489
  374MOL0     H51555   5.164   3.570   2.474 -1.6860  3.5107  2.5801
  374MOL0     H51556   5.002   3.501   2.483  0.7778  1.3187 -0.5415
  374MOL0     H51557   5.188   3.582   2.697 -0.1160 -0.2348  1.1165
  374MOL0     H51558   5.088   3.437   2.734 -0.2604  0.5465 -0.1915
  374MOL0     H51559   4.992   3.679   2.794 -0.8143  0.6248 -0.3481
  374MOL0     H51560   4.983   3.705   2.622 -1.2474  2.3454  2.7642
  374MOL0     H51561   4.845   3.367   2.707  0.4482  0.9131  0.8700
  374MOL0     H51562   4.568   3.295   2.750  2.4508  0.4878  0.4037
  374MOL0     H51563   4.488   3.386   2.621  2.1382  0.6549 -1.3574
  374MOL0     H51564   4.484   3.435   2.939 -0.0643  0.1360 -0.0963
  374MOL0     H51565   4.427   3.551   2.829 -1.2153  0.2063  0.5787
  374MOL0     H51566   4.252   3.394   2.741  1.3128  1.8954 -0.0109
  374MOL0     H51567   4.322   3.266   2.843  1.8371  0.9844  1.6148
  374MOL0     H51568   4.282   3.427   3.045  0.2607  4.4317 -1.2376
  374MOL0     H51569   4.172   3.524   2.950  2.5044  0.9459  1.2141
  374MOL0     H51570   3.909   3.342   3.138  0.2496 -1.2374 -0.2330
  374MOL0     H51571   3.705   3.298   3.206  0.7258 -0.9781 -0.3583
  374MOL0     H51572   3.584   3.248   3.082  0.0071 -0.3672  2.6088
  374MOL0     H51573   3.591   3.419   3.143 -0.9913 -0.1789 -1.1140
  374MOL0     H51574   3.230   3.464   3.023  2.2035  1.9734 -1.6129
  374MOL0     H51575   3.020   3.392   2.956 -3.2715 -1.5014 -3.3814
  374MOL0     H51576   2.934   3.054   2.862  0.3173 -0.9980 -4.3122
  374MOL0     H51577   2.869   3.216   2.923  1.5342 -0.7344  0.8848
  374MOL0     H51578   2.711   3.220   2.760  0.8008  0.2466 -1.6380
  374MOL0     H51579   2.782   3.086   2.662  0.1979 -0.2954  0.4307
  374MOL0     H51580   2.628   3.049   2.916 -0.6662  0.6315 -0.2400
  374MOL0     H51581   2.711   2.920   2.829 -1.9706 -0.7616  2.4993
  374MOL0     H51582   2.589   3.010   2.617  5.9714  0.4028  2.6820
  374MOL0     H51583   2.508   3.111   2.709  0.9348 -1.3164 -0.6618
  374MOL0     H51584   2.507   2.804   2.774 -1.3443 -1.0889  1.4657
  374MOL0     H51585   2.392   2.922   2.836  0.3049  3.4958 -0.1315
  374MOL0     H51586   2.281   2.783   2.650 -1.3161 -0.0168 -1.4853
  374MOL0     H51587   2.411   2.851   2.536  1.9983 -1.7783  2.5431
  374MOL0     H51588   2.187   2.972   2.501  0.4382  1.3783 -0.4217
  374MOL0     H51589   2.330   3.069   2.547 -0.4465  1.3710  1.7005
  374MOL0     H51590   2.277   3.104   2.747 -1.2482  1.6481  1.3249
  374MOL0     H51591   2.137   2.977   2.750  1.0475 -1.5057 -3.1824
  374MOL0     H51592   3.185   3.130   2.659  0.8557  0.0748 -0.6721
  374MOL0     H51593   3.417   3.235   2.703  0.9314 -1.0291  0.8486
  374MOL0     H51594   3.790   3.405   2.665 -1.0283 -3.0982 -0.4221
  374MOL0     H51595   4.033   3.369   2.728  1.0784  2.4396 -0.7418
  374MOL0     H51596   5.294   3.369   2.950  1.1930 -0.3841  0.0010
  374MOL0     H51597   5.101   3.467   3.031 -2.0506  1.0619 -0.8076
  374MOL0     H51598   4.829   3.786   2.942 -1.0944 -0.7557 -0.5441
  374MOL0     H51599   4.618   3.872   2.947 -0.5866 -1.4563 -1.5290
  374MOL0     H51600   4.408   3.999   3.027 -2.2543 -0.1512 -0.8884
  374MOL0     H51601   4.397   3.832   2.988  1.5495  2.5440 -1.1038
  374MOL0     H51602   4.182   3.809   3.092 -1.5353  0.7700 -2.6136
  374MOL0     H51603   4.187   3.948   2.991  1.7610 -1.1307 -0.6987
  374MOL0     H51604   4.233   3.970   3.301 -0.5202  0.0796  0.5185
  374MOL0     H51605   4.250   4.108   3.183 -1.4293  0.1491 -0.1662
  374MOL0     H51606   3.989   3.958   3.207  2.8569 -2.2008 -0.9230
  374MOL0     H51607   4.021   4.104   3.115 -2.0914 -0.1410  0.1430
  374MOL0     H51608   3.998   4.307   3.465  1.2271  0.9970 -1.9402
  374MOL0     H51609   4.593   3.809   3.373 -1.3603  1.7244 -1.5990
  374MOL0     H51610   4.776   3.773   3.498  0.8383 -0.7769  1.6603
  374MOL0     H51611   4.864   3.641   3.433  0.3362 -0.2545  2.8127
  374MOL0     H51612   4.939   3.804   3.421  2.0612 -2.2739 -1.3211
  375MOL0     O51613   7.726   9.340  10.235  0.0177  0.3916  0.0196
  375MOL0     C51614   7.810   9.424  10.240 -0.5591  0.2744  0.1371
  375MOL0     O51615   7.790   9.555  10.190  0.1654 -0.1636 -0.5407
  375MOL0     C51616   7.661   9.595  10.160  0.0117  0.3868  0.2216
  375MOL0     C51617   7.592   9.667  10.261  0.0841 -0.1669  0.3915
  375MOL0     C51618   7.460   9.708  10.233 -0.4995  0.1012 -0.0467
  375MOL0     C51619   7.392   9.671  10.113 -0.8191 -0.0885 -0.2175
  375MOL0     O51620   7.262   9.672  10.090 -0.4585 -0.4810 -0.3568
  375MOL0     C51621   7.187   9.778  10.156  0.1679 -0.0997  0.6090
  375MOL0     C51622   7.039   9.782  10.109 -0.1286 -0.6390 -0.6678
  375MOL0     C51623   7.033   9.836   9.963  0.2724  0.2745 -0.0585
  375MOL0     C51624   6.895   9.907   9.934 -1.0313  0.5298 -1.0001
  375MOL0     C51625   6.881   9.878   9.781  0.4462 -0.6279 -0.3831
  375MOL0     C51626   6.756   9.952   9.722 -0.3485  0.2105 -0.9335
  375MOL0     C51627   6.788   9.985   9.576  0.2446  0.5260  0.0984
  375MOL0     C51628   6.664  10.037   9.511 -0.2859  0.3499 -0.3150
  375MOL0     N51629   6.629  10.173   9.550 -0.5828 -0.0396  0.6095
  375MOL0     C51630   6.726  10.274   9.576 -0.3248  0.0981 -0.2689
  375MOL0     C51631   6.665  10.367   9.648  0.9433 -1.0118  1.2634
  375MOL0     C51632   6.723  10.491   9.682  1.3907  0.0210  1.8036
  375MOL0     C51633   6.796  10.483   9.815  0.2468  0.7673  0.6169
  375MOL0     C51634   6.885  10.353   9.828 -0.1161 -0.6154  0.5226
  375MOL0     C51635   6.977  10.329   9.951  0.1153 -0.4909 -0.1896
  375MOL0     O51636   7.082  10.424   9.931 -0.0317 -0.0176 -0.2249
  375MOL0     C51637   7.212  10.387   9.970  0.5371 -0.8895 -0.5669
  375MOL0     C51638   7.247  10.290  10.077 -0.7622 -0.3219 -0.2179
  375MOL0     C51639   7.379  10.249  10.088  0.3352  0.0309 -0.1525
  375MOL0     C51640   7.402  10.133  10.173  0.5144  0.0830  0.0368
  375MOL0     C51641   7.486  10.315  10.013  0.1803 -0.3509  0.0109
  375MOL0     C51642   7.624  10.284  10.024  0.2805  0.1496  0.3919
  375MOL0     O51643   7.701  10.307   9.918 -0.3921 -0.3951  0.3381
  375MOL0     C51644   7.842  10.281   9.931  1.6653  0.0969 -0.5256
  375MOL0     C51645   7.933  10.382   9.909  0.5359  0.1757 -0.0308
  375MOL0     C51646   8.067  10.348   9.910 -0.2501 -0.5192 -0.6651
  375MOL0     C51647   8.114  10.221   9.953  0.9306  0.8043 -0.4826
  375MOL0     O51648   8.246  10.223   9.967 -0.1435  0.4894 -0.3698
  375MOL0     C51649   8.304  10.100  10.002 -0.0991  0.8701  0.2843
  375MOL0     C51650   8.300  10.070  10.155  0.3310 -1.1552  0.7251
  375MOL0     C51651   8.337  10.201  10.242 -1.2291 -0.1803  0.0514
  375MOL0     C51652   8.363  10.184  10.402  0.3966  0.2098  0.4974
  375MOL0     C51653   8.258  10.097  10.469  0.2946  0.3389  0.0587
  375MOL0     C51654   8.143  10.201  10.500  0.2298 -0.4664  0.5739
  375MOL0     C51655   8.014  10.137  10.545 -0.3674 -0.1413 -0.1869
  375MOL0     C51656   7.919  10.099  10.435 -0.0766 -0.6521  1.0527
  375MOL0    Cl51657   7.940   9.929  10.374 -0.1160 -0.0576  0.0636
  375MOL0     C51658   8.017  10.126   9.974 -0.8107  0.8172 -0.2939
  375MOL0     C51659   7.879  10.154   9.960 -0.9838  0.0959  0.9199
  375MOL0     O51660   7.672  10.247  10.131 -0.2845  0.3631  0.3087
  375MOL0     C51661   7.446  10.413   9.916 -0.3937 -0.1477  0.2844
  375MOL0     C51662   7.315  10.448   9.898  0.5284 -0.8433 -0.2923
  375MOL0     N51663   6.536  10.333   9.667 -0.1390 -0.8257 -0.2233
  375MOL0     N51664   6.510  10.221   9.603  0.0759  0.0608  0.6061
  375MOL0     C51665   7.461   9.594  10.020 -0.1553  0.6053  0.2970
  375MOL0     C51666   7.595   9.556  10.040 -0.3595  0.7503 -0.0713
  375MOL0     C51667   7.948   9.386  10.284 -0.3329 -0.1056  0.9793
  375MOL0     C51668   8.032   9.481  10.308  0.2097  0.2817 -0.3811
  375MOL0     C51669   8.162   9.465  10.369 -0.4382  0.3488 -0.5644
  375MOL0     C51670   8.190   9.340  10.411 -0.5263  0.1575  0.9316
  375MOL0     O51671   8.298   9.311  10.486  0.5182 -0.7560  0.0876
  375MOL0     C51672   8.257   9.292  10.617 -0.5645  1.1824 -0.1282
  375MOL0     C51673   8.315   9.167  10.673 -0.4361 -0.2553  0.0723
  375MOL0     C51674   8.255   9.121  10.818 -0.4777 -0.0288  0.9935
  375MOL0     C51675   8.116   9.054  10.817  0.1151  0.5510  0.3805
  375MOL0     C51676   8.121   8.941  10.721 -0.0336 -0.2779 -0.6955
  375MOL0     C51677   8.125   8.863  10.629  0.7599 -0.5354  0.6252
  375MOL0     C51678   8.113   9.234  10.373  0.3973 -1.2968 -0.2502
  375MOL0     C51679   7.991   9.254  10.317  0.5406 -0.5605 -0.1805
  375MOL0     C51680   7.902   9.133  10.300 -0.7711 -0.3413  0.7109
  375MOL0     H51681   7.641   9.700  10.352 -0.1917  0.9812  0.1485
  375MOL0     H51682   7.400   9.766  10.302 -2.0202 -0.4880 -0.8152
  375MOL0     H51683   7.237   9.870  10.125  0.7041 -0.3172  0.8246
  375MOL0     H51684   7.184   9.778  10.266 -1.9923 -0.0816  0.6011
  375MOL0     H51685   6.987   9.690  10.135  2.5846 -2.1488 -0.1327
  375MOL0     H51686   6.979   9.855  10.165 -0.1203 -1.4538  0.4263
  375MOL0     H51687   7.114   9.907   9.940  0.0121  1.7847  3.1057
  375MOL0     H51688   7.032   9.752   9.894 -2.2632  0.1126  0.0789
  375MOL0     H51689   6.816   9.858   9.992 -0.4172  1.8241  1.0508
  375MOL0     H51690   6.903  10.012   9.963 -0.3959  0.6961 -1.7393
  375MOL0     H51691   6.877   9.770   9.764 -0.9535 -0.9067  1.2946
  375MOL0     H51692   6.970   9.918   9.732  0.7209 -0.9306 -0.1407
  375MOL0     H51693   6.665   9.891   9.731 -2.0916  2.5709 -1.6037
  375MOL0     H51694   6.736  10.038   9.787 -3.4904 -0.5484 -0.7072
  375MOL0     H51695   6.816   9.900   9.515 -0.1188  1.7164 -1.8150
  375MOL0     H51696   6.861  10.064   9.557 -0.0009 -0.0475 -4.1692
  375MOL0     H51697   6.670  10.033   9.402 -0.6478 -2.9528 -0.3202
  375MOL0     H51698   6.582   9.967   9.530 -0.4160  0.3667 -0.8002
  375MOL0     H51699   6.824  10.285   9.531 -0.6287 -2.7206 -1.8607
  375MOL0     H51700   6.650  10.573   9.682  0.8175 -0.4270 -0.0280
  375MOL0     H51701   6.806  10.520   9.617 -1.6555  1.9635 -1.6237
  375MOL0     H51702   6.867  10.566   9.815 -0.1051  1.0850  1.7326
  375MOL0     H51703   6.723  10.482   9.897  0.6441 -2.7183  1.0498
  375MOL0     H51704   6.818  10.266   9.829 -0.5426 -0.2916  0.2896
  375MOL0     H51705   6.953  10.342   9.743 -1.9588 -0.0218 -1.1064
  375MOL0     H51706   6.919  10.347  10.042  0.1336 -2.3115  0.2054
  375MOL0     H51707   7.017  10.228   9.952  1.7773  0.0610 -2.4149
  375MOL0     H51708   7.175  10.236  10.138  0.3737 -0.8212  0.7222
  375MOL0     H51709   7.313  10.069  10.180 -1.7472  3.1675  2.5198
  375MOL0     H51710   7.427  10.153  10.278  0.0269  0.3553  0.1071
  375MOL0     H51711   7.485  10.079  10.126  1.6804  2.6972 -1.0869
  375MOL0     H51712   7.898  10.476   9.868  0.8210  0.8346  1.1841
  375MOL0     H51713   8.152  10.409   9.880  2.9689 -3.7271  1.2216
  375MOL0     H51714   8.280  10.010   9.945  2.1999  2.4462 -3.6071
  375MOL0     H51715   8.409  10.117   9.975  0.3189  1.6861  2.2919
  375MOL0     H51716   8.208  10.027  10.197  0.8191 -2.2100  0.7437
  375MOL0     H51717   8.378  10.000  10.186  1.6045  0.6011  1.6829
  375MOL0     H51718   8.253  10.271  10.231 -1.7328 -1.0795 -2.6896
  375MOL0     H51719   8.430  10.248  10.207 -1.4482  0.2837  0.0949
  375MOL0     H51720   8.365  10.279  10.456  0.1711  0.1087  0.6882
  375MOL0     H51721   8.456  10.127  10.405  0.6765  0.7002  1.6091
  375MOL0     H51722   8.233  10.008  10.410  3.2430 -2.7270  3.0045
  375MOL0     H51723   8.300  10.070  10.566 -1.0916  0.5768  0.7440
  375MOL0     H51724   8.122  10.266  10.415  2.5502 -1.9472 -1.2412
  375MOL0     H51725   8.182  10.267  10.578  1.1389 -0.1829 -0.0931
  375MOL0     H51726   7.960  10.221  10.591  1.8382  2.2837 -1.7115
  375MOL0     H51727   8.025  10.059  10.621 -0.9355  1.6423  1.8326
  375MOL0     H51728   7.930  10.165  10.349 -1.1253  0.8284  2.0173
  375MOL0     H51729   7.815  10.098  10.470  0.0571 -4.3366  1.7796
  375MOL0     H51730   8.052  10.024   9.987 -1.1312  0.4644 -2.0074
  375MOL0     H51731   7.795  10.085   9.964 -2.4111  1.5302 -1.4655
  375MOL0     H51732   7.510  10.461   9.843  1.3243 -0.4414  1.5399
  375MOL0     H51733   7.289  10.513   9.816 -0.8039  0.4473  1.0864
  375MOL0     H51734   7.416   9.561   9.927  0.6533  1.6167 -0.4608
  375MOL0     H51735   7.638   9.491   9.965  0.1082  1.1711 -0.1734
  375MOL0     H51736   7.998   9.580  10.277 -2.5231  0.2535  2.0745
  375MOL0     H51737   8.222   9.551  10.396  1.5393 -0.5527 -1.8256
  375MOL0     H51738   8.300   9.372  10.678 -0.2935  1.1522 -0.2770
  375MOL0     H51739   8.149   9.293  10.630 -0.6817  1.5369 -1.0484
  375MOL0     H51740   8.424   9.174  10.678  0.0259 -3.2564 -2.6030
  375MOL0     H51741   8.302   9.094  10.592  1.0879 -0.3173 -0.1471
  375MOL0     H51742   8.326   9.045  10.852 -0.5995  0.2566  1.9157
  375MOL0     H51743   8.247   9.199  10.894 -1.3512 -2.1877  3.2599
  375MOL0     H51744   8.043   9.128  10.783  0.6511  1.3704  0.9649
  375MOL0     H51745   8.082   9.020  10.916 -0.0920 -2.5184 -0.6230
  375MOL0     H51746   8.132   8.803  10.540  0.7939  1.3857 -0.7279
  375MOL0     H51747   8.153   9.141  10.412 -0.7869 -0.0072  4.7515
  375MOL0     H51748   7.865   9.119  10.198  1.0015  0.1021 -0.0278
  375MOL0     H51749   7.947   9.036  10.322 -1.4781 -0.4508  1.7504
  375MOL0     H51750   7.831   9.159  10.378 -0.8712  1.4770  0.0517
  376MOL0     O51751  10.152   9.555  11.112  0.2636  0.0059  0.1369
  376MOL0     C51752  10.272   9.557  11.151  0.6288  0.1127 -0.1617
  376MOL0     O51753  10.380   9.585  11.076  0.3277  0.1032 -0.0987
  376MOL0     C51754  10.366   9.612  10.942 -0.4322 -0.8633  0.7277
  376MOL0     C51755  10.405   9.516  10.847  0.0161  0.3258 -1.0704
  376MOL0     C51756  10.396   9.550  10.709  0.6779  0.9760 -0.9370
  376MOL0     C51757  10.360   9.678  10.662 -0.3919  0.1492  0.0629
  376MOL0     O51758  10.374   9.693  10.526  0.3647 -0.3499  0.1507
  376MOL0     C51759  10.379   9.823  10.470 -0.1746  0.9230 -0.4341
  376MOL0     C51760  10.402   9.827  10.325 -0.6390 -0.4040 -0.0017
  376MOL0     C51761  10.304   9.752  10.234  0.8346 -0.0118 -0.2588
  376MOL0     C51762  10.361   9.750  10.102 -0.1498 -0.5901 -0.3851
  376MOL0     C51763  10.265   9.655  10.018 -0.6272  0.4555 -1.1583
  376MOL0     C51764  10.315   9.648   9.874 -0.1709 -0.7318 -0.2867
  376MOL0     C51765  10.282   9.777   9.789  0.4994  0.4593  0.1023
  376MOL0     C51766  10.126   9.797   9.780  0.0198  0.5101  0.3011
  376MOL0     N51767  10.086   9.875   9.661  0.2712  0.4951  0.3713
  376MOL0     C51768  10.033   9.996   9.679 -0.0181 -0.5423 -0.6025
  376MOL0     C51769   9.994  10.034   9.548 -0.0432  0.5153 -0.1281
  376MOL0     C51770   9.927  10.153   9.491  1.1613 -0.6550  0.5106
  376MOL0     C51771   9.774  10.133   9.516 -1.3520  0.6127  0.4961
  376MOL0     C51772   9.700  10.266   9.496  0.1870 -0.5343 -1.2774
  376MOL0     C51773   9.704  10.328   9.359  0.1750  0.0890  0.2135
  376MOL0     O51774   9.629  10.252   9.262  0.2003  0.8307  0.1964
  376MOL0     C51775   9.594  10.330   9.151  0.1542  0.5326  0.7895
  376MOL0     C51776   9.609  10.470   9.125  0.2469 -0.3497  0.2966
  376MOL0     C51777   9.561  10.518   9.001  0.2298 -0.6852  0.2698
  376MOL0     C51778   9.586  10.665   8.966  0.3570 -0.1182 -0.5513
  376MOL0     C51779   9.520  10.438   8.900  0.2435 -0.3430 -0.2446
  376MOL0     C51780   9.465  10.483   8.767 -0.2766 -0.5595 -0.6610
  376MOL0     O51781   9.349  10.424   8.728  0.4911  0.5498  0.8351
  376MOL0     C51782   9.274  10.486   8.621  0.2223 -0.0108 -0.9056
  376MOL0     C51783   9.143  10.500   8.660  0.3342  0.2098  0.2444
  376MOL0     C51784   9.039  10.563   8.579 -0.5421 -0.3329 -1.0862
  376MOL0     C51785   9.073  10.609   8.448  0.1337 -0.1001  0.4982
  376MOL0     O51786   9.000  10.683   8.349  0.2858  0.8004  0.1954
  376MOL0     C51787   8.869  10.731   8.368  0.1903  0.8020 -1.1120
  376MOL0     C51788   8.865  10.831   8.484 -0.7589 -0.7765 -0.6386
  376MOL0     C51789   8.724  10.889   8.503 -0.7428  0.2584 -0.6167
  376MOL0     C51790   8.719  10.982   8.631  1.0872 -0.0803 -0.0724
  376MOL0     C51791   8.815  11.096   8.638 -0.9333  0.5904 -0.0025
  376MOL0     C51792   8.777  11.201   8.533  1.0345  0.4691 -0.0215
  376MOL0     C51793   8.892  11.296   8.480  0.4623 -0.3790 -0.2617
  376MOL0     C51794   8.949  11.393   8.584 -0.4357 -0.3396 -0.3370
  376MOL0    Cl51795   9.074  11.514   8.526  0.1190  0.5846  0.3709
  376MOL0     C51796   9.206  10.585   8.404  1.0837  0.2634  0.3099
  376MOL0     C51797   9.306  10.538   8.493 -0.6665  1.0217 -0.2724
  376MOL0     O51798   9.542  10.553   8.702 -0.2369 -0.3044  0.2088
  376MOL0     C51799   9.504  10.307   8.928  0.3091  0.2867  0.2460
  376MOL0     C51800   9.545  10.250   9.052  0.8388  0.0226 -0.3554
  376MOL0     N51801  10.026   9.925   9.471 -0.1193 -0.2599 -0.2095
  376MOL0     N51802  10.079   9.833   9.534  1.5418  0.5807  0.0293
  376MOL0     C51803  10.332   9.777  10.754  0.6031  0.5323 -0.1013
  376MOL0     C51804  10.334   9.739  10.892  0.3039 -0.8833 -0.7454
  376MOL0     C51805  10.302   9.526  11.295  0.3990 -0.2237 -0.1930
  376MOL0     C51806  10.436   9.510  11.332 -0.4606 -0.3510  0.0948
  376MOL0     C51807  10.483   9.483  11.458 -1.0489  0.1375 -1.2631
  376MOL0     C51808  10.390   9.496  11.558 -0.1761  1.1152  0.0606
  376MOL0     O51809  10.431   9.462  11.692  0.2416  0.0658 -0.4743
  376MOL0     C51810  10.533   9.542  11.742  0.5424  0.7700 -0.0687
  376MOL0     C51811  10.495   9.582  11.894 -0.7703 -0.0939 -0.0840
  376MOL0     C51812  10.588   9.683  11.950 -0.4028  0.2172  1.1168
  376MOL0     C51813  10.536   9.757  12.076  0.6262 -0.0894  0.1605
  376MOL0     C51814  10.553   9.668  12.191  0.1544  0.2780  0.0248
  376MOL0     C51815  10.571   9.576  12.273 -0.2923  0.5555 -0.0115
  376MOL0     C51816  10.254   9.513  11.533  0.2844 -0.0023  0.3330
  376MOL0     C51817  10.204   9.527  11.402  0.6446 -0.7407  0.0935
  376MOL0     C51818  10.061   9.535  11.385 -0.9784 -0.6672 -0.5196
  376MOL0     H51819  10.432   9.417  10.883  2.6508  1.6425  0.9209
  376MOL0     H51820  10.436   9.483  10.633  1.1268 -0.4463  0.4939
  376MOL0     H51821  10.463   9.878  10.514  0.7684 -0.3727 -0.5716
  376MOL0     H51822  10.285   9.877  10.481 -1.1131 -0.1172 -2.7820
  376MOL0     H51823  10.404   9.934  10.305 -2.4543 -0.0988  1.2537
  376MOL0     H51824  10.502   9.786  10.304  0.1301  1.4434 -0.1252
  376MOL0     H51825  10.302   9.649  10.272  2.5289 -0.3312 -0.9275
  376MOL0     H51826  10.202   9.791  10.234  2.4700  5.0117  0.8393
  376MOL0     H51827  10.360   9.854  10.068 -0.6696 -0.1777  0.8140
  376MOL0     H51828  10.465   9.718  10.092  0.7608  1.3992  1.6447
  376MOL0     H51829  10.165   9.691  10.041 -0.6873 -2.6385  6.1186
  376MOL0     H51830  10.267   9.552  10.055  1.0420 -0.4392 -3.4789
  376MOL0     H51831  10.421   9.623   9.870  0.1045  0.0208  1.3384
  376MOL0     H51832  10.256   9.570   9.824 -1.3286 -0.3860  0.4988
  376MOL0     H51833  10.319   9.750   9.689 -1.3560  1.6481 -0.9525
  376MOL0     H51834  10.328   9.868   9.828 -0.8830  1.8603 -1.4087
  376MOL0     H51835  10.082   9.697   9.774 -1.9328  1.2526  1.4728
  376MOL0     H51836  10.083   9.844   9.869 -1.9277 -1.3822  0.4582
  376MOL0     H51837  10.017  10.042   9.776  2.4052  0.2408 -0.5105
  376MOL0     H51838   9.963  10.182   9.392 -0.1369 -1.5400 -0.2381
  376MOL0     H51839   9.953  10.227   9.567 -0.1218  0.6429 -0.2634
  376MOL0     H51840   9.738  10.068   9.435  0.0835 -1.0986  1.1683
  376MOL0     H51841   9.755  10.072   9.605  1.0109  0.3477  0.8769
  376MOL0     H51842   9.600  10.233   9.525  1.6795 -0.8864  4.9073
  376MOL0     H51843   9.732  10.335   9.575  0.2440 -2.0387  0.0723
  376MOL0     H51844   9.657  10.425   9.377 -2.8095 -1.2551  0.4114
  376MOL0     H51845   9.806  10.346   9.326  0.6132 -0.6884  1.1082
  376MOL0     H51846   9.653  10.538   9.197  0.5233 -0.8017  0.5582
  376MOL0     H51847   9.575  10.730   9.054 -1.0138 -2.0254  0.7534
  376MOL0     H51848   9.518  10.711   8.893 -0.8208  0.9487  1.1414
  376MOL0     H51849   9.688  10.682   8.932  1.1913 -0.8909  1.4313
  376MOL0     H51850   9.104  10.442   8.743 -2.2145  0.5282 -0.6182
  376MOL0     H51851   8.932  10.555   8.597 -0.3618 -0.1383  0.1820
  376MOL0     H51852   8.847  10.769   8.268 -2.8215 -1.6425 -1.5592
  376MOL0     H51853   8.807  10.642   8.387  0.8773  0.3097 -1.1441
  376MOL0     H51854   8.878  10.774   8.576 -4.1423 -2.0907 -0.8071
  376MOL0     H51855   8.933  10.914   8.464  0.8216 -1.4989  1.4552
  376MOL0     H51856   8.658  10.806   8.528  0.1411 -0.9145 -2.0875
  376MOL0     H51857   8.688  10.939   8.413 -0.0950  0.4152 -0.7901
  376MOL0     H51858   8.724  10.920   8.721 -1.9765  3.4297  2.8888
  376MOL0     H51859   8.615  11.015   8.635  0.5932 -0.9802 -3.2475
  376MOL0     H51860   8.820  11.135   8.741  3.8327 -0.8559  0.5573
  376MOL0     H51861   8.920  11.075   8.617 -1.0605  0.9459 -1.0360
  376MOL0     H51862   8.694  11.261   8.574  0.3227 -1.6770  1.9020
  376MOL0     H51863   8.725  11.154   8.449  2.8861 -2.8360  0.5306
  376MOL0     H51864   8.856  11.341   8.387 -0.2222 -2.0056 -0.8208
  376MOL0     H51865   8.978  11.234   8.452  0.4157 -2.1356  3.0285
  376MOL0     H51866   8.987  11.338   8.671 -0.4354  0.7043  0.3389
  376MOL0     H51867   8.858  11.439   8.622  1.1782 -0.1594  3.8412
  376MOL0     H51868   9.236  10.593   8.300  3.5781 -2.2224  0.7395
  376MOL0     H51869   9.407  10.521   8.459 -0.2420 -2.5077  2.1223
  376MOL0     H51870   9.456  10.236   8.861  2.7364  1.6751 -3.2570
  376MOL0     H51871   9.520  10.148   9.081 -4.6981  1.1674 -0.1168
  376MOL0     H51872  10.303   9.880  10.736  0.4153  0.9369  2.2028
  376MOL0     H51873  10.301   9.804  10.972  0.7516 -0.0843 -1.1943
  376MOL0     H51874  10.513   9.500  11.256  1.2700  0.8577  1.6173
  376MOL0     H51875  10.585   9.456  11.483 -0.6218  1.3408 -1.6634
  376MOL0     H51876  10.632   9.497  11.732  0.9687  0.4876  3.7203
  376MOL0     H51877  10.528   9.640  11.693  0.3863  0.2453 -1.1231
  376MOL0     H51878  10.489   9.487  11.948 -2.2813 -1.4970 -2.5094
  376MOL0     H51879  10.395   9.626  11.902  0.0024  1.4982  1.0892
  376MOL0     H51880  10.686   9.638  11.968 -1.1247 -2.3824 -0.8309
  376MOL0     H51881  10.614   9.757  11.873 -1.8690 -0.3319  0.0503
  376MOL0     H51882  10.433   9.785  12.057  0.6119  0.6909  1.2549
  376MOL0     H51883  10.594   9.848  12.095  1.7264 -0.7073 -0.1669
  376MOL0     H51884  10.593   9.491  12.333  2.2806  0.5231 -0.8977
  376MOL0     H51885  10.191   9.515  11.621 -0.9308  1.8514 -0.5312
  376MOL0     H51886  10.050   9.640  11.355  0.3945  0.5601  2.8259
  376MOL0     H51887  10.031   9.467  11.304  0.2399  2.9947 -4.4266
  376MOL0     H51888  10.011   9.524  11.482 -1.5837  1.5231 -0.5233
  377MOL0     O51889  10.875   3.225   3.230 -0.2562  0.3569 -0.1816
  377MOL0     C51890  10.821   3.133   3.160  0.6141 -0.6114  0.6553
  377MOL0     O51891  10.816   3.129   3.027  0.9741 -0.3250  0.7536
  377MOL0     C51892  10.837   3.240   2.946  0.0809 -0.9695  0.1924
  377MOL0     C51893  10.826   3.372   2.985  0.0949  0.2547  0.5553
  377MOL0     C51894  10.861   3.483   2.893 -0.0992  0.0291 -0.9447
  377MOL0     C51895  10.898   3.454   2.763  0.8098 -0.8163  0.0809
  377MOL0     O51896  10.919   3.551   2.668 -0.4300 -0.0144  0.0462
  377MOL0     C51897  10.900   3.684   2.694  0.1331 -0.7894  0.1139
  377MOL0     C51898  10.947   3.780   2.585  0.6833 -0.3609  0.0852
  377MOL0     C51899  10.870   3.769   2.450  0.1925 -0.0680 -0.6168
  377MOL0     C51900  10.722   3.833   2.449 -0.4792 -1.2643 -0.6121
  377MOL0     C51901  10.642   3.819   2.323  0.1377  0.5044 -0.3605
  377MOL0     C51902  10.509   3.897   2.323 -0.4056 -0.5827  0.5050
  377MOL0     C51903  10.393   3.829   2.399 -0.5587 -0.8881  0.6394
  377MOL0     C51904  10.274   3.928   2.391 -0.4915  0.5620  0.1413
  377MOL0     N51905  10.189   3.911   2.504 -0.1786  0.6688 -0.4954
  377MOL0     C51906  10.089   4.003   2.525 -0.3163 -0.0266  0.0568
  377MOL0     C51907  10.041   3.950   2.640  0.7742 -0.1667 -0.1572
  377MOL0     C51908   9.936   4.015   2.723  0.4474 -0.2576  0.0493
  377MOL0     C51909   9.803   4.026   2.656 -0.9722  0.6134  0.5014
  377MOL0     C51910   9.725   4.102   2.766  0.9052  0.0170 -0.9531
  377MOL0     C51911   9.584   4.126   2.709  0.1131 -0.2159  0.4025
  377MOL0     O51912   9.525   4.246   2.761  0.6262 -0.2329 -0.2869
  377MOL0     C51913   9.406   4.283   2.701  0.4798 -0.0146 -0.0203
  377MOL0     C51914   9.351   4.415   2.729 -0.6675 -0.6019  0.7194
  377MOL0     C51915   9.246   4.467   2.659  1.3603 -0.4086 -0.3314
  377MOL0     C51916   9.200   4.604   2.712 -0.1413 -0.2612 -0.0533
  377MOL0     C51917   9.178   4.381   2.562 -0.0295  0.8800 -1.2738
  377MOL0     C51918   9.045   4.428   2.504 -0.1553  0.8105  0.5332
  377MOL0     O51919   8.978   4.333   2.428  0.3131  0.0969 -0.1531
  377MOL0     C51920   8.875   4.368   2.350 -0.7570 -0.4621 -0.0446
  377MOL0     C51921   8.899   4.385   2.211 -0.1122 -0.0970  0.6105
  377MOL0     C51922   8.790   4.421   2.130 -0.0567  0.5560  0.4844
  377MOL0     C51923   8.661   4.433   2.173 -0.0590  0.4839  0.6895
  377MOL0     O51924   8.575   4.460   2.069  0.5992  0.1866 -0.3240
  377MOL0     C51925   8.443   4.462   2.102 -0.1508  0.0927 -1.3129
  377MOL0     C51926   8.350   4.474   1.977 -0.1996  0.2158  1.0431
  377MOL0     C51927   8.365   4.353   1.887 -0.0026  0.0548  0.0144
  377MOL0     C51928   8.261   4.356   1.774 -0.5477  0.1980  0.3954
  377MOL0     C51929   8.280   4.244   1.671  1.3437  0.2667 -0.0950
  377MOL0     C51930   8.379   4.281   1.564 -0.0425  0.0500 -0.1117
  377MOL0     C51931   8.402   4.158   1.470  0.3675  0.2752  0.2867
  377MOL0     C51932   8.478   4.036   1.535 -0.3055 -0.0875  0.3188
  377MOL0    Cl51933   8.364   3.917   1.603 -0.8318  0.1202 -0.3226
  377MOL0     C51934   8.644   4.397   2.305 -0.3329 -0.6077  0.1761
  377MOL0     C51935   8.742   4.356   2.394 -0.0714  0.1779  0.8249
  377MOL0     O51936   9.028   4.543   2.499  0.5718 -0.0951 -0.4910
  377MOL0     C51937   9.220   4.248   2.543  0.3555 -0.5403  0.9109
  377MOL0     C51938   9.330   4.201   2.617  0.1761 -0.0124 -0.1366
  377MOL0     N51939  10.105   3.836   2.684  0.6913 -0.7032 -0.3435
  377MOL0     N51940  10.198   3.815   2.599  0.7000  0.8332  0.4371
  377MOL0     C51941  10.894   3.318   2.723 -0.5910  0.3791 -1.3071
  377MOL0     C51942  10.863   3.213   2.815  0.1685  0.1690  0.5878
  377MOL0     C51943  10.766   3.012   3.223 -1.0397 -0.0442 -0.6759
  377MOL0     C51944  10.753   2.900   3.135  0.1062 -0.0203  0.4157
  377MOL0     C51945  10.690   2.780   3.177  0.6539 -1.3424 -0.2349
  377MOL0     C51946  10.651   2.764   3.302  0.5211 -0.0280  0.0676
  377MOL0     O51947  10.586   2.648   3.334 -0.1921  0.9408 -0.0772
  377MOL0     C51948  10.567   2.616   3.464  0.5836 -0.2227  0.2229
  377MOL0     C51949  10.692   2.553   3.532 -0.7387  0.7077  0.7602
  377MOL0     C51950  10.650   2.445   3.632 -0.3361 -0.5146 -0.1334
  377MOL0     C51951  10.780   2.366   3.659  0.8925 -0.0902  0.7966
  377MOL0     C51952  10.779   2.253   3.568  0.4042  0.2270 -0.0712
  377MOL0     C51953  10.778   2.154   3.502 -0.7094 -0.0687 -0.2110
  377MOL0     C51954  10.660   2.881   3.385  0.9867 -0.1227 -0.9793
  377MOL0     C51955  10.714   3.009   3.358 -0.4222  0.0068  0.0864
  377MOL0     C51956  10.727   3.122   3.460 -0.8806 -0.2117  0.0178
  377MOL0     H51957  10.795   3.407   3.083 -4.3761 -2.0663  0.2063
  377MOL0     H51958  10.842   3.586   2.922  1.2807 -0.6228  2.7005
  377MOL0     H51959  10.979   3.713   2.763  0.6127 -1.1406 -0.2726
  377MOL0     H51960  10.805   3.714   2.738  0.4147 -0.0427  0.2292
  377MOL0     H51961  10.935   3.881   2.626  0.5491 -0.5893  0.6082
  377MOL0     H51962  11.052   3.759   2.565  1.1762  2.5202 -0.9020
  377MOL0     H51963  10.923   3.818   2.367  0.5366 -2.6301 -2.0302
  377MOL0     H51964  10.862   3.664   2.419 -2.4802  0.6623 -2.9355
  377MOL0     H51965  10.665   3.793   2.533  0.6327 -1.2450  0.1746
  377MOL0     H51966  10.723   3.940   2.474 -2.6952 -1.4513  0.4582
  377MOL0     H51967  10.632   3.717   2.284  0.9287  0.6537 -0.9952
  377MOL0     H51968  10.714   3.867   2.255  0.5037  0.9730  0.3504
  377MOL0     H51969  10.527   4.000   2.357  1.9766 -1.3603  1.8268
  377MOL0     H51970  10.480   3.906   2.218  1.1110 -0.2230  0.0893
  377MOL0     H51971  10.427   3.808   2.501  0.5484 -2.4843 -0.0145
  377MOL0     H51972  10.367   3.731   2.357 -1.9131 -1.1957  2.0612
  377MOL0     H51973  10.310   4.030   2.405  4.5324 -1.1698  1.8253
  377MOL0     H51974  10.218   3.918   2.298  1.0087 -0.9338 -0.6622
  377MOL0     H51975  10.060   4.087   2.464 -2.7588 -1.5430 -1.0324
  377MOL0     H51976   9.963   4.117   2.753 -1.0015 -0.1271  1.0461
  377MOL0     H51977   9.918   3.955   2.813 -0.9801 -0.4611 -0.3511
  377MOL0     H51978   9.801   4.089   2.566 -1.3636  0.6902  0.5615
  377MOL0     H51979   9.759   3.929   2.633  1.1546 -0.1997 -0.3411
  377MOL0     H51980   9.708   4.052   2.862 -0.9365  0.0516 -1.2193
  377MOL0     H51981   9.764   4.204   2.771 -0.4288  0.4970  0.6530
  377MOL0     H51982   9.577   4.123   2.600 -2.3580  1.0970  0.4653
  377MOL0     H51983   9.517   4.052   2.752  2.0796 -0.8781  2.5092
  377MOL0     H51984   9.406   4.482   2.794  0.3829  2.2113 -2.7754
  377MOL0     H51985   9.255   4.630   2.803  0.0060 -1.8646  0.3494
  377MOL0     H51986   9.095   4.604   2.744 -0.1842 -0.3965 -0.1919
  377MOL0     H51987   9.208   4.688   2.643  3.0341 -1.2503 -1.0380
  377MOL0     H51988   8.994   4.370   2.160  0.3024 -0.8127  1.5408
  377MOL0     H51989   8.812   4.449   2.028 -0.6892  2.4403  0.8249
  377MOL0     H51990   8.414   4.373   2.158 -1.3435  0.7936 -0.7644
  377MOL0     H51991   8.429   4.543   2.174 -0.5061 -1.7309  0.7434
  377MOL0     H51992   8.244   4.484   2.003 -1.4165 -1.8629 -2.3835
  377MOL0     H51993   8.381   4.563   1.921  3.5553  0.7348  3.5646
  377MOL0     H51994   8.352   4.264   1.949 -1.0221 -2.0686 -3.0124
  377MOL0     H51995   8.465   4.325   1.853  0.1132  0.4026  0.0650
  377MOL0     H51996   8.264   4.457   1.731 -1.0511  0.2795  0.5414
  377MOL0     H51997   8.160   4.336   1.810 -1.2332 -0.7105 -1.8273
  377MOL0     H51998   8.317   4.155   1.723  2.6140  1.5103  1.2184
  377MOL0     H51999   8.185   4.224   1.621  0.5177 -2.0283  2.1441
  377MOL0     H52000   8.474   4.321   1.598  0.4473  0.4114 -1.7864
  377MOL0     H52001   8.341   4.366   1.505 -1.1447 -1.1042 -1.1331
  377MOL0     H52002   8.456   4.197   1.383 -2.8402 -1.1336 -2.5647
  377MOL0     H52003   8.308   4.124   1.426 -0.3981  1.8178  0.6639
  377MOL0     H52004   8.536   4.064   1.624 -2.6095 -2.1869  2.6527
  377MOL0     H52005   8.540   3.987   1.459 -1.8191  0.8286 -1.5875
  377MOL0     H52006   8.543   4.408   2.343 -0.7872 -2.4013 -0.4253
  377MOL0     H52007   8.719   4.320   2.493  0.0255 -3.9199 -0.4554
  377MOL0     H52008   9.175   4.177   2.475 -1.2526  1.0631  0.2451
  377MOL0     H52009   9.367   4.102   2.596  0.3499  0.1629 -0.6825
  377MOL0     H52010  10.916   3.293   2.620  0.6264 -1.7486 -0.6162
  377MOL0     H52011  10.864   3.106   2.801  2.6516  0.4082 -1.9797
  377MOL0     H52012  10.806   2.895   3.040 -0.1137  0.5171  0.2578
  377MOL0     H52013  10.678   2.698   3.107  0.7644 -1.6962  0.1617
  377MOL0     H52014  10.535   2.694   3.534  0.2797 -0.3221  0.1977
  377MOL0     H52015  10.483   2.547   3.449  1.4391 -1.1006 -0.7249
  377MOL0     H52016  10.732   2.635   3.591 -1.0443  2.1524 -0.9683
  377MOL0     H52017  10.760   2.506   3.460  2.0218  1.2705  2.8282
  377MOL0     H52018  10.614   2.493   3.724  1.4007  1.9865 -0.6419
  377MOL0     H52019  10.570   2.389   3.583 -0.1679  0.5720 -1.7469
  377MOL0     H52020  10.792   2.326   3.760 -0.2672  0.9717  1.3791
  377MOL0     H52021  10.860   2.437   3.638 -2.1875  3.3314 -0.4486
  377MOL0     H52022  10.773   2.059   3.454 -3.1955  1.8812 -4.3958
  377MOL0     H52023  10.631   2.872   3.490 -2.0682  0.0076 -1.7086
  377MOL0     H52024  10.697   3.221   3.423 -2.3860 -0.7880 -0.3656
  377MOL0     H52025  10.682   3.094   3.555 -1.7759  1.3103  0.0844
  377MOL0     H52026  10.835   3.137   3.476 -1.1972  4.2947 -0.5785
  378MOL0     O52027   9.163   3.654   5.417 -0.2059  0.6814  0.7323
  378MOL0     C52028   9.096   3.638   5.317  1.2513 -1.0871  0.1314
  378MOL0     O52029   8.967   3.700   5.300  0.2646 -0.4927  0.0811
  378MOL0     C52030   8.914   3.784   5.400  0.0182  0.0112  0.7172
  378MOL0     C52031   8.882   3.747   5.532  0.0832 -0.5103  0.0501
  378MOL0     C52032   8.838   3.834   5.626 -0.2280 -0.1974  0.3334
  378MOL0     C52033   8.794   3.962   5.593  0.3668 -0.8350  0.1712
  378MOL0     O52034   8.721   4.050   5.673  0.4991  0.3841  0.5150
  378MOL0     C52035   8.670   3.997   5.798 -0.4502  0.4938  0.4701
  378MOL0     C52036   8.577   4.099   5.862 -0.5424 -0.2913 -0.9421
  378MOL0     C52037   8.470   4.153   5.776  0.4306 -1.2612 -0.7138
  378MOL0     C52038   8.396   4.262   5.851  0.4565 -0.6046 -1.1353
  378MOL0     C52039   8.321   4.346   5.745  0.5655  0.0851 -0.1005
  378MOL0     C52040   8.244   4.475   5.795 -0.7129 -0.4589  0.9562
  378MOL0     C52041   8.218   4.580   5.681 -0.5913 -0.2156 -0.1438
  378MOL0     C52042   8.099   4.668   5.711 -0.1598 -0.0541  0.3995
  378MOL0     N52043   8.084   4.790   5.627 -1.0105 -0.1373  0.3992
  378MOL0     C52044   8.012   4.802   5.510 -0.8687  1.2207 -0.1164
  378MOL0     C52045   8.022   4.926   5.465 -0.3331  0.5349  0.5533
  378MOL0     C52046   7.950   5.005   5.363  0.4291 -0.1487  0.3581
  378MOL0     C52047   7.995   4.970   5.220 -0.4271  0.1063 -0.0080
  378MOL0     C52048   7.920   4.861   5.157  0.0930  0.8257 -0.3674
  378MOL0     C52049   8.010   4.757   5.094 -0.2595 -0.6858 -0.2731
  378MOL0     O52050   8.073   4.690   5.197  0.2607  0.4982  0.1985
  378MOL0     C52051   8.158   4.585   5.174 -0.2731 -0.6389 -0.1754
  378MOL0     C52052   8.248   4.572   5.281 -0.8856 -0.2488  0.2673
  378MOL0     C52053   8.350   4.478   5.285  0.1713  0.0801 -1.0785
  378MOL0     C52054   8.449   4.489   5.401 -0.5177 -1.1339 -0.2186
  378MOL0     C52055   8.366   4.382   5.181 -0.3536  0.0433  0.2496
  378MOL0     C52056   8.496   4.301   5.163  0.2821 -0.1192  0.6889
  378MOL0     O52057   8.483   4.210   5.062 -0.4322  0.3624 -0.1470
  378MOL0     C52058   8.586   4.113   5.042 -0.4608 -0.7372 -0.2765
  378MOL0     C52059   8.516   3.997   5.008 -0.7754 -0.3394  0.1406
  378MOL0     C52060   8.588   3.884   4.967 -0.0880  0.0472 -0.5864
  378MOL0     C52061   8.727   3.881   4.977 -0.3528  0.1513  0.3909
  378MOL0     O52062   8.798   3.770   4.941  0.1185 -0.5877  0.6347
  378MOL0     C52063   8.767   3.707   4.814  0.1268  0.4006 -0.5657
  378MOL0     C52064   8.822   3.783   4.682  0.0147  0.9313 -1.2834
  378MOL0     C52065   8.942   3.886   4.700 -0.6835 -0.0132  0.2371
  378MOL0     C52066   9.071   3.810   4.738 -0.0564 -0.1406 -1.2696
  378MOL0     C52067   9.193   3.911   4.721  0.4935  0.4978 -0.3179
  378MOL0     C52068   9.316   3.867   4.800  0.7084 -0.1152  1.0122
  378MOL0     C52069   9.304   3.903   4.949 -0.4707 -0.0183 -0.0916
  378MOL0     C52070   9.406   3.826   5.028 -0.2802 -0.4005 -0.8044
  378MOL0    Cl52071   9.368   3.873   5.197  0.2022 -0.3124  0.4321
  378MOL0     C52072   8.796   4.000   5.021 -0.0993  0.1088  1.0046
  378MOL0     C52073   8.725   4.118   5.050  0.3524 -0.1286 -0.0417
  378MOL0     O52074   8.597   4.326   5.227 -0.1710 -0.4213 -0.0058
  378MOL0     C52075   8.273   4.389   5.070 -0.3114 -0.3523  0.6570
  378MOL0     C52076   8.168   4.487   5.079  0.2043 -0.6033 -0.5075
  378MOL0     N52077   8.110   4.985   5.561 -0.6313  0.4265  0.3264
  378MOL0     N52078   8.166   4.898   5.641 -0.4714 -0.4290  0.0068
  378MOL0     C52079   8.826   4.004   5.459  0.6362  0.4603  0.1370
  378MOL0     C52080   8.889   3.918   5.364  0.1871  0.1624  0.2852
  378MOL0     C52081   9.168   3.593   5.184 -0.2059 -0.3297 -0.0013
  378MOL0     C52082   9.090   3.588   5.063  0.2080  0.0021 -0.2548
  378MOL0     C52083   9.136   3.543   4.935 -0.1122 -0.0203 -0.3179
  378MOL0     C52084   9.275   3.493   4.933 -0.5179 -0.6930  0.4619
  378MOL0     O52085   9.326   3.470   4.808 -0.6136 -0.1138  0.2698
  378MOL0     C52086   9.447   3.384   4.808 -0.0292 -0.9946  0.6588
  378MOL0     C52087   9.486   3.331   4.669 -0.0345 -0.0223 -0.2880
  378MOL0     C52088   9.477   3.452   4.555 -0.6599  0.7048 -0.7337
  378MOL0     C52089   9.619   3.507   4.514  0.4205 -0.7188 -0.7880
  378MOL0     C52090   9.675   3.576   4.640  0.9625 -0.7247  0.1751
  378MOL0     C52091   9.719   3.639   4.732  0.6140 -0.1071  0.5654
  378MOL0     C52092   9.340   3.491   5.052 -0.2873 -0.1957 -0.2229
  378MOL0     C52093   9.291   3.530   5.173 -0.0124  0.3117  1.4555
  378MOL0     C52094   9.363   3.501   5.301 -0.3686 -0.5599  0.3867
  378MOL0     H52095   8.917   3.647   5.556  2.2985  0.4541  1.2159
  378MOL0     H52096   8.817   3.778   5.718 -0.7311 -1.3859 -0.4698
  378MOL0     H52097   8.757   3.973   5.861 -0.2189 -1.8250 -0.5996
  378MOL0     H52098   8.604   3.913   5.774  0.9481 -0.1752 -1.3347
  378MOL0     H52099   8.537   4.053   5.953 -1.1124  3.4132  0.8894
  378MOL0     H52100   8.642   4.180   5.897  1.5107 -2.8310  1.6527
  378MOL0     H52101   8.506   4.202   5.684 -1.8931 -0.5599 -1.3278
  378MOL0     H52102   8.401   4.071   5.754  0.7999 -2.3688  1.9272
  378MOL0     H52103   8.323   4.209   5.914  0.3006  0.0643 -0.7529
  378MOL0     H52104   8.462   4.326   5.910 -1.8844 -1.0686  2.2620
  378MOL0     H52105   8.253   4.279   5.691 -1.6077 -0.5388  3.1300
  378MOL0     H52106   8.402   4.383   5.682  1.9410 -4.0165 -1.0597
  378MOL0     H52107   8.147   4.437   5.828 -1.8572  0.8615 -0.6909
  378MOL0     H52108   8.294   4.520   5.881 -1.1843  1.3806  0.3310
  378MOL0     H52109   8.208   4.519   5.591  0.4799  0.8352 -0.9935
  378MOL0     H52110   8.309   4.639   5.673 -2.7034  3.4681  0.9172
  378MOL0     H52111   8.005   4.621   5.682 -2.7515  5.0841 -0.7196
  378MOL0     H52112   8.093   4.698   5.816  0.9237 -0.5733  0.6157
  378MOL0     H52113   7.946   4.736   5.454  1.8150 -3.8925  2.1048
  378MOL0     H52114   7.956   5.113   5.376 -2.3064  0.0165  0.9392
  378MOL0     H52115   7.844   4.978   5.366  0.2592  0.6038  1.6566
  378MOL0     H52116   7.994   5.057   5.154 -0.1180  0.9047  1.0297
  378MOL0     H52117   8.100   4.938   5.215  0.9210  3.7624  1.5515
  378MOL0     H52118   7.859   4.808   5.230  0.2728  0.5892 -0.3863
  378MOL0     H52119   7.857   4.903   5.078  1.5498 -0.9064 -2.5770
  378MOL0     H52120   7.952   4.682   5.040  0.5655 -1.1928 -0.4710
  378MOL0     H52121   8.076   4.800   5.019 -0.0946 -2.4488 -1.1993
  378MOL0     H52122   8.235   4.639   5.365 -1.1728  2.2884 -1.6893
  378MOL0     H52123   8.527   4.544   5.347 -1.2039 -0.4551 -0.5434
  378MOL0     H52124   8.496   4.396   5.432 -0.6280 -1.5869 -1.3699
  378MOL0     H52125   8.415   4.535   5.494 -0.1102 -2.2214  0.4842
  378MOL0     H52126   8.409   4.008   5.022 -0.4952  1.2952  1.2709
  378MOL0     H52127   8.534   3.791   4.952  0.8201 -0.4874 -0.5885
  378MOL0     H52128   8.830   3.618   4.814  1.4985  1.3486 -0.6407
  378MOL0     H52129   8.661   3.680   4.814  0.2980 -0.7307  2.7303
  378MOL0     H52130   8.855   3.710   4.608 -4.2368 -1.9139 -0.7915
  378MOL0     H52131   8.734   3.828   4.634 -0.7171 -1.4050 -2.2891
  378MOL0     H52132   8.916   3.955   4.781  1.4003 -0.4465  1.3425
  378MOL0     H52133   8.961   3.947   4.611 -3.1053 -3.4326 -2.9554
  378MOL0     H52134   9.094   3.725   4.674 -0.5779 -0.5253 -0.9491
  378MOL0     H52135   9.065   3.766   4.838  1.2735  0.9749 -0.6613
  378MOL0     H52136   9.205   3.919   4.613  2.1468 -1.6926 -0.3523
  378MOL0     H52137   9.180   4.013   4.757 -1.6038  1.4920 -3.4753
  378MOL0     H52138   9.410   3.911   4.764  1.8129 -2.5193  0.7798
  378MOL0     H52139   9.339   3.763   4.774  2.6714  1.1251 -3.0388
  378MOL0     H52140   9.211   3.861   4.988 -0.3566  0.0707  0.2839
  378MOL0     H52141   9.313   4.008   4.980  0.8240 -0.3019  0.5606
  378MOL0     H52142   9.502   3.870   5.000 -0.7771  0.2162 -1.5783
  378MOL0     H52143   9.411   3.718   5.013  1.4421 -0.4490 -0.0458
  378MOL0     H52144   8.904   3.988   5.012 -0.4089 -3.8654  1.0184
  378MOL0     H52145   8.772   4.214   5.065 -1.1260  0.2431  3.0949
  378MOL0     H52146   8.261   4.337   4.975 -0.5687  1.9319 -0.6573
  378MOL0     H52147   8.099   4.478   4.996 -0.5186  1.6159 -0.1949
  378MOL0     H52148   8.790   4.101   5.427 -1.5910 -0.3615 -0.0094
  378MOL0     H52149   8.920   3.962   5.270  1.6923  0.7130  1.0088
  378MOL0     H52150   8.997   3.643   5.072  1.0412  1.3494  0.4340
  378MOL0     H52151   9.067   3.543   4.850  0.7664  0.2569 -1.0426
  378MOL0     H52152   9.531   3.437   4.854  0.2851 -0.2766 -0.6898
  378MOL0     H52153   9.417   3.305   4.877 -2.0465 -0.7876  0.0859
  378MOL0     H52154   9.422   3.247   4.640 -1.3357  1.3846 -1.7000
  378MOL0     H52155   9.592   3.313   4.688  0.5734  2.8241 -0.4439
  378MOL0     H52156   9.443   3.406   4.462  2.2273  3.1300 -3.2179
  378MOL0     H52157   9.405   3.530   4.580  2.2681  3.2723  0.3348
  378MOL0     H52158   9.595   3.576   4.433 -1.1228 -1.1557 -0.7332
  378MOL0     H52159   9.682   3.424   4.483 -1.4918 -3.2690  1.6542
  378MOL0     H52160   9.746   3.682   4.826 -0.0898 -1.7084  1.5492
  378MOL0     H52161   9.435   3.440   5.041 -0.7892 -0.7851 -2.5405
  378MOL0     H52162   9.301   3.479   5.388 -2.4773 -2.5958 -1.5227
  378MOL0     H52163   9.438   3.424   5.282  4.4727  3.4823  0.6240
  378MOL0     H52164   9.424   3.591   5.314 -1.1172  0.3481 -1.8666
  379MOL0     O52165   5.818   6.462   2.221 -0.0892  0.3162 -0.0480
  379MOL0     C52166   5.804   6.557   2.295 -0.1485 -0.6313 -0.1494
  379MOL0     O52167   5.806   6.544   2.432 -0.3839  0.5201  0.6052
  379MOL0     C52168   5.795   6.412   2.480  0.2282 -0.8648  0.0526
  379MOL0     C52169   5.906   6.328   2.492 -0.0764  0.6298 -0.3502
  379MOL0     C52170   5.891   6.210   2.555 -0.5730  0.5146  0.7925
  379MOL0     C52171   5.768   6.167   2.612 -0.4380 -0.0775 -0.4537
  379MOL0     O52172   5.748   6.050   2.690 -0.1873 -0.2163 -0.0595
  379MOL0     C52173   5.841   6.025   2.800 -0.1796 -0.2444  0.4016
  379MOL0     C52174   5.794   5.928   2.913 -0.7550  0.4444  0.0976
  379MOL0     C52175   5.751   5.785   2.876  0.0240  0.2090  0.8672
  379MOL0     C52176   5.871   5.698   2.815 -0.1916  0.4143 -0.3724
  379MOL0     C52177   5.861   5.545   2.817 -0.3332 -0.0526 -0.5360
  379MOL0     C52178   5.853   5.493   2.961  0.6837  0.1117  0.1787
  379MOL0     C52179   5.824   5.344   2.976 -0.6103 -0.2477 -0.2436
  379MOL0     C52180   5.934   5.243   2.962 -0.7057  0.1626 -0.2818
  379MOL0     N52181   6.047   5.273   3.047  0.4053 -0.7643  0.0540
  379MOL0     C52182   6.177   5.236   3.018 -0.2981  0.5614  0.6954
  379MOL0     C52183   6.247   5.246   3.134 -0.2553  0.1195 -0.5069
  379MOL0     C52184   6.393   5.228   3.146 -0.4045 -0.3480  0.9885
  379MOL0     C52185   6.463   5.320   3.252 -1.5351  0.0451  0.3962
  379MOL0     C52186   6.613   5.304   3.245 -0.2521  0.1448 -0.0221
  379MOL0     C52187   6.676   5.371   3.367 -0.1188  0.6851  0.5032
  379MOL0     O52188   6.712   5.504   3.344  0.3791  0.1308  0.1011
  379MOL0     C52189   6.772   5.590   3.434 -0.4526  0.9754 -0.3746
  379MOL0     C52190   6.740   5.724   3.430  0.7381  0.6700  0.7111
  379MOL0     C52191   6.775   5.812   3.535  0.1968 -0.9531 -0.3347
  379MOL0     C52192   6.752   5.961   3.513 -1.1345 -0.4684  0.1245
  379MOL0     C52193   6.844   5.764   3.644 -0.0823  1.0034 -0.1954
  379MOL0     C52194   6.890   5.841   3.763  0.1801 -0.4469  0.3592
  379MOL0     O52195   6.843   5.809   3.889  0.1651  0.4837 -0.2884
  379MOL0     C52196   6.850   5.904   3.982 -0.4104  0.3667 -1.2414
  379MOL0     C52197   6.770   6.018   3.981  0.2723 -0.0802  0.4785
  379MOL0     C52198   6.768   6.099   4.091  0.0768 -0.0181 -0.0788
  379MOL0     C52199   6.860   6.080   4.188 -0.3567  0.0916 -0.6929
  379MOL0     O52200   6.837   6.167   4.295  0.2430  0.6802  0.3016
  379MOL0     C52201   6.913   6.162   4.419  0.3817  0.1124  0.6082
  379MOL0     C52202   7.044   6.243   4.420 -0.9108 -0.9225  0.0947
  379MOL0     C52203   7.119   6.223   4.554  1.0064 -0.4194 -0.2693
  379MOL0     C52204   7.270   6.239   4.536 -0.3175  0.6460  0.4832
  379MOL0     C52205   7.362   6.194   4.647 -0.6949  0.7384 -0.0616
  379MOL0     C52206   7.356   6.292   4.764  0.4307  0.2716 -0.2996
  379MOL0     C52207   7.436   6.421   4.735  0.6214 -0.0498  0.1615
  379MOL0     C52208   7.487   6.498   4.853  0.0631  0.6352 -0.6911
  379MOL0    Cl52209   7.610   6.389   4.927  0.1527 -0.0220 -0.2883
  379MOL0     C52210   6.947   5.971   4.182 -0.2093  0.2967  0.3684
  379MOL0     C52211   6.943   5.875   4.078 -0.4174 -0.8067 -0.5497
  379MOL0     O52212   6.957   5.940   3.726 -0.0659 -0.0700 -0.0995
  379MOL0     C52213   6.879   5.628   3.647 -0.1947  0.2623  0.8508
  379MOL0     C52214   6.845   5.541   3.543 -0.0775  0.3707 -0.2208
  379MOL0     N52215   6.155   5.277   3.239  0.3188 -1.2294 -0.4074
  379MOL0     N52216   6.038   5.294   3.187 -0.3908 -0.3529  0.0200
  379MOL0     C52217   5.661   6.254   2.601 -0.5802 -0.2984  0.2777
  379MOL0     C52218   5.670   6.379   2.532 -0.1020 -0.4734  0.7805
  379MOL0     C52219   5.810   6.699   2.230  0.1567  0.2485 -0.6943
  379MOL0     C52220   5.798   6.802   2.325 -0.3050 -0.5793  0.6767
  379MOL0     C52221   5.804   6.932   2.269 -0.1038  0.6590 -0.0712
  379MOL0     C52222   5.812   6.964   2.132  0.1438  0.5103 -0.2989
  379MOL0     O52223   5.837   7.088   2.077  0.4063 -0.4089 -0.6015
  379MOL0     C52224   5.871   7.205   2.159 -1.1113  0.1280 -0.0091
  379MOL0     C52225   6.015   7.216   2.163 -0.2315  1.3057 -0.1822
  379MOL0     C52226   6.086   7.224   2.032  0.2991 -0.0249  0.8196
  379MOL0     C52227   6.236   7.225   2.051 -0.3585 -0.8741 -0.3515
  379MOL0     C52228   6.304   7.241   1.923  0.0507 -0.0720  0.5345
  379MOL0     C52229   6.342   7.259   1.808  1.1348  0.1566  0.0182
  379MOL0     C52230   5.800   6.864   2.040 -0.6412 -0.3659  0.2023
  379MOL0     C52231   5.810   6.731   2.081 -0.0568 -1.3082  0.6833
  379MOL0     C52232   5.805   6.626   1.982  0.3215  0.9972 -0.1616
  379MOL0     H52233   6.001   6.354   2.446 -0.4320 -1.2015 -2.2177
  379MOL0     H52234   5.974   6.141   2.567 -1.5906 -0.6300  1.4740
  379MOL0     H52235   5.856   6.119   2.854  1.4751  0.8245 -1.8088
  379MOL0     H52236   5.934   5.995   2.753 -0.5613  2.4090 -2.3956
  379MOL0     H52237   5.873   5.936   2.988  0.3609  4.5241 -1.2546
  379MOL0     H52238   5.704   5.973   2.957 -0.4553  2.1897 -0.9859
  379MOL0     H52239   5.717   5.746   2.972 -2.1123 -4.3606 -1.4070
  379MOL0     H52240   5.664   5.775   2.811  1.5057  2.4042 -1.6606
  379MOL0     H52241   5.891   5.732   2.713  0.8008  3.6829  0.7836
  379MOL0     H52242   5.960   5.720   2.874 -0.3151  2.5913 -0.9075
  379MOL0     H52243   5.949   5.503   2.768 -0.3021 -1.0903  0.3668
  379MOL0     H52244   5.764   5.510   2.780 -0.4030 -0.5407  0.0880
  379MOL0     H52245   5.947   5.525   3.007  0.6531 -0.6542  0.8016
  379MOL0     H52246   5.776   5.544   3.020  1.4899 -0.5471  1.8771
  379MOL0     H52247   5.734   5.322   2.918 -0.8775  1.0066 -0.3422
  379MOL0     H52248   5.798   5.323   3.080  0.6096 -1.2406 -0.1283
  379MOL0     H52249   5.908   5.138   2.979 -0.1042  0.1236  0.4789
  379MOL0     H52250   5.965   5.257   2.858 -0.0824 -1.1605 -0.2898
  379MOL0     H52251   6.214   5.210   2.919  3.4550  2.7830  1.3366
  379MOL0     H52252   6.435   5.242   3.046  1.4674 -0.8732  1.6598
  379MOL0     H52253   6.413   5.126   3.180  2.0418 -1.1664 -2.3433
  379MOL0     H52254   6.456   5.424   3.217  4.3807  0.8496  0.5698
  379MOL0     H52255   6.410   5.311   3.347 -2.1602  0.2100  0.0725
  379MOL0     H52256   6.646   5.201   3.231  1.9604  0.6470  0.9922
  379MOL0     H52257   6.657   5.363   3.163  1.8421 -0.2131  0.7832
  379MOL0     H52258   6.610   5.351   3.452  1.8409  0.0574  1.9675
  379MOL0     H52259   6.766   5.310   3.384 -1.2262 -0.6889  1.7473
  379MOL0     H52260   6.671   5.753   3.351 -2.4542 -2.4060  2.1054
  379MOL0     H52261   6.845   6.001   3.472 -0.6569 -2.2128 -0.6084
  379MOL0     H52262   6.724   6.023   3.599 -2.2238  2.1660 -1.9888
  379MOL0     H52263   6.674   5.993   3.443 -1.6029  0.5443  1.0892
  379MOL0     H52264   6.707   6.040   3.895 -0.3907  0.1401  1.0061
  379MOL0     H52265   6.678   6.151   4.120  0.7426 -0.0307  2.2084
  379MOL0     H52266   6.854   6.216   4.493  0.3239  2.2314 -0.9150
  379MOL0     H52267   6.919   6.057   4.452 -2.3083 -0.8810 -1.6963
  379MOL0     H52268   7.097   6.216   4.328  2.9571  1.9676  1.2094
  379MOL0     H52269   7.012   6.347   4.425 -1.8478 -1.2542  1.8090
  379MOL0     H52270   7.095   6.122   4.590 -1.5339  0.7146  1.5152
  379MOL0     H52271   7.079   6.295   4.626  1.9635  0.6212 -0.7476
  379MOL0     H52272   7.292   6.342   4.506  1.2964  0.6133  1.4418
  379MOL0     H52273   7.296   6.179   4.448 -1.1829  1.4003 -0.3111
  379MOL0     H52274   7.337   6.095   4.687  0.1678 -0.2627 -1.8600
  379MOL0     H52275   7.464   6.190   4.607 -1.3721  0.9126 -1.9216
  379MOL0     H52276   7.405   6.252   4.852 -2.5082 -1.3041  0.7748
  379MOL0     H52277   7.251   6.307   4.792 -0.3932 -3.0317 -1.1750
  379MOL0     H52278   7.371   6.479   4.669  1.0218  1.4496  1.0382
  379MOL0     H52279   7.525   6.392   4.679  3.3214  1.3736  3.3467
  379MOL0     H52280   7.400   6.507   4.918  1.6423  1.5287  1.4088
  379MOL0     H52281   7.528   6.592   4.816 -1.4309  0.2552 -3.6137
  379MOL0     H52282   7.024   5.946   4.254  1.8752  3.0075 -0.7429
  379MOL0     H52283   7.010   5.790   4.087 -0.1927 -0.5769  0.0173
  379MOL0     H52284   6.940   5.582   3.723  1.6775  1.8847  0.3976
  379MOL0     H52285   6.868   5.435   3.546  1.8856  0.7815  0.3873
  379MOL0     H52286   5.564   6.245   2.649 -1.1425  0.3758 -0.6905
  379MOL0     H52287   5.574   6.426   2.520 -0.1418 -1.3600 -5.0440
  379MOL0     H52288   5.794   6.788   2.433 -1.0221 -0.5535  0.6564
  379MOL0     H52289   5.808   7.019   2.333 -1.5198  0.2537  0.6192
  379MOL0     H52290   5.826   7.294   2.115  2.4562  2.1526  0.0665
  379MOL0     H52291   5.841   7.204   2.264  1.4412 -0.0770  0.7765
  379MOL0     H52292   6.072   7.132   2.203  0.5303  0.7494 -2.2788
  379MOL0     H52293   6.037   7.298   2.231 -1.0043  1.3427  0.0266
  379MOL0     H52294   6.062   7.139   1.968  1.0814  0.2026  0.2059
  379MOL0     H52295   6.063   7.317   1.979  2.4646 -0.4651 -1.0567
  379MOL0     H52296   6.270   7.139   2.110 -1.7789 -0.8950  0.4823
  379MOL0     H52297   6.261   7.300   2.127  1.5073 -1.3886 -0.4251
  379MOL0     H52298   6.387   7.294   1.717  0.1458  0.8596 -0.2083
  379MOL0     H52299   5.786   6.896   1.937  1.5056 -3.2274 -1.0905
  379MOL0     H52300   5.895   6.571   2.012  0.7398  2.1163  0.6856
  379MOL0     H52301   5.714   6.566   1.983  0.7688  0.1900  3.3781
  379MOL0     H52302   5.829   6.669   1.884  1.1577 -1.6971 -1.2543
  380MOL0     O52303   4.983  11.281   2.651 -0.4104 -0.0762 -0.0807
  380MOL0     C52304   4.987  11.351   2.753 -0.4250 -0.7980  0.8656
  380MOL0     O52305   4.874  11.405   2.808 -1.2085 -0.0776  0.0804
  380MOL0     C52306   4.754  11.406   2.753  0.7623 -0.6321  0.6861
  380MOL0     C52307   4.741  11.446   2.617  0.4989 -0.8576  0.6608
  380MOL0     C52308   4.609  11.465   2.561  0.1837 -0.0669 -0.4825
  380MOL0     C52309   4.499  11.454   2.644  1.0577 -0.3221 -0.4243
  380MOL0     O52310   4.368  11.463   2.594  0.8611  0.0736  0.9352
  380MOL0     C52311   4.281  11.363   2.647  0.6544  0.6272  0.5602
  380MOL0     C52312   4.163  11.334   2.561  0.4348 -0.4618 -0.4521
  380MOL0     C52313   4.030  11.342   2.636  0.6848  0.6853  0.1788
  380MOL0     C52314   3.906  11.352   2.537  0.3345 -0.5281 -0.2635
  380MOL0     C52315   3.775  11.380   2.603 -0.2701 -0.8503 -0.5104
  380MOL0     C52316   3.655  11.402   2.502  1.2761  0.3127  0.4248
  380MOL0     C52317   3.610  11.279   2.423 -0.4043 -0.0054 -0.5231
  380MOL0     C52318   3.517  11.195   2.532 -0.7364 -0.7080  0.2929
  380MOL0     N52319   3.433  11.094   2.474  0.3788  0.2046 -0.4798
  380MOL0     C52320   3.317  11.047   2.527  0.4993 -0.0018  0.1713
  380MOL0     C52321   3.293  10.934   2.457  1.1456 -0.1048 -0.5398
  380MOL0     C52322   3.173  10.857   2.468 -0.1110  0.8027 -0.1230
  380MOL0     C52323   3.134  10.772   2.348  0.8205 -0.2116 -0.1578
  380MOL0     C52324   3.004  10.690   2.356  0.1906 -0.5444 -0.0219
  380MOL0     C52325   2.873  10.775   2.375  0.2613  0.7899  0.0733
  380MOL0     O52326   2.864  10.887   2.282 -1.4019 -0.4505 -0.3704
  380MOL0     C52327   2.812  10.869   2.153  0.3449 -0.3651 -0.1681
  380MOL0     C52328   2.738  10.760   2.101 -0.5392  0.4134  0.3977
  380MOL0     C52329   2.707  10.745   1.967 -0.3421 -0.3502 -0.2338
  380MOL0     C52330   2.673  10.609   1.916 -0.2120 -0.0226  0.4548
  380MOL0     C52331   2.716  10.854   1.883 -0.4496 -1.1308  0.2834
  380MOL0     C52332   2.687  10.847   1.736 -0.4674 -0.2063  0.6603
  380MOL0     O52333   2.580  10.778   1.692 -0.0037  0.8908  0.5426
  380MOL0     C52334   2.570  10.739   1.556 -0.0689 -0.4386 -0.0818
  380MOL0     C52335   2.637  10.615   1.530  0.6094 -0.1386 -0.3283
  380MOL0     C52336   2.640  10.564   1.396 -0.3027 -0.0547 -0.7989
  380MOL0     C52337   2.572  10.629   1.294  0.2895  0.3462  0.2135
  380MOL0     O52338   2.577  10.581   1.161  0.5505 -0.0331  0.2645
  380MOL0     C52339   2.709  10.582   1.102  0.3734 -0.0678 -0.6290
  380MOL0     C52340   2.701  10.590   0.955  0.4026  0.2416 -0.4377
  380MOL0     C52341   2.847  10.626   0.900 -0.3373 -0.2033 -0.5502
  380MOL0     C52342   2.967  10.538   0.942  0.6409 -0.4345  0.2007
  380MOL0     C52343   3.109  10.605   0.903 -0.1150  0.6169 -0.1679
  380MOL0     C52344   3.221  10.536   0.987 -0.5101  0.0791  0.6319
  380MOL0     C52345   3.263  10.396   0.932 -0.6963 -1.3523  0.0660
  380MOL0     C52346   3.389  10.331   0.992 -0.0403  0.2740 -0.4244
  380MOL0    Cl52347   3.405  10.170   0.921 -0.2961  0.2785 -0.2388
  380MOL0     C52348   2.496  10.743   1.331 -0.6198 -0.2474 -0.1283
  380MOL0     C52349   2.498  10.798   1.458 -0.6381  0.0214 -0.5100
  380MOL0     O52350   2.763  10.907   1.661 -0.0807  0.2911 -1.4589
  380MOL0     C52351   2.792  10.962   1.927  0.6230 -0.8776  0.6033
  380MOL0     C52352   2.843  10.971   2.053 -0.5448  0.3753  0.8191
  380MOL0     N52353   3.386  10.916   2.366 -0.8365 -0.4907 -0.3678
  380MOL0     N52354   3.474  11.008   2.378  0.3185  0.1777 -0.2835
  380MOL0     C52355   4.521  11.424   2.785  0.2841  0.1831  0.1969
  380MOL0     C52356   4.641  11.402   2.836 -0.8104 -0.8887 -1.0370
  380MOL0     C52357   5.113  11.368   2.815 -0.0668  0.1966 -0.8210
  380MOL0     C52358   5.240  11.341   2.751  0.0391  0.2030  0.0292
  380MOL0     C52359   5.363  11.372   2.804  0.2528 -0.2348  0.3779
  380MOL0     C52360   5.370  11.444   2.923 -0.2401 -0.2854 -0.0809
  380MOL0     O52361   5.498  11.478   2.961  0.8259  0.4657  0.3033
  380MOL0     C52362   5.510  11.549   3.084 -0.1087  0.0580 -0.2789
  380MOL0     C52363   5.475  11.698   3.075 -0.9197 -0.8670  0.2053
  380MOL0     C52364   5.547  11.774   2.970 -0.3314 -0.2520 -0.4968
  380MOL0     C52365   5.509  11.923   2.981  0.4562  0.6656 -0.8840
  380MOL0     C52366   5.556  12.003   2.874  0.2366  0.4590  0.0672
  380MOL0     C52367   5.590  12.084   2.788  0.3074  0.9026 -0.1607
  380MOL0     C52368   5.248  11.459   3.002 -0.1088 -0.3354 -0.9581
  380MOL0     C52369   5.123  11.421   2.950 -0.1082 -0.2981  0.7028
  380MOL0     C52370   5.006  11.437   3.039 -0.7726  0.5475 -0.4881
  380MOL0     H52371   4.822  11.470   2.549 -0.7705 -0.7514 -0.8550
  380MOL0     H52372   4.603  11.489   2.456 -0.0177  0.1096 -0.4305
  380MOL0     H52373   4.255  11.409   2.743 -1.4410  0.5026  0.1008
  380MOL0     H52374   4.327  11.267   2.673  0.8463  0.8765  1.1736
  380MOL0     H52375   4.162  11.409   2.482  0.5368  1.2987  1.1512
  380MOL0     H52376   4.161  11.236   2.512 -0.7001  1.6389 -5.1373
  380MOL0     H52377   4.025  11.247   2.691 -2.3069 -0.0860 -1.2266
  380MOL0     H52378   4.031  11.425   2.708  1.6015  0.3193  0.5991
  380MOL0     H52379   3.927  11.437   2.472  1.0778 -0.1562  0.4348
  380MOL0     H52380   3.906  11.251   2.494  1.7631 -1.2020  1.1829
  380MOL0     H52381   3.783  11.474   2.659 -3.7582 -0.5289 -0.3285
  380MOL0     H52382   3.755  11.302   2.677  0.7249  0.1033  0.8175
  380MOL0     H52383   3.576  11.448   2.563 -0.5472 -2.8688  0.7273
  380MOL0     H52384   3.683  11.478   2.429  1.6499 -1.4719 -1.3985
  380MOL0     H52385   3.697  11.230   2.378  0.5822 -0.0930  1.3838
  380MOL0     H52386   3.554  11.316   2.337 -1.0734 -2.1784 -1.1068
  380MOL0     H52387   3.586  11.151   2.604  1.7263  1.3007 -0.6354
  380MOL0     H52388   3.463  11.267   2.594  2.1907 -0.0177  2.2813
  380MOL0     H52389   3.261  11.080   2.614 -2.6449 -4.0501 -0.0438
  380MOL0     H52390   3.091  10.928   2.480  0.2454  1.3009 -0.5970
  380MOL0     H52391   3.186  10.777   2.541 -0.0978 -0.6180 -1.6051
  380MOL0     H52392   3.122  10.832   2.258 -1.3163 -0.5612 -0.1814
  380MOL0     H52393   3.210  10.697   2.325 -0.5701 -1.8598  0.3731
  380MOL0     H52394   2.992  10.649   2.255 -0.8277  0.1413 -0.1974
  380MOL0     H52395   3.013  10.615   2.435  0.1972  0.6338  1.1162
  380MOL0     H52396   2.780  10.719   2.362 -2.3284  4.6840  0.1304
  380MOL0     H52397   2.877  10.815   2.477  1.5325 -0.5496  0.5807
  380MOL0     H52398   2.712  10.684   2.175 -0.6467 -1.1387 -1.1703
  380MOL0     H52399   2.728  10.587   1.824  2.0824  0.3488  1.6623
  380MOL0     H52400   2.566  10.607   1.891 -0.2569  4.0652 -0.5247
  380MOL0     H52401   2.694  10.520   1.975  2.2509  0.1729 -0.0205
  380MOL0     H52402   2.693  10.554   1.600 -0.6250 -3.9757 -2.3879
  380MOL0     H52403   2.701  10.481   1.363  0.4731  0.2937 -0.2714
  380MOL0     H52404   2.778  10.655   1.145  3.0228 -2.6818 -0.1005
  380MOL0     H52405   2.756  10.485   1.122 -2.6260 -0.8942  4.2632
  380MOL0     H52406   2.665  10.496   0.913  0.7635  0.6616 -1.7485
  380MOL0     H52407   2.635  10.673   0.930  0.1061 -0.1411 -0.9556
  380MOL0     H52408   2.870  10.727   0.933  2.8876 -1.1722  0.4938
  380MOL0     H52409   2.843  10.635   0.791  1.2680  1.4325 -0.5103
  380MOL0     H52410   2.954  10.435   0.909  0.9177  0.0093 -1.3723
  380MOL0     H52411   2.971  10.546   1.051  0.8441  5.2890  0.1110
  380MOL0     H52412   3.140  10.597   0.798 -1.1583 -1.6627 -0.3407
  380MOL0     H52413   3.094  10.712   0.920 -2.0009  0.4790 -0.7681
  380MOL0     H52414   3.188  10.533   1.091  1.3938  0.2970  1.2736
  380MOL0     H52415   3.306  10.602   0.968 -2.7726  3.3365  0.9712
  380MOL0     H52416   3.276  10.416   0.825 -2.3744  1.0567  0.2420
  380MOL0     H52417   3.189  10.320   0.959  0.2107 -2.0629  0.6210
  380MOL0     H52418   3.378  10.317   1.100  0.9013 -0.3133 -0.3877
  380MOL0     H52419   3.479  10.394   0.987 -0.6058  1.0892 -0.4837
  380MOL0     H52420   2.420  10.779   1.263 -0.7655  0.8340  0.5937
  380MOL0     H52421   2.449  10.890   1.484 -0.5286  0.0784 -0.5044
  380MOL0     H52422   2.817  11.046   1.863  1.0314 -0.8347  0.8197
  380MOL0     H52423   2.903  11.061   2.068 -0.5091  0.7079 -1.0899
  380MOL0     H52424   4.444  11.429   2.862 -0.8894 -1.1970 -0.8462
  380MOL0     H52425   4.661  11.389   2.941  2.0067 -0.4166 -1.4451
  380MOL0     H52426   5.235  11.297   2.652 -4.4177 -4.7392  1.9550
  380MOL0     H52427   5.455  11.370   2.747 -0.8709  3.9326 -2.0529
  380MOL0     H52428   5.449  11.511   3.166  0.0380  0.4897  0.0346
  380MOL0     H52429   5.616  11.547   3.109 -0.3955  3.8161  1.9946
  380MOL0     H52430   5.501  11.744   3.170 -0.7901 -0.7993  0.1370
  380MOL0     H52431   5.368  11.718   3.061 -0.1799  2.6175 -1.4089
  380MOL0     H52432   5.650  11.767   3.006 -0.4929  3.1886  1.0122
  380MOL0     H52433   5.538  11.736   2.867  0.3624  2.3148 -1.5759
  380MOL0     H52434   5.552  11.957   3.075  0.8890 -1.4222 -0.2679
  380MOL0     H52435   5.400  11.926   2.974  0.4506 -1.7154 -3.4206
  380MOL0     H52436   5.619  12.154   2.712  0.2427  0.1149 -0.9344
  380MOL0     H52437   5.249  11.506   3.101 -1.6174 -0.8847 -0.6622
  380MOL0     H52438   5.024  11.452   3.145 -1.1113  0.5576 -0.4281
  380MOL0     H52439   4.937  11.518   3.013 -4.0600 -2.8533 -3.6295
  380MOL0     H52440   4.947  11.345   3.031 -2.9094  1.1619  4.6459
  381MOL0     O52441   2.222   9.390   5.401 -0.3685 -0.1775  1.0631
  381MOL0     C52442   2.337   9.352   5.403  0.0901  0.2282 -1.6556
  381MOL0     O52443   2.449   9.407   5.344  0.0595  0.0577  0.5908
  381MOL0     C52444   2.453   9.517   5.253 -0.1402  0.6854  1.0657
  381MOL0     C52445   2.343   9.589   5.216 -0.3383 -0.1156  0.3242
  381MOL0     C52446   2.358   9.685   5.120  0.6100 -1.0571 -0.0654
  381MOL0     C52447   2.483   9.712   5.060  0.5383 -0.0539 -0.4400
  381MOL0     O52448   2.492   9.808   4.969  0.2750 -0.0093 -0.5393
  381MOL0     C52449   2.612   9.881   4.949  0.7485  0.4228 -1.1633
  381MOL0     C52450   2.567   9.975   4.842 -0.3408 -0.6362  0.6337
  381MOL0     C52451   2.460  10.068   4.891  0.4342  0.7513 -0.0445
  381MOL0     C52452   2.379  10.122   4.771  0.3469  0.0187  0.4013
  381MOL0     C52453   2.453  10.196   4.652  1.1330 -0.8233 -0.3475
  381MOL0     C52454   2.386  10.173   4.517 -0.1598  0.2446 -0.4119
  381MOL0     C52455   2.255  10.239   4.502  0.5761 -0.5769 -0.8251
  381MOL0     C52456   2.178  10.158   4.391  0.1771  0.5538  1.2626
  381MOL0     N52457   2.098  10.041   4.452 -0.1101  0.0727  0.4724
  381MOL0     C52458   2.161   9.917   4.478 -0.2817 -0.7497  0.2417
  381MOL0     C52459   2.059   9.838   4.515  0.7314  0.3268  0.1495
  381MOL0     C52460   2.060   9.693   4.550 -0.4509  0.7455 -0.3931
  381MOL0     C52461   2.121   9.602   4.444  0.1764 -0.4538  0.0777
  381MOL0     C52462   2.026   9.584   4.321 -0.0040  0.5222  0.7885
  381MOL0     C52463   1.999   9.699   4.231 -0.3201 -0.5901  0.7919
  381MOL0     O52464   2.121   9.731   4.165 -0.8056 -0.1712  0.1241
  381MOL0     C52465   2.135   9.835   4.081  0.0278 -0.0224 -0.0922
  381MOL0     C52466   2.049   9.945   4.078  0.9515  0.3183 -0.1782
  381MOL0     C52467   2.064  10.043   3.987  0.3793 -0.5488  0.0410
  381MOL0     C52468   1.988  10.176   4.014  0.5897  0.8785  0.1149
  381MOL0     C52469   2.164  10.046   3.891 -0.1749  1.3423 -0.1335
  381MOL0     C52470   2.177  10.138   3.781  0.3880 -0.1122  0.0851
  381MOL0     O52471   2.297  10.134   3.725  0.1068 -0.4137 -0.9313
  381MOL0     C52472   2.331  10.188   3.604 -0.1975  0.6425 -0.1141
  381MOL0     C52473   2.246  10.164   3.495  0.2253  0.3748 -0.9628
  381MOL0     C52474   2.285  10.197   3.373 -0.8100  0.4147  0.3035
  381MOL0     C52475   2.410  10.257   3.349  0.0805  0.4038 -0.5275
  381MOL0     O52476   2.428  10.300   3.223  0.9949  0.3016  0.1297
  381MOL0     C52477   2.557  10.327   3.165 -0.8865 -0.0583  0.6049
  381MOL0     C52478   2.657  10.204   3.149  0.1225 -0.3991  0.5674
  381MOL0     C52479   2.746  10.208   3.027  1.2342  0.3758 -0.1273
  381MOL0     C52480   2.840  10.326   3.026  0.0844  0.0353  1.0514
  381MOL0     C52481   2.924  10.319   2.899 -0.1913 -0.4807  0.7886
  381MOL0     C52482   3.037  10.428   2.903  0.1791  0.3049  0.0732
  381MOL0     C52483   2.994  10.575   2.901  0.5964 -0.6915 -0.3636
  381MOL0     C52484   2.938  10.612   2.765 -0.0670  0.8381  0.4001
  381MOL0    Cl52485   2.882  10.784   2.745 -0.3198 -0.0566  0.1114
  381MOL0     C52486   2.496  10.290   3.457 -0.7078  0.0527  0.3912
  381MOL0     C52487   2.459  10.253   3.580  0.3701  0.2910 -0.1258
  381MOL0     O52488   2.089  10.204   3.739  0.1304 -0.1403 -0.5086
  381MOL0     C52489   2.256   9.931   3.896 -0.0788  0.2161  0.1498
  381MOL0     C52490   2.244   9.834   3.995 -0.5508  0.0024  0.0283
  381MOL0     N52491   1.939   9.910   4.520 -0.0554  0.2138  0.4115
  381MOL0     N52492   1.968  10.033   4.486  1.1067  0.1100 -0.4940
  381MOL0     C52493   2.591   9.643   5.108 -0.3664  0.3994  1.3923
  381MOL0     C52494   2.578   9.544   5.196  0.3815  0.5586 -0.4405
  381MOL0     C52495   2.372   9.243   5.496  0.5365  0.4085 -1.6315
  381MOL0     C52496   2.501   9.241   5.551 -0.2129 -0.6279  0.4403
  381MOL0     C52497   2.544   9.135   5.626  0.0660 -0.7527 -0.0822
  381MOL0     C52498   2.461   9.027   5.652 -0.0767  0.3479  0.0537
  381MOL0     O52499   2.496   8.920   5.723  0.1427  0.6569 -0.5314
  381MOL0     C52500   2.607   8.928   5.812 -0.2229  0.4858  0.0625
  381MOL0     C52501   2.595   9.010   5.934  0.6528  0.1986 -0.0060
  381MOL0     C52502   2.708   8.985   6.041 -0.2981  0.3564 -0.6018
  381MOL0     C52503   2.723   9.094   6.148  0.0045  0.5374  0.2826
  381MOL0     C52504   2.596   9.148   6.199  0.3474  0.2655 -0.4065
  381MOL0     C52505   2.492   9.202   6.247 -0.1978 -0.0454 -0.1130
  381MOL0     C52506   2.328   9.030   5.602 -0.6977  0.1016 -0.6253
  381MOL0     C52507   2.279   9.143   5.534 -0.6977 -0.6229  0.0932
  381MOL0     C52508   2.135   9.136   5.485  0.3007 -0.0786 -0.4537
  381MOL0     H52509   2.243   9.584   5.259 -1.6429  0.5967 -2.3729
  381MOL0     H52510   2.274   9.749   5.096 -0.4817 -0.4626  4.4028
  381MOL0     H52511   2.697   9.819   4.922  0.4762 -0.1495 -0.7311
  381MOL0     H52512   2.621   9.935   5.044 -2.4050 -2.9163  1.3074
  381MOL0     H52513   2.653  10.038   4.818 -3.0193  3.9334  1.8317
  381MOL0     H52514   2.533   9.929   4.748 -1.0057 -1.1083  1.0932
  381MOL0     H52515   2.378  10.022   4.948  3.0763 -4.2193  0.2179
  381MOL0     H52516   2.503  10.142   4.960 -2.2775  0.3821  2.2387
  381MOL0     H52517   2.313  10.043   4.734  0.6962 -0.8554  1.5693
  381MOL0     H52518   2.311  10.199   4.809 -1.2568 -1.1151 -0.0853
  381MOL0     H52519   2.560  10.172   4.648  1.5607  1.0419 -2.1887
  381MOL0     H52520   2.455  10.299   4.689  0.6664 -1.3035  1.0582
  381MOL0     H52521   2.460  10.216   4.448  0.3153 -0.8580 -0.6078
  381MOL0     H52522   2.385  10.066   4.497  0.8084 -0.3303  2.2511
  381MOL0     H52523   2.256  10.344   4.471 -2.2658 -0.7384 -1.7485
  381MOL0     H52524   2.187  10.245   4.588 -1.8418 -0.3941 -2.6576
  381MOL0     H52525   2.101  10.222   4.347  2.2550  1.3199 -1.4980
  381MOL0     H52526   2.244  10.133   4.308  0.7085 -0.3576  1.9463
  381MOL0     H52527   2.267   9.895   4.487 -0.8570 -2.8690  6.1996
  381MOL0     H52528   1.959   9.659   4.576 -0.3583 -1.0368 -2.1466
  381MOL0     H52529   2.103   9.669   4.647  0.5369  0.5421 -0.8728
  381MOL0     H52530   2.222   9.636   4.421 -0.7355  1.7179 -1.0808
  381MOL0     H52531   2.135   9.509   4.499  0.8427 -1.5131 -1.8005
  381MOL0     H52532   2.053   9.487   4.278 -2.7237 -0.0593  0.2012
  381MOL0     H52533   1.934   9.559   4.374  0.9618 -1.1042  1.8126
  381MOL0     H52534   1.921   9.676   4.158 -0.9913  0.4754  1.1723
  381MOL0     H52535   1.949   9.779   4.284  0.6511  0.8285 -0.3415
  381MOL0     H52536   1.980   9.961   4.160 -1.2974 -0.5435 -1.7861
  381MOL0     H52537   2.001  10.263   3.949  1.7284  0.1662 -0.6389
  381MOL0     H52538   2.014  10.193   4.119 -1.3733 -1.0215  0.9775
  381MOL0     H52539   1.879  10.166   4.025  0.5236  1.1815 -0.2229
  381MOL0     H52540   2.153  10.113   3.513  1.6275 -1.1520  2.9511
  381MOL0     H52541   2.229  10.190   3.281  0.6081 -1.6654 -0.4713
  381MOL0     H52542   2.549  10.366   3.063  3.6283  3.4334  1.2242
  381MOL0     H52543   2.609  10.402   3.226 -1.2776 -1.3805  2.6316
  381MOL0     H52544   2.717  10.196   3.241  0.4394 -1.0973  0.3067
  381MOL0     H52545   2.600  10.111   3.142 -1.4182  0.6330 -1.7081
  381MOL0     H52546   2.671  10.209   2.947 -2.1906  1.2284  2.8096
  381MOL0     H52547   2.809  10.120   3.011 -1.9030 -2.4614  1.8074
  381MOL0     H52548   2.904  10.318   3.114 -0.5514 -0.9307  1.4331
  381MOL0     H52549   2.776  10.415   3.025  0.4982  0.3743 -1.4080
  381MOL0     H52550   2.977  10.224   2.888 -0.9142 -0.6954 -1.2697
  381MOL0     H52551   2.853  10.319   2.816 -3.0471 -1.0947  3.0713
  381MOL0     H52552   3.097  10.421   2.812 -0.1704  1.0687 -0.2256
  381MOL0     H52553   3.095  10.426   2.996 -1.2638  3.3292  1.1743
  381MOL0     H52554   3.090  10.625   2.919  0.6350 -0.8838 -0.0325
  381MOL0     H52555   2.923  10.584   2.983  0.1298 -1.5244 -0.6593
  381MOL0     H52556   2.854  10.547   2.739 -0.9921  2.8883 -2.2343
  381MOL0     H52557   3.021  10.593   2.696  1.1981 -2.2130  2.5378
  381MOL0     H52558   2.591  10.340   3.440 -0.8977  0.3938  0.3170
  381MOL0     H52559   2.518  10.276   3.668 -1.3073  0.4748  1.0188
  381MOL0     H52560   2.338   9.930   3.824 -2.0960 -1.1087 -2.2704
  381MOL0     H52561   2.319   9.756   3.999 -1.1849 -0.5936  1.7545
  381MOL0     H52562   2.684   9.666   5.056 -2.9600  1.1732 -3.4733
  381MOL0     H52563   2.671   9.507   5.237  0.1310  0.6305  0.2099
  381MOL0     H52564   2.575   9.319   5.538  1.3580 -2.4085 -2.4460
  381MOL0     H52565   2.646   9.138   5.663  0.0854 -1.5697 -0.0526
  381MOL0     H52566   2.621   8.832   5.862 -0.6149  0.6709  0.5404
  381MOL0     H52567   2.695   8.951   5.752 -1.3939  1.1946 -1.4704
  381MOL0     H52568   2.499   8.998   5.986  0.3289 -0.1469 -0.6838
  381MOL0     H52569   2.607   9.110   5.892  0.5142 -0.7111 -2.3319
  381MOL0     H52570   2.696   8.885   6.085  1.3695  0.1785 -0.4738
  381MOL0     H52571   2.798   9.001   5.980  0.8512  1.3630  1.2675
  381MOL0     H52572   2.782   9.175   6.105  1.5561  0.5578  2.3317
  381MOL0     H52573   2.780   9.054   6.232 -0.5071  1.4243  1.0714
  381MOL0     H52574   2.407   9.246   6.295 -0.9291 -1.8094  0.3041
  381MOL0     H52575   2.266   8.946   5.632  1.4301 -1.1019  0.6585
  381MOL0     H52576   2.092   9.045   5.529  0.8621  0.6809  1.8492
  381MOL0     H52577   2.085   9.230   5.510  1.7408  1.0858 -1.7055
  381MOL0     H52578   2.129   9.133   5.376  1.8104 -0.6555 -0.5464
  382MOL0     O52579   5.826   4.528  11.024  0.6926 -0.0366 -0.0096
  382MOL0     C52580   5.723   4.577  10.990 -0.0846 -0.2921  0.8305
  382MOL0     O52581   5.718   4.703  10.921  0.2436  0.1093  0.7020
  382MOL0     C52582   5.838   4.755  10.876 -0.9608 -0.3649  0.9821
  382MOL0     C52583   5.884   4.720  10.751 -0.5369 -0.1920  0.4542
  382MOL0     C52584   6.009   4.765  10.695  0.3008 -0.4844  0.1674
  382MOL0     C52585   6.082   4.856  10.768  0.2048 -0.2045  0.7427
  382MOL0     O52586   6.207   4.881  10.720 -0.5247 -1.0942 -0.6169
  382MOL0     C52587   6.226   5.018  10.696  0.3896  0.9064 -0.8360
  382MOL0     C52588   6.303   5.035  10.575 -0.0347  1.0505  0.3396
  382MOL0     C52589   6.198   5.017  10.461 -0.9267  0.0284  0.7079
  382MOL0     C52590   6.269   5.006  10.324 -0.0433 -0.0545 -0.3407
  382MOL0     C52591   6.171   4.991  10.215  0.0327 -0.2755 -0.7365
  382MOL0     C52592   6.228   4.936  10.082  0.4002  0.4409  0.1928
  382MOL0     C52593   6.293   5.043   9.988 -0.2267  0.4109 -0.3579
  382MOL0     C52594   6.400   4.979   9.892  0.0974  0.8098  0.2303
  382MOL0     N52595   6.453   5.082   9.805 -0.2110 -0.3998  0.3121
  382MOL0     C52596   6.581   5.128   9.819  0.3892 -0.1428 -0.6182
  382MOL0     C52597   6.607   5.195   9.702  0.3354  0.4352  0.3042
  382MOL0     C52598   6.732   5.247   9.654  0.5637 -0.1018  0.5956
  382MOL0     C52599   6.813   5.331   9.761 -0.9489 -0.6734 -0.0774
  382MOL0     C52600   6.735   5.444   9.828 -0.7655  0.6399 -0.1597
  382MOL0     C52601   6.633   5.516   9.735  0.7397 -0.0661 -0.2657
  382MOL0     O52602   6.566   5.625   9.798  0.2738 -0.3086  0.1570
  382MOL0     C52603   6.537   5.739   9.729 -0.0315 -0.0517  0.0673
  382MOL0     C52604   6.534   5.850   9.812  0.5383  0.0768 -0.4250
  382MOL0     C52605   6.530   5.984   9.758 -0.9876  0.0285 -0.1371
  382MOL0     C52606   6.535   6.109   9.857 -0.0276 -1.2626  0.0305
  382MOL0     C52607   6.520   6.009   9.616 -0.2954 -0.1937  0.4430
  382MOL0     C52608   6.508   6.135   9.542  0.0678 -0.3776 -0.3314
  382MOL0     O52609   6.535   6.124   9.411 -0.0692  0.6303  0.9925
  382MOL0     C52610   6.524   6.243   9.339  0.4767 -0.6709 -0.2695
  382MOL0     C52611   6.634   6.280   9.259  0.6274  0.4325  0.7688
  382MOL0     C52612   6.617   6.378   9.162  0.7783  0.4178 -0.1272
  382MOL0     C52613   6.487   6.434   9.144 -0.4252  0.1261  0.4238
  382MOL0     O52614   6.464   6.533   9.049 -0.0632  0.8385 -0.5163
  382MOL0     C52615   6.577   6.567   8.965  0.6144  0.2285  0.3843
  382MOL0     C52616   6.552   6.674   8.864  0.8025  0.9303 -0.2014
  382MOL0     C52617   6.684   6.735   8.825 -0.1984  0.3671 -0.7144
  382MOL0     C52618   6.674   6.847   8.716 -0.1477  1.0448 -0.0134
  382MOL0     C52619   6.660   6.983   8.786  0.0406  0.5497  0.0687
  382MOL0     C52620   6.808   7.031   8.816  0.6115  0.1082 -1.1057
  382MOL0     C52621   6.806   7.127   8.927 -0.0740  0.6727 -0.4136
  382MOL0     C52622   6.809   7.276   8.876  0.6421  0.2668 -0.3405
  382MOL0    Cl52623   6.962   7.308   8.785 -0.1282  0.6488  0.1648
  382MOL0     C52624   6.381   6.401   9.228  0.4978  0.0111 -0.4169
  382MOL0     C52625   6.400   6.309   9.334 -0.3002 -0.6922  1.0944
  382MOL0     O52626   6.494   6.243   9.605  0.2373 -0.2688 -0.0635
  382MOL0     C52627   6.509   5.889   9.534 -0.0491  0.4395 -0.7360
  382MOL0     C52628   6.512   5.756   9.590 -0.3571 -0.3588 -0.1845
  382MOL0     N52629   6.488   5.194   9.634  0.6186  0.1585  0.7988
  382MOL0     N52630   6.393   5.135   9.695 -1.1574  0.0296 -0.1060
  382MOL0     C52631   6.033   4.902  10.891  0.8453  1.6803  0.2353
  382MOL0     C52632   5.908   4.861  10.935  0.2082  0.0581  0.5835
  382MOL0     C52633   5.590   4.506  11.032  0.5066  0.3230 -0.0617
  382MOL0     C52634   5.477   4.584  11.014 -0.4463 -0.4897  0.3812
  382MOL0     C52635   5.346   4.530  11.030 -0.8957 -0.5923 -0.0375
  382MOL0     C52636   5.336   4.403  11.080  0.2786 -0.4034 -0.7174
  382MOL0     O52637   5.210   4.359  11.120  0.1846  0.3110 -0.0106
  382MOL0     C52638   5.189   4.219  11.132  0.6664 -0.3096  0.0081
  382MOL0     C52639   5.042   4.175  11.145 -0.4634 -1.3216 -0.7427
  382MOL0     C52640   4.966   4.266  11.243 -0.6039  0.0238  0.1446
  382MOL0     C52641   5.011   4.255  11.394 -0.2203 -0.1976  0.8773
  382MOL0     C52642   4.988   4.117  11.463 -0.6575 -0.2539 -0.0814
  382MOL0     C52643   4.986   4.006  11.510  0.5977  1.2958  0.8117
  382MOL0     C52644   5.451   4.321  11.102  0.5615 -0.1454 -0.0423
  382MOL0     C52645   5.579   4.369  11.068 -0.3726 -0.1790 -0.8452
  382MOL0     C52646   5.698   4.274  11.069 -0.3832  0.2577 -0.1936
  382MOL0     H52647   5.816   4.653  10.700 -0.9657  1.6726 -1.5914
  382MOL0     H52648   6.050   4.722  10.605 -0.0597  0.0665 -0.2657
  382MOL0     H52649   6.282   5.062  10.779  1.7504 -0.6077 -0.8928
  382MOL0     H52650   6.130   5.070  10.692  1.1295  2.4370  0.6293
  382MOL0     H52651   6.354   5.132  10.580  3.1349 -0.5036  0.9539
  382MOL0     H52652   6.381   4.959  10.566 -0.8047  0.3632 -0.8740
  382MOL0     H52653   6.138   4.926  10.465  1.4003 -1.6293  0.0918
  382MOL0     H52654   6.131   5.103  10.455 -1.5286 -0.2579  2.5282
  382MOL0     H52655   6.323   5.098  10.298 -1.1863  0.9385  0.6679
  382MOL0     H52656   6.341   4.925  10.335 -0.2487 -0.0381  1.4452
  382MOL0     H52657   6.092   5.067  10.213 -0.2055 -0.5098 -3.3137
  382MOL0     H52658   6.105   4.906  10.233  1.4342 -1.2173  0.0989
  382MOL0     H52659   6.293   4.848  10.093  0.5855  0.7601  1.9112
  382MOL0     H52660   6.144   4.904  10.020  0.5177  0.2170  0.1452
  382MOL0     H52661   6.346   5.114  10.052 -1.7877  1.5813 -0.2846
  382MOL0     H52662   6.222   5.100   9.927  2.1842  2.1911 -1.6951
  382MOL0     H52663   6.480   4.936   9.953  0.9833  1.9876 -0.0583
  382MOL0     H52664   6.350   4.898   9.838 -0.1872  1.4213 -0.4332
  382MOL0     H52665   6.647   5.094   9.898  1.2858 -0.6894 -1.5691
  382MOL0     H52666   6.729   5.301   9.559  2.2244 -0.4683  0.2944
  382MOL0     H52667   6.793   5.156   9.657 -1.3823 -1.4442  2.1588
  382MOL0     H52668   6.862   5.266   9.833 -1.7298 -3.6849 -2.0914
  382MOL0     H52669   6.898   5.372   9.704 -0.6278 -1.0972  0.0955
  382MOL0     H52670   6.672   5.404   9.908 -0.7033  3.5462  1.4754
  382MOL0     H52671   6.805   5.514   9.875  1.7855 -3.7382  3.4100
  382MOL0     H52672   6.696   5.548   9.651 -0.4370  1.9182 -0.4480
  382MOL0     H52673   6.552   5.450   9.702  0.2135 -1.0668  2.6985
  382MOL0     H52674   6.552   5.824   9.916 -2.5660 -1.5257 -0.1736
  382MOL0     H52675   6.585   6.199   9.819 -1.2870 -0.5732 -0.0704
  382MOL0     H52676   6.587   6.079   9.948 -0.9996  0.5394  1.2393
  382MOL0     H52677   6.433   6.138   9.884  0.5010 -0.3087  1.0842
  382MOL0     H52678   6.726   6.222   9.252 -0.0082 -0.8374  2.4209
  382MOL0     H52679   6.713   6.396   9.115  1.7769 -1.9013  0.8853
  382MOL0     H52680   6.648   6.606   9.038  0.3606 -0.5965  1.0817
  382MOL0     H52681   6.620   6.487   8.903 -0.2381 -0.7904  1.0802
  382MOL0     H52682   6.504   6.648   8.770 -2.8412  0.8934  1.4977
  382MOL0     H52683   6.480   6.742   8.910  0.6705  0.2709  0.5891
  382MOL0     H52684   6.751   6.656   8.787 -1.5853 -0.0939 -2.3439
  382MOL0     H52685   6.729   6.776   8.916  0.2727 -0.6436 -0.4761
  382MOL0     H52686   6.577   6.822   8.672 -0.9120  1.1909  1.5057
  382MOL0     H52687   6.748   6.840   8.636 -3.0022 -0.1485 -2.7439
  382MOL0     H52688   6.607   7.058   8.727  1.5096  3.1717  1.8578
  382MOL0     H52689   6.607   6.963   8.880  0.5334  0.2170  0.2784
  382MOL0     H52690   6.845   7.075   8.723 -0.7267  0.2571 -1.5884
  382MOL0     H52691   6.867   6.946   8.853 -3.4560 -1.5115  2.4810
  382MOL0     H52692   6.893   7.114   8.993  0.0903 -0.6145 -0.8616
  382MOL0     H52693   6.716   7.121   8.989  0.9017  0.5261  1.0440
  382MOL0     H52694   6.792   7.340   8.964 -1.0990 -0.9135  0.2335
  382MOL0     H52695   6.725   7.286   8.807 -0.9991 -0.2404  1.4926
  382MOL0     H52696   6.283   6.440   9.204  0.3583 -0.5666 -0.7991
  382MOL0     H52697   6.322   6.297   9.409  0.0289 -0.4631  1.4772
  382MOL0     H52698   6.503   5.894   9.426  1.3216  0.8351 -0.8185
  382MOL0     H52699   6.512   5.671   9.523  1.7252  0.6981 -1.6251
  382MOL0     H52700   6.100   4.963  10.951  2.0156  2.2179 -1.5626
  382MOL0     H52701   5.876   4.903  11.029 -0.4672 -1.1291  0.9021
  382MOL0     H52702   5.476   4.691  10.997 -3.9541 -0.3125  0.8393
  382MOL0     H52703   5.261   4.594  11.012 -0.0414  0.4115 -0.5826
  382MOL0     H52704   5.234   4.164  11.049 -1.9827 -1.8152 -0.5511
  382MOL0     H52705   5.236   4.175  11.221  1.4748 -1.1890 -0.8371
  382MOL0     H52706   5.039   4.070  11.178 -1.0933 -0.6962  1.3213
  382MOL0     H52707   5.002   4.188  11.045 -1.2696 -2.1333 -0.5369
  382MOL0     H52708   4.983   4.370  11.215  0.7999 -0.1915  0.1380
  382MOL0     H52709   4.858   4.250  11.234 -0.5586  0.7386 -2.6428
  382MOL0     H52710   4.956   4.327  11.456 -0.0398 -0.2616  1.1147
  382MOL0     H52711   5.117   4.279  11.403 -0.0300 -0.6512 -0.0341
  382MOL0     H52712   5.009   3.902  11.524 -0.1926  1.3565  2.9647
  382MOL0     H52713   5.440   4.221  11.143 -1.3632  0.4986  1.1321
  382MOL0     H52714   5.744   4.282  10.970  1.1528 -0.0583  0.4668
  382MOL0     H52715   5.766   4.310  11.146 -2.1855  1.4918  0.8992
  382MOL0     H52716   5.678   4.168  11.087 -1.3896 -0.4553 -4.3497
  383MOL0     O52717   0.352   6.262   6.545  0.3410 -0.5438 -0.9592
  383MOL0     C52718   0.240   6.305   6.581 -0.3899  0.2388 -0.5683
  383MOL0     O52719   0.162   6.398   6.523 -0.1437  0.1329  1.0775
  383MOL0     C52720   0.202   6.458   6.404 -0.0499 -0.5642 -0.7810
  383MOL0     C52721   0.193   6.597   6.407  0.0134  0.6102  0.1625
  383MOL0     C52722   0.210   6.676   6.292 -0.1841 -0.0896  0.0117
  383MOL0     C52723   0.240   6.620   6.172 -0.6053 -0.0543  0.8867
  383MOL0     O52724   0.247   6.679   6.045 -0.6631 -0.1851 -0.3873
  383MOL0     C52725   0.254   6.823   6.032 -0.3150  0.3207 -0.8695
  383MOL0     C52726   0.258   6.857   5.888  0.0407  0.8137  0.6686
  383MOL0     C52727   0.244   7.007   5.861 -0.2075  0.5057 -0.0633
  383MOL0     C52728   0.236   7.046   5.711  0.4537 -0.4629 -0.5466
  383MOL0     C52729   0.206   7.198   5.696  0.3230 -0.5006 -0.0468
  383MOL0     C52730   0.164   7.237   5.550 -0.6942  0.1508  0.1858
  383MOL0     C52731   0.008   7.238   5.522 -0.1763 -0.5844 -0.0678
  383MOL0     C52732  -0.088   7.343   5.579 -0.5434  0.2918  0.0227
  383MOL0     N52733  -0.089   7.476   5.517 -0.2710  0.2134 -0.9378
  383MOL0     C52734  -0.118   7.506   5.388 -0.4257 -0.0812  0.0809
  383MOL0     C52735  -0.114   7.645   5.383  0.2786 -0.1827  0.1764
  383MOL0     C52736  -0.149   7.741   5.265  0.3054  0.2932 -0.0547
  383MOL0     C52737  -0.105   7.697   5.129 -0.8201  0.2559 -0.5490
  383MOL0     C52738  -0.196   7.751   5.021 -1.0234 -0.0420 -0.1193
  383MOL0     C52739  -0.140   7.703   4.880  0.5400  0.0354 -0.3512
  383MOL0     O52740  -0.131   7.556   4.888  0.9565 -0.3490 -0.2504
  383MOL0     C52741  -0.065   7.506   4.781 -0.0029  0.4886  0.0903
  383MOL0     C52742  -0.134   7.431   4.686  0.7229  0.1381 -1.1915
  383MOL0     C52743  -0.080   7.402   4.563  0.5472  0.2027  0.6976
  383MOL0     C52744  -0.156   7.334   4.451 -0.7269 -0.1706  0.4843
  383MOL0     C52745   0.052   7.435   4.540  0.0798 -0.0662  1.0127
  383MOL0     C52746   0.121   7.413   4.416  0.0466  0.0400  0.0929
  383MOL0     O52747   0.160   7.285   4.393  1.0522  0.5510  0.5354
  383MOL0     C52748   0.158   7.234   4.262 -0.4095  0.1565 -0.3155
  383MOL0     C52749   0.076   7.296   4.164  1.3201  0.3541 -0.4459
  383MOL0     C52750   0.059   7.230   4.046  0.0957 -0.7988  0.1395
  383MOL0     C52751   0.109   7.109   4.011  1.1925 -0.3639  0.6807
  383MOL0     O52752   0.074   7.056   3.886  1.0685  0.2007 -1.4674
  383MOL0     C52753   0.142   6.938   3.827  1.2947 -0.0616 -0.0793
  383MOL0     C52754   0.086   6.798   3.871  0.3318  0.6444  0.5680
  383MOL0     C52755   0.195   6.691   3.812  0.2977  0.1108  0.4331
  383MOL0     C52756   0.243   6.597   3.926 -0.1908  0.9706  0.7362
  383MOL0     C52757   0.340   6.502   3.867  0.0603 -1.2516 -0.0443
  383MOL0     C52758   0.272   6.397   3.770 -0.0164 -0.4032 -0.0352
  383MOL0     C52759   0.384   6.297   3.731 -0.5316  0.4404  0.4272
  383MOL0     C52760   0.427   6.198   3.836 -0.4967 -0.8790 -0.4247
  383MOL0    Cl52761   0.532   6.084   3.747  0.0986 -0.1143 -0.1930
  383MOL0     C52762   0.178   7.041   4.108 -0.4100  0.4459  0.2523
  383MOL0     C52763   0.207   7.103   4.229  0.5198 -0.4325  0.0605
  383MOL0     O52764   0.137   7.510   4.344  0.3165 -0.2628  0.0970
  383MOL0     C52765   0.132   7.503   4.633 -0.6203 -0.0164  0.3384
  383MOL0     C52766   0.074   7.547   4.749  0.1158 -0.8119 -0.5983
  383MOL0     N52767  -0.062   7.686   5.506  0.2815 -0.7193 -0.6266
  383MOL0     N52768  -0.058   7.588   5.583 -0.6024 -0.3643  0.3278
  383MOL0     C52769   0.255   6.485   6.174  0.4107 -0.3412 -0.0633
  383MOL0     C52770   0.229   6.395   6.281 -0.2907  0.0203 -0.4852
  383MOL0     C52771   0.172   6.251   6.710 -0.8249 -0.3667  0.3297
  383MOL0     C52772   0.051   6.304   6.735 -0.0824 -0.3541 -0.3817
  383MOL0     C52773  -0.010   6.288   6.860 -0.4122  0.1068  0.0571
  383MOL0     C52774   0.052   6.218   6.956  0.2386  0.7682  0.0694
  383MOL0     O52775   0.002   6.214   7.086  1.0656  0.4553 -0.1515
  383MOL0     C52776   0.061   6.138   7.186 -0.3094 -0.1123  1.1902
  383MOL0     C52777  -0.046   6.107   7.292 -0.6955 -0.6022 -0.1870
  383MOL0     C52778  -0.103   5.956   7.268  0.0725 -0.6509  0.0561
  383MOL0     C52779  -0.235   5.944   7.349  0.2074  0.6717  0.1156
  383MOL0     C52780  -0.307   5.814   7.317  0.7085  0.4696  0.3438
  383MOL0     C52781  -0.373   5.710   7.298 -0.6413 -0.8482  0.0005
  383MOL0     C52782   0.169   6.143   6.921 -0.1687 -0.7482  0.3374
  383MOL0     C52783   0.232   6.161   6.802 -0.1126 -0.1490  0.8067
  383MOL0     C52784   0.359   6.084   6.785 -0.6810 -0.4717 -0.0346
  383MOL0     H52785   0.178   6.643   6.504  3.4620 -2.3382  2.3560
  383MOL0     H52786   0.194   6.783   6.308  3.2505  0.3306  1.6274
  383MOL0     H52787   0.346   6.862   6.077  0.0616 -0.0356 -1.3053
  383MOL0     H52788   0.167   6.872   6.075 -1.0933 -0.2443 -1.7606
  383MOL0     H52789   0.352   6.813   5.853 -0.6871 -1.9172  1.8922
  383MOL0     H52790   0.181   6.801   5.835  0.1165 -0.2384  1.6494
  383MOL0     H52791   0.149   7.045   5.900 -0.2375 -0.8952  1.3144
  383MOL0     H52792   0.329   7.057   5.910 -0.5059 -0.0613  1.0683
  383MOL0     H52793   0.330   7.023   5.661  2.0318  0.4468  1.8351
  383MOL0     H52794   0.158   6.991   5.658  1.6001 -0.6555 -2.0930
  383MOL0     H52795   0.294   7.251   5.735 -1.6839  0.9810  2.9082
  383MOL0     H52796   0.127   7.240   5.759 -0.5820 -1.4986 -0.4864
  383MOL0     H52797   0.208   7.330   5.513 -0.7023  0.0964  0.0399
  383MOL0     H52798   0.214   7.164   5.486  1.9407  1.6671  0.3549
  383MOL0     H52799  -0.033   7.148   5.568  0.9015 -1.3889 -0.6435
  383MOL0     H52800  -0.011   7.233   5.414 -1.2524 -2.9235  0.1635
  383MOL0     H52801  -0.191   7.306   5.573 -0.7763  1.0910 -1.3670
  383MOL0     H52802  -0.056   7.357   5.683  2.0715  2.6526 -0.9838
  383MOL0     H52803  -0.131   7.445   5.300  3.0786  0.5261 -1.0358
  383MOL0     H52804  -0.090   7.833   5.269  0.4832  0.2072 -0.6030
  383MOL0     H52805  -0.255   7.767   5.267  0.8204  2.7824 -0.8359
  383MOL0     H52806  -0.003   7.733   5.109 -0.6807  0.2764  0.1562
  383MOL0     H52807  -0.112   7.588   5.131 -0.3917  0.1866 -1.9206
  383MOL0     H52808  -0.300   7.715   5.030 -0.7509 -0.5353  1.3263
  383MOL0     H52809  -0.185   7.859   5.023  0.5481 -0.1905  1.4254
  383MOL0     H52810  -0.215   7.727   4.805  1.7094  3.8631 -0.4992
  383MOL0     H52811  -0.047   7.757   4.863  0.2996  0.4458 -0.3668
  383MOL0     H52812  -0.237   7.399   4.704  0.1367  1.6213 -1.7605
  383MOL0     H52813  -0.105   7.345   4.355 -0.5859 -3.9891 -0.0217
  383MOL0     H52814  -0.260   7.365   4.439 -0.5819  0.3369  0.4943
  383MOL0     H52815  -0.156   7.226   4.470  1.9082 -1.2021 -4.0288
  383MOL0     H52816   0.019   7.389   4.174 -1.1977 -1.1810  0.5089
  383MOL0     H52817  -0.006   7.279   3.974 -1.3523 -0.5615  1.5344
  383MOL0     H52818   0.130   6.937   3.718 -0.5465 -2.7669  0.0542
  383MOL0     H52819   0.248   6.943   3.853  0.8278 -1.2251  2.3332
  383MOL0     H52820   0.077   6.781   3.978 -2.6157 -1.5236  0.1145
  383MOL0     H52821  -0.015   6.774   3.835  0.2489 -0.0796  1.2520
  383MOL0     H52822   0.286   6.741   3.777 -2.0867  2.4942 -2.9696
  383MOL0     H52823   0.138   6.635   3.738 -1.5759 -0.7638  2.4023
  383MOL0     H52824   0.162   6.535   3.965  0.5905 -0.7179 -0.2471
  383MOL0     H52825   0.299   6.657   3.998  0.1125  0.6881  0.7356
  383MOL0     H52826   0.421   6.563   3.826  1.6590  0.1614  4.6223
  383MOL0     H52827   0.393   6.455   3.950  1.8785  2.1940  0.9475
  383MOL0     H52828   0.237   6.453   3.683 -0.7208  0.6410  0.8815
  383MOL0     H52829   0.186   6.345   3.813  1.3794 -3.5346 -0.8020
  383MOL0     H52830   0.468   6.343   3.679 -1.9325  1.2451 -1.2398
  383MOL0     H52831   0.336   6.247   3.646 -1.2305 -2.0307  2.1315
  383MOL0     H52832   0.344   6.155   3.892 -2.3603  2.0389 -0.7450
  383MOL0     H52833   0.489   6.253   3.908  0.6888  2.1407 -3.4570
  383MOL0     H52834   0.215   6.941   4.090  0.1065  0.7654 -0.5363
  383MOL0     H52835   0.256   7.048   4.308 -0.1975 -0.5439  0.4390
  383MOL0     H52836   0.228   7.532   4.590 -0.5919  0.8321  0.9605
  383MOL0     H52837   0.116   7.633   4.800 -0.4401  0.1476 -1.6899
  383MOL0     H52838   0.285   6.432   6.084 -0.4306  0.1586 -0.6541
  383MOL0     H52839   0.233   6.287   6.271 -0.3718 -0.3527  2.6021
  383MOL0     H52840  -0.006   6.355   6.658  3.6305 -0.3324 -3.4435
  383MOL0     H52841  -0.093   6.355   6.881  2.1151  2.8964  2.1399
  383MOL0     H52842   0.093   6.041   7.146 -1.0202  0.1335 -0.0181
  383MOL0     H52843   0.146   6.192   7.229 -1.5451  2.9831  0.0165
  383MOL0     H52844  -0.123   6.184   7.295  0.3216  0.6031 -2.3643
  383MOL0     H52845  -0.001   6.105   7.392  1.1937  0.6015 -0.9487
  383MOL0     H52846  -0.106   5.932   7.161  2.4011 -1.7983  0.1869
  383MOL0     H52847  -0.030   5.892   7.318  2.8928  0.0486 -2.8023
  383MOL0     H52848  -0.311   6.018   7.322 -0.9934  0.2805  2.1791
  383MOL0     H52849  -0.221   5.946   7.458 -1.0167  3.8627  0.3248
  383MOL0     H52850  -0.438   5.630   7.270 -3.4440  1.1628  0.3774
  383MOL0     H52851   0.204   6.063   6.985  0.9935  0.1440  0.8483
  383MOL0     H52852   0.371   5.986   6.832  0.3026 -1.4392 -2.1717
  383MOL0     H52853   0.377   6.058   6.680  0.8715 -2.8185  0.7287
  383MOL0     H52854   0.443   6.148   6.815 -0.5542 -0.0005 -1.3198
  384MOL0     O52855  10.339   8.853   4.427  0.0761  0.2709 -0.3104
  384MOL0     C52856  10.392   8.942   4.358 -0.1716  0.3305  0.2187
  384MOL0     O52857  10.410   9.069   4.405  1.0021 -0.4659  0.1184
  384MOL0     C52858  10.375   9.080   4.538 -0.2952  0.3145 -1.1222
  384MOL0     C52859  10.463   9.044   4.640  0.1184 -0.3555  0.0678
  384MOL0     C52860  10.424   9.063   4.769 -0.6604  0.3310 -0.0439
  384MOL0     C52861  10.304   9.114   4.807  0.8868  0.6603  0.8648
  384MOL0     O52862  10.251   9.139   4.936 -0.6955 -0.3200 -0.7047
  384MOL0     C52863  10.299   9.037   5.023 -0.0401 -0.4839  0.2070
  384MOL0     C52864  10.196   9.012   5.140 -0.5389 -0.0861 -1.1332
  384MOL0     C52865  10.229   8.890   5.231  0.7072 -0.2669 -0.1811
  384MOL0     C52866  10.349   8.913   5.314  1.7520 -0.3500  0.6510
  384MOL0     C52867  10.373   8.819   5.433  0.5786 -0.0685  0.2472
  384MOL0     C52868  10.310   8.858   5.566  0.3804  0.5682 -0.1649
  384MOL0     C52869  10.317   8.743   5.678 -0.9478 -0.1306  0.9461
  384MOL0     C52870  10.453   8.733   5.748  0.0288  0.2103  1.9051
  384MOL0     N52871  10.463   8.641   5.864 -0.3095 -0.1625  0.5586
  384MOL0     C52872  10.450   8.690   5.994 -0.1547 -0.0825  0.3742
  384MOL0     C52873  10.470   8.582   6.074  0.5486 -0.2014 -0.5271
  384MOL0     C52874  10.482   8.560   6.227  0.2189  0.5526 -0.6757
  384MOL0     C52875  10.550   8.669   6.311  0.7327 -0.0605  0.2125
  384MOL0     C52876  10.453   8.782   6.365  0.3262 -0.5125 -1.0274
  384MOL0     C52877  10.534   8.902   6.429  0.0923  0.3509 -0.0495
  384MOL0     O52878  10.623   8.858   6.528 -0.1355  0.1256 -0.8449
  384MOL0     C52879  10.743   8.924   6.545  0.1847  0.1369 -0.4242
  384MOL0     C52880  10.767   9.044   6.484 -0.2246 -1.2116 -0.7452
  384MOL0     C52881  10.885   9.114   6.482 -0.2880  0.2026  1.2786
  384MOL0     C52882  10.917   9.222   6.379  0.3757  0.2300 -0.6572
  384MOL0     C52883  10.990   9.051   6.571 -1.2321  0.4519  0.3569
  384MOL0     C52884  11.121   9.104   6.595 -0.3205 -1.0701 -0.9385
  384MOL0     O52885  11.208   9.043   6.689 -0.1520 -0.5677  0.6741
  384MOL0     C52886  11.336   9.094   6.701 -0.7808 -0.2457  0.3324
  384MOL0     C52887  11.365   9.204   6.791  0.0067  1.0983  0.6319
  384MOL0     C52888  11.490   9.260   6.814  0.4123  0.1725  0.1125
  384MOL0     C52889  11.599   9.191   6.756 -0.0352  0.3095 -0.2289
  384MOL0     O52890  11.731   9.232   6.759  0.0937 -0.0306 -0.2979
  384MOL0     C52891  11.768   9.354   6.830 -0.1785  1.0696 -0.1487
  384MOL0     C52892  11.913   9.385   6.821  1.4172 -0.5789 -0.1976
  384MOL0     C52893  11.959   9.509   6.904  0.0750 -0.0633 -0.8322
  384MOL0     C52894  11.977   9.631   6.805 -0.7555 -0.4146  0.2112
  384MOL0     C52895  12.120   9.617   6.750 -1.4809 -0.0885 -0.8162
  384MOL0     C52896  12.221   9.689   6.843 -0.0353 -0.0804 -0.5811
  384MOL0     C52897  12.343   9.722   6.761 -0.7394 -0.0224  0.2006
  384MOL0     C52898  12.414   9.599   6.713 -0.2051 -0.4327  0.0191
  384MOL0    Cl52899  12.569   9.658   6.625  0.0552 -0.2212  0.1120
  384MOL0     C52900  11.572   9.073   6.681 -1.3994 -0.2391 -0.1157
  384MOL0     C52901  11.446   9.022   6.653 -0.0303 -0.3497  0.7815
  384MOL0     O52902  11.152   9.208   6.544  0.3169 -0.2856 -0.0417
  384MOL0     C52903  10.963   8.933   6.642  1.3701  0.9025  0.0203
  384MOL0     C52904  10.839   8.872   6.634  0.3234  0.1881 -0.0304
  384MOL0     N52905  10.473   8.475   5.998  0.1377  0.8554  1.0160
  384MOL0     N52906  10.474   8.504   5.866 -0.5331 -0.0887 -1.1397
  384MOL0     C52907  10.217   9.158   4.706  0.6128  0.3792 -0.2268
  384MOL0     C52908  10.258   9.150   4.574  0.4222 -0.4435  0.3262
  384MOL0     C52909  10.432   8.915   4.212 -0.2480  0.1297 -0.6177
  384MOL0     C52910  10.465   9.028   4.136 -0.0146 -0.2256  0.4801
  384MOL0     C52911  10.509   9.025   4.002  0.3321 -0.4479  1.0003
  384MOL0     C52912  10.523   8.903   3.940  0.2487  0.4252  0.5565
  384MOL0     O52913  10.549   8.902   3.806  0.0691  0.4523 -0.3990
  384MOL0     C52914  10.672   8.853   3.774 -0.1463 -0.0831 -0.6761
  384MOL0     C52915  10.749   8.944   3.680 -0.0861  0.3678  0.2849
  384MOL0     C52916  10.736   8.914   3.525  0.3217  0.3226 -1.4129
  384MOL0     C52917  10.820   9.018   3.465 -0.5990 -0.1286 -0.0859
  384MOL0     C52918  10.816   9.028   3.317 -0.6110  0.5631  0.5632
  384MOL0     C52919  10.798   9.049   3.194 -0.2929 -0.7335 -0.8535
  384MOL0     C52920  10.504   8.788   4.017  0.2000 -0.5778  0.4920
  384MOL0     C52921  10.466   8.788   4.148 -0.1570 -0.4117 -0.4592
  384MOL0     C52922  10.470   8.653   4.219 -0.4213 -0.3149  0.9945
  384MOL0     H52923  10.552   8.989   4.608 -1.2591 -1.9638 -1.2191
  384MOL0     H52924  10.487   9.024   4.848 -0.6938 -2.7182 -1.3660
  384MOL0     H52925  10.387   9.080   5.071  0.8301 -3.2307  1.2783
  384MOL0     H52926  10.336   8.944   4.979 -0.1957  0.0943 -1.2123
  384MOL0     H52927  10.205   9.107   5.195 -0.0081  1.5629 -3.8728
  384MOL0     H52928  10.095   9.011   5.098 -0.4462  0.1289 -1.3601
  384MOL0     H52929  10.147   8.864   5.298  1.2659 -1.6263  0.0155
  384MOL0     H52930  10.252   8.807   5.163  2.8132  1.3756 -1.6206
  384MOL0     H52931  10.434   8.891   5.248  1.4182 -1.0978  0.4610
  384MOL0     H52932  10.357   9.017   5.349 -2.2775 -0.5237  2.5305
  384MOL0     H52933  10.481   8.817   5.447  0.6939  0.4391 -0.4821
  384MOL0     H52934  10.341   8.716   5.416  0.1048 -0.6641  4.0214
  384MOL0     H52935  10.340   8.952   5.612 -1.7146  0.7718  0.9036
  384MOL0     H52936  10.205   8.876   5.542  0.1936 -0.7624 -0.4432
  384MOL0     H52937  10.275   8.653   5.632 -1.1127 -1.3417  3.3192
  384MOL0     H52938  10.244   8.768   5.757 -2.3845 -1.4209  0.0757
  384MOL0     H52939  10.532   8.720   5.674 -0.7054  1.6874  0.8158
  384MOL0     H52940  10.481   8.831   5.787 -2.4652  0.5856  3.0231
  384MOL0     H52941  10.450   8.795   6.022  4.6261  0.9927 -2.4658
  384MOL0     H52942  10.517   8.458   6.247 -0.2871  0.5374  0.1880
  384MOL0     H52943  10.381   8.550   6.268  0.9573 -1.0775  0.8693
  384MOL0     H52944  10.595   8.618   6.397 -0.8919 -1.7823  0.1359
  384MOL0     H52945  10.633   8.718   6.260  2.0437 -0.8629  1.5011
  384MOL0     H52946  10.401   8.831   6.282  2.2655  0.7530 -1.5610
  384MOL0     H52947  10.382   8.745   6.439  0.0727  0.1436 -0.9386
  384MOL0     H52948  10.585   8.931   6.337  0.5587 -0.4237 -0.0444
  384MOL0     H52949  10.473   8.989   6.456 -0.7244  0.5117 -2.1930
  384MOL0     H52950  10.681   9.100   6.449  0.6457  0.9555  0.4050
  384MOL0     H52951  10.852   9.201   6.293 -0.7271  0.0197  0.2157
  384MOL0     H52952  11.019   9.224   6.339  0.0878  4.7069 -1.6498
  384MOL0     H52953  10.914   9.318   6.429 -1.1117  0.2249 -0.7005
  384MOL0     H52954  11.269   9.252   6.810 -1.2471 -1.4534  1.1000
  384MOL0     H52955  11.507   9.350   6.872 -1.2808 -0.3273  1.4657
  384MOL0     H52956  11.712   9.436   6.785 -1.4185  0.3989  0.1153
  384MOL0     H52957  11.731   9.340   6.932 -2.2830 -3.0337 -1.2295
  384MOL0     H52958  11.955   9.288   6.851  1.5852 -0.1247  1.1039
  384MOL0     H52959  11.941   9.401   6.717 -2.4377  0.2453 -1.2610
  384MOL0     H52960  12.049   9.492   6.964 -0.5550 -3.4921 -0.6615
  384MOL0     H52961  11.881   9.523   6.980 -1.2203  2.2299 -2.4541
  384MOL0     H52962  11.968   9.723   6.864 -1.0186  0.7912 -1.6441
  384MOL0     H52963  11.892   9.625   6.737 -0.9775 -0.1822  0.4688
  384MOL0     H52964  12.154   9.513   6.746  2.1100  0.9826 -1.4986
  384MOL0     H52965  12.127   9.654   6.647 -0.8230  3.2200  0.3044
  384MOL0     H52966  12.246   9.619   6.923 -0.0961 -0.4802 -0.9148
  384MOL0     H52967  12.186   9.781   6.893 -3.1344 -1.7941  0.6931
  384MOL0     H52968  12.404   9.788   6.824  1.5851 -0.4139 -1.4882
  384MOL0     H52969  12.326   9.782   6.671  2.3620  1.1076  0.2362
  384MOL0     H52970  12.354   9.533   6.649  1.8330 -0.0572 -2.3883
  384MOL0     H52971  12.444   9.539   6.800  0.9128  3.3365  2.4462
  384MOL0     H52972  11.659   9.017   6.651  0.2964  2.7775 -1.2317
  384MOL0     H52973  11.434   8.930   6.597 -1.8488  0.6306 -0.5649
  384MOL0     H52974  11.041   8.882   6.698  0.9184  1.7998  1.5099
  384MOL0     H52975  10.825   8.778   6.686 -0.8794 -0.3253 -1.2424
  384MOL0     H52976  10.127   9.212   4.733  1.3380  0.9652  1.1055
  384MOL0     H52977  10.189   9.191   4.501 -1.0240  0.0690  1.9023
  384MOL0     H52978  10.433   9.124   4.174  0.3622 -0.5897  1.7790
  384MOL0     H52979  10.527   9.105   3.931 -1.4633 -0.3781  0.5944
  384MOL0     H52980  10.734   8.839   3.863  0.2412 -3.6913 -1.3714
  384MOL0     H52981  10.663   8.753   3.729  1.2633 -1.2398  1.4427
  384MOL0     H52982  10.854   8.922   3.696 -0.2985 -2.9563 -1.9057
  384MOL0     H52983  10.736   9.049   3.708  1.0540  0.7895 -0.6692
  384MOL0     H52984  10.775   8.814   3.505 -1.0612 -1.6903  3.9727
  384MOL0     H52985  10.635   8.912   3.483 -0.3454 -2.1365  0.0622
  384MOL0     H52986  10.923   9.014   3.502 -0.6236  3.1680  0.6231
  384MOL0     H52987  10.785   9.114   3.503 -0.4941  0.8174 -2.2320
  384MOL0     H52988  10.804   9.063   3.088 -2.0507  0.7013 -0.8123
  384MOL0     H52989  10.538   8.696   3.970  1.5169  0.4676 -0.7068
  384MOL0     H52990  10.571   8.627   4.250  0.9163 -0.1266 -2.7065
  384MOL0     H52991  10.403   8.655   4.305 -1.1584  3.1895  0.5137
  384MOL0     H52992  10.437   8.578   4.146 -1.6895  0.0225  1.2052
  385MOL0     O52993   9.379   1.933   5.460 -0.1668  0.5372 -0.0979
  385MOL0     C52994   9.406   2.030   5.387  0.8290 -0.4486  0.2654
  385MOL0     O52995   9.466   2.150   5.435  0.6111  0.4312  0.2611
  385MOL0     C52996   9.471   2.166   5.565  0.8797  0.0039 -0.2634
  385MOL0     C52997   9.377   2.230   5.644  0.0889  0.3162 -0.9332
  385MOL0     C52998   9.399   2.254   5.780  0.5452 -1.4457 -0.8023
  385MOL0     C52999   9.523   2.218   5.845  0.4814  0.4007  0.7146
  385MOL0     O53000   9.546   2.220   5.978 -0.1287  0.2816 -0.3754
  385MOL0     C53001   9.435   2.216   6.060 -0.1824 -0.5819 -0.7530
  385MOL0     C53002   9.356   2.083   6.056  0.1510  0.2404  1.2140
  385MOL0     C53003   9.212   2.097   6.122 -0.5878  0.2359  0.0562
  385MOL0     C53004   9.224   2.086   6.279  0.0062 -0.4458 -0.7995
  385MOL0     C53005   9.095   2.114   6.365 -0.2193  0.2111 -0.0869
  385MOL0     C53006   8.981   2.011   6.334  0.2444 -0.1109  0.5488
  385MOL0     C53007   9.015   1.870   6.358  0.6120  0.3473 -0.4613
  385MOL0     C53008   9.049   1.840   6.511  0.0761  0.2323 -0.4241
  385MOL0     N53009   8.936   1.848   6.608 -0.0165  1.0483 -0.7473
  385MOL0     C53010   8.827   1.769   6.614  0.0260  1.1361 -0.5432
  385MOL0     C53011   8.725   1.840   6.669 -0.0404 -0.7917 -0.4106
  385MOL0     C53012   8.574   1.823   6.672 -0.1096  0.3444  0.5728
  385MOL0     C53013   8.507   1.922   6.581 -0.1893 -0.1934 -0.0049
  385MOL0     C53014   8.530   1.888   6.422  0.4987  0.6972 -0.7530
  385MOL0     C53015   8.447   1.773   6.358 -0.4178 -0.3233 -0.5481
  385MOL0     O53016   8.461   1.645   6.429  0.5552 -0.3446 -0.5382
  385MOL0     C53017   8.579   1.570   6.413 -0.1858 -0.0833 -0.4823
  385MOL0     C53018   8.609   1.491   6.516  0.0488 -0.5761 -0.3760
  385MOL0     C53019   8.723   1.417   6.514 -0.5262 -0.7154  0.3657
  385MOL0     C53020   8.755   1.327   6.634 -0.9872 -0.3709  0.4176
  385MOL0     C53021   8.819   1.429   6.412 -0.8003 -0.7935 -0.3014
  385MOL0     C53022   8.952   1.357   6.403  0.8065  0.6420 -0.0264
  385MOL0     O53023   9.031   1.399   6.298 -0.5417 -0.2297  0.0972
  385MOL0     C53024   9.145   1.333   6.265 -0.0801 -0.6723 -0.2305
  385MOL0     C53025   9.273   1.368   6.318 -0.3185 -0.5509  0.4426
  385MOL0     C53026   9.388   1.305   6.277 -0.1126  0.1435 -0.0064
  385MOL0     C53027   9.376   1.199   6.181 -0.1253  1.5040 -0.4810
  385MOL0     O53028   9.486   1.138   6.130  0.3629  0.4909 -0.0255
  385MOL0     C53029   9.619   1.198   6.134  1.8860 -1.0778 -0.1371
  385MOL0     C53030   9.721   1.110   6.067 -0.1962  1.3174  0.2315
  385MOL0     C53031   9.715   0.964   6.111 -0.1062 -0.0491 -0.9159
  385MOL0     C53032   9.762   0.944   6.255 -0.3991 -1.1019 -0.2913
  385MOL0     C53033   9.910   0.995   6.293 -0.7432  0.1402  0.3084
  385MOL0     C53034  10.007   0.928   6.213  0.0339  0.7787  0.6360
  385MOL0     C53035  10.151   0.949   6.247 -0.6349 -0.9854 -0.9982
  385MOL0     C53036  10.194   0.896   6.388  0.4628  0.1489  0.2344
  385MOL0    Cl53037  10.336   0.983   6.448  0.0475 -0.0514  0.0765
  385MOL0     C53038   9.247   1.171   6.132  0.1192  1.7676 -0.0215
  385MOL0     C53039   9.135   1.240   6.173 -0.8450  1.7348 -0.0820
  385MOL0     O53040   8.999   1.284   6.493  1.0559 -0.5644  0.5381
  385MOL0     C53041   8.792   1.525   6.312 -0.1573 -0.0051  0.7331
  385MOL0     C53042   8.672   1.585   6.304  0.7120  0.0500  0.3853
  385MOL0     N53043   8.789   1.947   6.726  0.4671  0.5265  0.3115
  385MOL0     N53044   8.912   1.950   6.685 -0.0096  0.1531  0.4001
  385MOL0     C53045   9.620   2.157   5.765  0.2233  0.1858  0.2352
  385MOL0     C53046   9.594   2.139   5.629 -0.4936  0.8651  0.2489
  385MOL0     C53047   9.404   2.020   5.238  0.2804  0.6352  0.0841
  385MOL0     C53048   9.508   2.065   5.157 -0.5023 -0.6458 -0.4203
  385MOL0     C53049   9.498   2.047   5.019  0.5416 -0.2679  1.6012
  385MOL0     C53050   9.400   1.969   4.954 -0.1426  0.3573  0.6244
  385MOL0     O53051   9.394   1.982   4.819 -0.7121  0.0747 -0.0499
  385MOL0     C53052   9.388   1.855   4.750 -0.7772  0.0291 -0.3262
  385MOL0     C53053   9.441   1.865   4.606 -0.0217 -0.1143  0.4450
  385MOL0     C53054   9.383   1.753   4.503 -0.4450 -0.0654 -0.0010
  385MOL0     C53055   9.449   1.759   4.364 -0.2662  0.7211  1.0314
  385MOL0     C53056   9.506   1.639   4.306  1.0218 -1.5557  0.5096
  385MOL0     C53057   9.528   1.535   4.261 -0.3433 -0.0247  0.0340
  385MOL0     C53058   9.294   1.924   5.029 -0.3887 -0.1271  0.2750
  385MOL0     C53059   9.289   1.954   5.172  0.3831  0.4145 -0.6855
  385MOL0     C53060   9.156   1.929   5.239 -0.5206  0.0714  0.5474
  385MOL0     H53061   9.282   2.263   5.602 -0.1584  1.5752  0.4916
  385MOL0     H53062   9.314   2.289   5.838  0.6215 -1.7708 -0.4941
  385MOL0     H53063   9.377   2.305   6.034  1.7780  0.2383 -2.5914
  385MOL0     H53064   9.477   2.231   6.160  0.5077  1.2062 -1.2889
  385MOL0     H53065   9.342   2.045   5.955 -0.3354  1.8723  0.6396
  385MOL0     H53066   9.416   2.009   6.111 -1.0102 -0.1980  1.9270
  385MOL0     H53067   9.169   2.193   6.090  1.1572  1.6251  1.6298
  385MOL0     H53068   9.151   2.018   6.078 -0.9009 -2.6864  5.0040
  385MOL0     H53069   9.271   1.991   6.306  0.7177  0.4012  1.0988
  385MOL0     H53070   9.292   2.167   6.308 -0.8693 -0.7465  2.4351
  385MOL0     H53071   9.069   2.219   6.349 -1.4307 -0.1307 -0.4035
  385MOL0     H53072   9.117   2.112   6.472 -0.0414 -1.7545 -0.1245
  385MOL0     H53073   8.886   2.037   6.381  0.8164 -1.8257  2.8532
  385MOL0     H53074   8.977   2.024   6.226  2.5167 -0.4587  0.3803
  385MOL0     H53075   9.104   1.846   6.300  2.5271 -0.5034  2.5678
  385MOL0     H53076   8.923   1.814   6.340 -0.9725  2.1094  1.4636
  385MOL0     H53077   9.095   1.741   6.511  1.0112  0.6511 -0.8960
  385MOL0     H53078   9.126   1.905   6.553 -0.6431 -0.7750  2.6967
  385MOL0     H53079   8.815   1.677   6.557  1.0278  0.0313  0.9285
  385MOL0     H53080   8.535   1.837   6.773  0.1951  1.3856  0.5640
  385MOL0     H53081   8.559   1.721   6.638 -0.5098  0.5060  0.2625
  385MOL0     H53082   8.402   1.927   6.611 -0.3829 -2.8323 -0.0546
  385MOL0     H53083   8.538   2.024   6.609  1.0843 -0.4101 -0.5698
  385MOL0     H53084   8.518   1.970   6.350 -1.9182 -1.1649 -2.6281
  385MOL0     H53085   8.634   1.853   6.422  0.0027 -0.8762  0.5612
  385MOL0     H53086   8.347   1.816   6.371 -0.9626 -1.6671 -0.1691
  385MOL0     H53087   8.475   1.761   6.253 -0.5629  0.5128 -0.6943
  385MOL0     H53088   8.549   1.480   6.605 -4.1752 -0.1546 -2.8761
  385MOL0     H53089   8.800   1.230   6.608 -3.6718 -1.9174  1.1471
  385MOL0     H53090   8.667   1.304   6.695  0.1466  0.0714  2.3124
  385MOL0     H53091   8.816   1.392   6.697 -1.6816  2.3826 -1.5787
  385MOL0     H53092   9.278   1.437   6.402  0.4969  1.9806 -1.5291
  385MOL0     H53093   9.481   1.321   6.331 -0.4052 -2.7294  1.5202
  385MOL0     H53094   9.614   1.303   6.102  0.5844 -1.6412 -1.9441
  385MOL0     H53095   9.645   1.212   6.239 -0.0306  2.3454  0.0297
  385MOL0     H53096   9.713   1.108   5.958  0.5367  3.3911  0.0885
  385MOL0     H53097   9.822   1.147   6.088 -0.7872  3.5089 -0.5663
  385MOL0     H53098   9.777   0.913   6.037 -0.6162 -0.0008 -1.3841
  385MOL0     H53099   9.613   0.926   6.096  0.0371 -0.3057 -1.2556
  385MOL0     H53100   9.755   0.836   6.270 -2.1715 -0.8836  0.6350
  385MOL0     H53101   9.687   0.982   6.325  3.0872  3.0739  1.6922
  385MOL0     H53102   9.929   1.102   6.286 -0.2484 -0.0475 -1.9949
  385MOL0     H53103   9.918   0.978   6.401  4.4393 -1.2684 -0.0005
  385MOL0     H53104   9.992   0.975   6.115 -0.6204 -0.8494 -0.0753
  385MOL0     H53105   9.980   0.822   6.210 -2.0747  1.2118 -3.4211
  385MOL0     H53106  10.164   1.057   6.243 -0.1280 -0.9329  0.8475
  385MOL0     H53107  10.212   0.897   6.172 -1.5789 -1.4935 -1.4353
  385MOL0     H53108  10.218   0.789   6.382 -0.6265 -0.1271  0.6463
  385MOL0     H53109  10.115   0.906   6.462  2.0826  2.0859  1.8270
  385MOL0     H53110   9.235   1.088   6.063 -0.2770  1.5395  0.3200
  385MOL0     H53111   9.037   1.215   6.135  0.1862 -1.4382 -0.9577
  385MOL0     H53112   8.868   1.540   6.237  1.5811 -2.7971  1.7730
  385MOL0     H53113   8.644   1.656   6.227 -2.7113 -0.7080  0.7645
  385MOL0     H53114   9.713   2.135   5.816  0.4521  1.6114  0.4681
  385MOL0     H53115   9.675   2.113   5.561  0.0949  2.9535  0.0930
  385MOL0     H53116   9.587   2.109   5.216  2.1939 -4.7968 -0.5656
  385MOL0     H53117   9.561   2.103   4.949  0.8754  1.0648  2.9036
  385MOL0     H53118   9.430   1.771   4.807 -1.4598 -1.1654 -1.5140
  385MOL0     H53119   9.279   1.843   4.749 -0.9364  1.2981  0.4270
  385MOL0     H53120   9.550   1.869   4.603 -0.0054  3.5425  1.2950
  385MOL0     H53121   9.405   1.958   4.561  3.0158 -0.0484 -2.1833
  385MOL0     H53122   9.372   1.656   4.554 -0.9482 -0.0635 -0.0977
  385MOL0     H53123   9.279   1.779   4.479  0.2263  2.6171 -0.2756
  385MOL0     H53124   9.534   1.825   4.386  1.7657 -0.4957 -2.2891
  385MOL0     H53125   9.379   1.801   4.291 -0.4174  1.2012  1.4411
  385MOL0     H53126   9.558   1.437   4.230  0.1040 -1.1811  3.6801
  385MOL0     H53127   9.215   1.869   4.979 -0.6241 -2.9584  3.3861
  385MOL0     H53128   9.163   1.908   5.346 -0.2383 -0.0631  0.5035
  385MOL0     H53129   9.090   2.013   5.216  1.3809  0.9142 -2.3112
  385MOL0     H53130   9.117   1.834   5.199 -1.7520 -0.0858  2.0370
  386MOL0     O53131  10.381   5.774   6.416 -0.1275  0.6234 -0.2020
  386MOL0     C53132  10.397   5.721   6.532 -0.6642 -0.7327  0.1324
  386MOL0     O53133  10.313   5.621   6.572  0.9914  0.8046  0.1508
  386MOL0     C53134  10.214   5.570   6.483 -0.6436 -0.3554 -0.4793
  386MOL0     C53135  10.095   5.651   6.477  0.6659 -0.2782  0.5022
  386MOL0     C53136   9.990   5.605   6.399  0.3676  0.4141  0.1372
  386MOL0     C53137   9.990   5.482   6.338  0.2098  0.0145  0.4895
  386MOL0     O53138   9.877   5.438   6.271 -0.0224  0.1931  0.4860
  386MOL0     C53139   9.887   5.407   6.133  0.0606 -0.4010  0.5043
  386MOL0     C53140   9.920   5.542   6.055  0.1054 -0.5145 -0.7836
  386MOL0     C53141   9.929   5.529   5.899  0.2802 -0.8038 -0.5124
  386MOL0     C53142  10.032   5.414   5.864 -0.0690  0.0269  0.5665
  386MOL0     C53143  10.077   5.432   5.715  0.4765 -0.5240  0.5498
  386MOL0     C53144  10.162   5.316   5.668 -0.2367  0.8231 -0.3649
  386MOL0     C53145  10.180   5.335   5.515  0.4037 -0.0690  0.5704
  386MOL0     C53146  10.292   5.259   5.442 -0.1134 -0.0514 -0.3878
  386MOL0     N53147  10.422   5.254   5.507 -0.4851 -0.3444 -0.2748
  386MOL0     C53148  10.506   5.356   5.525  0.2815  0.4865 -0.4007
  386MOL0     C53149  10.608   5.305   5.601  0.1198 -0.2190  0.5521
  386MOL0     C53150  10.733   5.379   5.646 -0.1992  0.1890  0.2064
  386MOL0     C53151  10.845   5.276   5.671 -0.9356  0.0990 -0.1724
  386MOL0     C53152  10.982   5.339   5.715  0.8180  0.6266  0.1274
  386MOL0     C53153  11.039   5.436   5.616  0.5320 -0.1687  0.6101
  386MOL0     O53154  11.184   5.460   5.632 -0.2165  0.2044 -0.4330
  386MOL0     C53155  11.250   5.490   5.518 -0.2269 -0.6618 -0.1545
  386MOL0     C53156  11.340   5.392   5.462 -0.7601 -0.4114 -0.9600
  386MOL0     C53157  11.407   5.417   5.340  0.3326  0.5028  0.3161
  386MOL0     C53158  11.518   5.336   5.298  1.2294 -0.1937 -0.6504
  386MOL0     C53159  11.385   5.541   5.271 -0.3618  0.6348 -0.1832
  386MOL0     C53160  11.463   5.578   5.155  0.1557  0.1589  0.1779
  386MOL0     O53161  11.593   5.590   5.160  0.5019  0.1378  0.6119
  386MOL0     C53162  11.659   5.591   5.034  0.3838  0.0756 -0.6944
  386MOL0     C53163  11.637   5.504   4.921  0.0893 -0.3490 -0.0768
  386MOL0     C53164  11.726   5.509   4.812  0.2018  0.0809 -0.4254
  386MOL0     C53165  11.834   5.603   4.810 -0.8269  0.8496 -0.4173
  386MOL0     O53166  11.924   5.612   4.703 -0.8350  0.1515  0.7140
  386MOL0     C53167  11.984   5.736   4.660  0.1826  0.2094 -0.9914
  386MOL0     C53168  11.892   5.864   4.657 -1.2239  0.5591  1.0233
  386MOL0     C53169  11.933   5.954   4.535 -0.3371  0.1440 -0.1389
  386MOL0     C53170  11.865   6.090   4.543  0.6499 -0.1586  0.3341
  386MOL0     C53171  11.868   6.171   4.413  0.1127  0.9565  0.7306
  386MOL0     C53172  11.805   6.310   4.425  0.4640 -0.1060 -1.3014
  386MOL0     C53173  11.852   6.404   4.534 -0.3758 -0.1136  0.3176
  386MOL0     C53174  11.771   6.531   4.508 -0.3964  0.3265  1.1968
  386MOL0    Cl53175  11.791   6.639   4.639 -0.5056  0.0096 -0.2583
  386MOL0     C53176  11.853   5.685   4.923 -0.0921  0.1420  0.3837
  386MOL0     C53177  11.770   5.678   5.034  0.3574  0.3911 -0.0975
  386MOL0     O53178  11.386   5.605   5.062  0.0448 -0.5272 -0.4720
  386MOL0     C53179  11.292   5.634   5.325 -0.5827  0.7277 -0.1190
  386MOL0     C53180  11.230   5.607   5.451 -1.0871 -0.0380  0.2031
  386MOL0     N53181  10.569   5.178   5.635  0.0350 -0.3159  0.3792
  386MOL0     N53182  10.461   5.143   5.573 -0.7740  0.0562 -0.1691
  386MOL0     C53183  10.112   5.407   6.350 -0.3239 -0.0174 -0.0982
  386MOL0     C53184  10.228   5.453   6.418  0.4011  0.6331 -0.7209
  386MOL0     C53185  10.502   5.768   6.633 -0.0340  0.1875  0.4306
  386MOL0     C53186  10.484   5.730   6.767  0.3664  0.1240  0.2417
  386MOL0     C53187  10.566   5.764   6.870  0.5928 -0.3931 -0.4606
  386MOL0     C53188  10.672   5.855   6.846  0.7562  0.1106 -0.5318
  386MOL0     O53189  10.759   5.889   6.940  0.4890 -0.4564 -0.3134
  386MOL0     C53190  10.845   5.788   6.994 -0.6035 -0.8592  0.3696
  386MOL0     C53191  10.969   5.845   7.053 -0.2147  0.1113  0.4956
  386MOL0     C53192  11.045   5.934   6.947  0.5542  0.1930  0.4943
  386MOL0     C53193  11.168   6.000   7.013 -0.3173 -0.3444  0.2173
  386MOL0     C53194  11.209   6.120   6.941 -0.6222 -0.3397  0.5503
  386MOL0     C53195  11.229   6.214   6.870  0.0017 -0.7220  0.8331
  386MOL0     C53196  10.679   5.910   6.716 -0.2621  0.8445  0.5059
  386MOL0     C53197  10.607   5.857   6.607 -0.0177 -0.7393 -0.1694
  386MOL0     C53198  10.634   5.920   6.470 -0.4604  1.2818 -0.3513
  386MOL0     H53199  10.073   5.742   6.533  0.6932  0.9096 -1.3306
  386MOL0     H53200   9.897   5.661   6.391  1.0319  1.3017 -1.9024
  386MOL0     H53201   9.792   5.358   6.108 -0.9920  1.0421  1.5064
  386MOL0     H53202   9.963   5.329   6.121  2.5027  1.8336  0.6841
  386MOL0     H53203   9.848   5.619   6.081  0.1614 -1.0279  0.9714
  386MOL0     H53204  10.017   5.575   6.094 -1.7284  1.7727  2.2199
  386MOL0     H53205   9.832   5.512   5.852  0.2843 -0.5864 -0.5992
  386MOL0     H53206   9.971   5.624   5.864  2.2323 -1.6487 -0.6144
  386MOL0     H53207  10.116   5.430   5.933 -0.7514  1.4619  1.1196
  386MOL0     H53208   9.985   5.317   5.879  2.0468 -1.2987 -0.8626
  386MOL0     H53209  10.122   5.531   5.698 -2.0754  0.0441 -5.1764
  386MOL0     H53210   9.994   5.427   5.644  2.9132 -4.8010 -2.5535
  386MOL0     H53211  10.260   5.319   5.716  0.1820 -2.3406 -0.8128
  386MOL0     H53212  10.122   5.215   5.680 -0.4346  1.2558  3.7395
  386MOL0     H53213  10.199   5.438   5.485 -0.5604 -0.0529 -0.0161
  386MOL0     H53214  10.082   5.317   5.469  0.9267  0.6071 -0.8381
  386MOL0     H53215  10.265   5.158   5.408  1.1884 -0.4750 -0.2213
  386MOL0     H53216  10.289   5.328   5.357 -1.3624  1.0860  0.5270
  386MOL0     H53217  10.496   5.459   5.492  5.2161  1.6224  0.7519
  386MOL0     H53218  10.715   5.440   5.735  1.5819 -1.8870  2.0918
  386MOL0     H53219  10.763   5.446   5.565  1.7828 -0.1791  0.5960
  386MOL0     H53220  10.820   5.198   5.743  1.5989  0.3445  1.0628
  386MOL0     H53221  10.862   5.229   5.574 -2.6690 -0.9240 -0.0265
  386MOL0     H53222  10.967   5.387   5.813 -1.0597  0.0198  0.1772
  386MOL0     H53223  11.056   5.258   5.718 -2.6082 -2.8637 -0.9491
  386MOL0     H53224  11.027   5.397   5.514  2.9012 -0.7573  0.5017
  386MOL0     H53225  10.969   5.520   5.619 -1.4590 -1.7615  1.3815
  386MOL0     H53226  11.345   5.297   5.515 -2.7280  0.8611  1.7301
  386MOL0     H53227  11.612   5.374   5.338 -0.8460  2.5157  2.1837
  386MOL0     H53228  11.531   5.330   5.190 -0.9725  0.5816 -1.0159
  386MOL0     H53229  11.504   5.231   5.326 -0.4629 -0.2042 -1.4420
  386MOL0     H53230  11.547   5.443   4.922  0.3556 -0.7415  1.4409
  386MOL0     H53231  11.710   5.446   4.725  3.5335 -1.2029 -0.2333
  386MOL0     H53232  12.072   5.764   4.717 -0.7782  2.1222 -0.3526
  386MOL0     H53233  12.022   5.706   4.562  1.7418 -2.8387  0.4372
  386MOL0     H53234  11.787   5.834   4.653 -1.0768  0.0242 -3.3435
  386MOL0     H53235  11.913   5.921   4.748  0.6062 -0.5383  1.3284
  386MOL0     H53236  11.902   5.895   4.448 -1.4061  1.3276 -0.6000
  386MOL0     H53237  12.042   5.959   4.539 -0.1698 -1.9102 -0.7829
  386MOL0     H53238  11.924   6.133   4.624  2.3217 -2.7799  0.6543
  386MOL0     H53239  11.759   6.081   4.570  1.1783 -1.6371  2.1922
  386MOL0     H53240  11.976   6.180   4.394 -0.2682  0.6248 -1.9362
  386MOL0     H53241  11.836   6.106   4.331  4.1214 -2.7574  1.7030
  386MOL0     H53242  11.696   6.303   4.433 -0.1318  4.3806 -2.5600
  386MOL0     H53243  11.830   6.372   4.338 -1.6556  1.2595 -1.0354
  386MOL0     H53244  11.960   6.417   4.535  0.0542 -2.9712  0.8721
  386MOL0     H53245  11.829   6.364   4.633  0.7587 -1.3465  0.0981
  386MOL0     H53246  11.663   6.523   4.491 -0.1749  1.1263 -0.8947
  386MOL0     H53247  11.812   6.585   4.422 -2.3210  2.0556  1.2733
  386MOL0     H53248  11.944   5.744   4.935  0.5997 -0.7984 -0.1146
  386MOL0     H53249  11.782   5.751   5.113 -0.6176 -1.0545  1.4499
  386MOL0     H53250  11.277   5.735   5.287 -0.9845  1.3645  1.6383
  386MOL0     H53251  11.168   5.687   5.491  0.5987  0.4869  1.8691
  386MOL0     H53252  10.123   5.320   6.285  1.0399 -1.4564  1.9385
  386MOL0     H53253  10.311   5.382   6.418  1.1793  1.4012  2.6643
  386MOL0     H53254  10.401   5.663   6.789 -0.9124  1.7868  0.7534
  386MOL0     H53255  10.553   5.735   6.973  5.2835 -3.4516 -0.4136
  386MOL0     H53256  10.794   5.727   7.069  0.3018  0.5066  2.1741
  386MOL0     H53257  10.877   5.723   6.912  2.2215 -2.8949  2.8679
  386MOL0     H53258  11.030   5.760   7.084  0.3370  0.4666  0.3933
  386MOL0     H53259  10.945   5.900   7.145 -0.5589  1.0215 -0.1277
  386MOL0     H53260  11.075   5.860   6.871 -2.2260 -0.5356  0.0056
  386MOL0     H53261  10.983   6.020   6.921  1.7857  1.5687  1.9037
  386MOL0     H53262  11.254   5.932   7.018  1.3370  1.6413  0.3349
  386MOL0     H53263  11.133   6.034   7.111  0.8419  0.7758  0.2724
  386MOL0     H53264  11.241   6.288   6.793 -1.6984 -0.9251  0.3209
  386MOL0     H53265  10.751   5.991   6.708 -1.7160  2.5797  3.3816
  386MOL0     H53266  10.621   5.848   6.388  1.5808  1.2453 -0.6881
  386MOL0     H53267  10.571   6.005   6.444 -1.4588  0.3018 -1.2772
  386MOL0     H53268  10.740   5.948   6.468 -0.3247  1.2382  2.2950
  387MOL0     O53269   2.145  11.490   1.760  0.2608 -0.0087 -0.5620
  387MOL0     C53270   2.044  11.475   1.698 -0.1725  0.8598 -0.7514
  387MOL0     O53271   1.977  11.568   1.630  0.4672  0.6037  0.1825
  387MOL0     C53272   1.962  11.686   1.689  0.7556 -0.1664 -0.2198
  387MOL0     C53273   1.979  11.806   1.620 -0.0004 -0.5494  0.4810
  387MOL0     C53274   1.970  11.936   1.679  0.1735 -0.6218  0.3401
  387MOL0     C53275   1.910  11.947   1.806  0.5367 -0.6503  0.4861
  387MOL0     O53276   1.900  12.085   1.847  0.0478  0.2108 -0.3406
  387MOL0     C53277   1.899  12.119   1.985 -1.2017  0.7178 -0.8380
  387MOL0     C53278   2.019  12.069   2.068 -0.4957  0.3110 -0.0756
  387MOL0     C53279   2.148  12.161   2.053 -0.7359 -0.2540  0.6772
  387MOL0     C53280   2.274  12.116   2.146  0.1311  0.9851  0.3443
  387MOL0     C53281   2.415  12.172   2.106  0.5705 -0.2899  0.2958
  387MOL0     C53282   2.522  12.090   2.185  0.7900  0.1936 -0.2482
  387MOL0     C53283   2.658  12.150   2.196 -0.1953  0.1968 -0.9882
  387MOL0     C53284   2.767  12.135   2.091  0.5612 -0.6035  0.3417
  387MOL0     N53285   2.797  11.992   2.052 -0.2765 -0.3757 -0.1303
  387MOL0     C53286   2.805  11.878   2.130 -0.8647 -0.3458 -0.4058
  387MOL0     C53287   2.810  11.764   2.041 -0.1824 -1.3390  0.5659
  387MOL0     C53288   2.832  11.622   2.079 -1.0430 -0.1980 -0.2905
  387MOL0     C53289   2.705  11.549   2.086  0.3265  0.0367  0.2243
  387MOL0     C53290   2.732  11.428   2.176 -1.0928  0.7574 -0.1431
  387MOL0     C53291   2.607  11.354   2.184  0.5408  0.7194 -0.4250
  387MOL0     O53292   2.508  11.428   2.254 -1.0387 -0.7957  0.6025
  387MOL0     C53293   2.409  11.360   2.320 -1.0780  0.0893  0.0837
  387MOL0     C53294   2.351  11.241   2.276 -0.2704  0.2442  0.1475
  387MOL0     C53295   2.223  11.200   2.325  0.0168 -0.0560 -0.3993
  387MOL0     C53296   2.158  11.076   2.252 -0.4052 -0.2587 -0.5832
  387MOL0     C53297   2.163  11.268   2.435  0.3466 -0.4738  1.0827
  387MOL0     C53298   2.033  11.237   2.489  0.2079 -0.2260  0.2825
  387MOL0     O53299   1.960  11.339   2.525 -0.0985  0.5123 -0.0700
  387MOL0     C53300   1.855  11.304   2.616  0.1880  0.2251 -1.2454
  387MOL0     C53301   1.740  11.264   2.559  0.3361  0.2403  0.3932
  387MOL0     C53302   1.624  11.234   2.635  0.1465  0.2460  0.2555
  387MOL0     C53303   1.628  11.262   2.771 -0.6496  0.0083  0.5182
  387MOL0     O53304   1.527  11.243   2.861 -0.1919 -0.2544  0.2704
  387MOL0     C53305   1.397  11.196   2.819 -0.4958 -0.5123 -0.2059
  387MOL0     C53306   1.306  11.161   2.930  0.3055  0.6587  0.3012
  387MOL0     C53307   1.258  11.295   3.001 -0.7907 -0.0716  0.7512
  387MOL0     C53308   1.134  11.275   3.084  0.2204  0.4861  1.0322
  387MOL0     C53309   1.100  11.392   3.175 -0.3224 -0.4050 -0.4661
  387MOL0     C53310   0.985  11.359   3.267  0.5567  0.3981  0.3175
  387MOL0     C53311   0.847  11.327   3.197  0.8229  0.6451  0.4824
  387MOL0     C53312   0.738  11.290   3.294  0.3650 -0.2332  0.3944
  387MOL0    Cl53313   0.764  11.133   3.370  0.1262 -0.5283 -0.1203
  387MOL0     C53314   1.738  11.324   2.825  0.5247  0.0869  0.8357
  387MOL0     C53315   1.853  11.335   2.752  0.0695  0.4586 -0.1057
  387MOL0     O53316   2.004  11.115   2.498 -0.1967 -0.4281 -0.0953
  387MOL0     C53317   2.230  11.378   2.483 -0.7115 -0.1034 -0.1742
  387MOL0     C53318   2.339  11.428   2.419  0.4068 -1.1086  0.0466
  387MOL0     N53319   2.782  11.822   1.917 -0.3395 -0.4633 -0.0899
  387MOL0     N53320   2.764  11.953   1.932  0.0594 -0.0985  0.2168
  387MOL0     C53321   1.896  11.835   1.882  0.3592  0.5734  0.6754
  387MOL0     C53322   1.914  11.703   1.821 -0.2182 -0.2171  0.2896
  387MOL0     C53323   1.987  11.339   1.698  0.5801 -0.1380 -0.3140
  387MOL0     C53324   1.937  11.294   1.573  0.3341  0.2867  0.2617
  387MOL0     C53325   1.886  11.165   1.558 -0.0468  0.3230  0.1939
  387MOL0     C53326   1.867  11.078   1.666  1.5548 -1.4586 -0.5976
  387MOL0     O53327   1.803  10.963   1.651  0.8162 -1.0406  0.4217
  387MOL0     C53328   1.719  10.909   1.764 -0.0316 -0.0435 -0.6776
  387MOL0     C53329   1.580  10.982   1.780  0.0700 -0.1694 -0.1379
  387MOL0     C53330   1.483  10.930   1.665  0.3738 -0.1944 -1.0497
  387MOL0     C53331   1.334  10.936   1.707 -0.7073  0.3362 -0.0539
  387MOL0     C53332   1.279  11.063   1.757 -0.1241 -0.0993 -0.2814
  387MOL0     C53333   1.243  11.154   1.828 -0.4370 -0.5186 -0.5488
  387MOL0     C53334   1.917  11.124   1.790  0.3257 -0.3431 -0.0141
  387MOL0     C53335   1.985  11.248   1.809  0.9997  0.1198 -0.6123
  387MOL0     C53336   2.048  11.257   1.951 -0.5805 -0.4030  0.9937
  387MOL0     H53337   1.998  11.792   1.514 -2.7448  2.6133 -0.5737
  387MOL0     H53338   1.999  12.031   1.636  0.1304  0.6029  2.8724
  387MOL0     H53339   1.815  12.077   2.040  1.4984  0.8188  3.8426
  387MOL0     H53340   1.890  12.228   1.982  3.8971  1.4673  1.1092
  387MOL0     H53341   2.000  12.056   2.175  1.9368 -2.0680  0.1576
  387MOL0     H53342   2.031  11.965   2.037  0.3505 -0.3763  2.3628
  387MOL0     H53343   2.182  12.155   1.950  0.6874 -0.2619  1.1214
  387MOL0     H53344   2.118  12.264   2.073 -1.2168 -0.4150  0.8115
  387MOL0     H53345   2.244  12.139   2.249 -0.9066  1.3502 -0.0256
  387MOL0     H53346   2.276  12.009   2.125  1.1671  1.1491 -0.4264
  387MOL0     H53347   2.422  12.281   2.120  0.6744  0.1989 -2.8563
  387MOL0     H53348   2.446  12.159   2.002 -0.4519  2.2254 -0.3910
  387MOL0     H53349   2.489  12.076   2.288  1.2505 -3.6662 -0.4615
  387MOL0     H53350   2.525  11.984   2.157 -0.9878  0.4642 -1.6313
  387MOL0     H53351   2.714  12.108   2.279 -0.0106  0.7974 -0.8040
  387MOL0     H53352   2.632  12.256   2.208  2.1497  0.6970  0.0790
  387MOL0     H53353   2.734  12.180   1.997 -0.5660 -1.7569  0.1520
  387MOL0     H53354   2.865  12.179   2.112 -0.5816  3.8149 -2.3952
  387MOL0     H53355   2.798  11.876   2.239 -3.0040 -0.1275 -0.4962
  387MOL0     H53356   2.880  11.630   2.177 -0.1629  1.9016 -0.8223
  387MOL0     H53357   2.883  11.566   2.001 -2.5283 -0.0765 -1.3989
  387MOL0     H53358   2.640  11.621   2.137  0.3702  1.2626 -1.3752
  387MOL0     H53359   2.662  11.524   1.989 -2.4091  1.7177  0.8783
  387MOL0     H53360   2.810  11.360   2.140 -3.0368 -0.4290 -2.3957
  387MOL0     H53361   2.758  11.462   2.276 -1.9354  1.8269 -0.2690
  387MOL0     H53362   2.571  11.322   2.086 -0.0565 -0.8428  0.2777
  387MOL0     H53363   2.624  11.260   2.238 -3.4677 -0.5329 -1.0047
  387MOL0     H53364   2.392  11.186   2.192  0.5899 -1.3946  1.5757
  387MOL0     H53365   2.062  11.108   2.211 -0.4035  2.3666  1.1945
  387MOL0     H53366   2.151  10.992   2.323  0.4726  0.2379  0.1167
  387MOL0     H53367   2.210  11.042   2.162  0.5412 -0.1411 -0.0939
  387MOL0     H53368   1.727  11.255   2.451 -2.1268  0.1113  0.6501
  387MOL0     H53369   1.537  11.195   2.583  1.2109  0.1895 -1.5954
  387MOL0     H53370   1.350  11.281   2.769  3.5531  0.0665 -3.5802
  387MOL0     H53371   1.412  11.106   2.757 -0.5350 -0.4929 -0.2439
  387MOL0     H53372   1.223  11.104   2.887  0.7765 -0.5465  0.9308
  387MOL0     H53373   1.367  11.097   2.996  0.0250 -2.6039 -2.3706
  387MOL0     H53374   1.243  11.386   2.941 -3.0381 -0.4920  0.6038
  387MOL0     H53375   1.344  11.316   3.066  1.1138  1.6179 -2.0671
  387MOL0     H53376   1.140  11.186   3.148 -0.1424 -0.6422 -0.4557
  387MOL0     H53377   1.053  11.285   3.012  2.0328 -2.0787 -1.5804
  387MOL0     H53378   1.185  11.420   3.238  0.2781  0.3189 -1.5504
  387MOL0     H53379   1.068  11.484   3.124  2.4336  1.4293  0.8530
  387MOL0     H53380   0.977  11.449   3.329 -2.1687  0.3522  0.1526
  387MOL0     H53381   1.017  11.278   3.333 -1.0025 -1.4435 -1.0921
  387MOL0     H53382   0.852  11.237   3.136  1.3442 -1.2332  3.1650
  387MOL0     H53383   0.805  11.409   3.137 -0.5447 -1.1411 -1.1319
  387MOL0     H53384   0.644  11.284   3.239  0.4893 -1.2367  0.2805
  387MOL0     H53385   0.737  11.366   3.372  2.6440 -1.1104  1.3634
  387MOL0     H53386   1.732  11.362   2.926  0.6636 -0.2757  0.9818
  387MOL0     H53387   1.936  11.384   2.802 -1.2449  0.3068  2.3727
  387MOL0     H53388   2.178  11.428   2.565 -1.4714 -1.5340  0.2620
  387MOL0     H53389   2.377  11.527   2.443 -1.4975 -0.9018  2.5824
  387MOL0     H53390   1.871  11.838   1.988  0.6604  1.6287  0.7354
  387MOL0     H53391   1.889  11.614   1.879  0.0284 -0.6819 -0.3046
  387MOL0     H53392   1.928  11.348   1.480  1.0689 -2.9570 -1.8837
  387MOL0     H53393   1.860  11.116   1.464  0.7557  0.4828 -0.1124
  387MOL0     H53394   1.715  10.801   1.752 -0.3391 -0.1892  0.5676
  387MOL0     H53395   1.776  10.923   1.857 -0.0016 -0.8745 -0.5601
  387MOL0     H53396   1.584  11.092   1.784  0.5591 -0.2008  3.7757
  387MOL0     H53397   1.545  10.941   1.875  1.6422 -1.6680 -0.1625
  387MOL0     H53398   1.496  10.986   1.573 -0.8082  0.5756 -0.7629
  387MOL0     H53399   1.508  10.825   1.648 -2.4240 -1.1683  0.2048
  387MOL0     H53400   1.314  10.859   1.782  1.9816  0.0810  0.5268
  387MOL0     H53401   1.268  10.915   1.622 -0.7837 -1.1960  0.3489
  387MOL0     H53402   1.206  11.242   1.876 -3.0120 -1.3348 -0.8871
  387MOL0     H53403   1.915  11.061   1.878 -1.8847  0.4106  0.5275
  387MOL0     H53404   2.134  11.324   1.946 -0.6246 -0.3252  1.2960
  387MOL0     H53405   1.974  11.298   2.021 -1.9707  0.4121 -0.8538
  387MOL0     H53406   2.093  11.165   1.989  2.1897 -0.3467 -1.7457
  388MOL0     O53407   0.948   0.719   0.486 -0.2501  0.7662 -0.3530
  388MOL0     C53408   0.981   0.797   0.570 -0.8359 -0.3538  0.1360
  388MOL0     O53409   1.008   0.926   0.540 -0.0182 -0.5451 -0.0025
  388MOL0     C53410   1.014   0.975   0.412  0.5833 -0.4369  0.6278
  388MOL0     C53411   1.038   1.118   0.411  0.2808 -0.1948  0.7204
  388MOL0     C53412   1.030   1.185   0.290 -0.1142  2.1022 -0.4874
  388MOL0     C53413   1.005   1.116   0.174 -0.4367 -0.3369 -0.5910
  388MOL0     O53414   1.013   1.190   0.054  0.3727  0.1431 -0.7537
  388MOL0     C53415   0.889   1.190  -0.016  0.4881 -0.7168 -0.9358
  388MOL0     C53416   0.800   1.286   0.057  0.3479  0.9271 -0.7522
  388MOL0     C53417   0.657   1.275  -0.006 -0.5665 -0.5435  0.0819
  388MOL0     C53418   0.570   1.364   0.074  0.5372  0.8601 -0.1575
  388MOL0     C53419   0.433   1.389  -0.002 -0.0369 -0.0012  0.0607
  388MOL0     C53420   0.362   1.497   0.075  1.1383 -0.5319  0.0333
  388MOL0     C53421   0.318   1.470   0.223  0.0721 -1.0897 -0.9360
  388MOL0     C53422   0.221   1.581   0.272  0.7775 -0.2205 -0.4333
  388MOL0     N53423   0.289   1.710   0.283 -0.1146  0.0598  0.0677
  388MOL0     C53424   0.220   1.821   0.277  0.0785 -0.2498 -0.7369
  388MOL0     C53425   0.310   1.927   0.286 -0.1814  0.0572 -0.4143
  388MOL0     C53426   0.283   2.078   0.260 -0.0812 -0.0914 -0.0611
  388MOL0     C53427   0.264   2.096   0.103 -0.2410 -0.3948 -0.7392
  388MOL0     C53428   0.230   2.240   0.071  1.6850  0.9999  0.0298
  388MOL0     C53429   0.353   2.314   0.048 -0.4018 -0.2501 -0.7920
  388MOL0     O53430   0.312   2.425  -0.031 -0.1574  0.2176 -0.1195
  388MOL0     C53431   0.410   2.520  -0.043  0.4092  0.7154 -0.6929
  388MOL0     C53432   0.430   2.618   0.052  0.2425  0.7347 -0.8383
  388MOL0     C53433   0.536   2.716   0.050 -0.7941 -0.0673  0.4662
  388MOL0     C53434   0.554   2.805   0.169 -0.2771  0.1965  0.7589
  388MOL0     C53435   0.615   2.717  -0.069 -0.4024 -1.0445 -0.4395
  388MOL0     C53436   0.728   2.812  -0.092  0.5044  0.1494 -0.4399
  388MOL0     O53437   0.804   2.790  -0.208 -0.1632  0.2541  1.0317
  388MOL0     C53438   0.886   2.889  -0.244 -1.4033 -0.3479 -0.3287
  388MOL0     C53439   0.835   2.980  -0.341 -0.3047  0.0996 -0.8808
  388MOL0     C53440   0.916   3.092  -0.371  0.6176  0.1922  0.0216
  388MOL0     C53441   1.030   3.117  -0.300 -0.6993 -0.2131  0.0894
  388MOL0     O53442   1.091   3.239  -0.308 -0.2486  0.8097 -0.0681
  388MOL0     C53443   1.227   3.254  -0.361  0.1416  0.5885  0.1742
  388MOL0     C53444   1.216   3.267  -0.511  0.3128 -0.1184 -0.0919
  388MOL0     C53445   1.353   3.295  -0.569  0.5353 -0.3884  0.0886
  388MOL0     C53446   1.337   3.318  -0.724 -0.2676  0.4734 -0.9084
  388MOL0     C53447   1.465   3.359  -0.791  0.2374  0.8511  0.5260
  388MOL0     C53448   1.432   3.362  -0.938 -0.8584 -0.0212 -0.4002
  388MOL0     C53449   1.530   3.447  -1.015  0.0841  0.2858  0.9438
  388MOL0     C53450   1.490   3.590  -1.009  0.0550 -0.0858 -1.3444
  388MOL0    Cl53451   1.598   3.676  -1.117  0.1496 -0.2767 -0.4337
  388MOL0     C53452   1.076   3.025  -0.201 -0.4254 -0.2634  1.2893
  388MOL0     C53453   1.014   2.900  -0.183  0.7367 -0.9650 -0.6072
  388MOL0     O53454   0.757   2.901  -0.011 -0.2911 -0.4006 -0.4222
  388MOL0     C53455   0.596   2.618  -0.166 -0.1878  0.1156 -0.6054
  388MOL0     C53456   0.501   2.513  -0.142  0.1442 -0.6036 -1.0147
  388MOL0     N53457   0.434   1.870   0.314  0.0233 -0.2409  0.8611
  388MOL0     N53458   0.422   1.742   0.313  0.5339 -0.0737  0.6062
  388MOL0     C53459   0.981   0.977   0.170  0.3203  1.2167  0.6700
  388MOL0     C53460   0.981   0.905   0.292  0.1137  0.2954  0.7446
  388MOL0     C53461   1.000   0.757   0.715  1.2417 -0.9395 -0.2164
  388MOL0     C53462   0.943   0.627   0.740  0.1226  0.5229 -0.2087
  388MOL0     C53463   0.945   0.572   0.869  0.2233  0.3311 -0.0341
  388MOL0     C53464   0.994   0.644   0.977 -0.1624 -0.1898  0.4627
  388MOL0     O53465   1.003   0.601   1.106 -0.5671 -1.2956 -0.2284
  388MOL0     C53466   0.929   0.478   1.139 -0.1849  0.1548 -0.6783
  388MOL0     C53467   1.004   0.338   1.101  0.3313 -0.9946  0.5237
  388MOL0     C53468   0.918   0.222   1.164 -0.2153 -0.5160  0.2739
  388MOL0     C53469   0.990   0.089   1.204  0.1079 -0.4737  1.5238
  388MOL0     C53470   1.005  -0.008   1.094 -0.5122 -0.1904  0.0586
  388MOL0     C53471   1.043  -0.095   1.018  0.2402 -0.1175 -0.4003
  388MOL0     C53472   1.053   0.763   0.950  0.4624  0.0073 -0.6354
  388MOL0     C53473   1.059   0.820   0.823  0.1727  0.0704 -0.2551
  388MOL0     C53474   1.130   0.959   0.817 -0.1711 -0.0618 -0.7231
  388MOL0     H53475   1.065   1.184   0.493  0.3420  3.0120 -1.6611
  388MOL0     H53476   1.043   1.293   0.295 -1.3993  2.2821  4.3089
  388MOL0     H53477   0.845   1.090  -0.020  3.0863 -1.9071 -2.6358
  388MOL0     H53478   0.917   1.227  -0.115  2.3076 -1.6170 -0.7989
  388MOL0     H53479   0.778   1.255   0.160  3.5818 -1.6138 -0.6988
  388MOL0     H53480   0.847   1.385   0.059  1.1124  0.6260  2.5087
  388MOL0     H53481   0.650   1.310  -0.109  0.1837 -4.2373 -1.4040
  388MOL0     H53482   0.621   1.171  -0.003  3.0788 -1.9410  1.6452
  388MOL0     H53483   0.538   1.314   0.167  1.5275  1.5800  0.5944
  388MOL0     H53484   0.623   1.459   0.088  1.4630  0.3269  0.0722
  388MOL0     H53485   0.381   1.293  -0.002  0.8447 -0.4861 -0.3304
  388MOL0     H53486   0.445   1.419  -0.107 -1.1458  0.5213  0.0666
  388MOL0     H53487   0.417   1.591   0.074  0.8664 -0.3695  0.3267
  388MOL0     H53488   0.272   1.524   0.019  0.8408  3.8485  2.2554
  388MOL0     H53489   0.413   1.483   0.274 -0.2213  0.5843 -0.7527
  388MOL0     H53490   0.274   1.370   0.223 -2.9981  0.0383 -3.8019
  388MOL0     H53491   0.127   1.586   0.217  0.0227 -1.0145  0.7329
  388MOL0     H53492   0.179   1.566   0.372 -4.4474  4.0270 -1.5188
  388MOL0     H53493   0.112   1.835   0.277  0.1989  0.7655 -0.4112
  388MOL0     H53494   0.373   2.137   0.282  0.4476  0.7498 -3.7668
  388MOL0     H53495   0.200   2.110   0.323  0.3570 -1.3199  1.1896
  388MOL0     H53496   0.358   2.065   0.057  0.2697 -1.4690  0.9418
  388MOL0     H53497   0.179   2.032   0.077 -2.1594  1.8781 -0.4610
  388MOL0     H53498   0.160   2.239  -0.014 -0.4697  1.7456  1.6833
  388MOL0     H53499   0.181   2.294   0.152  3.5097  2.5580  0.1749
  388MOL0     H53500   0.382   2.350   0.147 -0.1945  0.1121 -0.9806
  388MOL0     H53501   0.435   2.255   0.007 -1.3989 -1.2930 -1.3274
  388MOL0     H53502   0.361   2.620   0.137  0.7461 -0.8777 -0.3584
  388MOL0     H53503   0.495   2.768   0.253  0.0230  0.5958  1.1473
  388MOL0     H53504   0.525   2.907   0.145  0.7519  0.4372  0.4991
  388MOL0     H53505   0.658   2.809   0.203  0.1681  1.7439 -0.6463
  388MOL0     H53506   0.734   2.959  -0.375  0.3505 -3.0419 -1.1541
  388MOL0     H53507   0.884   3.166  -0.444 -0.0089  1.9777  1.9878
  388MOL0     H53508   1.286   3.341  -0.329  1.8560 -1.3145  2.5577
  388MOL0     H53509   1.291   3.173  -0.324  0.2679  1.4632  1.9970
  388MOL0     H53510   1.190   3.174  -0.562  1.8246  0.5541 -2.2919
  388MOL0     H53511   1.145   3.346  -0.540  0.9547  0.6735  0.4351
  388MOL0     H53512   1.416   3.206  -0.563  1.3337  0.0402 -1.3841
  388MOL0     H53513   1.411   3.371  -0.517 -0.8778 -1.2847  3.1757
  388MOL0     H53514   1.271   3.403  -0.743  2.3350  2.9523  0.2919
  388MOL0     H53515   1.307   3.223  -0.769 -3.4117  0.5595  0.6708
  388MOL0     H53516   1.493   3.461  -0.765 -1.7798  1.8596 -0.9740
  388MOL0     H53517   1.545   3.285  -0.776 -0.1089  0.1019 -1.1131
  388MOL0     H53518   1.330   3.384  -0.969 -1.2369 -0.3136  0.5830
  388MOL0     H53519   1.452   3.258  -0.963  0.5677  0.0936  0.1889
  388MOL0     H53520   1.517   3.418  -1.120 -1.5346  0.9402  0.9345
  388MOL0     H53521   1.633   3.428  -0.983  1.0562  2.5613 -0.5261
  388MOL0     H53522   1.503   3.631  -0.908  0.7900  3.8082 -2.8785
  388MOL0     H53523   1.388   3.602  -1.046 -1.0818  2.1546  1.9946
  388MOL0     H53524   1.168   3.044  -0.147  0.1589  2.9609 -0.5717
  388MOL0     H53525   1.044   2.830  -0.105 -4.4787  0.0937  2.8219
  388MOL0     H53526   0.647   2.619  -0.262  0.3943  0.6899 -0.2999
  388MOL0     H53527   0.491   2.435  -0.216 -0.8041 -1.9797  0.4847
  388MOL0     H53528   0.979   0.928   0.073  2.8811 -0.0746  1.1716
  388MOL0     H53529   0.949   0.802   0.286 -0.9442  0.7111 -2.4514
  388MOL0     H53530   0.912   0.551   0.670  0.8983  0.3297 -0.3537
  388MOL0     H53531   0.897   0.475   0.875  0.3161  0.1425 -1.8683
  388MOL0     H53532   0.921   0.489   1.248 -0.2601 -1.3251 -0.5160
  388MOL0     H53533   0.825   0.475   1.106 -0.5637 -1.8945  0.5595
  388MOL0     H53534   1.108   0.324   1.130  0.9164  0.1916 -0.8744
  388MOL0     H53535   1.004   0.342   0.992 -2.1382  2.0432  0.4923
  388MOL0     H53536   0.864   0.249   1.255 -1.9017 -2.9192  0.0912
  388MOL0     H53537   0.842   0.198   1.088  0.1077 -1.5616  0.2656
  388MOL0     H53538   0.937   0.056   1.294 -1.5954  0.2064  0.8014
  388MOL0     H53539   1.092   0.111   1.236  1.0856  1.1725 -2.2213
  388MOL0     H53540   1.060  -0.181   0.957 -0.0094  0.1560 -0.8699
  388MOL0     H53541   1.095   0.820   1.033  3.6935 -5.0658  1.6935
  388MOL0     H53542   1.050   1.023   0.779 -1.2683  0.3672  2.0920
  388MOL0     H53543   1.150   0.993   0.919  0.4785  1.3465 -1.2924
  388MOL0     H53544   1.219   0.955   0.754 -0.5407  1.8342 -1.4218
  389MOL0     O53545   2.696   2.216   8.029  0.1189  0.1484 -0.0109
  389MOL0     C53546   2.635   2.293   7.953  0.3278 -0.9447 -0.3529
  389MOL0     O53547   2.601   2.425   7.991 -0.8102  1.1035  1.0115
  389MOL0     C53548   2.614   2.478   8.120 -0.1212  0.5899  0.1988
  389MOL0     C53549   2.575   2.609   8.119  0.1600 -0.4144 -0.7596
  389MOL0     C53550   2.575   2.686   8.233  0.0507 -0.6678 -0.0337
  389MOL0     C53551   2.634   2.640   8.345 -0.5579  0.0394  0.1275
  389MOL0     O53552   2.654   2.717   8.461  0.0528 -0.9850  0.2117
  389MOL0     C53553   2.763   2.820   8.460 -0.6114 -0.4745  0.1559
  389MOL0     C53554   2.697   2.956   8.449  0.6075 -0.6880  1.0271
  389MOL0     C53555   2.571   2.981   8.527 -0.6310  0.1561  0.1861
  389MOL0     C53556   2.601   2.950   8.677 -0.8289  0.1266 -0.6771
  389MOL0     C53557   2.514   3.021   8.780  0.2648 -0.5160 -0.1413
  389MOL0     C53558   2.362   2.981   8.771  0.7875  1.0525 -1.2691
  389MOL0     C53559   2.286   3.054   8.889  0.1904  0.2477 -0.9507
  389MOL0     C53560   2.144   3.044   8.873 -0.5992  0.1517  0.2446
  389MOL0     N53561   2.083   3.086   9.000 -0.6426 -0.5812  0.2838
  389MOL0     C53562   2.089   3.037   9.120  0.7206  0.2992 -0.3059
  389MOL0     C53563   2.020   3.114   9.202  0.8314  0.0493  1.2257
  389MOL0     C53564   2.026   3.098   9.355 -0.9937  0.3026 -0.1858
  389MOL0     C53565   1.969   2.960   9.409  0.4361  0.3360 -0.2222
  389MOL0     C53566   1.827   2.925   9.341 -0.1088  0.7170  0.9602
  389MOL0     C53567   1.720   3.030   9.370  0.6539 -0.2748 -0.1114
  389MOL0     O53568   1.583   2.985   9.362 -0.5467 -0.1149 -0.8435
  389MOL0     C53569   1.527   3.004   9.238  0.5704  0.5126  0.2885
  389MOL0     C53570   1.489   2.891   9.158 -0.2529 -0.5003 -0.1543
  389MOL0     C53571   1.429   2.893   9.031 -0.5876  0.1158 -0.2641
  389MOL0     C53572   1.412   2.763   8.958  0.5808 -0.4431  0.0938
  389MOL0     C53573   1.398   3.019   8.984  0.3223 -0.4453  0.4565
  389MOL0     C53574   1.323   3.033   8.854  1.0076  0.1880  0.6233
  389MOL0     O53575   1.347   3.144   8.767  0.3306  0.0460  0.0354
  389MOL0     C53576   1.270   3.164   8.658  0.2701  0.6932  0.9242
  389MOL0     C53577   1.318   3.192   8.528 -0.3670 -0.4909 -0.0554
  389MOL0     C53578   1.231   3.219   8.412 -0.4302  0.2151  0.3001
  389MOL0     C53579   1.091   3.203   8.427  0.3670  0.1997 -0.1473
  389MOL0     O53580   0.998   3.235   8.331 -0.2754  0.5554  0.0447
  389MOL0     C53581   1.017   3.344   8.241  0.3883  0.1987 -0.4595
  389MOL0     C53582   0.918   3.323   8.127 -0.3983  0.4266  0.5363
  389MOL0     C53583   0.892   3.442   8.035 -0.3850  0.4873  0.4378
  389MOL0     C53584   0.746   3.462   8.002  0.0259 -0.2246 -0.8450
  389MOL0     C53585   0.711   3.586   7.926  0.0799  0.3056  0.3183
  389MOL0     C53586   0.784   3.612   7.779  0.7644 -0.1212 -0.3831
  389MOL0     C53587   0.759   3.761   7.752  0.2528 -0.8413  0.5545
  389MOL0     C53588   0.716   3.790   7.598  0.5224 -0.2108 -0.4550
  389MOL0    Cl53589   0.819   3.684   7.498  0.1823 -0.3096  0.4358
  389MOL0     C53590   1.045   3.166   8.551 -0.3078  0.2527  0.7666
  389MOL0     C53591   1.131   3.146   8.661  0.6727 -0.1936  0.5126
  389MOL0     O53592   1.236   2.942   8.832 -0.1840 -1.2053 -0.4453
  389MOL0     C53593   1.430   3.140   9.059 -1.1719  0.4695 -0.2304
  389MOL0     C53594   1.497   3.127   9.181  0.0249  0.0886 -0.4101
  389MOL0     N53595   1.958   3.209   9.127 -1.1416 -0.5400 -0.0456
  389MOL0     N53596   2.006   3.193   9.009 -0.1663 -0.1180  0.0984
  389MOL0     C53597   2.680   2.505   8.361 -0.1443 -0.8833  0.9171
  389MOL0     C53598   2.673   2.428   8.246  0.1445  0.0076  0.9404
  389MOL0     C53599   2.594   2.243   7.823 -0.8458  0.4085  1.1763
  389MOL0     C53600   2.521   2.331   7.738 -0.3663 -0.1621 -0.6694
  389MOL0     C53601   2.479   2.286   7.620 -0.8614  1.2056 -0.8248
  389MOL0     C53602   2.510   2.164   7.564 -0.7550  0.9279  0.6406
  389MOL0     O53603   2.488   2.143   7.431 -0.1640  0.2105  0.4379
  389MOL0     C53604   2.502   2.020   7.369  0.4523 -0.8946 -0.2211
  389MOL0     C53605   2.425   2.006   7.244  0.1697 -0.3374  0.5274
  389MOL0     C53606   2.480   1.905   7.137  0.6442 -1.0948 -1.1948
  389MOL0     C53607   2.391   1.901   7.012  0.7934  0.2559 -0.6309
  389MOL0     C53608   2.440   1.822   6.900  0.5726  0.5249  0.1765
  389MOL0     C53609   2.472   1.750   6.813  0.1973 -0.0015  0.2359
  389MOL0     C53610   2.575   2.070   7.652 -0.3284 -0.5218  0.1125
  389MOL0     C53611   2.618   2.105   7.779 -0.9311 -0.4564 -0.2054
  389MOL0     C53612   2.704   2.003   7.859 -0.0955 -0.1524 -0.2325
  389MOL0     H53613   2.531   2.646   8.027 -3.1937  0.0388  0.8967
  389MOL0     H53614   2.542   2.789   8.229 -1.3320 -0.9356  2.6560
  389MOL0     H53615   2.833   2.800   8.378 -0.6270  0.5678 -0.1302
  389MOL0     H53616   2.821   2.818   8.553  0.1739 -0.2067 -0.3166
  389MOL0     H53617   2.772   3.032   8.476 -0.6263  0.1718  2.1246
  389MOL0     H53618   2.667   2.955   8.344 -1.8442 -1.6794  1.6777
  389MOL0     H53619   2.541   3.086   8.519 -0.1245  0.3858  1.1132
  389MOL0     H53620   2.490   2.924   8.482 -1.6914  0.4090  1.6926
  389MOL0     H53621   2.591   2.841   8.686 -1.1455  0.1195 -1.0853
  389MOL0     H53622   2.708   2.961   8.697 -1.2812  1.0209  1.4639
  389MOL0     H53623   2.527   3.127   8.804  0.1709 -0.8437  1.5240
  389MOL0     H53624   2.546   2.987   8.879 -1.3373  1.2066  1.0401
  389MOL0     H53625   2.318   3.013   8.676  0.3083 -2.2434 -2.2983
  389MOL0     H53626   2.359   2.872   8.776 -0.2646  1.1242  0.3697
  389MOL0     H53627   2.310   3.161   8.881 -1.6341  0.6477 -1.6881
  389MOL0     H53628   2.323   3.023   8.987 -2.0986  0.3104  0.0075
  389MOL0     H53629   2.118   3.109   8.790  1.5241  1.0614  0.2544
  389MOL0     H53630   2.097   2.946   8.858 -1.2490 -0.0879  3.2546
  389MOL0     H53631   2.146   2.947   9.138  0.8578  0.0456 -1.8663
  389MOL0     H53632   1.958   3.172   9.398  0.3819  0.7638  1.2989
  389MOL0     H53633   2.126   3.110   9.398 -1.7485 -1.5671  2.2736
  389MOL0     H53634   2.041   2.883   9.379 -0.7634  0.9100 -5.5044
  389MOL0     H53635   1.946   2.967   9.516 -1.9773  1.5594 -0.7500
  389MOL0     H53636   1.832   2.920   9.232 -3.9151 -1.5206  0.6821
  389MOL0     H53637   1.789   2.823   9.354  1.1880  0.2437  1.1473
  389MOL0     H53638   1.738   3.075   9.468  2.2277  1.4007 -1.1102
  389MOL0     H53639   1.739   3.118   9.309  0.9619  2.0145  3.0144
  389MOL0     H53640   1.537   2.807   9.207  0.2966  0.8990  1.8335
  389MOL0     H53641   1.311   2.721   8.957  1.4623 -2.9067 -2.6400
  389MOL0     H53642   1.475   2.684   9.000 -1.3868 -2.1708 -0.0214
  389MOL0     H53643   1.427   2.782   8.851  0.6631  0.2185  0.2164
  389MOL0     H53644   1.424   3.206   8.508  0.0889 -2.9377  0.2492
  389MOL0     H53645   1.265   3.254   8.315  0.8067  0.9213  0.9582
  389MOL0     H53646   0.995   3.437   8.294  2.4019  0.6316 -0.2979
  389MOL0     H53647   1.116   3.366   8.199  0.0392  2.0947 -0.3622
  389MOL0     H53648   0.957   3.245   8.061 -0.7325  2.2322 -1.9463
  389MOL0     H53649   0.821   3.290   8.167 -0.5421  2.3014  1.8744
  389MOL0     H53650   0.960   3.443   7.949 -1.9274 -0.3266 -0.8603
  389MOL0     H53651   0.914   3.537   8.084  1.5472  0.1118  0.3665
  389MOL0     H53652   0.689   3.465   8.096 -1.4604  1.0109 -1.7453
  389MOL0     H53653   0.706   3.378   7.944 -2.1198  0.2820 -0.2065
  389MOL0     H53654   0.603   3.600   7.917  0.3439  1.9335 -0.5628
  389MOL0     H53655   0.749   3.662   7.994 -0.5511 -0.2014  1.2544
  389MOL0     H53656   0.733   3.552   7.703 -0.4817  2.7045 -1.8910
  389MOL0     H53657   0.892   3.593   7.784  1.4576  2.3729 -3.2835
  389MOL0     H53658   0.847   3.819   7.781 -1.6831  1.4396  2.3987
  389MOL0     H53659   0.694   3.812   7.824  2.7196  2.1874  0.8403
  389MOL0     H53660   0.739   3.890   7.562 -1.6099 -0.4659 -2.8498
  389MOL0     H53661   0.609   3.771   7.582  0.6834 -0.8997 -0.7543
  389MOL0     H53662   0.940   3.144   8.569 -0.3151  0.6586  1.2353
  389MOL0     H53663   1.080   3.133   8.756 -1.9706  0.4552 -0.7181
  389MOL0     H53664   1.412   3.244   9.033  2.2777  1.5500  1.1236
  389MOL0     H53665   1.540   3.211   9.235  1.3296 -0.3967 -0.6398
  389MOL0     H53666   2.710   2.460   8.455 -0.2099 -0.8154  0.9706
  389MOL0     H53667   2.716   2.328   8.246  1.5429  0.5197 -1.1121
  389MOL0     H53668   2.487   2.429   7.771  0.9846  1.3520 -3.4408
  389MOL0     H53669   2.422   2.357   7.562 -0.3567  0.4786 -2.2455
  389MOL0     H53670   2.606   1.996   7.345  0.8237 -0.1144  0.5814
  389MOL0     H53671   2.466   1.938   7.432 -1.4156  0.2865  0.3357
  389MOL0     H53672   2.407   2.106   7.202 -5.2218  0.4110  3.6805
  389MOL0     H53673   2.325   1.972   7.272  0.6494 -0.9888  1.5285
  389MOL0     H53674   2.579   1.944   7.111 -1.1001  3.5678 -1.8414
  389MOL0     H53675   2.481   1.809   7.189 -1.2111  0.4305  1.9289
  389MOL0     H53676   2.389   2.008   6.989 -0.9130  0.3898 -0.0029
  389MOL0     H53677   2.296   1.855   7.043  1.9576 -0.2617  2.5235
  389MOL0     H53678   2.492   1.678   6.735  0.1591  0.8191 -0.5452
  389MOL0     H53679   2.611   1.974   7.615  2.8970  0.6202 -0.0475
  389MOL0     H53680   2.648   1.985   7.951  2.3185 -2.0453  0.9790
  389MOL0     H53681   2.700   1.909   7.804 -1.3246 -1.3828  1.8277
  389MOL0     H53682   2.806   2.040   7.869 -0.1938 -0.4804  2.5752
  390MOL0     O53683   8.703   1.524   8.306 -0.6205 -0.4550  0.0150
  390MOL0     C53684   8.635   1.566   8.219 -0.3380 -0.5987 -0.1831
  390MOL0     O53685   8.580   1.497   8.117  0.2150 -0.3274 -0.0164
  390MOL0     C53686   8.537   1.370   8.146 -1.2342  0.0317  0.7337
  390MOL0     C53687   8.599   1.266   8.057  0.4029 -0.1225  0.3691
  390MOL0     C53688   8.578   1.133   8.085  0.9702 -0.1977 -0.1894
  390MOL0     C53689   8.486   1.090   8.185 -0.7303 -0.5834 -0.4304
  390MOL0     O53690   8.456   0.964   8.225 -0.4858 -0.4339  0.1949
  390MOL0     C53691   8.463   0.868   8.119  0.5137  0.1194  0.0148
  390MOL0     C53692   8.418   0.738   8.179 -0.0722 -0.1833 -0.0638
  390MOL0     C53693   8.528   0.666   8.256 -0.3607  0.2561  0.1703
  390MOL0     C53694   8.467   0.607   8.376  0.1570  0.2878  1.1243
  390MOL0     C53695   8.575   0.535   8.465 -0.3545 -0.0510  0.0307
  390MOL0     C53696   8.623   0.391   8.423  0.0581 -0.1780 -0.3477
  390MOL0     C53697   8.694   0.371   8.289  0.7678 -0.1537 -0.3291
  390MOL0     C53698   8.788   0.249   8.313 -0.2570  0.3221 -0.3608
  390MOL0     N53699   8.825   0.200   8.180 -0.2022  0.2992 -0.2259
  390MOL0     C53700   8.876   0.070   8.162  0.5348  0.5806 -0.8259
  390MOL0     C53701   8.944   0.084   8.051 -0.1696 -0.2824  0.5184
  390MOL0     C53702   9.039  -0.018   7.991  1.1781 -0.6759  0.1004
  390MOL0     C53703   9.184   0.020   8.015  0.4028  0.7856 -0.1172
  390MOL0     C53704   9.277  -0.101   7.990 -0.2565 -0.0192  0.1419
  390MOL0     C53705   9.272  -0.155   7.850  0.2716 -0.4044  0.6107
  390MOL0     O53706   9.179  -0.272   7.840  0.0989  0.0253  0.7744
  390MOL0     C53707   9.168  -0.322   7.710  0.2309 -0.4267  0.0942
  390MOL0     C53708   9.218  -0.285   7.582 -0.6337 -0.1794 -0.9822
  390MOL0     C53709   9.170  -0.331   7.460 -0.7115  0.1662  0.4410
  390MOL0     C53710   9.235  -0.282   7.332 -0.5106  0.6864  0.3108
  390MOL0     C53711   9.070  -0.437   7.456 -1.2999  0.3414  0.1831
  390MOL0     C53712   9.027  -0.511   7.329  0.2564 -0.0144 -1.0680
  390MOL0     O53713   8.913  -0.588   7.336 -0.7638 -0.0885  0.3751
  390MOL0     C53714   8.877  -0.668   7.230  0.8613 -0.3071 -0.2417
  390MOL0     C53715   8.743  -0.679   7.215 -1.0460  1.0756  0.0190
  390MOL0     C53716   8.689  -0.771   7.125  0.0321 -0.3597  0.2449
  390MOL0     C53717   8.768  -0.856   7.046  0.6480 -0.9420  0.8441
  390MOL0     O53718   8.722  -0.945   6.952  0.0791  1.0697  0.2427
  390MOL0     C53719   8.593  -1.025   6.978 -0.0202  0.1345 -0.2532
  390MOL0     C53720   8.598  -1.148   6.891  0.3452 -0.3786 -0.2032
  390MOL0     C53721   8.582  -1.106   6.749  0.2105  0.1693  0.3612
  390MOL0     C53722   8.468  -1.004   6.708  0.1725 -0.5553 -0.3644
  390MOL0     C53723   8.443  -1.029   6.565 -0.1651 -0.3071 -0.6219
  390MOL0     C53724   8.349  -0.938   6.501 -1.3273  0.4812 -0.3386
  390MOL0     C53725   8.260  -1.006   6.386 -0.4310  0.1180 -0.3007
  390MOL0     C53726   8.223  -0.896   6.286 -0.2234  0.0545 -0.8857
  390MOL0    Cl53727   8.094  -0.963   6.166 -0.0648  0.1199  0.0743
  390MOL0     C53728   8.908  -0.851   7.071  0.9635 -0.2378 -0.2223
  390MOL0     C53729   8.961  -0.759   7.161 -0.4903 -0.0260 -0.7083
  390MOL0     O53730   9.080  -0.489   7.223 -0.6909  0.2816  0.5634
  390MOL0     C53731   9.017  -0.470   7.574 -0.3869  0.2982 -0.0123
  390MOL0     C53732   9.062  -0.417   7.703  0.2838 -0.2438  0.6561
  390MOL0     N53733   8.935   0.212   7.993 -0.2394  1.1774 -0.0234
  390MOL0     N53734   8.858   0.272   8.072  0.3913 -0.1690  0.5826
  390MOL0     C53735   8.437   1.192   8.270  0.3068  0.4182 -0.8376
  390MOL0     C53736   8.459   1.330   8.262  0.3162  0.3525  1.3291
  390MOL0     C53737   8.629   1.714   8.192  0.9312  1.0749 -0.5813
  390MOL0     C53738   8.510   1.779   8.205  0.4655  0.7576 -0.5126
  390MOL0     C53739   8.489   1.910   8.221 -0.3516  0.0095  0.7681
  390MOL0     C53740   8.601   1.993   8.202  0.1680 -0.1593 -0.2764
  390MOL0     O53741   8.592   2.124   8.226 -0.5472 -0.4951 -0.4199
  390MOL0     C53742   8.593   2.203   8.109  0.4328 -0.2090  0.1941
  390MOL0     C53743   8.451   2.241   8.063 -0.5749 -0.7862 -0.1422
  390MOL0     C53744   8.446   2.333   7.945  0.1293  0.1729  0.4443
  390MOL0     C53745   8.323   2.424   7.944 -0.1586  0.7467  0.3195
  390MOL0     C53746   8.319   2.499   7.819  0.3593 -0.0379  0.6514
  390MOL0     C53747   8.309   2.552   7.711  0.4260 -0.6790  0.4818
  390MOL0     C53748   8.725   1.935   8.172  0.0367 -0.7045  0.2547
  390MOL0     C53749   8.743   1.798   8.176 -0.5361  0.8458 -0.0364
  390MOL0     C53750   8.893   1.738   8.177 -0.2404  0.6588  0.1963
  390MOL0     H53751   8.664   1.299   7.977  2.1893 -1.3202  1.2467
  390MOL0     H53752   8.631   1.061   8.024 -0.0296  0.4952 -1.9590
  390MOL0     H53753   8.564   0.850   8.083  1.5493 -3.0104  3.8634
  390MOL0     H53754   8.393   0.901   8.042  0.3390  0.9807  0.5239
  390MOL0     H53755   8.322   0.747   8.231 -0.0669 -2.5209  0.4816
  390MOL0     H53756   8.384   0.670   8.100  0.8532 -0.0511 -0.5819
  390MOL0     H53757   8.565   0.593   8.184 -2.8532  0.0493 -0.9923
  390MOL0     H53758   8.607   0.739   8.278 -0.1027  0.3263 -0.9217
  390MOL0     H53759   8.421   0.693   8.426 -0.1684  0.4136  0.6127
  390MOL0     H53760   8.385   0.544   8.340 -0.5759  2.1275 -0.6331
  390MOL0     H53761   8.539   0.537   8.568 -0.6748  1.9061 -0.0806
  390MOL0     H53762   8.664   0.597   8.456  0.8780 -1.8238 -0.3674
  390MOL0     H53763   8.683   0.351   8.505 -0.7642  0.5910  0.6555
  390MOL0     H53764   8.534   0.328   8.428 -0.6049  0.8149  1.7831
  390MOL0     H53765   8.763   0.447   8.253 -0.0490 -0.2028 -2.0681
  390MOL0     H53766   8.627   0.355   8.204 -1.1055  2.0505  0.5991
  390MOL0     H53767   8.867   0.294   8.375 -2.1483  1.5102  1.3261
  390MOL0     H53768   8.742   0.169   8.370 -0.5884  0.9962  0.3473
  390MOL0     H53769   8.861  -0.018   8.224 -2.4036  0.7712 -1.1081
  390MOL0     H53770   9.019  -0.013   7.884 -5.1604  2.1199  0.9797
  390MOL0     H53771   9.027  -0.119   8.031 -0.1538 -0.0516  1.3319
  390MOL0     H53772   9.210   0.105   7.952 -2.5015  0.8545 -1.3714
  390MOL0     H53773   9.205   0.051   8.118  4.0548 -1.6139  0.0550
  390MOL0     H53774   9.382  -0.079   8.009  0.3007 -2.9576  1.0033
  390MOL0     H53775   9.250  -0.182   8.058  0.8119  0.6995  1.4686
  390MOL0     H53776   9.239  -0.077   7.781  0.1310 -1.4921 -0.5801
  390MOL0     H53777   9.369  -0.188   7.810 -0.5041  0.4148 -2.1119
  390MOL0     H53778   9.292  -0.206   7.574 -2.2580  1.4203 -0.9047
  390MOL0     H53779   9.294  -0.365   7.293  1.1873  2.3017 -0.7569
  390MOL0     H53780   9.320  -0.216   7.353  1.7724 -1.5235 -1.3667
  390MOL0     H53781   9.163  -0.247   7.257  1.8292  2.9771 -1.0396
  390MOL0     H53782   8.682  -0.604   7.266 -1.9173  1.0262 -0.9284
  390MOL0     H53783   8.581  -0.771   7.114 -0.1804  0.8018  1.9903
  390MOL0     H53784   8.575  -1.041   7.085 -0.6083  2.3696  0.0511
  390MOL0     H53785   8.505  -0.966   6.950 -0.2530 -0.3681 -0.5990
  390MOL0     H53786   8.697  -1.196   6.894  0.4125 -0.2119  2.2138
  390MOL0     H53787   8.526  -1.220   6.930 -0.2082  0.8790  1.2302
  390MOL0     H53788   8.582  -1.201   6.695  3.8737 -0.3902  1.0561
  390MOL0     H53789   8.675  -1.054   6.726  0.6265 -1.2234 -1.3128
  390MOL0     H53790   8.508  -0.904   6.725 -1.9760  0.3977 -0.5369
  390MOL0     H53791   8.375  -1.016   6.765  0.9845  3.0096  2.0594
  390MOL0     H53792   8.542  -1.025   6.518 -0.1392  0.8401 -0.4837
  390MOL0     H53793   8.413  -1.135   6.564  2.3057 -1.1474  1.6347
  390MOL0     H53794   8.406  -0.853   6.462 -0.3432 -0.7268 -1.6502
  390MOL0     H53795   8.280  -0.905   6.579  1.2364 -0.7441  2.6172
  390MOL0     H53796   8.173  -1.052   6.434 -0.8247  1.4758  0.3144
  390MOL0     H53797   8.315  -1.089   6.339 -0.8218  0.8999 -2.2365
  390MOL0     H53798   8.318  -0.877   6.236 -0.1777  0.2753 -0.7151
  390MOL0     H53799   8.196  -0.801   6.332 -0.4724 -0.4502  0.0285
  390MOL0     H53800   8.978  -0.912   7.015 -0.6971 -0.1751 -2.5015
  390MOL0     H53801   9.065  -0.741   7.187 -0.4386 -0.3069 -0.7240
  390MOL0     H53802   8.943  -0.549   7.574 -0.7227  0.5638 -1.9691
  390MOL0     H53803   9.024  -0.440   7.802 -2.4217  0.4972 -0.1225
  390MOL0     H53804   8.364   1.157   8.342  5.4173 -4.8861  2.7031
  390MOL0     H53805   8.425   1.413   8.324 -1.3949 -1.5619  3.1354
  390MOL0     H53806   8.426   1.711   8.203  1.5893 -0.6573 -0.4650
  390MOL0     H53807   8.390   1.952   8.242 -0.0937  2.1147 -1.6630
  390MOL0     H53808   8.646   2.299   8.108  0.5908 -0.2915  0.5295
  390MOL0     H53809   8.631   2.150   8.022 -0.4098  0.7140 -0.7617
  390MOL0     H53810   8.388   2.297   8.133 -4.0650 -0.3676 -3.3125
  390MOL0     H53811   8.393   2.153   8.036 -3.3507  0.5156  1.2266
  390MOL0     H53812   8.538   2.392   7.950  0.5021 -0.4250  4.3951
  390MOL0     H53813   8.446   2.267   7.858 -2.1944 -0.7681  1.0926
  390MOL0     H53814   8.319   2.493   8.029  0.0665 -2.1707  2.8748
  390MOL0     H53815   8.226   2.375   7.955  0.2242  0.1357  1.0999
  390MOL0     H53816   8.290   2.590   7.612  0.3493 -1.9016  0.0058
  390MOL0     H53817   8.810   2.002   8.163 -0.4108  0.3320  2.7874
  390MOL0     H53818   8.900   1.658   8.102  1.3894 -1.2261  2.2199
  390MOL0     H53819   8.967   1.816   8.158  1.8670 -1.0267  1.0180
  390MOL0     H53820   8.919   1.687   8.271  1.0685  1.3099  0.2117
  391MOL0     O53821   6.692   3.163   0.419  0.1489 -1.3372 -0.5168
  391MOL0     C53822   6.720   3.282   0.453  0.4374  0.9066  0.6246
  391MOL0     O53823   6.721   3.380   0.365  0.4054 -0.1469  0.3725
  391MOL0     C53824   6.667   3.359   0.242  0.6370  0.1543 -1.0868
  391MOL0     C53825   6.741   3.307   0.137 -0.4898 -0.3426  0.0909
  391MOL0     C53826   6.690   3.314   0.007  0.7814  0.0462 -0.5196
  391MOL0     C53827   6.552   3.339  -0.012 -0.9114 -0.0697 -0.6504
  391MOL0     O53828   6.504   3.332  -0.135 -0.1294  0.2816  0.1287
  391MOL0     C53829   6.372   3.362  -0.165  0.3809 -0.4288  0.1778
  391MOL0     C53830   6.346   3.319  -0.309 -0.2729  0.5302  0.5646
  391MOL0     C53831   6.412   3.423  -0.407  0.6103 -0.4581  0.6520
  391MOL0     C53832   6.332   3.413  -0.535  0.1768 -1.1527  0.1192
  391MOL0     C53833   6.383   3.519  -0.639  0.1660  0.0634 -1.2842
  391MOL0     C53834   6.299   3.525  -0.771  0.0272  0.9751 -0.6211
  391MOL0     C53835   6.316   3.666  -0.838 -0.6098  0.8921  0.3820
  391MOL0     C53836   6.268   3.652  -0.981  0.3657  0.2433 -0.5424
  391MOL0     N53837   6.342   3.564  -1.075 -0.1135  0.1931  0.4004
  391MOL0     C53838   6.469   3.578  -1.125 -0.1030 -0.8284  0.3143
  391MOL0     C53839   6.491   3.476  -1.207  0.5611 -0.2209  1.1704
  391MOL0     C53840   6.602   3.467  -1.308 -0.0136  0.3603  0.0050
  391MOL0     C53841   6.549   3.520  -1.435  0.0418  0.7046  0.5648
  391MOL0     C53842   6.643   3.472  -1.539 -0.8951 -1.2601  0.0126
  391MOL0     C53843   6.594   3.509  -1.683  0.5990 -0.0071 -0.0422
  391MOL0     O53844   6.695   3.510  -1.782  0.2264  0.2189  0.1424
  391MOL0     C53845   6.748   3.390  -1.826  0.1334 -0.4107 -0.5086
  391MOL0     C53846   6.868   3.346  -1.774 -0.5370  0.8998  0.1499
  391MOL0     C53847   6.934   3.233  -1.833  0.3612 -0.5459  0.4485
  391MOL0     C53848   7.073   3.189  -1.783  0.2768  0.0977 -1.0418
  391MOL0     C53849   6.878   3.176  -1.953 -0.3612  0.2352  0.2691
  391MOL0     C53850   6.940   3.057  -2.033  0.5048  0.0319 -0.7235
  391MOL0     O53851   7.068   3.015  -2.005 -1.1404 -0.3226 -0.4819
  391MOL0     C53852   7.134   2.919  -2.073 -0.8299 -0.5329 -1.5455
  391MOL0     C53853   7.117   2.894  -2.205  0.5681  0.5231  1.2115
  391MOL0     C53854   7.190   2.787  -2.267 -0.3239 -0.4204 -0.1845
  391MOL0     C53855   7.296   2.723  -2.195 -0.3470 -0.2634 -0.2256
  391MOL0     O53856   7.387   2.641  -2.260 -0.3392 -0.4306 -1.1660
  391MOL0     C53857   7.441   2.673  -2.385  0.3687  0.0362 -0.0060
  391MOL0     C53858   7.494   2.553  -2.441  0.3422 -0.5909  0.6474
  391MOL0     C53859   7.584   2.591  -2.556  0.0140 -0.3470  0.0215
  391MOL0     C53860   7.642   2.468  -2.626 -0.2811 -0.7690 -0.6038
  391MOL0     C53861   7.751   2.490  -2.733  0.4185  0.3151  0.2066
  391MOL0     C53862   7.881   2.538  -2.684 -0.0126 -0.2022 -0.9495
  391MOL0     C53863   7.977   2.560  -2.801  0.4278 -0.1354 -0.5635
  391MOL0     C53864   8.105   2.637  -2.768  0.3174  0.3438  0.0747
  391MOL0    Cl53865   8.217   2.561  -2.658 -0.5521  0.2430 -0.2521
  391MOL0     C53866   7.323   2.765  -2.064  0.3235  0.0391  0.8010
  391MOL0     C53867   7.248   2.870  -2.008 -0.1949 -0.0291  0.0711
  391MOL0     O53868   6.869   2.997  -2.112  0.3737  0.0641 -0.0120
  391MOL0     C53869   6.752   3.227  -2.001  1.4648 -1.3829  0.1223
  391MOL0     C53870   6.689   3.332  -1.934 -0.6514 -0.0964  0.6543
  391MOL0     N53871   6.378   3.396  -1.210 -1.0234 -0.2906 -0.1599
  391MOL0     N53872   6.291   3.451  -1.129  0.5712 -0.4318  0.5323
  391MOL0     C53873   6.473   3.377   0.098  0.5226 -0.2333 -0.5458
  391MOL0     C53874   6.535   3.394   0.231 -0.0284 -0.3144  0.8093
  391MOL0     C53875   6.754   3.322   0.589 -0.9240  0.3186  0.7161
  391MOL0     C53876   6.829   3.444   0.612  0.3879 -0.6149 -0.8545
  391MOL0     C53877   6.869   3.488   0.740 -0.5566 -0.1408 -0.5099
  391MOL0     C53878   6.840   3.414   0.848  0.0550 -0.2878 -0.0474
  391MOL0     O53879   6.891   3.468   0.967 -0.1909 -0.3686 -0.3302
  391MOL0     C53880   6.891   3.387   1.089  0.1692  0.3698  0.0731
  391MOL0     C53881   6.955   3.460   1.213  0.8362  0.4711  0.0441
  391MOL0     C53882   6.933   3.378   1.347 -1.5128  0.0087  0.6668
  391MOL0     C53883   7.009   3.251   1.360  0.2350 -0.4178  0.0187
  391MOL0     C53884   6.989   3.203   1.497 -0.2645 -0.3138  0.2875
  391MOL0     C53885   6.991   3.151   1.614  0.2699 -0.3575  0.6483
  391MOL0     C53886   6.759   3.295   0.837 -0.1224 -0.7841  0.0349
  391MOL0     C53887   6.724   3.247   0.703 -0.7056 -0.4201  0.2760
  391MOL0     C53888   6.650   3.121   0.710  0.7583  0.3360  0.9542
  391MOL0     H53889   6.843   3.282   0.162 -0.2018  0.3872 -0.3098
  391MOL0     H53890   6.731   3.276  -0.086  1.7549 -0.7608  0.2204
  391MOL0     H53891   6.353   3.469  -0.149  1.3359 -0.1333 -0.5328
  391MOL0     H53892   6.312   3.304  -0.095  0.4989  0.4916  1.0769
  391MOL0     H53893   6.371   3.215  -0.331 -2.4026  0.1493 -0.3184
  391MOL0     H53894   6.237   3.315  -0.319 -0.2956  1.8793  0.0182
  391MOL0     H53895   6.403   3.522  -0.364 -2.2871 -1.2690  2.1682
  391MOL0     H53896   6.520   3.415  -0.415  0.8035  2.7028 -2.2253
  391MOL0     H53897   6.330   3.310  -0.570 -0.6348 -2.1875  2.9840
  391MOL0     H53898   6.226   3.430  -0.513  0.5726 -0.0613  1.2931
  391MOL0     H53899   6.486   3.492  -0.664  0.4148 -0.5094  0.2593
  391MOL0     H53900   6.401   3.609  -0.581  1.1596  0.1516 -1.7033
  391MOL0     H53901   6.323   3.438  -0.833  1.3322  0.0157  1.1412
  391MOL0     H53902   6.193   3.522  -0.743  0.7303 -2.6470  2.4617
  391MOL0     H53903   6.419   3.702  -0.840 -1.0824  2.5190  2.0463
  391MOL0     H53904   6.266   3.724  -0.760  0.3865 -1.0507  2.6170
  391MOL0     H53905   6.166   3.612  -0.971 -1.3174  3.4427 -3.0863
  391MOL0     H53906   6.262   3.751  -1.026  0.2322 -0.8339 -3.0508
  391MOL0     H53907   6.548   3.646  -1.096 -0.4635 -0.0338 -0.5454
  391MOL0     H53908   6.634   3.363  -1.321 -4.4624 -1.4843  1.7183
  391MOL0     H53909   6.685   3.523  -1.265 -0.1021 -0.4965  1.3430
  391MOL0     H53910   6.444   3.498  -1.458  0.5467 -0.4435 -0.7841
  391MOL0     H53911   6.556   3.629  -1.423 -2.0861  1.2353 -1.9288
  391MOL0     H53912   6.740   3.516  -1.514 -0.7464 -2.7475  2.3736
  391MOL0     H53913   6.648   3.363  -1.544  1.5202 -1.2924  1.4716
  391MOL0     H53914   6.507   3.448  -1.708  0.5950  0.1029 -0.2986
  391MOL0     H53915   6.563   3.611  -1.659  1.0646 -0.8979  6.1105
  391MOL0     H53916   6.912   3.410  -1.698 -1.4182  0.5754  0.9671
  391MOL0     H53917   7.057   3.102  -1.718  0.5574 -0.1141 -1.2517
  391MOL0     H53918   7.110   3.272  -1.722  2.5359 -0.5607 -1.4051
  391MOL0     H53919   7.141   3.177  -1.867  0.1883 -2.3970 -0.8402
  391MOL0     H53920   7.040   2.940  -2.266 -0.9441 -0.7936  2.0251
  391MOL0     H53921   7.179   2.777  -2.374 -1.3333  1.6414 -0.3128
  391MOL0     H53922   7.366   2.716  -2.452 -2.2309 -3.5537  0.2831
  391MOL0     H53923   7.526   2.738  -2.365 -0.1321  0.5903  0.3370
  391MOL0     H53924   7.547   2.493  -2.367  1.9040 -1.6813 -1.2728
  391MOL0     H53925   7.408   2.490  -2.466 -1.2634  1.0594  1.7041
  391MOL0     H53926   7.662   2.662  -2.528  1.8333 -2.0576 -0.4797
  391MOL0     H53927   7.520   2.647  -2.625  0.6516 -1.1102 -1.2201
  391MOL0     H53928   7.559   2.416  -2.675 -1.4776  0.7844 -0.2800
  391MOL0     H53929   7.684   2.403  -2.548 -1.3796  0.4440  1.0576
  391MOL0     H53930   7.762   2.405  -2.801 -0.1363  2.7724 -3.2106
  391MOL0     H53931   7.714   2.564  -2.804  0.5758  0.5978  0.4206
  391MOL0     H53932   7.920   2.473  -2.605  1.8054  2.8902  0.8999
  391MOL0     H53933   7.855   2.635  -2.641 -0.0860  0.5277 -2.5835
  391MOL0     H53934   7.923   2.610  -2.882 -2.0627  0.3198  1.2680
  391MOL0     H53935   8.001   2.457  -2.830 -0.4578 -0.3919 -0.4191
  391MOL0     H53936   8.065   2.721  -2.710 -0.4735  0.6629 -0.8954
  391MOL0     H53937   8.153   2.666  -2.862  2.5777 -0.0438  1.0355
  391MOL0     H53938   7.403   2.712  -2.013 -0.5180 -1.4684  0.5977
  391MOL0     H53939   7.269   2.902  -1.906 -2.9666 -1.5093  1.2242
  391MOL0     H53940   6.719   3.201  -2.101  0.9459 -0.4239  0.0302
  391MOL0     H53941   6.599   3.379  -1.970  0.9225  2.1186 -0.6731
  391MOL0     H53942   6.371   3.410   0.086 -0.1360 -1.3232  1.6365
  391MOL0     H53943   6.470   3.419   0.314 -1.1989 -1.7770  0.3650
  391MOL0     H53944   6.854   3.515   0.534 -2.7349  0.2181 -1.2145
  391MOL0     H53945   6.931   3.577   0.748 -0.3420 -0.4125  1.4048
  391MOL0     H53946   6.784   3.373   1.110  0.5640 -3.9243  0.2126
  391MOL0     H53947   6.922   3.284   1.066  1.9430  1.1486 -1.2363
  391MOL0     H53948   6.910   3.557   1.235 -0.3844 -0.5504  2.4808
  391MOL0     H53949   7.062   3.473   1.194  1.4564 -4.7077 -1.4301
  391MOL0     H53950   6.964   3.445   1.428 -1.6617  1.2210 -0.2370
  391MOL0     H53951   6.827   3.358   1.362 -1.7110  0.2273 -0.3219
  391MOL0     H53952   7.112   3.284   1.343 -0.8123  2.5932 -1.4245
  391MOL0     H53953   6.993   3.170   1.288  1.7079 -2.8232  2.2390
  391MOL0     H53954   6.968   3.105   1.708  0.8601 -0.8529  0.5558
  391MOL0     H53955   6.713   3.242   0.919 -0.1178 -2.8393 -1.2192
  391MOL0     H53956   6.692   3.044   0.645 -0.7348  0.4026 -0.1535
  391MOL0     H53957   6.640   3.081   0.811  1.5804  0.2845  1.0245
  391MOL0     H53958   6.548   3.141   0.675  1.6276  0.2830 -1.8535
  392MOL0     O53959   2.148   1.712   7.462 -0.4040 -0.5561 -0.3539
  392MOL0     C53960   2.170   1.622   7.534  0.7460 -0.2932 -1.3681
  392MOL0     O53961   2.280   1.537   7.533  1.0515 -0.7112 -0.7179
  392MOL0     C53962   2.367   1.549   7.434  0.4676  0.5565 -0.5597
  392MOL0     C53963   2.487   1.618   7.446 -0.9205 -0.2181 -0.7624
  392MOL0     C53964   2.586   1.610   7.341  0.2312  0.7413 -0.3359
  392MOL0     C53965   2.554   1.530   7.223  0.6328  0.6114  0.0515
  392MOL0     O53966   2.655   1.506   7.133 -0.8168 -0.2759 -1.0141
  392MOL0     C53967   2.671   1.381   7.070 -0.3998 -0.2422  0.0548
  392MOL0     C53968   2.794   1.410   6.979  0.5811  0.0193  0.4147
  392MOL0     C53969   2.814   1.288   6.891 -0.4696 -0.2630 -1.1889
  392MOL0     C53970   2.941   1.295   6.805  0.5583 -0.3786  0.8989
  392MOL0     C53971   2.940   1.405   6.703 -0.3968 -0.1274 -0.2704
  392MOL0     C53972   3.092   1.414   6.655  1.4121 -0.3925  0.1926
  392MOL0     C53973   3.091   1.516   6.539  0.0033  0.8715 -0.6987
  392MOL0     C53974   3.230   1.525   6.474  0.5549  0.0608 -0.3433
  392MOL0     N53975   3.329   1.574   6.567  0.7628  0.0631 -0.1728
  392MOL0     C53976   3.341   1.702   6.616  0.9724 -0.1404  0.2863
  392MOL0     C53977   3.458   1.701   6.690  0.5285 -0.2259  0.2944
  392MOL0     C53978   3.521   1.807   6.776 -0.3300 -0.2070 -0.1895
  392MOL0     C53979   3.675   1.813   6.763  1.1645 -0.0772  0.3352
  392MOL0     C53980   3.705   1.958   6.789 -0.5500  0.5833  0.2860
  392MOL0     C53981   3.845   1.992   6.758 -1.2558  0.8178  0.7325
  392MOL0     O53982   3.934   1.937   6.861 -0.5391 -0.3093  0.8949
  392MOL0     C53983   4.063   1.951   6.846 -0.9371 -0.7160  0.5927
  392MOL0     C53984   4.139   2.022   6.746  0.0289  0.3284 -0.3539
  392MOL0     C53985   4.275   2.031   6.736 -1.4859  0.0087  0.9447
  392MOL0     C53986   4.350   2.107   6.621  0.0518 -1.0944  0.1562
  392MOL0     C53987   4.350   1.980   6.844  0.5154 -0.3879  0.2598
  392MOL0     C53988   4.494   1.971   6.847 -0.4679  0.4302  1.3789
  392MOL0     O53989   4.554   2.019   6.953 -0.3472 -0.9618  0.2497
  392MOL0     C53990   4.680   2.052   6.941 -0.7410  0.3273 -0.4708
  392MOL0     C53991   4.720   2.168   6.879 -0.3038  0.0688 -0.5021
  392MOL0     C53992   4.852   2.193   6.851 -0.4932  0.9181 -0.3188
  392MOL0     C53993   4.946   2.107   6.903  0.5007  0.7836  0.4096
  392MOL0     O53994   5.076   2.139   6.888 -1.5056  0.4539  0.3200
  392MOL0     C53995   5.147   2.055   6.806 -0.3748  0.0397  0.5834
  392MOL0     C53996   5.193   2.133   6.682  0.4096 -0.2566  0.3410
  392MOL0     C53997   5.317   2.224   6.710  0.6827 -0.2767  1.0406
  392MOL0     C53998   5.397   2.271   6.592 -0.3305  1.2807 -0.4719
  392MOL0     C53999   5.485   2.168   6.529  0.7002 -0.0652  0.1857
  392MOL0     C54000   5.575   2.101   6.632 -0.7545 -0.1417 -0.6855
  392MOL0     C54001   5.668   2.207   6.705 -0.4059 -0.5981  0.4902
  392MOL0     C54002   5.769   2.286   6.606  0.4995 -0.6698 -0.0846
  392MOL0    Cl54003   5.886   2.386   6.706  0.1646  0.1680 -0.5426
  392MOL0     C54004   4.914   1.998   6.983 -0.3570  0.0720 -0.6523
  392MOL0     C54005   4.782   1.966   6.998  0.1533  1.5774  0.4096
  392MOL0     O54006   4.555   1.902   6.762  0.3345 -0.3731 -0.0791
  392MOL0     C54007   4.287   1.921   6.953  0.5640  0.2463 -0.4419
  392MOL0     C54008   4.147   1.897   6.950 -0.2468 -0.1525 -0.5511
  392MOL0     N54009   3.521   1.580   6.666  0.1875  0.0049  0.9475
  392MOL0     N54010   3.440   1.502   6.606 -0.6655  0.1673  0.4135
  392MOL0     C54011   2.438   1.458   7.222 -1.0727  0.7815 -0.3693
  392MOL0     C54012   2.349   1.461   7.326  0.2044 -0.2304  0.3251
  392MOL0     C54013   2.074   1.594   7.645 -0.1429 -0.5357  0.1764
  392MOL0     C54014   1.934   1.597   7.631  0.3414 -1.1127  0.3631
  392MOL0     C54015   1.849   1.558   7.738  0.4338 -0.7470  1.2713
  392MOL0     C54016   1.900   1.512   7.852  0.2162  1.5578  0.7271
  392MOL0     O54017   1.819   1.460   7.942  0.2977 -0.2565 -0.0477
  392MOL0     C54018   1.820   1.316   7.935  0.7317  0.1830  0.3561
  392MOL0     C54019   1.712   1.255   8.027  0.8596 -0.1845 -0.0996
  392MOL0     C54020   1.579   1.268   7.951  0.1519 -0.6584  0.3670
  392MOL0     C54021   1.560   1.206   7.815  0.5207 -0.3637  0.6058
  392MOL0     C54022   1.592   1.063   7.821  0.1009  0.9784 -0.3798
  392MOL0     C54023   1.625   0.946   7.841  0.8185  0.6038 -0.5186
  392MOL0     C54024   2.040   1.510   7.859  0.2054 -0.8447 -0.3635
  392MOL0     C54025   2.128   1.557   7.764  0.3899  0.6545  0.5580
  392MOL0     C54026   2.273   1.559   7.800 -1.1992 -0.2205  0.2330
  392MOL0     H54027   2.504   1.668   7.541 -0.4124 -1.0789 -0.3747
  392MOL0     H54028   2.686   1.649   7.327 -0.3359  1.6719 -2.1392
  392MOL0     H54029   2.598   1.358   6.992  1.2860 -0.4977 -1.4936
  392MOL0     H54030   2.677   1.290   7.130 -2.4451 -2.1780 -2.4163
  392MOL0     H54031   2.776   1.498   6.917  1.2374  1.4186  2.1319
  392MOL0     H54032   2.885   1.434   7.033  3.3187 -2.8694 -2.4547
  392MOL0     H54033   2.812   1.211   6.968  1.5459  1.4152  0.6620
  392MOL0     H54034   2.728   1.260   6.830 -0.6216 -2.1330 -0.1846
  392MOL0     H54035   3.035   1.294   6.862  0.4315  0.0402  1.1146
  392MOL0     H54036   2.951   1.195   6.762  1.9468  0.7317 -1.5357
  392MOL0     H54037   2.915   1.497   6.756  0.0855 -1.5975  2.6803
  392MOL0     H54038   2.865   1.393   6.624 -0.6358  2.7233 -0.5902
  392MOL0     H54039   3.147   1.470   6.731 -1.3040  0.6275  1.5412
  392MOL0     H54040   3.145   1.321   6.629 -0.3683 -0.9840 -1.6214
  392MOL0     H54041   3.065   1.612   6.584 -0.9174 -1.0794  3.4962
  392MOL0     H54042   3.011   1.497   6.467 -0.4839  0.7413 -0.1313
  392MOL0     H54043   3.260   1.426   6.437  0.9127 -0.5574  1.4906
  392MOL0     H54044   3.229   1.599   6.393  0.1166  0.5758  0.1219
  392MOL0     H54045   3.259   1.772   6.603 -1.4572 -3.1666 -1.9932
  392MOL0     H54046   3.488   1.793   6.880  2.1275  2.5392  1.0887
  392MOL0     H54047   3.470   1.897   6.742 -0.1003 -1.6551 -5.1077
  392MOL0     H54048   3.713   1.747   6.840 -2.9892 -3.4592 -0.0877
  392MOL0     H54049   3.701   1.780   6.662 -1.0524 -1.6374  0.1862
  392MOL0     H54050   3.649   2.014   6.714  0.7205  2.0255  0.3776
  392MOL0     H54051   3.674   1.979   6.892  3.4630 -1.4340  2.1264
  392MOL0     H54052   3.873   1.963   6.657  1.6868  0.7761  1.4503
  392MOL0     H54053   3.855   2.101   6.755 -0.8971  0.8072  1.3726
  392MOL0     H54054   4.074   2.064   6.669 -0.8505 -3.5598 -1.9888
  392MOL0     H54055   4.420   2.047   6.562  0.9591  1.7458 -1.8394
  392MOL0     H54056   4.408   2.189   6.664  1.8288 -0.9117 -2.3621
  392MOL0     H54057   4.286   2.164   6.553  3.6346  2.7697 -0.3360
  392MOL0     H54058   4.649   2.247   6.855  1.5875  1.9186 -0.2760
  392MOL0     H54059   4.876   2.281   6.793  0.5862  0.7717 -0.1150
  392MOL0     H54060   5.241   2.022   6.852 -0.8783 -0.6985  1.1089
  392MOL0     H54061   5.087   1.971   6.770 -0.3052 -0.6261  1.9297
  392MOL0     H54062   5.216   2.056   6.608  1.6240 -1.2382  1.6558
  392MOL0     H54063   5.107   2.189   6.646  1.0844 -0.9469 -2.5466
  392MOL0     H54064   5.386   2.168   6.775 -3.3014 -2.0548  4.2037
  392MOL0     H54065   5.274   2.310   6.763  1.9827  0.5507  0.7841
  392MOL0     H54066   5.462   2.353   6.624  1.3860 -0.3285  0.3558
  392MOL0     H54067   5.343   2.312   6.507 -2.6843 -1.0737 -0.2376
  392MOL0     H54068   5.433   2.091   6.472  0.0746  1.3352 -1.1976
  392MOL0     H54069   5.549   2.217   6.456 -0.6329  0.4540 -0.6682
  392MOL0     H54070   5.634   2.032   6.572 -1.6879 -1.6793  0.1036
  392MOL0     H54071   5.528   2.036   6.706  2.6864 -1.7451  0.3066
  392MOL0     H54072   5.716   2.174   6.797  2.0432  2.9632  0.6996
  392MOL0     H54073   5.597   2.282   6.744 -0.9066  0.3179 -1.9735
  392MOL0     H54074   5.715   2.350   6.536  0.1843 -0.7402  0.0901
  392MOL0     H54075   5.830   2.208   6.561  2.4456  1.3128 -1.0914
  392MOL0     H54076   4.984   1.937   7.040 -1.4544 -0.7132 -0.1045
  392MOL0     H54077   4.762   1.870   7.045  1.8893  0.6197 -0.6937
  392MOL0     H54078   4.337   1.881   7.041 -0.9396  2.4969  1.5743
  392MOL0     H54079   4.100   1.835   7.026  2.1061 -0.7394  0.5321
  392MOL0     H54080   2.420   1.397   7.133  2.2049 -1.7335  0.4977
  392MOL0     H54081   2.251   1.417   7.312 -0.5599  0.4713  2.8876
  392MOL0     H54082   1.897   1.620   7.532 -0.1337  0.1747  0.8209
  392MOL0     H54083   1.744   1.582   7.725  1.2923  2.4656 -0.8846
  392MOL0     H54084   1.809   1.281   7.831 -0.1965 -1.3793  0.9420
  392MOL0     H54085   1.920   1.291   7.970  0.9980 -0.1782 -0.6301
  392MOL0     H54086   1.702   1.304   8.124  1.2424 -2.1982  1.0162
  392MOL0     H54087   1.738   1.150   8.048  0.8534  0.0339  1.0404
  392MOL0     H54088   1.499   1.231   8.016  0.8904 -0.9278  1.1343
  392MOL0     H54089   1.561   1.373   7.927  2.7153  0.0922  1.4304
  392MOL0     H54090   1.633   1.245   7.744  2.6756  0.2245  3.0108
  392MOL0     H54091   1.459   1.223   7.777 -0.1416 -0.5091  2.2073
  392MOL0     H54092   1.648   0.842   7.856 -1.4380  0.1357  0.1271
  392MOL0     H54093   2.081   1.464   7.949 -2.4485 -0.1133  1.3099
  392MOL0     H54094   2.271   1.572   7.909 -1.0779  1.1500  0.0957
  392MOL0     H54095   2.329   1.468   7.778 -0.8977  0.2108 -0.8521
  392MOL0     H54096   2.317   1.650   7.757 -3.2259 -1.1082 -4.2772
  393MOL0     O54097   3.166   8.217   5.831 -0.3563  0.4215 -1.0440
  393MOL0     C54098   3.187   8.096   5.828  0.5139  0.4580 -0.5662
  393MOL0     O54099   3.313   8.039   5.843  0.5073 -0.0851 -0.6349
  393MOL0     C54100   3.439   8.107   5.828  0.3200  0.5173  0.2216
  393MOL0     C54101   3.549   8.035   5.869 -1.0034  0.1441 -0.0493
  393MOL0     C54102   3.671   8.095   5.867 -0.9330  0.0147  0.0418
  393MOL0     C54103   3.695   8.223   5.815 -0.0113  0.3242 -0.2047
  393MOL0     O54104   3.820   8.281   5.822  0.3574 -0.0327  0.9164
  393MOL0     C54105   3.854   8.355   5.701  0.4990 -0.5755 -0.2266
  393MOL0     C54106   3.865   8.500   5.719  0.6849  0.3709  0.7829
  393MOL0     C54107   3.915   8.566   5.596  0.4596 -0.8454  0.5941
  393MOL0     C54108   3.817   8.547   5.483 -0.1028  0.6836  0.5033
  393MOL0     C54109   3.812   8.657   5.374  0.1207 -0.2897 -0.0239
  393MOL0     C54110   3.720   8.616   5.259 -0.2181 -0.6751 -0.3935
  393MOL0     C54111   3.656   8.743   5.209 -0.8061 -0.1123  0.7509
  393MOL0     C54112   3.541   8.701   5.112 -1.0535 -0.8432 -0.0451
  393MOL0     N54113   3.497   8.812   5.038 -0.4781  0.3830 -0.0315
  393MOL0     C54114   3.504   8.941   5.078 -0.8118 -0.0859  0.2238
  393MOL0     C54115   3.480   9.011   4.971  0.2703  0.3907  0.3019
  393MOL0     C54116   3.476   9.163   4.960  0.1934  0.4531  0.5937
  393MOL0     C54117   3.593   9.227   5.039  0.1907 -0.0741  0.5099
  393MOL0     C54118   3.569   9.256   5.194  0.0352  0.0766  0.2696
  393MOL0     C54119   3.691   9.297   5.270 -0.5843 -0.1166  0.8847
  393MOL0     O54120   3.775   9.184   5.296  0.2802  0.7023  0.4230
  393MOL0     C54121   3.885   9.194   5.378 -0.4966 -0.1241  0.4994
  393MOL0     C54122   3.957   9.074   5.408 -0.6124 -0.2199 -0.1232
  393MOL0     C54123   4.053   9.074   5.506  0.5956  0.0043 -0.3526
  393MOL0     C54124   4.098   8.942   5.553 -0.5200  0.1602  0.7153
  393MOL0     C54125   4.097   9.201   5.554 -0.6834  0.6871  0.5838
  393MOL0     C54126   4.185   9.222   5.665  0.5211  0.0028 -1.0141
  393MOL0     O54127   4.130   9.314   5.758 -0.8550 -0.7350  0.4637
  393MOL0     C54128   4.190   9.326   5.873 -0.7422 -0.1444  0.5624
  393MOL0     C54129   4.333   9.331   5.888 -0.5377 -0.1377  0.6980
  393MOL0     C54130   4.392   9.370   6.013 -1.1859 -0.1989  0.1476
  393MOL0     C54131   4.317   9.375   6.126 -0.3463  1.0878  0.4300
  393MOL0     O54132   4.377   9.376   6.240 -0.5364  0.4209 -0.5916
  393MOL0     C54133   4.306   9.408   6.362 -0.2746  0.4181  0.2112
  393MOL0     C54134   4.286   9.556   6.377  0.4876 -0.8239 -0.1092
  393MOL0     C54135   4.414   9.644   6.355  0.7072 -0.3025 -0.3388
  393MOL0     C54136   4.402   9.784   6.309 -0.4692 -0.5251 -0.5623
  393MOL0     C54137   4.396   9.790   6.156 -0.8765 -0.2113  0.1892
  393MOL0     C54138   4.380   9.932   6.105 -0.1416  0.0077 -0.3703
  393MOL0     C54139   4.360   9.938   5.954  0.4151  0.4592  0.3799
  393MOL0     C54140   4.363  10.077   5.894  0.1215  0.5861  0.6859
  393MOL0    Cl54141   4.257  10.185   5.982  0.3937 -0.2805  0.1074
  393MOL0     C54142   4.174   9.355   6.121 -0.3129  0.1887  1.3081
  393MOL0     C54143   4.114   9.337   5.993 -0.3795 -0.4562 -0.0172
  393MOL0     O54144   4.287   9.156   5.668 -0.1221  0.4020  0.2252
  393MOL0     C54145   4.049   9.320   5.506  0.9950 -0.2643 -1.4175
  393MOL0     C54146   3.936   9.316   5.423 -0.1756  0.2287 -0.1948
  393MOL0     N54147   3.460   8.916   4.864 -0.2757 -0.7235  0.5418
  393MOL0     N54148   3.464   8.804   4.910  0.3942  0.8680  0.7737
  393MOL0     C54149   3.586   8.298   5.774 -0.5657 -0.8638  0.8006
  393MOL0     C54150   3.463   8.240   5.776 -0.6250  0.8048  1.7496
  393MOL0     C54151   3.067   8.010   5.796  0.0265  0.3808 -0.5236
  393MOL0     C54152   2.937   8.075   5.792  0.4394 -0.4547 -0.3650
  393MOL0     C54153   2.822   7.997   5.773  1.0516 -0.1138  0.9391
  393MOL0     C54154   2.821   7.854   5.749  0.2014 -0.3532  0.3500
  393MOL0     O54155   2.716   7.771   5.733  0.5745  0.1562 -0.6297
  393MOL0     C54156   2.575   7.825   5.747 -1.0335 -0.7190 -0.3622
  393MOL0     C54157   2.513   7.876   5.612 -0.1181 -0.5001  0.6598
  393MOL0     C54158   2.519   8.025   5.569  0.0913  0.1625  0.1333
  393MOL0     C54159   2.457   8.127   5.671 -0.1542 -0.3017 -0.3089
  393MOL0     C54160   2.320   8.101   5.697  0.1767  0.7468 -0.1989
  393MOL0     C54161   2.206   8.078   5.719 -0.0974  0.0082 -0.6525
  393MOL0     C54162   2.951   7.797   5.759 -0.8120  0.0880 -0.6196
  393MOL0     C54163   3.080   7.863   5.788  0.1241 -0.0421 -0.5698
  393MOL0     C54164   3.196   7.765   5.831 -0.7903 -0.6159  0.1358
  393MOL0     H54165   3.540   7.934   5.906  0.0699 -0.0154 -0.1779
  393MOL0     H54166   3.756   8.044   5.912  2.0148  2.7308 -2.0288
  393MOL0     H54167   3.789   8.320   5.621  1.1126 -3.2893  0.3254
  393MOL0     H54168   3.955   8.315   5.684  1.1889  1.1752 -0.4019
  393MOL0     H54169   3.770   8.530   5.762  0.3955 -1.8543  1.8335
  393MOL0     H54170   3.934   8.531   5.798  1.2814  0.7934  0.1049
  393MOL0     H54171   3.928   8.671   5.623 -1.5393 -0.7176  1.2864
  393MOL0     H54172   4.015   8.526   5.579  0.6410 -1.7598  3.2013
  393MOL0     H54173   3.847   8.450   5.444  2.9214  0.8939  2.0107
  393MOL0     H54174   3.722   8.531   5.535  1.3195 -0.4052  2.9744
  393MOL0     H54175   3.914   8.672   5.336  0.4350  0.3521  1.0244
  393MOL0     H54176   3.781   8.747   5.426  3.6230  0.0557  1.7546
  393MOL0     H54177   3.775   8.564   5.180 -0.5521  1.0417 -1.8323
  393MOL0     H54178   3.642   8.546   5.289 -2.0634  0.7224 -1.6448
  393MOL0     H54179   3.728   8.799   5.148  0.4193 -1.2742  1.0729
  393MOL0     H54180   3.617   8.805   5.290  2.3225  0.2713  2.1034
  393MOL0     H54181   3.570   8.622   5.042 -3.1944  0.8790 -3.1350
  393MOL0     H54182   3.461   8.659   5.174 -1.6365 -1.9196 -1.4559
  393MOL0     H54183   3.532   8.967   5.180  2.1817  0.3376 -0.6168
  393MOL0     H54184   3.386   9.207   5.002 -1.1163 -1.0363 -0.4982
  393MOL0     H54185   3.480   9.194   4.855  1.3009 -2.1834 -0.2330
  393MOL0     H54186   3.684   9.169   5.022 -0.7691 -0.4502 -5.4970
  393MOL0     H54187   3.614   9.319   4.984 -0.1538  0.0990  0.6649
  393MOL0     H54188   3.491   9.330   5.216  0.8884  1.0478  0.0989
  393MOL0     H54189   3.520   9.166   5.233  0.2765 -0.3622 -0.4376
  393MOL0     H54190   3.738   9.377   5.211  0.9757 -0.6951  1.2706
  393MOL0     H54191   3.656   9.347   5.361 -0.7610  0.3965  0.5343
  393MOL0     H54192   3.913   8.980   5.376  0.5868 -0.7707 -0.2203
  393MOL0     H54193   4.208   8.945   5.545 -0.6905  2.3833 -2.7167
  393MOL0     H54194   4.065   8.864   5.483 -0.9203  2.3029 -1.6451
  393MOL0     H54195   4.084   8.910   5.656  0.7334  0.9752  1.1689
  393MOL0     H54196   4.398   9.315   5.803 -0.7662 -1.1541  0.7066
  393MOL0     H54197   4.499   9.385   6.008 -0.9708 -1.7340 -4.0154
  393MOL0     H54198   4.208   9.362   6.375  0.9120 -2.2655  0.4043
  393MOL0     H54199   4.368   9.378   6.447  0.2168  2.7016  0.7273
  393MOL0     H54200   4.208   9.584   6.307  0.4904 -0.2927  0.0944
  393MOL0     H54201   4.247   9.564   6.479  0.9552 -0.1635  0.0255
  393MOL0     H54202   4.491   9.595   6.294  2.6558  1.9583  0.1473
  393MOL0     H54203   4.457   9.642   6.456 -2.8507 -2.9847  1.3764
  393MOL0     H54204   4.483   9.849   6.345 -0.7002 -0.7792  0.4322
  393MOL0     H54205   4.318   9.837   6.355  1.3486  2.6831 -0.6603
  393MOL0     H54206   4.489   9.750   6.114 -0.6471  0.8995 -0.3850
  393MOL0     H54207   4.306   9.735   6.129 -1.4821  0.0815  1.5029
  393MOL0     H54208   4.465   9.997   6.129  1.1046 -1.4109 -0.7749
  393MOL0     H54209   4.292   9.967   6.159 -1.8903 -2.6854 -1.2361
  393MOL0     H54210   4.268   9.888   5.923  0.6316  1.5379 -2.2782
  393MOL0     H54211   4.442   9.885   5.904  2.4648  0.8890  3.0401
  393MOL0     H54212   4.325  10.072   5.792  2.5183 -4.3031 -0.3004
  393MOL0     H54213   4.468  10.108   5.895  0.6560 -1.0469  2.8031
  393MOL0     H54214   4.112   9.355   6.210  0.7154  2.9685  2.1423
  393MOL0     H54215   4.005   9.336   5.985 -0.2201 -0.4906 -2.9808
  393MOL0     H54216   4.101   9.406   5.547  2.8908 -1.9808 -0.0067
  393MOL0     H54217   3.896   9.414   5.399 -1.1786 -0.0872  0.1254
  393MOL0     H54218   3.591   8.404   5.752 -5.1936 -0.6214  0.0223
  393MOL0     H54219   3.383   8.292   5.722  1.8578  0.7958 -2.3974
  393MOL0     H54220   2.930   8.182   5.804  2.4370 -0.1461 -1.5575
  393MOL0     H54221   2.729   8.051   5.784  1.1453 -0.2044  2.3549
  393MOL0     H54222   2.520   7.738   5.784 -0.5468 -0.8560  0.0492
  393MOL0     H54223   2.573   7.901   5.826  0.0185 -1.3059  0.2597
  393MOL0     H54224   2.409   7.843   5.605 -0.8664  1.5587  1.4595
  393MOL0     H54225   2.561   7.821   5.531 -0.2000  3.0274 -2.0150
  393MOL0     H54226   2.620   8.056   5.542 -0.0111  0.5964  0.2395
  393MOL0     H54227   2.464   8.031   5.475  0.4868 -0.1142 -0.1212
  393MOL0     H54228   2.456   8.231   5.635 -1.9531  0.1926  0.9880
  393MOL0     H54229   2.517   8.129   5.763  2.4529  0.0319 -1.9212
  393MOL0     H54230   2.104   8.050   5.736 -0.0417 -1.5491 -2.5197
  393MOL0     H54231   2.949   7.689   5.773  0.3459  0.2031  0.7337
  393MOL0     H54232   3.207   7.764   5.940 -2.7138  0.1074  0.3728
  393MOL0     H54233   3.177   7.659   5.811  1.1846 -1.5457  2.6560
  393MOL0     H54234   3.290   7.795   5.782 -1.2429  2.1117  0.7742
  394MOL0     O54235  11.458   8.499   0.538  0.6642 -0.5893  0.2605
  394MOL0     C54236  11.387   8.592   0.589  0.1824 -0.0804 -0.8977
  394MOL0     O54237  11.259   8.611   0.566  0.7550 -0.5382  0.3867
  394MOL0     C54238  11.192   8.516   0.491 -0.1248  0.9684 -0.4505
  394MOL0     C54239  11.207   8.502   0.347 -0.5708  0.7783  0.0882
  394MOL0     C54240  11.157   8.399   0.272 -0.1328  0.5827 -1.1377
  394MOL0     C54241  11.061   8.317   0.338  0.3616  0.1360  0.5942
  394MOL0     O54242  10.978   8.229   0.272  0.1200 -1.5594 -0.5962
  394MOL0     C54243  10.985   8.206   0.127 -0.2194  1.0763 -0.1174
  394MOL0     C54244  10.844   8.225   0.067  0.5145 -0.4515  0.0779
  394MOL0     C54245  10.839   8.372   0.013  0.5849  0.4867 -0.2312
  394MOL0     C54246  10.863   8.368  -0.135 -0.2573 -0.4312 -0.6699
  394MOL0     C54247  10.973   8.464  -0.178  0.1871 -0.1334 -0.1380
  394MOL0     C54248  11.007   8.451  -0.331  0.4823 -0.3110  0.0895
  394MOL0     C54249  11.097   8.564  -0.383  0.2586 -0.4441  0.5410
  394MOL0     C54250  11.119   8.556  -0.535  1.1449  0.1660 -0.2717
  394MOL0     N54251  11.201   8.442  -0.563 -0.3661 -0.4626  0.4359
  394MOL0     C54252  11.331   8.449  -0.516  0.1719  0.1078 -0.7203
  394MOL0     C54253  11.372   8.319  -0.534 -0.5557  0.0916 -0.2538
  394MOL0     C54254  11.497   8.256  -0.481 -0.0286  0.2072 -0.6935
  394MOL0     C54255  11.531   8.288  -0.339  0.1525 -0.8251 -0.3920
  394MOL0     C54256  11.430   8.252  -0.229 -0.8328  0.1275 -0.3857
  394MOL0     C54257  11.478   8.269  -0.086  0.0547  0.0710 -0.4454
  394MOL0     O54258  11.361   8.232  -0.010 -0.8615  0.6094  0.0785
  394MOL0     C54259  11.376   8.199   0.129 -0.2924  0.4077  1.2113
  394MOL0     C54260  11.295   8.099   0.182 -1.0463 -0.5046 -0.0542
  394MOL0     C54261  11.307   8.049   0.310  0.5938 -0.9017 -0.2516
  394MOL0     C54262  11.223   7.936   0.357 -0.2472 -0.4506  0.1285
  394MOL0     C54263  11.400   8.113   0.394  0.0789  0.0142 -0.1740
  394MOL0     C54264  11.422   8.079   0.531 -0.4626  0.5949 -1.2958
  394MOL0     O54265  11.555   8.100   0.581  0.2567 -0.5593  0.3250
  394MOL0     C54266  11.576   8.099   0.720  0.1136  0.6069 -1.5577
  394MOL0     C54267  11.541   8.002   0.818  0.1276 -0.3942  0.2560
  394MOL0     C54268  11.556   8.016   0.958 -0.0833 -0.1865 -0.4405
  394MOL0     C54269  11.616   8.136   1.009  0.7137  1.1678  0.2295
  394MOL0     O54270  11.624   8.145   1.144 -0.4763 -0.4966 -0.0686
  394MOL0     C54271  11.607   8.272   1.206 -1.2735  0.3707 -0.1510
  394MOL0     C54272  11.571   8.249   1.354 -0.2221  0.6645 -0.2465
  394MOL0     C54273  11.457   8.134   1.371 -0.8188 -0.2310 -0.1438
  394MOL0     C54274  11.394   8.133   1.513  0.0459  0.4173 -0.7898
  394MOL0     C54275  11.327   8.006   1.543  0.0836 -0.3594 -0.3752
  394MOL0     C54276  11.267   7.983   1.694 -1.1761 -0.6459 -0.5640
  394MOL0     C54277  11.197   7.850   1.698 -0.9245 -0.2598 -0.1936
  394MOL0     C54278  11.126   7.837   1.833 -0.3409 -0.2330  0.1129
  394MOL0    Cl54279  11.240   7.799   1.968 -0.4259 -0.0073 -0.1247
  394MOL0     C54280  11.651   8.232   0.918 -0.8441 -1.0076  0.1425
  394MOL0     C54281  11.630   8.219   0.778  0.2210 -0.2780  0.2371
  394MOL0     O54282  11.328   8.041   0.599  0.1144  1.1739 -0.6446
  394MOL0     C54283  11.473   8.223   0.343 -0.0067 -0.2748 -0.1947
  394MOL0     C54284  11.465   8.263   0.214  0.3261  0.3348  0.1345
  394MOL0     N54285  11.273   8.251  -0.593 -1.0659 -0.0363 -0.5341
  394MOL0     N54286  11.171   8.327  -0.622  0.9806  0.6341  0.5525
  394MOL0     C54287  11.033   8.331   0.471 -0.8395  0.6569 -0.2338
  394MOL0     C54288  11.107   8.424   0.552 -0.0710  0.1116  0.2200
  394MOL0     C54289  11.443   8.680   0.699  0.9648 -0.7261 -0.2022
  394MOL0     C54290  11.346   8.753   0.776 -0.2063 -0.2306  0.5300
  394MOL0     C54291  11.390   8.843   0.872 -0.5517  0.9483  0.8119
  394MOL0     C54292  11.526   8.856   0.906  0.0431 -0.4331 -0.3237
  394MOL0     O54293  11.577   8.944   1.004 -0.2424 -0.4814  0.6645
  394MOL0     C54294  11.485   9.043   1.058 -0.0415  0.1885  0.2786
  394MOL0     C54295  11.564   9.165   1.109  0.2557  1.0382  0.2185
  394MOL0     C54296  11.694   9.124   1.185  0.7377 -0.2705  0.4536
  394MOL0     C54297  11.735   9.222   1.305  0.3250 -0.1237  0.2565
  394MOL0     C54298  11.774   9.347   1.243  0.0641  0.4807 -0.8502
  394MOL0     C54299  11.797   9.445   1.185 -0.6071 -0.1852  0.1704
  394MOL0     C54300  11.623   8.798   0.830 -0.3359  1.0971  0.5072
  394MOL0     C54301  11.587   8.706   0.722 -0.9414 -1.3913  1.2974
  394MOL0     C54302  11.700   8.645   0.646  0.2689 -0.3332 -1.3229
  394MOL0     H54303  11.283   8.564   0.300  0.0018  0.0752  0.0593
  394MOL0     H54304  11.178   8.390   0.166 -3.3663  1.5774 -1.9711
  394MOL0     H54305  11.002   8.099   0.119 -0.1366  0.9243  1.6757
  394MOL0     H54306  11.051   8.265   0.063  0.8331 -0.0440 -0.0969
  394MOL0     H54307  10.823   8.159  -0.018  1.2684 -0.9816  0.2950
  394MOL0     H54308  10.757   8.217   0.134 -2.0785  0.0299 -2.9774
  394MOL0     H54309  10.741   8.418   0.030 -0.9922 -3.1142  1.4930
  394MOL0     H54310  10.909   8.431   0.072  2.5301 -1.4451 -0.4789
  394MOL0     H54311  10.900   8.275  -0.179 -0.4333  0.4942 -2.9363
  394MOL0     H54312  10.761   8.390  -0.170 -1.0936  1.8106  2.7210
  394MOL0     H54313  11.067   8.441  -0.128  2.6448  2.0205 -3.4245
  394MOL0     H54314  10.935   8.564  -0.157  1.2213  0.5485 -1.4033
  394MOL0     H54315  11.049   8.352  -0.352  1.1197 -0.0917  0.3213
  394MOL0     H54316  10.910   8.468  -0.379  1.3417  0.6525 -1.3814
  394MOL0     H54317  11.195   8.566  -0.333  1.5340  0.5195 -1.8300
  394MOL0     H54318  11.056   8.666  -0.378  3.8321  1.2535 -1.2213
  394MOL0     H54319  11.023   8.536  -0.584  1.9246 -0.2107 -1.6687
  394MOL0     H54320  11.159   8.644  -0.585 -0.3136  1.2219  0.3401
  394MOL0     H54321  11.387   8.527  -0.466  1.6815 -0.3522 -1.6272
  394MOL0     H54322  11.579   8.284  -0.548 -0.6783 -1.6840 -2.3833
  394MOL0     H54323  11.490   8.147  -0.487 -0.3545 -0.0719  2.7412
  394MOL0     H54324  11.627   8.242  -0.313  0.3946 -0.3821 -0.4686
  394MOL0     H54325  11.539   8.398  -0.338 -0.9362 -0.7346 -0.4460
  394MOL0     H54326  11.341   8.312  -0.252  0.1863  1.4042 -1.1906
  394MOL0     H54327  11.412   8.146  -0.244 -2.1774  0.5431 -2.0515
  394MOL0     H54328  11.555   8.201  -0.048 -3.2376 -1.7962  3.8150
  394MOL0     H54329  11.524   8.368  -0.079  2.1192 -0.8935  0.6753
  394MOL0     H54330  11.230   8.065   0.102 -0.5118  2.6505 -2.0031
  394MOL0     H54331  11.285   7.877   0.425 -1.5308  0.9757  2.7103
  394MOL0     H54332  11.193   7.868   0.277  0.9424 -2.2383  1.1098
  394MOL0     H54333  11.134   7.966   0.412 -1.7285 -0.9258 -1.8817
  394MOL0     H54334  11.497   7.910   0.782 -0.7024 -0.0683  0.4380
  394MOL0     H54335  11.537   7.937   1.029  0.1792  0.5817  0.5061
  394MOL0     H54336  11.704   8.322   1.203  0.2602 -2.3946 -0.4347
  394MOL0     H54337  11.542   8.335   1.145  2.5792  1.8827 -3.1871
  394MOL0     H54338  11.664   8.215   1.400 -0.5359  0.4496  0.2405
  394MOL0     H54339  11.525   8.343   1.387  0.5563  0.9307  0.1097
  394MOL0     H54340  11.506   8.038   1.356 -0.2268 -0.1724  1.2446
  394MOL0     H54341  11.371   8.145   1.304  0.2725 -0.2312 -1.5828
  394MOL0     H54342  11.317   8.209   1.529  0.3866  1.4358 -3.4343
  394MOL0     H54343  11.464   8.148   1.595  1.9028 -2.6151 -1.6387
  394MOL0     H54344  11.262   7.982   1.459  2.6059 -0.7539 -2.3186
  394MOL0     H54345  11.411   7.936   1.540 -0.5633 -1.2381  0.7746
  394MOL0     H54346  11.204   8.070   1.708 -0.2002  0.0581 -0.4093
  394MOL0     H54347  11.352   7.992   1.763  0.6572 -0.5646 -2.7098
  394MOL0     H54348  11.274   7.773   1.695 -0.2652  0.3657  0.3351
  394MOL0     H54349  11.126   7.846   1.615 -1.2845 -2.7583  0.1468
  394MOL0     H54350  11.055   7.754   1.831  0.8971 -1.3387  0.4316
  394MOL0     H54351  11.074   7.931   1.852 -0.2545 -0.8874  5.3018
  394MOL0     H54352  11.707   8.316   0.956 -1.5002 -0.1809 -0.6683
  394MOL0     H54353  11.669   8.302   0.721  1.0144 -1.6273 -1.2655
  394MOL0     H54354  11.549   8.277   0.398  0.4216  1.8575 -2.6653
  394MOL0     H54355  11.518   8.352   0.182 -1.2882  1.3539  0.1929
  394MOL0     H54356  10.961   8.256   0.501 -1.3765  1.2427 -0.0429
  394MOL0     H54357  11.099   8.419   0.660 -2.4816  1.7706  0.1985
  394MOL0     H54358  11.240   8.746   0.752 -0.2590  0.4553  0.5415
  394MOL0     H54359  11.312   8.902   0.921 -2.3237 -0.2879 -0.3717
  394MOL0     H54360  11.412   9.074   0.982  1.5614 -3.4155 -3.1217
  394MOL0     H54361  11.436   8.991   1.140 -1.8621  1.8747  0.3448
  394MOL0     H54362  11.495   9.217   1.175 -1.9314 -3.9452  2.3358
  394MOL0     H54363  11.591   9.229   1.023 -0.1077  0.1719 -0.5533
  394MOL0     H54364  11.664   9.026   1.223 -0.8330 -1.9386 -4.3969
  394MOL0     H54365  11.776   9.104   1.115  0.7127 -0.5252  0.4974
  394MOL0     H54366  11.821   9.179   1.356 -0.3566  2.6425  4.2090
  394MOL0     H54367  11.650   9.240   1.372 -2.2043 -0.3639 -2.6479
  394MOL0     H54368  11.805   9.547   1.152  2.1165  0.2637  1.8886
  394MOL0     H54369  11.728   8.822   0.840  1.0675 -3.1897 -1.1618
  394MOL0     H54370  11.689   8.540   0.673 -2.1035  0.1629 -0.1293
  394MOL0     H54371  11.680   8.656   0.539 -0.8445 -2.1009 -1.3402
  394MOL0     H54372  11.799   8.688   0.659 -0.5456  1.9150 -2.1345
  395MOL0     O54373   3.478   3.770  11.156  0.7094 -0.1908 -0.8861
  395MOL0     C54374   3.576   3.775  11.231 -0.0815 -0.5400 -0.2311
  395MOL0     O54375   3.653   3.673  11.273  0.0337  0.4032 -0.0395
  395MOL0     C54376   3.614   3.549  11.229  1.0009 -0.7230 -0.3236
  395MOL0     C54377   3.537   3.461  11.303  0.5353  0.1977  0.6552
  395MOL0     C54378   3.522   3.331  11.252 -0.1802  0.2792 -0.8828
  395MOL0     C54379   3.586   3.284  11.140 -0.9932 -0.8113  0.3890
  395MOL0     O54380   3.581   3.150  11.110  0.1837 -0.0224 -0.2656
  395MOL0     C54381   3.498   3.131  10.990  0.2055 -0.2475  0.4483
  395MOL0     C54382   3.583   3.063  10.886 -0.8982  0.3857  0.5068
  395MOL0     C54383   3.504   3.002  10.770  0.2157  0.4884  0.6906
  395MOL0     C54384   3.564   2.866  10.735 -0.3465 -0.4191 -0.5752
  395MOL0     C54385   3.549   2.851  10.580  0.9425 -0.2565 -0.4728
  395MOL0     C54386   3.600   2.711  10.540  0.1902 -0.1161  0.0403
  395MOL0     C54387   3.568   2.663  10.398  0.5201  0.2580  0.1729
  395MOL0     C54388   3.616   2.755  10.283  0.3080  0.3230 -0.9500
  395MOL0     N54389   3.585   2.701  10.151 -0.0502  0.1046  0.4426
  395MOL0     C54390   3.484   2.744  10.071 -0.7688  0.2835 -0.5480
  395MOL0     C54391   3.513   2.696   9.951  0.6396 -0.5757  0.7368
  395MOL0     C54392   3.441   2.718   9.824  0.7020  0.2579  0.2727
  395MOL0     C54393   3.362   2.589   9.782  0.3910  0.4181  0.2105
  395MOL0     C54394   3.326   2.591   9.630 -0.2252 -0.1882  0.1551
  395MOL0     C54395   3.178   2.635   9.591 -1.2081  0.5803  0.2122
  395MOL0     O54396   3.157   2.760   9.651  0.6396  0.0407  0.3915
  395MOL0     C54397   3.035   2.818   9.624  0.2375  0.2404  0.1609
  395MOL0     C54398   2.921   2.759   9.566  0.4971 -0.1662  0.8838
  395MOL0     C54399   2.803   2.834   9.537  0.0883  0.1286 -0.3624
  395MOL0     C54400   2.692   2.754   9.479  0.5146 -0.3813  0.3841
  395MOL0     C54401   2.801   2.971   9.552  0.2379  0.2467 -0.0064
  395MOL0     C54402   2.677   3.048   9.517  0.4094 -0.0518  0.1027
  395MOL0     O54403   2.656   3.173   9.579  0.8096  0.1575 -0.2490
  395MOL0     C54404   2.541   3.246   9.554  0.4278 -0.0117  0.3864
  395MOL0     C54405   2.547   3.385   9.533 -0.4506 -1.0099 -1.5468
  395MOL0     C54406   2.427   3.452   9.519 -0.1278 -0.3924  0.2634
  395MOL0     C54407   2.302   3.390   9.540 -0.3067 -0.9972  0.1653
  395MOL0     O54408   2.189   3.465   9.545  0.0869 -0.1328  0.1605
  395MOL0     C54409   2.178   3.598   9.485  0.9775  0.4560 -0.6758
  395MOL0     C54410   2.032   3.638   9.469 -0.5861  0.9171  0.4407
  395MOL0     C54411   1.937   3.525   9.411 -0.0804 -0.3067  0.4247
  395MOL0     C54412   1.801   3.586   9.413 -0.0529 -0.2401 -0.4417
  395MOL0     C54413   1.692   3.503   9.362 -0.3613 -0.0774  0.2750
  395MOL0     C54414   1.566   3.593   9.358  0.1068  0.3146  0.8261
  395MOL0     C54415   1.446   3.519   9.295  0.0475 -0.9946 -0.4027
  395MOL0     C54416   1.309   3.587   9.312 -0.0600 -0.8068 -0.2840
  395MOL0    Cl54417   1.307   3.745   9.234 -0.1007 -0.0178  0.2134
  395MOL0     C54418   2.294   3.259   9.569  0.2782  1.0159 -0.1875
  395MOL0     C54419   2.413   3.183   9.569  0.5714  0.6860 -0.5094
  395MOL0     O54420   2.609   3.005   9.426  0.2882  0.3253  0.3105
  395MOL0     C54421   2.914   3.030   9.615  0.2544 -0.0911  0.1883
  395MOL0     C54422   3.028   2.952   9.649 -0.2673  0.5611 -0.5856
  395MOL0     N54423   3.644   2.649   9.952  0.7713  0.0825 -1.1091
  395MOL0     N54424   3.683   2.645  10.079 -0.7867  0.2915  0.6743
  395MOL0     C54425   3.662   3.374  11.070  0.6819 -0.4356 -0.1610
  395MOL0     C54426   3.674   3.500  11.117 -0.3415  0.1563 -0.0596
  395MOL0     C54427   3.602   3.905  11.295  0.7498 -0.7142 -0.5370
  395MOL0     C54428   3.603   3.904  11.438 -0.3754 -0.0822  0.6421
  395MOL0     C54429   3.638   4.028  11.503 -0.0003  0.7755  0.0743
  395MOL0     C54430   3.667   4.143  11.429  1.3440  0.3635  0.5231
  395MOL0     O54431   3.692   4.276  11.473  0.3525  0.4602 -0.1127
  395MOL0     C54432   3.718   4.296  11.614  0.0312  0.7918  0.7911
  395MOL0     C54433   3.702   4.451  11.636 -0.1826  0.6147 -0.2929
  395MOL0     C54434   3.777   4.535  11.530  0.6780  1.7006 -0.4901
  395MOL0     C54435   3.843   4.666  11.579  0.5537  0.8729 -0.7189
  395MOL0     C54436   3.883   4.726  11.449 -0.5960 -0.1922  0.1612
  395MOL0     C54437   3.914   4.768  11.340 -0.1101 -0.7800  0.4983
  395MOL0     C54438   3.644   4.147  11.301 -0.3696 -0.0136 -0.7286
  395MOL0     C54439   3.612   4.032  11.220  0.1526  1.0588 -1.9233
  395MOL0     C54440   3.626   4.036  11.067  0.3941 -0.5818  0.4639
  395MOL0     H54441   3.489   3.501  11.392  2.6409  2.6270  0.8277
  395MOL0     H54442   3.458   3.258  11.301 -0.0573  1.6221  1.4402
  395MOL0     H54443   3.478   3.224  10.938  2.7111 -0.4341 -1.0210
  395MOL0     H54444   3.404   3.081  11.013 -0.9187  2.3937  1.9759
  395MOL0     H54445   3.664   3.123  10.844  1.0842 -1.8522  0.8890
  395MOL0     H54446   3.645   2.988  10.936 -1.9428 -1.9843 -1.5667
  395MOL0     H54447   3.398   2.982  10.790  0.7905 -1.2237  2.2734
  395MOL0     H54448   3.516   3.074  10.688  1.5393  1.5059  1.7134
  395MOL0     H54449   3.667   2.862  10.772 -0.5435  1.3210  0.2871
  395MOL0     H54450   3.509   2.784  10.782  0.2645 -0.6999 -0.3489
  395MOL0     H54451   3.617   2.919  10.528 -0.5785  1.1427 -0.7254
  395MOL0     H54452   3.448   2.858  10.537  1.6522  1.8483 -1.9877
  395MOL0     H54453   3.709   2.709  10.540  0.2863 -0.2900 -3.1431
  395MOL0     H54454   3.575   2.636  10.616  1.7892 -0.3861  0.3271
  395MOL0     H54455   3.460   2.646  10.404  0.4502 -0.2915 -1.8828
  395MOL0     H54456   3.618   2.568  10.376 -2.2496 -0.9791 -1.2907
  395MOL0     H54457   3.566   2.848  10.309  2.7925  0.4964  4.6533
  395MOL0     H54458   3.724   2.771  10.288  0.3606  0.0996 -1.3627
  395MOL0     H54459   3.390   2.792  10.094 -0.7566  0.0264  0.0650
  395MOL0     H54460   3.516   2.747   9.750 -0.9205  2.7601 -0.5608
  395MOL0     H54461   3.376   2.807   9.820  2.2202  1.4084 -4.1733
  395MOL0     H54462   3.437   2.512   9.802  2.8879  3.5791  4.6665
  395MOL0     H54463   3.268   2.568   9.833 -0.0479 -2.0581 -1.4070
  395MOL0     H54464   3.392   2.653   9.569 -2.0494 -0.3290 -2.0939
  395MOL0     H54465   3.340   2.492   9.586  4.4797  0.8323 -1.1883
  395MOL0     H54466   3.163   2.627   9.483 -1.3500  1.9189  0.1072
  395MOL0     H54467   3.123   2.556   9.643  0.2743  0.2731  1.3636
  395MOL0     H54468   2.933   2.655   9.536  0.5585  0.7441 -2.7670
  395MOL0     H54469   2.595   2.768   9.528  0.8470 -1.5204  1.4141
  395MOL0     H54470   2.711   2.648   9.496  0.1767 -0.5952 -0.4925
  395MOL0     H54471   2.685   2.775   9.371  1.4324 -0.0301  0.3807
  395MOL0     H54472   2.639   3.443   9.534 -0.1227 -1.3738  1.6340
  395MOL0     H54473   2.443   3.554   9.485  1.2886 -1.6721 -3.4504
  395MOL0     H54474   2.237   3.668   9.543  0.1346 -3.0340  5.1906
  395MOL0     H54475   2.217   3.587   9.383 -0.8828  4.7587 -2.0932
  395MOL0     H54476   1.991   3.661   9.568 -0.2736 -1.7203  1.2545
  395MOL0     H54477   2.024   3.722   9.399  0.8391 -1.8942 -3.3866
  395MOL0     H54478   1.936   3.431   9.467  1.6425  0.3812  1.6851
  395MOL0     H54479   1.959   3.501   9.307 -2.4867  2.2458 -0.8371
  395MOL0     H54480   1.805   3.673   9.347  1.4762 -0.2728 -0.4304
  395MOL0     H54481   1.768   3.618   9.512 -0.5997  0.8698 -0.9772
  395MOL0     H54482   1.716   3.479   9.258 -1.2444  3.4585 -0.8922
  395MOL0     H54483   1.682   3.415   9.427 -1.8422 -0.0605  0.1132
  395MOL0     H54484   1.589   3.685   9.303  1.5667 -0.0684  0.7349
  395MOL0     H54485   1.551   3.621   9.463  3.6432  1.5431  1.1640
  395MOL0     H54486   1.435   3.414   9.322  1.8867 -1.0302  0.4343
  395MOL0     H54487   1.461   3.513   9.187 -0.0193  0.5765 -0.5157
  395MOL0     H54488   1.278   3.591   9.416  1.7705 -1.3233  0.3277
  395MOL0     H54489   1.232   3.530   9.260 -2.0879  0.6066  1.0430
  395MOL0     H54490   2.198   3.220   9.602  0.9419 -0.4319  0.1361
  395MOL0     H54491   2.408   3.078   9.596  2.5756  0.8019  0.4893
  395MOL0     H54492   2.922   3.132   9.650  2.2928 -0.5372  1.1511
  395MOL0     H54493   3.104   3.003   9.706 -1.4801 -0.8699  2.5134
  395MOL0     H54494   3.705   3.351  10.973  2.4497  0.6376  0.3270
  395MOL0     H54495   3.739   3.572  11.068  1.0344  0.1612  1.6612
  395MOL0     H54496   3.605   3.820  11.507 -0.5752  0.0059  0.7569
  395MOL0     H54497   3.646   4.027  11.612  0.8468 -2.5455  0.0923
  395MOL0     H54498   3.652   4.230  11.671 -1.2377  0.9593 -0.4243
  395MOL0     H54499   3.818   4.260  11.638 -1.5446 -4.4380  0.7603
  395MOL0     H54500   3.755   4.473  11.729  0.8937 -1.4868 -0.3607
  395MOL0     H54501   3.603   4.492  11.660 -0.1543  1.5933 -1.7408
  395MOL0     H54502   3.857   4.472  11.491  0.2032  0.1123  0.9421
  395MOL0     H54503   3.696   4.562  11.463 -1.6369 -1.4484  0.7781
  395MOL0     H54504   3.934   4.652  11.638 -0.2593 -0.8222  0.1998
  395MOL0     H54505   3.768   4.721  11.636  0.1074 -0.1840 -0.2643
  395MOL0     H54506   3.941   4.814  11.247  1.3496 -2.2054  0.1628
  395MOL0     H54507   3.657   4.245  11.256 -0.4099  0.7607  0.8525
  395MOL0     H54508   3.535   4.068  11.015  1.3586 -0.1307 -1.0024
  395MOL0     H54509   3.704   4.107  11.039  1.5893 -0.7570  3.1140
  395MOL0     H54510   3.664   3.942  11.025  0.6865  0.6213 -2.1901
  396MOL0     O54511  11.508   5.001   6.662  0.5211  0.0609  0.4844
  396MOL0     C54512  11.600   4.923   6.648  0.0770 -0.1976 -0.7291
  396MOL0     O54513  11.692   4.932   6.546 -0.7326  0.0596 -0.4557
  396MOL0     C54514  11.675   5.040   6.470 -0.9822  0.3256  0.0477
  396MOL0     C54515  11.632   5.023   6.335 -0.9706 -0.3629  0.5154
  396MOL0     C54516  11.624   5.125   6.242 -0.9611 -0.4911 -0.8542
  396MOL0     C54517  11.655   5.257   6.287  0.4823  0.2796  0.1457
  396MOL0     O54518  11.638   5.372   6.212 -0.4337  0.3496  0.3702
  396MOL0     C54519  11.754   5.461   6.214 -0.5166 -0.0283 -0.5656
  396MOL0     C54520  11.754   5.545   6.086  0.1568 -0.3842  0.3632
  396MOL0     C54521  11.699   5.684   6.093  0.8411 -1.2998 -0.7794
  396MOL0     C54522  11.815   5.788   6.100 -0.5347  0.5583 -0.0659
  396MOL0     C54523  11.758   5.930   6.077  0.0955 -1.0953 -0.7110
  396MOL0     C54524  11.708   5.964   5.942  0.4674  0.0148  0.3061
  396MOL0     C54525  11.613   6.082   5.944  0.0486 -0.0565  0.3892
  396MOL0     C54526  11.582   6.134   5.799 -0.0782 -0.8264  0.2177
  396MOL0     N54527  11.482   6.241   5.794 -0.1988 -0.1050 -0.2513
  396MOL0     C54528  11.356   6.219   5.816  0.1913  0.5843  0.8905
  396MOL0     C54529  11.291   6.337   5.783 -0.7286 -0.0084 -0.7548
  396MOL0     C54530  11.153   6.380   5.814 -0.0649 -0.4040  0.2998
  396MOL0     C54531  11.098   6.483   5.714 -0.0750 -0.5207 -0.4418
  396MOL0     C54532  11.120   6.630   5.759  1.0366  0.3502 -0.0734
  396MOL0     C54533  11.073   6.736   5.665  0.1827  0.9623  0.9853
  396MOL0     O54534  10.956   6.712   5.595 -0.1329 -0.7035 -0.1059
  396MOL0     C54535  10.871   6.804   5.556 -0.2614 -0.6486  0.2497
  396MOL0     C54536  10.734   6.784   5.550  0.1950 -0.1546  0.0165
  396MOL0     C54537  10.640   6.888   5.512  0.6958  0.3074  0.1901
  396MOL0     C54538  10.501   6.859   5.528 -0.1018 -0.1955 -0.6280
  396MOL0     C54539  10.700   7.014   5.477  0.7529 -0.1740  0.7418
  396MOL0     C54540  10.622   7.132   5.428 -1.0066  0.2290 -0.3591
  396MOL0     O54541  10.485   7.120   5.414 -0.5005  0.6916 -0.2581
  396MOL0     C54542  10.426   7.239   5.424  0.4959 -0.1314  0.3585
  396MOL0     C54543  10.357   7.302   5.321  0.1117 -0.4563 -0.4127
  396MOL0     C54544  10.294   7.428   5.332  0.3950  0.7681  0.0589
  396MOL0     C54545  10.286   7.490   5.455 -0.2342 -0.6913  0.0912
  396MOL0     O54546  10.222   7.603   5.467  0.0635 -0.0389  0.2650
  396MOL0     C54547  10.252   7.717   5.383  0.4078 -0.5461 -0.4963
  396MOL0     C54548  10.145   7.828   5.397  0.5598  0.6748  0.0750
  396MOL0     C54549  10.007   7.777   5.351 -0.2097 -1.0475  0.0363
  396MOL0     C54550   9.908   7.894   5.356 -0.3685  0.4227 -1.1232
  396MOL0     C54551   9.778   7.861   5.272  0.7988  0.5628  0.3112
  396MOL0     C54552   9.649   7.944   5.308 -0.0600 -0.6523  0.1230
  396MOL0     C54553   9.539   7.928   5.202  0.1155  0.1233 -0.2620
  396MOL0     C54554   9.405   7.992   5.235  0.1190  0.2755 -0.3645
  396MOL0    Cl54555   9.421   8.171   5.202 -0.5082  0.2773  0.2500
  396MOL0     C54556  10.346   7.428   5.565  1.1247  0.7659  0.6487
  396MOL0     C54557  10.420   7.304   5.549  0.2957  0.4274  0.7303
  396MOL0     O54558  10.686   7.235   5.401  0.0957  0.0975 -0.0133
  396MOL0     C54559  10.840   7.022   5.473  0.0728  0.2829  0.9909
  396MOL0     C54560  10.927   6.916   5.505  0.5081 -0.9549  0.0342
  396MOL0     N54561  11.390   6.424   5.746  0.3558  0.0444  0.1993
  396MOL0     N54562  11.505   6.369   5.758  0.8622  0.2889 -0.2455
  396MOL0     C54563  11.698   5.269   6.426  0.6200 -0.0915  0.6985
  396MOL0     C54564  11.701   5.165   6.515 -0.7885  1.2897  0.9776
  396MOL0     C54565  11.621   4.826   6.767 -0.2010  0.8272 -0.7865
  396MOL0     C54566  11.588   4.875   6.896  0.3811 -0.0812 -0.3499
  396MOL0     C54567  11.622   4.811   7.004  0.6835  0.8291 -1.1146
  396MOL0     C54568  11.681   4.682   7.004 -0.3995 -0.0819  0.6968
  396MOL0     O54569  11.696   4.604   7.116 -0.4545 -0.1067  0.2127
  396MOL0     C54570  11.815   4.646   7.185 -1.1299 -0.3408 -0.1112
  396MOL0     C54571  11.916   4.537   7.182  0.2967  0.3634  0.2308
  396MOL0     C54572  12.051   4.593   7.242 -0.2190 -0.0298 -0.7589
  396MOL0     C54573  12.126   4.468   7.307  0.5073 -0.7641 -0.5458
  396MOL0     C54574  12.178   4.380   7.204 -0.4812 -0.0394 -0.4943
  396MOL0     C54575  12.229   4.330   7.100 -0.0578  0.1023 -0.9620
  396MOL0     C54576  11.709   4.631   6.874 -0.0802 -1.1486 -0.1567
  396MOL0     C54577  11.695   4.704   6.753  0.1918  0.3523  0.0711
  396MOL0     C54578  11.742   4.648   6.624 -0.0361 -0.2208 -0.4257
  396MOL0     H54579  11.605   4.919   6.316 -1.9336 -0.0468  0.1050
  396MOL0     H54580  11.594   5.122   6.138 -0.3031  1.4413 -1.1520
  396MOL0     H54581  11.852   5.416   6.234 -1.0752  0.4294  4.4150
  396MOL0     H54582  11.733   5.531   6.295 -0.5785 -0.7222  0.0293
  396MOL0     H54583  11.859   5.548   6.056  0.5120 -0.9968  1.5057
  396MOL0     H54584  11.712   5.485   6.004 -1.8034  2.3971 -0.8203
  396MOL0     H54585  11.632   5.695   6.007 -0.0453 -2.0461 -0.2117
  396MOL0     H54586  11.632   5.706   6.177  1.3638 -0.0502 -0.6595
  396MOL0     H54587  11.859   5.767   6.198 -2.8704  0.3243  1.0144
  396MOL0     H54588  11.884   5.767   6.018 -1.3430 -1.1192 -0.3689
  396MOL0     H54589  11.838   5.998   6.107  0.3967 -1.6107 -0.3256
  396MOL0     H54590  11.671   5.939   6.143 -0.7586 -1.1225 -1.8063
  396MOL0     H54591  11.791   5.970   5.871 -0.0685 -1.8843 -0.5610
  396MOL0     H54592  11.640   5.886   5.905  3.7822 -1.1521 -4.2709
  396MOL0     H54593  11.655   6.156   6.013  1.3800 -1.0161  0.6469
  396MOL0     H54594  11.519   6.050   5.989 -1.9640  1.2349 -2.5894
  396MOL0     H54595  11.667   6.159   5.735  0.0084 -2.9305 -0.5780
  396MOL0     H54596  11.537   6.046   5.752 -1.0926 -0.5422  0.6332
  396MOL0     H54597  11.311   6.131   5.861  2.6703 -0.0539  2.3767
  396MOL0     H54598  11.150   6.411   5.919  0.8047  0.7945 -0.0130
  396MOL0     H54599  11.100   6.285   5.804  2.3393 -1.8457  0.4870
  396MOL0     H54600  11.137   6.473   5.612  0.1686  0.6734 -0.4866
  396MOL0     H54601  10.991   6.472   5.699  0.0994 -4.6873  0.2499
  396MOL0     H54602  11.077   6.624   5.859  0.5017 -2.8260 -0.3919
  396MOL0     H54603  11.229   6.644   5.758  0.8002  2.4799 -1.7256
  396MOL0     H54604  11.057   6.832   5.716  1.0445  2.2033 -0.9585
  396MOL0     H54605  11.148   6.752   5.588 -0.5223 -0.6541 -0.0966
  396MOL0     H54606  10.699   6.694   5.600 -3.4616 -1.6754 -4.5280
  396MOL0     H54607  10.480   6.755   5.555 -2.9915  0.3325 -0.5436
  396MOL0     H54608  10.463   6.881   5.428  0.3719  0.6544 -0.6359
  396MOL0     H54609  10.464   6.920   5.611  1.2609  1.0414 -0.9034
  396MOL0     H54610  10.364   7.242   5.231  0.8796  0.6555 -1.1168
  396MOL0     H54611  10.247   7.471   5.244  0.8737 -0.9347 -1.0872
  396MOL0     H54612  10.352   7.752   5.408  0.0111  0.6360 -0.5012
  396MOL0     H54613  10.253   7.690   5.277 -2.3544 -0.2523 -0.6647
  396MOL0     H54614  10.125   7.872   5.496 -2.5275 -1.7373  0.6907
  396MOL0     H54615  10.183   7.913   5.341 -1.7796  1.3704 -0.5503
  396MOL0     H54616   9.970   7.695   5.413 -2.3971 -0.7469 -0.7734
  396MOL0     H54617  10.026   7.740   5.249  2.0462  0.9071 -0.3367
  396MOL0     H54618   9.939   7.990   5.313 -1.3884  1.2584 -0.0483
  396MOL0     H54619   9.887   7.920   5.460  0.1134  0.6292 -1.0753
  396MOL0     H54620   9.795   7.879   5.165 -1.2274 -0.8151 -0.2995
  396MOL0     H54621   9.744   7.760   5.295  1.1120  0.5361  0.6712
  396MOL0     H54622   9.683   8.048   5.305  0.5904 -0.8306  0.8921
  396MOL0     H54623   9.616   7.931   5.412 -1.5560 -0.0549 -0.2582
  396MOL0     H54624   9.529   7.819   5.191  0.0154  0.0912  0.1511
  396MOL0     H54625   9.571   7.973   5.107  0.8135  0.7267  0.2443
  396MOL0     H54626   9.383   7.986   5.342  2.9254 -1.6577  0.2318
  396MOL0     H54627   9.332   7.944   5.169  0.7601  1.5701 -2.0805
  396MOL0     H54628  10.338   7.488   5.655 -0.5860  1.1919  0.2500
  396MOL0     H54629  10.464   7.261   5.639  0.6357 -3.4026 -1.0764
  396MOL0     H54630  10.882   7.112   5.430  0.0878  0.0127  0.4244
  396MOL0     H54631  11.035   6.916   5.503  0.6344  1.9486 -3.5116
  396MOL0     H54632  11.721   5.364   6.474  3.9166 -0.9220  1.0463
  396MOL0     H54633  11.745   5.169   6.615 -0.8368 -1.9669  1.2253
  396MOL0     H54634  11.531   4.966   6.906 -2.1246 -1.3710 -1.9508
  396MOL0     H54635  11.586   4.866   7.091  0.6751 -0.0209 -0.5690
  396MOL0     H54636  11.854   4.741   7.149 -1.2359  0.0372  0.7450
  396MOL0     H54637  11.787   4.656   7.290 -1.6250 -0.4536 -0.2278
  396MOL0     H54638  11.942   4.517   7.078  0.5367  1.6013  0.0425
  396MOL0     H54639  11.870   4.449   7.227 -2.6494  2.4650  1.6667
  396MOL0     H54640  12.118   4.629   7.163 -0.3941  0.7884 -0.5365
  396MOL0     H54641  12.032   4.673   7.313  2.4633  0.2445 -0.2592
  396MOL0     H54642  12.067   4.410   7.379 -0.5051 -0.7768 -1.3577
  396MOL0     H54643  12.217   4.497   7.358  1.7181 -1.6385 -2.1142
  396MOL0     H54644  12.272   4.290   7.010 -2.5880 -2.4386 -1.1837
  396MOL0     H54645  11.762   4.537   6.865 -0.3950 -1.6428  2.3461
  396MOL0     H54646  11.745   4.539   6.632  1.3665 -0.1855 -0.0819
  396MOL0     H54647  11.689   4.689   6.538 -1.6170 -0.7195  0.2827
  396MOL0     H54648  11.849   4.665   6.606 -0.2188 -0.2274 -1.5513
  397MOL0     O54649   3.188   5.771   4.936  0.6691  0.9235  0.5233
  397MOL0     C54650   3.219   5.846   5.025 -0.3622  0.0591 -0.3578
  397MOL0     O54651   3.171   5.971   5.044  0.4855 -0.6371  0.1115
  397MOL0     C54652   3.043   6.010   4.984 -0.4128 -0.8374  0.5236
  397MOL0     C54653   3.018   6.137   4.936  0.7504 -0.3973 -0.2450
  397MOL0     C54654   2.891   6.178   4.883 -0.7700 -0.0967 -0.2878
  397MOL0     C54655   2.785   6.094   4.885 -0.1914  0.2646 -0.1309
  397MOL0     O54656   2.656   6.140   4.833  0.4715  0.4301  0.4718
  397MOL0     C54657   2.538   6.061   4.869  0.1692 -0.1034 -0.0301
  397MOL0     C54658   2.414   6.112   4.826  1.1305 -0.0563  0.2027
  397MOL0     C54659   2.293   6.011   4.861 -0.7534 -1.3129 -0.4855
  397MOL0     C54660   2.151   6.083   4.832 -0.7783  0.1984 -0.1025
  397MOL0     C54661   2.040   5.983   4.825  0.4962  0.4839 -0.7358
  397MOL0     C54662   2.009   5.919   4.967 -0.8999  0.0400 -0.1056
  397MOL0     C54663   1.909   5.802   4.949  0.0031  0.0440  0.3095
  397MOL0     C54664   1.878   5.730   5.093  0.6175 -0.3161  0.1468
  397MOL0     N54665   1.777   5.619   5.080  0.0690  0.3478  0.4113
  397MOL0     C54666   1.789   5.489   5.123 -0.3597  0.0286  0.5271
  397MOL0     C54667   1.676   5.428   5.085  0.2322 -0.9933  0.5991
  397MOL0     C54668   1.621   5.288   5.105 -0.4311 -0.0882  0.4104
  397MOL0     C54669   1.688   5.228   5.238  0.4230  0.2607  0.2289
  397MOL0     C54670   1.643   5.089   5.276  0.0287 -0.9345 -1.4443
  397MOL0     C54671   1.714   5.048   5.407  0.1210 -0.0762  0.1679
  397MOL0     O54672   1.645   4.925   5.411 -0.7900  0.6826  0.2474
  397MOL0     C54673   1.687   4.817   5.484 -0.2662 -0.4486 -1.1342
  397MOL0     C54674   1.609   4.710   5.470 -0.9366  0.5798 -0.8548
  397MOL0     C54675   1.635   4.588   5.540 -0.0765 -0.2193 -0.1865
  397MOL0     C54676   1.529   4.480   5.529 -0.6984 -0.0621 -0.7735
  397MOL0     C54677   1.746   4.583   5.636  0.2203 -0.9882  0.6353
  397MOL0     C54678   1.782   4.467   5.721 -0.3751 -0.3158 -0.0817
  397MOL0     O54679   1.880   4.482   5.811  0.6816 -0.0358 -0.1110
  397MOL0     C54680   1.888   4.393   5.916 -0.0776 -0.0295  0.3200
  397MOL0     C54681   1.961   4.275   5.902 -0.5256  0.6175 -0.3362
  397MOL0     C54682   2.015   4.211   6.017 -0.3120 -0.1746  0.6973
  397MOL0     C54683   1.968   4.250   6.143  0.2266  0.4773  0.7166
  397MOL0     O54684   1.988   4.176   6.258 -0.5088  0.0694  0.0044
  397MOL0     C54685   2.049   4.239   6.374  0.6337 -0.3668  0.6943
  397MOL0     C54686   2.209   4.244   6.356  1.2041 -0.6931 -0.2674
  397MOL0     C54687   2.272   4.112   6.307  0.2068 -0.4933 -0.5006
  397MOL0     C54688   2.426   4.112   6.315  0.0539 -0.2550  0.5081
  397MOL0     C54689   2.467   4.062   6.451  0.4107  0.3888 -0.8068
  397MOL0     C54690   2.605   4.087   6.497 -0.5801 -0.8300 -0.1398
  397MOL0     C54691   2.717   4.098   6.390 -0.5049  0.3082 -0.4324
  397MOL0     C54692   2.853   4.120   6.447  1.0266  1.0518 -0.2105
  397MOL0    Cl54693   2.890   3.981   6.549 -0.5454  0.4223  0.1394
  397MOL0     C54694   1.889   4.359   6.152  0.0158 -0.1078  0.8891
  397MOL0     C54695   1.853   4.442   6.044  0.1174  0.6151  0.9674
  397MOL0     O54696   1.711   4.368   5.720  0.7807 -0.6452  0.3673
  397MOL0     C54697   1.833   4.698   5.643 -0.7375 -0.5836  0.1337
  397MOL0     C54698   1.801   4.818   5.576  0.4678 -0.1648  0.3111
  397MOL0     N54699   1.586   5.520   5.032 -0.8406 -0.2707  0.8978
  397MOL0     N54700   1.648   5.634   5.033  0.8154 -0.2876 -0.9935
  397MOL0     C54701   2.807   5.957   4.915  0.1167  0.1154  0.5060
  397MOL0     C54702   2.935   5.920   4.964 -0.4375  0.2522  0.1488
  397MOL0     C54703   3.327   5.801   5.114  0.2568  0.2483  0.7181
  397MOL0     C54704   3.378   5.889   5.208 -1.0897  0.5000  0.8337
  397MOL0     C54705   3.485   5.855   5.299 -0.3635 -0.3228  0.8046
  397MOL0     C54706   3.554   5.733   5.287 -0.0148 -0.6537  0.3773
  397MOL0     O54707   3.647   5.689   5.379  0.6704  0.9219  1.1815
  397MOL0     C54708   3.704   5.771   5.478 -0.7337 -0.1038 -1.4984
  397MOL0     C54709   3.802   5.687   5.562  0.4866 -0.3151  0.6258
  397MOL0     C54710   3.924   5.663   5.472  0.2504 -0.2680 -0.6821
  397MOL0     C54711   4.041   5.624   5.565  0.5219  0.2191  0.3403
  397MOL0     C54712   4.069   5.482   5.556 -1.5007  1.2416 -0.5918
  397MOL0     C54713   4.103   5.366   5.521 -0.0234 -0.8693  0.2255
  397MOL0     C54714   3.498   5.633   5.202  0.9160  0.2739  0.1254
  397MOL0     C54715   3.383   5.668   5.122 -0.1700  0.7901  0.2820
  397MOL0     C54716   3.336   5.562   5.033 -0.0170  0.1281  0.5720
  397MOL0     H54717   3.096   6.212   4.935  1.6984 -1.3549 -0.3944
  397MOL0     H54718   2.881   6.283   4.858 -0.3681  0.4589  1.7127
  397MOL0     H54719   2.545   6.042   4.976 -0.7206 -2.1084 -0.2847
  397MOL0     H54720   2.552   5.962   4.826 -0.3759 -0.5948  0.9071
  397MOL0     H54721   2.396   6.210   4.872  3.5684  0.3006  0.5276
  397MOL0     H54722   2.417   6.121   4.717  0.1305 -1.0481  0.0809
  397MOL0     H54723   2.299   5.922   4.797  2.2970 -1.4432 -0.1844
  397MOL0     H54724   2.295   5.985   4.967  0.9031 -1.5482 -0.5559
  397MOL0     H54725   2.123   6.148   4.916 -3.5198  0.0040 -0.7717
  397MOL0     H54726   2.150   6.141   4.740  1.1757  1.7731  0.8026
  397MOL0     H54727   2.071   5.914   4.746  2.4037  2.8930 -2.2779
  397MOL0     H54728   1.941   6.008   4.787 -1.7613 -2.3121  2.6818
  397MOL0     H54729   2.100   5.883   5.015 -0.8133  2.5561  1.8449
  397MOL0     H54730   1.949   5.981   5.035 -0.8705 -1.7141  1.6093
  397MOL0     H54731   1.955   5.730   4.880  1.1281 -0.7410  1.8303
  397MOL0     H54732   1.820   5.846   4.903  1.5910  1.1241 -1.9825
  397MOL0     H54733   1.966   5.688   5.142  0.9031  0.8698  0.6775
  397MOL0     H54734   1.830   5.796   5.165  0.6347  0.0566 -0.1797
  397MOL0     H54735   1.878   5.453   5.174 -0.0245 -0.7962 -0.6021
  397MOL0     H54736   1.637   5.238   5.008 -1.2294  3.2292 -1.6080
  397MOL0     H54737   1.513   5.295   5.123 -0.6400 -1.8563  0.0411
  397MOL0     H54738   1.795   5.220   5.217  0.3699 -2.2492  0.5571
  397MOL0     H54739   1.672   5.293   5.325  3.2893 -0.8869  1.7753
  397MOL0     H54740   1.536   5.098   5.298  0.6817  1.7245  1.3890
  397MOL0     H54741   1.674   5.018   5.199  2.6449  1.2552 -2.5994
  397MOL0     H54742   1.823   5.042   5.398  0.1588  1.3922 -0.7710
  397MOL0     H54743   1.695   5.109   5.496  1.1217 -0.3596  0.5927
  397MOL0     H54744   1.527   4.713   5.399 -1.5758  2.6306 -0.0994
  397MOL0     H54745   1.493   4.459   5.631 -1.3402 -3.2943 -1.5659
  397MOL0     H54746   1.570   4.390   5.482  0.5715  0.2898 -0.3883
  397MOL0     H54747   1.441   4.519   5.478 -1.1893  1.1899  0.9260
  397MOL0     H54748   1.978   4.249   5.798  0.6379 -1.8902  0.4089
  397MOL0     H54749   2.092   4.134   6.011 -0.0540  0.0030  1.4942
  397MOL0     H54750   1.999   4.332   6.403 -0.6121 -0.9396  0.4572
  397MOL0     H54751   2.046   4.170   6.459 -0.1995  0.8694  1.7001
  397MOL0     H54752   2.225   4.328   6.287  2.7626 -2.0740 -1.6868
  397MOL0     H54753   2.247   4.267   6.456 -0.6766 -1.6732  0.7290
  397MOL0     H54754   2.240   4.102   6.203 -3.5338 -0.9482  0.5645
  397MOL0     H54755   2.228   4.028   6.361  0.2430 -1.5134 -1.9915
  397MOL0     H54756   2.452   4.215   6.293 -2.4740  0.4995  0.6940
  397MOL0     H54757   2.458   4.041   6.238 -2.4546  0.8938 -1.7682
  397MOL0     H54758   2.394   4.101   6.523  1.7170 -0.3356  0.9700
  397MOL0     H54759   2.454   3.953   6.455 -0.5375  0.5107 -0.2768
  397MOL0     H54760   2.636   4.017   6.576 -0.5039 -1.6304 -0.8621
  397MOL0     H54761   2.593   4.182   6.550  2.7780 -0.7823  0.7680
  397MOL0     H54762   2.711   4.179   6.316  1.1395  2.2307  1.3737
  397MOL0     H54763   2.722   4.002   6.339  0.4318 -1.3498  2.5194
  397MOL0     H54764   2.853   4.215   6.501  0.1262  1.7439 -1.3834
  397MOL0     H54765   2.916   4.125   6.357  2.0314 -0.6199  0.3655
  397MOL0     H54766   1.843   4.393   6.244 -1.7746 -0.7882  0.3004
  397MOL0     H54767   1.799   4.535   6.057 -0.2259  0.1259  3.4300
  397MOL0     H54768   1.921   4.689   5.705  0.2342 -0.3300 -1.1598
  397MOL0     H54769   1.872   4.900   5.582  0.5802 -0.1672 -0.7356
  397MOL0     H54770   2.731   5.880   4.911 -0.4357  0.5323  2.1020
  397MOL0     H54771   2.944   5.818   4.999 -0.0092  0.7118  1.4419
  397MOL0     H54772   3.344   5.992   5.207 -0.3549  0.7433  0.1297
  397MOL0     H54773   3.536   5.928   5.362  0.8714  3.5608 -4.0338
  397MOL0     H54774   3.748   5.858   5.429  1.8584  0.0538  0.8307
  397MOL0     H54775   3.622   5.793   5.547  0.8103 -0.5520  0.5954
  397MOL0     H54776   3.768   5.597   5.614  1.7783  0.1793  2.4372
  397MOL0     H54777   3.837   5.745   5.647 -0.3831 -0.6916  1.2584
  397MOL0     H54778   3.907   5.586   5.396  1.6293 -0.3478 -0.9254
  397MOL0     H54779   3.950   5.749   5.409  2.1776 -0.3191 -0.0153
  397MOL0     H54780   4.018   5.664   5.664 -0.5651  1.7118 -0.4602
  397MOL0     H54781   4.132   5.678   5.537  1.0209 -0.5678  0.4319
  397MOL0     H54782   4.127   5.264   5.496  1.8093 -0.5104  0.3817
  397MOL0     H54783   3.535   5.531   5.206 -1.9995 -0.9789 -1.8076
  397MOL0     H54784   3.399   5.473   5.034 -0.1790 -0.0310 -0.9668
  397MOL0     H54785   3.230   5.537   5.038  0.5976 -2.7416  1.1253
  397MOL0     H54786   3.363   5.601   4.934 -3.1814  2.1210  0.3482
  398MOL0     O54787   0.653   9.033   4.639 -0.8847 -0.1741  0.6857
  398MOL0     C54788   0.652   9.150   4.664  1.2687 -0.1050 -0.1214
  398MOL0     O54789   0.540   9.226   4.642  0.0363  0.1354  0.8044
  398MOL0     C54790   0.457   9.189   4.537 -0.3457  0.6808 -0.4669
  398MOL0     C54791   0.449   9.267   4.425  0.3453 -0.1896 -0.4871
  398MOL0     C54792   0.373   9.226   4.321  0.4369  0.5088 -0.1487
  398MOL0     C54793   0.309   9.107   4.312  0.0302  0.3611  0.1791
  398MOL0     O54794   0.241   9.083   4.195  0.9537  0.1389  0.0760
  398MOL0     C54795   0.122   9.002   4.200 -0.0862  0.5438  0.1508
  398MOL0     C54796   0.179   8.866   4.161  0.4018  0.3020  0.8296
  398MOL0     C54797   0.214   8.876   4.002 -0.2173  0.4467  0.3957
  398MOL0     C54798   0.307   8.758   3.970  0.2661  0.3131 -0.5273
  398MOL0     C54799   0.321   8.744   3.821  0.4770 -0.2954 -0.2275
  398MOL0     C54800   0.443   8.653   3.779  0.3411  1.0148 -0.6401
  398MOL0     C54801   0.428   8.607   3.638 -0.7085  0.1301  0.1660
  398MOL0     C54802   0.529   8.499   3.590  1.0957 -1.1943  0.1033
  398MOL0     N54803   0.671   8.546   3.554 -0.8186  0.2881 -1.1845
  398MOL0     C54804   0.788   8.503   3.618 -0.1658 -0.2283  0.3253
  398MOL0     C54805   0.889   8.516   3.528 -0.3820 -0.0206  0.1139
  398MOL0     C54806   1.035   8.494   3.523  0.7323 -1.1428 -0.6574
  398MOL0     C54807   1.068   8.359   3.470  0.3788  0.5006 -0.1950
  398MOL0     C54808   1.211   8.337   3.444 -0.6517 -0.1182  0.0815
  398MOL0     C54809   1.229   8.227   3.336  0.7644  1.3371  0.1100
  398MOL0     O54810   1.147   8.109   3.374 -0.1199 -0.9214 -0.2492
  398MOL0     C54811   1.094   8.034   3.274  0.3115 -0.9850 -0.9621
  398MOL0     C54812   0.977   7.971   3.319 -0.0389  0.9644 -0.2073
  398MOL0     C54813   0.907   7.875   3.248  0.1019  0.7585  0.6455
  398MOL0     C54814   0.780   7.821   3.310 -0.2140 -0.1379  0.5213
  398MOL0     C54815   0.969   7.819   3.130  0.4461 -0.0467  0.3829
  398MOL0     C54816   0.894   7.709   3.060 -0.9491  0.3598  0.6255
  398MOL0     O54817   0.981   7.651   2.976 -0.0625  0.2899  0.2865
  398MOL0     C54818   0.949   7.535   2.913  0.2787  0.0427 -0.9497
  398MOL0     C54819   0.828   7.525   2.835 -0.7506  0.1006  0.9098
  398MOL0     C54820   0.800   7.404   2.764 -0.3830 -0.0982  0.1752
  398MOL0     C54821   0.884   7.295   2.768 -0.3745  0.1895 -1.2721
  398MOL0     O54822   0.860   7.182   2.697  0.5474  0.5108  0.5990
  398MOL0     C54823   0.726   7.152   2.647  0.2605  0.1099 -0.3785
  398MOL0     C54824   0.721   7.002   2.626  0.5000 -0.7376  0.4424
  398MOL0     C54825   0.834   6.956   2.534 -0.6711  0.2930 -0.2004
  398MOL0     C54826   0.815   6.806   2.535  1.0807  0.1106 -0.7288
  398MOL0     C54827   0.915   6.731   2.449 -1.0024 -0.1997  0.0818
  398MOL0     C54828   0.913   6.757   2.292 -0.2258  0.2759  0.1001
  398MOL0     C54829   1.034   6.677   2.234 -0.2663  0.5646 -0.5606
  398MOL0     C54830   1.029   6.518   2.249 -0.5452  0.4162  0.6004
  398MOL0    Cl54831   1.179   6.451   2.169  0.3295  0.8574  0.0972
  398MOL0     C54832   1.006   7.305   2.830 -0.3311 -1.0195  0.0669
  398MOL0     C54833   1.038   7.421   2.902 -0.9423 -0.0333 -0.7472
  398MOL0     O54834   0.780   7.672   3.080  1.2320  0.8377  0.2617
  398MOL0     C54835   1.094   7.876   3.090  0.4941 -0.3597 -0.0854
  398MOL0     C54836   1.150   7.987   3.158  0.1935  0.8646 -0.0393
  398MOL0     N54837   0.829   8.564   3.409 -0.2225 -0.5940 -0.3250
  398MOL0     N54838   0.702   8.595   3.432  0.3632 -0.1335  0.2758
  398MOL0     C54839   0.311   9.026   4.428 -0.6350  0.5344 -1.2132
  398MOL0     C54840   0.387   9.070   4.541 -0.4682 -0.3478 -0.1676
  398MOL0     C54841   0.762   9.210   4.741  0.1965 -0.5815 -0.0137
  398MOL0     C54842   0.743   9.327   4.816  0.5398  0.1830  0.1451
  398MOL0     C54843   0.848   9.387   4.884 -0.1040  0.5975  0.2173
  398MOL0     C54844   0.972   9.325   4.891 -0.4972  0.1141  0.0169
  398MOL0     O54845   1.077   9.368   4.969 -0.6424  0.1322 -0.3001
  398MOL0     C54846   1.043   9.428   5.094 -0.0920  0.1043  0.7195
  398MOL0     C54847   0.984   9.330   5.197  0.1342 -0.4084  0.6874
  398MOL0     C54848   0.986   9.399   5.342 -0.6185 -0.9764  0.1944
  398MOL0     C54849   0.907   9.530   5.354 -0.6042 -0.2414  0.7003
  398MOL0     C54850   0.776   9.539   5.280  0.1245  0.3318 -1.0700
  398MOL0     C54851   0.674   9.573   5.230  0.2025  0.1004  0.1457
  398MOL0     C54852   0.997   9.228   4.806  0.0952 -0.6471  0.6151
  398MOL0     C54853   0.895   9.170   4.727 -0.0007 -0.0089  0.1796
  398MOL0     C54854   0.938   9.059   4.633 -0.0479  0.1579 -0.1857
  398MOL0     H54855   0.497   9.364   4.421  0.5952 -0.3006 -0.2080
  398MOL0     H54856   0.361   9.293   4.237  2.8983  1.0347 -0.1331
  398MOL0     H54857   0.046   9.039   4.129 -0.7874  1.0689  1.1514
  398MOL0     H54858   0.085   9.000   4.303  0.8492  0.6432  0.4934
  398MOL0     H54859   0.270   8.851   4.219 -0.6344  1.2677  2.8038
  398MOL0     H54860   0.106   8.788   4.186  0.9510  0.3246  2.6100
  398MOL0     H54861   0.134   8.861   3.928  1.0112 -3.1772 -0.3928
  398MOL0     H54862   0.263   8.971   3.979  1.3780 -0.7894 -1.7115
  398MOL0     H54863   0.405   8.774   4.016  0.9437 -0.3147 -1.7086
  398MOL0     H54864   0.268   8.671   4.023  2.9915 -1.5322 -1.3748
  398MOL0     H54865   0.335   8.843   3.776  1.4243 -1.4799 -2.7367
  398MOL0     H54866   0.228   8.708   3.776  0.5731  1.4664 -1.9340
  398MOL0     H54867   0.533   8.714   3.788 -0.5556  2.4680 -1.2160
  398MOL0     H54868   0.440   8.567   3.847 -0.8775 -0.9149 -3.0153
  398MOL0     H54869   0.429   8.680   3.556  2.3148 -1.7716 -1.6930
  398MOL0     H54870   0.325   8.570   3.642  0.1965 -2.7612 -0.7432
  398MOL0     H54871   0.536   8.421   3.666  1.7688 -2.5592 -1.3158
  398MOL0     H54872   0.479   8.465   3.500  2.1722  0.7040 -1.2888
  398MOL0     H54873   0.797   8.465   3.719  2.6666  1.9365  1.0360
  398MOL0     H54874   1.079   8.523   3.619  0.2972 -0.0345 -0.7796
  398MOL0     H54875   1.082   8.553   3.444 -1.8559 -0.7832 -2.0555
  398MOL0     H54876   1.036   8.281   3.540  2.9557 -2.6530 -2.2581
  398MOL0     H54877   0.999   8.346   3.387 -3.1530 -0.2300  2.6039
  398MOL0     H54878   1.272   8.425   3.427  1.4123 -1.0867  1.9662
  398MOL0     H54879   1.258   8.294   3.533  0.3338 -2.3175 -1.4085
  398MOL0     H54880   1.196   8.275   3.244  0.1305  2.8250  1.0702
  398MOL0     H54881   1.337   8.207   3.330  0.8454  1.1221  1.6850
  398MOL0     H54882   0.940   7.999   3.417  0.4606 -1.0326  0.5988
  398MOL0     H54883   0.786   7.716   3.340 -0.6556  0.2827  2.1560
  398MOL0     H54884   0.698   7.844   3.241  0.9688 -0.9341 -1.2081
  398MOL0     H54885   0.764   7.882   3.400  0.1243  0.6104  0.0893
  398MOL0     H54886   0.770   7.616   2.832 -0.3099  0.3657 -0.1316
  398MOL0     H54887   0.708   7.387   2.709 -0.4124  0.0443  0.1812
  398MOL0     H54888   0.652   7.186   2.719  0.0469  3.1549 -1.8825
  398MOL0     H54889   0.695   7.208   2.558 -1.6963  0.8371  0.7050
  398MOL0     H54890   0.722   6.960   2.727 -1.6248  1.5477  1.5284
  398MOL0     H54891   0.621   6.983   2.586 -0.4032  2.9914  0.5578
  398MOL0     H54892   0.936   6.981   2.565 -0.0608  0.4399 -2.1958
  398MOL0     H54893   0.819   6.993   2.432 -1.3254  0.5284 -0.0168
  398MOL0     H54894   0.718   6.768   2.504  2.0391 -2.8266 -0.4328
  398MOL0     H54895   0.819   6.778   2.641 -1.3339  1.3118 -0.2458
  398MOL0     H54896   1.014   6.767   2.480  0.1697 -2.0270 -1.3199
  398MOL0     H54897   0.898   6.623   2.460 -0.7401 -0.1172  1.5189
  398MOL0     H54898   0.917   6.861   2.258 -1.1688  0.1953 -0.2896
  398MOL0     H54899   0.823   6.721   2.242  0.6385 -2.8515  0.6340
  398MOL0     H54900   1.125   6.715   2.283  2.2385 -3.2060 -1.8240
  398MOL0     H54901   1.051   6.701   2.129 -4.4709  2.6066 -0.9677
  398MOL0     H54902   0.942   6.476   2.198 -0.4433  1.4647 -0.4716
  398MOL0     H54903   1.027   6.493   2.355  2.6677 -2.4627  0.1406
  398MOL0     H54904   1.064   7.214   2.846 -1.9614 -1.9027  1.2953
  398MOL0     H54905   1.129   7.430   2.962 -1.2814  0.4249 -0.2946
  398MOL0     H54906   1.144   7.838   3.001  0.0610 -4.3570  1.1827
  398MOL0     H54907   1.245   8.028   3.124  0.6031  0.4783  0.6281
  398MOL0     H54908   0.257   8.932   4.438  1.1748 -0.3554  1.7235
  398MOL0     H54909   0.385   8.998   4.622 -0.4487  0.7272  0.8297
  398MOL0     H54910   0.642   9.367   4.820  0.5998  0.3435  0.0564
  398MOL0     H54911   0.818   9.482   4.926  4.3747  1.7667  1.2397
  398MOL0     H54912   1.128   9.481   5.139 -0.1657 -0.4130  1.4866
  398MOL0     H54913   0.970   9.510   5.089  0.8901  1.0156  0.8365
  398MOL0     H54914   1.046   9.240   5.193 -0.6857 -0.9617  0.0762
  398MOL0     H54915   0.880   9.302   5.180  0.3229 -2.2249  2.1472
  398MOL0     H54916   0.933   9.326   5.404 -1.6818 -1.3455 -1.0932
  398MOL0     H54917   1.092   9.409   5.367 -0.8008  0.9503  0.2939
  398MOL0     H54918   0.969   9.610   5.314 -0.7483 -1.2156 -1.6261
  398MOL0     H54919   0.894   9.558   5.459  0.2364 -0.9050  0.9924
  398MOL0     H54920   0.581   9.605   5.188  0.0444 -2.7518 -1.9009
  398MOL0     H54921   1.096   9.184   4.817 -0.5627 -2.9501 -1.8706
  398MOL0     H54922   0.918   9.094   4.531 -0.1066  1.1329  0.1496
  398MOL0     H54923   1.042   9.025   4.633  0.0363  0.2840  1.9957
  398MOL0     H54924   0.878   8.971   4.656 -0.6432  0.5158 -0.3632
  399MOL0     O54925   7.406   9.989   1.757 -0.1828  0.2920 -0.2937
  399MOL0     C54926   7.380  10.064   1.852  0.6628  0.2449 -0.3699
  399MOL0     O54927   7.452  10.175   1.874  0.7094 -0.7131 -0.1758
  399MOL0     C54928   7.523  10.229   1.769  0.4882 -1.4687  0.0810
  399MOL0     C54929   7.452  10.304   1.668 -0.0967 -0.6440 -1.3579
  399MOL0     C54930   7.516  10.362   1.560 -0.5111 -0.9752 -0.2193
  399MOL0     C54931   7.658  10.377   1.560  0.0687  0.7279  0.1950
  399MOL0     O54932   7.715  10.434   1.454 -0.4212  0.6022  0.0301
  399MOL0     C54933   7.859  10.464   1.441  0.2147  0.0760 -0.3647
  399MOL0     C54934   7.916  10.558   1.550 -0.8077  0.3729 -0.0825
  399MOL0     C54935   8.049  10.626   1.505  0.1359 -0.1518 -0.2159
  399MOL0     C54936   8.165  10.545   1.560  0.3420  0.6753 -0.4760
  399MOL0     C54937   8.306  10.595   1.522 -0.7959  0.1852 -0.6837
  399MOL0     C54938   8.409  10.494   1.565  0.1348  0.8625 -0.0517
  399MOL0     C54939   8.408  10.464   1.726 -0.0672  0.5377 -0.2977
  399MOL0     C54940   8.510  10.530   1.809  0.2061 -0.0353 -0.0607
  399MOL0     N54941   8.536  10.673   1.784  0.2758  0.2849  0.1977
  399MOL0     C54942   8.441  10.769   1.803  0.7036  0.2789  1.4253
  399MOL0     C54943   8.502  10.885   1.791 -0.4696  0.3798 -0.0826
  399MOL0     C54944   8.461  11.025   1.825 -0.0561  0.1544 -0.4740
  399MOL0     C54945   8.304  11.027   1.818 -0.5330  0.4288 -0.3794
  399MOL0     C54946   8.269  11.173   1.819  0.0004 -0.6275  0.5160
  399MOL0     C54947   8.115  11.195   1.809 -0.4105  0.6805  0.2977
  399MOL0     O54948   8.043  11.133   1.918  0.0936 -0.1096 -0.3603
  399MOL0     C54949   8.041  11.215   2.032  0.1335  0.1167 -0.0293
  399MOL0     C54950   8.102  11.341   2.041 -0.7279  0.0237  0.1480
  399MOL0     C54951   8.110  11.405   2.161  0.0096  0.8368 -0.7058
  399MOL0     C54952   8.185  11.529   2.157 -0.1244 -0.2486 -0.5394
  399MOL0     C54953   8.036  11.355   2.266 -0.6860  0.7044  0.8033
  399MOL0     C54954   8.028  11.430   2.386  1.2565 -0.3781  0.8339
  399MOL0     O54955   7.922  11.523   2.372  0.5812 -0.5897 -1.0627
  399MOL0     C54956   7.878  11.576   2.489 -0.8014 -0.7299 -0.3508
  399MOL0     C54957   7.853  11.713   2.507 -0.4392  0.0092 -0.9210
  399MOL0     C54958   7.781  11.762   2.617 -0.2829  0.9627  0.0688
  399MOL0     C54959   7.730  11.679   2.713  0.2671  0.1424 -1.1011
  399MOL0     O54960   7.656  11.741   2.812 -0.0522 -0.2899  0.7109
  399MOL0     C54961   7.660  11.685   2.945  0.3816 -0.4977 -0.1989
  399MOL0     C54962   7.552  11.748   3.028 -0.7083 -0.5381 -1.2547
  399MOL0     C54963   7.412  11.692   2.996  0.0711 -0.3829  0.0063
  399MOL0     C54964   7.298  11.797   3.027 -0.2773  0.4282 -0.3765
  399MOL0     C54965   7.307  11.901   2.912 -0.1326 -0.4194 -0.4956
  399MOL0     C54966   7.186  11.993   2.915  0.6412  0.1028  0.2033
  399MOL0     C54967   7.043  11.923   2.890  0.0880 -0.0662 -0.4127
  399MOL0     C54968   7.046  11.783   2.805  0.2473 -0.4490  0.6248
  399MOL0    Cl54969   6.887  11.724   2.784  0.2497 -0.1805  0.2144
  399MOL0     C54970   7.758  11.543   2.699 -0.1317  0.5292 -0.5545
  399MOL0     C54971   7.832  11.490   2.595  0.3621  0.7469 -0.1127
  399MOL0     O54972   8.103  11.408   2.476 -0.4519  0.7809 -0.5304
  399MOL0     C54973   7.982  11.228   2.269  0.2474 -0.2247  0.1381
  399MOL0     C54974   7.983  11.157   2.146 -0.9255  0.6574 -0.1757
  399MOL0     N54975   8.628  10.862   1.739  0.5252  0.2355 -1.1033
  399MOL0     N54976   8.646  10.736   1.747  0.1229  0.0453  1.0433
  399MOL0     C54977   7.724  10.304   1.669 -0.0547  0.4489 -0.0882
  399MOL0     C54978   7.659  10.234   1.771 -0.1331 -0.9027  0.6313
  399MOL0     C54979   7.250  10.029   1.922 -0.8856 -0.5529 -0.9586
  399MOL0     C54980   7.178   9.921   1.881 -0.0344  0.0208  0.1331
  399MOL0     C54981   7.065   9.864   1.940 -0.7001  0.1402 -0.2287
  399MOL0     C54982   7.006   9.930   2.040 -0.0430 -0.7093 -0.1003
  399MOL0     O54983   6.886   9.878   2.087  1.4459 -0.3734  0.1960
  399MOL0     C54984   6.833   9.913   2.216 -0.8698 -0.2338 -0.8729
  399MOL0     C54985   6.684   9.877   2.219  0.4897  1.3457 -0.2744
  399MOL0     C54986   6.663   9.763   2.313  0.6845 -0.0129  0.1597
  399MOL0     C54987   6.506   9.736   2.327 -0.7342  0.3034 -0.0200
  399MOL0     C54988   6.482   9.634   2.426 -0.3776  0.2620  0.1268
  399MOL0     C54989   6.468   9.553   2.508 -0.6169 -0.3974  0.4210
  399MOL0     C54990   7.071  10.049   2.085  0.1715 -0.1276  0.2697
  399MOL0     C54991   7.195  10.098   2.039 -0.8411 -0.8212 -0.0744
  399MOL0     C54992   7.258  10.210   2.121  0.3284 -1.3599 -0.0531
  399MOL0     H54993   7.343  10.300   1.666 -0.2967  2.0860 -3.5692
  399MOL0     H54994   7.461  10.397   1.474  3.5788  3.9297 -1.2771
  399MOL0     H54995   7.860  10.506   1.340  0.0628 -1.3009 -0.9640
  399MOL0     H54996   7.925  10.377   1.431  2.9393  1.8560  1.0443
  399MOL0     H54997   7.847  10.635   1.586  0.3497 -0.5368  4.6963
  399MOL0     H54998   7.951  10.504   1.638  3.8870  2.1936 -0.5110
  399MOL0     H54999   8.044  10.641   1.397  1.5695 -0.1730 -0.3041
  399MOL0     H55000   8.068  10.718   1.561  1.4352 -0.9275  0.6796
  399MOL0     H55001   8.163  10.553   1.669  2.6676 -1.2893 -0.2068
  399MOL0     H55002   8.158  10.437   1.545  3.9635  0.4570 -1.4783
  399MOL0     H55003   8.328  10.692   1.568 -2.6233  0.1074  0.4496
  399MOL0     H55004   8.323  10.607   1.415  2.1862  2.5921 -0.0841
  399MOL0     H55005   8.396  10.402   1.508  1.5036  0.4631  0.2392
  399MOL0     H55006   8.508  10.528   1.533 -0.4901 -0.5083 -3.9523
  399MOL0     H55007   8.434  10.359   1.740 -0.2111  0.7162  1.6614
  399MOL0     H55008   8.315  10.473   1.783  2.3974  2.1418  3.9595
  399MOL0     H55009   8.480  10.509   1.912 -2.5801  0.8341 -0.6134
  399MOL0     H55010   8.607  10.479   1.803  0.3176  0.3158 -1.5588
  399MOL0     H55011   8.337  10.752   1.830  0.6101  1.5181  1.8835
  399MOL0     H55012   8.514  11.099   1.764 -0.5966 -0.0231 -1.1694
  399MOL0     H55013   8.498  11.053   1.924 -0.1573 -1.9715  0.2176
  399MOL0     H55014   8.249  10.994   1.730 -0.2254  1.0915 -0.8186
  399MOL0     H55015   8.281  10.971   1.910  1.0732 -0.1576 -0.3037
  399MOL0     H55016   8.299  11.210   1.918  0.0251 -0.5845  0.4924
  399MOL0     H55017   8.315  11.225   1.734 -2.4099  0.7943 -0.0117
  399MOL0     H55018   8.089  11.297   1.778 -0.3261  0.1560 -1.6220
  399MOL0     H55019   8.090  11.128   1.726  2.7887 -4.5389  3.0311
  399MOL0     H55020   8.158  11.373   1.953  1.0259 -2.0376  0.4269
  399MOL0     H55021   8.240  11.528   2.251  1.2157 -0.9866 -1.3088
  399MOL0     H55022   8.113  11.611   2.168  1.5224  1.1483  0.2928
  399MOL0     H55023   8.245  11.530   2.065  1.0403 -0.7713  0.1969
  399MOL0     H55024   7.886  11.775   2.424 -0.6811  2.2273  0.5547
  399MOL0     H55025   7.771  11.870   2.630 -2.6225  0.7455  0.5689
  399MOL0     H55026   7.674  11.576   2.946  2.2078 -0.3379  2.5508
  399MOL0     H55027   7.752  11.724   2.990 -0.0651 -0.9808  1.1762
  399MOL0     H55028   7.568  11.730   3.135 -2.2478 -0.5813 -1.0133
  399MOL0     H55029   7.564  11.856   3.022  2.8337 -0.8116 -1.3044
  399MOL0     H55030   7.397  11.618   3.075 -0.8618 -0.3389 -0.1098
  399MOL0     H55031   7.397  11.664   2.891  0.0198 -3.0656  0.6593
  399MOL0     H55032   7.313  11.841   3.126 -2.6729  2.0814 -0.6549
  399MOL0     H55033   7.201  11.747   3.037  0.2306 -0.6930 -0.9446
  399MOL0     H55034   7.395  11.961   2.939 -2.7495  2.1415  3.4370
  399MOL0     H55035   7.313  11.850   2.816 -1.6097  0.0719 -0.8714
  399MOL0     H55036   7.190  12.066   2.833 -2.9977 -2.0001 -2.1328
  399MOL0     H55037   7.180  12.039   3.014  0.2838 -3.3156  1.9012
  399MOL0     H55038   6.981  12.000   2.844 -1.5637 -0.6241  0.7622
  399MOL0     H55039   6.998  11.915   2.989  1.5652  1.9703  0.4998
  399MOL0     H55040   7.099  11.711   2.867 -2.2078 -0.7031  2.5577
  399MOL0     H55041   7.091  11.803   2.707  0.9515  1.7747  1.3361
  399MOL0     H55042   7.719  11.477   2.776  0.0638  0.2648 -0.6830
  399MOL0     H55043   7.844  11.382   2.587  2.8620  0.9875 -0.4097
  399MOL0     H55044   7.927  11.182   2.350 -3.1664  0.8018 -1.3644
  399MOL0     H55045   7.952  11.054   2.134 -1.9205  1.1711 -2.5887
  399MOL0     H55046   7.833  10.302   1.670 -0.0520  0.5000 -0.3129
  399MOL0     H55047   7.724  10.184   1.842  1.2945  1.9788  1.5387
  399MOL0     H55048   7.203   9.857   1.797 -3.3213  1.3974 -2.1101
  399MOL0     H55049   7.018   9.773   1.905 -1.4712  1.1314 -1.8922
  399MOL0     H55050   6.887   9.880   2.305  1.1981  4.0970 -0.2278
  399MOL0     H55051   6.841  10.023   2.217  2.0029 -0.3350  1.4460
  399MOL0     H55052   6.658   9.833   2.123 -1.8286  0.8233  0.5213
  399MOL0     H55053   6.627   9.966   2.248 -0.1212  0.1284  2.7173
  399MOL0     H55054   6.714   9.684   2.257  0.6657  1.6480 -2.3078
  399MOL0     H55055   6.710   9.766   2.412  0.6243 -1.5830  0.2666
  399MOL0     H55056   6.462   9.701   2.234  0.1737 -1.8340  0.2959
  399MOL0     H55057   6.452   9.827   2.353 -1.1776 -0.0295  0.2404
  399MOL0     H55058   6.453   9.494   2.596 -0.4852 -3.4380 -1.4748
  399MOL0     H55059   7.030  10.103   2.170  2.2531 -0.9435  1.8945
  399MOL0     H55060   7.342  10.171   2.178  0.4247  0.8000  1.4201
  399MOL0     H55061   7.299  10.283   2.050  1.1936 -0.7259  1.0703
  399MOL0     H55062   7.189  10.257   2.192 -0.9551 -0.8561 -1.5431
  400MOL0     O55063   7.589   6.549   9.995 -0.1266  0.8099 -0.2991
  400MOL0     C55064   7.523   6.500  10.085  0.3508 -0.3396 -0.8285
  400MOL0     O55065   7.567   6.413  10.180 -0.0307 -0.5583 -0.4061
  400MOL0     C55066   7.693   6.373  10.168  0.0058  0.3410  0.2719
  400MOL0     C55067   7.776   6.383  10.282  0.3957  0.5569 -0.1766
  400MOL0     C55068   7.893   6.300  10.293 -0.0516 -0.1307  0.5688
  400MOL0     C55069   7.942   6.225  10.183 -0.0263 -0.8965  0.1857
  400MOL0     O55070   8.056   6.152  10.173 -0.3906 -0.4458 -0.1579
  400MOL0     C55071   8.138   6.115  10.288  0.0714 -0.1531 -0.1660
  400MOL0     C55072   8.275   6.065  10.243  0.3988 -0.0811 -1.4618
  400MOL0     C55073   8.341   6.162  10.143  0.2398 -0.1189  0.3542
  400MOL0     C55074   8.493   6.123  10.131  0.5622  0.0478  0.1670
  400MOL0     C55075   8.572   6.222  10.051 -0.5903 -0.2589  0.2209
  400MOL0     C55076   8.717   6.192  10.067 -0.5531 -0.9788  0.2002
  400MOL0     C55077   8.799   6.251   9.947  0.4196 -0.6256  0.0538
  400MOL0     C55078   8.951   6.221   9.959  0.0380  0.3896 -0.0534
  400MOL0     N55079   9.001   6.192   9.823  0.2266  0.0565  0.2557
  400MOL0     C55080   9.128   6.200   9.780  0.2287 -0.2418 -0.7513
  400MOL0     C55081   9.131   6.152   9.655  0.9021  0.5255 -0.1751
  400MOL0     C55082   9.256   6.138   9.568  0.9173 -0.7249 -0.4346
  400MOL0     C55083   9.354   6.036   9.619 -0.7623 -0.7744 -1.0660
  400MOL0     C55084   9.476   6.016   9.525  0.4398  0.9798 -0.0511
  400MOL0     C55085   9.585   6.124   9.536 -0.4953 -0.1190  0.1791
  400MOL0     O55086   9.681   6.099   9.428  0.3265 -0.3748  0.8874
  400MOL0     C55087   9.645   6.112   9.291  0.3276 -0.2148 -0.8342
  400MOL0     C55088   9.722   6.050   9.206 -0.3072 -0.4475  1.2944
  400MOL0     C55089   9.689   6.041   9.069  0.1785  0.9950  0.2498
  400MOL0     C55090   9.782   5.969   8.971  0.5659  0.4520 -0.1490
  400MOL0     C55091   9.563   6.094   9.022 -0.7883 -0.4641  0.0134
  400MOL0     C55092   9.544   6.098   8.879  0.3002 -0.6148 -0.0341
  400MOL0     O55093   9.409   6.077   8.848 -0.2550 -0.4584 -0.4461
  400MOL0     C55094   9.374   6.060   8.718 -0.4821  0.5392 -1.2075
  400MOL0     C55095   9.431   5.952   8.649  0.3976 -0.9377  0.3869
  400MOL0     C55096   9.362   5.901   8.539 -0.4501 -0.8874  0.8805
  400MOL0     C55097   9.248   5.975   8.497  0.0003  0.0468  0.6937
  400MOL0     O55098   9.159   5.926   8.403  0.1277  0.3824  0.0365
  400MOL0     C55099   9.098   5.803   8.453 -0.7360 -0.2812  0.2381
  400MOL0     C55100   8.986   5.781   8.354 -0.4643 -0.5752 -1.1160
  400MOL0     C55101   8.891   5.901   8.345 -0.3034 -0.0547 -0.6498
  400MOL0     C55102   8.753   5.867   8.294 -0.4182 -0.1480 -0.6528
  400MOL0     C55103   8.666   5.990   8.254 -0.4792 -0.1803 -0.7538
  400MOL0     C55104   8.637   6.088   8.363  0.0431 -0.0980  0.7031
  400MOL0     C55105   8.503   6.178   8.340  0.3941  0.9020  0.4665
  400MOL0     C55106   8.457   6.242   8.470 -0.2254  0.0127  1.2706
  400MOL0    Cl55107   8.312   6.327   8.418  0.0825  0.3268 -0.1766
  400MOL0     C55108   9.219   6.096   8.552  0.0245 -0.1478 -0.8885
  400MOL0     C55109   9.273   6.135   8.670 -0.0860  0.1523  1.4698
  400MOL0     O55110   9.627   6.140   8.797 -0.6390  0.2266 -0.4511
  400MOL0     C55111   9.476   6.156   9.112  0.0660 -0.0713  0.3684
  400MOL0     C55112   9.521   6.159   9.245 -0.2554 -0.4620 -0.5075
  400MOL0     N55113   9.004   6.109   9.624  0.0494  0.2477 -0.7387
  400MOL0     N55114   8.931   6.120   9.732 -0.0073  0.3558 -0.4878
  400MOL0     C55115   7.872   6.234  10.062 -0.1582 -0.1109 -0.4232
  400MOL0     C55116   7.740   6.300  10.066 -0.2872  1.0968 -1.0198
  400MOL0     C55117   7.391   6.553  10.108 -0.1438  0.5630  0.6666
  400MOL0     C55118   7.369   6.608  10.235 -0.0524  0.2254  0.8564
  400MOL0     C55119   7.254   6.669  10.264 -0.1384 -0.4119  0.0553
  400MOL0     C55120   7.150   6.656  10.176  1.0420  0.2909  0.0422
  400MOL0     O55121   7.024   6.696  10.207 -0.5052  0.1893 -0.5290
  400MOL0     C55122   6.998   6.831  10.205 -1.0428  0.7874 -0.3708
  400MOL0     C55123   6.850   6.842  10.181 -0.1314 -0.0205  0.1817
  400MOL0     C55124   6.803   6.983  10.240  0.5466  0.1363 -0.3282
  400MOL0     C55125   6.652   7.020  10.223 -0.9142  0.8973  0.5984
  400MOL0     C55126   6.636   7.087  10.100 -0.1243 -1.2100 -0.5727
  400MOL0     C55127   6.636   7.127   9.986  0.3059 -0.2619  0.4522
  400MOL0     C55128   7.159   6.602  10.054 -0.8131 -0.0529  0.2840
  400MOL0     C55129   7.288   6.554  10.017 -0.5917  0.4043 -0.4304
  400MOL0     C55130   7.295   6.491   9.880 -0.3314 -0.4695  0.2241
  400MOL0     H55131   7.731   6.438  10.365  0.0371 -1.1263  0.7788
  400MOL0     H55132   7.950   6.306  10.385 -0.5235  2.2652  0.7590
  400MOL0     H55133   8.082   6.050  10.356 -2.0643  1.2481 -0.4688
  400MOL0     H55134   8.143   6.204  10.352 -0.6930 -0.6997  0.6947
  400MOL0     H55135   8.330   6.063  10.337 -1.5284  0.1369 -0.2645
  400MOL0     H55136   8.280   5.962  10.206  3.8396 -1.0857  1.2752
  400MOL0     H55137   8.289   6.165  10.047 -0.9158 -0.9544  0.9380
  400MOL0     H55138   8.328   6.265  10.177 -4.6877 -1.3943  3.3009
  400MOL0     H55139   8.535   6.105  10.231 -0.4010  0.0493  0.5829
  400MOL0     H55140   8.508   6.027  10.083  0.9648 -0.4582  1.2635
  400MOL0     H55141   8.555   6.322  10.093  4.0687  0.9023 -0.1143
  400MOL0     H55142   8.534   6.215   9.949  1.5792  0.8154 -0.7321
  400MOL0     H55143   8.761   6.219  10.164 -2.8252 -0.0532  1.0288
  400MOL0     H55144   8.729   6.084  10.056  0.9507 -0.7280 -1.0570
  400MOL0     H55145   8.798   6.360   9.946  0.5642 -0.5890 -2.6636
  400MOL0     H55146   8.751   6.219   9.854 -0.0883 -0.6543  0.3251
  400MOL0     H55147   8.998   6.307  10.006 -1.5980 -0.6659  3.9309
  400MOL0     H55148   8.978   6.141  10.029  0.0451  0.6224  0.2082
  400MOL0     H55149   9.215   6.239   9.832 -0.3587  0.9136 -0.5939
  400MOL0     H55150   9.296   6.240   9.570  1.5965 -0.9238 -2.1315
  400MOL0     H55151   9.214   6.123   9.468 -3.8975 -0.6710  1.3306
  400MOL0     H55152   9.398   6.060   9.717 -2.5581 -1.4286 -0.0442
  400MOL0     H55153   9.293   5.946   9.631 -1.0203 -0.2719  2.5326
  400MOL0     H55154   9.521   5.919   9.548  2.9553  1.9558 -0.4614
  400MOL0     H55155   9.433   6.007   9.425 -0.4594 -3.8066  0.5298
  400MOL0     H55156   9.554   6.229   9.536  0.7063  0.3033  2.1421
  400MOL0     H55157   9.642   6.104   9.627 -0.8104 -1.5973  0.0619
  400MOL0     H55158   9.823   6.032   9.242  1.0814  5.1399  1.2446
  400MOL0     H55159   9.736   5.876   8.936 -2.9825  0.6916  3.2222
  400MOL0     H55160   9.868   5.935   9.028  1.7274  0.1380 -2.0098
  400MOL0     H55161   9.815   6.023   8.882  1.1729  1.2982  0.5746
  400MOL0     H55162   9.528   5.906   8.664  0.5317 -1.0615 -0.7959
  400MOL0     H55163   9.393   5.818   8.476 -0.5114 -0.2506 -0.0118
  400MOL0     H55164   9.175   5.726   8.446  1.8248  2.1804 -0.4720
  400MOL0     H55165   9.060   5.813   8.556  1.9024 -1.8624  1.4799
  400MOL0     H55166   9.044   5.767   8.263  1.3800  0.0380 -0.1108
  400MOL0     H55167   8.929   5.690   8.374 -3.3771  1.5832  1.2954
  400MOL0     H55168   8.929   5.973   8.272 -1.0880  2.3097  1.1233
  400MOL0     H55169   8.887   5.947   8.444  3.1169 -0.6954 -0.0948
  400MOL0     H55170   8.701   5.806   8.369 -1.4987 -1.3723 -2.3096
  400MOL0     H55171   8.765   5.812   8.200  1.9498  2.1291 -1.8030
  400MOL0     H55172   8.731   6.033   8.177  0.3387 -1.2492 -0.6855
  400MOL0     H55173   8.579   5.954   8.198  0.2749 -1.1573 -1.3216
  400MOL0     H55174   8.722   6.158   8.358 -0.9815  1.1665  0.3955
  400MOL0     H55175   8.643   6.043   8.463 -0.1026 -0.7048  0.4411
  400MOL0     H55176   8.416   6.125   8.299  1.8122  2.2097 -5.1952
  400MOL0     H55177   8.527   6.251   8.261 -0.3429  0.5046 -0.1393
  400MOL0     H55178   8.540   6.301   8.511  1.0182 -1.8509  1.5361
  400MOL0     H55179   8.436   6.163   8.543 -0.7141  0.8437  2.0552
  400MOL0     H55180   9.132   6.145   8.510  0.5811  0.8547 -0.8826
  400MOL0     H55181   9.228   6.216   8.726  0.0424  0.9250  0.4957
  400MOL0     H55182   9.386   6.201   9.070  1.2435  3.7308  1.4895
  400MOL0     H55183   9.450   6.202   9.315 -0.1317  0.4124 -0.9127
  400MOL0     H55184   7.908   6.175   9.978 -0.6875 -1.7994  0.5035
  400MOL0     H55185   7.675   6.281   9.981 -1.0305 -1.5921  0.0205
  400MOL0     H55186   7.454   6.629  10.299  0.7981  3.5737 -1.0853
  400MOL0     H55187   7.243   6.728  10.354 -2.7354  0.4880 -0.7529
  400MOL0     H55188   7.039   6.895  10.283  1.3534 -1.9473  0.7933
  400MOL0     H55189   7.054   6.859  10.115  0.2632  1.3775  0.6131
  400MOL0     H55190   6.802   6.767  10.245  0.4471 -1.4259 -0.9838
  400MOL0     H55191   6.829   6.827  10.075  0.3087  3.3472 -0.4820
  400MOL0     H55192   6.834   6.976  10.344  0.9674 -2.4313 -0.5660
  400MOL0     H55193   6.863   7.066  10.200  3.0965 -1.7323 -0.6315
  400MOL0     H55194   6.628   7.081  10.310 -1.1864  2.5568 -0.5917
  400MOL0     H55195   6.583   6.936  10.223 -2.5010  2.1083 -0.9224
  400MOL0     H55196   6.636   7.151   9.882  2.1625  0.9212  0.6680
  400MOL0     H55197   7.086   6.600   9.974  1.3301 -0.5358 -1.7764
  400MOL0     H55198   7.208   6.430   9.856  1.2839 -3.1302  0.6829
  400MOL0     H55199   7.305   6.573   9.808  1.0057 -1.4035 -0.7005
  400MOL0     H55200   7.385   6.428   9.881  1.3361  1.7886  1.2364
  401MOL0     O55201   6.691   0.862   1.299 -0.3423  0.6189  0.3515
  401MOL0     C55202   6.588   0.877   1.362  0.5637 -1.2035 -0.1371
  401MOL0     O55203   6.575   0.855   1.494 -0.1420 -0.6197 -0.3679
  401MOL0     C55204   6.676   0.804   1.566 -0.1001 -1.0284  0.3042
  401MOL0     C55205   6.773   0.904   1.597  0.0180  0.3682 -0.0288
  401MOL0     C55206   6.882   0.874   1.680  0.6881 -0.6196  0.1962
  401MOL0     C55207   6.906   0.746   1.725 -0.1926  1.1099  0.0859
  401MOL0     O55208   7.013   0.716   1.805 -0.2388 -0.2039  0.1616
  401MOL0     C55209   7.004   0.600   1.888  0.2686  0.6535 -0.5613
  401MOL0     C55210   7.118   0.611   1.982 -0.6509  0.1228 -0.6455
  401MOL0     C55211   7.088   0.722   2.097 -0.0650 -0.0648  0.3737
  401MOL0     C55212   7.197   0.729   2.191 -0.4345 -0.1441  0.2578
  401MOL0     C55213   7.202   0.854   2.279 -0.3849 -0.8013 -0.2078
  401MOL0     C55214   7.323   0.887   2.357 -0.3545  0.1573 -0.8262
  401MOL0     C55215   7.289   0.974   2.478  0.6571  0.2008 -0.2162
  401MOL0     C55216   7.414   0.996   2.583 -0.5836 -0.5023 -0.0763
  401MOL0     N55217   7.540   1.025   2.501 -0.8257 -0.2980  0.5436
  401MOL0     C55218   7.623   0.913   2.455  0.1463  0.1657 -0.2861
  401MOL0     C55219   7.735   0.975   2.416 -0.3729  1.4453 -0.5826
  401MOL0     C55220   7.848   0.892   2.352 -0.4100 -0.2834  0.0626
  401MOL0     C55221   7.941   0.820   2.455 -0.6137  1.0146  0.0450
  401MOL0     C55222   8.051   0.728   2.398  0.8144 -0.4875 -0.7849
  401MOL0     C55223   8.175   0.795   2.335 -0.3830 -0.3347 -0.1123
  401MOL0     O55224   8.129   0.878   2.233  0.2133  0.4951  0.1399
  401MOL0     C55225   8.212   0.954   2.159 -0.2526 -0.4339 -0.6459
  401MOL0     C55226   8.172   0.997   2.031  0.6603  0.1824 -0.4825
  401MOL0     C55227   8.254   1.077   1.945 -0.2738 -0.0110 -0.1685
  401MOL0     C55228   8.203   1.100   1.804 -0.7198  0.3414 -0.9389
  401MOL0     C55229   8.378   1.124   1.999  1.3688 -0.1546 -0.0070
  401MOL0     C55230   8.459   1.210   1.914  0.7808  0.5794  0.6991
  401MOL0     O55231   8.414   1.308   1.836 -0.8229 -0.9464 -0.3061
  401MOL0     C55232   8.497   1.387   1.759 -0.4098  0.0848 -0.5953
  401MOL0     C55233   8.446   1.441   1.643  0.5185 -1.0675  0.1476
  401MOL0     C55234   8.507   1.543   1.559 -0.1194  0.7121 -0.4595
  401MOL0     C55235   8.640   1.578   1.594 -0.4822  0.1953 -0.9946
  401MOL0     O55236   8.719   1.671   1.529 -0.1555 -0.8331 -0.6680
  401MOL0     C55237   8.830   1.630   1.449  0.4730  1.1866 -0.9552
  401MOL0     C55238   8.898   1.763   1.413  0.4591 -0.6396 -1.2025
  401MOL0     C55239   9.027   1.737   1.342 -1.4351  0.3923  0.8018
  401MOL0     C55240   9.010   1.668   1.208 -0.5184  0.1762  0.0303
  401MOL0     C55241   9.142   1.657   1.147 -0.4609  0.2590  0.1340
  401MOL0     C55242   9.228   1.542   1.200 -0.7573 -0.1600 -0.3368
  401MOL0     C55243   9.366   1.560   1.132  0.4407 -1.0810 -0.7118
  401MOL0     C55244   9.453   1.682   1.182  0.1945 -0.8480  0.6437
  401MOL0    Cl55245   9.613   1.678   1.112 -0.4459 -0.2179 -0.5151
  401MOL0     C55246   8.704   1.510   1.705 -0.5055 -0.9131 -0.1150
  401MOL0     C55247   8.628   1.420   1.787  0.1626  0.4590 -0.5579
  401MOL0     O55248   8.578   1.178   1.930 -0.3259  0.2497  0.4406
  401MOL0     C55249   8.415   1.084   2.131  0.1748  0.0143  0.5487
  401MOL0     C55250   8.343   1.001   2.207  1.0330  0.1558 -0.6977
  401MOL0     N55251   7.722   1.114   2.433 -1.0022  0.5491  0.1496
  401MOL0     N55252   7.608   1.142   2.468  0.6962  0.7272 -0.7434
  401MOL0     C55253   6.817   0.649   1.681 -0.3174 -0.2150  1.0118
  401MOL0     C55254   6.700   0.681   1.610  0.0335  0.2191  0.3043
  401MOL0     C55255   6.458   0.923   1.296 -0.4381 -0.3327  0.4611
  401MOL0     C55256   6.358   0.992   1.370  0.0754  0.3392 -0.5726
  401MOL0     C55257   6.241   1.049   1.306 -0.1281 -0.1782  0.5846
  401MOL0     C55258   6.229   1.048   1.170 -0.5355 -0.2343 -0.2922
  401MOL0     O55259   6.137   1.140   1.118 -0.5432  0.4115 -0.1506
  401MOL0     C55260   6.112   1.149   0.976 -0.9795 -0.3035 -0.2805
  401MOL0     C55261   6.220   1.236   0.920 -0.5841 -0.0697 -0.0134
  401MOL0     C55262   6.200   1.247   0.764 -0.3871  0.4842  0.2496
  401MOL0     C55263   6.259   1.127   0.683  0.4903  0.0580  0.7866
  401MOL0     C55264   6.237   1.163   0.543  0.4711 -0.0319  0.1098
  401MOL0     C55265   6.188   1.200   0.438 -0.1991  0.0403  0.5062
  401MOL0     C55266   6.325   0.979   1.090  0.0390  0.7273 -0.5037
  401MOL0     C55267   6.444   0.929   1.154  0.4627 -0.1756  0.0503
  401MOL0     C55268   6.542   0.873   1.059  0.2072  0.8571  0.1320
  401MOL0     H55269   6.775   1.003   1.554 -0.0528 -1.0243 -3.5558
  401MOL0     H55270   6.954   0.952   1.702 -0.3023  0.4551 -0.2648
  401MOL0     H55271   7.022   0.512   1.825 -0.1802  0.9574 -1.1216
  401MOL0     H55272   6.914   0.593   1.949  0.4491  0.0772 -0.3482
  401MOL0     H55273   7.127   0.516   2.036 -0.2021 -0.3330 -1.5136
  401MOL0     H55274   7.210   0.625   1.926 -0.8155 -1.6878 -1.4548
  401MOL0     H55275   7.087   0.819   2.046 -0.7403 -0.9899 -1.4567
  401MOL0     H55276   6.988   0.713   2.142  0.2260  4.2055  2.4227
  401MOL0     H55277   7.192   0.646   2.262  0.0350  0.3375  0.8727
  401MOL0     H55278   7.293   0.723   2.139  1.2016  4.3186  2.2185
  401MOL0     H55279   7.115   0.872   2.343 -0.1215  0.2404 -0.1153
  401MOL0     H55280   7.208   0.932   2.202 -0.8721 -2.3268 -1.8642
  401MOL0     H55281   7.368   0.797   2.400  0.1002  0.5435 -0.4758
  401MOL0     H55282   7.406   0.931   2.301 -0.6180  1.6805 -0.0797
  401MOL0     H55283   7.202   0.954   2.540  0.5137  2.9378  0.6102
  401MOL0     H55284   7.273   1.071   2.430 -0.7740 -1.2532 -2.8955
  401MOL0     H55285   7.386   1.079   2.648 -0.9387  0.3503 -1.2883
  401MOL0     H55286   7.438   0.908   2.644  2.0298  1.0923  1.3784
  401MOL0     H55287   7.599   0.809   2.439 -0.9310  0.2890  0.4297
  401MOL0     H55288   7.907   0.955   2.285 -0.7389  1.1664  1.0820
  401MOL0     H55289   7.807   0.817   2.284 -1.9947 -2.3927  3.1297
  401MOL0     H55290   7.996   0.898   2.508 -0.9806  0.4420  1.3060
  401MOL0     H55291   7.883   0.762   2.527  2.4177  1.0086  2.6646
  401MOL0     H55292   8.082   0.654   2.472  1.9356  1.9954  1.3686
  401MOL0     H55293   8.000   0.669   2.321 -0.7232  1.7007 -1.5482
  401MOL0     H55294   8.240   0.855   2.400  1.5815  2.5387 -4.2427
  401MOL0     H55295   8.248   0.731   2.285 -0.8329 -2.3528  1.6638
  401MOL0     H55296   8.074   0.957   2.008  0.1582  0.9685  0.2269
  401MOL0     H55297   8.211   0.999   1.762  0.6377 -0.4876  1.1599
  401MOL0     H55298   8.255   1.173   1.740 -0.0603  0.5080 -0.2248
  401MOL0     H55299   8.095   1.116   1.810 -0.5288  1.2861  4.6391
  401MOL0     H55300   8.342   1.410   1.643 -0.1385  1.0002 -0.6423
  401MOL0     H55301   8.446   1.591   1.483  0.7749 -0.2355 -1.8354
  401MOL0     H55302   8.895   1.560   1.502 -1.9123 -0.4016  0.0060
  401MOL0     H55303   8.785   1.573   1.368 -0.3733  0.9510 -0.3305
  401MOL0     H55304   8.835   1.830   1.355  0.2966  0.4440  0.1808
  401MOL0     H55305   8.928   1.816   1.504  0.2416  0.0629 -1.5346
  401MOL0     H55306   9.098   1.682   1.406  3.9368  2.8255 -2.3966
  401MOL0     H55307   9.074   1.834   1.326 -0.8490 -0.1331 -0.8954
  401MOL0     H55308   8.941   1.727   1.146  0.9789  0.2519 -1.6383
  401MOL0     H55309   8.963   1.570   1.219 -0.6619  0.4940  3.7723
  401MOL0     H55310   9.130   1.640   1.040  2.3418  1.2264 -0.4068
  401MOL0     H55311   9.191   1.754   1.157  0.4117 -0.1271 -0.3202
  401MOL0     H55312   9.185   1.448   1.165 -0.5017  0.2419 -1.7995
  401MOL0     H55313   9.240   1.556   1.308  1.7832  1.0151 -0.7018
  401MOL0     H55314   9.359   1.573   1.024  1.8617  1.8688 -0.5518
  401MOL0     H55315   9.407   1.461   1.153 -3.7393 -2.3322  3.3267
  401MOL0     H55316   9.462   1.669   1.290 -0.4789 -0.4926  0.7534
  401MOL0     H55317   9.406   1.780   1.164 -1.5013 -1.9965 -1.8071
  401MOL0     H55318   8.807   1.541   1.721 -0.9013  0.6420 -0.4248
  401MOL0     H55319   8.673   1.381   1.878  0.3711  1.3533 -0.2694
  401MOL0     H55320   8.504   1.128   2.175  1.1165  0.0553 -1.3266
  401MOL0     H55321   8.369   0.970   2.308 -4.5357  0.3682  1.1298
  401MOL0     H55322   6.830   0.544   1.704 -0.2155 -0.2767  0.6919
  401MOL0     H55323   6.622   0.608   1.589 -0.9248  0.3842  2.8666
  401MOL0     H55324   6.367   1.000   1.478  0.8266  2.9122 -0.7693
  401MOL0     H55325   6.169   1.111   1.357 -0.5546  0.6303 -0.9307
  401MOL0     H55326   6.128   1.055   0.923  4.5157 -0.2810  0.7346
  401MOL0     H55327   6.016   1.199   0.960 -1.3894 -1.0248 -0.0796
  401MOL0     H55328   6.322   1.206   0.946 -0.8020  0.7877  1.9714
  401MOL0     H55329   6.198   1.331   0.970 -0.4730 -1.2712  2.4915
  401MOL0     H55330   6.093   1.254   0.741 -0.3509  0.3101  0.0241
  401MOL0     H55331   6.247   1.336   0.722  4.5809 -2.8070 -2.0511
  401MOL0     H55332   6.199   1.038   0.702 -0.0618 -0.3932 -2.4933
  401MOL0     H55333   6.367   1.117   0.698  0.5794 -0.4901 -0.1660
  401MOL0     H55334   6.171   1.223   0.335  1.5775 -4.0336 -0.9224
  401MOL0     H55335   6.321   0.985   0.982 -2.5073 -0.9746 -0.6040
  401MOL0     H55336   6.575   0.770   1.079  2.9381  1.0671 -2.5829
  401MOL0     H55337   6.496   0.867   0.960  1.7846 -0.3859 -0.5843
  401MOL0     H55338   6.628   0.938   1.045  2.4585 -1.6890  1.0732
  402MOL0     O55339   0.108   2.332   7.049  0.5292 -0.4662  0.1392
  402MOL0     C55340   0.016   2.274   6.990  0.0945 -0.2575  0.0409
  402MOL0     O55341  -0.054   2.167   7.037  0.0236  0.0374  0.3297
  402MOL0     C55342  -0.032   2.119   7.164 -0.0943 -0.1809 -0.1492
  402MOL0     C55343  -0.038   1.980   7.190 -0.0721 -0.3995 -0.0970
  402MOL0     C55344  -0.046   1.928   7.324  0.2301 -1.3329  1.4299
  402MOL0     C55345  -0.010   2.011   7.432  0.1875 -0.5369  0.0229
  402MOL0     O55346   0.006   1.955   7.561 -0.1411 -0.5538 -0.2475
  402MOL0     C55347   0.028   2.021   7.686  0.2366 -0.3060 -0.5074
  402MOL0     C55348   0.164   2.083   7.711  0.8122 -0.0755  0.7433
  402MOL0     C55349   0.169   2.165   7.846  1.4214 -0.0483 -0.2448
  402MOL0     C55350   0.277   2.277   7.834  0.8911  0.2203 -0.6882
  402MOL0     C55351   0.305   2.336   7.969 -0.0900  1.1883  0.5477
  402MOL0     C55352   0.432   2.435   7.954 -0.6627 -0.1032  0.4023
  402MOL0     C55353   0.451   2.500   8.091 -0.2561 -0.8471 -0.3731
  402MOL0     C55354   0.559   2.407   8.163  0.3446 -1.1829 -0.4213
  402MOL0     N55355   0.588   2.469   8.294  0.5563 -0.5212  0.9293
  402MOL0     C55356   0.705   2.525   8.329 -1.1066 -1.6472 -0.7132
  402MOL0     C55357   0.696   2.556   8.464 -0.0442 -0.0767 -0.1902
  402MOL0     C55358   0.799   2.625   8.551  0.3633 -0.7031 -0.7170
  402MOL0     C55359   0.839   2.755   8.503  0.1823 -0.1557 -0.4283
  402MOL0     C55360   0.965   2.760   8.414  0.9377 -0.2836 -0.5432
  402MOL0     C55361   0.929   2.810   8.278 -0.5541  0.0665 -0.3479
  402MOL0     O55362   0.866   2.941   8.285 -0.0789 -0.6441  0.7602
  402MOL0     C55363   0.759   2.972   8.205  1.0524 -1.4697 -0.3522
  402MOL0     C55364   0.667   3.076   8.232 -0.4189 -1.0800  0.2509
  402MOL0     C55365   0.555   3.099   8.152  1.0637  0.3150  1.1849
  402MOL0     C55366   0.446   3.193   8.200 -0.0550 -0.5581 -0.5653
  402MOL0     C55367   0.538   3.029   8.033  0.8087  0.1717  0.4464
  402MOL0     C55368   0.423   3.057   7.949 -0.5580  0.6898 -0.7820
  402MOL0     O55369   0.437   3.130   7.836 -0.1753  0.1978 -0.4782
  402MOL0     C55370   0.337   3.204   7.780  0.3300  0.2738  0.2073
  402MOL0     C55371   0.282   3.310   7.849  0.0938  0.3432 -0.1067
  402MOL0     C55372   0.171   3.388   7.804 -0.4539  0.0331  0.4195
  402MOL0     C55373   0.130   3.362   7.672 -0.5114  0.1043  0.3339
  402MOL0     O55374   0.056   3.460   7.600  0.3544  0.0030 -0.1577
  402MOL0     C55375   0.110   3.596   7.593 -0.7602 -0.7630 -1.1851
  402MOL0     C55376   0.091   3.676   7.468 -0.5569 -0.2905  0.4771
  402MOL0     C55377  -0.044   3.747   7.467  0.0829  0.3450 -0.0944
  402MOL0     C55378  -0.066   3.828   7.341  0.6964  0.7731  0.5788
  402MOL0     C55379  -0.201   3.898   7.345 -0.0470  0.2795  0.4653
  402MOL0     C55380  -0.312   3.832   7.250  0.7305  0.1638 -0.2908
  402MOL0     C55381  -0.449   3.846   7.303 -0.2786 -0.7388  0.5172
  402MOL0     C55382  -0.549   3.767   7.223 -0.3948  0.2687  0.0035
  402MOL0    Cl55383  -0.543   3.591   7.254 -0.0796  0.1576 -0.1309
  402MOL0     C55384   0.188   3.252   7.599 -0.8905  0.1420 -0.4982
  402MOL0     C55385   0.292   3.177   7.649 -0.9106  0.3392  0.1119
  402MOL0     O55386   0.313   3.024   8.000 -0.3450  0.6467 -0.6574
  402MOL0     C55387   0.636   2.940   7.989  0.0404  0.1257  0.1221
  402MOL0     C55388   0.735   2.910   8.083  1.2065 -0.6264  0.3228
  402MOL0     N55389   0.567   2.526   8.513  0.6474  0.1461 -0.1232
  402MOL0     N55390   0.510   2.463   8.408  0.1489  0.4572  0.2497
  402MOL0     C55391   0.007   2.150   7.404  0.1286 -0.6137 -0.0719
  402MOL0     C55392  -0.018   2.201   7.276 -0.3030  0.3485  0.3451
  402MOL0     C55393  -0.023   2.320   6.850 -0.6125 -0.2783  0.2727
  402MOL0     C55394  -0.157   2.311   6.821  0.2730  0.6402 -0.6326
  402MOL0     C55395  -0.210   2.365   6.707  0.6603 -0.3364  0.1211
  402MOL0     C55396  -0.119   2.440   6.622  0.5122  0.8819  0.1713
  402MOL0     O55397  -0.161   2.508   6.504  0.5567 -0.2284 -0.1092
  402MOL0     C55398  -0.277   2.599   6.519 -0.4825  0.1397  0.1412
  402MOL0     C55399  -0.222   2.743   6.525  0.5956  0.0023 -0.1681
  402MOL0     C55400  -0.312   2.835   6.440 -0.3591  0.4642  0.1958
  402MOL0     C55401  -0.453   2.845   6.492  0.7082 -0.4288 -0.0339
  402MOL0     C55402  -0.541   2.775   6.402 -0.2749 -0.6664  0.1998
  402MOL0     C55403  -0.607   2.729   6.314  1.1007  0.4414  0.2782
  402MOL0     C55404   0.016   2.435   6.648  0.6555 -1.4249  0.1960
  402MOL0     C55405   0.066   2.367   6.757  0.2526 -1.3724 -0.5136
  402MOL0     C55406   0.227   2.366   6.772  0.7547  0.5075 -0.6011
  402MOL0     H55407  -0.070   1.904   7.119 -1.7668 -2.9766  3.1538
  402MOL0     H55408  -0.088   1.832   7.353  0.0792 -2.1788 -1.3341
  402MOL0     H55409   0.003   1.953   7.768  2.2074 -1.7161 -1.0226
  402MOL0     H55410  -0.049   2.096   7.706  3.2864  3.2074 -0.8977
  402MOL0     H55411   0.243   2.008   7.714  1.2524  0.1179 -2.5438
  402MOL0     H55412   0.194   2.151   7.630 -0.5733 -1.8255 -1.3374
  402MOL0     H55413   0.064   2.195   7.857  1.5130  0.2306 -0.1323
  402MOL0     H55414   0.182   2.088   7.923  1.2353 -0.1894 -0.3536
  402MOL0     H55415   0.362   2.229   7.784  0.8750  0.8037 -1.2959
  402MOL0     H55416   0.242   2.355   7.766  1.1936  1.5687  0.6513
  402MOL0     H55417   0.320   2.252   8.038 -0.0333  2.4530  2.1346
  402MOL0     H55418   0.214   2.387   8.003 -1.8186  0.1461 -2.2110
  402MOL0     H55419   0.513   2.372   7.915 -2.6258 -2.1526 -0.5840
  402MOL0     H55420   0.419   2.513   7.879  0.5492  2.4899  2.7055
  402MOL0     H55421   0.362   2.495   8.154  0.5834  0.0073  0.9364
  402MOL0     H55422   0.477   2.606   8.083 -2.8186  0.0983  2.0086
  402MOL0     H55423   0.522   2.305   8.179  0.0540 -0.7477  2.0056
  402MOL0     H55424   0.653   2.410   8.109 -1.4491  0.9257 -3.7905
  402MOL0     H55425   0.791   2.527   8.262  0.2857 -1.8245  1.0126
  402MOL0     H55426   0.877   2.551   8.572  1.2998  0.3597 -0.3395
  402MOL0     H55427   0.752   2.644   8.648 -0.1490 -2.9313 -0.4660
  402MOL0     H55428   0.751   2.801   8.457  0.9928  0.5623 -1.2987
  402MOL0     H55429   0.865   2.816   8.590 -1.3903  0.2512 -0.2231
  402MOL0     H55430   1.029   2.838   8.457  0.0294  1.5635 -2.3535
  402MOL0     H55431   1.014   2.662   8.411 -0.2580 -0.9072 -0.2393
  402MOL0     H55432   1.011   2.808   8.206  0.6330 -3.1544  0.9502
  402MOL0     H55433   0.864   2.725   8.255 -1.6475  0.4845  1.0243
  402MOL0     H55434   0.694   3.138   8.317 -1.7288 -1.5482  1.0306
  402MOL0     H55435   0.378   3.246   8.133 -2.2182  0.4506  2.2304
  402MOL0     H55436   0.493   3.274   8.256 -0.1573 -0.4718 -0.6029
  402MOL0     H55437   0.387   3.136   8.274  0.7664 -0.8327 -0.1017
  402MOL0     H55438   0.326   3.340   7.943  2.7006 -0.9247 -0.8146
  402MOL0     H55439   0.115   3.465   7.855 -2.1786 -1.7424  1.3470
  402MOL0     H55440   0.059   3.632   7.682 -0.9592 -2.9938 -0.3501
  402MOL0     H55441   0.215   3.610   7.622  0.0402  0.0463 -4.0648
  402MOL0     H55442   0.177   3.744   7.463  2.6697 -4.0393 -2.5094
  402MOL0     H55443   0.101   3.624   7.372  2.7173  1.5041 -0.3070
  402MOL0     H55444  -0.042   3.822   7.547  2.1169  0.0628  0.1768
  402MOL0     H55445  -0.121   3.671   7.481  0.5225  0.5350  5.3323
  402MOL0     H55446  -0.071   3.765   7.251 -0.5611  2.9306 -0.9550
  402MOL0     H55447   0.020   3.895   7.333  2.2686 -1.2970 -0.8307
  402MOL0     H55448  -0.237   3.896   7.448  2.3139 -1.6456  1.3411
  402MOL0     H55449  -0.188   4.004   7.319  0.5159  0.2189  0.4736
  402MOL0     H55450  -0.297   3.724   7.245 -1.8678 -0.2133 -2.8681
  402MOL0     H55451  -0.309   3.873   7.149 -0.5589  0.3734 -0.2648
  402MOL0     H55452  -0.465   3.954   7.302  4.6114  0.5759 -6.1615
  402MOL0     H55453  -0.458   3.813   7.407  0.0987 -2.3834  0.0661
  402MOL0     H55454  -0.536   3.792   7.118 -0.5959  0.0770 -0.0668
  402MOL0     H55455  -0.652   3.796   7.248 -1.3788 -1.1313 -2.1929
  402MOL0     H55456   0.158   3.240   7.495  2.2788 -0.0727 -1.5062
  402MOL0     H55457   0.349   3.109   7.585 -0.1818  2.1391 -1.2360
  402MOL0     H55458   0.624   2.873   7.904 -3.7207 -0.6004  1.0467
  402MOL0     H55459   0.798   2.827   8.051  0.3063 -0.7040 -1.3545
  402MOL0     H55460   0.041   2.208   7.490 -1.4913 -2.2157  1.7711
  402MOL0     H55461  -0.023   2.308   7.258  2.0480  0.3857 -0.4736
  402MOL0     H55462  -0.209   2.259   6.901  2.5155 -2.9807 -1.2866
  402MOL0     H55463  -0.310   2.335   6.678 -0.1686  2.8867 -0.8541
  402MOL0     H55464  -0.350   2.576   6.440  0.1723  0.6582 -0.6400
  402MOL0     H55465  -0.343   2.575   6.602 -0.9768 -1.3896 -0.6551
  402MOL0     H55466  -0.118   2.755   6.494  0.5036  0.5598 -0.2646
  402MOL0     H55467  -0.222   2.774   6.631 -0.9904  0.5554 -0.2989
  402MOL0     H55468  -0.266   2.934   6.431  1.6226 -0.2708  1.6750
  402MOL0     H55469  -0.313   2.795   6.338 -2.1927 -3.1055  1.4430
  402MOL0     H55470  -0.479   2.951   6.488 -0.2360 -0.6846 -1.5730
  402MOL0     H55471  -0.470   2.817   6.597 -1.1697  1.7677  0.3354
  402MOL0     H55472  -0.671   2.684   6.240  0.8952 -1.9194  1.7850
  402MOL0     H55473   0.082   2.479   6.574  2.0558 -0.2316  2.0553
  402MOL0     H55474   0.267   2.340   6.673 -2.2308  1.2698 -2.1468
  402MOL0     H55475   0.254   2.462   6.818 -2.3798  0.9223  0.5875
  402MOL0     H55476   0.253   2.294   6.849 -2.8626  2.0813  2.4008
  403MOL0     O55477   7.191   2.537   9.742 -0.7319 -0.5284  0.1110
  403MOL0     C55478   7.202   2.592   9.854  0.0785  0.0496  0.0482
  403MOL0     O55479   7.310   2.563   9.938 -0.9674 -0.2469 -0.0217
  403MOL0     C55480   7.382   2.452   9.902  0.6274 -0.3405 -0.9466
  403MOL0     C55481   7.490   2.456   9.819  1.3361 -0.1140  0.1347
  403MOL0     C55482   7.554   2.331   9.788  0.3645  0.1692 -0.4438
  403MOL0     C55483   7.509   2.214   9.853 -0.2245 -0.0089 -0.4178
  403MOL0     O55484   7.563   2.092   9.824  0.5865  0.1944  0.4960
  403MOL0     C55485   7.596   2.055   9.685  0.3048 -0.4631 -1.0175
  403MOL0     C55486   7.560   1.904   9.648  0.6225 -0.0870  0.3064
  403MOL0     C55487   7.648   1.837   9.542 -0.2062  0.7389  0.4907
  403MOL0     C55488   7.627   1.683   9.529 -0.3995 -0.4239 -0.0865
  403MOL0     C55489   7.729   1.622   9.432  0.3167  0.7484  0.3426
  403MOL0     C55490   7.667   1.511   9.343  0.5209 -0.1053  0.7262
  403MOL0     C55491   7.558   1.565   9.252  0.3995 -0.1956 -0.8119
  403MOL0     C55492   7.538   1.483   9.127  1.2257  0.2937  0.1380
  403MOL0     N55493   7.393   1.489   9.088 -0.4041  0.0354 -0.5255
  403MOL0     C55494   7.329   1.604   9.039 -0.5713 -0.3910 -0.4549
  403MOL0     C55495   7.200   1.570   9.015 -0.4733 -0.1311 -0.6811
  403MOL0     C55496   7.080   1.656   8.974 -0.2911 -0.3603  0.0187
  403MOL0     C55497   6.967   1.647   9.083  1.4137 -0.1185 -0.5468
  403MOL0     C55498   7.011   1.704   9.215  0.3265 -0.5894  0.3072
  403MOL0     C55499   6.933   1.666   9.336  0.1050  0.6878  0.4058
  403MOL0     O55500   6.980   1.682   9.465  0.1330  0.7488  0.3706
  403MOL0     C55501   7.088   1.606   9.514  0.6047 -0.3569  0.3954
  403MOL0     C55502   7.130   1.630   9.643  0.1268 -0.2705  0.5486
  403MOL0     C55503   7.241   1.562   9.700  1.2030  0.0888 -0.5192
  403MOL0     C55504   7.281   1.608   9.840 -0.3279 -0.0298  0.5150
  403MOL0     C55505   7.312   1.474   9.617  0.2595  0.0956  0.5336
  403MOL0     C55506   7.411   1.378   9.682  0.1358 -0.1166 -0.0915
  403MOL0     O55507   7.383   1.244   9.669 -0.1873 -0.5884 -0.7563
  403MOL0     C55508   7.448   1.144   9.739  1.1607 -0.6624 -0.7413
  403MOL0     C55509   7.457   1.163   9.878 -0.9544  0.1870  0.1130
  403MOL0     C55510   7.518   1.067   9.957  0.0326  0.3788  0.5717
  403MOL0     C55511   7.584   0.960   9.901  0.2269 -0.2471  0.7412
  403MOL0     O55512   7.655   0.873   9.982 -0.0248  0.4181  0.0558
  403MOL0     C55513   7.766   0.939  10.051 -0.3432 -0.1441  0.2333
  403MOL0     C55514   7.898   0.940   9.974  0.2427  0.5917  0.3690
  403MOL0     C55515   7.958   0.799   9.950  0.2482  0.2789 -0.5573
  403MOL0     C55516   7.989   0.718  10.072 -0.4554 -0.6345  0.2061
  403MOL0     C55517   8.115   0.633  10.037 -0.0167 -0.2869  0.3723
  403MOL0     C55518   8.150   0.551  10.163 -0.2790  0.0736  0.0898
  403MOL0     C55519   8.288   0.488  10.146 -0.2129  0.0133  0.3096
  403MOL0     C55520   8.363   0.451  10.282  0.2173 -0.0785 -0.1465
  403MOL0    Cl55521   8.474   0.587  10.323 -0.4967 -0.2015  0.1155
  403MOL0     C55522   7.587   0.950   9.765  0.4741 -0.6098  0.7842
  403MOL0     C55523   7.508   1.033   9.679  0.0542  0.2023  0.4620
  403MOL0     O55524   7.512   1.420   9.733 -0.1697  0.6142 -0.3313
  403MOL0     C55525   7.261   1.429   9.493 -0.3961 -0.0723  0.3847
  403MOL0     C55526   7.154   1.501   9.442  0.2747 -0.1105  0.2826
  403MOL0     N55527   7.187   1.438   9.043 -0.3125  0.9788 -0.2567
  403MOL0     N55528   7.300   1.393   9.086  0.1135 -1.1761  0.2473
  403MOL0     C55529   7.405   2.217   9.950 -0.5628  0.5502  0.3442
  403MOL0     C55530   7.344   2.335   9.971 -0.2521  0.5047 -0.0897
  403MOL0     C55531   7.098   2.689   9.891  0.1791 -0.2208  0.1668
  403MOL0     C55532   6.980   2.675   9.823  0.0191 -0.2606  0.4356
  403MOL0     C55533   6.866   2.752   9.851  0.0223  0.0364 -0.0433
  403MOL0     C55534   6.867   2.858   9.942  0.0367  0.1449 -1.2559
  403MOL0     O55535   6.742   2.915   9.980  0.4603 -1.1112  0.0358
  403MOL0     C55536   6.662   2.963   9.862  0.4067 -0.0193 -0.5596
  403MOL0     C55537   6.602   3.096   9.909  0.9226 -0.0693  0.3839
  403MOL0     C55538   6.528   3.086  10.039 -0.5011  0.1841  0.6434
  403MOL0     C55539   6.384   3.150  10.011  0.1525  0.0088 -0.0832
  403MOL0     C55540   6.298   3.125  10.125  0.2200 -0.2352 -0.0105
  403MOL0     C55541   6.228   3.113  10.226  0.3601  0.7130 -0.7070
  403MOL0     C55542   6.976   2.866  10.029 -1.6502  0.4941  0.1537
  403MOL0     C55543   7.097   2.781   9.999  1.2214 -0.6789  1.1548
  403MOL0     C55544   7.211   2.783  10.097  0.4194  0.1825 -0.3490
  403MOL0     H55545   7.516   2.546   9.764  1.7171 -1.9068 -2.8929
  403MOL0     H55546   7.643   2.331   9.726  0.1508 -0.6414 -0.7716
  403MOL0     H55547   7.706   2.061   9.686  0.2250  2.3466 -2.3590
  403MOL0     H55548   7.564   2.129   9.612 -0.8056  0.0906  0.0120
  403MOL0     H55549   7.558   1.840   9.737  1.6439 -2.4606 -1.2707
  403MOL0     H55550   7.457   1.893   9.613 -0.3197  0.7261  2.6423
  403MOL0     H55551   7.630   1.873   9.440  0.2093 -3.1094 -1.1186
  403MOL0     H55552   7.751   1.867   9.561  0.0445  1.9434 -2.2220
  403MOL0     H55553   7.638   1.634   9.626 -0.9846 -0.5977 -0.1039
  403MOL0     H55554   7.525   1.669   9.493  0.1068  0.4693 -1.9784
  403MOL0     H55555   7.810   1.588   9.497  0.9847  3.2380  0.9364
  403MOL0     H55556   7.763   1.700   9.363 -2.6902  0.9227 -1.1480
  403MOL0     H55557   7.745   1.469   9.280  0.1660  0.7493 -0.3188
  403MOL0     H55558   7.626   1.445   9.420 -0.1207  2.5142  2.8139
  403MOL0     H55559   7.571   1.667   9.215 -1.2097  0.3801  0.1193
  403MOL0     H55560   7.464   1.561   9.307  0.8632 -0.9099 -0.0346
  403MOL0     H55561   7.596   1.531   9.048 -0.6760  3.9881  0.7913
  403MOL0     H55562   7.563   1.378   9.147 -2.7384 -0.8176  0.2207
  403MOL0     H55563   7.376   1.700   9.022 -2.4787  0.2316 -2.8035
  403MOL0     H55564   7.041   1.614   8.882 -2.7545 -0.1801  0.9123
  403MOL0     H55565   7.120   1.758   8.968 -1.6880  0.3889  2.2194
  403MOL0     H55566   6.883   1.705   9.044 -0.5914 -2.3798  0.2469
  403MOL0     H55567   6.936   1.544   9.098  0.8579 -0.0048 -0.9006
  403MOL0     H55568   7.115   1.676   9.233  0.3317  0.2767  1.7768
  403MOL0     H55569   7.000   1.812   9.198  2.5901 -0.5840 -1.6468
  403MOL0     H55570   6.840   1.723   9.331 -0.7747 -0.7624 -0.3806
  403MOL0     H55571   6.908   1.560   9.326  1.1000  0.6514 -3.1991
  403MOL0     H55572   7.089   1.713   9.700 -0.2520 -1.1168  1.5501
  403MOL0     H55573   7.336   1.701   9.851 -0.8704  0.4675 -0.7955
  403MOL0     H55574   7.349   1.534   9.883  0.9481  0.3703 -0.7248
  403MOL0     H55575   7.186   1.609   9.895 -0.9225  2.6801 -0.4062
  403MOL0     H55576   7.418   1.242   9.942 -0.7357  0.7035 -0.3939
  403MOL0     H55577   7.522   1.096  10.061 -0.4777  0.8203  0.4671
  403MOL0     H55578   7.734   1.041  10.071 -2.7575 -0.8958  0.5696
  403MOL0     H55579   7.781   0.906  10.154 -1.6682  2.3734  1.3164
  403MOL0     H55580   7.890   0.995   9.880 -0.4445 -0.0227  0.0647
  403MOL0     H55581   7.972   0.998  10.031 -0.3425  1.7718 -0.0364
  403MOL0     H55582   8.052   0.802   9.893 -0.3313 -2.2037 -1.8006
  403MOL0     H55583   7.891   0.739   9.888 -0.0778 -0.9037  0.9038
  403MOL0     H55584   7.913   0.656  10.121 -2.0338  0.2133 -1.0872
  403MOL0     H55585   8.018   0.792  10.147  3.1102 -0.8093 -0.8204
  403MOL0     H55586   8.112   0.571   9.948 -1.0023  0.1745  0.0718
  403MOL0     H55587   8.192   0.710  10.027 -1.5286  1.2115 -0.0501
  403MOL0     H55588   8.077   0.475  10.193 -0.5060 -0.9477 -2.7851
  403MOL0     H55589   8.144   0.611  10.255  1.2325  0.1973  0.1390
  403MOL0     H55590   8.343   0.565  10.092 -1.7559  0.2140 -1.0699
  403MOL0     H55591   8.283   0.397  10.085 -2.9273 -0.2243  0.7365
  403MOL0     H55592   8.415   0.355  10.284  2.0695  0.8184  2.9755
  403MOL0     H55593   8.291   0.430  10.361  0.9304  0.1552  0.5766
  403MOL0     H55594   7.656   0.875   9.729  2.8929  1.6855  0.3037
  403MOL0     H55595   7.497   1.016   9.573  0.9114 -0.4798  0.4626
  403MOL0     H55596   7.299   1.342   9.441 -1.3312  1.2370 -2.7555
  403MOL0     H55597   7.120   1.470   9.343 -2.7516 -0.3434  1.2983
  403MOL0     H55598   7.364   2.125   9.991  2.6736 -0.7823  0.9010
  403MOL0     H55599   7.267   2.342  10.047 -1.0674 -0.1772 -0.8322
  403MOL0     H55600   6.960   2.585   9.767 -0.8897  0.6006 -0.6645
  403MOL0     H55601   6.769   2.725   9.811 -0.1288  2.9167 -1.8630
  403MOL0     H55602   6.731   2.992   9.783 -3.3541  0.8025 -3.8324
  403MOL0     H55603   6.588   2.892   9.825 -1.4601  2.6408 -2.3144
  403MOL0     H55604   6.532   3.135   9.835 -1.9368  1.7648  3.7533
  403MOL0     H55605   6.688   3.164   9.902  1.8772 -1.3253 -0.7454
  403MOL0     H55606   6.535   2.981  10.067  1.6919 -1.4157 -4.6859
  403MOL0     H55607   6.568   3.153  10.117  0.9793  2.4938 -1.9182
  403MOL0     H55608   6.329   3.108   9.926 -0.0839 -2.7953  1.3112
  403MOL0     H55609   6.392   3.257   9.992 -0.2795 -0.2416 -1.7931
  403MOL0     H55610   6.163   3.090  10.308  1.0055  3.0134  0.5630
  403MOL0     H55611   6.971   2.918  10.124  2.4425 -1.6202  1.7856
  403MOL0     H55612   7.207   2.690  10.155  0.1590  0.5053  0.1588
  403MOL0     H55613   7.299   2.795  10.034 -0.1424  0.6646 -1.0652
  403MOL0     H55614   7.210   2.862  10.172  5.7158  0.3911 -0.1863
  404MOL0     O55615   0.129   8.513   1.555  0.7133  0.0582  0.6176
  404MOL0     C55616   0.154   8.439   1.647  0.1415  0.3204  0.2630
  404MOL0     O55617   0.099   8.432   1.774  0.3034  0.1115 -0.6774
  404MOL0     C55618  -0.008   8.505   1.802 -1.0780  0.1732  0.0660
  404MOL0     C55619  -0.112   8.432   1.877  0.1426 -0.1420  0.7633
  404MOL0     C55620  -0.216   8.498   1.934 -0.0552  0.8318  0.6994
  404MOL0     C55621  -0.236   8.635   1.910 -0.3838  0.4061  1.1991
  404MOL0     O55622  -0.348   8.709   1.936 -0.1456 -0.1701 -0.7513
  404MOL0     C55623  -0.432   8.668   2.043  0.6055  0.4898 -0.1396
  404MOL0     C55624  -0.532   8.772   2.078  0.0942  1.2253  0.1217
  404MOL0     C55625  -0.621   8.825   1.957  0.3354  0.5222 -1.2190
  404MOL0     C55626  -0.715   8.919   2.018 -0.2402 -0.7955 -0.3480
  404MOL0     C55627  -0.817   8.962   1.914 -0.8150  0.2644 -0.1629
  404MOL0     C55628  -0.761   9.088   1.827 -0.5945 -0.3502 -0.3378
  404MOL0     C55629  -0.842   9.094   1.688  0.4377 -0.6627 -0.1283
  404MOL0     C55630  -0.769   9.005   1.582  0.1386  0.5972 -0.3083
  404MOL0     N55631  -0.830   8.951   1.462  0.4302 -0.0728  0.9238
  404MOL0     C55632  -0.873   9.015   1.350  0.2282  0.0021 -0.4516
  404MOL0     C55633  -0.913   8.923   1.265  0.7020  0.3950 -0.7223
  404MOL0     C55634  -0.964   8.939   1.125 -0.0099  0.7818 -0.3910
  404MOL0     C55635  -0.841   8.927   1.036 -0.3236 -0.2166  0.2278
  404MOL0     C55636  -0.872   8.952   0.886  0.7914  1.1367  0.6919
  404MOL0     C55637  -0.752   8.910   0.807 -0.0684  0.0568  0.6355
  404MOL0     O55638  -0.648   9.001   0.816 -0.2850  0.7188  0.1284
  404MOL0     C55639  -0.548   9.002   0.721 -0.2679 -0.1238 -0.3583
  404MOL0     C55640  -0.438   9.083   0.753 -0.7113  0.0770  0.6809
  404MOL0     C55641  -0.328   9.089   0.675 -0.5713  0.4925  0.3994
  404MOL0     C55642  -0.211   9.183   0.719  0.8659  0.3949  0.0992
  404MOL0     C55643  -0.317   8.997   0.573 -0.6054  0.5405  0.0163
  404MOL0     C55644  -0.193   8.988   0.486 -1.1351  0.1905  1.5255
  404MOL0     O55645  -0.204   8.891   0.389  0.0807 -0.0589  0.4089
  404MOL0     C55646  -0.119   8.919   0.274 -0.1756 -0.2350  0.5342
  404MOL0     C55647   0.016   8.895   0.258 -0.9821 -0.3077 -0.2735
  404MOL0     C55648   0.094   8.924   0.144 -0.4385  0.8447 -0.0876
  404MOL0     C55649   0.025   8.984   0.038 -0.2629  0.1144 -0.4491
  404MOL0     O55650   0.091   9.015  -0.076 -0.0936 -0.3841 -0.4506
  404MOL0     C55651   0.014   9.081  -0.182 -0.9225  0.1053 -0.0763
  404MOL0     C55652   0.113   9.127  -0.288  0.2744  0.0099  0.3339
  404MOL0     C55653   0.150   9.036  -0.401 -0.6476 -0.2616 -0.3309
  404MOL0     C55654   0.257   9.099  -0.490 -0.0601  0.4406  0.5421
  404MOL0     C55655   0.203   9.198  -0.595 -0.2428  0.2736 -0.3463
  404MOL0     C55656   0.287   9.306  -0.658  0.3828  0.1236 -0.0088
  404MOL0     C55657   0.396   9.262  -0.747 -0.3171  0.5694  0.2071
  404MOL0     C55658   0.516   9.199  -0.678 -0.2210  0.3701  0.0295
  404MOL0    Cl55659   0.600   9.291  -0.564 -0.3146  0.0453  0.4343
  404MOL0     C55660  -0.117   8.997   0.053 -0.1205 -0.0309 -0.0026
  404MOL0     C55661  -0.187   8.978   0.167  0.7881  0.4355 -0.2397
  404MOL0     O55662  -0.100   9.066   0.497  0.5779 -0.1065 -0.0561
  404MOL0     C55663  -0.427   8.933   0.528 -0.3973  0.3578  0.2202
  404MOL0     C55664  -0.545   8.926   0.602  0.2860 -0.1797  0.6586
  404MOL0     N55665  -0.901   8.800   1.335  0.1101 -0.6178  0.6211
  404MOL0     N55666  -0.839   8.816   1.448  0.1527 -0.1967  0.1526
  404MOL0     C55667  -0.144   8.713   1.831  0.2351 -0.0202  0.4210
  404MOL0     C55668  -0.030   8.647   1.784  0.2495 -0.2059 -0.9479
  404MOL0     C55669   0.269   8.350   1.614  0.1727 -0.7407  0.1481
  404MOL0     C55670   0.387   8.416   1.573 -0.1962  0.4075  0.4570
  404MOL0     C55671   0.512   8.345   1.553  0.4786  0.4427  0.8444
  404MOL0     C55672   0.518   8.212   1.581 -1.0113  0.5167  0.1272
  404MOL0     O55673   0.644   8.150   1.573 -0.7710 -0.2329  0.0470
  404MOL0     C55674   0.656   8.019   1.524  0.5080  0.7548 -0.2535
  404MOL0     C55675   0.755   8.000   1.407 -0.6694 -0.3698  0.4690
  404MOL0     C55676   0.698   8.013   1.269  0.9417  0.4254 -0.3625
  404MOL0     C55677   0.667   8.153   1.227 -0.9314  0.3007  0.6270
  404MOL0     C55678   0.524   8.158   1.207 -0.0497  1.6997  0.4677
  404MOL0     C55679   0.403   8.171   1.201  0.6125  1.3645  0.1930
  404MOL0     C55680   0.412   8.155   1.643 -0.9475 -0.0724 -0.1425
  404MOL0     C55681   0.287   8.215   1.659 -0.4691 -0.3535 -0.2203
  404MOL0     C55682   0.179   8.126   1.717 -0.2870 -0.7130  0.0312
  404MOL0     H55683  -0.115   8.328   1.906 -0.7440 -1.2996 -2.8998
  404MOL0     H55684  -0.296   8.447   1.987 -0.1975  0.7812  0.4365
  404MOL0     H55685  -0.369   8.627   2.123 -1.5628 -0.1202  1.3518
  404MOL0     H55686  -0.491   8.586   2.001  0.0513  0.0280  1.4444
  404MOL0     H55687  -0.604   8.719   2.141 -0.1494 -0.0428 -1.1752
  404MOL0     H55688  -0.469   8.851   2.120  1.7388  1.1366 -1.9851
  404MOL0     H55689  -0.562   8.878   1.882  4.0006  0.5051  1.3591
  404MOL0     H55690  -0.689   8.747   1.922 -0.1531 -1.0069  2.5978
  404MOL0     H55691  -0.757   8.877   2.110  4.7050  0.7784  3.0665
  404MOL0     H55692  -0.668   9.007   2.062 -1.2176 -0.5079  0.1519
  404MOL0     H55693  -0.909   8.992   1.965  0.6175 -1.0333  3.4991
  404MOL0     H55694  -0.830   8.875   1.849  0.5333  0.3600 -0.6088
  404MOL0     H55695  -0.789   9.174   1.889  2.9698  0.9634 -0.3080
  404MOL0     H55696  -0.651   9.088   1.827 -0.5625  0.3076 -1.8929
  404MOL0     H55697  -0.864   9.195   1.653  3.2138 -0.1663 -0.5999
  404MOL0     H55698  -0.939   9.055   1.720 -0.2896  0.5507 -0.7661
  404MOL0     H55699  -0.695   9.069   1.532 -1.3566  1.3820 -1.5917
  404MOL0     H55700  -0.726   8.921   1.637  3.3632  1.1463 -1.7238
  404MOL0     H55701  -0.865   9.121   1.327  0.1079  0.0803 -0.1380
  404MOL0     H55702  -1.014   9.036   1.117 -1.3681  0.0656 -0.9263
  404MOL0     H55703  -1.029   8.859   1.089  0.0357  0.3630  0.4231
  404MOL0     H55704  -0.758   8.995   1.060  1.1815 -2.2440  1.0773
  404MOL0     H55705  -0.810   8.823   1.049  3.3261  0.6135 -0.6003
  404MOL0     H55706  -0.961   8.894   0.860  2.6820 -1.3871 -0.5719
  404MOL0     H55707  -0.889   9.058   0.863 -1.8902  0.3653 -1.4534
  404MOL0     H55708  -0.708   8.814   0.833 -0.1819 -0.5812 -1.3440
  404MOL0     H55709  -0.776   8.901   0.701 -0.9369 -1.0135  0.9110
  404MOL0     H55710  -0.431   9.142   0.844 -2.2088  2.6390 -0.7345
  404MOL0     H55711  -0.181   9.250   0.639  0.6137 -0.4514 -0.7166
  404MOL0     H55712  -0.128   9.121   0.753  0.9172  1.0794  1.2812
  404MOL0     H55713  -0.237   9.246   0.805 -0.4357  0.6418 -0.4423
  404MOL0     H55714   0.075   8.835   0.327  3.5340  1.9381 -1.7760
  404MOL0     H55715   0.202   8.911   0.136 -0.2021  3.1507 -1.8688
  404MOL0     H55716  -0.060   9.018  -0.232 -1.4169 -1.3762  2.3748
  404MOL0     H55717  -0.045   9.168  -0.152  0.5792  1.7164 -1.5498
  404MOL0     H55718   0.078   9.218  -0.337  2.5866  0.1090 -1.3209
  404MOL0     H55719   0.209   9.164  -0.252  0.7263  0.1926 -0.9910
  404MOL0     H55720   0.066   9.020  -0.469 -1.6228 -0.7955  0.9513
  404MOL0     H55721   0.182   8.936  -0.372 -0.7535 -0.4769 -0.9639
  404MOL0     H55722   0.295   9.012  -0.546 -4.7310 -0.2007 -2.1936
  404MOL0     H55723   0.331   9.150  -0.428 -0.5012 -2.5260  3.8402
  404MOL0     H55724   0.171   9.138  -0.680  0.4694 -0.7597  0.0963
  404MOL0     H55725   0.115   9.245  -0.551  1.2838  1.4953  1.5808
  404MOL0     H55726   0.322   9.390  -0.597  2.2680 -0.5397 -0.1041
  404MOL0     H55727   0.212   9.353  -0.722  1.9702  3.3873  0.3005
  404MOL0     H55728   0.419   9.343  -0.817 -4.9318  0.2815 -2.0122
  404MOL0     H55729   0.350   9.184  -0.809 -3.4152  1.3942  1.2805
  404MOL0     H55730   0.588   9.171  -0.755 -0.1627 -2.2959  0.9357
  404MOL0     H55731   0.494   9.102  -0.632  1.2939  1.1570  2.6483
  404MOL0     H55732  -0.171   9.029  -0.036  2.3757  0.5840 -1.3947
  404MOL0     H55733  -0.291   9.007   0.172  1.1290  1.6867 -0.1156
  404MOL0     H55734  -0.415   8.870   0.440  1.2846 -1.7534  1.8240
  404MOL0     H55735  -0.639   8.891   0.560 -0.1893  2.1972 -0.4554
  404MOL0     H55736  -0.168   8.818   1.818  0.2859 -0.0702 -0.0861
  404MOL0     H55737   0.050   8.699   1.733 -2.3981  1.2374 -3.9926
  404MOL0     H55738   0.376   8.512   1.525  1.0589 -1.4372 -4.1211
  404MOL0     H55739   0.599   8.400   1.518  1.0133 -1.0287 -0.1931
  404MOL0     H55740   0.697   7.958   1.606 -1.2434  0.7607  0.6774
  404MOL0     H55741   0.562   7.968   1.501  1.3101 -0.4790 -0.8903
  404MOL0     H55742   0.792   7.897   1.410  0.3464 -0.0919 -1.0787
  404MOL0     H55743   0.845   8.055   1.439  0.6782 -1.5034 -1.1963
  404MOL0     H55744   0.753   7.957   1.193 -0.4538 -4.9677  2.1203
  404MOL0     H55745   0.609   7.949   1.267  0.4444  1.1183 -0.8477
  404MOL0     H55746   0.706   8.162   1.125  0.5640 -1.9429  0.9265
  404MOL0     H55747   0.713   8.223   1.298  1.7285 -0.6271 -0.0486
  404MOL0     H55748   0.302   8.205   1.208  0.7233  1.3163  3.1626
  404MOL0     H55749   0.427   8.051   1.671  3.4509  1.0748  2.7824
  404MOL0     H55750   0.101   8.187   1.764  1.8095  0.0386  2.8550
  404MOL0     H55751   0.153   8.056   1.637  2.7300 -1.8864 -0.0869
  404MOL0     H55752   0.227   8.062   1.793  2.3065  0.5232 -0.4608
  405MOL0     O55753  11.360   8.248   9.273  0.3171 -0.3536  0.6973
  405MOL0     C55754  11.414   8.232   9.382  0.3772 -0.5166 -0.1725
  405MOL0     O55755  11.412   8.107   9.445 -0.5645  0.6009  0.2412
  405MOL0     C55756  11.471   8.109   9.564 -1.3966 -0.2264 -0.1180
  405MOL0     C55757  11.577   8.014   9.573 -0.3647  0.3726  0.1973
  405MOL0     C55758  11.644   8.000   9.699  0.1582 -0.1254  0.0371
  405MOL0     C55759  11.621   8.085   9.806  0.6026  0.0886  1.3669
  405MOL0     O55760  11.705   8.105   9.913  0.1105 -0.1449 -0.7188
  405MOL0     C55761  11.836   8.127   9.869 -0.2027 -0.0280 -0.0600
  405MOL0     C55762  11.919   8.173   9.991 -0.0719 -0.4902  0.0466
  405MOL0     C55763  11.924   8.323  10.028  0.6130 -0.1596 -0.4057
  405MOL0     C55764  12.041   8.358  10.130  0.0566  0.3513  1.1177
  405MOL0     C55765  12.023   8.487  10.209 -0.5646 -0.1914  0.1005
  405MOL0     C55766  11.956   8.596  10.114 -0.0919  0.0594  0.0026
  405MOL0     C55767  11.956   8.733  10.183  0.1656  0.8649 -0.2992
  405MOL0     C55768  11.887   8.845  10.097 -0.2143 -0.6656 -0.6358
  405MOL0     N55769  11.903   8.978  10.165  0.1915  0.3214 -0.5950
  405MOL0     C55770  12.022   9.041  10.172 -0.4227  0.2375  1.3810
  405MOL0     C55771  12.008   9.151  10.251  0.1352  0.7735  0.0463
  405MOL0     C55772  12.117   9.246  10.287  0.6042 -0.8551  0.1565
  405MOL0     C55773  12.121   9.367  10.189  0.3611  0.0079 -0.2409
  405MOL0     C55774  12.217   9.487  10.226  0.9889  0.5782  0.1861
  405MOL0     C55775  12.227   9.582  10.107 -0.4264  0.4475  0.3777
  405MOL0     O55776  12.324   9.515  10.028 -1.1289 -0.3663 -1.2128
  405MOL0     C55777  12.384   9.581   9.926 -0.5580  0.0745 -0.7952
  405MOL0     C55778  12.466   9.499   9.842 -0.3557  0.7376  0.2359
  405MOL0     C55779  12.556   9.561   9.752  0.0209  0.3796 -0.0276
  405MOL0     C55780  12.640   9.468   9.663 -0.4179  0.2214 -0.5253
  405MOL0     C55781  12.566   9.703   9.739 -0.0428 -0.1519 -0.0820
  405MOL0     C55782  12.641   9.779   9.631 -0.1489  0.4299 -0.2389
  405MOL0     O55783  12.720   9.713   9.543  0.3747 -0.5908  0.3285
  405MOL0     C55784  12.798   9.777   9.457 -0.8787  0.1561  0.2760
  405MOL0     C55785  12.856   9.704   9.353  0.3141  0.2687 -0.0965
  405MOL0     C55786  12.955   9.748   9.270  0.1531  0.4692  0.1315
  405MOL0     C55787  12.999   9.879   9.281  0.5642 -0.5369  0.1951
  405MOL0     O55788  13.091   9.933   9.199 -1.1372  0.7254  0.3142
  405MOL0     C55789  13.202   9.991   9.268 -0.0089  0.8155 -0.1271
  405MOL0     C55790  13.317  10.009   9.171  0.7573 -0.2035  0.3104
  405MOL0     C55791  13.386   9.873   9.127 -0.2478 -0.4896  0.5843
  405MOL0     C55792  13.347   9.824   8.982 -0.7864 -0.1402  0.6611
  405MOL0     C55793  13.236   9.718   8.969  0.9087  0.5767 -0.4368
  405MOL0     C55794  13.188   9.686   8.826  0.0471  0.1441  0.3924
  405MOL0     C55795  13.305   9.656   8.723 -0.0349 -0.4711 -0.0997
  405MOL0     C55796  13.379   9.531   8.772  0.3950  0.1909 -0.4651
  405MOL0    Cl55797  13.286   9.390   8.761 -0.3839 -0.3954 -0.7014
  405MOL0     C55798  12.932   9.964   9.369  0.5035  0.2486  0.0688
  405MOL0     C55799  12.835   9.916   9.461 -0.3107  0.8811  0.7908
  405MOL0     O55800  12.610   9.893   9.616  0.2066  0.1768  0.4711
  405MOL0     C55801  12.486   9.783   9.820 -0.0464 -0.0140  0.0372
  405MOL0     C55802  12.405   9.724   9.910 -0.1255  0.1856 -0.1401
  405MOL0     N55803  11.874   9.152  10.285  1.3265  0.1540 -0.3435
  405MOL0     N55804  11.808   9.056  10.225  0.0897 -0.8696 -0.0360
  405MOL0     C55805  11.512   8.174   9.793  0.1518 -0.5079 -0.3375
  405MOL0     C55806  11.437   8.184   9.673  0.0132 -0.4134 -0.7739
  405MOL0     C55807  11.473   8.360   9.438 -0.1245  0.0067 -0.9137
  405MOL0     C55808  11.391   8.459   9.472  0.5300 -0.4962  0.0054
  405MOL0     C55809  11.424   8.587   9.514 -0.5864  0.1984  0.1384
  405MOL0     C55810  11.558   8.619   9.509 -0.7879  0.5097 -0.8517
  405MOL0     O55811  11.585   8.735   9.567 -0.0860 -0.3240 -0.3106
  405MOL0     C55812  11.719   8.759   9.616  0.0159 -0.7088  0.9229
  405MOL0     C55813  11.731   8.899   9.669 -0.4383  0.3992 -0.6999
  405MOL0     C55814  11.639   8.936   9.785 -0.5389  0.8557  0.1026
  405MOL0     C55815  11.653   9.078   9.838  0.2557  0.1829  0.3588
  405MOL0     C55816  11.792   9.125   9.857 -0.4826 -0.8573  0.5793
  405MOL0     C55817  11.907   9.168   9.863 -0.4674 -0.5105  0.0456
  405MOL0     C55818  11.655   8.523   9.462 -0.1028  0.3788 -0.4571
  405MOL0     C55819  11.613   8.397   9.434  1.2311  0.3829  0.1690
  405MOL0     C55820  11.718   8.303   9.388 -0.3100  0.0208  0.2478
  405MOL0     H55821  11.610   7.963   9.483 -3.8168 -2.4184  0.2772
  405MOL0     H55822  11.711   7.917   9.720  0.6696  0.7220  1.8895
  405MOL0     H55823  11.843   8.210   9.797  0.4947 -0.2219 -0.2214
  405MOL0     H55824  11.871   8.040   9.812  2.1676  1.5596 -1.2108
  405MOL0     H55825  11.893   8.115  10.080  0.0243  0.0530  0.4367
  405MOL0     H55826  12.017   8.128   9.971 -0.6226 -2.5177  1.5247
  405MOL0     H55827  11.942   8.376   9.934  0.5545  1.8443  0.6506
  405MOL0     H55828  11.829   8.348  10.076  0.3374 -1.2159 -0.3853
  405MOL0     H55829  12.058   8.280  10.204  0.2293 -0.6792  0.0195
  405MOL0     H55830  12.134   8.362  10.074 -1.4813 -0.2012 -1.6611
  405MOL0     H55831  12.119   8.524  10.246 -0.3143 -2.7296  2.2731
  405MOL0     H55832  11.962   8.479  10.299 -0.4808 -3.5422 -0.0009
  405MOL0     H55833  12.008   8.602  10.018  0.7663 -1.5039  0.3359
  405MOL0     H55834  11.852   8.564  10.102  0.7285 -1.8172 -3.5422
  405MOL0     H55835  12.056   8.773  10.203  0.2793  1.5142 -1.9668
  405MOL0     H55836  11.902   8.719  10.277 -1.0905  1.1503 -0.9487
  405MOL0     H55837  11.930   8.848   9.997 -0.2384 -2.2759 -0.7195
  405MOL0     H55838  11.785   8.808  10.082 -0.0217 -0.8800 -1.4508
  405MOL0     H55839  12.117   9.002  10.136  0.2824  0.8631  2.5283
  405MOL0     H55840  12.208   9.190  10.266  2.3635  2.4454 -1.9316
  405MOL0     H55841  12.117   9.292  10.386  0.8900 -1.7070  0.5624
  405MOL0     H55842  12.158   9.321  10.097  1.9726  2.5270 -0.9759
  405MOL0     H55843  12.021   9.405  10.167  0.1727 -0.8064 -0.8114
  405MOL0     H55844  12.180   9.547  10.310  1.6044  1.4551 -0.1529
  405MOL0     H55845  12.315   9.447  10.254  0.8367  1.1993  1.7083
  405MOL0     H55846  12.127   9.585  10.063 -1.0766 -1.9202  1.5180
  405MOL0     H55847  12.256   9.680  10.146 -1.3631  1.1458 -0.6380
  405MOL0     H55848  12.457   9.391   9.830  1.3036  0.4529  1.2938
  405MOL0     H55849  12.634   9.366   9.701  2.8362  0.5700  1.3863
  405MOL0     H55850  12.746   9.494   9.672 -0.2488 -0.7794  0.7753
  405MOL0     H55851  12.605   9.478   9.560 -2.1105  2.6115  0.1995
  405MOL0     H55852  12.817   9.604   9.336 -0.4753  0.0338  2.6729
  405MOL0     H55853  13.002   9.686   9.194 -1.4663 -1.8448  0.9123
  405MOL0     H55854  13.167  10.090   9.301 -2.8957  0.3687 -1.5566
  405MOL0     H55855  13.234   9.933   9.355 -3.8231  0.7821  1.4909
  405MOL0     H55856  13.300  10.072   9.084  2.8860 -1.8960 -1.4346
  405MOL0     H55857  13.392  10.068   9.224 -0.4443  0.5712  1.2297
  405MOL0     H55858  13.367   9.798   9.204  2.6619 -1.0794  0.8372
  405MOL0     H55859  13.495   9.884   9.129 -0.0934 -1.6908 -0.0980
  405MOL0     H55860  13.441   9.792   8.936 -1.3648 -0.1208 -0.5758
  405MOL0     H55861  13.321   9.914   8.927  0.4184 -0.6219 -0.7359
  405MOL0     H55862  13.258   9.628   9.027 -1.9850  0.2694  0.3486
  405MOL0     H55863  13.155   9.759   9.030  2.5581  3.9100 -0.2684
  405MOL0     H55864  13.132   9.770   8.784 -3.4615 -1.0082  2.3354
  405MOL0     H55865  13.126   9.595   8.826  1.4119 -0.8321  1.6364
  405MOL0     H55866  13.370   9.744   8.718 -1.2192  0.3883 -0.8638
  405MOL0     H55867  13.265   9.649   8.622  2.6117  1.2611 -1.3683
  405MOL0     H55868  13.414   9.545   8.875 -0.0496  0.7930 -0.3926
  405MOL0     H55869  13.465   9.513   8.707  0.5891  0.0423 -0.1676
  405MOL0     H55870  12.959  10.069   9.356 -1.1420  0.5855 -0.9476
  405MOL0     H55871  12.797   9.992   9.529 -3.2192 -1.4385  1.9789
  405MOL0     H55872  12.493   9.891   9.817 -0.5407  0.0082 -0.4547
  405MOL0     H55873  12.356   9.800   9.969 -1.0651 -0.8769  0.4860
  405MOL0     H55874  11.499   8.241   9.878  0.9482  1.7811 -1.9033
  405MOL0     H55875  11.341   8.235   9.674  0.0685 -0.1876  2.1218
  405MOL0     H55876  11.285   8.439   9.462  0.3018  1.5915 -3.2084
  405MOL0     H55877  11.348   8.658   9.545  3.0813  4.1903  0.8086
  405MOL0     H55878  11.734   8.683   9.693 -2.4739 -2.8427 -0.5101
  405MOL0     H55879  11.797   8.749   9.540  0.4341  1.2727  1.0388
  405MOL0     H55880  11.707   8.970   9.590  2.3124  1.8806 -0.3115
  405MOL0     H55881  11.838   8.916   9.683 -0.1863 -0.4863 -1.4859
  405MOL0     H55882  11.532   8.926   9.766 -0.2776  2.4516 -2.7218
  405MOL0     H55883  11.661   8.869   9.869  0.1662 -0.4734 -1.0785
  405MOL0     H55884  11.599   9.088   9.932  0.1110 -0.1903  0.3184
  405MOL0     H55885  11.600   9.157   9.784  1.3726  2.2928  2.1638
  405MOL0     H55886  12.008   9.203   9.879 -0.6098  0.6266 -1.3445
  405MOL0     H55887  11.756   8.550   9.436  0.2740 -2.1008 -1.7949
  405MOL0     H55888  11.754   8.353   9.298  0.1767 -0.5211  0.1342
  405MOL0     H55889  11.786   8.289   9.473 -3.3936 -1.8609  2.6384
  405MOL0     H55890  11.678   8.209   9.349 -2.2207  1.8197 -2.5102
  406MOL0     O55891  10.642   9.784   1.657  0.3191 -0.0145 -0.4732
  406MOL0     C55892  10.722   9.700   1.693  0.2414  0.7941 -0.7964
  406MOL0     O55893  10.754   9.680   1.831  0.5553 -0.7656  0.3657
  406MOL0     C55894  10.682   9.755   1.925 -0.4737  0.1827  0.5997
  406MOL0     C55895  10.576   9.691   1.990  0.2094 -0.0466  0.2136
  406MOL0     C55896  10.510   9.754   2.105  0.0063 -0.2588  0.5507
  406MOL0     C55897  10.556   9.871   2.157 -0.4484  0.4311 -0.1487
  406MOL0     O55898  10.504   9.918   2.278  0.0302  0.6252  0.2521
  406MOL0     C55899  10.501  10.062   2.295 -0.2842  0.3872 -0.2504
  406MOL0     C55900  10.434  10.096   2.431 -0.2694  0.0921 -0.5470
  406MOL0     C55901  10.293  10.022   2.440 -0.4437 -1.0391 -0.1329
  406MOL0     C55902  10.179  10.089   2.353 -0.5117 -0.4414  0.4544
  406MOL0     C55903  10.129   9.982   2.258  0.2115  0.0426 -0.4164
  406MOL0     C55904  10.018   9.885   2.309 -0.4476 -1.0795  0.8037
  406MOL0     C55905   9.991   9.780   2.191 -0.1843 -0.9929 -0.6079
  406MOL0     C55906  10.089   9.664   2.218 -0.5885  0.5611 -0.1893
  406MOL0     N55907  10.045   9.579   2.330  0.4987  0.6509 -0.7457
  406MOL0     C55908   9.928   9.494   2.322  0.4436 -0.1642  0.0823
  406MOL0     C55909   9.915   9.442   2.446 -0.0508  0.1181 -0.4658
  406MOL0     C55910   9.793   9.361   2.491  0.1030  0.0278  0.3770
  406MOL0     C55911   9.672   9.455   2.493 -0.0083  0.0286 -0.4985
  406MOL0     C55912   9.592   9.448   2.364  0.4180  0.8801 -0.1642
  406MOL0     C55913   9.460   9.533   2.371  0.0698  0.0081 -0.6799
  406MOL0     O55914   9.506   9.677   2.386  0.0697 -0.2426  0.1367
  406MOL0     C55915   9.553   9.758   2.281 -0.0189  0.1754 -0.5539
  406MOL0     C55916   9.588   9.720   2.151  0.4621  0.1715  0.2134
  406MOL0     C55917   9.635   9.807   2.054 -0.4472  0.7034 -0.7933
  406MOL0     C55918   9.685   9.737   1.929  0.1544 -0.0672 -0.2975
  406MOL0     C55919   9.626   9.943   2.079  0.9064 -0.1003  0.6950
  406MOL0     C55920   9.643  10.040   1.975  0.1450 -0.0044 -0.3533
  406MOL0     O55921   9.547  10.046   1.881  0.3460  0.4648 -0.5947
  406MOL0     C55922   9.579  10.090   1.758 -0.7516  0.2475 -0.0759
  406MOL0     C55923   9.480  10.162   1.688  0.4507 -0.3759  0.1375
  406MOL0     C55924   9.498  10.217   1.555 -0.3888  0.9995  0.0462
  406MOL0     C55925   9.614  10.193   1.490 -0.4291 -0.3068 -0.3394
  406MOL0     O55926   9.648  10.251   1.370  0.2589 -0.4942  0.6684
  406MOL0     C55927   9.588  10.363   1.302  0.4763  0.9209  0.7561
  406MOL0     C55928   9.629  10.489   1.382 -1.2219  0.1311 -0.3080
  406MOL0     C55929   9.584  10.616   1.317  1.3421 -0.0080  0.2267
  406MOL0     C55930   9.432  10.637   1.343 -0.3631  0.0813  0.0335
  406MOL0     C55931   9.398  10.757   1.263 -0.6367 -0.0620  0.7858
  406MOL0     C55932   9.254  10.815   1.271  0.0128  0.1219  0.9877
  406MOL0     C55933   9.199  10.810   1.416  0.3773 -1.0654  0.1177
  406MOL0     C55934   9.063  10.873   1.422 -0.4652 -1.4167  0.9563
  406MOL0    Cl55935   9.016  10.864   1.600 -0.4054 -0.3985  0.2363
  406MOL0     C55936   9.703  10.115   1.564  0.5549  0.7514  0.0150
  406MOL0     C55937   9.692  10.067   1.692 -0.1373  1.0659  1.2388
  406MOL0     O55938   9.754  10.097   1.976  0.2417 -0.3442 -0.1349
  406MOL0     C55939   9.595   9.989   2.204  0.3335 -0.5678 -0.1609
  406MOL0     C55940   9.555   9.895   2.309 -0.5860 -0.1825  0.0242
  406MOL0     N55941   9.994   9.515   2.533  0.1320  0.0925 -0.3602
  406MOL0     N55942  10.072   9.593   2.462 -0.7688  0.0028 -0.2102
  406MOL0     C55943  10.667   9.936   2.094 -0.8005  0.3147 -0.2330
  406MOL0     C55944  10.730   9.874   1.983  0.5793  1.0716 -0.5606
  406MOL0     C55945  10.770   9.604   1.589  0.4832 -0.1606 -0.3725
  406MOL0     C55946  10.714   9.626   1.461 -0.6848 -0.1432 -0.8402
  406MOL0     C55947  10.743   9.538   1.359 -1.7300  0.6794 -0.5582
  406MOL0     C55948  10.812   9.415   1.395  0.2228  0.0417 -0.2625
  406MOL0     O55949  10.832   9.307   1.312  0.6050 -0.4561  0.1055
  406MOL0     C55950  10.786   9.304   1.173  0.5514  0.6274  0.0696
  406MOL0     C55951  10.876   9.368   1.078  0.0303 -0.1006  0.6586
  406MOL0     C55952  10.813   9.366   0.941  1.0062  0.0929 -0.7989
  406MOL0     C55953  10.894   9.456   0.842  0.4285  0.0574 -0.6508
  406MOL0     C55954  10.875   9.595   0.901 -1.0158  1.4005 -0.1734
  406MOL0     C55955  10.851   9.698   0.956 -0.1908  0.4243 -0.1748
  406MOL0     C55956  10.871   9.411   1.519 -0.2117 -0.4615 -0.9027
  406MOL0     C55957  10.864   9.500   1.618 -0.6578 -1.2853 -0.2674
  406MOL0     C55958  10.942   9.478   1.749  0.2828 -0.0693 -0.1370
  406MOL0     H55959  10.538   9.596   1.953 -0.0521  0.5761 -1.2130
  406MOL0     H55960  10.436   9.690   2.154 -3.3777  2.3870 -0.6499
  406MOL0     H55961  10.463  10.108   2.204 -1.5097 -1.1206 -0.5392
  406MOL0     H55962  10.608  10.085   2.304  1.0565 -3.5244 -3.0835
  406MOL0     H55963  10.503  10.053   2.505  0.0642 -1.9976 -1.9989
  406MOL0     H55964  10.426  10.203   2.452 -1.6113  0.1168 -1.0976
  406MOL0     H55965  10.299   9.913   2.428 -0.9600 -1.6879  4.0251
  406MOL0     H55966  10.258  10.027   2.544 -1.4095  0.4796 -0.5030
  406MOL0     H55967  10.106  10.135   2.420  1.7055  1.8452  1.4521
  406MOL0     H55968  10.225  10.174   2.301 -2.2907  1.2337  1.4759
  406MOL0     H55969  10.211   9.929   2.209  0.7841  1.4476 -1.0441
  406MOL0     H55970  10.079  10.037   2.178 -1.4867 -2.2091 -0.9927
  406MOL0     H55971  10.066   9.832   2.392 -3.4302 -2.4436  1.7824
  406MOL0     H55972   9.926   9.932   2.344 -0.4282 -0.5211  0.1249
  406MOL0     H55973  10.019   9.809   2.089 -1.8982  2.2911 -0.3122
  406MOL0     H55974   9.887   9.748   2.192 -0.0049 -1.6714 -1.6481
  406MOL0     H55975  10.090   9.616   2.120  0.4243  2.6494 -1.2792
  406MOL0     H55976  10.194   9.696   2.227  0.7580 -3.6836  2.2489
  406MOL0     H55977   9.861   9.485   2.237 -0.3212  0.0696  0.6518
  406MOL0     H55978   9.819   9.330   2.593  0.4296 -1.7474 -0.1997
  406MOL0     H55979   9.782   9.269   2.432  2.1567 -1.2774  1.8520
  406MOL0     H55980   9.602   9.407   2.562 -1.2708  1.2863 -0.8738
  406MOL0     H55981   9.695   9.553   2.536 -0.0923 -0.3292  0.3794
  406MOL0     H55982   9.657   9.468   2.278 -0.1606 -1.0654 -1.1256
  406MOL0     H55983   9.560   9.345   2.347  2.6267  0.1670 -0.3409
  406MOL0     H55984   9.401   9.521   2.279 -1.4330 -0.1756  0.2827
  406MOL0     H55985   9.395   9.499   2.452 -0.9758 -0.2686 -1.6082
  406MOL0     H55986   9.569   9.615   2.129  0.1014 -0.2124  2.1679
  406MOL0     H55987   9.748   9.802   1.867  0.8217  0.9000  1.3192
  406MOL0     H55988   9.604   9.708   1.862  1.3787  0.2703 -1.9955
  406MOL0     H55989   9.733   9.644   1.961 -0.5039 -0.5043 -0.5627
  406MOL0     H55990   9.386  10.191   1.735  0.2678  0.3348 -0.6498
  406MOL0     H55991   9.418  10.275   1.510 -0.6542  2.0814  1.8383
  406MOL0     H55992   9.635  10.371   1.204  2.2636 -3.4133  1.0221
  406MOL0     H55993   9.480  10.348   1.287  0.6080 -0.5283  1.0766
  406MOL0     H55994   9.592  10.481   1.484  2.7412  3.7445  1.7104
  406MOL0     H55995   9.739  10.484   1.375 -0.8387  3.7353  1.3263
  406MOL0     H55996   9.586  10.617   1.208  0.4418 -0.8419  0.1903
  406MOL0     H55997   9.647  10.698   1.353  1.7018 -1.2458  2.6256
  406MOL0     H55998   9.409  10.667   1.446 -3.9189 -0.0694 -0.5977
  406MOL0     H55999   9.360  10.562   1.307 -1.7134  1.9771 -1.3756
  406MOL0     H56000   9.461  10.837   1.303  2.3029 -1.8980  0.1298
  406MOL0     H56001   9.428  10.746   1.158 -2.6749 -0.5765  0.2105
  406MOL0     H56002   9.185  10.760   1.207 -1.1627  2.0527  0.5224
  406MOL0     H56003   9.260  10.906   1.209  4.1812 -0.9035 -0.4293
  406MOL0     H56004   9.269  10.864   1.480  2.0630  2.1950 -3.9711
  406MOL0     H56005   9.196  10.707   1.454  2.1871 -1.4957 -0.7727
  406MOL0     H56006   8.986  10.827   1.359  1.0022  1.5856 -3.5548
  406MOL0     H56007   9.061  10.977   1.386  1.0099 -1.4757  0.6378
  406MOL0     H56008   9.802  10.101   1.520 -1.0321 -1.9527 -3.0969
  406MOL0     H56009   9.782  10.020   1.731 -1.5419 -2.6373  0.4227
  406MOL0     H56010   9.599  10.095   2.227  3.0461 -1.1734  2.7742
  406MOL0     H56011   9.517   9.932   2.404 -0.9660 -0.2580 -0.0980
  406MOL0     H56012  10.698  10.033   2.131 -1.2132  0.1300  0.6233
  406MOL0     H56013  10.829   9.908   1.954 -0.5841  4.0594 -1.3934
  406MOL0     H56014  10.650   9.707   1.429 -2.9340 -1.6907 -0.4659
  406MOL0     H56015  10.700   9.557   1.261  0.8633  0.2259 -1.8825
  406MOL0     H56016  10.792   9.197   1.150 -0.0020  0.2935  1.4023
  406MOL0     H56017  10.681   9.336   1.168  1.1744  2.6104 -1.5429
  406MOL0     H56018  10.967   9.309   1.065 -0.7829 -1.1716 -0.4419
  406MOL0     H56019  10.900   9.471   1.105  0.5455 -0.0036 -0.1329
  406MOL0     H56020  10.807   9.263   0.904  0.7764  0.4135 -1.6883
  406MOL0     H56021  10.711   9.405   0.941  1.4424  1.4150 -2.9848
  406MOL0     H56022  10.852   9.456   0.742  1.5697  0.7917 -1.1455
  406MOL0     H56023  11.003   9.440   0.840  0.4138 -0.5586  1.1759
  406MOL0     H56024  10.850   9.795   1.002 -1.8799 -0.8619  2.9006
  406MOL0     H56025  10.931   9.322   1.539  1.9815  1.1536  0.1665
  406MOL0     H56026  11.026   9.412   1.723 -0.4698 -0.4561 -1.7508
  406MOL0     H56027  10.976   9.576   1.782  0.3034  0.7463 -2.3847
  406MOL0     H56028  10.876   9.432   1.823  0.0110  1.6506  0.7373
  407MOL0     O56029   6.633   1.192  10.872 -0.4589  0.4754 -0.7178
  407MOL0     C56030   6.725   1.222  10.790  0.4363  0.1933 -0.0326
  407MOL0     O56031   6.767   1.351  10.771 -0.0777  0.1235  0.2017
  407MOL0     C56032   6.751   1.443  10.872 -0.7981  0.5278 -0.6688
  407MOL0     C56033   6.854   1.471  10.963 -0.6643  0.3683 -0.5660
  407MOL0     C56034   6.830   1.540  11.085  0.3455 -0.1008 -1.2921
  407MOL0     C56035   6.708   1.597  11.110  0.6824 -0.2263 -0.3543
  407MOL0     O56036   6.684   1.672  11.227 -0.5508 -0.0372 -0.6161
  407MOL0     C56037   6.554   1.684  11.270  0.0103 -0.3693 -0.0249
  407MOL0     C56038   6.557   1.764  11.400  0.1892  0.2153 -0.8809
  407MOL0     C56039   6.426   1.835  11.437  0.5218 -1.3217  0.1127
  407MOL0     C56040   6.445   1.959  11.530  0.3671 -0.5613 -0.5382
  407MOL0     C56041   6.333   1.959  11.638 -1.2692  0.3260 -1.2049
  407MOL0     C56042   6.335   2.096  11.706  0.7707 -0.1533 -0.5174
  407MOL0     C56043   6.350   2.090  11.859  0.8851 -0.4962  0.3711
  407MOL0     C56044   6.489   2.043  11.911 -0.3483 -0.2683 -0.5658
  407MOL0     N56045   6.591   2.143  11.866  0.6535  0.3146  0.9869
  407MOL0     C56046   6.613   2.267  11.924 -0.4871 -0.3802  0.5312
  407MOL0     C56047   6.688   2.335  11.838  0.0015  1.1424 -0.1621
  407MOL0     C56048   6.733   2.483  11.847 -0.0991 -0.1186  0.7934
  407MOL0     C56049   6.608   2.573  11.863 -0.2419  0.9902  0.5222
  407MOL0     C56050   6.508   2.575  11.737  0.1866  0.5246  0.4922
  407MOL0     C56051   6.386   2.643  11.773  0.3426 -0.2380 -0.2754
  407MOL0     O56052   6.416   2.783  11.765 -1.3888  0.7378  0.1721
  407MOL0     C56053   6.316   2.874  11.750  0.0328 -0.5005  1.1020
  407MOL0     C56054   6.181   2.859  11.704 -0.5031  0.0845 -0.5088
  407MOL0     C56055   6.082   2.967  11.695 -0.7592 -0.7514 -0.9540
  407MOL0     C56056   5.950   2.928  11.650 -0.2383 -0.1167 -0.5402
  407MOL0     C56057   6.139   3.097  11.717 -0.5620 -0.5108  0.7220
  407MOL0     C56058   6.048   3.214  11.696 -0.2287  0.0218 -0.6655
  407MOL0     O56059   5.907   3.201  11.709  0.3363  0.8958  1.0187
  407MOL0     C56060   5.834   3.317  11.718  0.2534 -0.2849  0.3054
  407MOL0     C56061   5.829   3.385  11.847 -0.2262  0.0434 -0.0027
  407MOL0     C56062   5.752   3.495  11.866  0.4927 -0.2697  0.3713
  407MOL0     C56063   5.665   3.533  11.766  0.3651 -0.7859 -0.5791
  407MOL0     O56064   5.561   3.630  11.773 -0.2514  0.4424  0.5874
  407MOL0     C56065   5.557   3.718  11.887 -0.5907  0.7936  0.9549
  407MOL0     C56066   5.488   3.650  12.009 -0.6007  0.0685  0.7834
  407MOL0     C56067   5.425   3.747  12.108  0.3899 -0.6317  0.5859
  407MOL0     C56068   5.375   3.659  12.223  0.2923 -0.0084  0.0482
  407MOL0     C56069   5.326   3.738  12.345 -0.5223 -0.2162  0.9680
  407MOL0     C56070   5.315   3.650  12.463 -0.7008  0.2092 -0.1465
  407MOL0     C56071   5.340   3.715  12.599 -0.5166 -0.6039  0.1814
  407MOL0     C56072   5.346   3.614  12.715  0.1609 -0.7351 -0.1966
  407MOL0    Cl56073   5.184   3.548  12.727 -0.1484 -0.1291  0.4492
  407MOL0     C56074   5.677   3.478  11.639 -0.2871 -0.2959  0.1626
  407MOL0     C56075   5.759   3.365  11.616  0.0892  0.1777 -0.3657
  407MOL0     O56076   6.112   3.318  11.669  0.6711  0.3546  0.6382
  407MOL0     C56077   6.277   3.114  11.732  0.1154  0.3650 -0.7826
  407MOL0     C56078   6.355   3.010  11.762  0.1594  0.2074  0.2793
  407MOL0     N56079   6.716   2.249  11.727 -0.2796 -0.1340 -0.8189
  407MOL0     N56080   6.655   2.138  11.745  0.3713  0.2964 -0.1954
  407MOL0     C56081   6.606   1.573  11.019  0.4166  0.8645  0.7290
  407MOL0     C56082   6.624   1.504  10.897  0.4348  0.5702  0.1712
  407MOL0     C56083   6.801   1.115  10.718  0.1146  0.4644  0.6781
  407MOL0     C56084   6.725   1.010  10.665  0.3142 -0.5420  0.1742
  407MOL0     C56085   6.784   0.903  10.593 -0.3580  0.5262 -0.0100
  407MOL0     C56086   6.920   0.902  10.569 -0.2752  0.5723 -0.4458
  407MOL0     O56087   6.986   0.813  10.488  0.7849  0.4396  0.5116
  407MOL0     C56088   6.910   0.703  10.438  0.1387  0.0344  0.5294
  407MOL0     C56089   6.851   0.756  10.301 -0.7858 -0.4474 -0.0551
  407MOL0     C56090   6.950   0.829  10.207 -0.4236  0.1547 -0.1151
  407MOL0     C56091   7.066   0.733  10.166  0.4086 -0.5610  0.0242
  407MOL0     C56092   7.144   0.803  10.059 -0.5292  1.1977 -0.6272
  407MOL0     C56093   7.218   0.845   9.971 -0.3094  0.1148  0.1581
  407MOL0     C56094   6.994   0.998  10.637 -0.8336 -0.0190 -0.4690
  407MOL0     C56095   6.941   1.109  10.695  0.0297  0.5016 -0.9034
  407MOL0     C56096   7.034   1.205  10.753  0.3670  0.2748 -0.2088
  407MOL0     H56097   6.951   1.425  10.945  0.3877  2.5249 -0.7230
  407MOL0     H56098   6.919   1.553  11.146 -1.5213  1.5908  1.2806
  407MOL0     H56099   6.507   1.586  11.281  1.7476 -1.3718 -0.9921
  407MOL0     H56100   6.490   1.739  11.200 -2.1092 -0.3219  1.8503
  407MOL0     H56101   6.568   1.694  11.483  0.4228  0.0021 -1.0885
  407MOL0     H56102   6.633   1.842  11.393 -1.5417  2.0556 -0.1152
  407MOL0     H56103   6.360   1.872  11.359 -1.4362 -0.3398  2.1349
  407MOL0     H56104   6.374   1.755  11.490  0.7420 -1.6304 -0.1368
  407MOL0     H56105   6.536   1.980  11.586  0.1180  0.2596 -0.4378
  407MOL0     H56106   6.434   2.046  11.466  0.9574  0.1952  0.3650
  407MOL0     H56107   6.376   1.880  11.702  1.5533  2.0694 -0.7670
  407MOL0     H56108   6.233   1.933  11.602 -1.2285  3.0443 -3.5529
  407MOL0     H56109   6.414   2.154  11.656  0.9562  0.2088  0.1781
  407MOL0     H56110   6.243   2.152  11.686 -0.5354 -1.3641  1.7381
  407MOL0     H56111   6.271   2.021  11.890 -0.2592 -0.1284 -1.5794
  407MOL0     H56112   6.327   2.190  11.897  1.4919 -1.3226  3.1624
  407MOL0     H56113   6.477   2.048  12.019  0.8164  6.0839 -0.3491
  407MOL0     H56114   6.521   1.939  11.896 -1.2759 -0.7517  0.5948
  407MOL0     H56115   6.568   2.283  12.021 -0.6200 -1.1279  0.6002
  407MOL0     H56116   6.788   2.510  11.757  0.3475 -0.3667  0.9894
  407MOL0     H56117   6.806   2.504  11.925  1.7044 -0.1159 -0.8314
  407MOL0     H56118   6.559   2.553  11.958 -2.6165  1.8361 -0.4472
  407MOL0     H56119   6.644   2.677  11.866 -1.3801  1.4926 -1.4247
  407MOL0     H56120   6.562   2.608  11.648  0.4933  0.0157  0.4824
  407MOL0     H56121   6.474   2.477  11.700  0.0734  0.8752 -0.3571
  407MOL0     H56122   6.316   2.624  11.691  3.3234  2.2028 -3.7377
  407MOL0     H56123   6.349   2.606  11.869 -0.7861 -0.7589 -0.8898
  407MOL0     H56124   6.135   2.762  11.685 -1.6643  0.2686  1.0842
  407MOL0     H56125   5.888   2.925  11.741  1.6467 -0.9132  0.7827
  407MOL0     H56126   5.950   2.824  11.617  2.0790 -1.4141  2.9041
  407MOL0     H56127   5.901   2.993  11.577 -0.1519 -0.2739 -0.7397
  407MOL0     H56128   5.901   3.352  11.921 -1.9167 -0.0562  1.6788
  407MOL0     H56129   5.747   3.518  11.972  0.3101  6.3275 -0.6732
  407MOL0     H56130   5.662   3.742  11.905 -1.2256  3.2888  1.7355
  407MOL0     H56131   5.518   3.817  11.861 -1.1537  0.0724 -1.1353
  407MOL0     H56132   5.412   3.590  11.956  1.2187 -2.3199  0.7075
  407MOL0     H56133   5.553   3.583  12.066 -0.0960 -0.4986 -0.4186
  407MOL0     H56134   5.342   3.805  12.065  1.1662  0.5588  0.6417
  407MOL0     H56135   5.496   3.823  12.141 -0.3685 -0.8429  2.9716
  407MOL0     H56136   5.450   3.588  12.258 -0.2447  0.0484  1.3548
  407MOL0     H56137   5.292   3.600  12.183 -1.7666  2.3785  0.5451
  407MOL0     H56138   5.403   3.814  12.362  1.1801 -1.7678  0.5227
  407MOL0     H56139   5.227   3.785  12.340 -0.3274  0.4411  2.6693
  407MOL0     H56140   5.394   3.574  12.457  1.5826  2.0954  2.8502
  407MOL0     H56141   5.214   3.610  12.451 -2.0178  3.7166 -1.7831
  407MOL0     H56142   5.267   3.788  12.635  1.0604  0.2777  1.7990
  407MOL0     H56143   5.437   3.767  12.592  0.5805 -2.7407 -2.0950
  407MOL0     H56144   5.371   3.648  12.815 -2.9294  0.2565  0.3620
  407MOL0     H56145   5.420   3.534  12.701  0.8751 -0.3521  1.2937
  407MOL0     H56146   5.610   3.513  11.561 -0.4294  0.4047  0.5914
  407MOL0     H56147   5.768   3.322  11.517 -0.1976  1.4717 -0.9731
  407MOL0     H56148   6.318   3.214  11.740  0.7414 -0.0374  2.5217
  407MOL0     H56149   6.459   3.042  11.773  0.1419  0.3067  0.1498
  407MOL0     H56150   6.503   1.605  11.011  0.4391  0.5194 -1.9844
  407MOL0     H56151   6.547   1.483  10.824  0.3480  1.0588  0.1219
  407MOL0     H56152   6.616   1.013  10.665  0.2292 -1.7723 -1.7512
  407MOL0     H56153   6.706   0.836  10.557  0.9633 -0.8056 -0.4907
  407MOL0     H56154   6.985   0.625  10.419  2.7896  1.8780  2.5334
  407MOL0     H56155   6.828   0.659  10.495 -1.0301  0.5684 -0.7000
  407MOL0     H56156   6.765   0.823  10.313 -1.1392 -0.5726 -1.6819
  407MOL0     H56157   6.816   0.664  10.254 -0.4319 -1.3702  1.4187
  407MOL0     H56158   6.882   0.862  10.129 -0.4093 -2.4240 -1.3029
  407MOL0     H56159   6.990   0.915  10.262  1.2647 -0.4469 -0.3137
  407MOL0     H56160   7.044   0.641  10.111  1.9596  0.4690 -2.5063
  407MOL0     H56161   7.128   0.701  10.251 -0.4181  2.0391  1.7065
  407MOL0     H56162   7.276   0.881   9.889  4.6063  0.6314  3.4354
  407MOL0     H56163   7.100   0.981  10.625 -0.9279 -0.7366 -0.3051
  407MOL0     H56164   6.997   1.229  10.853  0.9251  0.8537 -0.1339
  407MOL0     H56165   7.131   1.155  10.754 -0.0725 -0.6929 -1.9288
  407MOL0     H56166   7.046   1.293  10.690  1.3887  0.2941  0.0018
  408MOL0     O56167  11.340   3.081   6.852 -0.2963 -0.4955 -0.3833
  408MOL0     C56168  11.251   3.128   6.788  0.0032  0.4991 -0.3899
  408MOL0     O56169  11.123   3.133   6.826  0.1445  0.1455 -0.0106
  408MOL0     C56170  11.074   3.039   6.914 -0.4758  0.8740  0.5520
  408MOL0     C56171  11.041   2.912   6.873  0.1004  0.5514 -0.0284
  408MOL0     C56172  10.989   2.824   6.971  0.1284  0.3836 -0.4199
  408MOL0     C56173  10.986   2.853   7.103  0.1253  1.2239  0.1046
  408MOL0     O56174  10.939   2.767   7.207 -0.5082 -0.3413 -0.3830
  408MOL0     C56175  10.935   2.626   7.187 -0.2578  0.0460  0.3656
  408MOL0     C56176  10.803   2.583   7.115 -0.0631 -1.1078  0.3005
  408MOL0     C56177  10.721   2.500   7.213 -0.7120  0.0656  0.5538
  408MOL0     C56178  10.793   2.376   7.267 -0.3343  0.8185 -0.8283
  408MOL0     C56179  10.699   2.260   7.325  0.4956 -0.2739  0.1622
  408MOL0     C56180  10.580   2.307   7.409 -0.1326 -0.9230  0.8817
  408MOL0     C56181  10.609   2.386   7.540  0.5818 -0.6705 -0.6000
  408MOL0     C56182  10.685   2.302   7.648  0.3560 -0.1281 -0.4701
  408MOL0     N56183  10.594   2.194   7.697  0.3171  0.0220  0.4656
  408MOL0     C56184  10.479   2.203   7.765  0.1539  0.4824  0.5410
  408MOL0     C56185  10.461   2.079   7.809 -0.2796  0.4836 -1.0581
  408MOL0     C56186  10.349   2.035   7.888  0.4469  0.1946  0.9963
  408MOL0     C56187  10.274   1.917   7.818  0.1456  0.0295  0.4590
  408MOL0     C56188  10.183   1.960   7.705  0.3350  1.1466  0.8483
  408MOL0     C56189  10.263   2.002   7.582  0.3165  0.1218 -0.3342
  408MOL0     O56190  10.173   2.002   7.477  0.2238 -0.0953  0.4374
  408MOL0     C56191  10.225   2.003   7.348 -0.4252  0.2925  0.6156
  408MOL0     C56192  10.119   1.993   7.257  0.3641 -0.5353 -0.2674
  408MOL0     C56193  10.141   1.960   7.124 -0.8917  0.2760 -0.7715
  408MOL0     C56194  10.023   1.961   7.041  0.8526 -0.0804 -0.0346
  408MOL0     C56195  10.280   1.949   7.083 -1.0240  0.5838 -0.3517
  408MOL0     C56196  10.326   1.910   6.947  0.5432 -0.3316  1.5481
  408MOL0     O56197  10.234   1.833   6.873  0.4377  1.3059  0.3215
  408MOL0     C56198  10.227   1.815   6.734 -0.5201 -0.3269  0.0892
  408MOL0     C56199  10.123   1.870   6.665  0.0521 -0.1743  0.3158
  408MOL0     C56200  10.127   1.871   6.526  0.0294  0.0080  0.0125
  408MOL0     C56201  10.242   1.808   6.461 -0.3724  0.0696 -0.4618
  408MOL0     O56202  10.272   1.812   6.327  0.4481  0.0279  0.4066
  408MOL0     C56203  10.173   1.843   6.234 -0.1937 -0.2027  0.3517
  408MOL0     C56204  10.197   1.776   6.100 -0.4860  0.6231 -0.0340
  408MOL0     C56205  10.070   1.793   6.009  0.3699 -0.1441  0.2788
  408MOL0     C56206  10.085   1.737   5.858  0.3597 -0.1459 -0.3139
  408MOL0     C56207  10.089   1.576   5.859  0.0020 -0.0724  0.6712
  408MOL0     C56208  10.064   1.508   5.728  0.0326  0.0134  0.0825
  408MOL0     C56209   9.921   1.510   5.673  0.5365  0.9593 -0.5672
  408MOL0     C56210   9.842   1.415   5.765  1.0749  0.4359 -0.0995
  408MOL0    Cl56211   9.679   1.380   5.697 -0.0755  0.0941 -0.2876
  408MOL0     C56212  10.346   1.745   6.540 -0.1910 -0.1954  0.0579
  408MOL0     C56213  10.337   1.747   6.672  0.4846  0.0539 -0.5300
  408MOL0     O56214  10.444   1.924   6.910  0.3915 -0.2010 -0.5459
  408MOL0     C56215  10.388   1.971   7.179  0.5850 -0.0510 -0.9041
  408MOL0     C56216  10.356   1.987   7.310 -0.3407 -0.2725  0.1209
  408MOL0     N56217  10.567   1.993   7.769  0.7595  0.7660  0.0380
  408MOL0     N56218  10.647   2.068   7.707  0.7050  0.1487 -0.6807
  408MOL0     C56219  11.022   2.976   7.142 -0.5032  0.4201  0.0385
  408MOL0     C56220  11.075   3.065   7.051 -0.0278  1.0260  0.0052
  408MOL0     C56221  11.267   3.184   6.656 -0.2566  0.0450  0.1259
  408MOL0     C56222  11.162   3.256   6.600 -0.7150  1.4250  0.3424
  408MOL0     C56223  11.170   3.310   6.469  0.3677 -0.6310 -0.1768
  408MOL0     C56224  11.295   3.305   6.404 -0.0901  0.8034  0.1386
  408MOL0     O56225  11.300   3.370   6.289 -0.3837 -0.1701 -0.1340
  408MOL0     C56226  11.436   3.382   6.227  0.2641 -0.0354 -0.2178
  408MOL0     C56227  11.470   3.265   6.143 -0.9404 -0.1006 -0.0422
  408MOL0     C56228  11.372   3.231   6.023 -0.6891 -0.4905  0.3204
  408MOL0     C56229  11.397   3.092   5.954  0.0126 -0.0418  0.9045
  408MOL0     C56230  11.539   3.071   5.914 -0.1070 -0.3647 -0.4507
  408MOL0     C56231  11.659   3.075   5.896  1.0472 -0.3765 -0.8704
  408MOL0     C56232  11.390   3.219   6.447  0.0547 -0.0529 -0.2344
  408MOL0     C56233  11.388   3.160   6.576 -0.1292 -0.6475 -0.4826
  408MOL0     C56234  11.507   3.087   6.618 -0.4334 -0.1129  0.4139
  408MOL0     H56235  11.035   2.894   6.766  1.0539 -1.0857  0.1459
  408MOL0     H56236  10.947   2.728   6.940  1.8940 -0.2769 -0.9298
  408MOL0     H56237  10.933   2.592   7.291  2.6968 -0.8642  0.2007
  408MOL0     H56238  11.017   2.583   7.128 -1.5367 -0.3711 -1.1894
  408MOL0     H56239  10.745   2.671   7.087 -1.7661 -2.0948  0.5839
  408MOL0     H56240  10.826   2.531   7.022 -1.5896 -0.7903 -0.2829
  408MOL0     H56241  10.691   2.563   7.297  1.4226  3.3958 -0.9370
  408MOL0     H56242  10.632   2.466   7.160  0.8771 -2.1209 -0.8652
  408MOL0     H56243  10.851   2.327   7.188 -1.1188 -2.2484  0.3885
  408MOL0     H56244  10.859   2.406   7.349 -4.0436  1.9584  2.0110
  408MOL0     H56245  10.759   2.188   7.381 -0.6531 -2.0257 -0.7794
  408MOL0     H56246  10.656   2.207   7.239 -1.3242  0.2176  0.7275
  408MOL0     H56247  10.524   2.370   7.340  1.2588  0.5920  1.0717
  408MOL0     H56248  10.508   2.229   7.437  1.5108 -1.7422  3.1280
  408MOL0     H56249  10.521   2.428   7.589  0.4636  1.0114 -2.1528
  408MOL0     H56250  10.679   2.466   7.515 -0.0702  0.0162 -0.2649
  408MOL0     H56251  10.778   2.268   7.601 -0.3607  0.2220 -2.2165
  408MOL0     H56252  10.713   2.360   7.736 -0.6445 -0.5358  0.1200
  408MOL0     H56253  10.413   2.287   7.777 -0.2806  0.2624 -0.2704
  408MOL0     H56254  10.277   2.118   7.891  2.0889  2.0675 -3.1039
  408MOL0     H56255  10.376   2.007   7.990  0.9068  1.7785  1.3278
  408MOL0     H56256  10.348   1.847   7.778  1.9383  3.2902 -2.5488
  408MOL0     H56257  10.217   1.868   7.897 -2.0418  1.6236 -0.0443
  408MOL0     H56258  10.127   1.869   7.684  0.6028  0.8129  1.5388
  408MOL0     H56259  10.107   2.034   7.733 -0.8524  0.6810 -0.9823
  408MOL0     H56260  10.293   2.107   7.585 -0.2746  0.2678  0.6582
  408MOL0     H56261  10.346   1.930   7.574  2.0717  1.7225  2.1661
  408MOL0     H56262  10.017   2.008   7.291  1.3816  2.0374  2.1131
  408MOL0     H56263   9.954   1.878   7.059  1.0045 -1.1819 -3.7504
  408MOL0     H56264  10.044   1.972   6.935  0.0204  4.1776  0.0605
  408MOL0     H56265   9.966   2.054   7.049 -0.1946 -0.2969 -3.6370
  408MOL0     H56266  10.042   1.921   6.715  1.6138  3.0102 -0.1617
  408MOL0     H56267  10.047   1.898   6.459 -0.3106 -0.9079  0.0298
  408MOL0     H56268  10.073   1.821   6.273  0.9558 -1.3893  2.9083
  408MOL0     H56269  10.187   1.951   6.220 -0.0881 -0.0615  1.4050
  408MOL0     H56270  10.275   1.835   6.051 -0.4222  2.9865  2.6777
  408MOL0     H56271  10.219   1.669   6.114  2.0341  0.9785 -0.8113
  408MOL0     H56272  10.056   1.902   6.003 -0.9454 -0.1317  2.3471
  408MOL0     H56273   9.986   1.740   6.054  1.4844 -0.7469  1.7574
  408MOL0     H56274  10.188   1.762   5.831  0.5279  0.7368  1.0409
  408MOL0     H56275  10.015   1.775   5.783 -0.0833 -2.0841 -0.9223
  408MOL0     H56276  10.193   1.554   5.887  0.9227  2.1520 -0.7396
  408MOL0     H56277  10.016   1.541   5.933 -1.1519  5.1341  2.4453
  408MOL0     H56278  10.092   1.402   5.731 -0.8386 -0.2791 -1.5347
  408MOL0     H56279  10.126   1.550   5.648 -1.4897  2.0861 -0.0785
  408MOL0     H56280   9.929   1.485   5.567 -4.6006  3.1622 -1.7852
  408MOL0     H56281   9.885   1.613   5.667  1.1140  1.5345  3.2606
  408MOL0     H56282   9.826   1.467   5.860  0.5178  1.4952 -0.7445
  408MOL0     H56283   9.891   1.318   5.770  2.4712  1.1710  2.0835
  408MOL0     H56284  10.437   1.713   6.490 -0.1540 -2.6241  1.5567
  408MOL0     H56285  10.413   1.705   6.737  0.1186  1.0368  0.5769
  408MOL0     H56286  10.493   1.984   7.155  0.1917  1.0854 -2.1195
  408MOL0     H56287  10.443   1.985   7.376  1.2676  2.5947 -1.7235
  408MOL0     H56288  11.027   2.999   7.248 -2.6013 -0.2121  0.3290
  408MOL0     H56289  11.112   3.158   7.092 -2.8960  2.2111  0.1554
  408MOL0     H56290  11.070   3.274   6.655 -2.8386  0.1171 -2.4796
  408MOL0     H56291  11.081   3.366   6.439 -1.7539 -1.4566  3.9086
  408MOL0     H56292  11.436   3.471   6.163 -1.6733  0.8516  0.9254
  408MOL0     H56293  11.509   3.398   6.306  0.2986 -3.7940  0.6892
  408MOL0     H56294  11.484   3.173   6.199  1.2253  2.1258  3.4735
  408MOL0     H56295  11.565   3.284   6.091  0.1084 -0.3514  1.7036
  408MOL0     H56296  11.272   3.221   6.066 -0.0115  0.3763  2.1683
  408MOL0     H56297  11.373   3.304   5.941 -0.9710  0.1790  0.9069
  408MOL0     H56298  11.333   3.087   5.865  3.1358 -1.5953 -1.4763
  408MOL0     H56299  11.375   3.000   6.009  3.5136 -1.2266  0.5659
  408MOL0     H56300  11.763   3.085   5.871  1.9880 -0.4525  2.5257
  408MOL0     H56301  11.491   3.209   6.408  0.5143 -1.4849  1.2011
  408MOL0     H56302  11.554   3.049   6.527  0.8117  2.6120 -0.1785
  408MOL0     H56303  11.578   3.149   6.674  0.4628 -1.4394  0.7715
  408MOL0     H56304  11.486   3.010   6.693  0.5555  2.2736  3.3696
  409MOL0     O56305   1.419  10.785   6.674 -0.3131 -0.1177  0.1000
  409MOL0     C56306   1.534  10.828   6.638  0.8918  0.1804  0.1248
  409MOL0     O56307   1.549  10.890   6.520 -0.6509 -0.2470  0.1961
  409MOL0     C56308   1.458  10.985   6.486 -0.0185  0.0249 -0.1283
  409MOL0     C56309   1.367  10.976   6.383 -0.1249  0.1738  0.4904
  409MOL0     C56310   1.278  11.074   6.348 -0.2548 -0.4068  0.0734
  409MOL0     C56311   1.273  11.194   6.420 -0.3477 -0.3804 -0.4569
  409MOL0     O56312   1.209  11.317   6.394 -0.2385  0.7811  0.2930
  409MOL0     C56313   1.113  11.322   6.289 -0.7855 -0.0228  0.2143
  409MOL0     C56314   1.026  11.449   6.280  0.2485  0.6892 -0.7334
  409MOL0     C56315   1.094  11.582   6.311  0.5437  1.2457 -0.5543
  409MOL0     C56316   1.042  11.655   6.444 -0.2761 -0.3300  0.4704
  409MOL0     C56317   1.164  11.691   6.532  0.0284 -0.4948 -0.2117
  409MOL0     C56318   1.110  11.719   6.676  0.2604  0.4829  0.2730
  409MOL0     C56319   0.999  11.823   6.700 -0.1704 -0.4766 -0.1094
  409MOL0     C56320   0.992  11.877   6.843  0.4434  0.5942 -0.1195
  409MOL0     N56321   0.897  11.992   6.864 -0.5499  0.0413  0.5117
  409MOL0     C56322   0.769  12.003   6.821 -0.7882 -0.4745  0.5895
  409MOL0     C56323   0.745  12.139   6.857  0.5007 -0.0131 -0.1766
  409MOL0     C56324   0.627  12.222   6.830 -0.2719  0.5996 -0.0133
  409MOL0     C56325   0.579  12.218   6.689 -0.2146  0.3453  0.2255
  409MOL0     C56326   0.464  12.323   6.677  0.7896  0.5334 -0.4203
  409MOL0     C56327   0.330  12.286   6.737  0.1040 -0.2358 -0.4138
  409MOL0     O56328   0.221  12.389   6.720 -0.2804  0.7083  0.1678
  409MOL0     C56329   0.085  12.371   6.743  0.1694  0.9881  0.1705
  409MOL0     C56330   0.051  12.272   6.833 -0.6698 -0.1499  0.7545
  409MOL0     C56331  -0.083  12.218   6.827  0.3655  0.5108  0.4428
  409MOL0     C56332  -0.107  12.086   6.914 -0.4358  0.3918  0.9997
  409MOL0     C56333  -0.189  12.286   6.765 -0.8449 -0.3892 -0.7419
  409MOL0     C56334  -0.331  12.245   6.760 -0.0623  0.9850  0.2811
  409MOL0     O56335  -0.403  12.318   6.680 -0.1246  0.3256 -0.6974
  409MOL0     C56336  -0.530  12.339   6.725  0.2948 -0.0486  0.5570
  409MOL0     C56337  -0.561  12.380   6.856 -0.8040  0.0834 -0.5966
  409MOL0     C56338  -0.689  12.400   6.908 -0.2781 -0.0021  0.1956
  409MOL0     C56339  -0.795  12.385   6.813  0.2255 -1.3325  1.2027
  409MOL0     O56340  -0.926  12.413   6.832 -0.0559 -0.1404  0.2111
  409MOL0     C56341  -0.948  12.553   6.865 -0.1562  0.9499 -0.7271
  409MOL0     C56342  -1.050  12.558   6.973  0.5336 -1.0940  0.1894
  409MOL0     C56343  -1.057  12.695   7.038  0.1224 -0.1581  0.0990
  409MOL0     C56344  -1.160  12.710   7.154  0.1494 -0.1220  0.3013
  409MOL0     C56345  -1.129  12.837   7.243 -0.7503  0.0171 -0.2177
  409MOL0     C56346  -1.142  12.976   7.168 -0.7005  0.0944 -0.1481
  409MOL0     C56347  -1.290  12.995   7.127 -0.3248 -0.9150 -0.3297
  409MOL0     C56348  -1.296  13.133   7.064 -0.8143  0.6124 -0.0994
  409MOL0    Cl56349  -1.462  13.180   7.011  0.1546  0.5253  0.3515
  409MOL0     C56350  -0.759  12.368   6.676  0.8975 -0.7653  0.1578
  409MOL0     C56351  -0.627  12.337   6.634  0.2472 -0.7468 -0.8763
  409MOL0     O56352  -0.371  12.146   6.820 -0.0180 -0.2215 -0.3168
  409MOL0     C56353  -0.155  12.402   6.691  0.1683  0.3255  0.5643
  409MOL0     C56354  -0.016  12.441   6.667  0.4965  0.0953  0.7450
  409MOL0     N56355   0.855  12.202   6.908  0.2183  0.2820 -0.4686
  409MOL0     N56356   0.943  12.116   6.925 -0.2958  0.9772  0.7873
  409MOL0     C56357   1.364  11.204   6.520 -0.3371  0.5960  0.7664
  409MOL0     C56358   1.456  11.109   6.552  0.1291 -0.5829 -0.1012
  409MOL0     C56359   1.660  10.797   6.712 -0.3810  0.2294 -0.5643
  409MOL0     C56360   1.783  10.822   6.651 -0.6081  0.2365  0.1110
  409MOL0     C56361   1.902  10.799   6.720  0.7766  0.2174 -0.4297
  409MOL0     C56362   1.899  10.760   6.853 -0.1210 -0.4224  0.4575
  409MOL0     O56363   2.028  10.753   6.901  0.3689  0.1862  0.3064
  409MOL0     C56364   2.042  10.737   7.044 -0.2559  0.2575 -0.0545
  409MOL0     C56365   2.195  10.717   7.096  0.1401 -0.0509  0.0989
  409MOL0     C56366   2.260  10.856   7.106  0.4502 -0.3259 -0.0657
  409MOL0     C56367   2.409  10.847   7.123  0.2556  0.1111 -1.4466
  409MOL0     C56368   2.448  10.993   7.131  0.2138  0.4089 -0.1012
  409MOL0     C56369   2.494  11.105   7.133 -0.8109  0.0731 -1.0982
  409MOL0     C56370   1.777  10.740   6.915 -0.1671  0.3957  0.5840
  409MOL0     C56371   1.657  10.746   6.848  0.1343 -0.1210 -0.2471
  409MOL0     C56372   1.532  10.700   6.921 -0.6393 -0.4876  0.0993
  409MOL0     H56373   1.379  10.884   6.326  0.5141 -1.6817  3.3960
  409MOL0     H56374   1.227  11.064   6.253 -0.4214  2.8851 -0.3131
  409MOL0     H56375   1.048  11.234   6.278  0.9146 -1.1943 -1.0451
  409MOL0     H56376   1.173  11.311   6.198  0.1069  3.9277  0.1579
  409MOL0     H56377   0.984  11.457   6.180  0.5849  2.2362 -0.7752
  409MOL0     H56378   0.939  11.442   6.346 -0.2509  0.6812 -1.3945
  409MOL0     H56379   1.199  11.558   6.329  0.0502 -1.9367 -1.4014
  409MOL0     H56380   1.078  11.653   6.229 -0.7922  1.6336 -0.0041
  409MOL0     H56381   0.982  11.742   6.419  1.8211  1.5697  1.6534
  409MOL0     H56382   0.967  11.596   6.498 -3.6847  1.1856 -2.2738
  409MOL0     H56383   1.215  11.779   6.492 -1.5203  0.6140  0.1450
  409MOL0     H56384   1.244  11.617   6.542  0.5043  0.1892  1.3315
  409MOL0     H56385   1.074  11.626   6.721  1.6897 -0.7248 -0.9884
  409MOL0     H56386   1.196  11.745   6.740  0.2260 -1.3410  1.1198
  409MOL0     H56387   0.900  11.792   6.665  0.6477 -0.3216 -2.8111
  409MOL0     H56388   1.033  11.903   6.633 -1.2790 -0.7784 -1.0667
  409MOL0     H56389   0.957  11.794   6.905  1.1805 -0.5011 -1.1232
  409MOL0     H56390   1.092  11.907   6.876 -0.1422  1.1361  1.2355
  409MOL0     H56391   0.710  11.924   6.775 -2.1517  0.0865  1.3312
  409MOL0     H56392   0.658  12.323   6.856  0.1327  1.1826 -2.5263
  409MOL0     H56393   0.552  12.180   6.898  0.5233 -0.4548  0.2500
  409MOL0     H56394   0.663  12.257   6.631 -0.7280 -0.0016 -0.7871
  409MOL0     H56395   0.559  12.117   6.652  2.2513  0.4567 -1.6939
  409MOL0     H56396   0.496  12.419   6.717  1.8476 -0.9521  2.5666
  409MOL0     H56397   0.446  12.350   6.572 -3.7304  1.1835  0.3017
  409MOL0     H56398   0.304  12.196   6.679 -0.6816  0.9711 -2.0123
  409MOL0     H56399   0.340  12.260   6.842  1.1349 -0.7357 -0.6216
  409MOL0     H56400   0.127  12.225   6.893 -1.4449 -2.5128  0.0203
  409MOL0     H56401  -0.182  12.023   6.866  0.6197  0.6135 -1.0309
  409MOL0     H56402  -0.144  12.113   7.014 -0.4163  1.1958  0.7936
  409MOL0     H56403  -0.019  12.022   6.920 -0.6937  0.1044  1.9673
  409MOL0     H56404  -0.481  12.394   6.929 -0.5500  0.8968 -1.0127
  409MOL0     H56405  -0.709  12.426   7.011 -0.6588 -1.5109  0.5286
  409MOL0     H56406  -0.860  12.608   6.898  1.0591 -0.0141 -2.2350
  409MOL0     H56407  -0.988  12.601   6.776 -2.6059 -1.3248 -0.9832
  409MOL0     H56408  -1.145  12.534   6.923  0.2897  1.2498 -0.6335
  409MOL0     H56409  -1.024  12.490   7.054  0.5232 -0.0205  1.1221
  409MOL0     H56410  -1.090  12.761   6.957 -0.7465 -1.9136 -1.0489
  409MOL0     H56411  -0.958  12.713   7.080 -0.4578 -1.8954  2.3649
  409MOL0     H56412  -1.156  12.620   7.216  2.3173  0.4817  1.1285
  409MOL0     H56413  -1.261  12.713   7.111 -1.7410 -1.5890  4.1461
  409MOL0     H56414  -1.197  12.841   7.329  2.1522 -2.7165  2.4979
  409MOL0     H56415  -1.029  12.831   7.289  0.1021 -0.7403 -2.0636
  409MOL0     H56416  -1.069  12.983   7.088 -1.0143 -0.3174 -0.4782
  409MOL0     H56417  -1.119  13.059   7.236 -0.0537 -1.1526  1.2197
  409MOL0     H56418  -1.358  13.000   7.212  1.0548  0.9478  0.7458
  409MOL0     H56419  -1.320  12.923   7.051 -0.4034 -0.0449 -1.1486
  409MOL0     H56420  -1.237  13.127   6.971 -1.1118  2.1084 -0.4251
  409MOL0     H56421  -1.257  13.214   7.127 -0.7300  1.9688 -1.8042
  409MOL0     H56422  -0.830  12.375   6.594  1.0847 -4.2091 -0.4573
  409MOL0     H56423  -0.599  12.327   6.530  3.4681  0.9412 -0.2720
  409MOL0     H56424  -0.232  12.453   6.633  1.2250  0.8476 -0.4321
  409MOL0     H56425   0.015  12.526   6.608 -1.2535  0.0121 -0.3763
  409MOL0     H56426   1.373  11.302   6.564 -2.5904  3.5276 -4.4416
  409MOL0     H56427   1.528  11.134   6.630  1.2235 -2.8240 -0.3285
  409MOL0     H56428   1.799  10.861   6.551  4.1006 -1.9443 -0.2595
  409MOL0     H56429   1.999  10.801   6.671  2.0582  1.7023  1.9628
  409MOL0     H56430   1.988  10.817   7.095 -0.9497  0.5468 -1.2103
  409MOL0     H56431   1.977  10.655   7.074 -0.8889  0.4888 -0.7661
  409MOL0     H56432   2.241  10.638   7.037  1.7890  0.4286  0.6755
  409MOL0     H56433   2.193  10.681   7.200 -0.2249  0.9662  0.4619
  409MOL0     H56434   2.232  10.917   7.019  2.7173  0.8205 -0.0770
  409MOL0     H56435   2.230  10.903   7.200  3.3115  1.0008  0.3040
  409MOL0     H56436   2.449  10.794   7.036  0.5860 -1.9538 -0.1109
  409MOL0     H56437   2.439  10.788   7.210 -0.3990  0.5232 -0.9266
  409MOL0     H56438   2.534  11.204   7.135  0.7220 -0.5187 -0.1617
  409MOL0     H56439   1.770  10.716   7.020 -1.9375 -1.2534  0.1281
  409MOL0     H56440   1.552  10.683   7.028 -2.2304  3.3181  1.1726
  409MOL0     H56441   1.459  10.782   6.926 -0.1300 -0.0676  3.2146
  409MOL0     H56442   1.484  10.610   6.882 -2.7207  0.2499  0.8104
  410MOL0     O56443   8.191   3.626   8.012 -0.0804 -0.3742 -0.4419
  410MOL0     C56444   8.216   3.511   7.975  0.6244 -0.1537 -0.5724
  410MOL0     O56445   8.142   3.438   7.890 -0.2333 -0.1409 -0.8412
  410MOL0     C56446   8.037   3.484   7.820  0.4222 -1.5643  0.2875
  410MOL0     C56447   8.020   3.608   7.762 -0.2900 -0.4155 -0.0510
  410MOL0     C56448   7.907   3.645   7.680 -0.2897 -0.0493 -0.1105
  410MOL0     C56449   7.811   3.554   7.652  0.7635 -0.2154 -0.0123
  410MOL0     O56450   7.701   3.606   7.582 -0.3650  0.9496  0.7789
  410MOL0     C56451   7.576   3.542   7.607  0.3551 -0.3507  0.8576
  410MOL0     C56452   7.465   3.617   7.536 -0.2564  0.2972 -0.0928
  410MOL0     C56453   7.464   3.767   7.571 -0.4444 -0.2958 -0.7589
  410MOL0     C56454   7.361   3.851   7.502  0.3552  0.6451  0.8410
  410MOL0     C56455   7.366   3.984   7.558  0.4598  0.1106  0.6251
  410MOL0     C56456   7.315   4.084   7.447 -0.0997 -0.8849 -0.0411
  410MOL0     C56457   7.330   4.229   7.491 -0.3401  0.2599 -0.3106
  410MOL0     C56458   7.265   4.312   7.384  0.4525 -0.3452  0.4386
  410MOL0     N56459   7.260   4.459   7.393  0.3436 -1.0034  1.0863
  410MOL0     C56460   7.279   4.538   7.280 -0.8512 -0.0879 -0.2850
  410MOL0     C56461   7.283   4.666   7.324  0.1564  0.5941  0.2139
  410MOL0     C56462   7.308   4.776   7.226  0.0112 -0.1119  1.0666
  410MOL0     C56463   7.223   4.901   7.256 -0.0038  0.1177 -0.0369
  410MOL0     C56464   7.230   5.008   7.144 -0.1151 -0.7635  0.8262
  410MOL0     C56465   7.112   5.102   7.137 -1.1724  0.0204 -0.0768
  410MOL0     O56466   7.136   5.207   7.044 -0.1722 -0.8935  0.2489
  410MOL0     C56467   7.033   5.283   6.993  1.2769 -0.8720 -0.4627
  410MOL0     C56468   7.057   5.373   6.898 -0.4962  0.9264 -0.0915
  410MOL0     C56469   6.973   5.475   6.858 -0.4487 -0.2115  0.2395
  410MOL0     C56470   7.030   5.602   6.780  0.5113 -0.2557 -0.4132
  410MOL0     C56471   6.837   5.465   6.899 -0.1869  0.1434 -0.2669
  410MOL0     C56472   6.727   5.554   6.852 -0.2429 -0.2476 -0.0957
  410MOL0     O56473   6.752   5.635   6.742  0.6302 -0.3604 -0.1685
  410MOL0     C56474   6.646   5.700   6.687 -0.3392 -0.2327  0.7426
  410MOL0     C56475   6.588   5.665   6.562  0.3465 -0.2259  0.6061
  410MOL0     C56476   6.492   5.744   6.509 -0.4907 -0.2599  0.8969
  410MOL0     C56477   6.457   5.873   6.568  0.2700  0.6082 -0.5561
  410MOL0     O56478   6.378   5.967   6.511 -0.2294  0.2758  0.4031
  410MOL0     C56479   6.363   5.969   6.368 -0.8672  0.2609  0.1759
  410MOL0     C56480   6.344   6.111   6.305  0.3286  0.4672 -1.4318
  410MOL0     C56481   6.470   6.155   6.232  0.8631 -0.3066  0.8604
  410MOL0     C56482   6.436   6.266   6.129  1.3918 -0.3186  0.0852
  410MOL0     C56483   6.349   6.381   6.187  0.0765  0.4180 -0.1686
  410MOL0     C56484   6.311   6.490   6.097  0.4548  0.5829 -0.1871
  410MOL0     C56485   6.243   6.609   6.170 -0.3206 -0.4063 -0.0908
  410MOL0     C56486   6.195   6.729   6.082 -0.7337  0.4366  0.6334
  410MOL0    Cl56487   6.331   6.840   6.073 -0.4606  0.3481  0.3743
  410MOL0     C56488   6.519   5.908   6.684 -1.4830  0.6359 -0.7198
  410MOL0     C56489   6.606   5.822   6.742  0.2827  0.7192 -0.8598
  410MOL0     O56490   6.619   5.534   6.909 -0.7974  0.1690  0.2590
  410MOL0     C56491   6.812   5.375   7.007 -0.2050  0.0186 -0.8320
  410MOL0     C56492   6.905   5.291   7.057  0.1597 -0.5010 -1.1730
  410MOL0     N56493   7.285   4.666   7.461 -0.0700 -0.1459 -0.1797
  410MOL0     N56494   7.266   4.539   7.496  0.2579  0.1479 -0.4863
  410MOL0     C56495   7.829   3.425   7.710 -0.7502 -0.4630  0.0959
  410MOL0     C56496   7.944   3.396   7.780  0.5710  0.6770 -0.0085
  410MOL0     C56497   8.329   3.431   8.034  0.4787 -0.2271 -0.1831
  410MOL0     C56498   8.294   3.309   8.095  0.6793 -0.2417 -0.1311
  410MOL0     C56499   8.392   3.247   8.163 -0.3811 -0.1083  0.3216
  410MOL0     C56500   8.517   3.307   8.191  0.0506 -0.4522  0.9740
  410MOL0     O56501   8.621   3.255   8.268  0.6499  0.3603 -0.4388
  410MOL0     C56502   8.600   3.124   8.325  0.0007 -0.3724 -0.1306
  410MOL0     C56503   8.714   3.088   8.425  0.1600  0.2626 -0.5972
  410MOL0     C56504   8.853   3.112   8.364  0.1152  0.4773  0.7914
  410MOL0     C56505   8.903   2.995   8.278 -0.2009 -0.5020  0.4365
  410MOL0     C56506   8.927   2.879   8.353 -0.7150  0.0581  0.2495
  410MOL0     C56507   8.959   2.808   8.448  0.0883  0.6196 -0.4467
  410MOL0     C56508   8.554   3.430   8.132  0.2579  0.6787  0.5348
  410MOL0     C56509   8.458   3.493   8.048 -0.6287 -0.0416  0.1268
  410MOL0     C56510   8.495   3.635   7.987  0.2973 -0.0011  0.6619
  410MOL0     H56511   8.079   3.698   7.773 -2.3282  1.0932 -0.8115
  410MOL0     H56512   7.896   3.747   7.645  3.8317 -0.1249 -2.3031
  410MOL0     H56513   7.559   3.545   7.715  0.2182 -2.5038  0.9429
  410MOL0     H56514   7.579   3.442   7.564  1.1818 -0.4040  1.0120
  410MOL0     H56515   7.483   3.600   7.429  0.6011 -3.4296  0.4885
  410MOL0     H56516   7.369   3.577   7.569 -0.4713 -1.1403 -2.2823
  410MOL0     H56517   7.442   3.780   7.677  0.0620 -2.0683 -0.4053
  410MOL0     H56518   7.557   3.825   7.565 -0.6036  0.0907  0.2880
  410MOL0     H56519   7.388   3.856   7.396 -6.0084  2.9866 -1.1337
  410MOL0     H56520   7.261   3.813   7.528  2.1529 -4.7119  1.2151
  410MOL0     H56521   7.471   4.010   7.573  0.7260  0.1298 -1.1034
  410MOL0     H56522   7.308   4.000   7.650  0.3092 -0.9049  0.7151
  410MOL0     H56523   7.371   4.072   7.354 -2.6211 -3.7701 -1.3496
  410MOL0     H56524   7.208   4.078   7.427 -0.2698  2.5493 -0.7644
  410MOL0     H56525   7.433   4.259   7.512 -0.3209 -0.4556  0.6695
  410MOL0     H56526   7.270   4.254   7.579  0.3062  1.4426 -0.1771
  410MOL0     H56527   7.308   4.281   7.289 -2.7133 -3.0744 -0.3235
  410MOL0     H56528   7.158   4.290   7.372  1.1169 -3.1990 -1.1616
  410MOL0     H56529   7.288   4.488   7.184  1.4720 -0.5243  0.0884
  410MOL0     H56530   7.274   4.757   7.124 -0.5478 -2.2333  1.5962
  410MOL0     H56531   7.415   4.797   7.219 -0.0414  0.2941  1.3834
  410MOL0     H56532   7.118   4.873   7.268  0.1453 -3.0001 -3.8519
  410MOL0     H56533   7.255   4.957   7.344 -3.1937 -1.9868  2.6945
  410MOL0     H56534   7.322   5.063   7.163  0.2607 -1.3349  0.6828
  410MOL0     H56535   7.225   4.975   7.040 -0.9310  1.0585  0.2398
  410MOL0     H56536   7.026   5.042   7.109 -0.5789 -0.5697 -0.6603
  410MOL0     H56537   7.105   5.133   7.242 -0.0849 -0.4968  0.1718
  410MOL0     H56538   7.153   5.375   6.848 -0.2241  0.2120  0.3755
  410MOL0     H56539   6.972   5.685   6.822  1.6160  1.3294 -1.8458
  410MOL0     H56540   7.024   5.589   6.672  1.7074  0.1245 -0.5369
  410MOL0     H56541   7.137   5.614   6.797  0.3228  0.7686  0.1796
  410MOL0     H56542   6.615   5.581   6.499 -2.0986 -2.1194  1.9348
  410MOL0     H56543   6.443   5.704   6.421 -0.5815 -0.2233  0.9309
  410MOL0     H56544   6.456   5.929   6.327  1.4935 -0.5367  5.4832
  410MOL0     H56545   6.282   5.899   6.345 -1.2926  0.2971  1.5025
  410MOL0     H56546   6.260   6.111   6.235 -0.7925  2.5302 -0.1774
  410MOL0     H56547   6.314   6.177   6.387  2.4112 -2.3243  1.8474
  410MOL0     H56548   6.505   6.065   6.181 -0.2016 -0.8453  1.0594
  410MOL0     H56549   6.541   6.201   6.302 -0.5128  0.2014  1.9767
  410MOL0     H56550   6.390   6.232   6.036  1.3323  0.1963 -0.0744
  410MOL0     H56551   6.532   6.302   6.090  2.8239 -1.3800  2.4208
  410MOL0     H56552   6.260   6.343   6.239 -0.2755  1.2262 -0.1759
  410MOL0     H56553   6.406   6.428   6.268  3.1182 -0.4584 -1.6380
  410MOL0     H56554   6.231   6.453   6.032 -2.0713  2.7285  1.4692
  410MOL0     H56555   6.396   6.507   6.031 -0.8490  0.5358 -1.9340
  410MOL0     H56556   6.311   6.651   6.245 -0.9650 -0.7105  0.6921
  410MOL0     H56557   6.160   6.567   6.228 -0.2436 -0.6897 -0.1885
  410MOL0     H56558   6.107   6.779   6.125  0.0379  0.9680  1.6357
  410MOL0     H56559   6.175   6.681   5.986 -2.5662 -3.4171  2.6716
  410MOL0     H56560   6.504   6.004   6.733  0.3212  1.4852 -1.7406
  410MOL0     H56561   6.638   5.849   6.843  0.3794 -0.5972 -0.5228
  410MOL0     H56562   6.712   5.369   7.050  0.7514 -2.3015  1.3085
  410MOL0     H56563   6.878   5.227   7.140  0.9085 -1.5384 -1.7044
  410MOL0     H56564   7.747   3.355   7.693 -1.6323  0.8970 -1.4766
  410MOL0     H56565   7.972   3.295   7.808 -0.4865 -0.6169 -3.1877
  410MOL0     H56566   8.193   3.272   8.083  0.2327 -0.5781  3.5178
  410MOL0     H56567   8.384   3.142   8.191 -0.9245 -0.7835 -2.1876
  410MOL0     H56568   8.513   3.129   8.391  0.8074  1.1786  0.8848
  410MOL0     H56569   8.593   3.046   8.248 -0.3841 -2.1331  1.5926
  410MOL0     H56570   8.700   2.983   8.452  2.9070  0.3148  1.5396
  410MOL0     H56571   8.707   3.158   8.509 -2.0055 -2.5760  1.8396
  410MOL0     H56572   8.861   3.199   8.298  0.1207  0.4050  0.6960
  410MOL0     H56573   8.925   3.131   8.444 -2.2187 -2.0225  3.7199
  410MOL0     H56574   8.987   3.034   8.221 -2.6444  3.3530 -0.9780
  410MOL0     H56575   8.831   2.969   8.200 -1.6172 -0.8758  1.8179
  410MOL0     H56576   8.968   2.757   8.542 -2.9549 -2.0022 -1.4125
  410MOL0     H56577   8.650   3.473   8.154  1.6549 -3.0972  2.7453
  410MOL0     H56578   8.600   3.655   7.963 -0.5489  1.0643 -2.8054
  410MOL0     H56579   8.440   3.659   7.895 -0.0518  1.8467  1.2953
  410MOL0     H56580   8.464   3.712   8.058  1.9600 -1.8677  3.5872
  411MOL0     O56581  10.155   7.620   9.618 -0.7407 -0.2834 -0.2588
  411MOL0     C56582  10.048   7.559   9.614 -0.8775 -0.4645 -0.6285
  411MOL0     O56583   9.964   7.550   9.723  0.0536  0.0338  0.0459
  411MOL0     C56584   9.981   7.625   9.838  0.4141 -0.1000  0.7317
  411MOL0     C56585  10.072   7.578   9.944  0.6585 -0.1622  0.0277
  411MOL0     C56586  10.081   7.654  10.065  0.0704  0.2032 -0.0070
  411MOL0     C56587   9.998   7.766  10.078  0.8240  0.1035 -0.1357
  411MOL0     O56588  10.018   7.821  10.208 -0.0770 -0.0104  0.0241
  411MOL0     C56589  10.000   7.961  10.241 -0.1802 -0.1317 -0.0279
  411MOL0     C56590  10.129   8.028  10.229  0.1824  0.1052 -0.4021
  411MOL0     C56591  10.111   8.171  10.274 -0.6884  0.7806 -0.8311
  411MOL0     C56592  10.075   8.175  10.425  0.2703  0.6255  0.1648
  411MOL0     C56593  10.065   8.323  10.477  0.4130  0.2938 -0.7445
  411MOL0     C56594   9.986   8.426  10.389  0.5637  0.3144 -0.8180
  411MOL0     C56595   9.832   8.406  10.385 -0.8756 -0.0079  0.5773
  411MOL0     C56596   9.755   8.446  10.509  0.9408  0.0455 -0.2519
  411MOL0     N56597   9.618   8.392  10.512  0.0067 -0.1420 -0.4328
  411MOL0     C56598   9.507   8.414  10.426  0.0902  0.8336 -0.4612
  411MOL0     C56599   9.399   8.347  10.486  0.2339  0.0161  0.6800
  411MOL0     C56600   9.257   8.344  10.434 -0.8822  0.1041  1.1348
  411MOL0     C56601   9.169   8.339  10.560 -0.1793 -0.4998 -0.4165
  411MOL0     C56602   9.016   8.346  10.526 -1.2149 -0.0822 -0.2685
  411MOL0     C56603   8.925   8.346  10.650  0.1068  1.3565 -0.9127
  411MOL0     O56604   8.925   8.212  10.696  1.3067 -0.2579 -0.2294
  411MOL0     C56605   8.802   8.153  10.675  0.5985 -0.4878  0.0680
  411MOL0     C56606   8.684   8.209  10.718 -0.0256  1.1771  0.0114
  411MOL0     C56607   8.563   8.150  10.694 -0.1155  0.4211 -0.3786
  411MOL0     C56608   8.443   8.215  10.741  0.3812 -0.7067  0.8068
  411MOL0     C56609   8.557   8.021  10.636 -0.0158  0.3690  0.2723
  411MOL0     C56610   8.442   7.936  10.624 -0.3066  0.0859  0.4341
  411MOL0     O56611   8.391   7.874  10.510  0.1783 -0.4214  0.2910
  411MOL0     C56612   8.389   7.932  10.385 -0.5631  0.4011 -0.7512
  411MOL0     C56613   8.366   8.062  10.363 -0.4983 -0.7749 -0.9210
  411MOL0     C56614   8.366   8.112  10.240  0.1359 -0.2882  0.4123
  411MOL0     C56615   8.394   8.034  10.122 -0.4619 -0.6595 -0.4203
  411MOL0     O56616   8.405   8.092   9.997  0.7423 -0.5389 -0.0465
  411MOL0     C56617   8.414   8.009   9.880  0.4074  0.6123 -0.4454
  411MOL0     C56618   8.445   8.081   9.750 -0.1328  0.4648  0.9361
  411MOL0     C56619   8.475   7.971   9.645  0.9334 -0.7451 -1.2246
  411MOL0     C56620   8.520   8.031   9.519 -0.3844 -0.0749 -0.1862
  411MOL0     C56621   8.543   7.931   9.410  0.6239  0.0134  0.3413
  411MOL0     C56622   8.674   7.853   9.438  0.0977  0.6304  0.0149
  411MOL0     C56623   8.728   7.770   9.325 -0.5035  0.0939  1.4282
  411MOL0     C56624   8.854   7.838   9.263  0.7752 -0.0507 -0.4994
  411MOL0    Cl56625   8.986   7.864   9.385  0.3645 -0.0874  0.2575
  411MOL0     C56626   8.415   7.891  10.143  0.3107 -0.2275  0.3200
  411MOL0     C56627   8.415   7.849  10.276 -0.3198  0.2065 -0.7603
  411MOL0     O56628   8.404   7.917  10.743 -0.5143  0.5644 -0.6989
  411MOL0     C56629   8.670   7.960  10.594 -0.2677  0.6407 -0.0254
  411MOL0     C56630   8.798   8.029  10.619  0.1070  0.3822  0.1016
  411MOL0     N56631   9.457   8.287  10.599  0.5180  0.1508 -0.1635
  411MOL0     N56632   9.584   8.299  10.601 -0.1107 -0.1569  0.3301
  411MOL0     C56633   9.926   7.819   9.972 -0.5284 -0.2026  0.4334
  411MOL0     C56634   9.915   7.744   9.848  0.3781 -0.0244 -0.9796
  411MOL0     C56635  10.046   7.451   9.515 -0.8539 -0.7193  0.3058
  411MOL0     C56636   9.967   7.342   9.540 -0.6777  0.1039 -0.0950
  411MOL0     C56637   9.945   7.235   9.450  0.2738 -0.6250  0.7135
  411MOL0     C56638  10.006   7.242   9.325  0.5471  0.4966  0.4372
  411MOL0     O56639   9.984   7.149   9.232  0.1914  0.5252 -1.0756
  411MOL0     C56640  10.085   7.102   9.138 -0.0927  0.5197  0.0196
  411MOL0     C56641  10.022   7.062   9.004 -0.7235  0.7129  0.6981
  411MOL0     C56642  10.096   6.942   8.941  0.0114  0.6478  0.0775
  411MOL0     C56643  10.216   6.986   8.850 -0.7721 -0.3514  0.7695
  411MOL0     C56644  10.328   7.028   8.927 -0.2630 -0.1096 -0.7531
  411MOL0     C56645  10.423   7.047   8.997 -0.2590  0.2377 -0.9106
  411MOL0     C56646  10.076   7.359   9.287 -0.1637  0.3764 -0.0042
  411MOL0     C56647  10.097   7.460   9.384 -0.3594  0.3260  0.7248
  411MOL0     C56648  10.174   7.578   9.331  0.1826 -0.3369  0.2039
  411MOL0     H56649  10.133   7.488   9.935  0.4994 -0.3434  0.6713
  411MOL0     H56650  10.127   7.610  10.153  1.0465  1.7996  0.3070
  411MOL0     H56651   9.970   7.948  10.345  1.9241 -4.4668  0.2733
  411MOL0     H56652   9.915   8.007  10.189 -0.1824 -0.6596 -0.5050
  411MOL0     H56653  10.200   7.983  10.299  0.5530  2.0654  0.5477
  411MOL0     H56654  10.167   8.026  10.127  0.8987  0.0874 -0.1401
  411MOL0     H56655  10.200   8.234  10.265 -0.2114  0.7524  2.4390
  411MOL0     H56656  10.030   8.220  10.218 -1.3393  0.9960  0.2645
  411MOL0     H56657   9.976   8.139  10.451  0.2429  0.2907 -0.3853
  411MOL0     H56658  10.138   8.127  10.500 -0.5396  1.2967  1.3041
  411MOL0     H56659  10.169   8.356  10.479  0.4532  0.1558  1.7891
  411MOL0     H56660  10.029   8.314  10.580  0.4938  3.6615 -0.2968
  411MOL0     H56661  10.010   8.523  10.434 -2.4006  1.1317 -0.7576
  411MOL0     H56662  10.021   8.423  10.285 -3.3109 -2.0141 -2.2943
  411MOL0     H56663   9.816   8.300  10.360 -0.1043  0.1575 -0.6990
  411MOL0     H56664   9.803   8.468  10.300 -3.3963 -0.8858  0.7036
  411MOL0     H56665   9.808   8.404  10.595 -0.2347 -2.1868 -0.5487
  411MOL0     H56666   9.743   8.554  10.520 -0.0152 -0.1627  1.0751
  411MOL0     H56667   9.507   8.488  10.346  1.6762  0.9696 -0.3646
  411MOL0     H56668   9.249   8.253  10.373  3.0490 -0.9275  1.8841
  411MOL0     H56669   9.240   8.430  10.369 -1.1627 -2.1870 -2.0791
  411MOL0     H56670   9.204   8.250  10.613  0.3300 -0.0018  0.1047
  411MOL0     H56671   9.186   8.421  10.631  3.4118 -1.9993  0.6879
  411MOL0     H56672   8.988   8.433  10.466 -0.5099  0.4283  0.1267
  411MOL0     H56673   8.987   8.263  10.460  2.0451 -1.4888 -0.1500
  411MOL0     H56674   8.973   8.416  10.720  0.3500  1.0920 -0.8124
  411MOL0     H56675   8.825   8.373  10.614  0.3109  0.6162 -2.0868
  411MOL0     H56676   8.697   8.292  10.786  3.9965 -1.9709  3.6406
  411MOL0     H56677   8.454   8.323  10.756 -0.2457 -0.2598 -1.5396
  411MOL0     H56678   8.432   8.178  10.843  2.4640  0.3144  1.4672
  411MOL0     H56679   8.360   8.192  10.674  0.5927 -4.3527  1.5797
  411MOL0     H56680   8.322   8.118  10.445  0.2865 -3.6385  1.6240
  411MOL0     H56681   8.329   8.214  10.230 -0.2236 -0.4628 -0.0901
  411MOL0     H56682   8.488   7.929   9.890  1.8528  1.7181 -1.8237
  411MOL0     H56683   8.317   7.958   9.873 -1.5007  3.7325  0.8049
  411MOL0     H56684   8.351   8.134   9.730 -0.0949 -0.0313 -0.7056
  411MOL0     H56685   8.516   8.162   9.767 -2.8615  2.6284  3.2504
  411MOL0     H56686   8.391   7.904   9.626  0.9196 -0.9429 -0.5216
  411MOL0     H56687   8.555   7.905   9.681  1.0229  0.2093  0.4125
  411MOL0     H56688   8.611   8.090   9.536 -0.0389  0.1446 -2.4875
  411MOL0     H56689   8.447   8.108   9.494  0.0600  0.6189  0.5921
  411MOL0     H56690   8.462   7.858   9.416  0.7855 -0.2536 -0.6336
  411MOL0     H56691   8.534   7.984   9.315 -1.4064  0.5780  0.8075
  411MOL0     H56692   8.646   7.776   9.510  0.2952  0.1994 -0.3642
  411MOL0     H56693   8.751   7.910   9.491 -1.1494 -0.4071  3.1502
  411MOL0     H56694   8.657   7.767   9.241  1.9719 -0.3628 -0.8069
  411MOL0     H56695   8.746   7.666   9.355 -0.6662 -0.1501  0.7082
  411MOL0     H56696   8.829   7.937   9.222 -5.1134  0.3128  2.7686
  411MOL0     H56697   8.892   7.771   9.185  2.2217  0.3963 -0.2048
  411MOL0     H56698   8.429   7.829  10.055 -1.6916  2.5385 -2.1635
  411MOL0     H56699   8.421   7.742  10.297  0.7791  0.1113 -1.4417
  411MOL0     H56700   8.681   7.867  10.539  0.0461  0.2394  0.7055
  411MOL0     H56701   8.889   7.983  10.581 -1.5689 -2.9918 -0.2121
  411MOL0     H56702   9.871   7.911   9.984  0.5159  0.7069 -1.3208
  411MOL0     H56703   9.865   7.773   9.756  0.4418  0.4151 -0.8790
  411MOL0     H56704   9.903   7.344   9.628  1.3208 -1.1301  1.4810
  411MOL0     H56705   9.877   7.156   9.481 -2.7138  1.4151 -0.2583
  411MOL0     H56706  10.171   7.163   9.110 -0.2694 -0.3349 -2.6758
  411MOL0     H56707  10.128   7.012   9.182  0.3934  1.6264  1.8999
  411MOL0     H56708  10.014   7.146   8.934 -2.5609  1.9688  2.3198
  411MOL0     H56709   9.919   7.038   9.033 -1.3779  2.9996  0.4634
  411MOL0     H56710  10.121   6.864   9.014 -1.4281 -0.9678 -1.0965
  411MOL0     H56711  10.020   6.901   8.874  0.0572  1.4557 -0.4776
  411MOL0     H56712  10.189   7.068   8.783  0.4891 -0.9545 -0.5432
  411MOL0     H56713  10.240   6.898   8.789 -3.5674 -2.2915  2.2519
  411MOL0     H56714  10.506   7.063   9.063 -0.5506  0.6029 -0.6260
  411MOL0     H56715  10.118   7.367   9.188  1.7833 -1.1897  0.6141
  411MOL0     H56716  10.250   7.605   9.404  2.1538 -0.6555 -1.6315
  411MOL0     H56717  10.227   7.557   9.238  0.9531  0.1508  0.5225
  411MOL0     H56718  10.112   7.668   9.327  1.3495  0.7559  3.5957
  412MOL0     O56719   9.289   1.906   9.209  0.0908  0.4223 -0.3895
  412MOL0     C56720   9.181   1.840   9.207 -0.4350  0.0594 -0.8214
  412MOL0     O56721   9.167   1.713   9.158  1.0303 -0.3061 -0.3367
  412MOL0     C56722   9.278   1.643   9.105  0.1242 -0.1225 -0.3654
  412MOL0     C56723   9.315   1.518   9.173 -0.6940  0.1754 -0.7216
  412MOL0     C56724   9.394   1.424   9.109  0.0208 -0.1063  1.1676
  412MOL0     C56725   9.462   1.459   8.994  0.6372 -1.1942  0.4148
  412MOL0     O56726   9.559   1.375   8.937  0.0671  0.4344  0.1183
  412MOL0     C56727   9.543   1.237   8.954 -1.4883  0.0896  0.2889
  412MOL0     C56728   9.658   1.154   8.884  0.0686  0.0277  1.2060
  412MOL0     C56729   9.705   1.205   8.743 -0.2820  0.4797  0.0973
  412MOL0     C56730   9.857   1.160   8.727 -0.2345 -0.7344 -0.6823
  412MOL0     C56731   9.924   1.246   8.622 -0.0719  0.2038 -1.3503
  412MOL0     C56732  10.065   1.232   8.579  0.1020 -0.1389  0.2406
  412MOL0     C56733  10.107   1.361   8.507 -0.3067 -1.1122  0.2317
  412MOL0     C56734  10.188   1.432   8.612  0.5288  1.0598 -0.2941
  412MOL0     N56735  10.259   1.551   8.558  0.3425  0.2547  0.4575
  412MOL0     C56736  10.350   1.536   8.466  0.3263 -0.5803  0.2426
  412MOL0     C56737  10.413   1.654   8.478  0.3690  0.4477  0.6057
  412MOL0     C56738  10.542   1.688   8.404  0.2493  0.1597  0.0338
  412MOL0     C56739  10.542   1.826   8.335  0.8600  0.3309  0.1498
  412MOL0     C56740  10.672   1.853   8.257  0.1425 -0.5607 -0.1930
  412MOL0     C56741  10.670   1.984   8.185  0.4766 -0.0563  0.1623
  412MOL0     O56742  10.711   2.088   8.258  0.6257 -0.6128  0.6250
  412MOL0     C56743  10.751   2.205   8.204 -0.2843 -0.2516 -0.3466
  412MOL0     C56744  10.773   2.308   8.289  0.5483  0.9713  0.3046
  412MOL0     C56745  10.814   2.433   8.257  1.3991  0.4937  0.5671
  412MOL0     C56746  10.859   2.530   8.370  0.9273 -0.3019 -1.1306
  412MOL0     C56747  10.819   2.470   8.121 -0.8127  0.2270  0.2966
  412MOL0     C56748  10.852   2.608   8.069 -0.2481  0.7838  0.4895
  412MOL0     O56749  10.897   2.604   7.942  0.3248 -0.2756  0.3527
  412MOL0     C56750  10.965   2.712   7.888  1.2144 -1.0793 -0.3388
  412MOL0     C56751  11.077   2.768   7.953 -0.0438 -0.6383  0.7907
  412MOL0     C56752  11.149   2.872   7.900  0.4573 -1.3369  0.3278
  412MOL0     C56753  11.113   2.920   7.775 -0.5563 -0.5591 -0.3287
  412MOL0     O56754  11.191   3.012   7.710  1.3027  0.0482 -0.5005
  412MOL0     C56755  11.301   2.963   7.636 -0.0698  0.4299  1.2620
  412MOL0     C56756  11.384   3.076   7.593 -0.3103  0.9721  0.7470
  412MOL0     C56757  11.306   3.188   7.531  0.1691 -0.6185  0.7959
  412MOL0     C56758  11.231   3.152   7.406 -0.2696 -0.0049  0.2042
  412MOL0     C56759  11.328   3.120   7.294 -0.4449 -0.3391  0.2392
  412MOL0     C56760  11.389   3.251   7.238 -0.4277  0.0816 -0.6774
  412MOL0     C56761  11.463   3.229   7.106 -0.6710 -0.5165 -0.4461
  412MOL0     C56762  11.611   3.176   7.127  0.7616 -0.2970 -0.9118
  412MOL0    Cl56763  11.705   3.295   7.223  0.2150 -0.0321 -0.4412
  412MOL0     C56764  11.004   2.868   7.713 -0.6003 -0.6041  0.5168
  412MOL0     C56765  10.924   2.768   7.764  0.4184 -1.1297 -0.4163
  412MOL0     O56766  10.850   2.706   8.142  0.3235 -0.5280 -0.2730
  412MOL0     C56767  10.806   2.362   8.031  0.8305  0.0433 -0.4209
  412MOL0     C56768  10.782   2.228   8.074 -0.4160 -0.6259  0.6165
  412MOL0     N56769  10.354   1.746   8.568 -0.4554  0.4367  0.8920
  412MOL0     N56770  10.255   1.668   8.614 -0.0293  0.0550 -0.3006
  412MOL0     C56771   9.431   1.576   8.926  0.2775 -0.4629 -0.0532
  412MOL0     C56772   9.353   1.675   8.993  0.4497  0.7287  0.1888
  412MOL0     C56773   9.064   1.893   9.274 -0.1193  1.2017 -1.3211
  412MOL0     C56774   9.091   1.962   9.394  0.0129  0.6252  0.4521
  412MOL0     C56775   8.984   2.012   9.463 -0.4947  0.1352 -0.4735
  412MOL0     C56776   8.849   1.990   9.430  0.0214  1.4527 -0.2978
  412MOL0     O56777   8.743   2.021   9.499 -0.2243 -1.0993 -1.2555
  412MOL0     C56778   8.737   1.984   9.641  0.0206 -0.8285 -0.4948
  412MOL0     C56779   8.595   1.934   9.666 -0.4511 -0.6822  0.1473
  412MOL0     C56780   8.554   1.935   9.820 -0.7638  0.2534  0.4876
  412MOL0     C56781   8.440   1.829   9.833 -0.5255  0.3448 -0.1790
  412MOL0     C56782   8.382   1.852   9.968 -0.0895  0.2003 -0.0068
  412MOL0     C56783   8.338   1.871  10.075 -0.9265  0.4405  0.2981
  412MOL0     C56784   8.827   1.932   9.302  0.2430  0.4678  0.3429
  412MOL0     C56785   8.931   1.879   9.227 -1.4197 -0.1941  0.2199
  412MOL0     C56786   8.889   1.846   9.084 -0.2896  0.1517  0.1349
  412MOL0     H56787   9.266   1.491   9.266  0.9210  0.6595  0.3203
  412MOL0     H56788   9.414   1.334   9.166  2.8017  0.9766  2.1187
  412MOL0     H56789   9.449   1.207   8.906  0.8606 -2.8610 -2.9686
  412MOL0     H56790   9.540   1.206   9.059  0.0301 -4.2033 -0.7335
  412MOL0     H56791   9.744   1.162   8.951  1.6349  0.0711 -0.7287
  412MOL0     H56792   9.637   1.048   8.869 -0.3666  0.0820  1.4233
  412MOL0     H56793   9.648   1.157   8.663  0.2653  2.4472 -1.5452
  412MOL0     H56794   9.694   1.313   8.735  1.6910  0.7538  0.5102
  412MOL0     H56795   9.908   1.162   8.824 -0.0037  0.5415 -0.8134
  412MOL0     H56796   9.852   1.054   8.698  3.0576 -1.0727 -0.4376
  412MOL0     H56797   9.921   1.344   8.671 -0.8892 -0.4345 -0.0765
  412MOL0     H56798   9.845   1.260   8.547 -1.9678 -0.7200  0.3705
  412MOL0     H56799  10.126   1.224   8.670 -4.3668  0.0865  3.5565
  412MOL0     H56800  10.073   1.145   8.513 -2.5375  1.2023 -2.0236
  412MOL0     H56801  10.023   1.423   8.473  2.1450  1.4150 -1.7733
  412MOL0     H56802  10.175   1.338   8.424  1.6397  0.3925  1.3074
  412MOL0     H56803  10.130   1.463   8.699  2.7182 -0.0481  1.6677
  412MOL0     H56804  10.269   1.367   8.648  2.3722  1.8646 -2.6520
  412MOL0     H56805  10.376   1.454   8.400  1.2900  0.5405 -0.8279
  412MOL0     H56806  10.554   1.614   8.325 -2.8203 -0.5585  0.1444
  412MOL0     H56807  10.624   1.685   8.477 -2.1069  1.0836  2.8879
  412MOL0     H56808  10.455   1.824   8.268 -2.7727 -2.0733  4.3416
  412MOL0     H56809  10.531   1.899   8.415 -2.3625  1.7199 -1.3723
  412MOL0     H56810  10.757   1.861   8.327  0.1259  2.3325 -0.3747
  412MOL0     H56811  10.689   1.769   8.189  0.7483 -0.6723  0.0853
  412MOL0     H56812  10.744   1.964   8.107  0.5515 -0.0798  0.2390
  412MOL0     H56813  10.572   1.997   8.138  1.4418  0.2815 -1.9127
  412MOL0     H56814  10.754   2.280   8.392 -0.5176  2.2747  0.4873
  412MOL0     H56815  10.867   2.474   8.464  0.8177 -1.2121 -1.6518
  412MOL0     H56816  10.797   2.619   8.386  0.9418 -0.8158  2.9510
  412MOL0     H56817  10.963   2.558   8.350  1.4437 -0.2089  1.3321
  412MOL0     H56818  11.101   2.736   8.053 -1.6178 -1.9379  0.7837
  412MOL0     H56819  11.228   2.931   7.946  1.5757 -1.1321 -1.7279
  412MOL0     H56820  11.355   2.892   7.700 -0.7774 -1.3296 -0.0235
  412MOL0     H56821  11.265   2.913   7.546  3.4962  1.7347 -1.1086
  412MOL0     H56822  11.441   3.117   7.677  0.8786  3.7831 -1.2895
  412MOL0     H56823  11.462   3.032   7.531  1.2244 -1.2922  4.0109
  412MOL0     H56824  11.380   3.268   7.524  2.0572 -2.1681  1.9885
  412MOL0     H56825  11.232   3.225   7.604 -1.6607 -3.0653  0.3189
  412MOL0     H56826  11.168   3.238   7.384  0.7967  0.5060 -0.9373
  412MOL0     H56827  11.160   3.071   7.427 -0.0591 -0.0756  0.6741
  412MOL0     H56828  11.400   3.050   7.335  0.2770  0.9563  1.2708
  412MOL0     H56829  11.260   3.073   7.222 -1.8462  3.5235 -1.2267
  412MOL0     H56830  11.452   3.297   7.315  1.1347 -1.0320 -1.2657
  412MOL0     H56831  11.307   3.320   7.216  0.6312  1.0178 -1.8112
  412MOL0     H56832  11.455   3.322   7.048 -1.3117 -0.3625 -0.1215
  412MOL0     H56833  11.409   3.155   7.047  0.3886 -1.0718 -0.7423
  412MOL0     H56834  11.648   3.161   7.025 -0.1473  4.1872 -2.1045
  412MOL0     H56835  11.600   3.080   7.180  0.7212  0.8666  1.3064
  412MOL0     H56836  10.974   2.916   7.621 -0.4975  0.3551  0.9779
  412MOL0     H56837  10.839   2.737   7.704 -0.0211  1.1329 -1.0589
  412MOL0     H56838  10.818   2.374   7.924  0.0119  0.1805 -0.5028
  412MOL0     H56839  10.782   2.149   8.000  1.1444  0.8413 -1.0783
  412MOL0     H56840   9.481   1.592   8.831  0.8377 -1.7778 -0.0016
  412MOL0     H56841   9.326   1.762   8.935  0.0547 -1.6482 -3.5121
  412MOL0     H56842   9.188   1.980   9.439 -0.9541  1.6220  2.2427
  412MOL0     H56843   8.998   2.064   9.558  1.8411 -3.4654  1.3645
  412MOL0     H56844   8.800   1.897   9.662  0.7289 -0.3573 -0.6240
  412MOL0     H56845   8.770   2.065   9.706 -2.5814  0.5103 -0.7583
  412MOL0     H56846   8.578   1.839   9.614 -1.0709  1.1781 -3.3368
  412MOL0     H56847   8.535   2.003   9.606 -0.0716  1.0600  1.6762
  412MOL0     H56848   8.633   1.913   9.892 -0.6749 -0.4298  0.1989
  412MOL0     H56849   8.513   2.034   9.841  1.6364  0.9419  2.3465
  412MOL0     H56850   8.482   1.728   9.837  3.8737  1.9507  2.5386
  412MOL0     H56851   8.363   1.832   9.756  0.8534 -0.3751 -1.6476
  412MOL0     H56852   8.286   1.905  10.162 -1.0611 -2.9707  1.6728
  412MOL0     H56853   8.725   1.931   9.264  0.1221  2.7265  0.4689
  412MOL0     H56854   8.784   1.815   9.082 -1.6523  4.1046 -2.5476
  412MOL0     H56855   8.898   1.926   9.011  1.2977 -2.2599 -2.5430
  412MOL0     H56856   8.944   1.763   9.039  1.6685  0.6251  1.5311
  413MOL0     O56857   5.772  11.053   4.955 -0.0466 -0.2767 -0.4673
  413MOL0     C56858   5.814  10.953   5.003  0.3009  0.8642 -0.0524
  413MOL0     O56859   5.878  10.848   4.930  0.8159 -0.3522  1.1440
  413MOL0     C56860   5.828  10.840   4.799 -0.6553  0.6117  0.7223
  413MOL0     C56861   5.704  10.774   4.781 -0.2722  0.2448 -0.4003
  413MOL0     C56862   5.666  10.765   4.649 -0.2492  0.3055  1.3805
  413MOL0     C56863   5.745  10.802   4.536 -0.7772  0.5100  0.9729
  413MOL0     O56864   5.690  10.779   4.416  0.1445 -0.0606  0.5263
  413MOL0     C56865   5.730  10.854   4.293  0.4334  0.3427  0.0647
  413MOL0     C56866   5.691  10.766   4.179  0.0861  0.2140  0.3945
  413MOL0     C56867   5.539  10.752   4.168  0.6571 -0.7371 -0.4385
  413MOL0     C56868   5.487  10.686   4.039  0.5521 -0.8047 -0.4280
  413MOL0     C56869   5.539  10.543   4.021 -0.0328  0.1611 -0.7282
  413MOL0     C56870   5.495  10.476   3.890 -0.8104 -0.9194  0.0611
  413MOL0     C56871   5.552  10.340   3.866 -0.3662  0.4545 -0.5332
  413MOL0     C56872   5.494  10.233   3.966 -0.0831 -0.5778  0.1490
  413MOL0     N56873   5.348  10.233   3.934 -0.1435  0.4874 -0.2875
  413MOL0     C56874   5.283  10.163   3.833 -0.5141 -0.3521  0.5402
  413MOL0     C56875   5.148  10.184   3.848 -0.6616  0.5457  0.1380
  413MOL0     C56876   5.053  10.139   3.746 -0.1318  0.7519  0.7781
  413MOL0     C56877   5.038  10.236   3.628  0.5183 -0.2830  0.4497
  413MOL0     C56878   4.967  10.174   3.501 -0.3774  1.0185  0.6972
  413MOL0     C56879   4.951  10.278   3.383  0.4821 -0.1136  0.5700
  413MOL0     O56880   5.050  10.286   3.286  1.0455  0.7404 -0.0777
  413MOL0     C56881   5.183  10.284   3.322  0.6191  0.3593 -0.0298
  413MOL0     C56882   5.254  10.392   3.374 -0.7026  0.3927 -0.2261
  413MOL0     C56883   5.396  10.385   3.403 -0.2613  0.3197 -0.0958
  413MOL0     C56884   5.472  10.509   3.452  0.3848  0.5972 -0.5783
  413MOL0     C56885   5.460  10.252   3.396 -0.1528 -0.7788  0.2097
  413MOL0     C56886   5.608  10.228   3.433  0.0041  0.0985  0.2160
  413MOL0     O56887   5.667  10.120   3.367  0.0949  0.5167  0.2862
  413MOL0     C56888   5.805  10.096   3.393  0.7939 -0.7365 -0.6546
  413MOL0     C56889   5.843   9.971   3.440  0.4582 -0.2391  0.9843
  413MOL0     C56890   5.979   9.954   3.478  0.2078 -0.5788 -0.2653
  413MOL0     C56891   6.072  10.047   3.436  0.5055 -0.5064 -0.0083
  413MOL0     O56892   6.213  10.029   3.462 -0.3114 -0.5389 -0.4471
  413MOL0     C56893   6.263   9.903   3.514  0.7275  1.2864  0.9526
  413MOL0     C56894   6.398   9.924   3.586 -0.7081 -0.1193  0.5651
  413MOL0     C56895   6.520   9.902   3.487 -0.8232 -0.1806 -0.5898
  413MOL0     C56896   6.541  10.000   3.361  0.0903  1.2262 -0.7843
  413MOL0     C56897   6.667   9.961   3.282  0.9406 -0.6265  1.0589
  413MOL0     C56898   6.666  10.052   3.159 -0.6914  0.9413  0.0867
  413MOL0     C56899   6.812  10.072   3.103  0.8342 -0.1433 -0.4331
  413MOL0     C56900   6.867   9.940   3.050  0.8822 -0.5317  0.1915
  413MOL0    Cl56901   7.007   9.985   2.944 -0.4353  0.1326 -0.4682
  413MOL0     C56902   6.025  10.176   3.404  0.2129  0.0417  0.1940
  413MOL0     C56903   5.887  10.202   3.378 -0.4467 -0.8396  0.7545
  413MOL0     O56904   5.661  10.289   3.525  0.3403  0.0269  0.0551
  413MOL0     C56905   5.388  10.151   3.347 -0.0996 -0.2965 -0.2926
  413MOL0     C56906   5.253  10.163   3.308  0.1561 -0.1695  0.2265
  413MOL0     N56907   5.134  10.259   3.958 -0.6971  0.0565  0.3970
  413MOL0     N56908   5.249  10.282   4.015 -0.3599  0.0960  0.9263
  413MOL0     C56909   5.871  10.864   4.560 -0.2483  0.3697 -0.6305
  413MOL0     C56910   5.912  10.884   4.697 -0.5525 -0.4461 -0.6117
  413MOL0     C56911   5.813  10.950   5.149  0.1527 -0.3580 -0.1883
  413MOL0     C56912   5.874  10.852   5.215  0.2186  0.0845 -0.1516
  413MOL0     C56913   5.885  10.840   5.359  0.0300  0.6707 -0.0657
  413MOL0     C56914   5.837  10.940   5.439 -0.4620 -0.6649 -0.1551
  413MOL0     O56915   5.852  10.930   5.581 -0.3821 -0.4820 -0.5853
  413MOL0     C56916   5.776  10.821   5.635 -1.6120  0.6738 -0.0892
  413MOL0     C56917   5.851  10.702   5.677  0.3988  0.2073 -1.4155
  413MOL0     C56918   5.923  10.715   5.814  0.0164 -0.3711 -0.1194
  413MOL0     C56919   5.837  10.775   5.924 -0.2580 -0.9465 -1.0761
  413MOL0     C56920   5.893  10.758   6.058  0.0479  1.1576 -0.1401
  413MOL0     C56921   5.921  10.744   6.176 -0.1063 -0.7302  0.0550
  413MOL0     C56922   5.780  11.047   5.378 -0.5206 -0.1472 -0.3451
  413MOL0     C56923   5.758  11.062   5.241 -1.1843 -0.2388  0.4546
  413MOL0     C56924   5.684  11.189   5.194  0.0320  0.1674 -0.0343
  413MOL0     H56925   5.654  10.724   4.863 -0.6498 -0.7039 -1.1957
  413MOL0     H56926   5.570  10.725   4.620  0.9587 -2.0600  0.3637
  413MOL0     H56927   5.833  10.885   4.274  1.6926 -1.3387  3.4019
  413MOL0     H56928   5.686  10.954   4.285 -1.6294 -0.5802 -0.9556
  413MOL0     H56929   5.726  10.814   4.088  1.2011  2.2949  1.8490
  413MOL0     H56930   5.750  10.676   4.203  2.3182  2.2234  3.1221
  413MOL0     H56931   5.507  10.703   4.260  0.5354  0.9814  0.4739
  413MOL0     H56932   5.512  10.858   4.168  0.5939 -0.6981  1.9788
  413MOL0     H56933   5.379  10.698   4.036  0.5687 -0.6104 -0.2445
  413MOL0     H56934   5.527  10.746   3.956 -0.0620 -0.3833 -0.4188
  413MOL0     H56935   5.501  10.497   4.113 -1.6364  3.1780  0.2709
  413MOL0     H56936   5.648  10.547   4.031 -0.1014 -1.0125  0.8779
  413MOL0     H56937   5.386  10.472   3.882 -0.8167  0.7078 -1.1172
  413MOL0     H56938   5.542  10.534   3.810  0.1188 -2.8324 -0.8512
  413MOL0     H56939   5.660  10.337   3.882 -0.1659 -3.2076 -1.6086
  413MOL0     H56940   5.532  10.301   3.765  0.3034 -1.9315  0.1859
  413MOL0     H56941   5.553  10.141   3.956 -0.1431 -0.5960 -0.0318
  413MOL0     H56942   5.499  10.266   4.070  1.0143  1.3529 -0.4568
  413MOL0     H56943   5.330  10.095   3.763  0.2205  0.7747 -0.0959
  413MOL0     H56944   4.952  10.121   3.783 -1.3624 -1.9093 -3.1541
  413MOL0     H56945   5.099  10.049   3.705  0.6546  1.4700  0.0505
  413MOL0     H56946   4.976  10.313   3.674  1.4496 -0.2111  1.6241
  413MOL0     H56947   5.133  10.280   3.596 -0.0837  0.6269 -0.1533
  413MOL0     H56948   5.018  10.089   3.454 -1.8809  1.8134 -2.7083
  413MOL0     H56949   4.862  10.150   3.520 -1.2283  3.4019 -0.5105
  413MOL0     H56950   4.856  10.256   3.333  1.5255  0.7227 -1.9171
  413MOL0     H56951   4.943  10.375   3.432 -1.1179  0.9234 -1.5460
  413MOL0     H56952   5.201  10.483   3.398 -0.7290 -0.4671  3.7863
  413MOL0     H56953   5.476  10.517   3.561 -0.2383  0.1661 -0.5123
  413MOL0     H56954   5.414  10.595   3.416 -0.0386  0.5312 -0.0700
  413MOL0     H56955   5.573  10.509   3.411  1.1714  2.6826  1.1674
  413MOL0     H56956   5.775   9.888   3.459  0.3744 -0.3369  0.2823
  413MOL0     H56957   5.999   9.859   3.526 -2.3439 -0.6863  0.7242
  413MOL0     H56958   6.194   9.862   3.588 -3.1895  0.0182 -2.9550
  413MOL0     H56959   6.281   9.825   3.439 -2.6573  0.4057  0.8571
  413MOL0     H56960   6.399  10.027   3.623  0.1955 -0.1923  0.7540
  413MOL0     H56961   6.404   9.848   3.665 -1.0811 -2.2604 -1.3623
  413MOL0     H56962   6.521   9.798   3.454  1.7507 -0.6062  0.6086
  413MOL0     H56963   6.611   9.914   3.547 -0.9569 -1.0762 -0.1833
  413MOL0     H56964   6.552  10.103   3.395 -0.1274  0.7098  0.9462
  413MOL0     H56965   6.466   9.970   3.287  0.5294 -2.7202  0.1461
  413MOL0     H56966   6.761   9.998   3.326  1.5797  0.7420 -1.3114
  413MOL0     H56967   6.685   9.857   3.257 -0.4997 -0.8649  0.9637
  413MOL0     H56968   6.627  10.148   3.193 -3.6290  0.9298 -2.7886
  413MOL0     H56969   6.602  10.014   3.079 -0.2738  4.4350 -2.1079
  413MOL0     H56970   6.876  10.110   3.183  1.1932 -2.4304  0.4439
  413MOL0     H56971   6.800  10.146   3.023 -0.5485  0.7104  0.5223
  413MOL0     H56972   6.785   9.896   2.992  0.3836  2.1142 -1.2938
  413MOL0     H56973   6.893   9.880   3.137  2.0641 -0.6208 -0.2023
  413MOL0     H56974   6.098  10.256   3.402 -1.8022  2.0148 -2.6364
  413MOL0     H56975   5.847  10.296   3.342 -0.8833 -2.1195 -2.4743
  413MOL0     H56976   5.428  10.050   3.338  2.5371  0.7254 -0.9021
  413MOL0     H56977   5.201  10.070   3.286 -1.6540  0.7687  0.3941
  413MOL0     H56978   5.940  10.897   4.483  0.7154 -0.3981 -0.1270
  413MOL0     H56979   6.008  10.916   4.734 -1.7916  3.5371 -0.3298
  413MOL0     H56980   5.921  10.767   5.167  2.8522  2.9878 -3.2758
  413MOL0     H56981   5.932  10.747   5.388  1.8902  0.9874 -1.8444
  413MOL0     H56982   5.714  10.868   5.712  0.4976 -0.3124  2.3641
  413MOL0     H56983   5.709  10.783   5.558  0.9400 -3.1656 -0.7046
  413MOL0     H56984   5.916  10.667   5.596 -1.8123 -1.4433 -2.5757
  413MOL0     H56985   5.773  10.627   5.688 -0.3547  1.2994  1.8629
  413MOL0     H56986   5.965  10.616   5.837  0.1507 -0.4624 -0.7334
  413MOL0     H56987   6.012  10.779   5.807  1.8491 -2.5726  1.3407
  413MOL0     H56988   5.738  10.729   5.924 -0.5170 -0.4230 -0.2689
  413MOL0     H56989   5.824  10.881   5.899 -1.6393 -1.3599 -2.2441
  413MOL0     H56990   5.931  10.730   6.282  1.8447 -0.4482 -0.0694
  413MOL0     H56991   5.731  11.118   5.445 -0.3022  0.2848 -0.6363
  413MOL0     H56992   5.742  11.264   5.140  1.2693 -0.3881  0.4850
  413MOL0     H56993   5.593  11.159   5.140 -1.1140 -0.8332  2.3369
  413MOL0     H56994   5.654  11.247   5.281 -4.2444 -0.0845 -1.0934
  414MOL0     O56995   9.298   2.536   8.451 -0.6642 -0.5171 -0.4472
  414MOL0     C56996   9.367   2.598   8.373 -0.0479  0.5238  1.1227
  414MOL0     O56997   9.384   2.560   8.239 -0.0195  0.8787  0.3011
  414MOL0     C56998   9.315   2.457   8.181  0.1854  0.2774 -0.4796
  414MOL0     C56999   9.182   2.420   8.209 -1.1556  0.0288  1.0883
  414MOL0     C57000   9.123   2.296   8.156 -0.1129 -0.9542  0.1536
  414MOL0     C57001   9.203   2.216   8.070 -0.4262 -0.9113  0.1363
  414MOL0     O57002   9.162   2.092   8.038 -0.0892 -0.2961  0.2195
  414MOL0     C57003   9.260   2.001   7.979 -0.2063  0.4729  0.1581
  414MOL0     C57004   9.197   1.857   7.990 -0.5946  0.1532  0.0514
  414MOL0     C57005   9.272   1.764   7.897  0.2412  0.9313 -0.1918
  414MOL0     C57006   9.220   1.617   7.907  0.0245 -0.4218  0.0501
  414MOL0     C57007   9.107   1.598   7.810  0.1602 -0.0478  0.2848
  414MOL0     C57008   9.075   1.451   7.783 -1.0947  0.2919 -0.9399
  414MOL0     C57009   8.996   1.389   7.898  0.3699  0.2954  0.5811
  414MOL0     C57010   8.936   1.250   7.869 -2.0184  0.1203 -0.5361
  414MOL0     N57011   9.015   1.157   7.779 -0.1722  0.4808 -0.2498
  414MOL0     C57012   9.147   1.102   7.811  0.8270  0.3472 -0.5788
  414MOL0     C57013   9.193   1.048   7.699  0.5247 -0.5459  0.1219
  414MOL0     C57014   9.317   0.975   7.665 -0.1674 -0.0114 -0.4618
  414MOL0     C57015   9.428   1.068   7.634  1.4232 -0.0360  0.2151
  414MOL0     C57016   9.574   1.024   7.669  0.1950  0.5248  0.0314
  414MOL0     C57017   9.662   1.153   7.652 -0.2690 -0.7993  0.3492
  414MOL0     O57018   9.651   1.196   7.513  0.4921  0.5449 -0.2423
  414MOL0     C57019   9.749   1.139   7.443  0.3893  0.3378  0.7755
  414MOL0     C57020   9.883   1.151   7.464 -0.3157  0.2179  0.6242
  414MOL0     C57021   9.976   1.068   7.398 -0.9308  0.2661 -0.7711
  414MOL0     C57022  10.124   1.102   7.438  0.7466  0.5163 -0.7530
  414MOL0     C57023   9.942   0.977   7.304  0.0165  0.6445 -0.0998
  414MOL0     C57024  10.027   0.894   7.213 -0.5876 -0.5678 -0.6330
  414MOL0     O57025   9.977   0.875   7.091 -0.6910 -0.4684  0.6554
  414MOL0     C57026  10.044   0.802   6.995  0.2077  0.5340  0.6668
  414MOL0     C57027  10.161   0.864   6.940  0.0737  0.1507  0.0722
  414MOL0     C57028  10.228   0.799   6.842  0.4725 -0.7593 -0.6707
  414MOL0     C57029  10.186   0.665   6.807  0.4402 -0.4605 -0.5977
  414MOL0     O57030  10.261   0.596   6.717  0.3241  0.3442 -0.7254
  414MOL0     C57031  10.370   0.521   6.774 -0.3117 -0.2794 -0.5352
  414MOL0     C57032  10.496   0.531   6.680 -0.7884 -0.3086  0.1376
  414MOL0     C57033  10.475   0.474   6.529 -0.2495  0.1299 -0.6241
  414MOL0     C57034  10.488   0.566   6.411  0.9180 -0.5074 -0.2616
  414MOL0     C57035  10.411   0.510   6.288 -0.5553 -0.1326 -0.6936
  414MOL0     C57036  10.477   0.376   6.246 -0.0428  0.0824 -0.0661
  414MOL0     C57037  10.381   0.324   6.142 -0.5542  0.3157 -0.9934
  414MOL0     C57038  10.406   0.179   6.101  0.1028 -0.2824  0.2463
  414MOL0    Cl57039  10.548   0.162   6.003 -0.1502 -0.3597  0.0891
  414MOL0     C57040  10.060   0.614   6.850 -0.5728 -0.7096 -0.0202
  414MOL0     C57041  10.005   0.672   6.955  0.8064 -0.0411  0.7367
  414MOL0     O57042  10.136   0.847   7.251 -0.3747 -0.0166  0.2275
  414MOL0     C57043   9.804   0.962   7.283 -0.2058 -0.1671  0.7335
  414MOL0     C57044   9.717   1.039   7.348  0.2751 -0.5029  0.1431
  414MOL0     N57045   9.104   1.096   7.599  0.2840 -0.2485 -0.8287
  414MOL0     N57046   9.005   1.156   7.644  0.0065 -0.3519 -0.3381
  414MOL0     C57047   9.342   2.266   8.028  0.8928 -0.9763 -0.8234
  414MOL0     C57048   9.390   2.385   8.094  0.2154  0.2655 -1.5290
  414MOL0     C57049   9.405   2.733   8.408  0.3515  0.6410  0.2470
  414MOL0     C57050   9.405   2.822   8.301 -0.5983 -0.1449  0.9219
  414MOL0     C57051   9.426   2.957   8.315 -0.1662 -0.3008 -1.4502
  414MOL0     C57052   9.439   3.011   8.447 -0.1007 -0.3950  0.1583
  414MOL0     O57053   9.428   3.147   8.473 -0.9081 -0.9812  0.0184
  414MOL0     C57054   9.498   3.234   8.386 -0.0643  0.2243  0.5083
  414MOL0     C57055   9.486   3.376   8.446  0.6037  0.3173 -0.3072
  414MOL0     C57056   9.535   3.488   8.347 -0.4833 -0.2383 -0.0038
  414MOL0     C57057   9.669   3.459   8.280  0.0704  0.3695  0.5578
  414MOL0     C57058   9.775   3.422   8.378  0.3427  0.4099  0.5523
  414MOL0     C57059   9.842   3.391   8.472 -0.2129 -0.0212  0.1979
  414MOL0     C57060   9.439   2.923   8.556 -0.0310 -0.1243 -0.6914
  414MOL0     C57061   9.417   2.787   8.548 -0.2112 -0.0961  0.0127
  414MOL0     C57062   9.400   2.703   8.671  0.3818 -0.5751 -0.0579
  414MOL0     H57063   9.116   2.480   8.271 -0.6998  1.3430  0.3357
  414MOL0     H57064   9.029   2.257   8.195  1.0980 -1.3867  2.9175
  414MOL0     H57065   9.360   1.995   8.025 -0.9497 -0.9935  1.6872
  414MOL0     H57066   9.256   2.020   7.872 -2.7769 -2.1982 -0.3315
  414MOL0     H57067   9.194   1.823   8.095 -2.3655  0.1247  0.0235
  414MOL0     H57068   9.093   1.870   7.960 -0.6134 -0.3233 -0.0996
  414MOL0     H57069   9.268   1.805   7.796  0.9100 -0.2811 -0.7319
  414MOL0     H57070   9.377   1.761   7.927  0.1512 -0.3099  0.0583
  414MOL0     H57071   9.306   1.550   7.891  0.8973  1.2587 -3.1582
  414MOL0     H57072   9.194   1.595   8.011  2.8788 -1.5176  0.6266
  414MOL0     H57073   9.126   1.658   7.721  1.8186  2.3666  2.1385
  414MOL0     H57074   9.015   1.641   7.851  0.7062 -0.4141  1.9865
  414MOL0     H57075   9.022   1.445   7.688 -1.1613  0.9165 -0.9497
  414MOL0     H57076   9.165   1.389   7.789 -0.6293  1.0261 -0.1345
  414MOL0     H57077   8.912   1.444   7.942 -0.5590  0.7303 -1.6004
  414MOL0     H57078   9.064   1.362   7.979 -0.6895  0.7773  1.6663
  414MOL0     H57079   8.928   1.182   7.954 -1.8698 -0.1085 -0.7041
  414MOL0     H57080   8.829   1.268   7.851 -3.5903 -2.7040  4.0718
  414MOL0     H57081   9.196   1.112   7.908  0.5455  0.4584 -0.4467
  414MOL0     H57082   9.304   0.914   7.574  4.1153  1.3088 -2.2339
  414MOL0     H57083   9.331   0.901   7.744 -3.1174  0.1799  0.3406
  414MOL0     H57084   9.423   1.099   7.530 -0.9146 -2.9728 -0.6933
  414MOL0     H57085   9.417   1.166   7.682  2.0535  1.1085 -1.8728
  414MOL0     H57086   9.583   0.992   7.773  2.0292  0.1219 -0.2304
  414MOL0     H57087   9.601   0.935   7.612 -3.1023 -1.1078  0.7499
  414MOL0     H57088   9.625   1.233   7.715 -2.7963 -0.9561 -0.8057
  414MOL0     H57089   9.760   1.121   7.688  0.5700  1.3477  0.0750
  414MOL0     H57090   9.914   1.226   7.536 -0.8561  0.2559  0.8182
  414MOL0     H57091  10.192   1.026   7.398 -1.9936 -0.3725 -4.3467
  414MOL0     H57092  10.130   1.115   7.546 -0.8587 -1.0215 -0.4248
  414MOL0     H57093  10.153   1.194   7.386 -0.0517  1.4397  0.3913
  414MOL0     H57094  10.188   0.959   6.984  0.6562  0.7525 -1.5136
  414MOL0     H57095  10.314   0.845   6.793 -1.4380  0.4104 -3.1346
  414MOL0     H57096  10.399   0.549   6.875  0.7458 -0.7411 -0.6938
  414MOL0     H57097  10.341   0.416   6.772  0.9639 -0.6456 -1.0934
  414MOL0     H57098  10.543   0.629   6.685  3.0820 -2.0627  2.9312
  414MOL0     H57099  10.570   0.477   6.739 -0.6627  0.5617  0.8040
  414MOL0     H57100  10.376   0.427   6.521 -1.4702  2.4937 -0.2377
  414MOL0     H57101  10.537   0.384   6.524 -0.0335  0.2662 -0.3832
  414MOL0     H57102  10.591   0.577   6.374  0.6982 -1.4224 -1.1885
  414MOL0     H57103  10.443   0.662   6.438  0.4956 -0.0674 -2.3629
  414MOL0     H57104  10.309   0.491   6.324  0.0999  2.4950  3.1593
  414MOL0     H57105  10.411   0.577   6.203 -1.8332 -1.1767 -1.5632
  414MOL0     H57106  10.475   0.310   6.333 -4.9643  0.0149  0.0603
  414MOL0     H57107  10.579   0.372   6.207 -0.7142 -1.0992 -1.8262
  414MOL0     H57108  10.393   0.389   6.055  0.2363  1.7711  0.1447
  414MOL0     H57109  10.280   0.329   6.184 -0.0231 -0.5358  0.4771
  414MOL0     H57110  10.326   0.142   6.037  0.3758  2.6063 -1.9582
  414MOL0     H57111  10.413   0.121   6.194  3.7793  1.8107  1.5239
  414MOL0     H57112  10.022   0.518   6.814  1.0829 -1.1046 -0.7863
  414MOL0     H57113   9.916   0.647   7.012 -0.9105  1.0746 -1.3137
  414MOL0     H57114   9.767   0.887   7.213 -1.1066  0.0255  0.9939
  414MOL0     H57115   9.616   1.006   7.327  0.0684 -0.6445  1.2909
  414MOL0     H57116   9.410   2.203   7.972  0.9430 -1.1343 -0.5864
  414MOL0     H57117   9.497   2.401   8.105  0.0421  0.1563  0.9186
  414MOL0     H57118   9.397   2.790   8.198 -0.0592  0.3424  0.7242
  414MOL0     H57119   9.440   3.029   8.235  0.0627  2.6735  1.0750
  414MOL0     H57120   9.605   3.209   8.381 -0.1839 -0.1117 -0.7776
  414MOL0     H57121   9.470   3.224   8.281  1.1058 -1.8479  0.3253
  414MOL0     H57122   9.534   3.381   8.544 -0.0685  1.1841 -0.0068
  414MOL0     H57123   9.381   3.400   8.465  0.6420  0.5104 -0.3430
  414MOL0     H57124   9.473   3.490   8.257  1.7108  0.7869 -1.5933
  414MOL0     H57125   9.529   3.583   8.400  0.3005 -0.8668  1.2837
  414MOL0     H57126   9.699   3.554   8.235 -0.5979 -0.0834 -0.8773
  414MOL0     H57127   9.660   3.374   8.212 -0.2630  0.5027  0.4371
  414MOL0     H57128   9.907   3.362   8.552 -1.2303  0.9899  1.4404
  414MOL0     H57129   9.431   2.968   8.655 -1.4234 -1.8664  0.0488
  414MOL0     H57130   9.320   2.719   8.744  2.1643  0.9843  1.6634
  414MOL0     H57131   9.406   2.595   8.653  0.7640 -1.0120  2.3924
  414MOL0     H57132   9.492   2.715   8.728  1.0591  0.5567 -1.3443
  415MOL0     O57133   4.946   7.044  10.164  1.0143 -0.5883  0.2107
  415MOL0     C57134   5.011   6.970  10.244  0.3250 -0.1390  0.3964
  415MOL0     O57135   5.076   6.851  10.217  0.1562 -0.3040 -0.2130
  415MOL0     C57136   5.059   6.782  10.088 -0.2348 -0.4511 -0.3178
  415MOL0     C57137   5.159   6.688  10.068 -0.5691  0.1430 -0.2361
  415MOL0     C57138   5.153   6.610   9.945 -0.5541  0.0835  0.0274
  415MOL0     C57139   5.067   6.643   9.840  0.0986 -0.2119 -0.6824
  415MOL0     O57140   5.056   6.561   9.736 -0.3085  0.3506 -0.0682
  415MOL0     C57141   5.167   6.535   9.643 -1.0091 -0.8276  0.2828
  415MOL0     C57142   5.155   6.407   9.568  0.2619  0.1498 -0.2963
  415MOL0     C57143   5.012   6.368   9.528 -0.2352  0.2415 -0.6739
  415MOL0     C57144   5.006   6.247   9.420  0.6450 -0.2061 -0.5060
  415MOL0     C57145   5.005   6.113   9.494  1.1168 -0.1165 -0.5423
  415MOL0     C57146   5.037   5.990   9.398 -0.2196  0.3835 -0.4127
  415MOL0     C57147   5.046   5.857   9.483 -0.4645  0.3555 -0.6486
  415MOL0     C57148   5.054   5.720   9.406  0.3084 -0.2067 -0.1514
  415MOL0     N57149   5.062   5.745   9.261 -0.6740 -0.7014 -0.0389
  415MOL0     C57150   4.956   5.767   9.173 -0.0473  0.2921  0.1617
  415MOL0     C57151   5.019   5.783   9.053  0.5827  0.2289  0.1937
  415MOL0     C57152   4.971   5.831   8.913 -0.1952  0.2171 -0.3977
  415MOL0     C57153   4.880   5.949   8.934  0.5245 -0.5007 -0.1338
  415MOL0     C57154   4.850   6.014   8.804  0.1175 -0.2442  0.8459
  415MOL0     C57155   4.783   6.151   8.845  0.1833  0.2440 -0.5100
  415MOL0     O57156   4.736   6.227   8.736  0.5741  0.7419  0.2154
  415MOL0     C57157   4.799   6.341   8.705 -0.4005 -0.3154  0.3424
  415MOL0     C57158   4.714   6.452   8.694  0.0494  0.7240  1.4341
  415MOL0     C57159   4.767   6.579   8.661 -0.4352  0.7294  0.0453
  415MOL0     C57160   4.676   6.694   8.639  0.2869 -0.7143 -0.3478
  415MOL0     C57161   4.906   6.587   8.621  0.9254 -0.2986 -0.3814
  415MOL0     C57162   4.968   6.720   8.584  0.0755  0.5676 -1.2042
  415MOL0     O57163   5.071   6.694   8.502  0.4999  0.2420 -1.2995
  415MOL0     C57164   5.144   6.785   8.430 -0.4502  0.0160 -0.6203
  415MOL0     C57165   5.209   6.731   8.320  0.6816 -0.2758 -0.6579
  415MOL0     C57166   5.294   6.800   8.242 -0.1217  0.4475 -0.1531
  415MOL0     C57167   5.312   6.943   8.262 -0.1730 -0.1322 -0.0382
  415MOL0     O57168   5.417   7.012   8.206  0.0526  0.3342 -0.4725
  415MOL0     C57169   5.469   6.983   8.073  0.0007  0.0806  0.7720
  415MOL0     C57170   5.592   7.059   8.050  0.6190  0.0076 -0.1539
  415MOL0     C57171   5.637   7.064   7.907 -0.0928 -0.7313  0.8803
  415MOL0     C57172   5.695   6.927   7.863 -0.4294  0.9721  0.3526
  415MOL0     C57173   5.811   6.944   7.760  0.6809  0.1647 -0.1850
  415MOL0     C57174   5.875   6.807   7.712 -0.3008 -0.0465  0.2399
  415MOL0     C57175   6.019   6.830   7.645 -0.2677  0.7647 -0.4645
  415MOL0     C57176   6.031   6.939   7.539 -0.1022  0.6880 -0.5233
  415MOL0    Cl57177   6.195   6.952   7.448  0.3756 -0.5066  0.0628
  415MOL0     C57178   5.228   7.004   8.356  1.0633 -1.5535 -0.3676
  415MOL0     C57179   5.154   6.921   8.443 -0.0300 -0.1610  0.3598
  415MOL0     O57180   4.935   6.830   8.623  0.2172  0.7346 -0.6348
  415MOL0     C57181   4.990   6.470   8.634  0.4863  0.1007 -0.0177
  415MOL0     C57182   4.931   6.350   8.682  0.3438  0.3886 -0.0396
  415MOL0     N57183   5.157   5.763   9.065  0.3876 -0.5425 -0.5647
  415MOL0     N57184   5.175   5.742   9.190 -0.0422 -0.0062 -1.2925
  415MOL0     C57185   4.978   6.748   9.865  0.4862 -0.7847 -0.3141
  415MOL0     C57186   4.972   6.815   9.985 -0.2643  0.2286 -0.2457
  415MOL0     C57187   5.035   7.022  10.387 -0.5411  0.1262 -0.4870
  415MOL0     C57188   5.150   6.978  10.465 -0.3640 -0.7998  0.2314
  415MOL0     C57189   5.167   7.017  10.599 -0.6931  0.4380  0.6252
  415MOL0     C57190   5.084   7.106  10.663  0.7378 -0.0636  0.2262
  415MOL0     O57191   5.094   7.156  10.793  0.6482 -0.7658  0.3132
  415MOL0     C57192   5.122   7.059  10.900  0.5497 -0.9645  0.1572
  415MOL0     C57193   5.249   7.117  10.962  0.2458  0.4041  0.4636
  415MOL0     C57194   5.233   7.262  11.032  0.6256  0.8180  0.8635
  415MOL0     C57195   5.374   7.301  11.092 -0.0936  0.2191 -0.2727
  415MOL0     C57196   5.447   7.342  10.978 -0.7493  0.0820 -0.5050
  415MOL0     C57197   5.512   7.388  10.886  0.3313  0.2358  0.4939
  415MOL0     C57198   4.985   7.163  10.581  0.1378 -0.5654 -0.1321
  415MOL0     C57199   4.957   7.119  10.451 -0.7580 -0.6013 -0.7074
  415MOL0     C57200   4.832   7.187  10.381 -0.9765 -0.0767 -0.3509
  415MOL0     H57201   5.227   6.657  10.146 -1.5638  0.8788  0.9527
  415MOL0     H57202   5.214   6.520   9.949 -0.6313 -0.0862 -1.7817
  415MOL0     H57203   5.263   6.540   9.695  0.1210  2.8608 -1.8159
  415MOL0     H57204   5.176   6.612   9.566 -4.5437 -1.1762 -0.6572
  415MOL0     H57205   5.223   6.410   9.483 -1.4022 -3.0501 -1.9173
  415MOL0     H57206   5.203   6.335   9.635  3.8968  1.3909 -1.3498
  415MOL0     H57207   4.960   6.335   9.618  3.0240 -3.2395  0.1958
  415MOL0     H57208   4.969   6.461   9.490 -1.3335  0.8515  1.8930
  415MOL0     H57209   4.915   6.258   9.360 -0.7512 -1.3875  1.2937
  415MOL0     H57210   5.100   6.247   9.363  1.2571  1.3374  0.4530
  415MOL0     H57211   4.902   6.104   9.531  1.4072 -0.4849  0.1921
  415MOL0     H57212   5.078   6.124   9.575  2.7876 -1.0028 -1.8985
  415MOL0     H57213   4.967   5.975   9.314  0.8587 -0.0503 -1.2594
  415MOL0     H57214   5.133   6.012   9.351 -0.7790 -0.2100 -1.9161
  415MOL0     H57215   4.962   5.853   9.553 -1.1361  2.0655 -1.2910
  415MOL0     H57216   5.138   5.865   9.542  0.0364 -0.6829 -1.2700
  415MOL0     H57217   5.141   5.661   9.437 -0.1704 -1.4603 -1.1122
  415MOL0     H57218   4.960   5.665   9.403  0.2951 -0.1784 -0.2627
  415MOL0     H57219   4.851   5.787   9.192 -0.4568  1.5848 -2.8261
  415MOL0     H57220   4.917   5.754   8.858  0.6001 -0.0265 -0.8493
  415MOL0     H57221   5.060   5.860   8.856  1.0212 -0.2347  1.1746
  415MOL0     H57222   4.786   5.913   8.977  1.9933 -0.6162  3.3536
  415MOL0     H57223   4.932   6.019   8.999  0.2900 -0.3514 -0.1039
  415MOL0     H57224   4.941   6.048   8.755 -1.6366 -0.1211 -2.6421
  415MOL0     H57225   4.806   5.941   8.735  2.7338 -0.5741 -0.5868
  415MOL0     H57226   4.700   6.130   8.913 -0.1861  1.5135 -0.5520
  415MOL0     H57227   4.842   6.221   8.904  1.1272 -2.4735  2.0580
  415MOL0     H57228   4.611   6.429   8.717 -0.5109 -1.5885 -2.4000
  415MOL0     H57229   4.707   6.742   8.546 -2.3987  2.3059  0.1553
  415MOL0     H57230   4.689   6.763   8.722 -0.0457 -3.0322  1.7467
  415MOL0     H57231   4.570   6.668   8.631  1.0691 -4.4630 -0.5760
  415MOL0     H57232   5.202   6.624   8.305 -1.0310 -0.6168  1.8834
  415MOL0     H57233   5.356   6.750   8.168  0.4293  0.6480  0.1611
  415MOL0     H57234   5.490   6.883   8.034 -0.5105 -0.8993  2.8286
  415MOL0     H57235   5.389   7.013   8.004  1.8100 -1.9173 -2.4381
  415MOL0     H57236   5.568   7.159   8.088 -0.7207  0.4119 -1.9290
  415MOL0     H57237   5.672   7.017   8.112  0.3095 -0.6389 -0.1868
  415MOL0     H57238   5.700   7.150   7.881  1.2444 -1.9216 -0.0016
  415MOL0     H57239   5.547   7.071   7.846  0.3871  0.2506  0.2525
  415MOL0     H57240   5.621   6.862   7.816  1.5623 -0.0515 -1.5727
  415MOL0     H57241   5.733   6.875   7.951 -0.4329  2.3333  1.1932
  415MOL0     H57242   5.769   6.996   7.674 -3.5128  2.0582  2.6903
  415MOL0     H57243   5.899   6.998   7.795  0.8426 -1.9734  3.2223
  415MOL0     H57244   5.806   6.764   7.639  1.3442 -3.6803  0.6104
  415MOL0     H57245   5.875   6.740   7.799  1.5813 -1.4859 -0.7964
  415MOL0     H57246   6.054   6.738   7.598 -0.1898 -1.9612  4.3510
  415MOL0     H57247   6.090   6.843   7.727 -0.4686 -1.9583  0.2448
  415MOL0     H57248   6.030   7.033   7.594 -0.6158 -0.9486  2.4726
  415MOL0     H57249   5.951   6.940   7.464 -0.5043 -1.0894 -0.1670
  415MOL0     H57250   5.235   7.109   8.385 -1.9775 -0.9283 -1.5110
  415MOL0     H57251   5.100   6.964   8.526  4.1992 -1.1721  4.0215
  415MOL0     H57252   5.092   6.472   8.598  0.4890  0.8865  0.0113
  415MOL0     H57253   4.995   6.263   8.683 -0.0534 -0.0508 -3.4859
  415MOL0     H57254   4.910   6.772   9.783  1.8439 -0.6847 -1.4598
  415MOL0     H57255   4.897   6.893   9.987 -1.2156 -0.6129 -1.3467
  415MOL0     H57256   5.224   6.909  10.427  1.3752  1.0042  0.1282
  415MOL0     H57257   5.253   6.964  10.639 -0.2853 -2.2740 -3.2672
  415MOL0     H57258   5.043   7.049  10.974  0.3994 -0.1139  0.1237
  415MOL0     H57259   5.160   6.965  10.858 -1.5655 -1.0947 -1.6098
  415MOL0     H57260   5.312   7.135  10.875  0.0964  1.2196  0.5195
  415MOL0     H57261   5.301   7.048  11.030  0.5470  2.6562  2.6533
  415MOL0     H57262   5.192   7.344  10.973 -2.9668 -0.5639  1.2165
  415MOL0     H57263   5.159   7.255  11.111 -2.2014 -1.2081 -1.7252
  415MOL0     H57264   5.435   7.219  11.129  1.7992  2.6073  2.3944
  415MOL0     H57265   5.383   7.378  11.169  1.1465 -1.1199  0.9673
  415MOL0     H57266   5.568   7.432  10.806 -3.4252  3.8898 -0.4742
  415MOL0     H57267   4.924   7.234  10.637  1.3308  0.0482  0.4335
  415MOL0     H57268   4.776   7.235  10.461  3.2421  4.1177  0.5279
  415MOL0     H57269   4.884   7.248  10.307 -1.6276 -3.9825 -4.4856
  415MOL0     H57270   4.785   7.105  10.326  0.2964 -0.7990 -0.4002
  416MOL0     O57271   3.680   1.972   5.175  0.5858  0.1213  0.0811
  416MOL0     C57272   3.563   1.975   5.220  0.3995  0.0877  0.0931
  416MOL0     O57273   3.526   2.017   5.339 -0.5243  0.1801 -0.3069
  416MOL0     C57274   3.600   2.097   5.420 -1.6616  0.8205  0.3125
  416MOL0     C57275   3.522   2.156   5.517  0.2984  0.5776  0.7964
  416MOL0     C57276   3.584   2.228   5.611  1.0076 -0.0554 -0.8258
  416MOL0     C57277   3.723   2.246   5.610 -0.1690  0.8345 -0.8703
  416MOL0     O57278   3.797   2.322   5.693  0.3406 -0.9032  0.8607
  416MOL0     C57279   3.738   2.407   5.791  0.5415 -0.5151 -0.6803
  416MOL0     C57280   3.841   2.478   5.869 -0.8168  1.1046  0.0964
  416MOL0     C57281   3.786   2.580   5.974 -0.0703  0.0403  0.2109
  416MOL0     C57282   3.896   2.668   6.048 -0.4191 -0.0482  0.4755
  416MOL0     C57283   3.841   2.745   6.171 -0.3134 -0.2858  0.3931
  416MOL0     C57284   3.954   2.810   6.251  0.3419  1.1503  0.4880
  416MOL0     C57285   3.879   2.908   6.339  0.3466  0.1259  0.7140
  416MOL0     C57286   3.969   2.960   6.459 -0.3042 -0.3446 -0.4914
  416MOL0     N57287   3.910   3.076   6.532  0.8022  0.5480  0.1413
  416MOL0     C57288   3.889   3.204   6.488 -0.4185 -0.6633  0.3358
  416MOL0     C57289   3.826   3.275   6.596  0.4495  0.3777 -0.9603
  416MOL0     C57290   3.783   3.422   6.586 -0.1334  0.1943 -0.0740
  416MOL0     C57291   3.754   3.479   6.725 -0.3453 -0.2627 -0.6361
  416MOL0     C57292   3.735   3.635   6.728 -0.6632 -0.3303 -0.2770
  416MOL0     C57293   3.711   3.672   6.868  0.3436  0.0747  0.2272
  416MOL0     O57294   3.821   3.656   6.960 -0.6411  0.3968  0.6392
  416MOL0     C57295   3.917   3.753   6.979  0.0852 -1.0078 -0.0329
  416MOL0     C57296   4.016   3.712   7.062 -0.6352 -0.2271  0.5638
  416MOL0     C57297   4.143   3.779   7.066  0.7680 -0.0869  0.2654
  416MOL0     C57298   4.252   3.722   7.156 -0.7524 -0.1260  0.1239
  416MOL0     C57299   4.168   3.902   6.997 -0.9346  0.7128  0.5591
  416MOL0     C57300   4.289   3.978   7.017 -0.0515  1.2919  0.4480
  416MOL0     O57301   4.409   3.918   7.036  0.0980 -0.8920 -0.4685
  416MOL0     C57302   4.533   3.981   7.043  0.4472 -0.3198  0.6001
  416MOL0     C57303   4.561   4.108   6.991  0.4005  0.3235  0.7378
  416MOL0     C57304   4.685   4.163   7.005 -0.7115  0.5009 -0.2460
  416MOL0     C57305   4.788   4.083   7.075  0.2671 -0.0023  0.6329
  416MOL0     O57306   4.919   4.117   7.101 -0.2968  0.2334 -0.0696
  416MOL0     C57307   4.968   4.250   7.086  0.9744  0.7998  0.4810
  416MOL0     C57308   5.123   4.227   7.095  0.4528  0.1637 -0.7007
  416MOL0     C57309   5.168   4.218   7.242  0.0499  0.2630 -0.1823
  416MOL0     C57310   5.131   4.085   7.314  1.0033  0.7133  0.6696
  416MOL0     C57311   5.199   4.060   7.449  0.4325  0.8568  0.3145
  416MOL0     C57312   5.135   3.941   7.523  0.4305 -0.5749 -0.6456
  416MOL0     C57313   5.226   3.923   7.646  0.2259 -0.0873 -0.5383
  416MOL0     C57314   5.185   3.827   7.759  0.4271  0.0079 -0.6029
  416MOL0    Cl57315   5.320   3.791   7.863 -0.2970 -0.1116  0.0517
  416MOL0     C57316   4.761   3.959   7.119 -0.4356  0.3444 -0.0996
  416MOL0     C57317   4.632   3.901   7.106  1.0306  0.4063  0.3174
  416MOL0     O57318   4.283   4.100   7.003  0.1921  0.0213  0.1084
  416MOL0     C57319   4.062   3.953   6.920  0.0191  0.1901 -0.0400
  416MOL0     C57320   3.935   3.876   6.907 -1.2122 -0.3946 -0.1852
  416MOL0     N57321   3.805   3.188   6.700 -0.2205 -0.9015  0.5928
  416MOL0     N57322   3.857   3.080   6.659  0.4899 -0.0674  0.2858
  416MOL0     C57323   3.804   2.186   5.512 -0.7245  1.2545 -0.0619
  416MOL0     C57324   3.737   2.113   5.417  0.1650 -0.0064  0.1032
  416MOL0     C57325   3.459   1.908   5.138  1.0684 -0.7535 -0.2249
  416MOL0     C57326   3.348   1.861   5.212  0.1800  0.3596 -0.1273
  416MOL0     C57327   3.247   1.783   5.156 -0.5925 -0.2007  0.4889
  416MOL0     C57328   3.250   1.751   5.022 -0.5001  0.2667  0.4392
  416MOL0     O57329   3.158   1.667   4.968 -0.2306 -0.1929 -0.0351
  416MOL0     C57330   3.081   1.579   5.055  0.7936 -0.3340 -0.1319
  416MOL0     C57331   2.944   1.641   5.082 -0.2629  0.6797 -0.0726
  416MOL0     C57332   2.847   1.654   4.969 -0.4118  0.4141  0.5180
  416MOL0     C57333   2.700   1.674   5.022  1.7675 -0.1833  0.3177
  416MOL0     C57334   2.639   1.552   5.073 -0.3343  0.1268 -0.5047
  416MOL0     C57335   2.575   1.451   5.100  0.8702  0.1358 -0.1525
  416MOL0     C57336   3.351   1.815   4.944  0.1121 -0.3813  0.4898
  416MOL0     C57337   3.468   1.879   4.999  0.3929  0.2493  0.9006
  416MOL0     C57338   3.578   1.937   4.902 -0.1205  0.7767 -0.2377
  416MOL0     H57339   3.414   2.145   5.523  0.4168 -0.0538  5.3137
  416MOL0     H57340   3.527   2.298   5.672  2.7017  0.0836  0.6885
  416MOL0     H57341   3.681   2.340   5.856  2.1249 -1.2774 -0.0289
  416MOL0     H57342   3.672   2.483   5.748  1.9239  1.8115  1.0539
  416MOL0     H57343   3.895   2.399   5.924  2.1606  1.4229 -2.0840
  416MOL0     H57344   3.917   2.527   5.807  0.9957 -0.7408  0.7234
  416MOL0     H57345   3.711   2.651   5.937 -2.4825 -1.1139  2.5907
  416MOL0     H57346   3.731   2.517   6.044 -3.9127  1.3960 -1.2972
  416MOL0     H57347   3.974   2.598   6.081 -0.0728  1.5323  3.3146
  416MOL0     H57348   3.949   2.732   5.977  0.0326 -0.3977  0.4916
  416MOL0     H57349   3.799   2.667   6.235 -1.3523 -1.3993 -1.5404
  416MOL0     H57350   3.755   2.809   6.147  0.3624 -0.3808 -2.6477
  416MOL0     H57351   4.002   2.741   6.322 -1.6697 -1.2168 -0.3167
  416MOL0     H57352   4.024   2.864   6.187 -1.4255  2.8384 -0.1238
  416MOL0     H57353   3.789   2.859   6.378 -1.2180  0.7721 -1.8838
  416MOL0     H57354   3.846   2.990   6.274 -2.8609 -2.8202 -1.7604
  416MOL0     H57355   3.978   2.880   6.533 -2.4981 -0.5122 -0.3353
  416MOL0     H57356   4.064   2.990   6.414 -0.5145  1.1981  0.0620
  416MOL0     H57357   3.918   3.245   6.392  0.1912 -0.4077  0.6252
  416MOL0     H57358   3.702   3.431   6.513  1.4669 -0.2715 -1.9773
  416MOL0     H57359   3.861   3.489   6.548 -0.1418 -0.4132 -1.2151
  416MOL0     H57360   3.674   3.424   6.775 -1.7340  2.2712  0.1183
  416MOL0     H57361   3.835   3.448   6.791 -0.2153  1.3917  0.0257
  416MOL0     H57362   3.823   3.693   6.699 -1.2369  0.8444  0.2754
  416MOL0     H57363   3.647   3.673   6.676  0.2821  0.6378 -1.1843
  416MOL0     H57364   3.682   3.777   6.866  3.9515  1.2299  0.5457
  416MOL0     H57365   3.618   3.620   6.892 -2.0895  3.4959 -1.0342
  416MOL0     H57366   4.004   3.628   7.129  0.3528  0.3729  1.5280
  416MOL0     H57367   4.278   3.800   7.227  4.7499 -0.3704 -1.1848
  416MOL0     H57368   4.341   3.679   7.109  0.1874 -0.2909  1.9823
  416MOL0     H57369   4.198   3.639   7.202  1.3085 -3.6366 -3.2023
  416MOL0     H57370   4.489   4.168   6.937  0.2529  2.1422  2.8139
  416MOL0     H57371   4.709   4.266   6.979 -1.3877  1.4704  2.6021
  416MOL0     H57372   4.941   4.267   6.981  1.2572 -3.1990 -0.3868
  416MOL0     H57373   4.927   4.315   7.164  1.8540 -1.0206  2.5560
  416MOL0     H57374   5.149   4.134   7.045 -3.3654 -0.8659 -1.0388
  416MOL0     H57375   5.187   4.306   7.055  1.2307 -0.2459 -0.2883
  416MOL0     H57376   5.116   4.296   7.298 -1.7780 -1.7155  1.0378
  416MOL0     H57377   5.275   4.239   7.235  0.1939 -0.2240  0.4922
  416MOL0     H57378   5.159   4.005   7.245  2.4065 -1.0736  3.1623
  416MOL0     H57379   5.022   4.087   7.321  0.8314  2.5263 -1.3849
  416MOL0     H57380   5.304   4.045   7.422  0.1263  0.8452 -0.9300
  416MOL0     H57381   5.202   4.148   7.513 -0.5062 -0.0418  1.6504
  416MOL0     H57382   5.132   3.851   7.461 -1.2932 -1.9327  1.2832
  416MOL0     H57383   5.032   3.962   7.551  0.6323  0.3784 -0.6002
  416MOL0     H57384   5.236   4.016   7.703 -1.2842 -1.1488  1.5719
  416MOL0     H57385   5.327   3.902   7.611 -0.1911  0.2023 -1.9732
  416MOL0     H57386   5.152   3.729   7.723 -3.6399  0.4025  1.3772
  416MOL0     H57387   5.106   3.878   7.816  1.3967  1.0526 -0.1627
  416MOL0     H57388   4.830   3.896   7.173 -0.8894  0.7655  1.0003
  416MOL0     H57389   4.613   3.802   7.144  0.8849  0.3409  0.0752
  416MOL0     H57390   4.080   4.039   6.856 -0.4642 -0.8571 -1.6291
  416MOL0     H57391   3.863   3.917   6.837 -0.9096  1.9837  0.7997
  416MOL0     H57392   3.910   2.208   5.501 -0.4909  1.2176  1.7855
  416MOL0     H57393   3.800   2.069   5.340 -2.0318  1.4099 -2.7099
  416MOL0     H57394   3.329   1.890   5.315 -0.0838 -0.2929  0.0077
  416MOL0     H57395   3.162   1.739   5.206 -1.1884 -4.2992 -3.5056
  416MOL0     H57396   3.058   1.487   5.000 -3.3790  1.4747 -1.8352
  416MOL0     H57397   3.132   1.567   5.152 -0.0183  3.2557  0.8680
  416MOL0     H57398   2.955   1.734   5.139  0.0746  1.9114 -2.0443
  416MOL0     H57399   2.900   1.571   5.154  0.1360 -1.5095 -1.8705
  416MOL0     H57400   2.888   1.744   4.924  1.8588  0.9536  3.4069
  416MOL0     H57401   2.862   1.566   4.906 -2.2085 -0.0067  0.6115
  416MOL0     H57402   2.645   1.699   4.932  2.7751  1.4523  0.1161
  416MOL0     H57403   2.682   1.751   5.097 -0.6042 -1.6058  1.3085
  416MOL0     H57404   2.514   1.369   5.133 -0.3759  1.5428  1.2060
  416MOL0     H57405   3.341   1.807   4.837 -0.2770 -0.2453  0.5130
  416MOL0     H57406   3.575   2.041   4.868  2.2430  0.2611 -2.3634
  416MOL0     H57407   3.680   1.910   4.930 -0.0499  2.9831  1.9841
  416MOL0     H57408   3.563   1.889   4.805  2.1605 -2.4203  0.8427
  417MOL0     O57409   7.932   4.163   8.686  0.0933 -0.0916  0.4442
  417MOL0     C57410   7.904   4.276   8.716 -0.0895  0.0087 -0.7936
  417MOL0     O57411   7.864   4.313   8.836  0.5105 -0.9357 -0.4005
  417MOL0     C57412   7.889   4.227   8.945 -0.5295  0.2237 -0.8444
  417MOL0     C57413   7.780   4.175   9.012 -0.6445 -0.1691 -0.5893
  417MOL0     C57414   7.794   4.080   9.117 -0.2673 -0.8583  0.6487
  417MOL0     C57415   7.920   4.041   9.169  1.3044 -0.4790  0.1996
  417MOL0     O57416   7.941   3.945   9.265 -0.1945 -0.0471  0.4301
  417MOL0     C57417   7.868   3.969   9.388  0.1604  0.4017  0.0239
  417MOL0     C57418   7.966   3.970   9.507 -0.6556  0.0527  0.6354
  417MOL0     C57419   8.060   4.085   9.509  0.3683  0.0692 -1.0899
  417MOL0     C57420   7.987   4.213   9.556  0.5588 -0.4321  0.1024
  417MOL0     C57421   8.055   4.355   9.510  1.3163  0.6430  0.5171
  417MOL0     C57422   7.991   4.486   9.565  0.1200 -0.1175 -0.6730
  417MOL0     C57423   7.855   4.499   9.506  0.2938 -0.7424 -0.1999
  417MOL0     C57424   7.774   4.621   9.539 -0.7401 -0.3294  0.6347
  417MOL0     N57425   7.830   4.748   9.491  1.0588  0.1083  0.0706
  417MOL0     C57426   7.841   4.789   9.360  0.2768 -0.1245  0.1380
  417MOL0     C57427   7.891   4.911   9.373 -0.2482 -0.9149  0.4771
  417MOL0     C57428   7.899   5.005   9.258  0.5669  0.6774 -0.4939
  417MOL0     C57429   7.761   5.015   9.179 -1.1804  0.3065 -0.1218
  417MOL0     C57430   7.668   5.119   9.243  0.0603  0.5401 -0.3294
  417MOL0     C57431   7.661   5.255   9.189  0.1069 -0.4194 -0.7143
  417MOL0     O57432   7.624   5.250   9.051  0.0106 -0.6222  0.7348
  417MOL0     C57433   7.518   5.334   9.024  0.0643  0.2697 -0.3859
  417MOL0     C57434   7.388   5.278   9.020 -0.7757 -0.6371  0.4225
  417MOL0     C57435   7.278   5.362   9.009 -1.3040 -0.2486  0.0601
  417MOL0     C57436   7.148   5.298   8.998 -0.4895 -0.5549 -0.6089
  417MOL0     C57437   7.293   5.506   9.013 -0.2883  0.1268 -0.3460
  417MOL0     C57438   7.195   5.607   9.003  0.2810 -0.5898  0.4836
  417MOL0     O57439   7.225   5.732   9.063 -0.1517 -0.5175 -1.0880
  417MOL0     C57440   7.142   5.835   9.031  0.0026 -0.4925  0.1334
  417MOL0     C57441   7.028   5.864   9.084  0.9475  0.2803  0.0769
  417MOL0     C57442   6.958   5.981   9.065 -0.2007  0.1987  0.7007
  417MOL0     C57443   7.001   6.067   8.975 -0.4260 -0.8915  0.3897
  417MOL0     O57444   6.932   6.167   8.918 -0.3530 -0.7608 -0.4718
  417MOL0     C57445   6.791   6.149   8.886 -0.3590  0.5621  0.7387
  417MOL0     C57446   6.745   6.240   8.772  0.0203  0.1603 -0.5899
  417MOL0     C57447   6.800   6.210   8.639 -0.0449  0.1810  0.5098
  417MOL0     C57448   6.732   6.287   8.523 -0.0701  0.3415  0.1936
  417MOL0     C57449   6.782   6.220   8.395 -0.0853 -0.3474  0.5996
  417MOL0     C57450   6.728   6.288   8.270  0.3713  1.3209 -0.2911
  417MOL0     C57451   6.801   6.243   8.144  1.1424 -0.1198  1.1085
  417MOL0     C57452   6.720   6.304   8.022  0.0000 -0.1925  0.3987
  417MOL0    Cl57453   6.553   6.223   8.010 -0.4160  0.1206 -0.2247
  417MOL0     C57454   7.126   6.042   8.913 -0.3338 -0.4562 -0.6375
  417MOL0     C57455   7.189   5.925   8.940  0.0813  0.1889  0.1803
  417MOL0     O57456   7.106   5.587   8.921 -0.0254 -0.3898  0.7301
  417MOL0     C57457   7.424   5.556   9.045  0.6142 -1.3633 -0.9988
  417MOL0     C57458   7.529   5.468   9.051 -0.3412 -0.1188 -1.0153
  417MOL0     N57459   7.926   4.934   9.508  0.4204 -0.1847  0.3755
  417MOL0     N57460   7.892   4.834   9.570  0.1698 -0.0470 -1.1543
  417MOL0     C57461   8.029   4.090   9.098 -0.2781 -0.5442 -0.0946
  417MOL0     C57462   8.015   4.175   8.984 -0.6480 -0.0931  0.5972
  417MOL0     C57463   7.900   4.386   8.607 -0.0685  1.0799  0.3525
  417MOL0     C57464   7.801   4.482   8.624  0.1366  0.0992 -0.0973
  417MOL0     C57465   7.772   4.570   8.525  0.8453  0.7865  0.0188
  417MOL0     C57466   7.832   4.569   8.399  0.0385 -0.0695  0.4535
  417MOL0     O57467   7.798   4.668   8.312 -0.2602  0.2252 -0.0480
  417MOL0     C57468   7.906   4.743   8.262 -0.6829 -0.0979  0.1937
  417MOL0     C57469   7.851   4.875   8.213 -0.4932 -1.0040  0.6297
  417MOL0     C57470   7.951   4.958   8.120 -0.4274  0.2868  0.8147
  417MOL0     C57471   7.907   5.102   8.118 -0.0443 -0.9004 -0.0025
  417MOL0     C57472   7.778   5.130   8.054  0.7090 -0.2346  0.3761
  417MOL0     C57473   7.673   5.126   7.993  0.6318  0.4439 -0.2671
  417MOL0     C57474   7.938   4.478   8.381 -0.3873 -0.6049  0.1636
  417MOL0     C57475   7.977   4.384   8.484  0.3715 -0.1675  0.7074
  417MOL0     C57476   8.068   4.283   8.435 -0.5590 -0.0058 -0.3388
  417MOL0     H57477   7.682   4.206   8.976 -0.7113 -0.3293 -0.5485
  417MOL0     H57478   7.714   4.025   9.166 -0.2667 -0.3917  1.1800
  417MOL0     H57479   7.791   3.894   9.404  1.0502 -0.6827 -0.6590
  417MOL0     H57480   7.815   4.065   9.391 -1.8551 -0.6820  2.3590
  417MOL0     H57481   7.907   3.959   9.599 -4.1849 -0.6282 -1.4901
  417MOL0     H57482   8.029   3.881   9.494 -0.0099  0.7731 -1.4219
  417MOL0     H57483   8.137   4.049   9.578 -0.7601 -4.8490 -2.0746
  417MOL0     H57484   8.099   4.101   9.408  1.6656 -0.6010 -0.7195
  417MOL0     H57485   7.884   4.201   9.522 -0.7802  2.9824  2.4342
  417MOL0     H57486   7.977   4.212   9.665 -1.5233 -0.3945 -0.0561
  417MOL0     H57487   8.052   4.362   9.401 -2.6859 -1.5219  0.2937
  417MOL0     H57488   8.156   4.334   9.548  0.8165 -2.7816  0.2764
  417MOL0     H57489   7.982   4.472   9.673 -0.9730 -1.3572 -0.8969
  417MOL0     H57490   8.042   4.581   9.550 -1.9825  1.4283  1.3251
  417MOL0     H57491   7.791   4.420   9.545 -2.5943  2.9834  3.6293
  417MOL0     H57492   7.864   4.489   9.397  2.3818 -1.0171 -0.0423
  417MOL0     H57493   7.672   4.592   9.516 -0.7354 -1.9332  2.3826
  417MOL0     H57494   7.779   4.640   9.647  0.3167  1.3431  0.3205
  417MOL0     H57495   7.814   4.729   9.273  2.2044  0.8640 -1.2118
  417MOL0     H57496   7.968   4.980   9.177 -0.5513  1.3531 -1.7071
  417MOL0     H57497   7.925   5.108   9.286  0.0008  0.3253  1.4771
  417MOL0     H57498   7.785   5.045   9.077  1.2232 -0.2390  0.2206
  417MOL0     H57499   7.705   4.921   9.182 -2.0386  0.8203  1.7693
  417MOL0     H57500   7.567   5.079   9.226  0.5031 -0.2156 -1.3011
  417MOL0     H57501   7.688   5.118   9.350  0.8262  1.6385 -0.4461
  417MOL0     H57502   7.582   5.309   9.242  0.0888  1.1364 -2.2208
  417MOL0     H57503   7.752   5.312   9.209  0.8382 -2.1421  1.1120
  417MOL0     H57504   7.385   5.169   9.027  0.9801 -0.8957 -1.8707
  417MOL0     H57505   7.110   5.268   8.900 -1.1609 -2.0498  0.0782
  417MOL0     H57506   7.062   5.354   9.037 -0.8972  1.2337 -3.6631
  417MOL0     H57507   7.154   5.206   9.056 -1.4765 -1.4156 -1.8145
  417MOL0     H57508   6.970   5.806   9.156 -0.6354  0.0584 -1.3066
  417MOL0     H57509   6.865   5.992   9.121 -0.4987 -3.9503  1.3385
  417MOL0     H57510   6.778   6.049   8.844 -0.8529  1.7755 -2.2744
  417MOL0     H57511   6.728   6.151   8.975 -1.3353  0.2300  0.0749
  417MOL0     H57512   6.636   6.241   8.772  0.0168 -0.1811 -0.4391
  417MOL0     H57513   6.782   6.340   8.795 -0.7978  0.2861  0.2304
  417MOL0     H57514   6.783   6.106   8.608 -3.6549  1.3624 -2.3146
  417MOL0     H57515   6.903   6.246   8.643 -0.0871  0.2065  1.8089
  417MOL0     H57516   6.746   6.395   8.526 -3.1565  0.8160  1.3535
  417MOL0     H57517   6.625   6.262   8.530  0.2434 -0.8473  1.0470
  417MOL0     H57518   6.891   6.230   8.395 -0.0335 -0.8876 -0.4939
  417MOL0     H57519   6.743   6.118   8.407  2.4653 -1.2151  2.7391
  417MOL0     H57520   6.751   6.394   8.280 -1.4163  1.7634 -0.4998
  417MOL0     H57521   6.620   6.278   8.260  0.6558  0.3046 -4.0196
  417MOL0     H57522   6.795   6.134   8.133 -3.4316 -0.0553  1.1608
  417MOL0     H57523   6.905   6.276   8.156  0.3498  2.9287  0.3436
  417MOL0     H57524   6.771   6.286   7.927 -0.3370  2.1557 -0.2790
  417MOL0     H57525   6.694   6.408   8.040 -0.6460 -0.3856  0.6248
  417MOL0     H57526   7.176   6.121   8.858  1.9158 -0.0144  1.8375
  417MOL0     H57527   7.282   5.894   8.894 -1.3812 -1.1161 -2.1338
  417MOL0     H57528   7.456   5.657   9.068  0.0712 -0.4876 -3.7509
  417MOL0     H57529   7.629   5.507   9.068 -1.0363  0.6232  1.7953
  417MOL0     H57530   8.122   4.048   9.135 -0.8563  0.4008  2.6511
  417MOL0     H57531   8.097   4.211   8.923 -1.1402  1.9999  1.1017
  417MOL0     H57532   7.733   4.485   8.708 -0.6382 -0.0806 -0.7117
  417MOL0     H57533   7.707   4.656   8.535  0.1644  0.1227  1.8973
  417MOL0     H57534   7.984   4.755   8.338 -2.1742 -0.1908  1.8135
  417MOL0     H57535   7.956   4.685   8.185  0.6625 -0.8906  1.6252
  417MOL0     H57536   7.836   4.935   8.303 -2.4611 -0.9027  0.2752
  417MOL0     H57537   7.758   4.849   8.162 -0.3696 -1.7291  0.7616
  417MOL0     H57538   8.055   4.941   8.147  0.4940  1.1271 -1.9126
  417MOL0     H57539   7.939   4.922   8.017 -1.5864  0.9194  0.7104
  417MOL0     H57540   7.976   5.146   8.045 -1.0807 -1.0798 -1.1249
  417MOL0     H57541   7.918   5.147   8.217  1.4243  3.0364 -1.7100
  417MOL0     H57542   7.569   5.119   7.965  0.4474  1.5821  0.0917
  417MOL0     H57543   7.997   4.493   8.291  0.3927  4.9979  1.2610
  417MOL0     H57544   8.157   4.266   8.498 -1.7092 -0.0987  1.3311
  417MOL0     H57545   8.007   4.193   8.420 -1.9700  0.3559  2.4499
  417MOL0     H57546   8.109   4.299   8.335  2.5945 -2.4259  0.3922
  418MOL0     O57547   8.772  11.272   4.803  0.1967 -0.3051  0.3818
  418MOL0     C57548   8.749  11.301   4.917 -0.6101 -0.3090 -0.3036
  418MOL0     O57549   8.793  11.230   5.027 -0.2106 -0.5864  0.7559
  418MOL0     C57550   8.917  11.174   5.018  0.0825 -0.0451  0.2688
  418MOL0     C57551   9.027  11.252   5.026 -0.3956 -0.1854  0.1329
  418MOL0     C57552   9.153  11.210   5.001 -0.2175  0.5926 -0.1520
  418MOL0     C57553   9.172  11.076   4.965  0.3256 -0.4720  1.0429
  418MOL0     O57554   9.299  11.050   4.927 -0.1865 -1.1313  0.3738
  418MOL0     C57555   9.326  10.926   4.862 -0.1464 -0.8201  0.2150
  418MOL0     C57556   9.479  10.901   4.841  0.4993 -0.5744  0.1774
  418MOL0     C57557   9.553  10.925   4.975  0.0988  0.1617 -0.3384
  418MOL0     C57558   9.706  10.921   4.973 -0.2727 -0.8547  0.4245
  418MOL0     C57559   9.755  10.775   4.959  0.0919 -0.6805  0.1758
  418MOL0     C57560   9.908  10.764   4.936  0.8465 -0.7618  0.7128
  418MOL0     C57561   9.983  10.719   5.059 -0.9396 -0.0533 -0.8826
  418MOL0     C57562  10.142  10.726   5.033  1.2328 -0.5572  0.2528
  418MOL0     N57563  10.194  10.621   4.940 -0.8300 -0.0755  0.3050
  418MOL0     C57564  10.193  10.615   4.798 -0.1365  0.1244  0.2435
  418MOL0     C57565  10.266  10.502   4.778  0.3863 -0.3042  0.8451
  418MOL0     C57566  10.303  10.454   4.645  0.1585 -0.1752  0.2129
  418MOL0     C57567  10.265  10.310   4.611 -0.3404 -0.1339  0.6872
  418MOL0     C57568  10.383  10.214   4.627 -0.4606 -0.5896  0.1020
  418MOL0     C57569  10.356  10.060   4.618 -0.3566  0.0829 -0.2812
  418MOL0     O57570  10.281  10.020   4.503  0.1741 -0.0904  0.0232
  418MOL0     C57571  10.337  10.011   4.379  0.2017  1.0706  0.4671
  418MOL0     C57572  10.244  10.016   4.270 -0.0359  0.3399 -0.5661
  418MOL0     C57573  10.278  10.034   4.134 -0.5290  0.9041  0.6044
  418MOL0     C57574  10.163  10.043   4.034  0.0131  0.8844  0.0161
  418MOL0     C57575  10.418  10.058   4.103 -0.9319 -0.2097 -0.3256
  418MOL0     C57576  10.465  10.123   3.983  0.1066  0.2470 -0.1195
  418MOL0     O57577  10.381  10.115   3.883  0.1009 -0.4697  0.6905
  418MOL0     C57578  10.401  10.161   3.752 -0.3327  0.0101 -0.4731
  418MOL0     C57579  10.493  10.260   3.714 -0.3074 -0.0248 -0.6145
  418MOL0     C57580  10.499  10.300   3.584 -0.3672  0.0758 -0.0206
  418MOL0     C57581  10.426  10.236   3.479 -0.7624  0.2924  0.0546
  418MOL0     O57582  10.453  10.285   3.360  0.2098 -0.4074  0.2550
  418MOL0     C57583  10.430  10.195   3.253 -0.4907  0.0375 -0.0460
  418MOL0     C57584  10.491  10.259   3.126 -1.3601  0.5306 -0.3400
  418MOL0     C57585  10.510  10.153   3.020  0.9137 -0.1964  0.3080
  418MOL0     C57586  10.667  10.114   3.008  0.0566 -0.0009  0.0726
  418MOL0     C57587  10.707   9.986   2.933  0.2871  0.6245 -0.1233
  418MOL0     C57588  10.672   9.990   2.779  0.1696  0.8367 -1.2218
  418MOL0     C57589  10.744  10.091   2.693  0.0768 -0.0187 -0.4502
  418MOL0     C57590  10.893  10.064   2.688  0.1765  0.4612 -0.0872
  418MOL0    Cl57591  10.933   9.922   2.597 -0.8070  0.0762 -0.1172
  418MOL0     C57592  10.338  10.132   3.515  0.6919  1.0995  0.7059
  418MOL0     C57593  10.330  10.099   3.652  0.8554 -0.1883  0.0819
  418MOL0     O57594  10.578  10.158   3.974  0.0107  0.3651 -0.1799
  418MOL0     C57595  10.509  10.039   4.208 -0.3364  0.3528 -0.9198
  418MOL0     C57596  10.473  10.029   4.341  0.0976 -0.3213  0.4481
  418MOL0     N57597  10.313  10.457   4.902  0.0352  0.2274  0.2216
  418MOL0     N57598  10.258  10.519   4.997 -0.3284  0.9831 -0.2559
  418MOL0     C57599   9.063  10.994   4.945 -0.2525 -0.6822 -0.6117
  418MOL0     C57600   8.933  11.041   4.977 -0.2425  0.5815  0.0586
  418MOL0     C57601   8.668  11.425   4.953  0.1457  0.1406 -0.1264
  418MOL0     C57602   8.680  11.484   5.085  0.4706  0.1125  0.3473
  418MOL0     C57603   8.600  11.594   5.130  0.1644  0.4185 -0.4059
  418MOL0     C57604   8.521  11.662   5.039 -0.0889  0.4701  0.3442
  418MOL0     O57605   8.458  11.779   5.069  0.4705  0.1785  0.4427
  418MOL0     C57606   8.435  11.860   4.952 -0.5799  0.1455  0.0394
  418MOL0     C57607   8.448  12.012   4.990 -0.6857  0.6925 -1.1997
  418MOL0     C57608   8.589  12.068   4.970 -0.6609  0.0925 -0.5021
  418MOL0     C57609   8.684  12.023   5.073  0.0315  0.0875  0.8905
  418MOL0     C57610   8.639  12.036   5.215  0.2517  0.1339 -0.0159
  418MOL0     C57611   8.611  12.052   5.331  0.4498 -0.5922  0.2459
  418MOL0     C57612   8.516  11.605   4.898 -0.0863  0.1846 -0.4528
  418MOL0     C57613   8.585  11.487   4.859 -0.4288 -0.1202 -0.6368
  418MOL0     C57614   8.582  11.455   4.702  0.2083 -0.1776 -0.9117
  418MOL0     H57615   9.007  11.357   5.042 -0.8579 -0.4393  1.3554
  418MOL0     H57616   9.238  11.277   5.007 -1.5418  2.4458 -1.1017
  418MOL0     H57617   9.273  10.914   4.767 -0.3297  4.9828 -0.8338
  418MOL0     H57618   9.288  10.853   4.933 -3.0551  1.7850  1.5776
  418MOL0     H57619   9.500  10.802   4.800 -0.7909 -0.1056 -1.7232
  418MOL0     H57620   9.515  10.974   4.768 -0.1278  0.4074  0.8247
  418MOL0     H57621   9.527  11.028   4.999 -0.3761  0.2087 -1.0074
  418MOL0     H57622   9.512  10.865   5.057 -1.7377  1.1752 -0.4615
  418MOL0     H57623   9.745  10.989   4.896  1.4972 -2.4346 -0.1558
  418MOL0     H57624   9.735  10.973   5.064 -0.7500  3.5192 -1.6827
  418MOL0     H57625   9.700  10.749   4.868  0.3852  0.1700 -0.2593
  418MOL0     H57626   9.725  10.714   5.044 -2.7073  2.0595  1.3228
  418MOL0     H57627   9.930  10.699   4.851  0.6524 -4.3131  3.1397
  418MOL0     H57628   9.945  10.861   4.904 -2.0126  0.5396  1.0241
  418MOL0     H57629   9.951  10.620   5.094 -0.1725 -0.9104 -2.4574
  418MOL0     H57630   9.959  10.790   5.138  0.6372 -0.8814  0.4056
  418MOL0     H57631  10.168  10.823   4.990 -0.3558  0.4435  1.4103
  418MOL0     H57632  10.201  10.718   5.125 -1.2278  2.2657  2.2928
  418MOL0     H57633  10.145  10.672   4.718 -2.3674 -3.3680 -1.1250
  418MOL0     H57634  10.409  10.479   4.632  0.3173  1.1469  3.3681
  418MOL0     H57635  10.239  10.507   4.574  0.0720 -4.2363 -3.1652
  418MOL0     H57636  10.186  10.272   4.676 -1.0843  2.7507  1.6087
  418MOL0     H57637  10.227  10.287   4.511  1.5458 -4.4498  0.7301
  418MOL0     H57638  10.453  10.233   4.545  0.3937 -5.7221 -0.6708
  418MOL0     H57639  10.431  10.231   4.724 -0.0107  0.5783 -0.2976
  418MOL0     H57640  10.450  10.003   4.618  0.5929  1.5377  1.1235
  418MOL0     H57641  10.310  10.029   4.713 -2.6602  0.2205 -1.2861
  418MOL0     H57642  10.139  10.020   4.298  0.0596  1.7947 -0.3739
  418MOL0     H57643  10.074  10.017   4.090 -0.5188  1.9089 -0.3231
  418MOL0     H57644  10.188   9.965   3.961  1.0786  1.1749  0.0526
  418MOL0     H57645  10.163  10.142   3.987 -1.6088  1.4725  1.1790
  418MOL0     H57646  10.552  10.307   3.792 -0.4702 -0.3063 -0.3210
  418MOL0     H57647  10.558  10.385   3.551 -0.6004  0.0186 -0.6106
  418MOL0     H57648  10.475  10.097   3.273  0.5019  0.6631  0.8780
  418MOL0     H57649  10.322  10.188   3.238 -0.6156  0.0522  0.7895
  418MOL0     H57650  10.431  10.339   3.081 -0.8277  1.6719  0.9166
  418MOL0     H57651  10.592  10.296   3.145 -1.6122  1.9986 -1.5952
  418MOL0     H57652  10.493  10.196   2.921 -1.2930 -0.4543  0.5324
  418MOL0     H57653  10.455  10.060   3.035  0.3120  0.0920 -0.0764
  418MOL0     H57654  10.722  10.109   3.103  0.5238  0.8848 -0.1381
  418MOL0     H57655  10.716  10.200   2.961  0.8057  0.3062  1.3411
  418MOL0     H57656  10.815   9.968   2.935  0.9396  3.6570 -1.7549
  418MOL0     H57657  10.654   9.901   2.977  0.9034  1.8736  3.3524
  418MOL0     H57658  10.567  10.019   2.776 -1.1442 -2.8244  2.1849
  418MOL0     H57659  10.692   9.890   2.741 -1.3619  0.2862 -0.6373
  418MOL0     H57660  10.722  10.193   2.725 -0.1040  0.2059 -1.2674
  418MOL0     H57661  10.702  10.082   2.592  0.6127  0.1261 -0.6870
  418MOL0     H57662  10.940  10.048   2.786 -1.2343 -1.0497  0.3784
  418MOL0     H57663  10.935  10.155   2.644 -0.1718  0.4044 -0.5409
  418MOL0     H57664  10.275  10.071   3.451  3.2300 -2.6834  1.4911
  418MOL0     H57665  10.269  10.013   3.678  0.6278 -0.5457 -1.5049
  418MOL0     H57666  10.617  10.046   4.204 -0.3857  4.5267  0.0513
  418MOL0     H57667  10.554  10.043   4.412  0.7802  2.2161 -0.6931
  418MOL0     H57668   9.073  10.887   4.931  2.3206 -1.1358  3.2837
  418MOL0     H57669   8.845  10.978   4.968 -0.3676  0.9870 -2.4870
  418MOL0     H57670   8.750  11.438   5.154 -1.7629 -1.6587  1.5566
  418MOL0     H57671   8.612  11.625   5.233 -0.1323 -3.7654  1.0985
  418MOL0     H57672   8.497  11.856   4.862  0.9231 -2.6226  1.0791
  418MOL0     H57673   8.335  11.838   4.912  0.1824 -0.6551 -1.5181
  418MOL0     H57674   8.400  12.040   5.084 -0.1963  0.0331 -0.7388
  418MOL0     H57675   8.383  12.070   4.924 -1.6432 -0.0596 -0.9498
  418MOL0     H57676   8.637  12.034   4.878 -1.5865 -1.3521 -0.4759
  418MOL0     H57677   8.582  12.177   4.973  0.5038  0.1583  1.1512
  418MOL0     H57678   8.774  12.082   5.052  0.4335 -0.8060  0.0322
  418MOL0     H57679   8.720  11.921   5.063  1.1354  0.4343  1.1999
  418MOL0     H57680   8.582  12.061   5.434 -0.0142 -0.0221  0.0718
  418MOL0     H57681   8.453  11.653   4.824 -0.0609 -0.1169 -0.6701
  418MOL0     H57682   8.676  11.477   4.650 -0.5651  0.7682 -1.9654
  418MOL0     H57683   8.554  11.349   4.691  1.0498 -0.4910 -0.1262
  418MOL0     H57684   8.499  11.505   4.651 -1.2317 -0.7118  0.8211
  419MOL0     O57685   5.703   7.883   8.670 -0.1732 -0.2829 -0.1087
  419MOL0     C57686   5.606   7.863   8.597 -0.3511 -0.3108  0.5315
  419MOL0     O57687   5.476   7.847   8.639 -0.5702  0.1723  0.2104
  419MOL0     C57688   5.453   7.860   8.771 -1.0387 -0.2460 -1.1050
  419MOL0     C57689   5.339   7.932   8.802 -0.0317 -0.4310  0.0148
  419MOL0     C57690   5.316   7.957   8.934 -0.0208 -0.4107 -0.1722
  419MOL0     C57691   5.374   7.869   9.035  0.4225 -0.3389  0.1336
  419MOL0     O57692   5.336   7.853   9.167  0.9828 -0.9663  0.0600
  419MOL0     C57693   5.223   7.935   9.208 -0.0666  0.1267  0.4681
  419MOL0     C57694   5.188   7.925   9.360 -0.9921  0.4098 -0.0097
  419MOL0     C57695   5.144   7.788   9.404 -0.8814 -1.3647 -0.0696
  419MOL0     C57696   4.994   7.779   9.412  0.3017  1.1260  0.2477
  419MOL0     C57697   4.945   7.641   9.468 -0.3912  0.9861  0.5048
  419MOL0     C57698   4.800   7.627   9.436 -0.1568 -0.1485  0.0930
  419MOL0     C57699   4.731   7.522   9.523 -0.4727  0.7166  0.7341
  419MOL0     C57700   4.769   7.377   9.485 -0.2715 -0.6047 -0.8688
  419MOL0     N57701   4.768   7.335   9.346  0.0209  0.6516 -0.5143
  419MOL0     C57702   4.846   7.226   9.295 -1.2952 -0.0048 -0.4454
  419MOL0     C57703   4.829   7.215   9.166 -0.1313  0.8515  0.6428
  419MOL0     C57704   4.891   7.099   9.098 -0.0450  0.3230 -0.4536
  419MOL0     C57705   4.800   7.036   8.989  0.3673  0.2652 -0.9374
  419MOL0     C57706   4.795   7.126   8.877  0.8532 -0.3417  1.7007
  419MOL0     C57707   4.714   7.059   8.757  0.6807  0.0605 -1.2060
  419MOL0     O57708   4.684   7.155   8.654  0.0423  0.3597 -0.3745
  419MOL0     C57709   4.740   7.137   8.533 -0.4223 -0.2979  0.3215
  419MOL0     C57710   4.724   7.018   8.453  0.5746  0.2157  0.6674
  419MOL0     C57711   4.793   7.002   8.326 -0.3491  0.8947  0.1777
  419MOL0     C57712   4.801   6.863   8.252  0.1809 -0.4806  0.3137
  419MOL0     C57713   4.862   7.114   8.266  0.1927 -0.8462 -1.0746
  419MOL0     C57714   4.935   7.116   8.145 -0.1142  0.0136 -0.5268
  419MOL0     O57715   5.003   7.230   8.129 -0.4975 -0.3212  0.3477
  419MOL0     C57716   5.073   7.239   8.007 -0.2028 -0.7624 -0.5831
  419MOL0     C57717   5.013   7.229   7.881  0.9173 -0.1361 -1.2886
  419MOL0     C57718   5.088   7.222   7.763 -0.2613  0.6155 -0.2096
  419MOL0     C57719   5.223   7.235   7.765 -0.6975 -0.6398 -0.2370
  419MOL0     O57720   5.297   7.228   7.649  0.1642  0.3922  0.3524
  419MOL0     C57721   5.341   7.099   7.609 -0.0607 -0.4793 -0.3596
  419MOL0     C57722   5.394   7.119   7.465 -0.8078 -0.5477  0.4239
  419MOL0     C57723   5.432   6.982   7.415 -0.6145 -0.7686 -0.5467
  419MOL0     C57724   5.489   6.995   7.267  0.5509  0.4168 -0.6202
  419MOL0     C57725   5.518   6.855   7.203  0.2887  0.1666  0.0014
  419MOL0     C57726   5.616   6.756   7.276 -0.3673 -0.1531 -0.7047
  419MOL0     C57727   5.759   6.817   7.283  0.1413 -0.2217  0.5240
  419MOL0     C57728   5.879   6.723   7.285 -0.2764 -0.0753 -0.4164
  419MOL0    Cl57729   5.854   6.595   7.412 -0.3825 -0.2083  0.0983
  419MOL0     C57730   5.288   7.251   7.891  0.7545 -1.4123  0.7992
  419MOL0     C57731   5.219   7.249   8.008  0.3990 -0.6142  0.2156
  419MOL0     O57732   4.936   7.024   8.067 -0.4327  0.7034  0.3732
  419MOL0     C57733   4.860   7.225   8.349 -0.3991  0.1043  0.0581
  419MOL0     C57734   4.801   7.244   8.474 -0.3731  1.1154 -0.0312
  419MOL0     N57735   4.737   7.311   9.134  0.4888 -0.9409  0.3850
  419MOL0     N57736   4.706   7.384   9.239  0.2500  0.4630 -0.0954
  419MOL0     C57737   5.486   7.793   9.005 -0.2800 -0.6072 -0.0911
  419MOL0     C57738   5.519   7.791   8.866 -0.5162 -0.2804 -0.9347
  419MOL0     C57739   5.628   7.849   8.445 -0.3927 -0.1499 -0.7111
  419MOL0     C57740   5.761   7.842   8.402 -0.5966 -0.4761 -0.0620
  419MOL0     C57741   5.800   7.839   8.266 -1.2303  0.7551  0.4181
  419MOL0     C57742   5.708   7.845   8.166  0.0507  0.8768  0.0345
  419MOL0     O57743   5.735   7.858   8.029 -0.1614  0.2545 -0.3208
  419MOL0     C57744   5.842   7.773   7.972  0.4687 -0.0058 -0.7550
  419MOL0     C57745   5.806   7.731   7.828 -0.6275  0.3667  0.0895
  419MOL0     C57746   5.916   7.650   7.747 -0.3565 -0.3352 -0.8320
  419MOL0     C57747   6.025   7.757   7.720 -1.1683  0.0929  0.1630
  419MOL0     C57748   6.143   7.721   7.643 -0.2462  0.1525 -0.1627
  419MOL0     C57749   6.253   7.689   7.595 -0.7756 -0.0190 -0.3278
  419MOL0     C57750   5.585   7.866   8.207  0.0260  0.6714 -0.2321
  419MOL0     C57751   5.535   7.866   8.343 -0.2187 -1.3118  0.1130
  419MOL0     C57752   5.391   7.894   8.366  0.0470  0.5688 -0.7059
  419MOL0     H57753   5.279   7.969   8.719  3.3181  1.6994 -1.6700
  419MOL0     H57754   5.245   8.026   8.979  2.1115 -0.3529  3.4979
  419MOL0     H57755   5.140   7.908   9.143 -0.0977  1.0508  0.1022
  419MOL0     H57756   5.255   8.040   9.201 -0.6581  0.1997 -2.4318
  419MOL0     H57757   5.279   7.956   9.411 -0.5803 -0.9648  0.1457
  419MOL0     H57758   5.113   8.002   9.382  1.0845  2.9213 -1.1894
  419MOL0     H57759   5.182   7.708   9.339 -3.6034 -3.2427  0.4568
  419MOL0     H57760   5.179   7.773   9.507  2.7844  1.9340 -0.6355
  419MOL0     H57761   4.961   7.860   9.479  0.6484  1.5845 -0.1278
  419MOL0     H57762   4.949   7.796   9.314  3.3310  1.2823 -1.2250
  419MOL0     H57763   4.962   7.633   9.576  0.1915  3.7418  0.6848
  419MOL0     H57764   5.008   7.567   9.418  1.3130  2.1641  0.7932
  419MOL0     H57765   4.748   7.719   9.464 -0.4366 -1.1669  3.2557
  419MOL0     H57766   4.790   7.609   9.329 -0.9391 -1.3608  0.3501
  419MOL0     H57767   4.624   7.540   9.509 -0.6550 -0.7212  0.0969
  419MOL0     H57768   4.764   7.540   9.626  1.5432 -2.4126  0.7446
  419MOL0     H57769   4.873   7.362   9.515 -0.1720 -0.3615 -1.0868
  419MOL0     H57770   4.707   7.311   9.545  3.8510 -1.8378  2.5074
  419MOL0     H57771   4.924   7.170   9.345  1.2069  3.1683 -0.3908
  419MOL0     H57772   4.909   7.023   9.174 -2.5446 -2.1204 -2.1233
  419MOL0     H57773   4.985   7.123   9.047  2.4413 -2.0066  2.6394
  419MOL0     H57774   4.840   6.939   8.960  1.4763  0.0454  1.1319
  419MOL0     H57775   4.696   7.037   9.023  0.8827  0.1917  0.7098
  419MOL0     H57776   4.752   7.219   8.916  1.7715  0.4692  0.8393
  419MOL0     H57777   4.892   7.157   8.837 -0.7208 -0.4650 -2.8237
  419MOL0     H57778   4.777   6.979   8.719  2.0951  0.4404  0.2210
  419MOL0     H57779   4.620   7.020   8.798  0.5183  0.2095 -1.4377
  419MOL0     H57780   4.669   6.936   8.497  2.7860 -1.7655 -0.0097
  419MOL0     H57781   4.785   6.872   8.144  1.1123  1.1478  0.2754
  419MOL0     H57782   4.728   6.790   8.289 -0.4214  0.9449  2.0869
  419MOL0     H57783   4.897   6.812   8.266  0.6958  0.8023  1.7534
  419MOL0     H57784   4.905   7.230   7.886  0.7250 -3.2102 -2.6189
  419MOL0     H57785   5.042   7.195   7.669 -3.9491  0.5936  1.4539
  419MOL0     H57786   5.415   7.067   7.683  2.9084  3.4666 -1.2963
  419MOL0     H57787   5.254   7.035   7.595 -0.7165  0.3256 -0.0648
  419MOL0     H57788   5.322   7.167   7.398 -0.9068 -0.8325  0.3236
  419MOL0     H57789   5.491   7.169   7.470 -2.5340  2.9931  1.5539
  419MOL0     H57790   5.343   6.920   7.409 -1.7542  0.6400  0.9083
  419MOL0     H57791   5.509   6.946   7.485  0.5205 -0.8785 -1.8162
  419MOL0     H57792   5.579   7.056   7.281  0.4042  0.1967  1.6828
  419MOL0     H57793   5.414   7.041   7.202 -0.5441 -2.5645 -1.6475
  419MOL0     H57794   5.419   6.809   7.199  0.5370 -0.3901  0.0922
  419MOL0     H57795   5.544   6.876   7.099 -2.4287  0.2965 -0.7256
  419MOL0     H57796   5.639   6.671   7.210  4.1669 -0.0439  0.4157
  419MOL0     H57797   5.571   6.726   7.371  0.5580 -1.8033 -0.7476
  419MOL0     H57798   5.764   6.882   7.371 -1.2290 -2.0275  2.0451
  419MOL0     H57799   5.770   6.881   7.195 -3.2023 -0.8186 -0.4748
  419MOL0     H57800   5.969   6.781   7.308 -0.2878 -0.0275 -0.4949
  419MOL0     H57801   5.874   6.677   7.186  0.7211 -0.7707 -0.1491
  419MOL0     H57802   5.396   7.261   7.892  0.9235 -2.8454  0.2111
  419MOL0     H57803   5.274   7.260   8.101  2.1580 -2.4843 -0.5200
  419MOL0     H57804   4.913   7.314   8.317 -0.0418 -0.4799 -1.0540
  419MOL0     H57805   4.801   7.339   8.527  0.7645  1.1491 -0.0623
  419MOL0     H57806   5.542   7.733   9.076  1.5065 -2.0769 -2.5858
  419MOL0     H57807   5.605   7.730   8.841  0.5939 -0.9001  3.5618
  419MOL0     H57808   5.844   7.844   8.472  2.2252  0.2908 -3.2058
  419MOL0     H57809   5.906   7.838   8.244 -0.8130 -2.5869  1.9837
  419MOL0     H57810   5.942   7.814   7.983 -0.0845  1.1368  0.2519
  419MOL0     H57811   5.844   7.685   8.037  1.3244  1.5174  1.3895
  419MOL0     H57812   5.773   7.818   7.772 -0.8239  1.9430  2.5303
  419MOL0     H57813   5.717   7.669   7.839 -0.9123  0.6363 -0.6180
  419MOL0     H57814   5.953   7.561   7.798  2.5276 -0.1658 -2.4147
  419MOL0     H57815   5.872   7.640   7.647 -1.8585  1.7371 -0.4430
  419MOL0     H57816   6.056   7.784   7.822 -2.7903 -2.4460  1.4354
  419MOL0     H57817   5.980   7.844   7.672  1.3589  2.1024  1.2256
  419MOL0     H57818   6.342   7.665   7.540 -1.2418  0.0566 -1.1302
  419MOL0     H57819   5.524   7.868   8.117  1.2959 -2.4278 -1.2787
  419MOL0     H57820   5.375   7.976   8.437  0.6808 -0.0240  0.1401
  419MOL0     H57821   5.342   7.919   8.271 -0.1385 -0.3368 -0.8648
  419MOL0     H57822   5.335   7.815   8.418  2.2454 -0.6024 -0.0043
  420MOL0     O57823   6.072   3.900   8.958 -0.3062  0.0309  0.4422
  420MOL0     C57824   5.950   3.877   8.973 -1.2591  0.4104 -0.9417
  420MOL0     O57825   5.901   3.756   8.931  1.0573  0.5283 -0.1136
  420MOL0     C57826   5.965   3.636   8.942 -0.4194  0.6477 -0.1767
  420MOL0     C57827   6.071   3.599   8.867 -0.1178 -0.3631 -0.7802
  420MOL0     C57828   6.118   3.463   8.875  0.5528 -0.1667  0.1395
  420MOL0     C57829   6.063   3.379   8.974 -0.8648 -0.0926 -0.6431
  420MOL0     O57830   6.105   3.250   9.005 -0.8798 -0.3374  0.3125
  420MOL0     C57831   6.241   3.254   9.052  0.0791  0.3336  0.5735
  420MOL0     C57832   6.277   3.115   9.107  0.4408  0.0012  1.0124
  420MOL0     C57833   6.182   3.056   9.213 -0.0511  0.1338  0.1903
  420MOL0     C57834   6.043   3.006   9.167 -0.0454 -0.4486 -0.3045
  420MOL0     C57835   5.979   2.929   9.284 -0.4412 -1.2972  0.6142
  420MOL0     C57836   5.837   2.887   9.276  0.7894  0.2049  0.4401
  420MOL0     C57837   5.808   2.821   9.141  0.2319  0.2504 -0.8940
  420MOL0     C57838   5.682   2.738   9.155  0.3461 -0.1264  0.3695
  420MOL0     N57839   5.568   2.824   9.170  0.8700 -0.8289 -0.1392
  420MOL0     C57840   5.504   2.885   9.069 -0.6150  0.1432 -0.6980
  420MOL0     C57841   5.390   2.921   9.121 -0.0843  1.6033  1.3584
  420MOL0     C57842   5.277   2.982   9.048  0.4474  0.7096  0.2603
  420MOL0     C57843   5.193   2.875   8.978 -0.0017 -0.3770  0.5027
  420MOL0     C57844   5.123   2.792   9.085  0.0262 -0.0669 -0.5758
  420MOL0     C57845   4.988   2.762   9.039  0.9245  0.3988  0.8220
  420MOL0     O57846   5.006   2.684   8.916 -0.3836 -0.4938  0.1297
  420MOL0     C57847   5.056   2.559   8.922 -0.4942  0.7770  0.0033
  420MOL0     C57848   4.993   2.451   8.985  1.7040  0.3609  0.2944
  420MOL0     C57849   5.038   2.318   8.966  0.8420  0.3396  0.2884
  420MOL0     C57850   4.947   2.202   9.021  0.0345 -1.0673 -0.0543
  420MOL0     C57851   5.147   2.304   8.871  0.7590 -0.5501  0.2255
  420MOL0     C57852   5.197   2.173   8.818  0.3330 -0.3634 -0.0434
  420MOL0     O57853   5.179   2.071   8.900 -0.5840  0.3290 -0.3149
  420MOL0     C57854   5.182   1.944   8.846  0.9420  0.4635  0.0493
  420MOL0     C57855   5.068   1.900   8.775 -0.5770  0.0818 -0.0740
  420MOL0     C57856   5.074   1.771   8.716  0.0122 -1.1368 -1.1526
  420MOL0     C57857   5.193   1.694   8.726  0.3395 -0.7373 -0.9299
  420MOL0     O57858   5.180   1.570   8.666 -0.6896 -0.6270 -0.0624
  420MOL0     C57859   5.258   1.461   8.704  0.1174 -0.1662 -0.0975
  420MOL0     C57860   5.199   1.332   8.668 -0.7888  0.3479 -0.5602
  420MOL0     C57861   5.248   1.227   8.770  0.0736  1.0591 -0.0614
  420MOL0     C57862   5.165   1.094   8.756  0.1111  0.3781 -0.3832
  420MOL0     C57863   5.154   1.016   8.894 -0.0845  0.0521  0.1881
  420MOL0     C57864   5.044   0.916   8.892  0.4491 -1.0675 -0.5455
  420MOL0     C57865   5.078   0.779   8.945  0.4280  0.2243 -0.3879
  420MOL0     C57866   5.060   0.764   9.102  0.0874 -0.3165 -0.0262
  420MOL0    Cl57867   5.057   0.593   9.158 -0.0331  0.1915 -0.3195
  420MOL0     C57868   5.303   1.744   8.795  0.6222 -0.0001 -0.4360
  420MOL0     C57869   5.294   1.867   8.856  0.0924  0.9954 -0.0454
  420MOL0     O57870   5.243   2.169   8.703 -0.4436 -0.0518 -0.3764
  420MOL0     C57871   5.217   2.416   8.826  0.0468  0.4024  0.0111
  420MOL0     C57872   5.170   2.543   8.847  1.2094  0.1271  0.2661
  420MOL0     N57873   5.381   2.881   9.254  0.4559 -0.3775 -1.0803
  420MOL0     N57874   5.494   2.825   9.283  0.5199 -0.0634  0.8236
  420MOL0     C57875   5.950   3.419   9.048  0.2752  0.9595  1.0071
  420MOL0     C57876   5.901   3.548   9.032 -0.3348  0.3622 -0.9628
  420MOL0     C57877   5.854   3.967   9.031  0.0419 -0.3220 -0.0850
  420MOL0     C57878   5.718   3.907   9.052  0.2822 -0.0928  0.3230
  420MOL0     C57879   5.611   3.984   9.098  0.2785 -0.2575  0.2649
  420MOL0     C57880   5.621   4.125   9.108 -1.2067  0.7139 -0.1728
  420MOL0     O57881   5.519   4.211   9.138 -0.3608  0.0508 -0.3146
  420MOL0     C57882   5.393   4.185   9.081  0.2460 -0.0645  0.4911
  420MOL0     C57883   5.394   4.221   8.932  0.6940 -0.5388  0.9776
  420MOL0     C57884   5.450   4.374   8.906 -0.6721 -0.1619  0.4993
  420MOL0     C57885   5.362   4.446   8.809 -0.7583  1.1107 -0.7808
  420MOL0     C57886   5.292   4.561   8.873 -0.6057  0.5188 -0.2923
  420MOL0     C57887   5.229   4.643   8.927 -0.1894 -0.1191 -0.2926
  420MOL0     C57888   5.748   4.180   9.095 -0.6485  0.2324 -1.0561
  420MOL0     C57889   5.864   4.109   9.052  0.3866 -0.3402  0.4865
  420MOL0     C57890   5.986   4.178   9.050 -0.3738 -0.5129 -0.7042
  420MOL0     H57891   6.112   3.670   8.795  1.0912  2.6661  2.5840
  420MOL0     H57892   6.200   3.438   8.808  1.6936  2.0911  0.5853
  420MOL0     H57893   6.244   3.327   9.133 -2.6154  0.7866  0.3459
  420MOL0     H57894   6.311   3.284   8.974  2.0228  1.0681  2.5099
  420MOL0     H57895   6.279   3.047   9.021  0.9961  1.2055  0.0510
  420MOL0     H57896   6.377   3.115   9.150  0.3389  0.0943  1.2496
  420MOL0     H57897   6.231   2.965   9.250 -1.8714 -1.1998 -0.5040
  420MOL0     H57898   6.172   3.132   9.291  0.9478 -0.0738  0.5273
  420MOL0     H57899   5.979   3.094   9.148 -1.5603 -1.0744  1.6115
  420MOL0     H57900   6.048   2.944   9.077  2.4078 -2.0721  0.8634
  420MOL0     H57901   5.989   2.985   9.377  1.7178 -2.8024  1.3763
  420MOL0     H57902   6.045   2.841   9.294  1.4448  0.1429  1.4967
  420MOL0     H57903   5.808   2.830   9.365  1.6545 -0.7355  0.1335
  420MOL0     H57904   5.774   2.976   9.267 -0.0272 -0.3897  0.1606
  420MOL0     H57905   5.893   2.760   9.111  1.1854  1.9632 -1.8485
  420MOL0     H57906   5.793   2.896   9.062 -1.4238  0.5962 -0.2880
  420MOL0     H57907   5.679   2.679   9.063  3.9222  1.8368 -1.1986
  420MOL0     H57908   5.688   2.675   9.244 -0.4913  1.9117  1.9415
  420MOL0     H57909   5.544   2.912   8.972  2.0891 -0.8666  0.0291
  420MOL0     H57910   5.325   3.045   8.973 -3.1403  1.1979 -1.8522
  420MOL0     H57911   5.214   3.048   9.109 -1.0812  1.2575 -1.8113
  420MOL0     H57912   5.116   2.928   8.920 -1.4862 -1.7092  1.2076
  420MOL0     H57913   5.257   2.817   8.911  0.7652  1.1290 -0.1264
  420MOL0     H57914   5.173   2.697   9.103 -1.5267 -1.4209 -2.8483
  420MOL0     H57915   5.109   2.836   9.184 -0.9251 -3.9309  1.2016
  420MOL0     H57916   4.931   2.715   9.118 -1.8775  3.1691  0.6462
  420MOL0     H57917   4.932   2.852   9.014  1.6755  0.2751 -1.5956
  420MOL0     H57918   4.910   2.475   9.052 -0.1319 -1.8728 -1.0261
  420MOL0     H57919   4.846   2.228   9.056  0.8292 -1.5535  2.8588
  420MOL0     H57920   4.979   2.158   9.116 -1.0497 -2.8426 -0.4653
  420MOL0     H57921   4.931   2.136   8.936  1.4853  1.0804 -2.1510
  420MOL0     H57922   4.980   1.961   8.753 -1.1802 -0.3562  1.0547
  420MOL0     H57923   4.987   1.738   8.660  1.9347 -2.9505 -3.2996
  420MOL0     H57924   5.358   1.470   8.661 -0.6383  1.0661 -1.7108
  420MOL0     H57925   5.287   1.474   8.809 -0.7787 -0.3120  0.1774
  420MOL0     H57926   5.090   1.335   8.676 -0.9788 -3.7614  1.0808
  420MOL0     H57927   5.243   1.311   8.570 -1.6304 -4.7773 -0.1369
  420MOL0     H57928   5.247   1.268   8.872  4.1064  1.0795  0.0967
  420MOL0     H57929   5.354   1.209   8.755 -0.0379 -0.8470  1.0178
  420MOL0     H57930   5.200   1.033   8.672  0.3945  1.2401 -0.9061
  420MOL0     H57931   5.067   1.139   8.737 -1.5246 -1.7805  2.1999
  420MOL0     H57932   5.250   0.965   8.901  0.2532  0.2386 -2.2285
  420MOL0     H57933   5.140   1.070   8.988 -2.1940 -1.5639  0.8880
  420MOL0     H57934   5.015   0.903   8.787  2.4283  0.9909 -1.4116
  420MOL0     H57935   4.956   0.955   8.943 -0.1855 -1.7035 -1.1202
  420MOL0     H57936   5.185   0.760   8.931  0.1906 -1.0353 -0.5774
  420MOL0     H57937   5.018   0.705   8.893 -0.4356 -0.3028  1.2881
  420MOL0     H57938   4.975   0.823   9.138  2.7872  3.5177  0.7692
  420MOL0     H57939   5.147   0.804   9.155 -1.3138  0.9327  1.4136
  420MOL0     H57940   5.395   1.688   8.813  1.4065  2.1951  3.1871
  420MOL0     H57941   5.378   1.912   8.907 -0.2235  1.4484  0.0863
  420MOL0     H57942   5.307   2.394   8.770  2.0389 -0.4318  3.2276
  420MOL0     H57943   5.215   2.639   8.822 -0.9187  1.2655  0.4920
  420MOL0     H57944   5.905   3.339   9.105 -0.7933  1.5184  0.9623
  420MOL0     H57945   5.822   3.586   9.096 -1.9160  0.4053 -2.8539
  420MOL0     H57946   5.700   3.802   9.030  1.7563 -0.5091  1.0200
  420MOL0     H57947   5.513   3.938   9.107 -0.8563  2.3092  2.4013
  420MOL0     H57948   5.358   4.082   9.086  1.4090 -0.4220  2.0755
  420MOL0     H57949   5.320   4.248   9.133 -0.0265 -2.0455  2.6797
  420MOL0     H57950   5.300   4.197   8.883 -0.1881  2.0079  1.2801
  420MOL0     H57951   5.472   4.159   8.886  1.7665  2.1992 -1.1153
  420MOL0     H57952   5.445   4.437   8.995 -0.3885 -2.2983  2.1189
  420MOL0     H57953   5.557   4.376   8.879 -0.8052  2.4550 -0.0612
  420MOL0     H57954   5.288   4.379   8.764 -4.6032  2.9223  2.1837
  420MOL0     H57955   5.420   4.493   8.729 -1.1969  0.1266 -1.6886
  420MOL0     H57956   5.157   4.702   8.980  0.6116  0.2199  0.4483
  420MOL0     H57957   5.763   4.278   9.138 -3.7386  0.6213 -0.5887
  420MOL0     H57958   6.080   4.124   9.063  0.3321  0.8907  0.3174
  420MOL0     H57959   5.996   4.230   8.954  2.0367  0.0763 -0.1839
  420MOL0     H57960   5.996   4.253   9.128 -2.2209 -2.5050  1.6159
  421MOL0     O57961   3.519   8.603   6.665  0.2226 -0.0219 -0.0348
  421MOL0     C57962   3.426   8.619   6.745 -0.5489 -0.5046 -0.4188
  421MOL0     O57963   3.366   8.514   6.821 -0.2967  0.1968 -0.4241
  421MOL0     C57964   3.400   8.387   6.802 -0.2983  1.1206 -0.2896
  421MOL0     C57965   3.419   8.317   6.680  0.2052  0.5271 -0.0537
  421MOL0     C57966   3.441   8.179   6.685  0.2415  0.3783  0.9020
  421MOL0     C57967   3.461   8.110   6.808  0.4915  0.5154 -0.2300
  421MOL0     O57968   3.480   7.972   6.818  0.2220 -0.0145 -0.3573
  421MOL0     C57969   3.508   7.893   6.695 -0.5158 -1.1722 -0.4925
  421MOL0     C57970   3.484   7.744   6.736 -0.6996 -0.3499  0.4534
  421MOL0     C57971   3.339   7.701   6.744  0.3779 -0.0746  0.6058
  421MOL0     C57972   3.325   7.567   6.824  0.7545  1.0634 -0.6805
  421MOL0     C57973   3.203   7.479   6.774  0.3327 -0.0407 -0.2159
  421MOL0     C57974   3.227   7.328   6.792  0.2624 -0.0344  1.2869
  421MOL0     C57975   3.099   7.253   6.780 -0.2738 -0.1276  0.7628
  421MOL0     C57976   3.125   7.097   6.779 -1.3273 -0.1827 -0.1440
  421MOL0     N57977   2.994   7.027   6.781  0.1996 -0.3660 -1.2571
  421MOL0     C57978   2.992   6.888   6.778  0.8219 -0.1965 -0.2598
  421MOL0     C57979   2.864   6.864   6.757 -0.7192  0.3612  0.7715
  421MOL0     C57980   2.812   6.724   6.757  0.6733 -0.2129  0.2342
  421MOL0     C57981   2.825   6.657   6.890 -0.3084 -0.7743 -0.0049
  421MOL0     C57982   2.760   6.723   7.012 -0.1857  0.1614  0.5111
  421MOL0     C57983   2.696   6.616   7.108  0.4040  0.2169  0.0028
  421MOL0     O57984   2.552   6.612   7.083 -0.0361 -0.0968  0.4473
  421MOL0     C57985   2.500   6.487   7.052 -1.0933  0.8399 -0.8042
  421MOL0     C57986   2.521   6.364   7.114 -0.3516  0.4846  0.5197
  421MOL0     C57987   2.452   6.249   7.079  0.7029 -0.2456  0.1116
  421MOL0     C57988   2.468   6.125   7.162 -1.0593 -0.3067  0.8979
  421MOL0     C57989   2.343   6.258   6.987 -0.1865 -0.2579  0.4585
  421MOL0     C57990   2.246   6.158   6.960  0.8097  0.3190  0.6487
  421MOL0     O57991   2.109   6.195   6.957  0.0966 -0.0483  0.3128
  421MOL0     C57992   2.011   6.106   6.913 -0.2670 -0.2448  1.0153
  421MOL0     C57993   1.926   6.151   6.808  0.3290 -0.6262  0.5699
  421MOL0     C57994   1.837   6.058   6.747 -0.3223 -0.0662  0.5508
  421MOL0     C57995   1.854   5.924   6.770 -0.3694 -0.2675 -0.0789
  421MOL0     O57996   1.806   5.829   6.691 -0.1419  0.3985 -0.0761
  421MOL0     C57997   1.859   5.852   6.559 -0.1650  0.0056 -0.1536
  421MOL0     C57998   1.817   5.727   6.478  0.5005  0.2947 -1.3943
  421MOL0     C57999   1.875   5.593   6.528  0.3580  0.3616  0.1070
  421MOL0     C58000   1.945   5.504   6.428  0.2440 -0.0400  0.0847
  421MOL0     C58001   2.027   5.391   6.499  0.0042  0.6356  0.4503
  421MOL0     C58002   1.934   5.295   6.582 -0.4687 -0.6401 -0.1244
  421MOL0     C58003   2.008   5.167   6.603 -0.2576  0.2335  0.3935
  421MOL0     C58004   1.980   5.102   6.739  0.6817 -0.1138 -0.3967
  421MOL0    Cl58005   2.092   4.958   6.759  0.1164 -0.2452  0.0472
  421MOL0     C58006   1.937   5.888   6.876 -0.9286  0.0342  0.0382
  421MOL0     C58007   2.016   5.974   6.950 -0.1464  0.3995  0.2212
  421MOL0     O58008   2.287   6.038   6.938  0.4093  0.3437  0.5291
  421MOL0     C58009   2.325   6.386   6.926  1.4073  0.6044 -0.8533
  421MOL0     C58010   2.404   6.488   6.955  0.9277 -0.1096 -1.4196
  421MOL0     N58011   2.785   6.979   6.764  0.0074  0.1071 -0.3437
  421MOL0     N58012   2.863   7.083   6.774 -0.4377 -0.4413  0.3625
  421MOL0     C58013   3.434   8.183   6.927 -0.2363  0.0717 -0.2861
  421MOL0     C58014   3.407   8.320   6.923 -0.1664  0.6486 -0.6683
  421MOL0     C58015   3.384   8.765   6.783  0.2386 -0.7048  0.1436
  421MOL0     C58016   3.265   8.780   6.861 -0.2428 -0.0114  0.0328
  421MOL0     C58017   3.223   8.908   6.889  0.9513  0.6709  0.3819
  421MOL0     C58018   3.279   9.030   6.836 -0.3440 -0.7696 -0.5779
  421MOL0     O58019   3.212   9.151   6.868 -0.6956 -0.1968 -0.1771
  421MOL0     C58020   3.269   9.274   6.807  1.0128  0.5755  0.6686
  421MOL0     C58021   3.155   9.367   6.772 -0.5412 -0.1611  0.4600
  421MOL0     C58022   3.050   9.326   6.666  0.5790 -1.0447 -0.8146
  421MOL0     C58023   2.912   9.286   6.719  0.5056  0.4328 -0.4703
  421MOL0     C58024   2.818   9.217   6.618  0.4344  0.1927  0.2884
  421MOL0     C58025   2.763   9.145   6.538 -0.7095 -0.1870  0.1238
  421MOL0     C58026   3.390   9.010   6.753 -0.1351 -0.0295  0.5463
  421MOL0     C58027   3.443   8.884   6.722  0.1765 -0.2745  0.8407
  421MOL0     C58028   3.553   8.890   6.625  0.2044  0.4877  0.5404
  421MOL0     H58029   3.415   8.362   6.582 -0.7740  0.1723 -0.1836
  421MOL0     H58030   3.447   8.126   6.591  1.7134  2.0087  0.0144
  421MOL0     H58031   3.616   7.901   6.676  0.3927 -2.8257  3.1384
  421MOL0     H58032   3.450   7.923   6.607 -3.6622  2.2108  2.4327
  421MOL0     H58033   3.532   7.683   6.659 -1.1618  1.4026 -1.3119
  421MOL0     H58034   3.531   7.728   6.833 -0.8418 -1.3443  0.3654
  421MOL0     H58035   3.288   7.781   6.799 -0.7657 -0.1672 -0.2710
  421MOL0     H58036   3.290   7.706   6.646 -1.4113  1.1349  1.5031
  421MOL0     H58037   3.413   7.503   6.832 -1.4429 -2.1571 -0.2937
  421MOL0     H58038   3.296   7.604   6.923 -2.5673 -2.7655  0.0539
  421MOL0     H58039   3.194   7.509   6.669  0.4900 -1.1009 -0.5461
  421MOL0     H58040   3.114   7.511   6.828 -0.1799 -0.4669 -0.7922
  421MOL0     H58041   3.301   7.301   6.715 -0.6630  0.7024  0.1001
  421MOL0     H58042   3.281   7.305   6.884 -1.3559 -2.5995  1.6933
  421MOL0     H58043   3.041   7.275   6.690  3.0491  2.6961 -0.9251
  421MOL0     H58044   3.036   7.275   6.867  0.1642  1.1646  0.7726
  421MOL0     H58045   3.192   7.074   6.696  0.6163  1.3371  0.8995
  421MOL0     H58046   3.185   7.072   6.867  0.0788 -1.9771 -1.5332
  421MOL0     H58047   3.070   6.814   6.792  0.6152 -0.0185  2.1511
  421MOL0     H58048   2.865   6.668   6.678  0.4271 -0.7950  0.4768
  421MOL0     H58049   2.711   6.730   6.717  0.2950 -0.7195  1.0905
  421MOL0     H58050   2.780   6.557   6.886 -0.1342 -1.0060  2.3031
  421MOL0     H58051   2.928   6.644   6.924 -0.6761 -1.1582  1.0035
  421MOL0     H58052   2.841   6.775   7.064  0.4522 -1.2395  0.9659
  421MOL0     H58053   2.685   6.797   6.986 -1.3833 -1.1991 -0.0276
  421MOL0     H58054   2.742   6.517   7.109  0.0384  0.0458  0.4957
  421MOL0     H58055   2.706   6.644   7.213 -2.0216 -4.7725  1.8680
  421MOL0     H58056   2.592   6.353   7.196 -1.8329 -0.2541  1.7570
  421MOL0     H58057   2.390   6.110   7.238 -2.6787  0.0102 -0.6407
  421MOL0     H58058   2.566   6.135   7.209 -0.6536 -1.0935  0.2408
  421MOL0     H58059   2.470   6.040   7.093 -1.6857 -1.2721  2.0239
  421MOL0     H58060   1.913   6.257   6.789 -1.0471 -0.4208  2.3941
  421MOL0     H58061   1.773   6.094   6.668 -1.0667  2.1293  2.0374
  421MOL0     H58062   1.829   5.944   6.510  0.6664 -0.1360 -0.9574
  421MOL0     H58063   1.969   5.846   6.559 -0.0151  2.1554 -0.4200
  421MOL0     H58064   1.708   5.724   6.467  0.5118  0.9799 -1.7034
  421MOL0     H58065   1.863   5.757   6.384 -0.1853 -2.4330 -2.7218
  421MOL0     H58066   1.795   5.526   6.561  0.9733 -1.7369 -2.3808
  421MOL0     H58067   1.949   5.607   6.607  0.9232  0.0915 -0.3691
  421MOL0     H58068   2.027   5.558   6.379 -0.1107 -1.0303 -1.6763
  421MOL0     H58069   1.871   5.467   6.357  0.3284  0.7177 -0.4144
  421MOL0     H58070   2.080   5.340   6.418 -0.9964  1.2929 -0.6557
  421MOL0     H58071   2.093   5.439   6.572  1.9844 -2.0412  0.5671
  421MOL0     H58072   1.845   5.273   6.523  0.5565 -1.8002 -1.3191
  421MOL0     H58073   1.908   5.335   6.680 -0.2704 -1.7520  0.4001
  421MOL0     H58074   2.116   5.170   6.583  0.1927  2.2034  2.6458
  421MOL0     H58075   1.973   5.101   6.523 -1.3071  2.7519 -1.3538
  421MOL0     H58076   1.873   5.080   6.747  0.0526  3.1956  4.9733
  421MOL0     H58077   2.005   5.169   6.821 -1.1718 -1.1937  1.1651
  421MOL0     H58078   1.929   5.784   6.907  0.4996 -1.1504 -3.0846
  421MOL0     H58079   2.076   5.942   7.034  0.9645 -1.0005 -1.0505
  421MOL0     H58080   2.243   6.381   6.856 -1.7460 -2.0120  2.5886
  421MOL0     H58081   2.387   6.585   6.909  0.8829 -0.3034 -1.8143
  421MOL0     H58082   3.424   8.138   7.025 -0.7679 -0.1726 -0.4525
  421MOL0     H58083   3.397   8.374   7.016 -1.9468 -1.1297  0.2391
  421MOL0     H58084   3.223   8.690   6.905  0.4049  0.6490  2.1155
  421MOL0     H58085   3.136   8.928   6.951  1.2221  1.0667  0.6464
  421MOL0     H58086   3.336   9.326   6.876  1.1922 -0.6316  1.4361
  421MOL0     H58087   3.319   9.257   6.710  0.2159 -5.0147  0.8922
  421MOL0     H58088   3.213   9.453   6.735  0.9469 -1.7458 -1.0579
  421MOL0     H58089   3.106   9.394   6.866 -1.9213  0.1924 -0.3239
  421MOL0     H58090   3.022   9.414   6.608 -3.1935 -0.8008  1.0770
  421MOL0     H58091   3.087   9.254   6.592 -0.2686 -1.2175 -1.0831
  421MOL0     H58092   2.867   9.377   6.760 -4.2091 -1.1661 -1.4618
  421MOL0     H58093   2.928   9.222   6.805 -0.1129 -1.4702 -1.7063
  421MOL0     H58094   2.741   9.061   6.474  0.7371  0.1023 -0.8156
  421MOL0     H58095   3.449   9.094   6.719  2.8116 -1.8699  0.8242
  421MOL0     H58096   3.626   8.817   6.660  0.9931  1.9085  1.9744
  421MOL0     H58097   3.521   8.870   6.522  1.0529  0.0311  0.3557
  421MOL0     H58098   3.607   8.985   6.623  2.3981 -0.6216  2.3555
  422MOL0     O58099   0.005   1.075  10.131  0.0850  0.5049 -0.1490
  422MOL0     C58100   0.093   1.072  10.213 -0.3712  0.5615 -0.0411
  422MOL0     O58101   0.228   1.097  10.181 -0.0444  0.2803 -0.5708
  422MOL0     C58102   0.288   1.044  10.074 -0.0794  1.1444 -0.0431
  422MOL0     C58103   0.408   1.111  10.049 -0.1035 -0.6538 -0.0895
  422MOL0     C58104   0.493   1.054   9.949  1.7047  0.2826  0.4340
  422MOL0     C58105   0.456   0.935   9.886 -0.4697  0.1652 -0.6001
  422MOL0     O58106   0.527   0.880   9.792  0.1676  0.2823 -0.3989
  422MOL0     C58107   0.590   0.958   9.694  0.0186  0.6797  0.7590
  422MOL0     C58108   0.587   0.876   9.569 -0.4822  0.2755 -0.4667
  422MOL0     C58109   0.456   0.897   9.483  0.3386 -0.3099 -0.2309
  422MOL0     C58110   0.329   0.890   9.555  1.1185  0.2831  0.4823
  422MOL0     C58111   0.211   0.927   9.461  1.5285 -0.0952  0.1789
  422MOL0     C58112   0.212   1.075   9.410  0.0651 -0.6403 -0.1493
  422MOL0     C58113   0.089   1.128   9.325 -0.2997 -1.3016  0.0176
  422MOL0     C58114  -0.020   1.205   9.409 -0.4748  0.3524  0.1872
  422MOL0     N58115  -0.138   1.254   9.324  0.1269 -0.2492 -0.3269
  422MOL0     C58116  -0.134   1.341   9.214 -0.0562 -0.6503 -1.1358
  422MOL0     C58117  -0.262   1.353   9.168  0.1280 -0.5000  0.2691
  422MOL0     C58118  -0.302   1.426   9.047 -0.5335  0.2382  0.7083
  422MOL0     C58119  -0.318   1.579   9.070  0.1344  0.0901  0.1643
  422MOL0     C58120  -0.365   1.649   8.945 -0.4525 -0.5630 -0.5005
  422MOL0     C58121  -0.312   1.794   8.951  0.1578 -0.6484  0.5656
  422MOL0     O58122  -0.171   1.801   8.918  0.6631 -0.3899  0.8747
  422MOL0     C58123  -0.091   1.865   9.010 -0.1689 -0.9517  0.9743
  422MOL0     C58124  -0.097   2.006   9.029 -0.0566  0.7037 -0.3291
  422MOL0     C58125  -0.008   2.071   9.115  0.4291  0.0475 -0.0727
  422MOL0     C58126  -0.020   2.221   9.120 -0.6008  1.1432  0.0221
  422MOL0     C58127   0.093   1.993   9.182  0.9643 -0.5486  0.3672
  422MOL0     C58128   0.189   2.055   9.267 -0.5985 -0.4457  0.8739
  422MOL0     O58129   0.201   2.007   9.390  0.2620  0.0968  0.3216
  422MOL0     C58130   0.300   2.046   9.465  0.2579 -0.6780 -0.4095
  422MOL0     C58131   0.428   2.035   9.422  0.1482 -0.0513 -0.1483
  422MOL0     C58132   0.540   2.068   9.505  0.1408 -0.0305  0.0822
  422MOL0     C58133   0.516   2.103   9.635  0.1684 -0.7414 -0.3073
  422MOL0     O58134   0.618   2.146   9.706 -0.8236 -0.5262  0.4315
  422MOL0     C58135   0.630   2.289   9.739 -0.2367  0.0901  0.2715
  422MOL0     C58136   0.766   2.328   9.779 -0.4607 -0.7166  1.1067
  422MOL0     C58137   0.767   2.481   9.819 -0.2951  0.0865  0.1889
  422MOL0     C58138   0.903   2.522   9.871 -0.1248 -0.4041 -0.4102
  422MOL0     C58139   0.922   2.679   9.875 -0.2529 -0.0546 -0.7436
  422MOL0     C58140   1.058   2.712   9.934  0.3689 -0.4335  0.2338
  422MOL0     C58141   1.078   2.862   9.956 -0.6856  0.6211  0.0316
  422MOL0     C58142   1.105   2.933   9.831 -0.5765 -0.1365 -0.3275
  422MOL0    Cl58143   1.268   2.889   9.778 -0.1364  0.2782 -0.1922
  422MOL0     C58144   0.381   2.092   9.690  0.2896 -0.2005 -0.2611
  422MOL0     C58145   0.276   2.081   9.603 -1.1731 -1.0843 -0.5405
  422MOL0     O58146   0.260   2.139   9.209 -0.2205  0.0357 -0.0399
  422MOL0     C58147   0.092   1.854   9.169 -0.3007 -1.2332  0.4768
  422MOL0     C58148   0.003   1.789   9.084  0.4574  0.5197  0.0415
  422MOL0     N58149  -0.340   1.279   9.249 -0.0455  0.5049 -0.2948
  422MOL0     N58150  -0.270   1.219   9.341 -1.1077 -0.2328 -0.1752
  422MOL0     C58151   0.339   0.871   9.913 -0.3442  0.3704 -0.6049
  422MOL0     C58152   0.252   0.926  10.012  0.2227 -0.3010 -0.1477
  422MOL0     C58153   0.065   1.070  10.345 -0.1269 -0.9466 -0.3166
  422MOL0     C58154   0.012   1.182  10.415 -0.4355  0.2743  1.0659
  422MOL0     C58155   0.006   1.192  10.552  0.6131  0.2873 -0.1561
  422MOL0     C58156   0.047   1.080  10.625  0.5725  0.1455 -0.1035
  422MOL0     O58157   0.038   1.093  10.764  0.0243  0.6964 -0.0758
  422MOL0     C58158   0.151   1.031  10.830 -0.1399  0.0126  0.1605
  422MOL0     C58159   0.200   1.127  10.931 -0.3535 -0.9305 -0.5199
  422MOL0     C58160   0.287   1.065  11.047  0.2789 -0.5378 -0.3159
  422MOL0     C58161   0.360   1.168  11.128 -0.9954  0.5026 -0.2179
  422MOL0     C58162   0.448   1.082  11.210  0.5705 -0.7697  0.7016
  422MOL0     C58163   0.516   0.992  11.257  0.0061 -0.1887 -0.9409
  422MOL0     C58164   0.088   0.960  10.561 -0.1104 -0.1842  0.2523
  422MOL0     C58165   0.109   0.965  10.420 -1.0579  0.8059  0.4150
  422MOL0     C58166   0.156   0.834  10.354  0.0640  0.0838 -0.0721
  422MOL0     H58167   0.443   1.195  10.108 -1.1959  0.6782 -1.2608
  422MOL0     H58168   0.588   1.107   9.938  0.5284  2.0388 -2.5608
  422MOL0     H58169   0.696   0.977   9.715  0.4978 -3.6206  3.5622
  422MOL0     H58170   0.530   1.048   9.675 -0.5841  0.8446  3.1263
  422MOL0     H58171   0.673   0.903   9.508 -0.8175  0.5209 -0.8350
  422MOL0     H58172   0.601   0.770   9.596 -1.6426 -0.0361 -1.0196
  422MOL0     H58173   0.457   0.997   9.440 -1.1796  0.0378  0.4582
  422MOL0     H58174   0.460   0.825   9.400 -0.4190  1.2308 -1.6592
  422MOL0     H58175   0.302   0.789   9.588 -1.7029  1.1653  1.1522
  422MOL0     H58176   0.325   0.966   9.633  0.9548  1.6543 -0.8078
  422MOL0     H58177   0.115   0.906   9.510  0.6422 -0.8682 -1.7766
  422MOL0     H58178   0.215   0.855   9.379  0.1395  0.7758 -0.7039
  422MOL0     H58179   0.236   1.140   9.494 -2.3633  2.7210 -1.8065
  422MOL0     H58180   0.289   1.081   9.332  1.8500 -1.0242  1.5131
  422MOL0     H58181   0.048   1.045   9.267 -1.1631 -0.6486 -0.3386
  422MOL0     H58182   0.124   1.198   9.249  0.1551  0.9404  2.1375
  422MOL0     H58183  -0.063   1.132   9.478 -0.0408  0.4362  0.5450
  422MOL0     H58184   0.027   1.280   9.472  2.9868  0.0160 -1.7596
  422MOL0     H58185  -0.042   1.381   9.172 -0.5031  3.3790  1.1605
  422MOL0     H58186  -0.394   1.381   9.008  1.5130 -3.1621 -0.6077
  422MOL0     H58187  -0.221   1.424   8.973  0.0439  2.9868  1.1339
  422MOL0     H58188  -0.394   1.591   9.147  1.0701  0.4293  1.0578
  422MOL0     H58189  -0.226   1.627   9.106 -1.2048  3.5049 -0.6047
  422MOL0     H58190  -0.347   1.601   8.848 -1.9116  0.3018 -1.2253
  422MOL0     H58191  -0.474   1.644   8.946 -0.4950  0.0415 -1.0400
  422MOL0     H58192  -0.361   1.851   8.872 -1.7035 -1.6705  0.9179
  422MOL0     H58193  -0.340   1.833   9.050  2.3139  1.0812  0.5782
  422MOL0     H58194  -0.175   2.064   8.983  0.2534 -1.4583 -3.9844
  422MOL0     H58195  -0.111   2.253   9.068 -1.1207 -0.7393 -0.3088
  422MOL0     H58196   0.071   2.267   9.082 -1.2916  2.7251  0.2246
  422MOL0     H58197  -0.028   2.265   9.219  0.5388  2.9940 -0.6658
  422MOL0     H58198   0.455   1.991   9.326  0.0125 -2.1871  0.7343
  422MOL0     H58199   0.642   2.069   9.466  0.3876 -0.1362  0.7231
  422MOL0     H58200   0.594   2.348   9.654 -0.5141 -1.9952 -1.1484
  422MOL0     H58201   0.564   2.306   9.824 -0.7491  1.7927 -0.4274
  422MOL0     H58202   0.800   2.260   9.858 -4.8868 -1.8250  2.2879
  422MOL0     H58203   0.834   2.316   9.694 -0.8319 -2.2451  0.9953
  422MOL0     H58204   0.687   2.501   9.890 -1.2730 -2.6824 -0.0071
  422MOL0     H58205   0.740   2.542   9.732  2.0550  0.4514 -0.3556
  422MOL0     H58206   0.986   2.496   9.805 -0.5788 -0.2378 -1.0518
  422MOL0     H58207   0.924   2.480   9.970  1.8785  1.4892  0.0592
  422MOL0     H58208   0.901   2.724   9.778  2.0265  2.4607 -0.2056
  422MOL0     H58209   0.845   2.704   9.948 -2.7927 -0.2074 -3.1976
  422MOL0     H58210   1.133   2.675   9.863  0.8138 -0.5114  0.7309
  422MOL0     H58211   1.072   2.659  10.029  0.2465 -0.9899 -0.0524
  422MOL0     H58212   1.159   2.882  10.027 -1.2917  1.3016  0.5514
  422MOL0     H58213   0.994   2.899  10.014  0.4206  2.2924  0.6332
  422MOL0     H58214   1.093   3.037   9.862  3.3484 -0.5235  3.3814
  422MOL0     H58215   1.028   2.908   9.757 -2.4213 -0.5536  1.6336
  422MOL0     H58216   0.372   2.066   9.795 -0.2675 -2.9643 -0.9139
  422MOL0     H58217   0.175   2.071   9.641 -0.9490 -0.0629  0.3847
  422MOL0     H58218   0.165   1.802   9.230 -1.4413  1.2073  4.3158
  422MOL0     H58219   0.004   1.688   9.045  0.1237  0.4975  0.0842
  422MOL0     H58220   0.315   0.784   9.853  1.7087  1.1601 -2.6869
  422MOL0     H58221   0.155   0.880  10.030  0.0834 -0.0111 -0.1530
  422MOL0     H58222  -0.016   1.276  10.369  0.5023  0.7035  1.3492
  422MOL0     H58223  -0.018   1.292  10.587  0.3331 -0.0676  0.6712
  422MOL0     H58224   0.116   0.937  10.876 -0.4112  1.2429  2.6463
  422MOL0     H58225   0.236   1.002  10.768 -3.6084 -0.7280 -4.8498
  422MOL0     H58226   0.106   1.172  10.964 -1.8910 -1.6408 -3.5507
  422MOL0     H58227   0.258   1.205  10.881 -1.8630  1.5100  1.3320
  422MOL0     H58228   0.221   1.005  11.109  0.8592 -1.3486 -0.4654
  422MOL0     H58229   0.351   0.989  11.001  0.0970 -1.4118  0.8525
  422MOL0     H58230   0.286   1.231  11.179  0.6830  2.1472  0.3232
  422MOL0     H58231   0.423   1.231  11.064  0.5652 -1.6654 -0.9361
  422MOL0     H58232   0.568   0.904  11.289 -0.8280 -0.8121 -1.2742
  422MOL0     H58233   0.095   0.867  10.617 -1.9746 -0.6745 -0.2610
  422MOL0     H58234   0.191   0.849  10.252 -1.8692  0.7864 -0.6645
  422MOL0     H58235   0.235   0.785  10.413 -0.2897  0.7381  0.9806
  422MOL0     H58236   0.065   0.774  10.359  0.9238 -1.2212  3.5698
  423MOL0     O58237   3.252   6.757   7.707 -0.4458 -0.5260  1.2657
  423MOL0     C58238   3.276   6.816   7.600 -0.1806 -0.3162 -0.1484
  423MOL0     O58239   3.323   6.758   7.487  0.2047  1.0553 -0.0884
  423MOL0     C58240   3.398   6.647   7.491 -0.8675  0.5922  0.3331
  423MOL0     C58241   3.472   6.604   7.607 -0.0285 -0.1935  0.4615
  423MOL0     C58242   3.540   6.485   7.596  0.0522 -0.5536  0.1872
  423MOL0     C58243   3.515   6.390   7.492 -0.2266 -0.3068 -0.4731
  423MOL0     O58244   3.591   6.268   7.487 -0.3079  0.3796 -0.5655
  423MOL0     C58245   3.671   6.253   7.373 -0.5581  0.3690 -0.0679
  423MOL0     C58246   3.650   6.121   7.310  0.3997  0.2236  0.3613
  423MOL0     C58247   3.726   6.112   7.176 -0.4682  1.1458 -0.2311
  423MOL0     C58248   3.668   5.985   7.099  0.1791 -0.1760 -0.3857
  423MOL0     C58249   3.755   5.943   6.975 -0.0660  0.3200 -0.0452
  423MOL0     C58250   3.743   6.054   6.872 -0.1922 -0.0392 -0.8129
  423MOL0     C58251   3.834   6.026   6.750  0.7326  0.1355 -0.1203
  423MOL0     C58252   3.840   6.145   6.651  0.1440 -0.3339  0.2232
  423MOL0     N58253   3.916   6.090   6.532  0.3608  0.5799 -0.3589
  423MOL0     C58254   4.043   6.134   6.495 -0.1044  0.3601 -0.0567
  423MOL0     C58255   4.057   6.093   6.365  0.6005 -0.2700 -0.3162
  423MOL0     C58256   4.182   6.119   6.285 -0.5020  0.0002 -0.4583
  423MOL0     C58257   4.250   5.984   6.266 -0.6015 -0.2055 -0.1047
  423MOL0     C58258   4.355   5.980   6.146 -0.3543 -0.0543 -0.4301
  423MOL0     C58259   4.287   6.012   6.017 -0.0237 -0.6301  0.5317
  423MOL0     O58260   4.201   5.905   5.979 -0.4954 -0.5618  0.1184
  423MOL0     C58261   4.095   5.951   5.901 -0.5031  0.3851 -0.0203
  423MOL0     C58262   4.114   6.001   5.773 -0.5380  1.3094  0.0502
  423MOL0     C58263   4.011   6.034   5.690  0.1545 -0.3388 -0.4520
  423MOL0     C58264   4.044   6.069   5.540  0.7321  0.2694  0.6947
  423MOL0     C58265   3.874   6.034   5.744  0.2224  0.0721  0.0341
  423MOL0     C58266   3.755   6.067   5.664  0.2553 -0.7262  0.2535
  423MOL0     O58267   3.776   6.142   5.551 -0.6040  0.3153 -0.5838
  423MOL0     C58268   3.667   6.180   5.471  0.0302  0.2910  1.1499
  423MOL0     C58269   3.547   6.225   5.522  0.3914  0.2403  0.7129
  423MOL0     C58270   3.432   6.255   5.436  0.5811 -0.2845  1.2066
  423MOL0     C58271   3.454   6.260   5.293 -0.8987  0.7681 -0.3332
  423MOL0     O58272   3.355   6.276   5.199 -0.3658 -0.4910  0.1160
  423MOL0     C58273   3.326   6.415   5.177 -0.2315  0.0640 -0.0913
  423MOL0     C58274   3.205   6.451   5.253  0.2178  0.1174 -0.8090
  423MOL0     C58275   3.070   6.386   5.201 -0.1200 -0.4680 -0.2931
  423MOL0     C58276   2.958   6.411   5.297 -0.7144  0.0024 -0.1970
  423MOL0     C58277   2.817   6.380   5.243 -0.3983  0.4020  0.0864
  423MOL0     C58278   2.792   6.476   5.125  0.4087 -0.2361 -0.0283
  423MOL0     C58279   2.638   6.453   5.077  0.7020  0.0617 -0.1165
  423MOL0     C58280   2.595   6.555   4.976  0.1045 -0.1294 -0.4034
  423MOL0    Cl58281   2.593   6.716   5.061  0.0484 -0.1385  0.2005
  423MOL0     C58282   3.580   6.215   5.245  0.2830  0.8193 -0.2063
  423MOL0     C58283   3.681   6.179   5.335 -0.7978  0.4094  0.2544
  423MOL0     O58284   3.648   6.025   5.696  0.0237  0.3185  0.0556
  423MOL0     C58285   3.861   5.985   5.876 -0.6787  0.3536  0.5785
  423MOL0     C58286   3.970   5.939   5.951  0.0877 -0.0855 -0.3307
  423MOL0     N58287   3.954   6.008   6.333  0.8082 -0.9627 -0.2944
  423MOL0     N58288   3.876   6.003   6.440 -0.2323 -0.7666  0.1917
  423MOL0     C58289   3.437   6.441   7.390  0.1601  0.8369 -0.2699
  423MOL0     C58290   3.379   6.564   7.373 -0.3519 -0.0260 -0.2195
  423MOL0     C58291   3.190   6.940   7.582  0.3953 -0.1856 -0.2767
  423MOL0     C58292   3.232   7.034   7.484  0.2244 -0.1050 -0.0345
  423MOL0     C58293   3.170   7.162   7.480  0.3756  0.3165 -0.9433
  423MOL0     C58294   3.065   7.192   7.572 -1.2085 -0.1549  0.3469
  423MOL0     O58295   3.015   7.324   7.563 -0.0603  0.7769 -0.3290
  423MOL0     C58296   3.080   7.401   7.664  0.3390  0.3232 -0.2247
  423MOL0     C58297   2.983   7.436   7.780 -0.1349 -0.0065 -0.0371
  423MOL0     C58298   3.043   7.509   7.896  1.1934 -0.3100 -1.1141
  423MOL0     C58299   2.969   7.492   8.032  0.1051  0.5705 -0.9117
  423MOL0     C58300   2.823   7.552   8.036 -1.0946  0.8887 -0.5095
  423MOL0     C58301   2.717   7.614   8.039 -0.6952 -0.0666  0.4814
  423MOL0     C58302   3.006   7.089   7.637 -0.4336  0.9879 -0.5761
  423MOL0     C58303   3.065   6.968   7.657 -0.0550 -0.5719 -0.2851
  423MOL0     C58304   3.004   6.888   7.762 -1.2354  0.2480 -0.4463
  423MOL0     H58305   3.470   6.666   7.696 -0.1167  0.2543  0.1526
  423MOL0     H58306   3.606   6.438   7.669  0.5521  1.1983  0.9179
  423MOL0     H58307   3.777   6.254   7.401  1.0643  0.7228 -5.0832
  423MOL0     H58308   3.651   6.343   7.314 -0.1703  1.1329  0.9338
  423MOL0     H58309   3.684   6.040   7.375  1.7092  1.1978  0.9231
  423MOL0     H58310   3.542   6.105   7.313  0.3891  0.4316  1.2575
  423MOL0     H58311   3.733   6.200   7.111  2.4998  0.5844 -0.8284
  423MOL0     H58312   3.829   6.083   7.201 -1.0350  1.7728  3.3517
  423MOL0     H58313   3.660   5.903   7.171  0.7961 -1.7636 -2.0450
  423MOL0     H58314   3.564   6.013   7.081 -0.3610  1.5787  4.1568
  423MOL0     H58315   3.702   5.855   6.939 -0.5408  1.3225 -1.9535
  423MOL0     H58316   3.859   5.933   7.009 -0.8924  0.1017  2.6877
  423MOL0     H58317   3.640   6.056   6.835 -0.7515  1.0128  0.6960
  423MOL0     H58318   3.777   6.155   6.900  0.1084  0.7260 -3.5546
  423MOL0     H58319   3.795   5.940   6.694  2.3852  0.2602 -1.5380
  423MOL0     H58320   3.938   6.010   6.780  0.6964 -0.4779 -0.3173
  423MOL0     H58321   3.743   6.180   6.613  0.9972 -1.5122 -3.4194
  423MOL0     H58322   3.897   6.227   6.695 -1.3739  0.6561  0.4181
  423MOL0     H58323   4.111   6.206   6.539  1.5799  0.2378 -2.3234
  423MOL0     H58324   4.242   6.189   6.345  0.8917 -1.5279  0.0014
  423MOL0     H58325   4.144   6.161   6.192  1.3332 -0.3115 -1.4045
  423MOL0     H58326   4.312   5.966   6.354  2.8250 -0.4932 -2.3648
  423MOL0     H58327   4.179   5.903   6.245 -5.7798  3.4201  1.4441
  423MOL0     H58328   4.432   6.057   6.156  1.8064 -1.8617 -2.1058
  423MOL0     H58329   4.412   5.887   6.140 -0.4161 -0.1326  0.1349
  423MOL0     H58330   4.245   6.113   6.006  3.4159  0.8096 -0.6906
  423MOL0     H58331   4.372   6.028   5.951  0.4072 -2.7491  0.5086
  423MOL0     H58332   4.216   6.001   5.735 -0.3118  2.4211  0.6271
  423MOL0     H58333   3.973   6.043   5.461  2.8895 -1.4522 -0.8171
  423MOL0     H58334   4.134   6.017   5.508 -0.7581 -2.2590  0.3029
  423MOL0     H58335   4.050   6.178   5.533 -1.2529  0.3379 -0.9373
  423MOL0     H58336   3.540   6.232   5.630  1.4656 -0.4311  0.8473
  423MOL0     H58337   3.335   6.282   5.477  0.1770  1.2236 -0.6160
  423MOL0     H58338   3.407   6.486   5.193 -0.4508  0.0045  1.4650
  423MOL0     H58339   3.303   6.425   5.071  1.6717 -1.9344 -0.7586
  423MOL0     H58340   3.208   6.437   5.361 -4.2677  0.4474 -0.4315
  423MOL0     H58341   3.193   6.559   5.238  1.6853 -0.1049 -4.4232
  423MOL0     H58342   3.094   6.279   5.198  1.4507 -0.3716  3.5444
  423MOL0     H58343   3.062   6.423   5.098  1.2603  3.1021  0.7342
  423MOL0     H58344   2.963   6.511   5.341  1.3365 -0.4495  0.7419
  423MOL0     H58345   2.966   6.346   5.384 -2.2828  1.3844  1.0504
  423MOL0     H58346   2.801   6.278   5.207 -0.9451  0.1045  1.1314
  423MOL0     H58347   2.761   6.405   5.334 -0.0117  1.0275  0.1570
  423MOL0     H58348   2.866   6.451   5.048  3.0693  3.4317  1.0699
  423MOL0     H58349   2.814   6.581   5.146  0.9158  0.2114 -2.4639
  423MOL0     H58350   2.576   6.463   5.167  0.7684  1.1693 -0.1786
  423MOL0     H58351   2.634   6.355   5.028  0.3140 -0.7006  1.3723
  423MOL0     H58352   2.499   6.526   4.932 -0.4023 -2.5703  2.0033
  423MOL0     H58353   2.669   6.583   4.901  1.9784  6.4135  3.1132
  423MOL0     H58354   3.584   6.209   5.137 -3.5967  1.5889 -0.5384
  423MOL0     H58355   3.766   6.137   5.282  0.9787  2.3067  1.4572
  423MOL0     H58356   3.759   5.982   5.912 -0.8707 -0.4008  0.0129
  423MOL0     H58357   3.950   5.907   6.053  0.2386 -1.8920 -0.8341
  423MOL0     H58358   3.411   6.368   7.315  4.4427 -1.7881  0.4659
  423MOL0     H58359   3.308   6.580   7.293  1.5549  1.7368 -1.6733
  423MOL0     H58360   3.314   7.010   7.417  0.8129 -0.6005  0.8461
  423MOL0     H58361   3.205   7.234   7.408  1.5938  3.3085  2.3378
  423MOL0     H58362   3.166   7.347   7.705 -2.3657 -1.8744  3.0741
  423MOL0     H58363   3.124   7.491   7.619 -1.1271  0.4925 -1.4030
  423MOL0     H58364   2.950   7.341   7.823 -1.1577 -0.2094 -1.2169
  423MOL0     H58365   2.896   7.490   7.743 -2.4896 -3.2561  0.3018
  423MOL0     H58366   3.136   7.454   7.908  1.8476  0.5030 -2.2378
  423MOL0     H58367   3.073   7.611   7.869  2.1400  0.8733  3.5048
  423MOL0     H58368   3.036   7.547   8.099  0.1722 -0.3045 -0.2532
  423MOL0     H58369   2.977   7.390   8.070  0.4039  1.1021  0.5277
  423MOL0     H58370   2.622   7.663   8.032 -0.4855  0.1040 -2.9754
  423MOL0     H58371   2.928   7.132   7.699 -1.0346  1.5888 -1.7170
  423MOL0     H58372   2.894   6.895   7.767 -1.2119  0.0176  0.7664
  423MOL0     H58373   3.024   6.783   7.742 -2.6522 -0.2277  0.4412
  423MOL0     H58374   3.048   6.922   7.857 -2.9410 -0.2141  0.5606
  424MOL0     O58375   9.499   9.971   0.645 -1.0317 -0.0321  0.6652
  424MOL0     C58376   9.457  10.086   0.657  0.5653  0.2625  0.7233
  424MOL0     O58377   9.521  10.202   0.626 -0.3109  1.1595  0.0121
  424MOL0     C58378   9.657  10.199   0.636 -0.5730 -0.7843  0.5864
  424MOL0     C58379   9.725  10.154   0.520  0.7562  0.1784  0.1879
  424MOL0     C58380   9.858  10.151   0.514 -0.3866 -0.7915  1.0721
  424MOL0     C58381   9.934  10.191   0.619 -0.3157 -0.2351 -0.1941
  424MOL0     O58382  10.067  10.189   0.620 -0.2636  0.3204 -0.1605
  424MOL0     C58383  10.119  10.321   0.588 -0.5142  0.6571  0.1566
  424MOL0     C58384  10.270  10.306   0.558 -0.4619  0.0278  0.5213
  424MOL0     C58385  10.345  10.234   0.673  0.9195  0.0136 -0.0511
  424MOL0     C58386  10.493  10.254   0.649 -0.8219  0.8814  0.6252
  424MOL0     C58387  10.580  10.169   0.751 -0.9907  1.0107 -0.3104
  424MOL0     C58388  10.737  10.180   0.727 -1.0109  0.3513 -1.1925
  424MOL0     C58389  10.787  10.321   0.726  0.1166 -0.8157  0.4245
  424MOL0     C58390  10.897  10.349   0.834 -0.6388 -0.6851  0.1896
  424MOL0     N58391  10.953  10.482   0.812  0.8388 -0.1762  0.3554
  424MOL0     C58392  11.077  10.527   0.848 -0.2630  0.3458 -0.9769
  424MOL0     C58393  11.074  10.652   0.795  0.1531 -0.7571  0.3972
  424MOL0     C58394  11.184  10.754   0.808  0.7349 -0.2430  0.5268
  424MOL0     C58395  11.154  10.862   0.916 -0.2980 -0.1181 -0.3466
  424MOL0     C58396  11.036  10.959   0.903 -0.0725  0.4869 -0.3871
  424MOL0     C58397  11.072  11.075   0.809  0.8720 -0.7522 -0.1037
  424MOL0     O58398  10.998  11.187   0.859 -0.0370 -0.0072 -0.4490
  424MOL0     C58399  10.883  11.223   0.793 -0.0518  0.2964 -0.6601
  424MOL0     C58400  10.776  11.260   0.876 -1.1298 -0.6128 -0.3100
  424MOL0     C58401  10.663  11.329   0.831 -0.4813  0.8935 -0.2676
  424MOL0     C58402  10.552  11.356   0.930  0.4950 -0.1795  0.0637
  424MOL0     C58403  10.649  11.339   0.687 -0.2098  0.2352  1.2355
  424MOL0     C58404  10.525  11.384   0.622  0.7533 -1.4476  0.2493
  424MOL0     O58405  10.471  11.307   0.524  0.3349  0.5457  0.4705
  424MOL0     C58406  10.379  11.361   0.443 -0.5729  0.0686  0.7470
  424MOL0     C58407  10.261  11.286   0.413  1.0780  0.4464 -0.5242
  424MOL0     C58408  10.156  11.339   0.332 -0.0222  0.8972  0.1842
  424MOL0     C58409  10.167  11.467   0.284  0.4383 -0.8558 -0.6213
  424MOL0     O58410  10.063  11.527   0.217 -0.1929 -0.2708  0.7536
  424MOL0     C58411  10.057  11.672   0.230 -0.1238  0.2243  0.1239
  424MOL0     C58412   9.911  11.721   0.242  0.6597 -0.2759 -0.1543
  424MOL0     C58413   9.807  11.631   0.307 -0.1248 -1.0213 -0.4150
  424MOL0     C58414   9.706  11.731   0.359 -0.0886  0.1002  0.4350
  424MOL0     C58415   9.584  11.643   0.414 -0.4776 -0.7601  0.5208
  424MOL0     C58416   9.481  11.608   0.308  0.3642 -0.3531  0.0652
  424MOL0     C58417   9.377  11.509   0.356 -0.5044  0.2031 -0.5056
  424MOL0     C58418   9.322  11.429   0.239 -0.1535  0.2484  0.2542
  424MOL0    Cl58419   9.259  11.541   0.116 -0.5937 -0.0872 -0.0722
  424MOL0     C58420  10.296  11.524   0.291 -0.7175 -0.4448 -0.8491
  424MOL0     C58421  10.396  11.479   0.371 -0.4318  0.0426 -0.6599
  424MOL0     O58422  10.476  11.488   0.662  0.3913  0.5376 -0.4512
  424MOL0     C58423  10.746  11.277   0.611  0.2229 -0.1478  0.2111
  424MOL0     C58424  10.865  11.227   0.655  0.1244 -0.1194  0.0060
  424MOL0     N58425  10.951  10.692   0.738 -0.5893  0.8059  0.2681
  424MOL0     N58426  10.879  10.584   0.744  0.2826  0.1098 -0.4740
  424MOL0     C58427   9.871  10.223   0.743  0.3403 -0.4309  1.0705
  424MOL0     C58428   9.729  10.233   0.748  0.0613 -0.2966 -0.1517
  424MOL0     C58429   9.316  10.093   0.702 -0.9676 -0.2145  0.7200
  424MOL0     C58430   9.264  10.004   0.795 -0.2571 -0.4895 -0.1266
  424MOL0     C58431   9.131  10.018   0.840  0.4336  0.0215  0.4820
  424MOL0     C58432   9.051  10.130   0.789 -0.0927 -0.0816  0.2253
  424MOL0     O58433   8.921  10.157   0.839 -0.7420  0.2570 -0.8162
  424MOL0     C58434   8.864  10.286   0.831 -0.4645  0.2874 -0.5515
  424MOL0     C58435   8.739  10.293   0.924  1.1851  0.1233 -0.1437
  424MOL0     C58436   8.628  10.197   0.880  0.0114  0.0284 -0.6641
  424MOL0     C58437   8.492  10.208   0.954  0.6777 -0.3657  0.4095
  424MOL0     C58438   8.485  10.234   1.100  0.2607 -0.0123 -0.0014
  424MOL0     C58439   8.479  10.270   1.219 -0.4880  0.8498 -0.5641
  424MOL0     C58440   9.105  10.209   0.688 -0.2019  0.4537  0.1814
  424MOL0     C58441   9.233  10.191   0.646  0.0878 -0.3483 -0.0001
  424MOL0     C58442   9.272  10.291   0.539  0.2174 -1.0274  0.0458
  424MOL0     H58443   9.656  10.132   0.439  0.2328  0.0059  0.6653
  424MOL0     H58444   9.916  10.121   0.427  0.2048  3.1112 -0.0772
  424MOL0     H58445  10.097  10.393   0.668  1.4706  0.4976  0.9323
  424MOL0     H58446  10.056  10.361   0.509 -0.1498  1.1647  0.1232
  424MOL0     H58447  10.282  10.239   0.472 -4.9140  0.2927 -0.5417
  424MOL0     H58448  10.317  10.404   0.544 -0.5162 -0.1894 -1.4213
  424MOL0     H58449  10.317  10.285   0.766  0.5232 -2.5457  1.3085
  424MOL0     H58450  10.311  10.133   0.697  0.7374 -0.1598 -1.0216
  424MOL0     H58451  10.509  10.228   0.544  1.3590  1.8123  0.6957
  424MOL0     H58452  10.527  10.357   0.662 -0.0436  0.5891  0.9060
  424MOL0     H58453  10.547  10.065   0.762  2.6081 -0.0439  2.1123
  424MOL0     H58454  10.555  10.208   0.850  0.1321  1.9098 -0.3628
  424MOL0     H58455  10.783  10.126   0.811  1.6158  1.5482 -1.7525
  424MOL0     H58456  10.764  10.130   0.633 -2.8745  0.5080 -1.8381
  424MOL0     H58457  10.704  10.391   0.739 -1.2380 -2.1700 -0.5652
  424MOL0     H58458  10.819  10.347   0.624  0.5683  0.1392  0.7937
  424MOL0     H58459  10.864  10.332   0.937 -1.5079 -0.8949 -0.1135
  424MOL0     H58460  10.987  10.288   0.820  0.3868  0.5334  1.3027
  424MOL0     H58461  11.152  10.472   0.904 -1.6594 -2.1948 -1.4534
  424MOL0     H58462  11.178  10.810   0.715  3.3545 -1.2487 -0.3319
  424MOL0     H58463  11.284  10.711   0.805  0.4587 -0.8698 -2.7850
  424MOL0     H58464  11.131  10.808   1.009 -2.8715  2.0742  0.3982
  424MOL0     H58465  11.243  10.923   0.931  1.5727 -2.4613 -1.2044
  424MOL0     H58466  10.940  10.916   0.873  0.6625 -0.3303 -1.6998
  424MOL0     H58467  11.020  10.995   1.005 -1.9172  0.1555 -0.5329
  424MOL0     H58468  11.173  11.114   0.824  0.7259  0.0577 -1.1528
  424MOL0     H58469  11.058  11.049   0.704 -0.5200  2.0333 -0.6940
  424MOL0     H58470  10.790  11.244   0.982  2.3577  0.3264 -0.5007
  424MOL0     H58471  10.534  11.464   0.931 -0.9485 -0.4058  0.4949
  424MOL0     H58472  10.584  11.335   1.033 -2.0784  0.3809  1.0478
  424MOL0     H58473  10.456  11.312   0.902  1.2103 -0.6309 -1.8566
  424MOL0     H58474  10.244  11.186   0.454 -2.0177  1.1034  0.0489
  424MOL0     H58475  10.061  11.288   0.348 -0.1283  0.6654 -1.0921
  424MOL0     H58476  10.112  11.703   0.320  0.2162  1.4054 -0.4731
  424MOL0     H58477  10.103  11.722   0.144 -0.6409  1.5801  0.5964
  424MOL0     H58478   9.912  11.816   0.297  0.8479  0.0067 -0.6387
  424MOL0     H58479   9.876  11.751   0.143  0.7636  1.8048  0.3991
  424MOL0     H58480   9.857  11.566   0.380 -0.4618  1.5935  2.3281
  424MOL0     H58481   9.751  11.562   0.241 -0.3269 -2.3557  1.0891
  424MOL0     H58482   9.667  11.796   0.281 -2.3539 -2.9662 -1.2143
  424MOL0     H58483   9.750  11.792   0.439 -0.9305  0.3494  0.7188
  424MOL0     H58484   9.635  11.549   0.439 -0.6315 -1.1738 -0.6548
  424MOL0     H58485   9.547  11.700   0.500  0.5172  3.5975 -1.6334
  424MOL0     H58486   9.518  11.573   0.212 -2.3460 -1.8341 -0.5126
  424MOL0     H58487   9.422  11.698   0.290 -0.6734 -1.4770 -2.5609
  424MOL0     H58488   9.286  11.546   0.403 -1.8425 -0.0538 -2.7462
  424MOL0     H58489   9.415  11.425   0.415 -1.8364 -0.2787 -0.3136
  424MOL0     H58490   9.241  11.366   0.278  0.2032 -0.5160 -0.2104
  424MOL0     H58491   9.398  11.364   0.194  2.4855  2.2037  1.5939
  424MOL0     H58492  10.319  11.612   0.231 -1.0211 -0.4423 -0.9626
  424MOL0     H58493  10.485  11.541   0.371 -0.9297  0.8656  1.5647
  424MOL0     H58494  10.728  11.278   0.504  1.5527  0.5791 -0.0172
  424MOL0     H58495  10.937  11.199   0.579 -1.8334 -3.1602 -0.8931
  424MOL0     H58496   9.943  10.244   0.822  0.6375  0.1182  0.6602
  424MOL0     H58497   9.689  10.268   0.842 -1.1042  3.1120 -1.7598
  424MOL0     H58498   9.327   9.923   0.832  1.5934  0.2710 -1.4206
  424MOL0     H58499   9.092   9.951   0.915  0.6379  0.5373  1.0555
  424MOL0     H58500   8.938  10.356   0.870  0.3408 -0.7185 -0.2158
  424MOL0     H58501   8.836  10.309   0.728  3.2999 -1.1533 -2.0916
  424MOL0     H58502   8.693  10.392   0.924 -0.5315 -0.5980  1.7920
  424MOL0     H58503   8.761  10.272   1.029 -3.4618  0.1346  1.0574
  424MOL0     H58504   8.609  10.216   0.774  2.5573 -1.3056 -1.4450
  424MOL0     H58505   8.666  10.095   0.883  1.6717  0.5671 -1.7864
  424MOL0     H58506   8.430  10.122   0.925  2.1861 -1.5874  0.6786
  424MOL0     H58507   8.437  10.286   0.902 -2.4714 -2.4344  0.3444
  424MOL0     H58508   8.490  10.304   1.320  2.8293 -0.1274 -0.4563
  424MOL0     H58509   9.050  10.294   0.648  0.2346  0.7564  0.2219
  424MOL0     H58510   9.195  10.319   0.467  2.5711  1.4714 -1.6777
  424MOL0     H58511   9.304  10.386   0.583  0.7348  0.9026 -4.0288
  424MOL0     H58512   9.356  10.252   0.480  0.4434 -1.7129  0.7938
  425MOL0     O58513   3.973  11.166   9.476  0.4539 -0.2050 -0.3790
  425MOL0     C58514   3.892  11.215   9.557  0.1360  1.1315  0.5113
  425MOL0     O58515   3.809  11.142   9.638  0.4994 -0.0407 -0.1516
  425MOL0     C58516   3.816  11.001   9.644  0.2850 -0.2285 -0.3417
  425MOL0     C58517   3.939  10.931   9.662 -0.7185 -0.0992 -0.1399
  425MOL0     C58518   3.931  10.789   9.671  0.0559 -0.2580 -0.1384
  425MOL0     C58519   3.816  10.720   9.657  0.6839 -1.0628 -0.6362
  425MOL0     O58520   3.808  10.583   9.652 -1.0623 -0.5826  0.1825
  425MOL0     C58521   3.733  10.511   9.753  0.1412  0.3170  0.2119
  425MOL0     C58522   3.799  10.496   9.889 -0.4289 -0.0880  0.4755
  425MOL0     C58523   3.741  10.392   9.982  0.2760  0.3364  0.4973
  425MOL0     C58524   3.805  10.400  10.124  0.0799  0.3966 -0.2699
  425MOL0     C58525   3.738  10.301  10.216 -0.1426 -0.1294 -0.0058
  425MOL0     C58526   3.629  10.372  10.294 -0.9573  0.1227 -0.4470
  425MOL0     C58527   3.606  10.293  10.421 -0.7578 -0.7869  0.4104
  425MOL0     C58528   3.486  10.326  10.502  0.6557 -0.7413  0.1887
  425MOL0     N58529   3.510  10.462  10.558  0.1313 -0.6180 -0.7740
  425MOL0     C58530   3.613  10.504  10.640  0.8373  0.5336 -0.1411
  425MOL0     C58531   3.586  10.636  10.667  0.4073 -1.2655  0.3064
  425MOL0     C58532   3.667  10.732  10.749 -0.9438  0.1369  0.1860
  425MOL0     C58533   3.687  10.696  10.895 -0.1096  0.6236 -0.0675
  425MOL0     C58534   3.713  10.809  10.997  0.1147 -0.5651 -0.8159
  425MOL0     C58535   3.793  10.936  10.951  0.1660 -0.1526  0.5268
  425MOL0     O58536   3.901  10.879  10.870 -0.2997 -0.2944  0.3914
  425MOL0     C58537   4.024  10.870  10.908  0.3177  0.5708 -0.0590
  425MOL0     C58538   4.105  10.815  10.814 -0.6125  1.0705 -0.4641
  425MOL0     C58539   4.246  10.785  10.837  1.5403 -0.1565 -0.0904
  425MOL0     C58540   4.330  10.698  10.753  0.2192  0.6077 -0.1085
  425MOL0     C58541   4.299  10.844  10.961  0.2078 -0.5132  0.2269
  425MOL0     C58542   4.455  10.849  10.994 -0.1944  0.2824  0.5459
  425MOL0     O58543   4.509  10.966  11.048 -0.5697  0.3065 -0.4174
  425MOL0     C58544   4.645  10.968  11.080  0.4451 -0.0239  0.4080
  425MOL0     C58545   4.717  11.083  11.038 -0.1408  0.7485  0.3575
  425MOL0     C58546   4.842  11.103  11.078 -0.3541  1.3560 -1.0252
  425MOL0     C58547   4.916  11.004  11.147  0.1457 -0.8193  1.2223
  425MOL0     O58548   5.038  11.026  11.199  0.4930  0.2245 -1.2367
  425MOL0     C58549   5.137  11.081  11.124  0.9224 -0.2392 -0.1442
  425MOL0     C58550   5.226  10.983  11.056 -0.3738 -0.4182 -0.1367
  425MOL0     C58551   5.268  10.889  11.164 -0.1246  0.3759 -0.2239
  425MOL0     C58552   5.387  10.951  11.226 -0.1468  0.6753 -0.6753
  425MOL0     C58553   5.429  10.862  11.347 -0.4572 -0.7261 -0.4761
  425MOL0     C58554   5.321  10.863  11.461  0.8513  0.1697 -0.4278
  425MOL0     C58555   5.365  10.800  11.587 -0.7253  0.0437 -0.7380
  425MOL0     C58556   5.247  10.754  11.675  0.5504  0.6134 -0.2758
  425MOL0    Cl58557   5.309  10.708  11.840  0.2578 -0.5502 -0.1833
  425MOL0     C58558   4.848  10.895  11.191 -0.5656 -0.1038  0.5861
  425MOL0     C58559   4.712  10.880  11.164 -0.3214  2.0820  0.6676
  425MOL0     O58560   4.518  10.750  10.950  0.3460  0.3424 -0.1667
  425MOL0     C58561   4.219  10.907  11.047  0.0278 -0.4230  0.0583
  425MOL0     C58562   4.080  10.914  11.031  0.4576 -0.6945 -0.0292
  425MOL0     N58563   3.469  10.671  10.599  0.0298  0.0742 -0.5442
  425MOL0     N58564   3.426  10.571  10.533  1.0388  0.2794  0.4392
  425MOL0     C58565   3.695  10.797   9.632  0.2885  0.3637 -0.6869
  425MOL0     C58566   3.700  10.935   9.625 -0.1651  0.2647  0.1649
  425MOL0     C58567   3.862  11.362   9.534 -0.4351  0.4218  0.6522
  425MOL0     C58568   3.729  11.398   9.522  0.2049  0.5599  0.2421
  425MOL0     C58569   3.686  11.531   9.482 -0.6337  0.0470  0.1244
  425MOL0     C58570   3.785  11.623   9.446  0.5577 -0.3111  0.9040
  425MOL0     O58571   3.734  11.739   9.401  0.0995  0.9506  0.8336
  425MOL0     C58572   3.818  11.819   9.322 -0.3644  0.2411  0.4916
  425MOL0     C58573   3.742  11.867   9.198  0.3353 -0.1790 -0.6761
  425MOL0     C58574   3.667  11.756   9.133  0.5690  0.5161  0.1498
  425MOL0     C58575   3.575  11.818   9.027 -0.3860  0.1912 -1.0231
  425MOL0     C58576   3.648  11.879   8.920  0.0904 -0.5111  0.2576
  425MOL0     C58577   3.732  11.927   8.847  0.3074 -0.7073 -0.1844
  425MOL0     C58578   3.925  11.583   9.460  0.6949  0.6076  0.0370
  425MOL0     C58579   3.967  11.459   9.510  0.7396  0.3837 -0.1718
  425MOL0     C58580   4.110  11.429   9.522 -0.2429 -0.4587  0.2979
  425MOL0     H58581   4.029  10.988   9.640 -1.1944 -0.8562 -5.4493
  425MOL0     H58582   4.023  10.734   9.681  0.5449  0.5365 -0.2098
  425MOL0     H58583   3.713  10.412   9.711  1.6030 -0.0532  0.3544
  425MOL0     H58584   3.634  10.557   9.760  0.7350  1.4575  1.6439
  425MOL0     H58585   3.906  10.477   9.881  0.9416  5.6720  1.1847
  425MOL0     H58586   3.797  10.600   9.924 -0.3862  0.0769 -0.0173
  425MOL0     H58587   3.638  10.425  10.001  1.1567  3.4150  0.4771
  425MOL0     H58588   3.741  10.293   9.936 -0.3187  0.3859  0.3726
  425MOL0     H58589   3.910  10.373  10.119 -0.0761 -0.7775  1.9199
  425MOL0     H58590   3.793  10.505  10.155 -1.5929 -0.6617  3.0799
  425MOL0     H58591   3.814  10.278  10.291  1.7971  0.2270 -1.7492
  425MOL0     H58592   3.709  10.212  10.159  1.0682  1.4988 -3.4856
  425MOL0     H58593   3.653  10.475  10.323 -1.4084  0.8868 -2.5779
  425MOL0     H58594   3.543  10.377  10.225 -1.2663 -1.0199 -0.1612
  425MOL0     H58595   3.695  10.319  10.479 -1.6589  0.7320  1.1679
  425MOL0     H58596   3.609  10.188  10.389 -1.0823 -0.1897 -1.7182
  425MOL0     H58597   3.395  10.326  10.440 -0.0141  1.7689  1.0559
  425MOL0     H58598   3.468  10.255  10.584  0.5583  1.1583  1.8950
  425MOL0     H58599   3.695  10.441  10.675  0.9214  0.0916 -1.1198
  425MOL0     H58600   3.607  10.824  10.750  0.2290  0.9326  0.8161
  425MOL0     H58601   3.761  10.745  10.695 -2.1116 -1.5711 -2.4388
  425MOL0     H58602   3.600  10.641  10.930  0.7271 -0.9993 -0.4478
  425MOL0     H58603   3.773  10.629  10.902 -0.9470 -0.6379 -1.2944
  425MOL0     H58604   3.618  10.846  11.036  1.7367  1.7773  1.2095
  425MOL0     H58605   3.765  10.763  11.081 -0.5407  0.2029  0.0368
  425MOL0     H58606   3.723  10.979  10.879 -1.7204 -0.8242  1.8529
  425MOL0     H58607   3.822  11.004  11.031  0.4006  1.2974 -0.7492
  425MOL0     H58608   4.061  10.753  10.737 -2.0715 -2.5510  2.9368
  425MOL0     H58609   4.427  10.733  10.716  2.3300 -3.5507  0.9094
  425MOL0     H58610   4.277  10.671  10.661  4.1104 -4.8252 -1.3065
  425MOL0     H58611   4.360  10.605  10.802  0.5620  1.0636  0.5592
  425MOL0     H58612   4.680  11.166  10.979 -1.5184 -1.6463 -2.4592
  425MOL0     H58613   4.890  11.200  11.065  0.7188  1.4445  2.4515
  425MOL0     H58614   5.088  11.142  11.047 -1.9912 -0.1070  1.6958
  425MOL0     H58615   5.205  11.152  11.172 -0.1936  0.9772 -0.2953
  425MOL0     H58616   5.177  10.933  10.972 -2.3296 -1.5914  1.6210
  425MOL0     H58617   5.314  11.031  11.011 -1.0440 -0.4293 -1.5330
  425MOL0     H58618   5.299  10.797  11.114 -1.3689  1.4585 -3.1926
  425MOL0     H58619   5.195  10.853  11.237  0.5507 -1.8037 -0.5272
  425MOL0     H58620   5.372  11.055  11.256 -3.7523  0.2980 -0.7516
  425MOL0     H58621   5.475  10.937  11.163  0.4375 -1.0296  0.4602
  425MOL0     H58622   5.436  10.757  11.315 -0.1293 -1.7334  2.6269
  425MOL0     H58623   5.529  10.898  11.374 -1.3011  1.3364  0.0463
  425MOL0     H58624   5.234  10.809  11.421 -0.0987  0.9035  0.5899
  425MOL0     H58625   5.284  10.964  11.477  0.9832  0.2299 -0.5030
  425MOL0     H58626   5.416  10.873  11.650 -2.1742 -1.2850  2.1604
  425MOL0     H58627   5.439  10.721  11.568  1.6525  1.3834  2.0495
  425MOL0     H58628   5.188  10.680  11.620  0.7485  1.0083 -1.0343
  425MOL0     H58629   5.184  10.844  11.680 -2.8245 -1.5675 -0.7311
  425MOL0     H58630   4.908  10.826  11.250  2.0401  2.3464  1.0255
  425MOL0     H58631   4.666  10.789  11.201  1.7040  0.2729 -1.0158
  425MOL0     H58632   4.256  10.962  11.133  0.8962 -0.0621 -0.5442
  425MOL0     H58633   4.015  10.968  11.099  0.6762 -0.1055 -0.2790
  425MOL0     H58634   3.600  10.745   9.638  0.8021 -0.5319 -0.0618
  425MOL0     H58635   3.608  10.991   9.610 -0.3797  0.5028  2.1434
  425MOL0     H58636   3.650  11.327   9.547 -1.9255  1.8771 -2.2017
  425MOL0     H58637   3.583  11.564   9.477  0.2114  3.2056  1.2009
  425MOL0     H58638   3.841  11.916   9.368 -1.0394  0.2559  0.8204
  425MOL0     H58639   3.905  11.767   9.282 -0.5565  0.4006 -0.1607
  425MOL0     H58640   3.809  11.909   9.122  1.8776 -4.0656 -1.7124
  425MOL0     H58641   3.670  11.944   9.226  2.5895  2.7570 -2.2821
  425MOL0     H58642   3.725  11.673   9.090  2.6029  1.7583  0.3663
  425MOL0     H58643   3.617  11.693   9.207  3.8188  0.4714  2.5127
  425MOL0     H58644   3.510  11.889   9.077  1.2564  0.8938  0.2118
  425MOL0     H58645   3.518  11.732   8.989 -1.0536  0.1910 -0.0388
  425MOL0     H58646   3.803  11.979   8.785  0.2232 -0.6197 -0.2086
  425MOL0     H58647   4.007  11.649   9.437  0.6038  0.6710 -0.1091
  425MOL0     H58648   4.130  11.323   9.541 -0.1442 -1.2030 -3.3000
  425MOL0     H58649   4.160  11.452   9.428 -0.7333  1.5201  0.4968
  425MOL0     H58650   4.156  11.494   9.598 -1.1689  1.6456 -0.8826
  426MOL0     O58651   3.120   4.824   2.152  0.2712 -0.7889  0.4179
  426MOL0     C58652   3.037   4.893   2.221  0.0174  0.2843  0.0101
  426MOL0     O58653   3.067   4.975   2.315 -0.8153 -0.7393 -0.0677
  426MOL0     C58654   3.198   4.972   2.355 -0.4017  0.8745 -0.2231
  426MOL0     C58655   3.227   4.873   2.458  0.4589 -1.0764  0.1451
  426MOL0     C58656   3.354   4.836   2.488 -0.1558  0.1651 -0.4981
  426MOL0     C58657   3.458   4.908   2.435 -0.0668  0.0634  0.7627
  426MOL0     O58658   3.586   4.870   2.466  0.4524 -0.0897 -0.2008
  426MOL0     C58659   3.686   4.854   2.357  1.2642 -0.7763 -0.1035
  426MOL0     C58660   3.739   4.711   2.379  0.3402  0.8993 -0.7736
  426MOL0     C58661   3.796   4.651   2.249  1.6132  0.4339  0.3949
  426MOL0     C58662   3.890   4.739   2.169  0.0116 -0.2679  0.4487
  426MOL0     C58663   3.981   4.648   2.079  0.6913  0.3227 -0.1567
  426MOL0     C58664   4.081   4.725   2.001 -0.6880  0.0326 -0.3299
  426MOL0     C58665   4.156   4.630   1.885 -0.8525 -0.6816 -0.3844
  426MOL0     C58666   4.063   4.534   1.807  0.3329 -0.8016  0.2211
  426MOL0     N58667   3.938   4.605   1.752 -0.3785  1.4626  0.1103
  426MOL0     C58668   3.800   4.580   1.772 -0.4280  0.5476 -0.1644
  426MOL0     C58669   3.736   4.679   1.703  0.7940  0.4447 -0.5495
  426MOL0     C58670   3.583   4.704   1.693 -0.1805 -0.1430 -0.4102
  426MOL0     C58671   3.490   4.661   1.810  0.3915  0.2767 -0.3143
  426MOL0     C58672   3.540   4.718   1.943 -0.3764  1.0861  1.3728
  426MOL0     C58673   3.469   4.652   2.062  0.0910  0.3811 -1.1072
  426MOL0     O58674   3.497   4.516   2.088 -0.7702 -0.2903 -0.2163
  426MOL0     C58675   3.418   4.457   2.178  0.3460 -0.2076 -0.1202
  426MOL0     C58676   3.446   4.316   2.208 -0.1732 -0.1673  0.6201
  426MOL0     C58677   3.367   4.238   2.294 -0.9571  0.8450  0.5311
  426MOL0     C58678   3.414   4.099   2.313 -1.6471  0.5329  0.3324
  426MOL0     C58679   3.255   4.296   2.355 -0.5573 -0.2049  0.2064
  426MOL0     C58680   3.162   4.217   2.440  0.6718  0.3065  0.2620
  426MOL0     O58681   3.078   4.283   2.525  1.1138  0.0023  0.2891
  426MOL0     C58682   2.979   4.211   2.590 -0.3426 -0.3166  0.7955
  426MOL0     C58683   2.997   4.158   2.714 -0.0443 -0.5008 -0.1948
  426MOL0     C58684   2.890   4.090   2.776  0.2947  0.2226 -0.8693
  426MOL0     C58685   2.766   4.066   2.716  0.1641  0.7014  1.1234
  426MOL0     O58686   2.667   4.001   2.785  0.4446  0.2341 -0.2382
  426MOL0     C58687   2.530   4.033   2.745 -0.1321  0.8509  1.0090
  426MOL0     C58688   2.485   4.167   2.798  0.6461  0.8476  0.8574
  426MOL0     C58689   2.364   4.213   2.707 -1.1630  0.6539 -0.3532
  426MOL0     C58690   2.244   4.114   2.718 -0.0569 -0.4278 -0.9894
  426MOL0     C58691   2.153   4.130   2.604 -0.0526 -0.2776  0.4737
  426MOL0     C58692   2.038   4.020   2.598 -0.5932 -0.3217 -0.3871
  426MOL0     C58693   1.953   4.033   2.468 -1.4284 -0.1498  0.0456
  426MOL0     C58694   2.042   4.037   2.339 -0.7706 -0.3786 -0.1503
  426MOL0    Cl58695   1.947   3.971   2.197 -0.0123 -0.0476  0.1811
  426MOL0     C58696   2.754   4.122   2.587  0.3233 -0.0040  0.5309
  426MOL0     C58697   2.862   4.180   2.520 -0.2707  0.0986  0.7744
  426MOL0     O58698   3.144   4.103   2.404 -0.1597  0.9655 -0.6500
  426MOL0     C58699   3.229   4.437   2.331  0.2299 -0.8482  0.8646
  426MOL0     C58700   3.305   4.512   2.239  0.4845  0.2117  0.6965
  426MOL0     N58701   3.827   4.754   1.645 -0.0104  0.4949  0.5579
  426MOL0     N58702   3.941   4.707   1.660 -0.3959  0.2152  0.0306
  426MOL0     C58703   3.439   5.021   2.347  0.6356  0.2820  0.0601
  426MOL0     C58704   3.303   5.049   2.303 -0.7813 -0.3130  0.1723
  426MOL0     C58705   2.891   4.889   2.208 -0.0845 -0.2258 -0.7265
  426MOL0     C58706   2.807   4.961   2.306  0.6261 -0.3298  0.0575
  426MOL0     C58707   2.669   4.960   2.299  0.3356 -0.1947  0.3037
  426MOL0     C58708   2.613   4.893   2.192  0.2794 -0.4292  0.1570
  426MOL0     O58709   2.472   4.885   2.168 -0.5404 -0.2614  0.5839
  426MOL0     C58710   2.387   4.882   2.285  0.2721  0.4075 -0.1885
  426MOL0     C58711   2.241   4.900   2.245  0.8585  0.1745  0.3548
  426MOL0     C58712   2.212   5.021   2.167 -0.2537 -0.0979 -0.2821
  426MOL0     C58713   2.086   5.094   2.218 -0.2963  0.0611 -0.1615
  426MOL0     C58714   2.055   5.215   2.135 -0.2732 -0.9094 -0.7824
  426MOL0     C58715   2.030   5.319   2.083 -0.1644  0.1418 -0.1396
  426MOL0     C58716   2.684   4.825   2.101 -0.4098  0.6291  0.1027
  426MOL0     C58717   2.820   4.818   2.110 -0.7068 -0.1799  0.4142
  426MOL0     C58718   2.887   4.732   2.000  0.6508 -1.2341  0.3730
  426MOL0     H58719   3.161   4.807   2.514  0.6715 -1.2115  0.2375
  426MOL0     H58720   3.375   4.750   2.551 -0.7725 -0.8418 -1.6291
  426MOL0     H58721   3.769   4.924   2.372 -0.4544  1.1209  1.0345
  426MOL0     H58722   3.653   4.870   2.254 -1.3976  2.1701  1.0239
  426MOL0     H58723   3.821   4.704   2.452  1.2149  0.0876 -1.7981
  426MOL0     H58724   3.655   4.651   2.415  0.2141  0.7951 -1.2350
  426MOL0     H58725   3.843   4.556   2.275 -0.4279 -0.6425  0.3235
  426MOL0     H58726   3.710   4.618   2.190 -2.0234 -1.0844  5.8250
  426MOL0     H58727   3.839   4.804   2.097 -0.8589  0.7645  1.9605
  426MOL0     H58728   3.949   4.809   2.229  4.2400 -1.8121 -1.5278
  426MOL0     H58729   3.907   4.594   2.020 -0.4399 -0.6520  2.0296
  426MOL0     H58730   4.036   4.574   2.138 -1.1923  0.4094  1.8464
  426MOL0     H58731   4.021   4.803   1.954 -1.7310 -1.2105 -1.1275
  426MOL0     H58732   4.165   4.757   2.063 -1.3493  2.4428 -0.5988
  426MOL0     H58733   4.234   4.564   1.925 -0.4597 -0.2422 -0.4171
  426MOL0     H58734   4.203   4.701   1.817  1.9539 -0.6591  1.4053
  426MOL0     H58735   4.134   4.492   1.736  0.2871  1.7402 -1.4451
  426MOL0     H58736   4.026   4.450   1.868 -0.0436 -0.4801  0.4439
  426MOL0     H58737   3.741   4.509   1.829 -0.8491  1.2213  0.2542
  426MOL0     H58738   3.565   4.655   1.597 -1.6970 -1.3043  0.4162
  426MOL0     H58739   3.586   4.811   1.675  2.4956  0.6761  3.4211
  426MOL0     H58740   3.391   4.703   1.789 -2.3608 -5.7244 -1.5263
  426MOL0     H58741   3.480   4.552   1.804  1.4471  0.2178 -1.4843
  426MOL0     H58742   3.648   4.713   1.956 -0.6481 -1.7940  3.7460
  426MOL0     H58743   3.511   4.823   1.945 -0.9968  0.9492  3.7767
  426MOL0     H58744   3.492   4.707   2.153  3.8351 -1.7539 -0.5627
  426MOL0     H58745   3.365   4.647   2.027 -0.2623 -2.9218  0.0931
  426MOL0     H58746   3.523   4.272   2.145  0.0868  1.1146  0.0055
  426MOL0     H58747   3.355   4.023   2.260  0.8878 -2.1574  1.0918
  426MOL0     H58748   3.421   4.075   2.419 -0.7465  0.4363  0.2533
  426MOL0     H58749   3.513   4.074   2.275 -2.7061 -4.7886  0.2574
  426MOL0     H58750   3.090   4.165   2.769 -1.1856 -0.9140  1.8617
  426MOL0     H58751   2.891   4.058   2.880 -3.2081 -0.6739 -0.9816
  426MOL0     H58752   2.517   4.022   2.637  1.9612 -0.3388  0.8358
  426MOL0     H58753   2.459   3.961   2.786 -1.6644  1.8198  0.1689
  426MOL0     H58754   2.462   4.172   2.905 -0.0574  1.3799  0.6862
  426MOL0     H58755   2.567   4.239   2.790  1.9936 -0.8152 -1.5368
  426MOL0     H58756   2.407   4.227   2.608  2.4433  1.6961  1.1906
  426MOL0     H58757   2.340   4.310   2.751 -0.4129  0.2271  1.0541
  426MOL0     H58758   2.185   4.128   2.810  0.3958 -0.7001 -0.6565
  426MOL0     H58759   2.277   4.010   2.719  0.9742 -0.1075 -0.9528
  426MOL0     H58760   2.100   4.225   2.604 -0.4922 -0.4889 -1.3225
  426MOL0     H58761   2.209   4.106   2.512 -1.1451  0.3815 -0.3886
  426MOL0     H58762   1.972   4.045   2.681  0.0494  1.7911 -0.4716
  426MOL0     H58763   2.076   3.919   2.619 -0.2253  0.4167  3.0994
  426MOL0     H58764   1.879   4.113   2.474 -1.4516 -0.0834 -1.0014
  426MOL0     H58765   1.890   3.943   2.467 -2.5959  0.6060  1.5643
  426MOL0     H58766   2.132   3.981   2.367 -0.7305  0.6686  2.0726
  426MOL0     H58767   2.087   4.132   2.309  2.3709 -1.7947 -0.3059
  426MOL0     H58768   2.664   4.107   2.527  0.0461 -3.1431  1.5536
  426MOL0     H58769   2.844   4.221   2.421  0.8251 -0.8225  0.1800
  426MOL0     H58770   3.140   4.483   2.373  0.8223  2.9785 -1.6129
  426MOL0     H58771   3.273   4.614   2.220 -1.3639 -0.0522  2.1770
  426MOL0     H58772   3.525   5.074   2.307 -1.7226  1.8242 -3.4688
  426MOL0     H58773   3.284   5.130   2.233 -1.6499 -2.0993 -1.7336
  426MOL0     H58774   2.851   5.007   2.394  2.7568 -3.0681  0.5289
  426MOL0     H58775   2.605   5.008   2.372 -1.7064  1.4077 -2.3655
  426MOL0     H58776   2.399   4.782   2.327 -3.9952  0.3911  1.4682
  426MOL0     H58777   2.411   4.957   2.361  4.2569 -1.0266  0.2207
  426MOL0     H58778   2.183   4.891   2.337 -0.4502  2.0314 -0.2293
  426MOL0     H58779   2.218   4.815   2.180  4.0488  0.4038 -1.2782
  426MOL0     H58780   2.293   5.094   2.164 -0.8727  0.5976 -3.0968
  426MOL0     H58781   2.204   4.990   2.063  1.5517 -1.3682 -0.0804
  426MOL0     H58782   2.102   5.125   2.322 -0.9230  1.5056 -0.4659
  426MOL0     H58783   2.003   5.024   2.207 -0.4146  0.1560  0.1230
  426MOL0     H58784   2.014   5.410   2.028 -1.2842 -0.2859 -0.5430
  426MOL0     H58785   2.625   4.776   2.024 -0.5192  1.5219 -0.3974
  426MOL0     H58786   2.970   4.790   1.958  0.3082 -2.0565 -1.5455
  426MOL0     H58787   2.927   4.639   2.043 -0.3104 -0.3967  3.3488
  426MOL0     H58788   2.820   4.708   1.917  0.4321  2.1614 -0.5812
  427MOL0     O58789   8.980  10.247   9.034 -0.3025 -0.2818  0.1967
  427MOL0     C58790   8.879  10.212   8.975  0.3493  0.7215  0.3502
  427MOL0     O58791   8.772  10.147   9.022  0.4981  1.0002 -0.0094
  427MOL0     C58792   8.754  10.119   9.159  0.4211 -0.9007  0.1305
  427MOL0     C58793   8.621  10.108   9.194 -0.4590 -0.4684  0.6648
  427MOL0     C58794   8.585  10.103   9.331 -0.2966  0.5456 -0.6292
  427MOL0     C58795   8.681  10.066   9.428  0.4889 -0.4796 -0.2419
  427MOL0     O58796   8.632  10.032   9.559  0.5550 -0.2731  0.3583
  427MOL0     C58797   8.718  10.014   9.672 -0.0411 -0.4710  0.4408
  427MOL0     C58798   8.657  10.052   9.803 -0.4913 -0.0476 -0.2683
  427MOL0     C58799   8.665  10.208   9.822  0.0079  1.4710  0.3733
  427MOL0     C58800   8.806  10.264   9.853 -0.9861 -0.1193 -0.1715
  427MOL0     C58801   8.791  10.405   9.921 -0.3642 -0.4557 -0.2715
  427MOL0     C58802   8.878  10.521   9.867  0.5717  1.0153 -0.0377
  427MOL0     C58803   8.834  10.652   9.937  0.0868  0.0510  0.6711
  427MOL0     C58804   8.952  10.752   9.922 -0.4186  0.2164 -0.5912
  427MOL0     N58805   8.978  10.778   9.780  0.0058  0.1963  0.1206
  427MOL0     C58806   8.879  10.833   9.697 -0.5218  0.3109  0.2922
  427MOL0     C58807   8.912  10.795   9.572  1.1474 -0.3829 -0.5153
  427MOL0     C58808   8.829  10.815   9.452 -0.1574  0.4124  0.4791
  427MOL0     C58809   8.836  10.965   9.393  0.4281  0.0310  0.4233
  427MOL0     C58810   8.971  10.987   9.338  0.1246 -1.0536 -0.1243
  427MOL0     C58811   8.969  11.106   9.248  0.2332  1.3363  0.4983
  427MOL0     O58812   8.915  11.212   9.320 -0.2303  0.3042  0.8381
  427MOL0     C58813   8.905  11.317   9.236  0.0318  0.5493  0.2748
  427MOL0     C58814   8.804  11.328   9.138  1.0839 -0.4621 -0.4411
  427MOL0     C58815   8.795  11.425   9.034  1.6886 -0.4999 -0.3275
  427MOL0     C58816   8.687  11.426   8.926 -0.2660  0.1526  0.0729
  427MOL0     C58817   8.901  11.526   9.034  0.0285  0.4928 -0.1292
  427MOL0     C58818   8.921  11.642   8.943  0.1494  1.1650 -0.1668
  427MOL0     O58819   9.037  11.655   8.891 -1.0152 -0.0913 -0.5081
  427MOL0     C58820   9.071  11.751   8.810 -0.8396  0.3797 -0.2141
  427MOL0     C58821   8.991  11.833   8.730  0.0942  0.3060  0.4274
  427MOL0     C58822   9.033  11.924   8.636 -1.1388  0.6198  0.7225
  427MOL0     C58823   9.168  11.946   8.626  0.7904  0.3216 -0.4184
  427MOL0     O58824   9.231  12.044   8.558  0.1560 -0.2991  0.6173
  427MOL0     C58825   9.159  12.147   8.488 -0.2712 -0.3055  0.7066
  427MOL0     C58826   9.161  12.098   8.338  0.4809 -0.3790  0.7579
  427MOL0     C58827   9.300  12.083   8.282 -0.8959  0.2068  0.0030
  427MOL0     C58828   9.298  12.033   8.139 -0.1079  0.5565  0.2017
  427MOL0     C58829   9.425  12.071   8.055 -0.1200  0.2976 -0.0365
  427MOL0     C58830   9.554  11.989   8.066 -0.7516 -0.1192  1.1798
  427MOL0     C58831   9.529  11.846   8.032  0.4330  0.1476 -1.0713
  427MOL0     C58832   9.656  11.753   8.022 -0.5629 -0.4985 -0.6949
  427MOL0    Cl58833   9.622  11.646   7.891 -0.1260 -0.2719  0.3101
  427MOL0     C58834   9.254  11.857   8.695 -0.4648 -0.1358  0.2752
  427MOL0     C58835   9.204  11.764   8.787  0.2600  0.6784 -0.2991
  427MOL0     O58836   8.823  11.721   8.941 -0.2831 -0.2189 -0.3283
  427MOL0     C58837   9.003  11.518   9.131 -1.1163  0.0408  0.2669
  427MOL0     C58838   9.005  11.409   9.227  0.2111  0.1563  0.3445
  427MOL0     N58839   9.039  10.736   9.586 -0.1678  0.0354  0.1965
  427MOL0     N58840   9.076  10.726   9.704  0.5423  0.2547  0.3821
  427MOL0     C58841   8.814  10.071   9.385  0.6319 -0.2360 -0.8023
  427MOL0     C58842   8.849  10.101   9.260 -0.5095 -1.0638  0.3080
  427MOL0     C58843   8.852  10.241   8.831 -0.2372  0.7285 -0.7531
  427MOL0     C58844   8.740  10.307   8.779  0.2879  0.3717  0.0300
  427MOL0     C58845   8.725  10.309   8.639 -0.0737 -0.1441 -0.1043
  427MOL0     C58846   8.829  10.268   8.554  0.2833  0.5019 -0.3794
  427MOL0     O58847   8.825  10.300   8.421 -1.1571  0.5767 -0.0628
  427MOL0     C58848   8.772  10.193   8.337 -0.6874 -0.1482  0.4055
  427MOL0     C58849   8.751  10.236   8.190  0.0879  0.3419 -0.9589
  427MOL0     C58850   8.661  10.356   8.183  0.3523  0.5645  0.0061
  427MOL0     C58851   8.668  10.425   8.047  0.1949 -0.7919  1.0884
  427MOL0     C58852   8.793  10.501   8.028 -0.6528  0.9171  0.1180
  427MOL0     C58853   8.908  10.540   8.016  0.7926  0.0974  1.2704
  427MOL0     C58854   8.942  10.213   8.607 -0.1635 -0.2423 -0.0244
  427MOL0     C58855   8.950  10.181   8.745  0.6424  0.6738 -0.6010
  427MOL0     C58856   9.054  10.081   8.781  0.5306 -0.5173 -0.2596
  427MOL0     H58857   8.537  10.119   9.126 -0.8265  0.4346  1.2370
  427MOL0     H58858   8.479  10.119   9.347  0.2591  1.9756  2.1271
  427MOL0     H58859   8.810  10.072   9.660 -0.8579  0.7996  0.1845
  427MOL0     H58860   8.749   9.909   9.675  1.2857 -0.0860  2.2011
  427MOL0     H58861   8.554  10.017   9.791 -0.2434 -0.2968 -1.9532
  427MOL0     H58862   8.695  10.000   9.891 -1.2481  1.5731  1.0766
  427MOL0     H58863   8.623  10.261   9.736 -0.3535  2.2530  1.0192
  427MOL0     H58864   8.594  10.213   9.904 -0.1412 -1.5569  0.5297
  427MOL0     H58865   8.866  10.193   9.910 -2.8557 -2.7869 -1.3000
  427MOL0     H58866   8.869  10.278   9.765  1.2627 -2.3293  0.9578
  427MOL0     H58867   8.811  10.385  10.027  0.4243  1.6734  0.0250
  427MOL0     H58868   8.684  10.429   9.919  0.4041  4.3515  1.7810
  427MOL0     H58869   8.976  10.480   9.894 -0.6820 -2.8750 -0.6994
  427MOL0     H58870   8.862  10.523   9.759 -1.2440 -2.1290  0.0436
  427MOL0     H58871   8.832  10.627  10.043 -1.9236  0.7492  0.8394
  427MOL0     H58872   8.739  10.695   9.904 -0.1075 -1.1051 -0.3561
  427MOL0     H58873   8.933  10.845   9.976 -2.2513 -0.8103  0.6723
  427MOL0     H58874   9.040  10.706   9.968 -0.0683  1.7176  0.2837
  427MOL0     H58875   8.786  10.885   9.716 -1.1979  0.5070 -3.0697
  427MOL0     H58876   8.722  10.792   9.462 -0.5343  1.7159 -0.3013
  427MOL0     H58877   8.873  10.747   9.379 -0.3422 -3.1453  3.4065
  427MOL0     H58878   8.766  10.976   9.310 -0.1704  1.9979  1.1446
  427MOL0     H58879   8.818  11.038   9.473 -0.8277 -1.3633  1.4855
  427MOL0     H58880   9.040  11.016   9.417 -1.0538  0.0795  0.5284
  427MOL0     H58881   9.012  10.907   9.276  0.2291  0.2692 -1.8597
  427MOL0     H58882   9.073  11.132   9.225  0.3888  0.5093  0.2467
  427MOL0     H58883   8.907  11.086   9.161 -0.4594  4.4476  0.1632
  427MOL0     H58884   8.723  11.256   9.143 -0.7750  1.5949  2.2585
  427MOL0     H58885   8.649  11.528   8.920 -0.2958  0.0916 -0.9128
  427MOL0     H58886   8.615  11.350   8.956 -0.5827  0.4544  0.0825
  427MOL0     H58887   8.729  11.406   8.827 -5.4777  1.4499 -2.7125
  427MOL0     H58888   8.883  11.827   8.730 -0.1278  2.8645 -0.2105
  427MOL0     H58889   8.955  11.979   8.586 -1.3945 -0.0124  0.4148
  427MOL0     H58890   9.060  12.180   8.521  0.4533  2.3738  0.4563
  427MOL0     H58891   9.223  12.236   8.498  1.1936 -0.7521 -2.9582
  427MOL0     H58892   9.111  12.001   8.349 -2.5718  1.1115  1.3028
  427MOL0     H58893   9.098  12.168   8.281 -0.7598 -2.2339 -0.2455
  427MOL0     H58894   9.359  12.019   8.348  3.2631  1.7694 -1.8664
  427MOL0     H58895   9.342  12.184   8.273 -2.1073  0.9120  1.6086
  427MOL0     H58896   9.210  12.084   8.100 -1.4348 -0.8623  1.2123
  427MOL0     H58897   9.275  11.928   8.117 -0.3932  1.1309 -2.6331
  427MOL0     H58898   9.390  12.061   7.951  1.0337  0.4246 -0.4515
  427MOL0     H58899   9.452  12.175   8.075 -1.1593  0.7188 -0.7196
  427MOL0     H58900   9.597  12.001   8.166  2.2558 -1.4728  0.1787
  427MOL0     H58901   9.628  12.035   8.000  0.1431  1.7230  3.3199
  427MOL0     H58902   9.480  11.837   7.935  2.4901 -0.2536 -2.1430
  427MOL0     H58903   9.465  11.806   8.111  0.7793 -2.4345 -2.0075
  427MOL0     H58904   9.673  11.708   8.121  1.1447  3.5693  1.1192
  427MOL0     H58905   9.747  11.807   7.996 -1.1406  0.2454 -1.1976
  427MOL0     H58906   9.360  11.878   8.682 -1.1684  2.4522 -2.0860
  427MOL0     H58907   9.277  11.702   8.837  2.7255  1.3899 -2.7642
  427MOL0     H58908   9.088  11.584   9.140 -0.5262 -0.7054  0.3174
  427MOL0     H58909   9.086  11.392   9.298  1.2792 -0.0272 -0.8730
  427MOL0     H58910   8.896  10.055   9.455 -1.0977  2.0929  1.9805
  427MOL0     H58911   8.952  10.080   9.233 -0.7379 -0.0825 -1.4927
  427MOL0     H58912   8.670  10.362   8.841 -0.4980  3.4452 -3.2555
  427MOL0     H58913   8.631  10.348   8.601 -0.1812  1.8461  2.0136
  427MOL0     H58914   8.848  10.115   8.330  1.8287  2.2513 -1.5674
  427MOL0     H58915   8.667  10.174   8.360 -1.6080  0.7728 -2.6284
  427MOL0     H58916   8.714  10.157   8.123  2.2616 -2.1080  0.5308
  427MOL0     H58917   8.848  10.266   8.151  2.2018 -4.2244  0.0478
  427MOL0     H58918   8.562  10.313   8.197  0.4664  0.5831  0.9899
  427MOL0     H58919   8.665  10.428   8.265 -6.0698 -0.5613  1.8365
  427MOL0     H58920   8.578  10.487   8.046 -0.2802 -1.4285 -0.9611
  427MOL0     H58921   8.659  10.345   7.973 -2.1319  0.1102  0.2972
  427MOL0     H58922   9.006  10.573   7.989 -0.6599  2.2735 -1.8715
  427MOL0     H58923   9.019  10.192   8.533 -0.6521  0.7832 -0.8491
  427MOL0     H58924   9.078  10.012   8.699 -2.5052 -1.2258 -0.6983
  427MOL0     H58925   9.147  10.133   8.805  0.0221  0.9900 -1.4180
  427MOL0     H58926   9.017  10.015   8.860  0.2250 -2.4074 -1.8771
  428MOL0     O58927  10.679   1.565   1.527  0.1513  0.2166 -0.6963
  428MOL0     C58928  10.667   1.447   1.489 -0.0651 -0.3977  0.1352
  428MOL0     O58929  10.551   1.385   1.472 -0.4080 -1.2940  0.3092
  428MOL0     C58930  10.438   1.449   1.509 -0.2011 -0.4446  0.9007
  428MOL0     C58931  10.395   1.566   1.446 -0.6886 -0.4693 -0.0582
  428MOL0     C58932  10.281   1.627   1.492 -1.1614 -0.4351  0.2678
  428MOL0     C58933  10.206   1.583   1.592  0.1307 -0.1123 -1.1113
  428MOL0     O58934  10.092   1.639   1.619  0.1975 -0.5801 -0.3721
  428MOL0     C58935  10.069   1.690   1.750 -1.2301  0.4193  0.0838
  428MOL0     C58936   9.958   1.790   1.746  0.6649  0.1919 -0.5727
  428MOL0     C58937  10.004   1.916   1.664  0.3991  1.0339 -0.1391
  428MOL0     C58938  10.097   2.013   1.735  1.0764  0.0679  0.2648
  428MOL0     C58939  10.134   2.128   1.642  0.6224 -0.3550  0.3444
  428MOL0     C58940  10.029   2.232   1.595 -0.8311  0.3405 -0.6683
  428MOL0     C58941   9.925   2.265   1.701 -0.2287 -0.0801 -0.0110
  428MOL0     C58942   9.806   2.333   1.637 -0.4387  0.5572 -0.4480
  428MOL0     N58943   9.832   2.458   1.557 -0.7325  0.6136 -0.2829
  428MOL0     C58944   9.918   2.555   1.591  0.2076  0.2058 -0.3183
  428MOL0     C58945   9.919   2.640   1.492 -0.8777 -0.7146  0.0379
  428MOL0     C58946  10.023   2.759   1.480  0.1222 -0.5926 -0.3672
  428MOL0     C58947   9.976   2.903   1.471  0.5623 -0.2234 -0.4190
  428MOL0     C58948   9.894   2.932   1.343  0.2959  0.4925 -0.0182
  428MOL0     C58949   9.740   2.926   1.362 -0.3178  0.0342  0.4630
  428MOL0     O58950   9.666   2.886   1.243  0.4881 -0.3995  0.4277
  428MOL0     C58951   9.711   2.913   1.117  0.3530  0.4142 -0.1840
  428MOL0     C58952   9.759   2.813   1.029 -0.3633  0.1264  0.1722
  428MOL0     C58953   9.799   2.836   0.896  0.5212  0.5908  0.7275
  428MOL0     C58954   9.837   2.708   0.823 -0.6700  0.2192  0.9920
  428MOL0     C58955   9.775   2.963   0.837  0.3560 -0.1833 -0.2582
  428MOL0     C58956   9.814   2.991   0.693 -0.7027  0.1013 -0.6324
  428MOL0     O58957   9.931   2.933   0.646 -0.3410 -0.3307 -0.1388
  428MOL0     C58958   9.984   2.967   0.529 -0.4682  0.2406  0.1987
  428MOL0     C58959  10.030   2.864   0.447 -0.9143 -0.2566 -0.1675
  428MOL0     C58960  10.076   2.890   0.319 -0.5788  0.0039  1.2820
  428MOL0     C58961  10.083   3.022   0.269  0.0081 -0.4065 -0.7473
  428MOL0     O58962  10.135   3.025   0.142  0.8496 -0.1627  1.7983
  428MOL0     C58963  10.267   3.070   0.119  0.5640  0.0955  0.4841
  428MOL0     C58964  10.329   3.170   0.218 -0.8028  0.7677 -0.4621
  428MOL0     C58965  10.442   3.238   0.137 -0.4493 -1.0788  0.1145
  428MOL0     C58966  10.397   3.323   0.016  0.0236  0.9866 -1.0037
  428MOL0     C58967  10.477   3.454  -0.000 -0.2133 -0.5884 -0.6074
  428MOL0     C58968  10.627   3.446  -0.024  0.0338  0.0075 -0.1357
  428MOL0     C58969  10.645   3.344  -0.140 -1.2406  0.5730  0.6647
  428MOL0     C58970  10.798   3.354  -0.176 -0.1825 -0.8602 -0.1032
  428MOL0    Cl58971  10.814   3.311  -0.350 -0.0466 -0.1567  0.3484
  428MOL0     C58972  10.028   3.124   0.342  0.6427  0.0439  0.3290
  428MOL0     C58973   9.975   3.100   0.467 -0.5496  1.1033 -0.6953
  428MOL0     O58974   9.738   3.062   0.627 -0.0560  0.3390 -0.3387
  428MOL0     C58975   9.700   3.056   0.920  0.3302  0.1113  0.4561
  428MOL0     C58976   9.675   3.028   1.051  0.0764 -0.3274 -0.1836
  428MOL0     N58977   9.827   2.591   1.399  0.3500  0.2098  1.1133
  428MOL0     N58978   9.776   2.484   1.439 -0.4678 -0.8580 -0.1505
  428MOL0     C58979  10.239   1.470   1.658  0.1931 -0.4196 -0.5788
  428MOL0     C58980  10.363   1.400   1.619  0.2548 -0.2432 -0.3852
  428MOL0     C58981  10.776   1.366   1.448 -0.8500 -0.0236 -0.6410
  428MOL0     C58982  10.784   1.290   1.324  0.1907  0.6474  0.3098
  428MOL0     C58983  10.888   1.204   1.294 -0.1080  0.2738 -0.4127
  428MOL0     C58984  10.996   1.185   1.379  0.3826  0.5948 -0.2342
  428MOL0     O58985  11.096   1.097   1.362 -0.4006  0.9196 -0.3474
  428MOL0     C58986  11.096   1.005   1.254  0.6226  0.1017 -1.5302
  428MOL0     C58987  11.215   0.898   1.248  0.4935 -0.6835 -0.3446
  428MOL0     C58988  11.210   0.783   1.139  0.7245 -0.4253 -0.2653
  428MOL0     C58989  11.217   0.827   0.989 -0.8633 -0.8842 -0.0644
  428MOL0     C58990  11.235   0.708   0.905  0.3017 -0.1139  0.7391
  428MOL0     C58991  11.242   0.616   0.832 -0.5162 -0.0477  0.8433
  428MOL0     C58992  10.998   1.262   1.495  0.3812 -0.0137  0.7260
  428MOL0     C58993  10.891   1.353   1.527 -0.6234  0.8434 -0.6830
  428MOL0     C58994  10.905   1.417   1.668 -0.7160 -0.6935  0.0452
  428MOL0     H58995  10.429   1.593   1.347 -2.6477  2.1475 -0.1125
  428MOL0     H58996  10.245   1.716   1.441 -3.0679 -1.2285  0.1733
  428MOL0     H58997  10.168   1.720   1.788  0.6127 -3.2777 -1.3239
  428MOL0     H58998  10.036   1.606   1.811 -3.2535  1.2913  0.2597
  428MOL0     H58999   9.862   1.756   1.707 -0.7167  1.7829  1.2458
  428MOL0     H59000   9.945   1.831   1.847  0.7060 -2.7453  0.7052
  428MOL0     H59001  10.044   1.879   1.569  1.7099 -2.2275  1.5146
  428MOL0     H59002   9.912   1.967   1.633  0.2844  0.9377  0.0392
  428MOL0     H59003  10.053   2.041   1.831 -0.8210 -4.0515  0.8085
  428MOL0     H59004  10.177   1.947   1.768 -0.1059 -2.0707 -0.9588
  428MOL0     H59005  10.197   2.106   1.555 -1.1416  0.7000 -1.2700
  428MOL0     H59006  10.198   2.191   1.705  0.6278  0.4737 -0.4572
  428MOL0     H59007  10.076   2.326   1.563 -1.7627  0.7194 -0.9529
  428MOL0     H59008   9.970   2.185   1.516 -1.4402 -2.5963  1.3915
  428MOL0     H59009   9.960   2.328   1.784 -1.1880 -0.0292  0.3674
  428MOL0     H59010   9.879   2.177   1.748 -1.8977  0.0684 -1.2708
  428MOL0     H59011   9.766   2.257   1.569  0.8705 -0.7811  0.2356
  428MOL0     H59012   9.737   2.354   1.719  1.5858 -0.8335  1.7526
  428MOL0     H59013   9.967   2.561   1.688 -1.9447 -2.2983  1.0736
  428MOL0     H59014  10.087   2.730   1.396  1.1170  0.1332  0.1127
  428MOL0     H59015  10.087   2.758   1.569 -0.3932  1.9356  0.1201
  428MOL0     H59016   9.916   2.917   1.562 -0.9544 -2.6077 -0.9468
  428MOL0     H59017  10.066   2.964   1.471 -0.6345  1.7015  1.6781
  428MOL0     H59018   9.922   3.030   1.304  3.0612 -0.0132  0.5089
  428MOL0     H59019   9.933   2.870   1.262  2.2153  1.4888  0.0794
  428MOL0     H59020   9.698   2.861   1.439 -2.1794 -1.3451 -1.6170
  428MOL0     H59021   9.717   3.031   1.383 -1.7442 -0.3978  1.2056
  428MOL0     H59022   9.770   2.712   1.068 -3.4141 -0.6761 -0.7452
  428MOL0     H59023   9.944   2.697   0.807 -1.2010 -0.5459 -3.1539
  428MOL0     H59024   9.780   2.708   0.730  0.7338  1.9176  0.0920
  428MOL0     H59025   9.810   2.618   0.880  0.8894 -1.0711 -0.2251
  428MOL0     H59026  10.030   2.767   0.496  3.0237 -0.1242  0.4385
  428MOL0     H59027  10.115   2.807   0.261 -1.1844 -0.4740  1.5520
  428MOL0     H59028  10.323   2.977   0.110  0.4274 -0.1373  1.9076
  428MOL0     H59029  10.260   3.111   0.018  2.0527  1.7542  0.9951
  428MOL0     H59030  10.249   3.235   0.256 -1.1478 -0.5962  1.2412
  428MOL0     H59031  10.376   3.119   0.303  0.0166  2.8032  0.3710
  428MOL0     H59032  10.522   3.168   0.109 -0.5204 -0.8049 -0.7917
  428MOL0     H59033  10.495   3.312   0.198 -0.2139 -0.9146 -0.2823
  428MOL0     H59034  10.289   3.339   0.022  0.1725  1.7169 -0.0912
  428MOL0     H59035  10.393   3.264  -0.076  0.1005  1.2028 -1.1481
  428MOL0     H59036  10.427   3.493  -0.089 -2.5765 -1.5314  0.2332
  428MOL0     H59037  10.464   3.517   0.088 -1.1388 -1.4889 -0.0739
  428MOL0     H59038  10.685   3.435   0.067 -1.1636 -1.4129  0.4949
  428MOL0     H59039  10.662   3.543  -0.061 -0.5172 -0.9292 -3.5239
  428MOL0     H59040  10.585   3.367  -0.229  1.3141 -2.4331 -2.1041
  428MOL0     H59041  10.614   3.244  -0.107  3.8092 -1.8701 -0.9357
  428MOL0     H59042  10.866   3.287  -0.121 -0.5410 -1.3304 -0.2296
  428MOL0     H59043  10.827   3.459  -0.166 -1.3107 -0.5538  0.0594
  428MOL0     H59044  10.020   3.226   0.306 -0.3463 -0.5960 -1.3773
  428MOL0     H59045   9.921   3.179   0.517 -3.1940 -0.4949 -0.8224
  428MOL0     H59046   9.652   3.139   0.868 -2.3152 -0.6284  1.5532
  428MOL0     H59047   9.611   3.098   1.103 -0.7747  1.7635 -3.6749
  428MOL0     H59048  10.159   1.420   1.712 -0.3267 -0.1502 -1.0958
  428MOL0     H59049  10.375   1.302   1.664  2.0681 -0.6068 -1.5223
  428MOL0     H59050  10.707   1.291   1.248  0.6960 -0.2251 -0.2192
  428MOL0     H59051  10.878   1.150   1.201 -2.2654 -1.0873  0.5475
  428MOL0     H59052  11.001   0.953   1.241 -0.8222  1.7498  1.4199
  428MOL0     H59053  11.101   1.071   1.167  0.5648  3.3574  0.7478
  428MOL0     H59054  11.224   0.840   1.341 -1.7788 -2.9547 -1.3917
  428MOL0     H59055  11.311   0.950   1.242 -0.5998  1.7848  1.7004
  428MOL0     H59056  11.294   0.715   1.158 -1.1642 -2.1217  2.7220
  428MOL0     H59057  11.119   0.726   1.160  0.6461  0.9352  3.8894
  428MOL0     H59058  11.294   0.902   0.973  2.0564 -3.3207  1.6230
  428MOL0     H59059  11.123   0.871   0.952 -0.3482  1.5567  1.3640
  428MOL0     H59060  11.245   0.549   0.748 -2.5222  0.2128  0.5168
  428MOL0     H59061  11.061   1.239   1.580  0.1779 -1.0524  0.6128
  428MOL0     H59062  10.954   1.357   1.744 -1.1377 -1.9857 -0.6720
  428MOL0     H59063  10.954   1.515   1.662  0.7018 -1.4229 -0.8098
  428MOL0     H59064  10.803   1.431   1.705 -0.2617  1.8588  0.5235
  429MOL0     O59065   7.717   6.361   6.413  0.5697 -0.3197  0.9044
  429MOL0     C59066   7.623   6.425   6.366  0.1519 -0.2840  0.5355
  429MOL0     O59067   7.496   6.416   6.403  0.9865 -0.1064 -0.4604
  429MOL0     C59068   7.467   6.350   6.513  0.4254 -1.1185  0.2201
  429MOL0     C59069   7.375   6.241   6.508 -0.3725 -0.7537 -0.8506
  429MOL0     C59070   7.347   6.172   6.624  0.3955  0.3349  0.0874
  429MOL0     C59071   7.388   6.216   6.750  0.7073 -0.7827  0.6381
  429MOL0     O59072   7.354   6.158   6.861  0.2333 -0.5493 -0.4256
  429MOL0     C59073   7.455   6.091   6.934 -0.2279  0.3544 -0.4656
  429MOL0     C59074   7.400   5.963   6.983  0.0531  0.5981 -0.4440
  429MOL0     C59075   7.448   5.943   7.125  0.4372  0.3701  0.3998
  429MOL0     C59076   7.439   5.795   7.169 -0.4500 -0.2407 -0.2056
  429MOL0     C59077   7.297   5.754   7.190  0.3233 -0.7381  0.2023
  429MOL0     C59078   7.279   5.633   7.283 -0.2683  0.6614  0.4963
  429MOL0     C59079   7.135   5.575   7.290  0.4339  0.0381  0.6895
  429MOL0     C59080   7.130   5.423   7.321  0.1931  0.5471  0.1869
  429MOL0     N59081   7.216   5.373   7.427  0.6705  0.7077  0.1940
  429MOL0     C59082   7.196   5.383   7.562  0.1212 -0.6362 -0.1526
  429MOL0     C59083   7.298   5.316   7.630 -0.0847  0.1356  0.6438
  429MOL0     C59084   7.322   5.312   7.780  0.1495  0.0208 -0.4193
  429MOL0     C59085   7.269   5.190   7.849 -0.2197  0.3621 -0.3353
  429MOL0     C59086   7.273   5.208   8.002  0.2465  0.0109 -0.3834
  429MOL0     C59087   7.139   5.229   8.072  0.6191 -0.5185 -0.2053
  429MOL0     O59088   7.060   5.110   8.041 -0.6253 -0.8589  0.6135
  429MOL0     C59089   7.039   5.016   8.133  1.2206  0.8530 -0.5571
  429MOL0     C59090   6.966   4.901   8.084  0.4660 -0.1864  0.1796
  429MOL0     C59091   6.941   4.787   8.160  0.5108  0.0370 -0.5196
  429MOL0     C59092   6.844   4.679   8.101  1.3189  0.2643  0.5966
  429MOL0     C59093   6.973   4.791   8.298  0.9824  0.3852  0.0530
  429MOL0     C59094   6.932   4.692   8.402 -0.0555  0.1969  0.4195
  429MOL0     O59095   6.961   4.726   8.525 -0.2510 -0.2362 -0.2784
  429MOL0     C59096   6.966   4.637   8.632  0.8627  1.4086  0.6892
  429MOL0     C59097   6.849   4.601   8.695 -1.4742 -0.0615  0.1036
  429MOL0     C59098   6.849   4.519   8.806  0.3339  0.8654  0.4834
  429MOL0     C59099   6.966   4.465   8.860  0.2189 -1.7182 -0.7536
  429MOL0     O59100   6.967   4.397   8.979 -0.2269 -0.3698 -0.1894
  429MOL0     C59101   7.053   4.284   8.967 -0.1487 -0.8026 -0.3588
  429MOL0     C59102   6.975   4.151   9.006  0.0853 -0.5756  0.4750
  429MOL0     C59103   6.855   4.121   8.920 -0.2673  0.6720  0.3903
  429MOL0     C59104   6.880   4.106   8.770 -0.9997  0.5279  1.0346
  429MOL0     C59105   6.759   4.065   8.694  0.2272  0.2281  0.9278
  429MOL0     C59106   6.801   4.070   8.535 -0.0293 -0.8060 -0.0824
  429MOL0     C59107   6.802   4.211   8.475 -0.4642 -0.4944 -0.1140
  429MOL0     C59108   6.828   4.224   8.321 -0.0286 -0.4255  0.3257
  429MOL0    Cl59109   6.998   4.165   8.325  0.1352  0.3357 -0.7000
  429MOL0     C59110   7.083   4.508   8.796 -0.7087  0.0250 -1.2116
  429MOL0     C59111   7.083   4.587   8.686 -0.7052 -0.3755 -0.3766
  429MOL0     O59112   6.864   4.594   8.374  0.0701  0.1047 -0.1207
  429MOL0     C59113   7.046   4.900   8.349  0.6591 -0.0597 -0.6041
  429MOL0     C59114   7.089   5.006   8.265 -0.1634  0.4612  0.0038
  429MOL0     N59115   7.373   5.251   7.520 -0.5930 -0.9324 -0.0671
  429MOL0     N59116   7.325   5.291   7.401  0.1213 -0.0893 -0.1100
  429MOL0     C59117   7.461   6.327   6.755 -0.2798  0.6250 -0.5296
  429MOL0     C59118   7.512   6.383   6.640 -0.0628 -0.0502 -0.7937
  429MOL0     C59119   7.656   6.530   6.257 -0.8253  0.0997  0.3172
  429MOL0     C59120   7.566   6.635   6.232 -0.0023  0.2034 -0.1550
  429MOL0     C59121   7.607   6.735   6.153  0.1814 -0.6011  0.1244
  429MOL0     C59122   7.732   6.733   6.088 -0.1327  0.7807  0.6186
  429MOL0     O59123   7.764   6.851   6.035 -0.6048  0.4396 -0.7183
  429MOL0     C59124   7.895   6.871   5.980  0.3979  0.4424 -0.4794
  429MOL0     C59125   7.886   7.011   5.913  0.3651  1.0225  0.8424
  429MOL0     C59126   7.789   7.013   5.793  0.3955  0.1246  0.3818
  429MOL0     C59127   7.789   6.888   5.699  0.3468  0.3397  0.0377
  429MOL0     C59128   7.924   6.866   5.654  0.2314 -0.3468  0.2399
  429MOL0     C59129   8.037   6.866   5.612 -0.1827  0.3762 -0.0755
  429MOL0     C59130   7.815   6.622   6.100 -0.0006 -0.2302 -0.8811
  429MOL0     C59131   7.780   6.523   6.183 -0.2104 -0.7898 -1.0598
  429MOL0     C59132   7.878   6.404   6.184 -0.9824  0.2409  1.0557
  429MOL0     H59133   7.345   6.220   6.406 -2.1109 -0.3173 -0.4547
  429MOL0     H59134   7.271   6.097   6.607 -1.6807  2.3381  0.0815
  429MOL0     H59135   7.478   6.157   7.018 -2.7644  0.4155  0.2510
  429MOL0     H59136   7.538   6.077   6.864  0.2080 -1.1001  0.2995
  429MOL0     H59137   7.291   5.968   6.982 -0.1893 -2.4863 -0.8135
  429MOL0     H59138   7.421   5.881   6.914  2.3640  0.0727  0.7574
  429MOL0     H59139   7.554   5.967   7.136  0.4947  0.1896  0.2519
  429MOL0     H59140   7.400   6.015   7.191  2.4070  2.7538 -0.6096
  429MOL0     H59141   7.482   5.731   7.092 -0.4217  0.3982 -0.7353
  429MOL0     H59142   7.492   5.778   7.263 -2.1360  2.5742  1.4017
  429MOL0     H59143   7.246   5.725   7.098  2.8825  1.3712 -2.0601
  429MOL0     H59144   7.244   5.838   7.236 -0.0424 -0.2936 -0.9976
  429MOL0     H59145   7.337   5.550   7.243 -0.0372  1.2358 -0.4018
  429MOL0     H59146   7.301   5.666   7.385  1.3716  0.1068  0.3496
  429MOL0     H59147   7.089   5.599   7.193 -0.2821  2.1459  1.4725
  429MOL0     H59148   7.072   5.625   7.365  0.4606 -0.9154  1.3536
  429MOL0     H59149   7.030   5.390   7.348  0.9904 -0.5590  2.0005
  429MOL0     H59150   7.154   5.364   7.232  0.4541 -0.5965  0.9862
  429MOL0     H59151   7.121   5.439   7.616 -0.8464 -4.1851  2.5132
  429MOL0     H59152   7.286   5.410   7.815 -2.1577 -0.5382 -1.0673
  429MOL0     H59153   7.427   5.324   7.810 -0.2293  1.3762  0.4870
  429MOL0     H59154   7.162   5.179   7.829 -1.4929  2.2985  4.1361
  429MOL0     H59155   7.331   5.104   7.820 -1.0828 -1.0562  1.7687
  429MOL0     H59156   7.307   5.113   8.043  0.3096 -0.1654 -0.8380
  429MOL0     H59157   7.348   5.283   8.028 -0.5617  0.6693  0.1274
  429MOL0     H59158   7.134   5.246   8.180  1.4227  0.8471 -0.3645
  429MOL0     H59159   7.099   5.317   8.022  1.8037  1.6134  2.3843
  429MOL0     H59160   6.911   4.903   7.990 -1.0285 -1.0205  0.9998
  429MOL0     H59161   6.745   4.681   8.147  1.9352 -3.1040  2.4368
  429MOL0     H59162   6.889   4.579   8.109 -0.0271 -0.6405 -2.0038
  429MOL0     H59163   6.835   4.702   7.995  0.9415 -0.6950  0.4124
  429MOL0     H59164   6.754   4.648   8.675 -1.1846  0.2386 -0.5799
  429MOL0     H59165   6.757   4.499   8.860 -0.8653  2.2578 -0.9546
  429MOL0     H59166   7.086   4.275   8.863 -1.3427 -0.1106 -0.8102
  429MOL0     H59167   7.148   4.288   9.022 -0.7468  0.1400  0.6318
  429MOL0     H59168   7.048   4.069   9.004 -0.2581 -0.9117  1.2044
  429MOL0     H59169   6.938   4.165   9.108  1.6528  2.1773  0.7551
  429MOL0     H59170   6.776   4.194   8.934 -1.9248 -1.2052  1.3719
  429MOL0     H59171   6.822   4.024   8.959 -0.0301  1.5113  2.7966
  429MOL0     H59172   6.963   4.039   8.746 -1.5055 -1.3913  4.0646
  429MOL0     H59173   6.914   4.208   8.749  5.6706 -1.4725 -0.2528
  429MOL0     H59174   6.718   3.968   8.723 -0.7005  0.1519 -0.5315
  429MOL0     H59175   6.677   4.132   8.724  0.3564  1.9054 -2.0503
  429MOL0     H59176   6.719   4.019   8.483  0.2065  0.0866 -1.3970
  429MOL0     H59177   6.895   4.015   8.524  1.1878  1.1462  0.0231
  429MOL0     H59178   6.875   4.272   8.529  0.9797 -2.4363  0.2504
  429MOL0     H59179   6.707   4.256   8.506 -1.5846 -1.4266 -1.9674
  429MOL0     H59180   6.821   4.324   8.278  1.4805 -0.6268 -0.4394
  429MOL0     H59181   6.769   4.149   8.268 -0.9192  0.2387  0.3577
  429MOL0     H59182   7.173   4.470   8.845 -0.9484  0.3374 -0.5187
  429MOL0     H59183   7.178   4.615   8.640 -1.4034 -0.9815 -2.2844
  429MOL0     H59184   7.083   4.914   8.450  3.0157  2.2744 -1.6774
  429MOL0     H59185   7.157   5.084   8.299  3.3959 -2.5223  0.3011
  429MOL0     H59186   7.484   6.369   6.852  0.9981 -0.8653 -0.1425
  429MOL0     H59187   7.584   6.464   6.651  0.3527 -0.6341  1.1482
  429MOL0     H59188   7.472   6.658   6.281  0.7816  3.4690  0.0089
  429MOL0     H59189   7.540   6.820   6.140  0.3791 -0.3782  0.5754
  429MOL0     H59190   7.964   6.876   6.064 -0.9571  2.0257  0.6132
  429MOL0     H59191   7.920   6.787   5.913 -1.6649  0.8093 -1.8113
  429MOL0     H59192   7.983   7.031   5.869 -1.4497  1.4320 -3.4659
  429MOL0     H59193   7.851   7.081   5.989  0.9309  1.7833  0.4116
  429MOL0     H59194   7.684   7.006   5.824 -0.7586  0.4651 -3.0942
  429MOL0     H59195   7.788   7.110   5.742 -0.3934  0.5449  1.1610
  429MOL0     H59196   7.726   6.912   5.613 -2.0296 -0.1385  1.5443
  429MOL0     H59197   7.748   6.800   5.751  0.0311  0.6241  0.2755
  429MOL0     H59198   8.137   6.881   5.579 -0.4794  1.4385 -0.5557
  429MOL0     H59199   7.915   6.619   6.057  0.8104  0.8212  0.8142
  429MOL0     H59200   7.929   6.400   6.281 -3.0263 -1.2763  2.1520
  429MOL0     H59201   7.814   6.317   6.164 -3.6511  2.2837  0.0485
  429MOL0     H59202   7.943   6.415   6.097 -2.7766  0.8520 -0.2801
  430MOL0     O59203   3.289   2.939   3.754 -0.8212  0.3811 -0.1191
  430MOL0     C59204   3.400   2.912   3.786 -1.0013 -0.0680  1.1740
  430MOL0     O59205   3.440   2.869   3.908 -0.3714 -0.1566  0.3475
  430MOL0     C59206   3.352   2.851   4.013 -0.1497  0.0273 -0.6700
  430MOL0     C59207   3.409   2.861   4.139 -0.4183  0.5670 -0.4261
  430MOL0     C59208   3.334   2.860   4.257  0.8036  0.9546 -0.0376
  430MOL0     C59209   3.190   2.858   4.254  0.2087  0.5644 -0.0818
  430MOL0     O59210   3.124   2.857   4.372  0.3477  0.6249  0.0819
  430MOL0     C59211   2.982   2.817   4.370  1.1903 -0.2613 -0.3351
  430MOL0     C59212   2.955   2.792   4.528  0.0791 -0.4994  0.6593
  430MOL0     C59213   3.047   2.672   4.575  0.3004  1.5316  0.4103
  430MOL0     C59214   2.972   2.566   4.660 -0.8937  0.2065  0.0470
  430MOL0     C59215   3.066   2.438   4.703 -0.2537 -1.3803  0.3330
  430MOL0     C59216   3.202   2.472   4.765  0.3125 -0.5904 -0.2261
  430MOL0     C59217   3.270   2.327   4.805 -0.0358  0.9417 -0.6056
  430MOL0     C59218   3.367   2.284   4.696 -0.0471  1.6802  2.0717
  430MOL0     N59219   3.316   2.283   4.556  0.1837  0.7894 -1.0524
  430MOL0     C59220   3.284   2.162   4.499 -0.1044  0.3306  0.1669
  430MOL0     C59221   3.260   2.189   4.369  0.5508 -0.5916  0.0202
  430MOL0     C59222   3.247   2.074   4.271 -0.4074  0.1223  1.3116
  430MOL0     C59223   3.128   1.983   4.289  0.2463  0.7120  0.6810
  430MOL0     C59224   2.992   2.046   4.253  0.4403 -0.4481  0.0713
  430MOL0     C59225   2.870   1.965   4.226  0.3617 -0.0507  0.4368
  430MOL0     O59226   2.908   1.864   4.126  0.4684 -0.3898  0.3413
  430MOL0     C59227   2.864   1.729   4.139  0.5101 -0.7629 -0.3698
  430MOL0     C59228   2.933   1.626   4.086  0.0954 -0.4659 -0.3232
  430MOL0     C59229   2.898   1.489   4.097  0.0292 -0.2125  0.5771
  430MOL0     C59230   2.975   1.391   4.022  0.9016  0.8914 -0.1645
  430MOL0     C59231   2.778   1.459   4.177 -0.2299 -0.3992 -0.6391
  430MOL0     C59232   2.728   1.325   4.188  0.0098 -0.2742  0.3525
  430MOL0     O59233   2.587   1.318   4.210  0.0092 -0.4772 -0.4418
  430MOL0     C59234   2.521   1.198   4.194 -0.4659 -1.2048 -0.1841
  430MOL0     C59235   2.533   1.134   4.067 -0.0860  0.4615 -0.4311
  430MOL0     C59236   2.465   1.017   4.034  0.0216 -0.0226  0.2111
  430MOL0     C59237   2.375   0.960   4.128 -0.2328  0.1390  0.2334
  430MOL0     O59238   2.317   0.839   4.087  0.0420 -0.6322  0.2451
  430MOL0     C59239   2.299   0.727   4.166  0.4961  0.3902  0.3125
  430MOL0     C59240   2.257   0.605   4.087  0.2632  0.2598  1.1345
  430MOL0     C59241   2.362   0.574   3.976 -0.7108  0.4004  0.7268
  430MOL0     C59242   2.325   0.451   3.891  0.7285  0.2053 -0.0512
  430MOL0     C59243   2.441   0.425   3.798  0.4083  0.2423 -1.0114
  430MOL0     C59244   2.409   0.452   3.645  0.6374  0.3634  0.6394
  430MOL0     C59245   2.537   0.474   3.564  0.3613  0.5625  0.4761
  430MOL0     C59246   2.636   0.361   3.551 -0.3221  0.5048  0.1946
  430MOL0    Cl59247   2.768   0.362   3.681 -0.4543  0.2406 -0.2163
  430MOL0     C59248   2.349   1.028   4.251 -0.7224  0.0978  0.5119
  430MOL0     C59249   2.425   1.149   4.282  0.1375  0.1317  1.1230
  430MOL0     O59250   2.796   1.226   4.190 -0.4699 -0.3159 -0.1333
  430MOL0     C59251   2.702   1.563   4.231 -0.1588 -0.3301  0.7517
  430MOL0     C59252   2.750   1.697   4.213 -0.4788 -0.0928 -0.9689
  430MOL0     N59253   3.280   2.320   4.349  0.1083 -0.5786 -0.5249
  430MOL0     N59254   3.326   2.376   4.462 -0.3070  0.3988  0.7056
  430MOL0     C59255   3.134   2.865   4.129 -0.4139  0.6649 -0.0809
  430MOL0     C59256   3.208   2.860   4.012  0.2880  0.0908  0.7149
  430MOL0     C59257   3.505   2.942   3.679 -0.0229  0.5634  0.1979
  430MOL0     C59258   3.479   2.903   3.550 -0.3491  0.3485 -0.7858
  430MOL0     C59259   3.567   2.908   3.444 -0.6627 -0.6227 -0.5249
  430MOL0     C59260   3.689   2.973   3.483 -0.1192  0.5681  1.2274
  430MOL0     O59261   3.789   3.002   3.393 -0.4770  0.1566 -0.0460
  430MOL0     C59262   3.836   2.894   3.302 -0.3173  0.0668  0.4636
  430MOL0     C59263   3.986   2.929   3.261  1.0560  0.0846  0.5509
  430MOL0     C59264   4.056   2.812   3.187  0.3890 -0.0843 -0.3345
  430MOL0     C59265   3.980   2.753   3.074  0.2279 -0.2076  0.0936
  430MOL0     C59266   4.082   2.697   2.986 -0.2424 -0.1977  0.4692
  430MOL0     C59267   4.168   2.653   2.915 -0.3433  1.0032  0.2522
  430MOL0     C59268   3.711   3.030   3.608 -1.2333 -0.4209 -0.2415
  430MOL0     C59269   3.615   3.020   3.719  0.3740  0.3320  0.3008
  430MOL0     C59270   3.644   3.077   3.854 -0.3218  0.1782 -0.3842
  430MOL0     H59271   3.516   2.869   4.154 -0.5468 -0.1764  1.0072
  430MOL0     H59272   3.378   2.870   4.356 -0.6499  1.0860  0.6248
  430MOL0     H59273   2.957   2.724   4.317 -0.9304  1.1225 -1.9253
  430MOL0     H59274   2.922   2.900   4.330  3.0583  2.2487  1.7107
  430MOL0     H59275   2.997   2.875   4.585 -0.2959  0.0911  0.0877
  430MOL0     H59276   2.853   2.797   4.568  1.5734  1.9716  4.7308
  430MOL0     H59277   3.106   2.631   4.492  0.6679  2.2373  0.3213
  430MOL0     H59278   3.127   2.714   4.636 -0.3204  2.2408  0.7567
  430MOL0     H59279   2.930   2.614   4.749  1.1961 -1.5533  2.1553
  430MOL0     H59280   2.893   2.520   4.600 -0.6472 -1.4005  0.9020
  430MOL0     H59281   3.079   2.364   4.624  2.7784  1.0219 -1.6386
  430MOL0     H59282   3.013   2.384   4.783  0.6157 -1.2194  1.0453
  430MOL0     H59283   3.259   2.536   4.697  0.9293  1.9017  2.4128
  430MOL0     H59284   3.190   2.539   4.851 -1.7314 -1.3622  0.1390
  430MOL0     H59285   3.185   2.260   4.819 -0.8484  2.0356 -0.1150
  430MOL0     H59286   3.328   2.325   4.898 -0.6054 -4.2785 -0.0672
  430MOL0     H59287   3.458   2.345   4.702  1.0159  0.3565  0.3517
  430MOL0     H59288   3.403   2.185   4.725  4.1126  2.3140 -0.2153
  430MOL0     H59289   3.282   2.061   4.538 -2.7990 -0.5723 -1.9947
  430MOL0     H59290   3.334   2.009   4.285  1.3687  1.6934 -1.4804
  430MOL0     H59291   3.248   2.112   4.169 -0.5991  0.3698  1.4023
  430MOL0     H59292   3.141   1.893   4.227 -1.8393  1.8169 -1.5488
  430MOL0     H59293   3.127   1.961   4.396 -1.0612  1.1992  0.7839
  430MOL0     H59294   2.966   2.122   4.328 -2.6220 -0.4505 -0.8551
  430MOL0     H59295   3.015   2.104   4.163 -2.3051 -1.2895 -1.2835
  430MOL0     H59296   2.842   1.925   4.324  0.6634 -3.6789 -0.8107
  430MOL0     H59297   2.791   2.024   4.179  2.3114  0.6014 -2.2090
  430MOL0     H59298   3.028   1.658   4.044  0.2212 -0.2093  0.1573
  430MOL0     H59299   2.922   1.345   3.938 -1.3190 -0.1782  1.7307
  430MOL0     H59300   3.006   1.306   4.083  0.6670 -1.9965 -3.6945
  430MOL0     H59301   3.066   1.437   3.980  0.7306  0.4694 -1.0266
  430MOL0     H59302   2.597   1.186   3.997  1.7176 -0.2478  0.6155
  430MOL0     H59303   2.463   0.971   3.936  0.0668 -2.5011  1.3103
  430MOL0     H59304   2.405   0.708   4.188  1.2490 -0.3130 -3.2324
  430MOL0     H59305   2.229   0.741   4.248 -2.8428  0.7224 -2.3743
  430MOL0     H59306   2.244   0.515   4.148 -1.0762  0.2665  0.8767
  430MOL0     H59307   2.174   0.637   4.024  0.7594  0.3499  0.5142
  430MOL0     H59308   2.455   0.562   4.032 -1.1024 -2.0281  0.9828
  430MOL0     H59309   2.362   0.662   3.911 -0.8988  0.1875  0.4341
  430MOL0     H59310   2.229   0.476   3.844 -1.1954 -2.8593  1.9176
  430MOL0     H59311   2.296   0.357   3.938 -1.7698 -0.1531 -2.0854
  430MOL0     H59312   2.529   0.480   3.831 -0.0474 -0.0739  0.8569
  430MOL0     H59313   2.477   0.322   3.808 -2.1982 -0.7122 -0.5922
  430MOL0     H59314   2.337   0.533   3.631  1.7207  2.4445  5.3325
  430MOL0     H59315   2.359   0.363   3.605 -0.7167  1.7625 -0.9400
  430MOL0     H59316   2.590   0.558   3.609  1.7247  0.0644 -0.1318
  430MOL0     H59317   2.502   0.496   3.462  2.6780  0.4099 -0.4084
  430MOL0     H59318   2.682   0.373   3.453 -0.8554  2.8657  0.1685
  430MOL0     H59319   2.585   0.264   3.555  0.2660  0.1260 -1.0294
  430MOL0     H59320   2.276   0.989   4.320 -2.0820  2.3999  0.4486
  430MOL0     H59321   2.403   1.203   4.373 -1.2554  3.3390 -0.9603
  430MOL0     H59322   2.631   1.546   4.312  0.1639  2.3505  1.7008
  430MOL0     H59323   2.701   1.759   4.288  1.0892 -2.5096  2.3208
  430MOL0     H59324   3.026   2.857   4.115 -0.4479 -1.7068  0.8904
  430MOL0     H59325   3.155   2.855   3.918 -0.2517  0.8553  0.9684
  430MOL0     H59326   3.378   2.868   3.528 -0.9742  1.9008 -0.4827
  430MOL0     H59327   3.551   2.865   3.346  2.7860 -0.7319 -1.1749
  430MOL0     H59328   3.822   2.804   3.362 -1.7871  0.2595  0.4383
  430MOL0     H59329   3.784   2.887   3.207  1.4827 -1.1316 -0.4965
  430MOL0     H59330   4.035   2.960   3.354  0.3345 -0.1798  1.0352
  430MOL0     H59331   3.992   3.014   3.193  2.1421 -0.3048  0.1456
  430MOL0     H59332   4.150   2.855   3.154  1.2172  2.5603  4.5176
  430MOL0     H59333   4.070   2.733   3.261 -1.2492 -1.3330 -1.2738
  430MOL0     H59334   3.927   2.831   3.018  1.5042  0.0776 -0.7706
  430MOL0     H59335   3.902   2.684   3.106 -0.6890  0.1784 -1.2321
  430MOL0     H59336   4.227   2.615   2.834 -0.9938  1.3976 -0.4184
  430MOL0     H59337   3.808   3.076   3.626 -0.2102 -3.3171  2.5182
  430MOL0     H59338   3.712   3.160   3.839 -1.0468  0.5958 -1.4800
  430MOL0     H59339   3.552   3.098   3.909 -1.9272 -2.5723 -1.7785
  430MOL0     H59340   3.691   3.002   3.919 -1.6999 -0.3849  0.0100
  431MOL0     O59341   7.391   6.350   5.455 -0.6526 -0.0849 -0.3198
  431MOL0     C59342   7.374   6.413   5.556 -0.9255  0.1591  0.2284
  431MOL0     O59343   7.475   6.478   5.627 -0.2873 -0.6656  0.1860
  431MOL0     C59344   7.615   6.458   5.619  0.5676  0.1146  0.0310
  431MOL0     C59345   7.688   6.531   5.710 -0.6423  0.5813 -0.2785
  431MOL0     C59346   7.832   6.514   5.708  0.7534  0.6503 -1.0864
  431MOL0     C59347   7.891   6.410   5.635  0.3724  0.0144  1.4202
  431MOL0     O59348   8.027   6.383   5.653  0.2896 -0.1698 -0.5709
  431MOL0     C59349   8.092   6.253   5.616  0.2744  0.9438  0.7038
  431MOL0     C59350   8.245   6.273   5.629 -0.3693  0.8741 -0.4947
  431MOL0     C59351   8.288   6.293   5.780 -0.6572  0.1191 -0.1430
  431MOL0     C59352   8.292   6.166   5.863  0.0903  0.2465  0.6754
  431MOL0     C59353   8.348   6.204   6.006  0.7698 -0.1373  0.4629
  431MOL0     C59354   8.476   6.284   6.011 -0.0464 -0.5472  0.3176
  431MOL0     C59355   8.548   6.278   6.150 -0.1892 -0.4151  0.8558
  431MOL0     C59356   8.700   6.293   6.152  0.0310  1.1408  0.1726
  431MOL0     N59357   8.771   6.355   6.036  0.4067  0.3069  0.5945
  431MOL0     C59358   8.864   6.287   5.962 -0.5980 -0.5302 -0.9344
  431MOL0     C59359   8.906   6.375   5.868  0.4766 -0.8358  0.9838
  431MOL0     C59360   9.016   6.352   5.771 -0.4730  0.0921 -0.3164
  431MOL0     C59361   9.065   6.208   5.760 -0.3584  0.3562 -0.0266
  431MOL0     C59362   9.137   6.170   5.630 -0.4282  0.1641  0.5477
  431MOL0     C59363   9.263   6.240   5.616 -0.1549  0.3846 -0.6637
  431MOL0     O59364   9.324   6.303   5.731 -0.5021  0.2979 -0.2770
  431MOL0     C59365   9.422   6.244   5.806  0.7127 -0.5374 -0.6864
  431MOL0     C59366   9.480   6.121   5.769  0.0756 -0.3319 -0.5854
  431MOL0     C59367   9.568   6.049   5.850 -0.4782  0.3818 -0.4388
  431MOL0     C59368   9.619   5.920   5.799 -0.4617 -0.1961  0.1008
  431MOL0     C59369   9.593   6.096   5.995  0.8639 -0.2615  0.8433
  431MOL0     C59370   9.690   6.038   6.090  0.4929  0.3750 -0.5249
  431MOL0     O59371   9.683   6.087   6.217  0.5985  0.4999 -0.1681
  431MOL0     C59372   9.794   6.062   6.300  0.4723 -0.1063 -0.6753
  431MOL0     C59373   9.770   6.116   6.424 -0.5608 -0.4345  0.2759
  431MOL0     C59374   9.842   6.078   6.534 -0.2490 -0.6383  0.1193
  431MOL0     C59375   9.960   6.006   6.513 -0.0461 -1.1750 -0.8739
  431MOL0     O59376  10.027   5.996   6.635  0.4035  0.3806 -0.1153
  431MOL0     C59377  10.167   6.013   6.638 -0.5729 -0.5663  0.0297
  431MOL0     C59378  10.221   6.037   6.786  0.5722 -0.0485  0.8597
  431MOL0     C59379  10.171   6.164   6.851  0.0554  0.1791  0.2971
  431MOL0     C59380  10.244   6.290   6.795  0.1653 -0.3909 -0.6069
  431MOL0     C59381  10.247   6.410   6.899  0.1310 -0.2934 -0.1588
  431MOL0     C59382  10.108   6.472   6.926 -0.3067  0.3025 -0.7671
  431MOL0     C59383  10.120   6.605   7.012  0.2481 -0.4277 -0.0969
  431MOL0     C59384  10.014   6.708   6.978 -0.3595 -0.4889  0.1152
  431MOL0    Cl59385  10.073   6.883   6.990 -0.1271  0.3179  0.3802
  431MOL0     C59386  10.004   5.973   6.386  0.0251  0.0770 -0.5359
  431MOL0     C59387   9.917   5.990   6.282 -0.1897 -0.1693  1.0050
  431MOL0     O59388   9.754   5.938   6.054  0.3633 -0.3175 -0.1485
  431MOL0     C59389   9.522   6.207   6.036 -0.0155  0.0110  0.0380
  431MOL0     C59390   9.453   6.288   5.938  1.0927  0.2043 -0.3624
  431MOL0     N59391   8.830   6.494   5.877  0.4105  0.2673  0.1596
  431MOL0     N59392   8.744   6.471   5.975  0.1346 -0.2888 -0.1346
  431MOL0     C59393   7.810   6.335   5.553 -0.3350 -0.1146  0.8376
  431MOL0     C59394   7.672   6.352   5.542 -0.2057  0.2840  0.7957
  431MOL0     C59395   7.240   6.434   5.608 -0.6346 -0.6501  1.1969
  431MOL0     C59396   7.220   6.549   5.693  1.2033  0.3629 -0.3561
  431MOL0     C59397   7.094   6.573   5.749  0.2948  0.2457 -0.5382
  431MOL0     C59398   6.983   6.492   5.726  0.8739 -0.5311 -0.5058
  431MOL0     O59399   6.860   6.519   5.786 -0.3262 -0.5828 -0.4646
  431MOL0     C59400   6.844   6.588   5.912  0.1832 -0.1780 -0.9521
  431MOL0     C59401   6.704   6.561   5.980  0.0421 -0.1516 -0.5829
  431MOL0     C59402   6.696   6.645   6.106 -0.4336 -0.3785  0.0540
  431MOL0     C59403   6.775   6.593   6.231 -0.7077  0.0050  0.8105
  431MOL0     C59404   6.789   6.445   6.257  0.3718  0.9616  0.6647
  431MOL0     C59405   6.799   6.319   6.259  0.2575  0.4328 -0.1260
  431MOL0     C59406   6.998   6.383   5.635 -0.4324  0.1001 -0.2042
  431MOL0     C59407   7.122   6.354   5.567 -0.0955  0.0835 -0.9235
  431MOL0     C59408   7.124   6.238   5.473  0.2944  0.3638 -0.1090
  431MOL0     H59409   7.645   6.598   5.783  1.8317 -1.2156  3.1391
  431MOL0     H59410   7.898   6.571   5.773  1.4641  0.0612 -1.2889
  431MOL0     H59411   8.071   6.207   5.519 -0.9073 -1.5975  2.0755
  431MOL0     H59412   8.071   6.182   5.697 -2.7916 -0.0100 -0.7540
  431MOL0     H59413   8.303   6.188   5.592  0.3897  0.6190  1.2025
  431MOL0     H59414   8.264   6.356   5.561 -1.6227 -0.7696 -3.0032
  431MOL0     H59415   8.385   6.343   5.788 -1.7566  2.1246  1.9852
  431MOL0     H59416   8.219   6.355   5.838  1.0827  0.2978  1.8491
  431MOL0     H59417   8.196   6.118   5.883 -0.1908  0.1463 -0.8010
  431MOL0     H59418   8.360   6.093   5.817  2.4670  2.1033  1.0519
  431MOL0     H59419   8.376   6.106   6.046  2.2770  0.6683  1.5012
  431MOL0     H59420   8.275   6.254   6.070  2.3503  0.6159  1.7658
  431MOL0     H59421   8.543   6.247   5.933  1.0902  0.0462  0.9778
  431MOL0     H59422   8.460   6.392   6.002  1.8700 -0.3075 -0.8953
  431MOL0     H59423   8.517   6.189   6.205  1.2421 -0.7766  1.1104
  431MOL0     H59424   8.521   6.361   6.217 -1.0379 -2.7951  3.6577
  431MOL0     H59425   8.728   6.336   6.249 -1.3028  1.9090  0.2456
  431MOL0     H59426   8.735   6.190   6.147 -2.5745  0.0886  1.5699
  431MOL0     H59427   8.910   6.194   5.995  0.5539  0.1334 -0.5790
  431MOL0     H59428   9.105   6.410   5.798 -0.1662 -0.3900 -0.2797
  431MOL0     H59429   8.981   6.384   5.673 -0.9382  1.4424  0.2684
  431MOL0     H59430   9.123   6.193   5.851  0.4141 -0.4295 -0.6263
  431MOL0     H59431   8.992   6.128   5.774  2.4951 -2.1509  1.6144
  431MOL0     H59432   9.145   6.061   5.635  1.1202  0.2864  1.9621
  431MOL0     H59433   9.067   6.191   5.549 -1.9857 -0.4837  1.6693
  431MOL0     H59434   9.336   6.182   5.558 -0.8094 -0.9713 -0.1845
  431MOL0     H59435   9.243   6.331   5.559 -1.6901 -0.9160 -2.3286
  431MOL0     H59436   9.451   6.082   5.672 -0.2593  2.1352 -1.5322
  431MOL0     H59437   9.641   5.842   5.872  1.9779  0.1094 -0.1927
  431MOL0     H59438   9.708   5.942   5.738 -1.6618  0.0018 -1.6644
  431MOL0     H59439   9.548   5.888   5.722  1.4828  0.0939 -1.9397
  431MOL0     H59440   9.682   6.176   6.440 -0.3431  0.5204 -1.8277
  431MOL0     H59441   9.819   6.106   6.637  1.1867 -1.9929  0.8695
  431MOL0     H59442  10.224   5.940   6.581 -0.4378 -0.3485 -0.1173
  431MOL0     H59443  10.195   6.109   6.592 -0.7224 -0.8935 -0.7507
  431MOL0     H59444  10.183   5.955   6.848 -1.2627 -0.1686 -0.3543
  431MOL0     H59445  10.330   6.039   6.778  0.6366  2.8907  1.5250
  431MOL0     H59446  10.192   6.159   6.958 -0.4837 -0.8352  0.3675
  431MOL0     H59447  10.063   6.168   6.831  0.4972  0.6001 -2.3869
  431MOL0     H59448  10.193   6.326   6.705  0.7003  1.0087 -0.3688
  431MOL0     H59449  10.345   6.274   6.755 -0.4601  1.7190 -3.3787
  431MOL0     H59450  10.289   6.382   6.997 -1.8945 -2.1808  0.2523
  431MOL0     H59451  10.322   6.481   6.862 -0.9907  0.7402 -0.5184
  431MOL0     H59452  10.045   6.391   6.963 -2.6287  0.4511 -4.0441
  431MOL0     H59453  10.075   6.500   6.826  3.7843 -0.2215 -2.4670
  431MOL0     H59454  10.216   6.652   6.986  0.0689 -0.1956 -0.3452
  431MOL0     H59455  10.123   6.587   7.120  0.5902 -0.2222 -0.0696
  431MOL0     H59456   9.925   6.688   7.039  0.3380  0.1676  1.3826
  431MOL0     H59457   9.988   6.690   6.874 -0.1701 -0.6956  0.1049
  431MOL0     H59458  10.100   5.932   6.359 -0.8367 -1.5969 -1.2084
  431MOL0     H59459   9.951   5.952   6.186 -1.4489  1.9365 -0.3441
  431MOL0     H59460   9.529   6.241   6.139 -3.1583  0.4452  0.1922
  431MOL0     H59461   9.420   6.385   5.974 -2.6114 -0.3237 -1.9318
  431MOL0     H59462   7.840   6.248   5.495 -3.2632 -0.5242 -0.2474
  431MOL0     H59463   7.628   6.283   5.470  0.9664 -0.3320  0.6428
  431MOL0     H59464   7.306   6.609   5.718  0.9561  0.3801  0.4907
  431MOL0     H59465   7.084   6.648   5.828 -3.2610 -0.4579 -0.1218
  431MOL0     H59466   6.914   6.539   5.981 -0.8788 -0.6825 -0.1962
  431MOL0     H59467   6.860   6.694   5.894  1.9011 -0.4908 -1.4459
  431MOL0     H59468   6.707   6.456   6.013 -2.9434 -0.5417 -1.2974
  431MOL0     H59469   6.613   6.579   5.922 -0.0223 -2.2810 -1.2262
  431MOL0     H59470   6.718   6.751   6.098 -3.3032  0.2027 -1.2547
  431MOL0     H59471   6.588   6.639   6.124 -0.5739  3.0013  0.8879
  431MOL0     H59472   6.719   6.624   6.320  0.2912  1.0618  1.0970
  431MOL0     H59473   6.873   6.639   6.247 -0.4308 -0.7733  1.4862
  431MOL0     H59474   6.800   6.214   6.281 -0.1035  0.5824  0.6194
  431MOL0     H59475   6.910   6.322   5.618  0.4959 -2.2538  2.5340
  431MOL0     H59476   7.191   6.159   5.508  2.2715  1.4694 -1.2345
  431MOL0     H59477   7.024   6.194   5.460  0.7026 -0.9914  1.0382
  431MOL0     H59478   7.158   6.271   5.374  0.3912  0.4459 -0.0482
  432MOL0     O59479   8.208   1.967   9.439  0.4462 -0.6242  0.1842
  432MOL0     C59480   8.189   2.040   9.343 -0.2484  0.7141 -0.0627
  432MOL0     O59481   8.233   2.013   9.216 -0.1961  0.1511 -0.4336
  432MOL0     C59482   8.308   1.900   9.195 -0.2210  0.2557 -0.3205
  432MOL0     C59483   8.440   1.884   9.244  0.4569  0.3073  0.4015
  432MOL0     C59484   8.511   1.766   9.241  0.0168  0.6598 -1.2094
  432MOL0     C59485   8.472   1.672   9.146 -0.7854  0.4351  0.2531
  432MOL0     O59486   8.564   1.580   9.109 -0.1851  0.1186 -0.2083
  432MOL0     C59487   8.561   1.471   9.202 -1.1994  0.1020 -0.0930
  432MOL0     C59488   8.703   1.431   9.239  0.7652 -0.2114 -0.6243
  432MOL0     C59489   8.791   1.421   9.111 -0.1436  0.1760  0.0183
  432MOL0     C59490   8.947   1.443   9.133 -0.6026  0.2969 -0.4255
  432MOL0     C59491   9.009   1.443   8.997 -0.0096  0.2983 -0.1635
  432MOL0     C59492   8.968   1.331   8.902 -1.0282 -0.1781 -0.8343
  432MOL0     C59493   9.049   1.307   8.774 -0.0949 -0.2664  1.0305
  432MOL0     C59494   9.189   1.255   8.791  0.4911  0.2947 -0.7011
  432MOL0     N59495   9.189   1.125   8.852  0.3217 -0.3691  0.8995
  432MOL0     C59496   9.153   1.016   8.785 -0.2977  0.0826  1.5699
  432MOL0     C59497   9.190   0.917   8.865  0.2822  0.5932 -0.2412
  432MOL0     C59498   9.176   0.766   8.828 -0.2599 -0.7311 -0.0010
  432MOL0     C59499   9.299   0.700   8.860  0.4944 -0.7514  0.5063
  432MOL0     C59500   9.417   0.759   8.786  1.0472 -0.2100 -0.2371
  432MOL0     C59501   9.545   0.671   8.804  0.8965 -0.4743 -0.0672
  432MOL0     O59502   9.571   0.610   8.934 -0.3798  0.0196  0.5079
  432MOL0     C59503   9.655   0.500   8.941  0.0534 -0.2420  0.0065
  432MOL0     C59504   9.613   0.383   9.012  0.3711  0.6167  0.5228
  432MOL0     C59505   9.684   0.263   8.986  0.6012  0.7359  0.6473
  432MOL0     C59506   9.618   0.130   9.034 -0.2551 -0.2060  0.1389
  432MOL0     C59507   9.803   0.262   8.926 -1.0946 -0.6331  0.2011
  432MOL0     C59508   9.881   0.147   8.913 -0.1512 -0.3930 -0.7378
  432MOL0     O59509  10.015   0.167   8.888 -0.6119  0.1906  0.6515
  432MOL0     C59510  10.102   0.073   8.833 -0.0376  0.3621  0.0957
  432MOL0     C59511  10.236   0.052   8.884  0.7408 -0.1584 -0.0602
  432MOL0     C59512  10.328  -0.036   8.820 -1.5470 -0.7902 -0.3350
  432MOL0     C59513  10.302  -0.096   8.695 -0.2702 -1.2425  0.2949
  432MOL0     O59514  10.398  -0.148   8.621  0.7488 -0.4559 -0.6840
  432MOL0     C59515  10.531  -0.096   8.636  0.0106  0.8116 -0.0737
  432MOL0     C59516  10.614  -0.182   8.547 -0.6436  0.9760  0.0567
  432MOL0     C59517  10.564  -0.189   8.405 -0.8830 -0.4119 -0.2290
  432MOL0     C59518  10.643  -0.282   8.315  0.5240  0.4507  0.6409
  432MOL0     C59519  10.764  -0.223   8.248 -0.3625 -0.7993 -1.4592
  432MOL0     C59520  10.840  -0.317   8.156  0.2203  0.0650 -0.0828
  432MOL0     C59521  10.944  -0.246   8.069  0.3338 -0.5646 -0.4451
  432MOL0     C59522  10.976  -0.320   7.946  0.6760  0.1387  0.0893
  432MOL0    Cl59523  11.062  -0.477   7.975  0.3216 -0.1626  0.3576
  432MOL0     C59524  10.181  -0.071   8.633 -0.1988  0.1479 -0.6802
  432MOL0     C59525  10.079   0.000   8.706 -0.5201  0.1898  0.1429
  432MOL0     O59526   9.824   0.041   8.889 -0.3832  1.0284 -0.4521
  432MOL0     C59527   9.851   0.384   8.870  0.4667  0.3521  0.6542
  432MOL0     C59528   9.784   0.505   8.872 -0.5722  0.0498 -0.2501
  432MOL0     N59529   9.237   0.964   8.985 -0.7563  0.1819 -0.0639
  432MOL0     N59530   9.234   1.084   8.979 -0.3215  0.3853  0.3554
  432MOL0     C59531   8.346   1.691   9.085 -0.6311 -0.3572  0.6448
  432MOL0     C59532   8.267   1.798   9.111 -0.2981 -0.2462  0.7557
  432MOL0     C59533   8.116   2.161   9.357 -0.1600  0.4654 -0.1004
  432MOL0     C59534   8.132   2.264   9.256 -0.4213  0.3001 -0.1009
  432MOL0     C59535   8.060   2.386   9.247 -0.0481  0.1214 -0.5953
  432MOL0     C59536   7.961   2.400   9.344  0.4424 -1.6444 -0.5828
  432MOL0     O59537   7.883   2.517   9.356 -0.4610  0.7480 -0.3283
  432MOL0     C59538   7.945   2.639   9.344  0.3288 -0.4612  0.0548
  432MOL0     C59539   7.843   2.744   9.358 -0.3533  0.1058 -0.0244
  432MOL0     C59540   7.775   2.766   9.490  0.3766  0.3055  0.2924
  432MOL0     C59541   7.826   2.850   9.599 -0.8100  0.0225  0.2943
  432MOL0     C59542   7.728   2.853   9.702  0.3559  0.7045  0.0005
  432MOL0     C59543   7.626   2.881   9.763  0.0914  0.1508  0.0922
  432MOL0     C59544   7.942   2.313   9.454  0.9969 -0.6149  0.6644
  432MOL0     C59545   8.024   2.196   9.461 -0.6266 -0.0990 -0.2974
  432MOL0     C59546   7.986   2.111   9.574 -0.1166 -0.4045  0.2741
  432MOL0     H59547   8.477   1.956   9.317 -1.0208 -0.0377  1.5417
  432MOL0     H59548   8.605   1.753   9.293 -0.9991 -2.8781  0.0128
  432MOL0     H59549   8.512   1.392   9.145 -0.0702 -0.2319 -0.6295
  432MOL0     H59550   8.499   1.479   9.292 -4.3489 -6.1997 -1.1329
  432MOL0     H59551   8.740   1.518   9.295  2.0905  0.8060 -2.9379
  432MOL0     H59552   8.708   1.344   9.304  2.4844 -0.3078 -0.8406
  432MOL0     H59553   8.773   1.320   9.074 -0.9431 -1.7966  5.0088
  432MOL0     H59554   8.771   1.495   9.033 -1.2006 -1.5841 -1.4446
  432MOL0     H59555   8.971   1.540   9.179 -0.8029 -1.0176  2.7638
  432MOL0     H59556   8.986   1.377   9.211 -1.2911  1.7038  1.1919
  432MOL0     H59557   9.118   1.451   9.003  0.0080 -0.1877  0.1862
  432MOL0     H59558   8.971   1.536   8.955 -0.5080 -0.3604 -1.2045
  432MOL0     H59559   8.968   1.245   8.969 -2.8142  0.9959  0.7879
  432MOL0     H59560   8.863   1.339   8.872 -0.7905 -2.2300 -2.4172
  432MOL0     H59561   9.062   1.407   8.732  0.2667 -1.8688 -3.1125
  432MOL0     H59562   9.003   1.253   8.690 -0.6711  2.3041 -0.4135
  432MOL0     H59563   9.249   1.263   8.700 -0.8936  1.4112 -1.5611
  432MOL0     H59564   9.249   1.318   8.858 -1.3253 -1.0377  2.4122
  432MOL0     H59565   9.093   1.013   8.695  0.3661 -3.7710  1.0957
  432MOL0     H59566   9.162   0.765   8.720 -1.8117 -1.7911  0.1794
  432MOL0     H59567   9.085   0.721   8.870 -0.5899 -1.0230 -1.0165
  432MOL0     H59568   9.310   0.710   8.969 -0.8275  1.4793  0.5061
  432MOL0     H59569   9.301   0.595   8.829 -0.7662  0.0304 -2.5674
  432MOL0     H59570   9.402   0.770   8.679  3.1276 -2.3617 -0.8671
  432MOL0     H59571   9.445   0.851   8.838 -2.4903 -0.0872  1.7574
  432MOL0     H59572   9.526   0.586   8.738 -2.1089 -0.1932  0.3004
  432MOL0     H59573   9.638   0.724   8.779  0.2073  0.6063 -0.4120
  432MOL0     H59574   9.512   0.381   9.050 -0.9044  2.7414 -2.4171
  432MOL0     H59575   9.527   0.156   9.089  0.6423 -0.2087  1.6684
  432MOL0     H59576   9.678   0.074   9.105 -2.0033 -0.0757  1.7989
  432MOL0     H59577   9.577   0.077   8.947 -1.7612  1.2299 -0.0929
  432MOL0     H59578  10.249   0.097   8.982 -2.6594  3.3594 -0.9752
  432MOL0     H59579  10.419  -0.045   8.879 -1.0719  3.0701 -0.2061
  432MOL0     H59580  10.536   0.008   8.603 -1.7420  1.0722  0.3938
  432MOL0     H59581  10.565  -0.097   8.740  1.6170 -0.4200 -0.5769
  432MOL0     H59582  10.717  -0.143   8.549  0.5242 -1.8319 -1.2263
  432MOL0     H59583  10.612  -0.285   8.583  2.2274  0.3037 -1.4486
  432MOL0     H59584  10.556  -0.088   8.365 -2.8743 -0.4136  0.0277
  432MOL0     H59585  10.463  -0.233   8.400 -0.5331 -1.0544 -3.0402
  432MOL0     H59586  10.569  -0.320   8.243 -2.5216  0.8489  3.3377
  432MOL0     H59587  10.669  -0.382   8.352 -2.0615 -1.1199 -1.3759
  432MOL0     H59588  10.729  -0.139   8.188 -4.2241 -1.2897 -0.1474
  432MOL0     H59589  10.831  -0.192   8.329  0.6656 -3.9699 -0.9350
  432MOL0     H59590  10.767  -0.367   8.092  0.1457 -2.1953  1.6349
  432MOL0     H59591  10.879  -0.406   8.207  2.6570 -1.1564 -3.6635
  432MOL0     H59592  11.023  -0.230   8.143 -1.6236  0.4996  1.5453
  432MOL0     H59593  10.907  -0.149   8.034 -4.4525 -2.5349 -1.6665
  432MOL0     H59594  11.048  -0.259   7.890 -3.2118  1.5325 -3.9441
  432MOL0     H59595  10.889  -0.320   7.880  0.9380  1.2340 -0.2777
  432MOL0     H59596  10.158  -0.108   8.534  0.9655  1.0238 -1.3011
  432MOL0     H59597   9.984   0.010   8.655  0.8185  0.4124 -2.4381
  432MOL0     H59598   9.949   0.390   8.823  0.0338  3.6640 -0.0880
  432MOL0     H59599   9.826   0.595   8.828  0.6128  0.7493  2.1925
  432MOL0     H59600   8.308   1.615   9.018 -1.7049 -1.9832  2.9654
  432MOL0     H59601   8.170   1.821   9.069  0.7915  2.2512 -0.6238
  432MOL0     H59602   8.211   2.249   9.183 -0.5208  1.0393 -0.3583
  432MOL0     H59603   8.082   2.449   9.161 -0.1884  0.2664 -0.5250
  432MOL0     H59604   8.022   2.657   9.419  0.7215  0.4903 -0.5644
  432MOL0     H59605   7.984   2.647   9.242  2.6141 -3.2953  0.5699
  432MOL0     H59606   7.757   2.709   9.300 -1.1350  0.8939  0.6226
  432MOL0     H59607   7.880   2.843   9.327  0.6243  0.7982  3.0611
  432MOL0     H59608   7.681   2.813   9.461 -0.5269 -1.0038  0.9730
  432MOL0     H59609   7.735   2.677   9.540 -0.5282  0.3093 -0.3940
  432MOL0     H59610   7.833   2.953   9.563 -1.8849 -0.3696 -1.1150
  432MOL0     H59611   7.925   2.818   9.632  0.8888  1.8425 -2.5382
  432MOL0     H59612   7.537   2.916   9.811 -1.1658  1.5276 -3.0016
  432MOL0     H59613   7.869   2.345   9.527  0.3033 -1.1652  0.2319
  432MOL0     H59614   7.946   2.013   9.546 -1.9613 -0.0970  1.6072
  432MOL0     H59615   8.071   2.090   9.639 -1.6542 -2.4853  1.7140
  432MOL0     H59616   7.915   2.156   9.645 -0.6689 -3.2458  1.6753
  433MOL0     O59617  11.530   1.533   9.543  0.1001  0.0794 -1.2650
  433MOL0     C59618  11.617   1.621   9.532 -0.3166  0.7905  0.3877
  433MOL0     O59619  11.609   1.746   9.582 -0.6376  0.0750  0.5163
  433MOL0     C59620  11.510   1.796   9.653  0.5565 -0.4933  0.3365
  433MOL0     C59621  11.462   1.729   9.766 -0.0071 -0.2233 -0.2216
  433MOL0     C59622  11.360   1.799   9.836  0.5051  0.5683  0.4346
  433MOL0     C59623  11.324   1.927   9.798  0.0476  0.0532 -0.3505
  433MOL0     O59624  11.242   2.006   9.878  0.1472 -0.3962 -0.1389
  433MOL0     C59625  11.184   1.941   9.991 -0.0999 -0.7583  0.7322
  433MOL0     C59626  11.102   2.040  10.074  0.1475  0.0078  0.5822
  433MOL0     C59627  11.010   2.132   9.998 -0.3351 -1.0435 -0.6707
  433MOL0     C59628  10.912   2.187  10.095  0.6705  0.7372 -0.8509
  433MOL0     C59629  10.813   2.280  10.031  0.2688  0.6545  0.2849
  433MOL0     C59630  10.698   2.330  10.130  0.2341  0.5758  0.6186
  433MOL0     C59631  10.626   2.456  10.086 -0.4212 -0.1131 -0.6849
  433MOL0     C59632  10.590   2.467   9.936  0.8659  0.1828 -1.0422
  433MOL0     N59633  10.500   2.588   9.904  0.1423 -0.3024  0.2178
  433MOL0     C59634  10.521   2.705   9.837 -0.0711 -0.1471  0.4054
  433MOL0     C59635  10.404   2.757   9.806  0.6545  0.8693  0.3128
  433MOL0     C59636  10.386   2.882   9.728 -0.7002  1.8703 -1.0313
  433MOL0     C59637  10.395   3.002   9.816 -0.0430 -0.1102  0.4165
  433MOL0     C59638  10.304   3.108   9.742  0.3869  0.6299  1.0978
  433MOL0     C59639  10.297   3.248   9.795  0.4371  0.2610 -1.0800
  433MOL0     O59640  10.425   3.299   9.838  0.2244  0.3336 -0.1928
  433MOL0     C59641  10.426   3.413   9.915  0.5448 -0.6778 -0.2250
  433MOL0     C59642  10.538   3.431   9.995 -0.2569  1.0329 -0.4616
  433MOL0     C59643  10.545   3.540  10.075  0.1743  0.8722 -1.2933
  433MOL0     C59644  10.664   3.557  10.163  0.8656  0.6511  0.2139
  433MOL0     C59645  10.443   3.641  10.073 -0.4747 -0.5468  0.1004
  433MOL0     C59646  10.443   3.764  10.153  0.4872 -0.1629 -0.2898
  433MOL0     O59647  10.514   3.770  10.263 -0.8348  0.2235 -0.2653
  433MOL0     C59648  10.494   3.874  10.356 -0.3042 -0.0815  0.2193
  433MOL0     C59649  10.374   3.939  10.370 -0.4335 -0.6156 -0.3730
  433MOL0     C59650  10.360   4.009  10.491 -0.7195 -0.1162 -0.6765
  433MOL0     C59651  10.458   4.031  10.587  0.5425  0.3209 -0.3748
  433MOL0     O59652  10.437   4.092  10.707  0.4951  1.4849  0.0108
  433MOL0     C59653  10.345   4.207  10.723 -1.0232  0.1914 -0.1749
  433MOL0     C59654  10.302   4.217  10.870  0.7697  0.0249  0.0293
  433MOL0     C59655  10.244   4.366  10.891 -0.3167 -1.8357 -0.1591
  433MOL0     C59656  10.161   4.383  11.020 -0.7716  0.2367  0.7304
  433MOL0     C59657  10.064   4.505  11.016  0.5183 -0.8001 -0.3620
  433MOL0     C59658  10.133   4.639  10.975  0.0751 -0.4152 -0.3080
  433MOL0     C59659  10.039   4.762  11.017  0.8521 -0.0727  0.1668
  433MOL0     C59660   9.905   4.762  10.949  0.1253  0.8881  0.1019
  433MOL0    Cl59661   9.919   4.749  10.767  0.0081 -0.0551 -0.3148
  433MOL0     C59662  10.579   3.976  10.554 -0.9201 -0.4066  0.5959
  433MOL0     C59663  10.597   3.891  10.446 -0.2081  0.1478 -0.5483
  433MOL0     O59664  10.378   3.858  10.106  0.1696  0.0727 -0.3242
  433MOL0     C59665  10.332   3.616   9.994 -0.3809 -0.1719 -0.4068
  433MOL0     C59666  10.327   3.512   9.913  0.3301  0.1731 -0.5495
  433MOL0     N59667  10.310   2.674   9.860  0.1132  0.7188 -0.4860
  433MOL0     N59668  10.371   2.578   9.922  0.6859  0.1237  0.0221
  433MOL0     C59669  11.380   1.990   9.692  0.9226 -0.3552  0.7921
  433MOL0     C59670  11.472   1.925   9.616  0.2878  0.4711 -0.5262
  433MOL0     C59671  11.738   1.595   9.453  0.8493 -0.2284  0.1730
  433MOL0     C59672  11.719   1.539   9.319  0.0972 -0.4284  0.4353
  433MOL0     C59673  11.822   1.527   9.232 -0.5640  0.3438  0.0965
  433MOL0     C59674  11.954   1.559   9.268  0.3613 -0.4292  0.4792
  433MOL0     O59675  12.048   1.529   9.174 -0.0536 -0.4430  0.2014
  433MOL0     C59676  12.183   1.563   9.195  0.1978  0.0257  1.0870
  433MOL0     C59677  12.227   1.674   9.098 -0.0876 -0.6659 -0.2383
  433MOL0     C59678  12.178   1.818   9.125 -0.1734 -0.4014  0.1591
  433MOL0     C59679  12.190   1.907   9.002  0.0674  0.2801 -0.8225
  433MOL0     C59680  12.153   2.050   9.026 -0.1969  0.1850 -0.2133
  433MOL0     C59681  12.119   2.165   9.045  0.0706 -0.8514  1.3739
  433MOL0     C59682  11.978   1.623   9.394 -0.0419 -0.2331  0.2040
  433MOL0     C59683  11.870   1.636   9.488 -0.0598  0.8364 -0.0273
  433MOL0     C59684  11.915   1.685   9.619 -0.0895  0.5157 -0.9115
  433MOL0     H59685  11.490   1.625   9.777  3.1173 -0.0040 -3.7407
  433MOL0     H59686  11.316   1.753   9.924 -1.0925 -0.4448 -0.8290
  433MOL0     H59687  11.267   1.895  10.046  0.9395  0.5194  0.2939
  433MOL0     H59688  11.117   1.869   9.943 -2.9307  3.6051 -2.6954
  433MOL0     H59689  11.048   1.968  10.137  2.8976 -1.4052  1.4451
  433MOL0     H59690  11.175   2.098  10.132  1.1015 -0.3757 -0.2223
  433MOL0     H59691  11.077   2.207   9.955  0.4390 -1.0825  0.4340
  433MOL0     H59692  10.969   2.079   9.911 -1.0861 -2.3637  0.4512
  433MOL0     H59693  10.851   2.105  10.135  1.4890  0.1388 -0.7858
  433MOL0     H59694  10.974   2.242  10.166  1.1387  3.1522 -2.9865
  433MOL0     H59695  10.768   2.230   9.945 -1.3219  1.8984  0.3502
  433MOL0     H59696  10.860   2.368   9.989  3.4278 -0.9041  0.2844
  433MOL0     H59697  10.630   2.249  10.157  0.5156 -0.5486 -1.7550
  433MOL0     H59698  10.757   2.347  10.221 -1.1984  0.2176  1.6436
  433MOL0     H59699  10.694   2.534  10.120  2.7818 -3.0026  0.1833
  433MOL0     H59700  10.530   2.467  10.136 -0.5168 -2.2567 -0.3056
  433MOL0     H59701  10.674   2.478   9.867  1.0752  0.7171 -0.7110
  433MOL0     H59702  10.541   2.373   9.908  0.4054 -0.5976  2.0170
  433MOL0     H59703  10.619   2.750   9.824  1.1237 -2.6712 -0.0723
  433MOL0     H59704  10.290   2.858   9.681  0.6594 -0.5774 -2.8122
  433MOL0     H59705  10.448   2.886   9.638  0.0042 -1.7969 -0.8705
  433MOL0     H59706  10.367   2.981   9.920 -1.4878 -2.9480 -0.4324
  433MOL0     H59707  10.499   3.037   9.819 -0.1839  0.2773  0.8551
  433MOL0     H59708  10.359   3.117   9.647  0.4202  2.7500  1.2591
  433MOL0     H59709  10.207   3.059   9.725  0.6063  1.4562 -4.9645
  433MOL0     H59710  10.249   3.310   9.718 -1.2034  2.6566  1.6346
  433MOL0     H59711  10.227   3.250   9.879  2.2123  0.1712  0.4604
  433MOL0     H59712  10.610   3.352  10.011  0.1756  1.2535 -1.2250
  433MOL0     H59713  10.723   3.465  10.156 -0.8184 -0.4471 -0.0974
  433MOL0     H59714  10.631   3.555  10.268 -0.4964 -3.5622 -0.1077
  433MOL0     H59715  10.707   3.651  10.129  1.8504  0.2373  0.3006
  433MOL0     H59716  10.284   3.939  10.309  0.4512  0.3123 -1.7350
  433MOL0     H59717  10.262   4.043  10.520 -0.1183  1.6436 -0.5665
  433MOL0     H59718  10.397   4.301  10.704 -1.0449  0.5730  1.5261
  433MOL0     H59719  10.258   4.210  10.657 -0.4576 -2.8149 -1.2236
  433MOL0     H59720  10.225   4.143  10.897 -0.0194 -0.0091 -2.1535
  433MOL0     H59721  10.386   4.208  10.940  0.6718  0.3554  0.1886
  433MOL0     H59722  10.178   4.380  10.805 -0.3225 -6.4822 -1.1776
  433MOL0     H59723  10.332   4.431  10.889 -1.5058 -0.1107 -2.9679
  433MOL0     H59724  10.228   4.389  11.107  3.2725  0.4716 -2.0873
  433MOL0     H59725  10.103   4.292  11.039 -0.5387  0.1828  1.2025
  433MOL0     H59726   9.988   4.490  10.939 -0.3364  3.7801 -0.7126
  433MOL0     H59727  10.023   4.514  11.117  2.0883 -0.7279  0.2922
  433MOL0     H59728  10.146   4.639  10.867  0.0866  2.7047 -0.4127
  433MOL0     H59729  10.234   4.647  11.017 -0.0285  1.2816 -0.3172
  433MOL0     H59730  10.087   4.853  10.980 -0.8126  0.9000  0.3061
  433MOL0     H59731  10.039   4.766  11.126  0.3401  1.4850  0.1408
  433MOL0     H59732   9.837   4.845  10.972  1.0105  1.4397  0.8109
  433MOL0     H59733   9.850   4.679  10.994 -0.9384  1.0977 -0.7675
  433MOL0     H59734  10.667   3.992  10.616 -1.4348 -0.3590  1.3296
  433MOL0     H59735  10.688   3.835  10.426  0.0213  1.0491 -2.2770
  433MOL0     H59736  10.235   3.665  10.006 -1.4575 -2.1181 -0.7458
  433MOL0     H59737  10.245   3.502   9.843  0.6432  2.5483 -1.3477
  433MOL0     H59738  11.364   2.097   9.680 -0.3073 -0.2493  2.9132
  433MOL0     H59739  11.521   1.963   9.527 -1.0088  1.5371 -0.8294
  433MOL0     H59740  11.615   1.524   9.291 -0.4880  3.7486 -0.3717
  433MOL0     H59741  11.810   1.493   9.130  1.6252  1.5598 -0.6273
  433MOL0     H59742  12.219   1.565   9.298  2.7994 -1.6675  0.3295
  433MOL0     H59743  12.240   1.483   9.145 -2.4311 -0.0848 -2.0966
  433MOL0     H59744  12.194   1.643   8.999  0.0178 -3.4973  0.5360
  433MOL0     H59745  12.336   1.683   9.092  0.0056  1.2949  2.4014
  433MOL0     H59746  12.075   1.830   9.159  0.3767  2.1170  1.1637
  433MOL0     H59747  12.230   1.865   9.210  1.2988  2.1929 -2.0415
  433MOL0     H59748  12.120   1.851   8.939  0.1942 -1.4742  0.5224
  433MOL0     H59749  12.291   1.900   8.962  0.5444  3.8580 -0.4986
  433MOL0     H59750  12.084   2.266   9.056 -0.2172 -0.5416 -1.4962
  433MOL0     H59751  12.074   1.667   9.419 -2.2385  4.4431  1.3311
  433MOL0     H59752  12.011   1.639   9.646 -0.1248 -0.6903 -2.6855
  433MOL0     H59753  11.916   1.794   9.630 -3.7888  0.4846  1.1524
  433MOL0     H59754  11.827   1.655   9.676 -2.1462  1.8025 -3.2123
  434MOL0     O59755   8.667   8.370  11.160 -0.2519  0.0965  0.6449
  434MOL0     C59756   8.705   8.267  11.108  0.8615 -0.7175 -0.4459
  434MOL0     O59757   8.836   8.246  11.061  0.3230 -0.1180 -1.1319
  434MOL0     C59758   8.943   8.324  11.077  0.4199 -0.2402 -0.0557
  434MOL0     C59759   9.049   8.315  10.985  0.0054  1.0591 -0.7463
  434MOL0     C59760   9.146   8.400  10.969 -0.6972 -0.0403  0.0584
  434MOL0     C59761   9.171   8.491  11.063  0.1128  0.2441  0.6573
  434MOL0     O59762   9.282   8.564  11.046 -0.6776  0.5549 -0.6800
  434MOL0     C59763   9.355   8.583  11.173 -0.1001  0.9075  0.3170
  434MOL0     C59764   9.324   8.722  11.233 -0.2514 -0.9257 -0.2146
  434MOL0     C59765   9.387   8.842  11.169 -0.7211  0.5908 -0.0533
  434MOL0     C59766   9.537   8.834  11.156 -0.7060  0.2601  0.3269
  434MOL0     C59767   9.596   8.963  11.094  0.3663  0.3073  0.2283
  434MOL0     C59768   9.747   8.970  11.077 -0.1785  0.9602 -0.3394
  434MOL0     C59769   9.811   9.079  10.998  0.5363 -0.4072 -0.1016
  434MOL0     C59770   9.790   9.217  11.071 -0.4327 -0.8843 -1.2262
  434MOL0     N59771   9.818   9.337  10.984 -0.4085  0.6237 -0.2474
  434MOL0     C59772   9.925   9.350  10.903 -0.5430 -0.1575  0.2405
  434MOL0     C59773   9.897   9.472  10.845 -0.2747  0.2168 -0.1480
  434MOL0     C59774   9.993   9.550  10.763 -0.0859  0.5942 -1.0059
  434MOL0     C59775   9.933   9.638  10.655  0.8364 -0.3659 -0.5768
  434MOL0     C59776  10.029   9.739  10.587  0.1673 -0.1686 -0.1704
  434MOL0     C59777   9.966   9.826  10.483  0.1819 -0.8650  0.6147
  434MOL0     O59778   9.936   9.744  10.365 -0.0844 -0.1720 -0.8889
  434MOL0     C59779   9.898   9.792  10.250  0.0629 -0.2841  0.2322
  434MOL0     C59780   9.867   9.704  10.145 -0.8870 -1.3107  0.0201
  434MOL0     C59781   9.817   9.744  10.026  0.0548  0.1759  0.0783
  434MOL0     C59782   9.770   9.632   9.933 -0.3687  0.6851 -0.8651
  434MOL0     C59783   9.808   9.883  10.002  0.0708 -0.7700  0.4349
  434MOL0     C59784   9.755   9.946   9.887 -0.2027 -0.4950 -0.0232
  434MOL0     O59785   9.711   9.857   9.791 -0.6269  0.2977 -0.6588
  434MOL0     C59786   9.625   9.881   9.696  0.1164 -1.1549 -0.9448
  434MOL0     C59787   9.663   9.841   9.570  0.2732 -0.0811 -0.0731
  434MOL0     C59788   9.582   9.861   9.463  0.3419  0.3676 -0.1481
  434MOL0     C59789   9.454   9.918   9.485  0.0708  0.0876  0.5339
  434MOL0     O59790   9.381   9.944   9.376 -0.3341 -0.1736  0.2363
  434MOL0     C59791   9.399   9.880   9.251  0.4826  0.0595 -0.1293
  434MOL0     C59792   9.277   9.902   9.152  0.5379 -1.0269 -0.4049
  434MOL0     C59793   9.148   9.842   9.205  0.4668 -0.1292 -0.3968
  434MOL0     C59794   9.040   9.815   9.104 -0.2810  0.9873  0.1406
  434MOL0     C59795   8.938   9.699   9.144  0.3845  0.5216 -0.3680
  434MOL0     C59796   8.827   9.748   9.232 -0.3923  0.3977 -0.8446
  434MOL0     C59797   8.721   9.644   9.274  0.5149  0.0909 -0.6667
  434MOL0     C59798   8.656   9.671   9.413  0.8856  0.8218 -0.1599
  434MOL0    Cl59799   8.596   9.515   9.462  0.0751 -0.1709 -0.7924
  434MOL0     C59800   9.425   9.968   9.612  0.9670 -0.7800  0.1463
  434MOL0     C59801   9.506   9.948   9.715 -1.1244  0.9753  0.2584
  434MOL0     O59802   9.752  10.070   9.878 -0.0110  0.2311  0.1659
  434MOL0     C59803   9.856   9.974  10.102 -0.5421  0.2211  0.6004
  434MOL0     C59804   9.888   9.927  10.224  0.3028  0.5433 -0.1885
  434MOL0     N59805   9.773   9.522  10.889 -0.4999  0.1367  0.1000
  434MOL0     N59806   9.726   9.444  10.978 -0.7164 -0.1957 -0.7025
  434MOL0     C59807   9.080   8.502  11.168  0.3825 -0.1394 -1.1033
  434MOL0     C59808   8.962   8.427  11.162  0.0410 -0.7098  0.4762
  434MOL0     C59809   8.607   8.162  11.106 -0.4771  0.3841  1.1770
  434MOL0     C59810   8.639   8.045  11.042  1.2097 -0.1443  0.5068
  434MOL0     C59811   8.561   7.931  11.035  0.3776  1.0986  0.2350
  434MOL0     C59812   8.426   7.931  11.080  0.8614  1.0039  0.4637
  434MOL0     O59813   8.339   7.826  11.086 -0.8027 -0.8631 -1.0377
  434MOL0     C59814   8.363   7.702  11.020 -0.0885 -0.1590 -0.0921
  434MOL0     C59815   8.298   7.593  11.108 -0.5445 -0.1787  0.1663
  434MOL0     C59816   8.181   7.652  11.192  0.4525 -0.5722 -0.0312
  434MOL0     C59817   8.243   7.701  11.331  0.2578 -0.0828  0.1249
  434MOL0     C59818   8.182   7.825  11.367 -0.7062 -0.0642 -0.0195
  434MOL0     C59819   8.135   7.929  11.399 -0.2289 -0.1473 -0.5683
  434MOL0     C59820   8.390   8.052  11.143 -0.4252  0.6413  0.8583
  434MOL0     C59821   8.468   8.167  11.157 -0.3927 -0.1069  0.4644
  434MOL0     C59822   8.408   8.291  11.213  0.0655 -0.5141 -0.2527
  434MOL0     H59823   9.042   8.243  10.905 -1.0612  1.5473 -1.1090
  434MOL0     H59824   9.211   8.403  10.883 -1.1881  1.9960 -0.2903
  434MOL0     H59825   9.464   8.572  11.169 -0.1283  1.0200 -1.8601
  434MOL0     H59826   9.314   8.512  11.246 -0.3037  3.1468  2.5147
  434MOL0     H59827   9.216   8.735  11.226 -0.0636  1.7751  0.8542
  434MOL0     H59828   9.343   8.714  11.341 -2.2077  0.1786  0.2547
  434MOL0     H59829   9.342   8.863  11.071 -0.9759 -0.9819 -0.2922
  434MOL0     H59830   9.366   8.931  11.229 -2.1326 -0.0604  0.4572
  434MOL0     H59831   9.584   8.823  11.254 -1.5981 -2.9875  0.4898
  434MOL0     H59832   9.557   8.753  11.086 -0.8146 -0.2868  0.9195
  434MOL0     H59833   9.560   9.053  11.145 -0.5842  1.5923 -2.5148
  434MOL0     H59834   9.544   8.973  10.998  1.5921 -0.1276 -0.4944
  434MOL0     H59835   9.785   8.986  11.178 -0.3785 -0.1332 -0.0719
  434MOL0     H59836   9.788   8.874  11.044  3.3988  1.2033  2.7175
  434MOL0     H59837   9.772   9.075  10.896 -1.6238 -3.0401  0.7080
  434MOL0     H59838   9.918   9.060  10.990  0.6588 -0.4546  1.4074
  434MOL0     H59839   9.694   9.218  11.123  0.1289  1.2670 -0.0964
  434MOL0     H59840   9.871   9.216  11.145 -2.4039 -0.4198  1.0405
  434MOL0     H59841  10.025   9.309  10.897 -0.9452 -0.9019 -1.9727
  434MOL0     H59842  10.058   9.471  10.724  0.0747  0.7222 -1.0011
  434MOL0     H59843  10.050   9.598  10.843 -1.0439  2.2387 -1.2735
  434MOL0     H59844   9.887   9.571  10.581  1.8957 -1.8517  0.0474
  434MOL0     H59845   9.861   9.708  10.697  3.2669  0.8804  1.8503
  434MOL0     H59846  10.089   9.797  10.658  2.3396  0.2662 -2.2592
  434MOL0     H59847  10.102   9.676  10.535  0.7795 -0.6142  1.1839
  434MOL0     H59848   9.876   9.873  10.525 -2.3142 -4.0766 -0.7093
  434MOL0     H59849  10.050   9.891  10.457  2.5194 -3.2876  1.7637
  434MOL0     H59850   9.886   9.599  10.166 -1.7239 -1.5137 -0.1942
  434MOL0     H59851   9.829   9.637   9.841  0.5506  0.4820 -0.3028
  434MOL0     H59852   9.662   9.627   9.923 -0.5559  0.7655  0.8861
  434MOL0     H59853   9.802   9.534   9.971 -2.6887  1.3908  3.4397
  434MOL0     H59854   9.759   9.791   9.556  1.2090  1.8952 -1.2587
  434MOL0     H59855   9.615   9.828   9.365 -1.8460  1.7909 -1.4695
  434MOL0     H59856   9.485   9.930   9.205  1.6269 -0.3706  1.4289
  434MOL0     H59857   9.409   9.772   9.269  0.8703  0.2932  1.1934
  434MOL0     H59858   9.259  10.009   9.138  0.7244 -0.9564 -0.1091
  434MOL0     H59859   9.306   9.848   9.061  0.9054 -2.9330  0.7751
  434MOL0     H59860   9.110   9.911   9.280 -1.3801  0.5755 -1.9098
  434MOL0     H59861   9.180   9.754   9.261 -1.4251  0.8514  2.4117
  434MOL0     H59862   9.083   9.796   9.005 -2.2317 -1.7265 -0.3027
  434MOL0     H59863   8.989   9.909   9.080 -1.0378  0.3125 -1.0577
  434MOL0     H59864   8.902   9.648   9.054  2.7956 -0.0341 -1.0973
  434MOL0     H59865   8.986   9.616   9.196 -1.8112 -1.9580 -2.0266
  434MOL0     H59866   8.781   9.831   9.178  1.2115  0.8294 -1.6205
  434MOL0     H59867   8.882   9.787   9.319  1.1560  1.0046 -2.0541
  434MOL0     H59868   8.768   9.549   9.300 -3.7459 -1.1642  3.9286
  434MOL0     H59869   8.638   9.629   9.204 -1.1524  0.5572  1.1506
  434MOL0     H59870   8.580   9.749   9.418 -1.2726 -1.2377  1.2415
  434MOL0     H59871   8.734   9.686   9.488  0.2178  1.3945  0.4327
  434MOL0     H59872   9.330  10.020   9.624  2.0692  0.9176  2.2176
  434MOL0     H59873   9.474   9.972   9.816  1.3488 -2.2807  2.0009
  434MOL0     H59874   9.868  10.081  10.084  0.8747  0.1601  1.0665
  434MOL0     H59875   9.912  10.003  10.297 -0.6547 -0.1033  0.8424
  434MOL0     H59876   9.090   8.579  11.243 -0.4774  1.2202 -2.3279
  434MOL0     H59877   8.891   8.452  11.240 -0.2392 -2.1324  0.6976
  434MOL0     H59878   8.736   8.025  10.999  0.4952 -1.4931 -0.5501
  434MOL0     H59879   8.592   7.849  10.971 -3.2200 -2.0445  2.1168
  434MOL0     H59880   8.315   7.713  10.923  2.6643  0.4238 -1.5059
  434MOL0     H59881   8.468   7.675  11.005 -0.0110 -1.0758  1.8148
  434MOL0     H59882   8.377   7.554  11.173  1.0202  0.9203 -1.0266
  434MOL0     H59883   8.269   7.509  11.044  0.6392  0.0959 -0.7533
  434MOL0     H59884   8.123   7.734  11.149 -1.3034 -2.5790 -1.6933
  434MOL0     H59885   8.096   7.589  11.215  0.8900 -2.3911 -2.9412
  434MOL0     H59886   8.351   7.702  11.315  0.2579 -1.2166 -0.0355
  434MOL0     H59887   8.229   7.638  11.419 -0.1209 -0.4635 -0.2058
  434MOL0     H59888   8.084   8.010  11.447 -2.2576 -0.4851 -2.0507
  434MOL0     H59889   8.288   8.076  11.171 -0.8409  1.7271 -1.3233
  434MOL0     H59890   8.299   8.288  11.205  0.0453  0.4883 -0.5065
  434MOL0     H59891   8.427   8.302  11.321 -0.5501  0.0930 -0.2002
  434MOL0     H59892   8.441   8.377  11.155 -0.3651 -2.0822 -2.9934
  435MOL0     O59893   3.213  10.606  10.096 -0.3888 -0.6141  0.5502
  435MOL0     C59894   3.273  10.578   9.996 -0.1851  0.2538 -0.3629
  435MOL0     O59895   3.409  10.578   9.989 -0.0560 -0.5363  0.3064
  435MOL0     C59896   3.464  10.690  10.043 -0.3709 -0.3181 -0.3798
  435MOL0     C59897   3.520  10.787   9.962 -0.0248  0.1322  0.5640
  435MOL0     C59898   3.593  10.889  10.006  0.3520  0.3682 -0.2054
  435MOL0     C59899   3.615  10.903  10.146 -0.2724 -0.3970 -0.2642
  435MOL0     O59900   3.689  10.998  10.200  0.0068 -0.2856  0.3191
  435MOL0     C59901   3.813  11.027  10.137  0.4893  0.1550  0.2604
  435MOL0     C59902   3.913  10.916  10.178 -1.4182  0.6568 -0.3115
  435MOL0     C59903   3.967  10.939  10.322 -0.5535  0.5250 -0.1501
  435MOL0     C59904   4.051  10.816  10.383 -0.5091 -0.8216  0.5312
  435MOL0     C59905   3.973  10.679  10.381  0.4471 -0.3344 -0.9539
  435MOL0     C59906   4.057  10.588  10.463  0.3629 -0.3202 -1.2141
  435MOL0     C59907   4.035  10.446  10.426  0.3110  0.5414 -0.2650
  435MOL0     C59908   4.102  10.342  10.514 -0.1093 -0.1142 -0.5159
  435MOL0     N59909   4.045  10.357  10.651  0.2530  0.3750 -0.2689
  435MOL0     C59910   4.124  10.392  10.763 -0.2436 -0.5108  0.4116
  435MOL0     C59911   4.037  10.388  10.866  0.1233 -0.6399 -1.1493
  435MOL0     C59912   4.055  10.390  11.020 -0.4491  1.8018  1.1175
  435MOL0     C59913   3.938  10.456  11.110 -0.6312 -0.0701 -0.3253
  435MOL0     C59914   3.945  10.420  11.262 -0.6368 -0.7925 -0.5874
  435MOL0     C59915   3.833  10.483  11.350  0.3489  0.3321  0.3955
  435MOL0     O59916   3.832  10.620  11.317  0.8070  0.8803  0.3210
  435MOL0     C59917   3.737  10.692  11.378 -0.1166  0.8228 -0.1217
  435MOL0     C59918   3.624  10.641  11.450 -0.5250  0.6721  0.2323
  435MOL0     C59919   3.545  10.726  11.530  0.6167  0.3795  0.9952
  435MOL0     C59920   3.433  10.684  11.628  0.8278  0.4966  0.1786
  435MOL0     C59921   3.587  10.868  11.538  0.3922  0.0032 -0.3689
  435MOL0     C59922   3.507  10.977  11.609 -0.3097  0.1435  0.6230
  435MOL0     O59923   3.389  11.007  11.550  0.0486  0.4333  0.0001
  435MOL0     C59924   3.306  11.099  11.607 -0.4080  0.4376 -0.7277
  435MOL0     C59925   3.283  11.117  11.744  0.0510 -0.3430 -0.4618
  435MOL0     C59926   3.176  11.186  11.799  0.4996 -0.8271 -0.4476
  435MOL0     C59927   3.097  11.264  11.712 -0.1860  1.5260  0.4605
  435MOL0     O59928   2.989  11.329  11.753  0.7510  0.1666  0.1809
  435MOL0     C59929   2.975  11.372  11.882 -0.7758 -0.4864  0.3219
  435MOL0     C59930   2.879  11.272  11.959 -0.3392 -1.3567 -0.4633
  435MOL0     C59931   2.726  11.289  11.937 -0.6387  0.7173 -0.3255
  435MOL0     C59932   2.650  11.159  11.944 -0.0953  0.5284  0.0767
  435MOL0     C59933   2.498  11.170  11.972 -0.2331  1.1068  0.8696
  435MOL0     C59934   2.441  11.032  11.942  0.3251 -0.5528  0.0283
  435MOL0     C59935   2.283  11.028  11.964  0.4495 -1.1542  0.4601
  435MOL0     C59936   2.221  11.064  11.829  0.3724 -0.3497 -0.2195
  435MOL0    Cl59937   2.242  10.914  11.714 -0.1776  0.3757 -0.3668
  435MOL0     C59938   3.116  11.257  11.571  0.4223 -0.0662  0.0201
  435MOL0     C59939   3.218  11.169  11.518  0.2940  0.3608  0.6193
  435MOL0     O59940   3.564  11.039  11.702  0.5000 -0.5686  0.0562
  435MOL0     C59941   3.702  10.909  11.477 -0.1269  0.2847  0.1742
  435MOL0     C59942   3.767  10.825  11.389 -0.6316  0.5977 -0.7140
  435MOL0     N59943   3.923  10.340  10.819 -0.1718  0.0116 -0.0157
  435MOL0     N59944   3.916  10.332  10.693 -0.0428 -0.8305  0.1862
  435MOL0     C59945   3.545  10.818  10.234 -1.3401  0.1219  0.2442
  435MOL0     C59946   3.471  10.705  10.185  0.2020 -0.8215 -0.1467
  435MOL0     C59947   3.199  10.527   9.876  0.2377 -0.0737 -1.2248
  435MOL0     C59948   3.274  10.540   9.754 -0.2706 -0.6070 -0.3386
  435MOL0     C59949   3.218  10.500   9.634  0.2597 -0.2940 -0.2622
  435MOL0     C59950   3.111  10.417   9.623  0.1931 -0.1092 -0.2753
  435MOL0     O59951   3.053  10.397   9.493  0.4007 -0.1796 -0.3138
  435MOL0     C59952   2.952  10.305   9.476  0.4490 -0.3087 -0.2682
  435MOL0     C59953   2.947  10.268   9.327  0.1508  0.5358  0.0823
  435MOL0     C59954   3.072  10.237   9.255 -0.6026 -0.5168  0.4197
  435MOL0     C59955   3.153  10.123   9.324 -0.7884  0.1030 -0.3136
  435MOL0     C59956   3.242  10.076   9.221 -0.4243 -0.1590 -0.4016
  435MOL0     C59957   3.328  10.038   9.141  0.3373 -0.4605 -0.7676
  435MOL0     C59958   3.039  10.391   9.743  0.3749  0.6882 -0.8175
  435MOL0     C59959   3.083  10.448   9.869 -0.4476 -0.2682 -0.8079
  435MOL0     C59960   3.006  10.414   9.995 -0.2027 -0.0705 -0.3265
  435MOL0     H59961   3.511  10.770   9.855  0.5162 -1.9814  0.8235
  435MOL0     H59962   3.630  10.953   9.927 -2.0019 -1.0027 -2.6106
  435MOL0     H59963   3.853  11.124  10.169  3.4700 -1.5248  2.0681
  435MOL0     H59964   3.804  11.030  10.028  0.2556 -0.0289  0.2745
  435MOL0     H59965   3.878  10.814  10.162  0.9244 -0.1748 -0.6232
  435MOL0     H59966   3.996  10.914  10.107 -1.3718 -1.8648 -0.2875
  435MOL0     H59967   4.031  11.027  10.334  0.8834 -0.2949 -1.4576
  435MOL0     H59968   3.884  10.948  10.393 -0.5027 -0.8586  0.1175
  435MOL0     H59969   4.150  10.802  10.338 -0.5638 -0.6014  0.3405
  435MOL0     H59970   4.051  10.847  10.487 -3.3012  4.3644 -0.6754
  435MOL0     H59971   3.954  10.647  10.278 -0.5939 -3.2597  0.0577
  435MOL0     H59972   3.878  10.673  10.434  2.1973  0.8424  2.6868
  435MOL0     H59973   4.161  10.612  10.438 -0.4205  2.1972 -2.4367
  435MOL0     H59974   4.036  10.608  10.568  0.4632  1.8358 -1.5618
  435MOL0     H59975   4.052  10.422  10.321  2.7429 -1.9602  0.5570
  435MOL0     H59976   3.929  10.419  10.430  0.4347  0.1936  2.3880
  435MOL0     H59977   4.081  10.245  10.467  1.7582 -1.6848  1.6714
  435MOL0     H59978   4.211  10.353  10.512 -0.3303  4.0768  0.6480
  435MOL0     H59979   4.228  10.422  10.752 -1.1071  1.8215 -3.8745
  435MOL0     H59980   4.151  10.440  11.036  1.2716 -0.6395 -0.7954
  435MOL0     H59981   4.065  10.286  11.050 -3.8091  0.8659 -0.5308
  435MOL0     H59982   3.936  10.563  11.092  0.6453  0.0156 -0.0836
  435MOL0     H59983   3.841  10.417  11.079 -0.5074  0.0237 -0.8566
  435MOL0     H59984   3.962  10.313  11.279 -1.0284 -0.5319  1.8475
  435MOL0     H59985   4.039  10.458  11.301 -0.9411  0.4803 -1.0635
  435MOL0     H59986   3.740  10.436  11.316  1.5228 -0.0082 -2.6911
  435MOL0     H59987   3.859  10.463  11.454 -0.0797  0.0914  0.4620
  435MOL0     H59988   3.586  10.541  11.431  1.2470  0.1815 -0.9827
  435MOL0     H59989   3.336  10.712  11.588  0.4421 -1.0823 -0.0401
  435MOL0     H59990   3.438  10.740  11.722 -0.3408 -0.9359  1.1271
  435MOL0     H59991   3.431  10.580  11.661 -2.1498  1.1612  2.4743
  435MOL0     H59992   3.344  11.063  11.816 -0.3130 -0.0577  0.0720
  435MOL0     H59993   3.165  11.180  11.907  0.2936 -0.1735 -0.4298
  435MOL0     H59994   3.066  11.410  11.929 -1.2725 -2.0236  2.6932
  435MOL0     H59995   2.916  11.464  11.878  1.5722  1.0689 -0.0412
  435MOL0     H59996   2.922  11.179  11.919  2.1589 -0.5133  0.0396
  435MOL0     H59997   2.895  11.279  12.067 -3.1896 -1.8643  0.0658
  435MOL0     H59998   2.707  11.331  11.838  0.0864 -0.3076 -0.9093
  435MOL0     H59999   2.678  11.349  12.016 -1.3335  0.7456 -0.7584
  435MOL0     H60000   2.701  11.103  12.023 -0.3871  2.1838  1.5010
  435MOL0     H60001   2.656  11.105  11.850  0.5787  0.9183 -0.1093
  435MOL0     H60002   2.477  11.200  12.075 -0.1585  1.9496  0.6431
  435MOL0     H60003   2.454  11.239  11.899 -1.7391 -1.4637 -0.8424
  435MOL0     H60004   2.493  10.961  12.008 -1.7772 -1.5812  0.6478
  435MOL0     H60005   2.469  11.012  11.838 -0.8733 -1.3863 -0.1539
  435MOL0     H60006   2.249  11.098  12.041 -0.8024 -1.7352  0.4594
  435MOL0     H60007   2.238  10.929  11.975 -0.4824 -0.8701 -0.6327
  435MOL0     H60008   2.272  11.150  11.784  1.9742 -1.1585 -0.0511
  435MOL0     H60009   2.122  11.099  11.858  2.9136  2.6127  7.1139
  435MOL0     H60010   3.041  11.302  11.506  1.1335  0.1540 -0.6697
  435MOL0     H60011   3.231  11.156  11.411  1.8642 -0.4050  0.8781
  435MOL0     H60012   3.722  11.015  11.486 -2.5243  0.7911  0.1565
  435MOL0     H60013   3.841  10.890  11.343 -0.0970  2.6742  2.7462
  435MOL0     H60014   3.554  10.832  10.341  0.5182  2.2713 -0.1315
  435MOL0     H60015   3.428  10.632  10.252  1.4345 -2.1607 -0.7559
  435MOL0     H60016   3.362  10.603   9.748 -1.9074  2.1450  1.8099
  435MOL0     H60017   3.267  10.520   9.539 -1.7580  1.9948 -0.9162
  435MOL0     H60018   2.966  10.213   9.535  0.0645 -0.5485 -0.5472
  435MOL0     H60019   2.857  10.348   9.507 -0.4824 -2.5254  0.1672
  435MOL0     H60020   2.894  10.346   9.271 -2.4161 -0.8682  0.4171
  435MOL0     H60021   2.880  10.182   9.323 -2.8056  2.7213 -1.8617
  435MOL0     H60022   3.053  10.212   9.151  4.2568 -0.9964 -0.6107
  435MOL0     H60023   3.137  10.326   9.257 -0.1098 -0.7928 -1.5120
  435MOL0     H60024   3.093  10.038   9.357 -0.1646  0.0288  0.6652
  435MOL0     H60025   3.213  10.167   9.404  1.9260  1.2523 -2.8090
  435MOL0     H60026   3.414  10.009   9.084  1.1811 -1.8415  1.1113
  435MOL0     H60027   2.944  10.340   9.743  0.9380 -0.4073 -1.4889
  435MOL0     H60028   2.921  10.347   9.977 -2.0282  1.6085  1.5533
  435MOL0     H60029   3.074  10.365  10.066 -0.9483  0.3243  0.6795
  435MOL0     H60030   2.966  10.502  10.045 -0.5242 -0.5852  0.3451
  436MOL0     O60031  10.040   4.891   9.163  1.0066  0.2664  0.3564
  436MOL0     C60032   9.945   4.887   9.235  0.2830 -0.5775 -0.5492
  436MOL0     O60033   9.807   4.907   9.196  0.0585 -0.0532 -0.3896
  436MOL0     C60034   9.789   4.946   9.068 -0.2225  0.0494  1.7378
  436MOL0     C60035   9.731   5.073   9.045  0.8950  0.2861 -0.6099
  436MOL0     C60036   9.706   5.127   8.921 -0.7979  0.0327 -0.1274
  436MOL0     C60037   9.748   5.053   8.811  0.0063 -0.0562  1.0584
  436MOL0     O60038   9.722   5.106   8.686 -0.3183 -0.0332  0.4727
  436MOL0     C60039   9.807   5.220   8.654 -0.4444 -0.4115  0.8436
  436MOL0     C60040   9.949   5.183   8.610 -0.0174 -0.8134  0.4485
  436MOL0     C60041  10.053   5.230   8.708 -0.3338  0.0096 -0.0847
  436MOL0     C60042  10.182   5.175   8.659  0.0674 -0.6094 -0.6314
  436MOL0     C60043  10.299   5.231   8.745 -0.1983 -0.0657  0.0555
  436MOL0     C60044  10.298   5.173   8.887  1.8737  0.0308  0.1217
  436MOL0     C60045  10.422   5.221   8.956 -0.3904  0.4760 -0.0292
  436MOL0     C60046  10.441   5.161   9.092  0.0969 -0.0733  0.6093
  436MOL0     N60047  10.371   5.238   9.201  0.6574 -0.8513  0.4716
  436MOL0     C60048  10.251   5.200   9.262  0.7256  0.6213  0.8362
  436MOL0     C60049  10.216   5.298   9.352 -0.1754  0.2726 -0.6065
  436MOL0     C60050  10.087   5.297   9.442 -0.7222 -0.2077 -0.4350
  436MOL0     C60051   9.988   5.369   9.360 -1.0272  0.6708 -0.1219
  436MOL0     C60052   9.938   5.279   9.250  0.7900  0.4028  0.1503
  436MOL0     C60053   9.944   5.351   9.122  0.1205 -0.6274  0.0782
  436MOL0     O60054   9.895   5.496   9.127  0.3347  0.3530  0.2747
  436MOL0     C60055   9.763   5.525   9.151  0.8850 -0.5890 -0.4123
  436MOL0     C60056   9.651   5.443   9.171  0.8097  0.6054  0.6805
  436MOL0     C60057   9.522   5.477   9.197  0.2835  0.3692  0.0190
  436MOL0     C60058   9.433   5.362   9.239  0.4013  0.0621  0.0468
  436MOL0     C60059   9.496   5.621   9.189  0.7408  0.1850  1.1602
  436MOL0     C60060   9.354   5.676   9.195  0.7676  0.4105 -0.2077
  436MOL0     O60061   9.337   5.814   9.171 -0.1235 -0.9022 -0.4756
  436MOL0     C60062   9.206   5.866   9.151 -0.2752 -0.1145 -0.1393
  436MOL0     C60063   9.132   5.890   9.267 -0.7486 -0.1648  0.1880
  436MOL0     C60064   9.000   5.952   9.263 -0.5400 -1.0156 -0.1979
  436MOL0     C60065   8.946   5.991   9.137  0.0863  0.0680  0.1458
  436MOL0     O60066   8.828   6.059   9.103  0.4038  0.1998  0.0168
  436MOL0     C60067   8.748   6.098   9.209  0.6334  0.1973  1.4181
  436MOL0     C60068   8.794   6.228   9.275 -0.3391 -0.4478 -0.4068
  436MOL0     C60069   8.859   6.328   9.174  0.2022 -0.0697  0.6939
  436MOL0     C60070   8.877   6.474   9.218  1.6488  0.4727 -0.3004
  436MOL0     C60071   8.920   6.496   9.363  0.5422  0.1787 -0.6145
  436MOL0     C60072   9.070   6.467   9.396  0.0541 -0.2265 -0.1718
  436MOL0     C60073   9.104   6.503   9.543  0.5804  0.7019 -0.5597
  436MOL0     C60074   9.119   6.661   9.549 -0.6122  0.1020  0.7981
  436MOL0    Cl60075   8.980   6.773   9.604 -0.0506  0.5613  0.2958
  436MOL0     C60076   9.024   5.957   9.027  0.2163 -0.0289 -0.2671
  436MOL0     C60077   9.149   5.902   9.028  0.4867 -1.6749 -0.5453
  436MOL0     O60078   9.253   5.613   9.228  0.1023  0.3824 -0.0532
  436MOL0     C60079   9.596   5.711   9.149 -0.1283 -0.0679 -0.4386
  436MOL0     C60080   9.729   5.657   9.144 -0.2319  0.4082  1.0633
  436MOL0     N60081  10.317   5.387   9.346  0.0968  0.0394 -0.2933
  436MOL0     N60082  10.402   5.366   9.256 -0.3168  0.1508 -0.1628
  436MOL0     C60083   9.817   4.931   8.828  0.0451  0.3128 -0.8345
  436MOL0     C60084   9.832   4.875   8.958 -0.2074 -0.3500  0.9065
  436MOL0     C60085   9.969   4.888   9.380  0.7363 -0.4776  0.6253
  436MOL0     C60086   9.871   4.951   9.467  0.2686  0.5667 -0.3898
  436MOL0     C60087   9.887   4.956   9.609  0.5351  0.0229 -0.3204
  436MOL0     C60088  10.007   4.910   9.665  1.6494  0.1442  0.1758
  436MOL0     O60089  10.039   4.914   9.798  0.4084  0.1125  0.1863
  436MOL0     C60090   9.950   4.985   9.889  0.3551 -0.2859 -0.3604
  436MOL0     C60091   9.972   5.131   9.899  0.6972 -0.8608  0.0375
  436MOL0     C60092  10.112   5.170   9.956  0.6326 -1.0371  0.5136
  436MOL0     C60093  10.110   5.300  10.034 -0.0727 -0.3427  0.7293
  436MOL0     C60094  10.062   5.415   9.953  0.6779  0.2232  0.2691
  436MOL0     C60095  10.021   5.502   9.877 -0.2269 -0.7040  0.3367
  436MOL0     C60096  10.103   4.856   9.580 -0.2195 -0.1977  0.1325
  436MOL0     C60097  10.089   4.834   9.442  0.4640 -0.7925 -0.5983
  436MOL0     C60098  10.209   4.786   9.371  0.8641 -0.2758 -0.1082
  436MOL0     H60099   9.702   5.129   9.134  0.0967 -0.1435 -0.5879
  436MOL0     H60100   9.655   5.222   8.907  1.9425  1.6312  0.0194
  436MOL0     H60101   9.830   5.287   8.737  4.7276  0.7160 -1.0974
  436MOL0     H60102   9.758   5.278   8.575  0.5209 -0.1353  0.4384
  436MOL0     H60103   9.955   5.077   8.582  0.2320 -0.4713 -0.8713
  436MOL0     H60104   9.965   5.242   8.519 -0.1537  0.7279  1.3913
  436MOL0     H60105  10.062   5.339   8.712  2.6084 -0.0477 -1.9960
  436MOL0     H60106  10.040   5.191   8.809  0.4756  2.7185  1.1524
  436MOL0     H60107  10.187   5.067   8.674  1.9318 -0.4793 -0.0464
  436MOL0     H60108  10.197   5.198   8.553  0.5865  0.1799 -0.3954
  436MOL0     H60109  10.292   5.340   8.746 -2.4417 -0.1454  0.9188
  436MOL0     H60110  10.380   5.201   8.678  1.1421 -0.8459  1.9350
  436MOL0     H60111  10.209   5.217   8.934  1.3333  0.4408 -1.2378
  436MOL0     H60112  10.291   5.065   8.870 -1.0629  0.2981 -1.0608
  436MOL0     H60113  10.426   5.330   8.954 -1.0733  0.5458  1.2239
  436MOL0     H60114  10.505   5.185   8.894 -1.6964  0.1560 -1.6498
  436MOL0     H60115  10.396   5.062   9.082  0.7253 -0.2031 -1.2034
  436MOL0     H60116  10.549   5.153   9.109  0.0035 -3.2168  0.1720
  436MOL0     H60117  10.189   5.113   9.247 -1.3833  2.3107 -0.7727
  436MOL0     H60118  10.108   5.363   9.526  1.3141  2.1171 -2.5968
  436MOL0     H60119  10.055   5.196   9.472 -2.1414  0.7899  1.6162
  436MOL0     H60120   9.903   5.394   9.425 -2.4451 -0.8182 -1.3131
  436MOL0     H60121  10.025   5.468   9.333 -1.1013  0.4117 -1.2196
  436MOL0     H60122   9.992   5.184   9.243  0.5913  0.2538  0.5500
  436MOL0     H60123   9.832   5.258   9.269  0.0084  1.1086 -2.9677
  436MOL0     H60124  10.052   5.357   9.106  0.1785  2.1170  1.0084
  436MOL0     H60125   9.880   5.309   9.045 -0.4046 -0.7138  0.5573
  436MOL0     H60126   9.676   5.338   9.184  0.7726  0.7510  2.1033
  436MOL0     H60127   9.484   5.266   9.241 -0.6991 -0.5913 -1.3191
  436MOL0     H60128   9.353   5.352   9.165  0.5318  0.1731 -0.1082
  436MOL0     H60129   9.395   5.385   9.339  1.0406 -2.6977  1.0123
  436MOL0     H60130   9.168   5.852   9.362  0.3133  0.5112  0.0620
  436MOL0     H60131   8.961   5.988   9.357  2.9650  1.6596  0.4464
  436MOL0     H60132   8.649   6.123   9.167  0.5070  1.8298  2.5826
  436MOL0     H60133   8.735   6.016   9.280 -0.1197  2.5614  4.2175
  436MOL0     H60134   8.708   6.280   9.317 -0.5767 -2.1857  1.4553
  436MOL0     H60135   8.862   6.197   9.355 -1.1972 -3.9813 -0.8582
  436MOL0     H60136   8.795   6.330   9.086  2.2966 -0.5780 -0.9355
  436MOL0     H60137   8.955   6.287   9.141  0.7314 -0.5702  2.7126
  436MOL0     H60138   8.787   6.537   9.210  1.2716 -0.0143  0.0330
  436MOL0     H60139   8.957   6.523   9.162  2.6554 -0.5210  0.2532
  436MOL0     H60140   8.893   6.600   9.382  1.2182  0.0330  1.2758
  436MOL0     H60141   8.851   6.448   9.432  2.0035  1.7810  2.1347
  436MOL0     H60142   9.129   6.515   9.318  0.1327 -1.7644 -1.1008
  436MOL0     H60143   9.084   6.359   9.388  1.8908 -0.0057 -0.2460
  436MOL0     H60144   9.200   6.457   9.569 -0.2813 -1.5019 -0.9989
  436MOL0     H60145   9.023   6.463   9.605  1.4899 -0.3145  0.0052
  436MOL0     H60146   9.156   6.694   9.451  0.0351 -0.1307  0.9564
  436MOL0     H60147   9.202   6.680   9.618  1.0454 -3.0938 -0.1087
  436MOL0     H60148   8.985   5.988   8.931  0.5480  0.6059 -0.2013
  436MOL0     H60149   9.196   5.878   8.933  0.8543 -0.8151 -0.5916
  436MOL0     H60150   9.572   5.815   9.128 -0.0551  0.1083  0.3147
  436MOL0     H60151   9.805   5.734   9.134  2.2074 -1.7690  1.8272
  436MOL0     H60152   9.845   4.880   8.736 -1.3292 -0.6865 -0.7321
  436MOL0     H60153   9.856   4.770   8.972 -3.3401 -1.1270  1.3642
  436MOL0     H60154   9.786   5.009   9.433 -0.1504  0.0848 -0.1732
  436MOL0     H60155   9.809   4.987   9.678  1.2987 -2.2499  1.7256
  436MOL0     H60156   9.844   4.957   9.886  0.5904 -1.8301  2.0868
  436MOL0     H60157   9.963   4.941   9.989 -0.7396 -2.5472 -1.1289
  436MOL0     H60158   9.885   5.157   9.959  0.2618 -1.2254 -0.4288
  436MOL0     H60159   9.958   5.172   9.798 -1.0633 -0.4501  0.4132
  436MOL0     H60160  10.138   5.092  10.029  0.3353  0.3914  2.2303
  436MOL0     H60161  10.170   5.172   9.864 -1.6695 -0.5907 -0.9999
  436MOL0     H60162  10.210   5.318  10.076  0.2134 -1.1669  0.4113
  436MOL0     H60163  10.039   5.277  10.114 -1.8680 -2.5000 -1.3752
  436MOL0     H60164   9.990   5.589   9.823 -0.0387 -0.5706  0.4429
  436MOL0     H60165  10.196   4.835   9.633 -1.8156  1.3418  3.9674
  436MOL0     H60166  10.246   4.867   9.307  3.1875 -2.2509 -1.4836
  436MOL0     H60167  10.284   4.754   9.444  0.6225 -1.5394 -0.3905
  436MOL0     H60168  10.192   4.706   9.298  0.3893  1.1179 -1.5892
  437MOL0     O60169   1.427  10.694   3.233  0.0237 -0.4859 -0.4780
  437MOL0     C60170   1.473  10.614   3.308 -0.5708  0.2444 -0.1519
  437MOL0     O60171   1.425  10.487   3.331 -0.1143 -0.0971  0.1382
  437MOL0     C60172   1.316  10.434   3.261 -0.7600 -0.1287  0.1500
  437MOL0     C60173   1.214  10.498   3.189  0.8266  0.3815 -0.5266
  437MOL0     C60174   1.114  10.409   3.128  0.3139 -0.4159  0.6563
  437MOL0     C60175   1.120  10.264   3.140  0.0720  0.7066 -0.1652
  437MOL0     O60176   1.027  10.177   3.074 -0.1734 -0.1329 -0.6276
  437MOL0     C60177   0.942  10.231   2.969 -0.4474 -0.1779 -0.0053
  437MOL0     C60178   0.833  10.136   2.927 -0.0364  0.3130  0.5232
  437MOL0     C60179   0.716  10.129   3.023  0.1116  0.6715 -0.7640
  437MOL0     C60180   0.573  10.081   2.961 -0.0827 -0.3043 -0.2312
  437MOL0     C60181   0.457  10.073   3.060 -0.1390 -0.6610 -0.6490
  437MOL0     C60182   0.326  10.015   2.990 -0.8136  0.9595  0.9948
  437MOL0     C60183   0.211  10.016   3.095 -0.5904 -0.0248 -0.2401
  437MOL0     C60184   0.107   9.928   3.029  0.4904 -0.3284 -0.4349
  437MOL0     N60185   0.040   9.999   2.917  0.8652 -0.6150  0.8127
  437MOL0     C60186   0.036   9.947   2.790  0.3709  0.2890 -0.3082
  437MOL0     C60187  -0.064  10.014   2.725  0.0052 -0.1445 -0.6068
  437MOL0     C60188  -0.117  10.003   2.588 -0.2464 -0.0706 -0.2882
  437MOL0     C60189  -0.244   9.914   2.596 -1.3470 -0.7544 -0.2643
  437MOL0     C60190  -0.286   9.876   2.460 -0.3516  0.5754  0.3994
  437MOL0     C60191  -0.331   9.983   2.370  0.4969  0.2172  0.3004
  437MOL0     O60192  -0.415  10.067   2.438  0.1714  0.9123 -0.3503
  437MOL0     C60193  -0.451  10.187   2.367 -0.4164 -1.0157  0.0134
  437MOL0     C60194  -0.559  10.199   2.283  0.0078  0.2893 -0.2117
  437MOL0     C60195  -0.597  10.325   2.221 -0.3271  0.0083 -0.4647
  437MOL0     C60196  -0.717  10.327   2.132 -0.5155  0.9418  0.4282
  437MOL0     C60197  -0.513  10.444   2.254  0.0798  0.4232  0.4185
  437MOL0     C60198  -0.554  10.582   2.216  0.4296 -0.5461  1.1597
  437MOL0     O60199  -0.504  10.680   2.288 -0.6140 -0.7532 -0.0496
  437MOL0     C60200  -0.513  10.812   2.235 -1.2776 -0.5586  0.4128
  437MOL0     C60201  -0.419  10.853   2.144  0.7383  0.9399  0.6754
  437MOL0     C60202  -0.429  10.982   2.088  0.0231  0.5641 -0.0229
  437MOL0     C60203  -0.527  11.073   2.139  0.3599 -0.4649  0.4531
  437MOL0     O60204  -0.553  11.200   2.097  0.7602  0.1673  0.1757
  437MOL0     C60205  -0.484  11.238   1.977  0.5840  0.4713  0.0168
  437MOL0     C60206  -0.537  11.363   1.916 -0.0369  0.5311  0.9608
  437MOL0     C60207  -0.670  11.346   1.836  1.0365 -0.1198  0.0614
  437MOL0     C60208  -0.781  11.267   1.899 -0.1128  0.9309 -0.0591
  437MOL0     C60209  -0.918  11.281   1.821 -0.5642 -0.5861 -1.1742
  437MOL0     C60210  -0.906  11.201   1.686 -0.8587  0.1168  0.0090
  437MOL0     C60211  -1.045  11.184   1.616  0.8890  1.1231  0.5277
  437MOL0     C60212  -1.033  11.147   1.470  0.1289  0.2199 -0.2761
  437MOL0    Cl60213  -1.194  11.095   1.410 -0.5644 -0.2373  0.3656
  437MOL0     C60214  -0.620  11.028   2.230 -0.0387 -0.5918 -0.9761
  437MOL0     C60215  -0.618  10.897   2.275  0.8881  0.7387 -0.6000
  437MOL0     O60216  -0.622  10.594   2.118  0.6787 -0.0081 -0.1617
  437MOL0     C60217  -0.408  10.424   2.337  0.7865 -0.4251 -0.1868
  437MOL0     C60218  -0.372  10.305   2.382 -1.0639  0.7543 -0.5187
  437MOL0     N60219  -0.123  10.099   2.813  0.1710  0.6368 -0.8387
  437MOL0     N60220  -0.064  10.094   2.930 -0.4433  0.0591  0.5872
  437MOL0     C60221   1.222  10.209   3.221 -0.4539  0.4136  0.3393
  437MOL0     C60222   1.321  10.297   3.275  0.5012  0.1559 -0.2827
  437MOL0     C60223   1.590  10.671   3.387 -0.1051 -0.1098  0.7163
  437MOL0     C60224   1.677  10.767   3.339  0.1723 -0.2209  0.6971
  437MOL0     C60225   1.783  10.822   3.412  0.1819 -0.1748  0.3956
  437MOL0     C60226   1.827  10.766   3.527  0.6710 -0.2051 -0.3148
  437MOL0     O60227   1.948  10.803   3.580  0.0831  0.1947 -0.3261
  437MOL0     C60228   1.953  10.815   3.718 -0.4331 -0.3856  0.3561
  437MOL0     C60229   1.847  10.900   3.780  0.8814 -0.5073  0.0260
  437MOL0     C60230   1.891  11.007   3.874  0.0629 -0.1606 -0.1399
  437MOL0     C60231   1.781  11.081   3.955  0.6968 -1.7220  1.3701
  437MOL0     C60232   1.679  11.155   3.880  0.4761 -0.7292 -0.7010
  437MOL0     C60233   1.593  11.226   3.831 -0.1018 -0.8564 -0.4941
  437MOL0     C60234   1.748  10.660   3.578  0.3108  0.5004 -0.2269
  437MOL0     C60235   1.629  10.621   3.518  1.2983  0.5714 -0.8381
  437MOL0     C60236   1.557  10.514   3.590 -0.1949  0.6562 -0.1492
  437MOL0     H60237   1.216  10.605   3.174  1.5936  0.2627 -1.3535
  437MOL0     H60238   1.044  10.454   3.059  2.9345  1.6522 -0.8539
  437MOL0     H60239   1.014  10.235   2.887 -0.1924  2.3876  0.2661
  437MOL0     H60240   0.897  10.329   2.989  0.0922 -0.3037  2.0697
  437MOL0     H60241   0.797  10.173   2.831  0.0311 -0.9413 -0.0077
  437MOL0     H60242   0.877  10.036   2.917 -0.7833  0.2236 -4.6899
  437MOL0     H60243   0.741  10.056   3.101 -0.6230  0.3462 -0.8241
  437MOL0     H60244   0.715  10.221   3.082 -1.0884 -0.4312  1.0205
  437MOL0     H60245   0.548  10.147   2.877 -1.6272  0.6713  0.9526
  437MOL0     H60246   0.602   9.986   2.915  1.6056 -0.0784  0.3041
  437MOL0     H60247   0.443  10.175   3.098  0.3343 -0.6663 -0.4488
  437MOL0     H60248   0.484  10.014   3.148 -1.2263 -0.4645 -0.1689
  437MOL0     H60249   0.306  10.060   2.892  2.0680  1.7610  0.6574
  437MOL0     H60250   0.356   9.911   2.975  2.4127  2.1169 -2.2372
  437MOL0     H60251   0.158  10.110   3.115 -0.1590  0.1045  0.3245
  437MOL0     H60252   0.233   9.978   3.195 -0.1627  0.2902 -0.2102
  437MOL0     H60253   0.158   9.836   2.999  1.2164 -0.4034  0.9592
  437MOL0     H60254   0.034   9.903   3.106  0.9144 -0.7586 -0.1630
  437MOL0     H60255   0.105   9.870   2.757 -1.5227 -0.6264 -2.3152
  437MOL0     H60256  -0.041   9.965   2.518  1.5916  2.8248 -0.0478
  437MOL0     H60257  -0.151  10.100   2.550  1.4606 -0.2800 -2.5465
  437MOL0     H60258  -0.213   9.825   2.651  1.3128  1.7919  2.8257
  437MOL0     H60259  -0.324   9.961   2.652 -0.0353  0.1986  0.8730
  437MOL0     H60260  -0.210   9.817   2.407 -1.3131  0.2571 -0.6730
  437MOL0     H60261  -0.361   9.798   2.472 -0.9065  1.1413  0.6209
  437MOL0     H60262  -0.243  10.034   2.330  0.5169 -0.8805 -1.1400
  437MOL0     H60263  -0.379   9.947   2.278  0.0337  3.8463 -1.0453
  437MOL0     H60264  -0.630  10.117   2.274  0.3595  0.1805 -2.3736
  437MOL0     H60265  -0.694  10.356   2.029  1.6946 -1.0750  0.2778
  437MOL0     H60266  -0.794  10.392   2.175 -2.5405 -1.5686  0.8330
  437MOL0     H60267  -0.758  10.229   2.105  2.3490  0.2066 -1.7126
  437MOL0     H60268  -0.332  10.790   2.129  1.3840  1.5685  1.5928
  437MOL0     H60269  -0.342  11.010   2.028 -0.2029 -0.4985 -0.8796
  437MOL0     H60270  -0.383  11.268   2.008  0.6653  0.0808  0.1321
  437MOL0     H60271  -0.471  11.158   1.904  0.4425 -1.2076  1.7744
  437MOL0     H60272  -0.540  11.440   1.995  3.2085  1.8933 -0.0916
  437MOL0     H60273  -0.461  11.406   1.850 -2.2425  1.4199 -1.1514
  437MOL0     H60274  -0.652  11.307   1.736 -1.8388  2.1214 -1.4993
  437MOL0     H60275  -0.707  11.447   1.815  1.0996 -0.2404 -0.6283
  437MOL0     H60276  -0.798  11.294   2.003  0.5929 -3.5350  1.4221
  437MOL0     H60277  -0.750  11.162   1.905 -0.8907  0.7308  0.5672
  437MOL0     H60278  -1.005  11.248   1.878 -0.4405  2.3851  0.9782
  437MOL0     H60279  -0.941  11.385   1.796  0.4971 -0.8619 -3.6048
  437MOL0     H60280  -0.847  11.109   1.683  0.9348  1.2431 -1.0297
  437MOL0     H60281  -0.860  11.274   1.618 -1.6798  1.3867  0.7643
  437MOL0     H60282  -1.113  11.269   1.627 -0.6248  0.3123 -1.8002
  437MOL0     H60283  -1.096  11.096   1.657  0.1373 -1.0296 -4.3453
  437MOL0     H60284  -0.969  11.058   1.461 -2.4984 -2.1747  2.5658
  437MOL0     H60285  -1.001  11.232   1.409  0.2812  2.1839  2.3862
  437MOL0     H60286  -0.709  11.087   2.246 -0.8140 -2.1417  0.8991
  437MOL0     H60287  -0.706  10.859   2.326  0.8167  3.0727  1.1766
  437MOL0     H60288  -0.357  10.505   2.389 -0.6755  1.4283 -1.4804
  437MOL0     H60289  -0.286  10.297   2.448  0.2953 -1.1770 -2.4131
  437MOL0     H60290   1.233  10.102   3.234 -3.7820 -0.3193 -1.6302
  437MOL0     H60291   1.403  10.256   3.333  2.6529 -1.7573 -4.2020
  437MOL0     H60292   1.655  10.799   3.238  2.4071 -1.9587 -0.4290
  437MOL0     H60293   1.843  10.893   3.355  1.3512 -1.3031  0.1668
  437MOL0     H60294   1.942  10.714   3.757 -4.6468 -1.3324 -2.6119
  437MOL0     H60295   2.052  10.860   3.732  0.5547 -1.5956 -2.1751
  437MOL0     H60296   1.785  10.825   3.831  0.7598 -1.8396 -1.9667
  437MOL0     H60297   1.795  10.941   3.693 -0.1098 -2.5727 -0.4364
  437MOL0     H60298   1.964  10.953   3.935  1.8287  2.4119  0.1817
  437MOL0     H60299   1.945  11.083   3.816 -0.6312 -0.9142 -1.8435
  437MOL0     H60300   1.835  11.147   4.024 -0.2898 -2.3505  2.7949
  437MOL0     H60301   1.725  11.014   4.020 -0.7840 -0.7613  1.1389
  437MOL0     H60302   1.511  11.279   3.786 -0.7336  0.2163  1.7823
  437MOL0     H60303   1.790  10.604   3.661  1.8248 -0.7993 -1.8049
  437MOL0     H60304   1.586  10.516   3.696  0.5379  0.5643 -0.3374
  437MOL0     H60305   1.451  10.537   3.582 -0.1717  1.0132  0.5129
  437MOL0     H60306   1.570  10.412   3.551  2.5296 -0.5934  3.4241
  438MOL0     O60307   0.977   2.605   8.008 -0.5883 -0.1208 -0.1157
  438MOL0     C60308   1.074   2.531   7.982 -0.2499  0.0857  0.4374
  438MOL0     O60309   1.064   2.403   7.945 -0.7948  0.0225  0.1813
  438MOL0     C60310   0.952   2.330   7.953 -0.6478 -0.9968  1.1291
  438MOL0     C60311   0.878   2.305   7.839 -0.9571  0.2953  0.5383
  438MOL0     C60312   0.771   2.213   7.846 -0.5318  0.8946 -0.2307
  438MOL0     C60313   0.754   2.143   7.972 -0.3908 -0.1348  0.4889
  438MOL0     O60314   0.662   2.039   7.976  0.9415  0.7330  0.4976
  438MOL0     C60315   0.591   1.982   8.092  0.2493 -0.1787 -0.3198
  438MOL0     C60316   0.487   1.887   8.045  0.1706  0.7381  0.3806
  438MOL0     C60317   0.547   1.750   8.044  0.8970  0.5630  0.1152
  438MOL0     C60318   0.437   1.640   8.047  0.0209 -0.8521 -0.1335
  438MOL0     C60319   0.482   1.504   8.077  0.5691 -0.4343 -0.1806
  438MOL0     C60320   0.375   1.396   8.055 -1.1371  0.4632 -0.0329
  438MOL0     C60321   0.258   1.422   8.152  0.2527 -0.8593  0.4421
  438MOL0     C60322   0.149   1.309   8.162 -0.4748  0.9814  0.7352
  438MOL0     N60323   0.093   1.265   8.039  0.9970  1.1387 -0.4272
  438MOL0     C60324  -0.005   1.338   7.968  0.4272  0.2618  0.4127
  438MOL0     C60325  -0.019   1.275   7.852 -0.3788  0.9715 -0.5117
  438MOL0     C60326  -0.113   1.325   7.744 -0.7789  0.0445  0.1597
  438MOL0     C60327  -0.143   1.246   7.623 -0.3217 -0.2906  0.2017
  438MOL0     C60328  -0.042   1.272   7.506 -1.0087  0.3968 -0.1820
  438MOL0     C60329   0.101   1.224   7.543  0.4117  0.5978 -0.6352
  438MOL0     O60330   0.181   1.211   7.423 -0.9888  0.8818  0.4587
  438MOL0     C60331   0.315   1.225   7.439  0.4474  0.6853  0.4018
  438MOL0     C60332   0.394   1.227   7.560  0.4462 -0.4340  1.3232
  438MOL0     C60333   0.530   1.265   7.564  0.2808  0.7089 -0.2137
  438MOL0     C60334   0.599   1.256   7.706 -0.4570 -0.7767  1.3349
  438MOL0     C60335   0.591   1.311   7.438  0.7620  0.8796  0.5805
  438MOL0     C60336   0.731   1.354   7.432 -0.4870  1.0868 -0.0854
  438MOL0     O60337   0.768   1.379   7.301 -0.9339  0.0194 -0.6014
  438MOL0     C60338   0.872   1.466   7.288  0.8330  0.7518  0.3057
  438MOL0     C60339   0.869   1.595   7.347 -0.4250 -0.1473 -0.5169
  438MOL0     C60340   0.974   1.687   7.331  0.2191  0.4111 -0.3143
  438MOL0     C60341   1.077   1.656   7.241 -0.1405  0.2640 -0.9185
  438MOL0     O60342   1.164   1.768   7.216  0.6017 -0.8791 -0.3019
  438MOL0     C60343   1.284   1.733   7.149 -0.2046  0.3333  0.0267
  438MOL0     C60344   1.384   1.850   7.166  0.2278 -0.9444 -0.7273
  438MOL0     C60345   1.412   1.880   7.312 -1.0028  0.1612 -0.2035
  438MOL0     C60346   1.515   1.996   7.322  0.2397  0.0827  0.1863
  438MOL0     C60347   1.445   2.130   7.274  0.1866 -0.5589 -0.1032
  438MOL0     C60348   1.534   2.261   7.307 -0.3639  0.3731  0.6262
  438MOL0     C60349   1.618   2.288   7.185  0.5106  0.2616  0.1800
  438MOL0     C60350   1.655   2.439   7.172  0.4615  0.1204 -0.2485
  438MOL0    Cl60351   1.767   2.471   7.041 -0.2939 -0.0907  0.2769
  438MOL0     C60352   1.091   1.531   7.181 -0.1378  1.0624 -0.3729
  438MOL0     C60353   0.981   1.439   7.200  0.4283 -0.4324 -0.5419
  438MOL0     O60354   0.798   1.382   7.536  0.5892  0.0426 -0.3705
  438MOL0     C60355   0.525   1.304   7.318  0.4148 -0.5486 -0.0427
  438MOL0     C60356   0.391   1.256   7.316  0.9185  0.6585  0.7182
  438MOL0     N60357   0.053   1.154   7.858  0.3407  0.1512  0.0913
  438MOL0     N60358   0.115   1.148   7.972 -0.3565  0.3944  0.4752
  438MOL0     C60359   0.831   2.153   8.081 -0.1933  0.5310 -1.2045
  438MOL0     C60360   0.925   2.255   8.072 -0.0452 -0.9734  0.5988
  438MOL0     C60361   1.215   2.583   7.997 -0.2328 -0.1137  0.4213
  438MOL0     C60362   1.241   2.715   7.961 -0.3579 -0.1670  0.7499
  438MOL0     C60363   1.381   2.748   7.956  0.2010 -0.5555  0.4808
  438MOL0     C60364   1.484   2.661   7.982 -1.1770  0.1095  0.0810
  438MOL0     O60365   1.610   2.708   7.965 -0.2432  0.5788 -0.2336
  438MOL0     C60366   1.693   2.711   8.076 -0.4328  0.3385 -0.9525
  438MOL0     C60367   1.800   2.817   8.081 -0.1222  1.1147  0.3413
  438MOL0     C60368   1.739   2.950   8.048  0.4184  0.4905  0.1330
  438MOL0     C60369   1.725   3.002   7.908 -0.2213 -0.1448 -0.0445
  438MOL0     C60370   1.849   2.994   7.841  0.2730  0.2654  0.2442
  438MOL0     C60371   1.954   3.006   7.780  0.2171 -0.5615 -0.1785
  438MOL0     C60372   1.451   2.533   8.035 -0.3544 -0.0238  0.8919
  438MOL0     C60373   1.319   2.497   8.044  0.1531 -0.2071 -0.0101
  438MOL0     C60374   1.295   2.363   8.107  0.4280  0.3900 -0.3923
  438MOL0     H60375   0.893   2.349   7.740 -2.8568  0.0214  0.0850
  438MOL0     H60376   0.705   2.181   7.765 -0.3203  1.2595 -0.5534
  438MOL0     H60377   0.548   2.057   8.159  2.7335 -0.7416  2.0895
  438MOL0     H60378   0.665   1.926   8.151 -0.0278 -2.4331 -1.9605
  438MOL0     H60379   0.396   1.892   8.106 -1.3850 -1.5352 -1.5775
  438MOL0     H60380   0.456   1.913   7.944  0.2715 -0.5175  0.0115
  438MOL0     H60381   0.613   1.735   7.958  3.0172  1.4677  1.5011
  438MOL0     H60382   0.603   1.741   8.138 -2.5760  3.8742  2.8453
  438MOL0     H60383   0.361   1.664   8.122  2.4026 -1.7278  2.7436
  438MOL0     H60384   0.389   1.647   7.949  0.4615 -0.0220 -0.2984
  438MOL0     H60385   0.505   1.497   8.184 -3.6495  0.2004  0.9442
  438MOL0     H60386   0.568   1.479   8.015  1.1291  4.1661 -1.6352
  438MOL0     H60387   0.347   1.379   7.950  2.4238 -0.0791 -1.0214
  438MOL0     H60388   0.419   1.299   8.082 -0.2513 -0.7435 -4.8081
  438MOL0     H60389   0.203   1.510   8.119 -2.8447 -2.6700  0.3611
  438MOL0     H60390   0.294   1.435   8.254 -1.4845 -4.3563  1.6549
  438MOL0     H60391   0.202   1.227   8.212 -1.1049  0.3670  0.4151
  438MOL0     H60392   0.070   1.341   8.229 -0.6568 -0.4754  1.2643
  438MOL0     H60393  -0.059   1.427   7.999 -0.2017 -0.6634  2.1294
  438MOL0     H60394  -0.069   1.421   7.714 -1.2784  0.6666  1.3231
  438MOL0     H60395  -0.202   1.351   7.803 -0.1512  4.2717 -0.4365
  438MOL0     H60396  -0.131   1.138   7.635 -0.7595 -0.6412 -2.0236
  438MOL0     H60397  -0.247   1.270   7.598 -0.1710  0.8854  0.6479
  438MOL0     H60398  -0.067   1.218   7.414 -1.5601  0.7401 -0.2380
  438MOL0     H60399  -0.055   1.379   7.487 -2.1341 -0.1472 -3.0970
  438MOL0     H60400   0.138   1.295   7.617  1.2564 -0.3737 -0.0957
  438MOL0     H60401   0.091   1.123   7.586  0.3428  0.5414 -0.7814
  438MOL0     H60402   0.344   1.216   7.656 -0.0783  1.5413  1.3236
  438MOL0     H60403   0.534   1.236   7.791  1.6002 -0.7922  2.9676
  438MOL0     H60404   0.648   1.350   7.732  0.1954 -0.1942 -1.5835
  438MOL0     H60405   0.681   1.184   7.699 -1.2369 -2.1514  4.6778
  438MOL0     H60406   0.784   1.631   7.403 -1.3696 -0.5037 -1.6730
  438MOL0     H60407   0.967   1.787   7.372  2.8461  3.1803 -5.5758
  438MOL0     H60408   1.324   1.644   7.198 -0.0842  0.1542 -0.3927
  438MOL0     H60409   1.280   1.720   7.040 -0.5280  0.5514  0.0118
  438MOL0     H60410   1.479   1.831   7.114 -0.7499 -0.5615 -2.7456
  438MOL0     H60411   1.337   1.932   7.110  1.5592 -0.8174 -1.7066
  438MOL0     H60412   1.460   1.794   7.360 -1.6387 -0.3360 -0.4471
  438MOL0     H60413   1.315   1.906   7.355 -1.1395  1.8110 -1.4515
  438MOL0     H60414   1.601   1.975   7.257 -0.6588  2.4656 -1.9303
  438MOL0     H60415   1.543   2.016   7.426 -0.2764  2.0393 -0.0147
  438MOL0     H60416   1.437   2.112   7.167 -0.1519 -2.0073  0.1442
  438MOL0     H60417   1.347   2.136   7.323  0.0876 -1.1934 -0.2051
  438MOL0     H60418   1.598   2.253   7.395  0.4614  2.1441  0.2386
  438MOL0     H60419   1.461   2.336   7.340 -0.5576  1.3523 -1.7752
  438MOL0     H60420   1.569   2.259   7.092 -2.5722  0.9124  1.5032
  438MOL0     H60421   1.711   2.229   7.181 -0.4288 -1.3320  0.9424
  438MOL0     H60422   1.700   2.468   7.267  0.6825  3.7438 -1.3139
  438MOL0     H60423   1.566   2.503   7.174  1.0377  0.9323 -0.3258
  438MOL0     H60424   1.165   1.517   7.103 -1.1929 -0.3634 -1.1570
  438MOL0     H60425   0.974   1.350   7.138  2.0514 -1.2277  0.3433
  438MOL0     H60426   0.564   1.341   7.223  0.9184 -0.2043  0.2919
  438MOL0     H60427   0.346   1.253   7.217 -0.4203  2.1517  1.2500
  438MOL0     H60428   0.819   2.093   8.171  2.1301 -1.9061 -2.3679
  438MOL0     H60429   0.986   2.275   8.159  1.5397 -1.3049 -0.4069
  438MOL0     H60430   1.156   2.779   7.940 -0.5594 -0.3009  1.1665
  438MOL0     H60431   1.407   2.849   7.925 -0.6706  0.4524  2.8464
  438MOL0     H60432   1.621   2.730   8.157  0.7711  1.0040 -0.0116
  438MOL0     H60433   1.745   2.622   8.115  1.5976  1.9282  0.1419
  438MOL0     H60434   1.883   2.777   8.024  1.4411  0.9530  2.5869
  438MOL0     H60435   1.839   2.827   8.183 -0.4333 -1.3193  0.7626
  438MOL0     H60436   1.641   2.954   8.097  0.6463 -1.3946  0.8393
  438MOL0     H60437   1.801   3.025   8.097  0.4392  0.1579  0.6280
  438MOL0     H60438   1.689   3.106   7.910 -2.1600 -0.7614  1.8614
  438MOL0     H60439   1.647   2.941   7.861  0.1247 -0.7190  0.1214
  438MOL0     H60440   2.042   3.025   7.722 -0.6129 -0.5615 -1.4907
  438MOL0     H60441   1.536   2.473   8.066  1.3924  1.5203 -0.6962
  438MOL0     H60442   1.384   2.340   8.166  0.0438  0.4698  0.2230
  438MOL0     H60443   1.208   2.369   8.173  1.1403 -3.4621  1.1597
  438MOL0     H60444   1.277   2.285   8.032  1.9434  0.1372 -0.5204
  439MOL0     O60445  10.547   1.006  10.465  0.0774  0.0698  0.4245
  439MOL0     C60446  10.664   1.040  10.452 -0.0770  0.5635  0.7219
  439MOL0     O60447  10.722   1.060  10.332  0.0996  0.1694 -0.2809
  439MOL0     C60448  10.647   1.063  10.217  0.3719 -0.4389 -0.3318
  439MOL0     C60449  10.657   0.964  10.123 -0.1693  0.1552 -0.2969
  439MOL0     C60450  10.581   0.971  10.009 -0.4161 -0.0283 -0.4682
  439MOL0     C60451  10.493   1.082   9.987 -0.7566  0.2323 -0.9539
  439MOL0     O60452  10.407   1.094   9.886 -0.2045 -0.1677  0.4354
  439MOL0     C60453  10.465   1.086   9.755 -0.0256  0.6656 -1.1307
  439MOL0     C60454  10.365   1.041   9.650 -0.4295  0.1225 -0.1231
  439MOL0     C60455  10.266   1.150   9.628  0.2247  0.8345 -0.6413
  439MOL0     C60456  10.184   1.110   9.508  0.3037  0.8595  0.1477
  439MOL0     C60457  10.124   1.234   9.427 -0.2378  0.0569  0.1271
  439MOL0     C60458  10.000   1.301   9.503 -0.6361  1.3531  0.7209
  439MOL0     C60459   9.923   1.397   9.409  0.6454  0.2465  0.2674
  439MOL0     C60460   9.848   1.351   9.282  0.0071 -0.2520 -0.1820
  439MOL0     N60461   9.936   1.328   9.169  0.2303  0.1381  0.5290
  439MOL0     C60462  10.003   1.435   9.110 -0.7086  0.0498 -0.1711
  439MOL0     C60463  10.097   1.373   9.025 -0.5711 -0.3722 -0.4781
  439MOL0     C60464  10.214   1.454   8.981 -0.6602  0.2926 -0.5168
  439MOL0     C60465  10.292   1.510   9.108  0.0758  0.4771 -0.0546
  439MOL0     C60466  10.410   1.592   9.051 -0.4248 -0.4186  0.1511
  439MOL0     C60467  10.543   1.523   9.064  0.5912  0.0450 -0.8580
  439MOL0     O60468  10.532   1.385   9.027  0.4169  0.7391  0.0539
  439MOL0     C60469  10.536   1.350   8.886  0.8196 -0.1093 -0.4654
  439MOL0     C60470  10.462   1.234   8.838  0.4166 -0.5487 -0.6113
  439MOL0     C60471  10.476   1.190   8.701  0.1929  0.2587 -0.1922
  439MOL0     C60472  10.396   1.060   8.659  0.3005 -0.5321 -0.3929
  439MOL0     C60473  10.551   1.266   8.611  0.5071 -0.1484 -1.1679
  439MOL0     C60474  10.580   1.230   8.480  0.5334  1.0075 -0.3879
  439MOL0     O60475  10.710   1.179   8.472  0.0280 -0.4771  0.0004
  439MOL0     C60476  10.780   1.204   8.355 -0.0438  0.8772 -0.9439
  439MOL0     C60477  10.891   1.121   8.359 -0.3220 -0.5360  0.1159
  439MOL0     C60478  10.966   1.118   8.244  0.2406  0.1436  0.0720
  439MOL0     C60479  10.946   1.211   8.135 -0.5689 -0.1112 -0.4934
  439MOL0     O60480  11.043   1.235   8.044  0.0945  0.2814  0.1134
  439MOL0     C60481  11.066   1.353   7.969 -0.4316 -0.3156  0.1115
  439MOL0     C60482  11.031   1.314   7.834  0.2720  0.9002  0.7478
  439MOL0     C60483  10.990   1.438   7.752 -0.2139  0.1176 -0.2028
  439MOL0     C60484  10.964   1.401   7.602  0.3930 -0.0245 -0.4640
  439MOL0     C60485  10.857   1.292   7.587  0.5667  0.3135  0.2038
  439MOL0     C60486  10.792   1.283   7.453  0.1124 -0.2642  0.3046
  439MOL0     C60487  10.869   1.299   7.316 -0.5691  1.1115 -0.2579
  439MOL0     C60488  10.975   1.184   7.289 -0.0349  0.3559  0.2844
  439MOL0    Cl60489  10.905   1.010   7.277  0.2010 -0.1340  0.4011
  439MOL0     C60490  10.829   1.285   8.140  0.2770 -0.1578 -0.4018
  439MOL0     C60491  10.746   1.290   8.250 -0.2077  1.0176 -0.7196
  439MOL0     O60492  10.501   1.254   8.388 -0.0493 -0.3653 -0.1331
  439MOL0     C60493  10.604   1.387   8.660  0.5742 -0.0332 -0.1627
  439MOL0     C60494  10.599   1.433   8.793 -0.5756 -0.3497  0.6716
  439MOL0     N60495  10.080   1.235   9.033 -0.0422  0.7563  0.2445
  439MOL0     N60496   9.970   1.211   9.110  1.0203  0.6936  0.3365
  439MOL0     C60497  10.485   1.173  10.087 -0.4609 -0.4475  0.0688
  439MOL0     C60498  10.568   1.176  10.199  0.3480  0.0999 -0.3051
  439MOL0     C60499  10.735   1.098  10.574  0.8839  0.1106 -0.8479
  439MOL0     C60500  10.845   1.184  10.556  0.3522  0.0032  0.9138
  439MOL0     C60501  10.900   1.242  10.662  0.1225  0.0566  1.4236
  439MOL0     C60502  10.862   1.221  10.793 -0.5502 -0.5631  0.1937
  439MOL0     O60503  10.915   1.271  10.909  0.1344  0.0846  0.2306
  439MOL0     C60504  11.018   1.368  10.900  0.4284  0.0987  0.6667
  439MOL0     C60505  11.159   1.318  10.866 -0.0469 -0.0071  0.3695
  439MOL0     C60506  11.222   1.208  10.950 -0.5101  1.1395 -0.1732
  439MOL0     C60507  11.222   1.251  11.103 -0.8855 -0.8477  0.1324
  439MOL0     C60508  11.331   1.350  11.135  0.3739 -0.1227 -0.0261
  439MOL0     C60509  11.418   1.424  11.159  0.1547  0.0205 -0.3279
  439MOL0     C60510  10.761   1.132  10.814 -0.4871  0.6483 -0.3657
  439MOL0     C60511  10.694   1.070  10.712  0.0359  0.2983  0.8998
  439MOL0     C60512  10.594   0.964  10.750  0.1392  0.7516 -0.1171
  439MOL0     H60513  10.727   0.881  10.121 -0.1242  0.1448 -3.6022
  439MOL0     H60514  10.587   0.886   9.941 -1.9853 -1.4405  1.0520
  439MOL0     H60515  10.534   1.001   9.765 -1.7771 -0.8009 -0.9893
  439MOL0     H60516  10.516   1.181   9.737 -0.7818  1.4710  0.7065
  439MOL0     H60517  10.421   1.034   9.557 -2.0343 -0.1562 -1.1205
  439MOL0     H60518  10.319   0.943   9.670 -2.4447  1.0329 -0.0080
  439MOL0     H60519  10.195   1.161   9.711 -1.7567  0.8421 -2.2445
  439MOL0     H60520  10.324   1.241   9.611  0.0488  1.1920  0.6233
  439MOL0     H60521  10.257   1.068   9.437 -0.5636 -1.4060  0.5180
  439MOL0     H60522  10.110   1.032   9.525  2.2046 -1.3011 -0.8305
  439MOL0     H60523  10.097   1.216   9.323  1.2256  0.7150 -0.3858
  439MOL0     H60524  10.196   1.316   9.432 -1.1806  1.0117 -1.4239
  439MOL0     H60525   9.935   1.218   9.534  1.5818 -0.9107 -0.3603
  439MOL0     H60526  10.048   1.348   9.589  2.1510 -0.7666  0.4409
  439MOL0     H60527   9.998   1.466   9.369  0.7373 -1.5650 -3.0328
  439MOL0     H60528   9.854   1.465   9.460 -1.1820  0.2991 -2.0848
  439MOL0     H60529   9.800   1.252   9.287  0.4135 -0.5397 -1.5894
  439MOL0     H60530   9.763   1.416   9.260 -1.3817 -1.3226  1.6538
  439MOL0     H60531   9.999   1.539   9.141  0.7945  0.6487 -1.7941
  439MOL0     H60532  10.166   1.535   8.926  0.6913  2.5877  1.4642
  439MOL0     H60533  10.272   1.391   8.913 -1.6733 -1.1998 -0.0272
  439MOL0     H60534  10.228   1.567   9.177 -1.4076  0.5292 -1.4283
  439MOL0     H60535  10.326   1.429   9.173 -1.8043  0.4007  0.8780
  439MOL0     H60536  10.394   1.616   8.946  0.8672  1.7970  0.4057
  439MOL0     H60537  10.404   1.687   9.106 -3.5153 -2.1382  3.1864
  439MOL0     H60538  10.623   1.580   9.016  2.8807 -0.1821  2.3141
  439MOL0     H60539  10.572   1.526   9.170  0.8779  1.1513 -0.9631
  439MOL0     H60540  10.424   1.168   8.915  0.8129  0.6766  0.6667
  439MOL0     H60541  10.432   0.978   8.721  2.3686 -1.0894 -2.2158
  439MOL0     H60542  10.405   1.039   8.552  2.9356  1.4754 -0.6704
  439MOL0     H60543  10.289   1.065   8.683  0.2878  0.6056 -0.6324
  439MOL0     H60544  10.897   1.045   8.437 -1.8241  0.3295  1.1215
  439MOL0     H60545  11.048   1.050   8.227  0.7808  0.7763  0.0687
  439MOL0     H60546  11.014   1.446   7.993  1.0324  1.3068 -2.5673
  439MOL0     H60547  11.168   1.393   7.978 -0.2505 -0.8784  0.6816
  439MOL0     H60548  11.116   1.264   7.786  0.8843  1.5811  1.1022
  439MOL0     H60549  10.948   1.242   7.838  0.1471  1.1001  2.8922
  439MOL0     H60550  11.053   1.526   7.761 -1.6837  1.4422 -2.0522
  439MOL0     H60551  10.893   1.467   7.794 -0.7180 -1.3491 -0.2983
  439MOL0     H60552  11.063   1.388   7.558  1.1527 -1.5536  1.5521
  439MOL0     H60553  10.932   1.492   7.551 -0.9910 -0.6996 -0.8652
  439MOL0     H60554  10.904   1.197   7.613  1.1304 -0.3346 -2.8739
  439MOL0     H60555  10.779   1.306   7.662 -0.1860 -1.4664 -0.1989
  439MOL0     H60556  10.701   1.343   7.450 -1.1477 -2.0217  1.1456
  439MOL0     H60557  10.742   1.186   7.453  0.5267 -0.4861  0.7048
  439MOL0     H60558  10.922   1.394   7.310 -2.0073  1.8395 -2.9695
  439MOL0     H60559  10.795   1.297   7.236 -0.5916  1.6578 -0.2547
  439MOL0     H60560  11.046   1.175   7.373 -1.1675 -0.2552  1.2049
  439MOL0     H60561  11.026   1.214   7.197  0.7082 -1.7917 -0.0676
  439MOL0     H60562  10.786   1.347   8.062 -1.1584 -2.4253 -1.5265
  439MOL0     H60563  10.658   1.353   8.239 -0.0622  2.1473  3.2530
  439MOL0     H60564  10.655   1.456   8.594 -4.5426  0.9339 -3.7116
  439MOL0     H60565  10.662   1.515   8.823 -1.1447  0.7254 -0.9404
  439MOL0     H60566  10.416   1.255  10.069  1.7592  1.4690 -0.1074
  439MOL0     H60567  10.563   1.256  10.273  0.8164 -0.5479  0.4392
  439MOL0     H60568  10.886   1.206  10.458  0.4305 -2.4402  0.3432
  439MOL0     H60569  10.974   1.317  10.637 -1.1828  0.5342 -1.3719
  439MOL0     H60570  10.982   1.440  10.826 -1.5636 -2.2451 -0.8130
  439MOL0     H60571  11.034   1.417  10.996 -0.6958 -0.7170  1.2966
  439MOL0     H60572  11.215   1.412  10.862 -1.9541  1.1320 -3.1382
  439MOL0     H60573  11.169   1.278  10.765  0.3113 -0.4774  0.5867
  439MOL0     H60574  11.158   1.119  10.954  0.2834  0.2912 -3.1684
  439MOL0     H60575  11.317   1.180  10.903 -1.9421 -0.1238 -2.5423
  439MOL0     H60576  11.249   1.161  11.160 -0.0964 -0.1814  0.8386
  439MOL0     H60577  11.131   1.297  11.144 -1.6667 -3.8998  2.1913
  439MOL0     H60578  11.502   1.485  11.186  0.7789 -1.9560  2.6076
  439MOL0     H60579  10.731   1.122  10.918 -1.2768 -2.4167 -0.8135
  439MOL0     H60580  10.496   1.008  10.730 -0.5935  0.9622  3.3031
  439MOL0     H60581  10.605   0.874  10.688 -4.0312 -1.9071  2.5160
  439MOL0     H60582  10.603   0.925  10.851  0.8328 -1.7962 -1.0825
  440MOL0     O60583   5.611   6.126   4.029  0.5719 -0.3034  0.2673
  440MOL0     C60584   5.719   6.112   4.079  0.6808 -0.1636 -0.3393
  440MOL0     O60585   5.733   6.082   4.209  0.6546  0.3154  0.1145
  440MOL0     C60586   5.618   6.055   4.287  0.6357 -0.0115  0.3121
  440MOL0     C60587   5.576   5.928   4.308 -0.2058 -0.1158 -0.4474
  440MOL0     C60588   5.450   5.910   4.374  0.5090  0.4006  0.5872
  440MOL0     C60589   5.375   6.024   4.418  0.2542 -0.6825 -0.7747
  440MOL0     O60590   5.267   6.024   4.494 -0.6784  0.1854 -0.8555
  440MOL0     C60591   5.185   5.907   4.493  0.9025  0.1415  0.4111
  440MOL0     C60592   5.069   5.918   4.588 -0.1674  0.5698 -0.7329
  440MOL0     C60593   5.103   5.954   4.728 -0.4475 -0.2793 -0.2700
  440MOL0     C60594   4.990   5.947   4.829 -0.7042  0.2561 -1.0975
  440MOL0     C60595   5.023   6.006   4.961  0.8167 -0.1982 -0.4067
  440MOL0     C60596   4.933   5.968   5.071  0.5123  0.0885 -0.4928
  440MOL0     C60597   4.945   6.054   5.203  0.1046  0.4680  0.5643
  440MOL0     C60598   5.071   6.024   5.285 -0.4045 -0.4679 -0.2144
  440MOL0     N60599   5.087   6.115   5.405 -0.2935 -1.0893  0.0440
  440MOL0     C60600   5.128   6.252   5.399  0.1807  0.9908  0.4856
  440MOL0     C60601   5.130   6.287   5.537  0.0751 -0.5140  0.1535
  440MOL0     C60602   5.157   6.428   5.583 -1.0280  0.2649 -0.1119
  440MOL0     C60603   5.313   6.437   5.607  0.5844 -0.0512 -0.4756
  440MOL0     C60604   5.357   6.572   5.650  0.2882  0.4844  0.3857
  440MOL0     C60605   5.365   6.679   5.541  1.0361 -0.4443 -0.6741
  440MOL0     O60606   5.419   6.622   5.424 -0.5102 -0.5741  0.4391
  440MOL0     C60607   5.380   6.701   5.323 -0.1234  0.3746  1.0487
  440MOL0     C60608   5.475   6.786   5.252  0.1751 -0.1600  0.5123
  440MOL0     C60609   5.448   6.852   5.133  0.6366 -0.2755  0.4779
  440MOL0     C60610   5.557   6.927   5.061  0.1341 -0.3144 -0.5322
  440MOL0     C60611   5.314   6.853   5.093 -0.0759  0.7075  0.3363
  440MOL0     C60612   5.257   6.949   4.986 -0.5731  0.2422 -0.3519
  440MOL0     O60613   5.334   7.050   4.935  0.0988 -0.0205 -0.4412
  440MOL0     C60614   5.277   7.102   4.822 -0.5076  0.4911  0.0208
  440MOL0     C60615   5.189   7.204   4.822  0.1774  0.2987  1.0066
  440MOL0     C60616   5.121   7.241   4.712  0.7103  0.0819  0.8765
  440MOL0     C60617   5.133   7.171   4.587 -1.0909 -0.9332 -0.6612
  440MOL0     O60618   5.072   7.198   4.475  0.3764  0.4313  0.5526
  440MOL0     C60619   4.971   7.302   4.479 -0.0964  0.5610 -0.3994
  440MOL0     C60620   4.912   7.322   4.339  0.7783  0.5245  0.7067
  440MOL0     C60621   4.804   7.223   4.307  0.2912  0.1616 -0.0845
  440MOL0     C60622   4.704   7.248   4.194 -0.5371  1.1589  0.1704
  440MOL0     C60623   4.631   7.115   4.166 -0.6573  0.0396  1.1493
  440MOL0     C60624   4.529   7.071   4.269  0.4253 -0.6364 -0.9427
  440MOL0     C60625   4.471   6.926   4.262 -0.2481  0.3658 -1.3727
  440MOL0     C60626   4.385   6.933   4.129 -0.1462  0.6074  0.2194
  440MOL0    Cl60627   4.314   6.779   4.076  0.0382 -0.0261 -0.6839
  440MOL0     C60628   5.227   7.062   4.587 -0.8027  0.0187 -0.3008
  440MOL0     C60629   5.300   7.038   4.702  0.6812 -0.3771 -1.2365
  440MOL0     O60630   5.141   6.924   4.957 -0.7751  0.4239 -0.3895
  440MOL0     C60631   5.222   6.770   5.168  0.7882  0.2935  0.3808
  440MOL0     C60632   5.249   6.693   5.273 -0.0116  0.2230 -0.1332
  440MOL0     N60633   5.081   6.180   5.605 -0.7340  0.2346 -0.4391
  440MOL0     N60634   5.078   6.077   5.533  0.1111  0.1969  0.3143
  440MOL0     C60635   5.437   6.146   4.407  0.4918  0.3060 -0.4185
  440MOL0     C60636   5.549   6.170   4.337 -0.1646  0.7611 -0.2920
  440MOL0     C60637   5.832   6.174   4.012 -0.5087 -0.1290 -0.0945
  440MOL0     C60638   5.930   6.230   4.094  0.0686  0.5409 -0.4620
  440MOL0     C60639   6.034   6.315   4.051  0.4958 -0.8567 -0.0317
  440MOL0     C60640   6.046   6.345   3.919  0.0516  0.2759  0.1307
  440MOL0     O60641   6.142   6.443   3.875 -0.5397  0.0934  0.6705
  440MOL0     C60642   6.150   6.489   3.732 -0.7246  0.2118  0.3584
  440MOL0     C60643   6.279   6.566   3.711 -0.5519  0.2366 -0.1822
  440MOL0     C60644   6.279   6.709   3.775 -0.1150  0.2940 -0.3044
  440MOL0     C60645   6.188   6.809   3.709 -0.1572  0.3638  0.2201
  440MOL0     C60646   6.216   6.945   3.761 -0.2953  0.5286 -0.0929
  440MOL0     C60647   6.257   7.053   3.805  0.1449  0.3938  0.0213
  440MOL0     C60648   5.955   6.275   3.825 -0.1359 -0.4568  0.3508
  440MOL0     C60649   5.855   6.187   3.875 -0.3610  0.4839  0.5474
  440MOL0     C60650   5.757   6.128   3.764 -0.2776 -0.5349  0.5341
  440MOL0     H60651   5.627   5.845   4.261  3.4329  2.1113 -0.8077
  440MOL0     H60652   5.405   5.812   4.365  0.1211  0.7735 -3.4255
  440MOL0     H60653   5.238   5.816   4.523  1.3995  0.6623  1.1561
  440MOL0     H60654   5.150   5.884   4.392  0.4234  2.6919 -0.0710
  440MOL0     H60655   5.004   6.000   4.554 -0.9267  0.6852  0.8692
  440MOL0     H60656   5.015   5.824   4.586 -0.5212  0.6411  1.7708
  440MOL0     H60657   5.172   5.883   4.774 -2.9523 -3.9218 -1.6921
  440MOL0     H60658   5.156   6.049   4.720  0.0375 -0.6946 -2.4120
  440MOL0     H60659   4.894   5.971   4.783 -0.2453  0.0708 -2.1708
  440MOL0     H60660   4.984   5.840   4.849 -0.0601  0.3195 -0.5416
  440MOL0     H60661   5.007   6.113   4.944  2.6329  0.2684  0.5295
  440MOL0     H60662   5.126   5.983   4.988  1.3664  2.2550 -0.1211
  440MOL0     H60663   4.829   5.976   5.039  0.5437  1.9440 -0.2528
  440MOL0     H60664   4.966   5.866   5.093 -0.3217  0.2463  1.7652
  440MOL0     H60665   4.862   6.018   5.264 -0.5285  0.1528 -0.4507
  440MOL0     H60666   4.919   6.158   5.182 -1.3748 -0.0207 -0.1926
  440MOL0     H60667   5.051   5.924   5.325 -3.6873 -0.0805 -0.6532
  440MOL0     H60668   5.160   6.032   5.223 -0.9096 -0.5906 -0.9602
  440MOL0     H60669   5.164   6.300   5.309 -0.3882 -0.2808 -0.4473
  440MOL0     H60670   5.106   6.441   5.679 -2.4911  1.7290 -1.0394
  440MOL0     H60671   5.119   6.512   5.525 -0.2362 -0.8153 -2.3020
  440MOL0     H60672   5.344   6.355   5.672  3.3409  1.0849 -0.2541
  440MOL0     H60673   5.365   6.415   5.513  3.2355  2.7642  0.1634
  440MOL0     H60674   5.298   6.604   5.737  0.7435  2.3774  0.0334
  440MOL0     H60675   5.454   6.564   5.700 -0.3032  4.0298  2.4116
  440MOL0     H60676   5.260   6.711   5.541  1.1463  0.2231  2.4722
  440MOL0     H60677   5.427   6.758   5.583  0.9118 -0.3447 -0.6768
  440MOL0     H60678   5.573   6.794   5.297  0.1658  2.5938  0.2111
  440MOL0     H60679   5.573   6.900   4.956 -1.1244  0.5413 -0.9697
  440MOL0     H60680   5.653   6.902   5.107 -1.1176 -1.3592  1.6516
  440MOL0     H60681   5.547   7.036   5.071 -0.6504 -0.2938 -1.3688
  440MOL0     H60682   5.171   7.248   4.920 -1.8582  0.5148  0.5839
  440MOL0     H60683   5.053   7.325   4.715 -0.3808 -0.8049  1.2933
  440MOL0     H60684   4.885   7.279   4.543  0.8480  1.5911  1.3116
  440MOL0     H60685   5.017   7.393   4.519 -0.8625  1.2570 -1.0393
  440MOL0     H60686   4.868   7.422   4.332 -1.2660 -0.4548 -2.2882
  440MOL0     H60687   4.990   7.318   4.262 -0.6936  2.5301 -1.0159
  440MOL0     H60688   4.745   7.197   4.396  0.3966  0.3680  0.0472
  440MOL0     H60689   4.861   7.132   4.288 -0.9984 -0.3496 -1.7115
  440MOL0     H60690   4.771   7.269   4.109 -0.3953 -3.2833 -1.0510
  440MOL0     H60691   4.636   7.330   4.219 -2.4459 -1.0381  2.7311
  440MOL0     H60692   4.580   7.119   4.069 -1.7581  0.1049  1.7200
  440MOL0     H60693   4.713   7.042   4.161 -0.2876  0.4758 -2.4069
  440MOL0     H60694   4.458   7.155   4.273  0.8569 -0.3255  0.8418
  440MOL0     H60695   4.569   7.083   4.370  0.9364  3.0111 -1.4400
  440MOL0     H60696   4.408   6.895   4.346  0.2335 -0.0757 -1.1664
  440MOL0     H60697   4.551   6.851   4.252  0.9216  1.5598 -1.2490
  440MOL0     H60698   4.447   6.958   4.043 -0.7587  1.8808  0.1175
  440MOL0     H60699   4.307   7.008   4.148  2.2013  3.2826 -0.1313
  440MOL0     H60700   5.244   7.015   4.490 -1.5126  1.1076 -0.9713
  440MOL0     H60701   5.368   6.953   4.698  0.9844 -0.3875  1.7945
  440MOL0     H60702   5.115   6.765   5.148  0.4865 -0.3103  1.9938
  440MOL0     H60703   5.176   6.643   5.336  1.2937 -1.3515  0.2070
  440MOL0     H60704   5.376   6.228   4.443 -3.1414 -1.8515 -1.0978
  440MOL0     H60705   5.595   6.268   4.330 -1.0875  1.2571  0.4278
  440MOL0     H60706   5.918   6.223   4.201  2.9250  2.0307  0.0463
  440MOL0     H60707   6.086   6.369   4.130 -2.1109 -0.0501  1.2852
  440MOL0     H60708   6.158   6.401   3.668 -0.1115 -1.2462  2.3774
  440MOL0     H60709   6.061   6.543   3.699 -1.3935 -0.7505  0.5748
  440MOL0     H60710   6.299   6.569   3.604  0.0269  1.0450 -0.0569
  440MOL0     H60711   6.364   6.513   3.754 -0.3302  0.8368  0.1340
  440MOL0     H60712   6.256   6.701   3.881 -0.7309 -2.0422 -0.5746
  440MOL0     H60713   6.384   6.739   3.758  0.6584 -2.9771 -2.0318
  440MOL0     H60714   6.084   6.775   3.707 -0.2980  0.8184 -0.2479
  440MOL0     H60715   6.215   6.804   3.603  0.6282  0.3253  0.4153
  440MOL0     H60716   6.293   7.143   3.850 -1.4848  0.2041  1.8569
  440MOL0     H60717   5.946   6.302   3.720 -0.9965 -0.8880  0.3022
  440MOL0     H60718   5.664   6.186   3.763  0.6688  1.0810 -1.1300
  440MOL0     H60719   5.804   6.121   3.665 -1.3334  4.0482 -0.5397
  440MOL0     H60720   5.724   6.027   3.790  0.6637 -0.5317  1.8136
  441MOL0     O60721   2.416   2.246   4.109 -0.1031 -0.5616 -0.2916
  441MOL0     C60722   2.417   2.290   3.996 -0.3043  0.4889 -0.1241
  441MOL0     O60723   2.374   2.423   3.958  1.0104  0.7637 -0.0638
  441MOL0     C60724   2.306   2.494   4.053  0.0467 -0.2639 -0.2197
  441MOL0     C60725   2.192   2.455   4.134  0.9238 -0.8799  0.3181
  441MOL0     C60726   2.136   2.549   4.228 -0.3003  0.7008  0.5747
  441MOL0     C60727   2.198   2.673   4.249  1.1318  0.2608 -0.3678
  441MOL0     O60728   2.152   2.754   4.350 -0.7362  0.1274 -0.4322
  441MOL0     C60729   2.238   2.785   4.460 -0.3814  1.1129 -0.2843
  441MOL0     C60730   2.168   2.780   4.605  0.7049  0.3156  0.2095
  441MOL0     C60731   2.270   2.790   4.721 -0.1977 -0.3809  0.0352
  441MOL0     C60732   2.196   2.807   4.856  0.1219  0.0723  0.4486
  441MOL0     C60733   2.289   2.833   4.978 -0.1505 -0.0016  0.1272
  441MOL0     C60734   2.305   2.996   5.003  0.1800 -0.1641  0.8950
  441MOL0     C60735   2.218   3.046   5.126  0.3604 -0.8868 -0.1498
  441MOL0     C60736   2.188   3.189   5.107 -0.4557  0.1617  0.2177
  441MOL0     N60737   2.157   3.240   5.234  0.0099  0.9190 -0.1013
  441MOL0     C60738   2.238   3.301   5.325  0.7709  0.0961  0.3540
  441MOL0     C60739   2.163   3.312   5.442  0.5391 -0.1673 -0.3745
  441MOL0     C60740   2.198   3.367   5.575  0.3119  0.3454  0.1279
  441MOL0     C60741   2.200   3.518   5.571  0.2639  0.5874 -0.6405
  441MOL0     C60742   2.048   3.578   5.552 -0.7264  0.7735 -0.1098
  441MOL0     C60743   1.950   3.521   5.655  0.1153  0.3923  0.0456
  441MOL0     O60744   1.827   3.590   5.627 -0.6592 -0.8852 -0.0633
  441MOL0     C60745   1.712   3.561   5.701  0.8765 -0.9685 -0.7007
  441MOL0     C60746   1.602   3.635   5.670  0.4795 -0.4816  0.9112
  441MOL0     C60747   1.475   3.614   5.729 -0.0656 -0.1369 -0.0212
  441MOL0     C60748   1.367   3.705   5.692  0.2890  0.2004  0.7629
  441MOL0     C60749   1.458   3.518   5.830 -0.1573  1.8294  0.9337
  441MOL0     C60750   1.344   3.484   5.907 -0.3934  0.4565 -0.6120
  441MOL0     O60751   1.368   3.421   6.032  0.2273 -0.0548  0.5161
  441MOL0     C60752   1.262   3.415   6.114 -0.4402 -0.0772 -1.0040
  441MOL0     C60753   1.164   3.319   6.113  0.4634 -0.7690  0.1686
  441MOL0     C60754   1.052   3.319   6.197 -0.0028  0.5942  0.3012
  441MOL0     C60755   1.032   3.430   6.287 -0.2354 -0.4076 -0.2769
  441MOL0     O60756   0.924   3.452   6.368 -0.1927 -0.1102 -0.5121
  441MOL0     C60757   0.798   3.466   6.305  0.4960 -0.3249  0.7758
  441MOL0     C60758   0.735   3.593   6.356  0.7118 -0.4434  0.6844
  441MOL0     C60759   0.634   3.641   6.250 -0.6041 -0.1301 -0.9374
  441MOL0     C60760   0.521   3.715   6.319  0.5509  0.7929 -0.2106
  441MOL0     C60761   0.440   3.800   6.228 -0.7174  0.0774  0.1545
  441MOL0     C60762   0.325   3.865   6.300 -0.4784 -0.1283  0.6449
  441MOL0     C60763   0.198   3.787   6.308  0.2883  0.4411  0.5171
  441MOL0     C60764   0.078   3.851   6.229  0.0694 -0.0128 -0.0498
  441MOL0    Cl60765  -0.080   3.766   6.256 -0.1298  0.0055 -0.0424
  441MOL0     C60766   1.134   3.524   6.295 -0.7652  0.1930  1.0149
  441MOL0     C60767   1.249   3.518   6.211  0.1293  0.6211  0.5647
  441MOL0     O60768   1.240   3.501   5.857  0.3880 -0.8216 -0.1638
  441MOL0     C60769   1.572   3.431   5.858  0.2903  0.6155  0.1079
  441MOL0     C60770   1.695   3.461   5.800  0.9987  0.1241 -0.0876
  441MOL0     N60771   2.035   3.251   5.420  0.0902  0.0507 -0.2980
  441MOL0     N60772   2.041   3.207   5.297 -0.9324  1.0562  0.5838
  441MOL0     C60773   2.313   2.701   4.183 -1.3543 -0.4603 -0.8026
  441MOL0     C60774   2.366   2.623   4.084  0.1230  0.4596  0.0592
  441MOL0     C60775   2.485   2.206   3.900  0.0575 -0.2778 -0.5948
  441MOL0     C60776   2.607   2.148   3.936 -0.9106 -0.0076  0.3871
  441MOL0     C60777   2.679   2.071   3.856  1.7008 -0.3815  0.5215
  441MOL0     C60778   2.621   2.044   3.725  0.6833 -0.1186  0.5670
  441MOL0     O60779   2.684   1.960   3.630  0.6270 -0.5392 -0.8179
  441MOL0     C60780   2.829   1.938   3.639 -0.7333  0.1767 -0.4594
  441MOL0     C60781   2.921   2.045   3.589  0.5592 -0.2610 -1.3641
  441MOL0     C60782   3.071   2.004   3.602  0.0260  1.4240 -0.8678
  441MOL0     C60783   3.127   1.951   3.469 -0.5342  0.3454  1.0132
  441MOL0     C60784   3.147   2.060   3.374  0.7986 -0.3289 -0.1738
  441MOL0     C60785   3.173   2.151   3.298 -1.0656  0.0625  0.1394
  441MOL0     C60786   2.491   2.092   3.692  0.0572  0.2934  0.3745
  441MOL0     C60787   2.424   2.178   3.777  0.4144 -0.0976  0.2784
  441MOL0     C60788   2.287   2.229   3.746 -0.0440  0.7962  0.0439
  441MOL0     H60789   2.144   2.358   4.129 -0.2745 -0.3448  0.9261
  441MOL0     H60790   2.056   2.519   4.295 -1.0060 -3.0132 -1.6354
  441MOL0     H60791   2.267   2.888   4.436  3.7567 -0.2206 -1.9082
  441MOL0     H60792   2.328   2.723   4.456 -1.0070  0.2289 -1.0424
  441MOL0     H60793   2.099   2.865   4.607  0.6118  0.3262 -1.4705
  441MOL0     H60794   2.117   2.685   4.619 -0.1455  0.7124 -0.1589
  441MOL0     H60795   2.336   2.703   4.716  0.3192  0.0086 -0.1145
  441MOL0     H60796   2.340   2.873   4.705  1.9292 -2.1309 -0.2326
  441MOL0     H60797   2.106   2.871   4.861 -0.4881 -0.7874  0.6758
  441MOL0     H60798   2.142   2.715   4.880 -0.4132 -0.1976 -1.5972
  441MOL0     H60799   2.387   2.792   4.955 -0.3069  0.5237 -1.5818
  441MOL0     H60800   2.264   2.780   5.071 -0.8468 -1.3431 -0.7943
  441MOL0     H60801   2.410   3.018   5.023  0.8902 -1.2421 -1.3353
  441MOL0     H60802   2.272   3.047   4.911  1.5309  0.1806  0.5754
  441MOL0     H60803   2.288   3.027   5.207  3.8024  3.3305 -1.7671
  441MOL0     H60804   2.120   2.998   5.136  0.1238 -0.4139 -0.1979
  441MOL0     H60805   2.264   3.249   5.055 -1.9767  0.9297 -1.2192
  441MOL0     H60806   2.105   3.190   5.036  0.3891  3.5332 -0.8907
  441MOL0     H60807   2.345   3.319   5.315  0.3427  4.0039  1.2163
  441MOL0     H60808   2.296   3.321   5.589 -0.4594 -1.5728 -0.3783
  441MOL0     H60809   2.142   3.339   5.665  1.1494  3.3245  1.7158
  441MOL0     H60810   2.234   3.552   5.669  0.8060 -1.2833 -0.1230
  441MOL0     H60811   2.277   3.545   5.497  0.9039 -0.9140 -0.5666
  441MOL0     H60812   2.063   3.686   5.560  1.1107  0.5582 -0.3259
  441MOL0     H60813   2.018   3.561   5.448  0.5213  3.4942 -0.9946
  441MOL0     H60814   1.938   3.413   5.642  1.6788  0.1786  0.1280
  441MOL0     H60815   1.990   3.529   5.756 -3.2654 -2.3161  1.7897
  441MOL0     H60816   1.623   3.704   5.589  2.6256 -1.6062  0.4460
  441MOL0     H60817   1.417   3.792   5.647 -0.3459 -0.5590 -1.5830
  441MOL0     H60818   1.305   3.732   5.778  0.4987  1.5261  0.5327
  441MOL0     H60819   1.302   3.656   5.619  0.1724 -1.0430  1.6895
  441MOL0     H60820   1.181   3.231   6.051 -0.8444 -1.4698  0.7691
  441MOL0     H60821   0.974   3.244   6.189 -2.6495  3.3449 -3.4273
  441MOL0     H60822   0.812   3.469   6.197 -2.3108 -3.1156  0.1695
  441MOL0     H60823   0.739   3.377   6.328 -1.2831  0.7653  0.5964
  441MOL0     H60824   0.697   3.558   6.452 -0.3706 -4.2007 -0.9276
  441MOL0     H60825   0.808   3.671   6.379  0.8343  0.0800 -1.2503
  441MOL0     H60826   0.600   3.548   6.202 -0.6692 -0.3108 -0.5412
  441MOL0     H60827   0.688   3.713   6.187 -1.0423  2.6064  1.5883
  441MOL0     H60828   0.564   3.789   6.387 -1.9343  2.2544 -0.0970
  441MOL0     H60829   0.467   3.637   6.373  0.4311  0.5160 -0.7200
  441MOL0     H60830   0.505   3.888   6.228 -1.4052  0.5945  0.4338
  441MOL0     H60831   0.420   3.748   6.134  4.9302 -5.1506  1.1441
  441MOL0     H60832   0.300   3.956   6.244 -0.1559 -1.3799 -1.6557
  441MOL0     H60833   0.358   3.900   6.398 -0.7544  1.0292  0.3369
  441MOL0     H60834   0.170   3.791   6.414  1.9276  0.7495  0.9698
  441MOL0     H60835   0.204   3.680   6.287  1.5163  0.4738  0.6526
  441MOL0     H60836   0.110   3.823   6.128 -0.7322 -0.8184 -0.0883
  441MOL0     H60837   0.070   3.954   6.266 -0.4845 -0.1062  0.0939
  441MOL0     H60838   1.136   3.602   6.370  4.2337 -1.3964  2.9757
  441MOL0     H60839   1.323   3.597   6.205 -0.4789  1.0959 -1.9423
  441MOL0     H60840   1.563   3.353   5.933  3.3068  2.0968  2.2210
  441MOL0     H60841   1.779   3.397   5.827 -0.1366 -0.7344  1.5845
  441MOL0     H60842   2.372   2.788   4.208 -1.3399 -1.2055  2.1720
  441MOL0     H60843   2.451   2.663   4.029  0.7765  0.1447  0.8389
  441MOL0     H60844   2.650   2.152   4.036  3.0926 -1.9617 -1.0468
  441MOL0     H60845   2.776   2.033   3.888  1.6525  0.1566  1.3445
  441MOL0     H60846   2.855   1.918   3.743 -1.8382  1.6803  0.1453
  441MOL0     H60847   2.837   1.852   3.572  3.6432  1.4426 -1.8866
  441MOL0     H60848   2.900   2.137   3.646 -0.3125 -1.1359 -0.2240
  441MOL0     H60849   2.900   2.068   3.484 -2.8908  0.3163 -0.6603
  441MOL0     H60850   3.134   2.087   3.634  3.8403 -0.8305 -1.9619
  441MOL0     H60851   3.090   1.938   3.687  0.2686  2.2077 -0.3033
  441MOL0     H60852   3.062   1.872   3.428  2.3085 -1.1215 -0.9395
  441MOL0     H60853   3.222   1.903   3.494 -0.7263 -1.0584 -0.7604
  441MOL0     H60854   3.208   2.223   3.228 -1.8371 -0.6885 -1.0489
  441MOL0     H60855   2.435   2.059   3.605 -0.0776  2.1670 -0.2941
  441MOL0     H60856   2.224   2.171   3.678 -2.6001  2.3259  0.9671
  441MOL0     H60857   2.228   2.253   3.834  0.7553 -0.9955  1.1277
  441MOL0     H60858   2.299   2.323   3.692 -2.9375  0.6494 -1.0238
  442MOL0     O60859   6.383   1.319   7.895  0.2597  0.7978  0.1576
  442MOL0     C60860   6.309   1.248   7.969 -0.5658 -0.1909 -0.5398
  442MOL0     O60861   6.175   1.279   7.999  0.4503  0.4684 -0.3201
  442MOL0     C60862   6.103   1.358   7.911 -0.5904  0.1216  0.8134
  442MOL0     C60863   6.120   1.362   7.769  0.4421 -0.1893 -0.6941
  442MOL0     C60864   6.043   1.442   7.681 -0.2128 -0.6037 -0.2064
  442MOL0     C60865   5.958   1.539   7.739  0.4134  0.5978 -0.3471
  442MOL0     O60866   5.868   1.626   7.673 -0.2707 -0.0400  0.3593
  442MOL0     C60867   5.934   1.735   7.586  0.4623 -0.0418  0.5154
  442MOL0     C60868   5.850   1.752   7.467 -0.0460  0.3955  0.0679
  442MOL0     C60869   5.818   1.628   7.369 -0.1331  0.8271  0.0137
  442MOL0     C60870   5.707   1.534   7.406 -0.9467  0.8469 -0.1194
  442MOL0     C60871   5.723   1.388   7.346  0.3830 -0.3573  0.0011
  442MOL0     C60872   5.857   1.329   7.368 -0.0453  0.2725  0.3998
  442MOL0     C60873   5.847   1.179   7.318  0.1138 -0.3458  0.6491
  442MOL0     C60874   5.978   1.102   7.325 -0.8421  0.4051  0.0013
  442MOL0     N60875   5.968   0.972   7.250 -0.3443  0.2225 -0.0918
  442MOL0     C60876   5.885   0.868   7.284 -0.4984 -0.3933 -0.0427
  442MOL0     C60877   5.929   0.765   7.210  0.3190  0.4794 -0.2852
  442MOL0     C60878   5.876   0.622   7.224 -0.4902 -0.7713 -0.5418
  442MOL0     C60879   5.756   0.605   7.125 -0.0193 -0.1693  0.0032
  442MOL0     C60880   5.664   0.471   7.151 -0.2929  0.0209  0.2366
  442MOL0     C60881   5.583   0.425   7.016  0.9451 -0.2298 -0.9606
  442MOL0     O60882   5.452   0.493   7.017  0.5808  0.5108  0.1448
  442MOL0     C60883   5.367   0.478   6.904  0.0562 -1.4089  0.6790
  442MOL0     C60884   5.263   0.571   6.880  0.8492  0.8937  0.3547
  442MOL0     C60885   5.188   0.568   6.763 -0.3105 -0.5927  0.6572
  442MOL0     C60886   5.064   0.646   6.758 -0.9020  0.5518  1.0715
  442MOL0     C60887   5.223   0.495   6.647  0.3714 -0.1735 -1.5059
  442MOL0     C60888   5.143   0.504   6.522 -0.1142  0.5215  0.1512
  442MOL0     O60889   5.078   0.392   6.481 -0.3699 -0.5099 -0.7398
  442MOL0     C60890   5.023   0.386   6.351 -0.2055  0.6690 -0.5643
  442MOL0     C60891   4.894   0.423   6.343  1.3490 -0.5056  1.0454
  442MOL0     C60892   4.820   0.417   6.223 -0.5635 -0.4529  0.5887
  442MOL0     C60893   4.882   0.385   6.100  0.4146 -0.1862  0.2663
  442MOL0     O60894   4.816   0.350   5.988  0.3391  0.3308  0.1803
  442MOL0     C60895   4.816   0.454   5.899 -0.0302 -0.2699  0.8440
  442MOL0     C60896   4.697   0.443   5.799  0.0169  0.2332  0.1527
  442MOL0     C60897   4.560   0.458   5.867 -0.0050 -0.3179  0.4989
  442MOL0     C60898   4.446   0.454   5.764 -0.6081  0.1760  0.4419
  442MOL0     C60899   4.312   0.446   5.835 -0.6094 -1.2718  0.8712
  442MOL0     C60900   4.295   0.541   5.956  0.9741 -0.0954  0.6619
  442MOL0     C60901   4.136   0.567   5.971 -0.3173 -0.1930 -0.2318
  442MOL0     C60902   4.098   0.593   6.116 -0.0255  0.9115  0.9545
  442MOL0    Cl60903   4.155   0.756   6.149  0.0516  0.5221 -0.4603
  442MOL0     C60904   5.025   0.379   6.120 -0.8062  0.1099  0.4708
  442MOL0     C60905   5.095   0.381   6.237 -0.3567 -0.5954 -1.1944
  442MOL0     O60906   5.164   0.603   6.456 -0.1703  0.5226  0.8281
  442MOL0     C60907   5.326   0.402   6.668  0.1190  0.1049  0.4430
  442MOL0     C60908   5.396   0.394   6.791  0.2045  0.4000 -0.2646
  442MOL0     N60909   6.028   0.818   7.129 -0.6404 -0.1843 -0.0523
  442MOL0     N60910   6.056   0.943   7.157 -0.4905 -0.0829  0.2038
  442MOL0     C60911   5.945   1.544   7.878 -0.4486  0.2554  0.3969
  442MOL0     C60912   6.019   1.456   7.960  1.3042 -0.9357  0.0976
  442MOL0     C60913   6.378   1.137   8.032 -0.3869  1.2400  0.3754
  442MOL0     C60914   6.285   1.036   8.042 -0.2531  0.9609 -0.2683
  442MOL0     C60915   6.314   0.905   8.104 -0.5036 -0.6195  0.2991
  442MOL0     C60916   6.439   0.892   8.163  0.3447 -0.5279  0.3860
  442MOL0     O60917   6.464   0.772   8.224  0.3493  0.0255  0.1055
  442MOL0     C60918   6.534   0.767   8.344  0.4548 -0.0181 -1.6695
  442MOL0     C60919   6.444   0.734   8.458 -0.2280 -0.4757  0.4455
  442MOL0     C60920   6.515   0.741   8.597  0.1942  0.0568 -0.4493
  442MOL0     C60921   6.528   0.888   8.642  0.0675 -0.2047 -0.7184
  442MOL0     C60922   6.612   0.899   8.758 -0.0863 -0.2430 -0.0382
  442MOL0     C60923   6.686   0.900   8.849  0.0914 -0.0450 -0.0150
  442MOL0     C60924   6.533   0.999   8.148 -0.4239  1.0731  0.0884
  442MOL0     C60925   6.505   1.118   8.079 -0.9910 -0.4216  0.9021
  442MOL0     C60926   6.607   1.232   8.084  0.2455 -0.7315 -0.2456
  442MOL0     H60927   6.197   1.291   7.740  0.4389 -1.4069  1.9636
  442MOL0     H60928   6.056   1.436   7.573  1.2112 -0.9541 -0.0372
  442MOL0     H60929   6.034   1.717   7.543  1.0503  5.3156 -1.0385
  442MOL0     H60930   5.940   1.824   7.650 -2.1186  0.3962  0.2311
  442MOL0     H60931   5.755   1.794   7.502 -1.3029 -0.1355 -2.4516
  442MOL0     H60932   5.892   1.833   7.406  0.7795  1.0124  1.4026
  442MOL0     H60933   5.791   1.671   7.272  0.8582 -1.2093 -1.2358
  442MOL0     H60934   5.916   1.587   7.341 -0.1238  1.0189 -0.2361
  442MOL0     H60935   5.703   1.515   7.514 -1.0547  1.8961  0.0657
  442MOL0     H60936   5.612   1.581   7.382 -1.6427 -1.9318 -3.6501
  442MOL0     H60937   5.700   1.398   7.239 -0.9365  0.7412  0.3565
  442MOL0     H60938   5.644   1.328   7.391  1.0522 -2.3588 -1.3698
  442MOL0     H60939   5.946   1.381   7.332  1.6254 -2.2848  0.5751
  442MOL0     H60940   5.870   1.322   7.476  0.9684  1.9210  0.4094
  442MOL0     H60941   5.819   1.194   7.213 -0.0313  4.2324  1.1053
  442MOL0     H60942   5.768   1.118   7.361  0.1913  0.4060  1.9254
  442MOL0     H60943   6.055   1.158   7.272 -0.8031 -1.2325 -1.8058
  442MOL0     H60944   6.008   1.092   7.430 -0.8457 -0.0300 -0.0338
  442MOL0     H60945   5.802   0.866   7.354 -0.6088 -3.0639 -0.1401
  442MOL0     H60946   5.841   0.609   7.326  2.2080 -1.9288  0.3129
  442MOL0     H60947   5.958   0.554   7.201 -0.6185 -0.7246 -1.1721
  442MOL0     H60948   5.698   0.697   7.128 -1.3882 -0.9526 -1.0853
  442MOL0     H60949   5.805   0.599   7.028 -0.0728  1.8072 -0.1867
  442MOL0     H60950   5.733   0.389   7.170 -0.3375 -0.1511 -0.3119
  442MOL0     H60951   5.600   0.483   7.238  0.6212  0.9398  0.8112
  442MOL0     H60952   5.641   0.436   6.924  1.2791  1.4978 -0.5844
  442MOL0     H60953   5.557   0.320   7.028  0.6334 -0.1869 -1.2323
  442MOL0     H60954   5.261   0.644   6.960  0.1123  1.1831  0.0857
  442MOL0     H60955   5.081   0.736   6.698  4.6156  0.6809  2.3712
  442MOL0     H60956   5.036   0.665   6.862  1.2695 -2.2008  2.2955
  442MOL0     H60957   4.986   0.577   6.724  0.4024 -2.1634  3.1904
  442MOL0     H60958   4.840   0.429   6.437 -1.0300  2.2851 -0.3384
  442MOL0     H60959   4.713   0.413   6.205 -0.6171  1.7241  0.2109
  442MOL0     H60960   4.807   0.553   5.945 -1.4177  0.8602 -1.6420
  442MOL0     H60961   4.905   0.451   5.836 -3.5035 -0.9161 -4.8169
  442MOL0     H60962   4.720   0.525   5.731  1.6311  1.4681  2.0635
  442MOL0     H60963   4.696   0.345   5.752 -2.0406 -2.9706  5.8596
  442MOL0     H60964   4.566   0.556   5.916  3.0164 -0.4196  0.5320
  442MOL0     H60965   4.546   0.374   5.936 -0.7170 -1.6875 -1.2503
  442MOL0     H60966   4.463   0.375   5.691 -0.3075  2.1806 -1.7997
  442MOL0     H60967   4.455   0.544   5.702  1.8623 -0.1608  0.1916
  442MOL0     H60968   4.233   0.464   5.761 -0.3612 -2.3893  0.2960
  442MOL0     H60969   4.295   0.344   5.870 -3.5107 -0.5407  1.8782
  442MOL0     H60970   4.341   0.635   5.925 -2.7619  1.6686 -0.1257
  442MOL0     H60971   4.340   0.496   6.044  1.3616  1.4969  1.3086
  442MOL0     H60972   4.088   0.474   5.940 -3.2134  1.1744 -0.1760
  442MOL0     H60973   4.097   0.649   5.910 -0.7964  0.1908  0.5634
  442MOL0     H60974   4.149   0.527   6.187 -0.9706 -1.9526 -0.8535
  442MOL0     H60975   3.992   0.573   6.136  0.3190  0.5473  2.6196
  442MOL0     H60976   5.088   0.360   6.034 -3.1565  2.0551 -1.8701
  442MOL0     H60977   5.203   0.370   6.235 -0.1215  1.2537 -0.9300
  442MOL0     H60978   5.343   0.331   6.587  0.5212 -1.3885  1.7863
  442MOL0     H60979   5.475   0.319   6.788  0.4645  0.6696 -3.3395
  442MOL0     H60980   5.877   1.616   7.923  0.3613  2.1359 -1.2726
  442MOL0     H60981   6.009   1.471   8.067  1.4854 -1.0103  0.1252
  442MOL0     H60982   6.188   1.039   7.993  0.1890  5.3365 -1.3056
  442MOL0     H60983   6.246   0.820   8.095 -0.0170 -1.1884  1.7557
  442MOL0     H60984   6.621   0.700   8.340  1.8204  1.5790 -0.4191
  442MOL0     H60985   6.586   0.861   8.363  3.7984 -2.2210  1.5310
  442MOL0     H60986   6.398   0.636   8.443 -3.9908  1.5074 -3.5602
  442MOL0     H60987   6.357   0.801   8.455  0.0455 -0.0559  1.5434
  442MOL0     H60988   6.456   0.677   8.664  0.3549 -0.4914 -0.8273
  442MOL0     H60989   6.614   0.699   8.582  1.5394  2.6560  0.4820
  442MOL0     H60990   6.430   0.935   8.661 -0.4509 -2.0901  1.7178
  442MOL0     H60991   6.579   0.944   8.562  0.5711  0.7259  0.2348
  442MOL0     H60992   6.720   0.869   8.946  0.4017  0.5366  0.0637
  442MOL0     H60993   6.633   0.987   8.187  0.4550 -0.7155 -2.4258
  442MOL0     H60994   6.619   1.279   7.986  0.0522 -2.0256 -0.9197
  442MOL0     H60995   6.577   1.293   8.169 -1.6567  0.2892 -1.5566
  442MOL0     H60996   6.706   1.187   8.096  0.1760 -0.8467 -0.1078
  443MOL0     O60997   4.300   9.236  11.078 -0.2415  0.1675  0.3007
  443MOL0     C60998   4.329   9.202  10.968  0.4692  0.5178  0.4120
  443MOL0     O60999   4.251   9.129  10.886 -0.3676 -0.3838 -0.2861
  443MOL0     C61000   4.123   9.113  10.901  1.1079 -0.0308  0.0370
  443MOL0     C61001   4.072   8.988  10.865 -0.1054  0.5073  1.4568
  443MOL0     C61002   3.936   8.954  10.873  0.2460 -0.8937 -0.5469
  443MOL0     C61003   3.854   9.043  10.936 -0.3100 -0.3992 -0.4564
  443MOL0     O61004   3.735   9.009  10.985  1.1874 -0.1532  0.1390
  443MOL0     C61005   3.673   8.884  10.960  0.8710  0.4980 -1.0033
  443MOL0     C61006   3.522   8.873  10.994 -0.4890  0.1004 -0.0146
  443MOL0     C61007   3.503   8.911  11.137 -0.6303 -0.2769 -0.6224
  443MOL0     C61008   3.399   8.822  11.206 -0.9064  0.2848 -0.1700
  443MOL0     C61009   3.394   8.864  11.355 -0.1226  0.1572 -0.0338
  443MOL0     C61010   3.299   8.774  11.444 -0.0372  0.5189 -0.7151
  443MOL0     C61011   3.341   8.749  11.591  0.0866 -0.3072  0.2702
  443MOL0     C61012   3.281   8.831  11.707 -0.4315  1.1527  0.7401
  443MOL0     N61013   3.324   8.975  11.698 -0.0322  0.4086 -0.3090
  443MOL0     C61014   3.283   9.066  11.597 -0.0634  0.6133 -0.5171
  443MOL0     C61015   3.368   9.166  11.600  0.0910 -0.5977 -0.3778
  443MOL0     C61016   3.364   9.275  11.500  0.2064 -0.1923  1.1775
  443MOL0     C61017   3.498   9.262  11.412 -0.1083  0.1576 -0.9961
  443MOL0     C61018   3.478   9.362  11.302  0.4245  0.2589  1.2359
  443MOL0     C61019   3.562   9.323  11.174  0.0255 -0.5087 -0.7456
  443MOL0     O61020   3.702   9.297  11.213 -0.5594  0.5245 -0.0275
  443MOL0     C61021   3.779   9.407  11.244 -1.2051 -0.1715 -0.0086
  443MOL0     C61022   3.770   9.530  11.181 -0.6016  0.4915 -0.9187
  443MOL0     C61023   3.865   9.628  11.215  0.1043  0.6057 -0.0828
  443MOL0     C61024   3.883   9.738  11.127  0.5421  0.0828  0.0690
  443MOL0     C61025   3.957   9.614  11.328  0.2980  0.1833 -1.2187
  443MOL0     C61026   4.051   9.712  11.391 -0.3909 -0.6126 -0.1223
  443MOL0     O61027   4.123   9.666  11.501 -0.2234  0.1567  0.8172
  443MOL0     C61028   4.239   9.737  11.525 -0.9870  0.7248  0.7362
  443MOL0     C61029   4.304   9.689  11.637 -0.3457 -0.2034 -0.1815
  443MOL0     C61030   4.438   9.736  11.669 -0.8007  1.1181 -0.2202
  443MOL0     C61031   4.508   9.825  11.583  0.0187 -0.0874  0.5878
  443MOL0     O61032   4.625   9.885  11.625  0.0332 -0.0315 -0.1021
  443MOL0     C61033   4.672  10.006  11.555 -0.8226 -0.1287  0.3628
  443MOL0     C61034   4.810  10.025  11.610 -1.3107 -0.3584 -0.1354
  443MOL0     C61035   4.895  10.140  11.556  0.3707  0.7022  0.8753
  443MOL0     C61036   4.836  10.272  11.569  1.1289 -0.0564  0.2008
  443MOL0     C61037   4.910  10.375  11.479  0.3629  0.2124  1.0773
  443MOL0     C61038   4.936  10.332  11.335 -0.0174 -1.0125  0.5742
  443MOL0     C61039   4.995  10.452  11.266 -0.3819 -0.9444  0.0886
  443MOL0     C61040   5.051  10.419  11.132  0.4578  0.2362  0.0185
  443MOL0    Cl61041   5.120  10.562  11.061  0.2589  0.0014  0.3796
  443MOL0     C61042   4.448   9.847  11.459  0.6394  0.5370 -0.1194
  443MOL0     C61043   4.319   9.818  11.426  0.6660  0.2721 -0.8657
  443MOL0     O61044   4.043   9.824  11.353 -0.1088  0.1104  0.6496
  443MOL0     C61045   3.964   9.480  11.379 -0.1122  0.7004 -0.6867
  443MOL0     C61046   3.880   9.382  11.335 -0.8339  0.1704 -0.2060
  443MOL0     N61047   3.456   9.154  11.707 -0.2760  0.7024  0.2127
  443MOL0     N61048   3.422   9.041  11.764 -0.6247  0.6691 -0.8117
  443MOL0     C61049   3.900   9.180  10.958 -0.5620  0.6444  0.0054
  443MOL0     C61050   4.032   9.212  10.947  0.0675 -0.1612 -0.6695
  443MOL0     C61051   4.457   9.252  10.912 -0.0801  0.3016 -0.7500
  443MOL0     C61052   4.537   9.156  10.862 -0.5450  0.2662 -0.1458
  443MOL0     C61053   4.665   9.186  10.810 -0.5152 -0.5354  0.0758
  443MOL0     C61054   4.708   9.321  10.816  0.1404 -0.0647  0.6197
  443MOL0     O61055   4.835   9.340  10.770 -0.7502 -0.1695 -0.0375
  443MOL0     C61056   4.886   9.468  10.737  0.0010  0.6736 -0.2968
  443MOL0     C61057   4.814   9.527  10.615  0.2669  0.6478 -1.0172
  443MOL0     C61058   4.846   9.666  10.573 -0.1603  0.2789 -0.5371
  443MOL0     C61059   4.741   9.729  10.481 -0.0398  1.0147  0.9893
  443MOL0     C61060   4.659   9.824  10.559  0.3542  0.2141  0.7921
  443MOL0     C61061   4.601   9.907  10.618  0.2378 -0.6414 -0.6380
  443MOL0     C61062   4.632   9.413  10.888 -0.6042 -0.1507  1.6202
  443MOL0     C61063   4.502   9.381  10.930 -0.7548 -1.1697  0.8636
  443MOL0     C61064   4.417   9.499  10.983  0.4362 -0.0867  0.4415
  443MOL0     H61065   4.129   8.902  10.833 -3.9401 -2.2534  1.3806
  443MOL0     H61066   3.903   8.855  10.844 -1.8452 -0.8193  1.3782
  443MOL0     H61067   3.730   8.810  11.017  0.3179  0.0769 -0.9837
  443MOL0     H61068   3.675   8.872  10.852 -1.0472  0.8085 -1.1155
  443MOL0     H61069   3.480   8.958  10.940  1.7084  1.3122  0.0823
  443MOL0     H61070   3.484   8.775  10.962  2.0024 -0.9851  0.1219
  443MOL0     H61071   3.597   8.894  11.191 -0.4045 -3.9590 -1.9295
  443MOL0     H61072   3.470   9.015  11.135 -1.6126 -0.5945 -1.6457
  443MOL0     H61073   3.309   8.846  11.149 -0.8385  1.3498  0.1539
  443MOL0     H61074   3.422   8.716  11.195 -1.1573  0.1010  0.9389
  443MOL0     H61075   3.357   8.966  11.362 -2.5273 -0.7497  1.7759
  443MOL0     H61076   3.495   8.866  11.399  1.0776 -1.8942 -2.4561
  443MOL0     H61077   3.192   8.800  11.451  0.1828  1.0503  4.0867
  443MOL0     H61078   3.315   8.675  11.401  3.1958  0.6058  0.1076
  443MOL0     H61079   3.449   8.767  11.597 -0.0661  1.5285 -1.3343
  443MOL0     H61080   3.338   8.641  11.605  0.6214 -0.2732  0.6549
  443MOL0     H61081   3.171   8.833  11.706 -0.4515  3.2305 -0.8143
  443MOL0     H61082   3.304   8.784  11.803 -0.9488  2.0553  1.3214
  443MOL0     H61083   3.205   9.036  11.528 -0.6721  0.2292  0.3240
  443MOL0     H61084   3.358   9.377  11.540 -0.6080  1.2013 -2.0869
  443MOL0     H61085   3.279   9.256  11.434  1.0454 -0.5000  0.1503
  443MOL0     H61086   3.594   9.266  11.464  1.8017 -0.0803 -4.2226
  443MOL0     H61087   3.503   9.164  11.362  1.1058 -0.4147  0.2090
  443MOL0     H61088   3.376   9.374  11.265  0.5812 -0.3866  0.5672
  443MOL0     H61089   3.497   9.466  11.333 -2.0163  1.4114 -0.8077
  443MOL0     H61090   3.516   9.235  11.127  0.7785 -0.4778 -1.5709
  443MOL0     H61091   3.559   9.401  11.098  4.4246  0.8586  0.1865
  443MOL0     H61092   3.714   9.544  11.089  0.2247 -3.1237 -2.1319
  443MOL0     H61093   3.848   9.831  11.172 -0.5551 -0.2049 -0.1518
  443MOL0     H61094   3.827   9.725  11.033  1.4462 -4.3786 -0.0820
  443MOL0     H61095   3.987   9.750  11.095  0.7196  0.3129  0.7246
  443MOL0     H61096   4.258   9.626  11.712 -0.6286  2.4817  2.0554
  443MOL0     H61097   4.480   9.711  11.765 -2.2481 -1.8375 -0.2493
  443MOL0     H61098   4.670   9.981  11.449 -2.3588  0.2990  0.2680
  443MOL0     H61099   4.603  10.089  11.575 -0.3708  0.1265  0.8932
  443MOL0     H61100   4.817  10.034  11.719 -0.8047 -0.1443 -0.1828
  443MOL0     H61101   4.863   9.933  11.583  0.9857  0.3528  1.5766
  443MOL0     H61102   4.920  10.118  11.452  1.6221  1.0684  1.0833
  443MOL0     H61103   4.984  10.151  11.618  0.4795  5.3211  0.2385
  443MOL0     H61104   4.840  10.305  11.674  4.0615 -0.3264  0.2548
  443MOL0     H61105   4.730  10.266  11.540  1.4462 -2.5885 -0.6521
  443MOL0     H61106   4.851  10.467  11.480  1.9473  1.3174 -0.4782
  443MOL0     H61107   4.991  10.406  11.546 -3.3729  0.5050  6.1126
  443MOL0     H61108   4.839  10.298  11.296 -0.7564  0.0409  1.4251
  443MOL0     H61109   5.007  10.250  11.341  0.4545 -0.6591 -0.1035
  443MOL0     H61110   5.075  10.477  11.336 -0.7717 -1.7245  0.8268
  443MOL0     H61111   4.919  10.529  11.249 -1.3776 -1.4022  2.1368
  443MOL0     H61112   4.986  10.376  11.055  2.9528 -1.4564 -1.3090
  443MOL0     H61113   5.123  10.338  11.142 -0.8587 -1.0916 -0.8740
  443MOL0     H61114   4.489   9.917  11.386  0.3888 -0.4215 -1.2168
  443MOL0     H61115   4.272   9.850  11.333 -0.1434 -1.1575 -0.9854
  443MOL0     H61116   4.034   9.444  11.454 -1.2324 -0.2037 -0.0299
  443MOL0     H61117   3.882   9.283  11.378 -0.0367 -1.2778 -3.2835
  443MOL0     H61118   3.823   9.247  10.995 -3.2424 -1.7329 -0.8371
  443MOL0     H61119   4.059   9.312  10.979 -2.4453 -0.7097  4.0363
  443MOL0     H61120   4.519   9.051  10.842  1.7371 -0.3633  0.7258
  443MOL0     H61121   4.733   9.119  10.758 -0.6479  1.6187 -3.1933
  443MOL0     H61122   4.869   9.537  10.820 -1.1189  1.3622 -1.0695
  443MOL0     H61123   4.992   9.451  10.714  0.5192  4.0017 -0.9023
  443MOL0     H61124   4.710   9.541  10.645  0.9063  5.0164 -0.1721
  443MOL0     H61125   4.838   9.456  10.536  1.5916  1.3503 -1.2870
  443MOL0     H61126   4.870   9.733  10.657 -0.5495 -1.6561  1.1849
  443MOL0     H61127   4.941   9.660  10.519 -0.7329  0.7579 -1.6274
  443MOL0     H61128   4.674   9.660  10.429  1.4850  2.1186 -2.7649
  443MOL0     H61129   4.784   9.771  10.390 -1.6404 -0.1638 -0.3804
  443MOL0     H61130   4.555   9.989  10.670  1.2083  0.1731 -1.0399
  443MOL0     H61131   4.669   9.514  10.904 -0.9355 -0.2144  2.8527
  443MOL0     H61132   4.391   9.567  10.901 -2.0805  1.1216  2.1250
  443MOL0     H61133   4.335   9.460  11.044  1.7965 -1.1537  1.6366
  443MOL0     H61134   4.484   9.553  11.050 -1.0738  2.4296  0.0607
  444MOL0     O61135   1.969   8.472   6.056 -0.6376 -0.1412 -0.1232
  444MOL0     C61136   1.896   8.557   6.001 -0.4647 -1.2042  0.8248
  444MOL0     O61137   1.799   8.635   6.059 -0.3320 -0.5792  0.2833
  444MOL0     C61138   1.756   8.629   6.190  0.1552  0.0874  0.1251
  444MOL0     C61139   1.830   8.586   6.300 -0.0841 -0.1810 -0.4993
  444MOL0     C61140   1.784   8.612   6.429  0.2298  0.5009 -0.5756
  444MOL0     C61141   1.666   8.676   6.456  1.6185  0.7937 -0.6746
  444MOL0     O61142   1.639   8.683   6.592 -0.4256 -0.3253 -0.4351
  444MOL0     C61143   1.540   8.781   6.625 -1.1110  0.1506  0.5588
  444MOL0     C61144   1.391   8.731   6.612 -0.6366  0.0990 -0.0719
  444MOL0     C61145   1.282   8.836   6.638 -0.5999  0.3998  0.6320
  444MOL0     C61146   1.318   8.968   6.584 -0.0028  0.0565 -0.5398
  444MOL0     C61147   1.191   9.056   6.582 -0.2171  0.8313  0.2737
  444MOL0     C61148   1.120   9.066   6.716  0.9297  0.2263  0.3997
  444MOL0     C61149   1.059   9.209   6.719  0.7287  0.0624  0.3641
  444MOL0     C61150   1.143   9.309   6.803  0.0299  0.8563  0.1897
  444MOL0     N61151   1.283   9.333   6.750  0.1704 -0.0937 -0.7137
  444MOL0     C61152   1.319   9.416   6.641 -0.0938 -0.4226 -0.8779
  444MOL0     C61153   1.449   9.442   6.661 -0.2803  1.0866 -1.1274
  444MOL0     C61154   1.526   9.552   6.585 -0.5434  0.4542  0.1649
  444MOL0     C61155   1.617   9.495   6.482 -0.6161  0.5419 -0.3249
  444MOL0     C61156   1.679   9.608   6.410  0.0515 -0.8579  0.6528
  444MOL0     C61157   1.777   9.543   6.304  1.3392 -0.2183 -0.3605
  444MOL0     O61158   1.885   9.482   6.371  0.3595  0.4629  0.0475
  444MOL0     C61159   2.015   9.532   6.352  0.2485  0.1160  0.2272
  444MOL0     C61160   2.116   9.479   6.442  0.6241  0.0736 -0.4351
  444MOL0     C61161   2.247   9.518   6.430  0.3091 -0.1717 -0.4046
  444MOL0     C61162   2.346   9.476   6.541  0.6902 -0.8643 -0.3528
  444MOL0     C61163   2.287   9.593   6.313 -0.6333  0.2308  0.0603
  444MOL0     C61164   2.433   9.632   6.284 -0.3344  0.3062 -0.3722
  444MOL0     O61165   2.532   9.564   6.346  0.0738 -0.2185 -0.0498
  444MOL0     C61166   2.661   9.617   6.371  0.2314  0.2170 -0.0220
  444MOL0     C61167   2.696   9.751   6.395 -0.0474  0.4787 -0.2888
  444MOL0     C61168   2.832   9.785   6.441  0.9871 -0.0510 -0.2340
  444MOL0     C61169   2.934   9.693   6.429  0.6263  0.1907 -0.5002
  444MOL0     O61170   3.063   9.749   6.440  0.3245  0.1031 -0.9399
  444MOL0     C61171   3.175   9.660   6.414 -0.3881 -0.3285  0.5127
  444MOL0     C61172   3.279   9.741   6.338 -0.8590  0.2698  0.8329
  444MOL0     C61173   3.410   9.665   6.327 -0.2413  0.6212 -0.5272
  444MOL0     C61174   3.522   9.744   6.271 -0.6978 -0.3779  0.4303
  444MOL0     C61175   3.658   9.661   6.250  1.2788  0.5326 -0.1586
  444MOL0     C61176   3.773   9.721   6.172 -0.3288 -0.5496  0.0159
  444MOL0     C61177   3.868   9.612   6.132  0.0265  0.2416  0.5318
  444MOL0     C61178   3.973   9.675   6.035 -0.1752 -0.0094  0.9957
  444MOL0    Cl61179   4.020   9.844   6.093  0.0596 -0.0047 -0.3843
  444MOL0     C61180   2.898   9.564   6.390  1.0145  0.5560 -0.8200
  444MOL0     C61181   2.757   9.522   6.367 -0.1482 -0.1728  1.0915
  444MOL0     O61182   2.452   9.726   6.205  0.8005  0.3805  0.0060
  444MOL0     C61183   2.196   9.626   6.210 -0.9421  0.1480 -0.8029
  444MOL0     C61184   2.063   9.609   6.233  1.0329 -0.1585  0.3324
  444MOL0     N61185   1.492   9.381   6.777  0.3764 -0.2909 -0.2981
  444MOL0     N61186   1.393   9.306   6.815  0.2442 -0.1312 -0.8863
  444MOL0     C61187   1.579   8.706   6.343 -0.5929  0.7805  0.2157
  444MOL0     C61188   1.629   8.681   6.217 -0.1629 -0.8793  0.2507
  444MOL0     C61189   1.922   8.587   5.863  0.5936  0.5315  0.4635
  444MOL0     C61190   1.927   8.725   5.825 -0.1482 -0.8671  0.7584
  444MOL0     C61191   1.955   8.763   5.693 -0.0436  0.1207  0.5001
  444MOL0     C61192   1.980   8.671   5.601 -0.6217 -0.0622  0.0398
  444MOL0     O61193   2.003   8.732   5.478  0.1170  0.9150 -0.6104
  444MOL0     C61194   2.029   8.647   5.365 -1.1444  0.0851  0.9194
  444MOL0     C61195   2.081   8.733   5.251  0.1412 -0.1840 -0.2250
  444MOL0     C61196   2.200   8.822   5.288 -0.1302 -0.3574  0.5931
  444MOL0     C61197   2.259   8.922   5.169  1.1671 -0.2744 -0.4535
  444MOL0     C61198   2.359   8.856   5.084 -0.2444 -0.2667 -0.2447
  444MOL0     C61199   2.434   8.828   4.995 -0.4971 -0.3387 -0.3879
  444MOL0     C61200   1.971   8.530   5.632  0.3102 -0.1046 -0.7936
  444MOL0     C61201   1.941   8.489   5.763 -0.1277 -0.5322 -0.4411
  444MOL0     C61202   1.921   8.346   5.793 -0.5342 -0.8458  0.2889
  444MOL0     H61203   1.930   8.544   6.287  0.1007 -0.1847  0.7968
  444MOL0     H61204   1.837   8.578   6.518 -0.5651 -0.5069 -0.4695
  444MOL0     H61205   1.567   8.864   6.560  3.1034 -1.1745  0.2823
  444MOL0     H61206   1.557   8.814   6.728 -2.3506  1.3501  0.4052
  444MOL0     H61207   1.360   8.691   6.515 -0.8100  4.6899 -2.1629
  444MOL0     H61208   1.392   8.645   6.681  3.9613 -1.5171 -1.7991
  444MOL0     H61209   1.195   8.792   6.587  0.3966  1.5050 -2.2521
  444MOL0     H61210   1.263   8.847   6.745 -1.8113 -0.4602  0.5278
  444MOL0     H61211   1.395   9.019   6.644 -0.6303 -1.2771  1.4921
  444MOL0     H61212   1.356   8.963   6.482 -0.2538 -1.3789 -0.5783
  444MOL0     H61213   1.109   9.020   6.519 -0.9538  3.7482 -0.5611
  444MOL0     H61214   1.221   9.153   6.541  2.9225  0.0597  0.4706
  444MOL0     H61215   1.038   8.995   6.731 -0.0818  1.2457 -0.1325
  444MOL0     H61216   1.187   9.050   6.801 -2.1574 -1.3720  2.7837
  444MOL0     H61217   0.953   9.204   6.746 -0.0908 -2.7406 -2.7513
  444MOL0     H61218   1.050   9.255   6.621 -0.0480  1.6113  1.1186
  444MOL0     H61219   1.095   9.407   6.816 -0.4301  0.6383  0.1302
  444MOL0     H61220   1.146   9.262   6.902 -2.9851  0.5000  0.1824
  444MOL0     H61221   1.258   9.473   6.572  1.0762  4.2171  1.4953
  444MOL0     H61222   1.585   9.609   6.656 -0.4978  0.0168  0.4814
  444MOL0     H61223   1.447   9.614   6.541 -2.0094 -1.1500  0.4244
  444MOL0     H61224   1.694   9.433   6.529 -2.0604 -0.7365  0.4409
  444MOL0     H61225   1.559   9.427   6.420 -1.3860  1.9987 -1.2438
  444MOL0     H61226   1.602   9.657   6.349 -2.9334 -2.5787  2.8079
  444MOL0     H61227   1.732   9.689   6.462  5.7847 -1.5216 -3.2081
  444MOL0     H61228   1.723   9.464   6.252  0.4014 -0.5207  1.0051
  444MOL0     H61229   1.800   9.631   6.243  2.4048 -0.4588 -0.3193
  444MOL0     H61230   2.075   9.419   6.523  2.3878  1.4458  1.5650
  444MOL0     H61231   2.398   9.565   6.576  0.9846 -1.0036 -0.4316
  444MOL0     H61232   2.423   9.417   6.490  3.1700  2.2420 -0.4764
  444MOL0     H61233   2.304   9.423   6.627 -0.1937 -0.2986 -0.4275
  444MOL0     H61234   2.622   9.830   6.392  1.3772  1.8408 -2.4843
  444MOL0     H61235   2.850   9.887   6.473  1.7841  0.2392 -1.5268
  444MOL0     H61236   3.211   9.626   6.512 -1.1718 -0.8978  0.6107
  444MOL0     H61237   3.149   9.569   6.359 -2.6015  0.4709  0.1477
  444MOL0     H61238   3.253   9.748   6.232 -0.0467 -2.3929  0.3829
  444MOL0     H61239   3.286   9.841   6.383 -0.4520  0.9190 -0.5999
  444MOL0     H61240   3.403   9.579   6.260  2.0684  0.0778 -0.1571
  444MOL0     H61241   3.451   9.631   6.422 -2.6275  2.9535  1.4732
  444MOL0     H61242   3.539   9.836   6.327  3.7214  0.5399 -1.9695
  444MOL0     H61243   3.477   9.776   6.176 -1.2171  0.8982  1.0796
  444MOL0     H61244   3.706   9.640   6.346  2.5850  1.6666 -0.5204
  444MOL0     H61245   3.637   9.561   6.211  3.6035  0.0590 -0.3337
  444MOL0     H61246   3.816   9.795   6.241 -1.7542  1.7068 -1.3965
  444MOL0     H61247   3.731   9.771   6.084 -1.3546  2.2698  1.9728
  444MOL0     H61248   3.805   9.542   6.075 -0.0793  0.4976  0.3323
  444MOL0     H61249   3.912   9.569   6.222  0.9986  0.0988 -0.0054
  444MOL0     H61250   3.943   9.677   5.930  2.2550 -0.9699  0.2031
  444MOL0     H61251   4.066   9.616   6.035  2.4507  3.3600 -3.8336
  444MOL0     H61252   2.974   9.489   6.372  1.2861  0.2744  1.2225
  444MOL0     H61253   2.730   9.418   6.353 -3.1437  0.6899 -0.1678
  444MOL0     H61254   2.232   9.660   6.114  0.2610 -0.9816 -0.7779
  444MOL0     H61255   1.995   9.631   6.152 -1.0467 -2.9599  1.1747
  444MOL0     H61256   1.473   8.724   6.361 -0.8559 -1.7248  1.8711
  444MOL0     H61257   1.579   8.725   6.131  2.6073 -0.5321 -1.2894
  444MOL0     H61258   1.904   8.802   5.898 -0.0037  0.8920 -0.9604
  444MOL0     H61259   1.954   8.866   5.660  0.6053  1.1716  3.4545
  444MOL0     H61260   2.110   8.578   5.387 -0.7514  0.2521  0.0618
  444MOL0     H61261   1.936   8.593   5.348 -1.6485  0.8474  1.2235
  444MOL0     H61262   1.996   8.793   5.215 -1.4244 -1.4702  1.1434
  444MOL0     H61263   2.114   8.672   5.166  1.2013  2.2990 -1.6819
  444MOL0     H61264   2.159   8.888   5.366 -1.9202 -3.5009  2.5451
  444MOL0     H61265   2.279   8.760   5.332  1.4658  2.5476  2.1507
  444MOL0     H61266   2.281   9.019   5.217 -3.0220  0.5083  0.2759
  444MOL0     H61267   2.176   8.958   5.108  1.1855 -0.1048 -0.3813
  444MOL0     H61268   2.514   8.813   4.926 -1.4154 -1.7989 -1.1813
  444MOL0     H61269   1.952   8.448   5.563  0.3670 -0.9928  0.2154
  444MOL0     H61270   1.928   8.306   5.894 -1.1259 -3.2470 -0.5546
  444MOL0     H61271   1.823   8.324   5.749  0.2128  1.3388 -2.8652
  444MOL0     H61272   1.990   8.276   5.746  0.7869 -0.8944  2.1863
  445MOL0     O61273   1.427   2.750  10.167 -0.0040  0.4502 -0.0844
  445MOL0     C61274   1.512   2.683  10.237 -0.0025  0.4402  0.0457
  445MOL0     O61275   1.490   2.557  10.283  0.1755  0.6940 -0.2232
  445MOL0     C61276   1.376   2.492  10.264 -0.6194 -0.5962 -0.7734
  445MOL0     C61277   1.315   2.477  10.145 -0.5149  0.6537 -0.3200
  445MOL0     C61278   1.215   2.384  10.125  0.0203 -0.2020  0.2262
  445MOL0     C61279   1.157   2.324  10.232  0.4801  0.0209  0.0169
  445MOL0     O61280   1.045   2.246  10.196 -0.2929 -0.5515  0.8884
  445MOL0     C61281   0.959   2.179  10.294  0.3028  0.7984 -0.7486
  445MOL0     C61282   0.841   2.107  10.217 -0.9777 -0.4293  0.5165
  445MOL0     C61283   0.894   2.059  10.079 -0.7801  0.1746 -0.6757
  445MOL0     C61284   0.788   1.998   9.987 -0.3301 -0.8463 -0.0441
  445MOL0     C61285   0.722   1.873  10.034 -0.2407  0.0915 -0.3546
  445MOL0     C61286   0.622   1.813   9.941 -0.3163  0.1376  0.1023
  445MOL0     C61287   0.557   1.679   9.981 -0.2594 -0.0849  0.4876
  445MOL0     C61288   0.441   1.698  10.082  0.5106  0.2022 -0.6857
  445MOL0     N61289   0.406   1.571  10.153 -0.2566  0.4544  0.0399
  445MOL0     C61290   0.472   1.512  10.267  0.8416 -0.7821  0.6894
  445MOL0     C61291   0.389   1.407  10.299  0.3457  0.0965  0.1349
  445MOL0     C61292   0.396   1.309  10.407  0.9827  0.0014 -0.4514
  445MOL0     C61293   0.479   1.184  10.369 -0.0768 -0.2802  0.6470
  445MOL0     C61294   0.556   1.135  10.492 -0.4931  1.0091  0.5311
  445MOL0     C61295   0.456   1.081  10.601 -0.6031 -0.1742 -0.0222
  445MOL0     O61296   0.540   1.036  10.706 -0.1332 -0.0277  0.1876
  445MOL0     C61297   0.580   1.136  10.794 -0.5988  0.1756  0.0677
  445MOL0     C61298   0.682   1.104  10.888  0.6162 -0.2544 -0.2383
  445MOL0     C61299   0.776   1.196  10.945 -0.2795 -0.0509 -0.8453
  445MOL0     C61300   0.897   1.145  11.023  0.4369 -0.3459  0.8551
  445MOL0     C61301   0.746   1.338  10.920  0.9050  0.0288 -0.9747
  445MOL0     C61302   0.819   1.450  10.977 -1.6979  1.0169  0.3568
  445MOL0     O61303   0.793   1.579  10.932  0.7256  0.5980  0.4624
  445MOL0     C61304   0.895   1.675  10.953  0.0834 -0.1414 -0.6698
  445MOL0     C61305   0.858   1.777  11.039 -0.2698  0.9671 -0.8399
  445MOL0     C61306   0.938   1.886  11.069 -0.1793  0.1244  0.2818
  445MOL0     C61307   1.064   1.891  11.006 -0.4258 -0.5155  0.8665
  445MOL0     O61308   1.153   1.996  11.015  0.6059 -0.4748 -0.6226
  445MOL0     C61309   1.144   2.095  11.121  0.1141  0.9099  0.5277
  445MOL0     C61310   1.246   2.200  11.091 -0.1488  0.8653 -0.2017
  445MOL0     C61311   1.268   2.287  11.215 -0.4155 -0.3162  0.6924
  445MOL0     C61312   1.358   2.406  11.169 -0.1163  0.4526 -0.1348
  445MOL0     C61313   1.392   2.505  11.278  0.4019  0.2872  0.7804
  445MOL0     C61314   1.508   2.598  11.239 -0.6037  0.1709  0.6600
  445MOL0     C61315   1.645   2.549  11.282  0.4994 -0.7309 -0.5372
  445MOL0     C61316   1.758   2.604  11.196 -0.2323 -0.1700  1.3483
  445MOL0    Cl61317   1.800   2.489  11.064 -0.3583 -0.2609 -0.4071
  445MOL0     C61318   1.099   1.795  10.912  0.4481  0.6192  0.1258
  445MOL0     C61319   1.015   1.680  10.886  0.3224 -0.2248 -0.0928
  445MOL0     O61320   0.896   1.425  11.074 -0.0512 -0.4261  0.3916
  445MOL0     C61321   0.636   1.368  10.847 -0.0113 -0.2469  0.4113
  445MOL0     C61322   0.562   1.278  10.775  0.4798 -0.5116  0.4220
  445MOL0     N61323   0.288   1.409  10.203  0.1564  0.3601  0.0601
  445MOL0     N61324   0.291   1.512  10.129 -0.2199 -0.5393  0.7921
  445MOL0     C61325   1.212   2.338  10.358 -0.3210  0.3998 -1.3336
  445MOL0     C61326   1.334   2.415  10.366 -0.0879  0.3249  0.9395
  445MOL0     C61327   1.653   2.744  10.239  1.1408  0.2668  0.8650
  445MOL0     C61328   1.763   2.659  10.280  0.2000  0.0299  0.6824
  445MOL0     C61329   1.899   2.706  10.267  0.2605  0.3889  0.1775
  445MOL0     C61330   1.921   2.842  10.235  0.8113 -0.1664  0.3768
  445MOL0     O61331   2.043   2.898  10.217 -0.8703  0.4927  0.2298
  445MOL0     C61332   2.149   2.864  10.307 -0.2104  0.4488  0.0366
  445MOL0     C61333   2.259   2.967  10.324  0.0743 -0.3220  0.8909
  445MOL0     C61334   2.299   3.050  10.200 -0.1376 -0.7428 -0.1553
  445MOL0     C61335   2.342   2.948  10.094  0.3502 -0.0322  0.5245
  445MOL0     C61336   2.399   3.024   9.985  0.0166 -0.4510 -0.2036
  445MOL0     C61337   2.434   3.106   9.902 -0.2552 -0.0626 -0.6847
  445MOL0     C61338   1.812   2.918  10.201  0.9710  0.1654  0.2230
  445MOL0     C61339   1.682   2.873  10.205 -0.6499 -0.2946 -0.0934
  445MOL0     C61340   1.587   2.984  10.163 -0.1492  0.1347 -0.6869
  445MOL0     H61341   1.355   2.537  10.063  1.1298  0.7755  0.5396
  445MOL0     H61342   1.174   2.365  10.026  0.7890 -3.8996  0.4834
  445MOL0     H61343   0.915   2.258  10.356  0.5015 -0.3208  0.8954
  445MOL0     H61344   1.011   2.113  10.364 -0.6480  3.4886  2.7966
  445MOL0     H61345   0.810   2.027  10.285 -0.2495 -0.6149  0.6414
  445MOL0     H61346   0.759   2.176  10.200 -1.1266 -0.7638 -0.1681
  445MOL0     H61347   0.949   2.140  10.031 -0.1187  1.0170  1.4034
  445MOL0     H61348   0.974   1.986  10.097  0.1186  1.4570  0.7804
  445MOL0     H61349   0.724   2.083   9.961  2.3597  0.9286 -1.4074
  445MOL0     H61350   0.845   1.978   9.896  0.7032 -2.0778  0.8191
  445MOL0     H61351   0.666   1.904  10.123  3.9923  0.3432  2.5418
  445MOL0     H61352   0.796   1.797  10.060 -1.3347 -1.0655 -0.5302
  445MOL0     H61353   0.542   1.883   9.912  0.2059  0.7255  0.0554
  445MOL0     H61354   0.682   1.788   9.853  0.5363  0.3316  0.6276
  445MOL0     H61355   0.624   1.597  10.007  1.0567  0.3892 -1.2454
  445MOL0     H61356   0.519   1.633   9.890  4.8728 -3.1687 -0.4851
  445MOL0     H61357   0.466   1.778  10.152  2.7203 -0.2580 -0.8719
  445MOL0     H61358   0.350   1.736  10.034 -0.6894  0.4881  1.6974
  445MOL0     H61359   0.566   1.534  10.317  1.0846 -1.1955  0.4214
  445MOL0     H61360   0.302   1.263  10.438  1.5563 -0.0554  1.2818
  445MOL0     H61361   0.443   1.352  10.496  2.8232 -0.5918 -1.0935
  445MOL0     H61362   0.420   1.109  10.316 -0.6728  1.9068 -2.0711
  445MOL0     H61363   0.560   1.220  10.304  0.1155  0.0442  1.0631
  445MOL0     H61364   0.618   1.049  10.463 -4.3953 -2.1971  0.8794
  445MOL0     H61365   0.614   1.219  10.532 -0.0835  1.9830 -1.9173
  445MOL0     H61366   0.383   1.161  10.622  3.1624  4.0767 -1.4674
  445MOL0     H61367   0.404   0.992  10.565  0.3411 -1.2505  1.1965
  445MOL0     H61368   0.714   1.000  10.893  0.7259 -0.3550 -2.1906
  445MOL0     H61369   0.878   1.181  11.125 -1.1642 -3.8868  1.9793
  445MOL0     H61370   0.990   1.191  10.990  0.7445 -0.4518  1.5442
  445MOL0     H61371   0.899   1.035  11.029  3.8077 -0.4603 -0.0310
  445MOL0     H61372   0.759   1.779  11.085  1.1547  3.7293  2.6328
  445MOL0     H61373   0.913   1.946  11.156 -1.9304  1.9661 -1.3701
  445MOL0     H61374   1.043   2.136  11.130 -0.7337 -0.0177 -3.3330
  445MOL0     H61375   1.179   2.036  11.207 -1.5853  1.4739  1.6483
  445MOL0     H61376   1.343   2.161  11.057  0.7283  2.6207  0.1618
  445MOL0     H61377   1.211   2.267  11.012 -3.0294  0.0285  0.2648
  445MOL0     H61378   1.312   2.218  11.287 -1.8128 -0.9421  0.9690
  445MOL0     H61379   1.175   2.325  11.258 -0.4275  2.3801 -1.4472
  445MOL0     H61380   1.309   2.457  11.086 -1.5157 -0.0866  0.3303
  445MOL0     H61381   1.454   2.370  11.131  1.6023  0.9788  3.3545
  445MOL0     H61382   1.308   2.575  11.282  1.2541  1.3756  0.1547
  445MOL0     H61383   1.421   2.459  11.373  3.7205 -0.9263 -0.6751
  445MOL0     H61384   1.487   2.699  11.275 -0.7199 -0.2873  1.9705
  445MOL0     H61385   1.506   2.590  11.130  0.5694 -1.0891  0.6871
  445MOL0     H61386   1.633   2.441  11.299  0.2688 -0.3556  2.0918
  445MOL0     H61387   1.674   2.595  11.376  2.6321  1.5734 -2.1856
  445MOL0     H61388   1.844   2.613  11.263  0.4882 -4.2767  1.2634
  445MOL0     H61389   1.722   2.697  11.151 -2.9586 -1.6699  0.1682
  445MOL0     H61390   1.188   1.799  10.850  1.2238 -0.0386  1.1703
  445MOL0     H61391   1.052   1.605  10.818  3.3964 -0.9667  2.1498
  445MOL0     H61392   0.592   1.467  10.841 -1.6134 -1.0003 -2.3857
  445MOL0     H61393   0.482   1.321  10.717 -0.9518 -3.6974 -0.1501
  445MOL0     H61394   1.170   2.292  10.447  0.1346 -3.1033 -2.7697
  445MOL0     H61395   1.378   2.432  10.464  1.7033  2.2647 -0.1291
  445MOL0     H61396   1.749   2.558  10.318  2.6606  0.7524  3.9523
  445MOL0     H61397   1.986   2.642  10.278  0.7646  1.1314  0.5924
  445MOL0     H61398   2.112   2.829  10.404  0.9948  0.3471  0.4713
  445MOL0     H61399   2.190   2.773  10.262  1.8026  1.7127 -0.7972
  445MOL0     H61400   2.349   2.916  10.358  0.2361  0.2276  1.2947
  445MOL0     H61401   2.232   3.044  10.397  2.7821 -0.4892  2.1985
  445MOL0     H61402   2.220   3.115  10.163  1.3146  2.8432  2.4417
  445MOL0     H61403   2.386   3.114  10.215 -0.0813 -0.1685 -2.4609
  445MOL0     H61404   2.262   2.883  10.059  0.5468  1.1961 -2.4280
  445MOL0     H61405   2.425   2.887  10.133 -0.6051 -1.7042  0.0491
  445MOL0     H61406   2.477   3.172   9.830  0.6441  3.3675  2.6638
  445MOL0     H61407   1.838   3.017  10.165  1.1568 -1.1192 -3.6844
  445MOL0     H61408   1.500   2.995  10.229  2.0087  2.6370  2.0039
  445MOL0     H61409   1.629   3.083  10.146  3.0851 -0.9288  0.4395
  445MOL0     H61410   1.546   2.962  10.063 -1.3973  1.5703 -0.5394
  446MOL0     O61411   1.227   6.481   0.710  0.0530  0.5197 -0.0532
  446MOL0     C61412   1.305   6.561   0.757  0.6380 -0.2141 -0.6101
  446MOL0     O61413   1.432   6.596   0.717 -0.1032 -0.2503  0.2389
  446MOL0     C61414   1.475   6.582   0.585  0.1246  0.0886 -0.3432
  446MOL0     C61415   1.536   6.695   0.545 -0.2308 -1.1566  0.8941
  446MOL0     C61416   1.590   6.715   0.415 -0.2626 -0.1619 -0.9797
  446MOL0     C61417   1.571   6.610   0.331  0.2433  0.7209  0.1092
  446MOL0     O61418   1.639   6.610   0.214  0.2375  0.3348  0.3872
  446MOL0     C61419   1.598   6.513   0.118  0.0106  0.1088  0.2654
  446MOL0     C61420   1.633   6.549  -0.028 -0.7166  0.1475  0.4946
  446MOL0     C61421   1.787   6.567  -0.050  1.0060 -0.3362  0.2105
  446MOL0     C61422   1.818   6.616  -0.192 -0.1007 -0.0842  0.2351
  446MOL0     C61423   1.959   6.587  -0.243  0.1933 -0.3119 -0.6416
  446MOL0     C61424   2.073   6.651  -0.172 -0.3559 -0.6906 -0.6086
  446MOL0     C61425   2.104   6.801  -0.210 -0.7007 -0.2283 -0.7705
  446MOL0     C61426   2.240   6.843  -0.156 -0.2667  0.0445  0.8329
  446MOL0     N61427   2.264   6.985  -0.207 -0.2670 -0.3882 -0.2183
  446MOL0     C61428   2.328   7.082  -0.136 -0.0543  0.3203  0.6775
  446MOL0     C61429   2.300   7.196  -0.198  0.3316 -0.5865  0.4464
  446MOL0     C61430   2.361   7.328  -0.153 -0.2446 -0.1543  0.2128
  446MOL0     C61431   2.266   7.448  -0.136 -0.5625  0.0878  0.0771
  446MOL0     C61432   2.208   7.456   0.005 -0.1139  0.5646  0.0374
  446MOL0     C61433   2.074   7.382   0.014  0.1280  0.0030  0.1014
  446MOL0     O61434   2.009   7.384   0.135  0.4542  0.0451 -0.3995
  446MOL0     C61435   2.055   7.326   0.254 -0.7467 -0.3576  0.4176
  446MOL0     C61436   2.011   7.387   0.372  0.3669 -0.2317  0.1038
  446MOL0     C61437   2.046   7.343   0.497 -0.5174  0.0374 -0.6259
  446MOL0     C61438   1.978   7.403   0.616 -0.0211  0.7424  0.0542
  446MOL0     C61439   2.137   7.237   0.511 -0.3322  0.5665 -0.1552
  446MOL0     C61440   2.179   7.174   0.635  0.0173  0.5291  0.5886
  446MOL0     O61441   2.231   7.258   0.738  0.8576  0.6347  0.1556
  446MOL0     C61442   2.247   7.213   0.868 -0.1676 -0.0560  0.4716
  446MOL0     C61443   2.368   7.203   0.927 -1.2032 -0.0963  0.8969
  446MOL0     C61444   2.385   7.141   1.052  0.5718 -0.4419  0.5778
  446MOL0     C61445   2.270   7.104   1.126  0.9218 -0.1205  0.3524
  446MOL0     O61446   2.277   7.035   1.244  0.0146 -0.0166  0.6638
  446MOL0     C61447   2.395   6.956   1.270 -0.3867  1.5622  0.4531
  446MOL0     C61448   2.390   6.860   1.390  0.0934  0.3093 -0.5464
  446MOL0     C61449   2.315   6.725   1.380 -0.5042 -0.8350  0.4676
  446MOL0     C61450   2.322   6.637   1.500  0.7501  0.1518 -1.0499
  446MOL0     C61451   2.238   6.687   1.620 -0.3444  0.0427 -0.5988
  446MOL0     C61452   2.242   6.582   1.737  0.5430  0.1672 -0.3116
  446MOL0     C61453   2.144   6.476   1.713 -0.6339  0.7734  0.3692
  446MOL0     C61454   2.123   6.394   1.836  0.3225  0.1105 -0.7190
  446MOL0    Cl61455   2.078   6.484   1.986  0.3657  0.3070  0.0699
  446MOL0     C61456   2.145   7.123   1.065  0.3551 -0.8259  0.8331
  446MOL0     C61457   2.129   7.178   0.940  0.1100  0.4675  0.8200
  446MOL0     O61458   2.164   7.054   0.649 -0.3845  1.2576 -0.6812
  446MOL0     C61459   2.200   7.184   0.394 -0.2777 -0.4417 -0.6204
  446MOL0     C61460   2.149   7.221   0.270 -0.3475 -0.2989  0.9034
  446MOL0     N61461   2.220   7.175  -0.307 -0.4705  0.3268 -0.4436
  446MOL0     N61462   2.197   7.042  -0.315 -0.9033 -0.4129 -0.1739
  446MOL0     C61463   1.499   6.489   0.377 -0.1110 -0.3376  0.6258
  446MOL0     C61464   1.457   6.473   0.509 -0.0643 -0.4870  0.5411
  446MOL0     C61465   1.270   6.616   0.890 -1.0146 -0.0434 -0.3086
  446MOL0     C61466   1.377   6.613   0.982  0.2220 -0.2337  0.5792
  446MOL0     C61467   1.357   6.640   1.111  0.0267  0.4992 -0.6948
  446MOL0     C61468   1.228   6.674   1.161  0.4330  0.0930 -0.9037
  446MOL0     O61469   1.225   6.685   1.298 -0.7463  0.2792 -0.5543
  446MOL0     C61470   1.098   6.678   1.378 -0.9986  0.0491  0.4508
  446MOL0     C61471   1.132   6.602   1.497  0.2405  0.0354 -1.2158
  446MOL0     C61472   1.225   6.675   1.597  1.0042 -1.1694  0.2874
  446MOL0     C61473   1.193   6.825   1.614 -0.0408  0.1367  0.0732
  446MOL0     C61474   1.258   6.872   1.735 -0.6350 -0.1352  1.0519
  446MOL0     C61475   1.303   6.918   1.845  0.3896  0.2356  0.2421
  446MOL0     C61476   1.123   6.682   1.069  0.4366 -0.7229  0.1789
  446MOL0     C61477   1.143   6.659   0.928 -1.1124  0.9197  0.1580
  446MOL0     C61478   1.038   6.673   0.817 -0.0374 -0.8346 -0.0216
  446MOL0     H61479   1.545   6.782   0.610 -2.8587 -0.7480  0.7867
  446MOL0     H61480   1.649   6.799   0.382  0.8785 -1.1798 -1.5932
  446MOL0     H61481   1.489   6.508   0.117  0.0229 -0.5814 -1.8560
  446MOL0     H61482   1.648   6.421   0.151  1.6073  1.3427  1.5148
  446MOL0     H61483   1.608   6.459  -0.085 -1.8600  0.7212  0.0822
  446MOL0     H61484   1.565   6.632  -0.048 -3.7836 -1.8890  1.5796
  446MOL0     H61485   1.828   6.636   0.025 -0.5844  0.8848  0.0230
  446MOL0     H61486   1.840   6.475  -0.024 -0.7644 -0.8820  2.1086
  446MOL0     H61487   1.742   6.586  -0.265 -3.1929  2.6978  1.9899
  446MOL0     H61488   1.810   6.725  -0.185  1.6285  0.1453 -0.7210
  446MOL0     H61489   1.962   6.623  -0.346 -0.8251 -0.3892 -0.7032
  446MOL0     H61490   1.962   6.477  -0.238  0.1913 -0.3038 -0.4402
  446MOL0     H61491   2.054   6.651  -0.064  0.0758 -0.0951 -0.5241
  446MOL0     H61492   2.160   6.590  -0.197  1.7895  2.4296 -1.4203
  446MOL0     H61493   2.030   6.874  -0.175  0.8064  1.5974 -1.2285
  446MOL0     H61494   2.109   6.809  -0.319 -0.8377 -0.1709 -0.7730
  446MOL0     H61495   2.229   6.849  -0.048 -1.5001  2.6235  0.6361
  446MOL0     H61496   2.320   6.771  -0.179  0.4212 -0.0427  3.2642
  446MOL0     H61497   2.382   7.064  -0.043 -0.5291  1.9699  1.3293
  446MOL0     H61498   2.447   7.362  -0.212  1.6545 -1.2722  2.1793
  446MOL0     H61499   2.409   7.308  -0.057  0.1194 -1.5022 -0.2302
  446MOL0     H61500   2.320   7.537  -0.169  2.7126 -0.8302  2.4839
  446MOL0     H61501   2.184   7.428  -0.207 -1.0770  3.6545 -0.5269
  446MOL0     H61502   2.267   7.408   0.084 -0.3681  0.9716  0.4778
  446MOL0     H61503   2.190   7.559   0.038 -0.8110  0.1152  1.0956
  446MOL0     H61504   2.011   7.435  -0.058  2.3194  3.5684  0.5500
  446MOL0     H61505   2.083   7.281  -0.026  0.5621 -0.9586  2.4601
  446MOL0     H61506   1.943   7.471   0.366  1.5959  0.6682 -3.0211
  446MOL0     H61507   1.907   7.326   0.648  0.3325 -0.0217 -0.9604
  446MOL0     H61508   1.934   7.500   0.590 -2.0880 -0.2819 -0.5480
  446MOL0     H61509   2.050   7.408   0.698  1.0958  1.4525 -0.9414
  446MOL0     H61510   2.463   7.219   0.877  0.0803  0.0124  3.2244
  446MOL0     H61511   2.487   7.119   1.082  0.4932 -0.2353  1.0059
  446MOL0     H61512   2.429   6.900   1.182  0.1800  4.5684 -1.4187
  446MOL0     H61513   2.481   7.023   1.275  1.3554 -0.5537  0.3439
  446MOL0     H61514   2.495   6.843   1.414  0.8344  1.6391 -2.6009
  446MOL0     H61515   2.340   6.915   1.471  1.1828 -0.9572  1.0748
  446MOL0     H61516   2.353   6.670   1.293  1.2319 -0.3870  0.8897
  446MOL0     H61517   2.210   6.741   1.356 -0.7145 -1.0539  1.2243
  446MOL0     H61518   2.422   6.633   1.544 -0.6468 -0.1482  2.4312
  446MOL0     H61519   2.282   6.542   1.464 -1.2684  0.2471  0.7557
  446MOL0     H61520   2.268   6.789   1.646 -1.2674  1.5735 -4.6270
  446MOL0     H61521   2.135   6.696   1.583 -1.2481 -0.5438  1.6387
  446MOL0     H61522   2.228   6.632   1.833  1.1757 -1.1469  0.4911
  446MOL0     H61523   2.345   6.546   1.748  0.8918  1.7094  2.4218
  446MOL0     H61524   2.175   6.424   1.622  2.9333  2.5598  0.3586
  446MOL0     H61525   2.051   6.532   1.698 -0.8571  0.2193 -0.3484
  446MOL0     H61526   2.215   6.339   1.858  1.1871  1.0559 -1.8182
  446MOL0     H61527   2.043   6.321   1.821 -0.2413  1.0767 -2.7055
  446MOL0     H61528   2.062   7.106   1.133  0.0864  2.0068  1.3334
  446MOL0     H61529   2.031   7.188   0.896 -0.4542 -2.3821  1.2071
  446MOL0     H61530   2.275   7.105   0.388  0.6038  0.4061 -0.8844
  446MOL0     H61531   2.199   7.179   0.183  1.4789  0.0483  1.7426
  446MOL0     H61532   1.486   6.407   0.307  0.0199 -1.0748  1.4557
  446MOL0     H61533   1.407   6.388   0.553  0.4099 -0.4041  1.2652
  446MOL0     H61534   1.479   6.578   0.964 -0.7834 -2.1663 -1.8797
  446MOL0     H61535   1.423   6.629   1.196 -4.9703 -0.3479  3.5729
  446MOL0     H61536   1.055   6.778   1.396  0.3183  0.8776 -0.7815
  446MOL0     H61537   1.023   6.632   1.314  1.4460  0.1958 -2.7355
  446MOL0     H61538   1.163   6.498   1.481 -0.0820 -0.8061  2.5966
  446MOL0     H61539   1.043   6.579   1.556 -1.5088  2.7413 -2.5690
  446MOL0     H61540   1.210   6.627   1.694 -0.2890  1.2890  1.4105
  446MOL0     H61541   1.331   6.675   1.572  1.8399  2.6488  2.9828
  446MOL0     H61542   1.085   6.839   1.622 -0.1608 -0.6267 -0.0524
  446MOL0     H61543   1.227   6.882   1.527 -1.4882 -0.7136 -1.0988
  446MOL0     H61544   1.340   6.972   1.931 -0.4997  0.2821  0.6092
  446MOL0     H61545   1.023   6.706   1.101  0.3608  0.7067 -1.0037
  446MOL0     H61546   1.075   6.711   0.721  0.9608 -2.3529 -0.2664
  446MOL0     H61547   0.982   6.582   0.794  0.4140 -0.8885 -0.9789
  446MOL0     H61548   0.970   6.751   0.853  0.4706 -0.2827 -0.2349
  447MOL0     O61549   7.393   1.994   6.006 -0.2545  0.2807 -0.2263
  447MOL0     C61550   7.299   1.938   6.068 -0.6875  0.0995 -0.1731
  447MOL0     O61551   7.280   1.799   6.076  0.5379  0.2672 -0.2536
  447MOL0     C61552   7.357   1.714   5.995 -0.6086  0.0368  0.4193
  447MOL0     C61553   7.284   1.622   5.926  0.0500  0.0246 -0.4780
  447MOL0     C61554   7.356   1.540   5.840 -0.5006  0.1506 -0.3093
  447MOL0     C61555   7.496   1.542   5.823 -1.0210 -0.4637  0.0874
  447MOL0     O61556   7.559   1.456   5.736  0.1413 -0.1893  0.2660
  447MOL0     C61557   7.701   1.446   5.719 -0.4448  0.1073 -0.2041
  447MOL0     C61558   7.736   1.332   5.620  0.1283 -0.3513 -1.3953
  447MOL0     C61559   7.892   1.299   5.632  0.4788 -0.3517  0.6877
  447MOL0     C61560   7.989   1.423   5.653 -0.3790  0.1792 -0.4972
  447MOL0     C61561   8.144   1.391   5.638  0.7179 -0.0121  0.3451
  447MOL0     C61562   8.189   1.291   5.535 -0.1232 -0.3464 -1.0842
  447MOL0     C61563   8.152   1.322   5.393 -0.3484 -0.0951 -0.1631
  447MOL0     C61564   8.257   1.269   5.290  0.4359 -0.0480  1.0341
  447MOL0     N61565   8.194   1.283   5.156  0.4001 -0.1471  0.5405
  447MOL0     C61566   8.098   1.201   5.104  0.5446 -0.1076  0.4505
  447MOL0     C61567   8.045   1.263   5.000  0.9611  0.2604 -0.5557
  447MOL0     C61568   7.927   1.223   4.921 -0.1508 -0.0628 -0.1333
  447MOL0     C61569   7.946   1.229   4.768  0.8287 -0.0658 -0.1807
  447MOL0     C61570   8.073   1.149   4.726  0.5929 -0.0381 -0.6004
  447MOL0     C61571   8.090   1.142   4.573  0.9145  0.3574  0.1991
  447MOL0     O61572   8.138   1.252   4.496 -0.9034 -0.2448 -0.7477
  447MOL0     C61573   8.153   1.226   4.361 -0.2125 -0.2293 -1.0882
  447MOL0     C61574   8.049   1.196   4.275  1.0428  0.8517  0.5973
  447MOL0     C61575   8.070   1.158   4.150 -0.1129  0.1462 -0.1179
  447MOL0     C61576   7.958   1.093   4.078 -0.1339 -0.4398  0.3226
  447MOL0     C61577   8.199   1.171   4.095  0.5594  1.4412 -0.2246
  447MOL0     C61578   8.253   1.125   3.962  0.9125 -1.3169 -0.5673
  447MOL0     O61579   8.172   1.167   3.859  0.1806  0.1312  1.0121
  447MOL0     C61580   8.195   1.141   3.723  0.1892  0.0507  0.4497
  447MOL0     C61581   8.311   1.089   3.660 -0.3312 -0.2618  0.7742
  447MOL0     C61582   8.316   1.079   3.521  0.2291  1.1319  0.1047
  447MOL0     C61583   8.208   1.112   3.436  0.2444 -0.0805 -0.1964
  447MOL0     O61584   8.214   1.088   3.299  0.5540  0.1307  0.5392
  447MOL0     C61585   8.092   1.094   3.219  1.0482 -0.5518  0.6494
  447MOL0     C61586   8.096   1.020   3.086  0.2780  0.0375  0.7837
  447MOL0     C61587   7.964   1.045   3.012  0.1347 -0.8722 -0.1073
  447MOL0     C61588   7.961   0.995   2.860 -0.4484  0.2986 -0.3659
  447MOL0     C61589   7.849   0.885   2.823 -0.4593 -0.4699  0.7972
  447MOL0     C61590   7.881   0.747   2.884  0.4366 -0.1961  0.3349
  447MOL0     C61591   7.790   0.641   2.831 -0.5930 -0.7056  0.1788
  447MOL0     C61592   7.651   0.620   2.900  1.1132  0.5786  0.2956
  447MOL0    Cl61593   7.675   0.590   3.076 -0.1481 -0.3731 -0.4360
  447MOL0     C61594   8.097   1.166   3.498 -0.3488 -0.2805  0.4244
  447MOL0     C61595   8.092   1.193   3.638 -0.2422 -0.8351 -0.2222
  447MOL0     O61596   8.367   1.076   3.950 -0.1569  0.1337  0.7551
  447MOL0     C61597   8.299   1.231   4.168  0.2541 -0.8637 -0.8834
  447MOL0     C61598   8.273   1.251   4.307  0.5166  1.2846  0.7659
  447MOL0     N61599   8.116   1.382   4.984 -1.0667 -0.7393 -0.8451
  447MOL0     N61600   8.210   1.390   5.073 -0.3239 -0.1220  0.3492
  447MOL0     C61601   7.564   1.641   5.887 -0.0610 -0.2085  0.0101
  447MOL0     C61602   7.493   1.728   5.969 -0.0865 -0.9131 -0.8449
  447MOL0     C61603   7.233   2.020   6.163 -0.5619  0.4361 -0.0008
  447MOL0     C61604   7.204   1.971   6.286  0.1540  0.4852  0.0258
  447MOL0     C61605   7.136   2.053   6.373 -0.3329  0.3881 -0.6394
  447MOL0     C61606   7.099   2.187   6.343 -0.4729  0.6077  0.7088
  447MOL0     O61607   7.045   2.258   6.444  0.6249  0.1251  0.8439
  447MOL0     C61608   7.003   2.399   6.430 -0.2886  0.0371 -0.4388
  447MOL0     C61609   7.012   2.460   6.567  0.3138  0.0796 -0.0076
  447MOL0     C61610   7.164   2.479   6.601  0.4359 -0.5616 -0.1932
  447MOL0     C61611   7.180   2.476   6.755  0.0931 -0.6908 -0.3581
  447MOL0     C61612   7.283   2.574   6.797  0.5226 -0.0192 -0.1465
  447MOL0     C61613   7.345   2.664   6.831 -0.3859  0.0713  0.9913
  447MOL0     C61614   7.127   2.234   6.213  0.0611  0.0915 -0.6504
  447MOL0     C61615   7.183   2.149   6.126 -0.1463  0.1368 -0.5702
  447MOL0     C61616   7.189   2.201   5.979 -0.1157 -0.3808 -0.7988
  447MOL0     H61617   7.178   1.599   5.935 -0.4143  1.7114 -1.2424
  447MOL0     H61618   7.303   1.455   5.799  2.1136 -0.7646 -1.9841
  447MOL0     H61619   7.739   1.392   5.806 -1.2801  1.6985  1.2090
  447MOL0     H61620   7.747   1.545   5.705 -1.7232  1.3881  3.4360
  447MOL0     H61621   7.671   1.246   5.636 -0.2592  0.1530 -0.1689
  447MOL0     H61622   7.712   1.371   5.521 -0.6033  1.3011 -0.5994
  447MOL0     H61623   7.914   1.229   5.714 -4.8778 -0.3566  2.5331
  447MOL0     H61624   7.918   1.249   5.539  4.1258  1.5092  0.5240
  447MOL0     H61625   7.956   1.497   5.579 -2.6474  0.0383  0.3011
  447MOL0     H61626   7.976   1.456   5.756  1.9363 -0.1429 -0.0406
  447MOL0     H61627   8.164   1.352   5.738  1.9330 -2.2099 -0.6718
  447MOL0     H61628   8.205   1.482   5.635  0.4206  0.3042  2.5067
  447MOL0     H61629   8.298   1.288   5.531  0.0213  2.7451 -3.6177
  447MOL0     H61630   8.168   1.190   5.571  1.3169  0.2728  1.7896
  447MOL0     H61631   8.159   1.431   5.392  3.3294 -0.1960 -0.6397
  447MOL0     H61632   8.049   1.293   5.372 -1.5972  0.6967  4.0294
  447MOL0     H61633   8.345   1.334   5.293  0.1861  0.4821 -1.3352
  447MOL0     H61634   8.286   1.169   5.325 -0.4378 -0.4106  0.7446
  447MOL0     H61635   8.065   1.109   5.153 -0.0597  0.3208  0.8673
  447MOL0     H61636   7.833   1.272   4.950 -1.9634 -3.5957  0.4738
  447MOL0     H61637   7.903   1.122   4.955 -3.2005  0.2233 -1.0731
  447MOL0     H61638   7.860   1.189   4.713  1.7961 -0.0921 -1.7103
  447MOL0     H61639   7.954   1.334   4.739  3.4966  1.0152  3.7450
  447MOL0     H61640   8.166   1.192   4.766  0.5173  2.1003 -2.5626
  447MOL0     H61641   8.055   1.045   4.757  0.5645  0.1541  0.0514
  447MOL0     H61642   8.150   1.057   4.538  1.0394  0.4422  0.2038
  447MOL0     H61643   7.987   1.128   4.540  1.4076  0.8976 -1.7314
  447MOL0     H61644   7.949   1.196   4.317  0.6850 -1.6237 -0.1355
  447MOL0     H61645   7.863   1.120   4.124 -0.2605  2.6889 -1.4938
  447MOL0     H61646   7.975   0.985   4.072 -0.6050 -0.4379 -2.8119
  447MOL0     H61647   7.964   1.129   3.975  0.6388  0.3130  0.6170
  447MOL0     H61648   8.397   1.062   3.720 -0.2537 -0.6970  0.4802
  447MOL0     H61649   8.403   1.031   3.477 -0.8632  0.2691 -1.1884
  447MOL0     H61650   8.006   1.058   3.276 -0.4295  2.8392  0.8230
  447MOL0     H61651   8.081   1.202   3.206  0.9725 -0.8040 -1.7448
  447MOL0     H61652   8.183   1.064   3.036 -0.8366 -1.2049 -2.4650
  447MOL0     H61653   8.108   0.914   3.112 -0.2190  0.2004  1.7127
  447MOL0     H61654   7.947   1.153   3.012  2.2485 -0.4106 -3.2506
  447MOL0     H61655   7.879   1.007   3.070 -2.0885  4.2219  0.4835
  447MOL0     H61656   8.059   0.960   2.829 -1.4906 -3.7991  0.3355
  447MOL0     H61657   7.934   1.085   2.805  1.8579  1.6316  0.5319
  447MOL0     H61658   7.744   0.900   2.849 -0.9876 -1.6273 -0.4963
  447MOL0     H61659   7.839   0.880   2.714 -0.9353 -0.8018  0.8524
  447MOL0     H61660   7.882   0.747   2.993 -1.5261 -0.8716  0.3834
  447MOL0     H61661   7.982   0.714   2.856  0.8457  0.6099  0.8493
  447MOL0     H61662   7.842   0.545   2.837  1.5334  0.4271  5.4584
  447MOL0     H61663   7.782   0.666   2.725  0.4971 -1.7299 -0.1744
  447MOL0     H61664   7.599   0.535   2.855  1.9865 -0.0123  0.3839
  447MOL0     H61665   7.605   0.719   2.898  2.1141  1.1717  2.7891
  447MOL0     H61666   8.013   1.189   3.433  0.2307 -0.3721 -0.3560
  447MOL0     H61667   8.002   1.238   3.681 -2.3488 -2.6288 -2.4571
  447MOL0     H61668   8.396   1.249   4.123 -0.2396 -0.9541 -2.0111
  447MOL0     H61669   8.355   1.276   4.374 -0.6089  2.6173  1.6907
  447MOL0     H61670   7.668   1.667   5.871 -0.2686  0.6581  0.0342
  447MOL0     H61671   7.545   1.804   6.026 -2.2480  1.0990 -1.4149
  447MOL0     H61672   7.240   1.871   6.308 -0.9908  0.3311  1.3532
  447MOL0     H61673   7.112   2.014   6.472 -2.1467  2.0420 -0.3595
  447MOL0     H61674   7.067   2.446   6.355  1.6100 -1.4856  0.1577
  447MOL0     H61675   6.900   2.402   6.394 -0.6830 -3.9886 -0.0789
  447MOL0     H61676   6.964   2.394   6.640  2.3140 -0.8105  0.5765
  447MOL0     H61677   6.967   2.559   6.577 -1.6289 -0.9271  2.1948
  447MOL0     H61678   7.232   2.404   6.561  2.6835  0.7037  1.0233
  447MOL0     H61679   7.192   2.573   6.553  2.0015 -1.2360 -0.6622
  447MOL0     H61680   7.208   2.377   6.792  2.9095  0.3459  0.5886
  447MOL0     H61681   7.088   2.514   6.801  0.1240  1.9864 -2.2724
  447MOL0     H61682   7.385   2.749   6.882  1.6154 -0.6722  0.7442
  447MOL0     H61683   7.090   2.333   6.190  0.3281  0.7468  1.5130
  447MOL0     H61684   7.276   2.267   5.977 -1.2738  1.2377  0.1879
  447MOL0     H61685   7.198   2.115   5.911  0.0633  0.1363 -1.4407
  447MOL0     H61686   7.100   2.254   5.945  0.5970 -0.1130 -2.3271
  448MOL0     O61687   9.207   6.439   9.969  0.1113 -0.2955 -0.2346
  448MOL0     C61688   9.290   6.530   9.986  0.2763  0.2183  0.0848
  448MOL0     O61689   9.417   6.506  10.020  0.8952 -0.6178 -0.1793
  448MOL0     C61690   9.461   6.373  10.010 -0.4971  0.0282 -0.0549
  448MOL0     C61691   9.585   6.362   9.944  0.3235 -0.4927 -0.0834
  448MOL0     C61692   9.651   6.243   9.924  0.0719 -0.1134 -0.7137
  448MOL0     C61693   9.594   6.125   9.969  0.7548  0.2315  0.6181
  448MOL0     O61694   9.647   6.002   9.970 -1.1879  0.2281  0.2318
  448MOL0     C61695   9.792   5.985   9.966  0.9019  0.2640 -0.1263
  448MOL0     C61696   9.822   5.840   9.909  0.2725 -0.6957 -0.7999
  448MOL0     C61697   9.787   5.793   9.759  0.7899  0.4695 -1.0218
  448MOL0     C61698   9.646   5.727   9.767  0.5302 -0.0043  0.0848
  448MOL0     C61699   9.598   5.636   9.655 -0.3550 -1.1376  0.0958
  448MOL0     C61700   9.662   5.503   9.681  0.3760  0.3051 -0.6667
  448MOL0     C61701   9.633   5.391   9.581  0.0873 -0.1021 -0.0380
  448MOL0     C61702   9.497   5.317   9.612 -0.3236 -0.0331 -0.0594
  448MOL0     N61703   9.481   5.204   9.522 -0.1342  0.3176 -0.7003
  448MOL0     C61704   9.390   5.105   9.538  0.4901 -0.3330  0.0416
  448MOL0     C61705   9.412   5.002   9.454  0.3064  0.1341 -0.4243
  448MOL0     C61706   9.326   4.871   9.450  0.0889  0.0409  0.5455
  448MOL0     C61707   9.345   4.778   9.575 -0.7289  1.2631  0.1284
  448MOL0     C61708   9.498   4.740   9.609  0.4925  0.8566  0.0448
  448MOL0     C61709   9.592   4.690   9.495  0.4529  0.4145 -0.2451
  448MOL0     O61710   9.721   4.645   9.552  0.8151 -0.6196 -0.3663
  448MOL0     C61711   9.816   4.602   9.466 -1.0831 -1.1514 -0.4538
  448MOL0     C61712   9.801   4.584   9.328 -0.6201  0.8019  0.7756
  448MOL0     C61713   9.893   4.521   9.243  0.4973 -0.1271  0.1160
  448MOL0     C61714   9.862   4.506   9.092 -0.1458 -0.3313 -0.1688
  448MOL0     C61715  10.014   4.479   9.299  0.1314 -0.1027 -0.3747
  448MOL0     C61716  10.131   4.422   9.232  0.1328 -0.8331  0.5017
  448MOL0     O61717  10.253   4.438   9.295 -0.9552 -0.8045  0.5139
  448MOL0     C61718  10.371   4.399   9.232  0.2232 -0.5717 -0.0589
  448MOL0     C61719  10.401   4.266   9.215 -0.8157 -0.4940  0.1557
  448MOL0     C61720  10.519   4.238   9.153 -0.4560 -0.3326 -0.2502
  448MOL0     C61721  10.605   4.338   9.095 -0.6522 -0.1517 -0.6394
  448MOL0     O61722  10.727   4.318   9.042  0.3251  0.6279  0.3558
  448MOL0     C61723  10.806   4.200   9.072  1.3186 -0.1519 -0.4518
  448MOL0     C61724  10.944   4.201   8.991 -0.4329 -0.2520 -1.0282
  448MOL0     C61725  11.077   4.219   9.084  0.5629  0.5765 -0.0992
  448MOL0     C61726  11.059   4.350   9.159  0.3097  0.4618 -0.6622
  448MOL0     C61727  11.155   4.347   9.272  0.2917 -0.0997 -0.4716
  448MOL0     C61728  11.283   4.437   9.263 -0.7378  0.2605  0.6912
  448MOL0     C61729  11.356   4.438   9.397  0.4601 -0.6202  0.2464
  448MOL0     C61730  11.450   4.558   9.387  0.2075 -0.6109 -0.0442
  448MOL0    Cl61731  11.516   4.583   9.557  0.0684  0.1228  0.9065
  448MOL0     C61732  10.576   4.467   9.126  0.7811 -0.0496  0.5482
  448MOL0     C61733  10.451   4.501   9.173 -0.7546 -0.8949  0.3154
  448MOL0     O61734  10.112   4.349   9.138  0.4542 -0.4020 -0.0434
  448MOL0     C61735  10.037   4.504   9.441 -0.6325  0.8089  0.0202
  448MOL0     C61736   9.942   4.563   9.527  1.1176  0.9069  1.3128
  448MOL0     N61737   9.526   5.049   9.387  0.1083 -0.3732  0.1188
  448MOL0     N61738   9.572   5.155   9.438 -0.9413 -0.0713 -0.1743
  448MOL0     C61739   9.466   6.132  10.023  0.4062 -0.5879  0.4107
  448MOL0     C61740   9.405   6.257  10.061 -0.2594  0.6350 -0.5070
  448MOL0     C61741   9.242   6.673   9.960 -0.5284  0.3222 -0.1959
  448MOL0     C61742   9.328   6.776   9.988  0.0742  0.3726  0.8584
  448MOL0     C61743   9.293   6.912   9.969  0.4713 -0.2165  0.2421
  448MOL0     C61744   9.163   6.941   9.927 -0.9564 -0.4544  0.6866
  448MOL0     O61745   9.146   7.074   9.893  0.1545 -0.5878  0.0770
  448MOL0     C61746   9.042   7.109   9.803  0.0788  0.1742  0.1013
  448MOL0     C61747   9.091   7.236   9.742 -0.6741 -0.5178  0.4779
  448MOL0     C61748   9.053   7.357   9.835 -0.0491 -1.2400 -0.1899
  448MOL0     C61749   9.064   7.486   9.754 -0.6881  0.1866  0.2457
  448MOL0     C61750   9.059   7.609   9.841  0.6851  0.4120 -0.8625
  448MOL0     C61751   9.037   7.691   9.924 -0.6693 -0.8647  0.5840
  448MOL0     C61752   9.072   6.836   9.900  0.1701 -0.3892  1.3012
  448MOL0     C61753   9.105   6.704   9.921  0.0279 -0.7121 -0.1995
  448MOL0     C61754   8.983   6.619   9.888  0.4369  1.4487 -0.1197
  448MOL0     H61755   9.626   6.450   9.894  2.1402 -1.9734 -1.3296
  448MOL0     H61756   9.752   6.240   9.883  0.5954 -1.4708  0.5673
  448MOL0     H61757   9.819   5.978  10.072 -0.4277 -0.3661  0.1882
  448MOL0     H61758   9.846   6.059   9.906  0.6993 -0.0816 -0.7325
  448MOL0     H61759   9.931   5.846   9.909  0.2864 -0.9178 -0.4039
  448MOL0     H61760   9.780   5.772   9.985 -0.5173  0.3502 -0.2766
  448MOL0     H61761   9.778   5.881   9.695 -0.0023  0.5890 -0.7668
  448MOL0     H61762   9.850   5.714   9.717  0.1618 -1.0779  0.7856
  448MOL0     H61763   9.641   5.675   9.864 -1.7128  2.4530  1.4104
  448MOL0     H61764   9.569   5.804   9.773 -2.8347 -2.7071 -3.2281
  448MOL0     H61765   9.634   5.680   9.562  3.6621 -4.5117 -0.2553
  448MOL0     H61766   9.489   5.637   9.651 -0.3258 -0.6416 -1.0367
  448MOL0     H61767   9.770   5.520   9.677  0.8460 -2.3482 -1.9971
  448MOL0     H61768   9.639   5.472   9.783  2.8074  0.9309  0.1141
  448MOL0     H61769   9.714   5.317   9.580  0.9480  0.7564 -2.3260
  448MOL0     H61770   9.619   5.428   9.479 -1.1537  0.3341  0.2669
  448MOL0     H61771   9.512   5.268   9.709 -1.4394 -4.1093 -1.7440
  448MOL0     H61772   9.404   5.374   9.611  0.7901  1.8892 -1.6319
  448MOL0     H61773   9.311   5.103   9.612  1.1054  0.9424  0.7784
  448MOL0     H61774   9.361   4.820   9.360  1.8669  0.2388  1.0887
  448MOL0     H61775   9.221   4.891   9.430  0.5422  0.3444 -1.8448
  448MOL0     H61776   9.318   4.829   9.667 -1.3396 -0.1217  0.7330
  448MOL0     H61777   9.292   4.683   9.567  2.4449 -0.9061  2.5740
  448MOL0     H61778   9.541   4.823   9.665 -3.4078  1.8969  1.8601
  448MOL0     H61779   9.490   4.650   9.671 -1.5544 -0.1366 -1.5367
  448MOL0     H61780   9.539   4.612   9.439  0.2241  1.6602 -1.8139
  448MOL0     H61781   9.601   4.766   9.418 -0.6643 -1.4158 -2.2753
  448MOL0     H61782   9.707   4.616   9.283 -1.2081 -0.8778  0.7535
  448MOL0     H61783   9.950   4.505   9.027 -0.4133 -0.3376 -0.5406
  448MOL0     H61784   9.797   4.590   9.067 -1.4896 -0.9765  0.9948
  448MOL0     H61785   9.807   4.415   9.063  0.1733 -0.4724 -0.3334
  448MOL0     H61786  10.348   4.179   9.252  0.3357 -0.6903  1.4133
  448MOL0     H61787  10.540   4.132   9.144  0.8612 -0.1302  0.1871
  448MOL0     H61788  10.808   4.191   9.181  3.3563  0.8391 -0.3677
  448MOL0     H61789  10.743   4.119   9.034  0.0994 -0.5978  2.2576
  448MOL0     H61790  10.959   4.112   8.930  3.8568 -1.1953  0.9968
  448MOL0     H61791  10.934   4.283   8.920 -0.2482  0.6575 -0.0394
  448MOL0     H61792  11.167   4.202   9.024  0.9306 -0.4460  0.7146
  448MOL0     H61793  11.064   4.143   9.161  0.2943  2.3461  1.6718
  448MOL0     H61794  10.955   4.358   9.192 -0.4016 -1.8906 -2.0740
  448MOL0     H61795  11.089   4.431   9.091  0.2507  0.7753 -0.3158
  448MOL0     H61796  11.100   4.387   9.357  0.0141  1.6033 -1.3965
  448MOL0     H61797  11.181   4.245   9.300  2.3252  0.7310  0.9646
  448MOL0     H61798  11.257   4.540   9.238  2.0430  0.9763  0.3813
  448MOL0     H61799  11.349   4.404   9.183 -2.4770 -0.4116 -0.5123
  448MOL0     H61800  11.400   4.343   9.429  2.5856  0.3056  0.2706
  448MOL0     H61801  11.280   4.466   9.470 -0.1553  2.6106 -1.4658
  448MOL0     H61802  11.397   4.649   9.360  2.4660  2.3331  4.2874
  448MOL0     H61803  11.535   4.538   9.321  0.1376  1.2205 -0.7295
  448MOL0     H61804  10.639   4.547   9.089  0.7636  1.2171  3.0284
  448MOL0     H61805  10.419   4.602   9.195 -2.8417 -0.7257 -2.8930
  448MOL0     H61806  10.123   4.454   9.486  0.5829  1.5768 -1.3786
  448MOL0     H61807   9.963   4.577   9.632 -0.0494  1.5676  1.4730
  448MOL0     H61808   9.437   6.036  10.064 -2.1011 -0.4751 -0.9103
  448MOL0     H61809   9.309   6.254  10.112  0.5845 -1.6250  1.1152
  448MOL0     H61810   9.423   6.748  10.031 -0.4084 -2.8349  0.1322
  448MOL0     H61811   9.373   6.984   9.978 -0.2698  0.6930 -0.2639
  448MOL0     H61812   9.030   7.040   9.718 -0.4114 -1.0348  1.1179
  448MOL0     H61813   8.940   7.119   9.841 -0.0052 -0.9304  0.2010
  448MOL0     H61814   9.040   7.241   9.645  0.0055 -0.2736  0.1234
  448MOL0     H61815   9.197   7.254   9.719 -1.4100  1.9102 -1.4890
  448MOL0     H61816   8.946   7.341   9.856 -1.1070  2.4365 -1.9411
  448MOL0     H61817   9.101   7.374   9.932 -0.2427 -1.4721 -0.0488
  448MOL0     H61818   8.995   7.500   9.670 -1.7798  0.1690  1.1212
  448MOL0     H61819   9.161   7.474   9.706 -0.5071 -3.1280  1.1596
  448MOL0     H61820   9.027   7.774   9.990  0.8226  0.3732 -0.6718
  448MOL0     H61821   8.973   6.855   9.860  0.5034 -2.7456 -0.8948
  448MOL0     H61822   8.903   6.671   9.835  2.2489  3.7192 -0.7882
  448MOL0     H61823   9.018   6.527   9.839 -4.0672 -1.0210  0.7972
  448MOL0     H61824   8.945   6.573   9.979 -0.6141  0.6795 -0.9226
  449MOL0     O61825   4.473   2.972   3.495  0.0877 -1.0969  0.1922
  449MOL0     C61826   4.377   3.016   3.562 -1.0924 -0.0725 -0.7062
  449MOL0     O61827   4.351   2.984   3.689  0.1614 -0.2510  0.1132
  449MOL0     C61828   4.449   2.915   3.761  0.1020  1.1333 -1.0279
  449MOL0     C61829   4.573   2.959   3.784  0.6082 -0.3237  0.0346
  449MOL0     C61830   4.659   2.867   3.848  0.5694  0.3920  0.5179
  449MOL0     C61831   4.630   2.735   3.886 -0.3738  1.0346 -1.5457
  449MOL0     O61832   4.707   2.644   3.953 -0.7484 -0.1624  0.3849
  449MOL0     C61833   4.845   2.637   3.909 -0.1429 -0.3181  1.0948
  449MOL0     C61834   4.927   2.552   3.995 -0.2605 -0.3408 -0.0917
  449MOL0     C61835   4.993   2.626   4.116  0.8279 -0.2077  0.5386
  449MOL0     C61836   5.059   2.524   4.214  0.5813  0.1929 -0.2703
  449MOL0     C61837   4.957   2.420   4.281  0.8081 -0.8390 -0.1214
  449MOL0     C61838   4.875   2.487   4.392 -0.2310  0.3411 -0.4086
  449MOL0     C61839   4.786   2.375   4.456  0.7450  0.0283 -0.5513
  449MOL0     C61840   4.780   2.403   4.603 -0.1934  0.8870 -0.3091
  449MOL0     N61841   4.679   2.316   4.661  0.2958 -0.5905 -0.3740
  449MOL0     C61842   4.539   2.317   4.656  1.2623 -0.3863 -0.3857
  449MOL0     C61843   4.502   2.208   4.727 -0.4738 -0.8744  0.0123
  449MOL0     C61844   4.351   2.160   4.741 -0.0867  0.4445 -0.0750
  449MOL0     C61845   4.350   2.005   4.774  0.9305 -0.1983  0.0234
  449MOL0     C61846   4.369   1.912   4.659 -0.1418 -0.4943  0.2712
  449MOL0     C61847   4.519   1.894   4.617  0.7551  0.6031 -1.3226
  449MOL0     O61848   4.516   1.771   4.539  0.1151  0.0339 -0.5040
  449MOL0     C61849   4.515   1.765   4.404  0.9796  0.5732  0.7744
  449MOL0     C61850   4.501   1.633   4.354 -0.4084  0.1528  0.0181
  449MOL0     C61851   4.517   1.612   4.215  0.1553 -0.7884 -0.2544
  449MOL0     C61852   4.496   1.469   4.184 -0.1809 -0.1176  0.4728
  449MOL0     C61853   4.542   1.726   4.124  0.1317  0.7656 -0.1083
  449MOL0     C61854   4.578   1.712   3.982  0.7497 -0.7358 -0.2832
  449MOL0     O61855   4.662   1.601   3.953 -0.1912 -0.7825  0.8744
  449MOL0     C61856   4.643   1.517   3.847  1.4342  0.1295  1.0298
  449MOL0     C61857   4.734   1.416   3.826  0.1094  0.1469 -0.1154
  449MOL0     C61858   4.705   1.327   3.721  0.0628 -0.3748  0.0310
  449MOL0     C61859   4.594   1.326   3.641 -0.3626 -0.0050 -0.1050
  449MOL0     O61860   4.568   1.230   3.544  0.0402  0.3276  0.1590
  449MOL0     C61861   4.524   1.111   3.611  0.3115 -0.5075  0.2035
  449MOL0     C61862   4.473   1.019   3.500  0.8029 -0.4933  0.5841
  449MOL0     C61863   4.416   0.883   3.547 -0.4824  0.7475 -0.2822
  449MOL0     C61864   4.338   0.810   3.436  0.7347  0.0750  0.1682
  449MOL0     C61865   4.259   0.690   3.486 -0.8163 -0.6950  0.0715
  449MOL0     C61866   4.346   0.575   3.545 -1.0122 -0.6015  0.9990
  449MOL0     C61867   4.264   0.470   3.602 -0.6643  0.0229  0.7732
  449MOL0     C61868   4.185   0.372   3.518 -0.2265 -0.8894 -0.5425
  449MOL0    Cl61869   4.026   0.435   3.453  0.4326 -0.6720  0.0356
  449MOL0     C61870   4.492   1.421   3.674 -0.3868  0.2579 -0.6333
  449MOL0     C61871   4.520   1.515   3.771  0.1337 -0.3404  0.1417
  449MOL0     O61872   4.541   1.797   3.902  0.5932 -0.1882 -0.2988
  449MOL0     C61873   4.535   1.856   4.183 -0.2669  0.7513  0.0814
  449MOL0     C61874   4.516   1.872   4.316  1.0367  0.1255  0.2311
  449MOL0     N61875   4.609   2.153   4.791 -0.7807 -0.0133 -0.1969
  449MOL0     N61876   4.713   2.226   4.753 -0.4389 -0.2283  0.2711
  449MOL0     C61877   4.508   2.697   3.856  0.4108 -0.0337  0.3584
  449MOL0     C61878   4.422   2.784   3.792 -0.0689  0.3553 -0.4380
  449MOL0     C61879   4.275   3.115   3.502  0.1750  0.2518  1.1948
  449MOL0     C61880   4.170   3.169   3.578  0.3103 -0.1031 -0.5849
  449MOL0     C61881   4.079   3.259   3.536  0.0498 -0.4640  1.2540
  449MOL0     C61882   4.098   3.329   3.411  0.0465 -0.0210 -0.8684
  449MOL0     O61883   4.021   3.431   3.358  0.2176  0.3856  0.2450
  449MOL0     C61884   4.010   3.550   3.439  0.2417 -0.0301 -0.1026
  449MOL0     C61885   3.944   3.647   3.340  0.1448 -0.7301  0.2854
  449MOL0     C61886   3.794   3.631   3.348  0.4194 -0.2620 -0.4783
  449MOL0     C61887   3.726   3.748   3.267 -0.6825  0.2211 -0.0727
  449MOL0     C61888   3.775   3.717   3.129 -0.0778 -0.6508 -0.6496
  449MOL0     C61889   3.837   3.704   3.024  1.0253  0.5812  0.4538
  449MOL0     C61890   4.198   3.271   3.331  0.4030  0.1207  0.3532
  449MOL0     C61891   4.283   3.172   3.367 -0.0390  0.5040  0.0621
  449MOL0     C61892   4.390   3.127   3.257  0.0241  0.4742 -0.8586
  449MOL0     H61893   4.615   3.059   3.777 -1.8532  0.7616 -0.1270
  449MOL0     H61894   4.756   2.899   3.883  1.3918 -3.2892  2.0772
  449MOL0     H61895   4.890   2.737   3.913  0.9525 -0.8311  2.5642
  449MOL0     H61896   4.839   2.609   3.804 -4.2294  1.5303  0.6285
  449MOL0     H61897   4.862   2.471   4.027 -0.7213 -0.8273 -2.1052
  449MOL0     H61898   4.994   2.504   3.923 -3.6791 -1.2161 -2.9677
  449MOL0     H61899   5.066   2.701   4.084  0.2762  0.1180  0.0262
  449MOL0     H61900   4.911   2.671   4.173  0.3148  0.6668 -0.8541
  449MOL0     H61901   5.127   2.468   4.149  1.4677 -0.2323  0.9915
  449MOL0     H61902   5.130   2.572   4.281  1.0816  1.7665 -1.8415
  449MOL0     H61903   5.022   2.340   4.319  2.0086 -1.8303 -3.7905
  449MOL0     H61904   4.884   2.380   4.210  0.7316 -0.1031 -0.4586
  449MOL0     H61905   4.954   2.526   4.457 -0.9099 -1.1963  1.4416
  449MOL0     H61906   4.817   2.575   4.363 -2.1794 -1.5848 -2.7595
  449MOL0     H61907   4.812   2.270   4.438 -0.2543 -0.1305 -1.1250
  449MOL0     H61908   4.686   2.408   4.427 -0.5708 -0.3452  3.0279
  449MOL0     H61909   4.881   2.380   4.639  0.1476 -0.6009 -2.0838
  449MOL0     H61910   4.758   2.506   4.633 -1.8284  1.0448 -1.9234
  449MOL0     H61911   4.476   2.383   4.596  3.0483  1.1522 -0.6706
  449MOL0     H61912   4.290   2.170   4.651 -0.0926 -2.2098 -0.4438
  449MOL0     H61913   4.315   2.208   4.833 -0.5599  1.5172 -0.8112
  449MOL0     H61914   4.425   1.982   4.850  0.9593 -1.5716 -0.3910
  449MOL0     H61915   4.257   1.977   4.824  0.3164 -3.6156 -2.5925
  449MOL0     H61916   4.328   1.814   4.683  1.2288 -0.7055  1.9656
  449MOL0     H61917   4.322   1.955   4.570  1.5204 -0.7260 -0.7762
  449MOL0     H61918   4.552   1.978   4.556  0.2190  2.1599  0.4355
  449MOL0     H61919   4.582   1.883   4.706 -1.2516  2.8955  0.5257
  449MOL0     H61920   4.470   1.548   4.415 -1.2315 -1.6432 -2.6956
  449MOL0     H61921   4.407   1.469   4.120  0.9105  0.5767 -1.0965
  449MOL0     H61922   4.473   1.405   4.270 -2.5925 -0.3745 -0.2901
  449MOL0     H61923   4.579   1.422   4.130  1.8347  2.7363  0.8835
  449MOL0     H61924   4.822   1.402   3.887 -2.3999  2.2088  4.4043
  449MOL0     H61925   4.782   1.262   3.680 -1.0584 -1.8992  0.2353
  449MOL0     H61926   4.616   1.076   3.659  0.0679 -0.7317  0.5150
  449MOL0     H61927   4.443   1.129   3.682 -0.3164 -3.8222  0.5245
  449MOL0     H61928   4.399   1.082   3.449  2.6612  0.0653 -1.5915
  449MOL0     H61929   4.540   0.987   3.420 -1.8363 -2.1519 -1.1455
  449MOL0     H61930   4.353   0.882   3.637  0.3164 -4.2985  0.5344
  449MOL0     H61931   4.495   0.811   3.567 -0.0886  1.7170  2.0180
  449MOL0     H61932   4.412   0.775   3.363 -1.4102 -1.7944 -1.2519
  449MOL0     H61933   4.270   0.882   3.389  3.9522  3.6835  0.5834
  449MOL0     H61934   4.192   0.728   3.564  2.8732  1.6542  2.4193
  449MOL0     H61935   4.199   0.660   3.400 -1.9237  3.5555 -0.8543
  449MOL0     H61936   4.413   0.612   3.623 -0.5487  0.1389  0.2633
  449MOL0     H61937   4.411   0.530   3.470  0.4790  2.7200  0.1297
  449MOL0     H61938   4.185   0.528   3.651 -1.1946  0.0702 -0.1056
  449MOL0     H61939   4.315   0.414   3.681 -0.7304 -2.2901 -0.7483
  449MOL0     H61940   4.154   0.297   3.592  2.2485 -0.1143  1.4228
  449MOL0     H61941   4.233   0.332   3.429  0.0389 -1.5541 -0.1121
  449MOL0     H61942   4.392   1.415   3.633 -1.2228  0.2377  1.2933
  449MOL0     H61943   4.440   1.587   3.784 -1.6203 -2.0331 -0.7266
  449MOL0     H61944   4.536   1.939   4.113  2.4841  0.0617 -0.8368
  449MOL0     H61945   4.502   1.976   4.345 -0.8277  0.2806 -1.0545
  449MOL0     H61946   4.482   2.595   3.880 -2.8367  0.8840  1.1653
  449MOL0     H61947   4.327   2.746   3.756 -1.6414  3.1688  0.4667
  449MOL0     H61948   4.161   3.123   3.676  2.0885  1.2309  0.2508
  449MOL0     H61949   4.011   3.295   3.612  0.5249 -1.4913  2.1957
  449MOL0     H61950   3.951   3.546   3.531 -1.7816  1.3135 -1.2774
  449MOL0     H61951   4.113   3.577   3.467 -0.6019 -0.2012  3.8032
  449MOL0     H61952   3.993   3.616   3.247  2.2793 -0.9521  1.4221
  449MOL0     H61953   3.961   3.749   3.376 -3.1265 -0.7412  2.2766
  449MOL0     H61954   3.765   3.536   3.301  5.4415 -3.4287  2.0042
  449MOL0     H61955   3.770   3.635   3.454  0.9258  0.7044 -0.3931
  449MOL0     H61956   3.763   3.846   3.298 -1.0045  0.1806  0.4500
  449MOL0     H61957   3.619   3.742   3.288 -0.6108  1.4206  0.6997
  449MOL0     H61958   3.894   3.685   2.936 -1.8255  1.1088 -1.6498
  449MOL0     H61959   4.201   3.316   3.233  0.1902 -1.3919 -0.3714
  449MOL0     H61960   4.491   3.125   3.300  0.3621 -2.0701 -1.5805
  449MOL0     H61961   4.369   3.023   3.231  2.1935 -0.2862  0.2423
  449MOL0     H61962   4.395   3.186   3.166 -0.2898  1.8389 -0.0286
  450MOL0     O61963   7.823  11.530   3.201 -0.6752 -0.0583  0.0792
  450MOL0     C61964   7.947  11.556   3.223  0.4371 -0.6422  0.7873
  450MOL0     O61965   8.043  11.453   3.230  0.5277  0.7198  0.4016
  450MOL0     C61966   7.987  11.328   3.252 -0.4340 -0.0610  0.9459
  450MOL0     C61967   7.928  11.254   3.146 -0.6704  0.2817  0.8085
  450MOL0     C61968   7.869  11.131   3.176 -0.5532  0.1818  0.0350
  450MOL0     C61969   7.884  11.076   3.309  0.1057 -0.7956  0.1020
  450MOL0     O61970   7.843  10.946   3.347  0.0618  0.0471  0.7470
  450MOL0     C61971   7.754  10.878   3.259 -0.6594  0.1293 -0.6090
  450MOL0     C61972   7.697  10.752   3.323 -0.3379  0.6159 -0.4503
  450MOL0     C61973   7.598  10.657   3.256  0.3900  0.3711  0.3409
  450MOL0     C61974   7.451  10.694   3.276  0.1672  0.1496  0.3373
  450MOL0     C61975   7.360  10.591   3.197 -0.0624  0.1722 -0.0911
  450MOL0     C61976   7.216  10.639   3.199 -0.3756  0.3184 -0.0924
  450MOL0     C61977   7.164  10.661   3.341  0.3827  0.1972 -0.2029
  450MOL0     C61978   7.006  10.689   3.340 -0.4664  0.9159 -0.1487
  450MOL0     N61979   6.979  10.818   3.284  0.1189 -0.4578 -0.3157
  450MOL0     C61980   7.059  10.924   3.243  0.4184  0.5094 -0.8150
  450MOL0     C61981   6.963  11.019   3.209 -0.8810 -0.3567  0.5232
  450MOL0     C61982   6.990  11.162   3.152  0.2597 -0.5428  0.0831
  450MOL0     C61983   6.965  11.272   3.255 -0.2484 -0.8807  0.7896
  450MOL0     C61984   6.991  11.415   3.206 -0.5431  0.6136  0.8541
  450MOL0     C61985   6.928  11.529   3.284  0.6215  0.1707 -1.0852
  450MOL0     O61986   6.796  11.545   3.240  0.3492  0.0090 -0.7318
  450MOL0     C61987   6.710  11.630   3.299  0.0779 -1.0436  0.7419
  450MOL0     C61988   6.575  11.604   3.290  0.0222 -0.1810 -0.3313
  450MOL0     C61989   6.474  11.698   3.334  0.6537  0.0085  0.0783
  450MOL0     C61990   6.338  11.659   3.288  0.2267 -0.3212  0.8933
  450MOL0     C61991   6.518  11.813   3.402 -0.8663  1.2970  0.1183
  450MOL0     C61992   6.432  11.925   3.444 -0.0113 -0.0963  0.8881
  450MOL0     O61993   6.495  12.030   3.495 -0.0575 -0.1474 -0.4152
  450MOL0     C61994   6.417  12.143   3.524 -0.0836  0.2391 -0.3208
  450MOL0     C61995   6.446  12.219   3.634  0.7987  0.0574 -0.4537
  450MOL0     C61996   6.376  12.335   3.664 -0.5441 -0.1773 -0.3925
  450MOL0     C61997   6.273  12.375   3.573 -0.1936  0.6156 -0.6636
  450MOL0     O61998   6.213  12.490   3.602  0.5017 -0.6340 -0.6226
  450MOL0     C61999   6.078  12.477   3.657  0.6340  0.6545 -1.7996
  450MOL0     C62000   6.083  12.521   3.800 -0.3208  0.2131 -0.7624
  450MOL0     C62001   6.120  12.679   3.819  0.2424 -0.5338 -0.0929
  450MOL0     C62002   6.077  12.741   3.957 -0.1270 -0.0916 -0.5463
  450MOL0     C62003   6.108  12.892   3.972  0.0222 -0.2977 -0.0553
  450MOL0     C62004   6.151  12.930   4.120 -0.2438  0.4153  0.5007
  450MOL0     C62005   6.052  12.881   4.229  0.9386 -0.3770  0.8857
  450MOL0     C62006   5.897  12.918   4.209 -0.5372  0.0201 -0.8116
  450MOL0    Cl62007   5.885  13.078   4.144 -0.3939 -0.0892 -0.5283
  450MOL0     C62008   6.244  12.298   3.463 -0.4211  0.2537  0.1708
  450MOL0     C62009   6.320  12.189   3.437  0.0502  0.5434  0.4273
  450MOL0     O62010   6.310  11.909   3.453 -0.6621 -0.2407 -0.4327
  450MOL0     C62011   6.658  11.828   3.409  0.6208 -0.5752  0.4686
  450MOL0     C62012   6.755  11.739   3.373 -0.9539  0.2905 -0.0260
  450MOL0     N62013   6.837  10.971   3.227  0.4169 -0.1646 -0.1541
  450MOL0     N62014   6.851  10.856   3.285 -0.2895 -0.2454 -0.2667
  450MOL0     C62015   7.935  11.161   3.405 -0.4112  0.7209  0.3492
  450MOL0     C62016   7.987  11.282   3.379 -0.2020 -0.5526  0.6578
  450MOL0     C62017   7.989  11.696   3.218  1.0392  0.5253  0.0161
  450MOL0     C62018   8.111  11.722   3.151 -1.1028 -0.2568 -0.4771
  450MOL0     C62019   8.157  11.855   3.133 -0.7175 -0.0198  0.6018
  450MOL0     C62020   8.083  11.966   3.189  0.2072  0.5601 -0.1055
  450MOL0     O62021   8.144  12.093   3.193  0.0820  0.1717 -0.6082
  450MOL0     C62022   8.087  12.200   3.271  0.8854  0.9876 -0.8055
  450MOL0     C62023   8.195  12.304   3.298  0.4182  0.6679  0.2447
  450MOL0     C62024   8.316  12.250   3.374  0.1273  0.4860  0.1083
  450MOL0     C62025   8.298  12.172   3.505 -0.1918 -0.2633 -0.6722
  450MOL0     C62026   8.426  12.092   3.527 -0.0640 -0.3469 -0.2178
  450MOL0     C62027   8.529  12.026   3.524  0.5241 -0.2105 -0.1062
  450MOL0     C62028   7.957  11.933   3.253 -0.6139 -0.2081 -0.1895
  450MOL0     C62029   7.911  11.808   3.268 -0.1193  0.3329  1.0828
  450MOL0     C62030   7.787  11.799   3.356  0.0461  0.7051 -0.6282
  450MOL0     H62031   7.923  11.294   3.045 -0.3102 -1.2342  0.1712
  450MOL0     H62032   7.812  11.074   3.103  0.5339  0.8640 -1.4019
  450MOL0     H62033   7.819  10.849   3.175 -0.5104  0.9726 -0.7889
  450MOL0     H62034   7.675  10.943   3.222 -0.0824  0.7828 -0.7064
  450MOL0     H62035   7.782  10.690   3.350 -0.8265 -0.5438 -1.5067
  450MOL0     H62036   7.639  10.785   3.410 -0.8287 -0.0753 -0.5062
  450MOL0     H62037   7.604  10.671   3.148 -0.0926  1.7861  0.4750
  450MOL0     H62038   7.616  10.551   3.279  0.9526  0.1361 -1.0893
  450MOL0     H62039   7.423  10.707   3.381 -2.5808 -4.4075  0.4354
  450MOL0     H62040   7.427  10.788   3.226 -1.5979  0.2857  1.3471
  450MOL0     H62041   7.349  10.490   3.238 -1.4028  0.7815  1.1459
  450MOL0     H62042   7.391  10.573   3.094 -0.7852  0.9372 -0.4565
  450MOL0     H62043   7.215  10.731   3.140 -0.4940  0.6449  0.4142
  450MOL0     H62044   7.152  10.565   3.151 -1.9603  1.2807  0.4633
  450MOL0     H62045   7.205  10.739   3.407 -0.0563 -0.3481  0.7287
  450MOL0     H62046   7.191  10.570   3.395  0.8694 -0.5942 -1.7206
  450MOL0     H62047   6.962  10.614   3.274  2.4476  0.7413 -2.0910
  450MOL0     H62048   6.957  10.681   3.438 -0.6585 -1.1898 -0.3578
  450MOL0     H62049   7.166  10.941   3.251  0.5402 -0.0726 -1.1492
  450MOL0     H62050   6.927  11.178   3.064  0.6205 -1.7890 -0.4206
  450MOL0     H62051   7.094  11.163   3.120 -0.4367  1.1769 -2.4581
  450MOL0     H62052   6.858  11.266   3.278 -0.7592 -0.6146 -1.3184
  450MOL0     H62053   7.029  11.251   3.341  2.3547  2.3531 -0.1299
  450MOL0     H62054   7.099  11.429   3.218 -0.3609  0.7493 -0.7442
  450MOL0     H62055   6.963  11.430   3.101  4.4230  1.7999 -0.5967
  450MOL0     H62056   6.939  11.493   3.387  1.5074 -1.6520 -1.7647
  450MOL0     H62057   6.985  11.621   3.267  0.4310  0.0658 -2.3839
  450MOL0     H62058   6.537  11.524   3.226 -0.9039  0.2573 -0.3546
  450MOL0     H62059   6.328  11.562   3.237  0.5127 -0.4008  0.9854
  450MOL0     H62060   6.289  11.734   3.226 -0.1358 -0.5439  0.9068
  450MOL0     H62061   6.278  11.654   3.380  0.9972 -1.4294  1.3631
  450MOL0     H62062   6.509  12.183   3.714  0.4945  0.1550 -0.1679
  450MOL0     H62063   6.392  12.394   3.754 -0.6129 -0.4197 -0.2212
  450MOL0     H62064   6.003  12.540   3.608 -0.2855  1.9000  1.0154
  450MOL0     H62065   6.042  12.374   3.645  2.0566 -0.0093 -0.6996
  450MOL0     H62066   5.987  12.510   3.852 -0.5006 -0.0380 -1.1402
  450MOL0     H62067   6.152  12.450   3.847 -1.2602 -0.8990 -1.0101
  450MOL0     H62068   6.075  12.735   3.737 -0.7866 -0.5857  0.4130
  450MOL0     H62069   6.228  12.692   3.811  0.2791  0.1136  1.2151
  450MOL0     H62070   6.151  12.696   4.023  4.1425 -1.4193 -5.6192
  450MOL0     H62071   5.971  12.720   3.975 -0.3049  0.5418 -0.8078
  450MOL0     H62072   6.198  12.927   3.922  1.0553  0.6622  2.2956
  450MOL0     H62073   6.021  12.950   3.939 -0.0804 -1.4712 -1.9782
  450MOL0     H62074   6.170  13.036   4.136 -5.0882  1.1497  3.5033
  450MOL0     H62075   6.246  12.876   4.120 -0.0982  0.6718  1.2713
  450MOL0     H62076   6.071  12.920   4.329  1.2066  1.2202  0.2376
  450MOL0     H62077   6.069  12.773   4.236  1.0896 -0.3449  1.0184
  450MOL0     H62078   5.852  12.910   4.308 -0.8683 -1.7254 -1.0764
  450MOL0     H62079   5.841  12.848   4.146 -5.2783  2.3108  0.3455
  450MOL0     H62080   6.165  12.338   3.399  1.4489  1.0616 -1.7523
  450MOL0     H62081   6.294  12.131   3.349 -1.4453  1.2251  0.3737
  450MOL0     H62082   6.688  11.930   3.430  1.4058 -0.7940  0.4597
  450MOL0     H62083   6.860  11.765   3.371 -0.8829  0.0260  0.1588
  450MOL0     H62084   7.953  11.119   3.504  1.7791  1.1966  0.1913
  450MOL0     H62085   8.025  11.334   3.467  1.3004 -0.3021 -0.1024
  450MOL0     H62086   8.173  11.636   3.128 -1.7528 -1.2022  1.1325
  450MOL0     H62087   8.252  11.869   3.083 -3.1174  0.4507 -4.5077
  450MOL0     H62088   8.001  12.244   3.220  0.4860 -0.4909 -1.4684
  450MOL0     H62089   8.052  12.160   3.367 -1.5294  1.9162 -1.2188
  450MOL0     H62090   8.151  12.391   3.347  0.7203  1.9095 -1.5787
  450MOL0     H62091   8.233  12.339   3.201  1.6710  1.0639  0.8561
  450MOL0     H62092   8.370  12.188   3.302 -0.1565 -0.9781  1.1281
  450MOL0     H62093   8.380  12.335   3.399 -1.6016  2.4055 -1.5526
  450MOL0     H62094   8.209  12.109   3.503 -1.7611  1.5877  2.6024
  450MOL0     H62095   8.285  12.241   3.589 -4.2950 -0.0083 -1.3033
  450MOL0     H62096   8.617  11.966   3.524  1.2468  0.7641 -2.0985
  450MOL0     H62097   7.892  12.014   3.283 -1.3176 -0.9707  0.3716
  450MOL0     H62098   7.697  11.820   3.297 -0.8967 -1.0656  0.1135
  450MOL0     H62099   7.770  11.702   3.402  0.8468  0.3926 -0.9637
  450MOL0     H62100   7.805  11.868   3.439 -0.9847  1.6619 -1.1740
  451MOL0     O62101   4.919   3.486   9.173  0.6536 -0.1778  0.0507
  451MOL0     C62102   4.823   3.432   9.111  0.7931 -0.3132 -0.0850
  451MOL0     O62103   4.767   3.308   9.144  0.4797  0.1106 -0.6319
  451MOL0     C62104   4.811   3.244   9.259  0.7467 -0.0049  0.1812
  451MOL0     C62105   4.915   3.157   9.249  0.1032 -0.0660 -0.3287
  451MOL0     C62106   4.965   3.087   9.363 -0.0236  1.0031  0.7013
  451MOL0     C62107   4.913   3.109   9.485  0.1842 -0.3430 -0.2886
  451MOL0     O62108   4.962   3.050   9.596 -0.2379 -0.6755 -0.2326
  451MOL0     C62109   5.099   2.999   9.603 -0.0660 -0.3923 -0.6013
  451MOL0     C62110   5.102   2.847   9.574  0.5138  0.7970 -0.9170
  451MOL0     C62111   5.247   2.782   9.577  0.6736 -0.6555  0.0144
  451MOL0     C62112   5.241   2.631   9.578  0.2713 -1.3370 -0.6624
  451MOL0     C62113   5.227   2.582   9.431 -0.0446 -0.2908  0.9182
  451MOL0     C62114   5.270   2.439   9.415  0.0023 -0.1244  0.4305
  451MOL0     C62115   5.224   2.373   9.286  0.2608 -0.5384  0.0499
  451MOL0     C62116   5.339   2.341   9.195 -0.8564 -0.0716  0.3366
  451MOL0     N62117   5.421   2.231   9.256  0.0820 -0.1743  0.5961
  451MOL0     C62118   5.390   2.102   9.230 -0.3542  0.4343  0.0880
  451MOL0     C62119   5.486   2.026   9.285 -0.3422  0.8631  0.0163
  451MOL0     C62120   5.473   1.877   9.283  0.5896 -0.0028 -0.4260
  451MOL0     C62121   5.602   1.794   9.263  0.0123  0.4448 -0.1878
  451MOL0     C62122   5.657   1.802   9.125  0.2781 -0.1518 -0.1841
  451MOL0     C62123   5.696   1.942   9.067  0.9363 -0.1464 -0.5260
  451MOL0     O62124   5.591   2.010   8.998  0.5596  0.2500  0.0256
  451MOL0     C62125   5.627   2.137   8.953  0.5856 -1.1243 -1.5374
  451MOL0     C62126   5.576   2.180   8.828 -0.2431 -0.3819 -0.2291
  451MOL0     C62127   5.606   2.307   8.781  1.0651 -0.8107 -0.7401
  451MOL0     C62128   5.601   2.330   8.637 -0.0887 -0.7076  0.3692
  451MOL0     C62129   5.658   2.406   8.870  0.7845  0.2287  1.6179
  451MOL0     C62130   5.693   2.543   8.830  0.5492 -0.5824  1.4660
  451MOL0     O62131   5.833   2.583   8.827 -0.1509 -0.4431  0.2003
  451MOL0     C62132   5.862   2.694   8.752 -0.7701 -0.4319 -1.1129
  451MOL0     C62133   5.806   2.720   8.629  0.7477 -0.1421  0.4309
  451MOL0     C62134   5.827   2.847   8.570 -0.1393 -0.0284  1.0191
  451MOL0     C62135   5.891   2.953   8.636 -0.5173  0.3633 -0.4763
  451MOL0     O62136   5.894   3.077   8.580 -0.3332  0.5330 -0.5462
  451MOL0     C62137   5.928   3.192   8.653  0.3740 -0.3342 -0.4038
  451MOL0     C62138   5.823   3.253   8.751  0.2323 -0.4718  1.0870
  451MOL0     C62139   5.683   3.290   8.703 -0.5983  0.3902  0.1246
  451MOL0     C62140   5.604   3.402   8.776  0.0707  0.4907  0.8754
  451MOL0     C62141   5.509   3.346   8.884  0.1454 -0.4503  0.0935
  451MOL0     C62142   5.430   3.456   8.944  0.3334 -0.4319  0.3935
  451MOL0     C62143   5.377   3.416   9.091  1.0162 -0.0450 -0.1196
  451MOL0     C62144   5.294   3.531   9.166  0.7442 -0.9184 -0.4115
  451MOL0    Cl62145   5.421   3.643   9.216 -0.0078 -0.1830  0.0637
  451MOL0     C62146   5.944   2.920   8.763  0.9134  0.4941 -0.6180
  451MOL0     C62147   5.937   2.790   8.825 -0.3577  0.1946 -0.4037
  451MOL0     O62148   5.596   2.625   8.803 -1.3560  0.4915 -1.0096
  451MOL0     C62149   5.687   2.360   8.996  0.3107  0.8161 -0.1920
  451MOL0     C62150   5.678   2.225   9.034 -0.4209 -0.7830 -0.5369
  451MOL0     N62151   5.576   2.110   9.347 -0.2790  0.3064 -0.4645
  451MOL0     N62152   5.538   2.233   9.330  0.0609  0.3661  0.1063
  451MOL0     C62153   4.810   3.210   9.509  0.8254  1.3777  0.5428
  451MOL0     C62154   4.758   3.271   9.394  0.1595 -0.8608  0.7641
  451MOL0     C62155   4.778   3.503   8.993  1.0556  0.7760 -0.0430
  451MOL0     C62156   4.642   3.477   8.960 -0.0353 -0.0498  0.5160
  451MOL0     C62157   4.583   3.553   8.860  0.2793 -0.2581 -0.4323
  451MOL0     C62158   4.644   3.662   8.799  0.4100  0.0106  0.2490
  451MOL0     O62159   4.593   3.750   8.708  0.2329  0.0436 -0.2536
  451MOL0     C62160   4.455   3.726   8.660 -0.8032 -0.1267  0.9672
  451MOL0     C62161   4.430   3.843   8.560 -0.5986  0.6578 -0.2197
  451MOL0     C62162   4.523   3.839   8.433  0.9999  0.2809  0.0736
  451MOL0     C62163   4.536   3.985   8.385  0.6117  0.1234  0.3749
  451MOL0     C62164   4.615   3.996   8.258 -0.4601 -0.5047  0.3886
  451MOL0     C62165   4.693   4.029   8.166  0.4880  0.0229  0.1285
  451MOL0     C62166   4.780   3.681   8.830  0.0175 -1.3152 -0.2477
  451MOL0     C62167   4.849   3.603   8.924 -0.5850  0.5833 -0.2202
  451MOL0     C62168   4.999   3.636   8.937  0.0966  0.9111  0.0304
  451MOL0     H62169   4.962   3.134   9.154 -2.8513 -2.8255 -1.3073
  451MOL0     H62170   5.033   3.004   9.345 -3.5289 -1.8853 -0.4822
  451MOL0     H62171   5.149   3.002   9.699 -2.6976 -2.2052  0.9658
  451MOL0     H62172   5.152   3.052   9.523  0.4773  0.1883  0.1370
  451MOL0     H62173   5.045   2.802   9.656  0.3590  1.3095 -0.7339
  451MOL0     H62174   5.054   2.827   9.478 -2.7044  0.8911  0.5279
  451MOL0     H62175   5.312   2.818   9.497  0.4361 -1.2664 -0.4601
  451MOL0     H62176   5.293   2.824   9.667 -0.9427  2.3870 -0.4462
  451MOL0     H62177   5.324   2.593   9.637  1.1229 -0.9064 -1.5536
  451MOL0     H62178   5.156   2.589   9.633 -0.7223  0.8815 -0.3812
  451MOL0     H62179   5.294   2.644   9.370 -0.0158  0.2153  1.4500
  451MOL0     H62180   5.126   2.592   9.391  0.2498  1.9148  0.5792
  451MOL0     H62181   5.378   2.433   9.429 -0.1290 -2.9131  0.7911
  451MOL0     H62182   5.221   2.395   9.502  2.0124 -0.2081  1.5809
  451MOL0     H62183   5.152   2.431   9.228 -0.6027  0.7755  2.3266
  451MOL0     H62184   5.176   2.277   9.304  2.2874 -1.7171 -0.5471
  451MOL0     H62185   5.314   2.309   9.093  2.5023 -0.5008 -0.4502
  451MOL0     H62186   5.399   2.431   9.175  0.5310 -0.8683  0.7950
  451MOL0     H62187   5.308   2.074   9.165  0.0373  1.9245 -1.1071
  451MOL0     H62188   5.393   1.837   9.219  0.5700  1.8055 -1.5844
  451MOL0     H62189   5.419   1.843   9.373 -2.1162 -1.0556 -2.3026
  451MOL0     H62190   5.687   1.814   9.330 -1.3580  3.9127  0.7460
  451MOL0     H62191   5.576   1.688   9.270  1.2715 -0.0883 -2.3787
  451MOL0     H62192   5.756   1.758   9.112  0.2758 -0.1586 -0.1800
  451MOL0     H62193   5.599   1.744   9.053  0.5928  0.1382 -0.6807
  451MOL0     H62194   5.732   2.003   9.150  0.6456 -2.5094  1.4776
  451MOL0     H62195   5.783   1.933   9.002  4.0109  1.9716  2.8904
  451MOL0     H62196   5.511   2.110   8.779 -1.0851 -1.6366  2.4769
  451MOL0     H62197   5.582   2.432   8.604  2.1275  0.4043  2.2082
  451MOL0     H62198   5.519   2.272   8.595  1.9328 -1.0924 -3.4897
  451MOL0     H62199   5.692   2.289   8.591 -0.0439  1.5034 -1.6776
  451MOL0     H62200   5.739   2.645   8.588 -0.4058  2.3488 -2.6401
  451MOL0     H62201   5.768   2.863   8.480  0.9796  1.2056  0.4778
  451MOL0     H62202   6.010   3.176   8.724 -0.8832  2.5086  1.8974
  451MOL0     H62203   5.960   3.269   8.582  4.6589  0.8853  2.4194
  451MOL0     H62204   5.809   3.181   8.833 -0.4384 -0.4665  0.9815
  451MOL0     H62205   5.873   3.338   8.797 -0.4323 -0.7187  2.3105
  451MOL0     H62206   5.625   3.197   8.706 -1.3535  0.8119 -0.8423
  451MOL0     H62207   5.696   3.319   8.598 -0.6235 -0.9203 -0.2557
  451MOL0     H62208   5.548   3.458   8.701  0.0423 -0.2730  0.3098
  451MOL0     H62209   5.668   3.479   8.819  1.3810  0.2796 -0.5745
  451MOL0     H62210   5.440   3.274   8.838 -1.5465  1.7223 -0.9626
  451MOL0     H62211   5.558   3.296   8.969 -0.0837 -1.1510 -0.1768
  451MOL0     H62212   5.348   3.492   8.882  0.4578  0.6484  0.8310
  451MOL0     H62213   5.494   3.541   8.968 -2.6686  2.1820 -0.2126
  451MOL0     H62214   5.468   3.408   9.151  1.4604  3.2106 -0.1687
  451MOL0     H62215   5.329   3.319   9.106  0.4378  0.5705  2.5893
  451MOL0     H62216   5.240   3.502   9.256 -2.7504  1.4376 -1.5498
  451MOL0     H62217   5.233   3.574   9.086 -0.6716 -3.4179 -0.7682
  451MOL0     H62218   6.003   2.999   8.807 -2.4749  2.0416  1.5893
  451MOL0     H62219   5.991   2.768   8.916 -0.8839 -1.2732 -0.4218
  451MOL0     H62220   5.724   2.428   9.071 -0.8232  0.3561  0.8175
  451MOL0     H62221   5.714   2.203   9.135  0.2464  0.5967 -0.4581
  451MOL0     H62222   4.770   3.228   9.608  0.6678  2.5198  0.2867
  451MOL0     H62223   4.675   3.340   9.403  0.7819  0.3978 -2.2600
  451MOL0     H62224   4.579   3.410   9.018  0.8060  1.6130  3.5375
  451MOL0     H62225   4.484   3.526   8.824  0.0556  1.6546 -1.3995
  451MOL0     H62226   4.451   3.629   8.609 -0.6460  1.6280 -2.7418
  451MOL0     H62227   4.388   3.735   8.745 -1.9930  1.8050 -0.0934
  451MOL0     H62228   4.455   3.934   8.617 -1.5843  2.4209 -2.4333
  451MOL0     H62229   4.333   3.841   8.509  0.1583 -3.6889 -1.9558
  451MOL0     H62230   4.621   3.814   8.475  0.2799 -2.5875  0.2522
  451MOL0     H62231   4.486   3.784   8.346  3.9911  0.1340 -1.2453
  451MOL0     H62232   4.582   4.036   8.471 -3.1281  1.5977  1.6735
  451MOL0     H62233   4.431   4.006   8.367  0.4942 -1.1328 -0.5708
  451MOL0     H62234   4.761   4.057   8.088  0.7201  0.7252  0.5716
  451MOL0     H62235   4.826   3.766   8.782 -2.0481  1.1288  1.7608
  451MOL0     H62236   5.032   3.710   8.864 -3.7009  2.9810  0.1308
  451MOL0     H62237   5.004   3.680   9.037  1.5084 -0.7394  0.7308
  451MOL0     H62238   5.063   3.548   8.929 -1.8599 -1.1464  3.9498
  452MOL0     O62239   4.993   0.833   7.130 -0.4257  0.0571  0.0403
  452MOL0     C62240   5.109   0.835   7.178  1.1481  0.0294 -0.2095
  452MOL0     O62241   5.220   0.900   7.123 -0.4433  0.3232  0.6158
  452MOL0     C62242   5.193   0.986   7.019  0.6357  0.0917 -1.2124
  452MOL0     C62243   5.162   1.119   7.048  0.2274  0.3784 -0.1951
  452MOL0     C62244   5.122   1.214   6.950 -0.1351  0.4925  0.2294
  452MOL0     C62245   5.109   1.156   6.815  0.2195  0.4663 -0.4534
  452MOL0     O62246   5.065   1.231   6.711  0.9348 -0.0370 -0.4911
  452MOL0     C62247   5.149   1.340   6.673 -0.5533 -0.3288 -0.0390
  452MOL0     C62248   5.271   1.287   6.586  1.0900 -0.5311  0.1347
  452MOL0     C62249   5.403   1.287   6.658 -0.2693 -0.7663 -0.0370
  452MOL0     C62250   5.508   1.200   6.588 -0.2650 -0.1968  0.0271
  452MOL0     C62251   5.644   1.264   6.596 -0.3735 -0.1666  0.0526
  452MOL0     C62252   5.702   1.294   6.744  0.4516 -0.1785  0.7835
  452MOL0     C62253   5.852   1.329   6.747  0.1886 -0.3195  0.9366
  452MOL0     C62254   5.889   1.364   6.885 -0.4705 -0.3986 -0.0595
  452MOL0     N62255   6.037   1.363   6.897  0.0440 -0.9719  0.0612
  452MOL0     C62256   6.119   1.264   6.928  0.1417  0.2967 -1.1451
  452MOL0     C62257   6.244   1.311   6.926  0.1900  0.0967  0.1233
  452MOL0     C62258   6.382   1.242   6.947 -0.3374  0.2464 -0.8060
  452MOL0     C62259   6.371   1.111   7.024  0.2366 -0.4037 -0.6882
  452MOL0     C62260   6.507   1.051   7.064 -0.6537 -0.0070 -0.3671
  452MOL0     C62261   6.507   0.942   7.164  0.0119  0.0010 -1.0462
  452MOL0     O62262   6.429   0.830   7.135  0.0408  0.5148 -0.0734
  452MOL0     C62263   6.443   0.720   7.219  0.2763  0.1343  0.6915
  452MOL0     C62264   6.348   0.612   7.206  0.1555  0.0093 -0.0180
  452MOL0     C62265   6.337   0.505   7.294 -0.0002  0.6624  0.1951
  452MOL0     C62266   6.216   0.421   7.265 -0.0339 -0.1232  0.6569
  452MOL0     C62267   6.424   0.492   7.406  0.0620  0.3256  0.1551
  452MOL0     C62268   6.422   0.375   7.500 -0.4392 -0.5073  1.1507
  452MOL0     O62269   6.542   0.330   7.560 -0.5960  0.2984 -0.3089
  452MOL0     C62270   6.537   0.223   7.649  0.8760 -0.6250  0.3999
  452MOL0     C62271   6.473   0.251   7.772 -0.3002  0.4601  0.2106
  452MOL0     C62272   6.466   0.138   7.861  0.0522  0.1114  0.1317
  452MOL0     C62273   6.490   0.001   7.813 -0.1603 -0.1236  0.1148
  452MOL0     O62274   6.457  -0.107   7.891 -0.1245  0.2660  0.2219
  452MOL0     C62275   6.368  -0.090   8.002  0.2388  1.1435  0.1217
  452MOL0     C62276   6.359  -0.226   8.072  0.5727  0.2133  0.5800
  452MOL0     C62277   6.274  -0.202   8.194 -0.4821 -0.7303 -0.0613
  452MOL0     C62278   6.294  -0.344   8.275  0.4752 -0.5395  0.2494
  452MOL0     C62279   6.198  -0.445   8.236 -0.1819 -1.0030  0.3963
  452MOL0     C62280   6.217  -0.572   8.323 -0.3170  0.3041  0.2177
  452MOL0     C62281   6.133  -0.692   8.262  0.0248  0.8571 -0.0863
  452MOL0     C62282   6.121  -0.800   8.366  0.5090  1.0066 -1.2287
  452MOL0    Cl62283   6.021  -0.924   8.299 -0.1772  0.2188 -0.0168
  452MOL0     C62284   6.549  -0.014   7.692  1.5602  0.2845  0.3624
  452MOL0     C62285   6.571   0.093   7.608 -0.0680 -0.1223  0.2310
  452MOL0     O62286   6.312   0.335   7.528 -0.1020 -0.0781 -0.2092
  452MOL0     C62287   6.524   0.590   7.418 -0.6762 -0.2831  0.7465
  452MOL0     C62288   6.535   0.704   7.333 -0.3445 -0.8315 -0.9911
  452MOL0     N62289   6.242   1.445   6.879  0.5502 -0.4718  0.0203
  452MOL0     N62290   6.108   1.477   6.866 -0.5521  0.0080 -0.1081
  452MOL0     C62291   5.134   1.021   6.786 -0.4055  0.4883 -0.1952
  452MOL0     C62292   5.180   0.937   6.891 -0.0844  0.4870  0.0218
  452MOL0     C62293   5.136   0.734   7.279 -0.2655 -0.7149 -0.1059
  452MOL0     C62294   5.261   0.686   7.288  0.1890  0.4740  0.5386
  452MOL0     C62295   5.295   0.582   7.370  0.0560 -0.3112  0.2391
  452MOL0     C62296   5.202   0.514   7.449 -1.0525  0.1454  0.2076
  452MOL0     O62297   5.255   0.413   7.517  0.4207  0.1443 -0.4607
  452MOL0     C62298   5.183   0.371   7.634 -0.1686  0.1182  0.1874
  452MOL0     C62299   5.273   0.290   7.729  0.7077  0.2921 -0.9449
  452MOL0     C62300   5.402   0.351   7.785  0.6628 -0.2901  0.5799
  452MOL0     C62301   5.464   0.279   7.912  0.1062 -0.1546  0.2881
  452MOL0     C62302   5.452   0.131   7.898 -0.9617  0.2378 -0.1971
  452MOL0     C62303   5.443   0.013   7.890 -0.5278  0.3138  0.4748
  452MOL0     C62304   5.073   0.549   7.436  0.7973  0.3688  0.6678
  452MOL0     C62305   5.039   0.670   7.363 -0.6806 -1.0286  0.3118
  452MOL0     C62306   4.896   0.712   7.387  1.4481  0.1352  0.5621
  452MOL0     H62307   5.168   1.138   7.154  0.0619  0.1673 -0.1488
  452MOL0     H62308   5.101   1.317   6.974 -3.9227  0.4805 -2.2184
  452MOL0     H62309   5.175   1.403   6.759 -1.5298 -1.1957  0.9241
  452MOL0     H62310   5.092   1.397   6.600  1.1125  2.0449  0.3847
  452MOL0     H62311   5.247   1.185   6.556  1.3587 -1.6274  3.2435
  452MOL0     H62312   5.289   1.358   6.505  2.4867 -0.4151  0.5232
  452MOL0     H62313   5.443   1.389   6.649 -0.0914 -1.0003 -2.5310
  452MOL0     H62314   5.404   1.267   6.765  2.1150  2.1059  0.6120
  452MOL0     H62315   5.519   1.096   6.623  0.1097 -0.8185 -1.8225
  452MOL0     H62316   5.480   1.180   6.484 -0.5086 -2.8296  0.5284
  452MOL0     H62317   5.652   1.360   6.544  0.7403  0.8579  1.9995
  452MOL0     H62318   5.701   1.183   6.549 -1.6440 -1.1837  0.2101
  452MOL0     H62319   5.645   1.377   6.787 -1.1972 -1.4607  1.2032
  452MOL0     H62320   5.692   1.204   6.806  0.6147 -1.8378 -1.4567
  452MOL0     H62321   5.864   1.411   6.675  0.6134  1.0813  2.5405
  452MOL0     H62322   5.905   1.243   6.707 -1.2428 -0.2017 -1.4502
  452MOL0     H62323   5.852   1.464   6.912 -0.9302 -0.1050 -1.6861
  452MOL0     H62324   5.852   1.285   6.951 -0.2230  0.1012  0.7065
  452MOL0     H62325   6.104   1.161   6.958  0.0814  0.1514 -1.6585
  452MOL0     H62326   6.457   1.307   6.991  1.3708 -1.8570 -0.4760
  452MOL0     H62327   6.426   1.207   6.853  1.3523  1.9250 -0.6758
  452MOL0     H62328   6.316   1.133   7.115  1.2236 -3.6978  0.8479
  452MOL0     H62329   6.322   1.031   6.967 -0.9191 -1.2819  1.4496
  452MOL0     H62330   6.556   1.025   6.970  0.6089  2.2281 -0.3915
  452MOL0     H62331   6.564   1.135   7.105 -0.4708  0.4779 -1.5925
  452MOL0     H62332   6.612   0.916   7.179 -0.5010 -2.2221 -0.9682
  452MOL0     H62333   6.461   0.992   7.250 -3.3263  0.2058 -2.7580
  452MOL0     H62334   6.286   0.617   7.118 -0.3047 -1.6081  0.1904
  452MOL0     H62335   6.152   0.456   7.183  0.7546 -0.4001 -0.0879
  452MOL0     H62336   6.155   0.423   7.356 -1.3713  1.5175 -0.1972
  452MOL0     H62337   6.238   0.317   7.241  4.3234  0.2987  2.0569
  452MOL0     H62338   6.437   0.350   7.797  1.6196  1.2947 -0.1216
  452MOL0     H62339   6.422   0.143   7.960  0.6155  2.1918  0.3262
  452MOL0     H62340   6.415  -0.028   8.079  0.9023  1.4485 -0.5157
  452MOL0     H62341   6.269  -0.060   7.966  0.0522 -1.8537 -2.2296
  452MOL0     H62342   6.316  -0.306   8.011 -0.8195 -1.2180  3.2529
  452MOL0     H62343   6.459  -0.267   8.088  0.6737 -1.2583 -2.9322
  452MOL0     H62344   6.168  -0.181   8.181  0.0228  0.6473 -2.4598
  452MOL0     H62345   6.316  -0.123   8.255 -1.2093  0.2571 -0.8086
  452MOL0     H62346   6.266  -0.322   8.378  2.6451  0.4439  0.6953
  452MOL0     H62347   6.395  -0.387   8.276  0.2615 -1.0255  0.9225
  452MOL0     H62348   6.094  -0.411   8.235  0.5257  1.3091  0.1245
  452MOL0     H62349   6.232  -0.475   8.137 -0.8172  0.4082 -0.2834
  452MOL0     H62350   6.199  -0.559   8.430  1.2199 -0.3962  0.5920
  452MOL0     H62351   6.325  -0.588   8.330 -0.1025  2.1293  1.9548
  452MOL0     H62352   6.188  -0.726   8.174 -0.1227 -0.3703  0.2777
  452MOL0     H62353   6.034  -0.662   8.227 -1.0234 -1.7069  0.4899
  452MOL0     H62354   6.071  -0.772   8.459  1.0688 -1.5679 -0.0495
  452MOL0     H62355   6.219  -0.840   8.394  0.9193  1.8280 -1.4478
  452MOL0     H62356   6.577  -0.117   7.670 -0.0894  0.0505 -0.7739
  452MOL0     H62357   6.636   0.083   7.521 -0.5263  1.0905 -0.2668
  452MOL0     H62358   6.600   0.583   7.495  1.7535  0.0726 -1.5113
  452MOL0     H62359   6.617   0.771   7.357 -2.3686  2.1751 -1.9480
  452MOL0     H62360   5.117   0.980   6.687  0.2254 -0.4171  0.0570
  452MOL0     H62361   5.221   0.837   6.876 -0.7181  0.0144  1.2656
  452MOL0     H62362   5.342   0.743   7.245  0.5664  1.4459  2.4390
  452MOL0     H62363   5.398   0.548   7.374 -0.0052 -0.4209  1.2953
  452MOL0     H62364   5.136   0.451   7.691 -3.2263 -1.0642 -0.4501
  452MOL0     H62365   5.103   0.299   7.610  2.5342 -3.4168  0.9830
  452MOL0     H62366   5.299   0.199   7.673 -4.1580 -0.8126 -1.9073
  452MOL0     H62367   5.218   0.246   7.812 -1.8351 -0.0663 -2.7148
  452MOL0     H62368   5.465   0.340   7.697 -0.7835 -0.7848 -0.4268
  452MOL0     H62369   5.386   0.457   7.807 -0.8654  0.3354 -2.9057
  452MOL0     H62370   5.414   0.316   8.001  0.7057  2.2960 -0.3097
  452MOL0     H62371   5.570   0.302   7.896  0.2326 -2.1391 -2.4253
  452MOL0     H62372   5.437  -0.094   7.888 -4.7969  0.3819 -2.4307
  452MOL0     H62373   4.992   0.490   7.478 -0.4896 -1.5813 -3.9927
  452MOL0     H62374   4.852   0.655   7.469  1.1376  1.2996  1.2205
  452MOL0     H62375   4.882   0.819   7.403 -4.1402 -0.2455  0.1041
  452MOL0     H62376   4.831   0.704   7.300  2.0686  0.8389  0.0139
  453MOL0     O62377   2.851   1.621   9.300  0.0674  1.2511 -0.3996
  453MOL0     C62378   2.941   1.669   9.229 -0.1929 -0.0648 -0.0034
  453MOL0     O62379   2.923   1.746   9.128 -0.3308  0.4094  0.4112
  453MOL0     C62380   2.807   1.804   9.080  0.1495  0.6773 -0.7577
  453MOL0     C62381   2.801   1.832   8.942  0.4337  0.2166 -0.5940
  453MOL0     C62382   2.683   1.875   8.893  1.3771 -0.1407 -0.2450
  453MOL0     C62383   2.563   1.893   8.971  0.3615 -0.4677  1.0236
  453MOL0     O62384   2.449   1.924   8.900 -0.6762  0.4269  0.5313
  453MOL0     C62385   2.461   2.048   8.821 -0.0498  0.1972  0.3767
  453MOL0     C62386   2.327   2.086   8.747  0.2867 -0.3833  0.4753
  453MOL0     C62387   2.335   2.195   8.641  0.2217 -0.4453  0.0616
  453MOL0     C62388   2.354   2.337   8.679  0.0538  0.1541  0.3922
  453MOL0     C62389   2.358   2.430   8.553 -0.4538  0.0233  0.6748
  453MOL0     C62390   2.235   2.440   8.457 -0.1827  0.3803  0.4404
  453MOL0     C62391   2.237   2.560   8.365  0.6587  1.1608  0.3720
  453MOL0     C62392   2.111   2.556   8.270 -0.5529 -0.5622  0.4033
  453MOL0     N62393   1.986   2.579   8.340 -1.0153  0.5457  0.4032
  453MOL0     C62394   1.886   2.492   8.361  0.3233 -0.4089  0.4428
  453MOL0     C62395   1.794   2.573   8.413  0.2533 -0.6218 -0.5221
  453MOL0     C62396   1.655   2.543   8.472 -0.1883  0.1231  0.1074
  453MOL0     C62397   1.533   2.615   8.395 -0.2612 -0.2526 -0.2238
  453MOL0     C62398   1.533   2.770   8.432  0.0168  0.1031 -0.0811
  453MOL0     C62399   1.398   2.831   8.444  0.1052  0.4521 -0.1459
  453MOL0     O62400   1.338   2.845   8.313 -0.3429 -0.2963 -0.1124
  453MOL0     C62401   1.356   2.966   8.246  0.0967  0.1800  0.2036
  453MOL0     C62402   1.474   3.053   8.250  0.8681  0.1219  0.5996
  453MOL0     C62403   1.481   3.163   8.163  0.0153 -0.0113 -0.3563
  453MOL0     C62404   1.596   3.259   8.173  0.1759  0.3060  0.4291
  453MOL0     C62405   1.381   3.187   8.069 -0.5375 -0.3983  0.8275
  453MOL0     C62406   1.388   3.294   7.972  0.2540  0.3655  0.7994
  453MOL0     O62407   1.260   3.336   7.937 -0.1218 -0.5245  0.4044
  453MOL0     C62408   1.246   3.445   7.863  0.4393  0.6375 -0.1961
  453MOL0     C62409   1.286   3.570   7.893 -0.8431 -0.8624  0.3034
  453MOL0     C62410   1.302   3.667   7.798 -0.1378 -0.3371 -0.1796
  453MOL0     C62411   1.244   3.654   7.666 -0.7061 -0.4666  0.5304
  453MOL0     O62412   1.271   3.755   7.579  0.2255 -0.6581  0.6798
  453MOL0     C62413   1.214   3.734   7.440 -0.1556  0.8345 -0.8140
  453MOL0     C62414   1.224   3.862   7.348 -0.1586  0.1369 -0.1205
  453MOL0     C62415   1.099   3.940   7.360 -1.3374  0.7046  0.3881
  453MOL0     C62416   1.012   3.924   7.238  0.1559  0.4239  0.1035
  453MOL0     C62417   0.898   4.028   7.237  0.3143  0.5193 -1.2277
  453MOL0     C62418   0.790   3.996   7.141  0.4565  0.2455 -0.7499
  453MOL0     C62419   0.717   3.855   7.165 -1.7097 -0.1855  0.0726
  453MOL0     C62420   0.587   3.833   7.085 -0.2450 -1.0688  0.3597
  453MOL0    Cl62421   0.467   3.963   7.128 -0.8173 -0.3096 -0.2364
  453MOL0     C62422   1.176   3.530   7.649 -0.1798  0.8808 -0.0012
  453MOL0     C62423   1.187   3.428   7.739  0.2334  0.3657  0.2131
  453MOL0     O62424   1.497   3.333   7.931 -0.6764 -0.0389  0.3875
  453MOL0     C62425   1.266   3.095   8.065  0.0445 -1.0199  0.9490
  453MOL0     C62426   1.261   2.987   8.153 -0.2584 -0.7167  0.0139
  453MOL0     N62427   1.846   2.706   8.427  0.1702  0.1305  0.9366
  453MOL0     N62428   1.959   2.708   8.370 -0.5527  0.5169  0.4522
  453MOL0     C62429   2.570   1.886   9.113  1.0007 -0.8045  0.6424
  453MOL0     C62430   2.699   1.836   9.163  0.1488  0.6624 -0.0463
  453MOL0     C62431   3.092   1.661   9.259  0.9918 -0.3635 -0.0107
  453MOL0     C62432   3.177   1.664   9.150  0.3252  0.4951  0.9037
  453MOL0     C62433   3.314   1.653   9.154 -0.4397 -0.2995 -0.3559
  453MOL0     C62434   3.374   1.636   9.285  0.6556  0.2567 -1.2976
  453MOL0     O62435   3.514   1.625   9.279 -0.2977 -0.1172 -0.1835
  453MOL0     C62436   3.599   1.584   9.393  0.4554 -1.3894  0.6242
  453MOL0     C62437   3.742   1.572   9.334  0.2785 -0.0279 -0.3451
  453MOL0     C62438   3.756   1.434   9.271 -0.5199 -1.3833  0.2425
  453MOL0     C62439   3.890   1.418   9.200 -0.7197  0.9350  0.5546
  453MOL0     C62440   3.913   1.279   9.168 -0.0652 -0.0924 -0.0755
  453MOL0     C62441   3.949   1.162   9.137  0.9998  0.5112  0.5958
  453MOL0     C62442   3.296   1.622   9.403 -0.1046 -0.6721  0.5340
  453MOL0     C62443   3.156   1.642   9.388 -0.4729 -0.7205  0.0567
  453MOL0     C62444   3.071   1.623   9.510  0.3421 -0.6845 -0.0608
  453MOL0     H62445   2.890   1.827   8.880  0.0299  1.6305 -1.3249
  453MOL0     H62446   2.663   1.882   8.786 -2.8050  0.4211  0.3936
  453MOL0     H62447   2.536   2.057   8.742 -2.2898  4.4806 -1.6131
  453MOL0     H62448   2.483   2.135   8.884 -0.6635  1.0558 -0.5717
  453MOL0     H62449   2.310   1.990   8.696  3.1518 -2.2828  2.7433
  453MOL0     H62450   2.240   2.110   8.809 -0.6629 -0.2703 -0.8805
  453MOL0     H62451   2.413   2.162   8.572  0.4909 -0.8271  0.5333
  453MOL0     H62452   2.238   2.195   8.591  0.7311 -0.3120 -0.9483
  453MOL0     H62453   2.267   2.364   8.740 -0.7005 -1.0196 -0.1142
  453MOL0     H62454   2.444   2.355   8.738  1.1342  0.7398 -1.3693
  453MOL0     H62455   2.435   2.395   8.484 -1.0664 -0.1925  0.0964
  453MOL0     H62456   2.376   2.529   8.597  1.0216 -0.2721  0.7877
  453MOL0     H62457   2.232   2.341   8.411  3.1945  0.1931  0.3873
  453MOL0     H62458   2.144   2.435   8.519  0.5996 -0.0995  1.5829
  453MOL0     H62459   2.321   2.566   8.295 -0.8218  2.1543 -1.4315
  453MOL0     H62460   2.225   2.646   8.431 -0.9515  3.3780 -2.5662
  453MOL0     H62461   2.132   2.632   8.194  1.6176 -4.6943 -3.6814
  453MOL0     H62462   2.099   2.456   8.226 -2.6852  0.2728 -1.0865
  453MOL0     H62463   1.884   2.383   8.359  4.0466 -0.5815 -0.5983
  453MOL0     H62464   1.657   2.585   8.573  0.9782 -0.0685  0.1794
  453MOL0     H62465   1.636   2.436   8.490 -1.7132  0.4542  0.6657
  453MOL0     H62466   1.540   2.590   8.289  0.0958  0.3733 -0.3565
  453MOL0     H62467   1.444   2.567   8.435  0.4399 -0.9445  0.5287
  453MOL0     H62468   1.580   2.778   8.531 -0.5863 -0.6342  0.2802
  453MOL0     H62469   1.603   2.825   8.369  0.4876 -0.4995 -0.0934
  453MOL0     H62470   1.320   2.770   8.492 -0.4672 -0.8003 -2.5011
  453MOL0     H62471   1.405   2.930   8.489 -0.5416  1.2279 -1.6954
  453MOL0     H62472   1.553   3.034   8.322 -2.0309 -1.2034  3.6607
  453MOL0     H62473   1.669   3.239   8.095 -1.0949 -2.0715 -0.2461
  453MOL0     H62474   1.639   3.253   8.274  2.1028 -2.0196 -0.4473
  453MOL0     H62475   1.560   3.362   8.164  0.3375  0.3571  0.3565
  453MOL0     H62476   1.322   3.593   7.993 -1.9978  0.2306  0.4958
  453MOL0     H62477   1.339   3.766   7.820 -0.6070 -0.8097  3.2699
  453MOL0     H62478   1.271   3.646   7.409  0.9714  1.7232 -1.3558
  453MOL0     H62479   1.111   3.697   7.445 -0.2921  1.3456  0.7416
  453MOL0     H62480   1.319   3.913   7.365  0.4901 -0.8761 -0.5957
  453MOL0     H62481   1.225   3.819   7.247 -3.1840  2.4624 -1.3086
  453MOL0     H62482   1.122   4.047   7.367 -0.3456  0.5120  0.1922
  453MOL0     H62483   1.041   3.907   7.447 -1.2950 -1.1238 -0.2268
  453MOL0     H62484   0.965   3.826   7.249 -0.5545  0.6167 -1.0456
  453MOL0     H62485   1.064   3.927   7.141 -2.5327 -1.0576 -1.5145
  453MOL0     H62486   0.868   4.039   7.342  0.3771 -0.8170 -1.0568
  453MOL0     H62487   0.947   4.125   7.226  2.9824 -0.2805  1.9313
  453MOL0     H62488   0.845   4.001   7.046  2.1938 -0.3948  0.1704
  453MOL0     H62489   0.711   4.072   7.150  1.5306  1.3323 -0.1651
  453MOL0     H62490   0.683   3.862   7.268 -1.1163  0.1916  0.2449
  453MOL0     H62491   0.791   3.776   7.153 -1.3508  0.4845 -3.1805
  453MOL0     H62492   0.557   3.733   7.119  2.6540 -2.6040 -1.2021
  453MOL0     H62493   0.596   3.822   6.976 -0.8505 -2.4182  0.4259
  453MOL0     H62494   1.146   3.505   7.547  1.4820  0.0989 -0.3408
  453MOL0     H62495   1.145   3.331   7.716 -1.4103  0.8298  1.0581
  453MOL0     H62496   1.181   3.110   7.998 -1.9423 -3.2782  2.7691
  453MOL0     H62497   1.174   2.924   8.136 -1.2276  0.9139 -1.2880
  453MOL0     H62498   2.493   1.934   9.173 -0.4153  1.4847 -2.6455
  453MOL0     H62499   2.703   1.833   9.271  1.7696  1.1697 -0.0644
  453MOL0     H62500   3.133   1.669   9.050 -2.5694 -1.1323  1.9650
  453MOL0     H62501   3.382   1.647   9.070  1.8656 -3.5944  1.4739
  453MOL0     H62502   3.594   1.647   9.482  1.8783  0.0964 -0.2911
  453MOL0     H62503   3.567   1.485   9.426  1.1105 -1.7246  0.2591
  453MOL0     H62504   3.816   1.589   9.413 -0.1780  0.3089  0.0145
  453MOL0     H62505   3.765   1.643   9.254  1.6272  0.3926  0.3772
  453MOL0     H62506   3.737   1.358   9.347 -1.2725 -0.5996  0.8619
  453MOL0     H62507   3.689   1.432   9.186 -1.7592 -3.8992  1.1637
  453MOL0     H62508   3.971   1.443   9.268 -0.8094  1.5423  0.4423
  453MOL0     H62509   3.893   1.461   9.099 -0.7965 -2.3881 -1.0029
  453MOL0     H62510   3.962   1.060   9.108 -1.9074 -0.1139  1.1809
  453MOL0     H62511   3.342   1.624   9.501  1.1090  0.1672 -0.0265
  453MOL0     H62512   2.972   1.582   9.492  0.6178 -0.5332 -2.1397
  453MOL0     H62513   3.125   1.573   9.591  0.5980 -0.6423 -0.2055
  453MOL0     H62514   3.053   1.723   9.550  2.6966 -0.0240 -0.5249
  454MOL0     O62515   1.974  10.546   5.290  0.6755  0.4189 -0.7475
  454MOL0     C62516   2.003  10.427   5.272  0.0482  0.2776  0.2666
  454MOL0     O62517   2.097  10.358   5.338  0.8823 -0.2990  0.0555
  454MOL0     C62518   2.156  10.405   5.455  0.6556  0.6222 -0.7074
  454MOL0     C62519   2.275  10.347   5.492  0.6169  0.8798  0.8288
  454MOL0     C62520   2.326  10.357   5.617 -0.1710  0.2697 -1.1638
  454MOL0     C62521   2.261  10.415   5.716 -0.5130 -0.8238 -0.1913
  454MOL0     O62522   2.309  10.434   5.844 -0.4869 -0.4461  0.2452
  454MOL0     C62523   2.395  10.333   5.904 -0.5367 -0.1527  0.4999
  454MOL0     C62524   2.544  10.353   5.871  0.4479  0.5217 -0.9830
  454MOL0     C62525   2.648  10.243   5.892  0.4477  0.4866 -0.1597
  454MOL0     C62526   2.635  10.142   5.779 -0.6764  0.0556  0.0148
  454MOL0     C62527   2.694  10.008   5.801  0.1513 -0.1633  0.6750
  454MOL0     C62528   2.820  10.015   5.887  0.4808  0.4599  0.3782
  454MOL0     C62529   2.876   9.872   5.877  1.0437  0.3383  0.1741
  454MOL0     C62530   3.003   9.849   5.959 -0.1936  1.4809  0.3941
  454MOL0     N62531   3.055   9.710   5.966  0.1633 -0.0307 -0.0866
  454MOL0     C62532   3.002   9.616   6.051 -0.0249  0.3137 -0.2133
  454MOL0     C62533   3.097   9.516   6.041 -0.1211  0.4575 -0.1957
  454MOL0     C62534   3.071   9.369   6.092 -0.3814  0.4940 -0.3281
  454MOL0     C62535   3.193   9.271   6.074 -0.4125 -0.1775  0.0860
  454MOL0     C62536   3.292   9.304   6.181  0.7365 -0.0870  0.5278
  454MOL0     C62537   3.254   9.268   6.325 -0.7519  0.1177 -0.2141
  454MOL0     O62538   3.329   9.334   6.427  0.3291  0.1108 -0.4608
  454MOL0     C62539   3.462   9.312   6.444  0.6148  0.0666 -0.3444
  454MOL0     C62540   3.544   9.209   6.384 -0.4779  0.0605 -0.0715
  454MOL0     C62541   3.684   9.218   6.397 -0.5706 -0.8262  0.1600
  454MOL0     C62542   3.768   9.130   6.307 -0.0077  0.3520 -0.2101
  454MOL0     C62543   3.744   9.315   6.474 -1.1380 -0.5827 -0.6100
  454MOL0     C62544   3.887   9.344   6.504  0.2022 -0.0111 -0.3731
  454MOL0     O62545   3.981   9.242   6.486  0.1862  1.2378  0.5851
  454MOL0     C62546   3.985   9.131   6.577  0.8057  0.2063 -0.9342
  454MOL0     C62547   3.918   9.126   6.694  0.3388  0.1641 -1.0046
  454MOL0     C62548   3.923   9.024   6.791 -0.0424 -0.0423  0.9273
  454MOL0     C62549   4.022   8.923   6.763 -0.3340  0.1445  1.1138
  454MOL0     O62550   4.034   8.824   6.854 -0.3020  0.0857  0.0462
  454MOL0     C62551   4.028   8.863   6.994 -0.3164 -0.7010 -1.3755
  454MOL0     C62552   4.022   8.749   7.081  0.4323  0.2669  0.4809
  454MOL0     C62553   4.160   8.701   7.126 -0.5518  0.6295  0.6600
  454MOL0     C62554   4.144   8.555   7.179 -0.3415 -0.4164 -0.6795
  454MOL0     C62555   4.276   8.502   7.239  0.0101 -0.8586 -0.4165
  454MOL0     C62556   4.328   8.576   7.370 -0.3875  0.1110 -0.6405
  454MOL0     C62557   4.213   8.582   7.476  0.1649  0.2531 -0.3634
  454MOL0     C62558   4.270   8.606   7.622  0.7646 -0.2447 -0.8169
  454MOL0    Cl62559   4.369   8.461   7.659  0.3049  0.1608  0.0255
  454MOL0     C62560   4.101   8.928   6.644 -0.9913 -0.5170 -0.7386
  454MOL0     C62561   4.087   9.035   6.559 -0.3185  0.1076 -0.3468
  454MOL0     O62562   3.917   9.460   6.538 -0.0081  1.2865  0.2536
  454MOL0     C62563   3.658   9.393   6.555  0.1406  0.7498 -0.7614
  454MOL0     C62564   3.526   9.396   6.531  0.3755  0.8945 -1.5280
  454MOL0     N62565   3.200   9.546   5.960  0.0990 -0.3215  0.0946
  454MOL0     N62566   3.173   9.668   5.920 -0.6100  0.1454  0.6826
  454MOL0     C62567   2.142  10.481   5.683 -0.3796  1.1802 -0.5001
  454MOL0     C62568   2.090  10.484   5.557  0.4309  0.0927 -0.2710
  454MOL0     C62569   1.921  10.354   5.172 -0.0238  1.4747 -0.7334
  454MOL0     C62570   1.793  10.407   5.140 -0.0804 -0.0435  0.4437
  454MOL0     C62571   1.725  10.352   5.030  0.5233  0.6213 -0.7386
  454MOL0     C62572   1.760  10.225   4.978 -0.0607  0.2410 -0.1763
  454MOL0     O62573   1.684  10.175   4.876  0.4200 -0.8671  0.0280
  454MOL0     C62574   1.719  10.067   4.791  0.7647  0.1497 -0.6637
  454MOL0     C62575   1.616  10.025   4.689  0.2810 -0.5087  0.2323
  454MOL0     C62576   1.493   9.977   4.771 -0.7208  0.2603 -0.1306
  454MOL0     C62577   1.358  10.008   4.714 -0.4164 -0.7426 -0.6676
  454MOL0     C62578   1.257  10.008   4.823 -0.9703 -0.6466 -0.5604
  454MOL0     C62579   1.178  10.015   4.905  1.3691 -0.4339 -0.4405
  454MOL0     C62580   1.883  10.167   5.008 -0.2411  0.2419 -0.7263
  454MOL0     C62581   1.971  10.233   5.098 -0.5618 -0.5578  1.4346
  454MOL0     C62582   2.108  10.172   5.096  0.4294  0.5352  0.4109
  454MOL0     H62583   2.333  10.284   5.426  1.9766  2.7519  0.1340
  454MOL0     H62584   2.426  10.315   5.623 -0.3725 -0.0634  1.9335
  454MOL0     H62585   2.355  10.235   5.876 -1.4606  0.9365 -2.3975
  454MOL0     H62586   2.371  10.349   6.009  1.3546  1.4582  0.7351
  454MOL0     H62587   2.555  10.396   5.771 -0.2747  1.0513 -0.8401
  454MOL0     H62588   2.578  10.433   5.937  2.0628  0.0436 -1.1954
  454MOL0     H62589   2.749  10.284   5.884  2.0891 -3.4066 -1.6772
  454MOL0     H62590   2.648  10.194   5.990 -0.1975 -1.9023 -1.2938
  454MOL0     H62591   2.528  10.125   5.759 -0.6718  0.9372 -0.8044
  454MOL0     H62592   2.661  10.182   5.680 -3.0642 -1.6865 -1.4524
  454MOL0     H62593   2.720   9.959   5.706 -1.2555  1.6128 -0.6980
  454MOL0     H62594   2.615   9.950   5.849  0.6405 -2.3403 -0.9663
  454MOL0     H62595   2.887  10.091   5.845  1.4656 -0.4472  0.2742
  454MOL0     H62596   2.801  10.043   5.991 -0.2777  2.8650 -0.3401
  454MOL0     H62597   2.906   9.847   5.775  0.5216  0.3807  0.0069
  454MOL0     H62598   2.814   9.794   5.921  0.1006  2.1686  2.2622
  454MOL0     H62599   3.091   9.906   5.928  1.6662 -1.1634  0.4622
  454MOL0     H62600   2.985   9.876   6.064 -1.2110 -3.1193  1.6607
  454MOL0     H62601   2.905   9.616   6.099 -1.4446 -0.1870 -2.8837
  454MOL0     H62602   2.989   9.342   6.024 -0.6267  1.2653 -0.3517
  454MOL0     H62603   3.024   9.362   6.190 -0.7079  0.7556 -0.4629
  454MOL0     H62604   3.171   9.164   6.080  0.3874 -0.3996 -0.6826
  454MOL0     H62605   3.240   9.285   5.976 -1.2595 -2.0207 -0.6318
  454MOL0     H62606   3.382   9.243   6.168  0.6604  0.1652 -1.4283
  454MOL0     H62607   3.309   9.411   6.174 -0.4180  0.1044  0.5081
  454MOL0     H62608   3.147   9.280   6.344 -1.2831 -0.1446 -2.7202
  454MOL0     H62609   3.281   9.164   6.346  0.8459  0.8381  1.6095
  454MOL0     H62610   3.495   9.123   6.339  1.6342 -1.7027  0.8337
  454MOL0     H62611   3.704   9.087   6.230  0.1579  1.5066 -1.0281
  454MOL0     H62612   3.808   9.055   6.376  1.5769  3.2453  2.3062
  454MOL0     H62613   3.837   9.191   6.247 -2.5526  1.1003 -2.5567
  454MOL0     H62614   3.873   9.222   6.720  0.1208 -0.7128  2.2883
  454MOL0     H62615   3.848   9.024   6.870 -1.0138  0.0968  0.0208
  454MOL0     H62616   4.117   8.921   7.018 -1.0293  0.0948 -0.6141
  454MOL0     H62617   3.944   8.927   7.022  2.1767  1.9700  0.6539
  454MOL0     H62618   3.971   8.788   7.169  0.0253  2.5523 -0.6970
  454MOL0     H62619   3.964   8.670   7.034 -2.4696  2.6454 -0.2533
  454MOL0     H62620   4.213   8.763   7.199 -0.7936  2.5233 -0.6837
  454MOL0     H62621   4.220   8.686   7.036  1.5038  0.4170  2.0094
  454MOL0     H62622   4.106   8.496   7.095 -3.2893  1.7170 -1.0165
  454MOL0     H62623   4.072   8.558   7.261  0.3459 -0.7032 -0.0554
  454MOL0     H62624   4.278   8.394   7.258 -0.0503 -0.5431  1.6221
  454MOL0     H62625   4.347   8.519   7.158 -1.9104  0.9094 -1.8477
  454MOL0     H62626   4.351   8.678   7.340 -1.6416  0.5277 -0.2771
  454MOL0     H62627   4.408   8.519   7.418 -2.0828  0.0229  2.3476
  454MOL0     H62628   4.151   8.492   7.462  1.3978 -0.2435 -3.3389
  454MOL0     H62629   4.153   8.669   7.449 -1.2391  0.3123  2.6081
  454MOL0     H62630   4.189   8.624   7.693  0.0611  0.2837 -1.7318
  454MOL0     H62631   4.323   8.701   7.631  0.5331 -0.3304  2.5149
  454MOL0     H62632   4.176   8.851   6.627 -2.6128 -2.6213  0.9791
  454MOL0     H62633   4.145   9.051   6.469  3.3516  0.2126  1.8314
  454MOL0     H62634   3.687   9.459   6.636 -0.6730 -1.4790  1.4708
  454MOL0     H62635   3.469   9.472   6.584  0.1659 -1.6428  2.1922
  454MOL0     H62636   2.090  10.532   5.763 -2.4582 -2.5477  0.7360
  454MOL0     H62637   1.991  10.523   5.536  0.5073 -0.1416 -1.0695
  454MOL0     H62638   1.758  10.495   5.193  1.9102  0.1191  1.5951
  454MOL0     H62639   1.642  10.409   4.989  0.5495 -0.2575 -2.0614
  454MOL0     H62640   1.804  10.091   4.727  1.3265  2.2753  0.7940
  454MOL0     H62641   1.755   9.979   4.845  4.2245  0.6903 -1.8182
  454MOL0     H62642   1.654   9.941   4.631 -0.3446  0.2288 -1.3072
  454MOL0     H62643   1.601  10.111   4.623  1.8402 -0.8141 -0.5704
  454MOL0     H62644   1.508   9.869   4.768  4.1880  0.7361 -2.0094
  454MOL0     H62645   1.498   9.992   4.880 -0.8739 -1.7461  0.1847
  454MOL0     H62646   1.325   9.924   4.652  2.6750 -2.2040 -0.5252
  454MOL0     H62647   1.353  10.100   4.654 -0.8365 -0.3450 -0.0310
  454MOL0     H62648   1.089  10.015   4.965  1.3655  4.9590  0.0300
  454MOL0     H62649   1.921  10.091   4.940  1.0205 -0.3077  0.5486
  454MOL0     H62650   2.192  10.226   5.139  1.9778  1.2457 -3.1532
  454MOL0     H62651   2.121  10.069   5.131  1.3104 -0.0144 -1.3886
  454MOL0     H62652   2.125  10.155   4.989 -4.8358 -2.2632 -0.3612
  455MOL0     O62653   3.456   0.699  10.144 -1.8100 -0.7774  0.7708
  455MOL0     C62654   3.336   0.684  10.118  0.2916 -1.1706  0.1996
  455MOL0     O62655   3.233   0.703  10.206  0.5020 -1.1151  0.4487
  455MOL0     C62656   3.242   0.778  10.320 -0.4370 -1.0253 -0.1539
  455MOL0     C62657   3.332   0.894  10.341 -0.1116  0.1731  0.8144
  455MOL0     C62658   3.313   0.978  10.450  0.1850 -0.6350 -0.8405
  455MOL0     C62659   3.203   0.963  10.541  0.2640 -0.0736 -0.3050
  455MOL0     O62660   3.190   1.047  10.649 -0.0470  0.2190  0.4709
  455MOL0     C62661   3.193   0.992  10.782  0.3868 -0.1795  0.3625
  455MOL0     C62662   3.088   1.075  10.876 -0.4593  0.3046 -0.0302
  455MOL0     C62663   3.147   1.218  10.913  0.5764  0.6189 -0.4092
  455MOL0     C62664   3.047   1.321  10.967  0.5863  0.7991 -0.1847
  455MOL0     C62665   2.999   1.292  11.109  0.3614 -0.3663  0.1662
  455MOL0     C62666   2.931   1.425  11.175 -0.7584 -0.0854  0.9952
  455MOL0     C62667   2.853   1.408  11.298  0.3868 -0.5870 -0.9281
  455MOL0     C62668   2.798   1.540  11.362  0.0035 -0.5319  0.0061
  455MOL0     N62669   2.783   1.534  11.508  0.3023 -0.0412 -0.4987
  455MOL0     C62670   2.735   1.645  11.578 -0.1379 -0.0175  0.7026
  455MOL0     C62671   2.771   1.611  11.702 -0.0116  0.1280 -0.0942
  455MOL0     C62672   2.727   1.706  11.817  0.3287 -0.4502  0.7136
  455MOL0     C62673   2.727   1.639  11.956 -0.4974 -0.8340 -0.4352
  455MOL0     C62674   2.869   1.622  12.024 -0.0066 -0.0931 -0.0956
  455MOL0     C62675   2.936   1.752  12.064  0.2349 -0.5173 -0.8121
  455MOL0     O62676   3.080   1.732  12.068  0.0088 -0.4750  0.0913
  455MOL0     C62677   3.151   1.844  12.116 -0.0485  0.1130 -1.6386
  455MOL0     C62678   3.291   1.835  12.134  0.3232  0.0803  0.2807
  455MOL0     C62679   3.362   1.925  12.209 -0.0749 -0.1185  0.8091
  455MOL0     C62680   3.505   1.885  12.220 -0.8182  0.7044 -0.1170
  455MOL0     C62681   3.300   2.038  12.271  0.0695  0.7260  0.0276
  455MOL0     C62682   3.358   2.120  12.379  0.0839  0.1654 -0.6917
  455MOL0     O62683   3.279   2.224  12.427  0.0025  0.1357 -1.1176
  455MOL0     C62684   3.311   2.299  12.540 -0.0339 -0.7374  0.5110
  455MOL0     C62685   3.339   2.434  12.514 -0.5862 -0.5190 -0.1031
  455MOL0     C62686   3.399   2.509  12.620 -0.6168  0.1041 -0.2682
  455MOL0     C62687   3.412   2.453  12.750 -0.6863  0.0452 -0.7623
  455MOL0     O62688   3.450   2.517  12.864  0.2569 -1.3027 -0.0941
  455MOL0     C62689   3.545   2.619  12.868  0.5847  0.4940 -0.2246
  455MOL0     C62690   3.595   2.636  13.009 -0.2073  0.2194  0.4256
  455MOL0     C62691   3.633   2.511  13.068 -0.1884  0.5823 -0.0859
  455MOL0     C62692   3.689   2.531  13.205 -1.3614 -1.0199  0.9192
  455MOL0     C62693   3.754   2.399  13.256  0.2288 -0.5693 -0.3955
  455MOL0     C62694   3.838   2.311  13.161  0.5161  0.0443 -0.3160
  455MOL0     C62695   3.871   2.181  13.233 -1.1759 -0.5470  0.1490
  455MOL0     C62696   3.748   2.082  13.222  0.2168 -0.3551  0.2935
  455MOL0    Cl62697   3.796   1.918  13.271  0.7682  0.1821 -0.3407
  455MOL0     C62698   3.372   2.316  12.771 -0.7065  0.1650  0.1159
  455MOL0     C62699   3.335   2.240  12.663  0.3774 -0.0522  0.3297
  455MOL0     O62700   3.477   2.090  12.414 -0.7859 -0.4368 -0.3485
  455MOL0     C62701   3.157   2.054  12.251 -0.8138  0.5627  0.4315
  455MOL0     C62702   3.087   1.960  12.175 -0.5690  0.2809  0.4338
  455MOL0     N62703   2.843   1.489  11.703  0.4660  0.2848 -0.4993
  455MOL0     N62704   2.848   1.447  11.587  1.2414 -0.3797 -0.7153
  455MOL0     C62705   3.115   0.850  10.529 -0.4261 -0.4526  0.8537
  455MOL0     C62706   3.146   0.763  10.420 -0.3216 -0.0207  0.4427
  455MOL0     C62707   3.295   0.630   9.983 -0.1038  0.3739  1.0052
  455MOL0     C62708   3.211   0.516   9.977  0.5473 -0.8086 -0.0909
  455MOL0     C62709   3.152   0.471   9.860 -1.0022 -0.9435  0.1204
  455MOL0     C62710   3.191   0.532   9.734  0.5652  0.6520  0.2797
  455MOL0     O62711   3.141   0.471   9.617 -0.2098  0.4014 -0.3170
  455MOL0     C62712   3.059   0.557   9.527 -0.2197 -0.0305 -0.7822
  455MOL0     C62713   2.920   0.593   9.579  0.3190 -0.7255  1.3558
  455MOL0     C62714   2.846   0.686   9.465 -0.3190 -0.2466 -0.4978
  455MOL0     C62715   2.697   0.707   9.483  0.0707 -0.1501  0.9501
  455MOL0     C62716   2.660   0.807   9.585  0.2941  0.7687  0.0264
  455MOL0     C62717   2.623   0.884   9.672 -0.7211 -0.3206 -0.6008
  455MOL0     C62718   3.271   0.645   9.736  1.2437  0.0253 -0.3282
  455MOL0     C62719   3.327   0.692   9.858  0.1567 -0.0479 -1.0759
  455MOL0     C62720   3.425   0.816   9.850 -0.0977  0.7893 -0.5615
  455MOL0     H62721   3.417   0.907  10.275 -0.9886  0.3168 -0.3224
  455MOL0     H62722   3.386   1.058  10.462  0.1669 -0.7804  0.2908
  455MOL0     H62723   3.292   0.997  10.827  0.4558  0.1898  0.1757
  455MOL0     H62724   3.150   0.891  10.781  0.2496 -0.1267  0.8333
  455MOL0     H62725   2.999   1.076  10.813 -0.6862 -1.9374  0.1870
  455MOL0     H62726   3.056   1.033  10.971  0.4202  0.5252  0.3714
  455MOL0     H62727   3.224   1.225  10.990  1.4511  4.2178 -1.4653
  455MOL0     H62728   3.192   1.265  10.826 -2.0954 -0.8569 -2.7594
  455MOL0     H62729   3.102   1.416  10.968 -1.2150  1.9047  1.1839
  455MOL0     H62730   2.963   1.327  10.897 -0.9852 -1.8465  1.3260
  455MOL0     H62731   3.088   1.268  11.167  1.3669 -0.1154 -1.2222
  455MOL0     H62732   2.930   1.207  11.103 -0.5998  0.2470  1.7347
  455MOL0     H62733   2.997   1.512  11.186 -1.1473  0.3339  0.0907
  455MOL0     H62734   2.872   1.457  11.089 -0.8412 -0.4249  0.9261
  455MOL0     H62735   2.923   1.357  11.364  0.3486 -1.0527 -1.2404
  455MOL0     H62736   2.760   1.353  11.283 -2.5045  3.2157  1.0373
  455MOL0     H62737   2.864   1.625  11.345 -1.4840  0.7944  0.6190
  455MOL0     H62738   2.708   1.563  11.304  1.2390 -0.9660 -2.1686
  455MOL0     H62739   2.690   1.737  11.540  1.5689  0.7276  0.3728
  455MOL0     H62740   2.625   1.734  11.788  0.9005 -0.5958 -1.6141
  455MOL0     H62741   2.781   1.801  11.814 -0.4182  0.0019  1.3188
  455MOL0     H62742   2.677   1.703  12.029  0.9273 -1.1990  0.9126
  455MOL0     H62743   2.683   1.540  11.960 -1.2750 -0.4701  0.2160
  455MOL0     H62744   2.864   1.561  12.115  0.2378  0.4652  0.2990
  455MOL0     H62745   2.941   1.575  11.956  0.4191  1.5526 -0.8350
  455MOL0     H62746   2.919   1.834  11.994  2.7659  0.3694 -0.5261
  455MOL0     H62747   2.904   1.773  12.167  3.2875  1.5603 -0.1361
  455MOL0     H62748   3.347   1.754  12.088 -1.1895  0.2553 -2.0190
  455MOL0     H62749   3.517   1.860  12.326 -5.1482 -3.5579 -0.2776
  455MOL0     H62750   3.576   1.960  12.184  0.4008 -0.1515  0.4340
  455MOL0     H62751   3.529   1.792  12.167 -2.7857 -0.7011  1.3280
  455MOL0     H62752   3.315   2.474  12.415  1.6640 -1.0701 -0.9282
  455MOL0     H62753   3.433   2.610  12.604  2.3819 -0.4591  1.7280
  455MOL0     H62754   3.616   2.587  12.790 -1.4823 -0.5777 -1.7680
  455MOL0     H62755   3.509   2.715  12.831  2.9072  1.4918 -0.0813
  455MOL0     H62756   3.678   2.706  12.992 -1.6930  1.8420 -0.4376
  455MOL0     H62757   3.516   2.668  13.078 -2.8778  0.3386 -2.4539
  455MOL0     H62758   3.711   2.469  13.005 -1.2888 -2.2494  0.2833
  455MOL0     H62759   3.549   2.441  13.076  1.2622 -1.0667  2.0232
  455MOL0     H62760   3.619   2.577  13.276 -1.0822  0.6904  0.1406
  455MOL0     H62761   3.757   2.616  13.199 -3.5150  0.8235  1.4396
  455MOL0     H62762   3.822   2.426  13.338  0.6163 -0.3618 -0.7801
  455MOL0     H62763   3.662   2.355  13.294 -1.2622  1.4407 -1.4608
  455MOL0     H62764   3.926   2.368  13.130  0.9051 -1.7654 -2.8747
  455MOL0     H62765   3.788   2.281  13.068 -1.2237  1.4070  0.1290
  455MOL0     H62766   3.893   2.212  13.336 -2.7333 -0.9449  0.6300
  455MOL0     H62767   3.964   2.138  13.195  0.4585  0.2070  2.9814
  455MOL0     H62768   3.712   2.080  13.119  1.0905  2.8611 -0.1761
  455MOL0     H62769   3.675   2.111  13.299 -0.7578 -3.3704  0.6534
  455MOL0     H62770   3.377   2.273  12.871  0.0219  1.2443  0.5681
  455MOL0     H62771   3.330   2.131  12.664  1.5006 -0.1273  1.7581
  455MOL0     H62772   3.096   2.131  12.297 -2.6346 -2.0635  2.7077
  455MOL0     H62773   2.984   1.995  12.181 -0.1253  2.6274 -2.6763
  455MOL0     H62774   3.049   0.822  10.610  0.9829 -1.8551  1.5832
  455MOL0     H62775   3.065   0.692  10.404  1.8751 -2.4658 -0.3569
  455MOL0     H62776   3.182   0.462  10.066 -1.4704 -0.3215 -0.4043
  455MOL0     H62777   3.075   0.395   9.857 -1.0975 -0.8259 -1.3509
  455MOL0     H62778   3.124   0.644   9.515  0.2241 -0.0116  1.3150
  455MOL0     H62779   3.053   0.504   9.432 -0.4693  1.5307 -1.6574
  455MOL0     H62780   2.929   0.659   9.665 -0.2858  2.1467 -0.6560
  455MOL0     H62781   2.869   0.499   9.603 -1.2734 -1.6332 -4.2166
  455MOL0     H62782   2.890   0.786   9.465  0.2053 -0.1793  5.1985
  455MOL0     H62783   2.873   0.629   9.375  1.3385 -2.4983  1.2854
  455MOL0     H62784   2.640   0.617   9.509  0.6619 -0.9530 -0.4202
  455MOL0     H62785   2.659   0.742   9.387 -0.7227 -0.0782  1.2762
  455MOL0     H62786   2.601   0.957   9.748  4.6957 -0.5201  1.5896
  455MOL0     H62787   3.284   0.701   9.644 -0.8507  1.2416  0.0519
  455MOL0     H62788   3.392   0.885   9.927 -0.7033 -0.7461  0.6020
  455MOL0     H62789   3.527   0.787   9.876  0.5539  3.3963  0.0494
  455MOL0     H62790   3.421   0.861   9.750 -0.9294  0.0499 -0.8827
  456MOL0     O62791  11.437   8.699  11.305 -0.3906  0.1966  0.1061
  456MOL0     C62792  11.554   8.711  11.335 -0.5956 -0.1759 -0.0481
  456MOL0     O62793  11.664   8.726  11.249  0.5492  0.2908  0.7108
  456MOL0     C62794  11.636   8.679  11.123 -0.3471 -0.8431 -0.5386
  456MOL0     C62795  11.712   8.569  11.066 -0.1261 -0.3494 -0.4193
  456MOL0     C62796  11.681   8.526  10.932  1.0033 -0.7354  0.5863
  456MOL0     C62797  11.596   8.589  10.851 -0.2515  0.1480 -1.2662
  456MOL0     O62798  11.570   8.550  10.720 -0.1248 -0.2448  0.1888
  456MOL0     C62799  11.463   8.462  10.697 -0.1346 -0.1201  0.3332
  456MOL0     C62800  11.511   8.316  10.715  0.9596 -0.3990 -0.5409
  456MOL0     C62801  11.580   8.260  10.591 -1.0576  0.2350 -0.1780
  456MOL0     C62802  11.651   8.131  10.624 -0.1111  0.0283 -0.8175
  456MOL0     C62803  11.723   8.085  10.498 -0.4304  1.2011 -0.6133
  456MOL0     C62804  11.836   7.986  10.536  0.7246  0.6009  0.7937
  456MOL0     C62805  11.927   7.959  10.410 -0.0469 -0.8025  0.6438
  456MOL0     C62806  11.861   7.861  10.309 -0.0391 -0.5426  0.4849
  456MOL0     N62807  11.880   7.725  10.353  0.7229 -0.5577 -0.0301
  456MOL0     C62808  11.975   7.636  10.319  0.3846  0.3070 -0.3621
  456MOL0     C62809  11.937   7.534  10.399  0.9501  0.2304 -0.3273
  456MOL0     C62810  12.000   7.397  10.415 -0.3481  0.0249  0.0021
  456MOL0     C62811  12.119   7.406  10.492 -1.2689  0.5244 -0.2440
  456MOL0     C62812  12.175   7.273  10.530  0.2012 -0.2925  0.1677
  456MOL0     C62813  12.215   7.176  10.420  0.0478  0.6863  0.5860
  456MOL0     O62814  12.325   7.221  10.328  0.1202 -0.3209  0.8498
  456MOL0     C62815  12.445   7.233  10.394 -0.7619 -0.0020 -0.0632
  456MOL0     C62816  12.534   7.122  10.413  0.3242 -0.0212 -0.3276
  456MOL0     C62817  12.649   7.132  10.482 -1.1140 -0.5229 -1.0883
  456MOL0     C62818  12.719   7.002  10.510  0.5120 -0.0257 -0.0179
  456MOL0     C62819  12.713   7.258  10.507  0.7351 -0.1261  0.7534
  456MOL0     C62820  12.840   7.279  10.584  0.5166  0.8807 -0.5423
  456MOL0     O62821  12.903   7.397  10.569  0.1572 -0.1247 -0.1408
  456MOL0     C62822  13.033   7.391  10.606 -0.2918  0.3400  0.5225
  456MOL0     C62823  13.079   7.476  10.712  0.4448  0.4437 -0.2981
  456MOL0     C62824  13.214   7.482  10.755  0.5290 -0.9212 -0.0034
  456MOL0     C62825  13.311   7.411  10.688  0.5538 -1.2359 -0.0280
  456MOL0     O62826  13.443   7.428  10.731  0.2914  0.7069  0.2079
  456MOL0     C62827  13.491   7.308  10.801  0.6223 -0.3349  0.3243
  456MOL0     C62828  13.616   7.338  10.887 -0.2029 -1.2558  0.5150
  456MOL0     C62829  13.592   7.460  10.987  0.0132 -0.3700  0.4488
  456MOL0     C62830  13.485   7.438  11.099  0.0091 -0.4025  0.1478
  456MOL0     C62831  13.481   7.551  11.201  0.7893 -0.0480 -0.1931
  456MOL0     C62832  13.338   7.604  11.229  0.3556 -0.0750  0.4759
  456MOL0     C62833  13.270   7.531  11.342 -0.1321 -0.1913  0.0569
  456MOL0     C62834  13.133   7.591  11.383  0.2877 -1.4586 -0.3855
  456MOL0    Cl62835  13.008   7.558  11.264  0.4560 -0.3366  0.1456
  456MOL0     C62836  13.269   7.322  10.585 -0.5296 -0.0891 -0.2285
  456MOL0     C62837  13.133   7.314  10.544 -1.0794  0.0966  0.6917
  456MOL0     O62838  12.882   7.185  10.649  0.5374  0.3525 -0.3817
  456MOL0     C62839  12.633   7.371  10.475 -0.2426  0.2486 -0.6262
  456MOL0     C62840  12.503   7.360  10.416  0.1916 -0.2102  0.3015
  456MOL0     N62841  11.819   7.562  10.467  0.2262 -0.7643  0.3701
  456MOL0     N62842  11.785   7.683  10.437  0.0984  0.6929  0.1061
  456MOL0     C62843  11.535   8.695  10.903  0.0964  0.4837 -0.6412
  456MOL0     C62844  11.556   8.748  11.031  0.5621 -0.8118 -0.5475
  456MOL0     C62845  11.602   8.655  11.473 -0.2180  0.0142 -0.0469
  456MOL0     C62846  11.737   8.639  11.490  0.1735 -0.4425  0.0135
  456MOL0     C62847  11.793   8.594  11.608  0.1335  0.6989  0.6130
  456MOL0     C62848  11.707   8.578  11.723 -1.0659 -1.2381 -0.5157
  456MOL0     O62849  11.742   8.541  11.852 -0.4409 -1.0939  0.2061
  456MOL0     C62850  11.889   8.524  11.866  0.3915  0.0212  0.0061
  456MOL0     C62851  11.937   8.450  11.990  0.3798  0.7421 -0.7528
  456MOL0     C62852  12.068   8.513  12.039  1.0999  0.1365  0.1321
  456MOL0     C62853  12.142   8.430  12.150  0.6601 -0.0473  1.8932
  456MOL0     C62854  12.260   8.359  12.098 -0.4768 -0.6613  0.0031
  456MOL0     C62855  12.375   8.312  12.066 -0.2451  0.8002 -0.2227
  456MOL0     C62856  11.575   8.592  11.705 -0.2663 -0.3983  0.4519
  456MOL0     C62857  11.516   8.630  11.586 -0.7357  0.0583  0.1037
  456MOL0     C62858  11.369   8.646  11.592 -0.1568  0.5217 -0.2363
  456MOL0     H62859  11.790   8.527  11.129 -1.0419  0.6738  1.4766
  456MOL0     H62860  11.742   8.444  10.894 -2.3685 -3.1468 -0.0717
  456MOL0     H62861  11.414   8.488  10.603 -1.2307  0.4562  1.0281
  456MOL0     H62862  11.385   8.487  10.770 -0.3262  4.2603 -1.1143
  456MOL0     H62863  11.567   8.313  10.809  0.6714  1.8022 -0.2485
  456MOL0     H62864  11.418   8.261  10.730  2.7483 -2.8315  2.8801
  456MOL0     H62865  11.519   8.246  10.502 -0.6016  3.1009 -1.0719
  456MOL0     H62866  11.656   8.335  10.566 -0.0569 -1.5861 -3.0340
  456MOL0     H62867  11.721   8.153  10.705 -0.9277  4.1949 -1.0205
  456MOL0     H62868  11.582   8.058  10.667 -0.3695 -0.2023 -1.6030
  456MOL0     H62869  11.754   8.173  10.440 -3.2787  2.2668 -0.6760
  456MOL0     H62870  11.657   8.031  10.430 -0.1229 -1.7415  1.2652
  456MOL0     H62871  11.908   8.019  10.611  4.8257  1.4868 -3.1030
  456MOL0     H62872  11.790   7.894  10.574  0.9692 -0.2428 -0.8518
  456MOL0     H62873  12.018   7.915  10.453 -0.0834 -0.1526  1.3914
  456MOL0     H62874  11.942   8.058  10.366 -2.3843 -0.2857  0.9215
  456MOL0     H62875  11.755   7.884  10.294 -0.3389 -1.7136  0.6956
  456MOL0     H62876  11.914   7.873  10.215 -1.6564 -1.2135 -0.5497
  456MOL0     H62877  12.059   7.643  10.252  0.4921 -2.4239 -0.6278
  456MOL0     H62878  12.002   7.364  10.311  0.9332  3.2998 -1.1272
  456MOL0     H62879  11.937   7.327  10.471 -0.3608 -0.4910 -0.6442
  456MOL0     H62880  12.198   7.461  10.439 -1.6104  1.8154  0.5497
  456MOL0     H62881  12.104   7.467  10.582 -0.3217  2.9215 -1.5910
  456MOL0     H62882  12.253   7.286  10.605 -1.3528 -0.3982  1.8770
  456MOL0     H62883  12.097   7.217  10.582 -0.6641 -0.3135 -1.1015
  456MOL0     H62884  12.250   7.092  10.480 -0.5050  0.6906  0.9188
  456MOL0     H62885  12.125   7.146  10.365 -0.2002 -2.5307  2.4819
  456MOL0     H62886  12.497   7.030  10.369  1.1196 -0.6768  0.3352
  456MOL0     H62887  12.659   6.944  10.580  0.3963 -0.3580 -0.3867
  456MOL0     H62888  12.827   7.000  10.527  1.0345 -1.6794 -2.8032
  456MOL0     H62889  12.708   6.945  10.417  2.6476  0.8382 -0.8807
  456MOL0     H62890  13.008   7.528  10.775 -0.5402  0.2277 -1.2020
  456MOL0     H62891  13.233   7.554  10.834 -1.1443 -0.1910 -0.2100
  456MOL0     H62892  13.409   7.265  10.859  0.9703  0.4834  1.4611
  456MOL0     H62893  13.531   7.246  10.720  1.4108 -1.2869  1.4191
  456MOL0     H62894  13.666   7.251  10.930  0.4030  0.0750  2.6461
  456MOL0     H62895  13.694   7.378  10.822 -0.2845  1.2501  1.8049
  456MOL0     H62896  13.571   7.545  10.922 -1.4417  0.3359  1.7857
  456MOL0     H62897  13.690   7.480  11.032  0.0126  1.8465 -0.4121
  456MOL0     H62898  13.526   7.350  11.149 -0.2979 -1.2080 -0.9825
  456MOL0     H62899  13.389   7.410  11.054  0.4146 -0.8547 -0.4413
  456MOL0     H62900  13.532   7.527  11.295  2.1092  1.1267 -0.5876
  456MOL0     H62901  13.534   7.638  11.161  0.2590  1.5040  2.2619
  456MOL0     H62902  13.284   7.609  11.133  3.4066  3.3973 -1.3086
  456MOL0     H62903  13.353   7.708  11.258  2.9136 -0.0914 -0.5242
  456MOL0     H62904  13.333   7.549  11.429 -1.7401  0.9110  1.0528
  456MOL0     H62905  13.257   7.427  11.311  0.1665  0.1881 -1.4459
  456MOL0     H62906  13.136   7.700  11.387 -0.4876 -1.4325 -0.2633
  456MOL0     H62907  13.103   7.555  11.482 -1.5976  1.8653  0.3858
  456MOL0     H62908  13.345   7.252  10.551 -0.0865 -0.5332  1.5137
  456MOL0     H62909  13.097   7.244  10.469 -1.3198  0.8514  0.0910
  456MOL0     H62910  12.654   7.475  10.499 -1.1816  0.1844  0.6005
  456MOL0     H62911  12.436   7.442  10.393  0.1566 -0.2258  0.3464
  456MOL0     H62912  11.468   8.747  10.835 -2.5409 -0.7641  0.8652
  456MOL0     H62913  11.518   8.844  11.064  4.9793  0.4458  1.6448
  456MOL0     H62914  11.807   8.655  11.409  0.7059 -1.1078  0.3239
  456MOL0     H62915  11.899   8.575  11.606 -0.3677 -2.9977  1.1208
  456MOL0     H62916  11.934   8.469  11.783 -0.6939  1.9135 -1.9538
  456MOL0     H62917  11.937   8.623  11.865  2.5695 -0.9904 -0.8487
  456MOL0     H62918  11.946   8.342  11.979  0.9980  0.6206  0.7888
  456MOL0     H62919  11.872   8.466  12.076 -0.6092  0.3575 -1.4109
  456MOL0     H62920  12.133   8.533  11.954 -0.7517 -0.6487 -1.5480
  456MOL0     H62921  12.051   8.613  12.079  1.5527  0.8559 -1.4142
  456MOL0     H62922  12.069   8.360  12.191 -0.4098 -1.0803 -1.3991
  456MOL0     H62923  12.185   8.500  12.222  2.3328  0.0195  0.8895
  456MOL0     H62924  12.468   8.263  12.046 -1.4094 -0.1367 -4.4391
  456MOL0     H62925  11.526   8.571  11.800  1.7595 -3.4590  0.9814
  456MOL0     H62926  11.320   8.628  11.688 -3.3755 -1.2258 -2.0091
  456MOL0     H62927  11.340   8.744  11.555  0.2239 -0.0667 -2.2158
  456MOL0     H62928  11.319   8.572  11.529  0.5477 -2.4966  2.4760
  457MOL0     O62929   1.403   2.090   3.917 -0.4558  0.9945 -0.4212
  457MOL0     C62930   1.315   2.139   3.988 -0.0619 -0.0136  0.2084
  457MOL0     O62931   1.286   2.104   4.118 -0.3354  0.3332 -0.0604
  457MOL0     C62932   1.380   2.029   4.176  0.0415 -0.3028  0.1512
  457MOL0     C62933   1.448   2.083   4.282  0.5570 -0.5764 -0.2751
  457MOL0     C62934   1.550   2.013   4.337 -0.6297  0.6563 -0.1411
  457MOL0     C62935   1.597   1.889   4.284  0.7253 -0.2499  1.0538
  457MOL0     O62936   1.695   1.815   4.331 -0.4905 -0.2100  0.3304
  457MOL0     C62937   1.786   1.881   4.423  0.2634  0.7836 -0.4655
  457MOL0     C62938   1.878   1.771   4.455 -0.4358  0.0552 -0.0357
  457MOL0     C62939   1.980   1.814   4.568 -0.4873  0.8353  1.1295
  457MOL0     C62940   2.104   1.886   4.502 -0.4363  0.3507 -0.1697
  457MOL0     C62941   2.212   1.906   4.604  0.0191  0.6127  0.1799
  457MOL0     C62942   2.169   2.013   4.698  0.1388 -0.2155 -0.1105
  457MOL0     C62943   2.291   2.054   4.781 -0.5410  0.9507 -0.2227
  457MOL0     C62944   2.234   2.115   4.907  0.7311  0.3709 -0.3510
  457MOL0     N62945   2.334   2.137   5.018 -0.5492 -0.4799  0.2116
  457MOL0     C62946   2.335   2.255   5.087  0.0405  0.5962 -0.7979
  457MOL0     C62947   2.440   2.234   5.177  0.8931  1.4167  0.0047
  457MOL0     C62948   2.503   2.324   5.273 -0.7072 -1.1993 -0.0563
  457MOL0     C62949   2.495   2.276   5.418  0.1228 -0.9297  0.9689
  457MOL0     C62950   2.358   2.218   5.454 -0.9067  1.5208  0.1944
  457MOL0     C62951   2.349   2.190   5.605  0.2586 -0.0837  0.2937
  457MOL0     O62952   2.341   2.313   5.678 -0.1733  1.1751  0.2242
  457MOL0     C62953   2.445   2.367   5.739 -0.6997  1.2201 -0.0944
  457MOL0     C62954   2.434   2.490   5.796  0.0400  0.4410 -0.0319
  457MOL0     C62955   2.541   2.554   5.866  0.4243  0.1626 -0.4369
  457MOL0     C62956   2.501   2.687   5.930  0.0553 -0.5949  0.5746
  457MOL0     C62957   2.661   2.489   5.884 -0.4740 -0.2867 -0.6734
  457MOL0     C62958   2.780   2.552   5.956  0.7861 -0.1820  0.5360
  457MOL0     O62959   2.762   2.632   6.059 -0.2568  0.6736 -0.1602
  457MOL0     C62960   2.804   2.597   6.185 -0.4454  0.0914  0.3929
  457MOL0     C62961   2.899   2.508   6.220 -0.7432 -1.0291 -0.6076
  457MOL0     C62962   2.925   2.465   6.354 -0.6689  0.2616  0.8128
  457MOL0     C62963   2.842   2.508   6.460  0.2570  0.0550  0.1625
  457MOL0     O62964   2.884   2.464   6.585 -0.4918  0.8318  0.5413
  457MOL0     C62965   2.822   2.517   6.697 -0.0700  0.7765  0.1541
  457MOL0     C62966   2.895   2.648   6.746  0.2510 -1.1468  0.2139
  457MOL0     C62967   3.046   2.654   6.741 -0.5868  0.1340  0.9087
  457MOL0     C62968   3.096   2.804   6.762 -0.1900 -1.7573  0.4492
  457MOL0     C62969   3.037   2.882   6.874  0.7703  0.5144 -0.5406
  457MOL0     C62970   3.072   2.830   7.020  0.2347  0.4585  0.6158
  457MOL0     C62971   2.996   2.916   7.123  0.6685 -0.1245 -0.2455
  457MOL0     C62972   3.046   2.873   7.262  0.9939 -0.2241  0.1518
  457MOL0    Cl62973   2.977   2.985   7.394 -0.3008  0.0438  0.0211
  457MOL0     C62974   2.739   2.595   6.424 -0.7085  0.1192 -0.4509
  457MOL0     C62975   2.723   2.643   6.291 -0.2700  0.5006  0.5632
  457MOL0     O62976   2.880   2.512   5.905  0.2865  0.0071  0.3013
  457MOL0     C62977   2.670   2.359   5.833  0.5683 -0.1358  0.0849
  457MOL0     C62978   2.566   2.303   5.760 -0.6672  0.1266  0.5100
  457MOL0     N62979   2.484   2.111   5.166 -0.8088 -0.1381  0.4222
  457MOL0     N62980   2.416   2.046   5.072  0.0696  0.6468  0.2580
  457MOL0     C62981   1.518   1.835   4.184 -0.0150 -0.5682  0.4476
  457MOL0     C62982   1.413   1.908   4.131  1.1200  0.3293  0.5009
  457MOL0     C62983   1.261   2.267   3.938  0.4453 -1.4726  1.0310
  457MOL0     C62984   1.344   2.351   3.861  0.0345  0.2108 -0.0743
  457MOL0     C62985   1.295   2.472   3.802 -0.7830  0.7392  0.3971
  457MOL0     C62986   1.161   2.505   3.826 -0.4581  0.5158  0.4453
  457MOL0     O62987   1.111   2.623   3.802  0.3136 -0.1740  0.2637
  457MOL0     C62988   1.165   2.710   3.711 -0.3801 -0.0031 -0.8642
  457MOL0     C62989   1.129   2.662   3.571 -0.1957 -1.3433 -0.3161
  457MOL0     C62990   0.975   2.664   3.563  0.3643  0.7769 -0.7875
  457MOL0     C62991   0.953   2.625   3.422  0.0905  0.1314  0.8808
  457MOL0     C62992   0.942   2.746   3.341  0.1481  0.4978  0.0214
  457MOL0     C62993   0.949   2.854   3.291  0.4495  0.3225  0.3007
  457MOL0     C62994   1.075   2.418   3.894 -0.7152  0.0140 -0.7031
  457MOL0     C62995   1.126   2.300   3.943  0.7788 -0.0568 -0.7471
  457MOL0     C62996   1.030   2.205   3.995 -0.0784 -0.0748 -0.0275
  457MOL0     H62997   1.426   2.181   4.322  0.5032 -1.0997  1.0149
  457MOL0     H62998   1.590   2.054   4.429 -0.7578 -0.6526  0.5228
  457MOL0     H62999   1.728   1.914   4.509  0.6538 -5.4508  2.7679
  457MOL0     H63000   1.844   1.969   4.394 -0.6656  1.5586 -0.0040
  457MOL0     H63001   1.830   1.682   4.495 -0.3422  0.1448  0.2811
  457MOL0     H63002   1.924   1.733   4.363 -0.6343 -2.1549  0.7216
  457MOL0     H63003   1.942   1.888   4.640  0.3072  0.2052  2.2201
  457MOL0     H63004   2.014   1.730   4.629  1.3432  1.1216  0.5677
  457MOL0     H63005   2.145   1.829   4.418 -0.8912  1.4448 -1.1672
  457MOL0     H63006   2.064   1.980   4.462 -0.5953  1.4522  2.3706
  457MOL0     H63007   2.299   1.942   4.548  0.2403  1.2135  0.8930
  457MOL0     H63008   2.233   1.811   4.652  1.0148  1.5131  1.5877
  457MOL0     H63009   2.137   2.101   4.640 -3.1021 -0.7690  0.6263
  457MOL0     H63010   2.083   1.986   4.759 -1.3616  0.4785 -1.8133
  457MOL0     H63011   2.360   2.111   4.718  0.6704  0.4745  0.6376
  457MOL0     H63012   2.338   1.958   4.806 -1.0985  0.9628  0.9010
  457MOL0     H63013   2.180   2.209   4.891 -2.8495 -0.8023  3.1497
  457MOL0     H63014   2.160   2.045   4.947  0.6703 -1.5546 -3.5150
  457MOL0     H63015   2.283   2.348   5.068 -1.0385  0.3973  0.9457
  457MOL0     H63016   2.459   2.423   5.262  0.7712 -0.4531  0.5760
  457MOL0     H63017   2.609   2.324   5.246 -0.7698 -0.9685 -0.3009
  457MOL0     H63018   2.579   2.205   5.427  0.8637 -0.3722 -0.9241
  457MOL0     H63019   2.527   2.365   5.471 -0.0786 -1.3276  1.7730
  457MOL0     H63020   2.286   2.297   5.431  0.7519  2.8035 -0.7618
  457MOL0     H63021   2.348   2.126   5.396  2.6330  1.5558 -0.6406
  457MOL0     H63022   2.254   2.139   5.621  1.1911 -1.6375  1.1849
  457MOL0     H63023   2.428   2.122   5.640  0.3445 -0.4202 -0.5282
  457MOL0     H63024   2.335   2.535   5.797  0.0947  0.6868 -1.9685
  457MOL0     H63025   2.450   2.671   6.025  0.8309  2.4865  1.6238
  457MOL0     H63026   2.427   2.724   5.859  1.4918 -3.6856 -2.8557
  457MOL0     H63027   2.586   2.755   5.940 -0.4357  0.0970  0.1183
  457MOL0     H63028   2.970   2.491   6.139 -0.2245  2.0160 -0.9027
  457MOL0     H63029   3.021   2.415   6.362 -0.1244  0.0628 -4.1450
  457MOL0     H63030   2.721   2.556   6.680  0.7606  4.4130  2.3391
  457MOL0     H63031   2.815   2.444   6.778  1.6971 -0.1739 -0.5067
  457MOL0     H63032   2.850   2.724   6.681  0.6309  0.7683  2.1058
  457MOL0     H63033   2.863   2.670   6.848 -0.9567  2.7418 -0.8597
  457MOL0     H63034   3.081   2.622   6.642  0.2738 -1.0168  1.5468
  457MOL0     H63035   3.070   2.577   6.816 -2.0332 -0.5334  0.7267
  457MOL0     H63036   3.072   2.857   6.669  0.3109  1.3310  1.9651
  457MOL0     H63037   3.205   2.808   6.769 -0.2490 -0.6064  0.8890
  457MOL0     H63038   3.066   2.987   6.864  3.6515 -0.0123  1.1578
  457MOL0     H63039   2.928   2.891   6.867  0.6020 -0.8939 -0.0828
  457MOL0     H63040   3.179   2.833   7.042  0.1142 -0.6092  1.4365
  457MOL0     H63041   3.040   2.726   7.026 -2.2344  1.0877 -0.5717
  457MOL0     H63042   2.888   2.906   7.112  0.9263 -2.7737 -1.2473
  457MOL0     H63043   3.021   3.022   7.114  1.5866 -0.1863  1.3147
  457MOL0     H63044   3.154   2.873   7.279  0.8963 -5.1130  2.2042
  457MOL0     H63045   3.012   2.775   7.295  1.4173 -0.2044  0.6648
  457MOL0     H63046   2.673   2.639   6.498  1.8942  0.7917  1.6187
  457MOL0     H63047   2.641   2.710   6.268  0.8693  2.5907  2.1740
  457MOL0     H63048   2.768   2.313   5.842  1.4485  1.6824  0.4584
  457MOL0     H63049   2.578   2.196   5.749 -1.1098  0.0776  0.4838
  457MOL0     H63050   1.553   1.743   4.139 -0.6838  0.1662 -1.7079
  457MOL0     H63051   1.364   1.859   4.048  0.9187 -0.7557  1.2381
  457MOL0     H63052   1.446   2.321   3.838  0.2316  0.4905  0.4321
  457MOL0     H63053   1.370   2.528   3.747  0.1021 -2.0301 -1.4311
  457MOL0     H63054   1.136   2.813   3.733  0.9929  0.5171 -1.3684
  457MOL0     H63055   1.274   2.716   3.712 -0.4722  3.6930  0.2785
  457MOL0     H63056   1.168   2.563   3.545  0.0637 -1.2384 -0.3278
  457MOL0     H63057   1.165   2.736   3.499  0.2201 -1.7936 -0.5740
  457MOL0     H63058   0.946   2.578   3.624  2.0063 -0.6168 -1.8535
  457MOL0     H63059   0.919   2.751   3.596 -2.3059 -0.7716 -0.9098
  457MOL0     H63060   0.864   2.562   3.412 -1.5856  2.6421 -1.4824
  457MOL0     H63061   1.030   2.561   3.379 -0.9545  0.0882 -1.0646
  457MOL0     H63062   0.947   2.950   3.242 -2.2245  0.9005  1.3813
  457MOL0     H63063   0.970   2.445   3.906 -0.3767  0.6039  1.2779
  457MOL0     H63064   0.951   2.181   3.924 -0.4659  1.3455 -0.1049
  457MOL0     H63065   1.074   2.109   4.026  3.2898  1.5012  0.5373
  457MOL0     H63066   0.985   2.241   4.088 -0.1700 -0.1368 -0.0473
  458MOL0     O63067   3.337  10.368   0.210  0.2582  0.6158 -1.0819
  458MOL0     C63068   3.326  10.316   0.325  0.2330 -0.2746 -0.0141
  458MOL0     O63069   3.232  10.346   0.414  0.5252  0.3015  0.1366
  458MOL0     C63070   3.139  10.450   0.394  0.4105 -0.2615 -0.0787
  458MOL0     C63071   3.027  10.453   0.477  0.2361 -0.8118  1.0613
  458MOL0     C63072   2.942  10.562   0.485  0.1646 -0.0770 -0.3670
  458MOL0     C63073   2.957  10.674   0.399 -0.0517 -1.2788  0.0847
  458MOL0     O63074   2.862  10.773   0.407 -0.4489 -0.2442 -0.2408
  458MOL0     C63075   2.826  10.847   0.290  0.0232  0.7878  0.0347
  458MOL0     C63076   2.712  10.764   0.222  0.1159  0.2393 -0.2033
  458MOL0     C63077   2.672  10.807   0.082  0.3601 -1.1217  0.2587
  458MOL0     C63078   2.789  10.834  -0.016  0.5391 -0.4135  0.0763
  458MOL0     C63079   2.852  10.702  -0.064  0.7696  0.2244  0.1590
  458MOL0     C63080   2.984  10.735  -0.154 -0.4064  0.2199 -0.3357
  458MOL0     C63081   3.037  10.603  -0.215  0.6750  0.7887 -0.5425
  458MOL0     C63082   3.157  10.609  -0.308  0.2336 -0.0390  0.1953
  458MOL0     N63083   3.149  10.679  -0.434  1.0673  0.0524  0.3994
  458MOL0     C63084   3.058  10.635  -0.530 -0.5036 -0.3898 -0.8877
  458MOL0     C63085   3.043  10.742  -0.612  0.0002  0.0859  0.6644
  458MOL0     C63086   2.947  10.756  -0.729  0.0093  0.1312  0.3564
  458MOL0     C63087   2.810  10.696  -0.695 -0.1272 -0.1128 -0.4049
  458MOL0     C63088   2.784  10.557  -0.752 -1.0132  0.0593 -0.3969
  458MOL0     C63089   2.644  10.510  -0.736 -0.6426  0.5306  0.4764
  458MOL0     O63090   2.538  10.590  -0.792  0.8834 -0.9594  0.0354
  458MOL0     C63091   2.522  10.616  -0.929 -0.4246 -0.0527  0.0004
  458MOL0     C63092   2.453  10.730  -0.977  0.3096  0.3415 -0.3951
  458MOL0     C63093   2.441  10.760  -1.109  0.7139 -0.6380  0.4209
  458MOL0     C63094   2.331  10.868  -1.129  0.4050 -0.2992 -0.0175
  458MOL0     C63095   2.503  10.684  -1.207  0.0228  0.1844  0.7205
  458MOL0     C63096   2.489  10.726  -1.354 -0.7252 -0.7244 -0.2020
  458MOL0     O63097   2.387  10.817  -1.399 -0.3507 -0.0688 -0.5661
  458MOL0     C63098   2.397  10.867  -1.529  0.5588 -1.0590 -0.3679
  458MOL0     C63099   2.329  10.807  -1.641  0.1701 -0.2051  0.5532
  458MOL0     C63100   2.344  10.859  -1.767 -0.2366  0.1360  0.2392
  458MOL0     C63101   2.403  10.980  -1.784  0.5223 -0.7559  0.2236
  458MOL0     O63102   2.381  11.057  -1.892  0.7882 -0.2711 -0.1220
  458MOL0     C63103   2.265  11.035  -1.972  0.3164 -0.2886  0.9132
  458MOL0     C63104   2.246  11.134  -2.097 -0.3377 -0.4029 -0.2066
  458MOL0     C63105   2.109  11.113  -2.174  0.1709 -0.3120  0.4642
  458MOL0     C63106   2.099  11.206  -2.290  0.5137 -0.4356 -0.6150
  458MOL0     C63107   2.024  11.139  -2.409  0.1265  0.4564 -0.7368
  458MOL0     C63108   2.000  11.235  -2.524 -0.4611  0.2633  0.6968
  458MOL0     C63109   2.142  11.267  -2.583  0.4772 -0.2409  1.5933
  458MOL0     C63110   2.176  11.187  -2.701  0.5068 -0.5042  0.2828
  458MOL0    Cl63111   2.058  11.233  -2.834 -0.0287 -0.1746 -0.4259
  458MOL0     C63112   2.471  11.039  -1.680 -0.0449  0.8661  0.2790
  458MOL0     C63113   2.470  10.980  -1.556 -0.0205  0.4945 -0.7165
  458MOL0     O63114   2.555  10.655  -1.434 -0.1122  0.0808 -1.0228
  458MOL0     C63115   2.579  10.565  -1.163  1.0699 -0.2180  0.0985
  458MOL0     C63116   2.581  10.535  -1.026  0.5456  0.8946 -0.0909
  458MOL0     N63117   3.109  10.847  -0.565 -0.3069  0.3423  0.2562
  458MOL0     N63118   3.172  10.813  -0.454  0.3268 -0.1337  0.0139
  458MOL0     C63119   3.071  10.671   0.317 -0.5020 -0.4345 -0.6020
  458MOL0     C63120   3.161  10.564   0.309 -0.7018  0.8047 -0.2145
  458MOL0     C63121   3.442  10.219   0.347  0.5439 -0.7464 -1.2961
  458MOL0     C63122   3.517  10.175   0.245  0.5046  0.5461  0.0236
  458MOL0     C63123   3.626  10.080   0.277 -1.1152 -1.1056 -0.7406
  458MOL0     C63124   3.653  10.039   0.405 -0.5311 -0.2233 -1.0378
  458MOL0     O63125   3.752   9.947   0.440  0.4504 -0.0663 -0.0260
  458MOL0     C63126   3.875   9.954   0.379 -1.0606 -0.6070 -0.3233
  458MOL0     C63127   3.967   9.878   0.465 -0.1522  0.3541 -0.7506
  458MOL0     C63128   4.095   9.823   0.379 -0.3765 -0.1848 -0.1317
  458MOL0     C63129   4.151   9.713   0.474  0.0151  0.4705 -0.4573
  458MOL0     C63130   4.222   9.769   0.594 -0.2246  0.3509  0.4904
  458MOL0     C63131   4.276   9.812   0.689 -0.1820  0.2832 -0.9616
  458MOL0     C63132   3.571  10.089   0.508  0.8976  0.7608  0.3753
  458MOL0     C63133   3.466  10.180   0.481  0.4635  0.9180  0.7436
  458MOL0     C63134   3.402  10.243   0.602 -0.5150  0.0360  0.2677
  458MOL0     H63135   3.004  10.376   0.550 -0.4064  1.1280  2.9980
  458MOL0     H63136   2.857  10.562   0.552  1.2080  1.5355  1.0268
  458MOL0     H63137   2.919  10.865   0.235 -0.0926  1.8005  0.1599
  458MOL0     H63138   2.786  10.944   0.322 -0.6712 -0.7533  4.5987
  458MOL0     H63139   2.743  10.660   0.217 -0.5342  0.0841 -2.1153
  458MOL0     H63140   2.627  10.761   0.292  0.3517 -0.5913  0.0581
  458MOL0     H63141   2.598  10.740   0.036 -1.5886  1.7494 -1.1267
  458MOL0     H63142   2.628  10.907   0.092 -1.0797 -1.8956  2.4906
  458MOL0     H63143   2.748  10.890  -0.100  0.1591  1.4671  1.4422
  458MOL0     H63144   2.859  10.907   0.028 -0.3999 -0.6127  1.9959
  458MOL0     H63145   2.772  10.647  -0.113 -0.8780  2.2810  0.4337
  458MOL0     H63146   2.883  10.639   0.021  1.6390  1.0315  0.4685
  458MOL0     H63147   2.954  10.808  -0.230 -2.9094  1.1615  1.4063
  458MOL0     H63148   3.059  10.776  -0.086 -0.5090  0.7022 -0.5033
  458MOL0     H63149   2.953  10.562  -0.273  0.4620 -1.6097  1.3195
  458MOL0     H63150   3.060  10.525  -0.142 -3.2187 -0.2655 -0.1985
  458MOL0     H63151   3.233  10.661  -0.249 -1.3814  0.7328  1.7012
  458MOL0     H63152   3.184  10.505  -0.327  4.1763  1.0133 -0.9620
  458MOL0     H63153   3.004  10.542  -0.539 -0.1804 -0.4627 -2.2869
  458MOL0     H63154   3.001  10.709  -0.811  0.2977  0.4815  0.3406
  458MOL0     H63155   2.926  10.858  -0.762 -2.0208 -1.3121 -3.3838
  458MOL0     H63156   2.801  10.708  -0.586 -0.6105  0.0650 -0.4604
  458MOL0     H63157   2.729  10.751  -0.744 -3.5167 -3.4733  0.9006
  458MOL0     H63158   2.808  10.549  -0.858 -0.4412 -2.3562 -0.1252
  458MOL0     H63159   2.845  10.495  -0.686  0.4740  2.1026  0.2376
  458MOL0     H63160   2.628  10.404  -0.761 -0.5109  0.3194  1.2598
  458MOL0     H63161   2.615  10.527  -0.632 -1.3890  1.3544  0.1418
  458MOL0     H63162   2.401  10.790  -0.903 -2.2592  1.9027 -3.2705
  458MOL0     H63163   2.242  10.819  -1.170  1.2938  0.3126 -2.8557
  458MOL0     H63164   2.357  10.957  -1.187 -3.0953  1.0648  0.2982
  458MOL0     H63165   2.305  10.911  -1.032  0.7678 -1.9694  0.8627
  458MOL0     H63166   2.268  10.717  -1.637  2.6868 -2.0104  0.7644
  458MOL0     H63167   2.303  10.804  -1.851  1.3961  0.6563 -0.9559
  458MOL0     H63168   2.277  10.934  -2.013 -2.3531 -0.0860 -0.6506
  458MOL0     H63169   2.173  11.034  -1.912 -1.8461 -1.0000 -2.1594
  458MOL0     H63170   2.263  11.231  -2.049  5.2163 -2.2331  2.4183
  458MOL0     H63171   2.329  11.112  -2.165 -1.0445 -1.8894 -0.6336
  458MOL0     H63172   2.017  11.136  -2.118  0.8812  1.1501  1.0902
  458MOL0     H63173   2.101  11.010  -2.208 -2.1130  0.2401 -0.9160
  458MOL0     H63174   2.196  11.249  -2.316  1.0738 -1.2082  0.1562
  458MOL0     H63175   2.034  11.290  -2.264  0.1498 -0.9134  0.0147
  458MOL0     H63176   2.075  11.049  -2.444 -3.6757 -0.7485 -4.0791
  458MOL0     H63177   1.928  11.103  -2.370  0.7538 -1.6046 -1.0023
  458MOL0     H63178   1.949  11.327  -2.495 -2.9179 -1.0656  0.8992
  458MOL0     H63179   1.937  11.183  -2.596  1.3460  0.6959 -1.2928
  458MOL0     H63180   2.225  11.265  -2.511  0.9630 -3.4529  1.0969
  458MOL0     H63181   2.142  11.370  -2.621 -1.1383 -0.3176  1.3134
  458MOL0     H63182   2.167  11.080  -2.678 -1.2494 -0.0570  1.9450
  458MOL0     H63183   2.276  11.206  -2.742  0.9650  2.3961  2.4193
  458MOL0     H63184   2.543  11.116  -1.704  1.1367 -0.1962  0.2733
  458MOL0     H63185   2.551  11.013  -1.492 -0.0884  1.4429 -1.0980
  458MOL0     H63186   2.630  10.500  -1.233  0.3335 -0.8931  0.1735
  458MOL0     H63187   2.635  10.446  -0.997  1.7020  2.3799  2.6345
  458MOL0     H63188   3.095  10.763   0.265  0.9633 -1.1188 -1.2137
  458MOL0     H63189   3.248  10.583   0.246  0.6857 -2.1517  0.6788
  458MOL0     H63190   3.499  10.197   0.140  2.2747 -1.4514 -0.7758
  458MOL0     H63191   3.693  10.050   0.197  1.0331 -0.3037  0.6517
  458MOL0     H63192   3.868   9.901   0.284 -2.6775 -1.6076  0.3078
  458MOL0     H63193   3.892  10.062   0.377 -1.4564 -0.5517 -1.1676
  458MOL0     H63194   3.906   9.802   0.515 -0.1241  1.3814  0.9122
  458MOL0     H63195   3.999   9.941   0.548 -1.2541 -1.5021  1.1558
  458MOL0     H63196   4.060   9.775   0.288  0.3302 -2.3785  0.6711
  458MOL0     H63197   4.170   9.899   0.357 -1.6586  0.7462 -1.4206
  458MOL0     H63198   4.232   9.654   0.428  0.6933  0.0986  1.1469
  458MOL0     H63199   4.079   9.640   0.513  0.7028  0.2663  0.4710
  458MOL0     H63200   4.325   9.846   0.778  0.5996  0.4585 -1.4451
  458MOL0     H63201   3.598  10.053   0.607  2.5279  0.1788 -0.2410
  458MOL0     H63202   3.466  10.222   0.688  0.8704  1.2519 -0.4262
  458MOL0     H63203   3.393  10.351   0.587 -0.9135  0.0115  0.3064
  458MOL0     H63204   3.311  10.182   0.600  1.0145 -2.4005 -2.7632
  459MOL0     O63205   6.157   0.622   0.013  0.3567  0.1703  0.7100
  459MOL0     C63206   6.143   0.589   0.129  0.6471 -0.5035 -0.6420
  459MOL0     O63207   6.051   0.652   0.214  0.3782  0.0768  0.3491
  459MOL0     C63208   5.957   0.734   0.149 -1.0214  0.6232  0.2567
  459MOL0     C63209   5.978   0.868   0.164 -0.0725 -0.5071  0.2515
  459MOL0     C63210   5.876   0.959   0.121 -1.4937 -0.0989 -0.2394
  459MOL0     C63211   5.768   0.917   0.048 -0.0820 -0.0329 -0.4228
  459MOL0     O63212   5.682   1.013  -0.003 -0.0342 -0.5662  0.6633
  459MOL0     C63213   5.568   0.993  -0.082 -0.2902 -0.7928  0.3297
  459MOL0     C63214   5.616   0.960  -0.224  0.2050 -0.0540  0.2556
  459MOL0     C63215   5.748   1.033  -0.285 -0.3651 -0.0160 -0.4321
  459MOL0     C63216   5.843   0.942  -0.355 -0.4120 -0.2964  0.5601
  459MOL0     C63217   5.778   0.901  -0.490 -0.0198  0.0607 -0.0118
  459MOL0     C63218   5.759   1.010  -0.600 -0.9943 -0.1526 -0.8895
  459MOL0     C63219   5.879   1.091  -0.638 -0.3796  0.0781  0.6727
  459MOL0     C63220   5.982   0.999  -0.706  0.4913 -0.2680  0.3185
  459MOL0     N63221   5.927   0.946  -0.836 -0.9374 -0.2762  0.3565
  459MOL0     C63222   5.896   1.021  -0.944  0.7362  0.6535  1.0534
  459MOL0     C63223   5.867   0.924  -1.040  0.6952  0.3422 -0.4179
  459MOL0     C63224   5.801   0.973  -1.163  0.7575  0.4084 -0.3234
  459MOL0     C63225   5.666   0.901  -1.205 -0.4506 -0.7369  0.6139
  459MOL0     C63226   5.566   0.899  -1.079 -0.0716  0.3241 -0.3278
  459MOL0     C63227   5.551   1.023  -0.994 -0.2439  0.4341  0.4549
  459MOL0     O63228   5.448   0.991  -0.901 -0.3963 -0.0668 -0.5295
  459MOL0     C63229   5.430   1.084  -0.799 -0.1194  0.7652 -0.5169
  459MOL0     C63230   5.490   1.211  -0.796 -0.6689  0.3198 -0.2440
  459MOL0     C63231   5.490   1.294  -0.680 -0.9266  0.0470  1.0783
  459MOL0     C63232   5.566   1.427  -0.681  0.2254  0.5149  0.5085
  459MOL0     C63233   5.412   1.242  -0.580 -0.2134  0.3638 -1.1719
  459MOL0     C63234   5.391   1.330  -0.464 -0.8263 -0.1098  0.6517
  459MOL0     O63235   5.490   1.354  -0.376  0.2500 -0.5728 -0.1961
  459MOL0     C63236   5.469   1.459  -0.288  0.7338  0.0376  0.4436
  459MOL0     C63237   5.446   1.595  -0.342  0.2273 -0.0683 -0.0533
  459MOL0     C63238   5.437   1.710  -0.254  0.6118 -0.1944 -0.2074
  459MOL0     C63239   5.469   1.682  -0.117  0.3296  0.2944  0.8096
  459MOL0     O63240   5.488   1.772  -0.015 -0.3731 -0.0632 -0.1886
  459MOL0     C63241   5.578   1.888  -0.045  0.2703  0.2000 -1.5037
  459MOL0     C63242   5.571   1.976   0.075 -0.8528  0.4490 -0.3467
  459MOL0     C63243   5.436   2.047   0.098 -0.5154  0.0916  0.2159
  459MOL0     C63244   5.421   2.115   0.234 -0.4098 -0.1588 -0.1200
  459MOL0     C63245   5.293   2.193   0.251 -0.4495 -0.7704 -0.4421
  459MOL0     C63246   5.288   2.234   0.400  0.1611 -0.5960 -1.4671
  459MOL0     C63247   5.196   2.367   0.412  0.3410  0.8068 -0.9372
  459MOL0     C63248   5.127   2.361   0.550 -0.1333  0.1526  0.2638
  459MOL0    Cl63249   5.233   2.305   0.680 -0.4099  0.5822 -0.2114
  459MOL0     C63250   5.464   1.554  -0.066 -0.7013 -1.6168 -0.2663
  459MOL0     C63251   5.468   1.447  -0.152 -0.5410  1.0935  0.0692
  459MOL0     O63252   5.287   1.395  -0.466 -0.3733 -0.1256  0.6189
  459MOL0     C63253   5.351   1.115  -0.578  0.5070  0.4446 -0.3788
  459MOL0     C63254   5.350   1.041  -0.697 -1.2668 -0.1019  0.9468
  459MOL0     N63255   5.894   0.799  -0.986  0.3902 -0.2766  0.6022
  459MOL0     N63256   5.944   0.817  -0.864 -0.1748 -1.3136  1.5614
  459MOL0     C63257   5.748   0.785   0.018 -1.0120  0.4564  0.1637
  459MOL0     C63258   5.838   0.692   0.081  0.0531  0.3070  0.0529
  459MOL0     C63259   6.240   0.485   0.173  0.9401 -0.0968 -0.2698
  459MOL0     C63260   6.374   0.506   0.165  0.0282  0.1528  0.1897
  459MOL0     C63261   6.463   0.406   0.218  0.4100 -0.1096 -0.3884
  459MOL0     C63262   6.418   0.293   0.278  0.7236  0.9240 -0.5252
  459MOL0     O63263   6.512   0.219   0.331  0.3896  0.1691  0.0461
  459MOL0     C63264   6.481   0.172   0.463 -0.3362  0.6924  0.7082
  459MOL0     C63265   6.568   0.043   0.492  0.3454 -0.4610 -0.3087
  459MOL0     C63266   6.572  -0.063   0.377  0.9651  0.1803 -0.1118
  459MOL0     C63267   6.565  -0.212   0.425 -0.5970 -0.7621 -0.4483
  459MOL0     C63268   6.599  -0.302   0.312  0.2588 -0.5630 -0.5568
  459MOL0     C63269   6.618  -0.382   0.221 -0.4261 -0.3023 -0.9669
  459MOL0     C63270   6.280   0.266   0.279  0.3801 -0.7412 -0.0792
  459MOL0     C63271   6.188   0.362   0.235 -0.2084  0.0069  0.4553
  459MOL0     C63272   6.051   0.348   0.272  0.0332 -0.1596  0.7810
  459MOL0     H63273   6.054   0.911   0.228  1.3456 -2.0262 -0.3316
  459MOL0     H63274   5.880   1.067   0.134 -1.1886  0.1746 -2.2480
  459MOL0     H63275   5.500   1.079  -0.093 -1.2975 -1.7493 -1.2876
  459MOL0     H63276   5.511   0.917  -0.028  1.1188  0.7518  4.3757
  459MOL0     H63277   5.629   0.852  -0.220  0.4139 -0.0177  0.6218
  459MOL0     H63278   5.541   0.983  -0.301 -0.2323  1.8336  1.1828
  459MOL0     H63279   5.723   1.109  -0.360  1.5797  0.4607 -0.6659
  459MOL0     H63280   5.797   1.091  -0.206 -0.5924  1.8729 -1.5854
  459MOL0     H63281   5.938   0.995  -0.364  0.1956 -1.5420 -0.7178
  459MOL0     H63282   5.855   0.850  -0.298 -1.2591 -1.2838 -0.7875
  459MOL0     H63283   5.674   0.875  -0.466 -0.7720  2.9905  0.2822
  459MOL0     H63284   5.840   0.821  -0.530  0.1782  0.3312 -0.2523
  459MOL0     H63285   5.733   0.947  -0.686  0.4935 -1.8278 -0.1747
  459MOL0     H63286   5.679   1.080  -0.572  0.8521  0.6588  2.9871
  459MOL0     H63287   5.921   1.145  -0.553  1.7703  0.1181 -0.3518
  459MOL0     H63288   5.842   1.168  -0.706  1.8082  1.1889  0.6564
  459MOL0     H63289   6.076   1.051  -0.728  0.9713 -1.8094 -1.5371
  459MOL0     H63290   6.004   0.920  -0.634  0.2564  0.0144  0.7004
  459MOL0     H63291   5.889   1.128  -0.962  1.8512  0.4074 -1.1625
  459MOL0     H63292   5.867   0.958  -1.248  0.3418 -1.7505 -0.3121
  459MOL0     H63293   5.783   1.081  -1.152  1.9238  0.8319 -2.1929
  459MOL0     H63294   5.622   0.958  -1.287  1.0862 -1.1618 -0.5541
  459MOL0     H63295   5.692   0.799  -1.234  1.8006 -0.8277  2.6258
  459MOL0     H63296   5.467   0.882  -1.122  0.2036  0.1281 -0.8863
  459MOL0     H63297   5.590   0.812  -1.016 -0.2956  0.6575  0.2231
  459MOL0     H63298   5.644   1.070  -0.962  1.1821  0.6473 -3.4066
  459MOL0     H63299   5.512   1.099  -1.063 -0.6879  0.0198  0.2421
  459MOL0     H63300   5.555   1.244  -0.876  2.0089  0.8018  1.9578
  459MOL0     H63301   5.504   1.517  -0.681 -0.1016  0.4029 -2.5040
  459MOL0     H63302   5.621   1.429  -0.776 -0.9490  2.1230 -0.1899
  459MOL0     H63303   5.635   1.441  -0.598 -0.7346  1.6681  1.1365
  459MOL0     H63304   5.434   1.602  -0.450 -4.5803  0.4432  0.3221
  459MOL0     H63305   5.419   1.807  -0.300  0.7015 -0.0187  0.1237
  459MOL0     H63306   5.675   1.848  -0.075 -0.9251 -2.6333 -1.9708
  459MOL0     H63307   5.546   1.951  -0.128 -0.7588 -0.0476 -1.3050
  459MOL0     H63308   5.601   1.918   0.162  3.1393 -0.6035 -2.1976
  459MOL0     H63309   5.649   2.053   0.081  0.6806 -1.1396  1.7841
  459MOL0     H63310   5.353   1.978   0.082 -2.1122  1.7752  0.9011
  459MOL0     H63311   5.421   2.131   0.029 -0.8310 -0.7098 -0.7069
  459MOL0     H63312   5.499   2.191   0.248 -1.4350  0.7963  0.5889
  459MOL0     H63313   5.434   2.038   0.311  1.7688  0.0045 -0.2542
  459MOL0     H63314   5.296   2.277   0.181 -0.4325 -0.3479  0.0624
  459MOL0     H63315   5.202   2.137   0.230 -1.1165  0.1377 -0.0120
  459MOL0     H63316   5.392   2.257   0.423  0.1301 -0.7423 -1.1714
  459MOL0     H63317   5.246   2.160   0.468  2.4351  0.7237  1.5939
  459MOL0     H63318   5.116   2.363   0.338 -3.6545 -0.1071  3.0228
  459MOL0     H63319   5.255   2.456   0.392 -0.8094  1.3404 -2.0679
  459MOL0     H63320   5.042   2.293   0.545  0.0629 -0.0565 -0.3610
  459MOL0     H63321   5.085   2.461   0.565 -0.5838  0.2679 -1.5820
  459MOL0     H63322   5.461   1.557   0.042 -1.2074  2.2096 -0.2622
  459MOL0     H63323   5.477   1.347  -0.110  2.5165  1.2325  0.0170
  459MOL0     H63324   5.308   1.082  -0.484 -1.0031  2.9375 -0.1039
  459MOL0     H63325   5.310   0.940  -0.690 -2.2677  0.1657 -0.5686
  459MOL0     H63326   5.667   0.749  -0.045  0.2833  1.5896 -2.2868
  459MOL0     H63327   5.823   0.584   0.083  1.4316  0.1086  1.3847
  459MOL0     H63328   6.421   0.589   0.113  1.1260 -0.1382  0.6829
  459MOL0     H63329   6.571   0.399   0.213  0.3768  0.2332 -2.1230
  459MOL0     H63330   6.508   0.246   0.538 -0.6224  0.5806  0.9208
  459MOL0     H63331   6.374   0.151   0.468 -0.2199  0.0880  0.7190
  459MOL0     H63332   6.540   0.000   0.589  0.9910 -1.7673 -0.6815
  459MOL0     H63333   6.669   0.084   0.501 -0.3143  1.0449  0.6477
  459MOL0     H63334   6.490  -0.029   0.313 -0.1058  0.5133  1.3820
  459MOL0     H63335   6.669  -0.064   0.327  1.8659 -1.2505  1.5580
  459MOL0     H63336   6.465  -0.226   0.467 -1.3915  1.5824 -1.3667
  459MOL0     H63337   6.644  -0.226   0.499  3.1982  0.0364 -3.9693
  459MOL0     H63338   6.648  -0.449   0.142  4.6988 -1.3364  1.4317
  459MOL0     H63339   6.233   0.176   0.316 -0.1878  0.5557  2.6536
  459MOL0     H63340   6.027   0.242   0.287 -0.1830 -0.4935 -1.5559
  459MOL0     H63341   6.030   0.399   0.367  3.6028 -0.3875  1.8425
  459MOL0     H63342   5.977   0.374   0.195  0.6815  0.3156  0.3097
  460MOL0     O63343   5.547   8.122   3.527  0.0764 -0.1247  0.0220
  460MOL0     C63344   5.474   8.113   3.428  0.2687  0.9616 -1.1396
  460MOL0     O63345   5.489   8.195   3.316 -0.1323  0.6358 -0.0009
  460MOL0     C63346   5.560   8.307   3.337 -0.2468 -0.3467 -0.2811
  460MOL0     C63347   5.693   8.305   3.361  0.5647 -0.7783 -0.2392
  460MOL0     C63348   5.774   8.415   3.357  0.0908  0.0249 -0.4523
  460MOL0     C63349   5.708   8.543   3.343 -0.7804  0.5097 -0.6155
  460MOL0     O63350   5.773   8.665   3.348 -0.0445 -0.1499 -1.0243
  460MOL0     C63351   5.897   8.683   3.407 -0.0661 -0.8589  0.4616
  460MOL0     C63352   5.935   8.836   3.404 -0.1785 -0.0642  0.1785
  460MOL0     C63353   5.954   8.888   3.263 -0.0637 -0.3245  0.6093
  460MOL0     C63354   5.866   9.014   3.221 -0.0330 -0.0946  0.4889
  460MOL0     C63355   5.899   9.084   3.088  0.6969 -0.0964 -0.0228
  460MOL0     C63356   5.804   9.191   3.032 -0.3311  0.2091 -0.1505
  460MOL0     C63357   5.844   9.272   2.909  0.8894  0.2655  0.7999
  460MOL0     C63358   5.985   9.310   2.928  0.6878 -0.4147  0.1491
  460MOL0     N63359   6.040   9.409   2.832 -0.1427 -0.7395  0.1684
  460MOL0     C63360   5.956   9.502   2.769 -0.3368 -0.4982  0.1646
  460MOL0     C63361   6.035   9.541   2.660 -0.6318 -0.9139  0.0307
  460MOL0     C63362   5.995   9.639   2.560  0.1807 -0.2263  1.3127
  460MOL0     C63363   5.993   9.790   2.608  1.0539  0.5170  0.0669
  460MOL0     C63364   6.115   9.832   2.680 -0.2577  0.4897  0.7745
  460MOL0     C63365   6.252   9.826   2.604  0.3755 -0.3879 -1.0741
  460MOL0     O63366   6.227   9.880   2.473  0.0335  0.8441  0.5263
  460MOL0     C63367   6.233  10.018   2.449 -0.3964 -0.1166  0.2790
  460MOL0     C63368   6.276  10.112   2.540 -0.8819 -0.3675  0.2556
  460MOL0     C63369   6.294  10.253   2.505 -0.1580  0.2058 -0.2903
  460MOL0     C63370   6.323  10.354   2.610 -1.4007 -0.2805 -0.8932
  460MOL0     C63371   6.274  10.300   2.374  0.5368 -0.5712 -0.6818
  460MOL0     C63372   6.312  10.420   2.314  0.2377 -0.3499  0.1040
  460MOL0     O63373   6.321  10.428   2.173 -0.2998  0.8421 -1.0686
  460MOL0     C63374   6.386  10.528   2.109  0.9996 -0.9205  0.1259
  460MOL0     C63375   6.322  10.638   2.054  0.6474  0.7679 -0.7849
  460MOL0     C63376   6.392  10.740   1.989 -0.3861 -1.2116  0.5245
  460MOL0     C63377   6.535  10.734   1.979 -0.1525 -0.1056 -0.7488
  460MOL0     O63378   6.603  10.848   1.946  0.3667 -1.1489  0.3318
  460MOL0     C63379   6.654  10.854   1.808  0.0718 -0.0394 -0.6323
  460MOL0     C63380   6.542  10.911   1.733 -0.9461 -0.3327 -0.7204
  460MOL0     C63381   6.555  10.896   1.585  0.0604 -0.4213 -0.2084
  460MOL0     C63382   6.696  10.915   1.526  0.8551  0.4154  0.1830
  460MOL0     C63383   6.694  10.949   1.375  0.1588  0.1128 -0.2309
  460MOL0     C63384   6.640  10.833   1.289  0.3099  0.2014  0.8718
  460MOL0     C63385   6.635  10.883   1.148  0.1058  0.0946  0.6783
  460MOL0     C63386   6.584  10.788   1.045 -0.0852 -0.0367  0.1434
  460MOL0    Cl63387   6.417  10.733   1.088  0.3713 -0.2483 -0.0901
  460MOL0     C63388   6.603  10.627   2.041 -0.3216 -0.4808 -0.8476
  460MOL0     C63389   6.527  10.525   2.099  0.1379  0.4864  0.9039
  460MOL0     O63390   6.319  10.520   2.388 -0.6501  0.3937  0.2373
  460MOL0     C63391   6.229  10.198   2.286 -1.3707  0.5565  0.4517
  460MOL0     C63392   6.208  10.070   2.327 -0.3031  0.2586  0.2019
  460MOL0     N63393   6.159   9.478   2.655 -0.7477 -0.5614 -0.6679
  460MOL0     N63394   6.160   9.397   2.760 -0.9203  0.5798  0.0483
  460MOL0     C63395   5.569   8.552   3.321  0.0108  0.1930 -0.1713
  460MOL0     C63396   5.490   8.434   3.314 -0.3694 -0.6897  0.1536
  460MOL0     C63397   5.382   8.002   3.421  0.3056  0.0967 -0.1346
  460MOL0     C63398   5.423   7.883   3.481  0.0086 -0.0170  0.1431
  460MOL0     C63399   5.345   7.767   3.477  0.6548 -0.9944 -0.2067
  460MOL0     C63400   5.231   7.763   3.393  0.5764 -0.0083 -0.0683
  460MOL0     O63401   5.184   7.643   3.364  0.2108 -0.8720 -0.0045
  460MOL0     C63402   5.041   7.636   3.366  0.7064 -0.1307 -0.2639
  460MOL0     C63403   4.981   7.584   3.235  0.4097 -0.0820 -0.2087
  460MOL0     C63404   4.827   7.567   3.253  0.1485 -0.5984  0.2233
  460MOL0     C63405   4.786   7.475   3.362  0.2435  0.7339 -0.1429
  460MOL0     C63406   4.643   7.461   3.369 -0.5996 -0.3862  0.2167
  460MOL0     C63407   4.523   7.450   3.398  0.6164 -0.2093 -0.1436
  460MOL0     C63408   5.186   7.884   3.330  0.6125  0.5291  0.0247
  460MOL0     C63409   5.266   8.003   3.344  0.2801 -0.2674  0.2923
  460MOL0     C63410   5.212   8.121   3.271  0.3638 -0.4593  0.5881
  460MOL0     H63411   5.726   8.201   3.365 -0.6891 -1.1663  1.1469
  460MOL0     H63412   5.881   8.423   3.342 -0.0119  3.2747 -0.0926
  460MOL0     H63413   5.972   8.625   3.352  0.1554 -0.6728  0.5666
  460MOL0     H63414   5.901   8.660   3.513  3.7969 -0.1217  0.6064
  460MOL0     H63415   5.863   8.907   3.446 -1.7182  0.6349 -3.2787
  460MOL0     H63416   6.028   8.842   3.461 -1.1590 -1.5222  2.0715
  460MOL0     H63417   6.058   8.910   3.239  1.2309 -4.2403  1.9179
  460MOL0     H63418   5.918   8.808   3.198  1.7983 -0.7339  0.0168
  460MOL0     H63419   5.763   8.981   3.237 -0.2144  0.6754  0.9819
  460MOL0     H63420   5.887   9.093   3.294 -0.9721 -1.6567  2.5754
  460MOL0     H63421   5.897   9.001   3.017 -0.2447 -0.6785  0.6642
  460MOL0     H63422   6.001   9.122   3.099  1.3308 -1.2083 -1.5855
  460MOL0     H63423   5.705   9.144   3.026 -0.0005 -0.5231 -0.0170
  460MOL0     H63424   5.796   9.265   3.112  3.8455  0.2590  0.4487
  460MOL0     H63425   5.779   9.359   2.894  1.6127  0.5585 -0.8893
  460MOL0     H63426   5.839   9.208   2.821  0.4788  3.7874 -1.9506
  460MOL0     H63427   5.986   9.352   3.029 -4.2291  2.1024 -0.5639
  460MOL0     H63428   6.049   9.222   2.914  0.7202 -0.0695 -2.1646
  460MOL0     H63429   5.858   9.543   2.791  0.4738  2.8725 -1.8433
  460MOL0     H63430   5.901   9.612   2.511  1.2036 -1.0498 -0.2792
  460MOL0     H63431   6.066   9.626   2.478 -0.1074  3.1788  0.3546
  460MOL0     H63432   5.978   9.855   2.522 -1.7992 -2.1105 -1.6226
  460MOL0     H63433   5.907   9.790   2.675 -0.2256  0.6203 -1.5352
  460MOL0     H63434   6.090   9.932   2.715 -0.2858  1.4428 -1.7422
  460MOL0     H63435   6.127   9.779   2.775  5.0090  0.0657  0.1574
  460MOL0     H63436   6.335   9.871   2.660  0.2226  1.4242 -2.2252
  460MOL0     H63437   6.279   9.722   2.582  4.0778 -0.0579  0.9972
  460MOL0     H63438   6.287  10.091   2.646 -0.0683 -0.0911  0.2267
  460MOL0     H63439   6.240  10.425   2.625 -1.2545 -0.4235  0.8679
  460MOL0     H63440   6.417  10.406   2.591 -0.1287 -1.7874  0.9620
  460MOL0     H63441   6.324  10.315   2.712  0.1136  0.0552 -0.7640
  460MOL0     H63442   6.214  10.647   2.047  0.5980 -0.4440 -1.9527
  460MOL0     H63443   6.341  10.834   1.968 -1.0024 -1.3128  1.5114
  460MOL0     H63444   6.739  10.923   1.799 -0.5434  0.5429 -2.9678
  460MOL0     H63445   6.694  10.757   1.778 -0.4280  0.1249 -1.9188
  460MOL0     H63446   6.455  10.860   1.774 -1.1409 -0.7536 -1.6393
  460MOL0     H63447   6.534  11.019   1.752 -1.7266 -0.3030 -1.1890
  460MOL0     H63448   6.486  10.969   1.540 -1.6471  0.1008  2.9355
  460MOL0     H63449   6.526  10.792   1.567  0.3637 -0.3260 -1.3336
  460MOL0     H63450   6.753  10.823   1.538  4.3897  2.2165 -1.3511
  460MOL0     H63451   6.743  10.995   1.584  0.6927 -1.4562  3.0303
  460MOL0     H63452   6.626  11.034   1.361  0.3277  0.3567  0.4007
  460MOL0     H63453   6.787  10.983   1.329  0.0428  1.8225  0.6823
  460MOL0     H63454   6.544  10.801   1.331  0.3282 -0.8830  0.1164
  460MOL0     H63455   6.711  10.750   1.301  0.1664 -0.2994 -1.3028
  460MOL0     H63456   6.736  10.910   1.117 -0.4495  1.1208 -0.3269
  460MOL0     H63457   6.575  10.972   1.128  2.0980  0.8567 -2.8455
  460MOL0     H63458   6.645  10.698   1.039  1.1782  0.8562 -1.3434
  460MOL0     H63459   6.579  10.848   0.953  0.2337  1.6210  1.1642
  460MOL0     H63460   6.712  10.625   2.040 -0.2109  0.9464  1.5327
  460MOL0     H63461   6.584  10.451   2.152 -2.0108  0.2916  3.1239
  460MOL0     H63462   6.204  10.214   2.182  2.0888 -0.9057 -0.7475
  460MOL0     H63463   6.172  10.008   2.245 -0.7832 -0.0338  0.6303
  460MOL0     H63464   5.521   8.649   3.305 -0.7583  0.0616  1.2317
  460MOL0     H63465   5.387   8.451   3.283  0.0622 -1.4906 -1.8692
  460MOL0     H63466   5.507   7.874   3.549  0.2532 -3.1611 -0.4372
  460MOL0     H63467   5.375   7.677   3.531 -1.2140  0.4357  3.5794
  460MOL0     H63468   5.018   7.567   3.448  0.5119  0.5902  0.2937
  460MOL0     H63469   4.992   7.733   3.377  1.2300  0.3172 -1.6342
  460MOL0     H63470   5.030   7.487   3.222  0.4812 -0.4960  2.5475
  460MOL0     H63471   5.012   7.648   3.152  2.9193  0.1475  0.7968
  460MOL0     H63472   4.790   7.667   3.277  0.9725  0.2335 -1.7390
  460MOL0     H63473   4.788   7.544   3.153 -1.8437  0.0252  0.8046
  460MOL0     H63474   4.821   7.503   3.461  0.0671  1.2644 -0.2291
  460MOL0     H63475   4.828   7.374   3.363  1.3232  1.0925  3.4675
  460MOL0     H63476   4.416   7.452   3.408  0.5029 -0.9895 -1.0028
  460MOL0     H63477   5.098   7.872   3.267  2.5350 -3.6812 -2.2676
  460MOL0     H63478   5.213   8.209   3.337 -1.8619 -2.2857  3.3273
  460MOL0     H63479   5.265   8.147   3.180 -0.9115  1.8542  0.4137
  460MOL0     H63480   5.112   8.097   3.232  1.6054 -1.6431 -2.0692
  461MOL0     O63481   5.223   2.689  11.389 -0.2047  0.5539  0.0852
  461MOL0     C63482   5.181   2.801  11.351  0.3268 -0.1755  0.6751
  461MOL0     O63483   5.271   2.894  11.285 -0.9671  1.0516  0.2365
  461MOL0     C63484   5.407   2.859  11.282 -0.7882  0.2034 -0.3880
  461MOL0     C63485   5.504   2.956  11.323 -0.1589 -0.0693 -0.0825
  461MOL0     C63486   5.642   2.933  11.301 -0.9235  0.6487  0.0746
  461MOL0     C63487   5.693   2.821  11.229  0.1740 -0.2374  0.0345
  461MOL0     O63488   5.836   2.822  11.228  0.4383  0.6146  0.4315
  461MOL0     C63489   5.892   2.689  11.215 -0.3557 -0.1642  0.3266
  461MOL0     C63490   6.038   2.704  11.205 -0.6402 -0.2229  0.1066
  461MOL0     C63491   6.118   2.752  11.324  1.1826  0.6754  0.1423
  461MOL0     C63492   6.262   2.779  11.286  0.5429 -1.2361 -0.8535
  461MOL0     C63493   6.341   2.828  11.407  0.4113  0.4797  0.0761
  461MOL0     C63494   6.488   2.851  11.363  0.3104  0.2368 -0.1082
  461MOL0     C63495   6.580   2.882  11.487  0.5603 -1.1156 -0.9485
  461MOL0     C63496   6.717   2.951  11.451 -1.7661  0.5043  0.3745
  461MOL0     N63497   6.798   2.959  11.570 -1.6512 -0.0588 -0.5645
  461MOL0     C63498   6.788   2.888  11.684  0.1839 -0.1776 -0.5808
  461MOL0     C63499   6.907   2.893  11.750 -0.4400 -0.2078  0.3861
  461MOL0     C63500   6.962   2.816  11.868 -0.4469 -0.3258 -0.1097
  461MOL0     C63501   6.927   2.893  11.997 -0.2392 -0.2053  0.0621
  461MOL0     C63502   7.014   2.851  12.122  0.1650  0.3310 -0.0303
  461MOL0     C63503   6.966   2.729  12.194 -0.2536 -0.4777  0.0768
  461MOL0     O63504   6.968   2.604  12.125 -0.1750  0.2687 -0.4895
  461MOL0     C63505   7.099   2.546  12.115  0.7203 -1.5043  0.3449
  461MOL0     C63506   7.105   2.458  12.013 -0.6410  0.4038  0.7484
  461MOL0     C63507   7.219   2.368  11.997 -0.0471 -0.0084  0.1402
  461MOL0     C63508   7.213   2.268  11.898 -0.2095  0.3779  0.2838
  461MOL0     C63509   7.330   2.386  12.088  0.3150 -0.1100 -0.2444
  461MOL0     C63510   7.447   2.291  12.091  0.1340 -1.3212 -0.2901
  461MOL0     O63511   7.563   2.361  12.080  0.2219 -0.2205 -0.2127
  461MOL0     C63512   7.674   2.279  12.102  0.5452  0.1242  0.0096
  461MOL0     C63513   7.727   2.193  12.014 -0.5406 -0.2518  0.9799
  461MOL0     C63514   7.841   2.109  12.031  0.4020  0.0382  0.7507
  461MOL0     C63515   7.897   2.109  12.157  0.3852 -0.1870 -0.5988
  461MOL0     O63516   8.004   2.023  12.180  0.0968  0.4274  0.3356
  461MOL0     C63517   8.044   1.980  12.314 -0.1397  0.1920 -0.4363
  461MOL0     C63518   8.152   1.873  12.301  0.3997  0.1424 -0.4176
  461MOL0     C63519   8.220   1.827  12.431  0.0082 -0.4871  0.1883
  461MOL0     C63520   8.120   1.786  12.557 -0.2924 -0.2736  0.2366
  461MOL0     C63521   8.187   1.743  12.683  0.3025  0.3820 -0.0938
  461MOL0     C63522   8.084   1.738  12.801 -0.9763  0.1257 -0.1378
  461MOL0     C63523   8.119   1.664  12.936  0.3185 -0.5266  0.2868
  461MOL0     C63524   8.178   1.523  12.904 -0.1889 -1.0493  0.1976
  461MOL0    Cl63525   8.092   1.423  12.785 -0.1390  0.4576 -0.2527
  461MOL0     C63526   7.835   2.184  12.261 -0.1153 -0.8844 -0.4071
  461MOL0     C63527   7.723   2.263  12.231 -0.4224 -0.0685  0.0253
  461MOL0     O63528   7.427   2.176  12.119  0.1900  0.2767 -0.0226
  461MOL0     C63529   7.322   2.489  12.176  0.7079 -0.4244 -0.1380
  461MOL0     C63530   7.218   2.574  12.178  0.1191  0.2888 -1.1564
  461MOL0     N63531   6.988   2.967  11.668 -0.6632 -0.1118 -0.4204
  461MOL0     N63532   6.926   3.016  11.572 -0.0139 -0.0621  0.2231
  461MOL0     C63533   5.598   2.725  11.193  0.3405 -0.0752 -0.2102
  461MOL0     C63534   5.459   2.741  11.222  0.8665 -0.9434 -1.2931
  461MOL0     C63535   5.064   2.869  11.405  0.2318  0.2899  0.5681
  461MOL0     C63536   5.059   3.007  11.420  0.5111 -0.6232  0.4281
  461MOL0     C63537   4.957   3.074  11.482 -0.2897  1.1842 -0.1983
  461MOL0     C63538   4.834   3.018  11.515 -0.4530 -0.5644  0.4920
  461MOL0     O63539   4.727   3.082  11.567  0.9606  0.1141 -0.5462
  461MOL0     C63540   4.656   3.019  11.675  0.5089  0.2292  0.5071
  461MOL0     C63541   4.642   3.122  11.777  0.0006 -0.4259 -1.1464
  461MOL0     C63542   4.605   3.056  11.908 -0.0861  0.1588 -0.7490
  461MOL0     C63543   4.532   3.155  12.006  0.0326  0.3683  0.6543
  461MOL0     C63544   4.618   3.258  12.077 -0.4943 -0.4846 -0.9324
  461MOL0     C63545   4.673   3.344  12.135 -0.3840 -0.0476 -0.6495
  461MOL0     C63546   4.834   2.875  11.492  0.3431  0.7122  1.0579
  461MOL0     C63547   4.942   2.808  11.437  0.2127 -0.6726  0.3573
  461MOL0     C63548   4.913   2.668  11.386 -0.4107  0.9866  0.3395
  461MOL0     H63549   5.469   3.048  11.368  2.2134  1.8857 -1.9098
  461MOL0     H63550   5.724   3.000  11.326  1.1857 -1.0811 -1.7568
  461MOL0     H63551   5.849   2.635  11.130 -3.3591 -1.0649  2.2370
  461MOL0     H63552   5.884   2.630  11.307 -2.8531 -0.1263  0.2085
  461MOL0     H63553   6.087   2.608  11.187  3.4025  1.4534  0.8431
  461MOL0     H63554   6.074   2.760  11.118  0.8973 -1.0226  0.1950
  461MOL0     H63555   6.066   2.844  11.352  1.3023  0.7940 -0.0224
  461MOL0     H63556   6.110   2.677  11.403 -1.6336  0.7683  0.0705
  461MOL0     H63557   6.312   2.693  11.240  1.0263 -1.2725 -0.2680
  461MOL0     H63558   6.252   2.865  11.219 -1.4948 -0.8300 -0.1084
  461MOL0     H63559   6.342   2.746  11.480  0.0130  0.4592  0.0576
  461MOL0     H63560   6.294   2.923  11.433 -1.3340 -0.5535  0.8414
  461MOL0     H63561   6.534   2.764  11.315  0.0273  1.7101 -3.2975
  461MOL0     H63562   6.480   2.932  11.290 -0.5063 -0.9015 -1.3266
  461MOL0     H63563   6.583   2.787  11.541 -3.3501 -0.3683  0.9611
  461MOL0     H63564   6.520   2.944  11.554 -0.8666 -1.7507 -1.6035
  461MOL0     H63565   6.767   2.886  11.379 -1.7989 -0.2792  1.0413
  461MOL0     H63566   6.703   3.049  11.406  0.5353 -0.8455 -3.8482
  461MOL0     H63567   6.705   2.828  11.719 -1.6484  3.2040  1.3163
  461MOL0     H63568   7.070   2.817  11.848 -0.5154 -0.0809 -0.4722
  461MOL0     H63569   6.925   2.713  11.865 -0.7313 -0.1988 -1.3255
  461MOL0     H63570   6.921   2.997  11.963 -2.7497 -0.6089 -1.0012
  461MOL0     H63571   6.819   2.882  12.016 -1.0239  3.6349 -1.2402
  461MOL0     H63572   7.112   2.826  12.080  0.9853  1.7362  0.9662
  461MOL0     H63573   7.030   2.937  12.188  1.0294 -0.4738  0.8373
  461MOL0     H63574   7.015   2.730  12.292 -1.0581  0.5826  0.4860
  461MOL0     H63575   6.863   2.757  12.216 -0.3037  0.2984 -1.0483
  461MOL0     H63576   7.020   2.459  11.946 -0.4466  1.3783  0.5028
  461MOL0     H63577   7.289   2.290  11.822  0.3429  0.4935  0.8624
  461MOL0     H63578   7.109   2.258  11.864 -0.4381  0.4445  0.9533
  461MOL0     H63579   7.243   2.169  11.936 -0.9850  0.7796  2.0324
  461MOL0     H63580   7.688   2.184  11.913  1.6111 -1.6805  0.1837
  461MOL0     H63581   7.868   2.034  11.958  1.3038 -0.1420  1.2470
  461MOL0     H63582   8.093   2.059  12.372 -2.3134  1.8892 -0.8071
  461MOL0     H63583   7.963   1.928  12.366 -1.3264  0.6697 -1.7381
  461MOL0     H63584   8.103   1.792  12.247 -0.8375 -1.2728  2.5641
  461MOL0     H63585   8.229   1.917  12.236 -1.0683  2.6676 -0.6021
  461MOL0     H63586   8.269   1.918  12.466 -3.1710  1.5116 -0.2012
  461MOL0     H63587   8.292   1.748  12.407 -1.0126 -1.2067 -0.5988
  461MOL0     H63588   8.044   1.712  12.529 -0.3385  0.0448 -0.4865
  461MOL0     H63589   8.057   1.870  12.589  1.3591 -0.0801  3.4001
  461MOL0     H63590   8.228   1.645  12.660 -1.5575 -0.0910 -1.6643
  461MOL0     H63591   8.266   1.814  12.712  0.7976  0.4396 -1.5219
  461MOL0     H63592   7.999   1.681  12.764 -1.6505 -0.6926  2.4231
  461MOL0     H63593   8.062   1.841  12.831  0.9741  0.5068  0.1195
  461MOL0     H63594   8.027   1.658  12.994 -0.4593 -0.8564 -0.9410
  461MOL0     H63595   8.194   1.724  12.990  0.3968 -0.8448  0.5348
  461MOL0     H63596   8.200   1.459  12.990  0.5896 -4.7757 -2.4932
  461MOL0     H63597   8.278   1.541  12.863 -1.0456 -1.3759 -2.1518
  461MOL0     H63598   7.888   2.188  12.355  3.8406 -3.3716 -2.2599
  461MOL0     H63599   7.687   2.315  12.320  2.4782  0.9607  0.7173
  461MOL0     H63600   7.403   2.514  12.244 -0.8938 -0.6289  1.9131
  461MOL0     H63601   7.225   2.652  12.253 -0.4759 -0.5930 -0.1634
  461MOL0     H63602   5.631   2.633  11.146 -0.2817 -0.1598 -0.4817
  461MOL0     H63603   5.387   2.679  11.169 -0.4912  0.6121 -1.3834
  461MOL0     H63604   5.141   3.076  11.402  0.5234  0.0623  2.7463
  461MOL0     H63605   4.978   3.178  11.505  0.7073  0.6567  1.4760
  461MOL0     H63606   4.564   2.970  11.639  0.1925  1.7770 -0.8852
  461MOL0     H63607   4.712   2.936  11.720 -0.6841 -1.1178 -0.3852
  461MOL0     H63608   4.583   3.209  11.746  2.7410  1.8926 -0.2772
  461MOL0     H63609   4.740   3.165  11.798 -0.3662  0.4624 -1.2266
  461MOL0     H63610   4.531   2.977  11.892  0.8981 -1.2260  1.2178
  461MOL0     H63611   4.701   3.012  11.940  1.2680  3.8168  0.7110
  461MOL0     H63612   4.492   3.096  12.088 -1.6901  2.0774  1.1169
  461MOL0     H63613   4.449   3.201  11.951  0.3262 -2.4090 -2.4140
  461MOL0     H63614   4.732   3.421  12.181 -1.4400 -0.3539  1.3126
  461MOL0     H63615   4.746   2.813  11.506 -1.9593  3.9978  2.3775
  461MOL0     H63616   4.867   2.665  11.287 -0.4089 -1.8116  0.3610
  461MOL0     H63617   5.006   2.615  11.364 -0.8831  0.5245 -0.6482
  461MOL0     H63618   4.850   2.614  11.458  1.2499 -0.8944  0.4455
  462MOL0     O63619   4.896   2.814   4.584  0.0666  0.2235 -0.0136
  462MOL0     C63620   4.985   2.876   4.637 -0.1029  0.7413  0.4493
  462MOL0     O63621   5.008   2.877   4.771  0.1606 -0.7570 -0.2350
  462MOL0     C63622   4.937   2.786   4.843 -0.1141 -0.5799  0.1179
  462MOL0     C63623   4.962   2.646   4.851 -0.1447  0.7492  0.5419
  462MOL0     C63624   4.880   2.568   4.926  0.6614  1.2445  0.1199
  462MOL0     C63625   4.762   2.625   4.996 -0.3666  0.4077 -0.5722
  462MOL0     O63626   4.673   2.547   5.073  0.4921  0.2048  0.5275
  462MOL0     C63627   4.646   2.411   5.037  0.1165  1.2667 -0.2841
  462MOL0     C63628   4.525   2.342   5.108 -0.2822  0.1949  0.3568
  462MOL0     C63629   4.386   2.409   5.089  0.2576 -0.1554  0.2359
  462MOL0     C63630   4.279   2.322   5.162 -0.3116  0.7356 -0.4744
  462MOL0     C63631   4.146   2.387   5.152 -1.2674  0.6150  0.4211
  462MOL0     C63632   4.061   2.341   5.274 -0.5200 -0.1013  0.2857
  462MOL0     C63633   3.919   2.400   5.260  0.1271 -0.4045  0.1699
  462MOL0     C63634   3.821   2.335   5.157  0.5039  0.1141  0.0236
  462MOL0     N63635   3.764   2.428   5.058 -0.0536 -0.6006  0.5366
  462MOL0     C63636   3.848   2.495   4.974 -0.4865 -0.6951 -0.1041
  462MOL0     C63637   3.774   2.560   4.891  1.0890 -0.0332  2.2224
  462MOL0     C63638   3.817   2.658   4.783 -0.1466  0.4670 -0.1642
  462MOL0     C63639   3.713   2.675   4.672 -0.4243 -0.1256  0.9029
  462MOL0     C63640   3.716   2.552   4.570  0.1851  0.2679  0.8582
  462MOL0     C63641   3.665   2.589   4.429  0.1983  0.0334  0.2850
  462MOL0     O63642   3.746   2.557   4.318 -0.3862  0.5076 -0.9791
  462MOL0     C63643   3.772   2.430   4.292  0.0390 -0.1828  0.2242
  462MOL0     C63644   3.692   2.324   4.347 -0.1055  0.2278  0.2887
  462MOL0     C63645   3.701   2.193   4.296 -0.3867 -0.2523 -0.3669
  462MOL0     C63646   3.599   2.109   4.364  0.0580  0.4654 -0.2080
  462MOL0     C63647   3.799   2.165   4.197 -0.8536 -0.4382  0.0955
  462MOL0     C63648   3.813   2.028   4.147 -0.2377 -0.3495  0.2852
  462MOL0     O63649   3.940   2.012   4.085 -0.7122 -0.2473  0.2498
  462MOL0     C63650   3.966   1.898   4.016 -0.5919 -1.2050  0.4007
  462MOL0     C63651   3.888   1.852   3.916  0.5446  0.7622 -0.1139
  462MOL0     C63652   3.937   1.737   3.841 -0.0501 -0.8350 -0.4077
  462MOL0     C63653   4.054   1.668   3.862  0.2272 -0.1175  0.6780
  462MOL0     O63654   4.097   1.556   3.788  0.1371 -0.3327 -0.6603
  462MOL0     C63655   3.986   1.472   3.754  0.1106  0.4470  0.4118
  462MOL0     C63656   4.054   1.347   3.683 -0.0564 -0.0458 -0.6243
  462MOL0     C63657   3.954   1.244   3.634  0.0948  0.1421 -0.2298
  462MOL0     C63658   3.995   1.166   3.504  0.3941  0.1701 -0.7527
  462MOL0     C63659   4.041   1.254   3.391 -0.3333  0.5069 -0.5021
  462MOL0     C63660   4.031   1.178   3.259  0.1039  0.1056  0.4293
  462MOL0     C63661   4.069   1.265   3.143  0.4564 -1.2055  0.2003
  462MOL0     C63662   4.213   1.307   3.144  0.6980 -0.5175  0.0809
  462MOL0    Cl63663   4.338   1.178   3.171  0.1025 -0.2174 -0.1873
  462MOL0     C63664   4.136   1.730   3.966  0.3259  0.0028 -0.6469
  462MOL0     C63665   4.097   1.844   4.042  0.9397 -0.2572 -0.1427
  462MOL0     O63666   3.718   1.942   4.161  0.4285  0.0528  0.5932
  462MOL0     C63667   3.875   2.276   4.139  0.3014 -0.2836  0.2037
  462MOL0     C63668   3.857   2.410   4.184  0.3935  0.6137 -0.4220
  462MOL0     N63669   3.645   2.521   4.910 -0.0155  0.2418 -0.5560
  462MOL0     N63670   3.637   2.428   5.003  0.5874  0.1748  0.6161
  462MOL0     C63671   4.742   2.759   5.001  0.0891  0.0237 -0.4479
  462MOL0     C63672   4.829   2.839   4.916  0.2289 -0.1685 -0.1190
  462MOL0     C63673   5.074   2.962   4.559 -0.5645 -0.7432 -0.0172
  462MOL0     C63674   5.171   3.029   4.627 -0.1065 -0.1574  0.5186
  462MOL0     C63675   5.256   3.125   4.566  0.0612  0.0658 -0.1680
  462MOL0     C63676   5.246   3.134   4.425 -0.2271  0.2873 -0.0278
  462MOL0     O63677   5.342   3.211   4.357  0.0752  0.0824  0.3873
  462MOL0     C63678   5.368   3.193   4.217  0.3062  0.3159 -0.6711
  462MOL0     C63679   5.514   3.238   4.182 -0.5290 -0.0435  0.4027
  462MOL0     C63680   5.614   3.134   4.241 -0.3728 -0.2898  0.5771
  462MOL0     C63681   5.642   3.036   4.126 -0.4319  0.5164  0.1974
  462MOL0     C63682   5.714   2.909   4.141 -0.8233  0.2174 -0.5071
  462MOL0     C63683   5.779   2.807   4.167  0.2370 -0.0207  0.3047
  462MOL0     C63684   5.139   3.080   4.358  0.6117 -0.0419 -0.1099
  462MOL0     C63685   5.049   2.998   4.421  0.9804 -0.5136  0.2832
  462MOL0     C63686   4.934   2.965   4.334 -0.2105  0.4746 -0.3444
  462MOL0     H63687   5.038   2.608   4.784 -1.5549 -0.1933 -0.5826
  462MOL0     H63688   4.896   2.461   4.930  1.3946  1.3918  1.8989
  462MOL0     H63689   4.728   2.343   5.062 -2.1935 -2.0407 -0.9661
  462MOL0     H63690   4.633   2.407   4.929 -0.2094 -3.1619 -0.2937
  462MOL0     H63691   4.510   2.241   5.070 -0.0295  0.2166  0.1962
  462MOL0     H63692   4.541   2.334   5.216 -3.3898  1.4023  1.0257
  462MOL0     H63693   4.380   2.515   5.117  0.4646 -0.0000 -0.2941
  462MOL0     H63694   4.370   2.408   4.981  0.5814  0.2454  0.1818
  462MOL0     H63695   4.255   2.226   5.115  0.7984  0.4295 -0.4396
  462MOL0     H63696   4.312   2.307   5.265  1.4026 -0.1457 -1.1216
  462MOL0     H63697   4.113   2.362   5.051 -0.1511  0.5407  0.0621
  462MOL0     H63698   4.157   2.495   5.165  0.2073  0.3548  1.6282
  462MOL0     H63699   4.063   2.232   5.287  3.4318 -0.1259  0.6710
  462MOL0     H63700   4.111   2.389   5.359  3.4934  2.0903 -2.9887
  462MOL0     H63701   3.911   2.505   5.230  0.9848  1.0061  4.2599
  462MOL0     H63702   3.867   2.399   5.357 -2.0523  2.8131 -0.8006
  462MOL0     H63703   3.872   2.249   5.111  1.9841 -0.3958  2.4438
  462MOL0     H63704   3.733   2.292   5.206  1.9916 -1.0086  1.8550
  462MOL0     H63705   3.951   2.528   4.991 -1.6936  3.5625  0.3069
  462MOL0     H63706   3.907   2.629   4.727 -0.2451 -1.9916  0.8231
  462MOL0     H63707   3.837   2.754   4.832 -0.4163  1.6926 -2.3515
  462MOL0     H63708   3.615   2.670   4.720 -1.3267 -3.7935 -0.9696
  462MOL0     H63709   3.724   2.772   4.622  1.8448  0.8875  3.1439
  462MOL0     H63710   3.820   2.524   4.554  1.3857  2.7982  3.3717
  462MOL0     H63711   3.658   2.467   4.608 -1.3301 -0.1165 -2.0806
  462MOL0     H63712   3.563   2.554   4.414 -0.4180  1.8154  0.0808
  462MOL0     H63713   3.646   2.697   4.428 -3.3016 -0.4814 -1.0857
  462MOL0     H63714   3.639   2.331   4.442  2.0606  4.0054  1.4319
  462MOL0     H63715   3.661   2.024   4.393  2.3045  1.6101 -1.3428
  462MOL0     H63716   3.536   2.080   4.280  2.2441 -2.3494 -1.0277
  462MOL0     H63717   3.535   2.138   4.448  1.4214 -1.0100  1.4319
  462MOL0     H63718   3.790   1.895   3.896 -0.2484 -1.5753 -1.5609
  462MOL0     H63719   3.876   1.709   3.756  2.7737 -1.5235 -2.3400
  462MOL0     H63720   3.926   1.439   3.839  2.3593 -2.9156  0.8872
  462MOL0     H63721   3.919   1.517   3.679  0.7697 -0.3169 -0.6663
  462MOL0     H63722   4.122   1.382   3.605  1.8488 -0.0049  0.9643
  462MOL0     H63723   4.120   1.308   3.762  0.5016  1.4542 -0.3164
  462MOL0     H63724   3.863   1.303   3.615  0.3466  0.2067 -1.2998
  462MOL0     H63725   3.939   1.175   3.717 -2.2755  0.7125 -0.1079
  462MOL0     H63726   3.909   1.102   3.480  0.9098 -0.9709  0.3399
  462MOL0     H63727   4.070   1.090   3.524 -0.5988 -1.8305 -3.8659
  462MOL0     H63728   3.988   1.349   3.404  0.5303  0.9275  0.1236
  462MOL0     H63729   4.145   1.287   3.399 -0.9152  2.6306 -1.0202
  462MOL0     H63730   3.929   1.138   3.250 -0.2089  0.7119  1.1705
  462MOL0     H63731   4.103   1.097   3.252  0.9648  1.0078 -2.5171
  462MOL0     H63732   4.007   1.354   3.153  0.5241 -0.8945 -1.8460
  462MOL0     H63733   4.048   1.213   3.049  2.3339 -2.4087  0.4032
  462MOL0     H63734   4.233   1.384   3.220 -0.2137 -0.7089  0.5370
  462MOL0     H63735   4.238   1.349   3.046 -0.2370 -0.9666 -0.3571
  462MOL0     H63736   4.221   1.680   4.010  0.2016  1.4621  1.3850
  462MOL0     H63737   4.141   1.882   4.134 -1.1057  0.1278  0.7160
  462MOL0     H63738   3.933   2.265   4.048 -1.5749  0.3955 -1.1293
  462MOL0     H63739   3.911   2.489   4.133  2.2913  0.4212  1.1651
  462MOL0     H63740   4.662   2.798   5.063  1.4061  0.3210  1.1565
  462MOL0     H63741   4.804   2.944   4.909 -0.6822 -0.4783 -2.0621
  462MOL0     H63742   5.177   3.020   4.735 -0.7949  0.8324  0.6533
  462MOL0     H63743   5.349   3.163   4.608  0.0989  1.4652 -1.3881
  462MOL0     H63744   5.346   3.088   4.201  0.2785 -0.8383  4.8277
  462MOL0     H63745   5.305   3.262   4.160 -1.5574 -0.9675 -0.2403
  462MOL0     H63746   5.538   3.337   4.221 -0.6021  0.5485 -1.0048
  462MOL0     H63747   5.531   3.243   4.074  3.1008  0.2802  0.8522
  462MOL0     H63748   5.703   3.185   4.280 -0.4288 -0.5020  0.9871
  462MOL0     H63749   5.575   3.083   4.329  0.9405 -3.3208 -0.4536
  462MOL0     H63750   5.689   3.086   4.041  0.0040  1.7311  1.1200
  462MOL0     H63751   5.543   3.000   4.094  0.8161 -1.0499 -2.1801
  462MOL0     H63752   5.832   2.718   4.194  0.5436  0.3199  0.8403
  462MOL0     H63753   5.127   3.102   4.252  0.6028  0.4988  0.0020
  462MOL0     H63754   4.941   3.029   4.245  2.5054  1.8873  0.7606
  462MOL0     H63755   4.933   2.858   4.311  0.5137  0.2112  0.7787
  462MOL0     H63756   4.835   2.995   4.371 -1.5995  0.6283 -3.8237
  463MOL0     O63757   1.031   3.194   2.671  0.1182 -1.4692  0.5489
  463MOL0     C63758   1.144   3.212   2.623  0.1948  0.2042 -0.6605
  463MOL0     O63759   1.192   3.122   2.528 -0.7925 -1.0152 -0.9444
  463MOL0     C63760   1.145   3.002   2.537  0.7656  0.4923 -0.0023
  463MOL0     C63761   1.205   2.903   2.619  0.4886 -0.2907 -0.1759
  463MOL0     C63762   1.157   2.766   2.636  0.0872 -0.6469  0.5894
  463MOL0     C63763   1.037   2.725   2.565 -0.1369 -0.1198 -0.6260
  463MOL0     O63764   0.963   2.610   2.575 -0.2005 -0.0456  0.3066
  463MOL0     C63765   1.027   2.491   2.630 -0.1970 -0.8513  0.2822
  463MOL0     C63766   0.946   2.367   2.638 -0.0262  0.5958  0.2597
  463MOL0     C63767   0.816   2.381   2.716  0.4396 -0.0294 -1.3729
  463MOL0     C63768   0.710   2.268   2.710  0.4442  1.0302 -0.2365
  463MOL0     C63769   0.755   2.125   2.716 -0.4524  0.2261 -0.7607
  463MOL0     C63770   0.643   2.019   2.723  0.3726  0.4650 -0.5260
  463MOL0     C63771   0.713   1.883   2.737  0.6410  0.8825 -0.1010
  463MOL0     C63772   0.804   1.841   2.619 -0.0621 -0.1121  0.0611
  463MOL0     N63773   0.798   1.692   2.604 -0.7944  0.2749  0.2116
  463MOL0     C63774   0.729   1.631   2.502 -0.3605  0.5619 -0.5087
  463MOL0     C63775   0.784   1.510   2.503 -0.7010  0.5944  0.2806
  463MOL0     C63776   0.727   1.404   2.415  0.2736  0.7588  1.5034
  463MOL0     C63777   0.626   1.308   2.494  0.3664 -0.0843  0.0443
  463MOL0     C63778   0.518   1.394   2.556 -0.1258  0.3930 -0.5954
  463MOL0     C63779   0.392   1.310   2.584  0.2909  0.1117  0.6441
  463MOL0     O63780   0.324   1.273   2.465 -0.1216  0.2375  0.1198
  463MOL0     C63781   0.180   1.267   2.454 -0.4789  0.7072 -0.0746
  463MOL0     C63782   0.095   1.290   2.566 -0.2290 -0.0070 -0.2360
  463MOL0     C63783  -0.041   1.277   2.564  0.1533  0.9710 -0.6063
  463MOL0     C63784  -0.124   1.286   2.688  0.0535 -0.7801 -0.5977
  463MOL0     C63785  -0.099   1.237   2.442  0.7682 -0.9877 -0.2774
  463MOL0     C63786  -0.245   1.227   2.432  0.0445 -0.2727  0.5352
  463MOL0     O63787  -0.323   1.340   2.401  0.1600 -0.2937 -0.2048
  463MOL0     C63788  -0.458   1.348   2.430  0.0985  0.8287  0.5847
  463MOL0     C63789  -0.509   1.306   2.549 -0.8912  0.4687 -0.0266
  463MOL0     C63790  -0.642   1.342   2.597 -0.9802 -0.4695  0.6609
  463MOL0     C63791  -0.719   1.425   2.515 -0.7338 -0.1683  0.5182
  463MOL0     O63792  -0.837   1.476   2.556 -0.3075 -0.0547  0.2834
  463MOL0     C63793  -0.828   1.554   2.678 -0.6837  0.0364  0.4703
  463MOL0     C63794  -0.951   1.648   2.698 -0.0452 -0.5753 -0.2589
  463MOL0     C63795  -1.082   1.577   2.716 -0.3140  0.1226  0.6236
  463MOL0     C63796  -1.095   1.488   2.847 -0.1640 -0.7657 -0.6306
  463MOL0     C63797  -1.084   1.570   2.980  0.8426 -0.5612 -0.7935
  463MOL0     C63798  -1.136   1.501   3.104  0.1409  0.6194 -0.6744
  463MOL0     C63799  -1.083   1.354   3.122  0.3072 -0.4964  0.0613
  463MOL0     C63800  -1.180   1.275   3.209  0.1782 -0.1728  0.9067
  463MOL0    Cl63801  -1.328   1.243   3.103  0.4026 -0.0355  0.0424
  463MOL0     C63802  -0.667   1.472   2.396 -0.9923 -1.1405 -0.5467
  463MOL0     C63803  -0.536   1.427   2.354  0.8810  0.1995 -0.1782
  463MOL0     O63804  -0.290   1.116   2.451 -0.3609 -0.4431 -0.4827
  463MOL0     C63805  -0.021   1.232   2.330  0.6028 -0.5568  0.1278
  463MOL0     C63806   0.121   1.244   2.333 -0.4990  0.6078  0.5051
  463MOL0     N63807   0.889   1.493   2.588 -0.2552 -0.1568  0.8085
  463MOL0     N63808   0.888   1.604   2.655 -0.4294  0.0612  0.6128
  463MOL0     C63809   0.973   2.826   2.488 -0.4400  0.2065  0.3883
  463MOL0     C63810   1.030   2.962   2.477  0.6299  0.1406  0.0871
  463MOL0     C63811   1.219   3.329   2.650  0.7114 -1.0869  0.0273
  463MOL0     C63812   1.153   3.434   2.701  0.6057  0.0574 -0.3925
  463MOL0     C63813   1.213   3.560   2.722 -0.6732  1.0515 -1.4674
  463MOL0     C63814   1.347   3.581   2.700  0.1185  0.0897 -0.3080
  463MOL0     O63815   1.391   3.711   2.710  0.1728  0.1848  0.2915
  463MOL0     C63816   1.524   3.748   2.691 -0.9000 -0.4623  0.3621
  463MOL0     C63817   1.604   3.700   2.810 -0.0601  0.4513  0.0938
  463MOL0     C63818   1.730   3.784   2.826  0.0405  0.0135  0.0411
  463MOL0     C63819   1.805   3.756   2.959  0.3955 -0.1939  0.4198
  463MOL0     C63820   1.920   3.845   2.971 -0.8251 -0.2532  0.2286
  463MOL0     C63821   2.025   3.908   2.994 -0.0411  0.3943 -0.8039
  463MOL0     C63822   1.419   3.473   2.641 -0.5520  1.0725 -0.4380
  463MOL0     C63823   1.360   3.348   2.611  0.5191  0.2575  0.0307
  463MOL0     C63824   1.445   3.252   2.530 -0.8293 -0.0673 -0.0849
  463MOL0     H63825   1.303   2.930   2.658  1.0447 -1.8556 -0.4125
  463MOL0     H63826   1.200   2.708   2.717 -1.2706 -1.4605  0.7595
  463MOL0     H63827   1.082   2.514   2.722 -0.4369 -1.1048  0.4884
  463MOL0     H63828   1.115   2.475   2.566 -0.8848 -0.3725 -0.8154
  463MOL0     H63829   0.921   2.341   2.534  1.6633 -1.8214  0.3693
  463MOL0     H63830   1.003   2.286   2.683  0.3540  0.9144  0.3512
  463MOL0     H63831   0.848   2.384   2.820 -1.1408 -2.2526 -0.7626
  463MOL0     H63832   0.764   2.477   2.702  0.6840  0.1149 -1.2952
  463MOL0     H63833   0.644   2.276   2.797 -3.0811 -1.3871 -2.3875
  463MOL0     H63834   0.630   2.281   2.636  0.2355  3.7275  0.3668
  463MOL0     H63835   0.815   2.119   2.808  0.2682  0.8963 -1.1744
  463MOL0     H63836   0.826   2.097   2.638 -0.3293 -2.5748  0.2371
  463MOL0     H63837   0.591   2.045   2.816 -0.8165  0.9044 -1.2898
  463MOL0     H63838   0.568   2.022   2.643 -0.9922 -1.9674  0.5515
  463MOL0     H63839   0.632   1.810   2.736  0.5636  0.9534 -1.2968
  463MOL0     H63840   0.778   1.873   2.824  0.9906  0.6943 -0.3826
  463MOL0     H63841   0.768   1.877   2.522  0.8889 -2.8286 -1.4178
  463MOL0     H63842   0.909   1.871   2.626  0.7900 -1.5565 -3.6492
  463MOL0     H63843   0.650   1.674   2.442 -0.4152  0.0557 -0.8041
  463MOL0     H63844   0.807   1.342   2.372 -0.1278  0.9102  0.5030
  463MOL0     H63845   0.680   1.439   2.322  4.0880  0.6351 -0.7013
  463MOL0     H63846   0.583   1.229   2.432  0.7733  0.2338 -0.6632
  463MOL0     H63847   0.672   1.260   2.581  1.9459  1.6894  0.2721
  463MOL0     H63848   0.550   1.437   2.652 -0.2121 -3.5803  1.4216
  463MOL0     H63849   0.498   1.475   2.485 -0.9313  0.6197 -0.1368
  463MOL0     H63850   0.413   1.217   2.638 -1.3195  0.1648  1.3926
  463MOL0     H63851   0.335   1.372   2.653  0.9493  1.9097 -0.3557
  463MOL0     H63852   0.137   1.300   2.665 -1.3416  3.3101  0.0010
  463MOL0     H63853  -0.067   1.329   2.771  0.8789 -0.4677 -1.3020
  463MOL0     H63854  -0.161   1.188   2.720 -0.5434 -0.3958 -0.0935
  463MOL0     H63855  -0.212   1.349   2.676 -0.6666 -0.5393  4.1624
  463MOL0     H63856  -0.455   1.243   2.618 -0.8715  1.9890  1.4385
  463MOL0     H63857  -0.684   1.307   2.690 -2.4239 -1.6869 -0.3830
  463MOL0     H63858  -0.827   1.487   2.764  0.7708  1.6849  1.8123
  463MOL0     H63859  -0.740   1.619   2.685 -0.7326  0.5818 -2.5462
  463MOL0     H63860  -0.920   1.708   2.784  1.4752 -0.1627 -1.0571
  463MOL0     H63861  -0.968   1.722   2.620 -0.8331  0.9782  1.3334
  463MOL0     H63862  -1.094   1.509   2.631  0.8570 -1.3239  1.5728
  463MOL0     H63863  -1.168   1.644   2.720 -0.1057  0.5179 -0.8892
  463MOL0     H63864  -1.026   1.404   2.837  1.6998  0.5062  0.7275
  463MOL0     H63865  -1.197   1.450   2.847 -1.1248  1.6048 -1.1493
  463MOL0     H63866  -0.981   1.601   3.001  0.6234  0.1526 -0.7431
  463MOL0     H63867  -1.141   1.662   2.963 -0.1148 -1.5341 -3.3757
  463MOL0     H63868  -1.245   1.506   3.104 -0.1045 -2.4315  0.8582
  463MOL0     H63869  -1.112   1.559   3.193  2.6154  0.4253 -1.1406
  463MOL0     H63870  -0.981   1.358   3.163 -1.1719 -2.8729  4.6888
  463MOL0     H63871  -1.080   1.304   3.025 -0.1780 -0.2268 -0.0920
  463MOL0     H63872  -1.218   1.329   3.296  1.0889 -3.0063  3.2325
  463MOL0     H63873  -1.142   1.178   3.243  0.3927 -0.8891 -1.2753
  463MOL0     H63874  -0.709   1.559   2.347 -0.2548 -0.8227 -0.6183
  463MOL0     H63875  -0.494   1.482   2.271 -0.2004 -0.0155 -0.8947
  463MOL0     H63876  -0.071   1.202   2.238 -1.8103  1.5854  0.6137
  463MOL0     H63877   0.183   1.215   2.249 -1.4758 -2.3445  0.6681
  463MOL0     H63878   0.869   2.812   2.460  0.3021  1.2092 -3.3244
  463MOL0     H63879   0.968   3.026   2.415  1.3457  0.0970 -0.6979
  463MOL0     H63880   1.045   3.429   2.714  0.2442  1.0167 -2.6979
  463MOL0     H63881   1.143   3.639   2.746 -2.5450  0.1143 -3.5504
  463MOL0     H63882   1.552   3.690   2.602  0.8168 -0.9638  1.1980
  463MOL0     H63883   1.522   3.855   2.669 -1.2461 -1.3457 -5.7954
  463MOL0     H63884   1.627   3.594   2.790 -0.2308  0.6193 -1.0490
  463MOL0     H63885   1.539   3.684   2.896 -2.6693  0.9247 -1.6677
  463MOL0     H63886   1.804   3.771   2.746 -0.9565  0.1370 -0.9294
  463MOL0     H63887   1.703   3.890   2.830 -2.7195 -0.6392  1.8666
  463MOL0     H63888   1.830   3.649   2.960  1.7119  0.0988  0.7339
  463MOL0     H63889   1.731   3.779   3.036 -0.6668 -3.3530  0.4877
  463MOL0     H63890   2.122   3.951   3.006 -0.0917  0.2590  0.0983
  463MOL0     H63891   1.521   3.480   2.607 -1.1243  4.1087 -1.9072
  463MOL0     H63892   1.486   3.165   2.581 -2.8714 -3.3016 -3.5169
  463MOL0     H63893   1.387   3.212   2.447 -1.6252 -0.3684  0.6024
  463MOL0     H63894   1.531   3.306   2.489  0.7194 -2.7054 -0.5596
  464MOL0     O63895  10.865   1.655  11.431 -0.8249  0.2177 -0.8722
  464MOL0     C63896  10.977   1.663  11.391  0.0251 -0.2310  0.1831
  464MOL0     O63897  11.047   1.557  11.321  0.6908 -0.1178 -0.1892
  464MOL0     C63898  10.989   1.434  11.341 -0.8522  0.7014 -1.0688
  464MOL0     C63899  11.065   1.329  11.382  0.0761 -0.2017  0.1107
  464MOL0     C63900  11.026   1.197  11.375  0.3637 -0.8252  0.3688
  464MOL0     C63901  10.901   1.178  11.313  0.5383  0.6397  0.7447
  464MOL0     O63902  10.852   1.043  11.297 -0.5743  0.3756  0.1931
  464MOL0     C63903  10.883   0.944  11.406 -0.3030  0.6017  0.1818
  464MOL0     C63904  10.793   0.818  11.375 -0.9048 -0.3381  0.8627
  464MOL0     C63905  10.792   0.709  11.479 -1.2065 -0.4155 -0.3688
  464MOL0     C63906  10.924   0.721  11.558 -0.0388  0.5741  0.1348
  464MOL0     C63907  10.928   0.622  11.676 -0.0993  0.0213  0.7683
  464MOL0     C63908  10.942   0.471  11.620  0.4715  0.1598 -0.7545
  464MOL0     C63909  10.966   0.379  11.746 -0.1526  1.0725 -0.2263
  464MOL0     C63910  10.922   0.238  11.712  0.5895 -0.4858 -0.1573
  464MOL0     N63911  10.778   0.226  11.715  0.5991  0.3457 -0.0060
  464MOL0     C63912  10.690   0.209  11.611 -0.3859 -0.1734 -0.9745
  464MOL0     C63913  10.565   0.202  11.659 -0.1173 -0.7617  1.0552
  464MOL0     C63914  10.450   0.188  11.564  0.2924 -0.4598  1.4474
  464MOL0     C63915  10.374   0.312  11.535  0.6956  0.6825 -1.1529
  464MOL0     C63916  10.456   0.423  11.463  0.6591  0.1127 -0.0097
  464MOL0     C63917  10.374   0.542  11.423  0.9574 -0.3734  1.2649
  464MOL0     O63918  10.314   0.591  11.535  0.4590 -0.1636 -0.2841
  464MOL0     C63919  10.190   0.650  11.516 -0.7390 -0.1506  0.0038
  464MOL0     C63920  10.107   0.671  11.631 -0.2944  0.6404  0.0536
  464MOL0     C63921   9.978   0.728  11.623 -0.4731  0.3516  0.6814
  464MOL0     C63922   9.892   0.714  11.739 -0.0580  0.4946 -0.0486
  464MOL0     C63923   9.928   0.773  11.493  0.0094  0.3074  0.4377
  464MOL0     C63924   9.796   0.844  11.486 -0.4111  0.2790 -0.0756
  464MOL0     O63925   9.733   0.902  11.595  1.1526  0.0215  0.4752
  464MOL0     C63926   9.595   0.944  11.599  0.1283  0.4988 -0.6897
  464MOL0     C63927   9.490   0.871  11.553  0.4727  0.2499  0.5249
  464MOL0     C63928   9.358   0.901  11.595  0.4669  0.1911 -0.3077
  464MOL0     C63929   9.335   1.003  11.689 -0.1011 -0.0927  0.3404
  464MOL0     O63930   9.212   1.018  11.740  0.3629 -0.2729  0.5413
  464MOL0     C63931   9.195   1.119  11.843 -0.0855 -0.2429  0.3192
  464MOL0     C63932   9.054   1.122  11.906  0.5368 -0.8384  0.1372
  464MOL0     C63933   8.948   1.181  11.810 -0.5485 -0.4830 -0.2605
  464MOL0     C63934   8.804   1.184  11.861  0.7922 -1.1285 -0.7409
  464MOL0     C63935   8.702   1.220  11.753  0.2826 -0.5421 -0.3820
  464MOL0     C63936   8.607   1.102  11.743 -0.3426  0.0121 -0.7759
  464MOL0     C63937   8.484   1.140  11.652 -0.9170  0.2382  0.8063
  464MOL0     C63938   8.438   1.004  11.607 -0.1744  0.2194  0.5893
  464MOL0    Cl63939   8.339   0.940  11.755  0.0298 -0.7946 -0.2271
  464MOL0     C63940   9.445   1.081  11.730  0.0205 -0.9494 -0.0965
  464MOL0     C63941   9.575   1.049  11.682  0.0422  0.1378 -0.7424
  464MOL0     O63942   9.742   0.836  11.375 -0.2150  0.6006  0.6937
  464MOL0     C63943  10.012   0.758  11.376  0.3625 -0.3554 -0.2990
  464MOL0     C63944  10.142   0.709  11.399 -0.0098  0.4002 -0.2095
  464MOL0     N63945  10.576   0.208  11.796 -0.5204  0.1553  0.1265
  464MOL0     N63946  10.704   0.219  11.831  0.7826 -0.2280  0.0101
  464MOL0     C63947  10.821   1.285  11.255 -0.0188 -0.0016 -0.3149
  464MOL0     C63948  10.860   1.412  11.279 -1.2460 -0.3690  0.4385
  464MOL0     C63949  11.053   1.794  11.401  0.8527  0.0031  0.5679
  464MOL0     C63950  10.973   1.916  11.430  0.0637  0.6759  0.1528
  464MOL0     C63951  11.039   2.041  11.446  0.4333  0.6304 -0.6059
  464MOL0     C63952  11.175   2.065  11.436 -0.6002  1.2053  0.0654
  464MOL0     O63953  11.236   2.180  11.453 -0.1315 -0.9659  0.2223
  464MOL0     C63954  11.372   2.187  11.472 -0.8134 -0.3127  0.6649
  464MOL0     C63955  11.425   2.322  11.531  0.3021  0.6417 -0.1035
  464MOL0     C63956  11.433   2.432  11.426  0.5171 -0.3665  0.3760
  464MOL0     C63957  11.422   2.571  11.492 -0.1697  0.3984 -0.0760
  464MOL0     C63958  11.530   2.606  11.585  0.2872  0.0531  0.0759
  464MOL0     C63959  11.607   2.673  11.653  0.4790 -0.8606  0.8148
  464MOL0     C63960  11.247   1.946  11.403  0.5687 -0.7356 -0.5570
  464MOL0     C63961  11.194   1.816  11.394  0.9316  0.1923 -0.2263
  464MOL0     C63962  11.286   1.695  11.370  1.1517  0.1738  0.1613
  464MOL0     H63963  11.162   1.354  11.424  0.2972 -0.5891 -0.1595
  464MOL0     H63964  11.090   1.119  11.414  0.4536  0.3910  2.9202
  464MOL0     H63965  10.867   0.991  11.504  0.0113  3.6072 -1.1121
  464MOL0     H63966  10.990   0.923  11.400  0.1754  2.9994 -0.8418
  464MOL0     H63967  10.696   0.865  11.353 -1.6454 -0.9868  2.5966
  464MOL0     H63968  10.822   0.769  11.281 -2.3187  0.9535 -0.3218
  464MOL0     H63969  10.721   0.716  11.561 -0.2296 -2.3781  0.7096
  464MOL0     H63970  10.773   0.609  11.439 -0.8294 -0.7319  0.2285
  464MOL0     H63971  11.006   0.704  11.487 -0.4359 -1.2079  0.0518
  464MOL0     H63972  10.925   0.818  11.609 -1.9836  1.4769 -1.3864
  464MOL0     H63973  10.845   0.626  11.746 -0.2805  0.7023  0.5229
  464MOL0     H63974  11.014   0.642  11.742 -0.5282 -0.0616  1.3559
  464MOL0     H63975  10.847   0.449  11.572  0.6073  3.3146 -2.7264
  464MOL0     H63976  11.026   0.458  11.551  0.0888 -1.3467 -0.9757
  464MOL0     H63977  10.908   0.416  11.831 -1.3796 -1.3680  0.0867
  464MOL0     H63978  11.073   0.369  11.764 -0.1418 -2.7016 -1.4297
  464MOL0     H63979  10.973   0.222  11.617  3.1742  2.9489  0.4384
  464MOL0     H63980  10.959   0.171  11.790 -0.0512 -0.3131  0.3023
  464MOL0     H63981  10.718   0.202  11.506 -0.8356 -0.2735 -1.0921
  464MOL0     H63982  10.378   0.118  11.608 -0.3627 -0.4288  0.4727
  464MOL0     H63983  10.474   0.145  11.467 -2.8518  1.6999 -0.5230
  464MOL0     H63984  10.278   0.299  11.483  0.4440 -1.8767 -0.2140
  464MOL0     H63985  10.348   0.342  11.637  0.3975 -3.4300  0.1765
  464MOL0     H63986  10.535   0.469  11.523 -0.1302 -0.1741  1.2908
  464MOL0     H63987  10.498   0.384  11.370 -0.1340  3.3711 -1.9281
  464MOL0     H63988  10.428   0.625  11.377  1.3347  0.4627  3.1258
  464MOL0     H63989  10.304   0.505  11.347  0.4527  0.0263  1.5259
  464MOL0     H63990  10.130   0.615  11.721  2.7258  3.3947  1.1787
  464MOL0     H63991   9.915   0.800  11.801  0.3790  0.9688 -0.8457
  464MOL0     H63992   9.901   0.617  11.789 -2.0903 -0.0009 -0.5396
  464MOL0     H63993   9.784   0.706  11.727  0.0534 -3.4543  0.2419
  464MOL0     H63994   9.515   0.785  11.493 -1.2005  1.1493 -1.5823
  464MOL0     H63995   9.266   0.849  11.570  0.7080  0.5663 -2.0598
  464MOL0     H63996   9.267   1.113  11.925  0.0602  3.0820  0.5702
  464MOL0     H63997   9.213   1.213  11.789 -4.7741  0.9790  0.5030
  464MOL0     H63998   9.031   1.025  11.950  0.1356 -1.1661 -0.7750
  464MOL0     H63999   9.072   1.185  11.994  0.1688  1.5258 -1.3958
  464MOL0     H64000   8.954   1.118  11.720  0.7333  1.6157 -1.7269
  464MOL0     H64001   8.981   1.277  11.770  0.6224 -1.7824 -2.6191
  464MOL0     H64002   8.802   1.254  11.945  3.6991 -0.5600 -1.0529
  464MOL0     H64003   8.781   1.084  11.901 -0.2749 -1.1187 -1.3044
  464MOL0     H64004   8.662   1.315  11.788  1.9465  0.3296 -0.7970
  464MOL0     H64005   8.741   1.242  11.654 -3.2399  0.7718 -1.6351
  464MOL0     H64006   8.567   1.070  11.840  2.2183  2.0881  1.1106
  464MOL0     H64007   8.654   1.011  11.704 -2.0525 -0.0004 -2.9911
  464MOL0     H64008   8.526   1.195  11.567 -3.0949 -0.1467 -0.5930
  464MOL0     H64009   8.401   1.191  11.701 -1.0021 -1.0407  2.0529
  464MOL0     H64010   8.520   0.938  11.578  0.3706  1.0950  0.0596
  464MOL0     H64011   8.370   1.000  11.521 -1.0971 -0.5764  1.3313
  464MOL0     H64012   9.443   1.169  11.794 -0.2531  1.5431 -3.2628
  464MOL0     H64013   9.663   1.093  11.728 -1.0087  0.0298  1.4688
  464MOL0     H64014   9.970   0.780  11.278 -0.6903 -1.8762 -0.2119
  464MOL0     H64015  10.205   0.712  11.310  0.2907  1.7856  0.0161
  464MOL0     H64016  10.738   1.255  11.192 -0.1360  1.1561 -0.7491
  464MOL0     H64017  10.803   1.494  11.235 -1.0977 -1.3305 -1.6632
  464MOL0     H64018  10.867   1.924  11.448 -0.3068  0.3527 -1.7060
  464MOL0     H64019  10.983   2.126  11.484  4.0682  2.9722  0.0903
  464MOL0     H64020  11.406   2.114  11.546  1.1668  1.8503  2.0167
  464MOL0     H64021  11.431   2.173  11.382  1.8273 -1.4527  2.4364
  464MOL0     H64022  11.519   2.310  11.586 -1.2683  3.2944  3.5909
  464MOL0     H64023  11.372   2.354  11.622 -2.5569  0.1266 -1.4873
  464MOL0     H64024  11.515   2.429  11.354 -1.5690 -1.5284 -2.1423
  464MOL0     H64025  11.342   2.410  11.369  0.5101  2.0901 -0.7045
  464MOL0     H64026  11.324   2.581  11.540  0.2032  0.1935  0.7437
  464MOL0     H64027  11.431   2.640  11.407  1.2042 -0.0478 -0.3183
  464MOL0     H64028  11.676   2.733  11.709  1.0337 -0.0281 -0.6889
  464MOL0     H64029  11.353   1.968  11.387  0.4469  0.9485  0.6687
  464MOL0     H64030  11.385   1.732  11.400  1.3284  0.5687 -0.8832
  464MOL0     H64031  11.246   1.614  11.432  0.5744  0.0615 -0.3547
  464MOL0     H64032  11.283   1.653  11.269 -1.9677 -1.2167  0.7218
  465MOL0     O64033   7.929   9.209   8.391 -0.4608  0.3000 -0.2643
  465MOL0     C64034   7.888   9.194   8.276 -0.0180  0.0046  0.5717
  465MOL0     O64035   7.751   9.183   8.241 -1.4952  0.1386  0.5220
  465MOL0     C64036   7.649   9.190   8.326 -0.4171  0.7785 -0.4523
  465MOL0     C64037   7.658   9.157   8.468 -1.0196  0.0090 -0.4805
  465MOL0     C64038   7.552   9.185   8.555  0.2397  0.1566 -0.4144
  465MOL0     C64039   7.429   9.231   8.507 -0.8447 -1.1462  0.3035
  465MOL0     O64040   7.316   9.260   8.578 -1.6188 -0.1974 -1.1296
  465MOL0     C64041   7.312   9.214   8.713  1.1695  0.0081  0.5851
  465MOL0     C64042   7.179   9.266   8.779 -0.1064 -0.2182 -0.2277
  465MOL0     C64043   7.048   9.261   8.693 -1.1669 -0.4639  0.1864
  465MOL0     C64044   7.026   9.119   8.629  0.3956 -0.0972  0.1929
  465MOL0     C64045   6.875   9.093   8.579  0.0662 -0.4930 -0.1255
  465MOL0     C64046   6.853   8.941   8.592 -0.4144  0.8911 -0.7048
  465MOL0     C64047   6.719   8.884   8.550 -0.1100  0.2484  0.5800
  465MOL0     C64048   6.670   8.935   8.410 -0.2388 -0.3822  0.6428
  465MOL0     N64049   6.589   8.825   8.348  0.6774 -0.0837  0.2180
  465MOL0     C64050   6.451   8.814   8.364  0.1254 -0.0873 -0.5066
  465MOL0     C64051   6.419   8.739   8.261 -0.2883 -0.5687 -0.4111
  465MOL0     C64052   6.276   8.707   8.220  0.1855  0.2772  0.4878
  465MOL0     C64053   6.225   8.796   8.103 -0.0586 -0.0831  0.3129
  465MOL0     C64054   6.260   8.741   7.967 -0.0113  0.1750 -0.0826
  465MOL0     C64055   6.130   8.741   7.885  0.7348  0.3552 -0.0414
  465MOL0     O64056   6.160   8.721   7.741  0.4436  0.1286 -0.3435
  465MOL0     C64057   6.060   8.691   7.646 -0.2415  0.7019  0.2029
  465MOL0     C64058   5.924   8.704   7.667 -0.7832  0.9248 -0.3368
  465MOL0     C64059   5.825   8.656   7.584 -0.0903 -0.6931  0.2556
  465MOL0     C64060   5.687   8.672   7.637 -0.4528  0.4985 -0.1292
  465MOL0     C64061   5.863   8.611   7.455  0.5996  0.1665  0.4385
  465MOL0     C64062   5.772   8.560   7.353 -0.5175  0.9898  0.2921
  465MOL0     O64063   5.818   8.501   7.235 -0.2445 -0.2999 -0.3098
  465MOL0     C64064   5.745   8.411   7.169 -0.3351  0.9880 -0.8546
  465MOL0     C64065   5.639   8.457   7.093  0.8335 -0.2496  0.5302
  465MOL0     C64066   5.572   8.369   7.015  0.2408  0.1351 -0.1053
  465MOL0     C64067   5.601   8.233   7.013  0.1303  0.3745  0.4316
  465MOL0     O64068   5.530   8.147   6.934  0.1046  0.6640 -1.0515
  465MOL0     C64069   5.575   8.002   6.925  0.1546 -0.0437 -0.3131
  465MOL0     C64070   5.518   7.922   7.047  0.9551  0.7514  0.1144
  465MOL0     C64071   5.603   7.792   7.093 -1.4215 -0.2681  0.0492
  465MOL0     C64072   5.520   7.688   7.166  0.1466  0.2303 -1.2230
  465MOL0     C64073   5.590   7.544   7.165 -0.4015  0.1287 -0.2980
  465MOL0     C64074   5.733   7.536   7.239 -0.2437  0.3574  0.4801
  465MOL0     C64075   5.785   7.394   7.265  0.4886  0.2539  0.3291
  465MOL0     C64076   5.779   7.307   7.139 -0.2482 -0.4952 -0.6400
  465MOL0    Cl64077   5.862   7.151   7.182  0.0788  0.3487  0.0312
  465MOL0     C64078   5.705   8.187   7.103 -0.3147  1.1831  0.0183
  465MOL0     C64079   5.774   8.275   7.186 -0.8287  0.1836  0.4101
  465MOL0     O64080   5.656   8.584   7.370 -1.2507 -0.3710  0.2889
  465MOL0     C64081   6.003   8.591   7.431 -1.1498 -0.5364  0.3806
  465MOL0     C64082   6.101   8.623   7.523 -0.6213 -0.5766 -0.9259
  465MOL0     N64083   6.533   8.702   8.183  0.0957  0.1782 -0.4638
  465MOL0     N64084   6.638   8.752   8.236  0.6001 -0.0154 -1.1118
  465MOL0     C64085   7.424   9.255   8.371  0.7993 -0.0249  0.2972
  465MOL0     C64086   7.529   9.239   8.285 -0.6464 -0.2975  0.7366
  465MOL0     C64087   7.995   9.179   8.168  0.9973  1.1419  0.3548
  465MOL0     C64088   7.950   9.129   8.046  0.8864 -0.1781 -0.5461
  465MOL0     C64089   8.034   9.099   7.942  0.0694  0.5399  0.4321
  465MOL0     C64090   8.171   9.121   7.941 -0.1466 -0.3026 -0.4830
  465MOL0     O64091   8.256   9.090   7.836  0.4947  0.1853  0.4265
  465MOL0     C64092   8.219   9.059   7.702  0.1735 -0.3770  0.5468
  465MOL0     C64093   8.336   9.049   7.610  0.7355 -0.1236 -0.0468
  465MOL0     C64094   8.428   9.166   7.624  0.3261 -0.0578 -0.6838
  465MOL0     C64095   8.539   9.144   7.525 -1.4163  0.4270 -0.3317
  465MOL0     C64096   8.615   9.270   7.510  0.3316  0.5195 -0.9854
  465MOL0     C64097   8.667   9.371   7.475 -0.3199 -0.6061  0.0278
  465MOL0     C64098   8.220   9.175   8.065 -0.1270  0.4956 -0.5311
  465MOL0     C64099   8.134   9.199   8.176 -0.7435  0.7106 -0.2927
  465MOL0     C64100   8.216   9.219   8.302 -0.4272  0.4427  1.2591
  465MOL0     H64101   7.754   9.124   8.507  0.6203  2.4772 -2.1679
  465MOL0     H64102   7.570   9.181   8.662 -1.0786  0.8914 -0.1344
  465MOL0     H64103   7.398   9.243   8.774  3.3045 -2.3040 -1.1253
  465MOL0     H64104   7.319   9.105   8.711  2.5554  0.0950 -0.7498
  465MOL0     H64105   7.165   9.206   8.869  2.3389  1.6798  1.5381
  465MOL0     H64106   7.200   9.371   8.798 -0.7361  0.5452 -3.2143
  465MOL0     H64107   6.958   9.292   8.747  0.3777  2.8769  1.1052
  465MOL0     H64108   7.045   9.331   8.609  1.1326  0.5021  0.8236
  465MOL0     H64109   7.084   9.109   8.537  2.3045 -1.5411  1.4679
  465MOL0     H64110   7.049   9.041   8.703 -1.4841 -0.2571  0.6605
  465MOL0     H64111   6.850   9.111   8.474 -2.0585  2.5633  0.7634
  465MOL0     H64112   6.807   9.153   8.641  1.9412  0.8174  0.7699
  465MOL0     H64113   6.924   8.881   8.535 -1.9722 -0.8659 -0.9174
  465MOL0     H64114   6.865   8.918   8.698  0.0708  1.4844 -0.6253
  465MOL0     H64115   6.646   8.904   8.629  0.3752 -4.6851  2.6559
  465MOL0     H64116   6.721   8.774   8.552 -2.0628 -0.0399 -3.3576
  465MOL0     H64117   6.614   9.028   8.411  2.3844  1.5217 -3.4431
  465MOL0     H64118   6.749   8.954   8.337  0.1586  0.4190  1.2677
  465MOL0     H64119   6.385   8.865   8.433 -0.2378  0.3210 -1.1391
  465MOL0     H64120   6.201   8.703   8.300  0.0159 -1.8001  0.2728
  465MOL0     H64121   6.296   8.604   8.191  0.6220  0.5322 -0.1455
  465MOL0     H64122   6.117   8.810   8.104  0.3339  4.1772  0.2834
  465MOL0     H64123   6.263   8.898   8.112  0.6414 -0.0447 -2.2365
  465MOL0     H64124   6.322   8.820   7.925 -0.6173  1.1860  0.8628
  465MOL0     H64125   6.308   8.643   7.979 -0.3797  0.2196  2.2302
  465MOL0     H64126   6.067   8.662   7.928  0.1057  1.2681  0.7484
  465MOL0     H64127   6.069   8.830   7.900 -0.9527 -0.5418 -1.3164
  465MOL0     H64128   5.898   8.753   7.761  0.2643  0.5702  0.1519
  465MOL0     H64129   5.684   8.664   7.746  1.4338 -2.0763 -0.1807
  465MOL0     H64130   5.617   8.596   7.604  0.9971 -0.7723 -0.3914
  465MOL0     H64131   5.645   8.769   7.607  0.7489  0.5172 -1.9533
  465MOL0     H64132   5.610   8.562   7.087 -1.1157 -0.8599 -3.1429
  465MOL0     H64133   5.506   8.412   6.939  2.2212  0.4693 -1.7243
  465MOL0     H64134   5.546   7.958   6.829 -1.0382 -1.3161  0.5889
  465MOL0     H64135   5.684   7.995   6.919  0.0918 -0.4740 -1.0801
  465MOL0     H64136   5.504   7.981   7.138  0.6052 -3.4497  3.0851
  465MOL0     H64137   5.420   7.885   7.014  0.9745  0.8973 -0.1028
  465MOL0     H64138   5.683   7.820   7.161  0.5924 -1.3079 -1.7736
  465MOL0     H64139   5.660   7.752   7.008 -0.0248  0.9775  0.3610
  465MOL0     H64140   5.424   7.676   7.114 -1.1543 -0.8316  1.1985
  465MOL0     H64141   5.503   7.720   7.270 -0.5947 -2.5012 -0.4243
  465MOL0     H64142   5.529   7.468   7.214 -2.0674 -0.4618 -3.0385
  465MOL0     H64143   5.610   7.509   7.063 -1.4962  0.4601 -0.6446
  465MOL0     H64144   5.716   7.586   7.335 -2.8751 -0.9890  0.8036
  465MOL0     H64145   5.817   7.580   7.184  0.1737  0.8011  1.4430
  465MOL0     H64146   5.718   7.352   7.341 -1.2954 -1.3846 -2.0012
  465MOL0     H64147   5.889   7.396   7.300  0.8846  2.8602 -0.7715
  465MOL0     H64148   5.831   7.353   7.055 -1.7824  0.7814 -0.9252
  465MOL0     H64149   5.680   7.286   7.098 -0.7386  3.1078 -1.6505
  465MOL0     H64150   5.751   8.089   7.105  3.9771  2.9331  3.8308
  465MOL0     H64151   5.853   8.257   7.258 -1.2226 -1.0306  0.5641
  465MOL0     H64152   6.031   8.548   7.335  1.2986  0.6658  0.4683
  465MOL0     H64153   6.203   8.590   7.510 -0.3432  0.1400 -0.5878
  465MOL0     H64154   7.325   9.276   8.332  0.5744 -3.1634 -1.1173
  465MOL0     H64155   7.514   9.250   8.178  0.0303 -4.2864  0.0682
  465MOL0     H64156   7.846   9.107   8.023  1.5681 -0.7099 -3.5137
  465MOL0     H64157   7.987   9.060   7.852  1.3640 -1.7216  0.6744
  465MOL0     H64158   8.154   8.971   7.698  0.0697 -0.2935  0.3572
  465MOL0     H64159   8.157   9.140   7.662 -1.2932 -0.7502  1.9705
  465MOL0     H64160   8.300   9.050   7.506  1.4859  3.8461 -0.4031
  465MOL0     H64161   8.393   8.957   7.626  2.3342  0.5689 -1.4713
  465MOL0     H64162   8.371   9.254   7.592 -1.0684 -1.9363 -3.8840
  465MOL0     H64163   8.457   9.183   7.728 -3.3190  0.8525  0.3535
  465MOL0     H64164   8.502   9.116   7.426  1.0675 -1.1009 -0.9110
  465MOL0     H64165   8.612   9.073   7.564 -0.1507  0.4872 -2.4461
  465MOL0     H64166   8.707   9.466   7.446  1.6022 -2.2562 -3.3090
  465MOL0     H64167   8.327   9.191   8.073 -0.0835 -0.0715  0.1137
  465MOL0     H64168   8.316   9.255   8.276 -0.7231  0.5398  0.2406
  465MOL0     H64169   8.174   9.307   8.352  1.5897  2.5770 -0.5853
  465MOL0     H64170   8.214   9.128   8.363 -2.0377  1.1788  2.3803
  466MOL0     O64171   0.559   8.122   3.887 -0.2920  0.3220 -0.2523
  466MOL0     C64172   0.486   8.129   3.795  0.0407 -0.1797 -0.7284
  466MOL0     O64173   0.351   8.145   3.801 -0.0559 -0.4701 -0.1072
  466MOL0     C64174   0.286   8.181   3.914 -0.4391 -0.0980  0.0628
  466MOL0     C64175   0.160   8.127   3.932  0.3774  0.4714 -0.1213
  466MOL0     C64176   0.070   8.179   4.023  0.4571 -0.1944 -0.3136
  466MOL0     C64177   0.106   8.288   4.101  0.1624  0.4560 -0.8679
  466MOL0     O64178   0.029   8.349   4.196  0.0588 -0.6813 -0.2564
  466MOL0     C64179  -0.084   8.272   4.246  0.9039  0.5351  0.2108
  466MOL0     C64180  -0.124   8.311   4.385 -0.8876  0.5343 -0.5052
  466MOL0     C64181  -0.013   8.285   4.492  0.0823 -0.4641 -0.2354
  466MOL0     C64182  -0.053   8.313   4.650  0.3484 -0.4216 -1.2103
  466MOL0     C64183  -0.093   8.452   4.689  0.3547 -0.5376  0.5776
  466MOL0     C64184  -0.112   8.463   4.835 -0.4143 -0.7750 -0.4031
  466MOL0     C64185  -0.163   8.600   4.884  0.2733  0.2681  0.2841
  466MOL0     C64186  -0.315   8.619   4.855  0.3398 -0.2477  0.4857
  466MOL0     N64187  -0.380   8.718   4.935  0.2850 -0.1093 -0.2717
  466MOL0     C64188  -0.324   8.797   5.030  0.5817  0.2387  0.4749
  466MOL0     C64189  -0.424   8.841   5.104 -0.1245 -0.1932 -0.5284
  466MOL0     C64190  -0.410   8.956   5.207  0.5238 -0.1477 -0.9151
  466MOL0     C64191  -0.437   8.912   5.355  0.6751 -0.2032 -0.4340
  466MOL0     C64192  -0.585   8.943   5.406 -0.8390 -0.8307 -0.6063
  466MOL0     C64193  -0.608   9.089   5.450  0.3616 -0.2413 -0.0334
  466MOL0     O64194  -0.755   9.113   5.475 -0.3136  0.1813  0.0686
  466MOL0     C64195  -0.798   9.104   5.600  0.2963 -0.8162 -0.7533
  466MOL0     C64196  -0.769   9.006   5.692 -0.2339  0.6789  0.1122
  466MOL0     C64197  -0.822   9.002   5.819  0.8181 -0.6988 -0.3966
  466MOL0     C64198  -0.769   8.884   5.906 -0.1952  0.0124 -0.0329
  466MOL0     C64199  -0.909   9.104   5.858 -0.9859  0.0252 -0.1220
  466MOL0     C64200  -0.957   9.120   5.995 -0.7247 -0.3353  0.1759
  466MOL0     O64201  -1.059   9.210   6.020 -0.3973 -0.0646  0.4939
  466MOL0     C64202  -1.122   9.197   6.141  0.0995 -0.0211 -0.4997
  466MOL0     C64203  -1.251   9.143   6.140  0.1118  0.8775  0.1573
  466MOL0     C64204  -1.322   9.132   6.252 -0.4206  0.0948  0.1923
  466MOL0     C64205  -1.278   9.201   6.369  0.3392  0.1188  0.0327
  466MOL0     O64206  -1.346   9.227   6.483  0.3254  1.2204 -0.1289
  466MOL0     C64207  -1.478   9.170   6.493  0.8161  0.8226  0.2281
  466MOL0     C64208  -1.482   9.046   6.587  0.0215 -0.1180  0.1881
  466MOL0     C64209  -1.456   9.084   6.740 -0.0834  0.2386  0.2676
  466MOL0     C64210  -1.312   9.035   6.776 -0.0601  0.7594  0.2559
  466MOL0     C64211  -1.205   9.142   6.758 -0.4613  0.3813  0.4509
  466MOL0     C64212  -1.063   9.098   6.804 -0.0625  0.2309 -0.1159
  466MOL0     C64213  -1.028   9.073   6.957  0.2991  0.4384 -0.2499
  466MOL0     C64214  -0.896   8.976   6.971 -1.2034 -1.6484  0.5685
  466MOL0    Cl64215  -0.916   8.821   6.899 -0.6052  0.5117  0.1470
  466MOL0     C64216  -1.146   9.254   6.367  0.2687  0.2447  0.2578
  466MOL0     C64217  -1.065   9.238   6.256 -0.0799 -0.0145 -0.4249
  466MOL0     O64218  -0.891   9.057   6.083  0.4557 -0.0550 -0.5864
  466MOL0     C64219  -0.955   9.196   5.759  0.0120 -0.4856 -0.0881
  466MOL0     C64220  -0.905   9.189   5.631  0.0072  0.0697  0.9028
  466MOL0     N64221  -0.538   8.778   5.059 -0.2038 -0.2450  0.3619
  466MOL0     N64222  -0.513   8.718   4.960 -0.0195 -0.0500  0.0316
  466MOL0     C64223   0.241   8.335   4.095 -0.1942 -0.0680  0.0775
  466MOL0     C64224   0.334   8.277   4.008 -0.2484  0.4480  0.6454
  466MOL0     C64225   0.546   8.137   3.663 -0.5020 -0.4577 -0.8361
  466MOL0     C64226   0.449   8.136   3.558  0.4897 -0.6272  0.0199
  466MOL0     C64227   0.481   8.144   3.429 -0.8569  0.9985  0.1245
  466MOL0     C64228   0.615   8.165   3.395  0.1774  0.4176 -0.0423
  466MOL0     O64229   0.646   8.199   3.271  0.2207 -0.5979 -0.5078
  466MOL0     C64230   0.605   8.334   3.234  0.1297  0.8702  0.3201
  466MOL0     C64231   0.483   8.324   3.148  0.3392  0.3033 -0.4638
  466MOL0     C64232   0.446   8.461   3.107 -0.4759  0.0550 -1.2777
  466MOL0     C64233   0.335   8.496   3.003 -0.1184  0.7147 -0.3732
  466MOL0     C64234   0.203   8.432   3.031 -0.5359  0.8136  0.7223
  466MOL0     C64235   0.097   8.382   3.062  0.8563 -1.1511  0.4966
  466MOL0     C64236   0.706   8.181   3.495  0.0886  0.4660 -0.3080
  466MOL0     C64237   0.680   8.168   3.627  0.1852 -0.0366  0.3458
  466MOL0     C64238   0.801   8.181   3.721 -0.6177 -0.4432 -0.3304
  466MOL0     H64239   0.126   8.056   3.857 -2.6677  1.7502 -0.1230
  466MOL0     H64240  -0.032   8.142   4.027 -0.0707  0.9115 -2.0526
  466MOL0     H64241  -0.072   8.163   4.251 -3.1387 -0.0222  0.9784
  466MOL0     H64242  -0.169   8.286   4.179  0.2614 -2.1697  0.3686
  466MOL0     H64243  -0.137   8.419   4.377 -2.9219  0.3093 -0.6360
  466MOL0     H64244  -0.217   8.264   4.420 -0.0997 -0.0210  0.9754
  466MOL0     H64245   0.005   8.178   4.476 -0.7647 -0.5857 -0.4346
  466MOL0     H64246   0.080   8.336   4.466 -0.0931 -1.1808 -2.5028
  466MOL0     H64247  -0.147   8.260   4.671 -0.1467  1.2039  1.1824
  466MOL0     H64248   0.026   8.280   4.718  0.1992 -0.0155 -0.8315
  466MOL0     H64249  -0.183   8.491   4.640 -0.3379  0.6748  2.6854
  466MOL0     H64250  -0.026   8.529   4.650  0.4960 -0.9938 -0.1212
  466MOL0     H64251  -0.171   8.382   4.878  0.6475 -2.0132 -1.1940
  466MOL0     H64252  -0.009   8.448   4.870  0.6787  0.0032 -3.0075
  466MOL0     H64253  -0.116   8.688   4.839 -3.2410  1.4913 -1.3672
  466MOL0     H64254  -0.148   8.591   4.992 -0.7469  0.2577  0.4319
  466MOL0     H64255  -0.322   8.647   4.749 -0.4024 -1.2061  0.2660
  466MOL0     H64256  -0.365   8.523   4.866  0.9005 -0.4380  1.4091
  466MOL0     H64257  -0.223   8.835   5.035  0.7646  0.1952 -1.9277
  466MOL0     H64258  -0.475   9.039   5.177  2.2926  2.2263  1.2884
  466MOL0     H64259  -0.303   8.980   5.212  0.4336  0.2064 -0.5967
  466MOL0     H64260  -0.416   8.805   5.367  0.8847 -0.1441 -0.2587
  466MOL0     H64261  -0.355   8.966   5.404 -0.1114 -1.5988  2.6308
  466MOL0     H64262  -0.654   8.921   5.324 -0.9504  1.6288 -1.2499
  466MOL0     H64263  -0.601   8.871   5.487 -1.5665 -0.4541 -0.3979
  466MOL0     H64264  -0.556   9.111   5.544  0.9152 -0.7007 -0.2269
  466MOL0     H64265  -0.567   9.150   5.369  0.8571  4.0893  3.1230
  466MOL0     H64266  -0.699   8.927   5.667 -0.9455 -0.8003  2.4028
  466MOL0     H64267  -0.736   8.799   5.846 -0.2525 -0.0309 -0.0018
  466MOL0     H64268  -0.856   8.838   5.954 -1.5733  2.5550  0.1101
  466MOL0     H64269  -0.694   8.915   5.979 -2.2213 -0.1986  2.2568
  466MOL0     H64270  -1.305   9.102   6.056 -2.0209 -0.8708  2.2376
  466MOL0     H64271  -1.418   9.083   6.247 -0.7259  0.5912  1.0564
  466MOL0     H64272  -1.545   9.247   6.533  1.4057  2.0006 -0.9871
  466MOL0     H64273  -1.510   9.143   6.392  5.1558  1.2822 -1.4563
  466MOL0     H64274  -1.586   9.013   6.581  0.1400 -1.6970  3.9378
  466MOL0     H64275  -1.418   8.964   6.554 -1.1525 -0.9947  0.0355
  466MOL0     H64276  -1.542   9.047   6.796 -0.2495  3.2055  2.1899
  466MOL0     H64277  -1.452   9.193   6.747  1.5365  0.4760 -2.6578
  466MOL0     H64278  -1.301   8.938   6.727  0.5533  0.4111  1.0620
  466MOL0     H64279  -1.317   9.009   6.883 -3.2959 -0.6527 -0.1013
  466MOL0     H64280  -1.200   9.166   6.651  0.6210 -0.8685  0.1761
  466MOL0     H64281  -1.222   9.233   6.815  3.3179  0.6827  1.3684
  466MOL0     H64282  -0.991   9.173   6.769  2.0279 -0.8178  1.6836
  466MOL0     H64283  -1.044   9.004   6.751 -1.8844 -0.6275  0.6771
  466MOL0     H64284  -1.114   9.017   6.994  0.5094  1.0228  1.2185
  466MOL0     H64285  -1.014   9.170   7.007  0.0882  1.5370 -2.2332
  466MOL0     H64286  -0.872   8.957   7.076  0.2860 -1.5978  0.2482
  466MOL0     H64287  -0.810   9.021   6.921 -2.9938  0.9160 -0.4853
  466MOL0     H64288  -1.088   9.296   6.448 -2.3180 -1.0879  3.0043
  466MOL0     H64289  -0.957   9.242   6.263  0.0537 -1.8789 -1.0374
  466MOL0     H64290  -1.040   9.259   5.783 -0.6262 -1.7779  1.2077
  466MOL0     H64291  -0.918   9.274   5.565 -0.4398 -0.9367 -0.3476
  466MOL0     H64292   0.272   8.398   4.178 -0.1868 -0.8870  0.7139
  466MOL0     H64293   0.437   8.310   4.002 -0.6158  1.3695 -2.2053
  466MOL0     H64294   0.345   8.112   3.574 -0.2392  1.8325 -0.6036
  466MOL0     H64295   0.405   8.135   3.352 -0.3242  0.9754 -0.4134
  466MOL0     H64296   0.577   8.400   3.317 -2.6274  2.3069 -1.6255
  466MOL0     H64297   0.692   8.375   3.181  1.7970 -2.0902  0.5252
  466MOL0     H64298   0.398   8.292   3.209 -1.1001 -0.4621 -2.7488
  466MOL0     H64299   0.504   8.245   3.076 -1.5890 -0.2046 -0.5422
  466MOL0     H64300   0.413   8.507   3.201 -2.8479 -1.3924 -1.3132
  466MOL0     H64301   0.542   8.510   3.089 -0.5255 -0.0472 -1.8219
  466MOL0     H64302   0.369   8.463   2.904 -0.8580 -0.3302 -0.3036
  466MOL0     H64303   0.317   8.603   2.991 -1.6767  0.4240 -0.8586
  466MOL0     H64304   0.006   8.331   3.087  0.2443  0.4640  1.7361
  466MOL0     H64305   0.805   8.219   3.474 -0.2007  1.8994  0.7576
  466MOL0     H64306   0.810   8.094   3.787  2.8380  0.2128  0.2450
  466MOL0     H64307   0.897   8.189   3.671 -1.7465  2.2643 -2.3365
  466MOL0     H64308   0.773   8.268   3.781 -1.9883 -1.1468  0.1080
  467MOL0     O64309   4.067   1.613   7.871 -0.7372 -0.8849 -0.0102
  467MOL0     C64310   4.040   1.529   7.951  0.0257  0.2507  0.2244
  467MOL0     O64311   3.912   1.488   7.976 -0.1890 -0.0337  0.7773
  467MOL0     C64312   3.816   1.543   7.891  0.2072 -0.1108  0.1674
  467MOL0     C64313   3.744   1.660   7.928  0.9739 -0.7468 -0.9958
  467MOL0     C64314   3.672   1.730   7.823  0.2084  0.1166  1.2920
  467MOL0     C64315   3.660   1.672   7.697  0.6793 -0.3588 -0.1198
  467MOL0     O64316   3.584   1.742   7.603 -0.5282  0.1017  0.0310
  467MOL0     C64317   3.639   1.770   7.477  0.2473  0.0767  1.0307
  467MOL0     C64318   3.519   1.825   7.393 -0.7128 -0.4918  1.0603
  467MOL0     C64319   3.548   1.866   7.247 -0.0685 -0.3463  0.1157
  467MOL0     C64320   3.420   1.903   7.162  0.0851  0.2253  0.3366
  467MOL0     C64321   3.365   2.033   7.214  0.5898  0.5985  0.4069
  467MOL0     C64322   3.262   2.106   7.119 -0.5618 -0.0361  0.5183
  467MOL0     C64323   3.336   2.166   7.004  0.9713  0.7056  0.1835
  467MOL0     C64324   3.450   2.266   7.024  0.2707 -0.3006 -0.1723
  467MOL0     N64325   3.399   2.392   7.088  0.5699 -0.0066 -0.0951
  467MOL0     C64326   3.381   2.391   7.223  0.0342  0.6186 -0.0609
  467MOL0     C64327   3.347   2.519   7.249  0.6591  0.5099 -0.8829
  467MOL0     C64328   3.344   2.573   7.390 -0.6075 -0.6903 -0.4534
  467MOL0     C64329   3.469   2.525   7.476 -0.5383  0.7168  0.0523
  467MOL0     C64330   3.433   2.520   7.623  0.5904  0.2009  0.4960
  467MOL0     C64331   3.553   2.548   7.709 -0.9258 -0.2334 -1.1622
  467MOL0     O64332   3.514   2.539   7.849  0.6327 -0.4880  0.2459
  467MOL0     C64333   3.554   2.431   7.933 -0.0466 -0.5047 -0.2175
  467MOL0     C64334   3.578   2.467   8.065  0.3554  0.1046  0.8841
  467MOL0     C64335   3.608   2.376   8.162 -0.0065  0.0178 -0.0204
  467MOL0     C64336   3.608   2.441   8.304 -0.1752 -0.2537 -0.1286
  467MOL0     C64337   3.613   2.240   8.130 -0.3863 -1.0058 -0.3181
  467MOL0     C64338   3.618   2.137   8.232  0.1361 -0.3356  0.0258
  467MOL0     O64339   3.569   2.153   8.358  0.5774 -0.2568 -0.3218
  467MOL0     C64340   3.580   2.036   8.447 -0.4903 -0.1534  1.0036
  467MOL0     C64341   3.476   1.945   8.430 -0.0502 -0.2726 -0.4091
  467MOL0     C64342   3.472   1.827   8.506 -0.3727 -0.7155 -0.5401
  467MOL0     C64343   3.576   1.806   8.606 -0.4563 -0.3074 -0.3976
  467MOL0     O64344   3.557   1.705   8.696  0.5621  0.0900 -0.2059
  467MOL0     C64345   3.555   1.734   8.834  0.0057 -0.4464 -0.1865
  467MOL0     C64346   3.689   1.704   8.903  0.0992 -0.0197 -0.0184
  467MOL0     C64347   3.768   1.573   8.855 -0.9960  0.2331 -0.4577
  467MOL0     C64348   3.687   1.446   8.857 -0.3715 -0.9810 -0.2265
  467MOL0     C64349   3.765   1.327   8.791 -0.1521 -0.2808  1.2327
  467MOL0     C64350   3.674   1.206   8.787 -0.4158 -0.5308  0.0668
  467MOL0     C64351   3.613   1.163   8.921  0.4811  0.5427  0.5244
  467MOL0     C64352   3.560   1.017   8.927 -0.2316  0.1408  0.0054
  467MOL0    Cl64353   3.383   1.025   8.957 -0.0912  0.1307 -0.0282
  467MOL0     C64354   3.687   1.895   8.617 -0.4256 -0.0644  0.1312
  467MOL0     C64355   3.687   2.008   8.538 -0.4974 -0.5237  0.1805
  467MOL0     O64356   3.682   2.035   8.193  0.2879  0.7300  0.6218
  467MOL0     C64357   3.592   2.205   7.991 -0.5183  0.2345 -0.7431
  467MOL0     C64358   3.566   2.301   7.890 -0.2616  1.3959 -0.4838
  467MOL0     N64359   3.336   2.587   7.135 -0.0166  0.4153  0.0851
  467MOL0     N64360   3.375   2.517   7.032 -0.1015  0.6844  0.0874
  467MOL0     C64361   3.723   1.553   7.665 -0.1401 -0.7577  0.8464
  467MOL0     C64362   3.801   1.490   7.759  0.8105  0.7725  0.0279
  467MOL0     C64363   4.144   1.464   8.027  0.2996 -0.5840  0.0221
  467MOL0     C64364   4.103   1.355   8.104 -0.2003  0.7801 -0.4176
  467MOL0     C64365   4.191   1.284   8.188 -0.3454  0.1122 -0.3160
  467MOL0     C64366   4.324   1.319   8.193 -0.3035 -0.1834 -0.3131
  467MOL0     O64367   4.406   1.249   8.281 -0.1197 -0.8005 -0.1874
  467MOL0     C64368   4.427   1.112   8.253 -0.2346 -0.6236  0.1451
  467MOL0     C64369   4.528   1.051   8.345 -0.3258  0.0382  0.4044
  467MOL0     C64370   4.488   1.038   8.495 -0.1181  0.1522  1.0085
  467MOL0     C64371   4.562   0.929   8.573 -0.5169  0.1304 -0.8167
  467MOL0     C64372   4.697   0.975   8.614 -0.3202 -0.7025  0.3427
  467MOL0     C64373   4.814   1.000   8.634 -0.0517  0.1842 -0.1056
  467MOL0     C64374   4.366   1.431   8.116 -0.0565  0.2535  0.6844
  467MOL0     C64375   4.276   1.501   8.026  0.0564 -0.8089  0.2360
  467MOL0     C64376   4.331   1.616   7.949 -0.0995 -0.7774  0.8506
  467MOL0     H64377   3.741   1.706   8.027  4.1191 -0.2260 -1.0366
  467MOL0     H64378   3.609   1.817   7.842  2.0091  1.9714 -0.6480
  467MOL0     H64379   3.669   1.675   7.431 -2.6489 -1.4316  2.0019
  467MOL0     H64380   3.723   1.838   7.493 -0.7905  0.9271  3.2155
  467MOL0     H64381   3.443   1.747   7.386  0.5857 -1.7088 -0.0454
  467MOL0     H64382   3.484   1.914   7.447 -0.5208  0.8572 -0.9286
  467MOL0     H64383   3.618   1.949   7.261 -0.0404  0.1284 -2.3866
  467MOL0     H64384   3.599   1.783   7.198 -1.7189 -1.0336 -0.5286
  467MOL0     H64385   3.458   1.905   7.060  0.8482 -4.0907  0.3464
  467MOL0     H64386   3.335   1.836   7.178  1.0405 -0.9522  0.7319
  467MOL0     H64387   3.450   2.093   7.249  1.6355 -0.0473 -0.9184
  467MOL0     H64388   3.299   2.008   7.298 -1.2582  1.1801 -0.8102
  467MOL0     H64389   3.177   2.045   7.087 -1.4755  1.5301 -0.1402
  467MOL0     H64390   3.220   2.196   7.166  1.5263  3.1865 -3.1711
  467MOL0     H64391   3.259   2.220   6.947 -1.4703  0.4627  3.0145
  467MOL0     H64392   3.374   2.081   6.946  3.5334  0.5962  1.8685
  467MOL0     H64393   3.521   2.208   7.083 -0.2400  1.0306  1.8647
  467MOL0     H64394   3.477   2.289   6.921  0.7025  1.4928  0.3118
  467MOL0     H64395   3.390   2.315   7.299 -2.3048  2.4480  2.2009
  467MOL0     H64396   3.245   2.549   7.430 -1.0758  0.5025 -0.8521
  467MOL0     H64397   3.345   2.682   7.379 -0.5194 -0.7241 -0.7874
  467MOL0     H64398   3.488   2.421   7.446 -0.7582  0.5414  0.5185
  467MOL0     H64399   3.553   2.592   7.457 -0.9843  1.2277 -0.1131
  467MOL0     H64400   3.358   2.594   7.653 -1.7674 -1.8486  0.0091
  467MOL0     H64401   3.399   2.419   7.646  0.2526  0.4594  1.1595
  467MOL0     H64402   3.625   2.472   7.676  0.9416  0.7866  0.3856
  467MOL0     H64403   3.603   2.644   7.693  0.7848 -0.3799  2.3054
  467MOL0     H64404   3.562   2.570   8.096 -0.1755 -0.5963  3.1625
  467MOL0     H64405   3.698   2.403   8.354 -2.4606 -5.1119  0.8711
  467MOL0     H64406   3.521   2.400   8.356  0.2290 -1.3928 -0.3304
  467MOL0     H64407   3.595   2.549   8.313  0.3660 -0.3157  1.9123
  467MOL0     H64408   3.393   1.972   8.366 -1.4010  2.5168  2.2076
  467MOL0     H64409   3.379   1.771   8.504 -2.2587  1.6962  3.9824
  467MOL0     H64410   3.536   1.840   8.853  0.8836 -0.9065  4.3236
  467MOL0     H64411   3.468   1.685   8.879 -2.2486  0.7088 -2.9811
  467MOL0     H64412   3.755   1.786   8.875  0.9476 -1.1383 -1.4410
  467MOL0     H64413   3.680   1.713   9.012 -2.9259 -2.0450  0.0308
  467MOL0     H64414   3.857   1.560   8.917 -1.8989  2.2389  1.3786
  467MOL0     H64415   3.809   1.604   8.758  0.9556  0.7109  0.4758
  467MOL0     H64416   3.595   1.466   8.801 -1.1006 -0.8479  0.9830
  467MOL0     H64417   3.654   1.424   8.959  2.1784 -2.5616  0.3508
  467MOL0     H64418   3.802   1.346   8.691  2.4212 -2.0218  1.7737
  467MOL0     H64419   3.859   1.301   8.840  0.4488 -4.3429 -1.6295
  467MOL0     H64420   3.735   1.119   8.760  3.2905  2.0621 -0.7172
  467MOL0     H64421   3.588   1.224   8.721 -0.5211 -1.0646  0.0551
  467MOL0     H64422   3.521   1.221   8.934  0.0609  0.6353 -2.1995
  467MOL0     H64423   3.684   1.186   9.000 -0.0972  3.4310  0.3266
  467MOL0     H64424   3.590   0.971   9.021 -1.6796 -1.6749 -0.3504
  467MOL0     H64425   3.607   0.957   8.848  1.9312 -2.0639  2.7646
  467MOL0     H64426   3.774   1.866   8.674  0.4994 -2.0777 -2.1017
  467MOL0     H64427   3.762   2.084   8.558 -0.3516 -0.7646  0.5588
  467MOL0     H64428   3.594   2.100   7.962  1.2202  0.0774 -0.2017
  467MOL0     H64429   3.552   2.265   7.788 -0.9155 -2.2235  0.7682
  467MOL0     H64430   3.706   1.497   7.573 -2.7158  1.8080 -0.3867
  467MOL0     H64431   3.852   1.395   7.746  0.6595  0.5719  0.8600
  467MOL0     H64432   4.002   1.315   8.099 -0.8156  2.3204 -1.0847
  467MOL0     H64433   4.138   1.205   8.240 -0.4528 -0.0009 -0.5935
  467MOL0     H64434   4.336   1.051   8.260 -1.0184  0.5877  1.0196
  467MOL0     H64435   4.469   1.110   8.153  0.6151  0.7405  0.4502
  467MOL0     H64436   4.626   1.099   8.338  0.3514 -1.1835  1.1273
  467MOL0     H64437   4.539   0.948   8.311 -2.0330  0.3996 -1.4261
  467MOL0     H64438   4.513   1.136   8.536  0.9433 -0.1986  1.2357
  467MOL0     H64439   4.380   1.023   8.505  0.0108 -0.1101  2.0512
  467MOL0     H64440   4.559   0.830   8.527  0.5961 -2.4569  3.9979
  467MOL0     H64441   4.512   0.905   8.668  0.0221 -4.1353 -1.4321
  467MOL0     H64442   4.919   1.022   8.638 -0.8457  4.7590  0.4358
  467MOL0     H64443   4.471   1.460   8.121 -0.1335  1.4131 -2.4287
  467MOL0     H64444   4.433   1.643   7.979 -0.2008  0.8473 -0.1109
  467MOL0     H64445   4.328   1.569   7.850  0.4562 -1.9238  1.3597
  467MOL0     H64446   4.275   1.710   7.941 -1.7675 -1.8377 -1.0338
  468MOL0     O64447  11.483  11.363   5.472  0.3635  0.0840 -0.4371
  468MOL0     C64448  11.371  11.423   5.501  0.0253  0.1903 -0.1911
  468MOL0     O64449  11.340  11.506   5.604 -0.0226  0.3748 -0.1316
  468MOL0     C64450  11.437  11.595   5.649  0.4850  0.1446 -0.0215
  468MOL0     C64451  11.560  11.555   5.696 -0.1087  0.3563  0.2568
  468MOL0     C64452  11.655  11.646   5.741  0.8156 -0.1256  0.2073
  468MOL0     C64453  11.625  11.786   5.731  0.2977  0.4341  0.1429
  468MOL0     O64454  11.702  11.878   5.781  0.2135 -0.0710 -0.5310
  468MOL0     C64455  11.826  11.853   5.853  0.2678 -0.0610  0.6995
  468MOL0     C64456  11.886  11.983   5.910 -0.8945 -0.3981  0.6091
  468MOL0     C64457  11.790  12.079   5.973 -0.4861  0.1570  0.8354
  468MOL0     C64458  11.712  12.004   6.089 -0.2237 -0.3432 -0.2083
  468MOL0     C64459  11.705  12.105   6.200  0.0536 -0.2930 -0.1807
  468MOL0     C64460  11.646  12.036   6.324 -0.5719 -0.4474  0.0846
  468MOL0     C64461  11.609  12.145   6.427  0.2380 -0.6817 -0.1440
  468MOL0     C64462  11.477  12.221   6.396 -1.2902 -0.7221  0.0880
  468MOL0     N64463  11.354  12.145   6.413  0.4770  0.9423  0.5657
  468MOL0     C64464  11.336  12.054   6.513 -0.1916  0.0218 -0.7080
  468MOL0     C64465  11.225  11.995   6.477  0.1688  0.0547 -0.1281
  468MOL0     C64466  11.159  11.882   6.551 -0.5459  0.6086 -0.1779
  468MOL0     C64467  11.011  11.879   6.546  0.1866  0.0240 -0.1970
  468MOL0     C64468  10.940  11.991   6.621 -0.5369 -1.3225  0.2515
  468MOL0     C64469  10.909  11.943   6.762  0.0408 -0.5781 -0.3060
  468MOL0     O64470  10.774  11.894   6.776 -0.4198 -0.1738 -0.5002
  468MOL0     C64471  10.741  11.808   6.886  0.1626  0.4092  0.1538
  468MOL0     C64472  10.833  11.750   6.981  0.2997 -0.3894 -0.5793
  468MOL0     C64473  10.799  11.663   7.085 -0.3070 -0.8109  0.5316
  468MOL0     C64474  10.908  11.621   7.191  1.4342  0.9642  0.3721
  468MOL0     C64475  10.657  11.610   7.085 -0.6446  0.3803 -0.2673
  468MOL0     C64476  10.611  11.499   7.175  0.7379 -0.2511 -0.1424
  468MOL0     O64477  10.470  11.509   7.198 -0.7240  0.3270  0.2768
  468MOL0     C64478  10.398  11.408   7.241 -1.1468  0.3845  0.1306
  468MOL0     C64479  10.406  11.282   7.179 -0.5870 -0.2529  0.6434
  468MOL0     C64480  10.349  11.163   7.227  0.2378 -0.1560  0.6633
  468MOL0     C64481  10.264  11.179   7.341 -0.8885  0.3664  0.4178
  468MOL0     O64482  10.196  11.059   7.373 -0.8153  0.5404  0.2818
  468MOL0     C64483  10.098  11.069   7.479 -0.5458 -0.6375 -0.8069
  468MOL0     C64484  10.018  10.943   7.490 -0.2328  0.8904 -0.4263
  468MOL0     C64485   9.917  10.930   7.373 -0.7704  1.0364  0.2799
  468MOL0     C64486   9.876  10.785   7.354  0.6085 -0.7281  0.1921
  468MOL0     C64487   9.781  10.764   7.230 -0.2265 -0.3845  0.0739
  468MOL0     C64488   9.638  10.775   7.266 -0.9447  0.3721  0.4044
  468MOL0     C64489   9.549  10.785   7.137 -0.4852  0.3098 -0.1638
  468MOL0     C64490   9.499  10.647   7.103  0.9963 -0.1989 -0.4211
  468MOL0    Cl64491   9.410  10.657   6.944 -0.2747 -0.1141 -0.3461
  468MOL0     C64492  10.268  11.294   7.421  0.1016 -0.0588  0.7739
  468MOL0     C64493  10.335  11.411   7.368 -0.5542  0.1069 -0.2719
  468MOL0     O64494  10.683  11.429   7.243 -0.1341 -0.9569  0.0784
  468MOL0     C64495  10.565  11.671   7.002 -0.1631 -0.9617  0.5518
  468MOL0     C64496  10.608  11.761   6.906  0.0941 -0.2529 -0.3351
  468MOL0     N64497  11.180  12.040   6.350 -0.1498 -0.6558  0.9089
  468MOL0     N64498  11.265  12.128   6.313 -0.5109  0.7130  0.3490
  468MOL0     C64499  11.488  11.828   5.697 -0.5684 -0.5725 -0.9076
  468MOL0     C64500  11.399  11.730   5.654  0.1623  0.1609  0.7352
  468MOL0     C64501  11.254  11.377   5.424 -0.6397 -0.6016 -0.4936
  468MOL0     C64502  11.271  11.323   5.297  0.6911 -0.5195  0.1064
  468MOL0     C64503  11.162  11.284   5.222  0.2224 -0.4650 -1.3206
  468MOL0     C64504  11.039  11.272   5.274  0.3063  0.1256 -1.1310
  468MOL0     O64505  10.930  11.227   5.219  1.0962 -0.1779  0.5200
  468MOL0     C64506  10.918  11.231   5.072 -0.3632  0.0048 -0.0108
  468MOL0     C64507  10.934  11.373   5.014 -0.6529  1.0779 -0.8755
  468MOL0     C64508  10.890  11.371   4.869 -0.1390  0.6538 -0.5627
  468MOL0     C64509  10.972  11.464   4.780  1.0941 -0.1822 -1.1955
  468MOL0     C64510  11.102  11.412   4.738  0.3205  0.2847 -0.9001
  468MOL0     C64511  11.218  11.404   4.699  0.5790 -0.8854  1.0477
  468MOL0     C64512  11.020  11.303   5.406 -0.3398 -0.5690 -0.6816
  468MOL0     C64513  11.123  11.365   5.479 -0.2069  0.0082  0.2432
  468MOL0     C64514  11.092  11.390   5.623 -0.3906 -0.1932  0.4044
  468MOL0     H64515  11.585  11.449   5.692 -2.4855 -0.2520  0.0216
  468MOL0     H64516  11.747  11.617   5.790  0.0556  1.1538  2.5346
  468MOL0     H64517  11.902  11.809   5.787  0.9882  1.5142  0.4279
  468MOL0     H64518  11.815  11.780   5.933 -0.4341 -3.7106 -2.4441
  468MOL0     H64519  11.967  11.948   5.974 -0.1347  1.0217  0.4784
  468MOL0     H64520  11.933  12.026   5.821  1.2545 -2.7269  0.4987
  468MOL0     H64521  11.846  12.164   6.011 -0.4499 -0.7959  3.1022
  468MOL0     H64522  11.717  12.105   5.896  1.8626  2.2680 -0.8469
  468MOL0     H64523  11.606  11.990   6.068 -0.3750  1.3361 -0.7281
  468MOL0     H64524  11.767  11.911   6.107 -1.6826 -1.1247  0.3186
  468MOL0     H64525  11.648  12.191   6.164 -2.1456 -1.6875 -0.2621
  468MOL0     H64526  11.805  12.137   6.228 -0.4159  1.8661 -0.8084
  468MOL0     H64527  11.562  11.974   6.293 -0.4901  0.5693 -2.4262
  468MOL0     H64528  11.715  11.966   6.371  0.9304  1.0075  0.1707
  468MOL0     H64529  11.686  12.223   6.427 -0.2233 -0.2231  0.0804
  468MOL0     H64530  11.609  12.103   6.528  1.7158 -1.6533 -0.5183
  468MOL0     H64531  11.482  12.310   6.459  0.8968 -1.8973  1.6804
  468MOL0     H64532  11.473  12.266   6.296  0.1138 -0.8100 -0.0217
  468MOL0     H64533  11.407  12.044   6.595  1.2118 -1.1521 -2.0062
  468MOL0     H64534  11.179  11.876   6.658 -2.0378 -0.7710  0.0807
  468MOL0     H64535  11.207  11.797   6.500  1.7464  1.9654 -0.4175
  468MOL0     H64536  10.973  11.894   6.444 -3.9468 -0.1049  1.1305
  468MOL0     H64537  10.982  11.777   6.574 -6.0362  0.9936 -1.5810
  468MOL0     H64538  10.995  12.086   6.622 -1.0484 -0.9996  2.3454
  468MOL0     H64539  10.839  12.005   6.583 -0.8588  0.5959  1.6395
  468MOL0     H64540  10.981  11.862   6.775  0.4606 -0.4551 -1.6909
  468MOL0     H64541  10.937  12.016   6.839  0.9790 -0.0947 -1.0787
  468MOL0     H64542  10.939  11.771   6.977  0.9548 -2.9627  0.9894
  468MOL0     H64543  10.924  11.516   7.166 -1.8761  0.3755  0.2492
  468MOL0     H64544  10.869  11.656   7.287 -2.1071 -0.5983 -0.3468
  468MOL0     H64545  11.002  11.676   7.183  1.5202  1.0906  1.9644
  468MOL0     H64546  10.430  11.277   7.073  0.8807 -0.4262  0.9678
  468MOL0     H64547  10.351  11.077   7.162 -1.3910 -0.5045  1.0408
  468MOL0     H64548  10.148  11.082   7.576 -2.6433  0.1143  0.2353
  468MOL0     H64549  10.041  11.159   7.455  1.7476  1.0430 -0.3649
  468MOL0     H64550  10.092  10.863   7.488 -1.1843 -0.2264  2.9499
  468MOL0     H64551   9.961  10.952   7.583  0.9048  1.2515  0.2531
  468MOL0     H64552   9.961  10.959   7.277  5.8488  0.3739  2.5893
  468MOL0     H64553   9.831  10.991   7.400 -0.6057  0.8960  1.1375
  468MOL0     H64554   9.834  10.743   7.446  4.1444  0.2122  2.4050
  468MOL0     H64555   9.968  10.731   7.328 -0.4824 -1.6027 -2.1337
  468MOL0     H64556   9.818  10.833   7.154  2.0929 -0.4209  1.0740
  468MOL0     H64557   9.799  10.661   7.198  0.0621 -0.7383  1.3080
  468MOL0     H64558   9.627  10.865   7.327 -0.3650  0.6006  0.1739
  468MOL0     H64559   9.609  10.690   7.328  1.1812 -1.1316 -0.5591
  468MOL0     H64560   9.612  10.833   7.062 -0.1017 -0.6498 -0.4685
  468MOL0     H64561   9.475  10.865   7.152 -3.4296 -2.5168  1.7405
  468MOL0     H64562   9.442  10.618   7.192 -0.2950  2.4298 -0.2722
  468MOL0     H64563   9.584  10.580   7.091  2.6993  1.6888  0.5893
  468MOL0     H64564  10.196  11.301   7.502 -0.5179  3.0160  0.0632
  468MOL0     H64565  10.323  11.505   7.420  1.3816 -0.2914  1.0125
  468MOL0     H64566  10.462  11.643   6.982 -0.0927  0.4770 -2.4344
  468MOL0     H64567  10.536  11.804   6.836 -0.4101  0.6243  0.6976
  468MOL0     H64568  11.460  11.932   5.712 -0.2312 -0.6864  0.6962
  468MOL0     H64569  11.298  11.759   5.626  0.1719 -0.6228 -0.1591
  468MOL0     H64570  11.368  11.324   5.247 -1.2105  1.5317 -3.9819
  468MOL0     H64571  11.180  11.268   5.116 -1.6944  0.8698 -1.9087
  468MOL0     H64572  10.997  11.166   5.033  1.5782  1.5693  1.1002
  468MOL0     H64573  10.821  11.189   5.043 -0.4539  0.9319 -1.1411
  468MOL0     H64574  11.035  11.414   5.030 -0.8543  0.6902  1.9147
  468MOL0     H64575  10.875  11.446   5.070 -1.3971  0.7332 -1.2020
  468MOL0     H64576  10.885  11.274   4.818  1.5118  0.8998 -1.2708
  468MOL0     H64577  10.790  11.415   4.872 -0.7497 -0.7045 -0.1946
  468MOL0     H64578  10.993  11.556   4.834  0.0033 -0.6727  0.0924
  468MOL0     H64579  10.919  11.478   4.685 -2.9630 -2.4268  0.4741
  468MOL0     H64580  11.320  11.411   4.667 -0.3264  1.9726 -1.7188
  468MOL0     H64581  10.922  11.294   5.453  0.3392 -1.3493  0.6442
  468MOL0     H64582  11.090  11.493   5.658 -1.5312 -0.3836  0.9665
  468MOL0     H64583  10.997  11.344   5.653 -0.1660 -1.6332 -0.9315
  468MOL0     H64584  11.165  11.334   5.683 -2.3611 -3.1940  0.2503
  469MOL0     O64585   6.269   3.476   8.077  0.2307 -0.2581 -0.8338
  469MOL0     C64586   6.352   3.523   8.000 -0.6181 -0.3734 -0.0183
  469MOL0     O64587   6.340   3.626   7.905 -0.2406  0.0619 -0.1059
  469MOL0     C64588   6.213   3.672   7.889 -0.4498 -0.9942  0.4501
  469MOL0     C64589   6.124   3.598   7.809 -0.9668 -1.2541 -0.0024
  469MOL0     C64590   6.002   3.655   7.777  0.2644  0.3751  0.1001
  469MOL0     C64591   5.958   3.777   7.832  0.1493  0.9912 -0.2185
  469MOL0     O64592   5.839   3.825   7.799  0.8076  0.1703 -0.3613
  469MOL0     C64593   5.719   3.744   7.806 -0.8864 -0.2604 -0.4293
  469MOL0     C64594   5.671   3.696   7.671  0.9658  0.2150 -0.5713
  469MOL0     C64595   5.660   3.823   7.574 -0.0253  0.0982  0.2176
  469MOL0     C64596   5.598   3.778   7.436 -1.1608 -0.7851 -0.7858
  469MOL0     C64597   5.598   3.897   7.339  0.1118  0.5127 -0.2614
  469MOL0     C64598   5.494   3.886   7.221 -0.2311  0.4280  0.1417
  469MOL0     C64599   5.472   4.037   7.167  0.1113  0.8257 -1.1400
  469MOL0     C64600   5.585   4.073   7.072 -0.0930 -0.2455 -0.4571
  469MOL0     N64601   5.562   4.196   7.006  1.0062 -0.7641 -0.1224
  469MOL0     C64602   5.631   4.231   6.894 -0.7665  0.5353 -0.7082
  469MOL0     C64603   5.586   4.346   6.855 -0.9689 -0.1377 -0.7997
  469MOL0     C64604   5.626   4.437   6.751 -0.4560 -0.3341  0.1094
  469MOL0     C64605   5.604   4.370   6.613  0.7654  0.7450  0.5303
  469MOL0     C64606   5.454   4.350   6.583 -0.3269 -0.0735  0.3093
  469MOL0     C64607   5.432   4.317   6.435  0.0063 -1.0129  0.1776
  469MOL0     O64608   5.299   4.271   6.407  0.7398  0.3694  0.6055
  469MOL0     C64609   5.194   4.362   6.404 -0.7564  0.6306 -0.1561
  469MOL0     C64610   5.209   4.497   6.422  0.2553  0.2442 -0.5373
  469MOL0     C64611   5.100   4.582   6.397 -0.8978 -0.4584 -0.6315
  469MOL0     C64612   5.125   4.737   6.402  0.2002  0.1470 -0.3698
  469MOL0     C64613   4.971   4.534   6.401  0.6080  0.4199  1.3809
  469MOL0     C64614   4.851   4.624   6.388 -0.0559  0.4912 -0.6235
  469MOL0     O64615   4.851   4.712   6.286 -0.2099 -0.1222 -0.7067
  469MOL0     C64616   4.737   4.773   6.256  0.3987  0.0655  0.3564
  469MOL0     C64617   4.672   4.721   6.139 -1.2700 -0.6897 -0.4440
  469MOL0     C64618   4.562   4.785   6.086  1.0409 -0.9613 -0.0716
  469MOL0     C64619   4.519   4.907   6.146  0.7818 -0.6569  0.0196
  469MOL0     O64620   4.412   4.980   6.099 -0.0081 -0.9560  0.4817
  469MOL0     C64621   4.435   5.002   5.960 -0.3758  0.2261 -0.2798
  469MOL0     C64622   4.455   5.154   5.952 -0.8387  0.0177 -0.8321
  469MOL0     C64623   4.329   5.240   5.974  0.1911  0.6732  0.2840
  469MOL0     C64624   4.332   5.371   5.891 -0.6110 -0.3111 -0.1098
  469MOL0     C64625   4.196   5.450   5.895  0.9228 -0.4321  0.8191
  469MOL0     C64626   4.108   5.447   6.025 -0.6149  0.2406  0.0802
  469MOL0     C64627   4.169   5.527   6.147  0.4854  0.2820  0.1765
  469MOL0     C64628   4.078   5.487   6.270 -0.3625 -0.7145  0.7242
  469MOL0    Cl64629   3.908   5.526   6.235 -0.0897  0.0979  0.3183
  469MOL0     C64630   4.586   4.963   6.254  0.6885  0.7992  0.8164
  469MOL0     C64631   4.694   4.894   6.305 -1.1407  0.4336  0.6411
  469MOL0     O64632   4.781   4.623   6.486  0.3347 -0.1028 -1.1771
  469MOL0     C64633   4.950   4.397   6.390 -0.7019  0.0699 -1.1374
  469MOL0     C64634   5.065   4.305   6.397  0.9487 -0.9004 -0.8909
  469MOL0     N64635   5.475   4.375   6.931 -0.6610 -0.6938 -0.7097
  469MOL0     N64636   5.463   4.286   7.019  0.1808 -0.1751  0.9966
  469MOL0     C64637   6.047   3.848   7.909 -1.4195  0.0970 -0.1074
  469MOL0     C64638   6.177   3.799   7.940 -0.6985 -0.8823  0.0309
  469MOL0     C64639   6.481   3.449   8.002  0.5465  0.0114 -0.3990
  469MOL0     C64640   6.532   3.420   8.129  0.5565 -0.1161  0.1828
  469MOL0     C64641   6.659   3.373   8.147 -1.0003  0.0552  0.1377
  469MOL0     C64642   6.746   3.360   8.039 -0.2554  0.1750 -0.5603
  469MOL0     O64643   6.879   3.338   8.070 -0.8806 -0.3201 -0.6676
  469MOL0     C64644   6.927   3.218   8.004 -0.0034 -0.1479  0.5312
  469MOL0     C64645   6.859   3.088   8.065 -0.2417 -0.8371  0.1475
  469MOL0     C64646   6.871   3.080   8.219 -0.2178 -1.1768 -0.3497
  469MOL0     C64647   6.821   2.949   8.277  0.5957  0.1056 -0.3381
  469MOL0     C64648   6.679   2.956   8.305 -0.2176  0.4644 -0.6354
  469MOL0     C64649   6.561   2.958   8.330 -0.8783  0.9960  0.2923
  469MOL0     C64650   6.701   3.390   7.909 -0.2774 -0.2552 -0.0668
  469MOL0     C64651   6.560   3.434   7.886  0.0026 -0.2279 -0.0674
  469MOL0     C64652   6.513   3.474   7.748 -0.4818 -0.2098  0.4486
  469MOL0     H64653   6.151   3.501   7.767 -0.1371 -0.1664 -2.1497
  469MOL0     H64654   5.925   3.602   7.721  1.0236 -3.1983  2.1431
  469MOL0     H64655   5.638   3.808   7.842  1.2320  2.8273 -0.7994
  469MOL0     H64656   5.739   3.660   7.874 -2.0834 -0.1319  0.1118
  469MOL0     H64657   5.746   3.623   7.639  3.5043  2.1738  0.5434
  469MOL0     H64658   5.578   3.645   7.697 -0.4899  2.2929 -1.5024
  469MOL0     H64659   5.601   3.892   7.634 -1.1009 -3.3466  3.5694
  469MOL0     H64660   5.759   3.864   7.553 -0.2314  1.7057  2.0894
  469MOL0     H64661   5.663   3.698   7.401  0.7097 -1.2770  3.2144
  469MOL0     H64662   5.500   3.734   7.462 -0.5970  0.4313  4.6836
  469MOL0     H64663   5.697   3.913   7.296  0.1091  0.1019 -0.4207
  469MOL0     H64664   5.576   3.981   7.406  0.9206 -0.2664  1.0367
  469MOL0     H64665   5.529   3.817   7.143 -2.3577 -0.4640 -0.1112
  469MOL0     H64666   5.399   3.850   7.262 -0.1934  1.7457  1.4545
  469MOL0     H64667   5.471   4.111   7.246  3.1351  0.0882 -0.2773
  469MOL0     H64668   5.375   4.028   7.117 -0.7042  0.6397  0.4015
  469MOL0     H64669   5.682   4.089   7.121  0.5484  1.6755 -2.2085
  469MOL0     H64670   5.602   3.992   7.001  1.4955  0.7607 -1.2738
  469MOL0     H64671   5.729   4.192   6.869  1.5604  3.2579  3.0386
  469MOL0     H64672   5.733   4.457   6.762 -0.5891 -0.7320  2.6630
  469MOL0     H64673   5.579   4.535   6.755 -1.0105 -0.6472  1.9087
  469MOL0     H64674   5.657   4.432   6.540  1.4639  0.2010  0.5657
  469MOL0     H64675   5.648   4.270   6.612  2.8200  1.6013  0.7167
  469MOL0     H64676   5.419   4.266   6.643 -0.6065  0.5545  1.0567
  469MOL0     H64677   5.390   4.436   6.608 -1.1603 -1.6405  4.3092
  469MOL0     H64678   5.441   4.405   6.371  2.4503 -3.0475 -2.5621
  469MOL0     H64679   5.510   4.243   6.416  2.6103  1.5381  0.3084
  469MOL0     H64680   5.308   4.533   6.442  0.4729  0.3163 -1.6446
  469MOL0     H64681   5.117   4.769   6.298  3.6708  0.0689 -0.7682
  469MOL0     H64682   5.229   4.753   6.431 -0.2691  1.9549  0.4610
  469MOL0     H64683   5.065   4.785   6.480  3.6276  1.5207  1.6507
  469MOL0     H64684   4.714   4.628   6.101 -4.1695 -2.4129  0.2242
  469MOL0     H64685   4.509   4.740   6.003  0.8318 -4.0349  1.5641
  469MOL0     H64686   4.521   4.952   5.916  0.4642  3.3844 -2.5479
  469MOL0     H64687   4.346   4.971   5.905 -2.4759  3.3487  1.0618
  469MOL0     H64688   4.534   5.191   6.018  0.1012  2.7683 -3.2646
  469MOL0     H64689   4.483   5.175   5.848  1.7069  1.6547  0.1044
  469MOL0     H64690   4.307   5.258   6.079  1.3553  1.1512  0.4541
  469MOL0     H64691   4.241   5.185   5.939  1.2684 -0.4496 -0.7768
  469MOL0     H64692   4.359   5.358   5.786 -0.1147 -0.9798  0.0990
  469MOL0     H64693   4.407   5.435   5.938 -2.7752  2.4884 -0.2068
  469MOL0     H64694   4.204   5.556   5.867 -0.3967 -0.1630  1.3526
  469MOL0     H64695   4.139   5.397   5.817 -1.7568  0.9311  1.7078
  469MOL0     H64696   4.108   5.341   6.054 -1.7283  0.3721  0.6197
  469MOL0     H64697   4.003   5.471   6.003 -1.2248  0.8106  3.1569
  469MOL0     H64698   4.171   5.636   6.132  1.3125  0.6257  2.4507
  469MOL0     H64699   4.275   5.502   6.155  0.5887  0.1408 -1.3024
  469MOL0     H64700   4.108   5.544   6.358 -0.1196  0.8806 -0.3467
  469MOL0     H64701   4.094   5.379   6.285 -2.2027 -1.0030  0.8525
  469MOL0     H64702   4.557   5.055   6.303  0.3075  2.1846 -1.8106
  469MOL0     H64703   4.760   4.940   6.378  3.5670 -2.9660 -0.9187
  469MOL0     H64704   4.855   4.347   6.373  0.1149 -2.6400  1.3467
  469MOL0     H64705   5.050   4.200   6.372  0.6438 -0.9281 -0.5987
  469MOL0     H64706   6.013   3.949   7.929  0.9858  0.4916  2.8803
  469MOL0     H64707   6.240   3.853   8.009 -2.4589  0.8604  0.3477
  469MOL0     H64708   6.465   3.450   8.209  1.3215  0.5517  0.5949
  469MOL0     H64709   6.695   3.347   8.246 -2.4659  0.4651  0.8117
  469MOL0     H64710   6.926   3.219   7.894  3.1151  1.7266  0.4062
  469MOL0     H64711   7.031   3.197   8.031 -0.2061  1.4061  2.7001
  469MOL0     H64712   6.897   2.996   8.021  1.1151  0.1384 -0.7747
  469MOL0     H64713   6.751   3.079   8.047 -0.5914 -0.8883  2.0008
  469MOL0     H64714   6.975   3.088   8.249 -0.3433  0.1010 -0.1726
  469MOL0     H64715   6.817   3.165   8.264 -0.3202 -0.1034 -2.3597
  469MOL0     H64716   6.884   2.931   8.365  0.3241 -1.1938 -0.3994
  469MOL0     H64717   6.829   2.866   8.207 -1.1981 -1.4268  1.1806
  469MOL0     H64718   6.454   2.952   8.341 -0.9521 -0.7656 -0.8128
  469MOL0     H64719   6.764   3.375   7.821  1.1936  0.5124  0.8136
  469MOL0     H64720   6.520   3.581   7.732  0.9542 -0.4060 -0.4212
  469MOL0     H64721   6.571   3.424   7.670  1.6506  0.7476  1.3432
  469MOL0     H64722   6.408   3.451   7.728 -0.3912 -0.4404  0.2298
  470MOL0     O64723   1.388   7.080   3.288  0.7458 -0.1058 -0.3291
  470MOL0     C64724   1.428   7.200   3.317 -0.0294  0.0998 -0.1883
  470MOL0     O64725   1.351   7.310   3.333 -0.6639 -0.1822 -0.5066
  470MOL0     C64726   1.220   7.306   3.369 -0.3661  0.5003 -0.1219
  470MOL0     C64727   1.167   7.212   3.464  0.1225  0.9343  0.7204
  470MOL0     C64728   1.035   7.229   3.507  0.2353 -0.2225 -0.3923
  470MOL0     C64729   0.959   7.332   3.463  0.2940 -0.1306 -0.5278
  470MOL0     O64730   0.825   7.348   3.488 -0.7177  0.2809 -0.0161
  470MOL0     C64731   0.750   7.236   3.546 -0.8367 -0.5403 -0.3255
  470MOL0     C64732   0.603   7.271   3.566  0.4917 -0.7066  0.1986
  470MOL0     C64733   0.511   7.153   3.583 -0.3293 -0.6111  0.0260
  470MOL0     C64734   0.528   7.082   3.712 -0.3235  0.6366 -0.0776
  470MOL0     C64735   0.540   7.161   3.846  0.8441  0.5754  0.4530
  470MOL0     C64736   0.422   7.244   3.884 -0.4270  0.3431  0.4264
  470MOL0     C64737   0.451   7.394   3.919  0.7613  1.4171 -0.0650
  470MOL0     C64738   0.477   7.426   4.067  0.2156 -0.0891 -0.7650
  470MOL0     N64739   0.496   7.573   4.084 -1.6611 -0.2088  0.8890
  470MOL0     C64740   0.394   7.667   4.090  0.1133 -0.3229  1.3398
  470MOL0     C64741   0.455   7.779   4.131  0.4446 -0.2678  0.3269
  470MOL0     C64742   0.384   7.923   4.127  0.3368 -0.9195 -0.2820
  470MOL0     C64743   0.308   7.930   4.264 -0.0880 -0.3197 -0.8988
  470MOL0     C64744   0.175   7.845   4.268 -1.0567 -0.0196  0.3822
  470MOL0     C64745   0.145   7.814   4.417 -0.2567  0.3697 -0.2619
  470MOL0     O64746   0.151   7.928   4.498 -1.1853  0.4907 -0.3779
  470MOL0     C64747   0.195   7.915   4.629  0.1978 -0.2247 -1.2013
  470MOL0     C64748   0.118   7.984   4.727 -0.6451  1.0928  0.3071
  470MOL0     C64749   0.147   7.989   4.865 -0.5390  0.0573  0.3828
  470MOL0     C64750   0.057   8.085   4.947 -0.2257 -0.5546 -0.0591
  470MOL0     C64751   0.247   7.902   4.904 -0.3519  0.0508  0.5602
  470MOL0     C64752   0.275   7.897   5.047  0.0099 -0.1455  0.0736
  470MOL0     O64753   0.328   7.783   5.095  0.5434  0.0747  0.2996
  470MOL0     C64754   0.340   7.761   5.231 -0.0727 -0.0476 -0.3771
  470MOL0     C64755   0.450   7.808   5.292 -0.8110 -0.0649 -0.5402
  470MOL0     C64756   0.446   7.788   5.434  0.0607 -0.1978  0.4581
  470MOL0     C64757   0.356   7.709   5.506 -0.0702  2.0629  0.6186
  470MOL0     O64758   0.356   7.701   5.644 -0.1042 -0.1673  1.3490
  470MOL0     C64759   0.343   7.568   5.709  0.3060 -0.8464  0.5799
  470MOL0     C64760   0.467   7.488   5.704 -0.1481  0.5737 -0.0462
  470MOL0     C64761   0.579   7.567   5.785  0.0774 -0.4833  0.1543
  470MOL0     C64762   0.708   7.496   5.805  1.5158 -0.1393 -0.1813
  470MOL0     C64763   0.790   7.583   5.894  0.5893 -0.7016  0.4627
  470MOL0     C64764   0.934   7.550   5.890 -0.1084  0.2759 -0.1130
  470MOL0     C64765   1.021   7.648   5.968  0.0013 -0.1850  0.6964
  470MOL0     C64766   1.158   7.570   5.984  0.7416  0.5768  1.0730
  470MOL0    Cl64767   1.258   7.600   5.840  0.3195  0.1106  0.1267
  470MOL0     C64768   0.259   7.640   5.422  0.0961  0.8972 -0.0714
  470MOL0     C64769   0.254   7.669   5.289  0.5503 -0.5747 -0.1950
  470MOL0     O64770   0.248   7.995   5.114  0.4657 -0.3116  1.4399
  470MOL0     C64771   0.324   7.827   4.807  0.0933  0.5589  0.2796
  470MOL0     C64772   0.304   7.840   4.672  0.4427  0.5615  0.1088
  470MOL0     N64773   0.585   7.747   4.149  0.2404  0.0406  0.5789
  470MOL0     N64774   0.614   7.629   4.111  1.0422 -0.7536 -0.3732
  470MOL0     C64775   1.011   7.427   3.381 -0.8335 -0.1837  1.3444
  470MOL0     C64776   1.143   7.412   3.337  0.9734 -0.2305  0.1779
  470MOL0     C64777   1.574   7.232   3.306 -0.0538  0.6142 -0.0184
  470MOL0     C64778   1.624   7.356   3.367  0.3202  0.9063  0.6286
  470MOL0     C64779   1.753   7.387   3.353  0.6034  0.1660  0.4568
  470MOL0     C64780   1.846   7.306   3.279 -1.0834 -0.4437 -0.0710
  470MOL0     O64781   1.983   7.329   3.267 -0.2595 -0.3108  0.2382
  470MOL0     C64782   2.048   7.444   3.323  0.3786  0.9434 -0.7741
  470MOL0     C64783   2.040   7.568   3.235 -0.5811  0.4101 -0.8399
  470MOL0     C64784   2.085   7.545   3.098  0.1669  1.6690  1.0148
  470MOL0     C64785   2.130   7.674   3.033  1.1125  0.1735  0.1744
  470MOL0     C64786   2.185   7.660   2.905 -1.4910  0.4488 -1.3104
  470MOL0     C64787   2.249   7.643   2.805  0.4502  0.5092  0.9484
  470MOL0     C64788   1.798   7.194   3.220 -0.3952 -0.4996  0.4155
  470MOL0     C64789   1.666   7.154   3.228 -0.7244  0.3458  0.8153
  470MOL0     C64790   1.642   7.026   3.150  0.2158 -0.2057 -0.1354
  470MOL0     H64791   1.222   7.136   3.519  0.3351  0.1885 -0.4785
  470MOL0     H64792   0.988   7.163   3.579 -3.0380  0.5157 -1.6667
  470MOL0     H64793   0.786   7.205   3.645 -3.1534  0.0397  0.7629
  470MOL0     H64794   0.759   7.155   3.473  0.4124  1.1798 -2.1935
  470MOL0     H64795   0.592   7.327   3.659 -2.7169 -0.8676  0.0499
  470MOL0     H64796   0.561   7.340   3.492  2.8887  2.0578  1.2422
  470MOL0     H64797   0.402   7.164   3.579 -0.2943  0.3067  1.3086
  470MOL0     H64798   0.543   7.082   3.506  2.2899  0.8901 -0.3692
  470MOL0     H64799   0.449   7.007   3.722  0.5883 -0.2949  0.2650
  470MOL0     H64800   0.620   7.025   3.697 -1.4969 -1.1911 -0.6618
  470MOL0     H64801   0.641   7.205   3.846  1.7224 -1.2863 -1.1561
  470MOL0     H64802   0.549   7.088   3.927  1.2240  0.9625  0.7683
  470MOL0     H64803   0.350   7.247   3.802  1.1393 -1.0872 -1.0940
  470MOL0     H64804   0.356   7.202   3.961 -3.1988  4.7491  0.8075
  470MOL0     H64805   0.370   7.457   3.881  0.6493  1.1774 -0.2285
  470MOL0     H64806   0.530   7.426   3.851  0.0809  1.0642 -1.0513
  470MOL0     H64807   0.396   7.381   4.125  1.1767 -0.0370  0.6885
  470MOL0     H64808   0.567   7.376   4.105 -0.1009 -0.8449 -0.9764
  470MOL0     H64809   0.294   7.657   4.050 -0.6216  0.4688  2.9069
  470MOL0     H64810   0.317   7.944   4.044  0.7043 -4.1397 -1.5124
  470MOL0     H64811   0.459   8.002   4.114  0.8930 -0.9944  2.0204
  470MOL0     H64812   0.378   7.899   4.341  0.1042  1.1257 -0.4588
  470MOL0     H64813   0.273   8.032   4.283  0.5127 -0.3482  0.4159
  470MOL0     H64814   0.091   7.901   4.225 -1.3241 -0.3862  0.4224
  470MOL0     H64815   0.184   7.755   4.206 -2.0072 -2.5693  3.6567
  470MOL0     H64816   0.047   7.766   4.426  0.2403 -0.3519  1.8586
  470MOL0     H64817   0.222   7.740   4.441 -1.2522 -0.6993 -0.3163
  470MOL0     H64818   0.048   8.053   4.681 -1.2268  0.1042 -0.2924
  470MOL0     H64819  -0.026   8.124   4.888 -0.5858  4.2439  3.0220
  470MOL0     H64820   0.114   8.169   4.988 -1.8846  0.1619  0.8894
  470MOL0     H64821   0.006   8.035   5.031  1.1063  1.2676  1.9413
  470MOL0     H64822   0.523   7.868   5.239 -3.4505  3.5859 -0.3735
  470MOL0     H64823   0.521   7.844   5.489 -1.4863 -0.0358  2.5612
  470MOL0     H64824   0.324   7.589   5.814 -0.1298 -1.4021  0.6174
  470MOL0     H64825   0.256   7.508   5.682  1.0524 -0.7902 -2.2725
  470MOL0     H64826   0.447   7.388   5.744 -3.6536  0.5962 -1.3472
  470MOL0     H64827   0.498   7.464   5.602  3.8890 -1.2892  1.4203
  470MOL0     H64828   0.533   7.578   5.883 -1.4879  0.3193 -0.6384
  470MOL0     H64829   0.591   7.662   5.730  0.7305 -0.8179 -0.3038
  470MOL0     H64830   0.753   7.488   5.706  1.0677 -2.8817 -0.2287
  470MOL0     H64831   0.699   7.396   5.850 -1.9437 -0.5274 -1.4091
  470MOL0     H64832   0.784   7.689   5.867 -3.5298 -1.1538 -1.2650
  470MOL0     H64833   0.758   7.587   5.998 -2.5334 -1.2036 -0.3660
  470MOL0     H64834   0.969   7.535   5.787  4.3134 -2.7727  1.5273
  470MOL0     H64835   0.936   7.451   5.936 -3.3887  0.1003 -0.1561
  470MOL0     H64836   0.982   7.663   6.069 -0.0473 -2.0601  0.9892
  470MOL0     H64837   1.020   7.748   5.922 -2.4301 -0.1346  0.7307
  470MOL0     H64838   1.141   7.463   5.980 -4.0171  1.0897  1.8702
  470MOL0     H64839   1.199   7.600   6.082  1.1963 -1.6685  1.6178
  470MOL0     H64840   0.193   7.569   5.471  0.5155 -1.9917 -3.2969
  470MOL0     H64841   0.190   7.606   5.228 -0.5777 -0.9664  1.3300
  470MOL0     H64842   0.413   7.779   4.846  1.0832  2.6752  0.7877
  470MOL0     H64843   0.376   7.803   4.600  2.9832  1.7027  1.8995
  470MOL0     H64844   0.955   7.519   3.362  1.7275  0.8483 -2.3345
  470MOL0     H64845   1.177   7.508   3.297 -4.1183  2.2793  1.0075
  470MOL0     H64846   1.571   7.425   3.431 -2.1027 -1.7514  1.7357
  470MOL0     H64847   1.787   7.471   3.412  2.3693 -1.9485  2.6697
  470MOL0     H64848   1.995   7.473   3.414 -0.6571  2.8614 -1.9262
  470MOL0     H64849   2.150   7.410   3.347  0.7924  1.8149 -1.2328
  470MOL0     H64850   2.114   7.630   3.285 -0.4611 -0.9623  0.7778
  470MOL0     H64851   1.938   7.607   3.228 -1.5917 -2.2666 -3.0758
  470MOL0     H64852   2.175   7.484   3.094 -0.9327 -0.4702  4.3311
  470MOL0     H64853   1.999   7.509   3.041 -0.4565  1.9490  1.7507
  470MOL0     H64854   2.212   7.713   3.095  1.3219 -2.0431  1.3877
  470MOL0     H64855   2.045   7.743   3.031 -1.2510 -2.5678  0.2605
  470MOL0     H64856   2.291   7.604   2.714  2.1768  0.7983  1.5711
  470MOL0     H64857   1.872   7.135   3.168  2.5730  1.3192  2.2768
  470MOL0     H64858   1.546   6.975   3.161  0.5765 -0.5015  2.1623
  470MOL0     H64859   1.660   7.048   3.044  1.5113  0.5451  0.2212
  470MOL0     H64860   1.701   6.941   3.186  0.7785  1.4281  3.1867
  471MOL0     O64861   8.123  11.168   2.829  0.5530 -0.5882  0.3135
  471MOL0     C64862   8.180  11.184   2.934 -1.5665  0.5170  0.1678
  471MOL0     O64863   8.256  11.298   2.969 -0.2488 -0.1200 -0.8661
  471MOL0     C64864   8.244  11.422   2.903 -0.5615 -0.5279  0.1731
  471MOL0     C64865   8.117  11.467   2.852 -0.7153 -0.2646 -0.6094
  471MOL0     C64866   8.118  11.598   2.806  0.2891  0.2829 -0.2417
  471MOL0     C64867   8.232  11.680   2.786  0.4320 -0.2703 -0.7796
  471MOL0     O64868   8.227  11.804   2.722 -0.7222  0.4366 -0.8023
  471MOL0     C64869   8.134  11.891   2.774  0.4266  0.0405  0.5917
  471MOL0     C64870   8.175  12.038   2.774  0.0971  1.1424 -1.1566
  471MOL0     C64871   8.302  12.038   2.853 -0.1012  0.2393 -0.4405
  471MOL0     C64872   8.414  12.103   2.769  0.7410 -0.3303 -0.4395
  471MOL0     C64873   8.372  12.253   2.753  1.2277  1.4152  0.1453
  471MOL0     C64874   8.486  12.351   2.791  1.5024  0.0940 -0.6914
  471MOL0     C64875   8.432  12.497   2.758 -0.3671 -0.9392 -1.2532
  471MOL0     C64876   8.546  12.602   2.791  0.9168  0.3011  0.3480
  471MOL0     N64877   8.568  12.618   2.932  0.1883  1.0939  1.2063
  471MOL0     C64878   8.495  12.699   3.011 -1.0150  0.3932 -0.3324
  471MOL0     C64879   8.561  12.716   3.126 -0.8872  0.6010 -0.2295
  471MOL0     C64880   8.536  12.808   3.247  0.2534  0.2841 -1.1169
  471MOL0     C64881   8.625  12.936   3.245 -0.5660 -0.3673 -0.1640
  471MOL0     C64882   8.608  13.040   3.128  0.4598  0.6869  0.2200
  471MOL0     C64883   8.695  13.162   3.149  0.0875 -0.6153 -0.0541
  471MOL0     O64884   8.629  13.282   3.099 -0.0273 -0.1961  0.5218
  471MOL0     C64885   8.574  13.373   3.182 -0.6067  0.2489  0.0977
  471MOL0     C64886   8.507  13.330   3.295  0.2750 -0.4117 -0.2855
  471MOL0     C64887   8.473  13.436   3.387  0.5841  0.6356  0.3553
  471MOL0     C64888   8.425  13.393   3.529  0.9202  0.8968 -0.0276
  471MOL0     C64889   8.490  13.572   3.349 -1.1486  0.1715 -0.3381
  471MOL0     C64890   8.461  13.689   3.439 -0.5874  0.5739 -0.1169
  471MOL0     O64891   8.554  13.780   3.420 -0.9334 -0.6463  0.1996
  471MOL0     C64892   8.567  13.891   3.502 -1.1322  0.5078 -0.8195
  471MOL0     C64893   8.551  13.887   3.645 -0.1046  0.2592 -0.3813
  471MOL0     C64894   8.560  14.008   3.723  0.4124 -0.1594  0.5784
  471MOL0     C64895   8.581  14.132   3.664 -0.1227 -0.3775 -0.5384
  471MOL0     O64896   8.598  14.238   3.748 -0.1529  0.4212 -0.1376
  471MOL0     C64897   8.554  14.361   3.706  0.7190 -0.3907  0.5435
  471MOL0     C64898   8.573  14.459   3.821 -0.5052 -1.3882 -0.8563
  471MOL0     C64899   8.588  14.598   3.776  0.1960 -0.5388  1.1236
  471MOL0     C64900   8.611  14.691   3.892  0.6740 -0.7007  0.9581
  471MOL0     C64901   8.617  14.833   3.833 -0.0243 -1.2047 -0.2415
  471MOL0     C64902   8.494  14.911   3.792 -0.3733 -0.3766 -1.2392
  471MOL0     C64903   8.371  14.885   3.887  0.3244 -0.1106 -0.4058
  471MOL0     C64904   8.238  14.934   3.836  0.1993  0.3500  0.6575
  471MOL0    Cl64905   8.229  15.107   3.786 -0.4463 -0.3093 -0.1065
  471MOL0     C64906   8.602  14.134   3.524  0.1130 -0.3772  0.4514
  471MOL0     C64907   8.611  14.017   3.450  0.5019  0.5452  0.7264
  471MOL0     O64908   8.363  13.692   3.509  0.2184  0.7486  0.5209
  471MOL0     C64909   8.543  13.596   3.225  1.0740 -0.3568  0.3186
  471MOL0     C64910   8.581  13.497   3.140 -0.5906 -0.4361 -0.3024
  471MOL0     N64911   8.669  12.628   3.117 -0.2465  0.4229  0.7673
  471MOL0     N64912   8.668  12.572   2.999  0.1553 -0.3870 -0.2883
  471MOL0     C64913   8.349  11.626   2.824 -0.4762  0.1713  0.8135
  471MOL0     C64914   8.358  11.499   2.892  0.3612 -1.1568 -0.2879
  471MOL0     C64915   8.202  11.068   3.028 -0.5061  0.1563 -0.7604
  471MOL0     C64916   8.285  11.080   3.140 -0.4869  0.0018  0.6088
  471MOL0     C64917   8.305  10.979   3.238  0.1301  0.5601 -0.5926
  471MOL0     C64918   8.232  10.854   3.234  0.5808  0.7806 -0.2588
  471MOL0     O64919   8.222  10.749   3.323  0.3362 -0.2459  0.5932
  471MOL0     C64920   8.319  10.753   3.422 -0.4101 -0.1887 -0.0634
  471MOL0     C64921   8.307  10.620   3.492 -0.3955 -0.4711 -0.2669
  471MOL0     C64922   8.356  10.646   3.633 -0.4956  0.1778 -0.3486
  471MOL0     C64923   8.509  10.678   3.645  0.5281 -0.3408 -0.6182
  471MOL0     C64924   8.588  10.572   3.593 -0.3555 -0.5206 -0.0577
  471MOL0     C64925   8.649  10.491   3.535  0.0794  0.1356 -0.6114
  471MOL0     C64926   8.150  10.836   3.124 -0.0247 -0.3494 -0.2465
  471MOL0     C64927   8.138  10.937   3.019  0.5238  0.4970 -0.3802
  471MOL0     C64928   8.040  10.908   2.903 -0.1177  0.0040 -0.8811
  471MOL0     H64929   8.035  11.398   2.836  0.6233 -1.3922 -3.3679
  471MOL0     H64930   8.026  11.644   2.773  0.5476 -0.8574 -2.7699
  471MOL0     H64931   8.101  11.859   2.874  1.8963 -1.7146  0.5637
  471MOL0     H64932   8.045  11.889   2.710  0.9614  0.3219 -0.1655
  471MOL0     H64933   8.194  12.080   2.675 -0.4082  1.7930 -0.9905
  471MOL0     H64934   8.100  12.094   2.830  2.9841  3.1961  0.9759
  471MOL0     H64935   8.299  12.091   2.949  1.5965 -0.0994 -0.1705
  471MOL0     H64936   8.350  11.947   2.890  3.3696  1.1767 -2.2300
  471MOL0     H64937   8.509  12.083   2.819  1.6877 -2.3522 -2.8549
  471MOL0     H64938   8.439  12.055   2.674  1.1332  0.5486 -0.7985
  471MOL0     H64939   8.285  12.279   2.814  0.0612 -3.5958  1.1010
  471MOL0     H64940   8.332  12.271   2.653  0.7560 -1.2015 -0.2118
  471MOL0     H64941   8.509  12.339   2.897  0.7010 -0.8488 -0.6130
  471MOL0     H64942   8.579  12.331   2.738  2.1828  1.4352 -0.0403
  471MOL0     H64943   8.341  12.520   2.813  1.0480  0.5151  0.6366
  471MOL0     H64944   8.419  12.510   2.650  1.3382  0.1866 -1.3700
  471MOL0     H64945   8.633  12.541   2.765  0.1506  0.2182 -2.3833
  471MOL0     H64946   8.534  12.694   2.733 -1.7127  0.6725  1.3750
  471MOL0     H64947   8.411  12.763   2.986  0.6354  1.8141 -2.6429
  471MOL0     H64948   8.540  12.761   3.346  1.5018  2.1195 -0.2379
  471MOL0     H64949   8.430  12.832   3.235 -0.5438 -0.3854  3.0678
  471MOL0     H64950   8.590  13.001   3.326  1.9059 -0.1610  0.8203
  471MOL0     H64951   8.730  12.915   3.265 -0.3980 -0.4357 -1.0401
  471MOL0     H64952   8.652  12.985   3.045 -2.6254 -3.1479  0.8183
  471MOL0     H64953   8.502  13.053   3.103  0.6530 -1.0051 -1.8062
  471MOL0     H64954   8.727  13.184   3.251 -1.0953 -2.3875  0.7581
  471MOL0     H64955   8.783  13.137   3.089 -1.1142  1.0908 -2.7619
  471MOL0     H64956   8.495  13.223   3.311 -4.0740 -0.1302 -0.4945
  471MOL0     H64957   8.355  13.464   3.573  0.1779 -0.5755  1.2783
  471MOL0     H64958   8.514  13.380   3.592  1.1925 -0.3063 -0.6181
  471MOL0     H64959   8.369  13.299   3.518 -2.2554  2.8077 -1.6289
  471MOL0     H64960   8.521  13.792   3.688  0.1813  1.0092  1.6195
  471MOL0     H64961   8.545  13.994   3.829  0.6257 -1.9771  0.4031
  471MOL0     H64962   8.611  14.385   3.615 -2.8341  2.6212 -1.1367
  471MOL0     H64963   8.447  14.350   3.684  1.4783 -1.0944 -3.9687
  471MOL0     H64964   8.492  14.447   3.894 -0.7299  1.6778 -0.4789
  471MOL0     H64965   8.671  14.444   3.868  1.0115  3.0613 -2.1127
  471MOL0     H64966   8.496  14.629   3.726  0.9124 -0.2975 -0.0788
  471MOL0     H64967   8.672  14.616   3.708  1.1049  0.9095  2.5217
  471MOL0     H64968   8.709  14.664   3.933  1.6629  0.0049 -0.7978
  471MOL0     H64969   8.527  14.686   3.962 -1.0889  1.2990 -0.8724
  471MOL0     H64970   8.646  14.889   3.921  0.5689 -2.2588  0.2518
  471MOL0     H64971   8.691  14.840   3.753 -0.9512 -0.5758 -1.0813
  471MOL0     H64972   8.471  14.892   3.687  1.5396 -0.4314 -1.6693
  471MOL0     H64973   8.501  15.019   3.804 -1.9213 -0.3996  0.3450
  471MOL0     H64974   8.389  14.936   3.982  0.8498 -0.9158 -0.0593
  471MOL0     H64975   8.363  14.776   3.897  3.3152 -0.6484 -2.5741
  471MOL0     H64976   8.159  14.909   3.907 -0.6034 -0.4016 -0.4542
  471MOL0     H64977   8.208  14.868   3.753 -1.5098 -2.1892  3.0927
  471MOL0     H64978   8.648  14.223   3.484  1.2748  0.0182  2.5146
  471MOL0     H64979   8.653  14.022   3.350  0.4159 -3.5856  0.3039
  471MOL0     H64980   8.565  13.699   3.197 -0.4462 -0.1519 -0.2634
  471MOL0     H64981   8.635  13.519   3.049 -1.4450 -0.3250 -0.7863
  471MOL0     H64982   8.431  11.695   2.806 -1.1040  0.0483 -3.7397
  471MOL0     H64983   8.450  11.459   2.933 -0.1518 -0.3812  1.7308
  471MOL0     H64984   8.344  11.168   3.164  2.1092 -0.1540 -4.0253
  471MOL0     H64985   8.357  11.011   3.328  0.4577  3.5972 -1.7486
  471MOL0     H64986   8.419  10.769   3.379 -0.6191 -2.4644 -1.5757
  471MOL0     H64987   8.283  10.839   3.479 -1.4376  0.2334 -1.2943
  471MOL0     H64988   8.360  10.538   3.443 -2.0251 -2.3127  0.8999
  471MOL0     H64989   8.201  10.593   3.496 -0.9153  1.1077 -2.0847
  471MOL0     H64990   8.304  10.723   3.691  1.6373  1.5617 -0.1614
  471MOL0     H64991   8.334  10.555   3.690  2.5545 -0.2181  0.3454
  471MOL0     H64992   8.536  10.690   3.750  2.1107  3.3533 -1.2846
  471MOL0     H64993   8.522  10.777   3.599  2.6619 -1.2261 -2.0528
  471MOL0     H64994   8.697  10.403   3.498 -0.3497 -0.6521  0.6459
  471MOL0     H64995   8.108  10.738   3.106  0.6858 -0.9046  1.0063
  471MOL0     H64996   8.077  10.910   2.800  0.7435  0.7084 -0.5667
  471MOL0     H64997   8.003  10.805   2.911 -0.7556 -0.5959 -6.8041
  471MOL0     H64998   7.955  10.973   2.926 -0.0420 -1.0128  3.0378
  472MOL0     O64999  10.472  10.658   2.972 -0.5347  0.3398  0.2382
  472MOL0     C65000  10.413  10.623   3.069  0.5719  0.9335  0.0654
  472MOL0     O65001  10.285  10.576   3.071 -0.2423 -0.3052 -0.5196
  472MOL0     C65002  10.214  10.579   2.954 -0.1928  0.5537  0.5248
  472MOL0     C65003  10.120  10.676   2.937  0.5840  0.3034 -0.4957
  472MOL0     C65004  10.047  10.694   2.825 -0.2938 -1.0623  1.1931
  472MOL0     C65005  10.057  10.611   2.714  0.1562 -0.8847 -0.2596
  472MOL0     O65006   9.976  10.627   2.603  0.0379  0.1307 -0.0810
  472MOL0     C65007  10.015  10.563   2.485  0.4935 -0.3765 -0.1457
  472MOL0     C65008   9.905  10.602   2.380 -0.3438 -0.1758 -0.8325
  472MOL0     C65009   9.916  10.550   2.236  0.2361  0.8374 -0.1938
  472MOL0     C65010  10.053  10.596   2.166 -0.0335  0.3710  0.0076
  472MOL0     C65011  10.063  10.513   2.030  0.2667  0.9157  0.0453
  472MOL0     C65012  10.148  10.378   2.060  0.5701  0.0279 -0.4640
  472MOL0     C65013  10.191  10.294   1.937 -1.2969 -0.1698 -0.7498
  472MOL0     C65014  10.311  10.194   1.975 -0.1661  0.1960 -0.7725
  472MOL0     N65015  10.439  10.229   1.912 -0.3318  0.1308  0.5732
  472MOL0     C65016  10.496  10.154   1.805  0.0865  0.4213  0.0122
  472MOL0     C65017  10.618  10.198   1.795  0.1589 -0.1304 -0.3940
  472MOL0     C65018  10.703  10.170   1.673  0.6029  0.1109  0.2025
  472MOL0     C65019  10.819  10.069   1.685  0.2522 -0.3468  1.0317
  472MOL0     C65020  10.956  10.137   1.690  0.8915  0.3161  0.7291
  472MOL0     C65021  11.045  10.018   1.687  0.4419  0.1975  0.4463
  472MOL0     O65022  11.175  10.049   1.723 -1.1719 -0.2014  0.2763
  472MOL0     C65023  11.271   9.955   1.695 -0.0414 -0.3811  0.1213
  472MOL0     C65024  11.257   9.818   1.663 -0.2365 -0.2136 -0.5491
  472MOL0     C65025  11.369   9.735   1.649 -0.9125  0.1709  1.5778
  472MOL0     C65026  11.334   9.593   1.607 -0.1239 -0.4834  1.5365
  472MOL0     C65027  11.499   9.785   1.684  0.7200  0.3968 -0.0309
  472MOL0     C65028  11.625   9.712   1.678 -0.4629  0.1679  0.3147
  472MOL0     O65029  11.724   9.750   1.768 -0.5838  0.1529  0.2455
  472MOL0     C65030  11.846   9.694   1.769 -0.5564 -0.3504 -1.0536
  472MOL0     C65031  11.941   9.775   1.816 -0.3711  0.4624  0.7178
  472MOL0     C65032  12.069   9.735   1.820  0.3398 -1.1043  0.3391
  472MOL0     C65033  12.105   9.603   1.778  0.0770 -0.5767 -0.0184
  472MOL0     O65034  12.236   9.577   1.800  0.1599 -0.9758 -0.5997
  472MOL0     C65035  12.288   9.448   1.767 -0.8312 -0.9178 -0.6346
  472MOL0     C65036  12.448   9.465   1.778  0.5327  0.6996 -0.4955
  472MOL0     C65037  12.508   9.525   1.643  0.1346 -0.8641  0.5660
  472MOL0     C65038  12.642   9.597   1.684 -0.2418  0.7636 -0.5193
  472MOL0     C65039  12.687   9.672   1.561  0.7820 -0.0967 -0.1929
  472MOL0     C65040  12.822   9.745   1.590 -0.2672 -0.7367  0.0580
  472MOL0     C65041  12.882   9.807   1.466  0.3172  1.4035 -0.6182
  472MOL0     C65042  13.019   9.861   1.494  0.1154 -0.3824  0.2179
  472MOL0    Cl65043  13.015   9.979   1.631  0.1165 -0.4392  0.3526
  472MOL0     C65044  12.007   9.518   1.740 -0.2120  0.6766 -0.0043
  472MOL0     C65045  11.878   9.561   1.725  0.8274  0.8081  0.2271
  472MOL0     O65046  11.629   9.619   1.602 -0.2826 -0.1978  0.9224
  472MOL0     C65047  11.515   9.923   1.719  0.1319  0.3890  0.2415
  472MOL0     C65048  11.401   9.999   1.709  0.8038 -0.3726  0.5585
  472MOL0     N65049  10.638  10.302   1.891 -0.4441 -0.3469  0.2384
  472MOL0     N65050  10.535  10.306   1.964 -0.8584  0.8558  0.4221
  472MOL0     C65051  10.147  10.508   2.732  0.6120 -0.3606  0.1173
  472MOL0     C65052  10.229  10.497   2.847  0.1969  0.4817 -0.5018
  472MOL0     C65053  10.480  10.646   3.199 -0.4872 -0.6748 -0.0850
  472MOL0     C65054  10.418  10.600   3.314  0.6113  0.2986 -1.0561
  472MOL0     C65055  10.463  10.623   3.446 -0.6506 -0.3616  0.4098
  472MOL0     C65056  10.591  10.680   3.463  0.0804  0.0302 -0.4879
  472MOL0     O65057  10.649  10.687   3.584 -0.0289 -0.4577 -0.0613
  472MOL0     C65058  10.653  10.821   3.636 -0.7509  0.3551  0.8272
  472MOL0     C65059  10.506  10.857   3.688 -0.0294 -0.3076  0.8282
  472MOL0     C65060  10.456  10.756   3.796 -0.3653 -0.5845  0.2978
  472MOL0     C65061  10.534  10.738   3.918 -0.5818 -0.1894  1.0911
  472MOL0     C65062  10.522  10.844   4.014  0.2400 -0.2359  0.4338
  472MOL0     C65063  10.493  10.924   4.101 -0.8925 -0.2541 -0.3698
  472MOL0     C65064  10.654  10.724   3.350  0.4028 -0.0269 -1.1606
  472MOL0     C65065  10.605  10.709   3.217 -0.4230  0.0670  0.2251
  472MOL0     C65066  10.675  10.788   3.107  0.0324  0.3513  0.3612
  472MOL0     H65067  10.116  10.753   3.013  0.8965  2.0922 -2.2125
  472MOL0     H65068   9.981  10.780   2.818  2.4180  1.1971  1.5288
  472MOL0     H65069  10.016  10.454   2.497 -0.4706 -0.2398  1.3622
  472MOL0     H65070  10.120  10.586   2.461  0.3091  1.0924  0.3501
  472MOL0     H65071   9.816  10.560   2.427  0.7040  2.3178  4.0171
  472MOL0     H65072   9.897  10.711   2.384  1.9743  0.0081  2.0696
  472MOL0     H65073   9.911  10.441   2.234  0.9407  0.6486  2.7579
  472MOL0     H65074   9.831  10.593   2.182 -0.3336 -0.3314 -0.2695
  472MOL0     H65075  10.056  10.705   2.154  1.8602  0.3658  0.1394
  472MOL0     H65076  10.139  10.573   2.228  1.9499  3.8788 -1.1522
  472MOL0     H65077  10.114  10.572   1.954 -3.0684  1.5967 -1.8392
  472MOL0     H65078   9.962  10.489   1.996  0.9617  0.0255 -1.4825
  472MOL0     H65079  10.244  10.403   2.106  2.0587 -0.9471 -2.8629
  472MOL0     H65080  10.084  10.320   2.128  0.5415 -0.3915 -0.8443
  472MOL0     H65081  10.221  10.358   1.854  0.4043  1.9577  1.3262
  472MOL0     H65082  10.103  10.246   1.893 -0.7118 -1.0465 -0.9819
  472MOL0     H65083  10.326  10.182   2.082  2.8983 -0.6943 -1.1929
  472MOL0     H65084  10.290  10.094   1.936 -2.0205  0.4320 -0.4480
  472MOL0     H65085  10.452  10.083   1.736 -1.2245  2.1115 -0.9602
  472MOL0     H65086  10.750  10.264   1.641  2.1487 -0.3353  1.0677
  472MOL0     H65087  10.641  10.132   1.591  2.6623 -2.0913 -0.4537
  472MOL0     H65088  10.795  10.018   1.779 -6.0614 -2.2304 -1.1160
  472MOL0     H65089  10.813   9.993   1.607  0.7216  0.7161 -0.0748
  472MOL0     H65090  10.975  10.200   1.603  1.9423 -1.6918 -0.5648
  472MOL0     H65091  10.971  10.188   1.786  0.2784 -0.4598  1.2493
  472MOL0     H65092  11.008   9.929   1.740 -0.2514 -1.7158 -2.9617
  472MOL0     H65093  11.016   9.970   1.593 -0.4485  1.3474  0.1004
  472MOL0     H65094  11.159   9.775   1.646  0.8761 -2.0084 -3.0270
  472MOL0     H65095  11.237   9.545   1.625  1.7391 -4.1481  2.9184
  472MOL0     H65096  11.407   9.526   1.653  0.6730  0.0383  1.0492
  472MOL0     H65097  11.365   9.570   1.505  1.0123 -1.3467  2.0604
  472MOL0     H65098  11.909   9.876   1.841  1.1313  1.4295 -0.9826
  472MOL0     H65099  12.142   9.796   1.871  1.7498 -0.7911 -1.8900
  472MOL0     H65100  12.272   9.383   1.853 -1.0857  1.1136  0.9448
  472MOL0     H65101  12.256   9.404   1.672 -1.2056  1.0489 -1.4793
  472MOL0     H65102  12.475   9.529   1.862  1.0736  1.9502 -1.5831
  472MOL0     H65103  12.507   9.377   1.804  1.0671  0.1379 -3.2379
  472MOL0     H65104  12.442   9.596   1.592 -2.9337 -3.0365  1.2454
  472MOL0     H65105  12.521   9.452   1.563  6.1080  1.2421 -0.9355
  472MOL0     H65106  12.708   9.516   1.719 -0.5513  1.3487  1.5912
  472MOL0     H65107  12.635   9.669   1.766  1.9001  0.6745 -0.2062
  472MOL0     H65108  12.697   9.608   1.473 -2.4040 -0.2636 -0.5426
  472MOL0     H65109  12.601   9.738   1.548 -0.0955 -0.5437  2.6412
  472MOL0     H65110  12.889   9.673   1.639  0.5933 -0.9518 -1.3840
  472MOL0     H65111  12.812   9.825   1.664  4.2551  0.7242 -0.5828
  472MOL0     H65112  12.810   9.881   1.427 -3.8753 -1.9205  0.0476
  472MOL0     H65113  12.888   9.732   1.387 -2.3450  1.7510 -1.2467
  472MOL0     H65114  13.054   9.922   1.411  2.1341 -1.6508  0.0604
  472MOL0     H65115  13.093   9.781   1.486 -2.2018 -2.7760  1.2965
  472MOL0     H65116  12.025   9.412   1.726 -1.7343  0.2224  1.1372
  472MOL0     H65117  11.798   9.497   1.688  0.7213  2.2414 -2.2362
  472MOL0     H65118  11.611   9.964   1.749  0.4192 -0.0111 -0.1276
  472MOL0     H65119  11.408  10.106   1.726 -1.1962 -0.4780  2.4360
  472MOL0     H65120  10.151  10.425   2.661 -3.6992  0.4347 -1.3607
  472MOL0     H65121  10.304  10.419   2.853 -0.1974  0.2034  2.7219
  472MOL0     H65122  10.330  10.538   3.306  0.0228  1.2790 -2.3928
  472MOL0     H65123  10.401  10.594   3.530 -0.9736 -2.3320 -0.4622
  472MOL0     H65124  10.727  10.829   3.715  1.0399  1.3998 -0.8860
  472MOL0     H65125  10.688  10.887   3.557 -0.3301  0.9553  1.5093
  472MOL0     H65126  10.424  10.880   3.619  0.6723  3.3841  1.0509
  472MOL0     H65127  10.523  10.955   3.733 -2.5701  0.5641  0.0624
  472MOL0     H65128  10.353  10.786   3.819 -0.3478  1.4819 -1.8168
  472MOL0     H65129  10.477  10.658   3.753  0.9317  0.9860 -3.1110
  472MOL0     H65130  10.637  10.720   3.887 -0.5893 -0.8654  1.4193
  472MOL0     H65131  10.482  10.654   3.966  1.2426 -1.2313  1.3175
  472MOL0     H65132  10.474  10.998   4.176 -2.8638 -1.3317  0.2811
  472MOL0     H65133  10.746  10.779   3.367  0.6164 -0.6227 -0.3243
  472MOL0     H65134  10.674  10.741   3.008 -1.6715 -2.2760  1.5217
  472MOL0     H65135  10.619  10.880   3.085  3.2193  2.5619  0.6921
  472MOL0     H65136  10.778  10.819   3.128  0.0304 -0.3272  1.4563
  473MOL0     O65137   1.417   5.278   0.345 -0.3835  0.7406  0.3672
  473MOL0     C65138   1.476   5.239   0.452 -0.7954 -0.3932  0.0755
  473MOL0     O65139   1.595   5.179   0.452 -0.0528  0.7697  0.5300
  473MOL0     C65140   1.693   5.200   0.359  0.2740 -0.3425 -0.3529
  473MOL0     C65141   1.743   5.092   0.289  0.0749  0.9659  0.2885
  473MOL0     C65142   1.848   5.105   0.196 -0.5419 -0.2659  0.1973
  473MOL0     C65143   1.904   5.232   0.166 -0.1990 -1.2692  0.4620
  473MOL0     O65144   2.021   5.250   0.092 -0.0502 -0.4118 -0.3620
  473MOL0     C65145   2.020   5.344  -0.012 -0.2458 -0.7938 -0.8764
  473MOL0     C65146   2.052   5.276  -0.154 -0.0386 -0.1284  0.2133
  473MOL0     C65147   2.001   5.130  -0.159 -0.3993  0.0018  0.3226
  473MOL0     C65148   1.973   5.079  -0.297  0.2042 -0.2998 -0.2362
  473MOL0     C65149   1.900   4.939  -0.298 -0.0884  0.1061  0.3028
  473MOL0     C65150   1.983   4.831  -0.229  0.5561  0.3769  0.3300
  473MOL0     C65151   1.946   4.693  -0.280 -0.4023  1.3354  0.0839
  473MOL0     C65152   1.796   4.659  -0.286  0.5767  0.2297 -0.1145
  473MOL0     N65153   1.759   4.520  -0.315 -0.6558 -0.3348  0.7199
  473MOL0     C65154   1.851   4.415  -0.318 -0.0619  0.8136 -0.1860
  473MOL0     C65155   1.795   4.321  -0.400 -1.2529  0.2517 -0.0362
  473MOL0     C65156   1.878   4.197  -0.434 -0.5707 -0.7495  0.4746
  473MOL0     C65157   1.833   4.096  -0.331 -0.1759 -0.1186 -0.1278
  473MOL0     C65158   1.887   3.964  -0.378 -1.0477 -0.8385  0.2324
  473MOL0     C65159   1.885   3.860  -0.266 -0.1598 -0.5214  0.2174
  473MOL0     O65160   1.919   3.896  -0.137 -0.0560 -0.0619 -0.2098
  473MOL0     C65161   1.982   3.793  -0.070 -0.2381 -0.8310  0.1753
  473MOL0     C65162   1.910   3.673  -0.031 -0.0525 -0.6020  0.3575
  473MOL0     C65163   1.978   3.565   0.040 -0.2975  0.2927  1.1303
  473MOL0     C65164   1.897   3.433   0.062  0.5260  0.7891  0.3894
  473MOL0     C65165   2.118   3.584   0.076  0.7312  0.4515 -0.6695
  473MOL0     C65166   2.194   3.490   0.155 -0.0449 -0.4848  0.6603
  473MOL0     O65167   2.128   3.405   0.249  0.3348 -0.4971  0.1008
  473MOL0     C65168   2.191   3.317   0.339  0.9093 -0.0767 -0.3441
  473MOL0     C65169   2.281   3.222   0.292 -0.2480  0.2922 -0.7536
  473MOL0     C65170   2.314   3.118   0.381 -0.5603  0.3109 -0.9011
  473MOL0     C65171   2.256   3.106   0.508  1.1331  0.3013 -0.1458
  473MOL0     O65172   2.301   3.012   0.599  0.2722 -0.1134 -0.4129
  473MOL0     C65173   2.246   3.004   0.727 -0.4131  0.1555  0.5166
  473MOL0     C65174   2.343   2.921   0.810 -0.6852 -0.5393 -0.2669
  473MOL0     C65175   2.339   2.767   0.769  0.0362 -0.8960  0.1269
  473MOL0     C65176   2.360   2.687   0.896  0.9981 -0.9450  0.4970
  473MOL0     C65177   2.232   2.665   0.967 -0.5665 -0.5263 -0.7949
  473MOL0     C65178   2.266   2.588   1.099 -0.5683  0.6253 -0.9694
  473MOL0     C65179   2.142   2.564   1.166  0.9174  0.1560 -0.1526
  473MOL0     C65180   2.163   2.496   1.301 -0.2700 -0.0164  1.2381
  473MOL0    Cl65181   2.254   2.611   1.415 -0.3596 -0.2919 -0.2363
  473MOL0     C65182   2.166   3.206   0.544 -0.1260 -0.4870  0.0036
  473MOL0     C65183   2.141   3.315   0.462  0.2527  0.2260  0.6041
  473MOL0     O65184   2.316   3.492   0.142  0.5061 -0.5189 -1.3460
  473MOL0     C65185   2.181   3.704   0.046  0.8525 -0.3523 -0.4191
  473MOL0     C65186   2.114   3.805  -0.023  1.3381 -1.1970  0.4192
  473MOL0     N65187   1.673   4.366  -0.448  0.2154 -0.9180 -0.3369
  473MOL0     N65188   1.653   4.483  -0.399  0.0230 -1.2370  0.6072
  473MOL0     C65189   1.840   5.341   0.231 -0.3058  0.2572 -0.0177
  473MOL0     C65190   1.735   5.321   0.321  0.1060  0.1592  0.2344
  473MOL0     C65191   1.416   5.251   0.589  0.3880 -0.2649  0.0117
  473MOL0     C65192   1.489   5.203   0.700  1.1713  1.2111  0.7803
  473MOL0     C65193   1.445   5.226   0.832  0.1291 -0.1755  0.0611
  473MOL0     C65194   1.324   5.295   0.850  0.4309  0.0327 -0.3694
  473MOL0     O65195   1.274   5.342   0.968 -0.0252 -0.3865  0.2240
  473MOL0     C65196   1.319   5.299   1.100 -0.0804  0.5474 -0.1773
  473MOL0     C65197   1.204   5.258   1.194  0.3660  0.2726  0.4291
  473MOL0     C65198   1.118   5.382   1.205  0.2715 -0.4018  0.6920
  473MOL0     C65199   1.007   5.376   1.311 -0.8070 -0.6516 -0.5261
  473MOL0     C65200   0.891   5.278   1.292 -0.7796  0.3410 -0.5063
  473MOL0     C65201   0.788   5.224   1.282  1.0691 -0.5776 -0.3971
  473MOL0     C65202   1.248   5.327   0.740  0.1965 -1.0018  0.7708
  473MOL0     C65203   1.289   5.306   0.609 -0.3693  0.0265  0.2885
  473MOL0     C65204   1.200   5.347   0.492  1.1837  0.6325  0.7245
  473MOL0     H65205   1.707   4.995   0.322 -0.4321  0.6222 -1.1963
  473MOL0     H65206   1.881   5.013   0.147 -0.8288 -0.8318  1.0478
  473MOL0     H65207   2.089   5.429  -0.007 -0.8881 -0.1722 -2.0520
  473MOL0     H65208   1.918   5.383  -0.011  0.6673  1.9729 -2.6595
  473MOL0     H65209   2.001   5.334  -0.231 -2.8947  0.4370  2.3941
  473MOL0     H65210   2.161   5.272  -0.168  0.0324 -0.9266  0.8731
  473MOL0     H65211   2.075   5.062  -0.117 -1.3915 -1.7095 -0.5830
  473MOL0     H65212   1.904   5.124  -0.110 -0.2162 -0.2590  0.6565
  473MOL0     H65213   1.909   5.156  -0.341 -1.7919 -0.6822  1.7836
  473MOL0     H65214   2.065   5.055  -0.350 -0.1444 -0.8192 -0.6092
  473MOL0     H65215   1.891   4.913  -0.404 -0.6339  1.8156 -0.0928
  473MOL0     H65216   1.802   4.951  -0.251 -0.8999  0.2450 -1.3705
  473MOL0     H65217   2.088   4.854  -0.246 -0.1253  1.1299 -3.9554
  473MOL0     H65218   1.961   4.836  -0.122  0.0775 -2.3110  0.4349
  473MOL0     H65219   1.976   4.629  -0.197  0.5816 -3.9720 -3.8330
  473MOL0     H65220   2.000   4.665  -0.371  1.5263 -1.1541  1.8600
  473MOL0     H65221   1.763   4.682  -0.184  1.8207 -0.5003  0.4880
  473MOL0     H65222   1.751   4.722  -0.364 -0.4049  0.0924  0.3305
  473MOL0     H65223   1.944   4.423  -0.263  2.1136 -0.0188 -3.4616
  473MOL0     H65224   1.983   4.221  -0.419 -1.3752  3.7783  0.0654
  473MOL0     H65225   1.854   4.163  -0.535 -3.3214 -1.0798  1.1526
  473MOL0     H65226   1.869   4.120  -0.230 -2.2240  0.2657  0.5625
  473MOL0     H65227   1.724   4.096  -0.333 -0.1738  0.5154 -0.5065
  473MOL0     H65228   1.845   3.939  -0.476 -0.5757 -0.8303  0.0260
  473MOL0     H65229   1.992   3.981  -0.401 -1.4541  2.2939  0.2614
  473MOL0     H65230   1.786   3.813  -0.255 -0.4209  0.4320  2.3155
  473MOL0     H65231   1.942   3.775  -0.305  1.3327  0.8150 -0.6298
  473MOL0     H65232   1.803   3.661  -0.045 -0.2246  0.4872  0.6199
  473MOL0     H65233   1.800   3.433   0.011 -0.7401  0.8618  2.6603
  473MOL0     H65234   1.883   3.417   0.170  1.2550  0.0191  0.3788
  473MOL0     H65235   1.960   3.357   0.016  1.8436 -0.3053  3.6855
  473MOL0     H65236   2.336   3.227   0.199  1.1081  1.5012  0.0802
  473MOL0     H65237   2.378   3.039   0.341 -0.3686 -0.8128  1.4336
  473MOL0     H65238   2.230   3.102   0.774  0.7786  1.7452 -2.1824
  473MOL0     H65239   2.146   2.959   0.731 -1.0342  1.4876  1.0215
  473MOL0     H65240   2.444   2.959   0.794  0.2461 -3.3067 -1.5494
  473MOL0     H65241   2.309   2.940   0.912  0.7901  0.8638  0.0176
  473MOL0     H65242   2.424   2.743   0.705  0.0252  0.1277 -0.2890
  473MOL0     H65243   2.254   2.731   0.710  0.8510 -0.0726 -1.6101
  473MOL0     H65244   2.427   2.741   0.963  1.3484 -0.5871 -0.1271
  473MOL0     H65245   2.405   2.590   0.873 -2.0959 -2.4431  0.2298
  473MOL0     H65246   2.181   2.754   1.005  0.6133 -0.9495  2.0115
  473MOL0     H65247   2.159   2.613   0.905 -0.8661 -0.5494 -0.4220
  473MOL0     H65248   2.341   2.640   1.160  1.5494  0.1635 -3.0023
  473MOL0     H65249   2.312   2.493   1.070  0.1793  0.6056  0.2057
  473MOL0     H65250   2.077   2.499   1.107  1.2125 -1.1076  0.8536
  473MOL0     H65251   2.086   2.657   1.181 -0.4957 -0.2916 -2.2429
  473MOL0     H65252   2.224   2.407   1.283  2.8782  2.2162 -0.0868
  473MOL0     H65253   2.066   2.463   1.338 -1.1363 -0.2702 -1.1022
  473MOL0     H65254   2.120   3.197   0.642 -0.6638 -0.6999 -0.2624
  473MOL0     H65255   2.062   3.382   0.494 -1.8807 -1.5424 -0.7158
  473MOL0     H65256   2.285   3.726   0.067  0.3413  0.1989  1.9263
  473MOL0     H65257   2.171   3.897  -0.032 -3.5209  1.8649 -3.7533
  473MOL0     H65258   1.887   5.439   0.223  3.3059 -1.1551  1.7305
  473MOL0     H65259   1.689   5.403   0.375 -2.9343 -1.1113 -0.2021
  473MOL0     H65260   1.590   5.164   0.683 -0.1611 -2.6983  0.7584
  473MOL0     H65261   1.508   5.201   0.917  0.0461  0.5014  0.3292
  473MOL0     H65262   1.390   5.215   1.096 -1.0542 -0.5410  2.8901
  473MOL0     H65263   1.369   5.381   1.152  0.1669 -0.2678  0.9058
  473MOL0     H65264   1.243   5.233   1.293  3.4734  2.4636 -0.0757
  473MOL0     H65265   1.137   5.178   1.160 -1.4898  0.8187  2.6019
  473MOL0     H65266   1.187   5.464   1.227  0.7803 -0.6932  0.1840
  473MOL0     H65267   1.066   5.399   1.111  1.2143 -2.6763 -0.3244
  473MOL0     H65268   0.962   5.475   1.307  2.6379  1.1938  1.2050
  473MOL0     H65269   1.056   5.360   1.408  2.8266 -1.8267 -2.3586
  473MOL0     H65270   0.697   5.168   1.279  0.4534  0.3482  0.5625
  473MOL0     H65271   1.152   5.372   0.764  0.4141 -1.2548  2.2045
  473MOL0     H65272   1.220   5.446   0.450 -3.4874  0.3476 -3.1229
  473MOL0     H65273   1.173   5.268   0.421  3.0928 -1.5530  2.2731
  473MOL0     H65274   1.103   5.363   0.541  0.2676 -1.0514 -0.4353
  474MOL0     O65275   1.398   0.637   3.100 -0.1873 -0.4142  0.6766
  474MOL0     C65276   1.430   0.639   3.215  0.7346 -0.0704  0.4300
  474MOL0     O65277   1.551   0.592   3.262 -0.2203 -0.2993  0.1300
  474MOL0     C65278   1.651   0.577   3.170  0.0377 -0.4883 -0.0523
  474MOL0     C65279   1.737   0.466   3.184 -0.6463 -1.1812  0.1084
  474MOL0     C65280   1.842   0.459   3.091  0.7157  0.0906 -0.2929
  474MOL0     C65281   1.873   0.555   2.992  0.4447 -0.0189 -0.2031
  474MOL0     O65282   1.977   0.538   2.905 -0.7560  0.2750  0.2656
  474MOL0     C65283   2.101   0.599   2.937  0.1521  1.1858  0.5806
  474MOL0     C65284   2.180   0.640   2.820  0.2009 -0.2648 -0.1010
  474MOL0     C65285   2.321   0.664   2.862  0.1140 -0.5100  0.0356
  474MOL0     C65286   2.425   0.688   2.744  0.4676 -0.7908  0.4793
  474MOL0     C65287   2.571   0.661   2.781  0.0054  0.5218 -1.1136
  474MOL0     C65288   2.635   0.760   2.883  0.0258 -0.2634  0.3767
  474MOL0     C65289   2.779   0.795   2.845 -0.0019 -1.1972  1.2767
  474MOL0     C65290   2.836   0.890   2.952  0.3140 -0.3715 -0.5365
  474MOL0     N65291   2.977   0.923   2.936 -0.3823  0.2842 -0.4304
  474MOL0     C65292   3.035   1.034   2.880  1.8584 -0.1653 -0.0929
  474MOL0     C65293   3.173   1.015   2.890  0.3518  0.2294  0.6992
  474MOL0     C65294   3.259   1.129   2.848 -0.6326  0.8241 -0.4192
  474MOL0     C65295   3.396   1.066   2.816  0.1630 -0.1828 -0.2788
  474MOL0     C65296   3.485   1.041   2.935  0.0398  0.4201  0.9610
  474MOL0     C65297   3.604   1.129   2.942 -0.2953 -0.6236 -0.1749
  474MOL0     O65298   3.569   1.270   2.958  0.1317 -1.3310 -0.4083
  474MOL0     C65299   3.663   1.373   2.944 -0.0177  1.2438 -0.7711
  474MOL0     C65300   3.789   1.337   2.905  0.1519  0.0352 -0.0129
  474MOL0     C65301   3.884   1.433   2.868 -0.2890 -0.1022 -0.0959
  474MOL0     C65302   4.004   1.381   2.796 -0.5318 -0.7357 -0.8293
  474MOL0     C65303   3.860   1.563   2.911 -0.0403  0.1810 -0.4767
  474MOL0     C65304   3.968   1.663   2.899  0.0930  0.4751  0.0063
  474MOL0     O65305   4.076   1.656   2.992 -0.1024  0.0629  0.4571
  474MOL0     C65306   4.175   1.762   2.998  0.7343  0.1625 -0.8424
  474MOL0     C65307   4.309   1.720   2.997 -0.4856 -0.5318 -0.9561
  474MOL0     C65308   4.406   1.817   3.027 -0.2182  1.1224 -0.1400
  474MOL0     C65309   4.384   1.951   3.040 -0.2634  0.4460 -0.7441
  474MOL0     O65310   4.503   2.018   3.044  0.6512 -0.2792  0.6406
  474MOL0     C65311   4.495   2.143   3.098  1.1034  0.1173 -0.4351
  474MOL0     C65312   4.617   2.171   3.172 -0.1903  0.1282 -1.2028
  474MOL0     C65313   4.629   2.079   3.296 -0.6733  0.3160 -0.0226
  474MOL0     C65314   4.755   2.110   3.374  1.0652 -0.6572 -0.2832
  474MOL0     C65315   4.772   2.022   3.502 -0.0825 -0.5068  0.3771
  474MOL0     C65316   4.787   1.874   3.481 -1.2229 -0.3537  1.0504
  474MOL0     C65317   4.794   1.809   3.628  0.7791 -0.1399 -0.5344
  474MOL0     C65318   4.926   1.832   3.689 -0.0919  0.2689  0.7849
  474MOL0    Cl65319   4.945   1.729   3.832  0.0940 -0.7140 -0.0011
  474MOL0     C65320   4.249   1.995   3.033  0.1684 -0.7072  0.0264
  474MOL0     C65321   4.149   1.901   3.027 -0.2944  0.6041  0.7180
  474MOL0     O65322   3.949   1.754   2.817  0.3236 -0.4242  0.2238
  474MOL0     C65323   3.736   1.609   2.957 -0.4369  0.5841  0.5609
  474MOL0     C65324   3.627   1.509   2.975 -0.0750 -0.0897  0.2501
  474MOL0     N65325   3.196   0.889   2.932 -0.7572 -0.0234 -0.0537
  474MOL0     N65326   3.079   0.837   2.963 -0.2417 -0.4036 -0.9168
  474MOL0     C65327   1.788   0.663   2.979  0.2823  0.2193 -0.7173
  474MOL0     C65328   1.689   0.675   3.074 -0.3051  0.0632  0.0623
  474MOL0     C65329   1.352   0.716   3.318  0.1239 -0.4937  0.1507
  474MOL0     C65330   1.412   0.720   3.449 -0.3518  0.4626  0.2614
  474MOL0     C65331   1.340   0.776   3.551 -0.1031  1.0121 -0.1735
  474MOL0     C65332   1.213   0.833   3.532 -0.5954 -1.0388  0.8206
  474MOL0     O65333   1.155   0.888   3.644  0.0361 -0.3284 -0.4798
  474MOL0     C65334   1.011   0.931   3.624 -0.8700 -0.1175  0.5721
  474MOL0     C65335   0.945   0.961   3.755  1.1174 -0.6094 -0.6703
  474MOL0     C65336   0.785   0.955   3.753 -0.1392  0.0100  0.2534
  474MOL0     C65337   0.720   0.985   3.893  0.1262  0.2665  1.1443
  474MOL0     C65338   0.742   0.878   3.988  0.0224 -0.4451 -0.0622
  474MOL0     C65339   0.727   0.791   4.079 -0.0166  0.6081  0.5903
  474MOL0     C65340   1.162   0.829   3.396 -0.3509  0.0773  0.0788
  474MOL0     C65341   1.227   0.770   3.288  0.2769 -0.4012  0.1694
  474MOL0     C65342   1.152   0.772   3.147 -0.2863  0.7055  0.7524
  474MOL0     H65343   1.721   0.391   3.261 -1.6916  0.0024  1.0923
  474MOL0     H65344   1.916   0.381   3.078  0.6811  0.1471 -0.8445
  474MOL0     H65345   2.154   0.513   2.980  0.8576  0.7318 -1.1153
  474MOL0     H65346   2.095   0.686   3.003 -1.2053 -0.0057  2.1211
  474MOL0     H65347   2.179   0.560   2.745 -1.6971  0.2894 -0.7256
  474MOL0     H65348   2.137   0.727   2.770  0.6406 -0.9606 -1.7769
  474MOL0     H65349   2.332   0.733   2.945 -2.7210 -1.7018  1.5267
  474MOL0     H65350   2.360   0.576   2.913 -0.3485  1.4626  4.2041
  474MOL0     H65351   2.409   0.623   2.658  1.6732  0.7635 -0.9817
  474MOL0     H65352   2.405   0.787   2.704 -1.4519 -0.5873  1.8051
  474MOL0     H65353   2.619   0.660   2.683 -2.6723 -1.4415 -2.5416
  474MOL0     H65354   2.571   0.559   2.820 -0.8934  0.1807 -1.9454
  474MOL0     H65355   2.576   0.848   2.909 -1.9832 -0.6334 -2.4697
  474MOL0     H65356   2.642   0.709   2.979 -0.6302 -0.2698  0.4212
  474MOL0     H65357   2.782   0.847   2.749  0.6263 -1.8990  0.8956
  474MOL0     H65358   2.838   0.704   2.827  1.0456 -0.1420 -1.0270
  474MOL0     H65359   2.775   0.980   2.968 -0.0348 -0.8855  1.2435
  474MOL0     H65360   2.824   0.853   3.054 -3.9460 -0.1569 -0.7725
  474MOL0     H65361   2.986   1.118   2.833 -0.6576 -3.0995 -3.2526
  474MOL0     H65362   3.265   1.208   2.923  0.7969 -0.4129  0.8377
  474MOL0     H65363   3.218   1.171   2.755 -1.5487  0.6144 -0.1183
  474MOL0     H65364   3.383   0.976   2.754  1.6181 -1.5914  1.3470
  474MOL0     H65365   3.455   1.125   2.746  1.6851  1.3851  2.2022
  474MOL0     H65366   3.421   1.043   3.024  0.0180 -0.9546  0.9986
  474MOL0     H65367   3.523   0.939   2.923  1.5750  0.5582  3.8084
  474MOL0     H65368   3.649   1.098   3.037 -2.6155  0.9501  1.5597
  474MOL0     H65369   3.671   1.110   2.858 -0.9226 -1.2439 -0.5440
  474MOL0     H65370   3.817   1.233   2.890 -1.1921 -0.1444 -1.5638
  474MOL0     H65371   4.086   1.438   2.841 -1.4074 -2.2389  3.1305
  474MOL0     H65372   3.997   1.405   2.690  0.9871 -0.3258 -0.8603
  474MOL0     H65373   4.025   1.275   2.811 -1.4405 -0.5089  3.2268
  474MOL0     H65374   4.347   1.622   2.970  3.0578  0.5184 -0.3238
  474MOL0     H65375   4.511   1.789   3.022 -1.0380 -2.7338  0.8524
  474MOL0     H65376   4.469   2.210   3.015 -2.2563 -0.6426 -0.1443
  474MOL0     H65377   4.420   2.157   3.176 -1.1565  1.1945 -2.6510
  474MOL0     H65378   4.704   2.151   3.110  0.8092  5.3528 -1.9184
  474MOL0     H65379   4.625   2.273   3.213  0.6382 -1.8648  4.5528
  474MOL0     H65380   4.642   1.977   3.259  2.5257  0.4473  0.4459
  474MOL0     H65381   4.540   2.081   3.359 -0.1626  0.0605  0.7098
  474MOL0     H65382   4.742   2.212   3.411  0.1294 -1.2097  0.9941
  474MOL0     H65383   4.848   2.093   3.318  1.3034  0.5034 -0.2575
  474MOL0     H65384   4.860   2.068   3.547  0.2072  1.1441 -1.6968
  474MOL0     H65385   4.676   2.025   3.555 -0.8717 -4.4015 -0.5415
  474MOL0     H65386   4.877   1.856   3.421 -0.1521  2.5462  1.6306
  474MOL0     H65387   4.697   1.832   3.434  0.0589  0.6759 -2.6737
  474MOL0     H65388   4.764   1.704   3.619 -3.0922  0.5195  2.1138
  474MOL0     H65389   4.724   1.849   3.702  2.2847  0.1333  0.8077
  474MOL0     H65390   4.942   1.939   3.707  2.1320  0.0158  0.6128
  474MOL0     H65391   5.005   1.802   3.620 -1.7676  0.6767 -1.4151
  474MOL0     H65392   4.231   2.102   3.035  1.9510 -0.3913  0.8403
  474MOL0     H65393   4.047   1.930   3.049 -1.1382 -1.0496 -0.7600
  474MOL0     H65394   3.719   1.709   2.996 -1.5285  1.3009 -1.5897
  474MOL0     H65395   3.531   1.534   3.019  0.9275  0.9324  1.9638
  474MOL0     H65396   1.811   0.735   2.900  0.2579  0.8654 -0.1498
  474MOL0     H65397   1.632   0.767   3.066 -2.5466 -1.1135  1.5483
  474MOL0     H65398   1.498   0.659   3.476 -0.6786 -0.3550 -0.4903
  474MOL0     H65399   1.389   0.788   3.647  0.5245  0.2028 -0.3818
  474MOL0     H65400   1.028   1.022   3.565 -0.7132 -2.0583 -2.6114
  474MOL0     H65401   0.950   0.860   3.567  0.9830 -0.8321 -0.5811
  474MOL0     H65402   0.979   1.062   3.777  2.8323 -1.2411 -0.2732
  474MOL0     H65403   0.978   0.895   3.837  0.9807 -2.4779 -2.0577
  474MOL0     H65404   0.742   1.029   3.685 -3.1640 -2.2424 -0.4764
  474MOL0     H65405   0.751   0.855   3.725 -0.0679 -0.2649  1.1171
  474MOL0     H65406   0.614   1.004   3.875  0.4502 -0.8511 -3.1722
  474MOL0     H65407   0.758   1.074   3.943  1.4164  0.0218  0.6273
  474MOL0     H65408   0.718   0.713   4.151  1.0970 -0.6950 -0.6187
  474MOL0     H65409   1.063   0.865   3.370 -1.2685 -2.1130  0.3099
  474MOL0     H65410   1.160   0.671   3.106  1.6678  0.1423  2.3632
  474MOL0     H65411   1.049   0.810   3.150  0.1863  2.1529 -0.3425
  474MOL0     H65412   1.212   0.832   3.078  0.3717  0.5403  1.1720
  475MOL0     O65413  10.199   6.975   3.607 -0.1805  0.4615  0.5736
  475MOL0     C65414  10.245   7.069   3.668  0.8477 -1.0291 -0.1423
  475MOL0     O65415  10.335   7.062   3.763  0.3843  1.3320 -0.4129
  475MOL0     C65416  10.392   6.940   3.793 -0.4895 -0.7172 -0.5604
  475MOL0     C65417  10.392   6.911   3.927  0.3371  0.5413  0.2434
  475MOL0     C65418  10.439   6.798   3.982 -0.9969 -0.0311  0.0503
  475MOL0     C65419  10.509   6.700   3.904 -0.0397  0.1020 -0.1002
  475MOL0     O65420  10.556   6.591   3.969 -0.2094 -0.7098 -0.1926
  475MOL0     C65421  10.666   6.510   3.921  0.9367  0.1047 -0.1735
  475MOL0     C65422  10.809   6.567   3.930  0.4127 -0.5545 -0.9237
  475MOL0     C65423  10.858   6.570   4.075 -0.5646 -0.4201 -0.2119
  475MOL0     C65424  10.818   6.685   4.155  0.8564  0.1405  0.6384
  475MOL0     C65425  10.867   6.684   4.300 -0.1009 -0.1355 -0.6852
  475MOL0     C65426  10.773   6.655   4.413 -0.1948  0.1248 -0.6213
  475MOL0     C65427  10.726   6.522   4.425  0.4114  0.5363  0.6035
  475MOL0     C65428  10.610   6.520   4.523 -1.2825 -0.3047  0.9527
  475MOL0     N65429  10.500   6.614   4.513  0.0453 -0.3857 -0.6086
  475MOL0     C65430  10.403   6.612   4.416  0.1292 -0.4853 -0.8408
  475MOL0     C65431  10.342   6.730   4.435  0.1971  0.0164 -0.2009
  475MOL0     C65432  10.218   6.769   4.360 -0.1579 -0.7690  0.6306
  475MOL0     C65433  10.098   6.701   4.439  0.1300  0.3881  0.1498
  475MOL0     C65434   9.962   6.739   4.358 -0.1368  0.2777 -0.8827
  475MOL0     C65435   9.955   6.703   4.212 -0.1748  0.0393  0.1909
  475MOL0     O65436   9.825   6.728   4.168  0.1244 -0.7281 -0.2995
  475MOL0     C65437   9.761   6.653   4.081 -0.0707  0.6713  0.1322
  475MOL0     C65438   9.655   6.708   4.018  0.6034 -0.1268 -0.2171
  475MOL0     C65439   9.580   6.639   3.919 -0.8674 -0.4002 -0.1933
  475MOL0     C65440   9.468   6.701   3.849 -0.6639 -1.3241 -0.3726
  475MOL0     C65441   9.621   6.511   3.886 -0.2258 -0.1342 -0.0152
  475MOL0     C65442   9.550   6.422   3.789  0.2350  0.2670  0.6231
  475MOL0     O65443   9.575   6.286   3.800  0.2312 -0.4380 -0.2048
  475MOL0     C65444   9.538   6.205   3.694 -0.3602  0.8360 -0.1623
  475MOL0     C65445   9.439   6.107   3.715  0.6834 -1.0495 -0.0792
  475MOL0     C65446   9.381   6.037   3.609  0.7506  0.0869  0.1802
  475MOL0     C65447   9.436   6.056   3.480 -1.0881 -0.4128 -0.3728
  475MOL0     O65448   9.380   5.997   3.371  0.3656 -0.1283 -0.4132
  475MOL0     C65449   9.241   5.953   3.364  1.2987  0.1208  0.1410
  475MOL0     C65450   9.253   5.849   3.249  0.6732 -0.3690 -0.0223
  475MOL0     C65451   9.131   5.848   3.153  0.3402 -0.3173  0.7636
  475MOL0     C65452   8.993   5.843   3.217 -0.3499  1.4305  0.1436
  475MOL0     C65453   8.890   5.831   3.106  0.4000 -0.7865  0.9503
  475MOL0     C65454   8.750   5.770   3.157  1.5100  0.0374 -0.2313
  475MOL0     C65455   8.659   5.802   3.043 -0.0879 -0.5499  0.2912
  475MOL0     C65456   8.518   5.744   3.074 -1.0424 -0.4456 -0.3473
  475MOL0    Cl65457   8.526   5.558   3.051  0.1745 -0.2604 -0.0559
  475MOL0     C65458   9.553   6.139   3.465 -0.7379  0.2828 -0.1211
  475MOL0     C65459   9.598   6.221   3.569  0.2569 -0.8733 -0.5328
  475MOL0     O65460   9.483   6.470   3.697  0.3380  0.5747 -0.1658
  475MOL0     C65461   9.744   6.456   3.941  0.7075  0.9235  0.4148
  475MOL0     C65462   9.813   6.529   4.037 -0.4806 -0.3786  0.0359
  475MOL0     N65463  10.391   6.800   4.535  0.4840  0.7264 -0.0079
  475MOL0     N65464  10.490   6.731   4.581  0.7461 -0.0240 -0.0858
  475MOL0     C65465  10.520   6.728   3.763  1.1057  0.2773  0.3173
  475MOL0     C65466  10.456   6.845   3.708 -0.1012  0.6470  0.8905
  475MOL0     C65467  10.187   7.202   3.658 -0.2930 -1.8987 -0.6513
  475MOL0     C65468  10.197   7.296   3.760 -0.8542  0.9355  0.0760
  475MOL0     C65469  10.135   7.422   3.742 -0.3700 -0.0200 -0.8299
  475MOL0     C65470  10.079   7.461   3.618  0.5070  0.6200 -0.4555
  475MOL0     O65471  10.018   7.588   3.594  0.0896  1.3513 -0.0078
  475MOL0     C65472   9.901   7.635   3.664 -0.4701 -0.2518 -0.3142
  475MOL0     C65473   9.795   7.651   3.552 -0.4037 -0.2356 -0.0700
  475MOL0     C65474   9.737   7.523   3.502 -0.7908  0.2166  0.4792
  475MOL0     C65475   9.590   7.520   3.473  0.0497 -0.4007  0.2980
  475MOL0     C65476   9.553   7.386   3.414 -0.5263  0.4768  0.3744
  475MOL0     C65477   9.522   7.283   3.362  0.4282  0.8364 -0.0921
  475MOL0     C65478  10.081   7.373   3.517  0.4454  0.7570  0.0167
  475MOL0     C65479  10.135   7.242   3.537  0.3888 -0.0542  1.4311
  475MOL0     C65480  10.149   7.173   3.401  0.4992 -0.4282  0.6145
  475MOL0     H65481  10.337   6.985   3.984 -3.0941  0.4157 -2.5212
  475MOL0     H65482  10.436   6.791   4.090  1.0427 -1.7269  0.0573
  475MOL0     H65483  10.652   6.491   3.815  1.9812 -0.9121 -0.1486
  475MOL0     H65484  10.673   6.413   3.971  4.6187  1.6983  2.9065
  475MOL0     H65485  10.874   6.514   3.860  1.5012 -0.7716  0.2213
  475MOL0     H65486  10.783   6.670   3.902 -3.5542 -1.2917 -0.5586
  475MOL0     H65487  10.835   6.476   4.126  0.7653 -2.3937 -2.9755
  475MOL0     H65488  10.967   6.575   4.075 -0.5073  0.5268  2.9986
  475MOL0     H65489  10.863   6.772   4.106 -2.4233  2.5268  1.4863
  475MOL0     H65490  10.710   6.698   4.165  0.7261 -2.0074  3.0309
  475MOL0     H65491  10.898   6.788   4.314 -0.6681  0.1793 -1.6928
  475MOL0     H65492  10.959   6.624   4.302 -0.8518 -1.5754  3.5637
  475MOL0     H65493  10.812   6.696   4.507  0.3023  0.2878 -0.8982
  475MOL0     H65494  10.689   6.719   4.385 -0.1753  2.6925  4.1292
  475MOL0     H65495  10.808   6.454   4.452  0.0887  0.1023  0.5063
  475MOL0     H65496  10.693   6.493   4.325  0.7973  1.6371  0.1472
  475MOL0     H65497  10.562   6.424   4.500 -2.2839 -0.1332  2.2426
  475MOL0     H65498  10.655   6.530   4.622 -1.6610 -1.0054  1.2048
  475MOL0     H65499  10.382   6.533   4.345 -2.7794 -0.5030 -0.1102
  475MOL0     H65500  10.236   6.745   4.255  4.9141 -3.9976  1.8734
  475MOL0     H65501  10.194   6.876   4.360 -0.0918 -0.7491 -0.0351
  475MOL0     H65502  10.108   6.593   4.434  0.2301  0.2982  1.7544
  475MOL0     H65503  10.099   6.724   4.546  0.2894  0.6923  0.0843
  475MOL0     H65504   9.892   6.686   4.423  1.1822  1.4711  1.6697
  475MOL0     H65505   9.938   6.846   4.368  1.6876  0.6351  0.3777
  475MOL0     H65506  10.030   6.760   4.156 -0.0596 -1.6127 -1.4406
  475MOL0     H65507   9.983   6.597   4.208  2.4782  0.6720 -0.0251
  475MOL0     H65508   9.642   6.815   4.031  0.1120 -0.2403  0.3056
  475MOL0     H65509   9.372   6.664   3.886 -1.8949  1.4992 -0.5231
  475MOL0     H65510   9.462   6.692   3.740  0.7492 -1.5737 -0.4559
  475MOL0     H65511   9.474   6.807   3.876  3.3305 -0.9849 -1.8564
  475MOL0     H65512   9.399   6.094   3.815  1.6305 -2.2434  0.1727
  475MOL0     H65513   9.299   5.970   3.634 -0.7735  2.2596  1.2685
  475MOL0     H65514   9.202   5.909   3.456  1.7922  1.9970  1.3201
  475MOL0     H65515   9.175   6.039   3.346  1.8755  0.9535  1.7761
  475MOL0     H65516   9.338   5.871   3.183  1.1945 -0.6906  0.5341
  475MOL0     H65517   9.261   5.750   3.294 -0.7711  0.1796  1.5796
  475MOL0     H65518   9.128   5.767   3.079 -6.1608 -0.7431  0.9036
  475MOL0     H65519   9.124   5.940   3.094 -2.5015 -0.2559  1.0457
  475MOL0     H65520   8.977   5.935   3.273 -2.9800  1.5896 -0.7234
  475MOL0     H65521   8.970   5.753   3.276 -2.7353  0.6957 -1.7196
  475MOL0     H65522   8.855   5.933   3.089  0.7141  0.1024  4.6785
  475MOL0     H65523   8.912   5.779   3.012 -2.4741  0.9391 -0.8431
  475MOL0     H65524   8.720   5.826   3.246  0.1529 -0.5626 -0.2937
  475MOL0     H65525   8.756   5.663   3.178  1.6660  0.1005  0.0540
  475MOL0     H65526   8.691   5.746   2.954 -1.2091  2.9490 -2.5175
  475MOL0     H65527   8.655   5.906   3.011 -0.3412 -0.6989 -0.1750
  475MOL0     H65528   8.451   5.786   2.998  2.0661  1.4296 -2.2745
  475MOL0     H65529   8.487   5.784   3.172 -0.3646  4.4201 -1.8491
  475MOL0     H65530   9.592   6.144   3.364 -0.5048 -3.7404 -0.3950
  475MOL0     H65531   9.669   6.302   3.561  0.8689 -1.4998 -1.6655
  475MOL0     H65532   9.798   6.367   3.910  0.6044  0.5283  1.3367
  475MOL0     H65533   9.908   6.484   4.061 -0.5357 -1.6094 -1.8692
  475MOL0     H65534  10.584   6.672   3.695  1.2802  1.5649 -0.6317
  475MOL0     H65535  10.465   6.876   3.605  1.3978 -1.8399  0.1923
  475MOL0     H65536  10.261   7.283   3.847  0.6276  2.7804 -0.6472
  475MOL0     H65537  10.144   7.496   3.821  1.4391  1.0061 -1.8991
  475MOL0     H65538   9.857   7.579   3.746 -1.8398  1.5562  0.2640
  475MOL0     H65539   9.921   7.738   3.696  0.8483 -0.4098 -0.5631
  475MOL0     H65540   9.844   7.712   3.476 -0.2045  4.3753  3.3209
  475MOL0     H65541   9.711   7.704   3.599 -0.0887  0.6724 -0.5136
  475MOL0     H65542   9.785   7.484   3.411  0.0405 -4.1778  2.5190
  475MOL0     H65543   9.747   7.450   3.583  2.7348  3.0701  2.9375
  475MOL0     H65544   9.560   7.599   3.403 -0.7771 -0.7227  0.2668
  475MOL0     H65545   9.526   7.531   3.561 -1.5002  0.6180 -0.9013
  475MOL0     H65546   9.496   7.189   3.320  0.0733 -0.5825  2.9942
  475MOL0     H65547  10.054   7.416   3.421  2.1626  0.9634 -0.4166
  475MOL0     H65548  10.090   7.221   3.323 -0.9214  0.1514  1.9951
  475MOL0     H65549  10.251   7.187   3.363  0.7936 -3.5551 -0.0544
  475MOL0     H65550  10.114   7.069   3.401  0.8540 -0.5717  1.9682
  476MOL0     O65551   0.780   6.584   8.871  0.0992 -0.4758  0.0487
  476MOL0     C65552   0.873   6.581   8.950 -0.2787  0.5483 -0.2201
  476MOL0     O65553   0.868   6.518   9.075 -0.3667  0.2471 -0.0618
  476MOL0     C65554   0.743   6.499   9.131 -0.5467  0.0256  0.6738
  476MOL0     C65555   0.667   6.620   9.150 -0.4665  0.3121  0.4202
  476MOL0     C65556   0.536   6.595   9.201  0.3190  0.3898  0.3283
  476MOL0     C65557   0.479   6.481   9.229 -1.0100 -0.8233 -0.8146
  476MOL0     O65558   0.355   6.478   9.279 -0.3208 -0.3730  0.2231
  476MOL0     C65559   0.315   6.367   9.362 -0.0706  0.5151  0.1587
  476MOL0     C65560   0.208   6.441   9.446 -0.5018  0.3934  0.9952
  476MOL0     C65561   0.085   6.469   9.359  0.2400  0.4556 -1.4254
  476MOL0     C65562  -0.040   6.507   9.429  0.0825  0.7312 -0.6894
  476MOL0     C65563  -0.157   6.524   9.344  0.9037  0.0822  0.1947
  476MOL0     C65564  -0.227   6.391   9.289 -0.1074 -0.1708 -0.6309
  476MOL0     C65565  -0.344   6.406   9.200  0.4610  0.1423 -0.2286
  476MOL0     C65566  -0.398   6.269   9.151 -0.6706 -0.0257  0.6282
  476MOL0     N65567  -0.450   6.194   9.262  0.0368  0.1976  0.8209
  476MOL0     C65568  -0.553   6.238   9.348 -0.8698 -0.2490 -0.2419
  476MOL0     C65569  -0.595   6.132   9.418 -1.0448 -0.7168 -0.3551
  476MOL0     C65570  -0.687   6.140   9.532 -0.1370  0.8939 -0.9708
  476MOL0     C65571  -0.802   6.231   9.502  0.5859  0.2893 -0.1577
  476MOL0     C65572  -0.818   6.347   9.598  0.1239  0.4217  0.1376
  476MOL0     C65573  -0.742   6.476   9.558  0.0944 -0.9194 -0.0455
  476MOL0     O65574  -0.743   6.578   9.661 -0.9031  0.9077 -0.6136
  476MOL0     C65575  -0.693   6.699   9.646 -0.5058 -0.0255  0.3186
  476MOL0     C65576  -0.614   6.745   9.540  0.2216 -0.0253  0.2931
  476MOL0     C65577  -0.570   6.885   9.531 -0.0481  0.6584 -0.2080
  476MOL0     C65578  -0.468   6.918   9.418 -0.0929 -0.7154 -0.2940
  476MOL0     C65579  -0.617   6.974   9.628 -0.5684 -0.2009 -1.2863
  476MOL0     C65580  -0.602   7.122   9.634  0.0633 -0.1470  0.2196
  476MOL0     O65581  -0.609   7.178   9.756  0.4597  0.1714  0.0054
  476MOL0     C65582  -0.563   7.308   9.751 -0.5147 -0.6302 -0.6078
  476MOL0     C65583  -0.659   7.413   9.754  0.7664 -0.4689  0.4897
  476MOL0     C65584  -0.621   7.550   9.785  0.8961  0.6653  0.1593
  476MOL0     C65585  -0.487   7.580   9.808  0.1141 -0.0163  0.5340
  476MOL0     O65586  -0.446   7.706   9.844  0.0505  0.1688  0.4847
  476MOL0     C65587  -0.322   7.756   9.898 -0.7474  0.9181 -0.4376
  476MOL0     C65588  -0.347   7.886   9.955 -0.5326 -1.3066 -0.4587
  476MOL0     C65589  -0.219   7.915  10.043  0.7894 -0.5434 -0.0784
  476MOL0     C65590  -0.257   8.028  10.152  0.3025  0.7489 -0.0591
  476MOL0     C65591  -0.129   8.110  10.168 -0.1027 -0.4169 -0.7334
  476MOL0     C65592  -0.169   8.250  10.225  0.8054  0.4174  0.1467
  476MOL0     C65593  -0.036   8.334  10.222  0.0080 -0.0088  0.3341
  476MOL0     C65594  -0.065   8.468  10.292  0.0598 -1.0895  0.0988
  476MOL0    Cl65595   0.073   8.593  10.289 -0.2447 -0.3582 -0.1981
  476MOL0     C65596  -0.395   7.472   9.808 -0.5739 -0.6033  0.1131
  476MOL0     C65597  -0.438   7.346   9.787 -1.1958  0.3630  0.4355
  476MOL0     O65598  -0.564   7.174   9.529  0.2500 -0.1055 -0.3750
  476MOL0     C65599  -0.694   6.926   9.740  0.1172  0.2581 -0.1875
  476MOL0     C65600  -0.727   6.796   9.743 -0.5466  1.1405  0.3448
  476MOL0     N65601  -0.517   6.025   9.382 -0.6558 -0.7701 -0.1659
  476MOL0     N65602  -0.430   6.061   9.293  0.0440  0.1345  0.4623
  476MOL0     C65603   0.568   6.367   9.228  0.3357  0.1319 -0.5230
  476MOL0     C65604   0.703   6.374   9.170  0.8838 -0.3464 -0.0232
  476MOL0     C65605   1.002   6.643   8.910  0.9052 -0.0463 -0.1558
  476MOL0     C65606   0.995   6.766   8.838  0.4978  0.3108  0.2722
  476MOL0     C65607   1.116   6.830   8.803  0.7490  0.6984  0.7653
  476MOL0     C65608   1.239   6.779   8.837  0.6347 -1.1568  0.1858
  476MOL0     O65609   1.362   6.846   8.830  0.8271 -0.3959  0.7770
  476MOL0     C65610   1.361   6.986   8.847 -0.1139  0.1857 -0.9369
  476MOL0     C65611   1.456   7.042   8.944 -0.4865  0.8465 -0.6431
  476MOL0     C65612   1.604   7.033   8.894  0.9760  0.2353 -0.0796
  476MOL0     C65613   1.707   7.106   8.990  0.7255 -0.5493  0.3286
  476MOL0     C65614   1.795   7.183   8.904 -0.5155 -0.8338  0.1718
  476MOL0     C65615   1.882   7.255   8.861 -0.3626  0.1337  1.2780
  476MOL0     C65616   1.246   6.660   8.905  0.7920 -0.4674 -0.0167
  476MOL0     C65617   1.133   6.585   8.937  0.5338 -1.3754 -0.3211
  476MOL0     C65618   1.155   6.451   8.997  0.7830 -0.0927  0.1349
  476MOL0     H65619   0.698   6.721   9.124 -1.3106  0.2024 -1.1240
  476MOL0     H65620   0.467   6.677   9.223  1.4715  1.1595  1.1873
  476MOL0     H65621   0.400   6.341   9.426 -1.4323 -0.2399  1.7441
  476MOL0     H65622   0.278   6.288   9.297 -0.0973 -0.8038  1.7040
  476MOL0     H65623   0.183   6.379   9.532 -1.9868  2.0616  1.8173
  476MOL0     H65624   0.251   6.534   9.484 -1.0893  0.5819  1.2076
  476MOL0     H65625   0.111   6.553   9.294 -0.6999  0.2236 -2.1217
  476MOL0     H65626   0.065   6.375   9.307  3.6946 -1.0710 -0.2827
  476MOL0     H65627  -0.067   6.445   9.515 -1.7017  2.4549  0.0694
  476MOL0     H65628  -0.025   6.612   9.457 -1.5879  1.1453 -1.2800
  476MOL0     H65629  -0.126   6.582   9.257 -1.0971  0.3407 -0.3958
  476MOL0     H65630  -0.226   6.599   9.382  0.9518  0.5961 -0.7094
  476MOL0     H65631  -0.150   6.332   9.240 -0.7994 -0.6467 -1.1571
  476MOL0     H65632  -0.258   6.331   9.375 -4.5648  3.1034  0.3937
  476MOL0     H65633  -0.309   6.464   9.113 -0.4044 -0.1134 -0.7562
  476MOL0     H65634  -0.420   6.462   9.255  3.3398  3.8676  0.4162
  476MOL0     H65635  -0.479   6.280   9.078  0.5414  1.6672 -0.5224
  476MOL0     H65636  -0.323   6.205   9.102 -1.6487 -1.4746  0.9446
  476MOL0     H65637  -0.599   6.336   9.345  1.3081  0.8118 -2.1886
  476MOL0     H65638  -0.630   6.172   9.620  2.8489 -0.6000 -2.2173
  476MOL0     H65639  -0.726   6.041   9.559 -0.8722  2.0694  3.0755
  476MOL0     H65640  -0.810   6.269   9.400 -1.1482  0.4197 -0.0007
  476MOL0     H65641  -0.898   6.179   9.513 -0.5509  1.9683 -1.6093
  476MOL0     H65642  -0.925   6.368   9.603  0.4962  2.1721  1.2927
  476MOL0     H65643  -0.771   6.324   9.694  1.7239 -0.2791 -0.7777
  476MOL0     H65644  -0.637   6.447   9.546  0.9176  1.7677 -0.0058
  476MOL0     H65645  -0.771   6.522   9.464  2.9127 -0.4709 -0.7821
  476MOL0     H65646  -0.583   6.674   9.463  0.0778  2.6405 -2.4268
  476MOL0     H65647  -0.408   6.831   9.388  1.1753  0.3618 -0.9537
  476MOL0     H65648  -0.394   6.989   9.457 -1.1109  0.2738 -0.1141
  476MOL0     H65649  -0.530   6.970   9.344 -0.0542  1.2350  0.9898
  476MOL0     H65650  -0.762   7.383   9.734  0.4002  1.0466 -0.0290
  476MOL0     H65651  -0.692   7.633   9.786  0.5175  0.3711  2.3033
  476MOL0     H65652  -0.303   7.682   9.977 -0.9786  0.6042 -0.6765
  476MOL0     H65653  -0.239   7.758   9.827  1.5883 -1.1336  2.0246
  476MOL0     H65654  -0.364   7.960   9.876  0.3013  2.1239  2.3154
  476MOL0     H65655  -0.421   7.907  10.033  1.0517  4.2924  0.0121
  476MOL0     H65656  -0.147   7.949   9.968  0.9879  1.3368  0.8989
  476MOL0     H65657  -0.181   7.834  10.105 -3.9295 -3.0663 -0.0420
  476MOL0     H65658  -0.269   7.982  10.250  0.3151  3.0066  1.0672
  476MOL0     H65659  -0.340   8.090  10.116 -0.7076 -0.8976 -0.6683
  476MOL0     H65660  -0.051   8.065  10.231  2.9243  3.0173 -1.6936
  476MOL0     H65661  -0.089   8.127  10.068 -1.5874  0.0631 -1.2543
  476MOL0     H65662  -0.210   8.256  10.326  0.1720  4.7986 -0.1753
  476MOL0     H65663  -0.240   8.295  10.155  2.2963  0.8685 -1.1337
  476MOL0     H65664   0.006   8.358  10.124  2.1723  1.7058  1.5857
  476MOL0     H65665   0.044   8.277  10.270  3.7361  2.7971 -2.0506
  476MOL0     H65666  -0.096   8.444  10.394  2.7518 -0.3055  1.1981
  476MOL0     H65667  -0.152   8.511  10.242  0.6267 -0.7373 -0.6131
  476MOL0     H65668  -0.288   7.492   9.809 -0.5522 -0.7643  0.8992
  476MOL0     H65669  -0.368   7.264   9.803 -1.9869 -0.8365 -1.8238
  476MOL0     H65670  -0.722   6.988   9.825  0.7401  0.7804 -0.3469
  476MOL0     H65671  -0.786   6.745   9.819  2.0503 -4.5915 -0.8856
  476MOL0     H65672   0.537   6.270   9.264  0.8358  0.0404 -0.3277
  476MOL0     H65673   0.762   6.283   9.169 -0.0406 -0.9724  0.1913
  476MOL0     H65674   0.895   6.799   8.808 -0.5824 -1.0885  2.1118
  476MOL0     H65675   1.114   6.917   8.738  1.3339  0.7860  0.8621
  476MOL0     H65676   1.369   7.045   8.755  0.1413  1.0039 -0.4083
  476MOL0     H65677   1.265   7.014   8.892 -0.2497 -2.7165  0.7745
  476MOL0     H65678   1.451   6.986   9.038 -0.2945  1.2917 -0.3625
  476MOL0     H65679   1.435   7.145   8.976  1.9788  1.1785  0.1382
  476MOL0     H65680   1.638   6.929   8.892  0.2558 -0.0071 -0.0575
  476MOL0     H65681   1.614   7.084   8.798 -0.8772  0.6583 -0.0875
  476MOL0     H65682   1.759   7.037   9.058  1.3040  2.8442  3.6505
  476MOL0     H65683   1.648   7.179   9.046 -0.5594  2.6449 -4.5974
  476MOL0     H65684   1.953   7.323   8.819 -0.5293  0.1447  1.0123
  476MOL0     H65685   1.345   6.619   8.916  0.8777 -0.4347 -0.6150
  476MOL0     H65686   1.108   6.376   8.934 -3.5089  0.5095  2.2873
  476MOL0     H65687   1.261   6.422   8.997  0.0311 -3.1040  0.6832
  476MOL0     H65688   1.118   6.447   9.100  3.0258  0.6127  1.0381
  477MOL0     O65689   7.979   8.847   2.809  0.7154 -0.6892  0.2082
  477MOL0     C65690   8.041   8.916   2.728  0.6492 -1.2618  0.2511
  477MOL0     O65691   8.011   8.923   2.598  0.6820  0.1508  0.5347
  477MOL0     C65692   7.928   8.822   2.553 -0.6467 -0.1021 -0.2913
  477MOL0     C65693   7.988   8.728   2.470 -0.0734  0.2426 -0.3434
  477MOL0     C65694   7.914   8.624   2.420  0.5508 -0.9481  0.5651
  477MOL0     C65695   7.774   8.616   2.444  0.1848  0.2283  0.7110
  477MOL0     O65696   7.692   8.518   2.398  0.3373 -0.0427 -0.1175
  477MOL0     C65697   7.730   8.450   2.280  0.7567  0.1842 -0.6427
  477MOL0     C65698   7.757   8.309   2.325 -1.1404 -0.4964  0.2977
  477MOL0     C65699   7.631   8.233   2.369  0.0619  0.6571 -0.0780
  477MOL0     C65700   7.655   8.091   2.419  0.6991  0.1762  0.1557
  477MOL0     C65701   7.726   8.075   2.556 -0.3822  1.3562 -0.1860
  477MOL0     C65702   7.647   8.113   2.678  0.4493 -0.1389 -0.1485
  477MOL0     C65703   7.715   8.043   2.796 -0.3867  0.2875  0.5415
  477MOL0     C65704   7.646   8.078   2.932 -0.2996  0.7929  0.2557
  477MOL0     N65705   7.719   8.005   3.037  0.5678 -0.2568  0.2245
  477MOL0     C65706   7.680   7.891   3.099 -0.2388 -0.1745 -0.1701
  477MOL0     C65707   7.751   7.887   3.219  0.3416  0.5811  1.4894
  477MOL0     C65708   7.739   7.775   3.320  0.6866 -0.3760 -0.9771
  477MOL0     C65709   7.763   7.640   3.251 -0.7664  0.5502  0.0038
  477MOL0     C65710   7.899   7.630   3.172 -0.4845 -0.2959 -0.6575
  477MOL0     C65711   7.917   7.496   3.109 -0.2586  0.6134 -0.3977
  477MOL0     O65712   7.961   7.400   3.198 -0.3923 -0.0367  0.7405
  477MOL0     C65713   8.015   7.287   3.143 -0.9259 -0.6243  0.5678
  477MOL0     C65714   8.046   7.196   3.238  0.5444  0.6639  0.1622
  477MOL0     C65715   8.114   7.079   3.190 -1.0583 -0.0380 -0.8748
  477MOL0     C65716   8.156   6.976   3.296 -0.0367 -0.2227  0.0609
  477MOL0     C65717   8.134   7.058   3.051  0.6258  0.0615 -0.7568
  477MOL0     C65718   8.201   6.942   3.000 -0.7908 -0.1410  0.6123
  477MOL0     O65719   8.321   6.967   2.938 -0.5575 -0.2283  0.3758
  477MOL0     C65720   8.415   6.876   2.921  0.8846 -0.6874  0.7799
  477MOL0     C65721   8.417   6.801   2.808 -0.7600  0.2144 -0.0758
  477MOL0     C65722   8.526   6.707   2.798  1.3413  0.6947 -0.1712
  477MOL0     C65723   8.614   6.686   2.905  0.7333 -0.0658  0.3019
  477MOL0     O65724   8.711   6.591   2.898  0.3572  0.1228 -0.4842
  477MOL0     C65725   8.669   6.464   2.843 -0.7084  0.0890  0.1576
  477MOL0     C65726   8.782   6.362   2.890  0.9825  0.6640  0.3601
  477MOL0     C65727   8.787   6.328   3.038  0.4828  0.6336 -0.4034
  477MOL0     C65728   8.657   6.271   3.098 -0.9514 -0.6947  0.1057
  477MOL0     C65729   8.671   6.210   3.243 -0.7641 -0.7329  0.3904
  477MOL0     C65730   8.560   6.109   3.278  0.4418  0.3622  1.0054
  477MOL0     C65731   8.565   6.084   3.419 -1.0510  0.0556 -0.8202
  477MOL0     C65732   8.457   5.985   3.453  0.7399 -0.5775  0.4788
  477MOL0    Cl65733   8.299   6.076   3.435 -0.2853  0.5031  0.0325
  477MOL0     C65734   8.601   6.761   3.019  0.4415  0.0588 -0.1550
  477MOL0     C65735   8.502   6.856   3.029  0.8984 -0.0601 -0.1260
  477MOL0     O65736   8.147   6.835   3.014  0.7337  0.1180  0.3460
  477MOL0     C65737   8.094   7.153   2.958  0.8466 -0.3535  1.2636
  477MOL0     C65738   8.043   7.267   3.004 -0.1984 -0.4463  0.1668
  477MOL0     N65739   7.855   7.968   3.210  1.1721  0.4400 -0.6645
  477MOL0     N65740   7.825   8.045   3.109  0.5941 -0.3207  0.4497
  477MOL0     C65741   7.713   8.724   2.510  0.0689 -0.1763  0.5538
  477MOL0     C65742   7.790   8.823   2.572  0.2831 -0.9853  0.4487
  477MOL0     C65743   8.139   9.014   2.793  0.5814  0.4371  0.3416
  477MOL0     C65744   8.277   9.004   2.770  0.0667  0.8123  1.1545
  477MOL0     C65745   8.361   9.091   2.837  0.0604  0.0412  0.0425
  477MOL0     C65746   8.317   9.196   2.923  0.8766  0.3185 -0.3987
  477MOL0     O65747   8.393   9.293   2.988  0.0521 -0.8486  0.4064
  477MOL0     C65748   8.535   9.306   2.952  0.2249 -0.0598 -0.1815
  477MOL0     C65749   8.557   9.371   2.812  0.2458  0.2371 -0.8986
  477MOL0     C65750   8.675   9.465   2.804  0.6707 -0.5685 -0.3769
  477MOL0     C65751   8.694   9.521   2.659  0.7830 -0.7929  0.6653
  477MOL0     C65752   8.787   9.634   2.663 -1.5081  0.7896 -0.3148
  477MOL0     C65753   8.868   9.723   2.680  0.1531 -0.6031  0.2647
  477MOL0     C65754   8.178   9.205   2.942 -0.1256 -0.8606  0.8509
  477MOL0     C65755   8.086   9.124   2.878  0.7385 -0.4946 -0.1462
  477MOL0     C65756   7.943   9.129   2.914  0.1568 -0.3579  0.6289
  477MOL0     H65757   8.095   8.731   2.454  0.0569  1.0033  0.6003
  477MOL0     H65758   7.965   8.556   2.353  0.0306 -1.9322  1.1393
  477MOL0     H65759   7.816   8.492   2.227  2.0871 -3.6232 -1.8531
  477MOL0     H65760   7.646   8.425   2.214  1.4082 -0.4271 -1.2548
  477MOL0     H65761   7.812   8.244   2.256 -2.9501  2.5211 -4.4824
  477MOL0     H65762   7.821   8.322   2.413 -1.3963  1.3185  0.2498
  477MOL0     H65763   7.584   8.282   2.455  3.2825 -1.5481  3.2719
  477MOL0     H65764   7.557   8.231   2.289 -1.4596  0.2798  1.2825
  477MOL0     H65765   7.563   8.032   2.422  0.7096  0.1242 -0.3833
  477MOL0     H65766   7.718   8.045   2.342  1.9009  2.5213 -0.3302
  477MOL0     H65767   7.815   8.137   2.554 -0.0075  0.8361 -2.3613
  477MOL0     H65768   7.761   7.972   2.567 -1.4010  0.9755 -0.3566
  477MOL0     H65769   7.648   8.222   2.679 -4.4559  0.2238 -3.1124
  477MOL0     H65770   7.542   8.083   2.681  0.4109 -0.0138  2.8152
  477MOL0     H65771   7.821   8.067   2.799 -0.0659 -1.1190  2.7646
  477MOL0     H65772   7.701   7.937   2.772  0.7391  0.5800 -1.7007
  477MOL0     H65773   7.643   8.186   2.944 -3.8788  0.8276  0.1955
  477MOL0     H65774   7.541   8.048   2.944  0.5204 -2.6445 -0.0565
  477MOL0     H65775   7.586   7.839   3.080 -0.5424  0.1360  0.4597
  477MOL0     H65776   7.642   7.767   3.371 -0.2210  1.7458 -2.2392
  477MOL0     H65777   7.814   7.795   3.397 -0.7614 -1.2612  0.7438
  477MOL0     H65778   7.763   7.560   3.326  0.7256 -0.3260 -0.8742
  477MOL0     H65779   7.684   7.617   3.178 -0.2066 -1.0781 -0.1180
  477MOL0     H65780   7.922   7.715   3.108  0.8915 -0.6535 -0.6638
  477MOL0     H65781   7.979   7.639   3.247 -2.2351 -0.6946  1.3762
  477MOL0     H65782   7.820   7.462   3.072 -0.0441 -0.5138  0.0481
  477MOL0     H65783   7.985   7.517   3.026  2.0109 -0.2551  1.1694
  477MOL0     H65784   8.025   7.220   3.342  2.3234  7.0998 -0.5547
  477MOL0     H65785   8.258   6.938   3.285  0.3035 -0.5309  3.2033
  477MOL0     H65786   8.094   6.887   3.293  0.2443 -0.4544  0.8341
  477MOL0     H65787   8.151   7.030   3.391 -1.8072 -1.3165  0.6263
  477MOL0     H65788   8.340   6.823   2.734  0.9541  0.1828 -1.9654
  477MOL0     H65789   8.531   6.651   2.705 -0.5764 -2.0998  1.2708
  477MOL0     H65790   8.567   6.429   2.861 -0.6903 -0.8317 -1.3700
  477MOL0     H65791   8.680   6.470   2.734 -0.9400 -0.9716  0.0663
  477MOL0     H65792   8.772   6.266   2.838  0.3949  2.0102 -2.1687
  477MOL0     H65793   8.884   6.388   2.860  1.7670  1.9340  3.7026
  477MOL0     H65794   8.812   6.422   3.089  0.6698  1.1432 -1.4149
  477MOL0     H65795   8.867   6.254   3.047  0.8781  0.8502 -1.8969
  477MOL0     H65796   8.615   6.194   3.032 -0.8846 -1.6751  1.1709
  477MOL0     H65797   8.575   6.339   3.121 -2.1910 -0.3421 -4.4672
  477MOL0     H65798   8.770   6.166   3.259 -0.3855  0.1863  0.6781
  477MOL0     H65799   8.658   6.293   3.313 -2.4606 -1.0477  0.4805
  477MOL0     H65800   8.584   6.018   3.222  1.3044  0.2058  1.6103
  477MOL0     H65801   8.460   6.136   3.244  0.0225 -0.0539  1.8723
  477MOL0     H65802   8.550   6.172   3.482 -1.4298 -0.8678  0.4141
  477MOL0     H65803   8.661   6.035   3.440 -2.0233 -1.9819 -0.9746
  477MOL0     H65804   8.479   5.953   3.555  0.7795 -3.9867 -0.4949
  477MOL0     H65805   8.456   5.899   3.386 -1.0467 -0.1407 -0.0956
  477MOL0     H65806   8.678   6.743   3.093 -0.6681 -1.4061  0.7060
  477MOL0     H65807   8.508   6.917   3.119  1.1183  0.2352 -0.3438
  477MOL0     H65808   8.113   7.134   2.853 -2.5719 -1.6255  0.7571
  477MOL0     H65809   8.011   7.344   2.934 -0.8196  1.0303  1.9828
  477MOL0     H65810   7.605   8.731   2.495 -0.0994 -2.3203  0.4099
  477MOL0     H65811   7.741   8.908   2.619  0.5322 -0.3998 -0.3347
  477MOL0     H65812   8.311   8.925   2.705  1.2239 -0.2628  2.9859
  477MOL0     H65813   8.468   9.076   2.829  0.2487  1.8911 -1.7205
  477MOL0     H65814   8.581   9.362   3.034 -1.9931  2.4457 -0.4854
  477MOL0     H65815   8.584   9.208   2.951  2.7679  1.0994  1.5601
  477MOL0     H65816   8.470   9.436   2.802 -2.0499 -2.7297 -1.9206
  477MOL0     H65817   8.554   9.293   2.734 -0.0106 -2.0868  1.3021
  477MOL0     H65818   8.659   9.549   2.873 -2.5288 -1.6669  0.3935
  477MOL0     H65819   8.760   9.405   2.837  1.5096  0.0010 -1.4477
  477MOL0     H65820   8.597   9.548   2.617  1.5301 -0.1052 -0.6665
  477MOL0     H65821   8.722   9.435   2.597  1.9024 -0.2183  0.3435
  477MOL0     H65822   8.927   9.812   2.684  1.2659 -1.3557  0.9317
  477MOL0     H65823   8.144   9.279   3.014  0.1637  1.8167 -1.5880
  477MOL0     H65824   7.875   9.108   2.831 -0.4237 -1.9775  1.4653
  477MOL0     H65825   7.933   9.043   2.982 -0.4637 -2.9810 -2.5381
  477MOL0     H65826   7.919   9.226   2.959  1.4508  0.9331 -1.3288
  478MOL0     O65827   3.110   9.668   3.464 -0.6056  0.3764 -0.6285
  478MOL0     C65828   3.057   9.774   3.452 -0.8970 -0.0852 -0.3524
  478MOL0     O65829   3.098   9.900   3.486  0.5709  0.2681  0.6739
  478MOL0     C65830   3.192   9.911   3.580  0.3631  0.3133 -0.6129
  478MOL0     C65831   3.185   9.887   3.721 -0.0533 -0.3619  0.6566
  478MOL0     C65832   3.296   9.919   3.801 -0.3290  0.7653  0.0830
  478MOL0     C65833   3.415   9.967   3.744  0.9701  0.3965  0.4083
  478MOL0     O65834   3.528   9.989   3.806 -0.0965 -0.8584 -0.1026
  478MOL0     C65835   3.631   9.890   3.781  0.1600 -0.2639 -0.3944
  478MOL0     C65836   3.760   9.913   3.861 -0.3659  0.2586 -0.0949
  478MOL0     C65837   3.736   9.928   4.010  0.9120 -0.2508  0.9307
  478MOL0     C65838   3.861   9.961   4.091  0.4597 -0.3092  0.3587
  478MOL0     C65839   3.967   9.850   4.080  0.4221 -0.8310 -0.7779
  478MOL0     C65840   4.071   9.856   4.192  0.6338  0.5220  0.4100
  478MOL0     C65841   4.202   9.785   4.154 -0.2853 -1.2343  0.2337
  478MOL0     C65842   4.202   9.630   4.152 -0.4519 -0.3724 -0.2479
  478MOL0     N65843   4.337   9.569   4.162 -0.1200 -0.6071 -0.2049
  478MOL0     C65844   4.386   9.528   4.284 -0.0885 -0.0786 -0.1777
  478MOL0     C65845   4.515   9.505   4.261 -0.2926  1.0902 -0.0448
  478MOL0     C65846   4.611   9.431   4.350 -0.7411  0.9059 -0.3642
  478MOL0     C65847   4.754   9.493   4.336 -0.0363 -0.2637  0.2905
  478MOL0     C65848   4.867   9.398   4.393  0.5503  0.4450 -0.5377
  478MOL0     C65849   5.005   9.464   4.380 -0.7111  0.3019 -0.1917
  478MOL0     O65850   5.104   9.387   4.461  0.1656 -0.3051 -0.4219
  478MOL0     C65851   5.118   9.427   4.585  0.6780  0.8930 -0.1625
  478MOL0     C65852   5.055   9.359   4.695  0.0875  0.1395  0.6604
  478MOL0     C65853   5.075   9.387   4.823  0.6341 -0.6288  0.1637
  478MOL0     C65854   5.016   9.288   4.923  0.5712 -0.4337 -0.3321
  478MOL0     C65855   5.164   9.498   4.859 -0.3853 -0.1819  0.1033
  478MOL0     C65856   5.194   9.527   5.003 -0.0889 -0.0693  0.4509
  478MOL0     O65857   5.110   9.462   5.096  0.2554  0.8563 -0.1233
  478MOL0     C65858   5.121   9.516   5.226  0.6067 -0.5430  0.0884
  478MOL0     C65859   5.179   9.451   5.342 -0.0665 -0.2484  0.1088
  478MOL0     C65860   5.170   9.499   5.471  1.1976 -0.9671  0.4969
  478MOL0     C65861   5.116   9.634   5.490  0.2701  0.4392  0.2815
  478MOL0     O65862   5.126   9.700   5.607 -0.1897  0.0234  0.1873
  478MOL0     C65863   5.232   9.655   5.686  0.1765  0.3413 -0.4265
  478MOL0     C65864   5.257   9.765   5.798 -0.1131 -0.0937 -0.3659
  478MOL0     C65865   5.198   9.736   5.941 -0.6125 -0.3458  0.2831
  478MOL0     C65866   5.050   9.711   5.944 -0.1510 -0.0931 -0.1422
  478MOL0     C65867   5.005   9.642   6.070  1.0044 -0.0870  0.5415
  478MOL0     C65868   4.858   9.593   6.061 -0.2948  0.3712 -0.8212
  478MOL0     C65869   4.808   9.550   6.202  0.3396  0.0591  0.6181
  478MOL0     C65870   4.787   9.661   6.310 -0.6411 -0.2817  0.1882
  478MOL0    Cl65871   4.739   9.567   6.461 -0.1231  0.2188  0.1515
  478MOL0     C65872   5.052   9.695   5.381 -0.1803  0.9666  0.0381
  478MOL0     C65873   5.059   9.639   5.248  0.4611  0.2487  0.7052
  478MOL0     O65874   5.281   9.612   5.028  0.3765  0.1213 -0.5862
  478MOL0     C65875   5.234   9.565   4.751  0.2486  0.1870  0.1770
  478MOL0     C65876   5.206   9.523   4.619 -0.2097  1.3363  0.0320
  478MOL0     N65877   4.538   9.550   4.131  0.6677  0.4094  0.6390
  478MOL0     N65878   4.431   9.580   4.070 -0.3602 -0.0166 -0.3316
  478MOL0     C65879   3.418   9.986   3.607 -0.1983 -0.0491 -0.0736
  478MOL0     C65880   3.302   9.968   3.532 -0.7008  1.1052  0.1499
  478MOL0     C65881   2.935   9.778   3.372  0.1090  0.6956 -0.0218
  478MOL0     C65882   2.924   9.678   3.273 -0.5489 -0.0546  0.0916
  478MOL0     C65883   2.820   9.674   3.179  0.2079  0.5548  1.2223
  478MOL0     C65884   2.716   9.767   3.183 -0.8644  0.0465 -0.8135
  478MOL0     O65885   2.598   9.756   3.119  0.2480  1.0463  0.1460
  478MOL0     C65886   2.498   9.671   3.186  0.3832 -0.5668  0.1559
  478MOL0     C65887   2.531   9.526   3.183  0.8204  0.0556 -0.0785
  478MOL0     C65888   2.413   9.441   3.218  0.3936 -0.4818 -0.8646
  478MOL0     C65889   2.432   9.288   3.210 -0.4631  0.2441  0.1937
  478MOL0     C65890   2.516   9.237   3.322  0.2001  0.5635 -0.3917
  478MOL0     C65891   2.566   9.207   3.433 -0.2097  0.4214 -0.2557
  478MOL0     C65892   2.724   9.858   3.284  1.1875 -0.2364 -0.3324
  478MOL0     C65893   2.828   9.876   3.369  0.2187 -0.1152 -1.0038
  478MOL0     C65894   2.822   9.992   3.453 -0.1444 -0.3425  0.2690
  478MOL0     H65895   3.092   9.854   3.766  0.3503 -0.6125  1.3274
  478MOL0     H65896   3.287   9.898   3.907  3.2770 -1.9704  0.0357
  478MOL0     H65897   3.663   9.884   3.677 -0.4304  1.3012 -0.6959
  478MOL0     H65898   3.579   9.797   3.809  1.8368 -0.1717  3.7894
  478MOL0     H65899   3.834   9.833   3.849 -0.1378  0.4506  0.0037
  478MOL0     H65900   3.815  10.000   3.822  2.4770 -0.8486  1.1068
  478MOL0     H65901   3.658  10.003   4.023  0.8577  0.3638 -2.1170
  478MOL0     H65902   3.693   9.831   4.038  0.8563 -0.1111  1.3305
  478MOL0     H65903   3.898  10.056   4.052 -0.3472  0.2097  0.8325
  478MOL0     H65904   3.821   9.981   4.191 -0.4644  1.5734 -0.3337
  478MOL0     H65905   4.012   9.853   3.981  0.3361 -2.2338 -0.8848
  478MOL0     H65906   3.910   9.758   4.098  0.5888 -0.3309  3.4313
  478MOL0     H65907   4.093   9.960   4.219  1.0791  0.6027 -0.2227
  478MOL0     H65908   4.035   9.811   4.285  1.0378 -0.7210 -0.0115
  478MOL0     H65909   4.276   9.822   4.225  0.3104  0.2169 -1.0848
  478MOL0     H65910   4.227   9.819   4.053 -2.1812  1.1805  0.4656
  478MOL0     H65911   4.139   9.607   4.239 -1.5616 -0.2954 -1.0029
  478MOL0     H65912   4.148   9.593   4.064 -0.4947 -0.2961 -0.2541
  478MOL0     H65913   4.327   9.513   4.374  0.3023 -2.1158 -0.2283
  478MOL0     H65914   4.620   9.325   4.323 -2.1354  0.5537  0.4714
  478MOL0     H65915   4.573   9.425   4.452 -1.4357  3.2825 -0.4216
  478MOL0     H65916   4.763   9.507   4.228 -0.5497 -1.8698  0.0102
  478MOL0     H65917   4.754   9.588   4.390  0.5725 -0.5093  0.7247
  478MOL0     H65918   4.851   9.379   4.499  1.2257  1.8328 -0.1706
  478MOL0     H65919   4.872   9.306   4.332 -3.8215 -1.4780  1.5722
  478MOL0     H65920   5.044   9.472   4.278  1.5943  1.3454  0.7055
  478MOL0     H65921   4.991   9.567   4.415  1.2549 -0.0812  1.9553
  478MOL0     H65922   4.993   9.272   4.678  1.5195 -0.9412  0.7578
  478MOL0     H65923   5.096   9.252   4.987  1.1930  1.8141  0.2388
  478MOL0     H65924   4.979   9.197   4.875 -2.9699  1.4184 -1.5709
  478MOL0     H65925   4.935   9.338   4.978 -0.8210 -0.9667 -1.8044
  478MOL0     H65926   5.203   9.345   5.339 -3.2993 -1.1911  2.0573
  478MOL0     H65927   5.194   9.437   5.556  0.2775 -2.3474 -0.1985
  478MOL0     H65928   5.216   9.566   5.749 -1.3115 -0.3195 -1.6811
  478MOL0     H65929   5.319   9.643   5.621 -0.5844  0.0824 -1.4240
  478MOL0     H65930   5.363   9.777   5.821 -0.4092 -0.1616  1.1385
  478MOL0     H65931   5.222   9.860   5.755 -1.3186 -0.6480 -0.6620
  478MOL0     H65932   5.233   9.808   6.016  0.4729 -0.0531 -0.4747
  478MOL0     H65933   5.239   9.639   5.969 -2.8970 -1.3349  0.3467
  478MOL0     H65934   5.015   9.656   5.857 -1.8174  1.2539 -0.3654
  478MOL0     H65935   5.003   9.810   5.939  0.7839  0.4969  1.6439
  478MOL0     H65936   5.067   9.553   6.085  1.5612  0.5587  2.4033
  478MOL0     H65937   5.022   9.708   6.156 -1.1167 -0.0831  1.0054
  478MOL0     H65938   4.872   9.523   5.978  3.7750  0.4599 -0.4232
  478MOL0     H65939   4.800   9.680   6.028  0.7854  0.9144 -1.3714
  478MOL0     H65940   4.863   9.464   6.240 -1.5840 -2.8462 -2.5744
  478MOL0     H65941   4.705   9.513   6.191 -0.1646  1.7989 -1.1664
  478MOL0     H65942   4.712   9.740   6.298  0.4801  0.4391 -2.7024
  478MOL0     H65943   4.883   9.713   6.317 -0.9466  0.3641 -0.3618
  478MOL0     H65944   4.986   9.781   5.392 -1.9129  0.7118 -5.3896
  478MOL0     H65945   5.005   9.693   5.170  2.7017 -0.1136 -1.2041
  478MOL0     H65946   5.305   9.647   4.764  0.7579 -0.0415 -1.0914
  478MOL0     H65947   5.273   9.562   4.542  0.3992  1.8444  0.8031
  478MOL0     H65948   3.501  10.009   3.541  0.3857 -1.3632  0.1728
  478MOL0     H65949   3.304   9.994   3.426 -1.6110  3.2942  0.6231
  478MOL0     H65950   2.999   9.600   3.263  0.2252  0.4044  1.9280
  478MOL0     H65951   2.811   9.605   3.097  1.0361  1.1867  0.5864
  478MOL0     H65952   2.491   9.718   3.284  1.0293  3.1450 -1.3868
  478MOL0     H65953   2.402   9.687   3.136  0.2894 -2.1858 -0.2343
  478MOL0     H65954   2.611   9.502   3.254  0.4575 -2.3516 -0.3963
  478MOL0     H65955   2.570   9.494   3.086 -2.5600  2.0931 -2.2958
  478MOL0     H65956   2.387   9.477   3.318 -1.3950  2.1126 -2.1448
  478MOL0     H65957   2.336   9.472   3.147 -0.4704 -0.2550  0.1358
  478MOL0     H65958   2.487   9.263   3.119 -0.6067  2.9026 -0.7119
  478MOL0     H65959   2.332   9.243   3.208 -1.0680  1.5451  0.0861
  478MOL0     H65960   2.600   9.178   3.531  0.0336 -3.1538 -1.2748
  478MOL0     H65961   2.640   9.926   3.287  1.6310  0.3833 -1.4444
  478MOL0     H65962   2.873   9.978   3.549  0.7188 -0.9482 -0.2569
  478MOL0     H65963   2.885  10.070   3.408 -0.2409  1.0904  2.4513
  478MOL0     H65964   2.722  10.033   3.466  1.0887  3.2075 -0.3098
  479MOL0     O65965   3.702   7.412   3.733  0.0897  0.2859  0.9366
  479MOL0     C65966   3.675   7.480   3.635 -0.0302  0.0287 -0.8420
  479MOL0     O65967   3.665   7.611   3.628 -0.5680 -0.4699 -0.0127
  479MOL0     C65968   3.763   7.684   3.688  0.7373 -0.2274  0.0418
  479MOL0     C65969   3.722   7.801   3.745  0.0822 -0.0431 -0.1977
  479MOL0     C65970   3.809   7.894   3.795  0.1084  0.0403  0.0592
  479MOL0     C65971   3.952   7.861   3.797 -0.0315  0.1860  0.0090
  479MOL0     O65972   4.049   7.940   3.854  0.4252  0.8560 -0.7796
  479MOL0     C65973   4.190   7.912   3.858 -0.0937 -0.9527 -0.3171
  479MOL0     C65974   4.266   8.011   3.948 -0.2389  0.0792 -1.0153
  479MOL0     C65975   4.247   8.158   3.921  1.0320  1.0405 -1.1932
  479MOL0     C65976   4.306   8.237   4.032  0.9020 -0.5831 -0.7159
  479MOL0     C65977   4.453   8.266   4.008 -0.0609 -0.6648  0.4096
  479MOL0     C65978   4.492   8.375   4.109  0.1922 -0.1090 -0.1747
  479MOL0     C65979   4.629   8.447   4.081  0.0409  0.0198 -0.1677
  479MOL0     C65980   4.693   8.504   4.207  0.7865 -1.2191 -0.0496
  479MOL0     N65981   4.622   8.628   4.252  0.6122  0.0267 -0.0122
  479MOL0     C65982   4.621   8.746   4.178  0.4370  0.2570 -0.0057
  479MOL0     C65983   4.529   8.829   4.233 -0.1744 -0.1315 -0.6018
  479MOL0     C65984   4.493   8.973   4.213 -0.0573  0.9960  0.1855
  479MOL0     C65985   4.515   9.027   4.075 -1.0448 -0.4427 -0.3966
  479MOL0     C65986   4.471   9.180   4.064  1.1655  0.1423  0.1899
  479MOL0     C65987   4.502   9.231   3.915 -0.3161  0.7028  0.1197
  479MOL0     O65988   4.402   9.172   3.826 -0.6529  0.1079 -0.2384
  479MOL0     C65989   4.304   9.251   3.780 -1.2247 -0.2624  0.4011
  479MOL0     C65990   4.245   9.226   3.660  0.4087  0.4942 -0.6854
  479MOL0     C65991   4.130   9.292   3.607 -0.2341  1.0170  0.5473
  479MOL0     C65992   4.086   9.242   3.464 -0.7223 -0.0229  0.4443
  479MOL0     C65993   4.077   9.395   3.686 -0.5050 -0.2253  0.3848
  479MOL0     C65994   3.963   9.490   3.641 -0.0042 -0.2393 -0.2691
  479MOL0     O65995   3.895   9.451   3.529 -0.0824  0.1144 -0.1666
  479MOL0     C65996   3.785   9.515   3.464  1.3168 -0.0758 -0.7987
  479MOL0     C65997   3.699   9.616   3.511  0.6436 -0.8550  0.3146
  479MOL0     C65998   3.593   9.668   3.436  0.4409  0.5844 -0.3000
  479MOL0     C65999   3.564   9.624   3.304 -1.0809  0.2000 -0.1520
  479MOL0     O66000   3.464   9.687   3.238  0.3497 -0.1650 -0.4703
  479MOL0     C66001   3.445   9.662   3.100 -0.0674 -0.3464  0.3248
  479MOL0     C66002   3.334   9.752   3.034 -0.4964  0.0834 -0.2801
  479MOL0     C66003   3.270   9.654   2.927  0.3447  0.5734 -0.3201
  479MOL0     C66004   3.141   9.585   2.980  1.2491 -0.6529  0.9790
  479MOL0     C66005   3.054   9.536   2.861  0.6475  0.7441  0.5006
  479MOL0     C66006   3.123   9.450   2.756 -0.2457 -0.2383 -0.2890
  479MOL0     C66007   3.023   9.414   2.650 -0.1760  0.3928  0.2100
  479MOL0     C66008   3.095   9.392   2.511  0.7107  0.1774  0.5604
  479MOL0    Cl66009   3.118   9.537   2.409 -0.3152 -0.2844 -0.5186
  479MOL0     C66010   3.643   9.519   3.253  0.0123 -0.8480  0.0471
  479MOL0     C66011   3.745   9.469   3.334  1.0546 -1.1810  0.7462
  479MOL0     O66012   3.941   9.595   3.701 -0.2063 -0.6075 -0.8356
  479MOL0     C66013   4.138   9.425   3.813  0.3069  0.4186  0.5847
  479MOL0     C66014   4.249   9.346   3.855 -0.3984 -0.4934 -0.1729
  479MOL0     N66015   4.471   8.764   4.339  0.1459 -0.1103  0.1549
  479MOL0     N66016   4.526   8.638   4.347 -0.1306 -0.4696  0.0810
  479MOL0     C66017   3.995   7.738   3.736 -0.2186 -0.2480 -0.2175
  479MOL0     C66018   3.899   7.659   3.689  0.2327  0.6268  0.7241
  479MOL0     C66019   3.612   7.399   3.530  0.0384  0.1576  0.0736
  479MOL0     C66020   3.521   7.468   3.444  0.6227  1.3530 -0.5887
  479MOL0     C66021   3.436   7.396   3.346 -0.0374 -0.0337  0.5209
  479MOL0     C66022   3.462   7.259   3.322 -1.0304  1.0526 -0.7351
  479MOL0     O66023   3.392   7.189   3.225 -0.4771 -0.2105  0.7807
  479MOL0     C66024   3.284   7.236   3.156  0.8558 -0.1341 -0.2933
  479MOL0     C66025   3.164   7.242   3.253  0.2282 -0.5931  0.3974
  479MOL0     C66026   3.114   7.108   3.293 -0.4022  0.7838 -0.9119
  479MOL0     C66027   2.973   7.091   3.364  0.4978 -0.3453  0.5795
  479MOL0     C66028   2.978   7.143   3.496 -0.2879  0.2444  0.1789
  479MOL0     C66029   2.963   7.206   3.600 -0.6063  0.5494  0.1348
  479MOL0     C66030   3.563   7.202   3.392  0.3220  0.6257  0.0135
  479MOL0     C66031   3.638   7.259   3.500  0.2312  0.3399 -0.3225
  479MOL0     C66032   3.737   7.178   3.568  0.3234  1.3785  0.3082
  479MOL0     H66033   3.619   7.835   3.744 -0.3383 -1.2596 -0.2400
  479MOL0     H66034   3.767   7.989   3.824 -2.3910 -1.2375  0.9567
  479MOL0     H66035   4.225   7.936   3.757 -2.4942 -0.5670 -1.1226
  479MOL0     H66036   4.216   7.813   3.895  1.3676  0.2672  2.1335
  479MOL0     H66037   4.216   7.986   4.042  2.7362  1.1876  1.0043
  479MOL0     H66038   4.371   7.983   3.939 -0.4913 -0.4988 -2.3971
  479MOL0     H66039   4.281   8.178   3.819 -2.7058  1.8867 -2.4211
  479MOL0     H66040   4.142   8.182   3.900  0.1347  1.5861  2.9891
  479MOL0     H66041   4.242   8.324   4.050  0.5289 -0.7601 -1.1363
  479MOL0     H66042   4.305   8.185   4.128 -0.0073 -1.2122 -1.0502
  479MOL0     H66043   4.459   8.316   3.911  2.4150 -0.5174  0.5697
  479MOL0     H66044   4.518   8.178   4.010  0.4026 -0.3308  0.2411
  479MOL0     H66045   4.413   8.450   4.121 -0.3630 -0.1236 -3.1429
  479MOL0     H66046   4.511   8.319   4.201  2.8823 -0.0291 -0.5946
  479MOL0     H66047   4.610   8.523   4.005 -0.7310 -0.1740 -0.1755
  479MOL0     H66048   4.694   8.371   4.036 -2.6062 -0.8196 -2.9019
  479MOL0     H66049   4.684   8.433   4.290  1.3471  0.4938  1.5650
  479MOL0     H66050   4.799   8.528   4.199  0.2819  1.7379  0.8471
  479MOL0     H66051   4.700   8.767   4.106  1.6518  1.4842  1.6020
  479MOL0     H66052   4.548   9.032   4.287 -1.0674  2.3533 -0.1053
  479MOL0     H66053   4.388   8.985   4.242 -0.4483  2.6779 -1.6835
  479MOL0     H66054   4.619   9.010   4.044 -0.4120  0.2110  1.2351
  479MOL0     H66055   4.450   8.971   4.008 -1.0277 -1.3721  0.3482
  479MOL0     H66056   4.362   9.180   4.077  0.6106  0.6282 -3.3174
  479MOL0     H66057   4.529   9.242   4.132 -2.0423  1.4323  1.9765
  479MOL0     H66058   4.501   9.340   3.912  0.2210  0.6862 -1.3824
  479MOL0     H66059   4.608   9.210   3.899  0.0707  0.9503  2.1152
  479MOL0     H66060   4.298   9.155   3.597  0.9286  0.9554 -0.7812
  479MOL0     H66061   3.996   9.181   3.472 -0.0608 -1.3451 -1.4484
  479MOL0     H66062   4.170   9.193   3.415 -2.7818 -4.0317  0.5650
  479MOL0     H66063   4.069   9.325   3.395  2.4521  1.8349  1.6582
  479MOL0     H66064   3.733   9.660   3.604 -1.4057  0.4905  0.4762
  479MOL0     H66065   3.553   9.765   3.466 -0.7947  0.4426 -1.3936
  479MOL0     H66066   3.534   9.695   3.046 -0.5155 -2.6234 -1.9802
  479MOL0     H66067   3.417   9.557   3.090 -3.6568  0.3928  1.2318
  479MOL0     H66068   3.268   9.784   3.116 -3.6162 -1.2198 -2.1225
  479MOL0     H66069   3.385   9.842   2.998  1.6514 -0.4802  1.1087
  479MOL0     H66070   3.345   9.580   2.897  1.9586  1.1672  2.0131
  479MOL0     H66071   3.242   9.712   2.839 -0.6463  0.7363  0.0876
  479MOL0     H66072   3.078   9.648   3.043 -1.6597 -1.4409 -0.8992
  479MOL0     H66073   3.163   9.501   3.046 -0.5753 -1.9436  0.0461
  479MOL0     H66074   2.971   9.479   2.904 -1.5097  3.5243  0.3595
  479MOL0     H66075   3.011   9.624   2.812  0.7792  1.4784  1.6877
  479MOL0     H66076   3.166   9.356   2.792  0.4935  1.0339  2.3944
  479MOL0     H66077   3.206   9.506   2.713 -0.5684  0.4494 -0.0342
  479MOL0     H66078   2.937   9.482   2.646  0.7932  1.5918 -1.6634
  479MOL0     H66079   2.974   9.323   2.686 -1.1346  0.1291 -1.6618
  479MOL0     H66080   3.037   9.326   2.446 -0.3363 -0.7337  2.3364
  479MOL0     H66081   3.192   9.345   2.529  0.3989 -0.7004  0.0464
  479MOL0     H66082   3.634   9.485   3.151 -0.9160  0.5608 -0.3739
  479MOL0     H66083   3.799   9.381   3.299  1.0513 -1.1856  0.7520
  479MOL0     H66084   4.107   9.506   3.879 -0.0418  1.1835 -0.4921
  479MOL0     H66085   4.283   9.356   3.958  0.4389 -0.5915 -0.4261
  479MOL0     H66086   4.097   7.701   3.746 -0.1144  0.3431  1.1476
  479MOL0     H66087   3.927   7.563   3.645 -1.5058  0.5181 -0.2556
  479MOL0     H66088   3.498   7.573   3.460  1.0496  1.6163 -1.6138
  479MOL0     H66089   3.379   7.458   3.277  3.6675  1.5723 -1.3393
  479MOL0     H66090   3.305   7.335   3.113 -2.1986 -0.3346 -2.5883
  479MOL0     H66091   3.278   7.168   3.071  3.3211 -0.9398  0.0913
  479MOL0     H66092   3.092   7.300   3.195  2.2178  0.1378 -1.4649
  479MOL0     H66093   3.183   7.298   3.346  0.9725  1.5489 -0.9670
  479MOL0     H66094   3.098   7.048   3.204 -0.2624 -2.3786  1.0543
  479MOL0     H66095   3.197   7.069   3.353  0.2698  1.3188 -1.4813
  479MOL0     H66096   2.938   6.987   3.360  1.4325 -0.6553 -2.8650
  479MOL0     H66097   2.892   7.141   3.310 -0.6892 -2.8252 -0.0828
  479MOL0     H66098   2.945   7.242   3.700 -3.2732  0.9935 -0.4287
  479MOL0     H66099   3.554   7.096   3.371 -0.1162 -0.1499  3.5518
  479MOL0     H66100   3.799   7.131   3.492 -1.9159  0.5032 -1.0907
  479MOL0     H66101   3.813   7.234   3.624  4.2183 -3.3049  0.2812
  479MOL0     H66102   3.696   7.094   3.625  2.4875 -1.6512 -2.2629
  480MOL0     O66103   1.542  11.420   8.546  0.0802  0.1250  0.1524
  480MOL0     C66104   1.544  11.545   8.552  0.7674  0.3497  0.7401
  480MOL0     O66105   1.530  11.631   8.449 -0.1171 -0.3029 -0.5323
  480MOL0     C66106   1.485  11.584   8.333 -0.7184 -0.1908 -0.7418
  480MOL0     C66107   1.387  11.655   8.262 -0.0116 -0.4684  0.4842
  480MOL0     C66108   1.346  11.610   8.142  0.1784 -0.3962  0.9791
  480MOL0     C66109   1.406  11.500   8.082  0.2565 -1.0655 -0.2686
  480MOL0     O66110   1.360  11.457   7.963  0.9591 -0.5380  0.1402
  480MOL0     C66111   1.276  11.342   7.952  1.4052 -0.9954 -0.4008
  480MOL0     C66112   1.311  11.229   7.850  0.1557  0.1558  0.0560
  480MOL0     C66113   1.393  11.111   7.917  0.3926  0.0441  0.1014
  480MOL0     C66114   1.420  10.993   7.815  0.7612  0.5046 -0.6896
  480MOL0     C66115   1.519  10.892   7.874 -0.1384 -0.4655 -0.0737
  480MOL0     C66116   1.562  10.788   7.772  0.1177 -0.4858  0.2679
  480MOL0     C66117   1.610  10.669   7.855  0.0930  0.4386  0.1550
  480MOL0     C66118   1.652  10.553   7.770  0.5228 -0.2749 -0.3902
  480MOL0     N66119   1.749  10.466   7.844 -0.6437  0.3111  0.5670
  480MOL0     C66120   1.746  10.416   7.972  0.7409  0.7012  0.1461
  480MOL0     C66121   1.877  10.382   7.992 -0.3493 -0.0142 -0.2380
  480MOL0     C66122   1.936  10.319   8.115 -0.0435  0.8372 -0.3242
  480MOL0     C66123   2.075  10.370   8.150 -0.1549  0.4554  0.8687
  480MOL0     C66124   2.139  10.281   8.262  0.1484  0.9937  0.5662
  480MOL0     C66125   2.058  10.290   8.396  0.5324 -0.0829 -0.5375
  480MOL0     O66126   2.033  10.418   8.447 -0.0330 -0.1761  0.0786
  480MOL0     C66127   2.116  10.461   8.547 -0.1117  0.1329 -0.8072
  480MOL0     C66128   2.114  10.405   8.677 -0.2375  0.3902  0.9209
  480MOL0     C66129   2.200  10.435   8.777 -0.4143 -0.2878 -0.7075
  480MOL0     C66130   2.191  10.346   8.901  0.3376  0.4846  0.8144
  480MOL0     C66131   2.276  10.551   8.755 -0.2982 -1.0956  0.6008
  480MOL0     C66132   2.335  10.624   8.868 -0.5383  0.9903  0.5060
  480MOL0     O66133   2.442  10.707   8.850 -0.5948 -0.0238  0.6434
  480MOL0     C66134   2.457  10.807   8.947 -0.0091  0.3894  0.2124
  480MOL0     C66135   2.366  10.909   8.967  0.3617  0.0403 -0.4043
  480MOL0     C66136   2.391  11.004   9.071 -0.0219  0.1548 -0.8014
  480MOL0     C66137   2.511  10.997   9.142 -0.2080 -0.3238 -0.7451
  480MOL0     O66138   2.529  11.075   9.257 -0.7366  0.0050  0.0393
  480MOL0     C66139   2.651  11.065   9.328  0.0504  0.0116 -0.3811
  480MOL0     C66140   2.675  11.208   9.375 -0.6249 -0.3942  0.0644
  480MOL0     C66141   2.781  11.237   9.480  0.5018  0.6514  0.0390
  480MOL0     C66142   2.921  11.208   9.424 -0.4853  0.5910 -0.3465
  480MOL0     C66143   2.981  11.289   9.298 -0.6847  0.5249  0.1387
  480MOL0     C66144   3.134  11.260   9.268 -0.1152  0.2688  0.2205
  480MOL0     C66145   3.246  11.327   9.347  0.0494 -0.3202 -0.8457
  480MOL0     C66146   3.261  11.479   9.329 -1.2600 -0.1884 -0.6861
  480MOL0    Cl66147   3.176  11.555   9.462  0.9021 -0.0173 -0.0678
  480MOL0     C66148   2.604  10.898   9.111  0.0508 -0.3123  1.0602
  480MOL0     C66149   2.578  10.800   9.018 -0.1963 -0.5127 -0.4047
  480MOL0     O66150   2.273  10.615   8.971  0.2228 -0.0838 -0.1923
  480MOL0     C66151   2.283  10.609   8.639 -0.1334  0.6994  0.0290
  480MOL0     C66152   2.216  10.558   8.527  0.7231  0.0216 -0.4640
  480MOL0     N66153   1.957  10.397   7.883  0.4584 -0.7012 -0.4221
  480MOL0     N66154   1.875  10.437   7.786 -0.3991 -0.1338 -0.6117
  480MOL0     C66155   1.504  11.430   8.147  0.0093 -0.3881  0.2830
  480MOL0     C66156   1.548  11.479   8.272  0.5173  0.1311  0.2664
  480MOL0     C66157   1.537  11.604   8.692 -0.1678  0.0580  0.0986
  480MOL0     C66158   1.486  11.731   8.715  1.2905 -0.5121  0.0491
  480MOL0     C66159   1.479  11.793   8.843 -0.6003  0.0577 -0.8175
  480MOL0     C66160   1.525  11.725   8.954  0.2081  0.3647  0.4028
  480MOL0     O66161   1.506  11.755   9.088  0.0785 -0.1060  0.0356
  480MOL0     C66162   1.545  11.899   9.113  0.2387 -0.1909 -0.2327
  480MOL0     C66163   1.536  11.927   9.265  0.2720 -0.3619  0.4491
  480MOL0     C66164   1.388  11.931   9.300 -0.3681 -0.4766 -0.4992
  480MOL0     C66165   1.377  11.926   9.453  0.8242 -0.3480 -0.0040
  480MOL0     C66166   1.383  12.053   9.522  0.1142 -0.3447 -0.1207
  480MOL0     C66167   1.375  12.145   9.592 -1.5123  0.2736 -0.2471
  480MOL0     C66168   1.594  11.607   8.931 -0.0527  0.3912 -0.1685
  480MOL0     C66169   1.608  11.547   8.804  0.1525 -0.5122 -1.6362
  480MOL0     C66170   1.682  11.415   8.805  0.1946 -0.1701  0.0955
  480MOL0     H66171   1.335  11.735   8.313 -2.4117 -0.0672 -2.3336
  480MOL0     H66172   1.264  11.655   8.088 -0.0435  1.3115  2.6277
  480MOL0     H66173   1.180  11.390   7.932 -0.8549 -2.1920  5.5656
  480MOL0     H66174   1.268  11.296   8.051  3.4364 -2.5666 -0.8970
  480MOL0     H66175   1.219  11.189   7.807 -0.9931  2.5523  0.1148
  480MOL0     H66176   1.355  11.279   7.763 -2.9179 -0.9154 -2.2925
  480MOL0     H66177   1.487  11.155   7.949  1.0605 -0.2711 -1.3415
  480MOL0     H66178   1.346  11.062   8.003  3.8471 -0.2976  1.9647
  480MOL0     H66179   1.329  10.941   7.784  0.2322 -0.3301  2.0204
  480MOL0     H66180   1.466  11.042   7.728  2.5987 -0.0654 -0.0920
  480MOL0     H66181   1.459  10.843   7.951  0.6947 -3.6826 -1.3171
  480MOL0     H66182   1.601  10.951   7.915 -0.4017  2.4074 -3.2314
  480MOL0     H66183   1.475  10.757   7.714 -2.3382  1.2960  2.7390
  480MOL0     H66184   1.639  10.831   7.708  0.0712 -2.7225 -1.4274
  480MOL0     H66185   1.527  10.636   7.918 -1.0089  0.2147 -1.3732
  480MOL0     H66186   1.695  10.701   7.917  1.3418  0.4530 -1.4849
  480MOL0     H66187   1.571  10.491   7.732  1.1769 -0.2882 -1.8063
  480MOL0     H66188   1.704  10.586   7.680 -2.4966  0.1307 -2.1064
  480MOL0     H66189   1.656  10.408   8.031  0.8119 -2.8128 -0.0344
  480MOL0     H66190   1.927  10.213   8.089 -1.4960  0.5335  1.2221
  480MOL0     H66191   1.869  10.330   8.200 -1.6944 -2.7174 -0.9574
  480MOL0     H66192   2.148  10.379   8.070  1.1498 -0.7814  1.8694
  480MOL0     H66193   2.074  10.474   8.183 -2.3249  0.6258  0.4286
  480MOL0     H66194   2.152  10.173   8.245  1.4180  0.0086  5.8435
  480MOL0     H66195   2.238  10.322   8.285  0.7004  0.6296 -1.0197
  480MOL0     H66196   1.956  10.259   8.372 -1.2803  2.9799  2.3345
  480MOL0     H66197   2.103  10.222   8.470  1.0837  1.5201  0.6485
  480MOL0     H66198   2.048  10.320   8.689  3.3455 -3.0695 -1.4002
  480MOL0     H66199   2.126  10.395   8.974 -1.8346  0.1191 -0.7965
  480MOL0     H66200   2.285  10.331   8.954 -0.6083 -0.1993  2.3577
  480MOL0     H66201   2.149  10.250   8.872 -0.6298  0.3799  2.4479
  480MOL0     H66202   2.275  10.899   8.909  0.3487 -1.1894 -0.2144
  480MOL0     H66203   2.312  11.073   9.098  1.1828  1.2311  0.0769
  480MOL0     H66204   2.638  10.995   9.411  1.1269 -0.7685 -0.8427
  480MOL0     H66205   2.744  11.046   9.273  1.1984  0.5501  1.3033
  480MOL0     H66206   2.705  11.258   9.282 -0.9888 -0.5155 -0.1193
  480MOL0     H66207   2.579  11.251   9.404  0.2916  1.4769  0.4880
  480MOL0     H66208   2.767  11.175   9.569 -0.2148  1.5018  0.5226
  480MOL0     H66209   2.793  11.341   9.512  0.7582  1.2888 -1.9715
  480MOL0     H66210   2.925  11.103   9.394  0.8987  0.3702  0.5401
  480MOL0     H66211   2.982  11.217   9.514 -3.2278 -1.3663  1.8760
  480MOL0     H66212   2.923  11.257   9.211  0.7337  1.0592 -1.0316
  480MOL0     H66213   2.971  11.398   9.305  0.1437  0.7965 -2.1396
  480MOL0     H66214   3.157  11.268   9.162 -1.5236 -3.9512 -0.5980
  480MOL0     H66215   3.162  11.157   9.290  1.0129  0.8148  1.4594
  480MOL0     H66216   3.335  11.279   9.306 -0.3913 -1.4775 -0.4602
  480MOL0     H66217   3.247  11.290   9.450  1.5231  0.4595 -0.5429
  480MOL0     H66218   3.212  11.516   9.238 -1.7536  3.7244  0.9731
  480MOL0     H66219   3.370  11.490   9.329 -1.2405 -0.3795 -0.5520
  480MOL0     H66220   2.698  10.887   9.164  0.4243  0.0006  0.4670
  480MOL0     H66221   2.655  10.729   8.989 -0.1231 -0.0232 -1.4768
  480MOL0     H66222   2.343  10.698   8.621  0.7618 -0.1257 -1.2105
  480MOL0     H66223   2.242  10.592   8.427  0.6961 -2.8072 -1.5367
  480MOL0     H66224   1.546  11.346   8.092 -3.2646 -1.9860 -0.0659
  480MOL0     H66225   1.622  11.423   8.327  0.3561  0.2284  0.5844
  480MOL0     H66226   1.441  11.784   8.631  1.0072 -0.1207  0.4437
  480MOL0     H66227   1.430  11.889   8.836 -1.2006 -0.2915 -1.5238
  480MOL0     H66228   1.643  11.939   9.085  0.7895  0.5030  2.4179
  480MOL0     H66229   1.471  11.964   9.063 -1.9392 -0.3439  2.5500
  480MOL0     H66230   1.596  12.017   9.285  1.5432 -1.0917  0.0366
  480MOL0     H66231   1.583  11.845   9.319  1.0352 -1.8041 -2.2083
  480MOL0     H66232   1.339  12.019   9.257  1.2826  0.4667 -0.5227
  480MOL0     H66233   1.327  11.849   9.260  0.2448 -0.6416 -1.1016
  480MOL0     H66234   1.454  11.862   9.497 -0.3709 -0.5677  1.9184
  480MOL0     H66235   1.282  11.880   9.482  1.1315 -0.7409  0.3906
  480MOL0     H66236   1.363  12.229   9.657 -1.6503 -0.2977  0.4707
  480MOL0     H66237   1.634  11.555   9.017 -0.0722 -1.6082 -1.3021
  480MOL0     H66238   1.785  11.424   8.768 -0.5601  0.3951 -1.9834
  480MOL0     H66239   1.702  11.382   8.908  0.5356  2.7222  1.0352
  480MOL0     H66240   1.630  11.331   8.757  0.2182 -0.4581  0.5558
  481MOL0     O66241   9.237   8.486  11.474  0.6966  0.3038 -0.0740
  481MOL0     C66242   9.235   8.512  11.592  0.0740  0.6437 -0.2904
  481MOL0     O66243   9.344   8.513  11.677 -0.0919 -0.2902 -0.3575
  481MOL0     C66244   9.467   8.517  11.609  0.7267  0.1904 -1.1787
  481MOL0     C66245   9.518   8.632  11.556 -0.6915  0.5192 -0.4829
  481MOL0     C66246   9.631   8.625  11.473 -0.3787  0.2327 -0.9009
  481MOL0     C66247   9.703   8.515  11.453  0.2878  0.5782  0.6586
  481MOL0     O66248   9.822   8.496  11.382 -0.6671 -0.6132 -0.2118
  481MOL0     C66249   9.844   8.604  11.286  0.1526  0.3066  0.9598
  481MOL0     C66250   9.965   8.579  11.206 -0.3568  0.6867  0.4412
  481MOL0     C66251   9.991   8.435  11.157 -0.3539  1.0676  0.0303
  481MOL0     C66252  10.129   8.382  11.206  0.0894  1.0221 -0.0256
  481MOL0     C66253  10.148   8.240  11.157  0.3623  0.2890 -0.1729
  481MOL0     C66254  10.268   8.191  11.228  0.5545 -0.5421 -0.5465
  481MOL0     C66255  10.324   8.057  11.178  0.0307  0.4700  0.5502
  481MOL0     C66256  10.459   8.015  11.227  0.0178 -0.4224  0.0626
  481MOL0     N66257  10.468   7.958  11.364 -0.5557  0.5919 -0.6887
  481MOL0     C66258  10.472   7.828  11.400  0.4375  0.3927 -1.3202
  481MOL0     C66259  10.512   7.825  11.528 -0.1866  0.3077 -0.0264
  481MOL0     C66260  10.551   7.706  11.602  0.4155 -0.7537  0.1657
  481MOL0     C66261  10.434   7.620  11.632  0.5169  0.0675 -1.1826
  481MOL0     C66262  10.463   7.473  11.624 -0.3118 -0.4570  0.5116
  481MOL0     C66263  10.577   7.418  11.718 -0.4544 -0.7636  0.1298
  481MOL0     O66264  10.591   7.278  11.705  0.1877  0.0306  0.0830
  481MOL0     C66265  10.648   7.228  11.589 -0.5843  0.5957  0.8207
  481MOL0     C66266  10.738   7.284  11.496 -0.4538  0.2870 -0.0825
  481MOL0     C66267  10.781   7.215  11.386  0.7762  0.7617  0.9986
  481MOL0     C66268  10.892   7.290  11.312  0.2680 -0.3735  0.8138
  481MOL0     C66269  10.727   7.086  11.354  0.0193 -0.3461  0.8777
  481MOL0     C66270  10.783   6.995  11.242  0.6321  0.7459  0.8385
  481MOL0     O66271  10.911   6.956  11.241  0.0558  0.1477 -0.3990
  481MOL0     C66272  10.963   6.900  11.121 -0.0185  0.0754  0.3102
  481MOL0     C66273  10.944   6.956  10.989 -0.2503  0.6714  0.9942
  481MOL0     C66274  10.980   6.888  10.876 -0.0106 -0.1800  0.1895
  481MOL0     C66275  11.042   6.762  10.889  1.2064 -0.5095 -1.4691
  481MOL0     O66276  11.079   6.689  10.784  0.1630  0.1701 -0.7156
  481MOL0     C66277  10.975   6.619  10.715  0.9666  0.6343  0.1259
  481MOL0     C66278  10.965   6.474  10.770 -0.7756 -0.3949  0.0387
  481MOL0     C66279  11.048   6.382  10.685  0.7625 -0.8351 -0.1460
  481MOL0     C66280  11.194   6.378  10.742  0.2745  0.3736 -0.2901
  481MOL0     C66281  11.286   6.342  10.630 -0.3623 -0.6317 -0.1908
  481MOL0     C66282  11.286   6.198  10.596  0.8565  0.2565  0.4767
  481MOL0     C66283  11.383   6.170  10.489  0.1387 -0.1255  0.2531
  481MOL0     C66284  11.335   6.219  10.345 -0.3105 -0.0024  0.1751
  481MOL0    Cl66285  11.450   6.180  10.224  0.5304  0.0376 -0.2697
  481MOL0     C66286  11.064   6.703  11.016 -0.7235  0.4194  0.9910
  481MOL0     C66287  11.028   6.774  11.128  1.5133 -0.0415 -0.5522
  481MOL0     O66288  10.688   6.946  11.170 -0.4529  0.0981 -0.6988
  481MOL0     C66289  10.626   7.033  11.447 -0.2007 -0.3966  0.6614
  481MOL0     C66290  10.585   7.110  11.554  0.2051  0.8914 -0.4642
  481MOL0     N66291  10.530   7.947  11.580 -0.7517  0.0335  0.7289
  481MOL0     N66292  10.497   8.024  11.480  0.6545 -0.2591  0.5665
  481MOL0     C66293   9.665   8.397  11.519 -1.0517 -0.5887  0.4443
  481MOL0     C66294   9.540   8.398  11.589 -0.1400 -0.0315 -0.3165
  481MOL0     C66295   9.096   8.521  11.644  0.2589 -0.6735 -0.4558
  481MOL0     C66296   8.990   8.569  11.563  0.9608  0.8145  0.4395
  481MOL0     C66297   8.863   8.594  11.616  0.1066 -0.5508  1.2358
  481MOL0     C66298   8.838   8.573  11.751  0.0704 -0.4261 -0.4759
  481MOL0     O66299   8.715   8.605  11.800 -0.0513 -0.3978 -0.2489
  481MOL0     C66300   8.679   8.574  11.933  0.2582 -0.7141  0.3850
  481MOL0     C66301   8.541   8.622  11.959 -0.2559  0.3208 -0.1526
  481MOL0     C66302   8.515   8.759  11.909 -0.0386  0.6976  0.6866
  481MOL0     C66303   8.393   8.834  11.980 -0.4182 -0.5520  0.2613
  481MOL0     C66304   8.413   8.884  12.112 -0.9360 -0.7916 -0.8890
  481MOL0     C66305   8.404   8.938  12.219 -0.2631  0.0084  0.5583
  481MOL0     C66306   8.935   8.517  11.827  0.1843 -0.5660 -0.0214
  481MOL0     C66307   9.067   8.483  11.778 -0.6284  0.1857 -0.1492
  481MOL0     C66308   9.151   8.440  11.896 -0.5430  1.0526  0.3250
  481MOL0     H66309   9.471   8.725  11.588 -0.8156  0.3043 -0.0337
  481MOL0     H66310   9.658   8.725  11.443 -0.8638  0.6358 -0.0449
  481MOL0     H66311   9.853   8.702  11.334 -0.9131  2.4211 -2.8021
  481MOL0     H66312   9.757   8.605  11.219  1.9356 -3.7811 -1.7746
  481MOL0     H66313   9.966   8.653  11.124 -3.4364  2.3463  1.7411
  481MOL0     H66314  10.047   8.584  11.278 -2.3803 -0.7423  2.9876
  481MOL0     H66315   9.910   8.370  11.193  0.4890 -1.2417 -1.9611
  481MOL0     H66316   9.997   8.437  11.047 -0.1865  3.4097  0.0264
  481MOL0     H66317  10.212   8.447  11.175 -0.3740  3.2129  2.9341
  481MOL0     H66318  10.120   8.364  11.313  1.0402 -0.1745 -0.1223
  481MOL0     H66319  10.141   8.239  11.048 -0.5115 -0.3951 -0.1253
  481MOL0     H66320  10.063   8.181  11.194  0.1977  1.3113  1.1735
  481MOL0     H66321  10.352   8.260  11.229  1.8130 -1.8632  3.7546
  481MOL0     H66322  10.252   8.160  11.331  3.0854 -0.8290 -0.1754
  481MOL0     H66323  10.345   8.066  11.071  3.5409 -2.2190  0.8475
  481MOL0     H66324  10.254   7.973  11.185  3.0854 -2.0961  3.7975
  481MOL0     H66325  10.483   7.944  11.147 -3.0531 -1.3606 -0.1591
  481MOL0     H66326  10.522   8.102  11.207  0.4315 -1.0728 -1.7334
  481MOL0     H66327  10.447   7.738  11.344  1.0330 -0.2841 -0.5293
  481MOL0     H66328  10.609   7.718  11.694  0.4661 -1.3314  0.2172
  481MOL0     H66329  10.628   7.658  11.541 -1.9999 -0.1898 -3.5944
  481MOL0     H66330  10.390   7.650  11.728 -4.0844 -0.4570 -2.8527
  481MOL0     H66331  10.350   7.637  11.565  0.8481  1.2109 -1.3276
  481MOL0     H66332  10.377   7.405  11.632 -0.1095 -0.5114  2.9226
  481MOL0     H66333  10.496   7.450  11.522 -1.6646 -0.6965  0.1118
  481MOL0     H66334  10.672   7.464  11.690 -1.0695  0.9135  0.6559
  481MOL0     H66335  10.548   7.440  11.821  0.5895  0.2654  0.2304
  481MOL0     H66336  10.779   7.376  11.536 -2.1853  1.4785 -0.9223
  481MOL0     H66337  10.841   7.380  11.277 -1.2402 -0.7047  2.0554
  481MOL0     H66338  10.942   7.241  11.228  0.5050  1.9015 -0.4254
  481MOL0     H66339  10.973   7.328  11.374  0.4460  0.0687  0.3112
  481MOL0     H66340  10.888   7.048  10.973 -0.1015  0.7429  0.8818
  481MOL0     H66341  10.959   6.924  10.776 -2.1617 -2.9383 -0.4962
  481MOL0     H66342  10.883   6.666  10.750  0.5101 -0.7164  0.8294
  481MOL0     H66343  10.979   6.628  10.606 -0.3876  3.1852  0.2087
  481MOL0     H66344  10.981   6.474  10.878 -0.2812 -0.6455 -0.0303
  481MOL0     H66345  10.863   6.436  10.757 -1.1185  1.1667 -2.4093
  481MOL0     H66346  11.054   6.417  10.582 -0.5148  2.2736  0.7167
  481MOL0     H66347  11.010   6.280  10.694  0.0020 -0.5999 -0.6603
  481MOL0     H66348  11.195   6.316  10.832 -0.1638  1.6193  0.6062
  481MOL0     H66349  11.230   6.471  10.787 -0.1742 -1.5222  4.5568
  481MOL0     H66350  11.268   6.413  10.548  0.0445  1.2558  1.2705
  481MOL0     H66351  11.390   6.357  10.659 -0.0786 -0.3368 -1.3128
  481MOL0     H66352  11.189   6.164  10.559 -0.3166  4.9534 -1.5224
  481MOL0     H66353  11.306   6.132  10.681 -0.1231 -2.7597 -1.4639
  481MOL0     H66354  11.397   6.062  10.489 -1.7919 -0.4186  0.5625
  481MOL0     H66355  11.474   6.220  10.521  0.7683  1.5828 -3.6056
  481MOL0     H66356  11.313   6.326  10.351 -2.7230 -0.5229  2.9721
  481MOL0     H66357  11.238   6.180  10.314 -0.1855  1.2976 -2.0715
  481MOL0     H66358  11.113   6.607  11.029  0.7224  0.8492 -0.9111
  481MOL0     H66359  11.047   6.749  11.232  1.0569  1.6904 -0.0122
  481MOL0     H66360  10.575   6.943  11.413 -1.1121  1.5137 -3.6538
  481MOL0     H66361  10.514   7.067  11.624  1.5213  0.1501  0.4507
  481MOL0     H66362   9.723   8.306  11.504  1.3500  0.5661  2.1357
  481MOL0     H66363   9.502   8.304  11.626  1.5221 -0.5727  0.1018
  481MOL0     H66364   9.011   8.597  11.460  0.7286 -2.5202 -0.6284
  481MOL0     H66365   8.783   8.621  11.547  0.3089 -3.0568 -0.0814
  481MOL0     H66366   8.676   8.467  11.955 -0.7441 -0.9321 -0.7482
  481MOL0     H66367   8.752   8.622  12.000  0.8086  0.7410 -1.1748
  481MOL0     H66368   8.544   8.616  12.068  2.5173 -0.9863 -0.2087
  481MOL0     H66369   8.474   8.554  11.906  0.6661 -1.1184  0.4804
  481MOL0     H66370   8.602   8.818  11.940 -0.5778  1.2974  1.0966
  481MOL0     H66371   8.511   8.761  11.800 -1.4042 -3.7046  0.4498
  481MOL0     H66372   8.302   8.774  11.977  0.3393 -2.0881  3.7094
  481MOL0     H66373   8.367   8.915  11.911  3.4770  1.7491  1.1664
  481MOL0     H66374   8.397   8.984  12.316  0.8083 -0.9437  1.1062
  481MOL0     H66375   8.917   8.507  11.934 -0.7213 -0.1287 -0.1224
  481MOL0     H66376   9.239   8.505  11.909  1.5147 -0.6520 -3.6185
  481MOL0     H66377   9.100   8.455  11.992  0.2404  2.4543  0.5642
  481MOL0     H66378   9.187   8.337  11.887  0.7600  0.8364  5.0074
  482MOL0     O66379   0.532   4.582   2.089  0.1711  0.1241  0.1488
  482MOL0     C66380   0.454   4.520   2.021  0.2044  0.2990 -0.4562
  482MOL0     O66381   0.320   4.501   2.047 -0.0011  0.1756 -0.4698
  482MOL0     C66382   0.268   4.539   2.167  0.9247 -0.5046 -0.1288
  482MOL0     C66383   0.252   4.675   2.209  0.8730 -0.8624 -0.1953
  482MOL0     C66384   0.213   4.701   2.347 -0.2700 -0.8748  0.5432
  482MOL0     C66385   0.168   4.603   2.434  1.1170 -0.2141 -0.2074
  482MOL0     O66386   0.146   4.636   2.564  0.0926  0.2208  0.2733
  482MOL0     C66387   0.055   4.557   2.643  0.9171 -0.1359 -0.6656
  482MOL0     C66388   0.059   4.629   2.776  0.1126 -0.1029 -0.6366
  482MOL0     C66389   0.169   4.562   2.856  1.5943 -0.7033 -0.2036
  482MOL0     C66390   0.191   4.636   2.989  0.4734 -0.1929 -1.1978
  482MOL0     C66391   0.334   4.615   3.042 -0.3986  0.2392 -0.2084
  482MOL0     C66392   0.363   4.709   3.165 -0.4074  0.0337  0.2355
  482MOL0     C66393   0.496   4.667   3.231 -0.1981  0.1882 -0.0766
  482MOL0     C66394   0.558   4.746   3.347 -0.8383  0.1329  0.2651
  482MOL0     N66395   0.581   4.892   3.330  0.6600  0.0476 -0.6181
  482MOL0     C66396   0.480   4.987   3.344 -0.2373 -0.0137  0.4761
  482MOL0     C66397   0.537   5.102   3.376 -0.2793  0.4667  0.6383
  482MOL0     C66398   0.465   5.231   3.415  0.4068  0.0786  0.0925
  482MOL0     C66399   0.481   5.360   3.321  0.2020 -0.2007  0.9962
  482MOL0     C66400   0.400   5.481   3.366 -0.9184  0.6733 -0.1198
  482MOL0     C66401   0.454   5.529   3.494 -0.7351  0.5517 -0.5739
  482MOL0     O66402   0.401   5.661   3.522 -0.4232  0.0036 -0.4566
  482MOL0     C66403   0.286   5.675   3.593  0.1478 -0.0194  0.6398
  482MOL0     C66404   0.238   5.805   3.607  0.6073 -0.4658 -0.1353
  482MOL0     C66405   0.140   5.832   3.699 -0.2519 -0.9144 -0.8464
  482MOL0     C66406   0.107   5.980   3.728  0.3440  0.1860  0.7480
  482MOL0     C66407   0.063   5.726   3.756 -1.0789 -0.7897  0.4871
  482MOL0     C66408  -0.070   5.752   3.813 -0.2832  0.3804 -0.0144
  482MOL0     O66409  -0.177   5.696   3.750  0.2067  0.1041 -0.0853
  482MOL0     C66410  -0.314   5.730   3.770 -0.5902  0.2259 -0.3259
  482MOL0     C66411  -0.363   5.833   3.850  0.3725  1.0642  0.0573
  482MOL0     C66412  -0.502   5.850   3.870  0.6473 -0.2963  0.4529
  482MOL0     C66413  -0.585   5.764   3.794  0.3574  0.2619 -0.6578
  482MOL0     O66414  -0.717   5.814   3.809  0.1656  0.4466 -0.6316
  482MOL0     C66415  -0.819   5.739   3.747  0.7822 -0.0932  1.0293
  482MOL0     C66416  -0.957   5.807   3.753  0.0183  1.1578 -0.0547
  482MOL0     C66417  -0.992   5.828   3.899 -0.1866  0.5313 -0.6045
  482MOL0     C66418  -1.136   5.872   3.928  0.0268  0.0407  0.3917
  482MOL0     C66419  -1.154   6.018   3.882  0.8124 -0.3545  1.1673
  482MOL0     C66420  -1.298   6.069   3.876  0.8373  0.5137  0.0715
  482MOL0     C66421  -1.316   6.219   3.838 -0.1063  0.2777 -0.9523
  482MOL0     C66422  -1.261   6.306   3.952 -0.1776 -0.5318 -0.7427
  482MOL0    Cl66423  -1.384   6.339   4.081 -0.1814  0.1778 -0.5486
  482MOL0     C66424  -0.541   5.666   3.709  0.1053 -0.1417  0.4546
  482MOL0     C66425  -0.402   5.647   3.698  0.0577 -0.2208 -0.4665
  482MOL0     O66426  -0.077   5.824   3.913  0.1519  0.1295  0.2505
  482MOL0     C66427   0.108   5.594   3.733  0.4722 -0.2705  0.9561
  482MOL0     C66428   0.212   5.572   3.643  1.1864 -0.8586  0.3663
  482MOL0     N66429   0.672   5.070   3.380 -0.5420 -1.3618  0.1970
  482MOL0     N66430   0.703   4.946   3.359 -0.1550 -0.2889 -0.0254
  482MOL0     C66431   0.166   4.473   2.382 -0.2645 -0.3232  0.5511
  482MOL0     C66432   0.224   4.435   2.258  0.0189 -0.2467  0.0465
  482MOL0     C66433   0.517   4.428   1.920 -0.0779 -0.5294  0.7469
  482MOL0     C66434   0.443   4.312   1.874  0.5452  0.0040 -0.2763
  482MOL0     C66435   0.501   4.222   1.788 -0.8304  0.4336  0.1943
  482MOL0     C66436   0.614   4.247   1.721 -0.2575 -0.8310  0.2761
  482MOL0     O66437   0.687   4.159   1.642  0.1553  0.4136  0.5943
  482MOL0     C66438   0.636   4.024   1.619 -0.2884 -0.2133  0.7774
  482MOL0     C66439   0.741   3.932   1.545 -0.5338  0.5240  0.0312
  482MOL0     C66440   0.708   3.896   1.394 -0.7447  0.1972 -0.7270
  482MOL0     C66441   0.821   3.901   1.302 -0.0988  0.0875 -0.4804
  482MOL0     C66442   0.776   3.934   1.161 -0.6364 -0.7688 -0.3483
  482MOL0     C66443   0.748   3.983   1.056 -0.0390  0.3599 -0.1247
  482MOL0     C66444   0.684   4.370   1.757  0.3146  0.1483  0.0225
  482MOL0     C66445   0.644   4.461   1.854 -0.1290 -0.4736 -1.1154
  482MOL0     C66446   0.733   4.571   1.887 -0.1831  0.2493  0.3708
  482MOL0     H66447   0.277   4.754   2.139  0.8452 -0.7174 -0.0416
  482MOL0     H66448   0.215   4.805   2.376  0.7628 -1.1973  1.6916
  482MOL0     H66449   0.084   4.453   2.655  1.5905 -0.3161 -3.3423
  482MOL0     H66450  -0.049   4.545   2.611  1.5148 -1.7896 -2.1301
  482MOL0     H66451   0.073   4.737   2.775  0.7773 -0.1906 -1.5161
  482MOL0     H66452  -0.032   4.598   2.828  0.5299 -1.8780 -0.9075
  482MOL0     H66453   0.161   4.453   2.851  0.0452 -0.6765  0.9718
  482MOL0     H66454   0.256   4.580   2.792  1.1039 -0.1846 -0.7305
  482MOL0     H66455   0.169   4.743   2.982  0.3583 -0.1386 -0.2246
  482MOL0     H66456   0.118   4.600   3.062  3.1084 -2.6423  0.4478
  482MOL0     H66457   0.409   4.646   2.968 -0.4929 -0.5789 -0.6534
  482MOL0     H66458   0.352   4.509   3.063 -4.0381 -0.5945 -0.6656
  482MOL0     H66459   0.343   4.813   3.140 -1.9113 -1.0577 -4.0307
  482MOL0     H66460   0.291   4.673   3.240  0.9719 -3.4951  0.0633
  482MOL0     H66461   0.567   4.679   3.149  1.9902 -0.4935  1.6223
  482MOL0     H66462   0.513   4.564   3.264  3.3513  1.8761  4.3970
  482MOL0     H66463   0.492   4.730   3.433 -1.6523  1.1817 -0.1554
  482MOL0     H66464   0.652   4.696   3.372 -0.8792 -0.4665 -0.7284
  482MOL0     H66465   0.372   4.991   3.335 -0.1473 -0.3803 -0.9938
  482MOL0     H66466   0.504   5.261   3.512  0.2896  1.4645 -0.2739
  482MOL0     H66467   0.358   5.206   3.420  0.7145 -1.8999 -1.6026
  482MOL0     H66468   0.583   5.397   3.308  0.7491 -1.7195  0.7063
  482MOL0     H66469   0.445   5.336   3.221 -0.2958  2.5821  0.4472
  482MOL0     H66470   0.425   5.554   3.289  2.2920 -0.6317 -0.4872
  482MOL0     H66471   0.294   5.458   3.358 -0.7118 -0.8771  0.9315
  482MOL0     H66472   0.439   5.454   3.572  2.3701  2.3434  1.9888
  482MOL0     H66473   0.560   5.553   3.483 -1.0044  2.6997  0.7950
  482MOL0     H66474   0.282   5.893   3.562 -0.2282 -0.8530 -1.7657
  482MOL0     H66475   0.163   6.049   3.663 -3.0199  1.9654 -0.5094
  482MOL0     H66476   0.132   5.999   3.833 -2.2936 -1.4890  1.7687
  482MOL0     H66477   0.004   6.009   3.706  1.0395  0.8830 -2.0969
  482MOL0     H66478  -0.305   5.907   3.904  0.1046 -0.1652  2.1551
  482MOL0     H66479  -0.536   5.918   3.948  0.0199 -2.4622  2.1924
  482MOL0     H66480  -0.797   5.715   3.642  1.1096  0.3148  1.0025
  482MOL0     H66481  -0.825   5.642   3.796 -0.9271 -2.1424 -2.8362
  482MOL0     H66482  -0.953   5.909   3.713  0.8387  2.8103  3.8046
  482MOL0     H66483  -1.026   5.748   3.692 -0.1328 -2.7149  3.4643
  482MOL0     H66484  -0.915   5.890   3.947  0.7385 -0.8969 -0.1661
  482MOL0     H66485  -0.972   5.734   3.953  0.1656  1.9243  1.8605
  482MOL0     H66486  -1.165   5.873   4.034  0.6546  2.4553  0.6072
  482MOL0     H66487  -1.205   5.815   3.865  0.2630 -0.4669  0.5860
  482MOL0     H66488  -1.093   6.084   3.945  2.6395 -1.1026  0.2804
  482MOL0     H66489  -1.120   6.023   3.778  2.9672 -2.6001  1.6701
  482MOL0     H66490  -1.338   6.054   3.977  0.7293 -2.1210 -0.2847
  482MOL0     H66491  -1.357   5.991   3.827  0.7759 -0.2726  1.3353
  482MOL0     H66492  -1.421   6.246   3.833  0.2540  2.0074  0.0449
  482MOL0     H66493  -1.259   6.226   3.745  1.3140 -2.2353 -0.3679
  482MOL0     H66494  -1.237   6.403   3.907 -2.6907  0.4915 -0.0630
  482MOL0     H66495  -1.174   6.255   3.995  0.8140  2.0444  0.4492
  482MOL0     H66496  -0.610   5.603   3.654 -0.0431 -0.1995  0.7018
  482MOL0     H66497  -0.368   5.578   3.622  2.9982  0.9135 -0.2880
  482MOL0     H66498   0.060   5.504   3.770 -2.0454  0.1574 -0.9672
  482MOL0     H66499   0.219   5.465   3.628 -0.2378 -0.9620  0.2538
  482MOL0     H66500   0.137   4.389   2.445  0.6549 -0.6069  0.6017
  482MOL0     H66501   0.224   4.332   2.225  1.2962 -0.8240  1.7059
  482MOL0     H66502   0.342   4.285   1.901  0.7361 -1.7656 -1.2200
  482MOL0     H66503   0.451   4.127   1.773 -0.6669 -0.1313  2.7161
  482MOL0     H66504   0.594   3.975   1.707 -0.9213  0.4754  0.8662
  482MOL0     H66505   0.557   4.044   1.546  0.0397 -1.2871  0.0881
  482MOL0     H66506   0.770   3.851   1.612  0.7541  0.4686 -0.5524
  482MOL0     H66507   0.837   3.981   1.532 -0.8706  0.5401 -3.7165
  482MOL0     H66508   0.675   3.792   1.389 -0.5991  0.0563  0.7756
  482MOL0     H66509   0.633   3.970   1.365 -0.3329 -0.2630 -3.2188
  482MOL0     H66510   0.876   3.807   1.309  3.3809  1.9922  0.4352
  482MOL0     H66511   0.889   3.982   1.331 -0.3425 -0.1694  0.8912
  482MOL0     H66512   0.701   3.993   0.960 -0.8351 -1.5267  0.0272
  482MOL0     H66513   0.784   4.386   1.720 -0.7115 -0.6531 -3.4689
  482MOL0     H66514   0.680   4.663   1.914  0.4894  0.9719 -0.6646
  482MOL0     H66515   0.807   4.549   1.964  1.6215  2.3942 -0.6581
  482MOL0     H66516   0.792   4.588   1.796  3.1706  0.7518  2.4532
  483MOL0     O66517   0.523   4.527   6.782  0.4202  0.6609  0.5436
  483MOL0     C66518   0.546   4.416   6.743 -0.4754 -0.6943  0.1336
  483MOL0     O66519   0.654   4.347   6.777 -0.0593  0.1415 -0.0737
  483MOL0     C66520   0.700   4.245   6.696  0.7162 -0.4121 -0.5217
  483MOL0     C66521   0.643   4.118   6.694 -0.0279  0.7499 -0.1546
  483MOL0     C66522   0.697   4.021   6.603  0.1772 -0.9747  0.5275
  483MOL0     C66523   0.794   4.052   6.507 -0.1392 -0.3685 -1.4385
  483MOL0     O66524   0.835   3.951   6.422 -0.6385  0.0848  0.0673
  483MOL0     C66525   0.944   3.979   6.333 -0.1455  0.3874  0.2215
  483MOL0     C66526   0.971   3.845   6.263 -0.2854  0.4648 -0.1909
  483MOL0     C66527   1.083   3.860   6.155 -0.9477 -0.2961 -0.0267
  483MOL0     C66528   1.040   3.914   6.016 -0.5671  0.3708 -0.2320
  483MOL0     C66529   1.055   3.812   5.910 -0.7106  1.1382 -0.2749
  483MOL0     C66530   0.984   3.669   5.929 -0.1653 -0.1013  0.4737
  483MOL0     C66531   0.842   3.663   5.901  0.9790  0.2183 -0.5404
  483MOL0     C66532   0.801   3.529   5.834 -0.3996  0.8360 -0.0139
  483MOL0     N66533   0.835   3.516   5.693 -0.9205 -0.6956 -0.3289
  483MOL0     C66534   0.911   3.414   5.629  0.7940 -0.5305 -0.6124
  483MOL0     C66535   0.913   3.448   5.503  0.4943 -0.1750  0.8007
  483MOL0     C66536   0.974   3.370   5.385 -0.6638  0.1325 -0.4966
  483MOL0     C66537   1.098   3.445   5.342 -0.6381 -0.4065 -0.3272
  483MOL0     C66538   1.207   3.413   5.453 -0.0509 -0.2595  0.1527
  483MOL0     C66539   1.346   3.475   5.426  0.0915  0.0028  0.0441
  483MOL0     O66540   1.394   3.433   5.300  0.4233 -0.7463  0.2380
  483MOL0     C66541   1.486   3.500   5.232 -0.2282 -0.3370 -0.0620
  483MOL0     C66542   1.617   3.480   5.251 -0.1042  0.2750  0.7990
  483MOL0     C66543   1.718   3.552   5.174  0.3180 -0.3346  0.0197
  483MOL0     C66544   1.861   3.513   5.194  0.0606  0.3007 -0.7996
  483MOL0     C66545   1.670   3.634   5.064 -1.4272 -0.1780  0.1395
  483MOL0     C66546   1.760   3.689   4.956  0.5758  0.3237  0.2067
  483MOL0     O66547   1.684   3.763   4.872 -0.0313 -0.4458 -0.4069
  483MOL0     C66548   1.745   3.828   4.766 -0.1920 -0.2733 -0.3780
  483MOL0     C66549   1.835   3.939   4.782  0.2351 -0.0084 -0.5385
  483MOL0     C66550   1.895   4.001   4.670  0.2259  0.6024  0.0719
  483MOL0     C66551   1.858   3.960   4.539 -0.3613  0.5524 -1.1637
  483MOL0     O66552   1.934   4.019   4.435 -0.0842 -0.0805  0.2108
  483MOL0     C66553   1.915   3.991   4.300  0.3469  0.6984 -0.7584
  483MOL0     C66554   1.965   3.848   4.269 -0.5150  0.9063  0.3263
  483MOL0     C66555   2.018   3.833   4.128  0.0970  0.6575 -0.3663
  483MOL0     C66556   2.123   3.937   4.076 -0.0494  0.1825  0.6055
  483MOL0     C66557   2.186   3.891   3.943  0.3420 -0.8445 -0.2544
  483MOL0     C66558   2.084   3.850   3.827  0.3401  0.1394 -0.5694
  483MOL0     C66559   2.167   3.803   3.716 -1.0583 -0.6964  0.3399
  483MOL0     C66560   2.092   3.747   3.596 -0.0152  0.5101  0.4758
  483MOL0    Cl66561   1.979   3.625   3.641 -0.4080 -0.0471 -0.1508
  483MOL0     C66562   1.759   3.861   4.524  0.0941  0.7534  0.2730
  483MOL0     C66563   1.706   3.796   4.634  0.1736 -0.1362 -0.3623
  483MOL0     O66564   1.878   3.660   4.936  0.1797 -0.0336 -0.0412
  483MOL0     C66565   1.535   3.659   5.050  0.6200  0.0449  0.3261
  483MOL0     C66566   1.444   3.595   5.139 -0.1719 -0.9545  0.0715
  483MOL0     N66567   0.853   3.571   5.484 -0.2600 -0.5977  0.9187
  483MOL0     N66568   0.814   3.612   5.603  0.7507  0.2600  0.5188
  483MOL0     C66569   0.845   4.181   6.515 -0.9099  0.3338 -0.2274
  483MOL0     C66570   0.794   4.275   6.603 -0.2317  0.0374  0.3704
  483MOL0     C66571   0.449   4.360   6.654 -0.1422 -0.2427 -1.0093
  483MOL0     C66572   0.464   4.371   6.519  0.1534 -0.2866  0.0876
  483MOL0     C66573   0.369   4.314   6.434  0.5055 -0.3939 -0.2204
  483MOL0     C66574   0.256   4.264   6.490  0.1434  0.1462  0.2674
  483MOL0     O66575   0.154   4.214   6.407 -0.4761 -0.4729 -0.0019
  483MOL0     C66576   0.079   4.309   6.324  0.6509 -0.1339 -0.7059
  483MOL0     C66577  -0.041   4.236   6.263 -0.5525 -0.4344 -0.4087
  483MOL0     C66578  -0.136   4.205   6.369  0.1656 -0.4507 -0.5732
  483MOL0     C66579  -0.255   4.299   6.371  1.0376  0.4107  0.0939
  483MOL0     C66580  -0.214   4.442   6.374  1.2542  0.7865  0.3484
  483MOL0     C66581  -0.208   4.564   6.383 -0.1708  0.2516  0.2603
  483MOL0     C66582   0.241   4.254   6.626 -0.9938  0.3676 -0.2487
  483MOL0     C66583   0.333   4.309   6.711  0.4116  0.0266  0.2171
  483MOL0     C66584   0.310   4.290   6.857 -0.6499  0.4689 -0.5378
  483MOL0     H66585   0.557   4.077   6.745 -0.3129  0.1173 -1.1088
  483MOL0     H66586   0.647   3.925   6.607 -0.0144 -0.8431  2.1655
  483MOL0     H66587   1.037   4.002   6.386 -0.9794  0.7145  1.6039
  483MOL0     H66588   0.906   4.056   6.265  0.4006  1.8082  1.4521
  483MOL0     H66589   1.004   3.761   6.324  2.3718 -0.6818 -2.9069
  483MOL0     H66590   0.879   3.813   6.213  0.2190 -1.6322  0.1455
  483MOL0     H66591   1.163   3.927   6.187  0.3291 -0.9466 -1.7592
  483MOL0     H66592   1.138   3.766   6.151 -1.8167 -1.0994  3.2251
  483MOL0     H66593   0.932   3.932   6.016 -1.6649 -4.4790 -2.1227
  483MOL0     H66594   1.097   4.005   5.999 -0.0892  0.2185  0.5308
  483MOL0     H66595   1.162   3.797   5.892 -1.3433 -2.2682 -2.0905
  483MOL0     H66596   1.008   3.854   5.821 -0.1338 -1.5186 -1.9607
  483MOL0     H66597   1.034   3.599   5.862  3.4009 -0.7572  3.4758
  483MOL0     H66598   1.008   3.616   6.022  0.1164 -2.3835 -0.8386
  483MOL0     H66599   0.806   3.744   5.838  0.2160  0.4965  0.2339
  483MOL0     H66600   0.802   3.667   6.003  2.0313  1.0916 -0.1444
  483MOL0     H66601   0.863   3.456   5.887 -2.0043 -0.0388  0.7511
  483MOL0     H66602   0.699   3.501   5.863  0.4651 -2.9863 -0.1869
  483MOL0     H66603   0.954   3.330   5.681  0.2394 -0.3302  0.1872
  483MOL0     H66604   0.907   3.370   5.299 -1.5524 -4.2463 -0.0641
  483MOL0     H66605   0.997   3.268   5.418  1.9130  0.2163 -1.7546
  483MOL0     H66606   1.128   3.411   5.242 -1.2539 -0.3525 -0.5377
  483MOL0     H66607   1.078   3.552   5.334 -0.3879 -0.3137  0.2387
  483MOL0     H66608   1.173   3.453   5.549  3.4300  2.4533  0.4585
  483MOL0     H66609   1.226   3.306   5.469  1.1077 -0.6018 -2.8824
  483MOL0     H66610   1.333   3.584   5.421  0.0312 -0.0328 -0.6165
  483MOL0     H66611   1.408   3.443   5.510 -3.0143  1.1839  3.0023
  483MOL0     H66612   1.657   3.412   5.326  1.2082 -0.2475 -0.3363
  483MOL0     H66613   1.915   3.488   5.102 -0.7427  3.2272 -2.1856
  483MOL0     H66614   1.878   3.427   5.259 -0.1008  0.6144 -0.3393
  483MOL0     H66615   1.905   3.601   5.242  3.2113 -2.2950  1.5192
  483MOL0     H66616   1.869   3.970   4.880  1.1511 -0.0262 -0.8470
  483MOL0     H66617   1.981   4.067   4.679  3.1917 -1.8781 -5.0697
  483MOL0     H66618   1.813   4.005   4.262  0.6178  0.4313 -1.6022
  483MOL0     H66619   1.980   4.067   4.254 -0.3338  1.6220 -0.2261
  483MOL0     H66620   2.050   3.813   4.328  1.1576  1.9328 -1.3548
  483MOL0     H66621   1.879   3.784   4.289 -2.7259  2.3809 -3.5174
  483MOL0     H66622   1.931   3.841   4.063 -1.0246 -2.4786  0.5771
  483MOL0     H66623   2.052   3.729   4.120 -2.0953 -0.3267  1.8823
  483MOL0     H66624   2.204   3.945   4.149  1.1044 -0.2807 -0.5839
  483MOL0     H66625   2.079   4.036   4.067  3.5727  1.9892  1.0159
  483MOL0     H66626   2.254   3.963   3.898  0.3061 -0.5474  0.1634
  483MOL0     H66627   2.255   3.809   3.968  3.8519  2.2051  0.9880
  483MOL0     H66628   2.038   3.948   3.815  2.1763  1.5667  2.7701
  483MOL0     H66629   2.006   3.777   3.854 -0.5997  1.1214 -0.5668
  483MOL0     H66630   2.242   3.729   3.748  1.4385  1.8447  0.7668
  483MOL0     H66631   2.218   3.896   3.690 -2.2126  0.7475  2.8477
  483MOL0     H66632   2.168   3.694   3.539  2.0298  3.1798  0.5061
  483MOL0     H66633   2.035   3.821   3.538 -1.2779  0.1347  1.2016
  483MOL0     H66634   1.701   3.840   4.435 -0.6090 -2.2742  1.3137
  483MOL0     H66635   1.612   3.743   4.624  0.3823 -0.7214  0.6637
  483MOL0     H66636   1.480   3.713   4.974 -1.2729 -2.4499 -0.2479
  483MOL0     H66637   1.339   3.606   5.112 -0.0184 -1.1843 -0.6530
  483MOL0     H66638   0.930   4.204   6.451 -0.2027 -2.2856 -0.3706
  483MOL0     H66639   0.841   4.373   6.603 -0.1378  0.0097  1.9769
  483MOL0     H66640   0.556   4.414   6.481  0.3874  0.0791  1.0501
  483MOL0     H66641   0.385   4.298   6.328 -0.7517  0.2978 -0.5380
  483MOL0     H66642   0.047   4.391   6.388 -0.8646 -0.1834 -1.3724
  483MOL0     H66643   0.139   4.355   6.245  3.4054 -1.5964  0.3989
  483MOL0     H66644   0.003   4.148   6.217  1.0543  1.8927 -3.7682
  483MOL0     H66645  -0.081   4.304   6.187 -0.8885  2.5553  2.2173
  483MOL0     H66646  -0.169   4.103   6.348  2.8304 -1.1312 -1.9131
  483MOL0     H66647  -0.101   4.197   6.473 -0.4317 -0.9676 -0.4115
  483MOL0     H66648  -0.305   4.284   6.467  1.5400  0.2961  0.3416
  483MOL0     H66649  -0.327   4.276   6.292  1.3385  1.1981 -0.4158
  483MOL0     H66650  -0.201   4.671   6.390 -1.3977  0.3894 -0.3570
  483MOL0     H66651   0.151   4.203   6.659 -1.6041  2.0325  0.7968
  483MOL0     H66652   0.204   4.266   6.871  0.1221 -1.9824  2.4263
  483MOL0     H66653   0.372   4.204   6.887  3.2771  2.6401 -1.7150
  483MOL0     H66654   0.343   4.370   6.924  0.0196 -1.4720  1.6363
  484MOL0     O66655   3.004   5.543  10.114 -0.1019 -0.9874 -0.0249
  484MOL0     C66656   3.088   5.528  10.021  0.3310 -0.7687  0.2515
  484MOL0     O66657   3.087   5.587   9.897  0.8463 -0.5518 -0.3901
  484MOL0     C66658   3.029   5.707   9.871 -0.2573 -0.2544 -0.9410
  484MOL0     C66659   2.922   5.763   9.942 -0.0682 -0.1449  0.3063
  484MOL0     C66660   2.879   5.893   9.916 -0.1564 -0.3819  0.1219
  484MOL0     C66661   2.927   5.963   9.797 -0.7621  0.2866 -0.0101
  484MOL0     O66662   2.891   6.093   9.761 -0.3956  0.2141 -0.1246
  484MOL0     C66663   2.865   6.189   9.864 -0.3455  0.1777  1.8490
  484MOL0     C66664   2.871   6.330   9.819  0.7808 -0.8461 -0.0699
  484MOL0     C66665   2.731   6.392   9.782  0.2354  0.5337 -0.0068
  484MOL0     C66666   2.611   6.376   9.890 -0.3040  0.5431 -0.1971
  484MOL0     C66667   2.651   6.421  10.033 -0.5165 -1.5006  0.0549
  484MOL0     C66668   2.535   6.405  10.130  0.6310 -0.2048 -1.0155
  484MOL0     C66669   2.541   6.274  10.215 -0.1632  0.0780  0.2510
  484MOL0     C66670   2.408   6.253  10.287 -0.3310 -0.8915  0.0280
  484MOL0     N66671   2.300   6.204  10.205 -0.3978  0.2716  0.1718
  484MOL0     C66672   2.194   6.282  10.157 -0.0171  0.6519  0.6957
  484MOL0     C66673   2.111   6.191  10.105  0.2818  0.2949 -0.4587
  484MOL0     C66674   1.966   6.214  10.074  0.4195  0.1841  0.1063
  484MOL0     C66675   1.886   6.097  10.000  0.0805  0.0749 -0.7804
  484MOL0     C66676   1.833   5.975  10.082  0.9207 -0.0401  0.0672
  484MOL0     C66677   1.739   5.883  10.005  0.3846  0.5130 -0.6203
  484MOL0     O66678   1.747   5.754  10.067  0.7961  0.3092  0.3908
  484MOL0     C66679   1.675   5.648  10.009  0.0306 -1.7836 -0.0799
  484MOL0     C66680   1.691   5.528  10.068 -0.1331  0.6803  0.1034
  484MOL0     C66681   1.607   5.415  10.025 -0.5129 -0.8956 -1.0302
  484MOL0     C66682   1.626   5.284  10.086 -0.0427  0.1531  0.5269
  484MOL0     C66683   1.519   5.437   9.919  0.2327 -0.1359  0.6816
  484MOL0     C66684   1.403   5.344   9.892  0.6185 -0.0029 -0.3961
  484MOL0     O66685   1.445   5.212   9.885  0.8472 -0.4476  0.9805
  484MOL0     C66686   1.360   5.120   9.830 -1.0105 -0.6311 -0.5202
  484MOL0     C66687   1.299   5.030   9.914  0.6619  0.9671 -0.3037
  484MOL0     C66688   1.206   4.936   9.873  0.6748  0.5865  0.7321
  484MOL0     C66689   1.178   4.930   9.733 -0.8446 -0.1754 -0.2325
  484MOL0     O66690   1.081   4.841   9.692 -0.4767 -0.0821 -0.0252
  484MOL0     C66691   0.994   4.889   9.581 -0.3079 -0.0915 -0.0080
  484MOL0     C66692   0.913   4.760   9.540  0.0562  0.1092 -0.7964
  484MOL0     C66693   1.008   4.659   9.454  0.1700 -0.9683  0.2516
  484MOL0     C66694   0.955   4.520   9.458  0.0216  0.1406  0.1189
  484MOL0     C66695   1.037   4.418   9.375  0.3407 -0.2617 -0.0351
  484MOL0     C66696   0.986   4.274   9.377  0.2845 -0.5817 -0.5557
  484MOL0     C66697   1.082   4.172   9.312  0.1442 -1.6076 -0.3970
  484MOL0     C66698   1.028   4.033   9.326 -0.5716  0.1170  0.3765
  484MOL0    Cl66699   1.034   3.959   9.487 -0.2858  0.0182  0.0577
  484MOL0     C66700   1.255   5.000   9.650 -0.1238 -0.4022  1.1383
  484MOL0     C66701   1.327   5.107   9.695  0.4392 -0.9669 -0.3002
  484MOL0     O66702   1.287   5.385   9.883  0.7684 -0.1998 -0.0160
  484MOL0     C66703   1.510   5.562   9.868  0.5360 -0.1708  0.9510
  484MOL0     C66704   1.592   5.669   9.901 -0.4619  1.2022 -0.0417
  484MOL0     N66705   2.167   6.063  10.106  0.1484 -0.1037  0.3798
  484MOL0     N66706   2.287   6.070  10.161 -0.0097 -0.0046  0.6206
  484MOL0     C66707   3.024   5.892   9.717 -0.4061 -0.1052 -0.2993
  484MOL0     C66708   3.083   5.773   9.765  0.5900 -1.4111 -0.4733
  484MOL0     C66709   3.198   5.430  10.030  0.1145  0.0303  0.0299
  484MOL0     C66710   3.248   5.410  10.160 -0.3494 -0.7199 -0.1293
  484MOL0     C66711   3.371   5.334  10.183  0.1177  0.6395  0.0222
  484MOL0     C66712   3.448   5.271  10.082 -0.3220  1.1699 -0.7933
  484MOL0     O66713   3.570   5.217  10.106  0.0615 -0.8994 -0.1972
  484MOL0     C66714   3.671   5.202   9.994 -0.8502  0.7462  0.0689
  484MOL0     C66715   3.728   5.339   9.952  1.0345 -0.2866 -1.1871
  484MOL0     C66716   3.857   5.327   9.874  0.4400  0.3329  0.4353
  484MOL0     C66717   3.898   5.461   9.828  0.8365 -0.0273  0.4357
  484MOL0     C66718   3.978   5.532   9.923  0.4034 -0.2962  0.0209
  484MOL0     C66719   4.022   5.587  10.020  0.8327  0.0902 -0.9018
  484MOL0     C66720   3.383   5.291   9.959  0.2165  0.3174  0.3761
  484MOL0     C66721   3.273   5.366   9.925  0.7371 -1.1448 -0.0306
  484MOL0     C66722   3.230   5.364   9.787  0.1280  0.2988  0.3390
  484MOL0     H66723   2.868   5.710  10.020  0.4959 -0.0968  0.7341
  484MOL0     H66724   2.811   5.959   9.969  2.1812  0.5243  2.2075
  484MOL0     H66725   2.938   6.186   9.946 -0.8840 -0.4468  2.3121
  484MOL0     H66726   2.764   6.173   9.904 -2.0138  3.6022 -0.5495
  484MOL0     H66727   2.913   6.400   9.892 -1.5577  1.1157 -0.4571
  484MOL0     H66728   2.933   6.337   9.729  3.0309  0.3049  1.4703
  484MOL0     H66729   2.745   6.501   9.781 -0.1666  0.5822 -0.6781
  484MOL0     H66730   2.708   6.349   9.685  1.0028 -0.7081  0.3360
  484MOL0     H66731   2.522   6.428   9.854 -1.0987 -0.5406  0.1561
  484MOL0     H66732   2.579   6.272   9.886  2.5177 -0.4576  0.6017
  484MOL0     H66733   2.673   6.528  10.041 -3.0985 -0.8684 -0.3885
  484MOL0     H66734   2.738   6.364  10.066  0.3933  0.8079  1.9351
  484MOL0     H66735   2.539   6.495  10.192  1.7565 -1.2028  0.3924
  484MOL0     H66736   2.440   6.404  10.076  0.2007 -2.0081 -0.2788
  484MOL0     H66737   2.623   6.273  10.288 -1.9964 -2.1663  2.4589
  484MOL0     H66738   2.562   6.197  10.139  2.2844  0.1998  0.7177
  484MOL0     H66739   2.430   6.179  10.364 -1.6388 -1.6662 -0.3124
  484MOL0     H66740   2.370   6.340  10.340  1.2684 -0.8170  1.1162
  484MOL0     H66741   2.176   6.383  10.191  1.2671  0.6516  1.4612
  484MOL0     H66742   1.955   6.305  10.014 -2.4053 -0.5013 -0.5894
  484MOL0     H66743   1.914   6.241  10.167  2.1955 -0.8904  1.4843
  484MOL0     H66744   1.798   6.150   9.964 -0.3502 -1.1053 -1.5389
  484MOL0     H66745   1.950   6.060   9.920 -2.0529 -0.2800 -2.4157
  484MOL0     H66746   1.915   5.919  10.128  0.2730 -0.0034  1.2914
  484MOL0     H66747   1.776   6.022  10.162 -1.6140 -1.3075 -0.8835
  484MOL0     H66748   1.640   5.928  10.016  0.3148  0.1694  0.2322
  484MOL0     H66749   1.779   5.873   9.903 -0.4326 -0.7486 -0.8437
  484MOL0     H66750   1.746   5.512  10.160  4.0342 -0.0194 -2.2291
  484MOL0     H66751   1.705   5.268  10.161 -0.4027 -0.7352  0.7311
  484MOL0     H66752   1.648   5.221  10.000  0.6584  2.6074 -1.1955
  484MOL0     H66753   1.531   5.250  10.129  0.3270 -1.1261  0.3626
  484MOL0     H66754   1.325   5.037  10.019  0.1375 -0.3072 -0.0698
  484MOL0     H66755   1.146   4.874   9.939 -1.5063 -0.1657 -1.7631
  484MOL0     H66756   0.927   4.973   9.603 -0.9107 -1.0021  1.9062
  484MOL0     H66757   1.048   4.917   9.491  0.0552  1.2508  0.6068
  484MOL0     H66758   0.868   4.715   9.629  1.8067  2.0654  1.1824
  484MOL0     H66759   0.838   4.794   9.469 -1.9376 -1.9111  0.2217
  484MOL0     H66760   1.106   4.656   9.502  1.7793  2.7827 -2.3590
  484MOL0     H66761   1.030   4.702   9.356  2.3489 -3.3894 -0.4268
  484MOL0     H66762   0.852   4.509   9.423  0.1552  1.2893 -0.6836
  484MOL0     H66763   0.961   4.492   9.564 -2.4738 -3.2461 -0.4602
  484MOL0     H66764   1.035   4.454   9.271 -5.0525  0.8846  0.1371
  484MOL0     H66765   1.141   4.426   9.407 -0.5196  2.6727  2.5544
  484MOL0     H66766   0.891   4.249   9.329  1.0287 -1.0821 -1.8073
  484MOL0     H66767   0.975   4.261   9.485  0.5665  0.3628 -0.3986
  484MOL0     H66768   1.184   4.175   9.350 -0.0491 -1.7623  0.1471
  484MOL0     H66769   1.084   4.194   9.205 -2.8866 -1.1500 -0.4556
  484MOL0     H66770   1.095   3.978   9.259  1.7836  2.3830  0.6840
  484MOL0     H66771   0.927   4.029   9.286  0.0797  0.7044 -1.4155
  484MOL0     H66772   1.255   4.967   9.547 -1.7770 -3.3124  1.9743
  484MOL0     H66773   1.365   5.182   9.626  0.9536 -1.8982 -1.0593
  484MOL0     H66774   1.437   5.587   9.792  1.1737 -0.3730  0.2675
  484MOL0     H66775   1.579   5.766   9.853 -1.2146  0.7419 -0.7867
  484MOL0     H66776   3.055   5.950   9.631  0.0656  0.5161  0.2783
  484MOL0     H66777   3.174   5.738   9.716  0.5439 -0.5370 -1.2069
  484MOL0     H66778   3.198   5.463  10.240 -3.2069 -1.7218 -1.1205
  484MOL0     H66779   3.399   5.317  10.287 -3.4788 -1.8020  0.7745
  484MOL0     H66780   3.753   5.140  10.032  0.2134  3.7195  3.2444
  484MOL0     H66781   3.617   5.156   9.912 -2.3788  1.6066  0.5477
  484MOL0     H66782   3.743   5.399  10.043 -1.5052 -1.0502 -0.1536
  484MOL0     H66783   3.653   5.397   9.897  3.0677  4.4550  0.4316
  484MOL0     H66784   3.939   5.283   9.931  2.0858 -0.4735 -2.3562
  484MOL0     H66785   3.838   5.273   9.781 -0.5330  2.2456 -0.5197
  484MOL0     H66786   3.808   5.516   9.798  1.6172  2.2218  1.9794
  484MOL0     H66787   3.951   5.454   9.733 -1.9297  0.5062 -1.2739
  484MOL0     H66788   4.056   5.631  10.112 -0.0213 -0.4173 -0.3193
  484MOL0     H66789   3.414   5.232   9.874 -4.4202 -1.2824 -0.4765
  484MOL0     H66790   3.274   5.438   9.719 -0.0201  0.0713 -0.0085
  484MOL0     H66791   3.250   5.264   9.748 -1.4256 -0.0984  0.4949
  484MOL0     H66792   3.121   5.360   9.793  0.2453 -0.9285  2.9315
  485MOL0     O66793   6.218   7.471   6.193 -0.4359 -0.3566 -0.2154
  485MOL0     C66794   6.335   7.463   6.238 -1.4279 -0.2333  0.1492
  485MOL0     O66795   6.441   7.425   6.154 -1.0072 -0.2814  0.3882
  485MOL0     C66796   6.415   7.403   6.024  0.4023  0.2402 -0.3361
  485MOL0     C66797   6.488   7.294   5.969  0.0981 -0.2866 -0.9883
  485MOL0     C66798   6.469   7.259   5.840 -1.2703  0.4934  0.7986
  485MOL0     C66799   6.395   7.325   5.748 -0.4880 -0.6622 -0.0661
  485MOL0     O66800   6.394   7.276   5.624  0.3288  0.2586  0.0035
  485MOL0     C66801   6.292   7.318   5.537  0.0100 -0.1160 -0.5812
  485MOL0     C66802   6.294   7.234   5.410 -0.4118  0.6826 -0.4141
  485MOL0     C66803   6.159   7.188   5.352  0.0488  0.2053 -1.0429
  485MOL0     C66804   6.185   7.149   5.208  0.0362  0.0871 -0.0746
  485MOL0     C66805   6.046   7.113   5.146  0.1204  0.1778  1.3657
  485MOL0     C66806   6.061   7.103   4.995  0.2550  0.9840  0.3970
  485MOL0     C66807   5.934   7.082   4.903 -0.7059 -1.0584 -0.2718
  485MOL0     C66808   5.876   7.210   4.833  0.0549 -0.2512 -0.0793
  485MOL0     N66809   5.807   7.301   4.932 -0.2119 -0.4772 -0.5257
  485MOL0     C66810   5.831   7.438   4.940 -1.0617  0.0501 -0.0152
  485MOL0     C66811   5.749   7.480   5.048  0.0704  0.1041  0.3455
  485MOL0     C66812   5.735   7.611   5.113 -0.5452  0.3191 -1.1766
  485MOL0     C66813   5.752   7.733   5.013  0.6489  0.4783 -0.4603
  485MOL0     C66814   5.740   7.868   5.081 -0.3341 -0.5655 -0.2357
  485MOL0     C66815   5.771   7.991   4.998  0.1811 -0.3230  0.7206
  485MOL0     O66816   5.870   8.075   5.061 -0.5033 -0.4566  0.6565
  485MOL0     C66817   6.005   8.047   5.049  0.9429 -0.5759 -0.3151
  485MOL0     C66818   6.085   8.127   5.113 -0.4452  0.3783 -0.9747
  485MOL0     C66819   6.225   8.108   5.121 -0.0590  0.0746  0.4765
  485MOL0     C66820   6.290   8.192   5.233  0.4979 -0.3737 -0.9476
  485MOL0     C66821   6.290   8.010   5.039  0.0207 -0.4594  0.0072
  485MOL0     C66822   6.437   8.002   5.022 -0.8457 -0.1942  0.5325
  485MOL0     O66823   6.477   7.908   4.923 -0.1342 -0.2560  0.0706
  485MOL0     C66824   6.610   7.893   4.888 -0.4803 -0.3478  0.0784
  485MOL0     C66825   6.664   7.772   4.846  0.5510  0.2360 -0.7079
  485MOL0     C66826   6.794   7.749   4.823  0.2205  0.3121  0.0951
  485MOL0     C66827   6.891   7.852   4.834 -0.2303 -0.2420  0.0797
  485MOL0     O66828   7.027   7.824   4.816  0.4874  0.4250 -0.3240
  485MOL0     C66829   7.125   7.920   4.877 -0.0727  0.4109 -1.0238
  485MOL0     C66830   7.265   7.865   4.859  0.5616 -0.4418 -0.2529
  485MOL0     C66831   7.377   7.935   4.938  0.7354  0.4805  0.2028
  485MOL0     C66832   7.398   8.079   4.886  0.3278 -0.9925  0.9035
  485MOL0     C66833   7.522   8.134   4.950  0.4766 -0.5786  0.0898
  485MOL0     C66834   7.525   8.289   4.925 -0.1679 -0.5727  0.6505
  485MOL0     C66835   7.651   8.335   4.992 -0.8931 -0.1361  0.5124
  485MOL0     C66836   7.697   8.480   4.962  0.3550 -0.0612 -1.1581
  485MOL0    Cl66837   7.581   8.598   5.002  0.1885 -0.5343  0.1876
  485MOL0     C66838   6.844   7.979   4.848  0.3395  0.9370 -0.5750
  485MOL0     C66839   6.706   8.000   4.889  0.6085  0.3129  1.3127
  485MOL0     O66840   6.510   8.065   5.102 -0.0914 -0.6192  0.6442
  485MOL0     C66841   6.196   7.916   4.981 -0.4289  0.6988 -0.2646
  485MOL0     C66842   6.058   7.941   4.990  0.5959 -0.2016 -0.4619
  485MOL0     N66843   5.678   7.371   5.089  0.7696  1.0922  0.9343
  485MOL0     N66844   5.711   7.267   5.021 -0.5916  0.0534 -0.2791
  485MOL0     C66845   6.331   7.442   5.798 -0.0873  0.2414 -0.4721
  485MOL0     C66846   6.339   7.484   5.934  0.4662  0.4270 -0.6753
  485MOL0     C66847   6.370   7.498   6.375  1.3728  0.9763 -0.6874
  485MOL0     C66848   6.503   7.531   6.406  0.8092  0.8217  0.1687
  485MOL0     C66849   6.534   7.564   6.539  0.0560  2.0017  0.6487
  485MOL0     C66850   6.440   7.568   6.640 -0.7013  0.0787 -0.5174
  485MOL0     O66851   6.494   7.614   6.761 -0.4588  0.3254 -0.1051
  485MOL0     C66852   6.416   7.701   6.848 -0.3487 -0.6221  0.6517
  485MOL0     C66853   6.510   7.817   6.888  0.0002 -0.0706  0.7303
  485MOL0     C66854   6.626   7.787   6.984 -0.3368  0.6148  0.2442
  485MOL0     C66855   6.648   7.904   7.082  0.5161  0.8565 -0.1402
  485MOL0     C66856   6.547   7.900   7.187 -0.2643 -0.7773  0.1192
  485MOL0     C66857   6.468   7.897   7.270  0.0136 -0.0310  0.2712
  485MOL0     C66858   6.307   7.545   6.612 -0.4435  0.0993 -0.4025
  485MOL0     C66859   6.272   7.505   6.482 -0.0001  0.0261  0.3563
  485MOL0     C66860   6.124   7.479   6.448 -0.4653  0.4138  0.1362
  485MOL0     H66861   6.568   7.236   6.014 -1.0991 -1.4557 -0.2990
  485MOL0     H66862   6.533   7.177   5.811  2.6411  3.1809  0.9987
  485MOL0     H66863   6.309   7.423   5.512 -1.1175  0.6258  1.5441
  485MOL0     H66864   6.200   7.310   5.595 -1.4656  4.6313 -1.8289
  485MOL0     H66865   6.346   7.290   5.332 -0.8060  1.3260 -0.2208
  485MOL0     H66866   6.359   7.148   5.428 -1.0531  0.0573 -1.0272
  485MOL0     H66867   6.136   7.104   5.418 -2.6404 -0.2021 -2.3163
  485MOL0     H66868   6.091   7.274   5.352 -1.3893 -0.8413  1.0699
  485MOL0     H66869   6.217   7.238   5.155 -0.5861 -0.1408 -0.8625
  485MOL0     H66870   6.256   7.066   5.200 -0.5683 -0.4890  0.2850
  485MOL0     H66871   5.973   7.190   5.174 -0.5083 -1.2815  4.1019
  485MOL0     H66872   6.013   7.016   5.185  1.5797 -1.7694 -1.8631
  485MOL0     H66873   6.117   7.191   4.962  1.8271 -0.0276  0.2814
  485MOL0     H66874   6.128   7.019   4.975 -1.4690 -0.7792  1.6092
  485MOL0     H66875   5.860   7.035   4.969 -1.9723  2.8057  1.3152
  485MOL0     H66876   5.972   7.023   4.819  2.3843  1.6790 -0.9805
  485MOL0     H66877   5.954   7.260   4.776  3.4630 -1.9092  2.7474
  485MOL0     H66878   5.798   7.188   4.760 -0.7234  2.7904 -0.2848
  485MOL0     H66879   5.905   7.493   4.882 -0.2109 -0.9985  0.0563
  485MOL0     H66880   5.818   7.606   5.184 -1.3346 -2.3788 -0.3226
  485MOL0     H66881   5.634   7.615   5.157 -1.9282 -2.5717 -3.7637
  485MOL0     H66882   5.849   7.716   4.966  0.5396  3.5562 -2.0154
  485MOL0     H66883   5.676   7.725   4.935  0.4446  1.3027 -0.3502
  485MOL0     H66884   5.637   7.873   5.118 -0.3169 -2.1231  0.0656
  485MOL0     H66885   5.805   7.865   5.168  2.3256  1.9312 -1.9483
  485MOL0     H66886   5.806   7.958   4.900 -2.4218 -2.8149  0.5001
  485MOL0     H66887   5.682   8.046   4.968  0.5809 -0.0603 -0.0127
  485MOL0     H66888   6.046   8.196   5.187  3.9011  1.6979  0.3475
  485MOL0     H66889   6.367   8.258   5.193 -2.2392  3.4206 -0.5246
  485MOL0     H66890   6.326   8.127   5.313 -1.6013  0.6677  0.9597
  485MOL0     H66891   6.220   8.253   5.291  1.2237 -2.1800  2.0569
  485MOL0     H66892   6.596   7.687   4.852  0.7641  0.1092 -0.0396
  485MOL0     H66893   6.831   7.654   4.787  1.0516  0.4252  0.6274
  485MOL0     H66894   7.118   8.017   4.826  0.6766  0.5548 -0.8675
  485MOL0     H66895   7.118   7.935   4.985  2.6136  0.2676 -0.7547
  485MOL0     H66896   7.272   7.763   4.898  2.2863 -0.6066 -0.9123
  485MOL0     H66897   7.283   7.861   4.751 -0.2497 -3.2739 -0.3425
  485MOL0     H66898   7.474   7.884   4.942 -1.3922 -3.9392  3.0101
  485MOL0     H66899   7.346   7.934   5.042  1.5726 -0.7908  0.4592
  485MOL0     H66900   7.313   8.142   4.913  0.9651  0.0922  0.4543
  485MOL0     H66901   7.409   8.084   4.777  2.8440  1.1709  1.1332
  485MOL0     H66902   7.520   8.114   5.058  2.0858  3.4490  1.0422
  485MOL0     H66903   7.614   8.087   4.915  0.0064 -2.7672  1.5629
  485MOL0     H66904   7.443   8.345   4.972  1.0992  2.3395 -0.3445
  485MOL0     H66905   7.545   8.313   4.820  0.2209 -4.2994 -0.2521
  485MOL0     H66906   7.731   8.275   4.948 -2.8069 -1.7196 -1.0143
  485MOL0     H66907   7.642   8.320   5.100  0.7969 -2.9158  0.3552
  485MOL0     H66908   7.729   8.501   4.860  3.2073 -0.1108 -0.3614
  485MOL0     H66909   7.774   8.491   5.038 -1.6801  1.9245  0.7884
  485MOL0     H66910   6.908   8.065   4.835 -1.2207  1.7376 -4.4526
  485MOL0     H66911   6.676   8.099   4.923 -3.5352 -1.2879  3.0957
  485MOL0     H66912   6.229   7.829   4.925 -3.4810 -0.6795 -0.1046
  485MOL0     H66913   5.996   7.868   4.938  0.9082 -0.9479  0.1818
  485MOL0     H66914   6.265   7.501   5.736 -1.1473 -1.6435 -1.2100
  485MOL0     H66915   6.298   7.579   5.965 -2.7482  0.0511 -3.3220
  485MOL0     H66916   6.579   7.517   6.329  1.3345  1.0284  0.6376
  485MOL0     H66917   6.639   7.573   6.565  0.3233 -0.4095  0.6361
  485MOL0     H66918   6.325   7.739   6.801  1.1443  0.4935 -1.5034
  485MOL0     H66919   6.396   7.646   6.941 -0.2929 -0.1610  0.9416
  485MOL0     H66920   6.442   7.889   6.935 -1.4194 -1.0538  0.2449
  485MOL0     H66921   6.551   7.866   6.798 -0.5390 -1.5445 -0.3455
  485MOL0     H66922   6.616   7.685   7.023  0.8733  1.0863  1.9128
  485MOL0     H66923   6.714   7.782   6.920 -1.5969 -1.3483 -1.4443
  485MOL0     H66924   6.645   7.995   7.021  4.4418 -0.5637 -2.8712
  485MOL0     H66925   6.746   7.899   7.131 -1.0980  1.8924  3.5254
  485MOL0     H66926   6.401   7.901   7.354  0.0623  3.4045  0.2809
  485MOL0     H66927   6.225   7.562   6.682 -2.0762 -0.4623 -2.1085
  485MOL0     H66928   6.081   7.567   6.398 -1.5298 -0.2190 -0.0813
  485MOL0     H66929   6.110   7.396   6.379  0.2149 -0.4170  0.9737
  485MOL0     H66930   6.065   7.474   6.539 -0.1870  1.6332  0.4028
  486MOL0     O66931   9.051   5.179   1.538  0.8823  0.9854 -0.1694
  486MOL0     C66932   9.165   5.208   1.499 -0.7255  0.5415 -0.9531
  486MOL0     O66933   9.236   5.134   1.405 -0.0679  0.3079  0.3376
  486MOL0     C66934   9.192   5.008   1.377 -0.9456 -0.7767 -0.7116
  486MOL0     C66935   9.187   4.900   1.475  0.1183  0.3942 -0.3672
  486MOL0     C66936   9.141   4.774   1.435  0.6291 -0.1552 -0.1021
  486MOL0     C66937   9.112   4.747   1.292 -0.0839 -0.4371 -0.3067
  486MOL0     O66938   9.082   4.625   1.246  0.4144  0.2028 -0.3609
  486MOL0     C66939   9.064   4.506   1.321  0.5418  0.2850 -1.0104
  486MOL0     C66940   8.931   4.510   1.391  0.2285  0.6435 -0.0499
  486MOL0     C66941   8.809   4.488   1.308  0.2381  0.7451 -0.0513
  486MOL0     C66942   8.676   4.526   1.375  0.3980 -0.7827  1.3647
  486MOL0     C66943   8.572   4.533   1.256  0.6391  0.8511  0.3792
  486MOL0     C66944   8.448   4.593   1.314  0.0549  0.2625  0.3359
  486MOL0     C66945   8.330   4.626   1.228 -0.1074  0.4614 -0.3616
  486MOL0     C66946   8.374   4.660   1.086  0.1329  0.3436  0.3208
  486MOL0     N66947   8.249   4.697   1.006 -0.7008  0.0544  0.3556
  486MOL0     C66948   8.253   4.743   0.873  0.6881  0.1314 -0.9003
  486MOL0     C66949   8.131   4.709   0.818 -0.4321  0.8013 -0.0614
  486MOL0     C66950   8.082   4.757   0.687 -0.2989  1.3450 -0.0205
  486MOL0     C66951   8.005   4.887   0.691  0.8596 -1.2480  0.0437
  486MOL0     C66952   7.922   4.891   0.561 -0.6683 -0.1378 -0.5296
  486MOL0     C66953   7.822   5.005   0.571 -0.1761 -0.1855  1.0398
  486MOL0     O66954   7.867   5.137   0.582 -0.2069  0.1114 -0.7521
  486MOL0     C66955   7.939   5.201   0.487 -0.7330  0.0636 -0.4446
  486MOL0     C66956   7.963   5.157   0.353 -0.2625  0.2346  0.0240
  486MOL0     C66957   8.040   5.235   0.264  0.6420  0.9644  1.1752
  486MOL0     C66958   8.078   5.184   0.131 -0.1751 -0.1927  0.2862
  486MOL0     C66959   8.094   5.355   0.321 -0.3630  0.8240 -0.1533
  486MOL0     C66960   8.193   5.442   0.249 -0.1916 -0.3907  0.0145
  486MOL0     O66961   8.234   5.557   0.320 -0.3754  0.4624  0.6662
  486MOL0     C66962   8.339   5.622   0.258  0.7094  0.8173 -1.1256
  486MOL0     C66963   8.464   5.604   0.320  0.8134  0.3321  0.2712
  486MOL0     C66964   8.577   5.677   0.290  0.0589 -0.2181 -0.1260
  486MOL0     C66965   8.583   5.754   0.170  0.3280 -0.3068  0.7050
  486MOL0     O66966   8.684   5.811   0.093 -0.9863  0.2673 -0.2460
  486MOL0     C66967   8.767   5.717   0.026  0.7136  1.1658 -0.4273
  486MOL0     C66968   8.902   5.747   0.058 -0.5667  0.0023  0.0407
  486MOL0     C66969   8.925   5.728   0.209 -0.0019  0.1527  0.8939
  486MOL0     C66970   9.077   5.716   0.229  0.3889  0.3507 -0.1964
  486MOL0     C66971   9.145   5.854   0.257  0.5535 -0.8114 -0.2247
  486MOL0     C66972   9.298   5.838   0.285  0.9358  0.1589 -0.5536
  486MOL0     C66973   9.320   5.778   0.423  0.0557 -0.1562  0.1207
  486MOL0     C66974   9.472   5.769   0.457 -0.1380  0.2706 -0.0899
  486MOL0    Cl66975   9.550   5.645   0.353 -0.1664  0.0366 -0.2008
  486MOL0     C66976   8.456   5.772   0.103  0.2805  0.4662 -0.1424
  486MOL0     C66977   8.336   5.709   0.148  0.0082  0.3361  0.6979
  486MOL0     O66978   8.233   5.406   0.141 -0.6169 -0.8734  0.4835
  486MOL0     C66979   8.080   5.385   0.460  0.3693  0.0218  0.0983
  486MOL0     C66980   7.997   5.316   0.547 -0.1117 -0.0592  0.2562
  486MOL0     N66981   8.062   4.647   0.918 -0.3087  0.9474  0.1483
  486MOL0     N66982   8.129   4.638   1.024  0.3268  0.2255  0.4705
  486MOL0     C66983   9.124   4.853   1.199  0.1500  0.1452  0.1311
  486MOL0     C66984   9.159   4.977   1.242 -0.5425  0.1216 -0.3512
  486MOL0     C66985   9.232   5.332   1.540  0.6739  0.3328 -0.1006
  486MOL0     C66986   9.185   5.436   1.473 -0.2755  0.1700 -0.6596
  486MOL0     C66987   9.234   5.562   1.487 -0.2836 -0.1225  0.3256
  486MOL0     C66988   9.335   5.592   1.582  0.2327  0.7071  0.4735
  486MOL0     O66989   9.380   5.721   1.586 -0.5707  0.0588 -0.7766
  486MOL0     C66990   9.520   5.723   1.557  0.0012 -0.2868 -0.3125
  486MOL0     C66991   9.539   5.742   1.407 -0.0982 -0.1893 -0.3912
  486MOL0     C66992   9.674   5.788   1.367 -0.4897 -0.3585 -0.8888
  486MOL0     C66993   9.680   5.826   1.214 -1.0609 -0.9738 -0.3206
  486MOL0     C66994   9.701   5.703   1.142 -0.1696  0.5789 -0.1941
  486MOL0     C66995   9.733   5.592   1.087  0.1635 -0.6405 -0.0231
  486MOL0     C66996   9.386   5.484   1.651  0.7301 -0.0318  0.5911
  486MOL0     C66997   9.340   5.353   1.629 -0.0320 -0.0161 -0.0333
  486MOL0     C66998   9.391   5.235   1.696 -0.2461 -0.3658 -0.9782
  486MOL0     H66999   9.206   4.904   1.582 -2.3284  1.5504  0.1027
  486MOL0     H67000   9.126   4.697   1.510 -1.6432 -0.2656 -0.5839
  486MOL0     H67001   9.133   4.477   1.400 -0.4766  0.5229 -0.0124
  486MOL0     H67002   9.055   4.416   1.259 -3.4761 -0.7880  0.8295
  486MOL0     H67003   8.925   4.418   1.450  3.3572 -0.4294 -1.1724
  486MOL0     H67004   8.923   4.605   1.446  3.1109  2.4347 -2.4191
  486MOL0     H67005   8.823   4.556   1.224 -0.1714 -0.2895 -0.9918
  486MOL0     H67006   8.796   4.383   1.280 -1.3368 -0.1454  3.4611
  486MOL0     H67007   8.654   4.449   1.450  0.9370 -1.6224  0.6853
  486MOL0     H67008   8.668   4.624   1.423 -1.3103  0.0660 -0.5004
  486MOL0     H67009   8.547   4.436   1.213 -1.4006  1.5046 -0.0365
  486MOL0     H67010   8.605   4.600   1.177  3.5413  1.1234  1.6909
  486MOL0     H67011   8.402   4.537   1.395  0.4531 -2.0125 -0.9269
  486MOL0     H67012   8.480   4.687   1.359 -1.0353  1.0579 -0.4744
  486MOL0     H67013   8.265   4.704   1.268 -2.1131 -0.1713 -2.1689
  486MOL0     H67014   8.278   4.530   1.218 -0.6007  0.6564  0.2851
  486MOL0     H67015   8.439   4.747   1.081 -0.6889  0.9022 -1.2248
  486MOL0     H67016   8.429   4.575   1.043 -2.4727 -0.4529 -1.6621
  486MOL0     H67017   8.336   4.791   0.822  0.5168  1.2677 -0.1313
  486MOL0     H67018   8.022   4.677   0.642  0.1878  1.9848 -1.8886
  486MOL0     H67019   8.176   4.774   0.634 -0.5698  0.9222 -0.6451
  486MOL0     H67020   7.945   4.882   0.782  2.0065  1.5657  1.0551
  486MOL0     H67021   8.070   4.974   0.704  0.4189 -1.2354  2.6365
  486MOL0     H67022   8.001   4.895   0.485 -0.5140 -0.5482 -0.3946
  486MOL0     H67023   7.868   4.797   0.543  0.6156 -0.4116 -3.5771
  486MOL0     H67024   7.759   5.001   0.481  1.8465  3.4837 -0.7832
  486MOL0     H67025   7.751   4.987   0.652 -1.8868  0.7452 -0.1716
  486MOL0     H67026   7.930   5.063   0.311  0.0023 -1.3383  3.0469
  486MOL0     H67027   8.044   5.254   0.054  2.9412 -0.5959 -1.6312
  486MOL0     H67028   8.037   5.086   0.104  2.7010 -0.8021 -2.5146
  486MOL0     H67029   8.187   5.177   0.127 -0.0369 -0.1390  2.7825
  486MOL0     H67030   8.463   5.537   0.405  0.3522 -1.6625 -1.2072
  486MOL0     H67031   8.661   5.674   0.358 -0.5019  0.9737  0.6590
  486MOL0     H67032   8.741   5.613   0.048  0.0940  1.8293  2.5058
  486MOL0     H67033   8.758   5.728  -0.082 -1.8176 -4.0662 -1.0465
  486MOL0     H67034   8.961   5.677  -0.003  1.9251  1.8314  0.1679
  486MOL0     H67035   8.927   5.852   0.037 -2.8238  0.7368  0.7589
  486MOL0     H67036   8.873   5.637   0.238 -2.8482  1.3781  0.0306
  486MOL0     H67037   8.884   5.813   0.266  2.7710  1.0634  1.6699
  486MOL0     H67038   9.123   5.657   0.149  2.6564 -2.5748  2.9624
  486MOL0     H67039   9.075   5.653   0.319 -2.8020  2.1241  1.1215
  486MOL0     H67040   9.127   5.915   0.168 -2.1512  1.8652  1.9520
  486MOL0     H67041   9.094   5.906   0.339  1.3962  0.0661 -0.2364
  486MOL0     H67042   9.349   5.934   0.269  1.2495 -0.0434 -0.7790
  486MOL0     H67043   9.339   5.770   0.210 -0.0138 -0.6446 -0.3631
  486MOL0     H67044   9.272   5.681   0.435  0.0348 -0.1655 -0.0307
  486MOL0     H67045   9.283   5.846   0.500  0.4016 -0.4354  0.5404
  486MOL0     H67046   9.492   5.746   0.562  0.9165 -1.1760 -0.5817
  486MOL0     H67047   9.522   5.857   0.417 -1.7007  0.8586 -0.8642
  486MOL0     H67048   8.452   5.838   0.016  0.3415  2.3829  1.2565
  486MOL0     H67049   8.239   5.705   0.100  0.2022 -1.6642  0.3933
  486MOL0     H67050   8.128   5.477   0.493  3.1552  0.9618 -5.3861
  486MOL0     H67051   7.988   5.352   0.649  0.5496  0.1183  0.2579
  486MOL0     H67052   9.116   4.829   1.093 -2.0163 -0.6700  0.4186
  486MOL0     H67053   9.170   5.039   1.153  0.3630 -0.5730 -0.7344
  486MOL0     H67054   9.102   5.418   1.405 -0.8796 -1.5487  0.4704
  486MOL0     H67055   9.191   5.650   1.440 -0.7893 -0.2984  0.4522
  486MOL0     H67056   9.568   5.808   1.606 -2.5484  1.2851 -0.3210
  486MOL0     H67057   9.572   5.633   1.590  2.1879  0.8879 -0.3806
  486MOL0     H67058   9.467   5.809   1.360 -0.5701 -0.7333 -0.4456
  486MOL0     H67059   9.522   5.643   1.366  1.0682 -0.1833 -0.9394
  486MOL0     H67060   9.708   5.870   1.430 -2.7653 -0.6624  0.8746
  486MOL0     H67061   9.760   5.727   1.394  0.1548  1.8130  2.4894
  486MOL0     H67062   9.770   5.887   1.204 -0.6560 -1.4115  0.4986
  486MOL0     H67063   9.590   5.874   1.176 -1.2622 -2.7655 -2.3210
  486MOL0     H67064   9.769   5.496   1.056  2.4776  0.1753 -0.0729
  486MOL0     H67065   9.471   5.499   1.717  2.2928 -1.0690 -1.0895
  486MOL0     H67066   9.498   5.229   1.674  0.6669 -0.4908  2.7649
  486MOL0     H67067   9.380   5.257   1.802 -1.7083  1.6974 -1.4865
  486MOL0     H67068   9.351   5.136   1.672  0.1871 -0.9264  0.5186
  487MOL0     O67069   6.842   5.543   0.076  0.5370 -0.2359 -0.6729
  487MOL0     C67070   6.816   5.604   0.184 -0.1895 -0.5728  0.1460
  487MOL0     O67071   6.907   5.690   0.256  0.0790  0.0284  0.1963
  487MOL0     C67072   6.998   5.739   0.169 -0.4000  0.5404  0.0694
  487MOL0     C67073   7.105   5.648   0.133 -0.1378  0.3392  0.0316
  487MOL0     C67074   7.199   5.701   0.053  0.1557 -0.2905  0.7616
  487MOL0     C67075   7.193   5.833   0.005 -0.3037  0.8013 -0.4581
  487MOL0     O67076   7.296   5.895  -0.072  0.4001  0.7702  0.6297
  487MOL0     C67077   7.410   5.820  -0.111  0.2965  0.0129 -0.7603
  487MOL0     C67078   7.501   5.907  -0.191 -0.4500  0.1021 -0.6022
  487MOL0     C67079   7.485   6.061  -0.167 -0.2504  0.4041  0.9146
  487MOL0     C67080   7.581   6.123  -0.263 -1.0036  0.2057  0.3551
  487MOL0     C67081   7.577   6.272  -0.258 -0.3312  0.3658 -0.9785
  487MOL0     C67082   7.463   6.343  -0.346  0.2786  0.1011 -0.4272
  487MOL0     C67083   7.498   6.486  -0.378 -0.4321  0.5371 -0.1116
  487MOL0     C67084   7.398   6.543  -0.485 -0.9883 -0.0804  0.0471
  487MOL0     N67085   7.388   6.688  -0.498 -0.3179 -0.5824  0.5325
  487MOL0     C67086   7.489   6.783  -0.503 -0.7178 -0.9004  0.7127
  487MOL0     C67087   7.438   6.900  -0.473 -0.0007  0.9081  0.7111
  487MOL0     C67088   7.511   7.032  -0.496 -0.4059  0.3335 -0.4894
  487MOL0     C67089   7.452   7.101  -0.625 -0.2321 -0.3663 -0.3342
  487MOL0     C67090   7.302   7.144  -0.606  0.9824  1.1446  0.4529
  487MOL0     C67091   7.248   7.227  -0.720 -0.2646  0.4751 -0.3508
  487MOL0     O67092   7.255   7.146  -0.835 -0.3295  0.1349  0.5265
  487MOL0     C67093   7.233   7.211  -0.953  0.2437 -1.1034 -0.0600
  487MOL0     C67094   7.259   7.131  -1.062 -0.2615  0.6693  0.9148
  487MOL0     C67095   7.230   7.171  -1.188  0.3715  0.5112  0.1437
  487MOL0     C67096   7.262   7.077  -1.301 -0.5024 -0.3328  0.1737
  487MOL0     C67097   7.167   7.297  -1.208  0.5804  0.3455  0.1691
  487MOL0     C67098   7.103   7.343  -1.334 -0.3081  0.3338 -0.0556
  487MOL0     O67099   7.113   7.474  -1.368 -0.0202 -0.9670  0.2563
  487MOL0     C67100   6.994   7.534  -1.413  0.2118  0.7242  0.1607
  487MOL0     C67101   6.861   7.482  -1.398 -0.4017  0.6305 -0.5215
  487MOL0     C67102   6.756   7.557  -1.445  0.2931  0.2462  0.2120
  487MOL0     C67103   6.774   7.685  -1.506 -0.5842 -0.1930 -0.3552
  487MOL0     O67104   6.667   7.745  -1.558 -0.9169  0.1403  0.3034
  487MOL0     C67105   6.575   7.784  -1.454 -1.1061 -0.2252 -0.1246
  487MOL0     C67106   6.578   7.934  -1.418  0.0285  0.2519  0.4872
  487MOL0     C67107   6.565   8.029  -1.528  0.9895  1.2019 -0.5602
  487MOL0     C67108   6.666   8.035  -1.645  0.2631 -0.9043  0.1594
  487MOL0     C67109   6.670   8.178  -1.704  0.1715 -0.1366 -0.5146
  487MOL0     C67110   6.737   8.160  -1.843 -0.7514  0.1320 -0.6785
  487MOL0     C67111   6.776   8.305  -1.898 -0.5055 -1.2109 -0.1165
  487MOL0     C67112   6.799   8.302  -2.044 -0.6675 -0.4907 -0.3225
  487MOL0    Cl67113   6.847   8.466  -2.105  0.5989 -0.2190  0.3943
  487MOL0     C67114   6.904   7.741  -1.509 -0.5458  0.3937  0.0924
  487MOL0     C67115   7.015   7.665  -1.464  0.1486  0.4881  0.6513
  487MOL0     O67116   7.053   7.261  -1.407 -0.3273  0.0599 -0.0488
  487MOL0     C67117   7.147   7.383  -1.093  0.1781 -1.1690  0.9357
  487MOL0     C67118   7.176   7.342  -0.965  0.8384  0.7173 -0.1876
  487MOL0     N67119   7.299   6.877  -0.443  0.5798  0.1007  0.2238
  487MOL0     N67120   7.282   6.756  -0.452 -0.3164  0.3344  0.5133
  487MOL0     C67121   7.085   5.909   0.040 -0.1237  0.1535  0.0323
  487MOL0     C67122   6.989   5.870   0.124 -0.1259  0.7282 -1.1953
  487MOL0     C67123   6.689   5.569   0.249  0.4617  0.7818  0.5021
  487MOL0     C67124   6.691   5.547   0.391  0.2052  0.2890 -0.4721
  487MOL0     C67125   6.583   5.501   0.467  0.6099  0.4174  0.1503
  487MOL0     C67126   6.466   5.474   0.393  0.2742  0.1003  0.7338
  487MOL0     O67127   6.369   5.419   0.473 -0.2869 -0.2253  0.5390
  487MOL0     C67128   6.231   5.414   0.422  0.0176  0.1195 -0.3019
  487MOL0     C67129   6.152   5.348   0.534  0.8039  0.7038  0.0339
  487MOL0     C67130   5.995   5.353   0.538  0.0491 -0.6839  0.5527
  487MOL0     C67131   5.939   5.332   0.680 -0.2540 -0.1153  0.3810
  487MOL0     C67132   5.793   5.307   0.675  0.3434  0.4336  0.2490
  487MOL0     C67133   5.669   5.321   0.658 -1.0795 -0.3382  0.3102
  487MOL0     C67134   6.459   5.506   0.253  0.2535 -0.4627  0.2518
  487MOL0     C67135   6.568   5.552   0.176 -0.2260  0.0144 -0.0528
  487MOL0     C67136   6.555   5.551   0.029 -0.0274 -0.6062  0.2074
  487MOL0     H67137   7.112   5.550   0.178 -3.0452 -0.5833 -1.2996
  487MOL0     H67138   7.282   5.636   0.025  1.1449  0.5639  1.5887
  487MOL0     H67139   7.380   5.733  -0.170  0.3933 -0.0289 -0.7470
  487MOL0     H67140   7.466   5.790  -0.022 -3.1420  0.2593  1.7261
  487MOL0     H67141   7.602   5.874  -0.166 -0.8624 -0.3002  0.5932
  487MOL0     H67142   7.475   5.887  -0.296 -2.7992 -0.1452 -0.0468
  487MOL0     H67143   7.384   6.097  -0.188  0.7314  1.4314 -2.9914
  487MOL0     H67144   7.515   6.076  -0.063  0.4388  1.9021  0.5274
  487MOL0     H67145   7.683   6.095  -0.236 -0.4775 -0.9995 -2.5162
  487MOL0     H67146   7.569   6.084  -0.364 -0.7343 -2.2347  1.1931
  487MOL0     H67147   7.676   6.298  -0.297 -1.1040  2.7628 -1.5109
  487MOL0     H67148   7.568   6.314  -0.157  0.9388  2.6170 -1.7246
  487MOL0     H67149   7.460   6.294  -0.444  2.1703 -2.6720  0.7816
  487MOL0     H67150   7.369   6.349  -0.290  0.3065  0.6200 -0.4277
  487MOL0     H67151   7.603   6.483  -0.409 -0.3301  0.6419  0.2216
  487MOL0     H67152   7.484   6.545  -0.287  1.3420  2.9164 -1.2628
  487MOL0     H67153   7.429   6.498  -0.579 -0.7970 -1.9700  0.9558
  487MOL0     H67154   7.297   6.513  -0.455 -1.5699  0.9691 -0.8240
  487MOL0     H67155   7.589   6.745  -0.521 -1.4441 -3.5053  1.7093
  487MOL0     H67156   7.618   7.028  -0.515 -0.0184  2.3702  0.9463
  487MOL0     H67157   7.496   7.091  -0.405 -4.3834 -1.5247  0.3019
  487MOL0     H67158   7.513   7.189  -0.648 -0.8612  0.7654  2.0156
  487MOL0     H67159   7.459   7.032  -0.710 -2.8094  0.6553 -1.4927
  487MOL0     H67160   7.240   7.055  -0.594  0.8796  0.3432 -4.1760
  487MOL0     H67161   7.297   7.208  -0.518 -0.9359  1.0612  0.4354
  487MOL0     H67162   7.150   7.264  -0.688  0.2272  2.2245 -0.7539
  487MOL0     H67163   7.316   7.311  -0.736  1.1246  0.5569  4.3508
  487MOL0     H67164   7.301   7.032  -1.050 -0.7645  0.0352 -1.8160
  487MOL0     H67165   7.263   6.974  -1.264 -1.8205 -0.8856 -1.2285
  487MOL0     H67166   7.348   7.095  -1.367 -1.9109 -0.1908 -1.6968
  487MOL0     H67167   7.174   7.068  -1.365 -0.5167 -2.9739  0.4451
  487MOL0     H67168   6.842   7.388  -1.346  1.1332 -0.3940 -1.7270
  487MOL0     H67169   6.651   7.535  -1.431  0.0848  1.5336  0.8409
  487MOL0     H67170   6.475   7.742  -1.474 -0.3482 -1.7720 -0.8130
  487MOL0     H67171   6.598   7.733  -1.360 -1.9834  3.6013  2.3998
  487MOL0     H67172   6.496   7.957  -1.349  0.1491 -0.1977  0.7810
  487MOL0     H67173   6.668   7.947  -1.356 -1.0977  0.7795  2.0792
  487MOL0     H67174   6.565   8.122  -1.471  2.0128  0.1291  1.2927
  487MOL0     H67175   6.475   8.025  -1.590  1.0342  2.6087 -0.7494
  487MOL0     H67176   6.616   7.978  -1.724 -2.7867  2.6209 -0.7472
  487MOL0     H67177   6.766   8.000  -1.618 -0.2859 -0.9858  2.2178
  487MOL0     H67178   6.569   8.215  -1.719  1.7007  3.9489 -2.0522
  487MOL0     H67179   6.731   8.244  -1.642  2.4704 -2.1524 -0.4477
  487MOL0     H67180   6.673   8.116  -1.920 -1.1352 -0.6272  0.0570
  487MOL0     H67181   6.828   8.101  -1.830  0.1963  1.9557  1.8373
  487MOL0     H67182   6.875   8.331  -1.860  0.5128 -1.7992 -2.1759
  487MOL0     H67183   6.704   8.385  -1.878  0.4976 -1.0349  3.4813
  487MOL0     H67184   6.718   8.274  -2.112 -0.4533  1.7769 -1.6124
  487MOL0     H67185   6.882   8.232  -2.059 -0.9536 -0.2341 -4.3780
  487MOL0     H67186   6.931   7.840  -1.544  5.4755 -0.6373  0.7620
  487MOL0     H67187   7.116   7.705  -1.469 -0.8793  3.0776 -1.9871
  487MOL0     H67188   7.113   7.485  -1.107  0.7631 -0.9993  0.7362
  487MOL0     H67189   7.143   7.401  -0.880 -0.6459 -3.3217  2.3153
  487MOL0     H67190   7.086   6.007  -0.007 -0.9598  1.1889  2.0839
  487MOL0     H67191   6.898   5.926   0.143 -0.7730 -0.3761 -0.9263
  487MOL0     H67192   6.785   5.577   0.436 -0.5451  3.7415 -0.8646
  487MOL0     H67193   6.559   5.482   0.572 -0.2896  1.7396  0.2116
  487MOL0     H67194   6.196   5.516   0.402 -0.0483  0.0632 -0.4796
  487MOL0     H67195   6.227   5.360   0.327  0.7757  0.8087 -0.7376
  487MOL0     H67196   6.185   5.372   0.636 -0.0644 -0.1452  0.5341
  487MOL0     H67197   6.164   5.239   0.535 -3.3630  0.0436 -2.2255
  487MOL0     H67198   5.969   5.457   0.517  2.1402 -0.5021 -1.4320
  487MOL0     H67199   5.947   5.283   0.469 -1.9411  2.1275 -1.1387
  487MOL0     H67200   5.971   5.414   0.746 -1.2552 -0.6446  1.5529
  487MOL0     H67201   5.997   5.249   0.718  1.0620 -0.9840 -3.1111
  487MOL0     H67202   5.562   5.323   0.655 -1.2376 -2.6281  1.8793
  487MOL0     H67203   6.367   5.473   0.205  1.4875  0.7543 -3.3048
  487MOL0     H67204   6.567   5.656  -0.000 -0.2915 -0.5731  0.2139
  487MOL0     H67205   6.624   5.492  -0.031 -0.2622  2.8225 -3.8915
  487MOL0     H67206   6.458   5.511  -0.000 -0.4939 -0.9814  2.1173
  488MOL0     O67207  10.512   0.214  10.712  0.6410 -0.2878 -0.3712
  488MOL0     C67208  10.537   0.192  10.833  0.9942  0.6947  0.0992
  488MOL0     O67209  10.651   0.157  10.896  0.3944  0.1562 -0.2013
  488MOL0     C67210  10.768   0.156  10.824 -0.3954  0.2549 -0.1782
  488MOL0     C67211  10.810   0.261  10.745  0.2750 -0.4055 -0.4518
  488MOL0     C67212  10.933   0.258  10.674  1.4306  0.0601  0.4999
  488MOL0     C67213  11.014   0.148  10.686 -0.0463  0.6660 -0.0394
  488MOL0     O67214  11.135   0.138  10.621  1.1941  0.7606  0.6159
  488MOL0     C67215  11.202   0.253  10.552  0.2200  0.1185  0.0540
  488MOL0     C67216  11.303   0.209  10.442 -0.9926  0.7414 -0.7612
  488MOL0     C67217  11.249   0.176  10.309 -0.0852  0.9785  0.3363
  488MOL0     C67218  11.177   0.049  10.322  0.0939  0.0763 -0.6967
  488MOL0     C67219  11.118  -0.002  10.187 -0.1942 -0.8080 -0.7116
  488MOL0     C67220  11.034  -0.129  10.203  1.3274  0.0297  0.2902
  488MOL0     C67221  11.020  -0.203  10.071  0.0849  0.8335  0.2943
  488MOL0     C67222  10.948  -0.334  10.097  0.3721  0.2080  0.0585
  488MOL0     N67223  10.826  -0.348  10.170  0.8811  0.3881 -0.2623
  488MOL0     C67224  10.706  -0.383  10.114  0.7430 -0.8001  0.2942
  488MOL0     C67225  10.640  -0.445  10.215  0.9024  0.1713 -0.0628
  488MOL0     C67226  10.518  -0.521  10.207  0.3614  0.1795 -0.5281
  488MOL0     C67227  10.522  -0.649  10.119  1.2990 -0.1115 -0.3290
  488MOL0     C67228  10.399  -0.735  10.128 -0.2243 -0.2173  0.1794
  488MOL0     C67229  10.389  -0.831  10.011 -0.1691 -0.2476  0.7479
  488MOL0     O67230  10.505  -0.833   9.920  0.1363  0.5710  0.3328
  488MOL0     C67231  10.624  -0.907   9.931  0.1842 -0.3269 -0.3553
  488MOL0     C67232  10.661  -0.979  10.053 -0.1615  0.6497  0.7646
  488MOL0     C67233  10.773  -1.054  10.072 -0.7303  0.3042  0.5834
  488MOL0     C67234  10.789  -1.137  10.198  0.4127 -1.0733 -0.6543
  488MOL0     C67235  10.873  -1.039   9.971 -0.2233 -0.6335 -0.5894
  488MOL0     C67236  11.011  -1.103   9.971 -1.1007  0.2219 -0.1274
  488MOL0     O67237  11.048  -1.151  10.084 -0.3409 -0.0031  0.0715
  488MOL0     C67238  11.155  -1.246  10.074  0.6563 -0.8094  0.1837
  488MOL0     C67239  11.127  -1.385  10.080  0.0928  0.5830 -0.6867
  488MOL0     C67240  11.229  -1.475  10.069 -0.6553  0.6210  0.4652
  488MOL0     C67241  11.362  -1.433  10.066  1.0115 -0.3047  0.0598
  488MOL0     O67242  11.465  -1.526  10.064  0.2905  0.4086  0.4824
  488MOL0     C67243  11.445  -1.661  10.024 -0.2741  1.3794  1.2146
  488MOL0     C67244  11.579  -1.738  10.017 -0.5256 -1.3292 -0.4861
  488MOL0     C67245  11.664  -1.696   9.894  0.0001 -0.1400 -0.4937
  488MOL0     C67246  11.795  -1.771   9.891 -0.0306 -0.1216 -0.0725
  488MOL0     C67247  11.898  -1.705   9.803  0.0833  0.6596  1.1973
  488MOL0     C67248  11.993  -1.813   9.754  0.0359 -0.4198  0.5335
  488MOL0     C67249  12.121  -1.762   9.707  0.2327  0.0176 -0.1956
  488MOL0     C67250  12.185  -1.854   9.601 -0.3569  0.0516 -0.1031
  488MOL0    Cl67251  12.101  -1.858   9.442  0.0097 -0.3777 -0.3253
  488MOL0     C67252  11.392  -1.292  10.056  0.0058  0.8265  0.3276
  488MOL0     C67253  11.284  -1.202  10.068 -0.3390  0.5540 -0.7209
  488MOL0     O67254  11.084  -1.095   9.871 -0.4322 -0.3265  0.3443
  488MOL0     C67255  10.843  -0.966   9.858  0.1009  0.4301 -0.1651
  488MOL0     C67256  10.724  -0.900   9.836  0.2151  0.6141 -0.3978
  488MOL0     N67257  10.716  -0.445  10.331  0.0466  0.6334 -0.5019
  488MOL0     N67258  10.825  -0.393  10.296 -0.2118 -0.5228 -0.3052
  488MOL0     C67259  10.979   0.048  10.777 -1.1499  0.6009  0.4181
  488MOL0     C67260  10.863   0.054  10.840 -0.3735  0.4863 -0.5267
  488MOL0     C67261  10.438   0.219  10.937 -0.2057 -0.1329 -0.4004
  488MOL0     C67262  10.357   0.333  10.932 -0.6731  0.0573  0.9465
  488MOL0     C67263  10.275   0.372  11.028 -0.1398  0.3751 -0.0536
  488MOL0     C67264  10.255   0.298  11.142  0.0474 -0.4602 -0.0717
  488MOL0     O67265  10.176   0.327  11.248  0.0525 -0.6447  0.2477
  488MOL0     C67266  10.049   0.398  11.224 -0.4947 -0.7605  0.4703
  488MOL0     C67267   9.976   0.372  11.341 -0.0982  0.8689 -0.1412
  488MOL0     C67268   9.831   0.428  11.317  0.4789  0.3517  0.7409
  488MOL0     C67269   9.762   0.472  11.442  0.4391  0.7980 -0.5727
  488MOL0     C67270   9.690   0.370  11.527  0.0696 -0.0682 -0.3130
  488MOL0     C67271   9.617   0.309  11.597 -0.1051 -0.7917 -0.1247
  488MOL0     C67272  10.317   0.169  11.151 -0.4951  0.1112 -0.0709
  488MOL0     C67273  10.410   0.127  11.052  0.1079  0.5589  0.5589
  488MOL0     C67274  10.466  -0.008  11.067 -0.6517 -0.0278  0.1878
  488MOL0     H67275  10.743   0.343  10.724 -0.2930 -0.5635  0.6374
  488MOL0     H67276  10.962   0.344  10.615 -3.1034  1.6907  0.3066
  488MOL0     H67277  11.246   0.323  10.625 -2.2855  0.3570  1.4404
  488MOL0     H67278  11.119   0.305  10.503  0.7923 -0.7963 -1.9959
  488MOL0     H67279  11.371   0.291  10.416 -3.0083  2.0160 -2.3340
  488MOL0     H67280  11.368   0.128  10.476  0.9334  1.3068 -2.8509
  488MOL0     H67281  11.166   0.241  10.279 -3.5051 -2.6955  0.9310
  488MOL0     H67282  11.317   0.166  10.224 -0.9801 -1.3371 -0.1780
  488MOL0     H67283  11.254  -0.025  10.346 -1.9230 -2.4124 -1.4098
  488MOL0     H67284  11.103   0.048  10.403  1.4996  0.1586  0.6439
  488MOL0     H67285  11.201  -0.018  10.117  0.9933  1.7342 -0.0171
  488MOL0     H67286  11.063   0.080  10.141 -2.6195  0.4090  3.7082
  488MOL0     H67287  11.068  -0.195  10.284 -0.2331 -0.1454  0.8343
  488MOL0     H67288  10.931  -0.104  10.230  0.6509 -0.9813 -1.2720
  488MOL0     H67289  11.110  -0.234  10.017  0.1628 -0.4892  1.1301
  488MOL0     H67290  10.972  -0.144   9.992  2.9721  1.4995 -1.0949
  488MOL0     H67291  10.926  -0.389  10.005 -1.5918 -0.9949  1.1777
  488MOL0     H67292  11.023  -0.394  10.149 -0.1076  1.3392  2.1536
  488MOL0     H67293  10.667  -0.359  10.016  1.0328  3.1123  0.9554
  488MOL0     H67294  10.430  -0.459  10.184 -1.4614 -2.4927 -1.2657
  488MOL0     H67295  10.492  -0.549  10.310  2.0425 -3.8419 -1.0248
  488MOL0     H67296  10.555  -0.617  10.020  1.1423  1.8013  0.1931
  488MOL0     H67297  10.601  -0.716  10.154 -0.5371 -1.9745  0.4797
  488MOL0     H67298  10.408  -0.798  10.217  1.7961  1.5404  1.2957
  488MOL0     H67299  10.307  -0.677  10.137  0.1993  0.3523  0.9055
  488MOL0     H67300  10.356  -0.934  10.019  1.2437 -0.8878 -0.8186
  488MOL0     H67301  10.308  -0.787   9.952  0.0005 -1.2341 -0.2677
  488MOL0     H67302  10.587  -0.982  10.132 -0.8830 -3.8346  0.1692
  488MOL0     H67303  10.860  -1.084  10.263 -0.7206  0.6238 -0.7319
  488MOL0     H67304  10.808  -1.244  10.182  0.5426 -1.4489  1.6309
  488MOL0     H67305  10.694  -1.135  10.253  1.6804  1.1871  1.6885
  488MOL0     H67306  11.021  -1.401  10.096  0.0043  2.7126  1.3199
  488MOL0     H67307  11.210  -1.582  10.062  2.3648  0.0681 -0.7933
  488MOL0     H67308  11.385  -1.715  10.097  0.3331  1.4945  1.8146
  488MOL0     H67309  11.394  -1.673   9.928  1.6505  0.3964  0.2598
  488MOL0     H67310  11.627  -1.714  10.113  0.3981  0.6470 -1.3792
  488MOL0     H67311  11.561  -1.845  10.021 -0.7038 -1.3237 -1.0316
  488MOL0     H67312  11.683  -1.589   9.897  2.8047 -0.5930  1.1771
  488MOL0     H67313  11.617  -1.717   9.797  2.0761 -0.6825 -1.4318
  488MOL0     H67314  11.777  -1.873   9.857  1.0914 -0.3253 -0.1045
  488MOL0     H67315  11.828  -1.799   9.991 -1.2247 -1.0903  0.0671
  488MOL0     H67316  11.851  -1.657   9.716  1.2384  1.2769  0.8875
  488MOL0     H67317  11.958  -1.627   9.851  1.1317 -0.2209  1.3703
  488MOL0     H67318  11.934  -1.858   9.675 -1.5120  0.4332  1.1658
  488MOL0     H67319  12.008  -1.883   9.838 -2.1151 -1.1997  0.3198
  488MOL0     H67320  12.193  -1.736   9.785  0.7455  1.0267 -0.9787
  488MOL0     H67321  12.101  -1.667   9.657 -1.7610  0.9145  2.1193
  488MOL0     H67322  12.196  -1.952   9.648 -2.4562 -0.1475  0.1017
  488MOL0     H67323  12.288  -1.822   9.587 -0.4829 -0.1527 -1.5650
  488MOL0     H67324  11.490  -1.249  10.034  0.0422 -0.4212 -2.3419
  488MOL0     H67325  11.304  -1.095  10.075 -0.1331  0.4945 -0.4051
  488MOL0     H67326  10.915  -0.956   9.777  0.1992 -0.6589 -0.2231
  488MOL0     H67327  10.708  -0.848   9.742 -1.6408  0.4554 -0.2110
  488MOL0     H67328  11.052  -0.032  10.791 -1.0446  0.4216 -1.0711
  488MOL0     H67329  10.829  -0.020  10.911  3.3989  0.7653  1.8484
  488MOL0     H67330  10.371   0.398  10.846  0.3955 -1.0174  0.2709
  488MOL0     H67331  10.233   0.472  11.020  0.2423  0.8211  2.4744
  488MOL0     H67332  10.071   0.505  11.211 -4.1266  0.5765  3.3264
  488MOL0     H67333   9.994   0.371  11.134 -0.5178 -0.5768  0.4270
  488MOL0     H67334  10.030   0.419  11.424 -0.6403  0.7869  0.2701
  488MOL0     H67335   9.965   0.266  11.365 -0.8318  0.7893 -0.7992
  488MOL0     H67336   9.828   0.511  11.246 -0.1911  0.6200  1.0727
  488MOL0     H67337   9.778   0.345  11.270  0.8096  0.3135  0.4266
  488MOL0     H67338   9.692   0.549  11.408  1.6863  1.5213 -1.6016
  488MOL0     H67339   9.836   0.523  11.504  1.0558 -1.3021  0.5217
  488MOL0     H67340   9.563   0.234  11.653  1.1867 -0.4389  1.7127
  488MOL0     H67341  10.294   0.115  11.242 -3.6463 -1.3032 -1.5580
  488MOL0     H67342  10.407  -0.062  11.141 -0.9882 -0.0953 -0.1303
  488MOL0     H67343  10.460  -0.063  10.973 -4.3733  1.4077 -0.5870
  488MOL0     H67344  10.566   0.007  11.110 -1.0972  3.8892  0.1797
  489MOL0     O67345   0.568   2.767   9.985 -0.1617 -0.0403 -0.6647
  489MOL0     C67346   0.502   2.677  10.016  0.0507  1.2325 -0.9625
  489MOL0     O67347   0.512   2.605  10.139  0.0239 -0.5125  1.4225
  489MOL0     C67348   0.620   2.631  10.218 -0.0011 -0.6963 -0.4607
  489MOL0     C67349   0.621   2.754  10.292  0.7382  0.7854  1.2358
  489MOL0     C67350   0.736   2.798  10.354 -0.5157 -1.2053  0.2851
  489MOL0     C67351   0.853   2.719  10.343  0.4018  0.4648 -0.1808
  489MOL0     O67352   0.978   2.769  10.382  0.4765  0.4747  0.4699
  489MOL0     C67353   0.989   2.909  10.389  0.6079 -0.4591 -0.1703
  489MOL0     C67354   1.128   2.945  10.419 -0.7695 -0.1999 -0.0197
  489MOL0     C67355   1.146   3.079  10.488 -0.0892  0.1498 -0.2877
  489MOL0     C67356   1.202   3.174  10.395  0.0391  0.6860  0.5536
  489MOL0     C67357   1.136   3.191  10.246  0.3606 -0.1237  0.0962
  489MOL0     C67358   1.217   3.286  10.147  0.4951 -0.0302  0.4130
  489MOL0     C67359   1.219   3.439  10.185 -0.1715  0.8559 -0.0657
  489MOL0     C67360   1.324   3.524  10.101  0.6583 -0.7170 -0.1467
  489MOL0     N67361   1.305   3.675  10.101 -0.7128  0.4289  0.1652
  489MOL0     C67362   1.390   3.762  10.160 -0.6837  0.4920  0.2267
  489MOL0     C67363   1.373   3.884  10.112  0.3052  0.1327 -0.3983
  489MOL0     C67364   1.424   4.009  10.177  0.0269  0.2619  0.4351
  489MOL0     C67365   1.319   4.062  10.280 -0.5653  0.5596  0.4856
  489MOL0     C67366   1.184   4.107  10.209 -0.3700  0.1731  0.6617
  489MOL0     C67367   1.080   4.194  10.297 -0.1051  0.9800  0.9741
  489MOL0     O67368   1.123   4.336  10.293  0.1115 -0.5347  0.4389
  489MOL0     C67369   1.072   4.425  10.391 -0.5935  0.9949 -0.1410
  489MOL0     C67370   0.980   4.391  10.489  0.1540  0.2483 -0.2712
  489MOL0     C67371   0.912   4.495  10.565 -0.1715 -0.2603 -0.3284
  489MOL0     C67372   0.788   4.452  10.648  0.1010 -0.4512 -0.8967
  489MOL0     C67373   0.966   4.628  10.562  0.6246  0.2789  0.2843
  489MOL0     C67374   0.909   4.737  10.650  0.1505 -1.3508  0.2713
  489MOL0     O67375   0.947   4.855  10.606 -0.1000 -0.3713  0.1954
  489MOL0     C67376   0.916   4.964  10.696 -0.0473 -0.1670  0.1599
  489MOL0     C67377   0.982   4.990  10.821  0.0094 -0.1129 -0.5497
  489MOL0     C67378   0.941   5.104  10.896  0.1809 -0.0187 -0.0809
  489MOL0     C67379   0.829   5.180  10.864  0.1707 -0.5011 -0.5733
  489MOL0     O67380   0.791   5.288  10.945 -1.4476 -1.2092  1.1764
  489MOL0     C67381   0.806   5.409  10.868  0.4505  0.4203  0.1099
  489MOL0     C67382   0.803   5.529  10.962 -0.2719  0.1718 -1.1133
  489MOL0     C67383   0.667   5.539  11.040 -0.6942 -0.2217  0.3704
  489MOL0     C67384   0.660   5.654  11.141  0.3221 -0.3896 -0.9614
  489MOL0     C67385   0.529   5.681  11.215  0.8603 -0.0587 -0.0893
  489MOL0     C67386   0.539   5.789  11.323 -0.6997 -0.1762 -0.5016
  489MOL0     C67387   0.401   5.782  11.393 -0.1083 -0.1634 -0.1268
  489MOL0     C67388   0.404   5.879  11.512 -0.6331 -0.1640  0.0804
  489MOL0    Cl67389   0.243   5.858  11.600  0.2516 -0.1232 -0.3635
  489MOL0     C67390   0.752   5.147  10.751  0.3833  0.6038 -0.2937
  489MOL0     C67391   0.801   5.038  10.675 -0.6560  0.2722  0.5514
  489MOL0     O67392   0.833   4.718  10.745  0.2638 -0.1486  0.1450
  489MOL0     C67393   1.056   4.654  10.458 -0.2827  0.1864 -0.2329
  489MOL0     C67394   1.113   4.559  10.376  0.0038 -0.6060 -0.1493
  489MOL0     N67395   1.277   3.871  10.003 -0.3418  0.4654  0.5130
  489MOL0     N67396   1.235   3.749  10.011  0.7158 -0.9521 -0.0843
  489MOL0     C67397   0.860   2.595  10.281  0.2629 -0.0258 -0.7662
  489MOL0     C67398   0.740   2.557  10.221 -0.4428 -0.4616 -0.2130
  489MOL0     C67399   0.403   2.633   9.928 -0.0057 -1.0789 -0.3791
  489MOL0     C67400   0.333   2.726   9.845  0.4570  0.9411  0.6484
  489MOL0     C67401   0.241   2.674   9.758  0.3272 -0.3183  1.2765
  489MOL0     C67402   0.199   2.547   9.749 -0.0551 -0.0028 -0.7886
  489MOL0     O67403   0.098   2.518   9.662  0.5682  0.2585 -0.0961
  489MOL0     C67404   0.096   2.390   9.591 -0.2927 -0.2195  0.6353
  489MOL0     C67405  -0.043   2.327   9.618 -0.5540 -0.1523  0.4146
  489MOL0     C67406  -0.166   2.392   9.558  0.4574 -0.0156 -0.3110
  489MOL0     C67407  -0.244   2.490   9.656  0.1411  0.0383  0.2820
  489MOL0     C67408  -0.329   2.582   9.564 -0.0552  0.0047  0.0719
  489MOL0     C67409  -0.408   2.646   9.504 -0.3984 -0.5502 -0.3923
  489MOL0     C67410   0.250   2.460   9.847 -1.3057 -0.5822 -1.1747
  489MOL0     C67411   0.356   2.496   9.930 -0.4716 -0.9525 -0.1634
  489MOL0     C67412   0.397   2.379  10.004 -0.1436  0.6742 -1.1266
  489MOL0     H67413   0.538   2.824  10.296  0.2017  0.2129  0.3527
  489MOL0     H67414   0.737   2.898  10.398 -2.7018  0.5699 -3.2745
  489MOL0     H67415   0.925   2.946  10.470 -1.1801 -4.1471  0.2538
  489MOL0     H67416   0.960   2.942  10.289 -1.3084  0.4654  0.6432
  489MOL0     H67417   1.178   2.873  10.484  1.1975  0.5736 -0.6063
  489MOL0     H67418   1.187   2.947  10.327 -3.1616 -0.7253 -1.6415
  489MOL0     H67419   1.057   3.124  10.532  0.0268 -0.9963  1.1855
  489MOL0     H67420   1.211   3.074  10.575 -0.2936  3.1220  0.1259
  489MOL0     H67421   1.222   3.274  10.434 -1.5243  3.0425 -3.9074
  489MOL0     H67422   1.293   3.124  10.360 -0.4490  2.8287 -4.7017
  489MOL0     H67423   1.038   3.236  10.261  0.2207  0.0537 -1.2802
  489MOL0     H67424   1.127   3.091  10.203 -0.7912 -0.2803  0.6772
  489MOL0     H67425   1.318   3.245  10.151  0.5604  0.1948  1.2460
  489MOL0     H67426   1.182   3.278  10.044  1.7415  2.0345 -0.2108
  489MOL0     H67427   1.262   3.455  10.284  1.3031 -1.9509 -0.1510
  489MOL0     H67428   1.117   3.474  10.166 -0.9064 -1.4450 -0.8194
  489MOL0     H67429   1.420   3.494  10.143  1.4504  1.0756 -0.5788
  489MOL0     H67430   1.330   3.494   9.996 -1.7673 -0.6234 -0.3843
  489MOL0     H67431   1.461   3.745  10.241  1.9279 -2.9155 -2.4430
  489MOL0     H67432   1.449   4.087  10.104 -0.7687  0.0380 -0.0943
  489MOL0     H67433   1.512   3.979  10.234  0.1596 -0.6226 -0.2087
  489MOL0     H67434   1.304   3.979  10.350 -4.6380  0.2772 -0.4414
  489MOL0     H67435   1.374   4.138  10.336  1.6229 -0.9081  0.4513
  489MOL0     H67436   1.205   4.154  10.112 -0.6924  1.1716  1.0560
  489MOL0     H67437   1.148   4.009  10.177  2.1575 -0.8203  0.6093
  489MOL0     H67438   0.981   4.198  10.251 -0.8416  1.0656  2.5017
  489MOL0     H67439   1.078   4.142  10.393  0.8982 -0.3640  0.2979
  489MOL0     H67440   0.940   4.291  10.494  0.6997 -0.1161 -2.2130
  489MOL0     H67441   0.701   4.517  10.639  0.5613  0.3112  0.0491
  489MOL0     H67442   0.816   4.451  10.754 -3.4272 -0.0100  0.1476
  489MOL0     H67443   0.762   4.348  10.627  2.0262 -1.2460  0.2752
  489MOL0     H67444   1.067   4.937  10.863  0.8223  1.6553  0.1332
  489MOL0     H67445   1.000   5.110  10.988 -0.5489 -2.0404  0.5726
  489MOL0     H67446   0.903   5.409  10.817 -2.0145  0.4163 -5.1509
  489MOL0     H67447   0.737   5.417  10.784  1.0892 -2.5868 -0.8156
  489MOL0     H67448   0.879   5.521  11.041 -3.0678 -0.8539  1.6934
  489MOL0     H67449   0.815   5.622  10.904  0.7035 -0.1578 -1.4459
  489MOL0     H67450   0.653   5.446  11.096  0.9583  0.7505  2.5096
  489MOL0     H67451   0.580   5.562  10.978 -1.7061  0.3134  1.9389
  489MOL0     H67452   0.703   5.746  11.100 -2.3819  1.1533 -0.5554
  489MOL0     H67453   0.721   5.622  11.227 -4.5140 -2.2520  2.2186
  489MOL0     H67454   0.453   5.723  11.148  1.3574  0.8939 -0.0729
  489MOL0     H67455   0.500   5.591  11.270 -2.8807  1.7506  1.2319
  489MOL0     H67456   0.571   5.883  11.276  4.8340 -2.5597 -2.3852
  489MOL0     H67457   0.618   5.753  11.391 -2.8352 -2.8111  0.7921
  489MOL0     H67458   0.370   5.688  11.439 -2.4414  1.2206  1.3340
  489MOL0     H67459   0.319   5.807  11.325 -0.5832 -0.1875  0.4225
  489MOL0     H67460   0.417   5.980  11.472  0.0484  0.6725  2.2716
  489MOL0     H67461   0.466   5.866  11.601 -3.6585 -0.7543  2.2743
  489MOL0     H67462   0.663   5.195  10.714 -0.3671 -1.0290 -0.7030
  489MOL0     H67463   0.746   5.005  10.588  1.3620 -0.0623 -0.6382
  489MOL0     H67464   1.086   4.758  10.450 -1.6355  0.6091 -0.0190
  489MOL0     H67465   1.193   4.596  10.312 -1.8059 -0.6620 -2.6133
  489MOL0     H67466   0.950   2.535  10.277 -0.2942 -0.7907 -2.9398
  489MOL0     H67467   0.737   2.473  10.152 -1.8241 -0.3821 -0.2899
  489MOL0     H67468   0.345   2.834   9.846  1.6311  0.9105  3.8616
  489MOL0     H67469   0.189   2.742   9.691  2.4439  1.7929  1.6298
  489MOL0     H67470   0.100   2.408   9.483 -0.0693 -1.2017  0.4753
  489MOL0     H67471   0.173   2.322   9.628  1.8157  0.4186 -2.2340
  489MOL0     H67472  -0.056   2.316   9.726  0.4570 -2.5558  0.3484
  489MOL0     H67473  -0.041   2.225   9.579 -1.7365  1.0696 -3.2859
  489MOL0     H67474  -0.138   2.437   9.463 -0.7107  0.9006 -0.2530
  489MOL0     H67475  -0.240   2.314   9.537  0.3281 -0.2851  1.0598
  489MOL0     H67476  -0.179   2.553   9.717 -1.7267  1.8165  0.5580
  489MOL0     H67477  -0.313   2.437   9.722 -0.3355  1.7798  1.2455
  489MOL0     H67478  -0.486   2.694   9.449 -1.8585 -0.9986  1.2212
  489MOL0     H67479   0.225   2.354   9.848  2.5761 -1.6573 -1.8684
  489MOL0     H67480   0.386   2.282   9.955  2.7319 -0.7064  0.6760
  489MOL0     H67481   0.499   2.385  10.041  0.6657 -1.0276 -2.9107
  489MOL0     H67482   0.337   2.382  10.095  3.2291 -2.4541  1.4641
  490MOL0     O67483   7.599   3.784   6.230  0.0955  0.0628 -0.3782
  490MOL0     C67484   7.593   3.672   6.182  0.4002 -0.1564  0.1080
  490MOL0     O67485   7.515   3.577   6.236  0.0914 -0.1441  0.5220
  490MOL0     C67486   7.449   3.582   6.353 -0.4582 -0.5428  0.6718
  490MOL0     C67487   7.345   3.489   6.363  0.5978  0.7498  0.0932
  490MOL0     C67488   7.270   3.472   6.480 -0.4525 -0.5164 -0.1213
  490MOL0     C67489   7.287   3.562   6.597 -0.9482 -0.1332  0.3001
  490MOL0     O67490   7.223   3.547   6.715  0.1542  0.3286  0.8630
  490MOL0     C67491   7.088   3.511   6.711  0.6833 -0.1909 -0.5659
  490MOL0     C67492   7.049   3.503   6.857 -0.1888  0.1941  0.0254
  490MOL0     C67493   7.012   3.638   6.923 -0.4829  0.5291 -0.4894
  490MOL0     C67494   6.966   3.627   7.069 -0.2695 -0.2095  0.0336
  490MOL0     C67495   6.960   3.762   7.136 -0.1262  0.0914 -0.6304
  490MOL0     C67496   6.916   3.755   7.280 -0.1322 -0.5554  0.6240
  490MOL0     C67497   6.944   3.871   7.379 -0.4001  0.0214 -0.0366
  490MOL0     C67498   6.861   3.849   7.504 -0.7171 -0.2493  0.6387
  490MOL0     N67499   6.924   3.787   7.615  0.5499 -0.3168  0.3044
  490MOL0     C67500   7.025   3.829   7.701  0.7050 -0.4485  0.9160
  490MOL0     C67501   7.041   3.728   7.787  0.7477 -1.1355 -0.2297
  490MOL0     C67502   7.125   3.716   7.912 -0.0835  0.6257 -1.1641
  490MOL0     C67503   7.227   3.613   7.900  1.1688  0.7531 -0.0059
  490MOL0     C67504   7.175   3.485   7.975 -0.0060  0.4814  0.4732
  490MOL0     C67505   7.264   3.359   7.940 -0.2369 -0.9315 -0.4174
  490MOL0     O67506   7.389   3.390   8.004 -0.6773  0.2666  0.0475
  490MOL0     C67507   7.492   3.305   7.962  0.3210  0.0160 -0.7200
  490MOL0     C67508   7.481   3.179   7.903  0.3754 -0.7562 -0.5675
  490MOL0     C67509   7.590   3.088   7.890 -0.0324 -0.9482 -0.1792
  490MOL0     C67510   7.564   2.955   7.824 -0.6506  0.1067 -0.4743
  490MOL0     C67511   7.715   3.129   7.948 -0.3653 -0.1590 -0.5031
  490MOL0     C67512   7.839   3.053   7.939 -0.5330 -0.4166  0.9850
  490MOL0     O67513   7.956   3.114   7.993  0.1948  0.7865  0.2884
  490MOL0     C67514   8.065   3.037   7.985  0.0990 -0.7482 -0.1262
  490MOL0     C67515   8.149   3.041   7.879  0.6750 -0.1641  0.3770
  490MOL0     C67516   8.263   2.969   7.875 -0.3341  0.8074  0.2207
  490MOL0     C67517   8.312   2.899   7.982  0.3566 -0.2098 -0.5543
  490MOL0     O67518   8.426   2.819   7.973 -0.4274 -0.2428 -0.1617
  490MOL0     C67519   8.549   2.884   7.934  0.9726  0.6489 -0.1639
  490MOL0     C67520   8.664   2.802   7.998 -0.6422 -0.4419  0.1668
  490MOL0     C67521   8.714   2.679   7.923  0.3464  0.2755  0.8501
  490MOL0     C67522   8.806   2.599   8.031  1.2239 -1.1039  0.8526
  490MOL0     C67523   8.842   2.455   7.985 -0.1869  0.7240  0.6987
  490MOL0     C67524   8.925   2.450   7.854 -0.1453  0.0369  0.6886
  490MOL0     C67525   8.990   2.324   7.813 -0.2083 -0.0454 -0.3273
  490MOL0     C67526   9.119   2.342   7.736 -0.4246 -0.6152 -0.2588
  490MOL0    Cl67527   9.181   2.183   7.699 -0.2220  0.0272 -0.1840
  490MOL0     C67528   8.234   2.895   8.101  0.6551  0.3963 -0.0147
  490MOL0     C67529   8.110   2.969   8.097  0.5078  0.5031 -0.5697
  490MOL0     O67530   7.844   2.933   7.901 -0.7602 -1.2334 -0.3436
  490MOL0     C67531   7.724   3.265   7.998 -0.1445  0.6021 -0.3569
  490MOL0     C67532   7.613   3.343   8.001  0.1994  0.5804 -0.6925
  490MOL0     N67533   6.942   3.633   7.758 -0.0934  0.2692  0.4617
  490MOL0     N67534   6.869   3.674   7.656  0.1475 -0.0452  0.1366
  490MOL0     C67535   7.404   3.635   6.588 -0.6217 -0.2780 -0.4416
  490MOL0     C67536   7.467   3.653   6.467  0.3320 -0.1018  0.2656
  490MOL0     C67537   7.662   3.632   6.050 -0.8929  0.0428 -0.5254
  490MOL0     C67538   7.660   3.495   6.011 -0.5529 -0.2434  0.0064
  490MOL0     C67539   7.721   3.457   5.889 -0.6952 -1.1802  1.0254
  490MOL0     C67540   7.795   3.554   5.818  0.7236  0.1550  0.2245
  490MOL0     O67541   7.858   3.532   5.702 -0.4804 -0.0434 -0.0406
  490MOL0     C67542   7.829   3.414   5.627 -0.0233  0.7094  0.5404
  490MOL0     C67543   7.877   3.434   5.484 -0.0120  0.1273 -0.9848
  490MOL0     C67544   8.026   3.413   5.467 -0.0598  1.0053 -0.1171
  490MOL0     C67545   8.051   3.388   5.321  0.2117 -0.3373 -0.8630
  490MOL0     C67546   7.993   3.489   5.228 -0.3843 -0.5680  0.0697
  490MOL0     C67547   7.969   3.574   5.146 -0.4737  0.5875  0.0345
  490MOL0     C67548   7.802   3.684   5.864  0.5557  0.6819  0.3885
  490MOL0     C67549   7.739   3.728   5.977  0.0321 -0.0534  0.3360
  490MOL0     C67550   7.785   3.871   6.022 -0.0282 -0.2792  0.2400
  490MOL0     H67551   7.330   3.424   6.277 -2.8951 -0.0422  1.1485
  490MOL0     H67552   7.200   3.390   6.489  2.2046 -2.8803  0.4363
  490MOL0     H67553   7.063   3.422   6.652 -2.2463  1.7988 -2.6025
  490MOL0     H67554   7.028   3.591   6.666  0.1395 -0.6390 -0.6539
  490MOL0     H67555   6.960   3.439   6.858  0.3928 -0.9151  4.5712
  490MOL0     H67556   7.122   3.452   6.922 -0.4378 -0.1905  0.0089
  490MOL0     H67557   7.096   3.707   6.910  2.1342 -1.6014  3.0337
  490MOL0     H67558   6.930   3.682   6.867 -3.0369 -1.6089  1.2890
  490MOL0     H67559   6.869   3.576   7.058  0.7898 -3.0136  2.4759
  490MOL0     H67560   7.027   3.562   7.131 -0.1145  1.1782  1.3798
  490MOL0     H67561   6.887   3.821   7.081  1.6581  4.4541  1.2691
  490MOL0     H67562   7.059   3.808   7.128  0.5218 -0.0887  4.0123
  490MOL0     H67563   6.809   3.734   7.273 -0.2901  0.7054 -4.4781
  490MOL0     H67564   6.967   3.667   7.319  2.8793  0.5311 -0.5751
  490MOL0     H67565   6.920   3.965   7.329  2.3708  0.1722 -1.2573
  490MOL0     H67566   7.050   3.885   7.405 -0.4429  1.3138 -0.5138
  490MOL0     H67567   6.820   3.945   7.538  1.0090 -0.3274  3.2261
  490MOL0     H67568   6.777   3.782   7.481 -1.8486  0.7821  1.6265
  490MOL0     H67569   7.074   3.925   7.689  1.3597 -0.7629  1.0030
  490MOL0     H67570   7.064   3.690   8.000 -1.8168  4.2243 -1.1401
  490MOL0     H67571   7.160   3.816   7.938  1.2082 -0.1375  0.1594
  490MOL0     H67572   7.253   3.589   7.796  0.6849 -0.4433  0.1278
  490MOL0     H67573   7.318   3.640   7.955  0.6375 -1.6017  2.2456
  490MOL0     H67574   7.180   3.481   8.084  2.5143  0.0681  0.3867
  490MOL0     H67575   7.076   3.468   7.930 -0.8205  3.1298  1.1088
  490MOL0     H67576   7.223   3.267   7.983 -0.9851 -0.0589  0.8099
  490MOL0     H67577   7.285   3.332   7.836  0.1381 -1.9502 -0.0811
  490MOL0     H67578   7.385   3.145   7.865  0.4969  0.9282 -2.5874
  490MOL0     H67579   7.638   2.934   7.746 -0.8094 -0.2840 -0.5200
  490MOL0     H67580   7.469   2.946   7.770 -1.0174 -2.6453  0.4944
  490MOL0     H67581   7.576   2.875   7.897 -0.1769 -1.5263 -2.2593
  490MOL0     H67582   8.135   3.103   7.791  0.6384  0.5493  0.8761
  490MOL0     H67583   8.323   2.953   7.786 -2.4248 -2.0082 -0.8176
  490MOL0     H67584   8.554   2.891   7.825 -2.9318  0.5762 -0.4731
  490MOL0     H67585   8.545   2.989   7.964  2.1107  1.1590 -1.6827
  490MOL0     H67586   8.754   2.863   8.007 -1.2817  1.3741 -3.6728
  490MOL0     H67587   8.629   2.782   8.100 -0.4238  0.1785  0.3673
  490MOL0     H67588   8.775   2.711   7.838  1.0866  1.7493  1.9033
  490MOL0     H67589   8.640   2.612   7.878  0.4905  3.2193 -4.4926
  490MOL0     H67590   8.743   2.595   8.120  1.1585 -0.0479  0.8621
  490MOL0     H67591   8.900   2.650   8.052  0.6371 -0.5898  2.3598
  490MOL0     H67592   8.887   2.417   8.077 -1.5856  0.8909  1.4772
  490MOL0     H67593   8.754   2.395   7.961  1.4090 -1.8575  0.9584
  490MOL0     H67594   9.010   2.516   7.876 -0.4809  0.2557  1.3451
  490MOL0     H67595   8.867   2.494   7.773  1.0657  0.9767  0.2970
  490MOL0     H67596   8.917   2.264   7.757 -2.0398  0.7684  1.0838
  490MOL0     H67597   9.013   2.257   7.897 -1.0190  0.4732  0.3269
  490MOL0     H67598   9.189   2.388   7.806 -0.8502 -0.0161 -0.2171
  490MOL0     H67599   9.111   2.397   7.641 -0.2811 -2.0481 -1.1293
  490MOL0     H67600   8.261   2.847   8.196 -0.0777 -0.4886 -0.2334
  490MOL0     H67601   8.046   2.979   8.185  1.5968 -0.3043  0.3456
  490MOL0     H67602   7.814   3.310   8.038 -1.0854  0.9247  1.4881
  490MOL0     H67603   7.633   3.436   8.054  2.3253 -0.7704  1.0624
  490MOL0     H67604   7.418   3.691   6.680 -6.2458 -0.7582  1.0333
  490MOL0     H67605   7.543   3.729   6.480 -0.0172  0.3540 -0.2944
  490MOL0     H67606   7.598   3.432   6.073  1.4444  0.4711  2.9031
  490MOL0     H67607   7.709   3.353   5.859 -3.7353 -0.4793 -0.5393
  490MOL0     H67608   7.858   3.321   5.676  2.1665  1.5976  1.0567
  490MOL0     H67609   7.721   3.400   5.622 -0.1218  1.7336 -3.1647
  490MOL0     H67610   7.870   3.537   5.448  1.6035  1.4738  2.1861
  490MOL0     H67611   7.818   3.372   5.416  0.2441 -0.0190 -1.0789
  490MOL0     H67612   8.080   3.506   5.489  1.4813 -0.1660  1.2789
  490MOL0     H67613   8.060   3.320   5.513 -1.2989 -0.6301 -2.3058
  490MOL0     H67614   8.017   3.289   5.288  2.3445 -1.1530 -0.7841
  490MOL0     H67615   8.160   3.392   5.306  0.5388  0.9263  1.4538
  490MOL0     H67616   7.941   3.646   5.072  1.3731  1.2979 -0.0373
  490MOL0     H67617   7.869   3.750   5.810 -1.1485  3.0946  1.0628
  490MOL0     H67618   7.860   3.915   5.955 -0.6126  0.8336  0.3007
  490MOL0     H67619   7.699   3.937   6.028  0.1864 -0.1107  1.5906
  490MOL0     H67620   7.826   3.863   6.123  2.8250 -1.3914 -0.9042
  491MOL0     O67621  10.320   9.905   1.178  0.4830  1.3856  0.0760
  491MOL0     C67622  10.339  10.000   1.105  0.0079 -0.8878  0.4092
  491MOL0     O67623  10.305  10.011   0.977 -0.9344  0.4471 -0.2542
  491MOL0     C67624  10.236   9.915   0.911 -0.7926  0.4318  0.1064
  491MOL0     C67625  10.300   9.827   0.835 -0.1475 -0.1191 -0.1297
  491MOL0     C67626  10.236   9.746   0.740  0.5142  0.0366  0.5654
  491MOL0     C67627  10.102   9.757   0.716  0.1424  0.4951  0.7330
  491MOL0     O67628  10.026   9.684   0.631 -0.3922 -0.1731  0.8299
  491MOL0     C67629  10.071   9.648   0.500 -0.6498  0.6457 -0.5269
  491MOL0     C67630   9.968   9.660   0.391  1.4359 -0.1201  1.2268
  491MOL0     C67631   9.891   9.792   0.372  0.5745 -0.3824 -1.4489
  491MOL0     C67632   9.762   9.809   0.460  0.3894  0.1168 -0.3723
  491MOL0     C67633   9.656   9.703   0.424  0.6578  0.1208 -0.4616
  491MOL0     C67634   9.550   9.762   0.335 -0.0975  0.5911  1.1475
  491MOL0     C67635   9.439   9.657   0.291  0.1592  0.4456 -0.3006
  491MOL0     C67636   9.366   9.709   0.162  0.0162  0.7554 -0.3188
  491MOL0     N67637   9.266   9.617   0.111 -0.2195  0.1462  0.4126
  491MOL0     C67638   9.259   9.562  -0.016 -0.6435  0.0645 -0.1025
  491MOL0     C67639   9.146   9.497  -0.020  0.1248  0.3320 -0.7106
  491MOL0     C67640   9.082   9.431  -0.138 -0.2585 -0.2479  0.1391
  491MOL0     C67641   9.046   9.283  -0.121 -0.4764  0.6728  0.1387
  491MOL0     C67642   9.152   9.185  -0.070  0.6795  0.4196  0.0651
  491MOL0     C67643   9.106   9.037  -0.084  0.8573  0.6543  0.2789
  491MOL0     O67644   9.206   8.956  -0.019 -0.0035  0.5014  0.5381
  491MOL0     C67645   9.173   8.900   0.103  0.4414 -0.9025 -0.1030
  491MOL0     C67646   9.271   8.870   0.199  0.8238  0.0318  0.1974
  491MOL0     C67647   9.251   8.823   0.328 -0.9260  0.2938  0.9350
  491MOL0     C67648   9.371   8.795   0.407 -0.6673  0.1199  0.2747
  491MOL0     C67649   9.122   8.807   0.377  0.2597  0.3668 -0.4035
  491MOL0     C67650   9.076   8.752   0.511  0.1699 -0.6293 -0.2005
  491MOL0     O67651   8.949   8.788   0.555  0.5894  0.0536  0.3195
  491MOL0     C67652   8.902   8.758   0.679  0.0086  0.0282 -0.5061
  491MOL0     C67653   8.762   8.750   0.684  0.6235  0.5833 -0.1681
  491MOL0     C67654   8.700   8.724   0.800 -0.0062 -0.0009 -0.4464
  491MOL0     C67655   8.770   8.696   0.915  0.1891 -0.0888 -0.3920
  491MOL0     O67656   8.702   8.690   1.037 -0.6600  0.9027  0.8803
  491MOL0     C67657   8.783   8.703   1.150 -0.5496  0.4823 -0.2052
  491MOL0     C67658   8.709   8.679   1.280 -0.0253 -0.0552  0.2714
  491MOL0     C67659   8.785   8.675   1.411 -0.7283 -0.4825  0.4622
  491MOL0     C67660   8.699   8.630   1.526  0.2884  0.8871  0.1770
  491MOL0     C67661   8.564   8.692   1.561  0.2850  0.4707  0.0828
  491MOL0     C67662   8.489   8.600   1.658  1.0078  1.0636  0.5033
  491MOL0     C67663   8.347   8.646   1.678 -0.0490  0.6861  0.3233
  491MOL0     C67664   8.247   8.543   1.725 -0.1891 -1.0077  0.0046
  491MOL0    Cl67665   8.219   8.410   1.613  0.3370 -0.1252  0.4106
  491MOL0     C67666   8.911   8.699   0.909 -0.0027 -0.5593  0.2393
  491MOL0     C67667   8.974   8.730   0.791 -0.0597  0.3620  0.6066
  491MOL0     O67668   9.155   8.668   0.553 -0.3122  0.0076  0.2018
  491MOL0     C67669   9.021   8.830   0.286  0.1047 -0.0673  0.3610
  491MOL0     C67670   9.044   8.872   0.151 -0.1562  1.1361 -0.4799
  491MOL0     N67671   9.092   9.502   0.105 -0.5379  0.0423 -0.5664
  491MOL0     N67672   9.167   9.567   0.188 -0.1141 -0.0508  0.2691
  491MOL0     C67673  10.034   9.839   0.803  0.2189  0.0571  0.5443
  491MOL0     C67674  10.097   9.918   0.896  0.2376 -1.5779  0.9577
  491MOL0     C67675  10.433  10.107   1.148  0.8529 -0.6295 -0.0508
  491MOL0     C67676  10.407  10.244   1.123 -0.0467  0.2400 -0.2106
  491MOL0     C67677  10.494  10.354   1.162  0.0703  0.4417  0.2724
  491MOL0     C67678  10.613  10.327   1.227 -0.0292  0.1599  0.4392
  491MOL0     O67679  10.691  10.432   1.265  0.3820 -0.0930  0.3661
  491MOL0     C67680  10.822  10.405   1.307 -0.3891 -0.2663 -0.4119
  491MOL0     C67681  10.889  10.539   1.321  0.3723  0.5163  0.2650
  491MOL0     C67682  10.935  10.589   1.183  0.4641 -0.6704 -0.0526
  491MOL0     C67683  10.875  10.730   1.147 -0.3014 -0.6545  0.0816
  491MOL0     C67684  10.734  10.738   1.162 -0.1416  1.2333 -0.3814
  491MOL0     C67685  10.617  10.714   1.191 -0.1188 -0.5651  0.6498
  491MOL0     C67686  10.637  10.188   1.256 -0.3189  0.7372  0.4372
  491MOL0     C67687  10.549  10.081   1.225  0.5242  0.2032  0.0388
  491MOL0     C67688  10.599   9.944   1.245  0.1289  0.1883 -0.1241
  491MOL0     H67689  10.407   9.841   0.842 -0.1842  1.6252 -2.1381
  491MOL0     H67690  10.299   9.671   0.693 -2.2952 -0.7834 -2.2809
  491MOL0     H67691  10.107   9.545   0.498 -0.4305  0.7278 -2.0943
  491MOL0     H67692  10.162   9.699   0.466  1.7683 -2.6659  0.4026
  491MOL0     H67693  10.011   9.656   0.291 -0.4179  2.5792  0.1959
  491MOL0     H67694   9.898   9.575   0.397 -0.5817  1.5311  2.6294
  491MOL0     H67695   9.954   9.878   0.395  1.5623 -1.2758 -0.6746
  491MOL0     H67696   9.848   9.789   0.272 -0.1598 -0.5286 -1.1348
  491MOL0     H67697   9.786   9.803   0.567  2.5706 -2.0611 -0.9265
  491MOL0     H67698   9.733   9.913   0.439 -2.3548 -0.3741  0.5680
  491MOL0     H67699   9.601   9.674   0.515 -0.9295  2.0396 -0.7387
  491MOL0     H67700   9.699   9.613   0.379  3.8125 -0.6165  3.4537
  491MOL0     H67701   9.492   9.835   0.393 -2.0925  0.0633 -0.0944
  491MOL0     H67702   9.580   9.811   0.242 -0.1292 -1.3188  0.0749
  491MOL0     H67703   9.372   9.647   0.377  0.6327 -2.5642 -0.1974
  491MOL0     H67704   9.487   9.563   0.262  0.4041  0.7536 -0.9239
  491MOL0     H67705   9.315   9.806   0.168 -2.5949 -0.5435  0.1526
  491MOL0     H67706   9.439   9.730   0.083  0.5727  1.4048  0.3527
  491MOL0     H67707   9.315   9.586  -0.106  1.9278 -1.9359  0.8566
  491MOL0     H67708   9.158   9.429  -0.216  0.4826  0.5524  0.8185
  491MOL0     H67709   8.988   9.483  -0.156 -0.0627  0.2345  0.4818
  491MOL0     H67710   8.966   9.276  -0.046  0.5965  0.8023  1.3350
  491MOL0     H67711   9.010   9.245  -0.217  0.4699  1.0054 -0.3487
  491MOL0     H67712   9.245   9.203  -0.124  1.5255 -0.6693  1.1113
  491MOL0     H67713   9.174   9.213   0.033  0.9804  2.9254 -0.6289
  491MOL0     H67714   9.004   9.019  -0.049  0.8721  0.4148  0.1998
  491MOL0     H67715   9.092   9.009  -0.189 -3.1748  1.0942  0.5317
  491MOL0     H67716   9.371   8.877   0.157  0.2613 -0.9445 -1.3907
  491MOL0     H67717   9.379   8.689   0.436 -2.5755 -0.2539 -0.4094
  491MOL0     H67718   9.371   8.855   0.498  0.5428 -1.8914  1.6969
  491MOL0     H67719   9.458   8.824   0.347 -1.3294  0.8435 -0.3496
  491MOL0     H67720   8.705   8.768   0.594 -0.7515  0.6014  0.6678
  491MOL0     H67721   8.593   8.741   0.807  0.0177  0.2834 -0.7843
  491MOL0     H67722   8.865   8.631   1.154  1.1563  2.1441 -2.7374
  491MOL0     H67723   8.827   8.802   1.160 -0.2772  0.5595 -1.9468
  491MOL0     H67724   8.623   8.746   1.295 -0.3006 -0.3539  0.0423
  491MOL0     H67725   8.672   8.578   1.263  1.4149 -0.2424 -2.0799
  491MOL0     H67726   8.821   8.777   1.428 -0.0363 -0.4179 -1.1824
  491MOL0     H67727   8.865   8.601   1.407  1.4836  1.8438 -1.5409
  491MOL0     H67728   8.756   8.624   1.620 -2.0741  1.3648  1.7309
  491MOL0     H67729   8.682   8.531   1.482  4.7142 -0.0191  0.0152
  491MOL0     H67730   8.580   8.793   1.599  0.3514  0.6198 -0.3425
  491MOL0     H67731   8.504   8.714   1.472 -3.9256  0.0639  2.5299
  491MOL0     H67732   8.550   8.592   1.749 -0.1139  2.4579  1.4241
  491MOL0     H67733   8.489   8.499   1.618 -4.0140  0.3204  1.7531
  491MOL0     H67734   8.312   8.692   1.585  1.3530  1.4746  0.1661
  491MOL0     H67735   8.357   8.728   1.749  0.9743  0.7979  0.0690
  491MOL0     H67736   8.152   8.596   1.731  0.2286 -0.2939  0.3357
  491MOL0     H67737   8.273   8.504   1.824 -0.9918  2.0448  1.5395
  491MOL0     H67738   8.977   8.692   0.995 -0.7883  0.0628  0.9142
  491MOL0     H67739   9.083   8.728   0.793 -0.0481  1.1285  1.6291
  491MOL0     H67740   8.917   8.812   0.311  0.7203 -1.5207  2.1169
  491MOL0     H67741   8.959   8.875   0.083 -0.2717  1.1739 -0.3316
  491MOL0     H67742   9.926   9.851   0.796  0.0865 -1.8418 -2.6300
  491MOL0     H67743  10.036   9.980   0.961  0.1977  0.2541 -0.7296
  491MOL0     H67744  10.321  10.268   1.062 -1.2099 -4.2812 -0.6795
  491MOL0     H67745  10.472  10.455   1.128  0.2386  1.3677  2.6930
  491MOL0     H67746  10.814  10.370   1.411 -2.3859  0.8220 -0.1398
  491MOL0     H67747  10.877  10.334   1.246 -0.2986  0.0370 -0.6807
  491MOL0     H67748  10.970  10.520   1.391  1.0353 -1.3040 -0.9350
  491MOL0     H67749  10.828  10.616   1.371  2.3539  0.9907  2.0862
  491MOL0     H67750  11.043  10.595   1.167  0.5085 -1.5307 -0.1210
  491MOL0     H67751  10.892  10.526   1.105 -2.4089  3.0415 -1.7900
  491MOL0     H67752  10.891  10.743   1.039  3.4549  0.5129  0.6399
  491MOL0     H67753  10.927  10.814   1.194 -0.6818  0.7897 -1.9421
  491MOL0     H67754  10.514  10.690   1.207 -0.8157  1.6590 -0.1341
  491MOL0     H67755  10.727  10.146   1.299 -0.4587  0.9729  0.9774
  491MOL0     H67756  10.668   9.934   1.329 -2.0048 -3.0620  1.4639
  491MOL0     H67757  10.522   9.880   1.288 -1.5076  2.4299  0.4880
  491MOL0     H67758  10.635   9.878   1.166  1.5839 -1.0675  1.5108
  492MOL0     O67759   8.964   3.684   3.791  1.0488 -1.0487 -0.1639
  492MOL0     C67760   9.050   3.621   3.736 -0.6816 -0.6208  1.1391
  492MOL0     O67761   9.154   3.670   3.654  0.3339 -0.4780  0.9789
  492MOL0     C67762   9.163   3.815   3.644 -0.6197  0.2426  0.2975
  492MOL0     C67763   9.139   3.874   3.518 -1.2552 -0.2182  1.0717
  492MOL0     C67764   9.184   4.013   3.487  0.6067  0.7800 -0.6763
  492MOL0     C67765   9.240   4.084   3.582  0.2154 -0.2591 -0.4142
  492MOL0     O67766   9.271   4.210   3.550  1.0100  0.3299 -0.4058
  492MOL0     C67767   9.404   4.256   3.583  0.3585 -0.1601 -0.7920
  492MOL0     C67768   9.413   4.393   3.503  0.0276  0.4776 -0.3319
  492MOL0     C67769   9.321   4.495   3.574 -0.1479  0.5348 -0.3161
  492MOL0     C67770   9.328   4.636   3.510 -0.3834 -0.8160 -1.1127
  492MOL0     C67771   9.437   4.724   3.571  0.6281 -0.0102  0.2252
  492MOL0     C67772   9.408   4.768   3.711 -0.1868  0.2767  0.4363
  492MOL0     C67773   9.528   4.817   3.790 -0.5638 -0.4191 -1.0053
  492MOL0     C67774   9.614   4.939   3.741 -0.2421 -0.4905 -0.2094
  492MOL0     N67775   9.546   5.060   3.811  0.0169  0.8839 -1.1191
  492MOL0     C67776   9.504   5.181   3.757 -0.4892  0.5932  0.6632
  492MOL0     C67777   9.507   5.267   3.854 -0.1893 -0.3048 -0.9094
  492MOL0     C67778   9.476   5.410   3.825 -0.4802 -0.2143 -0.6266
  492MOL0     C67779   9.587   5.502   3.826 -0.4759  1.1362 -0.2498
  492MOL0     C67780   9.536   5.639   3.868  0.0141 -0.0308 -0.3805
  492MOL0     C67781   9.611   5.744   3.791 -1.0058  0.1099  0.5186
  492MOL0     O67782   9.606   5.724   3.645 -1.0960  0.2305 -0.4945
  492MOL0     C67783   9.679   5.814   3.566 -1.0995  0.0152 -0.3959
  492MOL0     C67784   9.778   5.911   3.617  0.2584 -0.0027 -1.3225
  492MOL0     C67785   9.855   5.993   3.538  0.6611 -0.6374  0.2910
  492MOL0     C67786   9.941   6.091   3.612  0.0253 -0.3083  0.4268
  492MOL0     C67787   9.835   5.990   3.393 -0.1206  0.4339 -0.4832
  492MOL0     C67788   9.872   6.098   3.303 -0.3672  0.3869 -0.8910
  492MOL0     O67789   9.844   6.069   3.170  0.6808 -0.1386 -0.1466
  492MOL0     C67790   9.860   6.169   3.084  0.0346 -0.6560 -0.3711
  492MOL0     C67791   9.961   6.157   2.992  0.0577 -0.5960  0.4798
  492MOL0     C67792   9.973   6.265   2.903  0.1124 -0.9006  0.6437
  492MOL0     C67793   9.897   6.377   2.913  0.2001  0.2355 -0.0121
  492MOL0     O67794   9.918   6.474   2.815 -0.9232  0.1325 -0.1808
  492MOL0     C67795   9.877   6.607   2.833 -0.9236 -0.2346  0.1856
  492MOL0     C67796   9.762   6.641   2.738 -0.4287  1.1847  1.0686
  492MOL0     C67797   9.728   6.789   2.762  0.2009  0.6149 -0.3008
  492MOL0     C67798   9.627   6.844   2.665 -1.3494 -0.5199 -0.0953
  492MOL0     C67799   9.622   7.000   2.670 -0.8346 -0.0639 -0.2477
  492MOL0     C67800   9.611   7.070   2.805 -0.1438  0.4777  0.7705
  492MOL0     C67801   9.504   7.000   2.889 -1.0031  0.3143  0.9500
  492MOL0     C67802   9.405   7.116   2.942 -0.5178  0.8467 -0.3758
  492MOL0    Cl67803   9.297   7.041   3.061  0.0265 -0.0188 -0.3237
  492MOL0     C67804   9.799   6.391   3.012 -0.5095  0.8618 -0.1319
  492MOL0     C67805   9.774   6.284   3.093 -0.1062  0.1796 -0.3927
  492MOL0     O67806   9.940   6.195   3.348  0.6176  0.0304 -0.0456
  492MOL0     C67807   9.742   5.893   3.351  0.6921 -0.4942 -0.3452
  492MOL0     C67808   9.668   5.803   3.432 -0.2310 -0.0243  0.0745
  492MOL0     N67809   9.551   5.200   3.973  0.6192 -1.3487 -0.5082
  492MOL0     N67810   9.565   5.081   3.939  0.0775  0.5385 -0.6118
  492MOL0     C67811   9.247   4.033   3.720 -0.4815  0.2752  0.3855
  492MOL0     C67812   9.217   3.897   3.745 -0.7180  0.0701 -0.5678
  492MOL0     C67813   9.042   3.477   3.749  0.3562  1.0443 -0.0589
  492MOL0     C67814   9.111   3.385   3.665 -0.3061 -0.6449  0.1469
  492MOL0     C67815   9.094   3.243   3.668 -0.3559 -0.0042 -1.1577
  492MOL0     C67816   9.015   3.188   3.764  0.2016  1.1527 -0.2827
  492MOL0     O67817   8.985   3.052   3.776  0.9280  0.0546  0.5484
  492MOL0     C67818   9.042   2.959   3.677  0.0035 -0.2941  0.4840
  492MOL0     C67819   8.949   2.834   3.679 -0.8522  0.7327 -1.0556
  492MOL0     C67820   8.965   2.714   3.772 -0.2719 -0.0149 -0.1745
  492MOL0     C67821   8.965   2.770   3.923  0.7001 -0.0522 -0.1148
  492MOL0     C67822   8.983   2.660   4.014 -0.9667  1.2305 -0.2284
  492MOL0     C67823   9.001   2.566   4.085 -0.6414  0.2435  0.0337
  492MOL0     C67824   8.952   3.274   3.856 -0.8495  0.5260  0.1180
  492MOL0     C67825   8.962   3.411   3.848 -0.5133 -0.1582 -0.2791
  492MOL0     C67826   8.887   3.481   3.957 -0.3000  0.5298  0.1176
  492MOL0     H67827   9.115   3.799   3.442  4.1323 -2.0968  0.7886
  492MOL0     H67828   9.174   4.052   3.386  0.2615  1.5206 -0.3639
  492MOL0     H67829   9.481   4.189   3.543  0.9939  1.6518 -2.8425
  492MOL0     H67830   9.422   4.269   3.690  0.1345  0.0239 -0.7746
  492MOL0     H67831   9.508   4.442   3.527 -0.3696  0.9125  0.3685
  492MOL0     H67832   9.413   4.375   3.395  1.4436  1.0817 -0.4515
  492MOL0     H67833   9.221   4.456   3.555 -1.0600  1.7205  1.7365
  492MOL0     H67834   9.334   4.486   3.682 -0.3835 -0.2971 -0.3541
  492MOL0     H67835   9.341   4.638   3.401  1.1421 -0.8694 -0.9537
  492MOL0     H67836   9.236   4.692   3.529 -0.6618 -1.9665  1.2853
  492MOL0     H67837   9.436   4.810   3.504 -2.9960 -0.7761 -0.9188
  492MOL0     H67838   9.530   4.669   3.554  0.4608 -1.0900  2.3990
  492MOL0     H67839   9.335   4.850   3.704 -3.6364 -2.0316  4.8519
  492MOL0     H67840   9.363   4.686   3.767  3.0699 -0.9425  1.4376
  492MOL0     H67841   9.601   4.737   3.807 -0.9317 -0.0050  4.5605
  492MOL0     H67842   9.494   4.848   3.890 -0.8527 -1.9471 -0.6047
  492MOL0     H67843   9.715   4.938   3.783 -1.0776 -2.8660  2.0661
  492MOL0     H67844   9.630   4.952   3.633  2.0981  0.2106  0.1610
  492MOL0     H67845   9.477   5.200   3.653  0.7869  2.3157  0.6068
  492MOL0     H67846   9.415   5.442   3.910 -1.5677 -0.3941 -1.3146
  492MOL0     H67847   9.420   5.422   3.732 -0.3646 -2.0496 -0.9740
  492MOL0     H67848   9.652   5.477   3.910  0.3295  2.3424 -0.4745
  492MOL0     H67849   9.649   5.494   3.736  0.1022 -1.1648  0.2877
  492MOL0     H67850   9.432   5.639   3.833 -0.2762  2.8313  0.2626
  492MOL0     H67851   9.541   5.662   3.975  0.9532 -0.1950 -0.3811
  492MOL0     H67852   9.565   5.842   3.804  0.4244  1.0080 -0.9492
  492MOL0     H67853   9.709   5.745   3.840 -0.9508  0.1787  0.4061
  492MOL0     H67854   9.791   5.920   3.724 -2.7277 -2.7638 -0.5703
  492MOL0     H67855   9.889   6.186   3.629 -0.3045 -0.4024 -0.0053
  492MOL0     H67856  10.029   6.112   3.550 -0.7927 -1.2227 -1.1334
  492MOL0     H67857   9.988   6.040   3.696  0.3716  0.2271  0.5623
  492MOL0     H67858  10.021   6.067   2.979 -1.4985 -1.7638  1.1672
  492MOL0     H67859  10.032   6.263   2.813 -0.1421 -0.5463  0.4664
  492MOL0     H67860   9.835   6.625   2.933  0.6045 -2.4773  1.3151
  492MOL0     H67861   9.961   6.674   2.814  2.3993 -4.5997 -2.3089
  492MOL0     H67862   9.796   6.617   2.637  2.7336 -3.0216  2.8322
  492MOL0     H67863   9.677   6.574   2.755  1.3268 -0.9843  1.6972
  492MOL0     H67864   9.819   6.850   2.760  0.1925  0.8020  2.2377
  492MOL0     H67865   9.701   6.794   2.868 -0.0015 -1.0348 -0.2436
  492MOL0     H67866   9.524   6.810   2.682 -1.6819  0.5458  0.0900
  492MOL0     H67867   9.645   6.810   2.563 -1.4396  0.9239 -0.6035
  492MOL0     H67868   9.719   7.026   2.626 -1.1767  1.3243 -0.2188
  492MOL0     H67869   9.550   7.044   2.601  0.6382  1.8502 -0.6353
  492MOL0     H67870   9.585   7.174   2.785 -1.7858 -0.4627 -2.6153
  492MOL0     H67871   9.701   7.078   2.868 -1.6713  2.7105  2.8499
  492MOL0     H67872   9.559   6.947   2.967 -0.9568 -0.8929  0.1163
  492MOL0     H67873   9.441   6.935   2.827 -0.4017 -0.3188  0.9984
  492MOL0     H67874   9.351   7.161   2.858  2.5297  4.3312 -0.7363
  492MOL0     H67875   9.455   7.198   2.993  2.0121  1.0756 -2.9753
  492MOL0     H67876   9.747   6.486   3.022  2.3122  2.5576 -0.3094
  492MOL0     H67877   9.696   6.309   3.164  0.6872 -0.8262  0.8833
  492MOL0     H67878   9.715   5.885   3.246  1.3625 -2.4917 -0.4080
  492MOL0     H67879   9.597   5.739   3.381 -1.4586  2.7988 -2.0728
  492MOL0     H67880   9.286   4.097   3.799  1.2133  1.5748 -1.4021
  492MOL0     H67881   9.248   3.851   3.838  2.3789  1.9328 -0.5398
  492MOL0     H67882   9.177   3.426   3.589 -1.8624 -0.5206 -1.1775
  492MOL0     H67883   9.152   3.175   3.606 -0.2934 -1.0149 -0.0463
  492MOL0     H67884   9.033   3.011   3.582 -1.3933  0.9284  1.2421
  492MOL0     H67885   9.146   2.929   3.694  0.2525 -0.0797 -0.6061
  492MOL0     H67886   8.960   2.782   3.583 -3.9694 -1.6239 -0.2794
  492MOL0     H67887   8.844   2.860   3.692 -1.1030 -1.5911  2.7905
  492MOL0     H67888   8.870   2.662   3.756 -0.2243  0.1920 -1.1731
  492MOL0     H67889   9.057   2.660   3.751 -0.8855 -2.0699  1.9701
  492MOL0     H67890   8.882   2.835   3.950 -0.5458 -0.9415 -1.6504
  492MOL0     H67891   9.051   2.835   3.941  1.0595 -0.5838  0.1226
  492MOL0     H67892   9.024   2.492   4.160 -2.1524 -1.3199 -0.9704
  492MOL0     H67893   8.887   3.225   3.929 -1.7278  1.0721 -0.2749
  492MOL0     H67894   8.958   3.538   4.018  1.4908 -1.8267  0.4088
  492MOL0     H67895   8.817   3.547   3.906  1.8361  1.2765 -2.0191
  492MOL0     H67896   8.832   3.411   4.022 -1.5318  0.3667 -1.0573
  493MOL0     O67897   5.006   4.399   2.169 -0.0026 -0.0677  0.5804
  493MOL0     C67898   4.927   4.378   2.261  0.6623  0.4939  0.2164
  493MOL0     O67899   4.826   4.285   2.263 -0.5686 -0.9734  0.2742
  493MOL0     C67900   4.832   4.189   2.173 -0.5820  0.2311  0.2417
  493MOL0     C67901   4.751   4.181   2.058  0.2342  0.1356  0.2747
  493MOL0     C67902   4.768   4.090   1.959  0.1319  0.7315  0.4708
  493MOL0     C67903   4.882   4.007   1.967 -0.0190  0.4478  0.4605
  493MOL0     O67904   4.901   3.928   1.854 -0.7079  0.8880  0.0948
  493MOL0     C67905   5.047   3.923   1.822 -0.2594 -0.0755  0.7579
  493MOL0     C67906   5.072   3.848   1.687  0.6792 -0.2759 -0.2685
  493MOL0     C67907   5.212   3.847   1.627 -0.4907 -0.0578  0.0554
  493MOL0     C67908   5.323   3.849   1.736 -0.3596 -0.1714 -0.1830
  493MOL0     C67909   5.454   3.805   1.677  0.1562 -0.2289  0.1740
  493MOL0     C67910   5.561   3.747   1.783 -0.2692  0.2271  1.1107
  493MOL0     C67911   5.703   3.762   1.733  0.0601 -0.0492 -0.4977
  493MOL0     C67912   5.754   3.631   1.681  0.0214 -0.5575 -0.4756
  493MOL0     N67913   5.846   3.631   1.557 -0.4101 -0.3314 -0.1904
  493MOL0     C67914   5.988   3.623   1.562  0.6991 -0.0904 -0.1578
  493MOL0     C67915   6.026   3.574   1.448 -0.0856 -0.4223 -0.4279
  493MOL0     C67916   6.168   3.546   1.415 -1.1225  1.2191  0.0224
  493MOL0     C67917   6.224   3.418   1.462 -1.6616  0.1407  0.4289
  493MOL0     C67918   6.180   3.301   1.379 -0.0141  0.3508 -0.0508
  493MOL0     C67919   6.042   3.258   1.400  0.0861 -0.0639  0.1223
  493MOL0     O67920   6.045   3.114   1.401  0.3213 -0.0187 -0.0261
  493MOL0     C67921   6.008   3.059   1.286  0.0202  0.0443  0.0930
  493MOL0     C67922   5.874   3.014   1.266  0.4653  0.5390 -0.2512
  493MOL0     C67923   5.826   2.953   1.154 -0.3380 -0.8329  0.6025
  493MOL0     C67924   5.682   2.926   1.157 -0.4751  0.6676  0.1410
  493MOL0     C67925   5.914   2.945   1.038 -0.2199 -0.6909 -0.9150
  493MOL0     C67926   5.865   2.914   0.903 -0.1176  0.5111 -0.2182
  493MOL0     O67927   5.748   2.969   0.864  0.3162  0.0275  0.1226
  493MOL0     C67928   5.717   2.962   0.727  0.7276  0.1302 -0.3650
  493MOL0     C67929   5.669   3.068   0.652 -0.9123 -0.1070 -0.4800
  493MOL0     C67930   5.602   3.043   0.527 -0.3553 -0.3393  0.0378
  493MOL0     C67931   5.610   2.919   0.465 -0.1724  0.0745  0.2426
  493MOL0     O67932   5.565   2.871   0.337  0.0244  0.3491  0.0005
  493MOL0     C67933   5.493   2.966   0.257  0.4984  0.5455  0.1213
  493MOL0     C67934   5.426   2.901   0.145 -0.0557 -0.1556  1.1945
  493MOL0     C67935   5.317   2.808   0.186 -0.0457 -0.0578  0.5291
  493MOL0     C67936   5.234   2.859   0.293  0.0721  0.0668 -1.3393
  493MOL0     C67937   5.130   2.757   0.326 -0.1317  0.2478  0.4641
  493MOL0     C67938   5.027   2.813   0.424  0.5774 -0.0068 -0.2160
  493MOL0     C67939   4.909   2.713   0.456 -0.2230 -0.2507  0.3993
  493MOL0     C67940   4.794   2.770   0.534  0.2007 -0.7823 -0.5228
  493MOL0    Cl67941   4.813   2.804   0.709  0.2038 -0.0722 -0.1500
  493MOL0     C67942   5.662   2.820   0.541 -0.5283  1.3701  0.5056
  493MOL0     C67943   5.705   2.829   0.668 -0.3001  0.1127  0.1876
  493MOL0     O67944   5.945   2.855   0.828  0.2740 -0.1347 -1.0360
  493MOL0     C67945   6.047   2.982   1.052  0.2119 -0.8577 -0.9549
  493MOL0     C67946   6.095   3.034   1.169 -0.9817  0.1360  0.4513
  493MOL0     N67947   5.910   3.560   1.374  0.3535  0.2859  0.4038
  493MOL0     N67948   5.801   3.605   1.434 -1.1902  0.7303  0.3980
  493MOL0     C67949   4.969   4.014   2.079 -0.9078 -0.0333 -0.6680
  493MOL0     C67950   4.946   4.100   2.182  0.7835  0.4245  1.2811
  493MOL0     C67951   4.930   4.476   2.372  0.0500 -0.1413  0.0576
  493MOL0     C67952   4.813   4.533   2.438 -0.5528  0.4011 -0.1997
  493MOL0     C67953   4.813   4.626   2.542  0.3025  0.4232 -0.3116
  493MOL0     C67954   4.935   4.647   2.602  0.8705  0.1917 -0.8492
  493MOL0     O67955   4.957   4.727   2.715 -0.5879 -0.2033 -0.3440
  493MOL0     C67956   4.850   4.807   2.755 -1.3015 -0.0552  0.1184
  493MOL0     C67957   4.895   4.923   2.848  0.8103  0.1877 -0.2189
  493MOL0     C67958   4.974   5.042   2.791 -0.8384  0.5128  0.5658
  493MOL0     C67959   4.892   5.119   2.684 -1.1820  0.8589 -0.4001
  493MOL0     C67960   4.831   5.244   2.722 -0.7938 -0.4026 -0.7079
  493MOL0     C67961   4.783   5.353   2.748 -1.0385 -0.4552 -0.1515
  493MOL0     C67962   5.050   4.589   2.551  0.3349  0.2874  0.4597
  493MOL0     C67963   5.054   4.512   2.435 -0.1726  0.0928 -0.6621
  493MOL0     C67964   5.189   4.486   2.380 -0.2493  0.2254  0.0433
  493MOL0     H67965   4.680   4.262   2.046 -2.4822 -1.8830  1.4172
  493MOL0     H67966   4.697   4.084   1.878 -0.7710 -1.9011  1.3566
  493MOL0     H67967   5.111   3.870   1.893  1.4103 -1.1875 -1.4449
  493MOL0     H67968   5.081   4.022   1.791  0.8458 -1.4133 -2.7485
  493MOL0     H67969   5.037   3.746   1.704  3.2936 -1.6062 -2.0360
  493MOL0     H67970   4.994   3.884   1.620 -0.7996 -1.5376  0.7078
  493MOL0     H67971   5.228   3.752   1.576  0.3974  0.4854 -0.7042
  493MOL0     H67972   5.226   3.925   1.551 -0.0566 -1.4272 -1.3083
  493MOL0     H67973   5.316   3.953   1.771 -1.5222 -1.2075  2.9575
  493MOL0     H67974   5.316   3.781   1.821  2.0586  0.8434  0.9496
  493MOL0     H67975   5.500   3.884   1.618 -1.1409 -0.3607 -1.0615
  493MOL0     H67976   5.441   3.719   1.611 -1.8831 -0.2009  0.4667
  493MOL0     H67977   5.546   3.804   1.875  0.5180  0.0770  1.3438
  493MOL0     H67978   5.519   3.649   1.806 -0.3365  0.4521  1.9804
  493MOL0     H67979   5.774   3.785   1.813 -2.1187  0.3825  1.3859
  493MOL0     H67980   5.721   3.844   1.663  3.5494 -1.2531 -1.2297
  493MOL0     H67981   5.800   3.582   1.767 -0.2774  0.2602  0.1608
  493MOL0     H67982   5.666   3.572   1.652 -0.2267 -0.4724  0.0817
  493MOL0     H67983   6.056   3.645   1.644  0.2234 -2.4031  0.9559
  493MOL0     H67984   6.243   3.614   1.458  1.8022 -1.8138  0.1159
  493MOL0     H67985   6.188   3.553   1.308  0.4009  0.3859  0.2211
  493MOL0     H67986   6.333   3.426   1.464 -1.4247 -0.9031 -2.7944
  493MOL0     H67987   6.189   3.396   1.563 -3.2281  0.5985  0.0088
  493MOL0     H67988   6.199   3.319   1.273  0.7312  1.7257  0.2890
  493MOL0     H67989   6.241   3.212   1.400 -0.3173 -0.0305 -0.7495
  493MOL0     H67990   6.012   3.288   1.500 -0.2381  3.9199 -0.9905
  493MOL0     H67991   5.978   3.299   1.320  1.1176  1.3700 -0.0135
  493MOL0     H67992   5.800   3.027   1.344 -1.9033 -0.3319 -2.2196
  493MOL0     H67993   5.633   2.962   1.248  0.2808 -1.6451  1.5410
  493MOL0     H67994   5.681   2.818   1.147  0.4516  0.4638  1.9080
  493MOL0     H67995   5.617   2.970   1.080 -0.6976 -0.2095 -0.1843
  493MOL0     H67996   5.677   3.168   0.692 -0.0642 -0.2359 -0.3042
  493MOL0     H67997   5.564   3.129   0.473  0.2353 -0.5763 -0.7837
  493MOL0     H67998   5.425   3.024   0.320  0.3995  0.9539 -0.3526
  493MOL0     H67999   5.569   3.032   0.214  1.9920 -2.6148 -2.4504
  493MOL0     H68000   5.378   2.982   0.088 -0.0039 -2.9525 -3.3169
  493MOL0     H68001   5.501   2.853   0.082  1.3530  1.6719  1.4105
  493MOL0     H68002   5.377   2.720   0.214  0.7783  0.3125 -0.0527
  493MOL0     H68003   5.260   2.783   0.096  1.6806 -2.0722 -0.0890
  493MOL0     H68004   5.204   2.962   0.273  4.6556  2.4281  2.1921
  493MOL0     H68005   5.300   2.867   0.380  1.3825 -1.9641 -2.0677
  493MOL0     H68006   5.074   2.738   0.234 -0.6516  1.3395  0.5392
  493MOL0     H68007   5.160   2.658   0.364 -2.4330  0.0753  2.0546
  493MOL0     H68008   4.992   2.905   0.376  0.6401  0.4509  0.6141
  493MOL0     H68009   5.080   2.834   0.517  3.9638  1.1494 -2.2077
  493MOL0     H68010   4.966   2.639   0.512  2.4016  2.4431  1.5841
  493MOL0     H68011   4.865   2.681   0.361  0.6189 -0.7389  0.1666
  493MOL0     H68012   4.728   2.685   0.554 -0.0210  0.0692  3.3018
  493MOL0     H68013   4.734   2.839   0.474 -0.0875 -2.2671 -2.0290
  493MOL0     H68014   5.681   2.725   0.492 -0.1731  1.2570  0.8549
  493MOL0     H68015   5.733   2.733   0.711 -1.4134 -0.6566 -0.7428
  493MOL0     H68016   6.111   2.984   0.964  1.7148 -0.8966  0.1102
  493MOL0     H68017   6.201   3.061   1.171 -0.2309 -2.3281 -1.6668
  493MOL0     H68018   5.052   3.946   2.095  0.2407  1.1939 -1.2142
  493MOL0     H68019   5.019   4.115   2.261  1.3940  1.4626  0.5509
  493MOL0     H68020   4.715   4.494   2.412 -0.3457 -3.3537  3.6477
  493MOL0     H68021   4.717   4.661   2.579 -2.0793 -1.1887 -4.3015
  493MOL0     H68022   4.807   4.847   2.662  3.7105 -0.1754 -2.6159
  493MOL0     H68023   4.762   4.755   2.793 -3.5251  2.7983 -0.6760
  493MOL0     H68024   4.959   4.895   2.932 -2.6909 -1.5808  2.0729
  493MOL0     H68025   4.800   4.964   2.883 -0.2307 -1.0491 -1.4738
  493MOL0     H68026   4.991   5.116   2.870 -1.2972 -1.9653  3.1915
  493MOL0     H68027   5.072   5.013   2.752 -0.2065  1.5995  1.2930
  493MOL0     H68028   4.818   5.060   2.629 -0.5867 -1.8206  1.4690
  493MOL0     H68029   4.972   5.132   2.611  1.0427  1.6901  2.0345
  493MOL0     H68030   4.750   5.455   2.747 -1.1652 -0.4297  2.1617
  493MOL0     H68031   5.148   4.611   2.592  1.0276 -0.0771 -0.9457
  493MOL0     H68032   5.193   4.383   2.344 -0.7188 -1.6402  4.6845
  493MOL0     H68033   5.199   4.560   2.299  3.2723  1.4740  1.4102
  493MOL0     H68034   5.274   4.504   2.446  0.8087  1.1052 -1.4929
  494MOL0     O68035   6.495   1.654   5.208 -0.3156  0.4392  0.1800
  494MOL0     C68036   6.397   1.598   5.156 -0.4590  0.1638 -0.7500
  494MOL0     O68037   6.276   1.596   5.204  0.4503  0.7926  0.2425
  494MOL0     C68038   6.251   1.702   5.296 -0.3061  0.2836  0.0091
  494MOL0     C68039   6.233   1.670   5.433 -0.0924  0.1069  0.0496
  494MOL0     C68040   6.222   1.770   5.530 -0.8690  0.7457 -0.6758
  494MOL0     C68041   6.223   1.904   5.487  0.8651  0.1282  0.4378
  494MOL0     O68042   6.203   1.992   5.596  0.5221  0.0853  0.2821
  494MOL0     C68043   6.224   2.130   5.572 -0.2276 -0.2490  0.9592
  494MOL0     C68044   6.223   2.199   5.700 -0.0890 -0.1353  0.4385
  494MOL0     C68045   6.352   2.175   5.785  0.1282 -0.1180 -0.6720
  494MOL0     C68046   6.346   2.254   5.920 -0.4941 -0.2846  0.6434
  494MOL0     C68047   6.451   2.191   6.019  0.4619  0.1103 -1.0839
  494MOL0     C68048   6.406   2.233   6.161 -0.5678  0.7829 -0.6271
  494MOL0     C68049   6.337   2.119   6.229 -0.7254  0.0193 -0.2941
  494MOL0     C68050   6.299   2.150   6.372 -0.4683  0.0666 -0.6596
  494MOL0     N68051   6.193   2.256   6.382 -0.2902 -0.2614  0.0579
  494MOL0     C68052   6.225   2.390   6.412  0.6175 -0.2533  0.0645
  494MOL0     C68053   6.108   2.450   6.388 -0.2969 -0.3611  0.4873
  494MOL0     C68054   6.066   2.587   6.418  0.8074 -0.4475 -0.6234
  494MOL0     C68055   6.076   2.680   6.299 -0.0897 -0.5018  0.7179
  494MOL0     C68056   5.944   2.696   6.218 -1.5943  1.0940 -0.5706
  494MOL0     C68057   5.962   2.786   6.102 -0.6477 -0.3916  0.9059
  494MOL0     O68058   5.863   2.748   6.012  0.8400 -0.2586  0.3395
  494MOL0     C68059   5.900   2.723   5.881 -0.7808 -0.4089  0.9522
  494MOL0     C68060   5.914   2.827   5.790 -0.8914 -0.0352  0.0885
  494MOL0     C68061   5.961   2.812   5.661  0.6089  0.0484  0.4637
  494MOL0     C68062   5.965   2.944   5.582 -0.8274  0.5503  0.6537
  494MOL0     C68063   5.985   2.676   5.616 -0.7842  0.7465 -0.3106
  494MOL0     C68064   6.049   2.652   5.484 -0.3979  0.2270  0.4885
  494MOL0     O68065   6.050   2.743   5.389 -0.5555  0.3455  0.2913
  494MOL0     C68066   6.135   2.728   5.287 -0.8781  0.6849 -0.7214
  494MOL0     C68067   6.269   2.783   5.292  0.0017  0.2035 -0.8800
  494MOL0     C68068   6.360   2.753   5.190 -0.3844 -0.6463  0.4340
  494MOL0     C68069   6.320   2.673   5.082 -1.1500 -0.2644 -0.2421
  494MOL0     O68070   6.411   2.645   4.981  0.3370  0.3632  0.2394
  494MOL0     C68071   6.400   2.527   4.895 -0.3466  0.7987  0.6085
  494MOL0     C68072   6.446   2.401   4.969 -0.2544  0.3473  0.4047
  494MOL0     C68073   6.599   2.369   4.996 -0.2748  1.1707 -0.8479
  494MOL0     C68074   6.652   2.281   4.880  0.3535 -0.7619 -0.1939
  494MOL0     C68075   6.806   2.266   4.885  0.5997  0.2426  1.1739
  494MOL0     C68076   6.886   2.223   4.748 -0.6354  0.2188 -0.9344
  494MOL0     C68077   6.890   2.326   4.629  0.7652 -0.7057 -0.1011
  494MOL0     C68078   7.025   2.311   4.541 -0.7030  0.8219 -0.5261
  494MOL0    Cl68079   7.182   2.334   4.624  0.3257  0.4849 -0.2799
  494MOL0     C68080   6.188   2.642   5.068  0.1812  0.3384 -1.2109
  494MOL0     C68081   6.094   2.664   5.165 -0.0916  0.0108 -0.0327
  494MOL0     O68082   6.119   2.545   5.479  0.2939  0.4852  0.2504
  494MOL0     C68083   5.975   2.572   5.706 -0.6405 -1.1438 -0.0523
  494MOL0     C68084   5.936   2.597   5.834 -0.2550 -0.1182  0.5689
  494MOL0     N68085   6.027   2.360   6.320  1.2772 -0.0858 -0.4327
  494MOL0     N68086   6.079   2.243   6.319  0.4052 -0.1291  0.7450
  494MOL0     C68087   6.240   1.941   5.348  0.1843 -0.4191 -0.0802
  494MOL0     C68088   6.253   1.833   5.258 -0.2145  0.2686 -0.1573
  494MOL0     C68089   6.426   1.497   5.041 -0.2952  0.4546 -0.0275
  494MOL0     C68090   6.559   1.443   5.031  0.0320  0.8997 -1.0287
  494MOL0     C68091   6.586   1.333   4.951 -1.1769  0.3711  1.1683
  494MOL0     C68092   6.486   1.277   4.872  0.2399 -0.3263 -0.3186
  494MOL0     O68093   6.501   1.152   4.822 -0.0616  0.7735 -0.3358
  494MOL0     C68094   6.473   1.039   4.910  0.3850  0.3019 -0.6400
  494MOL0     C68095   6.429   0.915   4.817 -0.1324  0.4005 -0.3933
  494MOL0     C68096   6.420   0.783   4.901  0.2149  0.7330 -0.7310
  494MOL0     C68097   6.439   0.654   4.821  0.3485  0.2893  0.5334
  494MOL0     C68098   6.584   0.627   4.825  0.1895  0.1398  0.5084
  494MOL0     C68099   6.701   0.610   4.839 -0.9590 -0.3616 -0.4286
  494MOL0     C68100   6.360   1.338   4.874 -0.2877 -0.5762 -0.2237
  494MOL0     C68101   6.329   1.449   4.949  0.4334 -0.2256 -0.7048
  494MOL0     C68102   6.190   1.518   4.921 -0.0274 -0.4918 -0.8678
  494MOL0     H68103   6.241   1.566   5.460 -2.8700 -0.7501 -2.0448
  494MOL0     H68104   6.218   1.746   5.636  1.0801  0.2687 -0.6809
  494MOL0     H68105   6.145   2.165   5.505  0.0756 -2.0581 -0.4200
  494MOL0     H68106   6.320   2.144   5.521  0.6578  1.2296  2.9272
  494MOL0     H68107   6.212   2.307   5.692  0.0109  0.0885  2.6641
  494MOL0     H68108   6.138   2.160   5.758  1.2291 -0.6819  2.1077
  494MOL0     H68109   6.378   2.069   5.788 -0.4592 -0.3029 -1.7992
  494MOL0     H68110   6.430   2.217   5.721 -0.4169  1.0732 -0.5878
  494MOL0     H68111   6.373   2.359   5.907  0.2311 -0.6429 -0.9970
  494MOL0     H68112   6.247   2.232   5.959 -1.9733  1.9608 -1.5906
  494MOL0     H68113   6.540   2.249   5.991  1.3110 -0.7767 -0.3252
  494MOL0     H68114   6.476   2.085   6.006  0.9738 -0.1116  1.2696
  494MOL0     H68115   6.494   2.256   6.221 -0.1610  2.6287 -1.8727
  494MOL0     H68116   6.336   2.317   6.156  1.0947  2.1492 -1.8245
  494MOL0     H68117   6.400   2.029   6.224  0.3851  0.7183  0.7378
  494MOL0     H68118   6.238   2.106   6.184 -1.7007 -0.4398  1.8687
  494MOL0     H68119   6.261   2.057   6.414  1.7521 -0.0524  1.3174
  494MOL0     H68120   6.388   2.187   6.424  0.0108  3.2082 -3.3533
  494MOL0     H68121   6.313   2.433   6.459 -1.0248 -0.1528  3.3537
  494MOL0     H68122   6.124   2.628   6.501 -1.6529  0.1119  0.9235
  494MOL0     H68123   5.960   2.576   6.445  0.9875 -0.8166 -0.0506
  494MOL0     H68124   6.116   2.777   6.329 -2.5028  1.1158 -0.9656
  494MOL0     H68125   6.155   2.640   6.234  0.2232  0.0027  0.7840
  494MOL0     H68126   5.908   2.595   6.192  2.3046 -1.2521  2.0939
  494MOL0     H68127   5.872   2.734   6.291  1.6082  0.7964  3.0836
  494MOL0     H68128   5.965   2.891   6.132  0.8180  0.6625 -2.4405
  494MOL0     H68129   6.062   2.771   6.060 -1.3502 -0.7708 -0.7156
  494MOL0     H68130   5.887   2.923   5.832  0.0051  0.5719 -0.6644
  494MOL0     H68131   5.907   2.953   5.490 -0.5400  1.8376  0.5786
  494MOL0     H68132   6.070   2.940   5.551 -0.5188  0.9618  1.5962
  494MOL0     H68133   5.936   3.031   5.642  2.5041  2.6241 -0.4608
  494MOL0     H68134   6.299   2.836   5.382 -3.3204  4.7938 -2.1079
  494MOL0     H68135   6.466   2.775   5.193 -0.5907  0.6290 -0.5524
  494MOL0     H68136   6.306   2.514   4.841  1.5902  1.7839 -3.3904
  494MOL0     H68137   6.481   2.517   4.822 -0.6330 -3.9169  0.6467
  494MOL0     H68138   6.399   2.399   5.068  0.1237  2.2219  0.6715
  494MOL0     H68139   6.404   2.317   4.913 -0.2877 -0.3905  1.5007
  494MOL0     H68140   6.627   2.323   5.092  1.7883  1.1097 -1.4381
  494MOL0     H68141   6.639   2.468   5.020 -0.3418  0.6231  1.9429
  494MOL0     H68142   6.609   2.330   4.792 -1.2580 -1.6318  0.0798
  494MOL0     H68143   6.602   2.184   4.884  0.2764 -0.6921  0.7598
  494MOL0     H68144   6.842   2.363   4.921 -1.9775  2.1175 -0.9629
  494MOL0     H68145   6.840   2.193   4.959  4.4490  0.7941  0.1644
  494MOL0     H68146   6.847   2.127   4.714 -3.1044  0.9613 -0.4212
  494MOL0     H68147   6.991   2.206   4.772 -1.4107 -1.1732  1.8997
  494MOL0     H68148   6.894   2.431   4.659  1.3911 -0.5505 -0.6980
  494MOL0     H68149   6.796   2.307   4.576 -0.2960 -1.2916  1.8820
  494MOL0     H68150   7.029   2.392   4.467  2.3300  2.6806  1.4688
  494MOL0     H68151   7.032   2.216   4.488 -1.6706  1.8946 -2.7277
  494MOL0     H68152   6.163   2.582   4.981 -1.9966  1.1254 -1.2001
  494MOL0     H68153   5.992   2.629   5.157 -0.2466 -0.7447  3.5557
  494MOL0     H68154   6.021   2.477   5.680 -1.8072 -0.9068 -3.3730
  494MOL0     H68155   5.929   2.523   5.913  2.2062  0.8251  1.7716
  494MOL0     H68156   6.249   2.045   5.318  1.7063 -1.0050 -1.8866
  494MOL0     H68157   6.259   1.846   5.150 -1.3717  0.6273 -0.2005
  494MOL0     H68158   6.637   1.486   5.093 -0.8410  0.2961  0.5428
  494MOL0     H68159   6.682   1.285   4.969 -0.1534  2.2923  1.0939
  494MOL0     H68160   6.562   1.002   4.963 -0.8383 -0.1295  1.1846
  494MOL0     H68161   6.400   1.064   4.987  0.4192 -0.6281 -0.2851
  494MOL0     H68162   6.510   0.903   4.744  0.5154  1.9189  0.0295
  494MOL0     H68163   6.331   0.930   4.771 -2.2732 -1.5234  3.0657
  494MOL0     H68164   6.481   0.772   4.991 -2.4945 -1.9292  0.9533
  494MOL0     H68165   6.317   0.781   4.936  0.2370 -0.7566 -0.6861
  494MOL0     H68166   6.399   0.659   4.719  0.4748  0.9134  0.5083
  494MOL0     H68167   6.383   0.574   4.869 -2.3028  1.3665 -0.5833
  494MOL0     H68168   6.807   0.601   4.847 -0.6891  0.8441 -1.9953
  494MOL0     H68169   6.281   1.289   4.817 -2.0056 -0.1998  1.6922
  494MOL0     H68170   6.107   1.476   4.977  2.0597  2.5151  5.3493
  494MOL0     H68171   6.194   1.627   4.932 -0.6675 -0.5403 -0.1516
  494MOL0     H68172   6.163   1.498   4.817  2.1301  0.2066 -1.6285
  495MOL0     O68173   8.641  10.163   3.270 -0.7555  0.2347 -0.1966
  495MOL0     C68174   8.608  10.221   3.167 -0.1563  0.0206  0.4900
  495MOL0     O68175   8.696  10.267   3.076  0.6179 -0.1241 -0.9525
  495MOL0     C68176   8.824  10.309   3.102  0.2386  0.7409 -0.1749
  495MOL0     C68177   8.851  10.356   3.219 -0.2463 -0.3829 -0.4130
  495MOL0     C68178   8.968  10.419   3.255 -0.7454  0.0614  1.0283
  495MOL0     C68179   9.071  10.417   3.167  0.0250 -0.1388 -0.0122
  495MOL0     O68180   9.184  10.481   3.204  0.2161  0.9727 -0.5667
  495MOL0     C68181   9.297  10.458   3.124  0.3473 -1.0735 -0.1656
  495MOL0     C68182   9.418  10.543   3.177  0.0475 -0.4803  0.1259
  495MOL0     C68183   9.494  10.455   3.286 -0.0068  0.6537  0.4809
  495MOL0     C68184   9.582  10.541   3.386 -0.3370  0.8644  0.7872
  495MOL0     C68185   9.692  10.618   3.313 -0.2345 -0.5241 -0.3241
  495MOL0     C68186   9.754  10.733   3.392 -1.1709 -0.3093 -0.8004
  495MOL0     C68187   9.877  10.802   3.320  0.5815 -0.4623  0.1945
  495MOL0     C68188  10.003  10.715   3.328  0.6140 -0.2246 -0.5128
  495MOL0     N68189  10.037  10.670   3.465  0.1475  0.3134 -0.0029
  495MOL0     C68190  10.013  10.537   3.514 -0.6665 -0.0318  0.0501
  495MOL0     C68191  10.103  10.537   3.626 -0.3069  0.9367  0.1619
  495MOL0     C68192  10.136  10.420   3.717 -0.1660 -0.1584  1.0236
  495MOL0     C68193  10.033  10.395   3.825  0.4156  0.2664 -0.7804
  495MOL0     C68194  10.019  10.516   3.930 -0.3922  0.1226  0.5232
  495MOL0     C68195  10.149  10.544   4.008  0.7611  0.3031 -0.5603
  495MOL0     O68196  10.144  10.667   4.081 -0.2228  1.2158  0.2047
  495MOL0     C68197  10.227  10.688   4.188  0.6295  1.0249  0.3467
  495MOL0     C68198  10.352  10.617   4.202  0.1905  0.9205  0.1961
  495MOL0     C68199  10.437  10.627   4.313 -0.2943 -0.1525  0.1932
  495MOL0     C68200  10.570  10.567   4.287  0.2344 -0.4243  0.1041
  495MOL0     C68201  10.393  10.705   4.421  0.5372  0.3781 -0.5670
  495MOL0     C68202  10.487  10.752   4.528 -0.4227  0.3924  0.4829
  495MOL0     O68203  10.591  10.680   4.565 -0.3735 -0.4595 -0.2284
  495MOL0     C68204  10.675  10.744   4.652  0.3598  0.1760 -0.4325
  495MOL0     C68205  10.647  10.713   4.790  0.8101 -0.3844 -0.0579
  495MOL0     C68206  10.728  10.771   4.895 -0.1753  0.5346 -1.4178
  495MOL0     C68207  10.826  10.866   4.863 -0.2688  0.4067  0.6406
  495MOL0     O68208  10.916  10.925   4.940  0.1749  0.3667 -1.3575
  495MOL0     C68209  10.982  10.840   5.027  0.4865  0.9919  0.4645
  495MOL0     C68210  11.106  10.902   5.086 -0.3956 -0.4777 -1.2385
  495MOL0     C68211  11.165  10.795   5.184  0.1348  0.6039  0.1181
  495MOL0     C68212  11.297  10.848   5.258  0.6682  0.5505 -0.4303
  495MOL0     C68213  11.261  10.906   5.398  0.3886  0.6810  0.1968
  495MOL0     C68214  11.368  11.000   5.447 -0.1264  0.7244 -0.7050
  495MOL0     C68215  11.476  10.932   5.525 -0.3312  0.2994  0.2501
  495MOL0     C68216  11.601  11.010   5.495 -0.2488  0.3358 -0.3634
  495MOL0    Cl68217  11.744  10.923   5.567  0.3958 -0.2857 -0.2722
  495MOL0     C68218  10.849  10.896   4.729 -0.3953 -0.2851 -0.2418
  495MOL0     C68219  10.774  10.839   4.625  0.2675 -0.3189  0.5946
  495MOL0     O68220  10.455  10.859   4.572 -0.3733  0.4893 -0.2202
  495MOL0     C68221  10.274  10.772   4.408  1.0006 -0.7672 -0.3025
  495MOL0     C68222  10.190  10.773   4.290 -0.4709  1.0968 -0.0542
  495MOL0     N68223  10.158  10.664   3.642 -0.2899  0.2873  0.0360
  495MOL0     N68224  10.132  10.737   3.537 -0.7633  0.5465  0.4068
  495MOL0     C68225   9.052  10.365   3.036  1.2662 -0.8598 -0.1714
  495MOL0     C68226   8.923  10.314   3.003  0.3533 -0.5619 -0.1754
  495MOL0     C68227   8.463  10.244   3.148  0.0875 -0.3287 -0.2797
  495MOL0     C68228   8.421  10.271   3.016 -0.2706 -0.2355 -0.3702
  495MOL0     C68229   8.291  10.310   2.989  0.7541  1.0322 -0.5144
  495MOL0     C68230   8.194  10.314   3.090 -0.2424 -0.1402 -0.2702
  495MOL0     O68231   8.064  10.358   3.061  0.7832 -0.8859 -0.2140
  495MOL0     C68232   8.022  10.376   2.924  0.1251 -1.1918  0.5868
  495MOL0     C68233   7.872  10.404   2.894  0.6314 -0.6322 -0.1439
  495MOL0     C68234   7.843  10.535   2.973  0.3131 -0.1220  0.1550
  495MOL0     C68235   7.731  10.606   2.893  0.0575  0.2339 -0.2458
  495MOL0     C68236   7.609  10.526   2.867 -0.5246 -0.1640 -0.2895
  495MOL0     C68237   7.501  10.469   2.844 -0.2606  0.0670 -0.5416
  495MOL0     C68238   8.239  10.297   3.223  0.6968  0.2957 -0.0025
  495MOL0     C68239   8.370  10.260   3.256 -0.1724  0.5714  0.3915
  495MOL0     C68240   8.392  10.234   3.398 -1.2216  0.4959  0.5103
  495MOL0     H68241   8.774  10.350   3.296  2.2209  0.3192  2.2525
  495MOL0     H68242   8.974  10.466   3.353 -1.8880  1.0485  0.6412
  495MOL0     H68243   9.285  10.489   3.020 -1.4110 -3.0745 -0.6194
  495MOL0     H68244   9.313  10.350   3.131  2.3336 -0.8826 -0.9107
  495MOL0     H68245   9.485  10.569   3.094 -1.4654  0.7187 -0.7689
  495MOL0     H68246   9.371  10.634   3.216  0.7189  1.2950 -2.8510
  495MOL0     H68247   9.430  10.386   3.342 -0.5180  0.1186 -0.7345
  495MOL0     H68248   9.559  10.378   3.243 -1.5313 -1.1877  1.3012
  495MOL0     H68249   9.516  10.613   3.435 -2.8563 -0.3462 -0.6153
  495MOL0     H68250   9.635  10.474   3.453 -0.4095  0.1732  0.1723
  495MOL0     H68251   9.661  10.664   3.219  2.4556 -1.1097 -1.6059
  495MOL0     H68252   9.771  10.548   3.284  1.4064  0.5859  1.2237
  495MOL0     H68253   9.678  10.809   3.407  1.2679  2.3332 -1.0017
  495MOL0     H68254   9.790  10.694   3.487  0.4504  1.0218 -0.8229
  495MOL0     H68255   9.894  10.900   3.366 -0.3056 -1.0511  1.8414
  495MOL0     H68256   9.867  10.829   3.214 -1.6484 -4.3444 -0.7609
  495MOL0     H68257   9.987  10.630   3.261 -3.2322  0.3430 -0.5720
  495MOL0     H68258  10.081  10.779   3.287  1.7608  0.1932  2.1511
  495MOL0     H68259   9.962  10.448   3.477 -1.1707  0.7479 -1.2087
  495MOL0     H68260  10.235  10.444   3.754  1.1723  1.6843 -3.1002
  495MOL0     H68261  10.145  10.325   3.662 -0.5039 -1.1243  2.5831
  495MOL0     H68262   9.932  10.378   3.785 -0.7164 -0.2489  2.0685
  495MOL0     H68263  10.064  10.300   3.869 -0.1909  0.7660  0.7897
  495MOL0     H68264  10.005  10.601   3.863  2.8712  1.8219  1.7328
  495MOL0     H68265   9.930  10.490   3.988 -0.1230  0.7234  1.2233
  495MOL0     H68266  10.158  10.456   4.072 -1.5560  0.6964  0.4257
  495MOL0     H68267  10.229  10.563   3.936  1.4014  1.0184  0.3257
  495MOL0     H68268  10.391  10.562   4.117  2.8320 -3.3834  3.7282
  495MOL0     H68269  10.570  10.469   4.336 -1.1205 -0.8515 -0.7278
  495MOL0     H68270  10.643  10.636   4.332 -0.2498  1.6208 -2.0800
  495MOL0     H68271  10.604  10.548   4.185  2.3874 -5.4545  1.4080
  495MOL0     H68272  10.567  10.644   4.816  0.4333  0.4864  1.1864
  495MOL0     H68273  10.717  10.744   5.000  0.5671  0.6898 -1.2943
  495MOL0     H68274  10.923  10.796   5.109  2.5069  0.9906  1.9987
  495MOL0     H68275  11.007  10.746   4.977  0.4073 -1.2484  4.2319
  495MOL0     H68276  11.174  10.932   5.006 -2.2976  1.2621 -2.2931
  495MOL0     H68277  11.084  10.996   5.137  1.3204  0.0177 -1.3598
  495MOL0     H68278  11.189  10.704   5.128  2.0958  1.6806 -0.8919
  495MOL0     H68279  11.081  10.769   5.249 -0.9312 -0.1051 -1.4668
  495MOL0     H68280  11.336  10.933   5.203 -0.4635  2.4976  1.5838
  495MOL0     H68281  11.373  10.770   5.268 -0.5960 -0.9596 -1.9388
  495MOL0     H68282  11.175  10.973   5.384  1.2802  1.4100 -2.2095
  495MOL0     H68283  11.244  10.831   5.476 -2.5956  1.8507  0.8111
  495MOL0     H68284  11.321  11.071   5.516 -2.9491 -3.1192  1.7173
  495MOL0     H68285  11.404  11.056   5.360  0.0417  4.0420  1.3268
  495MOL0     H68286  11.497  10.829   5.495  4.2976  1.1307 -0.0153
  495MOL0     H68287  11.456  10.936   5.633  0.2791  1.8376  0.3407
  495MOL0     H68288  11.600  11.108   5.543  0.1615  0.6231 -0.9424
  495MOL0     H68289  11.613  11.026   5.388 -1.5538 -2.8160 -1.1056
  495MOL0     H68290  10.924  10.974   4.716 -2.5077  2.2385  1.5446
  495MOL0     H68291  10.800  10.867   4.523  0.4566 -0.6833  0.5414
  495MOL0     H68292  10.229  10.820   4.494  0.6721  0.3883 -1.0974
  495MOL0     H68293  10.097  10.828   4.282 -1.6328 -0.9971 -2.9436
  495MOL0     H68294   9.121  10.370   2.953 -0.1524  0.3926 -1.3422
  495MOL0     H68295   8.884  10.292   2.904 -1.7791  0.0795  0.4805
  495MOL0     H68296   8.500  10.260   2.943  2.5171 -1.7195  2.5810
  495MOL0     H68297   8.270  10.336   2.886  0.7903 -0.0771 -0.8166
  495MOL0     H68298   8.080  10.453   2.872 -1.5112 -0.2779  0.0384
  495MOL0     H68299   8.043  10.279   2.878 -0.2331 -1.4719  1.0027
  495MOL0     H68300   7.799  10.333   2.932 -0.3290 -0.7220 -2.0548
  495MOL0     H68301   7.848  10.402   2.788 -3.1729  0.3728  0.5600
  495MOL0     H68302   7.815  10.511   3.076  1.3186 -1.7221  0.0968
  495MOL0     H68303   7.932  10.599   2.980  0.6782 -0.3928 -1.5951
  495MOL0     H68304   7.769  10.645   2.798 -2.7274  0.5820 -1.3177
  495MOL0     H68305   7.708  10.694   2.954  0.8086  1.6404 -1.9346
  495MOL0     H68306   7.404  10.426   2.835 -1.1603  2.1654 -1.5993
  495MOL0     H68307   8.171  10.304   3.308 -1.1574  0.4807 -1.4429
  495MOL0     H68308   8.301  10.225   3.459  1.7157 -1.7379  5.0856
  495MOL0     H68309   8.426  10.131   3.408 -1.8633  0.1043 -0.9850
  495MOL0     H68310   8.460  10.308   3.441 -2.1399  1.4201  0.4177
  496MOL0     O68311   5.230   6.653  10.749  0.3732  1.0279  0.3681
  496MOL0     C68312   5.296   6.548  10.761  0.3918 -0.2878  0.9303
  496MOL0     O68313   5.367   6.508  10.879  0.0428  0.6600 -0.0186
  496MOL0     C68314   5.371   6.593  10.981  0.5344  1.1861  0.8711
  496MOL0     C68315   5.292   6.558  11.084  0.0914  0.0098 -0.1484
  496MOL0     C68316   5.295   6.645  11.190  0.0365 -0.2056 -0.7357
  496MOL0     C68317   5.384   6.749  11.200  0.3913 -0.6461  1.6492
  496MOL0     O68318   5.373   6.851  11.284 -0.0170 -0.3421 -0.5524
  496MOL0     C68319   5.235   6.895  11.321 -0.0494 -0.4743 -0.2409
  496MOL0     C68320   5.222   7.043  11.348  0.0351 -0.3681 -0.2983
  496MOL0     C68321   5.318   7.099  11.458  0.6863 -0.3476 -0.8841
  496MOL0     C68322   5.310   7.001  11.568  0.1817 -0.5465 -0.1320
  496MOL0     C68323   5.350   7.077  11.702 -0.5899 -1.1677  0.6048
  496MOL0     C68324   5.386   6.994  11.808  0.2613 -0.5225  0.4757
  496MOL0     C68325   5.443   7.071  11.926 -0.3421 -1.0809 -0.0582
  496MOL0     C68326   5.494   6.981  12.045  0.0318 -0.6397  0.4111
  496MOL0     N68327   5.568   7.073  12.127  0.2931  0.3072  0.1967
  496MOL0     C68328   5.675   7.156  12.099  0.6977 -0.4859  0.5062
  496MOL0     C68329   5.677   7.235  12.207 -0.6487  0.1609  0.1698
  496MOL0     C68330   5.773   7.346  12.229 -0.7065  0.2384 -0.2873
  496MOL0     C68331   5.688   7.460  12.273 -0.0819  0.4008 -0.4142
  496MOL0     C68332   5.780   7.581  12.267 -0.4239 -0.1113  0.1820
  496MOL0     C68333   5.718   7.709  12.326 -0.0354  1.3046 -0.0840
  496MOL0     O68334   5.777   7.702  12.460  0.0415  0.7139  0.5141
  496MOL0     C68335   5.833   7.814  12.515 -0.1127 -1.0802  0.8414
  496MOL0     C68336   5.916   7.795  12.619 -0.8141 -0.3543 -1.1289
  496MOL0     C68337   5.979   7.895  12.683  0.2265 -0.1406 -0.0783
  496MOL0     C68338   6.077   7.860  12.788  0.7781 -0.2420 -1.6534
  496MOL0     C68339   5.965   8.028  12.632  0.1127 -0.6146  0.3368
  496MOL0     C68340   6.035   8.145  12.689 -0.3363 -0.2643 -0.1412
  496MOL0     O68341   6.059   8.249  12.610  0.1291 -0.7059  0.0923
  496MOL0     C68342   6.065   8.379  12.663 -0.1830  0.5280 -0.0094
  496MOL0     C68343   6.182   8.444  12.682 -0.7811 -1.4102  0.0116
  496MOL0     C68344   6.197   8.578  12.728 -0.4220 -1.1092 -0.7851
  496MOL0     C68345   6.076   8.656  12.739  0.4070  0.2419 -0.2958
  496MOL0     O68346   6.069   8.789  12.757  0.5585 -0.4933  0.1507
  496MOL0     C68347   6.183   8.872  12.723  0.0096  0.4397 -0.4372
  496MOL0     C68348   6.160   9.018  12.761 -0.3492  0.5060 -0.8986
  496MOL0     C68349   6.087   9.095  12.652  0.0314  0.1083 -0.0317
  496MOL0     C68350   6.066   9.246  12.683 -0.6448 -0.0919 -0.4417
  496MOL0     C68351   5.978   9.312  12.594  0.1022 -0.5291  0.8362
  496MOL0     C68352   6.018   9.322  12.432  0.4378  1.2550 -0.5676
  496MOL0     C68353   6.141   9.402  12.414  0.9660 -0.3271  0.0809
  496MOL0     C68354   6.167   9.416  12.266  0.5204  0.5963  0.3432
  496MOL0    Cl68355   6.301   9.524  12.260  0.3156 -0.3560 -0.1444
  496MOL0     C68356   5.957   8.591  12.713  0.6909  0.4053 -0.2139
  496MOL0     C68357   5.949   8.455  12.681  0.3333 -0.2355 -0.3567
  496MOL0     O68358   6.064   8.143  12.807 -0.4318 -0.2365 -0.2284
  496MOL0     C68359   5.895   8.045  12.513  0.3607 -0.5690  0.1812
  496MOL0     C68360   5.816   7.944  12.455 -0.1627  0.1827  0.1868
  496MOL0     N68361   5.587   7.194  12.306 -1.1754 -0.0880  0.1025
  496MOL0     N68362   5.533   7.088  12.252 -0.8022 -0.6277 -0.7517
  496MOL0     C68363   5.476   6.772  11.097 -0.3461 -1.1340  0.4339
  496MOL0     C68364   5.467   6.689  10.978 -0.2872 -0.5854 -0.3331
  496MOL0     C68365   5.304   6.455  10.650  0.0008  0.7765 -0.2484
  496MOL0     C68366   5.373   6.334  10.677  0.4495 -0.3514 -0.5044
  496MOL0     C68367   5.380   6.223  10.592 -0.3079 -0.2980  0.3564
  496MOL0     C68368   5.322   6.234  10.461 -0.3777  0.0830 -0.4712
  496MOL0     O68369   5.322   6.128  10.366 -0.0316  0.3742  0.1890
  496MOL0     C68370   5.378   6.004  10.409  0.0884 -0.7729 -0.2275
  496MOL0     C68371   5.387   5.904  10.293  0.2428 -0.7674 -0.4995
  496MOL0     C68372   5.251   5.856  10.251 -0.6409 -0.3561  0.3514
  496MOL0     C68373   5.256   5.724  10.166  0.1233  0.3363  0.0470
  496MOL0     C68374   5.354   5.732  10.053  0.3139  1.4861  0.1910
  496MOL0     C68375   5.422   5.744   9.956 -0.0821  0.4358 -0.0606
  496MOL0     C68376   5.257   6.351  10.434  0.3583 -0.2162  0.2887
  496MOL0     C68377   5.246   6.467  10.526  0.1239  0.5117  0.5868
  496MOL0     C68378   5.177   6.593  10.472  0.3634 -0.8481 -0.4846
  496MOL0     H68379   5.228   6.471  11.075  0.3763 -0.2365  0.1527
  496MOL0     H68380   5.236   6.628  11.280  0.4105 -0.8986 -0.6164
  496MOL0     H68381   5.201   6.842  11.411  1.6778  1.2269  1.5184
  496MOL0     H68382   5.164   6.876  11.239  0.0290  3.8602 -1.5631
  496MOL0     H68383   5.243   7.098  11.257  2.1260 -0.7077 -0.0590
  496MOL0     H68384   5.119   7.066  11.376  0.5101 -0.8631  2.0691
  496MOL0     H68385   5.417   7.106  11.412  1.1920  0.6864  0.3010
  496MOL0     H68386   5.293   7.198  11.496  0.6173 -0.9954  0.8451
  496MOL0     H68387   5.215   6.948  11.575 -2.6362  3.7936 -1.3056
  496MOL0     H68388   5.391   6.932  11.541  0.3805  0.5731 -2.7570
  496MOL0     H68389   5.279   7.154  11.735  4.2006  5.0941 -1.5280
  496MOL0     H68390   5.438   7.135  11.670 -1.7121 -1.1399 -2.8903
  496MOL0     H68391   5.296   6.946  11.849 -0.0506  0.5119  1.0531
  496MOL0     H68392   5.457   6.917  11.776 -1.2180 -0.5828 -3.1165
  496MOL0     H68393   5.365   7.127  11.978 -0.9979 -1.9893 -0.0557
  496MOL0     H68394   5.526   7.136  11.895  1.6442 -2.5199  1.8613
  496MOL0     H68395   5.410   6.933  12.096 -0.7079  1.8314  1.6679
  496MOL0     H68396   5.562   6.896  12.032  1.2817  0.5561 -1.3217
  496MOL0     H68397   5.733   7.173  12.009 -0.2953 -1.1196 -0.2849
  496MOL0     H68398   5.811   7.377  12.132  0.2750  1.0997  0.3523
  496MOL0     H68399   5.848   7.316  12.303  0.0913  1.6583 -0.4716
  496MOL0     H68400   5.608   7.472  12.200 -2.3563 -3.8392  0.9689
  496MOL0     H68401   5.656   7.453  12.378 -2.0992 -3.2666 -1.1013
  496MOL0     H68402   5.875   7.552  12.313 -0.6024 -2.3374 -0.7277
  496MOL0     H68403   5.795   7.603  12.160 -0.4771 -0.5369  0.0854
  496MOL0     H68404   5.745   7.796  12.265  2.3719  0.1501 -0.8080
  496MOL0     H68405   5.610   7.697  12.321 -0.2324  3.1651 -0.8526
  496MOL0     H68406   5.947   7.695  12.648  1.2884 -0.0528 -2.1531
  496MOL0     H68407   6.172   7.903  12.755  1.5756 -0.6048  0.0753
  496MOL0     H68408   6.086   7.753  12.811  0.0429  0.4130  2.3491
  496MOL0     H68409   6.048   7.911  12.880  1.8407  1.1611 -2.0591
  496MOL0     H68410   6.276   8.396  12.657 -0.3143  0.3976 -2.0151
  496MOL0     H68411   6.290   8.632  12.726 -0.4086 -1.0383  0.5478
  496MOL0     H68412   6.257   8.826  12.790 -0.6760 -3.3268 -1.9797
  496MOL0     H68413   6.214   8.857  12.619 -0.3409  1.9322 -0.7807
  496MOL0     H68414   6.096   9.032  12.849  1.3713  1.2887  0.2834
  496MOL0     H68415   6.255   9.071  12.774  1.0607 -1.1879 -3.3229
  496MOL0     H68416   5.988   9.047  12.649 -0.8543  1.5150  2.6219
  496MOL0     H68417   6.138   9.078  12.557  1.9211  0.3475  0.9053
  496MOL0     H68418   6.164   9.294  12.677  0.1111 -1.6402 -0.7296
  496MOL0     H68419   6.042   9.252  12.789  1.2263  1.2608 -0.0434
  496MOL0     H68420   5.873   9.295  12.617  0.5311  0.9967  4.7340
  496MOL0     H68421   5.979   9.416  12.627 -1.1641 -0.0219 -0.6157
  496MOL0     H68422   5.929   9.362  12.383 -0.4784  0.3504  0.3029
  496MOL0     H68423   6.033   9.221  12.391 -1.5186 -0.8486  3.2442
  496MOL0     H68424   6.220   9.363  12.479 -2.5684 -2.9636  3.2657
  496MOL0     H68425   6.115   9.497  12.463 -0.1511 -0.7614  0.3678
  496MOL0     H68426   6.088   9.449  12.199 -0.4460 -1.4151  0.4196
  496MOL0     H68427   6.200   9.323  12.217  0.7460  2.1324 -2.6548
  496MOL0     H68428   5.864   8.647  12.706 -1.3155 -2.8586 -1.6064
  496MOL0     H68429   5.853   8.405  12.672  0.8713 -2.0962  2.9000
  496MOL0     H68430   5.887   8.143  12.467  0.0714 -1.0007 -0.6921
  496MOL0     H68431   5.751   7.963  12.370  1.3418  1.6855 -0.6858
  496MOL0     H68432   5.558   6.842  11.110 -0.3226 -1.5947  3.4754
  496MOL0     H68433   5.539   6.698  10.897  2.5325  1.5781  2.1704
  496MOL0     H68434   5.412   6.323  10.778 -0.1187  0.1277 -0.2253
  496MOL0     H68435   5.419   6.126  10.621  0.0376  0.1902  1.5928
  496MOL0     H68436   5.478   6.030  10.444 -0.1959  1.8699 -1.1053
  496MOL0     H68437   5.324   5.970  10.497  0.3137  2.4334  1.2825
  496MOL0     H68438   5.455   5.825  10.326 -1.0619 -2.2752 -1.3292
  496MOL0     H68439   5.438   5.952  10.209  0.4613 -1.7061 -0.9188
  496MOL0     H68440   5.193   5.847  10.343  0.3901  2.8987  1.4518
  496MOL0     H68441   5.213   5.939  10.191  4.6967  4.2481  2.4714
  496MOL0     H68442   5.153   5.707  10.134 -0.7061  3.0654  0.9784
  496MOL0     H68443   5.284   5.649  10.241  0.8765  0.1269 -0.4364
  496MOL0     H68444   5.462   5.744   9.856  1.9300 -0.7913  0.6848
  496MOL0     H68445   5.223   6.363  10.332  3.4093 -0.6759 -0.9006
  496MOL0     H68446   5.248   6.676  10.478 -2.5992  1.7434  2.1803
  496MOL0     H68447   5.151   6.589  10.366 -1.0495  4.1117 -0.5739
  496MOL0     H68448   5.089   6.623  10.530  2.2512  1.9409  1.1855
  497MOL0     O68449   8.718   3.478   0.422  0.5054  0.8525 -0.1075
  497MOL0     C68450   8.779   3.487   0.531  0.0671 -0.3643 -0.0629
  497MOL0     O68451   8.831   3.383   0.599 -0.3213  0.2472 -0.0983
  497MOL0     C68452   8.844   3.258   0.544  0.2916  0.4951  0.0408
  497MOL0     C68453   8.741   3.177   0.488  0.5962  0.3484  0.0395
  497MOL0     C68454   8.771   3.053   0.441  0.7064  0.0246  0.4244
  497MOL0     C68455   8.894   2.991   0.455  0.2002  0.4018  1.4316
  497MOL0     O68456   8.909   2.873   0.393  0.4559  0.1882  0.9144
  497MOL0     C68457   8.910   2.765   0.477 -0.0422  0.0004 -0.8344
  497MOL0     C68458   8.766   2.717   0.503  1.0563 -0.0587  0.4866
  497MOL0     C68459   8.705   2.666   0.380  0.4176 -0.0034  0.3844
  497MOL0     C68460   8.562   2.610   0.404  0.2388  0.2902 -1.1293
  497MOL0     C68461   8.523   2.518   0.281  0.6036 -0.8860  0.6366
  497MOL0     C68462   8.376   2.483   0.297  0.2726  0.4567  0.0936
  497MOL0     C68463   8.349   2.363   0.219 -0.1169  0.5926  0.1693
  497MOL0     C68464   8.233   2.275   0.276 -0.8757 -1.2039  0.1213
  497MOL0     N68465   8.106   2.294   0.198 -0.3632  0.6243  0.2772
  497MOL0     C68466   7.998   2.376   0.247  0.2258 -0.1368 -0.8371
  497MOL0     C68467   7.926   2.374   0.140  0.4912  0.2162 -0.1680
  497MOL0     C68468   7.791   2.448   0.122 -0.9946  0.0028 -0.2676
  497MOL0     C68469   7.677   2.362   0.076  0.0321  0.5747  0.1621
  497MOL0     C68470   7.643   2.381  -0.070  0.1195 -0.4929 -0.3897
  497MOL0     C68471   7.556   2.271  -0.123 -0.7732 -0.0682 -0.7939
  497MOL0     O68472   7.423   2.278  -0.074  0.3779  0.5517 -1.1940
  497MOL0     C68473   7.335   2.359  -0.122  0.5905  0.1750 -0.7115
  497MOL0     C68474   7.238   2.417  -0.029 -1.4552  0.2976  0.5422
  497MOL0     C68475   7.131   2.496  -0.074  0.2012 -0.2681 -0.0811
  497MOL0     C68476   7.035   2.542   0.030 -0.4280  0.7235 -0.3074
  497MOL0     C68477   7.120   2.515  -0.216  0.2903 -1.0219  1.1784
  497MOL0     C68478   7.019   2.611  -0.275 -0.7250  0.9334 -0.4695
  497MOL0     O68479   6.943   2.568  -0.378 -0.4567  0.4405  0.1290
  497MOL0     C68480   6.873   2.656  -0.465  0.3921  0.2053  0.9472
  497MOL0     C68481   6.927   2.705  -0.581 -0.2511 -0.9526 -0.0713
  497MOL0     C68482   6.867   2.810  -0.651  0.0306  0.9306 -0.8145
  497MOL0     C68483   6.735   2.846  -0.626 -0.1258 -0.1825  0.2069
  497MOL0     O68484   6.685   2.937  -0.721  0.6524  0.4385  0.7454
  497MOL0     C68485   6.549   2.977  -0.707 -0.1380 -0.6874  0.4546
  497MOL0     C68486   6.509   3.060  -0.830  0.2693 -0.8531  0.4272
  497MOL0     C68487   6.584   3.199  -0.842  0.2861 -0.5111  0.3502
  497MOL0     C68488   6.734   3.198  -0.858  0.2409  1.0296  0.4224
  497MOL0     C68489   6.772   3.345  -0.875 -0.3993  0.7752 -0.3401
  497MOL0     C68490   6.920   3.358  -0.916  0.2653  0.8307 -0.0400
  497MOL0     C68491   6.926   3.340  -1.065  0.8249 -0.0226 -0.2564
  497MOL0     C68492   7.035   3.406  -1.134  0.1030  0.0200  0.5154
  497MOL0    Cl68493   7.027   3.376  -1.316 -0.1389 -0.1825 -0.5091
  497MOL0     C68494   6.677   2.795  -0.502 -0.2087 -0.1297  0.6637
  497MOL0     C68495   6.742   2.702  -0.429 -1.1643  0.3139 -0.6146
  497MOL0     O68496   7.019   2.719  -0.224 -0.0695  0.6256  0.0164
  497MOL0     C68497   7.208   2.453  -0.305  0.4565 -0.8006 -0.0147
  497MOL0     C68498   7.304   2.368  -0.258 -0.6493  0.9962  0.2783
  497MOL0     N68499   7.996   2.315   0.029 -0.7836 -0.7800  0.4767
  497MOL0     N68500   8.096   2.260   0.068 -0.8318  0.9725  0.2726
  497MOL0     C68501   8.997   3.064   0.510 -0.2416  1.2703  0.4540
  497MOL0     C68502   8.971   3.197   0.554 -0.3557  0.1254  0.0487
  497MOL0     C68503   8.768   3.614   0.601 -0.3408  0.0870  1.3727
  497MOL0     C68504   8.726   3.618   0.737 -0.8334  0.2273 -0.5523
  497MOL0     C68505   8.715   3.740   0.800  0.8463 -0.0009 -0.2297
  497MOL0     C68506   8.726   3.859   0.725  0.2072  0.6278 -0.0366
  497MOL0     O68507   8.687   3.966   0.800  0.1630 -0.8475  0.0008
  497MOL0     C68508   8.725   4.100   0.750 -0.6126  0.3760 -0.5860
  497MOL0     C68509   8.635   4.214   0.807 -0.2688  0.5182  0.2298
  497MOL0     C68510   8.486   4.191   0.800  0.3603  0.3829 -0.2259
  497MOL0     C68511   8.420   4.311   0.855 -0.0839 -0.2725 -0.2132
  497MOL0     C68512   8.393   4.410   0.753  0.3922 -0.6161 -0.0448
  497MOL0     C68513   8.355   4.488   0.671 -0.5647  0.2105  0.5365
  497MOL0     C68514   8.771   3.856   0.605 -0.6631  0.1898  0.0331
  497MOL0     C68515   8.795   3.734   0.538  0.5173 -0.7343  0.0125
  497MOL0     C68516   8.842   3.751   0.396  0.3368  0.0602  0.1999
  497MOL0     H68517   8.644   3.227   0.485  1.4527  2.0852 -0.1836
  497MOL0     H68518   8.696   2.994   0.389 -0.2405  0.5605  1.1315
  497MOL0     H68519   8.961   2.784   0.572  0.7806 -1.4482 -0.9552
  497MOL0     H68520   8.969   2.685   0.430 -1.4336 -0.3812 -2.0350
  497MOL0     H68521   8.763   2.631   0.570  1.5930  0.6652  1.4611
  497MOL0     H68522   8.705   2.795   0.549  1.4307  0.9260 -0.6364
  497MOL0     H68523   8.685   2.743   0.304  0.4834 -3.8804 -3.9998
  497MOL0     H68524   8.762   2.584   0.337 -1.2532 -0.4217 -1.1563
  497MOL0     H68525   8.547   2.552   0.495 -1.3259 -0.7916 -2.0198
  497MOL0     H68526   8.505   2.702   0.418 -0.0935  1.1865 -6.2172
  497MOL0     H68527   8.598   2.439   0.292  1.2982 -0.1236  1.5189
  497MOL0     H68528   8.538   2.577   0.191  0.2828  0.6643  1.5621
  497MOL0     H68529   8.351   2.464   0.402  2.3127 -0.2579  0.4797
  497MOL0     H68530   8.313   2.565   0.261  0.2909  2.2901  3.7315
  497MOL0     H68531   8.443   2.307   0.223  0.1805  1.1149  0.7645
  497MOL0     H68532   8.342   2.386   0.112 -0.2821 -1.9831 -0.4397
  497MOL0     H68533   8.263   2.170   0.263  1.1578 -0.6219 -0.2500
  497MOL0     H68534   8.239   2.293   0.384  0.0726  2.3409 -0.4097
  497MOL0     H68535   7.972   2.424   0.340 -0.4304  1.1692 -1.6607
  497MOL0     H68536   7.815   2.535   0.060  2.7287  1.2897  2.6454
  497MOL0     H68537   7.766   2.480   0.223  2.2055 -2.6935  1.6013
  497MOL0     H68538   7.719   2.262   0.090  0.0980  0.9851  4.3310
  497MOL0     H68539   7.593   2.368   0.146  2.5074  1.1552  3.3128
  497MOL0     H68540   7.592   2.477  -0.078  3.5033  1.7322  1.9528
  497MOL0     H68541   7.729   2.377  -0.137  1.3746  1.6881  0.9506
  497MOL0     H68542   7.563   2.281  -0.231 -1.2191  4.3585 -0.6296
  497MOL0     H68543   7.595   2.173  -0.093 -1.6838 -0.0477  0.5568
  497MOL0     H68544   7.266   2.412   0.076  2.8035  0.9338 -0.3784
  497MOL0     H68545   7.030   2.651   0.026 -2.8883  0.6355 -3.1056
  497MOL0     H68546   7.069   2.493   0.122 -2.8316 -2.0183 -0.7249
  497MOL0     H68547   6.939   2.491   0.020 -0.6217  0.8230  0.9111
  497MOL0     H68548   7.028   2.677  -0.609 -0.6750 -7.4533  3.0061
  497MOL0     H68549   6.906   2.851  -0.744  2.7832 -1.9775 -1.1251
  497MOL0     H68550   6.487   2.887  -0.703  1.5965 -1.9760 -0.3523
  497MOL0     H68551   6.549   3.047  -0.623  2.2540  2.6803 -2.0812
  497MOL0     H68552   6.529   3.010  -0.926  0.0549  0.9225 -0.5938
  497MOL0     H68553   6.403   3.084  -0.827  0.5466  0.3863  0.9988
  497MOL0     H68554   6.573   3.245  -0.743 -0.5705  0.5160 -0.1989
  497MOL0     H68555   6.544   3.259  -0.924  1.8048  0.1011  0.0289
  497MOL0     H68556   6.749   3.142  -0.951  1.4519  2.4613 -0.3051
  497MOL0     H68557   6.799   3.139  -0.792 -0.2991 -0.3898 -0.2804
  497MOL0     H68558   6.708   3.407  -0.939 -1.3134 -0.6553 -0.8552
  497MOL0     H68559   6.764   3.394  -0.778 -2.2571 -0.7554  0.3272
  497MOL0     H68560   6.976   3.279  -0.866 -1.5670  1.6888  3.6670
  497MOL0     H68561   6.959   3.459  -0.900  1.4242  0.6379 -1.4094
  497MOL0     H68562   6.830   3.376  -1.103  0.1443 -0.4111  1.0050
  497MOL0     H68563   6.948   3.237  -1.093  0.1887  0.4684 -2.7463
  497MOL0     H68564   7.130   3.365  -1.100  0.4649  0.3807 -0.0497
  497MOL0     H68565   7.032   3.515  -1.127  1.2944  0.2219 -1.4798
  497MOL0     H68566   6.574   2.818  -0.473  0.1950  2.7819  0.0865
  497MOL0     H68567   6.693   2.664  -0.340 -1.9428 -0.1494 -1.2327
  497MOL0     H68568   7.187   2.461  -0.411 -1.7905 -0.0721  0.4238
  497MOL0     H68569   7.362   2.314  -0.331 -0.0175  1.6057  0.3167
  497MOL0     H68570   9.092   3.013   0.522 -1.3480 -0.6194  1.8056
  497MOL0     H68571   9.048   3.257   0.602  0.4053  2.2276 -3.5247
  497MOL0     H68572   8.706   3.524   0.787 -0.8357  0.1335 -0.7295
  497MOL0     H68573   8.685   3.755   0.903  1.5412  0.9411 -0.1494
  497MOL0     H68574   8.827   4.127   0.779 -1.0094  1.2619  0.0371
  497MOL0     H68575   8.726   4.117   0.642 -0.1114 -0.8553 -0.7933
  497MOL0     H68576   8.659   4.303   0.748 -0.9291  0.4055 -0.2174
  497MOL0     H68577   8.674   4.239   0.907 -0.0004  0.2667  0.1885
  497MOL0     H68578   8.455   4.178   0.696  0.8058  1.0149 -0.4459
  497MOL0     H68579   8.469   4.098   0.855 -0.0310  1.6462  1.9350
  497MOL0     H68580   8.474   4.363   0.935 -0.9168 -1.0879  0.9288
  497MOL0     H68581   8.328   4.287   0.909 -0.1861 -2.7164 -1.3333
  497MOL0     H68582   8.331   4.566   0.602  3.0658  0.1341 -1.0288
  497MOL0     H68583   8.805   3.947   0.557 -2.8001  2.2375  2.1869
  497MOL0     H68584   8.871   3.855   0.374  1.5453 -0.2830  0.0746
  497MOL0     H68585   8.922   3.680   0.375 -1.9809 -1.9773 -2.5823
  497MOL0     H68586   8.763   3.726   0.324  1.5170 -0.0694 -1.1112
  498MOL0     O68587   4.735   5.678   7.196  0.2463 -0.4425 -0.3228
  498MOL0     C68588   4.656   5.586   7.179  0.2956 -0.0891 -0.1371
  498MOL0     O68589   4.662   5.493   7.081  0.0850  0.2514  0.0300
  498MOL0     C68590   4.738   5.528   6.972 -0.0593  0.6040 -0.3653
  498MOL0     C68591   4.806   5.434   6.911  0.3806  0.2289 -0.2142
  498MOL0     C68592   4.881   5.466   6.796 -0.0649  0.7172  0.2389
  498MOL0     C68593   4.883   5.589   6.732 -0.3131  0.6401  0.2760
  498MOL0     O68594   4.945   5.600   6.605 -0.3444  0.0250 -0.4221
  498MOL0     C68595   4.957   5.735   6.543 -0.3543  0.2910  0.2965
  498MOL0     C68596   5.015   5.706   6.400 -0.3892  0.2076 -0.0483
  498MOL0     C68597   4.995   5.824   6.316  0.0601 -0.5139  0.5101
  498MOL0     C68598   5.024   5.791   6.171 -0.8144 -0.3569  0.0647
  498MOL0     C68599   5.000   5.912   6.085 -1.0086 -0.7725 -0.3696
  498MOL0     C68600   5.042   5.913   5.942  0.7814  0.7019 -0.6432
  498MOL0     C68601   4.955   5.838   5.847 -0.2604 -0.3212 -0.2514
  498MOL0     C68602   5.050   5.776   5.749 -0.1388  0.0235  1.0125
  498MOL0     N68603   4.964   5.702   5.652  0.4294 -1.0939  0.6454
  498MOL0     C68604   4.882   5.602   5.692 -0.6202 -0.8832  0.1744
  498MOL0     C68605   4.824   5.557   5.580 -0.2194  0.3123  0.0939
  498MOL0     C68606   4.726   5.440   5.568 -0.2568  0.4388  0.6477
  498MOL0     C68607   4.617   5.444   5.464 -0.2567 -0.3421  0.2382
  498MOL0     C68608   4.491   5.362   5.498  0.8807  0.4348 -0.0484
  498MOL0     C68609   4.528   5.219   5.523  0.3269 -0.3638 -0.1761
  498MOL0     O68610   4.417   5.142   5.557 -0.1357 -0.5353 -0.4512
  498MOL0     C68611   4.421   5.014   5.597  0.7297  0.4481  0.6585
  498MOL0     C68612   4.529   4.936   5.640  0.3450  0.4744  0.4793
  498MOL0     C68613   4.522   4.802   5.685  1.0017  0.4959 -0.4389
  498MOL0     C68614   4.657   4.730   5.715  0.1381 -0.3877  0.2464
  498MOL0     C68615   4.396   4.742   5.695 -0.3894  0.3715 -0.5008
  498MOL0     C68616   4.375   4.596   5.750  0.4908 -0.4004  0.1888
  498MOL0     O68617   4.249   4.553   5.729 -0.8268  0.1086 -0.4929
  498MOL0     C68618   4.219   4.419   5.743  0.0855  0.0508 -0.1774
  498MOL0     C68619   4.272   4.323   5.657 -0.1131 -0.7592 -1.4690
  498MOL0     C68620   4.268   4.188   5.673  0.9423  0.1951 -0.3626
  498MOL0     C68621   4.193   4.148   5.795  0.0178  1.0782 -0.2280
  498MOL0     O68622   4.194   4.020   5.848 -0.1597  0.1795  0.0999
  498MOL0     C68623   4.263   3.914   5.785 -0.6269  0.8174  0.2804
  498MOL0     C68624   4.406   3.936   5.826  0.2672  0.3140 -0.7199
  498MOL0     C68625   4.481   3.799   5.806  0.0930 -0.1181  0.0156
  498MOL0     C68626   4.506   3.764   5.658 -1.1009 -0.5748  0.1039
  498MOL0     C68627   4.568   3.624   5.659 -0.0667  0.0580 -0.2896
  498MOL0     C68628   4.721   3.645   5.665 -0.2633 -0.9936 -0.2443
  498MOL0     C68629   4.802   3.516   5.645  0.0986 -0.5342 -0.1860
  498MOL0     C68630   4.817   3.484   5.494 -0.0987 -0.3057 -0.4067
  498MOL0    Cl68631   4.927   3.344   5.470  0.6350  0.0543  0.3651
  498MOL0     C68632   4.125   4.246   5.873 -0.4389 -0.9547 -0.5113
  498MOL0     C68633   4.136   4.383   5.841 -0.2918 -0.1836 -0.8395
  498MOL0     O68634   4.454   4.541   5.827  0.1144  0.3048 -0.3573
  498MOL0     C68635   4.290   4.824   5.655  0.0335  0.0680  0.1420
  498MOL0     C68636   4.297   4.951   5.618 -0.6780  0.0423  0.2534
  498MOL0     N68637   4.868   5.640   5.476 -0.7174  0.8746 -0.5014
  498MOL0     N68638   4.952   5.725   5.523 -0.4499 -1.7922  0.5048
  498MOL0     C68639   4.802   5.688   6.796 -0.7859 -0.4246  0.0718
  498MOL0     C68640   4.728   5.652   6.908 -0.5683  0.4631  0.1081
  498MOL0     C68641   4.544   5.571   7.276 -0.7777 -0.1881 -1.1546
  498MOL0     C68642   4.446   5.470   7.242  0.1626  0.2446  0.2508
  498MOL0     C68643   4.326   5.456   7.314 -1.0189 -0.7199  0.5965
  498MOL0     C68644   4.315   5.531   7.436 -0.5401  0.4787  0.5776
  498MOL0     O68645   4.216   5.518   7.529 -0.1190  0.5751  0.1170
  498MOL0     C68646   4.097   5.447   7.484 -0.1116  0.1883  0.4407
  498MOL0     C68647   4.028   5.521   7.374  0.1317  0.2915  0.8446
  498MOL0     C68648   3.943   5.434   7.284  0.0410 -0.8379  0.8848
  498MOL0     C68649   3.851   5.520   7.200  0.3754 -0.7793 -0.1622
  498MOL0     C68650   3.730   5.545   7.279  0.5131 -0.9227 -0.0133
  498MOL0     C68651   3.618   5.553   7.329  0.1636 -0.1543  0.7531
  498MOL0     C68652   4.413   5.628   7.473  0.4875  0.4880  0.5474
  498MOL0     C68653   4.526   5.657   7.386  0.5340  0.4112 -0.1108
  498MOL0     C68654   4.625   5.761   7.429  0.8333  1.4197  0.1570
  498MOL0     H68655   4.810   5.329   6.937  2.3271  0.2745 -0.2257
  498MOL0     H68656   4.932   5.384   6.747 -3.1007  0.3208 -2.5812
  498MOL0     H68657   5.026   5.807   6.588  0.3105  0.9646 -1.6812
  498MOL0     H68658   4.858   5.781   6.532  0.3135  1.6011 -0.5311
  498MOL0     H68659   5.124   5.694   6.412 -0.4877  1.2953  2.6025
  498MOL0     H68660   4.968   5.615   6.361  1.7262 -0.2304 -1.8277
  498MOL0     H68661   4.889   5.846   6.329 -0.1644 -1.0856 -0.2778
  498MOL0     H68662   5.055   5.909   6.350  1.3121 -1.6313  1.2353
  498MOL0     H68663   5.123   5.746   6.159 -0.8300  0.3637 -4.5068
  498MOL0     H68664   4.959   5.710   6.136  1.5344 -1.9333 -0.9165
  498MOL0     H68665   5.066   5.990   6.124  1.2836 -2.2515 -1.1218
  498MOL0     H68666   4.894   5.938   6.095 -0.6650  0.4354  0.3232
  498MOL0     H68667   5.040   6.016   5.907 -0.4863  0.5278 -1.1212
  498MOL0     H68668   5.144   5.871   5.940 -0.3966 -2.7208  1.6432
  498MOL0     H68669   4.881   5.908   5.809 -0.8263 -0.4222  0.6352
  498MOL0     H68670   4.887   5.763   5.890  2.0602 -2.9204 -0.7735
  498MOL0     H68671   5.125   5.846   5.711  1.0043 -1.4600  0.4115
  498MOL0     H68672   5.115   5.698   5.790 -0.1545 -0.9265 -0.6342
  498MOL0     H68673   4.890   5.547   5.785  0.3181 -0.0258  0.6210
  498MOL0     H68674   4.677   5.439   5.665  1.8137 -4.4213  1.9771
  498MOL0     H68675   4.786   5.350   5.551  1.2580  1.8149 -1.8596
  498MOL0     H68676   4.589   5.548   5.444 -1.6177 -0.7851 -0.3001
  498MOL0     H68677   4.664   5.411   5.371  0.8926  1.4732  0.1364
  498MOL0     H68678   4.436   5.409   5.580  0.7076  0.5897 -0.2500
  498MOL0     H68679   4.418   5.355   5.416 -0.5500 -3.6044  1.3598
  498MOL0     H68680   4.580   5.181   5.434 -1.0458 -2.2683 -0.2417
  498MOL0     H68681   4.600   5.217   5.605 -1.4090  0.1994  1.4382
  498MOL0     H68682   4.625   4.986   5.631  1.4455 -1.4552  0.9397
  498MOL0     H68683   4.736   4.750   5.641 -0.6751 -3.6039 -1.6736
  498MOL0     H68684   4.658   4.622   5.702  2.7754 -0.6705  1.9359
  498MOL0     H68685   4.679   4.763   5.817 -0.2637  1.7802 -0.3132
  498MOL0     H68686   4.319   4.379   5.577 -2.1952  1.3533 -1.3210
  498MOL0     H68687   4.320   4.113   5.614  1.0219 -1.1521  1.3242
  498MOL0     H68688   4.226   3.817   5.820 -2.7927  0.6371 -2.2258
  498MOL0     H68689   4.253   3.928   5.677  0.7230 -0.5604 -0.0579
  498MOL0     H68690   4.448   4.019   5.769 -0.2575  2.6496  2.0625
  498MOL0     H68691   4.421   3.961   5.932  0.0925  1.1282 -0.8816
  498MOL0     H68692   4.432   3.718   5.861  1.9815  0.1783  2.3014
  498MOL0     H68693   4.578   3.813   5.855  0.1373  1.0891 -0.3943
  498MOL0     H68694   4.559   3.844   5.606 -1.3067  0.5756  1.5929
  498MOL0     H68695   4.405   3.764   5.616 -2.7065 -2.0669  3.5731
  498MOL0     H68696   4.525   3.571   5.745  0.6152  3.2698  2.2422
  498MOL0     H68697   4.542   3.584   5.561  0.2297  0.5073 -0.5561
  498MOL0     H68698   4.750   3.690   5.760 -3.0144  0.8209 -0.1725
  498MOL0     H68699   4.755   3.717   5.590  0.1127  1.4077  2.0809
  498MOL0     H68700   4.744   3.431   5.683  1.8446 -2.0475 -0.7779
  498MOL0     H68701   4.899   3.516   5.696 -0.7330 -0.1390  1.4636
  498MOL0     H68702   4.859   3.568   5.437  2.2129 -1.0528  0.0909
  498MOL0     H68703   4.718   3.456   5.459  0.2261  0.0406 -1.6667
  498MOL0     H68704   4.066   4.224   5.962 -1.6875  2.0432 -0.4697
  498MOL0     H68705   4.088   4.455   5.907  1.7612 -2.3600  3.5145
  498MOL0     H68706   4.191   4.781   5.673  1.2104 -3.1391 -0.3313
  498MOL0     H68707   4.210   5.015   5.602  0.5028  1.3332 -1.4404
  498MOL0     H68708   4.784   5.789   6.762 -3.3477 -1.2239 -1.2764
  498MOL0     H68709   4.668   5.736   6.941  1.2824  2.0762 -0.4441
  498MOL0     H68710   4.474   5.407   7.158 -0.3686  0.0581  0.2093
  498MOL0     H68711   4.274   5.370   7.274 -1.4153  0.2968 -1.1913
  498MOL0     H68712   4.119   5.351   7.437 -5.4507  0.1701 -2.8927
  498MOL0     H68713   4.030   5.419   7.565 -0.6894  2.6149  0.8794
  498MOL0     H68714   4.096   5.577   7.309 -0.9648  0.3906 -0.2580
  498MOL0     H68715   3.963   5.589   7.430 -1.4512 -1.7524  1.6364
  498MOL0     H68716   4.000   5.377   7.210 -0.8836  1.1057 -1.5013
  498MOL0     H68717   3.901   5.353   7.344  3.8417 -3.5980  0.2188
  498MOL0     H68718   3.823   5.465   7.110  2.6150  0.5824 -1.7707
  498MOL0     H68719   3.889   5.621   7.180  1.5354 -1.5553 -2.1596
  498MOL0     H68720   3.518   5.554   7.368 -1.0984  2.6634 -2.0993
  498MOL0     H68721   4.386   5.666   7.571  1.9597 -0.6928  1.4687
  498MOL0     H68722   4.588   5.814   7.517 -2.3553 -0.3504  0.0231
  498MOL0     H68723   4.720   5.722   7.468  0.7673  1.9096  0.8325
  498MOL0     H68724   4.646   5.831   7.348  1.8145  0.1807 -0.6928
  499MOL0     O68725   1.053   9.739   7.502 -0.8686 -0.5085 -0.0951
  499MOL0     C68726   1.154   9.809   7.477  0.1144  0.6651 -0.6218
  499MOL0     O68727   1.176   9.944   7.515  0.4343  0.5275  0.3272
  499MOL0     C68728   1.075  10.024   7.556 -0.2495 -0.4656 -0.4089
  499MOL0     C68729   1.081  10.160   7.513  0.2401  0.0923 -0.3844
  499MOL0     C68730   1.002  10.255   7.584  0.0238 -1.4909  0.7715
  499MOL0     C68731   0.906  10.221   7.677  0.1270  0.3436 -0.5860
  499MOL0     O68732   0.825  10.321   7.727 -0.7492  0.4758 -0.4213
  499MOL0     C68733   0.760  10.334   7.860  0.1435  0.5896  0.0276
  499MOL0     C68734   0.871  10.359   7.977  0.1483  0.0501  1.0695
  499MOL0     C68735   0.798  10.389   8.112  0.6155 -0.4264  0.1965
  499MOL0     C68736   0.898  10.467   8.207  0.0466  0.0097  0.7791
  499MOL0     C68737   0.823  10.491   8.332 -0.1171 -0.5057 -0.9434
  499MOL0     C68738   0.934  10.516   8.441 -0.5438 -0.9425 -0.0948
  499MOL0     C68739   0.894  10.489   8.586 -0.3345  0.7156 -0.1839
  499MOL0     C68740   0.790  10.596   8.631  0.3471 -0.1468 -0.5818
  499MOL0     N68741   0.763  10.575   8.770 -0.4423  0.3171 -0.1615
  499MOL0     C68742   0.852  10.602   8.878 -0.5028 -0.5213  0.0391
  499MOL0     C68743   0.771  10.588   8.985  0.2776  0.5192 -1.1959
  499MOL0     C68744   0.834  10.604   9.121  0.6798 -0.3908 -0.3210
  499MOL0     C68745   0.868  10.477   9.198 -0.4554  0.2638  0.6782
  499MOL0     C68746   0.854  10.508   9.346  0.3636  0.4964 -0.0246
  499MOL0     C68747   0.944  10.614   9.408  0.4902 -0.0832  0.0685
  499MOL0     O68748   0.915  10.611   9.551 -0.7748 -0.6852 -0.0591
  499MOL0     C68749   0.996  10.674   9.643 -0.4856 -1.1373 -0.7103
  499MOL0     C68750   0.960  10.679   9.782  1.0402  1.0378 -0.1287
  499MOL0     C68751   1.019  10.755   9.882 -0.5364  0.4614  0.0548
  499MOL0     C68752   0.944  10.759  10.012 -0.9582  0.3292 -0.0313
  499MOL0     C68753   1.132  10.830   9.852 -0.1760 -0.0147  0.0863
  499MOL0     C68754   1.201  10.916   9.940  1.1301 -1.2003 -0.1484
  499MOL0     O68755   1.311  10.968   9.889 -0.4482  0.1553  0.0612
  499MOL0     C68756   1.407  11.027   9.971  0.2357 -0.4321  0.0827
  499MOL0     C68757   1.496  10.941  10.032 -0.2675  0.7653  0.1867
  499MOL0     C68758   1.594  10.998  10.118 -0.0881 -1.0484 -0.7842
  499MOL0     C68759   1.602  11.138  10.147 -0.2069 -0.8745 -0.6624
  499MOL0     O68760   1.692  11.203  10.225  0.2680 -0.3305 -0.1212
  499MOL0     C68761   1.803  11.147  10.287  0.2127 -0.6756 -1.4364
  499MOL0     C68762   1.883  11.236  10.392  0.3341 -0.4965 -0.0797
  499MOL0     C68763   1.986  11.156  10.483 -0.7534  0.7186 -0.3516
  499MOL0     C68764   2.069  11.253  10.564  0.0513  0.5249 -0.0884
  499MOL0     C68765   2.158  11.193  10.678  0.3219 -0.0668  0.5870
  499MOL0     C68766   2.177  11.295  10.786 -0.1505 -0.4603 -0.7180
  499MOL0     C68767   2.260  11.412  10.740 -0.1825  0.3108  0.9941
  499MOL0     C68768   2.286  11.495  10.864 -0.1450  0.0473  0.0850
  499MOL0    Cl68769   2.409  11.433  10.973 -0.1430 -0.0846 -0.3646
  499MOL0     C68770   1.500  11.224  10.081  0.2049  0.0368 -0.3645
  499MOL0     C68771   1.408  11.160  10.002 -0.7685  0.0138 -0.8832
  499MOL0     O68772   1.151  10.944  10.045 -0.9110 -0.1767  0.3170
  499MOL0     C68773   1.174  10.824   9.715  0.3175 -0.2346 -0.5083
  499MOL0     C68774   1.107  10.752   9.618  0.0423 -0.5505 -0.1980
  499MOL0     N68775   0.653  10.542   8.947  0.4579 -0.0628  0.9828
  499MOL0     N68776   0.647  10.529   8.817 -0.4856  0.9079  0.1900
  499MOL0     C68777   0.909  10.083   7.719  0.2029 -0.5550  0.9718
  499MOL0     C68778   0.993   9.989   7.667 -0.2411 -0.1521  0.7934
  499MOL0     C68779   1.263   9.745   7.402  0.3118  0.6979 -0.1603
  499MOL0     C68780   1.256   9.599   7.394 -0.0056  0.0439  0.1074
  499MOL0     C68781   1.354   9.529   7.329  0.2253  0.7377 -0.6048
  499MOL0     C68782   1.452   9.603   7.268  0.9842  0.5762 -0.4588
  499MOL0     O68783   1.540   9.518   7.199 -0.1642 -0.0621 -0.2209
  499MOL0     C68784   1.639   9.573   7.122  1.8438  0.2561  0.0121
  499MOL0     C68785   1.703   9.463   7.043  0.0958 -0.5908  1.2947
  499MOL0     C68786   1.833   9.513   6.968  0.6645 -0.0884  1.0002
  499MOL0     C68787   1.854   9.466   6.832  1.2634 -0.2527  0.1269
  499MOL0     C68788   1.988   9.425   6.808 -0.3982  0.3230 -0.3284
  499MOL0     C68789   2.091   9.359   6.798 -0.0950 -0.0715  0.3751
  499MOL0     C68790   1.465   9.737   7.269 -0.0462 -0.7195 -0.5011
  499MOL0     C68791   1.366   9.812   7.340 -0.6819  0.5931  0.2690
  499MOL0     C68792   1.377   9.966   7.320 -1.0092  0.4901 -0.2362
  499MOL0     H68793   1.146  10.188   7.431  0.5084  0.2530 -0.1169
  499MOL0     H68794   0.998  10.351   7.535 -0.2429 -1.7225  0.3292
  499MOL0     H68795   0.692  10.254   7.890 -1.2852  1.6490 -0.2876
  499MOL0     H68796   0.694  10.421   7.864 -1.1851 -0.4313  1.2033
  499MOL0     H68797   0.932  10.268   7.984 -0.4245 -0.3750  0.6231
  499MOL0     H68798   0.935  10.445   7.956  0.2160 -0.1101  0.6098
  499MOL0     H68799   0.711  10.453   8.095  0.6657 -0.5706 -0.6146
  499MOL0     H68800   0.752  10.298   8.151 -0.8913  0.3838  0.3712
  499MOL0     H68801   0.976  10.394   8.231 -0.2978 -1.0653 -1.1394
  499MOL0     H68802   0.932  10.559   8.158 -0.6748 -0.3353 -0.4171
  499MOL0     H68803   0.762  10.402   8.353  1.1268 -1.0107  0.7751
  499MOL0     H68804   0.751  10.572   8.323 -2.5177 -2.0976  2.0491
  499MOL0     H68805   1.009  10.437   8.431  4.1919  3.1912 -1.8439
  499MOL0     H68806   0.997  10.605   8.430 -2.3532  0.5150  0.8012
  499MOL0     H68807   0.985  10.487   8.646 -0.3312 -1.6769 -0.1833
  499MOL0     H68808   0.849  10.389   8.592 -0.3339  0.7642  0.8066
  499MOL0     H68809   0.827  10.698   8.616  2.0523 -0.6502 -0.0068
  499MOL0     H68810   0.696  10.584   8.576  1.2464 -3.6980 -1.6266
  499MOL0     H68811   0.956  10.629   8.866 -0.6406 -0.3472 -0.8378
  499MOL0     H68812   0.768  10.667   9.181 -1.7725 -1.8233 -1.3669
  499MOL0     H68813   0.926  10.658   9.097  0.0320 -0.4259 -3.2867
  499MOL0     H68814   0.797  10.400   9.165 -3.6497  2.1540  2.5645
  499MOL0     H68815   0.975  10.459   9.189 -0.1949  1.6454  0.8471
  499MOL0     H68816   0.747  10.501   9.367  0.2305  0.1885 -0.7732
  499MOL0     H68817   0.880  10.419   9.404  0.8161  1.1863  0.8706
  499MOL0     H68818   1.050  10.594   9.386  0.0316 -1.1376 -1.3677
  499MOL0     H68819   0.915  10.707   9.359 -4.8184 -1.8544 -0.7283
  499MOL0     H68820   0.864  10.631   9.799  0.2099  1.8427 -2.1861
  499MOL0     H68821   0.896  10.858  10.010 -3.2333 -0.7064 -0.3987
  499MOL0     H68822   1.016  10.757  10.094 -0.5957 -0.6346 -0.3566
  499MOL0     H68823   0.868  10.683  10.031  1.7068 -2.1772  1.2844
  499MOL0     H68824   1.502  10.834  10.018  3.9500  1.1183 -2.7905
  499MOL0     H68825   1.667  10.932  10.162  0.4642  0.2532  0.3182
  499MOL0     H68826   1.770  11.064  10.350 -0.8971  0.5261 -0.3737
  499MOL0     H68827   1.876  11.112  10.214 -0.9998  1.1522 -3.6531
  499MOL0     H68828   1.944  11.308  10.337  1.4578 -1.6766 -0.4238
  499MOL0     H68829   1.815  11.287  10.461  1.2401 -1.3292  1.4821
  499MOL0     H68830   2.051  11.104  10.413 -0.5102 -0.3287  0.6314
  499MOL0     H68831   1.947  11.073  10.542 -0.3968  0.0514 -1.0406
  499MOL0     H68832   2.005  11.330  10.607 -0.7941  0.3050 -0.9147
  499MOL0     H68833   2.139  11.300  10.494 -1.0758 -1.1223 -2.4658
  499MOL0     H68834   2.101  11.113  10.726  1.2068  0.2360  2.2217
  499MOL0     H68835   2.249  11.151  10.634  1.2188  2.9901 -0.7555
  499MOL0     H68836   2.228  11.255  10.874 -2.1553  2.3211  1.9420
  499MOL0     H68837   2.080  11.334  10.819 -0.3359 -1.1902 -0.3708
  499MOL0     H68838   2.217  11.466  10.655  2.1083  0.1661 -0.3028
  499MOL0     H68839   2.355  11.378  10.700 -0.4604  3.2861 -2.7956
  499MOL0     H68840   2.201  11.535  10.920 -0.5016  4.0246 -2.8417
  499MOL0     H68841   2.332  11.584  10.821 -1.9972 -0.5849 -3.6476
  499MOL0     H68842   1.491  11.332  10.081  0.4983  0.1204  2.2357
  499MOL0     H68843   1.337  11.231   9.961  1.7279  3.0616 -0.3453
  499MOL0     H68844   1.245  10.891   9.668 -0.3681  1.7148  1.0674
  499MOL0     H68845   1.136  10.762   9.514 -0.0999  2.0615 -0.0563
  499MOL0     H68846   0.845  10.056   7.803 -0.2450  1.0388  1.1731
  499MOL0     H68847   0.989   9.894   7.718 -0.2040 -2.1354 -2.6120
  499MOL0     H68848   1.173   9.541   7.432  0.0907 -0.5786 -0.5952
  499MOL0     H68849   1.347   9.422   7.314 -1.0320  0.8886 -1.2567
  499MOL0     H68850   1.603   9.651   7.053  3.1238  2.0523  1.2824
  499MOL0     H68851   1.717   9.614   7.186 -0.4101  2.0800  1.7433
  499MOL0     H68852   1.623   9.443   6.972  1.6015  1.4902 -1.1694
  499MOL0     H68853   1.738   9.383   7.110  1.3908 -1.3941 -0.2763
  499MOL0     H68854   1.837   9.623   6.964 -0.1046 -0.0548 -3.0531
  499MOL0     H68855   1.922   9.482   7.023  3.5199  1.9378 -2.0635
  499MOL0     H68856   1.819   9.546   6.766 -0.1694 -1.0402 -0.1235
  499MOL0     H68857   1.790   9.377   6.823  0.5299 -0.0315  2.5575
  499MOL0     H68858   2.167   9.285   6.782  0.1001  0.1674  0.1914
  499MOL0     H68859   1.546   9.787   7.217  2.1719 -1.4829  1.9926
  499MOL0     H68860   1.288  10.001   7.266 -2.7833 -2.7729  0.3347
  499MOL0     H68861   1.374  10.005   7.423  0.4654  2.2354 -0.8017
  499MOL0     H68862   1.465  10.001   7.266 -1.1126  1.3040  0.1091
  500MOL0     O68863   9.399   1.759   6.541  0.2772  0.1361  0.5964
  500MOL0     C68864   9.507   1.801   6.503 -0.0641  0.1356 -0.4534
  500MOL0     O68865   9.580   1.868   6.574 -0.4986 -0.2136 -0.4147
  500MOL0     C68866   9.555   1.893   6.707  0.2631 -0.2342 -0.6689
  500MOL0     C68867   9.511   2.019   6.750  0.6567 -0.0368  0.2032
  500MOL0     C68868   9.492   2.050   6.885  0.3124  0.5786  0.3780
  500MOL0     C68869   9.487   1.954   6.983 -0.1007 -0.5252  0.9843
  500MOL0     O68870   9.436   1.983   7.106 -0.1006 -0.3614 -0.0501
  500MOL0     C68871   9.517   2.073   7.181 -0.4234  0.0010  0.8637
  500MOL0     C68872   9.465   2.104   7.312 -0.2879  0.1877  0.3364
  500MOL0     C68873   9.536   2.210   7.384  0.3459  0.3945  0.4526
  500MOL0     C68874   9.662   2.146   7.448 -0.0552  0.6019  0.3095
  500MOL0     C68875   9.727   2.258   7.528 -0.0499 -0.3503 -0.0522
  500MOL0     C68876   9.847   2.197   7.607 -0.4148 -0.9759  0.0239
  500MOL0     C68877   9.920   2.285   7.706 -0.0728 -0.2923 -0.0219
  500MOL0     C68878   9.965   2.421   7.661 -0.4469 -0.2079  0.5311
  500MOL0     N68879  10.080   2.415   7.566 -0.2497 -0.2758  0.1040
  500MOL0     C68880  10.081   2.374   7.437 -0.2490 -0.8679 -0.3007
  500MOL0     C68881  10.201   2.383   7.391  0.9133  0.0973  0.2243
  500MOL0     C68882  10.230   2.332   7.254 -0.7070  0.6711  0.3892
  500MOL0     C68883  10.244   2.441   7.146  0.9395 -0.6515 -0.5811
  500MOL0     C68884  10.241   2.387   6.999  0.6309  0.3770  0.7737
  500MOL0     C68885  10.379   2.326   6.961 -0.3845  0.0660  0.7443
  500MOL0     O68886  10.470   2.442   6.933 -1.0199  1.0386 -0.3813
  500MOL0     C68887  10.577   2.413   6.862  0.3542 -0.8462  0.1006
  500MOL0     C68888  10.632   2.529   6.804 -0.1851  1.0315 -0.1939
  500MOL0     C68889  10.746   2.523   6.728  0.3010  0.2817  0.3251
  500MOL0     C68890  10.781   2.663   6.676 -0.2983  0.4599  0.3826
  500MOL0     C68891  10.806   2.395   6.703 -0.5868  0.0583 -0.1744
  500MOL0     C68892  10.936   2.373   6.632 -0.5773 -1.1893  0.6101
  500MOL0     O68893  10.965   2.252   6.573 -0.5849 -0.2287 -0.9912
  500MOL0     C68894  11.077   2.238   6.502 -0.9981  0.0479 -0.3080
  500MOL0     C68895  11.126   2.339   6.414 -0.2685  0.1910 -0.2603
  500MOL0     C68896  11.240   2.315   6.337 -0.7763  0.4548  1.0828
  500MOL0     C68897  11.318   2.201   6.346  0.5428 -0.2577  0.7610
  500MOL0     O68898  11.438   2.172   6.273 -0.1137  0.2734 -0.8251
  500MOL0     C68899  11.493   2.286   6.206 -0.0107 -0.3026 -0.3261
  500MOL0     C68900  11.627   2.245   6.149 -1.2399  0.0479  0.1969
  500MOL0     C68901  11.691   2.360   6.061  0.2470  0.1360 -1.1859
  500MOL0     C68902  11.829   2.344   5.999 -0.4487  0.6976  0.1437
  500MOL0     C68903  11.847   2.230   5.898  0.4784  0.3439 -0.0218
  500MOL0     C68904  11.966   2.249   5.809 -0.3119 -0.0955 -0.0375
  500MOL0     C68905  11.977   2.134   5.699  0.8075  0.4381 -0.0389
  500MOL0     C68906  12.090   2.153   5.593  0.6563 -0.2794 -0.0995
  500MOL0    Cl68907  12.137   2.002   5.533 -0.4180 -0.3685  0.0657
  500MOL0     C68908  11.269   2.097   6.432  0.7343 -0.4225  0.3943
  500MOL0     C68909  11.149   2.119   6.507  0.1297  0.4152 -1.1050
  500MOL0     O68910  11.011   2.471   6.634 -0.2139  0.4625 -0.1970
  500MOL0     C68911  10.758   2.277   6.769  0.1233 -0.8458 -0.5225
  500MOL0     C68912  10.647   2.293   6.850 -0.4077  0.6142  0.4196
  500MOL0     N68913  10.288   2.421   7.492  0.5512 -0.0180 -0.5555
  500MOL0     N68914  10.211   2.452   7.592 -0.9416  0.5400  0.5709
  500MOL0     C68915   9.527   1.829   6.935  0.0415  0.1008 -0.2046
  500MOL0     C68916   9.558   1.794   6.799 -0.9361  0.6691 -0.6111
  500MOL0     C68917   9.543   1.788   6.351 -0.1365 -0.0673  0.0303
  500MOL0     C68918   9.454   1.718   6.265  0.0133 -0.2650  0.0436
  500MOL0     C68919   9.489   1.693   6.133 -0.0912  0.4348  0.2388
  500MOL0     C68920   9.614   1.730   6.081  0.7444  0.5259 -0.0449
  500MOL0     O68921   9.648   1.687   5.959  0.1555  0.2042  0.3488
  500MOL0     C68922   9.597   1.792   5.868  0.1247 -0.3521 -0.2727
  500MOL0     C68923   9.554   1.730   5.739 -0.6350  0.2614 -0.4022
  500MOL0     C68924   9.426   1.651   5.747  0.6019  0.3754 -0.0924
  500MOL0     C68925   9.298   1.740   5.756  0.2224 -0.4493  0.1650
  500MOL0     C68926   9.224   1.701   5.876 -0.2343 -0.6468 -0.0795
  500MOL0     C68927   9.153   1.662   5.966  0.1578 -0.6047  0.7266
  500MOL0     C68928   9.699   1.811   6.155  0.2814  0.4081  0.0770
  500MOL0     C68929   9.660   1.843   6.289 -0.7741  0.4184 -0.4508
  500MOL0     C68930   9.738   1.953   6.358  0.4107 -1.3840 -0.9670
  500MOL0     H68931   9.499   2.081   6.662 -1.9267  0.2176  0.6518
  500MOL0     H68932   9.467   2.154   6.902 -0.2944  0.4005  0.6106
  500MOL0     H68933   9.530   2.169   7.130  1.9599 -1.9529 -2.6680
  500MOL0     H68934   9.618   2.033   7.184 -0.7176 -0.7097  1.6824
  500MOL0     H68935   9.370   2.153   7.289 -2.3374 -3.4598  0.3166
  500MOL0     H68936   9.455   2.010   7.368 -5.3223  0.7100  0.8541
  500MOL0     H68937   9.554   2.296   7.319 -0.3555  0.0583 -0.2030
  500MOL0     H68938   9.465   2.253   7.455 -2.2875 -0.4277 -1.5445
  500MOL0     H68939   9.648   2.052   7.502  2.2259  0.9662  1.7005
  500MOL0     H68940   9.729   2.127   7.364 -1.5512  0.6267 -0.9386
  500MOL0     H68941   9.649   2.297   7.594 -0.6058 -1.0185 -0.2941
  500MOL0     H68942   9.770   2.330   7.458 -2.5339  2.2303  0.8460
  500MOL0     H68943   9.830   2.096   7.644  1.3296 -0.5330  2.2075
  500MOL0     H68944   9.928   2.177   7.536  0.0183 -0.9834  0.5193
  500MOL0     H68945  10.007   2.237   7.751  2.4161  1.6762 -2.4173
  500MOL0     H68946   9.847   2.307   7.785 -3.3441 -0.2076 -2.8214
  500MOL0     H68947   9.883   2.477   7.618 -0.9795 -0.8072  0.7514
  500MOL0     H68948  10.013   2.457   7.753 -1.3472 -1.0769  1.3687
  500MOL0     H68949   9.997   2.342   7.377 -2.2963  2.2530  0.6671
  500MOL0     H68950  10.162   2.256   7.216  0.1975 -0.7663  1.5524
  500MOL0     H68951  10.326   2.281   7.244 -0.6925  0.8672 -0.5378
  500MOL0     H68952  10.155   2.503   7.160  1.4769 -0.1089  0.5459
  500MOL0     H68953  10.325   2.512   7.168 -1.6737  1.5405  3.1017
  500MOL0     H68954  10.159   2.317   6.979 -0.5822  1.3482  2.0947
  500MOL0     H68955  10.215   2.470   6.932 -0.6867 -0.0421  0.7381
  500MOL0     H68956  10.424   2.269   7.044  4.0881  2.5450  0.3502
  500MOL0     H68957  10.364   2.263   6.873 -0.0580  0.6947  0.2335
  500MOL0     H68958  10.582   2.622   6.827  0.2950  1.3620 -0.4776
  500MOL0     H68959  10.873   2.701   6.722  2.7512 -0.7114 -4.0968
  500MOL0     H68960  10.698   2.734   6.675 -0.3310  0.4734 -1.9490
  500MOL0     H68961  10.814   2.670   6.572  1.1832 -0.4577  0.7587
  500MOL0     H68962  11.074   2.434   6.405 -0.6698  0.1965  1.7877
  500MOL0     H68963  11.273   2.396   6.272 -0.6106 -0.7866 -0.4614
  500MOL0     H68964  11.437   2.303   6.114 -0.4088 -4.4356 -1.0325
  500MOL0     H68965  11.504   2.380   6.262 -0.1731 -0.2003 -0.4647
  500MOL0     H68966  11.690   2.232   6.237  1.9631  1.2944 -1.7382
  500MOL0     H68967  11.620   2.157   6.083 -2.0334  1.3550 -1.5514
  500MOL0     H68968  11.698   2.439   6.136 -3.7558 -0.7293  0.3708
  500MOL0     H68969  11.618   2.381   5.982 -1.3252 -3.2093 -0.7910
  500MOL0     H68970  11.902   2.331   6.079 -0.5377 -0.0492  0.1102
  500MOL0     H68971  11.848   2.437   5.945  0.7234  0.7555  0.6381
  500MOL0     H68972  11.851   2.132   5.947 -2.6003  1.0064  1.8777
  500MOL0     H68973  11.754   2.230   5.840  0.3007 -1.8915  0.1690
  500MOL0     H68974  12.055   2.244   5.872 -1.5566 -1.2965  1.7162
  500MOL0     H68975  11.961   2.342   5.751  2.1589 -0.2304 -0.5659
  500MOL0     H68976  11.882   2.130   5.645 -0.4585 -0.7819  2.1486
  500MOL0     H68977  11.985   2.037   5.750 -0.1944 -1.2764 -2.9004
  500MOL0     H68978  12.179   2.201   5.636 -2.0146  3.0776  2.2741
  500MOL0     H68979  12.065   2.210   5.503  0.4463 -1.6007 -0.8954
  500MOL0     H68980  11.324   2.003   6.438 -0.4762 -1.1746 -0.0234
  500MOL0     H68981  11.128   2.050   6.589 -0.4852  2.2187  0.3244
  500MOL0     H68982  10.800   2.182   6.737  4.0141  1.9153 -4.6457
  500MOL0     H68983  10.609   2.195   6.879 -1.5903  0.8766 -0.1906
  500MOL0     H68984   9.526   1.750   7.010 -0.1819  0.2467 -0.0527
  500MOL0     H68985   9.581   1.692   6.769  0.2562  0.4723  0.8341
  500MOL0     H68986   9.369   1.676   6.319  0.2126  3.3474  3.7692
  500MOL0     H68987   9.414   1.646   6.070 -0.3542  0.0109  0.8548
  500MOL0     H68988   9.510   1.845   5.907  0.0754  1.3900 -2.5560
  500MOL0     H68989   9.689   1.851   5.868  0.2488 -0.4013  2.4787
  500MOL0     H68990   9.629   1.658   5.705 -2.5852 -1.4175 -1.4158
  500MOL0     H68991   9.566   1.804   5.659 -0.3178  0.8764  0.2094
  500MOL0     H68992   9.421   1.579   5.665  3.1644  1.3646 -1.2029
  500MOL0     H68993   9.427   1.597   5.843  0.0771  1.6327  0.6466
  500MOL0     H68994   9.234   1.713   5.672 -2.7867 -2.8150  2.9456
  500MOL0     H68995   9.310   1.848   5.742 -3.5068  0.1145  0.2966
  500MOL0     H68996   9.094   1.611   6.039  0.0123  0.3012  1.2653
  500MOL0     H68997   9.793   1.842   6.112  2.2120 -0.0890  3.6123
  500MOL0     H68998   9.801   2.010   6.289 -0.2425  2.7552  1.5095
  500MOL0     H68999   9.668   2.022   6.407  0.6379 -2.1920  0.5502
  500MOL0     H69000   9.800   1.916   6.439  1.0447 -2.3426 -1.8621
  501MOL0     O69001   3.552  10.525   7.148  0.6697  0.4640 -0.2195
  501MOL0     C69002   3.464  10.598   7.105  0.5510  0.1324 -1.0051
  501MOL0     O69003   3.435  10.723   7.149  0.1989 -0.2733  0.0454
  501MOL0     C69004   3.494  10.757   7.263  0.7061 -0.9060 -0.0102
  501MOL0     C69005   3.596  10.854   7.256  0.1752 -0.0779 -0.1395
  501MOL0     C69006   3.654  10.897   7.379 -0.1899  0.2746 -0.5576
  501MOL0     C69007   3.621  10.837   7.500  0.2963  0.2448  0.4264
  501MOL0     O69008   3.689  10.877   7.609 -0.2417  0.1477 -0.3573
  501MOL0     C69009   3.630  10.871   7.738  0.7727  0.3339  0.7119
  501MOL0     C69010   3.694  10.971   7.831 -0.9504  0.8070  0.0053
  501MOL0     C69011   3.624  10.954   7.965 -0.3059  0.7942 -0.2668
  501MOL0     C69012   3.680  11.039   8.073  0.0726 -0.4366 -0.7146
  501MOL0     C69013   3.591  11.020   8.200 -0.2782  0.1551  1.3290
  501MOL0     C69014   3.540  11.154   8.269  0.0052  0.5712  0.6351
  501MOL0     C69015   3.423  11.122   8.367  0.5176  0.3221  0.0255
  501MOL0     C69016   3.386  11.243   8.444  0.4995 -0.9254 -0.2833
  501MOL0     N69017   3.336  11.353   8.361 -0.0110 -0.6980  0.7048
  501MOL0     C69018   3.417  11.447   8.292 -0.2363 -0.2311  0.0091
  501MOL0     C69019   3.343  11.556   8.253 -0.6822  0.2539  0.9356
  501MOL0     C69020   3.381  11.679   8.184 -0.2873 -0.2183 -0.2209
  501MOL0     C69021   3.327  11.664   8.041 -0.4652  0.2475 -1.3957
  501MOL0     C69022   3.230  11.769   7.976 -0.9454 -0.5113 -0.5369
  501MOL0     C69023   3.305  11.907   7.971  0.3415  0.5595  0.5474
  501MOL0     O69024   3.208  12.010   7.932  0.3221  0.0654 -0.4781
  501MOL0     C69025   3.149  12.092   8.024  0.2516  0.1972  0.9390
  501MOL0     C69026   3.097  12.204   7.961  0.5819  0.6850  0.7313
  501MOL0     C69027   3.040  12.306   8.039  0.4323 -0.4405 -0.2352
  501MOL0     C69028   2.975  12.423   7.956  0.7288  0.4328 -0.7734
  501MOL0     C69029   3.062  12.299   8.184  0.0629  0.2993  0.4153
  501MOL0     C69030   3.046  12.423   8.273  0.3053  0.7310  0.2086
  501MOL0     O69031   3.043  12.389   8.411  0.2667 -0.5568 -0.4483
  501MOL0     C69032   3.046  12.474   8.522  0.2652  0.2180  0.1775
  501MOL0     C69033   3.134  12.582   8.537  0.2725 -0.6044  0.5375
  501MOL0     C69034   3.137  12.660   8.658  0.1786  0.1855  0.1591
  501MOL0     C69035   3.047  12.625   8.761  0.4054 -0.9073  0.1740
  501MOL0     O69036   3.056  12.710   8.871  0.3269 -0.3120 -0.0927
  501MOL0     C69037   2.949  12.735   8.963 -0.0823  0.7145 -0.5856
  501MOL0     C69038   3.001  12.838   9.071  0.1845  0.2002 -0.1989
  501MOL0     C69039   3.109  12.773   9.159 -0.8055 -0.2329  1.3148
  501MOL0     C69040   3.152  12.874   9.266 -0.1221  0.1700 -0.2114
  501MOL0     C69041   3.248  12.804   9.372  0.0991 -0.1512  1.2337
  501MOL0     C69042   3.388  12.770   9.322 -0.2640 -0.0633  0.4272
  501MOL0     C69043   3.467  12.699   9.439 -0.1890 -0.0123  0.4957
  501MOL0     C69044   3.616  12.655   9.392  0.6144 -0.2751 -0.0574
  501MOL0    Cl69045   3.651  12.524   9.525 -0.2334 -0.0585  0.0138
  501MOL0     C69046   2.965  12.514   8.750  0.2243 -0.5553 -0.8899
  501MOL0     C69047   2.975  12.430   8.637  0.3865 -0.7330  0.3134
  501MOL0     O69048   3.038  12.533   8.226 -0.0964  0.3705  0.3556
  501MOL0     C69049   3.095  12.167   8.239 -0.1880  0.7012  0.1573
  501MOL0     C69050   3.139  12.061   8.159  0.2469 -0.1323 -0.6903
  501MOL0     N69051   3.211  11.520   8.269  0.1081 -0.0323 -1.1459
  501MOL0     N69052   3.211  11.404   8.333 -0.6930  0.4255 -0.3089
  501MOL0     C69053   3.517  10.735   7.504  0.0009 -0.3441 -0.2557
  501MOL0     C69054   3.448  10.699   7.385 -0.4056 -0.6594  0.4764
  501MOL0     C69055   3.383  10.547   6.996  0.0593 -0.8847  0.9658
  501MOL0     C69056   3.251  10.595   6.970 -0.8283  0.3380  0.6003
  501MOL0     C69057   3.181  10.541   6.863  0.2062 -0.5182 -0.7384
  501MOL0     C69058   3.247  10.470   6.760 -0.0406 -0.7259  0.5298
  501MOL0     O69059   3.188  10.426   6.646  0.4734 -0.7473 -0.1990
  501MOL0     C69060   3.086  10.328   6.643 -0.0771 -0.2685 -0.0359
  501MOL0     C69061   3.087  10.249   6.512  0.9965 -0.4352  0.2378
  501MOL0     C69062   3.030  10.325   6.394 -0.8121  0.2531 -0.7380
  501MOL0     C69063   3.060  10.246   6.268  0.6060  1.2213 -0.2143
  501MOL0     C69064   3.041  10.325   6.145 -0.8424 -0.2847 -0.4376
  501MOL0     C69065   3.022  10.402   6.058 -0.1824 -0.0455  0.2716
  501MOL0     C69066   3.373  10.429   6.784 -0.5449 -0.3497  1.1015
  501MOL0     C69067   3.453  10.471   6.893  0.2027  0.1652  0.1006
  501MOL0     C69068   3.588  10.406   6.893 -0.2014  0.2819  0.3811
  501MOL0     H69069   3.639  10.881   7.161  2.5710  0.5952  1.0566
  501MOL0     H69070   3.744  10.956   7.392 -0.4947  0.0170  4.8128
  501MOL0     H69071   3.654  10.774   7.783 -2.9226 -1.8540 -1.5086
  501MOL0     H69072   3.521  10.875   7.728  0.8130  0.0096  0.0791
  501MOL0     H69073   3.801  10.951   7.839 -1.1683  0.1748  1.8657
  501MOL0     H69074   3.670  11.072   7.796 -0.0569  1.9081  2.3665
  501MOL0     H69075   3.524  10.991   7.940 -1.3637 -1.4620  0.4238
  501MOL0     H69076   3.614  10.853   8.005  3.5039 -0.7657 -2.6904
  501MOL0     H69077   3.783  11.005   8.091 -0.1923  0.0478  2.2377
  501MOL0     H69078   3.695  11.144   8.045 -0.5726 -0.2604 -0.4121
  501MOL0     H69079   3.644  10.958   8.272 -1.9472  1.0404  3.4339
  501MOL0     H69080   3.503  10.961   8.172  1.2601 -1.9942  0.8456
  501MOL0     H69081   3.628  11.202   8.312  0.6352 -0.4817  0.5770
  501MOL0     H69082   3.502  11.203   8.179  3.4402 -1.0577 -1.9949
  501MOL0     H69083   3.459  11.052   8.443  1.0992 -0.1204 -0.6489
  501MOL0     H69084   3.331  11.087   8.320 -1.3388  3.9167  0.5574
  501MOL0     H69085   3.309  11.216   8.517 -1.3989  0.6144 -1.5868
  501MOL0     H69086   3.476  11.273   8.499 -0.2693  0.0459  0.4849
  501MOL0     H69087   3.526  11.449   8.288 -0.1169  1.5152  2.1358
  501MOL0     H69088   3.488  11.702   8.182 -0.1435 -0.8868 -1.2692
  501MOL0     H69089   3.321  11.755   8.236  1.5237  0.0218  1.6183
  501MOL0     H69090   3.420  11.658   7.985  1.4391 -0.8116  1.6268
  501MOL0     H69091   3.277  11.568   8.025 -0.6072  0.1351 -0.3924
  501MOL0     H69092   3.198  11.725   7.881 -4.4305 -1.6641  1.0048
  501MOL0     H69093   3.139  11.782   8.035  0.0829  0.0905  0.9788
  501MOL0     H69094   3.337  11.923   8.074  2.6176 -1.9632  0.3154
  501MOL0     H69095   3.384  11.899   7.896 -1.6751  2.4298 -1.9810
  501MOL0     H69096   3.107  12.205   7.853  0.6771 -1.5593  0.6737
  501MOL0     H69097   2.986  12.391   7.852  2.9784  1.0946 -0.7953
  501MOL0     H69098   3.037  12.513   7.964  2.3489 -0.7707  0.8534
  501MOL0     H69099   2.868  12.444   7.971  0.7882  0.5569 -0.5163
  501MOL0     H69100   3.204  12.608   8.458  0.4594 -0.1719  0.8394
  501MOL0     H69101   3.208  12.741   8.664  1.4409 -0.9627  1.2540
  501MOL0     H69102   2.856  12.766   8.915 -1.3131 -2.4722 -0.5245
  501MOL0     H69103   2.920  12.638   9.003 -0.0376  0.6519 -0.7024
  501MOL0     H69104   3.033  12.931   9.022  0.6289 -0.9696 -2.2634
  501MOL0     H69105   2.920  12.853   9.143 -0.5899  0.2382 -1.0650
  501MOL0     H69106   3.185  12.758   9.082 -1.3343  2.2107  0.2134
  501MOL0     H69107   3.070  12.678   9.198 -1.8346  0.0277  0.9745
  501MOL0     H69108   3.061  12.912   9.312  0.7008 -0.4160  2.0443
  501MOL0     H69109   3.206  12.959   9.223  0.6857  0.7943  1.9049
  501MOL0     H69110   3.275  12.869   9.455  0.7086  2.0787 -0.6074
  501MOL0     H69111   3.193  12.718   9.412 -2.0150  1.0038  0.9949
  501MOL0     H69112   3.450  12.859   9.315  2.7962 -2.0556  0.4324
  501MOL0     H69113   3.384  12.715   9.228  1.7003  0.0624  0.2361
  501MOL0     H69114   3.412  12.612   9.475  0.6962 -0.5792  0.5106
  501MOL0     H69115   3.502  12.761   9.523  1.2259  0.5690 -0.4886
  501MOL0     H69116   3.678  12.744   9.378  0.8313 -0.0679  1.8928
  501MOL0     H69117   3.614  12.599   9.298 -0.7921 -1.7247  0.7759
  501MOL0     H69118   2.904  12.491   8.837  1.5199 -0.4529  0.0689
  501MOL0     H69119   2.910  12.343   8.633 -2.1590  1.1093 -0.4368
  501MOL0     H69120   3.089  12.152   8.346 -0.8856 -1.7631 -0.1758
  501MOL0     H69121   3.162  11.966   8.206  3.5253  2.7771  4.6481
  501MOL0     H69122   3.496  10.686   7.599  0.0620 -0.2222 -0.1780
  501MOL0     H69123   3.364  10.633   7.366 -2.9260  2.9065 -2.1789
  501MOL0     H69124   3.207  10.673   7.031 -0.3185  0.7056  0.5043
  501MOL0     H69125   3.076  10.567   6.857  0.4711  1.4713  1.6931
  501MOL0     H69126   3.093  10.261   6.729  2.4124 -1.3149 -0.9686
  501MOL0     H69127   2.984  10.365   6.660  0.6646  1.1377  1.7245
  501MOL0     H69128   3.026  10.159   6.531 -0.1984 -0.0998 -1.7661
  501MOL0     H69129   3.189  10.214   6.496  1.3679  1.0141 -0.6823
  501MOL0     H69130   2.921  10.333   6.407 -0.4823  2.4315  1.7662
  501MOL0     H69131   3.059  10.430   6.402 -5.7161  1.9526 -1.4812
  501MOL0     H69132   2.998  10.157   6.253 -0.6322  2.1188 -0.5589
  501MOL0     H69133   3.162  10.213   6.291  0.0858 -0.8343 -0.6025
  501MOL0     H69134   3.008  10.472   5.978  3.8279  2.1181  1.2139
  501MOL0     H69135   3.415  10.355   6.717  0.7462 -1.1330  2.7074
  501MOL0     H69136   3.663  10.483   6.910  0.2567  0.6696 -2.6758
  501MOL0     H69137   3.603  10.324   6.964 -0.0995 -2.0260 -2.0965
  501MOL0     H69138   3.617  10.371   6.793  0.2720 -1.2204  1.0176
  502MOL0     O69139   8.810   0.839  10.954  0.2786  0.2805 -0.4657
  502MOL0     C69140   8.703   0.855  11.021  0.1205  0.6437 -0.1079
  502MOL0     O69141   8.594   0.776  11.020  0.6280  0.1505  0.3617
  502MOL0     C69142   8.609   0.668  10.942 -0.5143  0.0012  0.1807
  502MOL0     C69143   8.655   0.541  10.988  0.8033 -0.7885 -0.7654
  502MOL0     C69144   8.667   0.428  10.905  0.5851  0.2356  0.1760
  502MOL0     C69145   8.626   0.431  10.776 -0.7105 -0.5217  0.6731
  502MOL0     O69146   8.651   0.318  10.697  0.5725  0.2697 -0.3996
  502MOL0     C69147   8.586   0.302  10.567  0.3990  0.2792 -0.9568
  502MOL0     C69148   8.679   0.349  10.448 -0.1866  0.6521  0.6434
  502MOL0     C69149   8.822   0.287  10.457 -0.2198  0.4805  0.3813
  502MOL0     C69150   8.896   0.291  10.323 -0.0327 -0.2978 -0.2674
  502MOL0     C69151   8.874   0.156  10.243  0.4324 -0.1126 -0.0087
  502MOL0     C69152   8.929   0.187  10.103  0.1697  0.7917 -0.6766
  502MOL0     C69153   8.868   0.098  10.000  0.2970  0.0777  0.0796
  502MOL0     C69154   8.877  -0.052  10.048 -0.3699 -0.3532 -0.1872
  502MOL0     N69155   9.016  -0.091  10.069 -0.5401 -0.9003  0.3913
  502MOL0     C69156   9.121  -0.081   9.979 -0.2819  0.8419 -0.1823
  502MOL0     C69157   9.234  -0.123  10.049  0.6612  0.2720  0.6281
  502MOL0     C69158   9.359  -0.158  10.003 -1.2913 -0.7618  0.3472
  502MOL0     C69159   9.431  -0.030   9.960 -0.4968  0.2022  0.2437
  502MOL0     C69160   9.427   0.090  10.069  0.1056  0.3265 -0.0295
  502MOL0     C69161   9.496   0.209  10.033 -0.7701 -0.6521  0.0434
  502MOL0     O69162   9.486   0.245   9.893  0.0547 -0.1251  0.1159
  502MOL0     C69163   9.367   0.298   9.842 -1.3127  1.0225  0.2647
  502MOL0     C69164   9.272   0.373   9.920 -0.2827 -0.4410  0.0152
  502MOL0     C69165   9.149   0.419   9.866  0.5500  0.0809  0.1620
  502MOL0     C69166   9.060   0.495   9.964 -0.5926 -0.5506 -0.2405
  502MOL0     C69167   9.107   0.384   9.732  0.4119  0.5142  0.0403
  502MOL0     C69168   8.970   0.391   9.666  0.3168  0.5321 -0.1042
  502MOL0     O69169   8.957   0.326   9.538  0.6110  0.7132  0.6931
  502MOL0     C69170   8.836   0.279   9.484 -0.1126  0.7077  0.7760
  502MOL0     C69171   8.842   0.227   9.359  0.0949 -0.5454  0.2930
  502MOL0     C69172   8.736   0.168   9.295 -0.3291  0.0535 -0.4583
  502MOL0     C69173   8.611   0.176   9.353 -0.7376 -0.3064  0.2972
  502MOL0     O69174   8.502   0.137   9.289 -0.5204  0.5975  0.0308
  502MOL0     C69175   8.508   0.020   9.216 -0.2141  0.5155 -0.0054
  502MOL0     C69176   8.363  -0.032   9.202  1.2938 -0.4157  0.4886
  502MOL0     C69177   8.362  -0.170   9.131 -0.8494  0.1195  0.4017
  502MOL0     C69178   8.272  -0.275   9.200  1.3306  0.0102  0.3749
  502MOL0     C69179   8.261  -0.409   9.124  0.3077  1.5166  0.2317
  502MOL0     C69180   8.400  -0.483   9.112  0.1484 -0.6804 -0.9563
  502MOL0     C69181   8.403  -0.635   9.116  0.4298  0.1440  0.0101
  502MOL0     C69182   8.525  -0.682   9.192  0.7858 -0.3892 -0.3638
  502MOL0    Cl69183   8.668  -0.705   9.082 -0.0575  0.1139 -0.8456
  502MOL0     C69184   8.596   0.235   9.481  0.7462  0.5415 -0.0502
  502MOL0     C69185   8.708   0.284   9.544 -0.4101  0.2170  0.4165
  502MOL0     O69186   8.882   0.448   9.716  0.0988  0.5569  0.2366
  502MOL0     C69187   9.203   0.303   9.660  0.2531 -0.2524  0.1021
  502MOL0     C69188   9.336   0.277   9.704 -0.2090  0.8054 -0.4488
  502MOL0     N69189   9.196  -0.140  10.186 -0.2210 -0.4879 -0.4372
  502MOL0     N69190   9.071  -0.101  10.193  0.1412 -0.4747  0.8142
  502MOL0     C69191   8.579   0.555  10.723  0.0768  0.8265  0.4122
  502MOL0     C69192   8.575   0.670  10.812 -0.7133  0.4193  0.1768
  502MOL0     C69193   8.694   0.982  11.097  1.3239  0.6925 -0.2973
  502MOL0     C69194   8.595   1.000  11.195  0.2841  0.9425 -0.3474
  502MOL0     C69195   8.574   1.108  11.272  0.4581 -0.1729 -0.7981
  502MOL0     C69196   8.667   1.215  11.261 -0.0112  0.2927  0.6619
  502MOL0     O69197   8.649   1.325  11.344  0.7334 -0.6261 -0.8273
  502MOL0     C69198   8.755   1.422  11.365 -0.2572  0.9732 -1.1242
  502MOL0     C69199   8.694   1.555  11.409 -0.4509 -0.0337  0.7109
  502MOL0     C69200   8.624   1.543  11.548  1.0754  0.4538  0.4197
  502MOL0     C69201   8.623   1.674  11.631 -0.0670  0.5218  0.1890
  502MOL0     C69202   8.762   1.701  11.685  0.1024 -0.2116  0.4859
  502MOL0     C69203   8.872   1.711  11.734 -0.2561 -0.6580  0.1715
  502MOL0     C69204   8.761   1.208  11.149  0.3138 -0.2891  0.6749
  502MOL0     C69205   8.778   1.094  11.068  0.2096 -0.8254 -0.1102
  502MOL0     C69206   8.872   1.112  10.951  0.4591 -0.0490  0.4570
  502MOL0     H69207   8.685   0.546  11.092 -1.9089 -0.1440  0.0876
  502MOL0     H69208   8.717   0.346  10.955 -0.3309  0.1912  1.0550
  502MOL0     H69209   8.490   0.356  10.566 -1.4657 -2.5813  2.1001
  502MOL0     H69210   8.573   0.194  10.553 -0.2232  0.3661 -1.0861
  502MOL0     H69211   8.624   0.309  10.362  0.8970  1.2466 -0.3651
  502MOL0     H69212   8.691   0.454  10.419 -0.6598 -0.0449 -2.5085
  502MOL0     H69213   8.876   0.351  10.528 -3.1115 -0.4574  3.6907
  502MOL0     H69214   8.822   0.194  10.513 -2.0501 -0.0812 -0.4596
  502MOL0     H69215   8.875   0.382  10.267  0.7251  1.1372  1.6651
  502MOL0     H69216   9.003   0.295  10.349 -0.5238  3.7275  1.9032
  502MOL0     H69217   8.765   0.143  10.241  0.2257  1.5143 -0.8177
  502MOL0     H69218   8.924   0.075  10.297  3.6518  1.7536  0.0277
  502MOL0     H69219   8.937   0.292  10.071 -0.7110  1.4633  1.2049
  502MOL0     H69220   9.037   0.171  10.110  0.5330  3.3476  1.5595
  502MOL0     H69221   8.919   0.117   9.905  0.1082  2.5688  0.4001
  502MOL0     H69222   8.771   0.132   9.963  0.6118  0.7945 -0.1074
  502MOL0     H69223   8.824  -0.061  10.144  2.4952 -3.2472  1.2987
  502MOL0     H69224   8.831  -0.113   9.970  1.6253 -2.6232  0.3171
  502MOL0     H69225   9.123  -0.042   9.877  0.0705  5.0797  1.2524
  502MOL0     H69226   9.362  -0.211   9.907 -0.5085 -2.2804  1.1645
  502MOL0     H69227   9.423  -0.210  10.075  0.3727  1.9421  0.9320
  502MOL0     H69228   9.534  -0.039   9.925 -1.1681  0.8174 -2.1034
  502MOL0     H69229   9.389   0.005   9.865  1.0029  0.6642 -0.2806
  502MOL0     H69230   9.323   0.107  10.099 -1.0511 -0.2742 -3.2628
  502MOL0     H69231   9.471   0.049  10.161 -4.7470  0.7703  2.8120
  502MOL0     H69232   9.480   0.284  10.112  3.2648 -0.8596  1.2877
  502MOL0     H69233   9.604   0.192  10.021 -0.5049  0.6065  0.4964
  502MOL0     H69234   9.284   0.388  10.027  0.0167  0.9305 -0.1956
  502MOL0     H69235   9.098   0.479  10.065  1.0692  2.7970 -0.1965
  502MOL0     H69236   8.955   0.467   9.975 -0.0370 -2.1486  1.5355
  502MOL0     H69237   9.077   0.603   9.954  1.6129 -0.5146  2.5975
  502MOL0     H69238   8.938   0.223   9.310 -0.6364  0.7899 -1.3441
  502MOL0     H69239   8.755   0.112   9.204  1.3331  0.4673 -0.4072
  502MOL0     H69240   8.548   0.040   9.116 -1.0717  1.6486 -0.1466
  502MOL0     H69241   8.578  -0.052   9.258  1.4451  1.7826 -0.4862
  502MOL0     H69242   8.312  -0.047   9.297  0.6708 -0.3461  0.1701
  502MOL0     H69243   8.306   0.042   9.144  4.4974  1.6800 -0.2404
  502MOL0     H69244   8.465  -0.207   9.126 -0.2240  1.8856 -0.7407
  502MOL0     H69245   8.336  -0.159   9.026  2.5933 -2.0471 -0.8413
  502MOL0     H69246   8.170  -0.236   9.193  1.3284 -0.1534 -0.7983
  502MOL0     H69247   8.292  -0.290   9.306  1.4084 -0.2635  0.3208
  502MOL0     H69248   8.197  -0.474   9.186  2.4996  0.0504  1.0846
  502MOL0     H69249   8.224  -0.387   9.024  1.2627  0.8748 -0.2764
  502MOL0     H69250   8.474  -0.456   9.188 -1.6452  1.1584  0.2549
  502MOL0     H69251   8.429  -0.444   9.014 -1.8913 -0.5211 -1.5560
  502MOL0     H69252   8.404  -0.660   9.009 -2.0561 -1.1211  0.1978
  502MOL0     H69253   8.313  -0.684   9.155  0.3137 -1.8108 -2.4428
  502MOL0     H69254   8.502  -0.784   9.223 -0.6057  0.3364  1.1258
  502MOL0     H69255   8.543  -0.620   9.281  0.1222  1.1402 -1.2619
  502MOL0     H69256   8.502   0.243   9.534  1.0184  1.5801  0.2945
  502MOL0     H69257   8.701   0.331   9.641  1.5443  1.5647 -0.0370
  502MOL0     H69258   9.180   0.284   9.556  1.3019 -1.0105 -0.0145
  502MOL0     H69259   9.421   0.230   9.655 -0.4903  0.2090 -0.3798
  502MOL0     H69260   8.558   0.570  10.618 -4.2972  0.6230  1.0822
  502MOL0     H69261   8.539   0.761  10.765 -1.0679 -0.4719 -1.3517
  502MOL0     H69262   8.516   0.928  11.216 -1.4188  2.5496 -0.8557
  502MOL0     H69263   8.496   1.121  11.347  0.4877  1.5831 -1.0146
  502MOL0     H69264   8.825   1.380  11.438  0.0862 -1.6435 -2.8591
  502MOL0     H69265   8.819   1.441  11.279  1.2306 -1.0745 -0.5351
  502MOL0     H69266   8.623   1.587  11.332 -0.8228 -0.2878  0.9410
  502MOL0     H69267   8.777   1.624  11.424  1.4277 -1.6406 -1.5031
  502MOL0     H69268   8.524   1.515  11.514  1.5553  3.7428 -4.7540
  502MOL0     H69269   8.669   1.457  11.599  0.5595  0.3048  0.6355
  502MOL0     H69270   8.542   1.664  11.704 -1.4234 -1.8356 -1.4818
  502MOL0     H69271   8.594   1.759  11.569 -2.5343  2.6172  3.8384
  502MOL0     H69272   8.969   1.713  11.779 -0.2375 -1.2954  0.1785
  502MOL0     H69273   8.822   1.297  11.132 -1.6577  1.6416  2.9915
  502MOL0     H69274   8.966   1.058  10.969  0.5999  0.6982  2.1106
  502MOL0     H69275   8.831   1.070  10.859 -1.7899 -0.5461  1.6345
  502MOL0     H69276   8.892   1.218  10.932 -2.8871  0.5033 -0.5269
  503MOL0     O69277   4.761   7.493   4.735  0.2595 -0.4625  0.4356
  503MOL0     C69278   4.723   7.374   4.758 -0.0463  0.7378  0.6892
  503MOL0     O69279   4.652   7.305   4.672 -0.0161  0.2821 -0.6817
  503MOL0     C69280   4.564   7.351   4.576 -0.1785  0.2809  0.1074
  503MOL0     C69281   4.598   7.449   4.486  1.2234  0.7026 -0.7904
  503MOL0     C69282   4.505   7.503   4.407  0.6568 -1.0326 -0.0998
  503MOL0     C69283   4.371   7.461   4.410  0.3750 -0.2885 -0.5842
  503MOL0     O69284   4.291   7.532   4.333  0.1661 -0.5751  0.2489
  503MOL0     C69285   4.159   7.479   4.301  0.9092 -0.1686  1.0785
  503MOL0     C69286   4.082   7.589   4.218 -0.2218  0.3268 -0.3030
  503MOL0     C69287   3.925   7.575   4.223 -0.0234 -0.3070 -1.3001
  503MOL0     C69288   3.877   7.671   4.123  0.7050 -0.5261 -0.8056
  503MOL0     C69289   3.733   7.654   4.097 -0.8019  0.0064  0.7092
  503MOL0     C69290   3.640   7.695   4.221  0.1559 -0.2144  0.0034
  503MOL0     C69291   3.639   7.847   4.255  0.3594 -0.8328 -0.2534
  503MOL0     C69292   3.543   7.879   4.360 -0.6364  0.1714 -0.8076
  503MOL0     N69293   3.467   8.000   4.339 -0.0379  0.8707  0.4555
  503MOL0     C69294   3.329   8.004   4.323  0.5534  0.0362  0.4925
  503MOL0     C69295   3.300   8.133   4.366 -0.0393 -0.1628  0.3982
  503MOL0     C69296   3.157   8.179   4.358  0.5774  0.6595 -0.0068
  503MOL0     C69297   3.086   8.187   4.498 -0.1937  0.7170  0.3306
  503MOL0     C69298   2.936   8.202   4.484 -0.2690 -0.4416  0.2923
  503MOL0     C69299   2.867   8.258   4.614 -0.6461  0.1191 -0.0045
  503MOL0     O69300   2.735   8.208   4.611 -0.4150 -0.3836  0.1125
  503MOL0     C69301   2.660   8.228   4.723 -0.6204 -0.0373 -0.4156
  503MOL0     C69302   2.674   8.345   4.797  1.1264 -0.4084  0.0612
  503MOL0     C69303   2.591   8.371   4.910 -0.4142  1.2319  0.9537
  503MOL0     C69304   2.620   8.497   4.983  0.2879 -0.0001  0.8000
  503MOL0     C69305   2.512   8.261   4.957  0.6129 -0.4020  0.3489
  503MOL0     C69306   2.417   8.286   5.074  0.0953  0.8416  0.3478
  503MOL0     O69307   2.341   8.171   5.104  0.1896  0.1877 -0.3346
  503MOL0     C69308   2.237   8.165   5.193  0.3413 -0.0887  0.3657
  503MOL0     C69309   2.107   8.130   5.155  0.8629 -0.6011  0.2015
  503MOL0     C69310   1.990   8.146   5.243  0.3611 -1.2128 -0.5570
  503MOL0     C69311   2.007   8.214   5.361 -0.1142 -0.1384  0.0608
  503MOL0     O69312   1.898   8.231   5.447  0.0539  0.2418  0.4048
  503MOL0     C69313   1.788   8.308   5.406  0.0483 -0.5679 -0.6415
  503MOL0     C69314   1.679   8.223   5.350  0.8131  0.6627 -0.1121
  503MOL0     C69315   1.558   8.304   5.320  0.0232  0.3668  0.5168
  503MOL0     C69316   1.445   8.223   5.239 -0.0719 -0.1720  0.0565
  503MOL0     C69317   1.324   8.313   5.208  0.3885 -0.1647 -0.2768
  503MOL0     C69318   1.269   8.405   5.320 -0.4620 -0.2220 -0.0834
  503MOL0     C69319   1.156   8.493   5.261  0.0422  0.1822  0.7744
  503MOL0     C69320   1.073   8.556   5.366  0.4574 -1.1194  0.4031
  503MOL0    Cl69321   1.113   8.731   5.378  0.4740 -0.0610  0.1156
  503MOL0     C69322   2.138   8.253   5.402  0.1455  0.1011 -0.4753
  503MOL0     C69323   2.248   8.227   5.319 -0.2004  0.1189 -1.4619
  503MOL0     O69324   2.391   8.394   5.118 -0.8565 -0.4978  0.2177
  503MOL0     C69325   2.497   8.146   4.879  0.4555  0.8210  0.7992
  503MOL0     C69326   2.577   8.131   4.765  0.4023  0.0856  0.1299
  503MOL0     N69327   3.415   8.199   4.395 -0.2925  0.0053 -0.0197
  503MOL0     N69328   3.517   8.121   4.383 -0.1771 -0.0044  0.5634
  503MOL0     C69329   4.342   7.359   4.498 -0.9359  0.5468 -0.4275
  503MOL0     C69330   4.442   7.297   4.567  0.4754  0.1536 -0.0189
  503MOL0     C69331   4.784   7.308   4.883 -0.8307 -0.0099 -0.4807
  503MOL0     C69332   4.754   7.174   4.898  0.2032  0.0763 -1.0219
  503MOL0     C69333   4.802   7.095   5.006 -0.4726  0.5150  0.0251
  503MOL0     C69334   4.881   7.145   5.102 -0.5048  0.0674 -0.1279
  503MOL0     O69335   4.915   7.080   5.218 -0.3453 -0.4311  0.3289
  503MOL0     C69336   4.860   6.947   5.250  0.0196 -0.7682 -0.3048
  503MOL0     C69337   4.721   6.949   5.319 -0.1097 -0.1975  0.8537
  503MOL0     C69338   4.721   7.016   5.454 -0.7237  0.2982  0.3642
  503MOL0     C69339   4.618   6.952   5.552 -0.2687 -0.3248 -0.6725
  503MOL0     C69340   4.500   7.028   5.522  0.5074  0.7135  0.8444
  503MOL0     C69341   4.400   7.084   5.485 -0.2495  0.7761  0.2619
  503MOL0     C69342   4.913   7.281   5.097  0.1845  0.3043  0.7781
  503MOL0     C69343   4.871   7.364   4.992  0.6416 -0.6061  0.1461
  503MOL0     C69344   4.909   7.509   4.995  0.5141 -0.4284  0.4731
  503MOL0     H69345   4.701   7.483   4.495  0.6814  1.8459  2.0673
  503MOL0     H69346   4.535   7.580   4.336  4.0390 -0.5050  1.6661
  503MOL0     H69347   4.097   7.456   4.387  2.7737  0.5380  2.6763
  503MOL0     H69348   4.193   7.390   4.246  0.4769 -0.4819  1.3089
  503MOL0     H69349   4.108   7.679   4.274  0.3654 -1.9556  3.4593
  503MOL0     H69350   4.123   7.587   4.117 -0.5750 -2.6853 -0.4851
  503MOL0     H69351   3.893   7.473   4.199  0.1026 -0.1608 -2.1480
  503MOL0     H69352   3.893   7.601   4.324 -0.2043  0.2466 -1.5006
  503MOL0     H69353   3.888   7.774   4.159  0.7305 -1.9251  3.7408
  503MOL0     H69354   3.932   7.666   4.028  1.2549 -1.8026 -0.4405
  503MOL0     H69355   3.719   7.554   4.055  1.3227 -0.3265  0.6967
  503MOL0     H69356   3.725   7.727   4.017  6.9715  0.2768 -0.6252
  503MOL0     H69357   3.539   7.677   4.181  0.6330  0.9626 -1.8182
  503MOL0     H69358   3.663   7.633   4.308 -0.2434 -0.9706 -0.4122
  503MOL0     H69359   3.602   7.897   4.165  1.5528 -0.4549 -0.5481
  503MOL0     H69360   3.743   7.874   4.273  1.1393 -3.7170  0.0618
  503MOL0     H69361   3.478   7.794   4.384  1.9363 -1.6051  0.3802
  503MOL0     H69362   3.600   7.878   4.454 -0.0476 -2.7512 -1.0925
  503MOL0     H69363   3.257   7.929   4.291 -0.0876  0.8568 -0.0209
  503MOL0     H69364   3.102   8.121   4.282 -0.0060 -0.1159  0.9775
  503MOL0     H69365   3.153   8.278   4.311  0.4089 -0.0180 -1.4949
  503MOL0     H69366   3.106   8.097   4.558  2.2498  1.1439  0.2194
  503MOL0     H69367   3.134   8.272   4.548  2.0212 -1.2585  1.8105
  503MOL0     H69368   2.905   8.267   4.402  1.5064 -0.4575 -0.4277
  503MOL0     H69369   2.896   8.103   4.461  2.1525 -1.5670  0.6722
  503MOL0     H69370   2.924   8.214   4.697  0.8750 -1.0353 -1.5943
  503MOL0     H69371   2.875   8.367   4.615  1.5728 -0.0023  0.3861
  503MOL0     H69372   2.742   8.420   4.757  1.1578 -0.1799  0.5335
  503MOL0     H69373   2.534   8.563   4.999 -0.6377 -1.1427  0.7192
  503MOL0     H69374   2.697   8.555   4.932 -0.6683 -0.5880 -1.4782
  503MOL0     H69375   2.653   8.464   5.081  0.6874 -0.3950  0.5360
  503MOL0     H69376   2.087   8.084   5.059 -2.3423 -0.8967  0.8970
  503MOL0     H69377   1.891   8.105   5.225 -0.3228 -0.7345  1.8498
  503MOL0     H69378   1.766   8.385   5.481  2.4457  1.9524 -2.3168
  503MOL0     H69379   1.829   8.382   5.338  2.5572 -1.2005  0.0543
  503MOL0     H69380   1.706   8.181   5.253 -1.2723 -0.4060 -0.2991
  503MOL0     H69381   1.653   8.140   5.416 -0.2514  0.1604 -1.1238
  503MOL0     H69382   1.575   8.392   5.257 -0.1893 -1.2147 -1.8759
  503MOL0     H69383   1.519   8.347   5.413  0.9471  3.0632 -0.2411
  503MOL0     H69384   1.395   8.139   5.287  1.3539 -0.7770  0.5370
  503MOL0     H69385   1.487   8.191   5.143  1.4403 -0.3883  0.7663
  503MOL0     H69386   1.352   8.382   5.128 -1.9769  1.0327 -0.1745
  503MOL0     H69387   1.243   8.252   5.167 -0.1222  0.8945 -0.8769
  503MOL0     H69388   1.342   8.475   5.362  0.8443 -1.2214 -0.6291
  503MOL0     H69389   1.235   8.340   5.402 -2.0951  0.8215  0.1175
  503MOL0     H69390   1.095   8.427   5.198 -0.6736  1.0393  0.5536
  503MOL0     H69391   1.201   8.568   5.195  0.1644  1.2096  2.0081
  503MOL0     H69392   1.068   8.501   5.460 -3.0804  0.4318  1.2700
  503MOL0     H69393   0.967   8.568   5.342  0.8921  2.8886 -0.2003
  503MOL0     H69394   2.153   8.310   5.493 -2.0623 -0.2456  0.1452
  503MOL0     H69395   2.343   8.246   5.369 -0.6477 -0.7755 -0.2222
  503MOL0     H69396   2.422   8.072   4.907  1.4731 -0.2421  0.7805
  503MOL0     H69397   2.558   8.049   4.695  1.3534  1.5213 -1.9070
  503MOL0     H69398   4.245   7.310   4.496 -0.6181 -0.0674 -2.2107
  503MOL0     H69399   4.411   7.207   4.619  0.1934 -0.5813 -1.4112
  503MOL0     H69400   4.693   7.123   4.824 -1.6774 -0.1273  0.6053
  503MOL0     H69401   4.770   6.992   5.015 -0.5265  0.6944  2.5799
  503MOL0     H69402   4.867   6.878   5.165  1.6486 -1.8631  0.6574
  503MOL0     H69403   4.930   6.899   5.318  1.8334  0.0171 -1.5222
  503MOL0     H69404   4.686   6.845   5.328  0.5398 -0.8802 -2.6997
  503MOL0     H69405   4.660   7.005   5.248  2.8196  0.2484 -1.5135
  503MOL0     H69406   4.822   6.994   5.489  0.6270  0.9945 -2.7321
  503MOL0     H69407   4.709   7.125   5.445  0.0281  0.3390 -0.1958
  503MOL0     H69408   4.648   6.956   5.657 -1.5515  1.8557 -0.3227
  503MOL0     H69409   4.597   6.845   5.543  2.7513 -1.2109  1.4143
  503MOL0     H69410   4.310   7.136   5.459  0.0755  1.1634 -0.0981
  503MOL0     H69411   4.965   7.324   5.183 -0.5282  1.5986  0.5869
  503MOL0     H69412   4.926   7.553   5.094 -0.7761  1.1165  0.0433
  503MOL0     H69413   4.993   7.532   4.930 -0.2125 -0.1262 -0.3771
  503MOL0     H69414   4.821   7.568   4.968  0.7509 -0.1161  0.3805
  504MOL0     O69415   7.954   0.835   4.525  0.2834 -0.5022 -0.0317
  504MOL0     C69416   7.866   0.841   4.451  0.4942 -0.2859  0.3397
  504MOL0     O69417   7.873   0.806   4.317 -0.1370  0.7426  1.0042
  504MOL0     C69418   7.990   0.752   4.266 -0.2795  0.2750 -0.2461
  504MOL0     C69419   8.109   0.819   4.265  0.7507 -0.4485  0.4763
  504MOL0     C69420   8.229   0.771   4.208 -0.6640 -0.2380 -0.2465
  504MOL0     C69421   8.223   0.647   4.141 -0.0796  0.0874 -0.7492
  504MOL0     O69422   8.341   0.596   4.090 -0.1924  0.4540  0.6105
  504MOL0     C69423   8.345   0.525   3.968 -0.5191  0.6775 -1.0120
  504MOL0     C69424   8.489   0.557   3.908 -0.2628  0.1431  0.2107
  504MOL0     C69425   8.499   0.687   3.838 -0.2295 -0.8542  0.7296
  504MOL0     C69426   8.646   0.732   3.812  0.2953  0.6154 -0.0667
  504MOL0     C69427   8.667   0.861   3.732  0.7509 -1.8936  0.5869
  504MOL0     C69428   8.631   0.865   3.583  0.6445  0.4215  0.5048
  504MOL0     C69429   8.719   0.759   3.524  0.4759 -0.6989  0.3100
  504MOL0     C69430   8.693   0.751   3.376 -0.1540 -0.0898  0.3988
  504MOL0     N69431   8.808   0.694   3.305 -0.1596  0.2680 -0.7265
  504MOL0     C69432   8.832   0.724   3.177  1.0359  0.5659  0.2071
  504MOL0     C69433   8.918   0.629   3.135 -0.1448  0.6141 -0.0939
  504MOL0     C69434   8.974   0.633   2.995 -0.3643  1.0936 -0.5094
  504MOL0     C69435   8.886   0.680   2.887  0.0015 -0.9767  0.2981
  504MOL0     C69436   8.969   0.696   2.765  0.0094  0.3882 -0.7543
  504MOL0     C69437   8.909   0.789   2.662  1.1140  0.3990  0.0924
  504MOL0     O69438   8.788   0.729   2.633  0.6857  0.3004  0.0653
  504MOL0     C69439   8.734   0.742   2.507 -0.0549 -0.0351 -0.2293
  504MOL0     C69440   8.637   0.648   2.481  0.2401 -0.0440 -0.2833
  504MOL0     C69441   8.564   0.631   2.363 -0.5092 -0.4021  0.8553
  504MOL0     C69442   8.451   0.528   2.366  0.5695  0.0987  0.1113
  504MOL0     C69443   8.605   0.722   2.254  0.2688  0.4369  0.4902
  504MOL0     C69444   8.557   0.705   2.110 -0.7755 -0.6869 -0.8121
  504MOL0     O69445   8.640   0.757   2.014  0.8230 -0.1303 -0.3207
  504MOL0     C69446   8.607   0.780   1.890 -0.3458  0.2840 -0.4132
  504MOL0     C69447   8.692   0.729   1.792 -0.2207  1.0316 -0.8689
  504MOL0     C69448   8.659   0.725   1.661 -0.7983  0.0191 -0.5929
  504MOL0     C69449   8.537   0.765   1.614  0.5847 -0.6418  0.1694
  504MOL0     O69450   8.512   0.761   1.484  0.2050  0.4059 -1.3930
  504MOL0     C69451   8.424   0.659   1.447  0.2176  0.3940  1.2628
  504MOL0     C69452   8.442   0.625   1.302  0.3242  0.0753 -0.5711
  504MOL0     C69453   8.312   0.565   1.240  1.2138 -0.0297  0.1365
  504MOL0     C69454   8.195   0.664   1.225  0.1959  0.1377  0.5134
  504MOL0     C69455   8.126   0.626   1.094 -0.7540 -0.2162 -0.4911
  504MOL0     C69456   7.993   0.701   1.068  0.9976 -0.4327  0.2503
  504MOL0     C69457   7.881   0.691   1.175  1.2822  0.1705 -0.1926
  504MOL0     C69458   7.747   0.751   1.131  0.9117 -0.2800 -0.1322
  504MOL0    Cl69459   7.683   0.644   1.006 -0.1506  0.3253 -0.1428
  504MOL0     C69460   8.461   0.833   1.707  0.1626 -0.3002 -0.4339
  504MOL0     C69461   8.489   0.829   1.848 -1.5133  0.2045 -0.0852
  504MOL0     O69462   8.447   0.674   2.090 -0.0533 -0.0247 -0.0070
  504MOL0     C69463   8.706   0.821   2.280 -0.1683 -0.1240 -0.6561
  504MOL0     C69464   8.770   0.835   2.410  0.0414  0.2025 -0.6671
  504MOL0     N69465   8.938   0.529   3.234  0.7412 -0.6246  0.2674
  504MOL0     N69466   8.860   0.571   3.334 -0.1103 -0.0617  0.5050
  504MOL0     C69467   8.095   0.585   4.133 -0.0350  0.1387  0.7275
  504MOL0     C69468   7.987   0.625   4.217  0.5888  0.3261  0.6732
  504MOL0     C69469   7.736   0.911   4.499  0.1760 -0.1885  0.8668
  504MOL0     C69470   7.660   0.985   4.408  0.1428  0.0436 -0.7473
  504MOL0     C69471   7.545   1.054   4.446  0.4146 -0.0065  0.5425
  504MOL0     C69472   7.504   1.055   4.574 -0.1119  0.4083  0.5479
  504MOL0     O69473   7.391   1.131   4.613  0.5047  0.1054 -0.3254
  504MOL0     C69474   7.343   1.245   4.524 -0.5861  0.4557 -0.5006
  504MOL0     C69475   7.428   1.371   4.527  0.5773  0.2764 -0.6512
  504MOL0     C69476   7.449   1.447   4.653  0.4257  0.2859 -0.0753
  504MOL0     C69477   7.504   1.368   4.770  0.3814  0.3426  0.7898
  504MOL0     C69478   7.556   1.455   4.875 -0.2376 -0.1489 -0.1057
  504MOL0     C69479   7.586   1.535   4.965 -0.0265  0.8756  0.5338
  504MOL0     C69480   7.582   0.995   4.670 -0.0241 -0.1629  0.3804
  504MOL0     C69481   7.693   0.922   4.639  1.0073 -0.2544  0.3250
  504MOL0     C69482   7.762   0.853   4.742 -0.6772  0.2761  0.7107
  504MOL0     H69483   8.108   0.921   4.302  0.0361  1.7895 -4.7962
  504MOL0     H69484   8.314   0.835   4.231 -1.8709  0.8002  1.5891
  504MOL0     H69485   8.269   0.544   3.891  1.3668  0.2896 -3.0515
  504MOL0     H69486   8.352   0.421   4.001  2.1896  1.5936  1.7792
  504MOL0     H69487   8.555   0.552   3.996  1.0186 -1.0292 -0.7736
  504MOL0     H69488   8.519   0.481   3.835 -3.1776 -1.3907  0.4645
  504MOL0     H69489   8.436   0.695   3.749  0.9739  2.1085 -0.0164
  504MOL0     H69490   8.466   0.766   3.907 -0.2760 -0.6579  0.4860
  504MOL0     H69491   8.697   0.734   3.909 -0.2416  1.4131  0.2067
  504MOL0     H69492   8.701   0.655   3.757 -1.2481 -0.4634 -0.1405
  504MOL0     H69493   8.773   0.886   3.733  0.9867 -2.8924  1.3857
  504MOL0     H69494   8.611   0.947   3.771  2.1090 -0.7612  0.1329
  504MOL0     H69495   8.527   0.833   3.569  1.5429 -2.8102  0.3177
  504MOL0     H69496   8.654   0.963   3.541  0.0522 -0.2683 -1.5280
  504MOL0     H69497   8.688   0.665   3.570 -0.4400 -0.3295  0.4570
  504MOL0     H69498   8.824   0.779   3.550  1.0457 -1.0066 -1.5738
  504MOL0     H69499   8.602   0.696   3.350 -0.9433  0.6009  1.5983
  504MOL0     H69500   8.680   0.853   3.337 -3.1693  0.1779  1.7884
  504MOL0     H69501   8.803   0.814   3.122  1.8356 -1.3608 -3.7746
  504MOL0     H69502   9.000   0.528   2.978  1.4879  1.5886 -0.9609
  504MOL0     H69503   9.072   0.680   2.999 -0.0420  0.3871  2.1705
  504MOL0     H69504   8.807   0.608   2.866 -0.9038 -0.0168  0.3045
  504MOL0     H69505   8.854   0.782   2.913  2.0969  0.6252 -2.7114
  504MOL0     H69506   9.065   0.741   2.793 -1.1915  1.7642  1.4705
  504MOL0     H69507   8.975   0.597   2.719  0.4929  0.2973 -0.4998
  504MOL0     H69508   8.896   0.884   2.716 -0.2105  1.8603 -2.6141
  504MOL0     H69509   8.975   0.814   2.579 -1.4071 -2.2061 -2.9257
  504MOL0     H69510   8.626   0.574   2.560 -0.1767  1.7048  1.3656
  504MOL0     H69511   8.471   0.469   2.456 -0.2810  0.3426  0.4735
  504MOL0     H69512   8.462   0.463   2.279 -0.6285  0.4573 -0.3247
  504MOL0     H69513   8.356   0.583   2.364  1.0035  0.9272 -3.4571
  504MOL0     H69514   8.786   0.685   1.825 -1.2427  0.5144  1.4768
  504MOL0     H69515   8.733   0.699   1.586 -2.0453 -1.6343 -1.2910
  504MOL0     H69516   8.457   0.566   1.493 -0.5524 -0.3379  0.3676
  504MOL0     H69517   8.319   0.689   1.462 -0.4997 -0.1413 -2.0010
  504MOL0     H69518   8.479   0.710   1.243  1.3885  0.0794  0.0895
  504MOL0     H69519   8.516   0.545   1.295  1.3152  0.6344  2.1092
  504MOL0     H69520   8.267   0.476   1.285  0.0107 -0.6861 -2.1656
  504MOL0     H69521   8.335   0.535   1.137  2.1053  2.2188 -0.3698
  504MOL0     H69522   8.232   0.766   1.215 -1.0704  0.4866 -0.9137
  504MOL0     H69523   8.125   0.661   1.309 -0.4624  0.8489  0.0090
  504MOL0     H69524   8.196   0.643   1.011  0.5333  0.5094  0.7051
  504MOL0     H69525   8.117   0.517   1.094 -2.4322 -0.1303  1.3336
  504MOL0     H69526   7.950   0.686   0.969  0.5466  2.3718 -0.0616
  504MOL0     H69527   8.024   0.806   1.063  0.2774 -0.1758  0.8853
  504MOL0     H69528   7.922   0.735   1.266  0.6663  0.2254  0.0632
  504MOL0     H69529   7.863   0.586   1.201 -0.5355 -0.4836 -3.5240
  504MOL0     H69530   7.758   0.855   1.099  0.6427  0.2048  1.2754
  504MOL0     H69531   7.671   0.763   1.209 -2.2161 -2.2341 -2.6306
  504MOL0     H69532   8.374   0.884   1.667 -0.2785  0.8675  1.8072
  504MOL0     H69533   8.416   0.856   1.923  2.1346 -0.4052  4.0609
  504MOL0     H69534   8.736   0.883   2.196  1.2773  0.9999  0.6257
  504MOL0     H69535   8.842   0.913   2.431 -0.3295  0.3554  0.0698
  504MOL0     H69536   8.090   0.488   4.084 -0.3693  0.6312 -0.2413
  504MOL0     H69537   7.888   0.580   4.229  0.1851  1.8214  4.2485
  504MOL0     H69538   7.685   1.000   4.303  1.4744  2.1589 -0.1899
  504MOL0     H69539   7.488   1.105   4.369  1.3377 -1.6608 -1.3412
  504MOL0     H69540   7.316   1.219   4.421  1.2598  0.3572 -0.9930
  504MOL0     H69541   7.246   1.270   4.568  1.2995  2.0264  3.2292
  504MOL0     H69542   7.387   1.437   4.449 -1.4517 -1.4597 -1.1438
  504MOL0     H69543   7.528   1.335   4.503  0.4053 -2.0638  1.7088
  504MOL0     H69544   7.519   1.529   4.639  2.7426 -1.3058  1.4968
  504MOL0     H69545   7.353   1.493   4.677  1.7187  3.8712 -1.1616
  504MOL0     H69546   7.587   1.308   4.730  0.1984  2.4811 -3.3847
  504MOL0     H69547   7.437   1.301   4.824  0.6765  0.3000  1.1062
  504MOL0     H69548   7.628   1.587   5.049  0.9696 -1.2799  1.4430
  504MOL0     H69549   7.554   1.023   4.771 -1.4887  1.4975 -0.4316
  504MOL0     H69550   7.816   0.760   4.721 -1.5794  0.0630 -0.7208
  504MOL0     H69551   7.836   0.927   4.775  1.7570 -1.5326 -0.4067
  504MOL0     H69552   7.690   0.823   4.819  0.8178 -0.5970  1.8496
  505MOL0     O69553   9.353   1.913   8.283  0.5631 -0.2724  0.0537
  505MOL0     C69554   9.303   2.000   8.350  0.1553 -0.0231  0.4463
  505MOL0     O69555   9.175   2.019   8.357 -0.3839  0.3889 -0.4911
  505MOL0     C69556   9.125   1.946   8.461  1.0226  0.2541 -0.2554
  505MOL0     C69557   8.992   1.968   8.491  0.3491  0.5023 -0.5476
  505MOL0     C69558   8.932   1.907   8.606  0.7807 -0.0635  0.3891
  505MOL0     C69559   8.998   1.812   8.682 -0.5868 -0.3160 -0.2135
  505MOL0     O69560   8.934   1.729   8.764 -0.0628 -0.6378 -0.2121
  505MOL0     C69561   8.786   1.709   8.768  0.1047 -0.6924  0.2623
  505MOL0     C69562   8.746   1.633   8.642  0.1236 -0.1024  0.9410
  505MOL0     C69563   8.604   1.620   8.620  0.3542 -0.0821 -0.0956
  505MOL0     C69564   8.513   1.743   8.601  0.7705 -0.0483 -0.5136
  505MOL0     C69565   8.358   1.702   8.609  0.2568  0.0988 -0.1820
  505MOL0     C69566   8.272   1.808   8.541  0.0567  1.3731  0.1344
  505MOL0     C69567   8.128   1.791   8.557  0.5163 -0.4031 -0.2821
  505MOL0     C69568   8.062   1.679   8.472  0.5165  0.0488  0.4477
  505MOL0     N69569   8.125   1.549   8.490 -0.5427  0.0716  0.4759
  505MOL0     C69570   8.120   1.471   8.609  0.7407 -0.6387  0.5287
  505MOL0     C69571   8.149   1.349   8.561 -0.1833 -0.3753  0.5868
  505MOL0     C69572   8.143   1.231   8.643  0.0855  0.3187  0.6113
  505MOL0     C69573   8.260   1.233   8.751  1.4460 -0.2440  0.2563
  505MOL0     C69574   8.389   1.237   8.673 -0.0397  0.2796  0.0749
  505MOL0     C69575   8.491   1.183   8.763  0.0640  0.3753 -0.8638
  505MOL0     O69576   8.616   1.248   8.730  0.0992  0.2456  0.0927
  505MOL0     C69577   8.682   1.171   8.634 -0.2049  0.0798  0.1031
  505MOL0     C69578   8.743   1.053   8.683  0.8038  0.3728  0.1783
  505MOL0     C69579   8.806   0.967   8.596 -0.1660 -0.5156 -1.0777
  505MOL0     C69580   8.854   0.847   8.674  0.6555  0.0576  0.0889
  505MOL0     C69581   8.808   0.991   8.456  0.6801  0.0133  0.5398
  505MOL0     C69582   8.868   0.897   8.354  0.3199 -0.1593  0.4268
  505MOL0     O69583   8.833   0.922   8.224 -1.2130  0.2418  0.3552
  505MOL0     C69584   8.905   0.859   8.125  0.3419  0.8412 -1.3180
  505MOL0     C69585   9.039   0.899   8.086 -0.3482 -0.4428 -0.0833
  505MOL0     C69586   9.101   0.826   7.988  0.0344 -0.2313  0.2539
  505MOL0     C69587   9.045   0.732   7.913  0.6009  0.4494 -0.6489
  505MOL0     O69588   9.114   0.680   7.811 -0.0168 -0.4146 -0.4539
  505MOL0     C69589   9.101   0.539   7.769 -0.6901  0.1458  0.1803
  505MOL0     C69590   9.206   0.511   7.658  0.1081  0.2159  0.7813
  505MOL0     C69591   9.222   0.356   7.662 -0.1232 -0.3945  0.2497
  505MOL0     C69592   9.341   0.318   7.584  0.7462  0.4517 -0.3739
  505MOL0     C69593   9.367   0.165   7.600  0.1830 -0.1575  0.8282
  505MOL0     C69594   9.508   0.136   7.562  1.3174 -0.1540  0.5207
  505MOL0     C69595   9.534   0.163   7.412  0.1320 -0.0171 -0.3527
  505MOL0     C69596   9.506   0.024   7.339 -0.4381  0.2615  0.5337
  505MOL0    Cl69597   9.524   0.030   7.156 -0.1501 -0.1605  0.5584
  505MOL0     C69598   8.922   0.677   7.959  0.1650 -0.2766  0.6977
  505MOL0     C69599   8.855   0.740   8.062 -0.0954  0.2248 -0.3609
  505MOL0     O69600   8.933   0.805   8.387  0.5359  0.2362  0.0687
  505MOL0     C69601   8.748   1.110   8.406  0.1898 -0.1265 -0.6463
  505MOL0     C69602   8.688   1.204   8.495  0.7550 -0.8045  0.3985
  505MOL0     N69603   8.170   1.359   8.427  0.2538 -0.1006  0.0956
  505MOL0     N69604   8.182   1.479   8.388  0.3225  0.3272  0.0258
  505MOL0     C69605   9.130   1.789   8.654  0.6442 -0.1349 -0.4389
  505MOL0     C69606   9.192   1.853   8.544 -0.0387  0.0025  0.3769
  505MOL0     C69607   9.399   2.077   8.425 -0.4955  0.2853 -0.6279
  505MOL0     C69608   9.539   2.048   8.410 -0.4145  0.0369  0.4601
  505MOL0     C69609   9.647   2.105   8.477  0.1558 -0.0280  0.7911
  505MOL0     C69610   9.603   2.206   8.573 -0.6089  0.7233  0.2516
  505MOL0     O69611   9.696   2.269   8.660  0.2780 -0.1800 -0.6871
  505MOL0     C69612   9.837   2.250   8.629  0.4982 -0.6810 -0.6775
  505MOL0     C69613   9.907   2.344   8.725 -0.5248 -0.1275 -0.3319
  505MOL0     C69614   9.937   2.284   8.869 -0.3433 -0.3795  0.3146
  505MOL0     C69615   9.808   2.294   8.962  0.0330 -0.4597  0.6829
  505MOL0     C69616   9.777   2.432   8.991 -0.2931 -0.1025 -0.0708
  505MOL0     C69617   9.743   2.539   9.030 -0.0120 -0.6114  0.0630
  505MOL0     C69618   9.477   2.247   8.580  0.5112 -0.2265 -0.7428
  505MOL0     C69619   9.374   2.187   8.507 -0.0033  0.1043 -0.8598
  505MOL0     C69620   9.233   2.240   8.545 -0.3991  0.5102 -0.5786
  505MOL0     H69621   8.934   2.031   8.423 -1.0480  0.7517  0.8242
  505MOL0     H69622   8.825   1.921   8.616 -0.0755 -1.8489 -3.9536
  505MOL0     H69623   8.729   1.802   8.767 -0.3210 -0.9532  0.1708
  505MOL0     H69624   8.771   1.651   8.859 -2.0845  0.4470  0.6945
  505MOL0     H69625   8.799   1.683   8.560  2.0083 -1.5252  1.2394
  505MOL0     H69626   8.789   1.533   8.651 -0.6279 -0.2476  3.9574
  505MOL0     H69627   8.602   1.554   8.533  0.3292 -2.4576  1.6229
  505MOL0     H69628   8.557   1.563   8.701 -0.2707 -2.8272 -2.2385
  505MOL0     H69629   8.534   1.827   8.668  2.3266 -0.1635 -0.8165
  505MOL0     H69630   8.528   1.793   8.505 -2.2213  1.2252 -0.4182
  505MOL0     H69631   8.307   1.677   8.703 -1.5341 -1.8533 -1.5619
  505MOL0     H69632   8.349   1.609   8.552 -0.3530 -2.0639  3.1418
  505MOL0     H69633   8.321   1.900   8.575  2.5027  0.0365  0.4551
  505MOL0     H69634   8.301   1.797   8.436  1.6512  3.1009  0.3416
  505MOL0     H69635   8.085   1.887   8.526 -0.7400  0.6453  4.1126
  505MOL0     H69636   8.109   1.788   8.664 -1.8566  1.4921 -0.5789
  505MOL0     H69637   7.958   1.660   8.501  0.7586 -0.0167  1.3218
  505MOL0     H69638   8.074   1.705   8.367  2.5861 -0.1103  0.6006
  505MOL0     H69639   8.072   1.504   8.701  2.5878 -0.8347  1.6006
  505MOL0     H69640   8.140   1.139   8.585 -1.7331 -0.6763  2.1450
  505MOL0     H69641   8.043   1.238   8.687  0.0396 -0.8066  0.7174
  505MOL0     H69642   8.246   1.320   8.815 -2.5673 -0.4511 -0.0594
  505MOL0     H69643   8.236   1.138   8.800  1.1342 -1.4376 -2.0401
  505MOL0     H69644   8.387   1.177   8.581  1.1694  1.2542 -0.6178
  505MOL0     H69645   8.416   1.339   8.645  4.5336  0.8064  4.9420
  505MOL0     H69646   8.465   1.226   8.860 -1.3720 -2.7792  0.2740
  505MOL0     H69647   8.488   1.074   8.758 -1.2059  0.0622  3.4241
  505MOL0     H69648   8.723   1.021   8.785  1.4666  1.1104  0.5488
  505MOL0     H69649   8.848   0.858   8.782  1.6125  1.2600  0.0388
  505MOL0     H69650   8.955   0.811   8.649  0.8361  0.2718  0.5049
  505MOL0     H69651   8.782   0.768   8.650 -2.3286  2.5652  0.2424
  505MOL0     H69652   9.093   0.986   8.124  0.3424 -0.5598 -0.7859
  505MOL0     H69653   9.194   0.867   7.950 -0.2525 -0.4715 -0.7457
  505MOL0     H69654   9.115   0.469   7.852  1.6220  0.4811  0.1416
  505MOL0     H69655   9.003   0.530   7.721  0.1142  1.2940 -1.8050
  505MOL0     H69656   9.184   0.549   7.558  5.1630 -1.4438 -1.2968
  505MOL0     H69657   9.306   0.551   7.678  0.6917  0.1665 -1.7288
  505MOL0     H69658   9.141   0.299   7.617 -0.7452  2.2762 -2.3445
  505MOL0     H69659   9.234   0.321   7.765 -1.7323  2.2202  1.4432
  505MOL0     H69660   9.420   0.378   7.630  0.0314 -0.8764  2.8198
  505MOL0     H69661   9.339   0.353   7.480  1.0265  0.3444 -0.4167
  505MOL0     H69662   9.357   0.141   7.706 -1.2356  2.4110  1.3701
  505MOL0     H69663   9.292   0.096   7.558  1.0002 -2.0589  2.3406
  505MOL0     H69664   9.527   0.030   7.581  0.9150 -0.3625 -0.1983
  505MOL0     H69665   9.577   0.182   7.633 -0.4398 -1.0504  2.9154
  505MOL0     H69666   9.638   0.196   7.410 -0.1350  1.1864  2.1895
  505MOL0     H69667   9.455   0.230   7.377 -3.6510 -2.8683  1.9331
  505MOL0     H69668   9.403  -0.009   7.357  0.2989 -0.3752  4.2850
  505MOL0     H69669   9.574  -0.057   7.365 -2.1143 -1.1453  0.7059
  505MOL0     H69670   8.864   0.603   7.906  0.9129  0.2749 -0.9407
  505MOL0     H69671   8.758   0.700   8.091  1.3488 -1.6369  2.3464
  505MOL0     H69672   8.750   1.143   8.303  2.6090  0.7692 -0.3739
  505MOL0     H69673   8.639   1.293   8.458 -1.0819 -1.5937  0.8177
  505MOL0     H69674   9.164   1.704   8.713 -0.5527  0.1610  0.7261
  505MOL0     H69675   9.297   1.833   8.523  0.0503  2.5611 -2.2866
  505MOL0     H69676   9.567   1.967   8.344  1.5401 -1.7052  3.1811
  505MOL0     H69677   9.745   2.058   8.477  1.3698  2.3665  0.1104
  505MOL0     H69678   9.866   2.147   8.651  2.3039 -0.2122 -0.6382
  505MOL0     H69679   9.852   2.265   8.522 -0.4803 -0.7997 -0.8390
  505MOL0     H69680   9.865   2.444   8.738 -3.0143 -0.8631 -1.9820
  505MOL0     H69681  10.012   2.363   8.698 -0.3154 -0.6224  0.1256
  505MOL0     H69682   9.968   2.182   8.850 -1.0698 -0.3113 -1.3860
  505MOL0     H69683  10.023   2.317   8.929  0.1954 -0.9118 -0.1600
  505MOL0     H69684   9.828   2.236   9.052  0.0181 -0.8957  0.4104
  505MOL0     H69685   9.726   2.239   8.915  0.5997  0.1621 -1.1400
  505MOL0     H69686   9.709   2.636   9.059  0.9545 -0.7951  1.9330
  505MOL0     H69687   9.460   2.337   8.638 -1.4827 -0.8725 -0.2653
  505MOL0     H69688   9.190   2.156   8.600 -1.4278  0.2776 -1.6804
  505MOL0     H69689   9.245   2.323   8.615 -0.8108  1.3053 -1.4321
  505MOL0     H69690   9.177   2.272   8.457 -1.5743  0.6370  0.2017
  506MOL0     O69691   6.107   6.880  11.512  0.1607 -0.6585 -0.7446
  506MOL0     C69692   6.153   6.827  11.409 -0.1876  0.0073  0.4497
  506MOL0     O69693   6.081   6.741  11.330  0.1024 -0.4597  0.3958
  506MOL0     C69694   5.965   6.691  11.379  0.2559 -0.5904  1.5835
  506MOL0     C69695   5.839   6.742  11.335  0.5626 -0.9221  0.9782
  506MOL0     C69696   5.723   6.692  11.382 -0.5364 -0.3583 -0.3775
  506MOL0     C69697   5.725   6.584  11.486 -0.4087 -0.3840 -0.1881
  506MOL0     O69698   5.611   6.526  11.539  0.0370  0.8178  0.3533
  506MOL0     C69699   5.486   6.542  11.477  0.3876  0.0924 -0.2523
  506MOL0     C69700   5.358   6.494  11.552  0.0618 -0.5298 -0.3865
  506MOL0     C69701   5.330   6.580  11.671  0.0028  0.4810  0.3340
  506MOL0     C69702   5.267   6.501  11.784 -0.2801  0.1870  0.8525
  506MOL0     C69703   5.280   6.563  11.919  0.0301 -0.4475 -0.2671
  506MOL0     C69704   5.414   6.598  11.971  0.1085 -0.5794  0.0854
  506MOL0     C69705   5.511   6.482  11.982 -0.0522 -0.5294 -0.0608
  506MOL0     C69706   5.637   6.514  12.053 -0.4623 -0.1184  0.7679
  506MOL0     N69707   5.704   6.623  11.993  0.1001  0.8562  0.5700
  506MOL0     C69708   5.733   6.638  11.863 -0.1015 -0.1870  0.1243
  506MOL0     C69709   5.790   6.758  11.859 -0.5963  0.8988  0.6399
  506MOL0     C69710   5.831   6.830  11.731  0.0068 -0.3866  0.3032
  506MOL0     C69711   5.711   6.917  11.668 -1.0568 -1.1475  0.4220
  506MOL0     C69712   5.737   7.026  11.558 -0.3072  0.1133  0.1106
  506MOL0     C69713   5.826   7.146  11.606  0.2115  1.2875  0.0981
  506MOL0     O69714   5.768   7.209  11.722 -0.2353 -0.0187  0.2256
  506MOL0     C69715   5.705   7.325  11.706 -0.2567 -0.1991 -0.6762
  506MOL0     C69716   5.633   7.361  11.592 -0.3217 -0.4922  0.0038
  506MOL0     C69717   5.550   7.479  11.584 -0.5408  0.2375 -0.2896
  506MOL0     C69718   5.475   7.505  11.456 -0.6536  0.2887  0.3891
  506MOL0     C69719   5.566   7.578  11.690  0.0225  0.3766 -0.3059
  506MOL0     C69720   5.498   7.712  11.686 -0.8338 -0.8462 -0.1024
  506MOL0     O69721   5.447   7.759  11.804 -0.4437 -0.1509  0.1032
  506MOL0     C69722   5.371   7.871  11.810  0.1832  0.4902 -0.4119
  506MOL0     C69723   5.237   7.856  11.852 -0.1402 -0.4601 -0.1782
  506MOL0     C69724   5.158   7.971  11.840  0.8755 -0.7433 -0.5941
  506MOL0     C69725   5.206   8.097  11.813 -0.6432  0.2610 -0.0967
  506MOL0     O69726   5.112   8.196  11.830  0.3622  0.8614  0.2016
  506MOL0     C69727   5.145   8.327  11.775 -0.0858 -0.1559 -0.0016
  506MOL0     C69728   5.047   8.431  11.823 -0.7597  0.0918 -0.0080
  506MOL0     C69729   5.102   8.567  11.824 -1.3084 -0.0078  0.6870
  506MOL0     C69730   5.006   8.673  11.878 -1.6682  0.0229 -0.0299
  506MOL0     C69731   5.072   8.819  11.868 -0.7789 -0.1724 -0.2748
  506MOL0     C69732   5.084   8.872  11.727  0.1033  0.1402  0.4446
  506MOL0     C69733   5.065   9.025  11.701  0.1228 -0.5573 -0.6688
  506MOL0     C69734   5.184   9.102  11.761  0.0729 -0.2006 -0.2225
  506MOL0    Cl69735   5.328   9.078  11.638  0.5548  0.6190 -0.1717
  506MOL0     C69736   5.344   8.117  11.780 -0.2272 -0.6391 -0.5837
  506MOL0     C69737   5.430   8.006  11.787  0.1724  0.7787 -0.2606
  506MOL0     O69738   5.492   7.774  11.581  0.4444 -0.3667 -0.3242
  506MOL0     C69739   5.645   7.538  11.798 -0.0489 -0.3349 -0.3192
  506MOL0     C69740   5.702   7.410  11.814 -0.3616 -0.3104 -0.1825
  506MOL0     N69741   5.802   6.811  11.984  0.0271  0.0180 -1.1945
  506MOL0     N69742   5.739   6.731  12.063  1.1158 -0.7273  0.4145
  506MOL0     C69743   5.854   6.541  11.530 -0.2698  1.1252 -0.4198
  506MOL0     C69744   5.968   6.589  11.469 -0.5034  0.0261 -0.1719
  506MOL0     C69745   6.299   6.834  11.379 -0.0691  0.3931 -1.0118
  506MOL0     C69746   6.363   6.717  11.335  0.0336 -0.6922  0.5319
  506MOL0     C69747   6.507   6.727  11.305 -0.0841  0.6945  0.0418
  506MOL0     C69748   6.580   6.841  11.336 -0.5676  0.2788 -0.3508
  506MOL0     O69749   6.711   6.847  11.312 -0.2088  1.0414  0.0213
  506MOL0     C69750   6.788   6.840  11.431  0.4229 -0.0293 -0.1301
  506MOL0     C69751   6.876   6.731  11.399  0.2841 -0.1789  0.1013
  506MOL0     C69752   6.993   6.710  11.496 -0.2105  0.5084  0.8847
  506MOL0     C69753   7.120   6.639  11.442  0.4669  0.0134  0.0334
  506MOL0     C69754   7.228   6.629  11.544 -0.1570  0.2192  0.6532
  506MOL0     C69755   7.329   6.631  11.607  0.3014 -0.0717 -0.0178
  506MOL0     C69756   6.508   6.955  11.400 -0.4577 -0.1993 -1.4651
  506MOL0     C69757   6.373   6.952  11.419  0.4882  0.3846 -0.3295
  506MOL0     C69758   6.316   7.083  11.464 -0.8335  0.8092  0.2024
  506MOL0     H69759   5.832   6.827  11.268 -4.3379 -2.9819 -1.6891
  506MOL0     H69760   5.628   6.738  11.354 -0.4809 -0.3475 -0.5524
  506MOL0     H69761   5.486   6.499  11.377 -1.3944 -0.9062  0.1432
  506MOL0     H69762   5.482   6.651  11.469 -1.2512  0.3145  2.3139
  506MOL0     H69763   5.273   6.494  11.482  0.3789 -0.1020 -0.7733
  506MOL0     H69764   5.365   6.388  11.578 -1.6721 -1.4061 -3.0097
  506MOL0     H69765   5.427   6.623  11.697  0.0981  0.5732 -0.1826
  506MOL0     H69766   5.258   6.657  11.643  0.6018 -0.0875 -3.2698
  506MOL0     H69767   5.165   6.487  11.748 -1.3429 -0.9579  4.0182
  506MOL0     H69768   5.302   6.398  11.784 -3.2334 -0.9568  2.9421
  506MOL0     H69769   5.234   6.497  11.993  0.3372  1.1970  1.4588
  506MOL0     H69770   5.238   6.664  11.925  0.8039 -0.1783  1.4160
  506MOL0     H69771   5.447   6.674  11.900  0.4041  1.1189  1.9599
  506MOL0     H69772   5.412   6.649  12.068 -1.0415 -0.9305  0.2579
  506MOL0     H69773   5.538   6.459  11.879 -1.1848  1.6064 -0.9139
  506MOL0     H69774   5.444   6.409  12.028 -1.1228  1.0806  1.0571
  506MOL0     H69775   5.620   6.550  12.155  2.5291  2.6013  0.4524
  506MOL0     H69776   5.695   6.424  12.076  2.5259  1.1829 -1.0689
  506MOL0     H69777   5.710   6.567  11.784 -0.7705  0.6447 -0.4484
  506MOL0     H69778   5.868   6.756  11.660 -2.8375  2.2993 -4.4574
  506MOL0     H69779   5.910   6.903  11.755 -1.8869  1.3169  1.7497
  506MOL0     H69780   5.629   6.850  11.642 -0.8210 -0.1108 -3.5697
  506MOL0     H69781   5.681   6.981  11.751  3.4455 -0.2068  1.5974
  506MOL0     H69782   5.793   6.984  11.474  0.7997 -2.7702  2.1227
  506MOL0     H69783   5.635   7.058  11.535 -0.4976  0.8990  1.8590
  506MOL0     H69784   5.926   7.115  11.637 -1.4496 -3.2192  1.7332
  506MOL0     H69785   5.836   7.212  11.519 -1.6564 -1.8259 -2.7251
  506MOL0     H69786   5.631   7.296  11.505  3.1333 -0.1785 -0.4550
  506MOL0     H69787   5.374   7.546  11.474  0.3202  1.4918  3.9814
  506MOL0     H69788   5.472   7.411  11.401  1.3591  0.1497  0.4663
  506MOL0     H69789   5.535   7.577  11.400  1.2691 -1.5192  0.0129
  506MOL0     H69790   5.184   7.772  11.895 -1.2732  1.3991  2.3484
  506MOL0     H69791   5.056   7.962  11.874  0.6235  1.0728 -0.7714
  506MOL0     H69792   5.238   8.350  11.828  0.4193 -0.5553 -0.6944
  506MOL0     H69793   5.167   8.318  11.668  0.3115 -1.1278  0.1473
  506MOL0     H69794   4.959   8.419  11.759 -1.4159 -0.5467  0.9898
  506MOL0     H69795   5.033   8.400  11.927  3.8090 -0.8695  0.5550
  506MOL0     H69796   5.131   8.579  11.719 -4.4288 -1.8521 -0.5049
  506MOL0     H69797   5.195   8.587  11.878 -1.0489  1.7553 -0.3209
  506MOL0     H69798   4.978   8.650  11.981 -2.0298  0.0202 -0.1253
  506MOL0     H69799   4.914   8.669  11.819 -2.3160 -2.6040  1.0130
  506MOL0     H69800   4.994   8.872  11.922 -0.3315  0.2255 -0.0160
  506MOL0     H69801   5.165   8.831  11.923 -1.3487  0.7219  0.5130
  506MOL0     H69802   5.021   8.824  11.651  1.5910 -1.2990  0.0628
  506MOL0     H69803   5.180   8.853  11.678  0.1213  1.2657  0.0174
  506MOL0     H69804   4.962   9.056  11.721 -0.6748 -2.9628 -0.7158
  506MOL0     H69805   5.067   9.039  11.593 -2.8903  3.6237 -0.4261
  506MOL0     H69806   5.222   9.070  11.858  0.1634  4.1784  1.4562
  506MOL0     H69807   5.165   9.209  11.777  0.7995  0.0363 -0.8693
  506MOL0     H69808   5.389   8.214  11.766  0.6151 -0.8677  0.4735
  506MOL0     H69809   5.537   8.013  11.768  1.0049 -0.4081  3.2232
  506MOL0     H69810   5.650   7.608  11.881  0.7429 -0.3411 -0.3547
  506MOL0     H69811   5.750   7.382  11.907  0.9606 -1.0334 -1.0575
  506MOL0     H69812   5.865   6.457  11.598 -3.9932 -1.2410 -2.3691
  506MOL0     H69813   6.069   6.554  11.488  1.5239  3.2322 -3.6717
  506MOL0     H69814   6.313   6.622  11.324 -0.3556 -0.5862  1.3363
  506MOL0     H69815   6.559   6.644  11.259 -0.6755  0.5688 -0.4007
  506MOL0     H69816   6.838   6.936  11.443  1.5042 -0.5155 -0.5864
  506MOL0     H69817   6.724   6.806  11.513 -2.0459 -1.1877 -2.3718
  506MOL0     H69818   6.911   6.752  11.298 -2.5449  1.2516 -0.6861
  506MOL0     H69819   6.825   6.635  11.393 -0.0477  0.0691 -1.2609
  506MOL0     H69820   7.033   6.809  11.515  0.9701 -0.0453  1.3650
  506MOL0     H69821   6.962   6.664  11.590 -0.6415 -1.9392 -0.3538
  506MOL0     H69822   7.162   6.693  11.356 -0.4194 -3.8863 -3.1124
  506MOL0     H69823   7.096   6.537  11.413  1.2544 -0.1380 -0.0973
  506MOL0     H69824   7.404   6.640  11.684  0.6725 -0.7568 -0.2959
  506MOL0     H69825   6.565   7.046  11.411 -1.0259 -0.0024  0.2289
  506MOL0     H69826   6.211   7.092  11.437 -1.7433 -2.8647  1.9863
  506MOL0     H69827   6.327   7.092  11.572 -2.4011 -0.9933  0.5473
  506MOL0     H69828   6.365   7.165  11.410  2.1366 -0.3044  1.0244
  507MOL0     O69829  10.753   5.527  11.329  0.2637  0.2830  0.1441
  507MOL0     C69830  10.830   5.489  11.415  0.1336 -0.7454  0.1068
  507MOL0     O69831  10.947   5.551  11.449  0.3510  0.3237 -0.0930
  507MOL0     C69832  10.980   5.667  11.395 -0.3462 -0.0391 -0.8783
  507MOL0     C69833  11.040   5.664  11.267  0.5518  0.7269 -1.1316
  507MOL0     C69834  11.084   5.773  11.208  0.6848  0.0143 -0.5153
  507MOL0     C69835  11.057   5.901  11.262 -0.6915 -0.7711  0.2997
  507MOL0     O69836  11.092   6.012  11.191 -0.0617  0.4125 -0.5624
  507MOL0     C69837  11.022   6.135  11.222 -0.0076  0.4443 -0.6683
  507MOL0     C69838  11.014   6.232  11.103 -0.6344  0.4442  0.3109
  507MOL0     C69839  10.918   6.180  10.995  1.3194 -0.3837  0.5465
  507MOL0     C69840  10.968   6.058  10.915  0.3073  0.8261 -0.2024
  507MOL0     C69841  10.869   6.008  10.797 -0.5391 -0.6782  0.8589
  507MOL0     C69842  10.923   5.881  10.715 -0.1515 -0.0505 -1.3763
  507MOL0     C69843  11.018   5.913  10.592 -0.3906 -0.1575 -0.4677
  507MOL0     C69844  11.094   5.799  10.554 -0.2072  0.3872  0.1647
  507MOL0     N69845  11.186   5.830  10.450 -0.6018 -0.0964 -0.1004
  507MOL0     C69846  11.310   5.763  10.444  0.1161  0.5278  0.2901
  507MOL0     C69847  11.354   5.796  10.315  0.2295 -0.1080 -0.6247
  507MOL0     C69848  11.485   5.772  10.246  0.7113 -1.2032 -0.0730
  507MOL0     C69849  11.474   5.744  10.088  0.1217  0.4603 -0.0621
  507MOL0     C69850  11.604   5.668  10.044 -0.2131 -0.1711  0.1936
  507MOL0     C69851  11.587   5.626   9.899  0.2289 -0.0394  0.0676
  507MOL0     O69852  11.713   5.563   9.871 -0.0909 -0.2059 -0.4646
  507MOL0     C69853  11.824   5.636   9.837  0.4242  0.7434 -0.1086
  507MOL0     C69854  11.824   5.773   9.819  0.1617  0.2053 -0.6590
  507MOL0     C69855  11.938   5.841   9.784  0.5271 -0.2091  0.2357
  507MOL0     C69856  11.931   5.994   9.788  1.3844  0.1711  0.5023
  507MOL0     C69857  12.056   5.765   9.775 -1.2383 -0.5757 -0.0921
  507MOL0     C69858  12.179   5.831   9.741  0.9471  0.1930 -0.4770
  507MOL0     O69859  12.205   5.822   9.609  0.1575 -0.8514 -0.2365
  507MOL0     C69860  12.309   5.881   9.543  0.7468 -0.6739  0.2778
  507MOL0     C69861  12.358   5.810   9.440 -0.6681  0.4067 -0.2860
  507MOL0     C69862  12.474   5.839   9.367  0.6110 -0.3636  0.1130
  507MOL0     C69863  12.544   5.951   9.401  0.0978  0.2664  0.6857
  507MOL0     O69864  12.667   5.978   9.346  0.9838 -0.4965  0.7967
  507MOL0     C69865  12.696   6.114   9.338  0.1599  0.1726 -0.4135
  507MOL0     C69866  12.798   6.130   9.235 -0.3720  0.6481 -0.0492
  507MOL0     C69867  12.746   6.088   9.102 -0.3729  0.8537 -1.0920
  507MOL0     C69868  12.877   6.067   9.018  0.2021  1.0669  0.0832
  507MOL0     C69869  12.836   6.033   8.877  0.7681 -0.3014 -0.4797
  507MOL0     C69870  12.950   6.010   8.769  0.2160 -0.3449  0.5946
  507MOL0     C69871  13.040   6.124   8.775  0.7891  0.1667  0.2112
  507MOL0     C69872  13.141   6.126   8.662 -0.0600 -0.8377  0.3267
  507MOL0    Cl69873  13.301   6.203   8.710 -0.0104 -0.2403  0.0962
  507MOL0     C69874  12.488   6.026   9.507  0.9320  0.5686  0.5314
  507MOL0     C69875  12.382   5.987   9.581 -0.4800  0.3306  0.1563
  507MOL0     O69876  12.237   5.901   9.827  0.0285 -0.5104 -0.4221
  507MOL0     C69877  12.054   5.626   9.770 -0.5329  0.1528 -0.1525
  507MOL0     C69878  11.939   5.554   9.809  0.1222 -0.2604  0.2606
  507MOL0     N69879  11.251   5.854  10.246  0.3028 -0.0316  0.2343
  507MOL0     N69880  11.160   5.882  10.327 -0.3138  0.1041 -0.5466
  507MOL0     C69881  10.988   5.908  11.386 -0.2687 -0.4172 -0.5520
  507MOL0     C69882  10.952   5.785  11.457  0.4883 -0.2508 -0.3971
  507MOL0     C69883  10.795   5.355  11.470  0.3217  0.5812  0.5422
  507MOL0     C69884  10.894   5.285  11.530  0.2512 -0.0771 -0.2985
  507MOL0     C69885  10.869   5.160  11.594 -0.2924 -0.9551 -0.7042
  507MOL0     C69886  10.738   5.109  11.615 -0.7276 -0.6900 -0.9983
  507MOL0     O69887  10.722   4.996  11.683  0.3439  0.2557 -0.0522
  507MOL0     C69888  10.607   4.917  11.706  0.2222  0.2423  0.7190
  507MOL0     C69889  10.533   4.937  11.838  0.9974  1.0329  0.9295
  507MOL0     C69890  10.624   4.876  11.943  0.5702  0.0304  0.1627
  507MOL0     C69891  10.580   4.736  11.976  0.0274  0.0166 -0.8341
  507MOL0     C69892  10.670   4.661  12.058  0.0219  0.1971 -0.5411
  507MOL0     C69893  10.759   4.618  12.126  0.1684  0.5951 -0.6197
  507MOL0     C69894  10.642   5.175  11.547 -0.3407 -0.3030  0.2263
  507MOL0     C69895  10.666   5.287  11.466 -0.2104 -0.6230  0.3781
  507MOL0     C69896  10.537   5.331  11.396  0.2008  0.6005  0.3657
  507MOL0     H69897  11.058   5.565  11.228 -0.3487 -0.9229  2.2572
  507MOL0     H69898  11.140   5.758  11.116 -0.2147 -1.8348 -0.8028
  507MOL0     H69899  11.070   6.183  11.307  1.5059  0.7714 -1.6609
  507MOL0     H69900  10.921   6.126  11.263  0.9976 -0.8608  1.6945
  507MOL0     H69901  10.970   6.318  11.155 -0.7602 -0.3240  1.5205
  507MOL0     H69902  11.111   6.260  11.060  1.0115  0.1380  3.4898
  507MOL0     H69903  10.827   6.165  11.054  1.6835 -0.4820  1.0942
  507MOL0     H69904  10.897   6.255  10.919 -1.7674 -1.5261  0.1413
  507MOL0     H69905  11.065   6.087  10.875  1.5145  0.4486  2.2872
  507MOL0     H69906  10.994   5.975  10.981  1.4466  2.6622  1.7316
  507MOL0     H69907  10.869   6.092  10.727 -0.5439  0.4504  2.1709
  507MOL0     H69908  10.769   5.986  10.835  0.7230 -1.4927  4.0593
  507MOL0     H69909  10.975   5.816  10.786  2.5032  1.8416 -1.4420
  507MOL0     H69910  10.840   5.830  10.666 -1.7753 -0.7508  1.8289
  507MOL0     H69911  11.089   5.983  10.639  0.5201 -0.5540 -1.2350
  507MOL0     H69912  10.950   5.951  10.515  0.7183  2.4873 -0.2564
  507MOL0     H69913  11.145   5.761  10.644  1.8286  0.5672 -0.8690
  507MOL0     H69914  11.021   5.724  10.523  0.4898  0.5494 -1.9724
  507MOL0     H69915  11.346   5.696  10.522 -0.6365 -1.8288 -1.2734
  507MOL0     H69916  11.525   5.678  10.286  0.9821 -1.0091  0.1173
  507MOL0     H69917  11.544   5.861  10.269 -4.4593  2.6676 -0.1101
  507MOL0     H69918  11.388   5.677  10.077  0.7140 -0.1048 -1.5202
  507MOL0     H69919  11.462   5.835  10.029 -3.6478  2.0641  2.7763
  507MOL0     H69920  11.688   5.734  10.067 -0.2967 -0.2977  0.9087
  507MOL0     H69921  11.612   5.578  10.105  0.8077  0.1834  0.5990
  507MOL0     H69922  11.516   5.546   9.876 -2.6386  1.9590  1.3756
  507MOL0     H69923  11.567   5.707   9.829 -1.6049  1.3676  2.0819
  507MOL0     H69924  11.739   5.835   9.846  2.4875  3.3136  0.0238
  507MOL0     H69925  11.929   6.030   9.892  0.4418 -2.7775  1.5989
  507MOL0     H69926  11.840   6.029   9.737  2.8520 -0.4522 -2.8063
  507MOL0     H69927  12.018   6.036   9.737  1.4301 -0.2342  0.2456
  507MOL0     H69928  12.309   5.714   9.430  0.4968 -0.2058 -0.2095
  507MOL0     H69929  12.510   5.764   9.297 -1.0381 -1.5058  0.4272
  507MOL0     H69930  12.613   6.177   9.305  0.9772  1.4713 -0.0479
  507MOL0     H69931  12.736   6.150   9.433  1.5588  0.7296 -1.1758
  507MOL0     H69932  12.829   6.232   9.212  0.5033 -0.0272 -2.0825
  507MOL0     H69933  12.878   6.061   9.261 -1.1118 -0.5733 -0.8666
  507MOL0     H69934  12.685   6.161   9.047 -2.0994 -0.3867 -0.8705
  507MOL0     H69935  12.695   5.992   9.109 -1.9556  1.7335 -0.0173
  507MOL0     H69936  12.939   5.985   9.054  0.0252  1.4424  1.2723
  507MOL0     H69937  12.946   6.152   9.021  0.3574  0.9171  0.8053
  507MOL0     H69938  12.784   5.937   8.887 -2.2579  1.3471  0.9399
  507MOL0     H69939  12.758   6.103   8.848  1.8339  1.4996  0.8230
  507MOL0     H69940  12.905   5.998   8.670 -0.4584  2.2720  0.5009
  507MOL0     H69941  13.005   5.924   8.807  0.5748  0.6572  2.5092
  507MOL0     H69942  13.089   6.132   8.872  3.1739  0.0641 -0.8983
  507MOL0     H69943  12.983   6.214   8.753  1.2267  0.2984 -0.4379
  507MOL0     H69944  13.106   6.167   8.566 -2.5694 -0.9743  1.1142
  507MOL0     H69945  13.168   6.021   8.654 -1.2143 -1.1344  0.2118
  507MOL0     H69946  12.545   6.112   9.544 -1.0914  1.3075  2.1263
  507MOL0     H69947  12.355   6.055   9.661  1.0299  0.5041  0.5604
  507MOL0     H69948  12.140   5.564   9.748 -1.6347 -1.7299  0.5814
  507MOL0     H69949  11.910   5.450   9.815 -3.0486  0.5237  0.2144
  507MOL0     H69950  10.968   6.006  11.427 -0.0119 -0.7132  0.3029
  507MOL0     H69951  10.908   5.797  11.556  0.3120 -1.2085 -0.3525
  507MOL0     H69952  10.995   5.322  11.518  0.6145 -0.2026  1.9743
  507MOL0     H69953  10.954   5.097  11.618 -0.3226 -1.5754 -2.0933
  507MOL0     H69954  10.547   4.931  11.615  1.3819 -0.3013 -0.1545
  507MOL0     H69955  10.640   4.813  11.701  1.1012  0.5800 -1.9637
  507MOL0     H69956  10.437   4.887  11.818  1.8164  0.7317 -3.0954
  507MOL0     H69957  10.510   5.042  11.861 -3.2130  0.0875  1.9878
  507MOL0     H69958  10.719   4.873  11.889  0.0645  0.4222 -0.7707
  507MOL0     H69959  10.635   4.931  12.036 -2.5595 -1.5335  1.6029
  507MOL0     H69960  10.565   4.672  11.888  2.0896 -0.0211 -1.2256
  507MOL0     H69961  10.488   4.744  12.033  0.7371  1.3774  0.1866
  507MOL0     H69962  10.846   4.569  12.166 -0.7513  0.7299  1.7308
  507MOL0     H69963  10.551   5.115  11.546 -0.4200 -0.2976  2.5135
  507MOL0     H69964  10.551   5.313  11.289 -3.0240  4.3894 -0.9573
  507MOL0     H69965  10.446   5.281  11.429  1.7025 -0.3295  3.4531
  507MOL0     H69966  10.524   5.439  11.404 -1.6482  0.5758 -1.3631
  508MOL0     O69967   9.755   6.910   9.521  0.1930 -0.5523  0.3416
  508MOL0     C69968   9.633   6.914   9.507 -0.0103 -0.8570  0.4541
  508MOL0     O69969   9.540   6.965   9.602 -0.0200  0.5344  0.0995
  508MOL0     C69970   9.579   6.950   9.736 -1.6132 -0.1205 -0.3071
  508MOL0     C69971   9.600   7.058   9.818 -0.5030  0.7210 -0.6208
  508MOL0     C69972   9.647   7.042   9.948 -0.2422 -0.3783  0.1635
  508MOL0     C69973   9.686   6.917   9.993  0.5580 -0.2245  0.8372
  508MOL0     O69974   9.744   6.883  10.107 -0.0713 -0.2475  0.4637
  508MOL0     C69975   9.688   6.932  10.231  0.0937  0.6888 -0.4294
  508MOL0     C69976   9.776   6.868  10.338 -0.1661 -0.1912  0.4242
  508MOL0     C69977   9.805   6.730  10.298  0.1686  0.4552 -0.8652
  508MOL0     C69978   9.841   6.653  10.437  0.0134  0.4789 -0.7627
  508MOL0     C69979   9.980   6.685  10.480  0.3939  0.4732  0.7529
  508MOL0     C69980  10.023   6.628  10.616  0.0341 -0.0317  0.0082
  508MOL0     C69981  10.156   6.665  10.683  0.3620  0.8470  0.2542
  508MOL0     C69982  10.155   6.622  10.839 -0.1399 -0.6764 -0.9073
  508MOL0     N69983  10.134   6.475  10.846  0.4028 -0.2006 -0.1545
  508MOL0     C69984  10.227   6.375  10.831 -0.4478  0.8786  0.0396
  508MOL0     C69985  10.168   6.267  10.874  0.8565  0.0448  0.1096
  508MOL0     C69986  10.240   6.132  10.861  0.7673  1.0828  0.3705
  508MOL0     C69987  10.227   6.035  10.980  0.5861  0.3780 -0.1083
  508MOL0     C69988  10.362   6.027  11.060 -0.3280  0.1264  0.4302
  508MOL0     C69989  10.406   6.166  11.126  0.8082 -0.9952  0.3158
  508MOL0     O69990  10.539   6.156  11.190 -0.3765 -0.3131  0.7939
  508MOL0     C69991  10.545   6.067  11.288  0.7900  0.2165  0.0100
  508MOL0     C69992  10.472   6.098  11.407  0.6446 -0.3215 -0.6946
  508MOL0     C69993  10.466   6.010  11.516 -0.1344  0.0482 -0.4451
  508MOL0     C69994  10.388   6.070  11.631  1.0792  0.4263 -0.8535
  508MOL0     C69995  10.534   5.883  11.511 -0.1075  0.7284 -1.3457
  508MOL0     C69996  10.537   5.794  11.621 -0.8346  0.0977  0.4136
  508MOL0     O69997  10.575   5.668  11.589 -0.3000  0.6646 -0.0050
  508MOL0     C69998  10.579   5.565  11.682  0.7124 -0.2028  0.1651
  508MOL0     C69999  10.472   5.475  11.707 -0.5463  1.1558  0.2550
  508MOL0     C70000  10.469   5.377  11.811  0.9274  0.6511 -0.0290
  508MOL0     C70001  10.587   5.367  11.888 -0.4795  0.5454 -0.6129
  508MOL0     O70002  10.572   5.286  11.999  0.3099 -0.1098 -0.6500
  508MOL0     C70003  10.627   5.344  12.115 -0.7972 -0.4165 -0.6407
  508MOL0     C70004  10.619   5.248  12.247  0.5747 -0.2839 -0.4441
  508MOL0     C70005  10.481   5.239  12.301  0.9859  0.3386  0.6011
  508MOL0     C70006  10.481   5.200  12.451  0.5603  0.4213 -0.5947
  508MOL0     C70007  10.346   5.222  12.509 -1.1622 -0.6644 -1.1117
  508MOL0     C70008  10.339   5.162  12.646  0.5555 -0.4918 -1.3199
  508MOL0     C70009  10.197   5.111  12.677  0.2081  0.6722 -0.1149
  508MOL0     C70010  10.166   5.124  12.821  0.4920  0.4577 -0.5091
  508MOL0    Cl70011  10.013   5.040  12.855  0.3565  0.0621 -0.0716
  508MOL0     C70012  10.704   5.440  11.859  1.4708 -0.9165 -1.0407
  508MOL0     C70013  10.694   5.537  11.758  0.4653 -0.3223  0.3494
  508MOL0     O70014  10.498   5.835  11.730 -0.2167  0.6284 -0.6407
  508MOL0     C70015  10.606   5.850  11.392 -0.8635 -0.9521  0.1640
  508MOL0     C70016  10.613   5.942  11.283 -0.0528 -1.3812 -0.1083
  508MOL0     N70017  10.044   6.297  10.924  0.1907  0.1282 -0.5391
  508MOL0     N70018  10.023   6.425  10.895 -0.2773  0.7145 -0.4907
  508MOL0     C70019   9.656   6.807   9.917  0.5211 -0.4344  0.7482
  508MOL0     C70020   9.606   6.822   9.786 -0.3127  0.0957  0.2766
  508MOL0     C70021   9.568   6.901   9.373 -0.4682 -0.1705  0.2246
  508MOL0     C70022   9.424   6.895   9.365 -0.4713 -0.6000 -0.7479
  508MOL0     C70023   9.349   6.884   9.241 -0.2043 -0.1103 -0.2063
  508MOL0     C70024   9.419   6.890   9.117  0.7814  0.3999  0.1714
  508MOL0     O70025   9.336   6.910   9.012 -0.1194 -0.5293 -0.1240
  508MOL0     C70026   9.395   6.971   8.899  0.1138 -0.7869 -0.7266
  508MOL0     C70027   9.303   6.951   8.778  0.1771 -0.0641  0.6760
  508MOL0     C70028   9.146   6.990   8.783  0.6076 -0.5556  0.2747
  508MOL0     C70029   9.074   6.910   8.670 -1.5762  0.3547 -0.0104
  508MOL0     C70030   8.962   6.989   8.622 -0.3229 -1.4210  0.1987
  508MOL0     C70031   8.862   7.056   8.603  0.1301 -0.0275  0.3191
  508MOL0     C70032   9.562   6.885   9.119 -0.1380  0.7940 -0.8407
  508MOL0     C70033   9.636   6.882   9.244 -0.2135 -0.5448 -0.6191
  508MOL0     C70034   9.789   6.875   9.240  0.2029  0.4904 -0.4935
  508MOL0     H70035   9.575   7.153   9.773  1.4086  0.8833 -1.4308
  508MOL0     H70036   9.659   7.135  10.002 -4.0738  1.2652 -1.4112
  508MOL0     H70037   9.593   6.879  10.244  1.9188 -3.4863 -2.1757
  508MOL0     H70038   9.676   7.040  10.234 -3.5355  0.3763  0.1356
  508MOL0     H70039   9.859   6.939  10.347  0.3675 -1.0506  3.7856
  508MOL0     H70040   9.718   6.875  10.431  1.4926  0.6714  1.4435
  508MOL0     H70041   9.730   6.679  10.238  2.9455  0.2873 -4.5267
  508MOL0     H70042   9.892   6.730  10.231  0.8781 -2.9339 -0.1681
  508MOL0     H70043   9.773   6.685  10.516  1.3099 -0.2531  0.6873
  508MOL0     H70044   9.827   6.546  10.423 -1.3119  0.4000  0.9842
  508MOL0     H70045   9.988   6.794  10.492  1.0293  0.2718  2.5870
  508MOL0     H70046  10.050   6.647  10.405  0.2997  0.4504  0.6767
  508MOL0     H70047   9.945   6.659  10.685 -0.8520 -0.2895 -0.8469
  508MOL0     H70048  10.011   6.519  10.619 -0.3894  0.0156  0.0559
  508MOL0     H70049  10.177   6.772  10.676 -1.2178  1.4187  2.8612
  508MOL0     H70050  10.237   6.616  10.628 -1.4310 -2.6003  0.4098
  508MOL0     H70051  10.247   6.654  10.890 -2.8634  1.5089  3.1895
  508MOL0     H70052  10.093   6.686  10.902  1.9345  1.2047 -0.6186
  508MOL0     H70053  10.323   6.369  10.781 -0.2602 -2.1168  0.5648
  508MOL0     H70054  10.347   6.146  10.841  1.2775 -1.2905  1.1082
  508MOL0     H70055  10.211   6.082  10.768  3.0908  0.3715 -0.0295
  508MOL0     H70056  10.159   6.074  11.057  0.6870 -1.8261  1.1977
  508MOL0     H70057  10.198   5.931  10.958  0.0585 -0.3241  3.3394
  508MOL0     H70058  10.340   5.964  11.146 -4.3909  2.1481  1.1110
  508MOL0     H70059  10.444   5.985  11.001 -0.9191 -3.5252  1.9777
  508MOL0     H70060  10.431   6.242  11.052 -0.8084 -0.1775  0.5621
  508MOL0     H70061  10.336   6.208  11.199  0.5830 -1.1170  0.1697
  508MOL0     H70062  10.415   6.190  11.402  0.8358  0.3542  4.2983
  508MOL0     H70063  10.323   6.151  11.596 -0.4735 -0.8587 -1.0889
  508MOL0     H70064  10.461   6.103  11.705 -0.2637  1.7671 -0.0678
  508MOL0     H70065  10.321   5.996  11.676 -2.0718  1.1141 -3.9598
  508MOL0     H70066  10.398   5.479  11.628  2.5211 -0.6128 -3.0533
  508MOL0     H70067  10.376   5.326  11.837  1.1384 -0.5696 -1.4812
  508MOL0     H70068  10.734   5.359  12.101 -1.2003  1.4007 -2.3188
  508MOL0     H70069  10.577   5.440  12.134  0.5828 -0.1017  1.7268
  508MOL0     H70070  10.651   5.148  12.216 -0.9309 -0.5196 -1.2961
  508MOL0     H70071  10.686   5.291  12.322  2.3329 -0.6905 -1.7140
  508MOL0     H70072  10.411   5.180  12.240 -0.4539  2.1132  0.4158
  508MOL0     H70073  10.452   5.345  12.296  0.8731  0.3800  1.8911
  508MOL0     H70074  10.545   5.266  12.509 -0.9076  0.5330  0.9878
  508MOL0     H70075  10.508   5.094  12.458  0.6893  0.3117 -2.2944
  508MOL0     H70076  10.338   5.331  12.510 -0.0990 -0.5608 -1.9272
  508MOL0     H70077  10.272   5.180  12.440 -0.6504 -1.8730 -0.9445
  508MOL0     H70078  10.371   5.247  12.707  0.7528 -0.4341 -1.5046
  508MOL0     H70079  10.406   5.077  12.661  0.8783  0.2252  2.3334
  508MOL0     H70080  10.201   5.003  12.658 -1.2691 -0.3530  4.2725
  508MOL0     H70081  10.122   5.162  12.616 -0.3171 -1.8693 -1.7679
  508MOL0     H70082  10.144   5.228  12.845 -5.3045 -0.7871  1.1819
  508MOL0     H70083  10.249   5.068  12.866 -0.1428 -4.0641 -4.2002
  508MOL0     H70084  10.786   5.441  11.930  1.5439  2.9969 -0.9380
  508MOL0     H70085  10.784   5.592  11.736 -0.0897  0.2754 -0.4769
  508MOL0     H70086  10.653   5.755  11.368  1.0549 -0.3105  1.1512
  508MOL0     H70087  10.658   5.910  11.190  0.7104  0.0244 -0.2489
  508MOL0     H70088   9.664   6.706   9.955  0.5603 -1.1593 -1.0704
  508MOL0     H70089   9.577   6.737   9.726  0.5815 -0.6697  0.9063
  508MOL0     H70090   9.368   6.906   9.457 -0.3698 -1.1598 -0.6161
  508MOL0     H70091   9.241   6.877   9.240 -0.2778  0.7239  0.7513
  508MOL0     H70092   9.401   7.075   8.933 -0.8644 -0.5349 -1.3015
  508MOL0     H70093   9.500   6.943   8.883  1.2483  0.2322  3.5392
  508MOL0     H70094   9.309   6.843   8.766 -0.5106 -0.0515  0.1408
  508MOL0     H70095   9.356   6.995   8.693 -0.9220  0.2163  0.1186
  508MOL0     H70096   9.103   6.959   8.878 -1.7286 -0.4990 -0.6984
  508MOL0     H70097   9.130   7.097   8.768  2.4776 -0.1697  0.7765
  508MOL0     H70098   9.040   6.813   8.706  1.3903 -0.4440  0.8734
  508MOL0     H70099   9.151   6.894   8.595  0.8229  5.0813  1.0263
  508MOL0     H70100   8.770   7.108   8.587  0.2554  0.1160  0.0636
  508MOL0     H70101   9.616   6.898   9.026 -2.0059  0.1582 -2.0694
  508MOL0     H70102   9.837   6.948   9.305  0.9288 -0.3934 -0.0169
  508MOL0     H70103   9.824   6.783   9.286 -1.8610  0.6254  1.5171
  508MOL0     H70104   9.838   6.892   9.143  0.9690  1.7959  0.0884
  509MOL0     O70105   9.595   4.077   9.706  0.6117 -0.3583 -0.2049
  509MOL0     C70106   9.661   4.057   9.605  0.6135 -0.9441 -0.1825
  509MOL0     O70107   9.794   4.024   9.603 -0.5376  0.4849  0.3602
  509MOL0     C70108   9.828   3.930   9.699  0.3557 -0.4504  0.1886
  509MOL0     C70109   9.755   3.821   9.753 -0.4071 -0.4646 -0.5485
  509MOL0     C70110   9.802   3.752   9.872 -0.2060  0.0219 -0.0034
  509MOL0     C70111   9.929   3.777   9.925  1.1377  1.3168 -0.5899
  509MOL0     O70112   9.976   3.712  10.034  0.0056  0.6414 -0.0567
  509MOL0     C70113   9.877   3.660  10.126 -0.4989  0.5115 -0.4429
  509MOL0     C70114   9.864   3.509  10.099 -0.1853  0.9528 -0.0842
  509MOL0     C70115   9.999   3.438  10.107  0.0249  0.8932 -0.5545
  509MOL0     C70116  10.072   3.469  10.239  0.1811  0.0624 -0.0219
  509MOL0     C70117  10.170   3.358  10.278  0.1124 -0.0522 -0.1371
  509MOL0     C70118  10.241   3.404  10.411  0.0756  0.1353  0.2547
  509MOL0     C70119  10.352   3.310  10.455  0.1739  0.1173  0.1279
  509MOL0     C70120  10.452   3.372  10.556 -0.1380 -0.8192  0.5276
  509MOL0     N70121  10.396   3.449  10.668  0.0177 -0.3099  0.4515
  509MOL0     C70122  10.424   3.582  10.696  0.1045 -0.3553 -0.3103
  509MOL0     C70123  10.324   3.612  10.792  0.5487 -0.2188  0.4277
  509MOL0     C70124  10.324   3.742  10.876 -0.4670  0.0945 -0.2116
  509MOL0     C70125  10.187   3.814  10.894  0.7045  1.2516  0.4378
  509MOL0     C70126  10.070   3.735  10.938 -0.6117  0.1059  0.4395
  509MOL0     C70127   9.956   3.820  10.994  0.0700 -0.2158 -0.3377
  509MOL0     O70128   9.999   3.879  11.123  0.3683  0.1998  0.0770
  509MOL0     C70129   9.933   3.990  11.165  0.2595  0.2476  0.3306
  509MOL0     C70130  10.003   4.071  11.254 -0.0689 -0.7667 -0.2573
  509MOL0     C70131   9.947   4.192  11.306  0.1227  1.7612  1.0162
  509MOL0     C70132  10.033   4.280  11.387  0.3259 -0.1344 -0.3009
  509MOL0     C70133   9.811   4.214  11.273  0.1134 -0.6556  1.0394
  509MOL0     C70134   9.744   4.340  11.305  0.2668 -0.2513  0.5876
  509MOL0     O70135   9.640   4.375  11.227 -0.6429  0.1319  0.1703
  509MOL0     C70136   9.552   4.463  11.279 -0.0638  0.7657 -0.5656
  509MOL0     C70137   9.461   4.410  11.375  0.0295  0.2475  0.4418
  509MOL0     C70138   9.355   4.493  11.421  0.2181 -0.2756 -0.2139
  509MOL0     C70139   9.336   4.620  11.365 -0.3077 -0.3767  0.1079
  509MOL0     O70140   9.232   4.698  11.387  0.0014 -0.4485  0.1058
  509MOL0     C70141   9.108   4.644  11.423 -0.1909 -0.0559  0.0929
  509MOL0     C70142   9.024   4.763  11.440  0.3151  0.0486  0.7527
  509MOL0     C70143   8.998   4.841  11.307 -0.7090  0.2302 -0.3247
  509MOL0     C70144   8.895   4.956  11.338  0.0270  0.0281 -0.0090
  509MOL0     C70145   8.837   5.017  11.211  0.4172 -0.8218 -0.3557
  509MOL0     C70146   8.731   4.932  11.142  0.6608  0.3604 -1.0809
  509MOL0     C70147   8.698   4.963  10.993 -0.4101  0.5115 -0.5877
  509MOL0     C70148   8.679   5.114  10.987  1.0161  0.2496 -0.2800
  509MOL0    Cl70149   8.551   5.169  11.100 -0.6879 -0.1959 -0.2143
  509MOL0     C70150   9.430   4.666  11.274 -0.3966 -0.9958 -0.9941
  509MOL0     C70151   9.536   4.589  11.222 -0.7112  0.3046 -0.2997
  509MOL0     O70152   9.785   4.416  11.395  0.0177  0.0737 -0.2655
  509MOL0     C70153   9.740   4.131  11.181  0.2450  0.4337  0.0441
  509MOL0     C70154   9.803   4.027  11.119  0.3622  1.3071 -0.1745
  509MOL0     N70155  10.262   3.502  10.828  1.4161 -0.6103  0.1576
  509MOL0     N70156  10.311   3.396  10.765  1.3649 -0.6886  0.7786
  509MOL0     C70157  10.013   3.859   9.854  0.3993  0.9664  0.7273
  509MOL0     C70158   9.964   3.942   9.748  0.6668  0.3925 -0.0286
  509MOL0     C70159   9.591   4.095   9.479 -0.2650 -0.1214 -0.4724
  509MOL0     C70160   9.448   4.076   9.472 -0.1003 -1.2642 -0.4578
  509MOL0     C70161   9.377   4.112   9.366 -0.5133 -0.2765  0.4879
  509MOL0     C70162   9.446   4.158   9.250 -0.1796 -0.3179  0.8833
  509MOL0     O70163   9.385   4.188   9.128 -0.1379 -0.9362  0.4474
  509MOL0     C70164   9.246   4.211   9.120 -0.2798 -0.7534 -0.0743
  509MOL0     C70165   9.211   4.272   8.990  0.8721 -0.7466  0.3583
  509MOL0     C70166   9.223   4.181   8.866  0.2065 -0.8447 -0.2216
  509MOL0     C70167   9.180   4.239   8.730  0.2617  0.0092 -0.2289
  509MOL0     C70168   9.040   4.265   8.731 -0.2993 -0.2781 -0.5833
  509MOL0     C70169   8.921   4.281   8.727 -0.7061  0.3868  0.2322
  509MOL0     C70170   9.588   4.169   9.252  0.1615 -0.1547 -0.8260
  509MOL0     C70171   9.665   4.144   9.369  0.7313 -0.1927 -0.1522
  509MOL0     C70172   9.810   4.186   9.368  0.2753  0.6492 -0.5836
  509MOL0     H70173   9.656   3.791   9.721  0.1311 -0.8742 -1.9100
  509MOL0     H70174   9.740   3.673   9.913 -1.2200 -0.6705 -2.6636
  509MOL0     H70175   9.782   3.714  10.119 -2.8469 -3.3569 -1.1740
  509MOL0     H70176   9.920   3.688  10.223 -1.6484  1.5567 -0.2157
  509MOL0     H70177   9.791   3.459  10.163 -0.7349  3.7170  1.6349
  509MOL0     H70178   9.825   3.486  10.000 -3.0188  0.4191  1.0595
  509MOL0     H70179   9.977   3.331  10.108  0.1994  0.7924  2.5799
  509MOL0     H70180  10.070   3.465  10.029  0.3675  0.0404 -0.5439
  509MOL0     H70181  10.113   3.570  10.238  1.5443 -0.4709 -0.2596
  509MOL0     H70182  10.000   3.475  10.321  1.5863  1.5190  1.1621
  509MOL0     H70183  10.249   3.343  10.203 -0.5377 -0.6482 -0.7187
  509MOL0     H70184  10.116   3.264  10.287  2.5679 -1.3569  2.5599
  509MOL0     H70185  10.281   3.506  10.410 -0.1513  0.3601 -4.0890
  509MOL0     H70186  10.172   3.412  10.495 -2.2042  1.8816 -1.6272
  509MOL0     H70187  10.409   3.264  10.373 -2.0908 -3.4780  0.3402
  509MOL0     H70188  10.308   3.227  10.510  3.4629 -1.4802  0.5749
  509MOL0     H70189  10.504   3.289  10.604 -1.3779 -0.5044  2.5104
  509MOL0     H70190  10.522   3.437  10.503 -1.4209 -0.8423 -1.2994
  509MOL0     H70191  10.486   3.655  10.644 -1.1099 -0.6510 -2.2926
  509MOL0     H70192  10.396   3.812  10.833  0.4247  0.1151  1.2394
  509MOL0     H70193  10.353   3.716  10.978 -2.4521 -1.1153  0.0814
  509MOL0     H70194  10.211   3.892  10.968  3.0417 -0.0747  1.2020
  509MOL0     H70195  10.162   3.860  10.798  0.3549  1.0643  0.4363
  509MOL0     H70196  10.036   3.673  10.854  1.3055 -0.4503  0.0152
  509MOL0     H70197  10.082   3.659  11.016 -0.3183 -0.2128  0.0882
  509MOL0     H70198   9.901   3.888  10.929 -2.7696  0.5154  2.5655
  509MOL0     H70199   9.885   3.749  11.036 -0.6584  2.1012  2.7198
  509MOL0     H70200  10.099   4.054  11.302  1.0816  1.1101 -1.7517
  509MOL0     H70201   9.995   4.324  11.480  2.2443  1.9259 -0.3939
  509MOL0     H70202  10.072   4.357  11.319  2.0114 -1.3994 -0.8244
  509MOL0     H70203  10.126   4.228  11.412  1.4501  0.8656 -2.2026
  509MOL0     H70204   9.463   4.306  11.405 -0.6143  0.2712  0.5837
  509MOL0     H70205   9.281   4.439  11.479 -0.9658  0.6740 -0.8004
  509MOL0     H70206   9.068   4.565  11.358  1.5280 -2.1494  1.4122
  509MOL0     H70207   9.125   4.594  11.519  2.1944  1.0104  0.2940
  509MOL0     H70208   8.929   4.730  11.484 -1.0206  3.0802  0.3948
  509MOL0     H70209   9.069   4.835  11.509  2.8352  1.3805 -2.0740
  509MOL0     H70210   8.969   4.774  11.226 -2.6497 -2.1483  2.1423
  509MOL0     H70211   9.095   4.888  11.289  0.2657  0.0700  3.5350
  509MOL0     H70212   8.938   5.034  11.402 -1.2123  2.4224 -1.9266
  509MOL0     H70213   8.810   4.918  11.396 -0.9206 -1.0843 -2.0129
  509MOL0     H70214   8.789   5.113  11.231 -1.9605 -1.3990 -2.7578
  509MOL0     H70215   8.916   5.036  11.138  2.4094  0.4188  1.9973
  509MOL0     H70216   8.641   4.945  11.202 -0.0159  0.4561 -2.0807
  509MOL0     H70217   8.760   4.827  11.136 -1.0327 -0.1018 -1.6531
  509MOL0     H70218   8.607   4.919  10.952 -0.3447  0.4279 -0.6405
  509MOL0     H70219   8.782   4.942  10.927 -0.1246 -1.1190  0.2256
  509MOL0     H70220   8.649   5.151  10.889  1.4304 -0.4762 -0.6948
  509MOL0     H70221   8.773   5.158  11.022  0.8977 -1.1920  2.1549
  509MOL0     H70222   9.411   4.769  11.244 -1.1327 -0.5089  0.9599
  509MOL0     H70223   9.608   4.627  11.150 -0.3325  1.4605  0.6661
  509MOL0     H70224   9.636   4.152  11.155  0.2505 -0.4316 -0.7056
  509MOL0     H70225   9.738   3.980  11.047  1.8338  0.8024 -1.2149
  509MOL0     H70226  10.120   3.864   9.872  0.9694  0.8082 -2.2169
  509MOL0     H70227  10.022   4.008   9.684 -2.3704  0.3687 -3.1378
  509MOL0     H70228   9.393   4.036   9.557  1.0993 -0.5111  0.7061
  509MOL0     H70229   9.269   4.101   9.367 -0.3126 -2.8659  0.7737
  509MOL0     H70230   9.191   4.117   9.135 -0.5285 -0.3578  1.7227
  509MOL0     H70231   9.209   4.264   9.208  1.1698 -1.6182  1.1017
  509MOL0     H70232   9.279   4.356   8.974 -0.3424  0.9454  3.3967
  509MOL0     H70233   9.108   4.309   8.994  0.1351 -2.4039 -1.4961
  509MOL0     H70234   9.321   4.133   8.857 -0.7880 -2.6270 -3.2365
  509MOL0     H70235   9.160   4.095   8.890 -0.9692 -0.1714 -0.8452
  509MOL0     H70236   9.205   4.160   8.658  1.2637  2.2180 -2.4735
  509MOL0     H70237   9.237   4.330   8.709  0.7157 -0.7450 -2.5531
  509MOL0     H70238   8.816   4.298   8.720 -0.6394  0.1439 -2.7552
  509MOL0     H70239   9.622   4.211   9.158  2.3846  1.4562  0.5918
  509MOL0     H70240   9.863   4.091   9.363 -1.6015 -0.5921  1.3058
  509MOL0     H70241   9.826   4.259   9.288 -0.8349  0.7149 -0.7607
  509MOL0     H70242   9.829   4.242   9.460 -0.6178 -0.3386  0.2255
  510MOL0     O70243   9.449   3.967  10.426  0.0681 -0.9091 -0.1993
  510MOL0     C70244   9.537   3.940  10.339  0.4932 -0.3316  0.5528
  510MOL0     O70245   9.573   3.819  10.296 -0.3727 -0.0307  0.0664
  510MOL0     C70246   9.509   3.701  10.341 -0.7590  0.4582  1.1281
  510MOL0     C70247   9.590   3.591  10.380  0.3698  0.2287  0.6135
  510MOL0     C70248   9.537   3.475  10.431 -0.3474 -0.8418 -0.4465
  510MOL0     C70249   9.398   3.469  10.449 -0.6222 -0.0816  0.4384
  510MOL0     O70250   9.338   3.362  10.507  0.4122 -0.8826  0.2797
  510MOL0     C70251   9.419   3.292  10.596 -0.7432  0.2829 -0.1901
  510MOL0     C70252   9.330   3.256  10.709 -0.4529  0.7434 -0.0692
  510MOL0     C70253   9.403   3.177  10.823  0.2556  0.8817 -0.5896
  510MOL0     C70254   9.322   3.178  10.962 -0.0583  0.6187  0.3104
  510MOL0     C70255   9.362   3.067  11.064 -0.5369 -0.0396 -0.6053
  510MOL0     C70256   9.366   2.933  11.008  1.1921 -0.2824  1.0982
  510MOL0     C70257   9.380   2.827  11.119  0.2107  0.3717  0.1889
  510MOL0     C70258   9.259   2.822  11.215 -0.1190 -0.4076 -0.4692
  510MOL0     N70259   9.252   2.684  11.268  0.0204 -0.6046 -0.8554
  510MOL0     C70260   9.176   2.577  11.220  0.2910 -0.0591  0.3401
  510MOL0     C70261   9.217   2.468  11.278 -0.7346 -0.5052 -1.3707
  510MOL0     C70262   9.165   2.326  11.257 -0.2403  0.0050  1.1858
  510MOL0     C70263   9.168   2.299  11.110 -0.2285  0.0157  0.0906
  510MOL0     C70264   9.294   2.330  11.025 -0.2259 -0.4350 -0.7982
  510MOL0     C70265   9.270   2.284  10.888 -0.7121  1.0503 -0.0120
  510MOL0     O70266   9.372   2.334  10.787  0.6440  0.2761  0.3579
  510MOL0     C70267   9.337   2.321  10.651 -0.2437  0.7159  0.5340
  510MOL0     C70268   9.432   2.375  10.557  0.4678 -0.5524 -0.6815
  510MOL0     C70269   9.391   2.401  10.423 -0.5991  0.1647  0.5195
  510MOL0     C70270   9.494   2.460  10.335  1.3498  0.3723 -0.0534
  510MOL0     C70271   9.262   2.360  10.373  0.0770  0.8430 -1.0024
  510MOL0     C70272   9.205   2.396  10.246  0.5104 -0.7128 -0.4011
  510MOL0     O70273   9.069   2.433  10.244  0.1044 -0.2942  0.2121
  510MOL0     C70274   9.016   2.442  10.120 -0.2157  0.2704  0.1488
  510MOL0     C70275   9.021   2.564  10.054  0.4254  0.0690  0.0876
  510MOL0     C70276   8.955   2.576   9.932 -0.7243  0.2023  0.4833
  510MOL0     C70277   8.894   2.463   9.872 -0.8773 -1.0635  0.1780
  510MOL0     O70278   8.855   2.497   9.744  0.2471  0.8963  0.4334
  510MOL0     C70279   8.849   2.377   9.663 -0.2819 -0.4205 -0.0283
  510MOL0     C70280   8.838   2.392   9.510 -0.3958  0.0354  0.1867
  510MOL0     C70281   8.934   2.500   9.444 -0.3201  0.5962  0.1058
  510MOL0     C70282   8.914   2.551   9.301  0.5855  0.0066  0.5540
  510MOL0     C70283   9.006   2.674   9.259 -0.7923 -0.4456  0.0993
  510MOL0     C70284   9.039   2.693   9.112  0.2597  0.1342  0.0217
  510MOL0     C70285   9.174   2.639   9.064 -0.4937  0.1478  0.2427
  510MOL0     C70286   9.167   2.530   8.958 -0.8440  0.3282 -0.2813
  510MOL0    Cl70287   9.314   2.468   8.884  0.3656 -0.4437  0.2327
  510MOL0     C70288   8.893   2.340   9.943  0.2796  0.1847 -0.2310
  510MOL0     C70289   8.959   2.326  10.061 -0.6774  0.4135 -0.7584
  510MOL0     O70290   9.277   2.402  10.148 -0.0685  0.1947 -0.6884
  510MOL0     C70291   9.175   2.303  10.475  0.1218  0.3388  0.1901
  510MOL0     C70292   9.212   2.282  10.608  0.5015 -0.1466  0.3219
  510MOL0     N70293   9.319   2.510  11.360 -0.0224  1.1109 -0.0200
  510MOL0     N70294   9.337   2.638  11.356 -0.5146 -0.0472  0.4664
  510MOL0     C70295   9.311   3.582  10.406 -0.1816 -0.0908 -0.2843
  510MOL0     C70296   9.371   3.696  10.352  0.0702  0.3002 -0.6711
  510MOL0     C70297   9.608   4.057  10.264  0.6384  0.4518  0.6019
  510MOL0     C70298   9.662   4.025  10.137  0.6327 -1.0616  0.9906
  510MOL0     C70299   9.709   4.137  10.059  0.4398  0.2547  0.2745
  510MOL0     C70300   9.723   4.264  10.111 -0.1557 -0.4766  1.3429
  510MOL0     O70301   9.771   4.367  10.033 -0.1467 -0.2530  0.3570
  510MOL0     C70302   9.866   4.325   9.938 -0.4396 -0.3042  0.7525
  510MOL0     C70303   9.928   4.439   9.872 -0.1138  0.2095  0.3317
  510MOL0     C70304   9.995   4.540   9.965  0.6911  0.8956  0.1254
  510MOL0     C70305  10.124   4.588   9.900 -0.2051 -0.3445  1.0511
  510MOL0     C70306  10.201   4.686   9.971  0.1635 -0.3758 -1.1462
  510MOL0     C70307  10.256   4.766  10.050 -0.3072  0.1585  0.2319
  510MOL0     C70308   9.680   4.288  10.240 -0.2788 -0.1065  0.3849
  510MOL0     C70309   9.621   4.185  10.319  0.0572  0.4229 -0.2585
  510MOL0     C70310   9.559   4.238  10.440  0.0565  0.3471  0.4369
  510MOL0     H70311   9.698   3.603  10.369  1.0913 -3.1689  2.5571
  510MOL0     H70312   9.600   3.390  10.452 -1.2441 -0.9207  2.4582
  510MOL0     H70313   9.483   3.365  10.646 -1.3162 -1.1925  2.9501
  510MOL0     H70314   9.486   3.209  10.572 -0.2382 -0.1318  2.2964
  510MOL0     H70315   9.285   3.350  10.742 -0.3940  0.5456  0.5890
  510MOL0     H70316   9.241   3.206  10.669 -1.3437  2.3813 -0.2029
  510MOL0     H70317   9.396   3.071  10.800  1.3862 -0.4272  4.0191
  510MOL0     H70318   9.504   3.216  10.837 -1.2298  5.1318 -0.1642
  510MOL0     H70319   9.325   3.278  11.008  0.4051  1.6026 -1.7296
  510MOL0     H70320   9.220   3.144  10.939  0.7521 -2.0116  0.3413
  510MOL0     H70321   9.288   3.079  11.143 -2.2628 -0.3901 -2.0937
  510MOL0     H70322   9.457   3.101  11.106 -1.7396  2.7130  0.1401
  510MOL0     H70323   9.275   2.913  10.950  1.0198 -2.7284  2.0612
  510MOL0     H70324   9.459   2.918  10.954 -0.5192 -1.9670 -1.6401
  510MOL0     H70325   9.468   2.844  11.181 -0.8066  1.6461  1.3511
  510MOL0     H70326   9.387   2.731  11.067 -1.6624  0.6416 -0.6421
  510MOL0     H70327   9.277   2.891  11.298 -1.8244 -0.1162 -0.3022
  510MOL0     H70328   9.166   2.859  11.171 -0.9975 -0.6814  1.0855
  510MOL0     H70329   9.094   2.581  11.149  0.3221 -1.7577  0.1694
  510MOL0     H70330   9.064   2.307  11.295 -0.8022  1.0206  0.2607
  510MOL0     H70331   9.231   2.255  11.309 -1.9759 -1.0148  2.0935
  510MOL0     H70332   9.140   2.194  11.105  3.3966 -1.1273  0.5496
  510MOL0     H70333   9.084   2.362  11.081  0.1385  0.0846 -0.8720
  510MOL0     H70334   9.311   2.437  11.018  2.8464 -0.9188 -2.0210
  510MOL0     H70335   9.379   2.274  11.064  1.6976  1.4633 -2.0845
  510MOL0     H70336   9.267   2.174  10.887  2.1848  0.8729  0.4095
  510MOL0     H70337   9.167   2.315  10.866 -1.8695 -0.7292  2.4443
  510MOL0     H70338   9.533   2.402  10.585 -0.3647  1.1163  1.0041
  510MOL0     H70339   9.562   2.393  10.283  0.3592 -0.4920 -0.2756
  510MOL0     H70340   9.568   2.510  10.398  1.5367 -1.6452  1.4127
  510MOL0     H70341   9.441   2.527  10.266 -0.2212 -0.7347  0.0340
  510MOL0     H70342   9.067   2.655  10.091  0.8938  1.1111 -2.8126
  510MOL0     H70343   8.968   2.676   9.891 -0.0397 -0.4951 -1.0590
  510MOL0     H70344   8.932   2.311   9.689  2.5400  3.1454  0.9183
  510MOL0     H70345   8.763   2.328   9.710  1.9034  0.3079  5.5479
  510MOL0     H70346   8.842   2.295   9.459 -0.1966  1.2004 -2.1257
  510MOL0     H70347   8.735   2.427   9.497 -0.8403 -1.0491  0.6458
  510MOL0     H70348   9.035   2.459   9.452 -0.3189  0.7615  1.0284
  510MOL0     H70349   8.925   2.590   9.505  0.9891 -1.3592  3.4123
  510MOL0     H70350   8.810   2.580   9.283 -0.5770 -1.8759  3.5224
  510MOL0     H70351   8.938   2.464   9.239 -2.9361 -3.1867  3.1800
  510MOL0     H70352   8.960   2.768   9.293  0.4840  0.9541 -1.7975
  510MOL0     H70353   9.101   2.673   9.315 -0.9864 -1.4956  0.4226
  510MOL0     H70354   9.044   2.796   9.075  0.4285 -0.4352 -1.5866
  510MOL0     H70355   8.961   2.632   9.065  0.5480  0.2039 -0.5462
  510MOL0     H70356   9.242   2.605   9.144 -0.0943  0.6397  0.1184
  510MOL0     H70357   9.234   2.717   9.016 -0.6067  1.6923  2.4425
  510MOL0     H70358   9.106   2.567   8.875 -0.2610 -0.3129 -1.0147
  510MOL0     H70359   9.109   2.448   9.000 -1.0418 -2.0846 -4.6307
  510MOL0     H70360   8.841   2.254   9.902  2.3299 -0.8775 -0.7472
  510MOL0     H70361   8.967   2.243  10.130  0.1550  2.4316  1.7703
  510MOL0     H70362   9.072   2.281  10.449  0.5772 -4.8548  1.6688
  510MOL0     H70363   9.129   2.252  10.670  0.2545  2.0175  1.1017
  510MOL0     H70364   9.206   3.553  10.403 -0.8257  2.0391 -0.1450
  510MOL0     H70365   9.309   3.779  10.320  2.2445  1.7341 -1.4360
  510MOL0     H70366   9.654   3.925  10.096  0.7772 -0.3513 -0.8353
  510MOL0     H70367   9.743   4.107   9.960  0.0355 -3.2401  1.0658
  510MOL0     H70368   9.941   4.261   9.985 -0.0475 -1.1161 -0.8978
  510MOL0     H70369   9.823   4.267   9.856  0.4503  1.6450 -1.2077
  510MOL0     H70370   9.859   4.498   9.812  2.9028  3.2501 -0.4623
  510MOL0     H70371  10.008   4.403   9.807  0.5968 -0.4834  1.5377
  510MOL0     H70372   9.916   4.611   9.992 -1.7047 -2.2163  1.9602
  510MOL0     H70373  10.022   4.490  10.059  1.3004 -0.4474 -0.7287
  510MOL0     H70374  10.097   4.639   9.807  1.3822 -0.7655  0.3309
  510MOL0     H70375  10.187   4.499   9.891 -1.6413 -1.2950  0.1192
  510MOL0     H70376  10.321   4.825  10.111  0.2556 -0.9949  0.7651
  510MOL0     H70377   9.680   4.388  10.282  1.6706 -0.0730  0.4160
  510MOL0     H70378   9.456   4.203  10.442  0.5123 -1.0989 -0.2282
  510MOL0     H70379   9.617   4.198  10.524  1.4447  0.7941 -0.2656
  510MOL0     H70380   9.564   4.348  10.445  2.2920  0.2671  1.2838
  511MOL0     O70381   5.505   9.755   4.712 -0.7815  0.3132  0.0850
  511MOL0     C70382   5.632   9.751   4.735 -0.2829 -0.7092  0.0022
  511MOL0     O70383   5.730   9.736   4.641  0.6644 -0.0861 -0.0330
  511MOL0     C70384   5.676   9.738   4.513  1.6279 -0.0526 -0.5757
  511MOL0     C70385   5.658   9.861   4.442 -0.0456  0.0769 -0.3464
  511MOL0     C70386   5.616   9.848   4.309  0.2013 -0.9300 -0.1848
  511MOL0     C70387   5.587   9.724   4.249  0.8566 -0.0187  0.7394
  511MOL0     O70388   5.547   9.728   4.119  0.7824 -0.8351 -0.2691
  511MOL0     C70389   5.584   9.612   4.034 -0.5423 -0.0035 -0.3201
  511MOL0     C70390   5.572   9.641   3.884  0.0377 -0.2985 -0.2778
  511MOL0     C70391   5.621   9.783   3.837 -1.0101 -0.2620  0.8096
  511MOL0     C70392   5.771   9.812   3.841  0.0521  0.1648  0.7493
  511MOL0     C70393   5.798   9.962   3.818  0.5142 -0.5658 -0.4673
  511MOL0     C70394   5.960   9.975   3.822  0.0802 -0.2800 -0.3318
  511MOL0     C70395   6.007  10.118   3.780  0.2453 -0.6322 -0.4017
  511MOL0     C70396   5.989  10.216   3.904  0.5663 -0.3487  0.1226
  511MOL0     N70397   5.954  10.354   3.869 -0.5563  0.9836  0.7200
  511MOL0     C70398   5.873  10.400   3.764  0.4474  0.2090 -0.0233
  511MOL0     C70399   5.862  10.527   3.782  0.1800  0.2947  0.8116
  511MOL0     C70400   5.818  10.623   3.668  0.9009 -0.2537  0.0118
  511MOL0     C70401   5.876  10.580   3.532  0.2571 -0.0736  0.0965
  511MOL0     C70402   5.853  10.689   3.432  0.2646  0.3896 -0.0570
  511MOL0     C70403   5.921  10.636   3.297 -0.3141  0.0482 -0.5696
  511MOL0     O70404   5.854  10.530   3.233 -0.2083  0.4171  0.1766
  511MOL0     C70405   5.729  10.532   3.183  0.0467 -0.0962  0.9131
  511MOL0     C70406   5.689  10.411   3.134  0.2640  0.2852  0.2517
  511MOL0     C70407   5.564  10.387   3.074  0.2021  0.7235 -0.1001
  511MOL0     C70408   5.538  10.240   3.044  0.0936 -0.4536 -0.9052
  511MOL0     C70409   5.475  10.491   3.048 -1.6605 -1.2311 -0.1143
  511MOL0     C70410   5.345  10.476   2.977 -0.1927  0.1970 -0.1163
  511MOL0     O70411   5.262  10.581   2.978 -0.3314 -0.1107  0.3973
  511MOL0     C70412   5.126  10.558   2.948  0.0239 -1.1328  1.0043
  511MOL0     C70413   5.088  10.567   2.818  0.2974  0.4386  0.7038
  511MOL0     C70414   4.963  10.516   2.789  0.5140 -0.2530 -0.3171
  511MOL0     C70415   4.866  10.491   2.888  0.1474  0.4913 -0.0826
  511MOL0     O70416   4.733  10.464   2.868 -0.2510  0.1174  0.3240
  511MOL0     C70417   4.662  10.366   2.936  0.8038  0.3774 -0.3746
  511MOL0     C70418   4.522  10.366   2.869  0.0785  0.0282 -0.6744
  511MOL0     C70419   4.422  10.250   2.893  0.1870 -0.1930  0.4572
  511MOL0     C70420   4.432  10.127   2.809 -0.5151 -0.3393  0.0558
  511MOL0     C70421   4.396  10.137   2.655 -0.2958 -0.1043 -0.2810
  511MOL0     C70422   4.344  10.014   2.585 -0.6087 -0.1349  0.3413
  511MOL0     C70423   4.283  10.040   2.446  0.7019 -1.0036 -0.7069
  511MOL0     C70424   4.266   9.916   2.364  0.5970 -0.7862 -0.8988
  511MOL0    Cl70425   4.178   9.789   2.434 -0.3670 -0.1025  0.2058
  511MOL0     C70426   4.914  10.478   3.022  0.5463  0.0765  0.8572
  511MOL0     C70427   5.044  10.513   3.048 -0.0497  0.6193  0.1575
  511MOL0     O70428   5.331  10.377   2.906 -0.1938 -0.4000  0.1921
  511MOL0     C70429   5.522  10.622   3.101 -0.4265  0.1372 -0.1658
  511MOL0     C70430   5.649  10.641   3.166  0.6131  0.1425 -0.5163
  511MOL0     N70431   5.928  10.565   3.900  0.5730  0.1440 -0.5991
  511MOL0     N70432   5.979  10.462   3.956 -0.3691 -0.3350  0.6012
  511MOL0     C70433   5.587   9.610   4.325 -0.1778 -0.1459  0.5935
  511MOL0     C70434   5.633   9.618   4.457  0.2059  0.7558  0.1250
  511MOL0     C70435   5.686   9.788   4.875  0.3118  1.3888 -1.0621
  511MOL0     C70436   5.600   9.763   4.982  0.2954 -0.9195 -0.0164
  511MOL0     C70437   5.631   9.763   5.114  0.9245 -0.0498 -0.8089
  511MOL0     C70438   5.766   9.773   5.147  0.7862 -0.2092  0.0699
  511MOL0     O70439   5.817   9.772   5.276 -0.1521  0.5752  0.2949
  511MOL0     C70440   5.740   9.813   5.390  0.1198 -0.7146  1.0302
  511MOL0     C70441   5.830   9.810   5.513 -0.1710  0.0467  0.5723
  511MOL0     C70442   5.960   9.886   5.485 -0.8716 -0.3547 -0.1521
  511MOL0     C70443   6.074   9.804   5.537 -0.1378 -0.1712  0.8155
  511MOL0     C70444   6.197   9.881   5.535  0.1911  0.5702 -0.3336
  511MOL0     C70445   6.293   9.950   5.522 -0.8538 -0.0089  0.0692
  511MOL0     C70446   5.863   9.794   5.043  0.7009 -0.9136  0.3802
  511MOL0     C70447   5.823   9.798   4.906  0.8405 -0.3909  0.1365
  511MOL0     C70448   5.933   9.851   4.812  0.1691 -0.2566 -0.1762
  511MOL0     H70449   5.707   9.953   4.471  0.2946 -0.6291  1.4622
  511MOL0     H70450   5.625   9.937   4.247 -0.9108 -0.7964 -0.1751
  511MOL0     H70451   5.537   9.519   4.067  0.6207 -0.9628 -1.2938
  511MOL0     H70452   5.691   9.597   4.051 -0.5759  1.2453  1.3488
  511MOL0     H70453   5.619   9.567   3.818 -0.7288 -0.2117 -0.9407
  511MOL0     H70454   5.463   9.651   3.873 -0.2129  2.3904  2.9278
  511MOL0     H70455   5.580   9.784   3.736 -1.4011 -2.4842  0.9078
  511MOL0     H70456   5.583   9.867   3.897 -0.5953  3.1744 -3.2514
  511MOL0     H70457   5.817   9.793   3.938  1.0057 -4.8929 -0.4169
  511MOL0     H70458   5.826   9.742   3.778 -1.5872  1.2051 -2.0267
  511MOL0     H70459   5.756  10.022   3.899  0.3418  0.8901 -1.5978
  511MOL0     H70460   5.750   9.991   3.724  0.5363  0.0888 -0.2826
  511MOL0     H70461   6.006   9.933   3.912  2.8587  2.0206 -0.4985
  511MOL0     H70462   6.001   9.902   3.752  0.8233 -1.4417  1.2446
  511MOL0     H70463   5.955  10.150   3.689 -1.2345 -0.6084  0.4320
  511MOL0     H70464   6.112  10.109   3.749 -0.0482  2.2839 -2.6420
  511MOL0     H70465   5.920  10.172   3.977  1.2466 -1.1759  0.2842
  511MOL0     H70466   6.082  10.229   3.959  0.9336 -0.7628 -0.3868
  511MOL0     H70467   5.825  10.353   3.679 -2.3393  1.3848  0.7886
  511MOL0     H70468   5.867  10.717   3.695  0.7402 -0.7741  2.2466
  511MOL0     H70469   5.711  10.643   3.659  1.0098 -0.3685 -2.1990
  511MOL0     H70470   5.984  10.571   3.546  0.4324  2.3323  0.8662
  511MOL0     H70471   5.825  10.487   3.506 -2.2223  1.7954 -2.4740
  511MOL0     H70472   5.746  10.713   3.427  0.2119  2.1620  4.7051
  511MOL0     H70473   5.901  10.779   3.471  0.2549  0.7321 -0.8097
  511MOL0     H70474   5.919  10.721   3.228  1.8877 -0.0252 -0.8121
  511MOL0     H70475   6.027  10.609   3.306 -1.0168 -3.4996 -1.7062
  511MOL0     H70476   5.761  10.333   3.156  1.8972  1.5165 -0.5387
  511MOL0     H70477   5.547  10.211   2.939  0.2640  1.1018 -1.3392
  511MOL0     H70478   5.437  10.225   3.082 -0.5033  4.1609 -0.1655
  511MOL0     H70479   5.605  10.170   3.096 -0.7810 -0.3540  0.3807
  511MOL0     H70480   5.155  10.596   2.738  0.9534  0.7967  1.3624
  511MOL0     H70481   4.933  10.514   2.685  0.6569 -3.9290 -0.4059
  511MOL0     H70482   4.699  10.264   2.922 -1.0972 -0.4074  0.0363
  511MOL0     H70483   4.654  10.388   3.043  2.5421 -3.2223  0.6534
  511MOL0     H70484   4.471  10.458   2.897 -0.4410 -1.3849  3.9052
  511MOL0     H70485   4.536  10.363   2.761 -2.0488  0.3886 -1.0027
  511MOL0     H70486   4.322  10.293   2.885  0.4108  0.4581  1.0936
  511MOL0     H70487   4.429  10.230   3.000 -2.4060  0.2390  0.7674
  511MOL0     H70488   4.353  10.068   2.857  0.0037 -1.6210 -0.6152
  511MOL0     H70489   4.528  10.080   2.830 -0.2377 -0.1665 -0.8018
  511MOL0     H70490   4.315  10.211   2.652 -0.8511 -0.6772  0.1316
  511MOL0     H70491   4.486  10.171   2.605 -0.4711 -0.1837 -0.6572
  511MOL0     H70492   4.270   9.964   2.647 -3.5993  1.1771 -1.9374
  511MOL0     H70493   4.430   9.946   2.592  0.2109  0.9652  6.2753
  511MOL0     H70494   4.351  10.114   2.402 -0.0488  1.5658  2.0972
  511MOL0     H70495   4.186  10.091   2.457  1.6520  0.6726  0.3187
  511MOL0     H70496   4.363   9.871   2.337  1.3546  1.4412 -2.1914
  511MOL0     H70497   4.219   9.948   2.271 -1.9437  0.3174  0.6758
  511MOL0     H70498   4.857  10.442   3.107  0.1182 -1.4241 -0.0409
  511MOL0     H70499   5.086  10.506   3.147  0.6176  1.7158 -0.0295
  511MOL0     H70500   5.465  10.714   3.095  1.1147  1.1301 -0.1525
  511MOL0     H70501   5.669  10.741   3.203  0.0439 -0.1602  0.6602
  511MOL0     H70502   5.545   9.519   4.284  1.7126 -2.0824  2.6689
  511MOL0     H70503   5.650   9.533   4.524  1.9118  0.0044 -1.1701
  511MOL0     H70504   5.496   9.741   4.957  0.4837 -1.6580 -0.1763
  511MOL0     H70505   5.556   9.729   5.185  0.9065 -1.9374 -1.6694
  511MOL0     H70506   5.706   9.912   5.360  0.9569 -1.6221 -3.6436
  511MOL0     H70507   5.645   9.760   5.406 -2.2126  2.4581 -1.0025
  511MOL0     H70508   5.851   9.704   5.531  3.1812 -0.2093 -3.4402
  511MOL0     H70509   5.784   9.854   5.602  0.7074 -0.0447  1.0861
  511MOL0     H70510   5.979   9.909   5.379  3.1246 -2.1767 -0.0042
  511MOL0     H70511   5.944   9.979   5.540 -3.0567  0.2385 -1.6482
  511MOL0     H70512   6.076   9.720   5.467 -1.8432 -1.1248  1.8397
  511MOL0     H70513   6.052   9.777   5.641  1.4043 -0.5897  1.0511
  511MOL0     H70514   6.381  10.012   5.519 -0.3904 -0.4839  1.9841
  511MOL0     H70515   5.967   9.808   5.070  0.7004  2.8864 -0.9997
  511MOL0     H70516   5.934   9.768   4.741  2.0327  0.2694 -0.8307
  511MOL0     H70517   5.902   9.947   4.768 -0.7242  1.3344  3.5524
  511MOL0     H70518   6.035   9.854   4.850  0.5877  3.2828 -1.1741
  512MOL0     O70519   0.419   5.483   3.854  0.3212  0.1291  0.2957
  512MOL0     C70520   0.522   5.541   3.872 -0.1494 -0.9752  1.1462
  512MOL0     O70521   0.546   5.633   3.972  0.2551 -0.2289 -0.4445
  512MOL0     C70522   0.442   5.656   4.057  0.8999  0.6202 -0.1379
  512MOL0     C70523   0.345   5.748   4.018  0.3770  0.1875 -0.4758
  512MOL0     C70524   0.227   5.780   4.087 -0.0411  0.0851 -1.0237
  512MOL0     C70525   0.214   5.713   4.210 -0.2925  0.9849  0.3501
  512MOL0     O70526   0.110   5.738   4.295 -0.4935 -0.1852  0.2470
  512MOL0     C70527   0.001   5.807   4.258 -0.2822 -0.6775  0.3489
  512MOL0     C70528  -0.096   5.789   4.370 -0.2787 -0.0932  0.1263
  512MOL0     C70529  -0.228   5.865   4.343 -0.6724  0.4503  0.3797
  512MOL0     C70530  -0.327   5.841   4.458  0.2884  0.0766  0.1624
  512MOL0     C70531  -0.426   5.954   4.465  0.2415  0.5213 -0.6824
  512MOL0     C70532  -0.504   5.972   4.344 -0.9303 -0.2091  0.1906
  512MOL0     C70533  -0.639   6.035   4.373  0.3070 -0.9320  0.1493
  512MOL0     C70534  -0.727   6.066   4.251 -0.3995 -0.3595  0.5647
  512MOL0     N70535  -0.855   6.119   4.296 -0.1970  0.0537 -0.3793
  512MOL0     C70536  -0.962   6.050   4.342 -0.0271  0.7072 -0.0008
  512MOL0     C70537  -1.064   6.138   4.346  0.4670 -0.3235  0.1586
  512MOL0     C70538  -1.195   6.131   4.421 -0.6233 -0.3541  0.1578
  512MOL0     C70539  -1.290   6.035   4.351 -0.4433 -0.3960  0.8378
  512MOL0     C70540  -1.416   5.992   4.434 -0.4389  0.2434 -0.0861
  512MOL0     C70541  -1.492   6.110   4.492  0.5092 -0.4489  0.1376
  512MOL0     O70542  -1.635   6.139   4.441  0.1154 -0.0359  0.0035
  512MOL0     C70543  -1.704   6.256   4.465  0.0504 -0.9805  0.0859
  512MOL0     C70544  -1.821   6.282   4.382 -0.6618  0.4203  0.1788
  512MOL0     C70545  -1.888   6.399   4.397 -0.1422 -0.2185  0.3526
  512MOL0     C70546  -2.001   6.414   4.297  1.2721 -0.1685  0.5265
  512MOL0     C70547  -1.866   6.480   4.512  0.2209  0.2273  0.4872
  512MOL0     C70548  -1.925   6.608   4.537  0.2828 -0.6216  0.1561
  512MOL0     O70549  -1.890   6.668   4.656  0.2207  0.1749  0.4862
  512MOL0     C70550  -1.919   6.801   4.671 -0.2600  0.1442  0.4587
  512MOL0     C70551  -1.995   6.849   4.779  0.1073 -0.1850  0.5970
  512MOL0     C70552  -2.024   6.979   4.792 -1.4886 -0.3239 -0.0301
  512MOL0     C70553  -1.987   7.067   4.686  0.1828  0.7981  0.1745
  512MOL0     O70554  -2.027   7.199   4.687 -0.3501 -0.9904  0.2749
  512MOL0     C70555  -2.048   7.274   4.564 -0.3620  0.9192 -0.2680
  512MOL0     C70556  -2.125   7.404   4.598 -0.3278 -1.2229 -0.2716
  512MOL0     C70557  -2.121   7.503   4.488  0.1243 -0.6564  0.2135
  512MOL0     C70558  -2.175   7.640   4.536  0.6339  0.1650  0.1002
  512MOL0     C70559  -2.181   7.731   4.417 -1.7516  0.3443  0.2303
  512MOL0     C70560  -2.271   7.846   4.437  0.3157  0.5801  0.4713
  512MOL0     C70561  -2.205   7.951   4.515  0.4607 -0.6934  0.2041
  512MOL0     C70562  -2.296   8.071   4.538  0.0172 -0.9218 -1.2903
  512MOL0    Cl70563  -2.352   8.139   4.388 -0.1369  0.0827  0.1234
  512MOL0     C70564  -1.903   7.022   4.585 -0.6550 -0.7268 -1.2221
  512MOL0     C70565  -1.867   6.893   4.583 -0.4662 -0.5895 -0.2413
  512MOL0     O70566  -2.006   6.658   4.457 -0.8400  0.2925  0.2283
  512MOL0     C70567  -1.773   6.439   4.616 -0.6560  0.1781 -0.6855
  512MOL0     C70568  -1.692   6.332   4.577 -0.8560  0.0169 -0.3424
  512MOL0     N70569  -1.024   6.254   4.289 -0.3938 -0.7198  0.2932
  512MOL0     N70570  -0.903   6.244   4.267 -0.1590 -0.6237  0.7857
  512MOL0     C70571   0.322   5.639   4.271  0.1654  0.1744  0.1888
  512MOL0     C70572   0.431   5.607   4.192  0.3965 -0.6637  0.3209
  512MOL0     C70573   0.621   5.518   3.766 -0.5254 -0.1698 -1.3951
  512MOL0     C70574   0.648   5.380   3.737  0.0547  0.0650  0.3129
  512MOL0     C70575   0.753   5.337   3.651 -0.2253 -0.0906 -0.5882
  512MOL0     C70576   0.850   5.434   3.618 -0.1339 -0.1237  0.0553
  512MOL0     O70577   0.971   5.404   3.554 -0.3290 -0.0094  0.7432
  512MOL0     C70578   0.983   5.277   3.484 -0.3520 -0.0528 -0.6198
  512MOL0     C70579   0.913   5.294   3.349 -0.4786 -0.5517 -0.4154
  512MOL0     C70580   0.956   5.392   3.240 -0.6808  0.1241 -0.6276
  512MOL0     C70581   1.102   5.364   3.203 -0.2738 -0.6222 -0.5437
  512MOL0     C70582   1.138   5.439   3.082 -0.3644  0.4750  0.8814
  512MOL0     C70583   1.148   5.500   2.976 -0.1071 -0.7288  0.0099
  512MOL0     C70584   0.824   5.572   3.653 -0.2286 -0.4724 -0.2058
  512MOL0     C70585   0.716   5.612   3.724  1.0539  0.1789  0.5273
  512MOL0     C70586   0.687   5.764   3.751 -0.3473  0.0924 -0.4663
  512MOL0     H70587   0.363   5.795   3.922 -0.1078  1.7077  0.1433
  512MOL0     H70588   0.146   5.844   4.054 -3.4690 -0.9976  4.1046
  512MOL0     H70589  -0.031   5.774   4.158  2.6772  2.7237 -1.9730
  512MOL0     H70590   0.027   5.912   4.244 -0.0137 -0.8315 -0.3569
  512MOL0     H70591  -0.126   5.684   4.378 -0.3489 -0.1105 -0.3568
  512MOL0     H70592  -0.052   5.823   4.464  0.6557 -0.2696 -0.2373
  512MOL0     H70593  -0.204   5.971   4.354 -0.8676  0.5847 -0.4283
  512MOL0     H70594  -0.282   5.834   4.253 -1.6171  0.3426  0.9656
  512MOL0     H70595  -0.376   5.745   4.437  1.1983  0.1595 -2.7321
  512MOL0     H70596  -0.275   5.830   4.554 -2.7570  1.2992  2.1132
  512MOL0     H70597  -0.360   6.038   4.486  0.3652 -0.3376  3.0662
  512MOL0     H70598  -0.489   5.938   4.553  0.3270  0.9165 -0.5460
  512MOL0     H70599  -0.443   6.033   4.278  0.2495 -1.4476  0.1034
  512MOL0     H70600  -0.521   5.873   4.300  0.8783 -0.9378  1.0308
  512MOL0     H70601  -0.629   6.131   4.423  0.0964  0.3266 -2.1255
  512MOL0     H70602  -0.692   5.968   4.441  2.6009  0.5499  3.6696
  512MOL0     H70603  -0.678   6.132   4.180  0.4457 -1.4083  0.1376
  512MOL0     H70604  -0.753   5.975   4.196  2.9016 -0.0957 -1.7090
  512MOL0     H70605  -0.968   5.945   4.369 -0.5207  1.2649  2.3388
  512MOL0     H70606  -1.239   6.231   4.431 -4.1729 -1.8647  1.1820
  512MOL0     H70607  -1.179   6.100   4.524 -2.9497 -0.9486  0.3932
  512MOL0     H70608  -1.325   6.085   4.261 -1.5979 -1.1903  0.8281
  512MOL0     H70609  -1.237   5.943   4.322 -2.5248 -1.7133  0.9942
  512MOL0     H70610  -1.499   5.947   4.378 -0.2355  1.8661 -1.7752
  512MOL0     H70611  -1.383   5.931   4.519  3.6203  0.8816 -1.0202
  512MOL0     H70612  -1.491   6.109   4.601  1.6696  0.7851  0.1698
  512MOL0     H70613  -1.451   6.202   4.448 -0.6086 -1.3061 -2.9602
  512MOL0     H70614  -1.827   6.222   4.291  0.6395 -0.7492  0.8228
  512MOL0     H70615  -2.101   6.380   4.326  0.8715 -1.9788 -2.5402
  512MOL0     H70616  -1.976   6.363   4.203 -0.6665 -0.7924  0.2926
  512MOL0     H70617  -2.023   6.517   4.265  1.0785 -0.3838 -0.0596
  512MOL0     H70618  -2.012   6.787   4.866  0.9103  0.7530  1.4475
  512MOL0     H70619  -2.059   7.025   4.884  1.0062 -0.5179  1.1073
  512MOL0     H70620  -1.952   7.300   4.518  0.4612 -1.8084 -0.2269
  512MOL0     H70621  -2.096   7.214   4.487  0.9499  1.9120 -1.9101
  512MOL0     H70622  -2.225   7.383   4.637  0.5132 -0.5504  2.4688
  512MOL0     H70623  -2.071   7.457   4.677 -0.2549 -0.0756 -1.0730
  512MOL0     H70624  -2.181   7.475   4.401  1.8361  0.4615 -1.3884
  512MOL0     H70625  -2.024   7.505   4.437  1.6044  1.1991  2.8266
  512MOL0     H70626  -2.105   7.677   4.612  2.1331 -3.1855  0.5179
  512MOL0     H70627  -2.271   7.636   4.588  0.5888  0.2556  0.0223
  512MOL0     H70628  -2.077   7.760   4.398  0.6840 -5.6039  2.0228
  512MOL0     H70629  -2.218   7.671   4.333  0.0461  2.2562 -2.0614
  512MOL0     H70630  -2.369   7.826   4.481  0.7306  1.3051  1.7484
  512MOL0     H70631  -2.289   7.881   4.335  1.2568 -0.5172 -0.0945
  512MOL0     H70632  -2.114   7.973   4.459 -0.4131 -1.6952 -1.7026
  512MOL0     H70633  -2.156   7.920   4.608 -0.1866 -0.8275  0.5089
  512MOL0     H70634  -2.223   8.135   4.589  0.0249 -0.1886 -2.1983
  512MOL0     H70635  -2.380   8.042   4.601  1.6118  0.5755  1.7617
  512MOL0     H70636  -1.854   7.093   4.519 -3.0776  1.3528 -0.9794
  512MOL0     H70637  -1.800   6.859   4.504  0.0975  2.2062 -1.0963
  512MOL0     H70638  -1.745   6.488   4.708  1.4119 -0.3120 -0.9978
  512MOL0     H70639  -1.623   6.305   4.657  0.5632  0.5071 -1.3643
  512MOL0     H70640   0.310   5.605   4.373 -2.6411 -1.4444 -0.5593
  512MOL0     H70641   0.506   5.542   4.236 -0.5541 -1.1779  1.2219
  512MOL0     H70642   0.580   5.307   3.781 -2.3896  1.2020 -1.3042
  512MOL0     H70643   0.768   5.234   3.621  0.0326 -0.0613 -0.5673
  512MOL0     H70644   1.090   5.258   3.469 -0.9799 -3.0174 -2.1911
  512MOL0     H70645   0.937   5.193   3.537  2.3551 -3.1283 -2.7326
  512MOL0     H70646   0.815   5.333   3.379 -1.1107 -2.5661  0.3337
  512MOL0     H70647   0.889   5.195   3.309 -1.6995 -0.7305  0.6611
  512MOL0     H70648   0.889   5.395   3.154  0.4075  0.3727 -1.5013
  512MOL0     H70649   0.944   5.491   3.286  2.9890  0.1628  0.5870
  512MOL0     H70650   1.126   5.258   3.200  0.9012 -0.4227  0.8756
  512MOL0     H70651   1.163   5.395   3.288 -1.7043 -2.6653  1.3174
  512MOL0     H70652   1.156   5.533   2.874  1.2750  1.8926  0.8798
  512MOL0     H70653   0.903   5.645   3.639 -1.2748  0.6922 -0.2677
  512MOL0     H70654   0.756   5.832   3.701  0.9656 -0.3991  0.6429
  512MOL0     H70655   0.591   5.794   3.707 -0.2224  0.0094 -0.8004
  512MOL0     H70656   0.695   5.791   3.857 -5.1676 -1.5848  0.5672
  513MOL0     O70657   0.756   3.368   4.217  0.0435  0.1792 -0.2707
  513MOL0     C70658   0.806   3.276   4.278  0.5801 -0.3918  0.0736
  513MOL0     O70659   0.903   3.207   4.232  0.5090 -0.1919  0.1353
  513MOL0     C70660   0.941   3.222   4.101 -0.7153 -0.7356 -0.8123
  513MOL0     C70661   0.903   3.122   4.019  0.1131  0.1098  0.1041
  513MOL0     C70662   0.938   3.132   3.886 -0.8953 -0.2368 -0.6131
  513MOL0     C70663   0.988   3.254   3.834 -0.5191  0.4693 -0.0356
  513MOL0     O70664   1.027   3.258   3.704 -0.5970  0.3478 -0.0058
  513MOL0     C70665   0.943   3.346   3.627 -0.2236 -0.0732 -0.4579
  513MOL0     C70666   0.832   3.270   3.557  1.0641 -0.5716  0.0259
  513MOL0     C70667   0.728   3.371   3.504 -0.3907 -0.1183  0.2213
  513MOL0     C70668   0.780   3.481   3.417  0.4421 -0.3325 -0.6210
  513MOL0     C70669   0.666   3.537   3.326 -0.5462 -0.0094  0.3971
  513MOL0     C70670   0.560   3.617   3.403  0.1468  0.3886 -0.4002
  513MOL0     C70671   0.475   3.703   3.307 -0.3806  0.3323 -0.7390
  513MOL0     C70672   0.349   3.763   3.378  0.3905  0.6899 -0.1500
  513MOL0     N70673   0.243   3.794   3.284 -0.3068  0.1652 -0.4447
  513MOL0     C70674   0.222   3.912   3.218 -0.0083  0.5053  0.2559
  513MOL0     C70675   0.096   3.913   3.170  0.6853 -0.2089 -0.3202
  513MOL0     C70676   0.011   4.025   3.110  0.2832  0.3330 -0.6226
  513MOL0     C70677  -0.011   4.013   2.966 -0.0983 -1.0391  0.5483
  513MOL0     C70678  -0.114   4.117   2.923 -0.2056 -0.2509  0.4467
  513MOL0     C70679  -0.056   4.263   2.908 -0.3841  0.7454  0.1695
  513MOL0     O70680  -0.132   4.341   2.824  0.2150  0.1280  0.1624
  513MOL0     C70681  -0.251   4.380   2.861  0.0466 -0.6382  0.8163
  513MOL0     C70682  -0.315   4.364   2.985 -0.0098  1.3385  0.7753
  513MOL0     C70683  -0.443   4.412   3.011  0.5789  0.0706 -0.1926
  513MOL0     C70684  -0.497   4.395   3.150  0.4256  1.1622  0.3468
  513MOL0     C70685  -0.521   4.479   2.907  0.1500 -0.2279 -0.3595
  513MOL0     C70686  -0.654   4.540   2.911 -0.7265  0.3424 -0.3084
  513MOL0     O70687  -0.701   4.619   2.803 -0.0935 -0.1404 -0.8237
  513MOL0     C70688  -0.829   4.660   2.794  0.1703  0.3653 -0.4047
  513MOL0     C70689  -0.934   4.564   2.804  0.9035 -0.2947 -0.7408
  513MOL0     C70690  -1.064   4.604   2.783 -0.0461  0.2875  0.2354
  513MOL0     C70691  -1.086   4.738   2.763  1.0642 -0.1858 -0.4263
  513MOL0     O70692  -1.212   4.781   2.750 -0.1966  0.2447  0.1681
  513MOL0     C70693  -1.237   4.861   2.639 -0.1342  0.0640 -1.1083
  513MOL0     C70694  -1.312   4.781   2.526  0.6282 -0.1377  0.0946
  513MOL0     C70695  -1.408   4.843   2.430 -0.2729 -0.3718  0.6046
  513MOL0     C70696  -1.360   4.965   2.351  0.8386 -0.1864  0.3904
  513MOL0     C70697  -1.206   4.969   2.310  0.5508 -0.9140  0.7584
  513MOL0     C70698  -1.167   4.861   2.202 -1.0176  0.0473 -0.6335
  513MOL0     C70699  -1.022   4.849   2.174 -1.6927 -0.6839  0.1912
  513MOL0     C70700  -0.964   4.740   2.254 -0.5908 -0.2887  0.3818
  513MOL0    Cl70701  -0.939   4.592   2.155 -0.2990  0.2208 -0.0639
  513MOL0     C70702  -0.987   4.826   2.773 -0.3751 -1.7437  0.5461
  513MOL0     C70703  -0.858   4.796   2.780 -0.3709  0.3362 -0.2046
  513MOL0     O70704  -0.721   4.512   3.008  0.3901  0.3170  0.5453
  513MOL0     C70705  -0.463   4.475   2.778  0.1125 -0.0143  0.1501
  513MOL0     C70706  -0.336   4.422   2.762 -0.2870 -0.2589 -0.5708
  513MOL0     N70707   0.040   3.792   3.196  0.1490  0.8877 -0.6338
  513MOL0     N70708   0.125   3.723   3.274 -0.9841  0.6198  0.3183
  513MOL0     C70709   1.006   3.357   3.917 -1.2904  0.2741  0.0910
  513MOL0     C70710   0.985   3.342   4.052 -0.5234 -0.4208  0.4019
  513MOL0     C70711   0.758   3.247   4.418  1.1411 -0.7933  0.0749
  513MOL0     C70712   0.777   3.122   4.468  0.1042  0.0267 -0.1923
  513MOL0     C70713   0.736   3.088   4.597  1.3597  0.0834 -0.2610
  513MOL0     C70714   0.665   3.180   4.678  0.2882 -0.5020 -0.4170
  513MOL0     O70715   0.617   3.128   4.799  0.0393  0.2461  0.6393
  513MOL0     C70716   0.563   3.217   4.899 -0.7025 -0.5153  0.5811
  513MOL0     C70717   0.576   3.159   5.034 -0.9414  0.5753  0.1277
  513MOL0     C70718   0.538   3.245   5.155  0.5849  0.0393 -1.3301
  513MOL0     C70719   0.652   3.339   5.186 -0.4644 -1.4961  0.0344
  513MOL0     C70720   0.593   3.414   5.300  0.0097 -0.2473 -0.2482
  513MOL0     C70721   0.542   3.481   5.392  0.3959  0.9940 -0.0101
  513MOL0     C70722   0.650   3.308   4.629  0.7065 -0.7539  0.0411
  513MOL0     C70723   0.681   3.347   4.499 -0.0842  0.1210 -0.3572
  513MOL0     C70724   0.659   3.488   4.457  1.0390 -0.1825 -0.3912
  513MOL0     H70725   0.865   3.026   4.051 -1.7613  1.1047  1.0662
  513MOL0     H70726   0.918   3.041   3.830 -0.1856 -1.8865  1.6226
  513MOL0     H70727   0.993   3.420   3.564 -0.4185 -0.9812 -1.7262
  513MOL0     H70728   0.885   3.405   3.698 -2.2455 -2.0826 -0.3168
  513MOL0     H70729   0.865   3.216   3.467 -1.5769 -0.3082 -1.2138
  513MOL0     H70730   0.791   3.189   3.618  2.3089 -1.3480 -0.1159
  513MOL0     H70731   0.651   3.317   3.447 -0.5340 -0.4079  0.6855
  513MOL0     H70732   0.668   3.417   3.583  1.3300  3.0430 -0.1879
  513MOL0     H70733   0.830   3.554   3.481  2.7790 -2.4895  0.1597
  513MOL0     H70734   0.858   3.434   3.357  0.4119 -1.4839  0.2347
  513MOL0     H70735   0.616   3.458   3.271 -2.1008  0.2092  1.4143
  513MOL0     H70736   0.720   3.595   3.251 -1.7587 -3.8089 -3.8039
  513MOL0     H70737   0.497   3.544   3.455  1.7621 -1.7828 -1.3265
  513MOL0     H70738   0.616   3.682   3.471 -0.7865 -0.9033  1.7179
  513MOL0     H70739   0.444   3.646   3.219  3.6642 -2.4620 -0.6411
  513MOL0     H70740   0.542   3.784   3.277 -0.8092  0.4881 -1.2735
  513MOL0     H70741   0.298   3.695   3.447  2.2501  2.4681  3.2161
  513MOL0     H70742   0.387   3.847   3.436  1.4620 -1.8398  3.1311
  513MOL0     H70743   0.292   3.994   3.208  0.9630 -0.5666 -3.3019
  513MOL0     H70744   0.054   4.125   3.126  2.6087 -0.7245  0.2228
  513MOL0     H70745  -0.087   4.022   3.157  0.9703  0.5819  0.9038
  513MOL0     H70746   0.090   4.026   2.925 -0.2176  1.9146  0.9763
  513MOL0     H70747  -0.050   3.913   2.946 -0.4905 -0.8595  0.4127
  513MOL0     H70748  -0.153   4.084   2.827 -1.9910 -0.8609  1.3433
  513MOL0     H70749  -0.195   4.126   2.996 -1.8517 -0.3457 -1.3080
  513MOL0     H70750  -0.065   4.308   3.008  0.9698 -0.9182  1.0910
  513MOL0     H70751   0.044   4.251   2.868 -0.1710 -1.5002  1.2014
  513MOL0     H70752  -0.263   4.305   3.060  2.9376  1.2963 -1.1672
  513MOL0     H70753  -0.480   4.484   3.212 -0.5604  1.7825 -0.2510
  513MOL0     H70754  -0.454   4.308   3.201  0.6317  0.7677 -0.4837
  513MOL0     H70755  -0.603   4.369   3.157  0.4119  0.7570 -1.1190
  513MOL0     H70756  -0.915   4.459   2.822  0.6510 -0.1182  0.5919
  513MOL0     H70757  -1.149   4.538   2.776 -0.3831  0.7460 -0.0445
  513MOL0     H70758  -1.300   4.941   2.680  0.8070  0.2979 -0.0444
  513MOL0     H70759  -1.145   4.907   2.601  0.4449  1.5530  1.7922
  513MOL0     H70760  -1.235   4.729   2.467  1.4047 -2.5932  3.0474
  513MOL0     H70761  -1.367   4.699   2.573  3.3041 -2.4597 -0.5388
  513MOL0     H70762  -1.495   4.867   2.491  1.1190  4.0069  1.2292
  513MOL0     H70763  -1.425   4.769   2.352  3.2673  2.9061 -3.8302
  513MOL0     H70764  -1.389   5.060   2.397 -0.7729 -0.2740 -0.3542
  513MOL0     H70765  -1.419   4.971   2.259  0.7977  3.7197  0.5077
  513MOL0     H70766  -1.197   5.074   2.281 -2.2121 -1.2050 -1.6447
  513MOL0     H70767  -1.151   4.953   2.403 -2.4179 -3.1605  2.3363
  513MOL0     H70768  -1.214   4.898   2.110 -1.3017  2.7862  0.4979
  513MOL0     H70769  -1.214   4.765   2.223 -1.3210  0.1449 -0.8421
  513MOL0     H70770  -0.981   4.948   2.193  3.0823 -2.6737  1.7549
  513MOL0     H70771  -1.006   4.830   2.067 -2.1143 -0.1475  0.0299
  513MOL0     H70772  -1.030   4.714   2.337 -0.8980 -0.9611 -0.0655
  513MOL0     H70773  -0.867   4.762   2.300 -1.0800 -0.2859  1.4294
  513MOL0     H70774  -1.020   4.927   2.750  1.2628 -1.2530  0.2723
  513MOL0     H70775  -0.774   4.859   2.753  0.2860 -1.2470 -2.0301
  513MOL0     H70776  -0.521   4.519   2.697 -0.8909 -0.1420  0.7905
  513MOL0     H70777  -0.296   4.419   2.661  0.0923 -4.0512 -0.4319
  513MOL0     H70778   1.038   3.446   3.864 -2.8019 -1.1268 -3.4721
  513MOL0     H70779   1.019   3.424   4.116  3.9597 -0.4912 -1.4859
  513MOL0     H70780   0.835   3.046   4.417  2.0848  1.5966 -0.4011
  513MOL0     H70781   0.741   2.993   4.650 -0.5405  0.8251  1.4033
  513MOL0     H70782   0.610   3.316   4.898 -2.0578  0.1929  2.3683
  513MOL0     H70783   0.455   3.235   4.895 -0.3863  2.3318  1.8462
  513MOL0     H70784   0.679   3.136   5.063 -0.8493  1.2716  0.3648
  513MOL0     H70785   0.518   3.066   5.037  0.7097 -0.5205 -0.6809
  513MOL0     H70786   0.443   3.296   5.141 -1.4273 -3.5503 -1.9993
  513MOL0     H70787   0.527   3.171   5.235 -2.7867  1.1693 -0.6004
  513MOL0     H70788   0.665   3.411   5.105 -0.0777 -0.8410  0.6721
  513MOL0     H70789   0.745   3.286   5.207  1.2180  1.1298 -0.3325
  513MOL0     H70790   0.494   3.526   5.477 -1.7509 -0.2995 -0.4569
  513MOL0     H70791   0.592   3.368   4.699 -2.2616 -2.2366 -0.9440
  513MOL0     H70792   0.745   3.528   4.402  1.9350 -2.9053 -1.1162
  513MOL0     H70793   0.567   3.503   4.400  0.3529  1.4654  1.0727
  513MOL0     H70794   0.655   3.549   4.547  2.3659 -2.8839  1.6575
  514MOL0     O70795   7.130   7.737  10.543  0.2890  0.7139  0.0219
  514MOL0     C70796   7.079   7.719  10.653 -0.0038 -0.0992 -0.0432
  514MOL0     O70797   7.144   7.757  10.780  0.1111 -0.2527 -0.0757
  514MOL0     C70798   7.248   7.840  10.761  0.3054 -0.2834 -0.4584
  514MOL0     C70799   7.227   7.978  10.777  0.3010  0.2046  0.6894
  514MOL0     C70800   7.342   8.062  10.779 -0.0976  0.2468  0.8937
  514MOL0     C70801   7.474   8.017  10.737 -0.5260 -0.2807 -1.3554
  514MOL0     O70802   7.572   8.106  10.731  0.1981  0.2351 -0.2027
  514MOL0     C70803   7.562   8.212  10.627 -0.4437 -0.3312  0.5989
  514MOL0     C70804   7.641   8.327  10.693 -0.4027  0.1114 -0.4123
  514MOL0     C70805   7.656   8.452  10.618 -0.1297  0.2578  0.0060
  514MOL0     C70806   7.536   8.547  10.634 -0.0488 -0.6228 -0.4659
  514MOL0     C70807   7.566   8.674  10.544 -0.7567 -0.2599 -0.8543
  514MOL0     C70808   7.465   8.790  10.542  0.4034 -0.3177 -0.2015
  514MOL0     C70809   7.459   8.883  10.667 -0.2352 -0.1750 -0.1409
  514MOL0     C70810   7.397   8.835  10.791 -0.0538  1.3139  0.3869
  514MOL0     N70811   7.364   8.945  10.892  0.2132  0.6875  0.0839
  514MOL0     C70812   7.360   9.078  10.871  0.4976  0.3422  0.2340
  514MOL0     C70813   7.367   9.136  10.987  0.1940  0.2496  0.2455
  514MOL0     C70814   7.360   9.284  11.019 -0.4103  0.1804  0.9574
  514MOL0     C70815   7.327   9.322  11.158 -0.5812 -0.2615 -0.1692
  514MOL0     C70816   7.325   9.475  11.171  0.2697 -0.4006 -0.4328
  514MOL0     C70817   7.310   9.515  11.320  0.5010 -0.2156  1.0633
  514MOL0     O70818   7.317   9.659  11.322  0.8188 -0.1532  0.2008
  514MOL0     C70819   7.223   9.740  11.262 -0.2695  0.2703  0.4463
  514MOL0     C70820   7.258   9.822  11.152  0.7810  0.3700  0.0082
  514MOL0     C70821   7.166   9.888  11.072  0.9829  0.6163 -0.7397
  514MOL0     C70822   7.211   9.950  10.941 -0.5956  0.1979 -1.3558
  514MOL0     C70823   7.024   9.866  11.107 -0.2671  0.2513 -0.1339
  514MOL0     C70824   6.909   9.904  11.018 -0.8833 -0.6707 -0.1387
  514MOL0     O70825   6.789   9.836  11.034 -0.2198 -0.0406 -0.0483
  514MOL0     C70826   6.682   9.872  10.959 -0.4255  0.1908  0.2820
  514MOL0     C70827   6.630   9.785  10.858 -1.1020  0.7780  0.2050
  514MOL0     C70828   6.525   9.824  10.779  0.5438  0.0248  0.7682
  514MOL0     C70829   6.458   9.946  10.805  1.5839  0.2964 -0.0753
  514MOL0     O70830   6.369   9.988  10.705 -0.3064 -0.2339  0.1232
  514MOL0     C70831   6.400  10.105  10.625 -0.5527 -0.5499 -0.3235
  514MOL0     C70832   6.279  10.122  10.546 -0.2293 -0.3540  0.1343
  514MOL0     C70833   6.289  10.255  10.474 -0.2091  0.9380  0.5000
  514MOL0     C70834   6.161  10.299  10.405  0.1018 -0.0873  0.7371
  514MOL0     C70835   6.183  10.436  10.344 -0.2688 -0.7148 -0.1589
  514MOL0     C70836   6.059  10.501  10.282 -0.2141  0.3790  0.1818
  514MOL0     C70837   6.084  10.648  10.236 -0.1023 -0.0897 -0.1475
  514MOL0     C70838   6.007  10.653  10.105  0.6004 -0.7123  0.4170
  514MOL0    Cl70839   5.829  10.617  10.136  0.4084  0.1063 -0.3536
  514MOL0     C70840   6.504  10.023  10.908 -0.1761  0.9575  0.5961
  514MOL0     C70841   6.620   9.995  10.982 -0.0176 -1.0510  0.0518
  514MOL0     O70842   6.913  10.003  10.946 -0.2314 -0.2073  0.3177
  514MOL0     C70843   6.993   9.799  11.227 -0.2530  0.4557  0.2671
  514MOL0     C70844   7.093   9.726  11.295 -0.5345  0.2478 -0.7208
  514MOL0     N70845   7.336   9.029  11.072 -0.2265  0.7138 -1.1204
  514MOL0     N70846   7.353   8.916  11.019  0.3023 -0.8015  0.1271
  514MOL0     C70847   7.483   7.880  10.704 -0.0553 -0.0087 -0.7841
  514MOL0     C70848   7.376   7.792  10.724  0.2604 -0.0693 -0.2866
  514MOL0     C70849   6.957   7.638  10.662 -0.2332  1.1390  0.1824
  514MOL0     C70850   6.943   7.552  10.770  0.4433  0.1358  0.2154
  514MOL0     C70851   6.841   7.456  10.778 -0.5127 -0.5181  0.0203
  514MOL0     C70852   6.755   7.444  10.672  0.2302  0.5684 -0.4411
  514MOL0     O70853   6.661   7.346  10.672  0.2913 -0.0878 -0.5155
  514MOL0     C70854   6.687   7.232  10.590  0.6626  0.8597  1.0755
  514MOL0     C70855   6.815   7.154  10.632  0.0900 -0.2382 -0.1332
  514MOL0     C70856   6.815   7.092  10.778  0.5558 -0.2130  0.1592
  514MOL0     C70857   6.914   6.982  10.777  0.3591 -0.0197  0.2719
  514MOL0     C70858   6.948   6.953  10.919 -0.2537  0.7065 -0.6484
  514MOL0     C70859   6.971   6.937  11.032 -0.6956  0.0673 -0.9889
  514MOL0     C70860   6.753   7.537  10.566  0.4060 -1.0678 -0.0702
  514MOL0     C70861   6.856   7.634  10.554  0.1632 -1.0115  0.0682
  514MOL0     C70862   6.863   7.720  10.433  0.1217 -0.4364 -0.0354
  514MOL0     H70863   7.125   8.014  10.790  0.2156  2.1217 -3.4582
  514MOL0     H70864   7.334   8.162  10.821  2.9230  0.6880  0.6312
  514MOL0     H70865   7.457   8.239  10.607 -0.0425 -0.4640 -2.0898
  514MOL0     H70866   7.606   8.181  10.532 -0.5839  0.0823  0.3967
  514MOL0     H70867   7.590   8.345  10.788 -1.5833  0.4384 -1.0860
  514MOL0     H70868   7.740   8.291  10.719 -0.3465  1.2984  1.2034
  514MOL0     H70869   7.751   8.501  10.641 -0.3436  2.0560 -2.5306
  514MOL0     H70870   7.671   8.419  10.515  1.5415  2.8681 -0.6760
  514MOL0     H70871   7.444   8.499  10.601 -0.2745 -2.3614  2.3725
  514MOL0     H70872   7.524   8.580  10.738 -0.7006 -1.1466 -0.3652
  514MOL0     H70873   7.590   8.645  10.441 -0.5097  0.8722 -1.1276
  514MOL0     H70874   7.662   8.707  10.585  0.3715 -1.6507 -2.2189
  514MOL0     H70875   7.498   8.858  10.463  1.5772 -1.5879 -0.8361
  514MOL0     H70876   7.366   8.750  10.518  1.6004 -2.4612 -1.9344
  514MOL0     H70877   7.409   8.973  10.632  0.0720 -0.8001 -2.3839
  514MOL0     H70878   7.563   8.903  10.696 -0.1816  0.0803 -0.4955
  514MOL0     H70879   7.313   8.768  10.766  0.5530  1.7496 -3.4665
  514MOL0     H70880   7.468   8.779  10.853  1.5109  2.8882  0.1031
  514MOL0     H70881   7.361   9.138  10.781 -0.2349 -0.3366 -0.2460
  514MOL0     H70882   7.286   9.325  10.950 -0.4701  0.7533  1.3594
  514MOL0     H70883   7.460   9.324  11.000 -1.2855  2.0268 -0.0370
  514MOL0     H70884   7.225   9.286  11.174 -0.6394  1.0767  3.1686
  514MOL0     H70885   7.406   9.287  11.225 -0.1678  0.1351 -0.4383
  514MOL0     H70886   7.418   9.518  11.133  1.7029 -0.0646  3.1329
  514MOL0     H70887   7.240   9.512  11.113  0.4162  0.3290 -0.1889
  514MOL0     H70888   7.221   9.464  11.358  0.4460 -1.8801 -1.0832
  514MOL0     H70889   7.387   9.475  11.387  1.0042 -0.0243  0.6032
  514MOL0     H70890   7.357   9.804  11.112  1.9181  1.8995  1.9445
  514MOL0     H70891   7.314   9.922  10.914 -0.1199  0.6224 -0.0463
  514MOL0     H70892   7.216  10.059  10.950  3.3114  0.0342  0.3632
  514MOL0     H70893   7.146   9.927  10.856 -2.0495 -1.9910  0.2384
  514MOL0     H70894   6.670   9.685  10.840 -1.2066  0.9547 -1.0842
  514MOL0     H70895   6.502   9.760  10.694  1.8839  1.5442 -0.8012
  514MOL0     H70896   6.409  10.195  10.687 -0.0585  1.2902 -2.8992
  514MOL0     H70897   6.493  10.089  10.571 -0.3118 -0.0595 -0.0641
  514MOL0     H70898   6.262  10.036  10.480  1.2915  1.4279 -2.7487
  514MOL0     H70899   6.193  10.123  10.614  0.9315  2.2258  1.7182
  514MOL0     H70900   6.366  10.251  10.396 -0.5507  0.6020  0.1741
  514MOL0     H70901   6.319  10.333  10.544  1.7008 -0.2553  1.0933
  514MOL0     H70902   6.070  10.299  10.466 -0.5485  1.2139 -0.2089
  514MOL0     H70903   6.137  10.222  10.332 -1.0046 -1.9616  2.9321
  514MOL0     H70904   6.218  10.507  10.419 -1.8283  0.9147 -0.8732
  514MOL0     H70905   6.264  10.423  10.272  2.1459  0.1869  2.2448
  514MOL0     H70906   5.976  10.510  10.353 -0.2681 -1.2889  0.3704
  514MOL0     H70907   6.019  10.440  10.201 -0.2966 -1.9321  1.8566
  514MOL0     H70908   6.188  10.681  10.232  0.0712 -0.7236 -1.1122
  514MOL0     H70909   6.037  10.702  10.319 -2.4727  0.2461 -1.6180
  514MOL0     H70910   6.046  10.580  10.034 -1.3806 -0.6958 -0.7598
  514MOL0     H70911   6.008  10.751  10.056  1.6476 -1.1787 -0.5498
  514MOL0     H70912   6.444  10.113  10.919 -1.7348 -0.3634  5.6605
  514MOL0     H70913   6.664  10.080  11.034 -2.2661  1.6057 -2.0771
  514MOL0     H70914   6.891   9.773  11.252 -1.2043 -1.2643 -4.3158
  514MOL0     H70915   7.063   9.663  11.379  1.4686  1.0904  0.7227
  514MOL0     H70916   7.580   7.843  10.671 -1.8168 -4.5082 -1.7336
  514MOL0     H70917   7.386   7.686  10.703 -1.0180 -0.5550  1.3728
  514MOL0     H70918   7.009   7.574  10.853 -1.0565  0.6263  1.3163
  514MOL0     H70919   6.840   7.385  10.860  2.4165 -0.3312  0.3085
  514MOL0     H70920   6.592   7.178  10.593 -0.0435  1.5576 -2.7585
  514MOL0     H70921   6.704   7.265  10.487  2.2123  0.7040  1.2505
  514MOL0     H70922   6.906   7.210  10.607  0.4287 -1.5155 -1.9576
  514MOL0     H70923   6.814   7.080  10.551 -1.8093  0.1483 -0.5153
  514MOL0     H70924   6.836   7.171  10.851 -1.3972 -1.0231  1.6967
  514MOL0     H70925   6.716   7.052  10.804  0.2386 -0.4462 -1.2967
  514MOL0     H70926   7.003   7.014  10.721 -0.0276  1.9077  0.6666
  514MOL0     H70927   6.874   6.892  10.730  0.0931 -0.5694  1.5204
  514MOL0     H70928   6.987   6.934  11.138  1.8511 -3.3434 -1.2756
  514MOL0     H70929   6.676   7.532  10.490  0.3660  2.4680 -0.4123
  514MOL0     H70930   6.947   7.686  10.371  0.1564 -0.8317  0.2293
  514MOL0     H70931   6.777   7.706  10.366  0.9103 -3.3807 -0.5502
  514MOL0     H70932   6.883   7.824  10.462 -0.6396 -0.0486 -0.8408
  515MOL0     O70933   3.585   5.330   2.160  0.6400 -0.1966  0.4643
  515MOL0     C70934   3.597   5.297   2.039  0.8372 -0.3504 -0.0991
  515MOL0     O70935   3.497   5.274   1.956 -0.2728  0.3908 -0.3911
  515MOL0     C70936   3.368   5.282   1.987 -0.9626  0.8209 -0.8872
  515MOL0     C70937   3.315   5.381   2.069  0.9346  0.3476  0.5440
  515MOL0     C70938   3.181   5.388   2.093  0.2690  1.1203  0.1250
  515MOL0     C70939   3.092   5.294   2.043 -0.6585 -0.2399  0.2418
  515MOL0     O70940   2.954   5.303   2.044 -0.4512  0.1107 -0.0608
  515MOL0     C70941   2.889   5.357   2.157  0.4409  0.3501  0.1965
  515MOL0     C70942   2.746   5.398   2.125  0.6408  1.1225 -0.2368
  515MOL0     C70943   2.671   5.456   2.242  0.2967 -0.1469 -0.2803
  515MOL0     C70944   2.584   5.347   2.312 -0.2176 -0.5970 -0.1415
  515MOL0     C70945   2.516   5.422   2.417  0.1002  0.0439  0.2568
  515MOL0     C70946   2.401   5.356   2.491  0.2426 -0.0035 -0.3489
  515MOL0     C70947   2.426   5.211   2.541  0.5025 -0.6923  0.8862
  515MOL0     C70948   2.309   5.162   2.618 -0.2312  0.8320 -0.3368
  515MOL0     N70949   2.300   5.013   2.620  0.0921  0.8060  0.0605
  515MOL0     C70950   2.181   4.945   2.621 -0.4457 -0.6636  0.4466
  515MOL0     C70951   2.214   4.817   2.604 -0.0403  1.0800 -0.2851
  515MOL0     C70952   2.122   4.686   2.597 -1.2489  0.1889  1.0778
  515MOL0     C70953   2.103   4.637   2.737 -0.7332 -0.9257 -0.2282
  515MOL0     C70954   2.229   4.582   2.802  0.2119 -0.7275  0.5846
  515MOL0     C70955   2.177   4.498   2.924  0.6687  0.0154  0.5002
  515MOL0     O70956   2.121   4.374   2.864 -0.2191 -0.5606 -0.2495
  515MOL0     C70957   2.030   4.317   2.949  0.2145 -0.8362 -0.2013
  515MOL0     C70958   2.055   4.271   3.085 -0.3781  0.0959  0.3956
  515MOL0     C70959   1.952   4.211   3.159 -0.2155  0.9980  0.1329
  515MOL0     C70960   2.000   4.176   3.305 -0.5756  0.0734  0.5634
  515MOL0     C70961   1.831   4.164   3.097 -0.9937 -0.4676  0.5227
  515MOL0     C70962   1.722   4.084   3.159  0.0223 -0.7745  0.1920
  515MOL0     O70963   1.606   4.086   3.091 -0.1353  0.0661 -0.9835
  515MOL0     C70964   1.491   4.033   3.149 -0.9147 -1.2297  0.9192
  515MOL0     C70965   1.447   3.906   3.099 -0.3957 -0.9347 -0.3568
  515MOL0     C70966   1.318   3.867   3.113 -0.3930  0.7502  0.2726
  515MOL0     C70967   1.233   3.948   3.185 -0.4805  0.2377 -0.2850
  515MOL0     O70968   1.102   3.919   3.214  0.0931  0.5862  0.8375
  515MOL0     C70969   1.041   3.807   3.154  0.4243 -0.2325  0.1303
  515MOL0     C70970   0.892   3.801   3.189  1.0333 -0.6379  0.1581
  515MOL0     C70971   0.813   3.934   3.185 -0.0321  0.9603 -0.7400
  515MOL0     C70972   0.814   4.018   3.303  0.2180  0.1612 -0.4605
  515MOL0     C70973   0.693   4.118   3.309 -0.9783  0.7955 -0.4459
  515MOL0     C70974   0.555   4.058   3.321  0.2491 -0.4298  0.2298
  515MOL0     C70975   0.442   4.164   3.355  0.1863 -0.3833 -1.0613
  515MOL0     C70976   0.419   4.266   3.243  0.3886 -0.5425  0.0277
  515MOL0    Cl70977   0.248   4.304   3.245  0.2804  0.3049  0.4510
  515MOL0     C70978   1.280   4.067   3.242  0.5454 -0.0772 -0.0452
  515MOL0     C70979   1.407   4.111   3.224 -0.8690 -0.0304 -0.2584
  515MOL0     O70980   1.731   4.042   3.267  0.6411 -0.1003  0.3954
  515MOL0     C70981   1.807   4.204   2.964 -0.4499 -0.9929  0.3135
  515MOL0     C70982   1.908   4.278   2.888 -0.8067 -0.1113 -0.4388
  515MOL0     N70983   2.355   4.807   2.604  0.2481 -0.2123  0.5426
  515MOL0     N70984   2.406   4.927   2.621 -0.0822  0.8388 -1.1585
  515MOL0     C70985   3.139   5.190   1.970  0.0148  0.1742 -1.1709
  515MOL0     C70986   3.279   5.181   1.938 -0.1894  0.6796  0.4544
  515MOL0     C70987   3.733   5.266   1.993 -0.6386 -0.8694  0.3195
  515MOL0     C70988   3.829   5.368   2.026 -0.4606 -0.1996  0.0989
  515MOL0     C70989   3.962   5.352   1.987  0.7898  0.1315 -0.2015
  515MOL0     C70990   4.004   5.249   1.901 -0.3661 -0.4347 -0.0349
  515MOL0     O70991   4.132   5.263   1.844  0.0440 -0.1140 -0.1694
  515MOL0     C70992   4.170   5.187   1.729  0.2521  0.4259 -0.5138
  515MOL0     C70993   4.248   5.068   1.786  0.5077  0.3296 -0.1202
  515MOL0     C70994   4.379   5.113   1.850 -0.4318 -0.5166 -0.8303
  515MOL0     C70995   4.475   5.004   1.901  0.1169 -0.3671  0.4920
  515MOL0     C70996   4.540   4.939   1.785 -0.0575  0.8383  0.1811
  515MOL0     C70997   4.586   4.873   1.694  0.0252 -0.3208  0.1201
  515MOL0     C70998   3.919   5.152   1.873  0.6455 -0.3214  0.3990
  515MOL0     C70999   3.780   5.156   1.915 -0.1491 -0.3932  0.0427
  515MOL0     C71000   3.690   5.043   1.870 -0.3278  0.0342 -0.6120
  515MOL0     H71001   3.375   5.461   2.112  1.0994  0.7526 -0.4284
  515MOL0     H71002   3.148   5.467   2.159 -0.5384  0.3648  0.6579
  515MOL0     H71003   2.942   5.448   2.185 -0.3511  2.3703 -4.0897
  515MOL0     H71004   2.890   5.288   2.242  3.6562  2.2576  1.8887
  515MOL0     H71005   2.759   5.474   2.048 -0.4693  1.1504 -0.4142
  515MOL0     H71006   2.696   5.308   2.086 -0.7928  1.9556 -0.3797
  515MOL0     H71007   2.735   5.514   2.310  2.3442  0.3309 -2.4752
  515MOL0     H71008   2.612   5.536   2.196  1.6952  0.2383 -1.5133
  515MOL0     H71009   2.507   5.311   2.244 -1.9504  0.0596  1.4060
  515MOL0     H71010   2.639   5.262   2.355 -0.6560 -1.3037 -0.9569
  515MOL0     H71011   2.474   5.516   2.380  2.9252  0.9663 -0.9489
  515MOL0     H71012   2.593   5.463   2.484 -0.0269 -0.1364  0.5178
  515MOL0     H71013   2.358   5.425   2.565  1.4561 -0.2093  0.5857
  515MOL0     H71014   2.311   5.353   2.429 -1.8975  1.7615  2.4048
  515MOL0     H71015   2.518   5.197   2.598  2.1955  2.5268 -0.7478
  515MOL0     H71016   2.431   5.158   2.445 -0.7242  1.1135 -0.2471
  515MOL0     H71017   2.319   5.200   2.720 -0.8854  0.6436 -0.1985
  515MOL0     H71018   2.216   5.194   2.570  0.3246 -1.1942 -3.0199
  515MOL0     H71019   2.085   4.996   2.619  0.8353  1.9292  0.7675
  515MOL0     H71020   2.177   4.608   2.543 -2.6291 -0.2723  0.3115
  515MOL0     H71021   2.025   4.708   2.552  0.4262  1.4471 -2.3356
  515MOL0     H71022   2.051   4.711   2.799  0.2689  0.5701 -1.1133
  515MOL0     H71023   2.041   4.550   2.715 -1.8543  0.3464 -2.3988
  515MOL0     H71024   2.282   4.513   2.735 -0.4505 -0.4188 -0.2766
  515MOL0     H71025   2.299   4.655   2.842 -0.3789 -1.3483  2.9031
  515MOL0     H71026   2.251   4.467   2.998 -3.0134 -0.5592  4.2649
  515MOL0     H71027   2.103   4.553   2.982  0.0754 -0.8436  0.5745
  515MOL0     H71028   2.154   4.296   3.123  0.0616 -2.0243  0.7813
  515MOL0     H71029   2.015   4.069   3.326 -2.4179 -0.4752 -0.7167
  515MOL0     H71030   1.918   4.200   3.373 -1.9829 -2.6893 -0.0036
  515MOL0     H71031   2.092   4.229   3.333  0.5478 -1.2851 -0.3464
  515MOL0     H71032   1.519   3.852   3.039 -1.4453 -0.9740 -1.6250
  515MOL0     H71033   1.273   3.786   3.056 -1.7473  2.6695 -1.5735
  515MOL0     H71034   1.052   3.814   3.045 -2.2682  0.1437 -0.1744
  515MOL0     H71035   1.085   3.713   3.190 -1.0582  0.6363  4.9692
  515MOL0     H71036   0.852   3.722   3.126 -1.1861  1.0555 -0.6710
  515MOL0     H71037   0.886   3.770   3.294  1.6429  1.7940  1.0020
  515MOL0     H71038   0.712   3.910   3.149  0.8050 -0.8303 -2.0890
  515MOL0     H71039   0.867   3.991   3.109 -0.0356 -0.4376 -1.8384
  515MOL0     H71040   0.910   4.070   3.306 -0.9872  2.5237  1.0879
  515MOL0     H71041   0.803   3.952   3.389  2.1706 -2.1420 -1.8382
  515MOL0     H71042   0.715   4.176   3.399  3.0811 -2.4237  0.9356
  515MOL0     H71043   0.690   4.187   3.224 -2.7647  1.9628  0.5028
  515MOL0     H71044   0.556   3.975   3.393  0.7309 -2.1695 -1.6934
  515MOL0     H71045   0.519   4.024   3.224 -1.0189  1.1593  0.1071
  515MOL0     H71046   0.473   4.225   3.440 -0.0756 -1.6914 -0.0068
  515MOL0     H71047   0.348   4.127   3.397  0.3310  0.0428 -0.3329
  515MOL0     H71048   0.446   4.224   3.145 -0.5990  0.5162 -0.7165
  515MOL0     H71049   0.472   4.359   3.264 -1.6717  0.9208 -0.8559
  515MOL0     H71050   1.224   4.133   3.308  0.3992 -1.1629  0.9648
  515MOL0     H71051   1.434   4.210   3.260  1.5876 -0.8724  0.4494
  515MOL0     H71052   1.716   4.186   2.907  0.8252 -1.7135 -1.6062
  515MOL0     H71053   1.897   4.297   2.782  3.0330  0.2143 -0.9146
  515MOL0     H71054   3.079   5.110   1.926  0.1567 -0.1148 -0.8406
  515MOL0     H71055   3.321   5.106   1.871 -1.4669 -3.4368  3.7901
  515MOL0     H71056   3.808   5.446   2.098  1.7308 -1.2931  2.0834
  515MOL0     H71057   4.028   5.437   2.005 -1.4454  1.8339  0.4224
  515MOL0     H71058   4.087   5.149   1.670 -0.0984 -1.6475  1.1897
  515MOL0     H71059   4.241   5.248   1.672 -0.5280  3.6444  1.6757
  515MOL0     H71060   4.271   5.008   1.698  0.1228  0.8446 -0.5806
  515MOL0     H71061   4.180   5.011   1.850 -0.0233  0.4743 -0.5495
  515MOL0     H71062   4.446   5.167   1.782 -3.5330  2.7974 -1.5707
  515MOL0     H71063   4.366   5.189   1.928  2.5841  0.9700 -1.6328
  515MOL0     H71064   4.419   4.927   1.954 -0.4885 -1.8333 -2.0945
  515MOL0     H71065   4.546   5.040   1.976  1.8253 -0.0196 -1.2020
  515MOL0     H71066   4.622   4.811   1.614  3.2117  0.8717  0.4813
  515MOL0     H71067   3.951   5.067   1.814 -1.2919 -0.5276 -0.4248
  515MOL0     H71068   3.610   5.082   1.807  0.0803  3.9866  1.0214
  515MOL0     H71069   3.745   4.963   1.820 -2.7222 -1.4076 -1.0436
  515MOL0     H71070   3.651   4.991   1.958 -3.2007  0.3267 -1.6327
  516MOL0     O71071  10.755   6.613   8.697 -0.1592  0.7214 -0.1417
  516MOL0     C71072  10.657   6.535   8.705 -1.3118 -0.3799 -0.8185
  516MOL0     O71073  10.671   6.398   8.695  0.0915  0.3807  0.9589
  516MOL0     C71074  10.749   6.328   8.603 -0.3669 -0.2949  0.0694
  516MOL0     C71075  10.816   6.394   8.499 -0.7606 -0.3396  0.3036
  516MOL0     C71076  10.879   6.323   8.398  0.0599 -0.2968  0.4239
  516MOL0     C71077  10.880   6.187   8.391 -0.2154 -0.7387  0.3374
  516MOL0     O71078  10.945   6.110   8.295  0.3331 -0.9241 -0.0753
  516MOL0     C71079  11.026   6.176   8.191 -0.4759 -0.2852 -0.3081
  516MOL0     C71080  11.098   6.063   8.118  0.5750  0.1299 -0.3263
  516MOL0     C71081  11.204   6.124   8.028  0.2262  1.4207 -0.7597
  516MOL0     C71082  11.283   6.000   7.967 -0.1889 -1.2522 -0.5576
  516MOL0     C71083  11.411   6.058   7.883  0.9934  0.0069  0.3553
  516MOL0     C71084  11.463   5.945   7.791 -0.2924  0.2369  0.3481
  516MOL0     C71085  11.585   5.988   7.718 -0.6552  0.6502 -0.7124
  516MOL0     C71086  11.637   5.888   7.614 -0.4693  0.6230 -0.8025
  516MOL0     N71087  11.749   5.942   7.535  0.4189  0.1858  0.3905
  516MOL0     C71088  11.808   5.882   7.427  1.1240 -0.6060  0.5249
  516MOL0     C71089  11.920   5.957   7.413  0.5819  0.9002  0.2174
  516MOL0     C71090  12.034   5.918   7.334  0.2087 -0.0297  0.2530
  516MOL0     C71091  12.049   5.983   7.194  0.6153  0.4670  0.2628
  516MOL0     C71092  12.090   6.131   7.208 -0.0812 -1.0004 -0.2186
  516MOL0     C71093  12.145   6.200   7.088  0.0396 -0.2135  0.5189
  516MOL0     O71094  12.218   6.322   7.131 -0.1442 -0.1829 -0.8810
  516MOL0     C71095  12.344   6.310   7.177  0.7827 -0.4595  0.0168
  516MOL0     C71096  12.367   6.391   7.281  0.7551 -0.8376 -0.2437
  516MOL0     C71097  12.491   6.389   7.359 -0.2721  0.8235 -0.1427
  516MOL0     C71098  12.512   6.482   7.472  1.0192  0.5862  0.0879
  516MOL0     C71099  12.593   6.294   7.313 -0.0448  1.0317  0.4496
  516MOL0     C71100  12.729   6.268   7.377 -0.6238 -0.0834 -0.7081
  516MOL0     O71101  12.766   6.337   7.496  0.4111  0.1434 -0.0719
  516MOL0     C71102  12.886   6.310   7.559  0.8499 -0.3142  0.5398
  516MOL0     C71103  12.878   6.302   7.695 -0.1412 -0.6488 -0.4468
  516MOL0     C71104  13.006   6.295   7.768 -0.7686  0.3705  0.5598
  516MOL0     C71105  13.129   6.302   7.703 -0.7340 -0.5557 -0.9931
  516MOL0     O71106  13.242   6.286   7.785 -0.4806  0.3158  0.0447
  516MOL0     C71107  13.345   6.380   7.755 -0.2990 -0.0081 -0.2366
  516MOL0     C71108  13.419   6.416   7.886  0.4597 -0.5072  0.1001
  516MOL0     C71109  13.478   6.295   7.953 -0.5247 -0.0759 -0.1810
  516MOL0     C71110  13.560   6.356   8.076 -0.5285  0.0742  0.0924
  516MOL0     C71111  13.620   6.236   8.147  0.9336  0.1282  0.6800
  516MOL0     C71112  13.673   6.257   8.291 -0.6282  0.7578 -0.1291
  516MOL0     C71113  13.569   6.300   8.392  0.6158  0.3490  0.3301
  516MOL0     C71114  13.645   6.345   8.506 -0.2439  1.5862 -0.1088
  516MOL0    Cl71115  13.557   6.425   8.632  0.1651 -0.1749  0.6043
  516MOL0     C71116  13.131   6.324   7.570  0.4392  0.2403 -0.4577
  516MOL0     C71117  13.010   6.323   7.493 -0.0759 -0.0905  0.5635
  516MOL0     O71118  12.801   6.181   7.319  0.5216 -0.4376 -0.1360
  516MOL0     C71119  12.565   6.227   7.190 -0.7423 -0.0508 -0.3471
  516MOL0     C71120  12.449   6.245   7.120 -0.6232 -0.0318  0.5873
  516MOL0     N71121  11.923   6.062   7.501  0.0126 -0.2162  0.3873
  516MOL0     N71122  11.820   6.048   7.582  0.3432  0.2158  0.6509
  516MOL0     C71123  10.815   6.126   8.504  0.2209 -0.0073  0.6705
  516MOL0     C71124  10.737   6.196   8.600 -0.3329 -0.3116 -0.3615
  516MOL0     C71125  10.519   6.590   8.740  0.7077  0.3432  0.7949
  516MOL0     C71126  10.409   6.546   8.663 -0.0879 -0.2994  0.1027
  516MOL0     C71127  10.276   6.553   8.707 -0.4855  0.8433  0.3855
  516MOL0     C71128  10.249   6.623   8.822  0.8487 -0.7795  0.1682
  516MOL0     O71129  10.120   6.658   8.868  0.0192 -0.1730 -0.0197
  516MOL0     C71130  10.030   6.550   8.868  0.1346  0.7032  0.7108
  516MOL0     C71131   9.919   6.600   8.786 -0.2425  1.0928  0.6079
  516MOL0     C71132   9.937   6.621   8.634  0.4544 -0.3209 -0.3461
  516MOL0     C71133   9.831   6.709   8.579  0.4027 -1.0038 -0.1426
  516MOL0     C71134   9.711   6.629   8.565  0.4315 -0.5326  0.5507
  516MOL0     C71135   9.614   6.558   8.563  0.7799  0.0271 -0.1056
  516MOL0     C71136  10.351   6.682   8.888 -0.4457 -0.4142  1.2845
  516MOL0     C71137  10.484   6.670   8.855  0.0408 -0.4625 -0.3671
  516MOL0     C71138  10.569   6.694   8.981 -0.4007  0.5403 -0.8221
  516MOL0     H71139  10.799   6.500   8.487  1.8171 -0.0912 -1.9407
  516MOL0     H71140  10.922   6.382   8.317  1.7899 -0.3427  1.2539
  516MOL0     H71141  11.082   6.259   8.237 -0.8816 -0.1390 -0.0741
  516MOL0     H71142  10.966   6.232   8.119  0.7309  2.7612  0.8593
  516MOL0     H71143  11.135   5.988   8.189  1.8831  0.4819 -0.6010
  516MOL0     H71144  11.022   6.007   8.063  0.7064 -0.1417 -0.2348
  516MOL0     H71145  11.161   6.181   7.946  0.2414  0.5835 -1.3663
  516MOL0     H71146  11.270   6.189   8.087  0.0427  0.8342  0.1195
  516MOL0     H71147  11.328   5.947   8.051  1.9491  1.0272 -0.1350
  516MOL0     H71148  11.229   5.937   7.896  0.0358 -1.6372 -0.3892
  516MOL0     H71149  11.487   6.095   7.952  1.0465  1.6318 -0.5229
  516MOL0     H71150  11.376   6.142   7.822  0.8660 -2.4646 -3.3398
  516MOL0     H71151  11.480   5.852   7.846 -1.8080 -0.5283 -0.3999
  516MOL0     H71152  11.389   5.912   7.717 -0.7972 -2.2366  1.8278
  516MOL0     H71153  11.658   6.016   7.794 -1.8896 -0.2030  0.8374
  516MOL0     H71154  11.555   6.079   7.665 -0.0072  1.9613  1.0732
  516MOL0     H71155  11.666   5.794   7.663 -1.5952 -0.3232 -1.8946
  516MOL0     H71156  11.553   5.872   7.546 -0.4526 -2.2318 -0.2702
  516MOL0     H71157  11.789   5.800   7.360 -2.8215 -0.1902  0.8939
  516MOL0     H71158  12.038   5.810   7.317 -3.7260 -0.9820  3.7382
  516MOL0     H71159  12.127   5.942   7.387  0.6085  1.5033 -1.0579
  516MOL0     H71160  12.118   5.932   7.126  3.6182  5.0538 -0.6230
  516MOL0     H71161  11.947   5.984   7.153 -0.0616  0.7300  1.8535
  516MOL0     H71162  12.010   6.201   7.232  2.0995  1.4770  0.3486
  516MOL0     H71163  12.173   6.140   7.279  0.0298 -0.5790 -0.3947
  516MOL0     H71164  12.208   6.135   7.027 -0.3751  0.2779 -0.4536
  516MOL0     H71165  12.067   6.230   7.018  0.3814 -1.0493 -0.2406
  516MOL0     H71166  12.286   6.456   7.313  0.2734 -1.1590 -0.7966
  516MOL0     H71167  12.527   6.428   7.566 -4.3888  0.5540  1.2438
  516MOL0     H71168  12.427   6.548   7.489  0.8015  0.2944  0.1355
  516MOL0     H71169  12.603   6.542   7.459 -0.7179  3.3189 -0.2137
  516MOL0     H71170  12.786   6.304   7.753 -0.2981 -0.2302 -0.7008
  516MOL0     H71171  13.008   6.282   7.875  2.4428  2.0654  0.8312
  516MOL0     H71172  13.417   6.340   7.683  0.3579  0.7778 -0.0379
  516MOL0     H71173  13.306   6.472   7.711  0.2070 -0.4617 -1.6903
  516MOL0     H71174  13.490   6.492   7.853 -0.1605  0.2955  0.6037
  516MOL0     H71175  13.347   6.445   7.963  4.1616 -0.0574  3.7499
  516MOL0     H71176  13.534   6.229   7.886 -0.4211 -0.3176  0.1393
  516MOL0     H71177  13.396   6.234   7.993 -0.3144  0.5994  1.3799
  516MOL0     H71178  13.488   6.397   8.148  0.5166  1.3491  0.4438
  516MOL0     H71179  13.643   6.423   8.051 -2.2283  2.2887  0.0430
  516MOL0     H71180  13.538   6.163   8.149  1.6113 -0.8522 -2.0899
  516MOL0     H71181  13.695   6.195   8.079  0.3710 -2.0023  1.2617
  516MOL0     H71182  13.756   6.329   8.283  0.1660 -0.2850 -1.6845
  516MOL0     H71183  13.731   6.167   8.316  1.8368  1.9686 -1.1009
  516MOL0     H71184  13.505   6.213   8.410  1.1984 -0.9667 -3.2396
  516MOL0     H71185  13.483   6.364   8.368 -1.0743 -0.4417  3.6361
  516MOL0     H71186  13.722   6.420   8.491  2.3146 -0.5060  1.5448
  516MOL0     H71187  13.694   6.262   8.558 -1.0758  0.3503 -1.2128
  516MOL0     H71188  13.214   6.343   7.502  3.4326 -1.3208  2.5054
  516MOL0     H71189  13.026   6.344   7.387  2.5496  1.0134  1.0977
  516MOL0     H71190  12.640   6.162   7.146 -0.7542 -0.0570 -0.3579
  516MOL0     H71191  12.445   6.181   7.032  1.2538  1.1326 -0.4171
  516MOL0     H71192  10.816   6.018   8.513  0.8231 -0.0252  0.4002
  516MOL0     H71193  10.674   6.143   8.670 -0.1348 -0.2311 -0.1220
  516MOL0     H71194  10.426   6.502   8.565 -1.2508 -0.8917  0.1434
  516MOL0     H71195  10.194   6.522   8.644  1.1029 -4.5865  0.4804
  516MOL0     H71196  10.064   6.465   8.810 -1.0170  1.4991 -1.2294
  516MOL0     H71197  10.012   6.521   8.972  1.5498 -0.8846  0.5530
  516MOL0     H71198   9.887   6.698   8.823 -1.9103  0.6220  0.5326
  516MOL0     H71199   9.833   6.535   8.809  0.4019  1.2290  3.9762
  516MOL0     H71200  10.029   6.679   8.622  1.0676 -1.3840 -1.0276
  516MOL0     H71201   9.946   6.524   8.584  1.0160  1.8060 -4.8900
  516MOL0     H71202   9.859   6.746   8.479 -0.0281  1.2068  0.4943
  516MOL0     H71203   9.812   6.796   8.642 -3.1923  0.0107 -2.3346
  516MOL0     H71204   9.536   6.487   8.541  2.5495 -1.5916 -1.4640
  516MOL0     H71205  10.326   6.748   8.971 -0.8322  3.4880 -1.6590
  516MOL0     H71206  10.566   6.609   9.050  0.7768  1.4885  0.4360
  516MOL0     H71207  10.676   6.712   8.969  0.3046  0.6754  3.8677
  516MOL0     H71208  10.524   6.777   9.036 -0.0297 -0.2204  0.6925
  517MOL0     O71209   1.677   0.947   0.316 -0.5992  0.4523 -0.3652
  517MOL0     C71210   1.684   0.824   0.310 -0.4197  0.0469 -0.2075
  517MOL0     O71211   1.715   0.745   0.419 -0.7470  0.5239 -0.2018
  517MOL0     C71212   1.778   0.806   0.527 -0.1712 -0.2444  0.4168
  517MOL0     C71213   1.746   0.763   0.661 -0.1812 -0.4483 -0.6714
  517MOL0     C71214   1.822   0.801   0.774  0.4124  0.2334 -0.5519
  517MOL0     C71215   1.931   0.891   0.756  0.0432 -0.3585 -0.0266
  517MOL0     O71216   2.001   0.929   0.865  0.3114 -0.1337  0.0455
  517MOL0     C71217   2.142   0.923   0.867  0.3920 -1.0321  0.1970
  517MOL0     C71218   2.210   0.784   0.837  0.0579 -0.7987 -1.0917
  517MOL0     C71219   2.245   0.705   0.963 -0.6086  0.2778  0.3418
  517MOL0     C71220   2.130   0.676   1.050 -0.2197  1.3563  0.1097
  517MOL0     C71221   2.157   0.572   1.162 -0.0101  0.4949  0.7140
  517MOL0     C71222   2.216   0.442   1.097  0.8487 -0.0012  0.0413
  517MOL0     C71223   2.173   0.321   1.177  1.2459  0.0290  0.9088
  517MOL0     C71224   2.277   0.289   1.279 -0.7905  0.6687  0.4205
  517MOL0     N71225   2.297   0.378   1.392  0.0182  0.2332  0.3401
  517MOL0     C71226   2.279   0.337   1.520  0.0883 -0.3411 -0.4232
  517MOL0     C71227   2.337   0.434   1.596 -0.4769  0.6567 -1.2500
  517MOL0     C71228   2.357   0.446   1.749  0.7073 -0.6847  0.4228
  517MOL0     C71229   2.448   0.335   1.814 -0.4091 -0.7569 -0.6941
  517MOL0     C71230   2.386   0.193   1.799 -0.1920 -0.0028 -0.0216
  517MOL0     C71231   2.454   0.099   1.896 -0.1325  0.9419 -0.5283
  517MOL0     O71232   2.454   0.151   2.027  0.1206 -0.3265  0.3758
  517MOL0     C71233   2.340   0.130   2.105  0.6768  0.7499  0.0633
  517MOL0     C71234   2.347   0.169   2.239  0.6657 -0.3781  0.0771
  517MOL0     C71235   2.250   0.171   2.330  0.5574 -0.2352 -0.5244
  517MOL0     C71236   2.284   0.230   2.474  0.7875 -0.3161 -0.1668
  517MOL0     C71237   2.120   0.133   2.283  0.0475  0.9389  0.7368
  517MOL0     C71238   1.996   0.119   2.364  0.1185  0.1650  0.4937
  517MOL0     O71239   1.880   0.054   2.302 -0.1036 -0.6138  0.6387
  517MOL0     C71240   1.765   0.056   2.372  0.4434  0.1037  0.0249
  517MOL0     C71241   1.656   0.026   2.295 -0.1494 -0.4680  0.3412
  517MOL0     C71242   1.535  -0.002   2.347  0.3599  0.6887 -0.3731
  517MOL0     C71243   1.509   0.037   2.477  1.6340 -0.3399  0.7815
  517MOL0     O71244   1.379   0.038   2.526  0.0757  0.0471 -0.1674
  517MOL0     C71245   1.339   0.148   2.613 -0.4710 -0.5256  0.0199
  517MOL0     C71246   1.199   0.159   2.651 -0.0380 -0.4063 -0.6002
  517MOL0     C71247   1.129   0.030   2.683 -0.4852 -0.0547 -0.0392
  517MOL0     C71248   0.985   0.053   2.742  0.1044 -0.6551 -0.1503
  517MOL0     C71249   0.923  -0.085   2.747  0.1557 -0.4343  0.3168
  517MOL0     C71250   0.772  -0.087   2.783 -1.0238  0.2288  0.1091
  517MOL0     C71251   0.715  -0.234   2.778  0.0600  0.3127 -0.6267
  517MOL0     C71252   0.571  -0.239   2.828 -0.5257 -0.2135 -0.9446
  517MOL0    Cl71253   0.568  -0.281   2.999  0.3075  0.4238  0.0919
  517MOL0     C71254   1.616   0.064   2.559  0.4474  0.5562 -0.2037
  517MOL0     C71255   1.743   0.067   2.511  0.7468 -0.1115  0.7719
  517MOL0     O71256   1.997   0.178   2.470 -0.4609 -0.1751  0.0939
  517MOL0     C71257   2.112   0.076   2.152  0.7656 -0.1575 -0.3306
  517MOL0     C71258   2.218   0.070   2.056 -0.1469 -0.0937  0.5039
  517MOL0     N71259   2.392   0.523   1.515  0.2674 -0.4923 -0.0951
  517MOL0     N71260   2.382   0.489   1.391 -0.2399  0.3198 -0.0759
  517MOL0     C71261   1.963   0.935   0.627  1.4131 -0.2844 -0.5587
  517MOL0     C71262   1.886   0.895   0.514 -0.6816  0.1532 -0.0792
  517MOL0     C71263   1.656   0.747   0.184  0.4912  1.0328  0.3964
  517MOL0     C71264   1.607   0.611   0.190  0.8137 -0.9964  0.0163
  517MOL0     C71265   1.615   0.535   0.071  0.5862  0.1714 -1.1551
  517MOL0     C71266   1.649   0.595  -0.051 -0.6480  0.2454  0.2960
  517MOL0     O71267   1.648   0.534  -0.171 -0.0986 -0.5327  0.9563
  517MOL0     C71268   1.716   0.410  -0.174  0.1348 -1.1704 -0.0503
  517MOL0     C71269   1.737   0.368  -0.319  0.4589  0.0124 -0.0796
  517MOL0     C71270   1.826   0.463  -0.400  0.0091  0.8211 -0.1254
  517MOL0     C71271   1.962   0.477  -0.349 -0.1245 -0.2237  0.0021
  517MOL0     C71272   1.977   0.593  -0.274  1.0541 -0.0662  0.4915
  517MOL0     C71273   1.991   0.683  -0.204  0.2030 -0.2013  0.2101
  517MOL0     C71274   1.671   0.736  -0.061 -0.8547  0.5601 -0.4440
  517MOL0     C71275   1.685   0.809   0.059  1.2838  0.1188 -0.2845
  517MOL0     C71276   1.772   0.931   0.033  0.3005 -0.4753 -0.4079
  517MOL0     H71277   1.662   0.695   0.659  0.9452 -1.9377 -3.6895
  517MOL0     H71278   1.806   0.747   0.867 -1.9392  1.2034 -0.3423
  517MOL0     H71279   2.163   0.951   0.970 -3.3117 -2.8306  1.6358
  517MOL0     H71280   2.188   1.005   0.810  0.7777 -0.3382  1.4752
  517MOL0     H71281   2.152   0.720   0.770  0.0054  1.1420 -3.0007
  517MOL0     H71282   2.303   0.814   0.787  1.9272 -1.2579  1.9079
  517MOL0     H71283   2.298   0.614   0.931 -3.1471 -0.6423 -1.5990
  517MOL0     H71284   2.313   0.768   1.022 -0.4469 -0.2604  0.7391
  517MOL0     H71285   2.099   0.776   1.081  2.9370  1.9385  1.8077
  517MOL0     H71286   2.049   0.647   0.981 -1.3518  3.6387  0.4104
  517MOL0     H71287   2.057   0.557   1.202 -0.0330  3.9255  2.3220
  517MOL0     H71288   2.234   0.620   1.223  1.8026 -1.4173  0.0540
  517MOL0     H71289   2.185   0.416   0.996 -0.5737  3.0463 -0.3876
  517MOL0     H71290   2.326   0.443   1.094  0.8830 -1.4529 -0.2188
  517MOL0     H71291   2.157   0.234   1.112 -1.3964  0.0530  1.4421
  517MOL0     H71292   2.075   0.336   1.222  0.2006 -0.4971 -1.0780
  517MOL0     H71293   2.255   0.191   1.324 -3.5338  0.2812 -1.4995
  517MOL0     H71294   2.369   0.271   1.222 -1.2037 -1.1947  0.2665
  517MOL0     H71295   2.224   0.248   1.548  1.1376 -0.1836  2.5261
  517MOL0     H71296   2.253   0.456   1.781 -0.0109  0.1322 -1.9149
  517MOL0     H71297   2.399   0.547   1.752 -0.2040 -0.1444 -2.0910
  517MOL0     H71298   2.547   0.337   1.768 -0.6041  2.4545 -1.1720
  517MOL0     H71299   2.459   0.363   1.919 -1.5075  0.4909 -0.8804
  517MOL0     H71300   2.279   0.199   1.819 -0.2780 -1.1842 -0.0669
  517MOL0     H71301   2.396   0.151   1.698  2.2829  1.4340 -0.4564
  517MOL0     H71302   2.411  -0.001   1.888 -0.7442  1.2029 -0.5006
  517MOL0     H71303   2.559   0.092   1.866 -0.4281 -1.8394 -1.2085
  517MOL0     H71304   2.441   0.211   2.272  1.7981 -1.6046 -1.4287
  517MOL0     H71305   2.220   0.317   2.492 -0.4629 -1.1089 -0.7274
  517MOL0     H71306   2.388   0.266   2.476 -0.1059  3.0134 -3.1927
  517MOL0     H71307   2.266   0.153   2.550 -0.1083  0.3515  0.3170
  517MOL0     H71308   1.666   0.006   2.189  1.9921 -1.6687  0.7144
  517MOL0     H71309   1.449  -0.032   2.288  1.4182 -1.8277 -0.7525
  517MOL0     H71310   1.399   0.131   2.703 -1.5332 -1.5701  0.5602
  517MOL0     H71311   1.367   0.240   2.561 -3.2202 -0.0152 -0.6954
  517MOL0     H71312   1.213   0.240   2.723  1.2562  1.0935 -2.4471
  517MOL0     H71313   1.134   0.205   2.576  1.5042  1.2983 -0.9713
  517MOL0     H71314   1.190  -0.037   2.744 -1.0171  0.1629  0.7383
  517MOL0     H71315   1.129  -0.025   2.588  1.1675 -1.0332  0.4893
  517MOL0     H71316   0.930   0.119   2.673 -0.7697 -1.4272 -0.2216
  517MOL0     H71317   0.991   0.100   2.840 -0.2532  0.2136 -0.5358
  517MOL0     H71318   0.936  -0.140   2.654 -3.5657 -0.1538 -0.5105
  517MOL0     H71319   0.974  -0.129   2.833 -1.1602 -1.2939  0.6901
  517MOL0     H71320   0.722  -0.013   2.719 -1.2613  0.0211  0.0538
  517MOL0     H71321   0.759  -0.037   2.880 -2.0667  0.2995 -0.0529
  517MOL0     H71322   0.774  -0.306   2.836 -1.5348 -0.1878  0.4278
  517MOL0     H71323   0.722  -0.262   2.673 -0.0340  0.8849 -0.7858
  517MOL0     H71324   0.503  -0.312   2.784  0.8420 -0.8227 -2.1171
  517MOL0     H71325   0.515  -0.146   2.813 -0.0726  0.6736  2.1432
  517MOL0     H71326   1.595   0.080   2.665  1.7263  0.9500  0.0009
  517MOL0     H71327   1.828   0.080   2.577  1.2025 -0.7454  0.3209
  517MOL0     H71328   2.020   0.037   2.108 -0.6065  2.7334 -0.2496
  517MOL0     H71329   2.197   0.045   1.953  0.1456 -1.0767  0.6748
  517MOL0     H71330   2.053   0.994   0.619  1.5944 -0.6239 -1.0811
  517MOL0     H71331   1.910   0.921   0.412  1.0333  1.3303  0.5837
  517MOL0     H71332   1.585   0.552   0.278 -0.0660 -3.3328 -1.6440
  517MOL0     H71333   1.579   0.434   0.088 -0.6084  0.7407 -0.1718
  517MOL0     H71334   1.812   0.416  -0.122  2.4424  1.7794 -4.0480
  517MOL0     H71335   1.658   0.333  -0.122  1.1366 -0.7135  1.8262
  517MOL0     H71336   1.640   0.352  -0.367 -1.6368 -4.5287  4.6748
  517MOL0     H71337   1.766   0.262  -0.322  0.5091 -0.0048  0.6396
  517MOL0     H71338   1.830   0.426  -0.503 -0.8298  3.9130 -1.3703
  517MOL0     H71339   1.773   0.558  -0.404 -1.1503  0.3043  1.5596
  517MOL0     H71340   2.027   0.484  -0.437 -2.2566 -1.6300 -1.8209
  517MOL0     H71341   1.989   0.383  -0.299  0.3589 -0.2671 -0.3284
  517MOL0     H71342   2.004   0.758  -0.129 -0.5131 -0.1794  0.3249
  517MOL0     H71343   1.683   0.794  -0.152 -0.5226  1.5363  0.2099
  517MOL0     H71344   1.807   0.932  -0.071  0.4397 -0.7069 -0.3636
  517MOL0     H71345   1.713   1.021   0.054  0.9672 -0.3394  0.9725
  517MOL0     H71346   1.860   0.925   0.098  0.3273  0.6776 -0.3237
  518MOL0     O71347   8.624   4.210  10.551 -0.2960  0.4813 -0.3964
  518MOL0     C71348   8.674   4.185  10.442  0.1155  0.2917  0.8276
  518MOL0     O71349   8.625   4.106  10.349 -0.3638 -0.2967  0.8102
  518MOL0     C71350   8.501   4.047  10.338 -0.3317  0.0260  0.7651
  518MOL0     C71351   8.491   3.939  10.248  0.4541  0.7994  0.1579
  518MOL0     C71352   8.375   3.858  10.250  0.1674  0.9065  0.3043
  518MOL0     C71353   8.267   3.888  10.326  0.9739  0.3615  0.0420
  518MOL0     O71354   8.159   3.798  10.309 -0.3935 -0.4065 -0.6613
  518MOL0     C71355   8.039   3.835  10.370  0.5576 -0.6247  0.0485
  518MOL0     C71356   7.930   3.736  10.340  0.6120  0.1010  0.8815
  518MOL0     C71357   7.793   3.792  10.376 -0.4979  0.0635 -0.4172
  518MOL0     C71358   7.746   3.891  10.263  0.4409 -0.6773  0.0484
  518MOL0     C71359   7.604   3.937  10.260 -0.2374  0.8882  0.2402
  518MOL0     C71360   7.586   4.035  10.145 -0.8031 -0.6344  0.0335
  518MOL0     C71361   7.454   4.112  10.140  0.5220 -0.5242 -0.2417
  518MOL0     C71362   7.323   4.033  10.168  0.6674  0.6646 -0.2392
  518MOL0     N71363   7.227   4.067  10.067  0.2174  0.8096 -0.8211
  518MOL0     C71364   7.241   4.069   9.925 -0.5040 -0.3006  0.6995
  518MOL0     C71365   7.131   4.119   9.878  0.6019  0.4520 -0.2817
  518MOL0     C71366   7.073   4.126   9.739  0.2395 -0.2814 -0.0783
  518MOL0     C71367   7.160   4.211   9.652  0.0198 -0.5413  1.1654
  518MOL0     C71368   7.107   4.230   9.513  0.2310  0.1714 -0.2188
  518MOL0     C71369   7.168   4.357   9.457  0.1910  0.8237 -0.4845
  518MOL0     O71370   7.077   4.424   9.370 -0.9174 -0.5081 -0.1510
  518MOL0     C71371   7.111   4.536   9.298 -0.1168 -0.7186  0.1964
  518MOL0     C71372   7.006   4.606   9.235  0.6711 -0.7155 -0.4872
  518MOL0     C71373   7.034   4.716   9.146 -0.0676 -0.5446 -0.1539
  518MOL0     C71374   6.914   4.777   9.073  0.1031  0.8327 -0.1135
  518MOL0     C71375   7.162   4.754   9.116 -0.0800 -1.3659 -0.8135
  518MOL0     C71376   7.194   4.866   9.034 -0.5105 -0.2488  0.3548
  518MOL0     O71377   7.152   4.852   8.907  0.5127  0.0792  0.0595
  518MOL0     C71378   7.147   4.956   8.820 -0.7568 -0.5155  0.2598
  518MOL0     C71379   7.258   5.046   8.794 -0.8317 -1.1083 -0.3867
  518MOL0     C71380   7.245   5.148   8.696  1.7594 -0.2141  0.1925
  518MOL0     C71381   7.120   5.158   8.629 -0.4402  0.9624 -0.4100
  518MOL0     O71382   7.107   5.227   8.506  0.0013  0.3177 -0.2900
  518MOL0     C71383   7.145   5.368   8.516  0.7593  0.9337 -0.7067
  518MOL0     C71384   7.041   5.458   8.600 -0.8321 -0.0153 -0.4295
  518MOL0     C71385   6.926   5.498   8.515 -0.3611  0.4470  0.3798
  518MOL0     C71386   6.832   5.384   8.485  0.6774 -0.3208  0.5320
  518MOL0     C71387   6.730   5.431   8.386  0.4078 -0.2302  0.5696
  518MOL0     C71388   6.612   5.327   8.373  0.2362  0.1510  1.3548
  518MOL0     C71389   6.665   5.193   8.313  0.3658 -0.4292 -0.4356
  518MOL0     C71390   6.541   5.116   8.288  0.6196 -1.1813 -0.8807
  518MOL0    Cl71391   6.588   4.946   8.239 -0.4455  0.3158 -0.0041
  518MOL0     C71392   7.012   5.073   8.654 -0.8607 -0.2265  0.0508
  518MOL0     C71393   7.032   4.969   8.738  0.2113 -0.5907 -0.0276
  518MOL0     O71394   7.267   4.955   9.078  0.1432 -0.8818 -0.7819
  518MOL0     C71395   7.261   4.679   9.164 -0.9950 -0.1353 -0.8522
  518MOL0     C71396   7.241   4.582   9.262 -0.2206 -0.3452 -0.2937
  518MOL0     N71397   7.048   4.149   9.982  0.0860 -0.6809  0.0738
  518MOL0     N71398   7.107   4.131  10.095  0.5323 -0.3009  0.8642
  518MOL0     C71399   8.278   3.994  10.419  0.0315  0.2540  0.0523
  518MOL0     C71400   8.393   4.076  10.420  0.0829  0.0641 -0.0292
  518MOL0     C71401   8.809   4.255  10.431 -0.0788  0.3786  0.2600
  518MOL0     C71402   8.904   4.271  10.527 -0.7459  0.2404 -0.5109
  518MOL0     C71403   9.033   4.325  10.509  0.0138 -0.4126  0.1902
  518MOL0     C71404   9.068   4.358  10.387  0.3038 -0.8314  0.3840
  518MOL0     O71405   9.192   4.402  10.379  0.3301 -0.8819 -0.1122
  518MOL0     C71406   9.224   4.476  10.258 -0.1970 -0.0912 -0.3042
  518MOL0     C71407   9.359   4.550  10.284 -0.2966 -0.0522  0.3861
  518MOL0     C71408   9.358   4.619  10.423 -0.0113 -1.5438 -0.0974
  518MOL0     C71409   9.445   4.747  10.426  0.6355 -0.2153 -0.0058
  518MOL0     C71410   9.589   4.721  10.415  0.4553 -0.4707 -0.2472
  518MOL0     C71411   9.707   4.697  10.394 -0.5065  0.5738 -0.5480
  518MOL0     C71412   8.982   4.333  10.276 -0.2639  0.8893 -0.1118
  518MOL0     C71413   8.852   4.290  10.300  0.6613  0.0707 -0.2525
  518MOL0     C71414   8.751   4.293  10.191  0.0330 -0.6604 -0.1466
  518MOL0     H71415   8.565   3.900  10.179 -1.2482 -2.3550 -0.0599
  518MOL0     H71416   8.369   3.768  10.190 -0.0402  0.7835  0.5115
  518MOL0     H71417   8.002   3.929  10.330  0.6702 -0.4897  0.2585
  518MOL0     H71418   8.036   3.831  10.479 -1.7736 -0.7654  0.0385
  518MOL0     H71419   7.938   3.721  10.232 -0.8171 -0.4761  0.8374
  518MOL0     H71420   7.944   3.642  10.393 -0.7115  0.2348  1.5079
  518MOL0     H71421   7.719   3.713  10.390 -0.4592  0.1207  0.1151
  518MOL0     H71422   7.803   3.841  10.473 -0.6127  0.6459 -0.6950
  518MOL0     H71423   7.807   3.980  10.283  0.1978 -0.0411 -1.8027
  518MOL0     H71424   7.767   3.850  10.164 -1.1838  3.2478 -2.1833
  518MOL0     H71425   7.572   3.985  10.354 -3.6456  0.4476 -0.5749
  518MOL0     H71426   7.534   3.856  10.241 -0.9960  0.5209  3.7724
  518MOL0     H71427   7.669   4.106  10.155 -2.8016  1.6178  1.7384
  518MOL0     H71428   7.585   3.973  10.055 -3.1494 -1.1140  0.3328
  518MOL0     H71429   7.448   4.174  10.051 -1.7060  0.0040  0.2089
  518MOL0     H71430   7.467   4.194  10.211 -3.5036  1.2827 -1.3104
  518MOL0     H71431   7.336   3.924  10.161 -1.1351  0.4418 -0.5919
  518MOL0     H71432   7.282   4.046  10.268  0.0972 -2.4382  0.0271
  518MOL0     H71433   7.331   4.029   9.879  0.8377  2.4952  0.6337
  518MOL0     H71434   6.973   4.168   9.729 -0.4653 -1.8652  0.1778
  518MOL0     H71435   7.065   4.026   9.697 -0.9467 -0.1809 -0.1062
  518MOL0     H71436   7.137   4.303   9.707  0.0568 -0.4320  0.9964
  518MOL0     H71437   7.263   4.175   9.648  0.3856  0.2339  2.6920
  518MOL0     H71438   7.125   4.151   9.440  1.5134  2.2684 -2.3134
  518MOL0     H71439   6.998   4.229   9.527  0.2578  0.8935  0.0798
  518MOL0     H71440   7.204   4.430   9.530  1.0643  0.9801 -1.0479
  518MOL0     H71441   7.258   4.339   9.396 -0.6342  1.1225 -1.8421
  518MOL0     H71442   6.902   4.578   9.249  1.1113 -2.0378  0.4068
  518MOL0     H71443   6.821   4.748   9.124 -0.2964 -0.6314 -1.6090
  518MOL0     H71444   6.899   4.748   8.969 -3.8830 -1.7969  0.9683
  518MOL0     H71445   6.909   4.887   9.078 -2.1925  0.9070 -2.1738
  518MOL0     H71446   7.350   5.043   8.852 -1.7225  2.0968  1.4350
  518MOL0     H71447   7.327   5.218   8.681 -0.3466  2.6340  1.2559
  518MOL0     H71448   7.251   5.370   8.544  1.4463  3.5025 -2.9977
  518MOL0     H71449   7.154   5.409   8.415 -0.1916  2.9250 -0.0500
  518MOL0     H71450   7.015   5.396   8.686 -0.2204 -2.2004 -1.7485
  518MOL0     H71451   7.086   5.550   8.639 -4.3994  0.3082  3.7142
  518MOL0     H71452   6.974   5.537   8.426  1.2224 -1.7763  0.1674
  518MOL0     H71453   6.860   5.567   8.568 -0.1775 -0.3113  1.6457
  518MOL0     H71454   6.785   5.354   8.579 -2.0840  0.7067 -0.4284
  518MOL0     H71455   6.879   5.291   8.452 -0.3135 -1.3518  1.8717
  518MOL0     H71456   6.673   5.516   8.423  0.1743 -1.0793  2.2312
  518MOL0     H71457   6.777   5.464   8.292 -1.1794 -2.1279 -0.9941
  518MOL0     H71458   6.541   5.371   8.303  0.6055  1.6235  1.8638
  518MOL0     H71459   6.560   5.299   8.466  0.9565 -4.6614  0.5947
  518MOL0     H71460   6.742   5.153   8.380 -1.5761 -0.2393  2.0529
  518MOL0     H71461   6.707   5.211   8.214  0.8118  3.2565  0.2814
  518MOL0     H71462   6.477   5.163   8.213 -2.4196 -0.3721  2.0092
  518MOL0     H71463   6.491   5.118   8.385  1.4856  1.0718 -0.4350
  518MOL0     H71464   6.930   5.075   8.583  1.4424  3.4090 -2.8915
  518MOL0     H71465   6.964   4.886   8.755 -1.1373  0.2289 -1.1832
  518MOL0     H71466   7.363   4.700   9.133 -0.3643  1.6573  1.9972
  518MOL0     H71467   7.320   4.521   9.306  1.2038 -0.0100 -2.2265
  518MOL0     H71468   8.207   4.005  10.500  0.1895 -1.0352  0.3900
  518MOL0     H71469   8.403   4.166  10.481  1.8819 -0.3621  0.3604
  518MOL0     H71470   8.872   4.244  10.627  0.7401 -1.2624 -0.4080
  518MOL0     H71471   9.100   4.355  10.589  1.2942  0.8962 -1.3311
  518MOL0     H71472   9.226   4.400  10.179 -1.4903  0.3307 -0.7588
  518MOL0     H71473   9.144   4.547  10.237 -1.7783 -1.6947  0.0663
  518MOL0     H71474   9.388   4.615  10.201  0.8780 -1.8233 -0.6706
  518MOL0     H71475   9.442   4.479  10.276  0.4636  0.9421 -0.9624
  518MOL0     H71476   9.260   4.659  10.450 -0.2708 -2.1652 -0.0887
  518MOL0     H71477   9.371   4.548  10.506 -0.7734 -1.3526  0.1874
  518MOL0     H71478   9.443   4.800  10.521 -2.5753 -0.6327  0.2536
  518MOL0     H71479   9.410   4.816  10.348 -3.4494  2.3808  3.7089
  518MOL0     H71480   9.807   4.671  10.369 -0.9158  0.2418 -1.8938
  518MOL0     H71481   9.020   4.361  10.178 -0.6670 -0.7273 -0.7555
  518MOL0     H71482   8.790   4.376  10.132  0.7835  0.4788  1.8467
  518MOL0     H71483   8.734   4.198  10.139 -3.0636 -0.9697  1.2135
  518MOL0     H71484   8.647   4.320  10.212 -0.5375 -0.2668 -3.0189
  519MOL0     O71485   4.376   0.428   7.520 -0.1032  1.4871  0.1473
  519MOL0     C71486   4.308   0.428   7.418 -0.4177  0.5492  0.4492
  519MOL0     O71487   4.252   0.312   7.369  0.5550 -0.4861  0.8272
  519MOL0     C71488   4.242   0.202   7.444  0.1204 -0.3751  0.0316
  519MOL0     C71489   4.130   0.186   7.521  0.1116  0.5507 -0.5755
  519MOL0     C71490   4.136   0.092   7.621  0.2837 -0.5161  0.5104
  519MOL0     C71491   4.247   0.008   7.633  0.4954 -0.0175  0.3140
  519MOL0     O71492   4.240  -0.086   7.737  0.5644  0.3555 -0.2931
  519MOL0     C71493   4.310  -0.212   7.722  0.1319  0.4899  0.3273
  519MOL0     C71494   4.231  -0.333   7.773 -0.3442  0.2798 -0.6892
  519MOL0     C71495   4.129  -0.294   7.885 -0.2175 -0.2193 -0.1575
  519MOL0     C71496   4.129  -0.404   7.994  0.1339 -1.1542  1.1209
  519MOL0     C71497   4.033  -0.374   8.114  0.3478  0.5859 -0.2661
  519MOL0     C71498   4.044  -0.227   8.172  0.1402 -0.5683 -0.3758
  519MOL0     C71499   3.937  -0.142   8.104 -0.8037 -0.7958 -0.2341
  519MOL0     C71500   3.948   0.001   8.163  0.3711 -0.4933 -0.0548
  519MOL0     N71501   4.080   0.059   8.142  0.5169  1.1911 -0.1674
  519MOL0     C71502   4.143   0.093   8.026 -0.3112 -0.4878  0.3472
  519MOL0     C71503   4.264   0.135   8.055  0.6759  0.2407  0.8391
  519MOL0     C71504   4.365   0.189   7.955 -0.7403  0.4155 -0.2167
  519MOL0     C71505   4.336   0.330   7.900  0.1907 -0.0850  0.3011
  519MOL0     C71506   4.318   0.447   8.003 -0.4565  0.1897  0.5675
  519MOL0     C71507   4.437   0.490   8.077 -0.0986  0.2013 -0.3925
  519MOL0     O71508   4.404   0.564   8.199  0.8101 -0.0043 -0.0176
  519MOL0     C71509   4.416   0.519   8.328 -0.2148 -0.3820 -0.7846
  519MOL0     C71510   4.412   0.384   8.365 -0.9208 -0.6441 -0.0458
  519MOL0     C71511   4.407   0.335   8.504 -0.1846 -0.0805 -0.3560
  519MOL0     C71512   4.399   0.186   8.521 -0.7215 -0.0665 -0.2988
  519MOL0     C71513   4.406   0.439   8.604  0.3650 -0.7523  0.3757
  519MOL0     C71514   4.410   0.411   8.749  0.3473  1.1043 -0.0843
  519MOL0     O71515   4.350   0.509   8.833 -0.3129 -0.3251  0.6991
  519MOL0     C71516   4.326   0.470   8.968 -0.9909  0.1651  0.4501
  519MOL0     C71517   4.378   0.548   9.079  0.0646 -1.7401 -0.3465
  519MOL0     C71518   4.344   0.519   9.214  1.7976  0.1426  0.3400
  519MOL0     C71519   4.282   0.399   9.241 -1.4625  0.3589 -1.1695
  519MOL0     O71520   4.273   0.344   9.367 -0.1831  0.3481 -0.7501
  519MOL0     C71521   4.382   0.284   9.433 -0.5095  0.4546  0.5818
  519MOL0     C71522   4.398   0.341   9.572  0.2024  0.5701  0.4729
  519MOL0     C71523   4.287   0.337   9.673 -0.1735  0.4054  1.6479
  519MOL0     C71524   4.308   0.236   9.779  0.6223 -0.2382 -0.3842
  519MOL0     C71525   4.180   0.178   9.837 -1.2652  0.3899  0.8696
  519MOL0     C71526   4.211   0.039   9.907 -0.3919  0.2022 -0.2005
  519MOL0     C71527   4.297   0.060  10.040  1.0152  0.9654  0.5486
  519MOL0     C71528   4.224   0.119  10.151 -0.3234 -0.3777  0.0971
  519MOL0    Cl71529   4.301   0.078  10.299 -0.1770  0.5036  0.3655
  519MOL0     C71530   4.230   0.319   9.139  0.2681  0.3776 -0.1235
  519MOL0     C71531   4.252   0.351   9.005 -0.5491  0.9039  0.5171
  519MOL0     O71532   4.472   0.310   8.789 -0.1054  0.8460  0.0824
  519MOL0     C71533   4.403   0.573   8.564 -0.3160 -0.7942 -0.8775
  519MOL0     C71534   4.399   0.604   8.433 -0.4752  0.2504  0.6349
  519MOL0     N71535   4.281   0.142   8.195  0.0456  0.3501 -0.3065
  519MOL0     N71536   4.162   0.090   8.244  0.2093 -0.2581  0.2258
  519MOL0     C71537   4.358   0.024   7.545 -0.3913 -0.8105 -0.8488
  519MOL0     C71538   4.357   0.126   7.444  0.2556 -0.0057  0.0759
  519MOL0     C71539   4.308   0.552   7.333  0.7469  0.5548  0.8907
  519MOL0     C71540   4.303   0.529   7.195 -1.0477 -0.1800 -0.1468
  519MOL0     C71541   4.292   0.640   7.102  1.3488  0.5499 -0.4603
  519MOL0     C71542   4.275   0.776   7.152  0.6422  0.6629 -0.2532
  519MOL0     O71543   4.273   0.883   7.082 -0.4817 -0.1959  0.3987
  519MOL0     C71544   4.236   0.863   6.950 -0.8992  0.5337 -0.3865
  519MOL0     C71545   4.236   1.005   6.880  0.1746  0.6290  0.3276
  519MOL0     C71546   4.217   0.979   6.727  0.4382  0.3237  0.5023
  519MOL0     C71547   4.254   1.111   6.651  0.5397 -0.0303 -0.1081
  519MOL0     C71548   4.210   1.096   6.507 -1.0975 -0.3284 -0.3207
  519MOL0     C71549   4.195   1.093   6.389 -0.1675 -0.0204  0.7533
  519MOL0     C71550   4.262   0.789   7.292 -0.2568 -0.8150  0.4735
  519MOL0     C71551   4.274   0.681   7.383 -0.7265 -0.1491  0.3843
  519MOL0     C71552   4.249   0.709   7.526  0.1504  0.8564 -0.8275
  519MOL0     H71553   4.038   0.240   7.502  0.0721  0.8932  0.5081
  519MOL0     H71554   4.055   0.068   7.689  0.9148 -1.2301  1.0394
  519MOL0     H71555   4.402  -0.203   7.781  0.1646 -1.6852  0.6906
  519MOL0     H71556   4.329  -0.222   7.615 -1.4930  1.1862 -0.0578
  519MOL0     H71557   4.174  -0.388   7.697 -1.2538  1.3241 -0.8002
  519MOL0     H71558   4.296  -0.408   7.817 -1.2552  0.1579  0.4945
  519MOL0     H71559   4.152  -0.198   7.932 -3.1543  0.9332 -0.8518
  519MOL0     H71560   4.030  -0.284   7.841 -1.0459 -2.2601  1.1030
  519MOL0     H71561   4.092  -0.499   7.956  1.9396 -0.1738 -3.8813
  519MOL0     H71562   4.236  -0.415   8.015  1.7747  0.3177 -4.6669
  519MOL0     H71563   4.042  -0.446   8.196 -0.2625  3.5639  2.6438
  519MOL0     H71564   3.933  -0.397   8.078  0.5559  1.2170 -1.2748
  519MOL0     H71565   4.030  -0.231   8.281  1.8384 -0.3805 -0.1290
  519MOL0     H71566   4.146  -0.193   8.158  0.1275 -0.0500  0.6866
  519MOL0     H71567   3.835  -0.174   8.128 -1.2426  0.2486 -0.6867
  519MOL0     H71568   3.939  -0.145   7.995 -2.2783 -1.3802 -0.2581
  519MOL0     H71569   3.871   0.068   8.125  2.6483  1.1821 -1.9704
  519MOL0     H71570   3.930   0.001   8.271  1.6805  3.5679  0.3255
  519MOL0     H71571   4.114   0.079   7.923 -0.1549  1.0742  0.0669
  519MOL0     H71572   4.385   0.115   7.877 -0.9192  2.1886 -2.0296
  519MOL0     H71573   4.464   0.206   7.999  1.2744  1.1256 -4.4555
  519MOL0     H71574   4.421   0.353   7.835  0.2658  5.4655  1.9019
  519MOL0     H71575   4.250   0.318   7.833 -0.3709  0.7473  0.8555
  519MOL0     H71576   4.292   0.541   7.954 -1.1145 -0.4263 -0.2853
  519MOL0     H71577   4.240   0.415   8.073 -0.4784  3.8472  2.4512
  519MOL0     H71578   4.494   0.401   8.101 -0.8371  0.1491  1.3669
  519MOL0     H71579   4.496   0.555   8.011 -0.5000  2.6611  1.4883
  519MOL0     H71580   4.425   0.306   8.292  0.4337 -1.6292  1.1852
  519MOL0     H71581   4.382   0.151   8.623 -2.9314 -1.7536 -1.1481
  519MOL0     H71582   4.495   0.137   8.504 -0.6470 -0.4121  0.9859
  519MOL0     H71583   4.322   0.150   8.452  2.2576  0.7040 -4.3682
  519MOL0     H71584   4.443   0.633   9.056  1.4880 -3.0473 -1.3930
  519MOL0     H71585   4.376   0.594   9.285 -0.1825 -0.0226  1.4592
  519MOL0     H71586   4.344   0.182   9.438  0.1126  0.2650  1.5831
  519MOL0     H71587   4.477   0.267   9.382 -0.6625 -0.3496  0.5569
  519MOL0     H71588   4.489   0.298   9.614  1.7411  1.5270 -1.6928
  519MOL0     H71589   4.419   0.446   9.548  0.6276  0.5723  0.8495
  519MOL0     H71590   4.193   0.330   9.618  0.8162 -0.2640 -0.0567
  519MOL0     H71591   4.278   0.437   9.714 -3.3473  1.2484 -0.7599
  519MOL0     H71592   4.378   0.269   9.856 -0.3950 -1.0300  0.9261
  519MOL0     H71593   4.357   0.155   9.725  1.4681  1.0703 -1.6319
  519MOL0     H71594   4.148   0.248   9.915  0.0280  0.8308  1.0255
  519MOL0     H71595   4.098   0.167   9.766  1.9627 -0.7338 -3.0924
  519MOL0     H71596   4.253  -0.035   9.838 -2.4787 -0.5252 -0.7673
  519MOL0     H71597   4.114  -0.010   9.913 -0.4925 -0.2085 -3.3810
  519MOL0     H71598   4.390   0.115  10.020  0.2552  1.4541 -1.9832
  519MOL0     H71599   4.324  -0.042  10.069 -1.3454 -0.1565 -0.9191
  519MOL0     H71600   4.124   0.075  10.151 -0.6006  0.2442 -0.1940
  519MOL0     H71601   4.203   0.226  10.150  3.6816  0.8353  4.9226
  519MOL0     H71602   4.180   0.232   9.180  1.7188 -0.1351  0.6495
  519MOL0     H71603   4.191   0.294   8.936 -0.4303 -1.0275  1.9187
  519MOL0     H71604   4.405   0.649   8.641 -1.2085 -2.7895  1.2137
  519MOL0     H71605   4.388   0.707   8.398 -1.2157  0.2164  0.7556
  519MOL0     H71606   4.459  -0.014   7.563  0.0075  0.4046 -0.4309
  519MOL0     H71607   4.437   0.153   7.376 -1.1294  0.3393 -1.4593
  519MOL0     H71608   4.336   0.432   7.160 -0.7298  0.1772 -0.8479
  519MOL0     H71609   4.303   0.613   6.997  4.2981 -2.2478  0.3926
  519MOL0     H71610   4.306   0.805   6.888 -0.7127 -0.0227  0.3358
  519MOL0     H71611   4.139   0.813   6.945 -0.7104  0.2831 -2.0502
  519MOL0     H71612   4.335   1.049   6.890  0.2573  0.5415 -0.1214
  519MOL0     H71613   4.180   1.087   6.926  1.4703  1.6408  0.1330
  519MOL0     H71614   4.282   0.905   6.679 -0.6246  1.2122 -2.5581
  519MOL0     H71615   4.113   0.949   6.712  0.4573  0.4157  0.1771
  519MOL0     H71616   4.362   1.124   6.648  0.4388  0.7710 -0.5641
  519MOL0     H71617   4.213   1.203   6.694 -0.2235 -0.8271  0.9238
  519MOL0     H71618   4.197   1.097   6.282  1.9805 -0.5279  0.7363
  519MOL0     H71619   4.255   0.893   7.320  2.0267 -0.8202  1.2608
  519MOL0     H71620   4.171   0.644   7.567  0.1532  2.4652  2.0163
  519MOL0     H71621   4.334   0.697   7.594 -0.7267  1.2073  0.3671
  519MOL0     H71622   4.209   0.808   7.554 -1.2469  0.4280 -1.2142
  520MOL0     O71623   7.794   0.804   8.115 -0.3485  0.6590 -0.2294
  520MOL0     C71624   7.916   0.794   8.107 -0.3664  0.6092 -0.0165
  520MOL0     O71625   7.991   0.692   8.162  0.6872  0.4148 -0.5432
  520MOL0     C71626   7.937   0.637   8.270 -0.3307  0.6345 -0.6866
  520MOL0     C71627   7.816   0.566   8.263 -0.1577  0.3098  0.0433
  520MOL0     C71628   7.766   0.498   8.376 -0.0162 -0.8964  0.3190
  520MOL0     C71629   7.845   0.494   8.486  0.0368 -0.0487 -0.4206
  520MOL0     O71630   7.791   0.405   8.574  1.2122 -0.0117 -0.6699
  520MOL0     C71631   7.782   0.439   8.706 -0.8280 -0.4367 -0.7266
  520MOL0     C71632   7.876   0.350   8.782  0.2648  0.1508  0.0699
  520MOL0     C71633   7.903   0.392   8.929  0.6103  0.1918 -0.2064
  520MOL0     C71634   7.766   0.386   9.012 -0.5252  0.1962  0.5329
  520MOL0     C71635   7.795   0.431   9.154 -0.1377  0.2986 -1.1524
  520MOL0     C71636   7.675   0.426   9.251  0.0753 -0.6821 -0.3832
  520MOL0     C71637   7.608   0.302   9.278 -0.7775  0.2389 -0.3172
  520MOL0     C71638   7.489   0.331   9.362  0.0996 -0.0320 -0.4404
  520MOL0     N71639   7.366   0.254   9.317  0.1946 -0.0467  0.5696
  520MOL0     C71640   7.287   0.179   9.405 -0.8565 -0.5801 -0.0865
  520MOL0     C71641   7.187   0.130   9.326  1.2408  0.3162  0.4204
  520MOL0     C71642   7.067   0.042   9.378 -0.1601  0.3294  0.2407
  520MOL0     C71643   6.978   0.143   9.445 -0.2743  0.8912  0.0993
  520MOL0     C71644   7.030   0.250   9.543  0.8352 -0.5691 -0.2862
  520MOL0     C71645   7.095   0.194   9.678 -0.3279 -0.2316  0.1794
  520MOL0     O71646   7.017   0.093   9.738 -0.0977  0.0817 -0.5093
  520MOL0     C71647   6.892   0.130   9.790 -0.2160 -0.6703 -0.4924
  520MOL0     C71648   6.874   0.248   9.868  0.4718  0.6411  0.2450
  520MOL0     C71649   6.750   0.284   9.914  0.3911  0.3708  0.0183
  520MOL0     C71650   6.745   0.400  10.011 -0.0936  0.5454  0.1720
  520MOL0     C71651   6.634   0.209   9.904  0.3912  0.3062 -0.7357
  520MOL0     C71652   6.495   0.244   9.959 -0.4330  1.0804 -0.3908
  520MOL0     O71653   6.419   0.135   9.976 -0.1774 -0.5956 -0.3966
  520MOL0     C71654   6.290   0.137  10.038  0.5062  0.2266  0.3433
  520MOL0     C71655   6.185   0.068   9.979  0.7511  0.0556  0.4039
  520MOL0     C71656   6.066   0.060  10.044 -0.2762  0.1205  0.4454
  520MOL0     C71657   6.049   0.110  10.178 -0.3898 -0.7614  0.2547
  520MOL0     O71658   5.928   0.120  10.241 -0.4841 -0.8741 -0.8511
  520MOL0     C71659   5.863   0.253  10.248  0.0982 -0.8944 -0.3309
  520MOL0     C71660   5.878   0.290  10.400 -0.0957 -0.2151  0.6892
  520MOL0     C71661   5.785   0.387  10.470  0.0324  0.5447  0.3376
  520MOL0     C71662   5.828   0.405  10.615 -0.1337  0.1574 -0.7359
  520MOL0     C71663   5.705   0.461  10.693  0.1159 -1.0548 -0.0991
  520MOL0     C71664   5.736   0.516  10.829 -0.5302 -0.3579  0.4860
  520MOL0     C71665   5.614   0.543  10.907 -0.4130  0.5088 -0.2975
  520MOL0     C71666   5.554   0.677  10.872  0.1159 -0.8807 -0.1132
  520MOL0    Cl71667   5.394   0.696  10.964 -0.5172 -0.4590 -0.3899
  520MOL0     C71668   6.161   0.176  10.246  0.3138  0.4609 -0.0716
  520MOL0     C71669   6.268   0.197  10.162 -0.2168 -0.9087 -0.1783
  520MOL0     O71670   6.459   0.360   9.981 -0.3693  0.5238  0.0003
  520MOL0     C71671   6.651   0.098   9.828 -1.2281  0.5332 -0.2379
  520MOL0     C71672   6.777   0.055   9.774 -0.2991  0.4155 -0.4040
  520MOL0     N71673   7.199   0.187   9.200 -0.0572  0.4498 -1.0508
  520MOL0     N71674   7.304   0.260   9.197  0.7868 -0.9843 -0.1033
  520MOL0     C71675   7.976   0.551   8.490  0.6210  0.4748 -0.3734
  520MOL0     C71676   8.024   0.614   8.377  0.7115  1.5369 -0.5066
  520MOL0     C71677   7.984   0.892   8.018  0.6068 -0.1703  1.1366
  520MOL0     C71678   7.939   0.904   7.888  0.3120 -0.0711  0.7479
  520MOL0     C71679   8.002   0.989   7.795  0.2369 -0.5016  0.2493
  520MOL0     C71680   8.092   1.079   7.841 -0.0218 -0.2549 -0.7018
  520MOL0     O71681   8.138   1.181   7.768 -0.4123 -0.1193 -0.8581
  520MOL0     C71682   8.281   1.213   7.766  0.6436 -0.2915 -0.8587
  520MOL0     C71683   8.351   1.170   7.635 -0.1121 -0.4399 -0.2719
  520MOL0     C71684   8.493   1.215   7.630  0.3536  0.7968  0.4426
  520MOL0     C71685   8.561   1.170   7.504  0.1910  0.7530 -0.2080
  520MOL0     C71686   8.682   1.251   7.472 -1.1921 -0.1955 -0.8000
  520MOL0     C71687   8.778   1.311   7.438  0.4672 -0.9644  0.2746
  520MOL0     C71688   8.136   1.077   7.973  0.9005 -0.0796 -1.5013
  520MOL0     C71689   8.083   0.983   8.063  0.1262 -0.0459 -0.8879
  520MOL0     C71690   8.109   0.994   8.212  0.4057  0.0485  0.3416
  520MOL0     H71691   7.754   0.587   8.177  1.6084  2.0761 -0.8645
  520MOL0     H71692   7.664   0.461   8.380 -0.8164  1.2143  2.3814
  520MOL0     H71693   7.685   0.414   8.749 -0.7987 -3.4383 -2.1073
  520MOL0     H71694   7.810   0.543   8.723  2.7668 -1.4581  0.5041
  520MOL0     H71695   7.837   0.249   8.773 -0.1465  0.3678 -0.6971
  520MOL0     H71696   7.968   0.341   8.724 -0.1542 -4.9382 -0.1959
  520MOL0     H71697   7.973   0.321   8.974 -0.9119 -0.8470  0.6309
  520MOL0     H71698   7.963   0.483   8.934 -0.5226  1.0271 -1.1911
  520MOL0     H71699   7.688   0.449   8.969  0.4895 -0.6955 -2.8836
  520MOL0     H71700   7.722   0.286   9.006 -0.6681  0.0799  2.6279
  520MOL0     H71701   7.838   0.532   9.150 -0.4335  0.5994  1.3855
  520MOL0     H71702   7.877   0.369   9.189 -3.0415 -2.7944  0.7945
  520MOL0     H71703   7.716   0.482   9.336 -0.4948 -0.3060 -0.3503
  520MOL0     H71704   7.600   0.499   9.217 -0.4651 -0.0224  2.0004
  520MOL0     H71705   7.684   0.253   9.340  0.1954 -0.7548 -2.2018
  520MOL0     H71706   7.577   0.254   9.185 -2.7575  1.3739 -0.2792
  520MOL0     H71707   7.499   0.285   9.460 -1.4676  0.3011 -0.0960
  520MOL0     H71708   7.481   0.440   9.374  1.8282  0.1347 -0.5200
  520MOL0     H71709   7.296   0.174   9.513 -1.1386  2.0256  0.1213
  520MOL0     H71710   7.098  -0.040   9.443 -2.6877 -0.0929  1.0131
  520MOL0     H71711   7.020  -0.002   9.289 -5.3431  0.9853  2.3331
  520MOL0     H71712   6.914   0.195   9.373 -1.9834  1.4722  1.9648
  520MOL0     H71713   6.914   0.074   9.500  2.8423 -2.5513 -0.1643
  520MOL0     H71714   7.098   0.327   9.503  3.0543 -2.1715  0.2117
  520MOL0     H71715   6.932   0.294   9.564  0.4237 -0.4357 -2.2596
  520MOL0     H71716   7.188   0.138   9.665  0.3672  0.5211  1.5636
  520MOL0     H71717   7.121   0.278   9.743  0.7006 -0.3664 -0.0353
  520MOL0     H71718   6.967   0.301   9.882  2.1231 -1.8627 -0.5848
  520MOL0     H71719   6.845   0.422  10.047 -0.8996  2.2185  1.5308
  520MOL0     H71720   6.679   0.379  10.096 -2.4620  1.9472 -1.1789
  520MOL0     H71721   6.708   0.490   9.962 -0.7300  0.1783 -0.0488
  520MOL0     H71722   6.199   0.021   9.882 -2.5372  1.2496 -0.7912
  520MOL0     H71723   5.987   0.024   9.978  1.9652  1.2078 -3.0862
  520MOL0     H71724   5.921   0.317  10.180  2.6315 -5.1036 -2.5694
  520MOL0     H71725   5.757   0.244  10.222 -0.1854  0.7634  0.1315
  520MOL0     H71726   5.875   0.191  10.446 -1.9667 -0.9882 -0.9659
  520MOL0     H71727   5.978   0.330  10.417  0.5817 -1.3034 -0.5566
  520MOL0     H71728   5.692   0.330  10.475  0.7110 -0.9054 -1.8633
  520MOL0     H71729   5.765   0.475  10.409  0.4294 -0.4412 -1.2815
  520MOL0     H71730   5.900   0.485  10.631  0.5510 -0.8683  1.6168
  520MOL0     H71731   5.869   0.313  10.659  1.1869  0.2626 -1.6820
  520MOL0     H71732   5.651   0.538  10.639  2.0317  2.5285  2.6150
  520MOL0     H71733   5.641   0.373  10.704  0.2426 -1.4678 -2.3240
  520MOL0     H71734   5.802   0.603  10.823 -1.4400  0.5360  2.6288
  520MOL0     H71735   5.792   0.434  10.876  1.2505  1.6862  2.1375
  520MOL0     H71736   5.647   0.533  11.011 -2.3231  3.9219  0.8078
  520MOL0     H71737   5.540   0.463  10.907  0.8148 -0.7597  2.3159
  520MOL0     H71738   5.527   0.674  10.766  0.4356 -1.9018 -0.1756
  520MOL0     H71739   5.620   0.764  10.883 -0.4530 -0.5088  0.4051
  520MOL0     H71740   6.169   0.220  10.344  3.2782  1.4170 -0.6482
  520MOL0     H71741   6.355   0.254  10.191  0.5075 -1.0924 -1.9258
  520MOL0     H71742   6.558   0.044   9.814 -2.7777  0.5892  6.5120
  520MOL0     H71743   6.784  -0.033   9.711 -1.4724  1.0152 -1.4235
  520MOL0     H71744   8.028   0.549   8.585 -2.0194 -1.2248  1.1627
  520MOL0     H71745   8.123   0.650   8.350  0.8024  0.3293 -1.8860
  520MOL0     H71746   7.871   0.827   7.850  1.2860 -0.1538 -0.9293
  520MOL0     H71747   7.973   0.997   7.691 -1.1036 -0.0918  0.6383
  520MOL0     H71748   8.285   1.320   7.784 -1.7603  0.0145 -1.7371
  520MOL0     H71749   8.335   1.148   7.835  3.8541  0.8191 -2.1559
  520MOL0     H71750   8.294   1.193   7.545  0.0016 -0.6644 -0.4027
  520MOL0     H71751   8.345   1.061   7.632  0.8246 -0.6642  2.8016
  520MOL0     H71752   8.490   1.324   7.631  2.5700  1.0188 -2.4833
  520MOL0     H71753   8.540   1.189   7.725 -0.4812  1.1987  0.9834
  520MOL0     H71754   8.487   1.177   7.424  0.0285 -1.7926 -0.3501
  520MOL0     H71755   8.597   1.068   7.521  2.6792  1.1383 -2.4271
  520MOL0     H71756   8.872   1.359   7.421 -0.3469  0.1350 -1.4850
  520MOL0     H71757   8.206   1.149   8.013  0.6379 -1.0276  0.7900
  520MOL0     H71758   8.022   1.008   8.276  0.3101 -2.7061  0.9332
  520MOL0     H71759   8.156   0.897   8.235 -3.2425 -1.8618  0.3864
  520MOL0     H71760   8.180   1.077   8.218  1.0778 -0.5164  0.4879
  521MOL0     O71761   7.311  10.182   9.743 -0.4127 -0.3912  0.4669
  521MOL0     C71762   7.351  10.108   9.661 -0.6221  0.6933  0.5993
  521MOL0     O71763   7.285  10.078   9.544 -0.1522 -0.0237 -0.0627
  521MOL0     C71764   7.197  10.159   9.482  0.1130  1.3738 -1.0085
  521MOL0     C71765   7.116  10.096   9.385  0.0845 -0.2581  0.1237
  521MOL0     C71766   7.016  10.168   9.319 -0.0319  0.3669  0.3377
  521MOL0     C71767   6.992  10.300   9.326 -0.0045 -0.2193  0.2566
  521MOL0     O71768   6.894  10.363   9.256  0.2016  0.5087 -0.6316
  521MOL0     C71769   6.913  10.489   9.198  0.6353 -0.5742  1.6608
  521MOL0     C71770   6.780  10.559   9.159  0.2542  0.1818  0.1166
  521MOL0     C71771   6.690  10.568   9.275  0.7181  0.3868 -0.3686
  521MOL0     C71772   6.565  10.632   9.214  0.9891  0.1691  0.1761
  521MOL0     C71773   6.443  10.658   9.311  0.6173  0.6497 -0.1934
  521MOL0     C71774   6.343  10.775   9.270  0.2918 -0.0997  0.2479
  521MOL0     C71775   6.252  10.733   9.150 -0.5270 -0.3087 -0.2847
  521MOL0     C71776   6.183  10.866   9.112  0.6281 -0.0671  0.5217
  521MOL0     N71777   6.114  10.851   8.976 -0.2653  0.1268  1.2740
  521MOL0     C71778   5.981  10.834   8.959  0.3022 -0.4399  0.1457
  521MOL0     C71779   5.965  10.820   8.822 -0.4758 -0.8907 -0.1126
  521MOL0     C71780   5.842  10.779   8.755  0.2219 -0.7091 -0.0115
  521MOL0     C71781   5.755  10.684   8.835 -0.3583  0.2959 -0.1980
  521MOL0     C71782   5.634  10.634   8.752 -0.1795 -0.4839 -0.0041
  521MOL0     C71783   5.657  10.522   8.640  0.0668 -0.5399 -0.2063
  521MOL0     O71784   5.533  10.500   8.574 -0.3500  0.6910 -0.2042
  521MOL0     C71785   5.537  10.487   8.435 -0.2666  0.4001 -0.7720
  521MOL0     C71786   5.549  10.598   8.357  0.2585  0.3409 -0.4488
  521MOL0     C71787   5.564  10.591   8.225  0.1258  0.2373  0.2912
  521MOL0     C71788   5.597  10.719   8.143  0.4081  0.8036 -0.4780
  521MOL0     C71789   5.565  10.464   8.163  0.5775 -0.2947 -0.3693
  521MOL0     C71790   5.608  10.440   8.029 -0.4381  0.7823  0.2372
  521MOL0     O71791   5.701  10.342   8.016 -0.3818  0.7741 -0.2707
  521MOL0     C71792   5.750  10.318   7.889 -0.2311  0.1805 -0.4445
  521MOL0     C71793   5.868  10.378   7.846 -0.9031  0.3768 -0.1983
  521MOL0     C71794   5.903  10.367   7.716  0.2574  0.4643  0.7865
  521MOL0     C71795   5.814  10.305   7.623 -0.8936 -0.5807 -0.7107
  521MOL0     O71796   5.832  10.289   7.487 -0.0719  0.3339  0.5511
  521MOL0     C71797   5.914  10.375   7.409 -0.4829  0.0313 -0.3399
  521MOL0     C71798   6.053  10.320   7.373 -0.4609  0.6229 -0.3731
  521MOL0     C71799   6.056  10.185   7.297  0.7359 -0.2400 -0.4517
  521MOL0     C71800   6.198  10.118   7.300  0.8500  0.1325 -0.2987
  521MOL0     C71801   6.205   9.967   7.281  0.0129  0.1808  0.3536
  521MOL0     C71802   6.147   9.916   7.143  0.0540 -0.5773 -0.7345
  521MOL0     C71803   6.162   9.766   7.127  0.4953 -0.2070  1.1999
  521MOL0     C71804   6.155   9.717   6.979 -0.3649 -0.0851 -0.0377
  521MOL0    Cl71805   6.288   9.796   6.890  0.0502 -0.2893 -0.4793
  521MOL0     C71806   5.702  10.246   7.672  0.1092  0.2547  0.4387
  521MOL0     C71807   5.675  10.240   7.805 -0.1395 -0.0594 -0.3112
  521MOL0     O71808   5.566  10.504   7.940  0.2276 -0.4513  0.2158
  521MOL0     C71809   5.539  10.349   8.239  0.0899 -0.4624  0.0909
  521MOL0     C71810   5.525  10.356   8.383  0.0957 -0.3375  0.1840
  521MOL0     N71811   6.087  10.833   8.758  0.3242 -0.2973  0.9391
  521MOL0     N71812   6.171  10.856   8.855 -0.4422  0.1633  0.1334
  521MOL0     C71813   7.076  10.362   9.419  0.1991  0.6125 -0.1084
  521MOL0     C71814   7.177  10.297   9.493  0.3522  0.1867  0.3600
  521MOL0     C71815   7.482  10.039   9.691  0.4336  0.6879 -0.9105
  521MOL0     C71816   7.509  10.005   9.832  0.4478  0.4167  0.5491
  521MOL0     C71817   7.621   9.930   9.868 -0.1031  0.0775 -0.3954
  521MOL0     C71818   7.706   9.880   9.769 -0.6138  0.1124 -0.2977
  521MOL0     O71819   7.817   9.798   9.793  0.1383  0.0315  0.3957
  521MOL0     C71820   7.863   9.785   9.923 -0.0430  0.3338  0.0686
  521MOL0     C71821   7.975   9.673   9.938  0.3016 -0.0833 -0.0962
  521MOL0     C71822   8.107   9.714   9.866  0.4478  0.2267  0.1007
  521MOL0     C71823   8.225   9.614   9.909  0.4475 -0.0565  0.2486
  521MOL0     C71824   8.337   9.633   9.818 -0.8644 -0.3607  0.0968
  521MOL0     C71825   8.427   9.662   9.743 -0.5005 -0.4270 -0.3735
  521MOL0     C71826   7.685   9.916   9.638 -0.1599 -0.3655  0.5917
  521MOL0     C71827   7.574  10.007   9.598 -1.1139 -0.0789 -0.3553
  521MOL0     C71828   7.556  10.049   9.464 -0.2547 -0.1684 -0.6933
  521MOL0     H71829   7.118   9.989   9.371 -0.9881 -0.4245  1.1504
  521MOL0     H71830   6.946  10.116   9.254  1.1110  0.6078 -1.1549
  521MOL0     H71831   6.979  10.473   9.112 -0.4403  0.4110  0.5972
  521MOL0     H71832   6.960  10.562   9.264  0.6881  0.6951  0.2898
  521MOL0     H71833   6.809  10.662   9.137 -0.5743  0.4144  0.0926
  521MOL0     H71834   6.740  10.497   9.078  0.3714 -0.3198  0.4340
  521MOL0     H71835   6.656  10.477   9.326 -2.2157  1.4645 -0.1694
  521MOL0     H71836   6.738  10.635   9.347 -0.0986  0.2237  0.3383
  521MOL0     H71837   6.594  10.734   9.186 -0.3531  0.2620 -1.0502
  521MOL0     H71838   6.537  10.573   9.126 -6.3624 -0.0582  2.0261
  521MOL0     H71839   6.481  10.673   9.412 -2.1946 -1.2024  1.2609
  521MOL0     H71840   6.384  10.567   9.321 -1.3715  2.1133  2.5219
  521MOL0     H71841   6.276  10.801   9.352 -0.5430  3.8069 -1.4574
  521MOL0     H71842   6.403  10.862   9.243  1.2401 -0.6813  0.4511
  521MOL0     H71843   6.194  10.641   9.157  0.6689 -1.2152 -1.6967
  521MOL0     H71844   6.317  10.707   9.065  1.9198 -1.4930  1.7934
  521MOL0     H71845   6.103  10.906   9.176 -2.8865 -4.2418 -0.8035
  521MOL0     H71846   6.261  10.943   9.107  2.3503 -1.7748 -0.1728
  521MOL0     H71847   5.905  10.814   9.034 -1.5395  1.4099 -1.1213
  521MOL0     H71848   5.863  10.737   8.656 -2.4262 -0.1708 -0.8836
  521MOL0     H71849   5.787  10.874   8.747 -0.1789 -0.9494 -0.1442
  521MOL0     H71850   5.806  10.598   8.879 -1.6746 -1.6998 -2.3771
  521MOL0     H71851   5.713  10.738   8.920 -0.5186  0.7671 -0.5730
  521MOL0     H71852   5.553  10.609   8.821 -0.3605 -1.1888 -0.4597
  521MOL0     H71853   5.595  10.715   8.689 -0.9422 -1.6898 -1.1223
  521MOL0     H71854   5.743  10.554   8.581  0.9209 -0.2981  1.1320
  521MOL0     H71855   5.683  10.440   8.707 -0.3853 -0.6309 -0.1377
  521MOL0     H71856   5.559  10.695   8.405 -0.1093 -0.5436  1.5062
  521MOL0     H71857   5.516  10.717   8.069  1.2838 -3.1448 -1.5259
  521MOL0     H71858   5.689  10.712   8.083 -0.8657  0.2520 -2.4649
  521MOL0     H71859   5.591  10.801   8.215 -2.4204  0.0910  0.2055
  521MOL0     H71860   5.930  10.436   7.914 -0.8270  0.5166 -0.3868
  521MOL0     H71861   5.997  10.417   7.694  0.9949 -0.3764  1.8974
  521MOL0     H71862   5.883  10.398   7.306 -0.0893  1.5581 -0.1349
  521MOL0     H71863   5.914  10.468   7.465 -2.9798 -1.1497  1.8348
  521MOL0     H71864   6.108  10.394   7.315  2.8740  0.2502  1.9764
  521MOL0     H71865   6.104  10.315   7.470  0.0629 -0.0404 -0.6684
  521MOL0     H71866   6.023  10.199   7.194  2.4709  2.5374 -0.7267
  521MOL0     H71867   5.991  10.112   7.347  1.1061 -0.4540 -0.2768
  521MOL0     H71868   6.246  10.141   7.396  0.2803 -0.0856  0.0420
  521MOL0     H71869   6.263  10.159   7.222 -1.8512 -1.3232 -3.5580
  521MOL0     H71870   6.308   9.934   7.297 -0.1433 -0.4590  0.0654
  521MOL0     H71871   6.156   9.917   7.365  2.0040 -0.2344  1.3438
  521MOL0     H71872   6.218   9.967   7.077  1.1024 -1.3523 -0.2171
  521MOL0     H71873   6.047   9.959   7.130  0.4272  1.2459  1.7330
  521MOL0     H71874   6.079   9.726   7.186 -1.9129  1.6632 -0.7444
  521MOL0     H71875   6.255   9.724   7.168  1.5096  1.4385  0.6971
  521MOL0     H71876   6.065   9.754   6.929  0.0436  1.1870  0.1307
  521MOL0     H71877   6.146   9.608   6.973 -0.7611  0.0362 -3.7415
  521MOL0     H71878   5.676  10.161   7.610  1.8077 -0.4055  0.5833
  521MOL0     H71879   5.589  10.185   7.841 -0.1073  0.9265  1.4088
  521MOL0     H71880   5.538  10.250   8.194 -1.4493  0.8976 -3.2246
  521MOL0     H71881   5.518  10.264   8.440  0.4134  0.1766  1.0774
  521MOL0     H71882   7.060  10.468   9.433 -1.4821  0.5657 -1.4136
  521MOL0     H71883   7.232  10.366   9.556  0.7638  0.6855 -0.5173
  521MOL0     H71884   7.437  10.026   9.910 -1.2077 -3.4479  0.2993
  521MOL0     H71885   7.623   9.901   9.972 -0.0874 -1.3073 -0.7603
  521MOL0     H71886   7.897   9.887   9.943 -0.5119  0.4061  0.5034
  521MOL0     H71887   7.792   9.759  10.002  1.4082 -0.4593  1.1845
  521MOL0     H71888   7.927   9.580   9.905  2.4032 -1.5912  0.8813
  521MOL0     H71889   8.002   9.666  10.044  0.5214  0.1133 -0.1388
  521MOL0     H71890   8.075   9.695   9.763  2.5584  0.3033 -0.6342
  521MOL0     H71891   8.142   9.817   9.877 -1.2968  0.6728  1.9402
  521MOL0     H71892   8.183   9.517   9.880 -1.8242  1.5471 -2.3085
  521MOL0     H71893   8.263   9.628  10.010  1.3205  2.3984 -0.3530
  521MOL0     H71894   8.520   9.686   9.696  0.1613  0.4040  1.2606
  521MOL0     H71895   7.751   9.885   9.558  0.2000 -0.6128  0.9909
  521MOL0     H71896   7.565  10.156   9.443 -2.3200  0.4630  1.2607
  521MOL0     H71897   7.642  10.009   9.410  0.0213  0.3633 -0.6481
  521MOL0     H71898   7.466  10.016   9.410 -1.1462  3.7111 -1.9070
  522MOL0     O71899   0.770   4.793   3.907  0.2218 -0.2400 -0.0810
  522MOL0     C71900   0.812   4.874   3.814 -0.2785  0.8204  0.3348
  522MOL0     O71901   0.744   4.983   3.766  0.0950 -0.1510 -0.5320
  522MOL0     C71902   0.634   5.030   3.829  0.5526  0.8645 -0.1399
  522MOL0     C71903   0.517   5.027   3.753 -0.5098 -0.8326  0.5214
  522MOL0     C71904   0.401   5.075   3.805 -0.2410  0.6866 -0.4145
  522MOL0     C71905   0.393   5.131   3.935 -0.8247  0.0503  1.0636
  522MOL0     O71906   0.272   5.180   3.977  0.0246 -0.0364  0.0802
  522MOL0     C71907   0.256   5.240   4.106  0.2392 -0.1643 -0.5656
  522MOL0     C71908   0.112   5.291   4.125 -0.4776 -0.0555  0.0755
  522MOL0     C71909   0.066   5.403   4.037  0.6377  0.9179  0.8433
  522MOL0     C71910  -0.087   5.420   4.020  0.0806 -0.6240 -0.7556
  522MOL0     C71911  -0.169   5.470   4.142  0.3784  0.3513  0.1487
  522MOL0     C71912  -0.325   5.447   4.121 -0.7602  0.4662 -0.3872
  522MOL0     C71913  -0.422   5.528   4.212  0.3579  0.5619 -0.1247
  522MOL0     C71914  -0.569   5.498   4.166  0.6820  0.0951  0.2524
  522MOL0     N71915  -0.671   5.572   4.244 -0.4676  0.5566 -0.0579
  522MOL0     C71916  -0.654   5.595   4.380 -0.2479 -0.4473 -0.3583
  522MOL0     C71917  -0.758   5.679   4.413 -0.9056  0.0253 -0.4675
  522MOL0     C71918  -0.800   5.724   4.550  0.5426 -1.1327 -0.3656
  522MOL0     C71919  -0.935   5.655   4.574  0.0045 -0.3533  0.6291
  522MOL0     C71920  -0.997   5.692   4.716 -0.1570  1.0928  0.9053
  522MOL0     C71921  -0.923   5.638   4.837  0.6435 -0.0820 -0.3611
  522MOL0     O71922  -0.898   5.498   4.826 -0.2370  0.8561 -0.4168
  522MOL0     C71923  -0.779   5.439   4.784  0.2010 -1.2774  0.3881
  522MOL0     C71924  -0.653   5.510   4.810  0.3978  0.6152  0.9058
  522MOL0     C71925  -0.535   5.459   4.751  0.1576 -0.0148 -0.1636
  522MOL0     C71926  -0.414   5.557   4.762 -0.3136 -0.4976 -0.1614
  522MOL0     C71927  -0.533   5.336   4.684  0.6265  0.3972  0.0984
  522MOL0     C71928  -0.435   5.287   4.601 -0.6853 -0.1920  0.4623
  522MOL0     O71929  -0.424   5.155   4.583  0.0889  0.2072  0.5497
  522MOL0     C71930  -0.323   5.108   4.506 -1.0783 -0.7151 -0.2956
  522MOL0     C71931  -0.281   5.154   4.378 -0.2666  0.5181 -0.3416
  522MOL0     C71932  -0.186   5.084   4.312  0.2412  0.8040  1.5285
  522MOL0     C71933  -0.126   4.976   4.358  0.4267  1.1193 -0.4077
  522MOL0     O71934  -0.046   4.914   4.268 -0.4741 -0.1207  0.0295
  522MOL0     C71935   0.039   4.806   4.313 -1.6166  0.2894 -0.2875
  522MOL0     C71936   0.139   4.779   4.203 -1.0264  0.1472  0.2077
  522MOL0     C71937   0.272   4.733   4.267 -0.4812 -0.7458  0.2127
  522MOL0     C71938   0.375   4.701   4.151 -0.1504  0.6117  0.4554
  522MOL0     C71939   0.523   4.674   4.195  0.4212 -0.8580 -0.4709
  522MOL0     C71940   0.538   4.577   4.318 -0.1223 -0.0392 -0.4042
  522MOL0     C71941   0.496   4.441   4.274  0.2890 -0.0738 -0.0304
  522MOL0     C71942   0.601   4.338   4.302 -0.2856  0.4844  0.4770
  522MOL0    Cl71943   0.731   4.367   4.174 -0.2420  0.1155  0.2845
  522MOL0     C71944  -0.160   4.929   4.485  0.6260  0.1673 -0.5771
  522MOL0     C71945  -0.264   4.994   4.555 -0.8024 -0.2652 -0.2626
  522MOL0     O71946  -0.359   5.367   4.550 -0.0131 -1.2986 -0.1652
  522MOL0     C71947  -0.657   5.266   4.668  0.0368 -1.1808 -0.8174
  522MOL0     C71948  -0.779   5.315   4.714 -0.0728 -0.7047 -0.0855
  522MOL0     N71949  -0.814   5.715   4.290 -0.7029 -0.8720  0.5807
  522MOL0     N71950  -0.781   5.642   4.203  0.1994 -0.5856 -0.0001
  522MOL0     C71951   0.504   5.128   4.017 -0.0819  0.6314 -0.1383
  522MOL0     C71952   0.625   5.071   3.966  0.7661 -0.1878  0.2938
  522MOL0     C71953   0.938   4.848   3.743 -0.1149  0.4224  0.0731
  522MOL0     C71954   0.951   4.883   3.606 -0.5608  0.2053  0.0472
  522MOL0     C71955   1.071   4.856   3.538 -0.1634  0.3775  0.1115
  522MOL0     C71956   1.180   4.783   3.589 -0.0132  0.4614 -0.0085
  522MOL0     O71957   1.289   4.739   3.512  0.7291  0.6597  0.1898
  522MOL0     C71958   1.280   4.730   3.370  0.4442  0.1247  0.6409
  522MOL0     C71959   1.354   4.605   3.312 -1.5180 -0.9603 -0.2126
  522MOL0     C71960   1.378   4.617   3.163  0.1153 -0.1527  0.4766
  522MOL0     C71961   1.244   4.608   3.090  1.1210  0.6173 -0.1862
  522MOL0     C71962   1.173   4.479   3.110 -0.0365  0.2068  0.2050
  522MOL0     C71963   1.129   4.367   3.127 -0.4653  0.7644  1.1043
  522MOL0     C71964   1.170   4.752   3.727 -0.1562  0.2557  0.1100
  522MOL0     C71965   1.061   4.782   3.810 -0.3868  0.3979 -0.3780
  522MOL0     C71966   1.073   4.758   3.959  0.1312  0.0111  0.0241
  522MOL0     H71967   0.526   5.020   3.645  3.1918  2.1931  0.4084
  522MOL0     H71968   0.315   5.070   3.739  1.1430  0.2547 -2.2611
  522MOL0     H71969   0.315   5.332   4.103  0.1841 -0.1448 -1.2871
  522MOL0     H71970   0.279   5.165   4.181 -0.7090  2.0575  2.1368
  522MOL0     H71971   0.049   5.204   4.105 -3.1481  2.0573 -1.4758
  522MOL0     H71972   0.093   5.323   4.228  1.2995  1.8513 -0.1191
  522MOL0     H71973   0.113   5.495   4.070  0.6564  0.4542  2.1706
  522MOL0     H71974   0.093   5.372   3.936 -0.5407  3.1924 -0.2384
  522MOL0     H71975  -0.101   5.486   3.934  0.0206 -0.1650 -0.4001
  522MOL0     H71976  -0.129   5.325   3.986  1.3331 -0.6994 -2.1821
  522MOL0     H71977  -0.161   5.579   4.138 -1.9529  0.5668 -0.0926
  522MOL0     H71978  -0.121   5.426   4.229  0.9255 -0.3107 -0.4730
  522MOL0     H71979  -0.345   5.457   4.014 -1.1345 -1.6811 -0.5659
  522MOL0     H71980  -0.343   5.341   4.141  0.2535  0.8355  3.0826
  522MOL0     H71981  -0.397   5.633   4.193  0.6821  0.9154  1.9451
  522MOL0     H71982  -0.401   5.525   4.320 -2.7514  1.6508  0.6142
  522MOL0     H71983  -0.586   5.502   4.058  3.2890 -5.1766 -0.6403
  522MOL0     H71984  -0.584   5.390   4.174  3.6212 -0.7956 -3.3750
  522MOL0     H71985  -0.585   5.551   4.451  1.5360  2.8627  0.1717
  522MOL0     H71986  -0.812   5.833   4.556 -0.2697 -1.3016  1.4368
  522MOL0     H71987  -0.720   5.690   4.616  2.3758  1.7470 -0.8939
  522MOL0     H71988  -0.999   5.704   4.500  1.7957  2.6113  0.8960
  522MOL0     H71989  -0.930   5.548   4.552 -0.6201 -0.1064 -0.8594
  522MOL0     H71990  -1.006   5.801   4.713 -1.0107  1.0385  1.2457
  522MOL0     H71991  -1.101   5.658   4.712  0.8267 -2.1706 -0.3972
  522MOL0     H71992  -0.832   5.696   4.855  0.6445 -1.1004  4.0547
  522MOL0     H71993  -0.995   5.660   4.916 -1.2696 -1.2543 -1.6595
  522MOL0     H71994  -0.646   5.607   4.860 -1.0280  0.8567  0.7009
  522MOL0     H71995  -0.316   5.514   4.785  0.7391  0.4595 -2.5056
  522MOL0     H71996  -0.433   5.629   4.842  3.8770 -0.8905  1.4655
  522MOL0     H71997  -0.390   5.617   4.674  0.7165  0.5678  0.8200
  522MOL0     H71998  -0.330   5.238   4.329 -0.7254 -0.1324 -1.0046
  522MOL0     H71999  -0.148   5.113   4.214 -1.3350  1.9296  1.2089
  522MOL0     H72000   0.096   4.850   4.395 -0.1869  0.6600 -1.4419
  522MOL0     H72001  -0.025   4.721   4.341 -1.0567 -0.7295 -1.9374
  522MOL0     H72002   0.101   4.696   4.142 -0.0969 -0.0317 -0.1522
  522MOL0     H72003   0.167   4.864   4.140  1.7705  0.5963  1.9148
  522MOL0     H72004   0.255   4.649   4.336  0.0621 -2.3566 -1.5338
  522MOL0     H72005   0.305   4.824   4.319  1.2396 -0.2298 -1.6450
  522MOL0     H72006   0.375   4.785   4.081  0.3395  1.0036  0.9137
  522MOL0     H72007   0.334   4.610   4.105  0.5688 -1.8193  4.1631
  522MOL0     H72008   0.574   4.629   4.109  0.9517  0.0825 -0.6575
  522MOL0     H72009   0.575   4.768   4.216  2.2581 -1.1022 -3.3254
  522MOL0     H72010   0.484   4.609   4.408  2.3699 -1.1632  1.6170
  522MOL0     H72011   0.641   4.571   4.352 -1.2563 -3.1687  3.1298
  522MOL0     H72012   0.481   4.439   4.165 -0.1157 -0.6748  0.0259
  522MOL0     H72013   0.403   4.415   4.326  2.0324 -0.4029  3.2044
  522MOL0     H72014   0.559   4.238   4.290 -1.4081  1.0445 -0.5825
  522MOL0     H72015   0.650   4.355   4.398  0.9120 -0.2587  0.0175
  522MOL0     H72016  -0.119   4.837   4.527  0.2762  0.2424 -0.0581
  522MOL0     H72017  -0.296   4.971   4.656 -0.8050 -0.6798 -0.3570
  522MOL0     H72018  -0.661   5.185   4.596 -2.0792 -0.0127 -2.1210
  522MOL0     H72019  -0.877   5.269   4.701  0.4132 -1.0829 -3.4950
  522MOL0     H72020   0.499   5.163   4.119  2.0031 -0.2693  0.3237
  522MOL0     H72021   0.716   5.070   4.025 -0.9795  2.3409  3.3387
  522MOL0     H72022   0.885   4.926   3.532  0.2248 -4.7396 -4.0274
  522MOL0     H72023   1.074   4.890   3.435 -0.6699 -2.5032 -0.9651
  522MOL0     H72024   1.176   4.714   3.337 -0.1382  0.1616  2.3658
  522MOL0     H72025   1.328   4.817   3.326  1.2250 -0.6510 -0.0849
  522MOL0     H72026   1.310   4.509   3.340  2.3240 -2.5494  1.1733
  522MOL0     H72027   1.451   4.603   3.363 -2.3282 -1.6385  1.3703
  522MOL0     H72028   1.428   4.713   3.144  0.3534  0.3862  3.4710
  522MOL0     H72029   1.441   4.540   3.118 -1.0572 -0.8170 -0.1126
  522MOL0     H72030   1.272   4.627   2.986  2.4970  3.4179  0.6116
  522MOL0     H72031   1.175   4.687   3.120 -2.0673 -1.7556 -0.7384
  522MOL0     H72032   1.090   4.267   3.135 -3.3429  1.9005  2.5632
  522MOL0     H72033   1.267   4.724   3.767 -1.5217 -3.7377  1.1536
  522MOL0     H72034   1.166   4.701   3.969  0.6210  0.7933  0.0117
  522MOL0     H72035   1.073   4.856   4.008 -3.5926  1.0279 -1.6055
  522MOL0     H72036   0.992   4.697   4.000  2.1017 -1.6566  1.6399
  523MOL0     O72037   5.251  11.411   5.252 -0.6923  0.1971 -0.8445
  523MOL0     C72038   5.374  11.400   5.264  0.3778 -0.4368 -0.4197
  523MOL0     O72039   5.465  11.422   5.164  0.7945 -0.0521  0.3064
  523MOL0     C72040   5.419  11.434   5.031  0.5539  0.6315  0.2932
  523MOL0     C72041   5.435  11.546   4.945 -0.2742 -0.2069  0.4280
  523MOL0     C72042   5.381  11.557   4.818  0.7144 -0.1767 -0.8844
  523MOL0     C72043   5.319  11.446   4.765 -0.2591  0.1650 -1.0214
  523MOL0     O72044   5.285  11.447   4.633 -0.2484  0.2408 -0.0196
  523MOL0     C72045   5.192  11.350   4.573 -0.0300  0.4861 -0.6760
  523MOL0     C72046   5.134  11.397   4.438  0.3857 -0.0188 -0.1044
  523MOL0     C72047   5.038  11.513   4.470  0.2422 -0.1730  0.3960
  523MOL0     C72048   5.109  11.649   4.468  1.4937 -1.3378 -0.6295
  523MOL0     C72049   4.997  11.753   4.476  0.3535 -0.3559 -0.3157
  523MOL0     C72050   5.071  11.892   4.485 -0.6490 -0.3188 -0.1021
  523MOL0     C72051   4.954  11.993   4.487 -0.0823 -0.1350  0.0489
  523MOL0     C72052   4.884  12.013   4.626  0.0310  0.0103 -0.3306
  523MOL0     N72053   4.956  12.104   4.711 -0.7456 -0.5789 -1.1856
  523MOL0     C72054   4.990  12.078   4.840  0.2197 -0.3380  0.1517
  523MOL0     C72055   5.021  12.195   4.900  1.2464 -1.3089 -0.6833
  523MOL0     C72056   5.053  12.205   5.044 -0.6454 -0.7840 -0.6924
  523MOL0     C72057   5.099  12.333   5.092  0.8069 -0.2454 -1.3360
  523MOL0     C72058   5.247  12.362   5.054 -0.7081 -0.0770 -0.9296
  523MOL0     C72059   5.339  12.307   5.167 -0.1559 -0.4042 -0.7703
  523MOL0     O72060   5.471  12.280   5.114 -0.1470 -0.0330  0.4780
  523MOL0     C72061   5.570  12.266   5.212 -0.3347 -0.4386 -0.7890
  523MOL0     C72062   5.657  12.371   5.235 -0.8996 -0.0075  1.5075
  523MOL0     C72063   5.762  12.363   5.322  0.9401 -0.3335  0.3947
  523MOL0     C72064   5.852  12.489   5.323  0.3964  0.3398 -0.5939
  523MOL0     C72065   5.786  12.245   5.391 -0.0855  0.9727 -0.3008
  523MOL0     C72066   5.918  12.215   5.444  0.0672 -0.3118 -0.5310
  523MOL0     O72067   5.919  12.127   5.551  0.4942 -1.1272 -0.5262
  523MOL0     C72068   6.027  12.054   5.582 -0.3763  0.1581  0.0038
  523MOL0     C72069   6.139  12.022   5.503 -0.6082 -0.1083  0.3191
  523MOL0     C72070   6.231  11.924   5.531 -0.3292  0.1463  0.3803
  523MOL0     C72071   6.217  11.836   5.644 -0.6160 -0.4502  0.6058
  523MOL0     O72072   6.296  11.726   5.678 -1.2167  0.1561  0.1850
  523MOL0     C72073   6.440  11.748   5.650  0.6594 -0.4164 -0.9691
  523MOL0     C72074   6.523  11.628   5.706  0.4177 -0.2454 -0.1741
  523MOL0     C72075   6.463  11.538   5.815  0.6157 -1.2975  0.2691
  523MOL0     C72076   6.512  11.392   5.799  0.5565  0.5069  1.0032
  523MOL0     C72077   6.486  11.318   5.925 -0.1759  0.6140 -0.9669
  523MOL0     C72078   6.340  11.287   5.949  0.6854 -0.9532  0.4727
  523MOL0     C72079   6.332  11.161   6.050 -0.1616 -0.8009  0.4996
  523MOL0     C72080   6.191  11.123   6.095 -0.6073 -0.0286 -1.5686
  523MOL0    Cl72081   6.110  11.074   5.948 -0.2191  0.0699  0.2495
  523MOL0     C72082   6.113  11.878   5.729 -0.6217 -0.1699 -0.5858
  523MOL0     C72083   6.024  11.976   5.691 -0.6291 -0.6104  0.9787
  523MOL0     O72084   6.018  12.258   5.387  0.4256  0.3903  0.5956
  523MOL0     C72085   5.696  12.133   5.377  0.3496  0.3069  0.5486
  523MOL0     C72086   5.583  12.154   5.290  0.6185 -0.5489 -0.4482
  523MOL0     N72087   5.013  12.294   4.799 -0.1034  0.6880  0.5220
  523MOL0     N72088   4.981  12.241   4.682  0.7974  0.6394 -0.4044
  523MOL0     C72089   5.314  11.326   4.842 -0.6665  0.3316  0.9070
  523MOL0     C72090   5.366  11.319   4.968  0.0790  0.2785  0.3089
  523MOL0     C72091   5.420  11.385   5.403 -0.0889 -0.9604 -0.0091
  523MOL0     C72092   5.504  11.489   5.462 -0.4273 -0.8171  0.8374
  523MOL0     C72093   5.543  11.493   5.596 -0.2909 -0.2156 -0.0570
  523MOL0     C72094   5.494  11.396   5.676 -0.8837 -0.0106  0.1876
  523MOL0     O72095   5.526  11.366   5.805  0.7304 -0.2848  0.0377
  523MOL0     C72096   5.620  11.441   5.875 -0.4631  0.3044  0.0357
  523MOL0     C72097   5.741  11.346   5.907  0.1375  0.4571 -0.1468
  523MOL0     C72098   5.797  11.357   6.056 -0.2528 -0.7731  0.9565
  523MOL0     C72099   5.836  11.502   6.101 -0.0993 -0.2766  0.5642
  523MOL0     C72100   5.959  11.546   6.028  0.3045 -0.3315  0.0720
  523MOL0     C72101   6.070  11.575   5.986 -0.0045  0.3122  1.1777
  523MOL0     C72102   5.414  11.291   5.632  0.3870 -0.6317  1.6668
  523MOL0     C72103   5.379  11.289   5.492  0.0277  0.4634  0.1320
  523MOL0     C72104   5.319  11.161   5.444 -0.3012 -0.1596 -0.6700
  523MOL0     H72105   5.479  11.636   4.988 -0.8603  0.4884 -0.3768
  523MOL0     H72106   5.400  11.649   4.764 -2.6104  0.8635 -0.5116
  523MOL0     H72107   5.113  11.340   4.648  2.6541 -0.7931  2.2251
  523MOL0     H72108   5.233  11.251   4.552 -0.1154 -0.3578  2.6351
  523MOL0     H72109   5.207  11.423   4.361 -2.3767  0.8212 -2.6405
  523MOL0     H72110   5.071  11.319   4.394  0.5219 -0.3047  0.2078
  523MOL0     H72111   4.954  11.519   4.401  0.5435  1.2663  0.1302
  523MOL0     H72112   4.986  11.486   4.563  0.8848  0.4812  0.9548
  523MOL0     H72113   5.184  11.651   4.547  0.1499 -0.1356  0.6796
  523MOL0     H72114   5.152  11.661   4.368  0.6211  1.6873 -0.7402
  523MOL0     H72115   4.918  11.718   4.543  1.3249  0.9358  1.6070
  523MOL0     H72116   4.940  11.748   4.383 -0.4043 -1.0079  0.1638
  523MOL0     H72117   5.139  11.906   4.569 -0.7361  0.2897 -0.1289
  523MOL0     H72118   5.136  11.911   4.399  4.1243 -0.3581  3.1097
  523MOL0     H72119   4.882  11.982   4.406  0.2829 -0.4550 -0.2361
  523MOL0     H72120   5.004  12.088   4.467 -0.6085  0.0751 -0.2805
  523MOL0     H72121   4.780  12.046   4.617 -0.3610 -0.7601  1.2110
  523MOL0     H72122   4.890  11.915   4.673 -0.4796 -0.0933 -0.4752
  523MOL0     H72123   4.986  11.986   4.897  2.6457 -1.7858 -1.8629
  523MOL0     H72124   5.133  12.136   5.071  1.7174  2.0064 -0.0347
  523MOL0     H72125   4.968  12.170   5.103 -3.2279  1.1417 -2.9947
  523MOL0     H72126   5.039  12.410   5.041  1.4971  0.5465 -0.9754
  523MOL0     H72127   5.082  12.348   5.199 -2.9187  1.6869 -2.0256
  523MOL0     H72128   5.272  12.304   4.964  2.7414 -3.2294  1.7678
  523MOL0     H72129   5.280  12.464   5.035  1.1985 -0.9672 -2.9128
  523MOL0     H72130   5.347  12.366   5.258  0.6000  0.7156 -1.5317
  523MOL0     H72131   5.305  12.208   5.199  1.7087 -0.8056  0.1043
  523MOL0     H72132   5.645  12.468   5.189 -0.0488 -0.0898  1.0862
  523MOL0     H72133   5.946  12.480   5.379  0.2316  1.8184 -0.0228
  523MOL0     H72134   5.794  12.567   5.375  0.4944 -0.0423  0.0984
  523MOL0     H72135   5.875  12.517   5.220 -0.7044 -0.5371 -1.0950
  523MOL0     H72136   6.159  12.083   5.416 -0.9843 -1.1722 -0.5388
  523MOL0     H72137   6.312  11.917   5.459 -0.5988  0.8611  0.0016
  523MOL0     H72138   6.456  11.758   5.542  0.2989  0.2950 -0.9667
  523MOL0     H72139   6.476  11.844   5.689 -0.8139  0.1620 -0.9502
  523MOL0     H72140   6.535  11.561   5.620  0.9954  2.2584 -2.2067
  523MOL0     H72141   6.619  11.662   5.745  0.1317 -0.8247  1.0450
  523MOL0     H72142   6.354  11.544   5.823  0.4142 -1.5747 -1.8916
  523MOL0     H72143   6.512  11.570   5.908  0.6390 -1.6820  0.3884
  523MOL0     H72144   6.618  11.403   5.771 -0.3267  2.1347 -2.1762
  523MOL0     H72145   6.470  11.338   5.713 -1.6269  2.7278  0.5576
  523MOL0     H72146   6.543  11.225   5.915  1.1281  1.2936 -0.1057
  523MOL0     H72147   6.528  11.371   6.011 -2.9084 -1.2014  1.6707
  523MOL0     H72148   6.286  11.263   5.857  0.6476  1.6507 -0.2575
  523MOL0     H72149   6.292  11.378   5.987 -1.9817 -2.5102  1.1262
  523MOL0     H72150   6.388  11.196   6.138  1.9122 -2.0693 -0.2538
  523MOL0     H72151   6.377  11.072   6.006  1.5943  0.3701 -0.1936
  523MOL0     H72152   6.150  11.205   6.154 -2.8258 -1.5106 -0.8929
  523MOL0     H72153   6.209  11.044   6.168 -0.7602  0.1210 -1.3689
  523MOL0     H72154   6.105  11.840   5.830  0.0382 -0.1585 -0.5281
  523MOL0     H72155   5.940  11.998   5.757 -2.1951 -2.2561 -0.3759
  523MOL0     H72156   5.707  12.040   5.432 -2.3554  0.9627  2.4058
  523MOL0     H72157   5.507  12.081   5.262 -1.0024  1.5004 -1.6849
  523MOL0     H72158   5.285  11.235   4.790  2.4832 -0.2300 -0.0784
  523MOL0     H72159   5.359  11.220   5.012 -2.0418  0.0138 -0.4751
  523MOL0     H72160   5.526  11.574   5.398  1.2665 -2.8468 -1.4586
  523MOL0     H72161   5.609  11.572   5.630 -0.2484  0.7078 -2.1330
  523MOL0     H72162   5.656  11.537   5.838 -1.3849  1.4673  2.0221
  523MOL0     H72163   5.572  11.464   5.971 -2.0801  0.9729 -0.8791
  523MOL0     H72164   5.827  11.361   5.841  1.1568  0.5356  1.1661
  523MOL0     H72165   5.695  11.247   5.909 -0.8744  0.8963 -0.7232
  523MOL0     H72166   5.717  11.321   6.121 -0.8105  0.2235  0.8319
  523MOL0     H72167   5.886  11.294   6.065  1.3052  1.1020 -0.4165
  523MOL0     H72168   5.865  11.504   6.207  1.4007 -0.7251  0.1821
  523MOL0     H72169   5.760  11.580   6.096  1.0670  0.8770  0.4128
  523MOL0     H72170   6.168  11.597   5.950  0.0168 -2.3672 -0.6429
  523MOL0     H72171   5.379  11.211   5.696 -0.5389 -1.0472  0.6953
  523MOL0     H72172   5.321  11.081   5.519  0.8922 -0.0632 -0.5768
  523MOL0     H72173   5.215  11.183   5.418 -0.2147 -0.4093 -1.2369
  523MOL0     H72174   5.379  11.127   5.359  0.6165 -2.0703  0.6612
  524MOL0     O72175   1.371   1.812   1.675 -0.4962  0.7513 -0.0244
  524MOL0     C72176   1.459   1.755   1.604 -0.0699  0.0400 -0.0998
  524MOL0     O72177   1.448   1.633   1.534  0.7393  0.2937 -0.0147
  524MOL0     C72178   1.326   1.571   1.549 -0.1293 -0.0699  0.8022
  524MOL0     C72179   1.311   1.461   1.640  0.2961 -0.8391  0.3371
  524MOL0     C72180   1.197   1.395   1.646  0.1914 -0.6107  0.0492
  524MOL0     C72181   1.095   1.405   1.550 -0.7954  1.2403 -0.2891
  524MOL0     O72182   0.991   1.312   1.554  1.0898 -0.3744  0.5444
  524MOL0     C72183   0.890   1.330   1.658 -0.0462 -0.1966  0.4324
  524MOL0     C72184   0.781   1.428   1.610 -0.4502 -0.2649  1.4490
  524MOL0     C72185   0.720   1.381   1.476  0.4686 -0.7410  0.3739
  524MOL0     C72186   0.561   1.428   1.446 -1.3187  0.4748 -0.5615
  524MOL0     C72187   0.544   1.446   1.297 -0.7596 -0.2208 -0.1537
  524MOL0     C72188   0.564   1.343   1.193  0.0910  0.1400  0.2937
  524MOL0     C72189   0.525   1.375   1.046 -0.4646 -0.3278  0.7743
  524MOL0     C72190   0.376   1.357   1.013  0.9668 -0.0354  0.3922
  524MOL0     N72191   0.356   1.210   0.995  0.3727 -0.3836 -0.0479
  524MOL0     C72192   0.389   1.118   0.895 -0.7327  0.1306  0.4195
  524MOL0     C72193   0.375   0.994   0.949 -0.2730  0.0687  0.2203
  524MOL0     C72194   0.423   0.864   0.897  0.3456  0.4660 -0.3259
  524MOL0     C72195   0.566   0.832   0.950  0.6718 -0.9241  0.8448
  524MOL0     C72196   0.683   0.926   0.906  0.4513 -0.1356  0.0282
  524MOL0     C72197   0.697   1.063   0.974 -0.4535  0.6376 -0.5007
  524MOL0     O72198   0.819   1.059   1.055 -0.3996 -0.6340  0.0355
  524MOL0     C72199   0.913   1.157   1.033  0.4067  1.0229 -0.5183
  524MOL0     C72200   0.921   1.252   0.932 -0.0701  0.4955 -0.0594
  524MOL0     C72201   1.029   1.338   0.921  0.3711  0.6537 -0.1167
  524MOL0     C72202   1.029   1.431   0.793  0.6020 -0.8391 -1.2514
  524MOL0     C72203   1.133   1.332   1.021  0.2327 -1.2005  0.1363
  524MOL0     C72204   1.256   1.423   1.024 -0.9317 -0.0242  0.0892
  524MOL0     O72205   1.365   1.384   1.101 -0.1038 -0.1519  0.1278
  524MOL0     C72206   1.483   1.453   1.083 -0.1046  0.0786  1.0199
  524MOL0     C72207   1.585   1.413   1.172  0.3004 -0.0885 -0.2895
  524MOL0     C72208   1.716   1.450   1.153 -0.4762 -0.0340  0.4586
  524MOL0     C72209   1.756   1.523   1.039  0.7106  0.2355 -0.3827
  524MOL0     O72210   1.882   1.562   1.012  0.3720  0.0375  0.5810
  524MOL0     C72211   1.917   1.518   0.880  0.3338  1.1860 -0.1804
  524MOL0     C72212   2.065   1.556   0.837  0.1127  0.8943 -0.7140
  524MOL0     C72213   2.105   1.562   0.686  0.5458  0.0451  0.5516
  524MOL0     C72214   2.047   1.683   0.615  0.6951 -0.9110  0.1413
  524MOL0     C72215   2.123   1.821   0.635  0.5703  0.6841  0.2864
  524MOL0     C72216   2.189   1.865   0.504 -0.8126  0.7838 -0.2550
  524MOL0     C72217   2.270   1.989   0.541 -0.6484 -1.1545 -0.4453
  524MOL0     C72218   2.350   2.044   0.413  0.3538  0.1838 -0.3277
  524MOL0    Cl72219   2.500   1.945   0.392 -0.5578  0.1708 -0.0630
  524MOL0     C72220   1.648   1.574   0.957 -0.0660 -0.5575  0.0036
  524MOL0     C72221   1.518   1.533   0.976 -0.5843 -0.2558 -0.8805
  524MOL0     O72222   1.232   1.542   1.007  0.4904  0.5316 -0.3226
  524MOL0     C72223   1.110   1.250   1.130 -0.5798  1.1512  0.6238
  524MOL0     C72224   1.005   1.166   1.137 -0.0192  0.1930  1.0826
  524MOL0     N72225   0.315   1.004   1.072 -0.2349 -0.5612 -0.7785
  524MOL0     N72226   0.304   1.136   1.098 -0.0053 -0.1678 -0.1796
  524MOL0     C72227   1.109   1.496   1.447 -0.2652  0.1322 -0.5307
  524MOL0     C72228   1.223   1.590   1.455  0.3880  0.2639 -0.3091
  524MOL0     C72229   1.588   1.824   1.577  0.6166 -0.4068  0.3030
  524MOL0     C72230   1.711   1.753   1.587  0.3640  0.2661  0.3010
  524MOL0     C72231   1.819   1.813   1.547  0.0040  0.7134  0.6280
  524MOL0     C72232   1.826   1.941   1.493 -0.6415 -0.6950  0.6290
  524MOL0     O72233   1.941   2.012   1.457  0.2686  0.0760  0.1617
  524MOL0     C72234   2.059   1.949   1.482  0.1257 -0.8027  0.1381
  524MOL0     C72235   2.171   2.056   1.512 -0.1397  0.3420 -1.0805
  524MOL0     C72236   2.293   1.994   1.579 -0.2785 -0.0020 -0.4331
  524MOL0     C72237   2.400   2.105   1.608  1.1529  0.3710  0.1284
  524MOL0     C72238   2.464   2.137   1.478 -0.6797  0.3829  0.3848
  524MOL0     C72239   2.507   2.178   1.373  0.2339 -0.6743  0.5157
  524MOL0     C72240   1.710   2.008   1.483 -1.2035  0.0439 -1.1225
  524MOL0     C72241   1.586   1.965   1.534 -0.0482  1.1247  1.2512
  524MOL0     C72242   1.456   2.057   1.516  0.9216  0.1536 -0.5273
  524MOL0     H72243   1.392   1.445   1.710  0.4435  3.6568  1.4581
  524MOL0     H72244   1.178   1.322   1.723  0.0672 -2.0418 -1.3033
  524MOL0     H72245   0.935   1.372   1.749 -3.0763  1.2746  1.3882
  524MOL0     H72246   0.837   1.238   1.685 -3.6754  1.6475  0.2391
  524MOL0     H72247   0.708   1.432   1.691 -0.4197  0.3257  1.4515
  524MOL0     H72248   0.822   1.530   1.603  0.0590 -0.5587 -0.6917
  524MOL0     H72249   0.785   1.435   1.407 -1.6430  0.8540 -0.4977
  524MOL0     H72250   0.727   1.272   1.479  1.3266 -0.7527 -0.8954
  524MOL0     H72251   0.492   1.354   1.487  1.4490 -1.8220  0.3553
  524MOL0     H72252   0.523   1.522   1.487 -3.5531  0.9538 -3.4261
  524MOL0     H72253   0.618   1.524   1.278  0.6763 -1.9746 -2.2278
  524MOL0     H72254   0.446   1.494   1.287 -1.4463 -1.3677  0.8808
  524MOL0     H72255   0.671   1.320   1.190  0.0949  0.2388 -2.6309
  524MOL0     H72256   0.502   1.257   1.221  1.0603 -0.9240 -0.7161
  524MOL0     H72257   0.573   1.316   0.968  0.4444 -0.1340  1.1820
  524MOL0     H72258   0.561   1.476   1.028 -1.5385 -0.6395 -5.0265
  524MOL0     H72259   0.320   1.395   1.099 -1.1202 -2.1708  0.0733
  524MOL0     H72260   0.339   1.402   0.920 -1.2121  0.1902  1.3065
  524MOL0     H72261   0.422   1.152   0.798 -1.4043 -1.4344 -0.4065
  524MOL0     H72262   0.421   0.865   0.788 -0.4259  0.8131 -0.3163
  524MOL0     H72263   0.350   0.787   0.924 -0.9742  2.1540  1.2013
  524MOL0     H72264   0.545   0.841   1.057 -1.0611  0.2074  0.4439
  524MOL0     H72265   0.591   0.727   0.933  2.3993 -0.3773 -0.2836
  524MOL0     H72266   0.776   0.875   0.933  0.0516  0.6592  3.2466
  524MOL0     H72267   0.673   0.962   0.803  0.3122  1.5804  0.6015
  524MOL0     H72268   0.689   1.139   0.896 -3.5005  0.5215 -0.4098
  524MOL0     H72269   0.612   1.067   1.042  1.6964  0.0185  2.4087
  524MOL0     H72270   0.855   1.247   0.846  0.0202 -1.0648 -0.0557
  524MOL0     H72271   0.997   1.376   0.703 -1.3312 -3.0949  0.6485
  524MOL0     H72272   1.127   1.471   0.768 -0.3263  2.2360 -0.3659
  524MOL0     H72273   0.961   1.516   0.805 -1.9683 -3.0039  0.9778
  524MOL0     H72274   1.570   1.343   1.254  2.4208 -0.2017  0.0430
  524MOL0     H72275   1.788   1.415   1.226 -1.3352  2.4760  2.6773
  524MOL0     H72276   1.923   1.409   0.873  3.2040  1.2088  0.7001
  524MOL0     H72277   1.848   1.563   0.808 -0.9101 -0.6660 -0.2114
  524MOL0     H72278   2.095   1.649   0.886 -1.0280  1.1963 -0.5667
  524MOL0     H72279   2.127   1.478   0.883 -0.1078 -2.4577 -5.4129
  524MOL0     H72280   2.085   1.461   0.650  0.8822 -0.4625  1.7272
  524MOL0     H72281   2.214   1.572   0.688  0.3338  4.0635  2.4862
  524MOL0     H72282   1.946   1.699   0.654 -0.0749 -0.3824 -1.9526
  524MOL0     H72283   2.032   1.679   0.507 -1.6814  1.5441  0.2728
  524MOL0     H72284   2.052   1.893   0.679 -0.6319 -1.1360  1.4615
  524MOL0     H72285   2.206   1.807   0.704  0.0907 -0.9418  0.5635
  524MOL0     H72286   2.125   1.884   0.418  0.8604  1.0612 -1.4913
  524MOL0     H72287   2.253   1.781   0.475 -1.2808 -0.0045  0.9133
  524MOL0     H72288   2.338   1.962   0.622 -2.7596  0.2699  1.9647
  524MOL0     H72289   2.196   2.064   0.569 -1.0948 -0.9793 -1.9881
  524MOL0     H72290   2.361   2.152   0.419  1.5079  0.0368  0.4218
  524MOL0     H72291   2.293   2.023   0.322  1.6990  0.5719 -1.2772
  524MOL0     H72292   1.666   1.643   0.875 -0.2928 -1.0145 -0.4358
  524MOL0     H72293   1.445   1.571   0.905  0.3879  1.4320 -1.0273
  524MOL0     H72294   1.182   1.245   1.211  1.2839 -0.9323 -1.0093
  524MOL0     H72295   0.980   1.096   1.215 -2.5857  0.9838  1.0880
  524MOL0     H72296   1.036   1.498   1.367  0.2810  0.2909 -1.0310
  524MOL0     H72297   1.234   1.662   1.375 -0.0663 -0.0737 -0.6806
  524MOL0     H72298   1.703   1.654   1.631 -1.4593  1.4368  2.8792
  524MOL0     H72299   1.908   1.751   1.553 -0.6714 -0.2521  0.9733
  524MOL0     H72300   2.052   1.905   1.582 -1.3914  1.1123  0.9470
  524MOL0     H72301   2.082   1.883   1.398  1.5757 -1.9131  1.3503
  524MOL0     H72302   2.121   2.133   1.571 -0.4679 -0.8901  0.3232
  524MOL0     H72303   2.223   2.093   1.423  2.8372 -0.5243  0.1686
  524MOL0     H72304   2.259   1.953   1.674 -1.0873 -0.8430 -1.0702
  524MOL0     H72305   2.348   1.923   1.516  1.2608  0.9926 -0.2812
  524MOL0     H72306   2.481   2.066   1.671  2.9441  0.4522 -2.0131
  524MOL0     H72307   2.367   2.199   1.653  2.8142  2.9714 -3.6430
  524MOL0     H72308   2.550   2.202   1.278  2.9568 -1.1671  1.5289
  524MOL0     H72309   1.706   2.113   1.455 -1.7647  0.5292  0.6442
  524MOL0     H72310   1.474   2.155   1.469  1.2750  1.5057  2.2443
  524MOL0     H72311   1.387   2.006   1.448  1.0134 -1.2774  0.4254
  524MOL0     H72312   1.409   2.066   1.614 -0.6863 -0.1125 -1.2356
  525MOL0     O72313   2.096   9.698  11.106  0.0497  0.0894  0.1271
  525MOL0     C72314   2.128   9.714  10.990  0.3124  0.1073  0.6279
  525MOL0     O72315   2.185   9.619  10.908 -0.2858  0.2599 -0.2610
  525MOL0     C72316   2.184   9.495  10.963 -0.4977 -0.3936  0.2202
  525MOL0     C72317   2.088   9.404  10.917 -0.1560  0.6025 -0.2342
  525MOL0     C72318   2.081   9.271  10.968  1.1621 -0.5785 -0.5856
  525MOL0     C72319   2.167   9.226  11.067 -0.1989  0.1917  0.5977
  525MOL0     O72320   2.159   9.101  11.121  0.1087  0.2295  0.7273
  525MOL0     C72321   2.032   9.069  11.183 -0.2497  0.0417 -0.6511
  525MOL0     C72322   2.031   8.916  11.206  0.2616  0.7690  0.6242
  525MOL0     C72323   1.911   8.854  11.272 -0.3672 -0.1657  0.4431
  525MOL0     C72324   1.900   8.708  11.238 -0.3277 -0.5727  0.3982
  525MOL0     C72325   1.792   8.647  11.320  0.8342  0.3952  0.1005
  525MOL0     C72326   1.794   8.488  11.321 -0.5994  0.2468 -0.0581
  525MOL0     C72327   1.691   8.442  11.431 -0.3715  0.4178 -0.2270
  525MOL0     C72328   1.685   8.290  11.445 -0.0742 -0.1794  0.4359
  525MOL0     N72329   1.623   8.239  11.570 -0.8101  0.1265 -0.2152
  525MOL0     C72330   1.496   8.258  11.587 -0.2373 -0.0183  0.0248
  525MOL0     C72331   1.482   8.236  11.722 -0.6828  0.8010 -0.8595
  525MOL0     C72332   1.356   8.243  11.804  0.4304  0.4676 -0.1524
  525MOL0     C72333   1.326   8.141  11.920  0.0529  0.6433  0.2060
  525MOL0     C72334   1.295   8.000  11.879  0.0755 -0.2898  0.5825
  525MOL0     C72335   1.266   7.910  12.002 -0.4112 -1.1061  0.3739
  525MOL0     O72336   1.177   7.967  12.096 -0.0273  0.8713 -0.0611
  525MOL0     C72337   1.155   7.904  12.210  0.4566 -0.1824 -0.0433
  525MOL0     C72338   1.034   7.935  12.265 -0.9158  0.2434  1.3432
  525MOL0     C72339   0.999   7.908  12.398  0.6072 -0.3124  0.3752
  525MOL0     C72340   0.862   7.931  12.442  0.7779 -0.3702 -0.5912
  525MOL0     C72341   1.101   7.838  12.478  0.2059  0.3629  0.2840
  525MOL0     C72342   1.073   7.790  12.618  0.2613 -0.8313  0.2361
  525MOL0     O72343   1.177   7.775  12.702 -0.4964  0.1078 -0.1314
  525MOL0     C72344   1.154   7.768  12.845  0.1910  0.7994  0.6005
  525MOL0     C72345   1.237   7.685  12.920  0.1520 -0.4559  1.2321
  525MOL0     C72346   1.217   7.669  13.060 -0.8298  0.0174  0.7338
  525MOL0     C72347   1.115   7.736  13.125 -0.6143 -0.3898  0.3389
  525MOL0     O72348   1.070   7.725  13.253  0.4487  0.2380  0.3973
  525MOL0     C72349   1.173   7.745  13.344  0.9467  0.0804 -0.8369
  525MOL0     C72350   1.123   7.736  13.489 -0.6300  0.0335 -0.5032
  525MOL0     C72351   1.042   7.863  13.514 -0.6505  0.2964  0.8285
  525MOL0     C72352   1.004   7.861  13.662  0.1899 -0.3429 -0.7533
  525MOL0     C72353   0.947   8.002  13.702 -0.4448 -0.3304 -0.2280
  525MOL0     C72354   0.861   8.007  13.835 -0.4863  0.2713 -0.3187
  525MOL0     C72355   0.830   8.155  13.868  0.1333  0.4020  0.0556
  525MOL0     C72356   0.757   8.151  14.006 -0.5003  0.7091  0.3218
  525MOL0    Cl72357   0.729   8.299  14.097  0.3098  0.1268  0.2669
  525MOL0     C72358   1.030   7.814  13.045  0.1140  0.2498 -0.1167
  525MOL0     C72359   1.051   7.838  12.906  0.5613 -0.2859 -0.7792
  525MOL0     O72360   0.956   7.772  12.646  0.2974 -0.3372 -0.3489
  525MOL0     C72361   1.233   7.812  12.418  0.4033  1.3355 -0.1305
  525MOL0     C72362   1.261   7.850  12.287 -0.3377  0.0727 -0.2808
  525MOL0     N72363   1.600   8.195  11.772 -0.2271 -0.4013 -0.1179
  525MOL0     N72364   1.689   8.201  11.680 -0.9429 -0.3589 -0.2143
  525MOL0     C72365   2.270   9.313  11.109 -1.2102 -0.3353 -0.2242
  525MOL0     C72366   2.280   9.442  11.056  0.4052  0.6691  0.9745
  525MOL0     C72367   2.122   9.849  10.937 -1.5018  0.1382  0.7467
  525MOL0     C72368   2.103   9.862  10.793  0.9012 -0.7193  0.0232
  525MOL0     C72369   2.098   9.988  10.722  0.3077  0.1405  0.1118
  525MOL0     C72370   2.133  10.100  10.795  0.0321 -0.4322  1.3356
  525MOL0     O72371   2.146  10.230  10.751  1.5547  0.4502  0.9214
  525MOL0     C72372   2.279  10.272  10.718 -0.1055 -0.0814  0.2710
  525MOL0     C72373   2.294  10.282  10.561  0.2159 -0.4089  0.3998
  525MOL0     C72374   2.195  10.391  10.506 -0.6184  0.3144 -1.0455
  525MOL0     C72375   2.206  10.393  10.349  0.0548  0.1454 -0.5437
  525MOL0     C72376   2.140  10.278  10.268 -0.2553  0.4427 -0.1975
  525MOL0     C72377   2.087  10.183  10.217  0.3555 -0.2451 -0.6512
  525MOL0     C72378   2.143  10.093  10.931 -0.2039  1.4727  0.0340
  525MOL0     C72379   2.147   9.973  11.004  0.7386  0.5073  0.5538
  525MOL0     C72380   2.178   9.977  11.155 -0.5359  0.2707  1.0097
  525MOL0     H72381   2.010   9.437  10.850 -0.7282 -2.5724 -1.2822
  525MOL0     H72382   2.010   9.198  10.932 -0.2958  1.0129 -1.0789
  525MOL0     H72383   1.949   9.106  11.122  0.4431  0.3403 -1.4399
  525MOL0     H72384   2.022   9.110  11.284 -2.2960 -0.1951 -0.7296
  525MOL0     H72385   2.058   8.872  11.110  1.6271 -3.2930  2.6731
  525MOL0     H72386   2.116   8.890  11.269 -0.9906 -3.0864  0.9927
  525MOL0     H72387   1.931   8.855  11.380  0.3775 -1.8436  0.3445
  525MOL0     H72388   1.819   8.911  11.260 -2.4074 -2.7113  2.7657
  525MOL0     H72389   1.878   8.691  11.132  2.8334 -0.0750 -0.4506
  525MOL0     H72390   1.997   8.666  11.266  0.4205  0.9720  0.2562
  525MOL0     H72391   1.692   8.675  11.284 -0.5304  1.1011  3.9731
  525MOL0     H72392   1.790   8.680  11.424 -1.4353 -5.3035  2.2413
  525MOL0     H72393   1.763   8.439  11.229  0.3494 -0.8137  0.1632
  525MOL0     H72394   1.895   8.450  11.336 -0.6675 -0.0186 -0.2634
  525MOL0     H72395   1.589   8.472  11.407 -1.8540 -1.5879  2.9763
  525MOL0     H72396   1.718   8.490  11.525  1.0462  2.3356 -1.5265
  525MOL0     H72397   1.631   8.250  11.359  0.7027 -0.5989  0.1412
  525MOL0     H72398   1.788   8.256  11.439  0.3765  1.1672  0.1345
  525MOL0     H72399   1.423   8.293  11.515 -1.4006  0.3158  1.3169
  525MOL0     H72400   1.273   8.246  11.733 -2.1765 -2.4662  2.4628
  525MOL0     H72401   1.337   8.344  11.844 -5.4948 -0.5627  0.6214
  525MOL0     H72402   1.409   8.143  11.991 -0.3851  2.8525  0.7485
  525MOL0     H72403   1.236   8.181  11.967 -0.3810  1.0106 -0.9168
  525MOL0     H72404   1.204   8.001  11.818  0.5574 -1.5457 -0.1977
  525MOL0     H72405   1.379   7.957  11.824  0.3174  1.8719 -0.8739
  525MOL0     H72406   1.227   7.811  11.977  1.3023 -1.4572 -1.1113
  525MOL0     H72407   1.362   7.893  12.051 -1.6109  0.6486  3.6454
  525MOL0     H72408   0.963   7.990  12.204  1.8965 -0.9157 -3.4815
  525MOL0     H72409   0.843   7.989  12.533 -3.1766 -3.7927  1.0893
  525MOL0     H72410   0.817   7.835  12.468  0.4307  0.4772  2.2747
  525MOL0     H72411   0.808   7.979  12.360 -0.0456  2.9152  1.6776
  525MOL0     H72412   1.306   7.623  12.863  0.0288 -0.6090  1.2499
  525MOL0     H72413   1.274   7.597  13.118 -3.6576 -3.2385 -0.1815
  525MOL0     H72414   1.251   7.670  13.331 -0.4070 -1.4825 -0.3234
  525MOL0     H72415   1.217   7.843  13.323 -1.0436  1.1680 -0.2467
  525MOL0     H72416   1.056   7.651  13.510 -0.7036  0.3402  0.5332
  525MOL0     H72417   1.212   7.736  13.551 -0.5215  2.4876 -0.5936
  525MOL0     H72418   0.953   7.873  13.450 -0.3583 -2.6350 -0.2027
  525MOL0     H72419   1.111   7.947  13.505  1.3161 -0.9813  2.8270
  525MOL0     H72420   1.091   7.846  13.727 -1.0271  1.3147  1.4142
  525MOL0     H72421   0.925   7.787  13.676 -1.2894  1.4930  1.3398
  525MOL0     H72422   1.033   8.066  13.723  0.3305 -1.9631  1.9666
  525MOL0     H72423   0.888   8.047  13.622  0.3001  3.2861  1.0553
  525MOL0     H72424   0.916   7.964  13.919  0.0802  0.5149 -0.5611
  525MOL0     H72425   0.769   7.948  13.827 -1.4143  1.3366  1.6415
  525MOL0     H72426   0.764   8.200  13.793 -1.4358 -1.6663  0.1091
  525MOL0     H72427   0.925   8.204  13.894 -0.5015  1.1907  0.9512
  525MOL0     H72428   0.808   8.084  14.076 -1.4841 -1.1774 -0.6834
  525MOL0     H72429   0.658   8.108  13.987 -0.1263 -0.8499  1.7165
  525MOL0     H72430   0.950   7.866  13.097  1.2366 -0.1861  2.1739
  525MOL0     H72431   0.967   7.891  12.862 -0.2839 -0.2742  0.7875
  525MOL0     H72432   1.300   7.750  12.477 -4.0145 -1.6088  2.3694
  525MOL0     H72433   1.364   7.842  12.252  0.0738  0.6821  0.7457
  525MOL0     H72434   2.341   9.290  11.188 -0.2252  1.4417 -0.5450
  525MOL0     H72435   2.362   9.510  11.078  3.4247 -1.4523 -2.5706
  525MOL0     H72436   2.090   9.774  10.731 -1.1708 -0.0572 -0.5523
  525MOL0     H72437   2.075   9.997  10.616  1.7526  0.9205 -0.1737
  525MOL0     H72438   2.304  10.363  10.773  1.0184 -0.7747  0.9605
  525MOL0     H72439   2.352  10.195  10.745 -2.9474 -2.7805  0.8415
  525MOL0     H72440   2.292  10.180  10.521 -3.8378 -0.0251 -0.7878
  525MOL0     H72441   2.399  10.308  10.541  0.7480 -1.8098  1.2291
  525MOL0     H72442   2.091  10.362  10.527 -0.7719 -1.2533 -3.5415
  525MOL0     H72443   2.226  10.481  10.559  5.4727 -1.8453 -0.1664
  525MOL0     H72444   2.307  10.380  10.309 -0.1297 -0.8074 -0.7459
  525MOL0     H72445   2.173  10.484  10.298 -0.1405 -0.6858 -1.9503
  525MOL0     H72446   2.022  10.104  10.186 -2.3565  1.3976  0.5778
  525MOL0     H72447   2.169  10.179  10.992  1.9826  1.4945 -0.8481
  525MOL0     H72448   2.181  10.082  11.186  3.0870  0.7869 -0.6231
  525MOL0     H72449   2.100   9.941  11.223  1.6469  1.7340  4.6024
  525MOL0     H72450   2.278   9.937  11.169 -0.3998  0.7821  1.5779
  526MOL0     O72451   7.580   0.379   4.422 -0.3112 -0.2255  0.9001
  526MOL0     C72452   7.638   0.269   4.396  1.2321  0.8637  0.5644
  526MOL0     O72453   7.589   0.148   4.441 -0.2671  1.1049  0.7779
  526MOL0     C72454   7.453   0.136   4.459  0.3498 -0.0794 -1.2263
  526MOL0     C72455   7.347   0.183   4.374  0.8459  0.8965 -0.1956
  526MOL0     C72456   7.206   0.172   4.399 -0.5761  0.1767  0.6922
  526MOL0     C72457   7.171   0.111   4.517  1.1023 -0.0040  0.9167
  526MOL0     O72458   7.040   0.105   4.543  0.5052  0.4859  0.0919
  526MOL0     C72459   6.991  -0.014   4.611  0.7274 -1.3277 -0.2427
  526MOL0     C72460   7.003  -0.142   4.536 -0.5455 -0.4690  0.0896
  526MOL0     C72461   6.914  -0.141   4.413  0.1045  0.1988 -0.5988
  526MOL0     C72462   6.870  -0.286   4.383 -0.6639 -0.1817 -0.0781
  526MOL0     C72463   6.803  -0.289   4.249  0.1483 -0.9693  0.3743
  526MOL0     C72464   6.733  -0.422   4.210 -0.4547 -0.2155  0.2941
  526MOL0     C72465   6.638  -0.408   4.082  0.5938 -0.3427 -0.2355
  526MOL0     C72466   6.486  -0.431   4.122 -0.9291  0.6024 -0.1193
  526MOL0     N72467   6.400  -0.413   3.996  0.5000 -1.3255 -0.0787
  526MOL0     C72468   6.369  -0.285   3.959  1.3450 -0.7089  0.0004
  526MOL0     C72469   6.288  -0.293   3.842  0.5349  0.0593 -0.2177
  526MOL0     C72470   6.198  -0.206   3.750  0.1994  0.3375  0.2332
  526MOL0     C72471   6.273  -0.094   3.683 -0.4517  0.4118  0.2166
  526MOL0     C72472   6.337   0.007   3.780  0.5860 -0.5475 -0.3650
  526MOL0     C72473   6.404   0.118   3.697 -0.9753 -0.2919  1.0574
  526MOL0     O72474   6.439   0.225   3.785 -0.3848  0.2636  0.1661
  526MOL0     C72475   6.340   0.316   3.825  0.0993  1.0632 -1.2842
  526MOL0     C72476   6.217   0.338   3.759  0.2680 -0.8180  0.0080
  526MOL0     C72477   6.123   0.431   3.821  0.5454 -0.2430  0.1663
  526MOL0     C72478   5.976   0.465   3.753  0.2821 -0.3459 -0.9138
  526MOL0     C72479   6.148   0.492   3.942 -0.1487  0.0714 -0.3050
  526MOL0     C72480   6.043   0.572   4.008 -0.2597  0.7269  0.4369
  526MOL0     O72481   5.985   0.510   4.110  0.6395 -0.6392  0.6450
  526MOL0     C72482   5.882   0.568   4.188 -0.2725  0.5710  0.4974
  526MOL0     C72483   5.866   0.488   4.298 -0.0897  0.5070  0.1604
  526MOL0     C72484   5.785   0.532   4.402  0.8196  0.5104  0.1101
  526MOL0     C72485   5.724   0.658   4.403 -0.0277 -0.5310  0.1797
  526MOL0     O72486   5.643   0.726   4.491  0.0751  0.4748  0.0426
  526MOL0     C72487   5.592   0.657   4.612  0.7038  0.4159  0.3273
  526MOL0     C72488   5.435   0.640   4.641 -0.1688  0.3960 -0.7967
  526MOL0     C72489   5.351   0.761   4.579  0.2835 -0.2470 -0.3392
  526MOL0     C72490   5.363   0.884   4.664  0.4031 -0.2443  0.1258
  526MOL0     C72491   5.334   1.018   4.599  0.0012  0.1716 -0.6298
  526MOL0     C72492   5.188   1.031   4.553 -0.3239 -0.1201 -0.5725
  526MOL0     C72493   5.099   1.042   4.671  0.5119 -0.1050 -0.2566
  526MOL0     C72494   5.127   1.166   4.753 -0.0285  0.0460  0.4911
  526MOL0    Cl72495   5.199   1.136   4.914  0.1497  0.3808  0.3746
  526MOL0     C72496   5.750   0.738   4.287 -0.3881  0.4807 -0.6868
  526MOL0     C72497   5.825   0.690   4.175  0.2450  0.0867 -0.4447
  526MOL0     O72498   6.043   0.684   3.977  0.6867  0.4927  0.3069
  526MOL0     C72499   6.272   0.465   4.005 -0.1305  0.0614  0.5953
  526MOL0     C72500   6.374   0.384   3.948 -0.4597  0.0061  1.1307
  526MOL0     N72501   6.271  -0.432   3.826  0.2054 -0.1519 -1.0661
  526MOL0     N72502   6.343  -0.500   3.908  0.2718 -0.1261  0.3063
  526MOL0     C72503   7.272   0.066   4.601 -0.5451  0.3690 -0.6896
  526MOL0     C72504   7.408   0.079   4.573  0.0995  0.2265  0.3819
  526MOL0     C72505   7.780   0.261   4.363 -0.3377 -0.0410 -0.7528
  526MOL0     C72506   7.868   0.365   4.406 -0.6049 -0.4522 -0.2961
  526MOL0     C72507   8.006   0.354   4.372  0.2563  0.0456  0.2847
  526MOL0     C72508   8.066   0.242   4.299  0.3206 -0.3607  0.2222
  526MOL0     O72509   8.195   0.243   4.277  1.0849  0.2078 -0.3839
  526MOL0     C72510   8.260   0.113   4.271  0.1635 -0.2450 -0.1437
  526MOL0     C72511   8.416   0.122   4.292 -0.8349 -0.9138 -0.3211
  526MOL0     C72512   8.479   0.212   4.189 -0.0787  1.7129 -0.4112
  526MOL0     C72513   8.619   0.245   4.239 -0.1404 -0.5472 -0.6572
  526MOL0     C72514   8.678   0.297   4.111 -0.1489  0.0267 -1.1778
  526MOL0     C72515   8.735   0.338   4.018  0.3716  0.4783  0.3315
  526MOL0     C72516   7.974   0.142   4.261 -0.4378  0.5482  0.9418
  526MOL0     C72517   7.843   0.147   4.300  0.3865 -0.7772 -0.2145
  526MOL0     C72518   7.756   0.028   4.251  0.8986 -0.4258 -0.5624
  526MOL0     H72519   7.388   0.238   4.289 -0.3442  2.8541  0.4225
  526MOL0     H72520   7.132   0.219   4.334  0.1118 -0.3186 -0.4945
  526MOL0     H72521   6.886  -0.003   4.637  1.7581  1.3890  3.6591
  526MOL0     H72522   7.029  -0.022   4.713 -2.0766  0.3691  1.0276
  526MOL0     H72523   7.103  -0.164   4.497 -1.3917  0.1371 -2.6007
  526MOL0     H72524   6.971  -0.215   4.611 -2.7722  0.0823 -0.2656
  526MOL0     H72525   6.824  -0.085   4.440 -0.3257  0.4945 -2.5017
  526MOL0     H72526   6.975  -0.095   4.336  3.5781 -2.4415  0.3135
  526MOL0     H72527   6.951  -0.360   4.384 -0.0517  0.3592  3.2208
  526MOL0     H72528   6.811  -0.306   4.473  1.9621  1.8997  2.3069
  526MOL0     H72529   6.874  -0.250   4.176 -2.3954  3.0121 -0.2582
  526MOL0     H72530   6.721  -0.218   4.254 -0.9086 -1.8162 -2.7827
  526MOL0     H72531   6.814  -0.477   4.162 -0.8742  0.8392 -1.7461
  526MOL0     H72532   6.679  -0.467   4.294 -2.6261  0.3778 -0.7128
  526MOL0     H72533   6.661  -0.494   4.018 -0.8404 -0.9508  0.0229
  526MOL0     H72534   6.649  -0.312   4.032  0.3667 -0.7851 -1.1572
  526MOL0     H72535   6.472  -0.534   4.157 -4.3108  1.0771  0.2046
  526MOL0     H72536   6.457  -0.357   4.198  0.5206  0.2268  0.8473
  526MOL0     H72537   6.409  -0.193   4.000  2.3898 -0.9218 -0.5011
  526MOL0     H72538   6.105  -0.173   3.797 -1.6106  1.5273 -3.7053
  526MOL0     H72539   6.166  -0.272   3.669 -1.2534  1.0362  0.2047
  526MOL0     H72540   6.356  -0.151   3.641 -0.5571 -2.3759  3.4315
  526MOL0     H72541   6.224  -0.037   3.603 -1.8725 -3.7237 -2.1558
  526MOL0     H72542   6.253   0.053   3.832 -0.9010 -0.8522 -2.3692
  526MOL0     H72543   6.413  -0.032   3.847  1.6542 -1.3542 -1.9754
  526MOL0     H72544   6.500   0.086   3.653 -1.7600 -1.0278 -0.1761
  526MOL0     H72545   6.340   0.143   3.612 -1.6556 -3.6916  0.3851
  526MOL0     H72546   6.185   0.301   3.662 -3.2551  0.9356  0.3298
  526MOL0     H72547   5.893   0.417   3.806  0.0809 -0.2916 -1.1768
  526MOL0     H72548   5.967   0.417   3.655 -2.4306  1.8500 -1.8758
  526MOL0     H72549   5.965   0.572   3.737  0.6308 -0.2822 -0.7388
  526MOL0     H72550   5.922   0.394   4.297  0.0480  0.4043  3.8496
  526MOL0     H72551   5.777   0.472   4.492 -1.4254  1.1593  0.3929
  526MOL0     H72552   5.649   0.565   4.626  3.7272  2.0747 -0.1959
  526MOL0     H72553   5.631   0.724   4.689  2.8224 -1.4987  1.0325
  526MOL0     H72554   5.399   0.547   4.597  0.7500 -0.3213 -0.0802
  526MOL0     H72555   5.421   0.634   4.749  2.7662 -1.1226 -0.3751
  526MOL0     H72556   5.248   0.723   4.584 -0.8036  2.4875  0.1530
  526MOL0     H72557   5.375   0.801   4.480 -0.1961 -0.2299 -0.4502
  526MOL0     H72558   5.468   0.884   4.694  1.5796 -0.1499 -3.5395
  526MOL0     H72559   5.316   0.869   4.762 -1.0379 -1.1479 -0.6504
  526MOL0     H72560   5.363   1.100   4.665 -2.2859 -0.2193  0.9877
  526MOL0     H72561   5.391   1.019   4.506  0.2153 -2.8667 -0.6261
  526MOL0     H72562   5.160   0.954   4.480  0.5486 -0.8700 -0.1293
  526MOL0     H72563   5.176   1.125   4.498  1.1424 -1.0347 -2.5677
  526MOL0     H72564   5.089   0.954   4.736 -0.8830  0.4969  0.3757
  526MOL0     H72565   4.993   1.056   4.649 -0.2259 -3.4103  0.6967
  526MOL0     H72566   5.028   1.206   4.778 -0.9414  0.1691 -2.8948
  526MOL0     H72567   5.177   1.234   4.685  0.9197  0.4181  1.5315
  526MOL0     H72568   5.714   0.840   4.283 -1.6242  0.1118  0.2145
  526MOL0     H72569   5.817   0.737   4.078 -0.8842  0.3628 -0.2332
  526MOL0     H72570   6.295   0.517   4.098 -2.6869 -0.2495  1.4842
  526MOL0     H72571   6.472   0.376   3.994  0.1471  0.6346 -0.0016
  526MOL0     H72572   7.236   0.015   4.690  2.2650  0.6737  0.7355
  526MOL0     H72573   7.485   0.039   4.639  1.6591  2.1139 -0.2102
  526MOL0     H72574   7.832   0.454   4.457  0.3652 -0.1531 -0.1108
  526MOL0     H72575   8.078   0.430   4.401  2.9072 -2.6141  1.0819
  526MOL0     H72576   8.215   0.061   4.356 -2.7079  0.6476 -1.0200
  526MOL0     H72577   8.234   0.050   4.186 -2.2337 -0.1723  0.4546
  526MOL0     H72578   8.453   0.019   4.293  0.0110 -0.6215  0.1869
  526MOL0     H72579   8.422   0.176   4.387  3.8191  2.2247 -2.0393
  526MOL0     H72580   8.469   0.155   4.096 -0.2065  3.9501 -1.8297
  526MOL0     H72581   8.418   0.299   4.163  0.0191  1.4460 -1.6064
  526MOL0     H72582   8.674   0.163   4.288  1.1948  1.6454  1.7539
  526MOL0     H72583   8.621   0.328   4.309 -0.3818 -0.7748 -0.3745
  526MOL0     H72584   8.776   0.360   3.921 -1.1374 -0.1499 -0.4862
  526MOL0     H72585   8.010   0.051   4.214  0.0253  0.7343  0.9277
  526MOL0     H72586   7.796  -0.013   4.158  2.3963  0.2459 -0.2335
  526MOL0     H72587   7.764  -0.048   4.329  0.9384  0.0976 -0.0536
  526MOL0     H72588   7.651   0.042   4.224 -0.0687 -1.8948  2.0411
  527MOL0     O72589  10.363   0.658   1.141  0.4329 -0.5391 -0.1039
  527MOL0     C72590  10.422   0.619   1.243  0.3526  0.2169  0.9726
  527MOL0     O72591  10.552   0.657   1.265 -0.2060 -0.4935  0.4251
  527MOL0     C72592  10.614   0.754   1.191  0.5899 -0.4572  0.4165
  527MOL0     C72593  10.723   0.723   1.105  0.8438  0.3156 -0.9905
  527MOL0     C72594  10.791   0.819   1.044 -0.4293  0.1765 -0.5094
  527MOL0     C72595  10.762   0.955   1.056  0.1555 -0.3673  0.6498
  527MOL0     O72596  10.816   1.038   0.957  0.3096 -0.1524  0.2270
  527MOL0     C72597  10.754   1.161   0.921 -0.0308  0.1509 -0.0045
  527MOL0     C72598  10.844   1.229   0.826 -0.4255 -0.0559 -0.3956
  527MOL0     C72599  10.795   1.368   0.791 -0.1092  1.5638 -0.3330
  527MOL0     C72600  10.801   1.394   0.630  0.3257 -0.6925 -1.0171
  527MOL0     C72601  10.944   1.399   0.556  0.6835 -0.6677  0.0731
  527MOL0     C72602  10.939   1.429   0.408  0.0484 -0.1447  0.1733
  527MOL0     C72603  10.835   1.347   0.325  0.2021 -0.8826 -0.3593
  527MOL0     C72604  10.880   1.311   0.182  0.3036  0.5796 -0.1731
  527MOL0     N72605  11.006   1.234   0.186 -0.6688  0.8802  0.3747
  527MOL0     C72606  11.010   1.107   0.239 -0.5418 -0.1434 -0.1321
  527MOL0     C72607  11.138   1.074   0.269 -0.1510  0.1015 -0.1467
  527MOL0     C72608  11.189   0.946   0.345 -0.0752 -0.1124 -0.1459
  527MOL0     C72609  11.087   0.877   0.438 -0.0815 -0.7316  1.1699
  527MOL0     C72610  11.060   0.953   0.565  0.6818 -0.4633 -0.0432
  527MOL0     C72611  10.921   0.929   0.613  0.5066 -0.4595  0.5133
  527MOL0     O72612  10.832   1.024   0.547  1.1304 -0.0421  0.6497
  527MOL0     C72613  10.695   1.008   0.576 -0.1712  1.0981 -0.8219
  527MOL0     C72614  10.643   0.930   0.681  0.0393  0.1434 -1.2814
  527MOL0     C72615  10.503   0.892   0.692  0.4002 -0.0012 -0.1213
  527MOL0     C72616  10.470   0.772   0.792  0.6373  0.5091 -0.7074
  527MOL0     C72617  10.406   0.942   0.603  0.0122  0.0497 -0.3440
  527MOL0     C72618  10.257   0.920   0.614  0.4118  0.2151 -0.6718
  527MOL0     O72619  10.219   0.802   0.678  0.0826  0.0941 -0.3055
  527MOL0     C72620  10.084   0.771   0.695 -0.5182  0.7379 -0.2158
  527MOL0     C72621  10.042   0.754   0.826  0.0736  0.1074 -0.6035
  527MOL0     C72622   9.909   0.725   0.856  0.0347  0.3209  0.3737
  527MOL0     C72623   9.819   0.698   0.751 -0.8361  0.4326  0.9601
  527MOL0     O72624   9.690   0.653   0.767  0.0034  0.0235 -0.0468
  527MOL0     C72625   9.654   0.589   0.883  0.3712  0.2448  0.4970
  527MOL0     C72626   9.503   0.566   0.885  0.4254 -0.9184 -0.3275
  527MOL0     C72627   9.446   0.696   0.954 -0.3394  0.0174  0.7111
  527MOL0     C72628   9.295   0.706   0.948 -0.6036  0.1090  0.2915
  527MOL0     C72629   9.254   0.843   0.992  0.5603  0.3143 -0.8681
  527MOL0     C72630   9.107   0.872   0.962 -0.5025  0.5251 -1.0932
  527MOL0     C72631   9.082   0.898   0.808  0.5792  0.1772  0.0274
  527MOL0     C72632   8.934   0.889   0.778  0.3947 -0.3047 -0.3561
  527MOL0    Cl72633   8.829   0.984   0.885 -0.0103 -0.2274 -0.2480
  527MOL0     C72634   9.864   0.710   0.617  0.3310 -0.2163  0.4074
  527MOL0     C72635   9.992   0.751   0.593 -0.2534  0.6535  0.5900
  527MOL0     O72636  10.179   0.984   0.544 -0.5118 -0.2419  0.2708
  527MOL0     C72637  10.458   1.031   0.506 -0.8508  0.0490  0.1340
  527MOL0     C72638  10.603   1.058   0.487 -1.1180  0.5098 -0.7213
  527MOL0     N72639  11.216   1.192   0.246 -0.0509 -0.7924  0.4486
  527MOL0     N72640  11.131   1.279   0.198  0.5157  0.3543 -0.3233
  527MOL0     C72641  10.670   0.995   1.151 -0.1220 -0.2465  0.3176
  527MOL0     C72642  10.591   0.891   1.209  0.6721 -0.4412 -0.5954
  527MOL0     C72643  10.350   0.537   1.349  0.3081  0.5370 -0.4572
  527MOL0     C72644  10.215   0.523   1.327 -0.2796 -0.7728 -0.3637
  527MOL0     C72645  10.135   0.468   1.424 -0.9666  0.3848  0.7680
  527MOL0     C72646  10.195   0.409   1.540 -0.7835 -0.3567  0.7316
  527MOL0     O72647  10.137   0.329   1.637 -0.0077 -1.0699 -0.0791
  527MOL0     C72648  10.002   0.288   1.627  0.2794 -0.3962 -0.4849
  527MOL0     C72649   9.954   0.209   1.754 -0.1768  0.2103  0.4670
  527MOL0     C72650   9.986   0.289   1.873 -0.9285 -0.2092  1.0944
  527MOL0     C72651   9.927   0.223   2.005 -0.3419 -1.2682 -0.5698
  527MOL0     C72652   9.964   0.313   2.108 -0.8431 -0.0323 -0.1153
  527MOL0     C72653   9.988   0.395   2.199 -0.2562 -0.7693  1.4140
  527MOL0     C72654  10.332   0.415   1.552  0.2110  1.0498 -0.0846
  527MOL0     C72655  10.412   0.492   1.470  0.7386  0.5951 -0.5064
  527MOL0     C72656  10.555   0.517   1.504 -0.2192 -0.3442 -0.3634
  527MOL0     H72657  10.755   0.620   1.097  0.3381 -0.3002  2.9733
  527MOL0     H72658  10.871   0.783   0.980  1.1699 -1.8214  2.3389
  527MOL0     H72659  10.748   1.228   1.007 -2.3857  0.1086 -0.0553
  527MOL0     H72660  10.657   1.156   0.870 -0.7795 -0.7666  1.4118
  527MOL0     H72661  10.937   1.243   0.881 -0.6515 -2.7097  0.8432
  527MOL0     H72662  10.853   1.162   0.741 -0.9749 -0.7530  0.0789
  527MOL0     H72663  10.697   1.393   0.832 -0.5967  2.2184 -1.8235
  527MOL0     H72664  10.867   1.433   0.842  1.1362 -0.9524  1.2958
  527MOL0     H72665  10.726   1.328   0.585 -0.8448  0.2518 -0.4968
  527MOL0     H72666  10.767   1.497   0.622  5.3385  1.4165  0.6557
  527MOL0     H72667  10.995   1.302   0.562  0.7241 -0.7521 -1.3158
  527MOL0     H72668  11.005   1.464   0.620 -0.4299 -0.5412  1.0260
  527MOL0     H72669  10.906   1.533   0.396 -2.2021 -0.7029  1.0429
  527MOL0     H72670  11.037   1.405   0.365 -0.5862 -0.9096 -0.9015
  527MOL0     H72671  10.735   1.390   0.324  1.1096  1.4488  0.6266
  527MOL0     H72672  10.832   1.251   0.377  2.6450 -0.1696  1.2731
  527MOL0     H72673  10.804   1.249   0.134  1.7324 -0.0610 -1.7028
  527MOL0     H72674  10.894   1.400   0.119  1.1145 -0.5518 -1.6657
  527MOL0     H72675  10.920   1.053   0.266 -0.4184  1.1716  3.4069
  527MOL0     H72676  11.281   0.983   0.391 -0.3898  0.0771  0.3384
  527MOL0     H72677  11.223   0.863   0.282  0.9797  0.0970  0.1341
  527MOL0     H72678  10.994   0.854   0.386 -0.6552  2.2793  0.6794
  527MOL0     H72679  11.130   0.779   0.462  0.3636 -1.3665 -1.8131
  527MOL0     H72680  11.138   0.918   0.633  3.1982  1.4406 -1.7526
  527MOL0     H72681  11.082   1.060   0.552 -0.0910 -0.1894  0.8547
  527MOL0     H72682  10.895   0.823   0.604 -3.1551  0.4417 -1.9056
  527MOL0     H72683  10.927   0.954   0.719  0.5256  1.0477  0.1794
  527MOL0     H72684  10.707   0.892   0.760  1.5813  1.8465 -1.6480
  527MOL0     H72685  10.448   0.678   0.741  1.3761  0.9839 -1.9506
  527MOL0     H72686  10.395   0.808   0.864  1.9738 -1.5818  1.9154
  527MOL0     H72687  10.566   0.750   0.840  1.4341 -1.5410 -3.0725
  527MOL0     H72688  10.113   0.766   0.907 -0.1280 -0.4112 -0.3497
  527MOL0     H72689   9.888   0.699   0.959  2.2416 -0.3189  0.7136
  527MOL0     H72690   9.694   0.487   0.888 -1.6631 -0.7624 -1.9547
  527MOL0     H72691   9.680   0.631   0.980 -2.1059  0.6652  1.0305
  527MOL0     H72692   9.469   0.545   0.784  2.1806  0.6337 -1.3222
  527MOL0     H72693   9.490   0.483   0.955 -1.5576  0.1406  0.6388
  527MOL0     H72694   9.477   0.789   0.905  1.9628 -1.4202 -0.7330
  527MOL0     H72695   9.482   0.693   1.057  4.3295 -0.2966 -0.7145
  527MOL0     H72696   9.249   0.630   1.012  0.3059 -0.2761  0.5073
  527MOL0     H72697   9.276   0.681   0.844  2.5676 -1.6264 -0.0060
  527MOL0     H72698   9.263   0.831   1.101 -2.1615 -2.0727 -0.7495
  527MOL0     H72699   9.316   0.926   0.958 -1.0842  1.2615 -1.7044
  527MOL0     H72700   9.095   0.966   1.016  0.4186 -0.6336  1.2608
  527MOL0     H72701   9.039   0.798   1.006  2.5087 -1.3324  0.8011
  527MOL0     H72702   9.127   0.820   0.746  1.0644  2.6007 -2.8888
  527MOL0     H72703   9.121   0.999   0.787 -2.3554  0.7425 -3.7820
  527MOL0     H72704   8.900   0.785   0.774 -1.6043  0.3316 -2.8193
  527MOL0     H72705   8.911   0.935   0.681  1.7085  1.1623 -0.0112
  527MOL0     H72706   9.789   0.701   0.539 -2.8740  0.1208  3.1919
  527MOL0     H72707  10.038   0.753   0.495  2.0995  3.1213  1.6417
  527MOL0     H72708  10.383   1.083   0.446 -3.2023 -2.0903  1.0062
  527MOL0     H72709  10.645   1.120   0.409  1.3084 -1.3441 -0.9934
  527MOL0     H72710  10.639   1.098   1.168 -3.4936 -1.1302  0.1820
  527MOL0     H72711  10.506   0.909   1.274  2.8168  1.0060  1.9622
  527MOL0     H72712  10.172   0.549   1.230 -1.9100  0.1248  0.5557
  527MOL0     H72713  10.029   0.455   1.408 -0.5495 -1.4587 -0.8582
  527MOL0     H72714   9.924   0.364   1.613 -1.0841 -1.7283 -0.4302
  527MOL0     H72715   9.993   0.219   1.542 -1.2199  0.9075 -1.4469
  527MOL0     H72716  10.020   0.121   1.754 -1.9993 -1.2130 -0.2601
  527MOL0     H72717   9.849   0.181   1.752  0.2774 -2.0553 -3.9322
  527MOL0     H72718  10.095   0.293   1.882 -0.7903  0.1236 -0.4071
  527MOL0     H72719   9.945   0.389   1.867 -0.2308  0.0469  0.3907
  527MOL0     H72720   9.983   0.129   2.019 -3.0322 -2.6745  1.7321
  527MOL0     H72721   9.823   0.190   2.009 -0.2156 -2.0951 -2.7058
  527MOL0     H72722  10.015   0.465   2.275  0.0454  1.0610 -0.2892
  527MOL0     H72723  10.382   0.352   1.624 -1.9633 -0.1387  0.4864
  527MOL0     H72724  10.598   0.447   1.576  0.1372 -1.2134 -1.4073
  527MOL0     H72725  10.616   0.494   1.417  0.4686  2.3683 -0.6871
  527MOL0     H72726  10.575   0.619   1.537 -0.0497  0.0226 -1.5412
  528MOL0     O72727   4.924  10.874   3.468 -0.2848  0.9097  0.1019
  528MOL0     C72728   4.991  10.773   3.501 -1.1452 -0.5407  0.9800
  528MOL0     O72729   4.952  10.635   3.483 -0.3196 -0.4936  0.9144
  528MOL0     C72730   4.831  10.620   3.425 -0.0455  0.4503 -1.0063
  528MOL0     C72731   4.718  10.576   3.503 -0.6524  0.0615 -0.8364
  528MOL0     C72732   4.583  10.593   3.449 -0.6644 -0.2785 -0.0996
  528MOL0     C72733   4.571  10.629   3.316 -1.1022 -0.3251 -1.1976
  528MOL0     O72734   4.459  10.641   3.246  0.6328 -0.7093 -0.7527
  528MOL0     C72735   4.330  10.638   3.316  0.4045  0.0834  1.3643
  528MOL0     C72736   4.246  10.746   3.252 -0.0916  0.2666  0.1231
  528MOL0     C72737   4.210  10.725   3.099 -0.2230 -0.8926  0.0705
  528MOL0     C72738   4.121  10.609   3.094  0.0593  0.7945  0.7454
  528MOL0     C72739   4.042  10.605   2.963  0.2355  0.1040 -0.1891
  528MOL0     C72740   3.947  10.491   2.969 -0.2067 -0.4573 -1.4592
  528MOL0     C72741   3.858  10.494   2.840 -0.2240 -0.0383  0.4954
  528MOL0     C72742   3.740  10.399   2.849 -0.7163  0.1474  0.2026
  528MOL0     N72743   3.672  10.395   2.718  0.2201  0.7075 -0.5982
  528MOL0     C72744   3.718  10.355   2.585 -0.4114 -0.1889 -1.3835
  528MOL0     C72745   3.614  10.344   2.514  0.2198 -0.7060 -0.1886
  528MOL0     C72746   3.594  10.293   2.362 -0.1356  0.1846 -0.2850
  528MOL0     C72747   3.603  10.403   2.264  0.9020  0.0658 -0.1472
  528MOL0     C72748   3.509  10.512   2.295  0.4415  0.1662 -0.2442
  528MOL0     C72749   3.524  10.629   2.201  0.2281  0.4882  0.3994
  528MOL0     O72750   3.540  10.600   2.061  0.6055  0.8208 -0.2910
  528MOL0     C72751   3.439  10.573   1.975  0.0937 -1.3143 -0.5853
  528MOL0     C72752   3.315  10.637   1.983 -0.1383 -0.0836 -0.1771
  528MOL0     C72753   3.213  10.606   1.891  0.5147  0.2550 -0.8910
  528MOL0     C72754   3.084  10.693   1.900  0.6071  0.5511  0.0651
  528MOL0     C72755   3.225  10.496   1.809  0.1766 -0.1686 -0.0305
  528MOL0     C72756   3.118  10.449   1.710  0.5841  0.7212 -0.9996
  528MOL0     O72757   3.165  10.360   1.618  0.3317 -0.4144  0.6915
  528MOL0     C72758   3.090  10.325   1.502  0.7015  0.8348 -0.4735
  528MOL0     C72759   2.950  10.309   1.510 -0.3674  0.2954 -0.9400
  528MOL0     C72760   2.883  10.301   1.387 -0.2459 -0.6215 -0.3033
  528MOL0     C72761   2.950  10.291   1.265 -0.0877 -0.0917 -0.1988
  528MOL0     O72762   2.881  10.271   1.151  0.5205  0.9820  0.3668
  528MOL0     C72763   2.853  10.136   1.106  0.3689  0.2805  0.0819
  528MOL0     C72764   2.705  10.085   1.098  0.0135  0.3380 -0.9926
  528MOL0     C72765   2.622  10.196   1.038 -0.8608  0.2564 -0.1493
  528MOL0     C72766   2.487  10.145   0.996 -0.3561  0.0334 -0.3858
  528MOL0     C72767   2.408  10.260   0.924  0.0957  0.3603 -0.2662
  528MOL0     C72768   2.261  10.232   0.885  0.8438 -0.7730 -0.5577
  528MOL0     C72769   2.200  10.114   0.948  0.4210  0.7858 -0.8782
  528MOL0     C72770   2.165  10.124   1.098  0.5702  0.2190 -0.3648
  528MOL0    Cl72771   2.203   9.976   1.192  0.0481 -0.0123  0.2153
  528MOL0     C72772   3.082  10.310   1.265 -0.0982 -0.7984  0.3241
  528MOL0     C72773   3.158  10.319   1.381  0.4765  0.4688  1.1778
  528MOL0     O72774   2.999  10.493   1.707 -0.0511  0.2158  0.3970
  528MOL0     C72775   3.340  10.413   1.815 -0.5664 -1.0192 -0.1372
  528MOL0     C72776   3.454  10.467   1.885  0.6622  0.0572  1.0430
  528MOL0     N72777   3.504  10.369   2.591 -1.1974  0.5293  0.2036
  528MOL0     N72778   3.533  10.395   2.707 -0.8053 -0.3301 -0.1533
  528MOL0     C72779   4.688  10.661   3.247 -0.4117  0.6084  0.6176
  528MOL0     C72780   4.811  10.655   3.298 -0.9705 -0.2333 -0.6100
  528MOL0     C72781   5.125  10.799   3.553  1.1241 -0.0907  0.6775
  528MOL0     C72782   5.216  10.873   3.479 -0.6719 -0.1261 -0.2910
  528MOL0     C72783   5.349  10.894   3.533  0.5754 -0.4252  0.2765
  528MOL0     C72784   5.392  10.821   3.649  0.1698 -0.9824  0.6103
  528MOL0     O72785   5.515  10.823   3.711 -0.1944 -0.2248  0.2511
  528MOL0     C72786   5.598  10.946   3.710 -0.7777 -0.1545 -0.7797
  528MOL0     C72787   5.715  10.958   3.815  0.0857  0.3647 -0.2666
  528MOL0     C72788   5.806  11.076   3.777  0.2361 -0.4808  0.5068
  528MOL0     C72789   5.907  11.127   3.882 -0.8231  0.4528 -0.5982
  528MOL0     C72790   5.846  11.164   4.016 -0.5854  0.3112  0.3460
  528MOL0     C72791   5.792  11.196   4.124  0.0265 -0.1884  0.2131
  528MOL0     C72792   5.286  10.756   3.716  0.4616 -0.8688 -0.5717
  528MOL0     C72793   5.160  10.738   3.675  0.4365 -0.1459 -0.3274
  528MOL0     C72794   5.068  10.671   3.767 -0.2851 -0.0163  1.3348
  528MOL0     H72795   4.731  10.538   3.604  0.5109 -1.8500 -1.6538
  528MOL0     H72796   4.504  10.571   3.520  1.3393  2.5471  3.2832
  528MOL0     H72797   4.351  10.672   3.418 -2.9480  3.0796  1.2685
  528MOL0     H72798   4.273  10.546   3.308 -0.2912  0.6864 -1.5294
  528MOL0     H72799   4.152  10.758   3.307 -2.3014  3.5980 -3.7498
  528MOL0     H72800   4.313  10.832   3.261  0.5262 -0.2321  0.3508
  528MOL0     H72801   4.157  10.811   3.058  0.3800 -1.1864 -1.4140
  528MOL0     H72802   4.298  10.713   3.035  1.8675  1.9721  2.1715
  528MOL0     H72803   4.190  10.525   3.111 -3.5274 -1.8616  4.1614
  528MOL0     H72804   4.055  10.600   3.181 -0.7672  0.7887  0.1210
  528MOL0     H72805   4.103  10.588   2.874  1.3104  2.1399  0.1048
  528MOL0     H72806   3.981  10.695   2.953  0.0949  0.0046 -0.2255
  528MOL0     H72807   4.019  10.408   2.964  0.9611  0.3073  1.0026
  528MOL0     H72808   3.887  10.482   3.060  2.1983  0.1364  0.3054
  528MOL0     H72809   3.920  10.465   2.755  1.1087 -2.5830  2.2060
  528MOL0     H72810   3.811  10.591   2.823 -2.3669 -1.2700 -1.1182
  528MOL0     H72811   3.767  10.296   2.875 -4.5945 -1.4870 -1.5981
  528MOL0     H72812   3.677  10.432   2.932 -1.5049 -2.0421  0.5463
  528MOL0     H72813   3.819  10.334   2.552 -0.8175 -1.4112 -1.9062
  528MOL0     H72814   3.499  10.241   2.354 -1.3304  2.4257 -1.3961
  528MOL0     H72815   3.675  10.219   2.356 -0.7877 -0.6603  0.8081
  528MOL0     H72816   3.702  10.450   2.269  0.0933  2.3170 -2.5204
  528MOL0     H72817   3.591  10.363   2.163 -0.2119 -1.4709  0.5539
  528MOL0     H72818   3.411  10.468   2.276  0.2816  0.0336  0.8144
  528MOL0     H72819   3.502  10.543   2.400 -0.7901 -0.7088 -0.0490
  528MOL0     H72820   3.436  10.694   2.215 -1.5433 -1.2926 -1.6472
  528MOL0     H72821   3.602  10.691   2.245 -0.4107  1.7240 -0.1444
  528MOL0     H72822   3.308  10.731   2.037  1.3870 -0.0228 -0.0442
  528MOL0     H72823   3.104  10.778   1.966 -1.4477 -0.9133  2.8030
  528MOL0     H72824   3.000  10.634   1.938 -1.4819  2.7632 -0.8595
  528MOL0     H72825   3.061  10.742   1.805  1.3391 -0.7210 -0.7802
  528MOL0     H72826   2.890  10.303   1.600 -3.1090  0.3616 -2.6349
  528MOL0     H72827   2.776  10.285   1.386 -0.4189  0.4972 -0.6447
  528MOL0     H72828   2.908  10.108   1.015  1.1121 -2.4940  1.2720
  528MOL0     H72829   2.903  10.071   1.178  3.0677  0.8207 -1.1475
  528MOL0     H72830   2.705   9.984   1.056  0.1161 -0.9361  1.8727
  528MOL0     H72831   2.673  10.048   1.195  1.8528  0.1194 -0.4167
  528MOL0     H72832   2.678  10.242   0.956  0.0726 -0.4463  0.0832
  528MOL0     H72833   2.619  10.280   1.109  0.5615  0.0379  0.2015
  528MOL0     H72834   2.433  10.122   1.089 -0.3681  1.1540 -0.1016
  528MOL0     H72835   2.495  10.049   0.943  2.5279 -0.6877  1.1456
  528MOL0     H72836   2.403  10.343   0.994  2.5693  1.1697 -0.9338
  528MOL0     H72837   2.455  10.294   0.831 -1.9496  1.8795 -0.8085
  528MOL0     H72838   2.252  10.219   0.777 -2.7770  0.0078 -0.4516
  528MOL0     H72839   2.206  10.320   0.915  0.1736 -0.9071 -1.3570
  528MOL0     H72840   2.262  10.027   0.929 -0.6033 -0.0930 -0.3424
  528MOL0     H72841   2.099  10.112   0.905 -0.3410  0.0109  0.8235
  528MOL0     H72842   2.059  10.144   1.118  0.0609 -1.7460 -0.8242
  528MOL0     H72843   2.218  10.202   1.153 -0.6709  1.3373 -0.6838
  528MOL0     H72844   3.119  10.317   1.164  0.8766  2.6933  0.8131
  528MOL0     H72845   3.266  10.326   1.385  1.2603 -4.7833 -1.8863
  528MOL0     H72846   3.358  10.323   1.757 -1.9229 -2.3463  1.4017
  528MOL0     H72847   3.544  10.406   1.885 -1.5936 -3.6325 -0.8995
  528MOL0     H72848   4.675  10.675   3.140  1.3953 -2.5920 -0.1632
  528MOL0     H72849   4.891  10.673   3.226  0.9167 -0.3593  1.3553
  528MOL0     H72850   5.185  10.926   3.390  1.4838  2.9301  0.5772
  528MOL0     H72851   5.429  10.937   3.474 -0.5226 -1.6508 -2.2678
  528MOL0     H72852   5.650  10.961   3.615  1.5534 -0.2907  0.3929
  528MOL0     H72853   5.535  11.032   3.734 -0.8985 -1.1386  3.0310
  528MOL0     H72854   5.773  10.866   3.829  3.8501  2.8725  2.8837
  528MOL0     H72855   5.668  10.990   3.908 -0.0391  1.2932 -0.6387
  528MOL0     H72856   5.856  11.036   3.688 -0.0857  0.0294  0.0879
  528MOL0     H72857   5.741  11.156   3.741 -1.4591 -2.2330 -0.5506
  528MOL0     H72858   5.963  11.209   3.837 -0.5887  0.7199  0.1581
  528MOL0     H72859   5.974  11.044   3.908  1.2623  2.6107  1.3871
  528MOL0     H72860   5.748  11.226   4.217 -0.4654 -1.3563  0.3814
  528MOL0     H72861   5.311  10.705   3.808  3.4238  0.8255 -0.3139
  528MOL0     H72862   4.981  10.734   3.788  0.4481  1.7278 -0.5479
  528MOL0     H72863   5.024  10.588   3.710  2.5280 -0.9443  0.3291
  528MOL0     H72864   5.109  10.624   3.857  0.3050 -0.9045  0.6186
  529MOL0     O72865   5.446   1.300   5.625  0.1482  0.1471  0.1578
  529MOL0     C72866   5.507   1.263   5.728 -0.5659 -0.0940  0.2662
  529MOL0     O72867   5.458   1.279   5.844 -0.4680 -0.4306 -0.1679
  529MOL0     C72868   5.317   1.272   5.851 -0.8611 -0.3617  0.4759
  529MOL0     C72869   5.248   1.162   5.912 -0.9161  0.2156  0.7221
  529MOL0     C72870   5.107   1.163   5.926  0.9566  0.4486 -0.1270
  529MOL0     C72871   5.037   1.274   5.893 -0.4278 -0.4313  0.7165
  529MOL0     O72872   4.902   1.295   5.899  0.4537  0.6344  0.0569
  529MOL0     C72873   4.818   1.181   5.933  0.0325  0.1000 -0.5172
  529MOL0     C72874   4.669   1.192   5.896 -1.4368 -1.4503 -0.3767
  529MOL0     C72875   4.585   1.270   5.999 -0.1191 -0.5799 -0.4299
  529MOL0     C72876   4.451   1.295   5.944 -0.0457 -1.1596 -0.3291
  529MOL0     C72877   4.359   1.367   6.052  1.0183 -0.6041  1.1832
  529MOL0     C72878   4.224   1.413   5.990  0.0989  0.5866  0.4637
  529MOL0     C72879   4.139   1.488   6.090 -0.0744 -0.2333  0.1649
  529MOL0     C72880   4.011   1.533   6.038  0.7841 -0.4398  0.0731
  529MOL0     N72881   3.929   1.418   6.007  0.6880 -0.7195  0.1489
  529MOL0     C72882   3.855   1.396   5.889 -0.0163  0.2283 -0.3673
  529MOL0     C72883   3.763   1.293   5.912 -0.7023 -0.0889 -0.1227
  529MOL0     C72884   3.657   1.251   5.825 -0.4837  0.3069  0.1030
  529MOL0     C72885   3.665   1.111   5.768  0.7264  0.3507  1.3137
  529MOL0     C72886   3.578   1.106   5.636  0.5678 -0.0801  0.6455
  529MOL0     C72887   3.427   1.115   5.654 -0.6436 -0.7966 -0.9704
  529MOL0     O72888   3.404   1.036   5.764 -0.1486  0.1677 -0.0423
  529MOL0     C72889   3.355   0.908   5.747  0.3433 -0.1588 -0.2349
  529MOL0     C72890   3.370   0.841   5.626  0.3701  0.3420  0.2915
  529MOL0     C72891   3.330   0.710   5.610  0.1104  0.0701  0.2304
  529MOL0     C72892   3.368   0.651   5.475 -0.5298 -0.3558  0.1575
  529MOL0     C72893   3.274   0.641   5.715 -0.8093  0.2079  0.3649
  529MOL0     C72894   3.249   0.498   5.723  1.1848  0.1800  0.0998
  529MOL0     O72895   3.183   0.449   5.831 -0.3427  0.3850 -0.2798
  529MOL0     C72896   3.134   0.320   5.848  0.3422  0.2976 -1.0753
  529MOL0     C72897   3.120   0.218   5.750  0.0905  0.0736  0.1737
  529MOL0     C72898   3.051   0.096   5.772  0.3067 -0.7997 -0.7203
  529MOL0     C72899   3.008   0.071   5.904  0.4689  0.4220 -0.2325
  529MOL0     O72900   2.929  -0.048   5.919 -0.0871  0.2033  0.5539
  529MOL0     C72901   2.936  -0.107   6.045  0.0441 -0.2576 -0.1527
  529MOL0     C72902   2.903  -0.257   6.046  0.1449 -0.1967  0.3125
  529MOL0     C72903   2.760  -0.284   5.989  0.0420 -0.6702  0.3850
  529MOL0     C72904   2.719  -0.435   5.995 -0.1531 -0.1097  0.3354
  529MOL0     C72905   2.582  -0.465   5.942  0.8483 -0.0197 -0.1135
  529MOL0     C72906   2.564  -0.614   5.944  0.5264  0.1937 -0.0732
  529MOL0     C72907   2.428  -0.650   5.894  0.6873 -0.5599  0.2747
  529MOL0     C72908   2.393  -0.802   5.918  0.5798  0.6197 -0.7198
  529MOL0    Cl72909   2.425  -0.863   6.086  0.4625  0.2537  0.2124
  529MOL0     C72910   3.025   0.164   6.007 -0.1969 -0.7174  0.0754
  529MOL0     C72911   3.085   0.293   5.974 -0.2865  0.1497  0.4554
  529MOL0     O72912   3.303   0.426   5.640  0.4328 -0.6061  0.5738
  529MOL0     C72913   3.244   0.712   5.836 -0.5352 -0.4098  0.8882
  529MOL0     C72914   3.292   0.839   5.854 -0.2776 -0.0939  0.0582
  529MOL0     N72915   3.781   1.260   6.048 -0.2595 -0.5530 -0.5538
  529MOL0     N72916   3.875   1.330   6.100 -0.1640 -0.2096  0.1571
  529MOL0     C72917   5.106   1.386   5.845  0.7339  0.8528  0.0807
  529MOL0     C72918   5.238   1.384   5.810  0.1367 -0.4065  0.0611
  529MOL0     C72919   5.638   1.196   5.724 -0.8809 -0.3824  0.3578
  529MOL0     C72920   5.669   1.103   5.822 -0.0895 -0.0573  0.0402
  529MOL0     C72921   5.798   1.046   5.820 -1.8885  0.0502 -0.0135
  529MOL0     C72922   5.894   1.058   5.719  0.1849 -1.1808  0.8878
  529MOL0     O72923   6.013   0.989   5.721  0.1569 -0.2139  0.9248
  529MOL0     C72924   6.124   1.030   5.642 -0.4811 -0.2376  0.4211
  529MOL0     C72925   6.238   1.101   5.711 -0.7578 -0.1149 -0.8674
  529MOL0     C72926   6.180   1.244   5.740 -0.7312 -0.0291 -0.8473
  529MOL0     C72927   6.285   1.351   5.769 -0.2262 -0.4698 -0.2896
  529MOL0     C72928   6.390   1.361   5.661 -0.3522 -0.0380 -0.3005
  529MOL0     C72929   6.471   1.369   5.565 -0.0720  0.3353  0.1391
  529MOL0     C72930   5.855   1.144   5.621 -0.1847 -0.9683  0.7256
  529MOL0     C72931   5.739   1.225   5.627 -0.0040 -0.9431 -1.3791
  529MOL0     C72932   5.717   1.327   5.517  0.9741 -0.0042 -0.5261
  529MOL0     H72933   5.310   1.077   5.938  2.1393  0.4969 -4.3774
  529MOL0     H72934   5.053   1.076   5.963 -0.9229  0.8008 -1.8595
  529MOL0     H72935   4.822   1.168   6.042 -0.7561 -0.3147 -0.5244
  529MOL0     H72936   4.855   1.087   5.891 -1.2610 -1.3467  1.3897
  529MOL0     H72937   4.657   1.237   5.797  1.9712 -4.0066 -2.1655
  529MOL0     H72938   4.627   1.091   5.902 -2.3741 -0.9971  3.7469
  529MOL0     H72939   4.573   1.218   6.095 -0.9957  1.3831  0.5778
  529MOL0     H72940   4.631   1.367   6.022 -2.2583  0.0034  1.7394
  529MOL0     H72941   4.464   1.355   5.854 -0.5280 -0.1622  0.2485
  529MOL0     H72942   4.418   1.195   5.914  1.1816 -1.2817 -1.3268
  529MOL0     H72943   4.410   1.461   6.075 -1.9960  1.1115  1.3368
  529MOL0     H72944   4.350   1.304   6.142 -2.6778 -0.7836  0.8160
  529MOL0     H72945   4.238   1.475   5.901 -1.2020 -0.6902 -0.6960
  529MOL0     H72946   4.171   1.325   5.951 -1.8426  2.1888 -0.6934
  529MOL0     H72947   4.201   1.577   6.107 -2.6849  1.1715  3.4527
  529MOL0     H72948   4.122   1.430   6.181 -5.3255  2.0664  1.0089
  529MOL0     H72949   3.962   1.604   6.106  0.0448 -0.1340 -0.7618
  529MOL0     H72950   4.021   1.593   5.947 -0.2521 -0.0579  0.1937
  529MOL0     H72951   3.865   1.458   5.800  1.7237  2.4418  1.2472
  529MOL0     H72952   3.642   1.326   5.746 -1.1873 -1.1842 -1.2397
  529MOL0     H72953   3.564   1.265   5.880 -0.3956  1.8543 -0.0783
  529MOL0     H72954   3.767   1.101   5.730 -0.7353  3.0004 -4.5921
  529MOL0     H72955   3.650   1.030   5.840 -1.1238 -1.5053 -0.9880
  529MOL0     H72956   3.606   1.177   5.558  0.1373 -0.1501  0.4287
  529MOL0     H72957   3.599   1.011   5.586  3.8585  0.7420  0.1872
  529MOL0     H72958   3.407   1.219   5.681 -0.9235 -0.4588 -2.4293
  529MOL0     H72959   3.377   1.088   5.561 -1.7616  2.1838 -1.3431
  529MOL0     H72960   3.426   0.883   5.543  4.9731 -1.2546  2.2417
  529MOL0     H72961   3.443   0.575   5.495  0.2756  0.5281  0.5750
  529MOL0     H72962   3.401   0.717   5.394 -2.2691 -1.9570 -1.9918
  529MOL0     H72963   3.281   0.610   5.421 -1.5940  1.6905  0.1851
  529MOL0     H72964   3.160   0.236   5.650 -2.2652  3.1168 -0.3787
  529MOL0     H72965   3.043   0.027   5.689  3.8102 -1.4388 -0.6845
  529MOL0     H72966   3.032  -0.088   6.094  0.6368 -1.8931 -0.5998
  529MOL0     H72967   2.853  -0.066   6.102 -1.7232 -2.9191 -0.6147
  529MOL0     H72968   2.973  -0.314   5.984  0.5480 -1.8626  2.2011
  529MOL0     H72969   2.902  -0.294   6.149  1.1917  3.2065  1.6908
  529MOL0     H72970   2.768  -0.258   5.883  4.8583  3.4506  1.3535
  529MOL0     H72971   2.688  -0.216   6.034  1.2482  0.0170  1.3392
  529MOL0     H72972   2.729  -0.467   6.099  0.7736  0.2726  0.3780
  529MOL0     H72973   2.787  -0.484   5.924 -1.0207 -0.3750 -0.3337
  529MOL0     H72974   2.515  -0.412   6.011 -0.9391 -0.5921 -1.3456
  529MOL0     H72975   2.569  -0.431   5.839  1.0496  2.4142  0.6004
  529MOL0     H72976   2.575  -0.640   6.049 -0.4028 -2.4567 -0.5591
  529MOL0     H72977   2.646  -0.646   5.878  1.2377  0.7009  0.5471
  529MOL0     H72978   2.406  -0.603   5.798  4.9490  1.9293  0.2833
  529MOL0     H72979   2.358  -0.603   5.964  0.3794 -1.7342  0.7931
  529MOL0     H72980   2.456  -0.872   5.862 -0.5233 -2.0883  1.1919
  529MOL0     H72981   2.287  -0.817   5.897  0.1890  0.9141  0.8694
  529MOL0     H72982   2.995   0.142   6.108  0.6725 -1.7405  0.1217
  529MOL0     H72983   3.094   0.371   6.049 -0.6593  0.7191 -0.0875
  529MOL0     H72984   3.212   0.651   5.920  0.4343 -1.0264  0.8270
  529MOL0     H72985   3.271   0.879   5.952 -0.6620 -3.6739  1.6053
  529MOL0     H72986   5.041   1.471   5.828 -1.4041  0.1461  3.6444
  529MOL0     H72987   5.277   1.471   5.758 -3.8606  1.7930  0.3281
  529MOL0     H72988   5.598   1.096   5.903  0.4446 -0.4314  0.4826
  529MOL0     H72989   5.825   0.975   5.897 -0.0043  0.2636 -0.4393
  529MOL0     H72990   6.173   0.941   5.603 -1.8379 -0.7792 -0.0762
  529MOL0     H72991   6.093   1.075   5.547  5.6118  0.3564 -1.7007
  529MOL0     H72992   6.330   1.107   5.652 -0.8439  5.8586 -0.9579
  529MOL0     H72993   6.269   1.044   5.799 -1.5737 -2.1977 -1.8723
  529MOL0     H72994   6.118   1.283   5.659  0.0713  1.1786 -0.8975
  529MOL0     H72995   6.106   1.243   5.820 -1.7151  1.0378 -1.7132
  529MOL0     H72996   6.330   1.334   5.867 -3.4990 -2.0739  1.0977
  529MOL0     H72997   6.230   1.445   5.779 -1.1871 -1.0795  0.3226
  529MOL0     H72998   6.532   1.387   5.479  2.0332  0.3460  1.5673
  529MOL0     H72999   5.928   1.153   5.542  1.6383 -0.9457  2.3519
  529MOL0     H73000   5.800   1.394   5.493  4.7493 -3.0180  2.7477
  529MOL0     H73001   5.700   1.260   5.432  3.0102 -1.6535  0.2704
  529MOL0     H73002   5.633   1.390   5.549  1.0493  0.1336 -0.5995
  530MOL0     O73003   2.757  10.115   1.977 -0.0300  0.3100  0.3364
  530MOL0     C73004   2.682  10.209   1.996 -0.7082 -0.6043 -0.1899
  530MOL0     O73005   2.665  10.279   2.111  0.2417 -0.9944 -0.2286
  530MOL0     C73006   2.777  10.291   2.194  0.0144  1.3690  0.7171
  530MOL0     C73007   2.896  10.369   2.163  0.3524  0.7235  0.2405
  530MOL0     C73008   2.988  10.382   2.268 -0.0690  0.5058  0.5253
  530MOL0     C73009   2.976  10.323   2.391 -0.2101 -0.4538  0.2622
  530MOL0     O73010   3.067  10.343   2.488  0.2737 -0.6770  0.0050
  530MOL0     C73011   3.192  10.282   2.466  0.6472  0.5598  0.4210
  530MOL0     C73012   3.210  10.182   2.582 -0.8347  0.2957 -0.1307
  530MOL0     C73013   3.128  10.057   2.576  0.4105  0.4425  0.3167
  530MOL0     C73014   3.070  10.003   2.707 -0.1840  0.1854 -0.3837
  530MOL0     C73015   2.917   9.954   2.689 -0.6718 -0.5334  0.1401
  530MOL0     C73016   2.906   9.847   2.576 -0.2869  0.2046 -0.2174
  530MOL0     C73017   2.827   9.884   2.451  0.6617 -0.0863 -0.8940
  530MOL0     C73018   2.879   9.831   2.319  0.4639  0.2429  0.0448
  530MOL0     N73019   2.994   9.909   2.273 -0.3005  0.8622 -0.2364
  530MOL0     C73020   2.995  10.008   2.182  0.8017 -0.6964 -1.0090
  530MOL0     C73021   3.123  10.042   2.162 -0.2521  0.0690  0.2770
  530MOL0     C73022   3.176  10.137   2.066  0.4868  0.4437  0.0881
  530MOL0     C73023   3.197  10.071   1.927 -0.9780 -0.0322 -0.3718
  530MOL0     C73024   3.072  10.048   1.841  0.1790  0.7138 -0.4776
  530MOL0     C73025   3.088  10.009   1.692 -0.5714 -0.3436  0.1168
  530MOL0     O73026   2.975   9.934   1.633 -0.0049 -0.6661 -0.0753
  530MOL0     C73027   2.990   9.895   1.499 -0.0166  0.2462  0.8716
  530MOL0     C73028   3.092   9.933   1.408 -0.3270 -0.5200  0.0796
  530MOL0     C73029   3.084   9.907   1.273  0.6673  0.4730 -0.6003
  530MOL0     C73030   3.200   9.955   1.179  0.0462 -0.3726 -0.2486
  530MOL0     C73031   2.977   9.821   1.225  0.0657 -0.0242 -0.8200
  530MOL0     C73032   2.950   9.782   1.080 -0.4504 -0.1051  0.2020
  530MOL0     O73033   2.885   9.672   1.069 -0.4274  0.5490  0.4492
  530MOL0     C73034   2.830   9.651   0.950 -0.5365 -0.5802 -0.7464
  530MOL0     C73035   2.905   9.593   0.850  0.3349 -0.2458 -0.2184
  530MOL0     C73036   2.855   9.572   0.725 -0.1897  0.0967  0.4901
  530MOL0     C73037   2.732   9.610   0.687  0.8809  0.1257  0.9174
  530MOL0     O73038   2.694   9.586   0.553  0.0202  0.8815 -0.0824
  530MOL0     C73039   2.553   9.557   0.522  0.4309  0.0235 -0.3520
  530MOL0     C73040   2.557   9.525   0.370  0.0872  0.3253 -0.9547
  530MOL0     C73041   2.422   9.471   0.318  0.4799 -0.9576  0.0789
  530MOL0     C73042   2.425   9.448   0.166  0.1510  0.9058  0.3060
  530MOL0     C73043   2.315   9.344   0.119 -1.6434 -0.1017 -0.4258
  530MOL0     C73044   2.396   9.207   0.123 -0.1731 -0.2130  0.4182
  530MOL0     C73045   2.302   9.090   0.072  0.0580  0.1094  0.1965
  530MOL0     C73046   2.346   9.005  -0.041 -0.4102  0.4922  0.0530
  530MOL0    Cl73047   2.398   9.088  -0.192 -0.2667 -0.6836 -0.1855
  530MOL0     C73048   2.644   9.669   0.788  0.0943  1.0909 -0.2697
  530MOL0     C73049   2.696   9.692   0.913 -0.3461 -0.5009 -0.2578
  530MOL0     O73050   2.982   9.857   0.986  0.0217  0.0492 -0.9931
  530MOL0     C73051   2.881   9.781   1.317  0.1428 -0.4080 -0.5024
  530MOL0     C73052   2.882   9.816   1.449  0.4018 -0.5527 -0.5199
  530MOL0     N73053   3.205   9.962   2.236 -0.1730  0.0280  0.1845
  530MOL0     N73054   3.126   9.877   2.296  0.1175 -0.0182 -0.7740
  530MOL0     C73055   2.860  10.243   2.413 -0.2271  0.2501  0.1600
  530MOL0     C73056   2.767  10.219   2.314  0.9777 -0.6490 -0.6544
  530MOL0     C73057   2.604  10.248   1.883 -0.5749 -0.1590 -0.5604
  530MOL0     C73058   2.645  10.217   1.753  0.6023  0.4979 -0.1772
  530MOL0     C73059   2.564  10.234   1.643  0.5375 -0.1795  0.0004
  530MOL0     C73060   2.436  10.293   1.654  0.8576  0.8281 -0.1828
  530MOL0     O73061   2.355  10.315   1.547 -0.1327 -0.5266 -0.6558
  530MOL0     C73062   2.343  10.207   1.451  0.1384 -0.5645 -0.5015
  530MOL0     C73063   2.294  10.076   1.508 -0.0369  0.4152 -0.6735
  530MOL0     C73064   2.142  10.086   1.561 -0.4671 -0.1282 -0.2922
  530MOL0     C73065   2.083   9.945   1.580  0.4719 -0.0355 -0.0334
  530MOL0     C73066   1.954   9.963   1.651  0.6592 -0.2877  0.1612
  530MOL0     C73067   1.836   9.954   1.692 -0.1629  0.5491 -0.1131
  530MOL0     C73068   2.398  10.345   1.785 -0.3561  0.0129 -0.1974
  530MOL0     C73069   2.471  10.311   1.900 -0.4295  0.4651  0.4800
  530MOL0     C73070   2.419  10.345   2.031  1.3144 -0.0869  0.0334
  530MOL0     H73071   2.922  10.416   2.069  2.8229  0.4019  0.7044
  530MOL0     H73072   3.080  10.440   2.268  0.5124 -0.3882  1.4988
  530MOL0     H73073   3.269  10.360   2.467  0.5004  0.7121 -0.0691
  530MOL0     H73074   3.213  10.217   2.380  0.2362  2.2233 -0.9836
  530MOL0     H73075   3.314  10.148   2.574 -0.9184 -0.1284  0.4863
  530MOL0     H73076   3.192  10.243   2.671 -2.6115  2.7958 -2.0758
  530MOL0     H73077   3.043  10.080   2.511  0.5362 -0.9241 -0.3616
  530MOL0     H73078   3.180   9.980   2.519  1.7170 -0.6361  2.8121
  530MOL0     H73079   3.132   9.924   2.749 -2.3820 -1.8661 -0.7600
  530MOL0     H73080   3.068  10.085   2.780 -1.6617 -1.8056  1.9492
  530MOL0     H73081   2.855  10.039   2.659  2.6022  1.5459 -1.2998
  530MOL0     H73082   2.876   9.901   2.775 -2.1957 -2.9069 -1.8958
  530MOL0     H73083   3.004   9.802   2.557  1.2894  2.0280  2.7953
  530MOL0     H73084   2.851   9.761   2.616  0.9300 -1.0630 -1.1400
  530MOL0     H73085   2.801   9.990   2.450 -0.7181 -0.3846  0.3493
  530MOL0     H73086   2.733   9.831   2.466  0.1878  0.9614 -0.0330
  530MOL0     H73087   2.898   9.723   2.323  0.7335  0.0501 -3.4850
  530MOL0     H73088   2.794   9.843   2.251  0.0611 -3.5364 -0.3380
  530MOL0     H73089   2.909  10.056   2.136  1.1760  1.1147  0.1003
  530MOL0     H73090   3.272  10.173   2.104  0.8212 -1.5528  1.3287
  530MOL0     H73091   3.109  10.220   2.041  2.5513  2.8987  2.2152
  530MOL0     H73092   3.255  10.148   1.875  1.1492 -0.3442  1.4153
  530MOL0     H73093   3.258   9.981   1.936 -0.1733  0.5721  0.5022
  530MOL0     H73094   3.021   9.972   1.901  1.2457  0.3585  0.0054
  530MOL0     H73095   3.001  10.130   1.832 -1.5951 -0.8506 -1.7910
  530MOL0     H73096   3.123  10.094   1.634  0.6374  0.1405  1.4908
  530MOL0     H73097   3.170   9.936   1.689 -1.9820 -1.9728  0.0550
  530MOL0     H73098   3.172   9.996   1.446 -0.5838  1.0851 -1.9132
  530MOL0     H73099   3.158  10.027   1.108  0.5415  1.6474  1.4085
  530MOL0     H73100   3.251   9.872   1.129 -4.3335 -0.4811 -5.3528
  530MOL0     H73101   3.280  10.006   1.233  1.8985 -1.5706 -1.7424
  530MOL0     H73102   3.004   9.568   0.886  0.4084  1.7150  1.0659
  530MOL0     H73103   2.919   9.525   0.651  2.5859 -0.8043  3.2227
  530MOL0     H73104   2.518   9.471   0.580 -3.9322  0.5215 -1.9164
  530MOL0     H73105   2.485   9.640   0.545 -1.1311 -1.6009  1.1264
  530MOL0     H73106   2.594   9.608   0.308  3.4280 -1.0175 -0.9608
  530MOL0     H73107   2.626   9.441   0.376  1.4431  1.4231 -0.7498
  530MOL0     H73108   2.343   9.540   0.350  1.2879  0.6252 -1.1635
  530MOL0     H73109   2.416   9.371   0.361  0.5459 -0.6277  0.8807
  530MOL0     H73110   2.522   9.406   0.137  0.3435  1.5532  0.0019
  530MOL0     H73111   2.414   9.537   0.104  0.4478 -1.4043 -3.3538
  530MOL0     H73112   2.224   9.333   0.178 -0.8080 -2.4799  0.5337
  530MOL0     H73113   2.283   9.360   0.015 -2.9777  1.9341  0.2336
  530MOL0     H73114   2.440   9.187   0.221  0.3390  1.9670  0.6977
  530MOL0     H73115   2.476   9.214   0.049 -2.7157 -1.8936 -2.7509
  530MOL0     H73116   2.198   9.122   0.060  0.0130  0.4391  1.3900
  530MOL0     H73117   2.287   9.017   0.152  1.2697 -0.4175 -0.0255
  530MOL0     H73118   2.258   8.941  -0.059  1.9322 -3.2914  0.7968
  530MOL0     H73119   2.422   8.935  -0.004 -1.8500 -0.9608  0.4089
  530MOL0     H73120   2.545   9.713   0.777  0.5668  2.7334  1.4077
  530MOL0     H73121   2.647   9.756   0.985  2.0532  2.7835 -1.2737
  530MOL0     H73122   2.793   9.724   1.286  0.2072 -1.7112  1.4976
  530MOL0     H73123   2.796   9.785   1.508  0.2732 -1.2707 -1.0685
  530MOL0     H73124   2.845  10.193   2.508 -0.1293 -2.4978 -1.1537
  530MOL0     H73125   2.679  10.158   2.331  0.3971  0.0051 -1.2958
  530MOL0     H73126   2.743  10.173   1.740  0.4574  0.0678  0.1499
  530MOL0     H73127   2.593  10.190   1.548  0.6318 -2.1610  0.9160
  530MOL0     H73128   2.279  10.238   1.368  0.9940 -0.2470 -1.0447
  530MOL0     H73129   2.438  10.200   1.399  0.0615 -0.9922 -0.5900
  530MOL0     H73130   2.362  10.051   1.589 -1.0649  1.0653  0.4311
  530MOL0     H73131   2.285   9.999   1.431 -3.3768 -1.2972  1.1974
  530MOL0     H73132   2.135  10.144   1.654  0.1416  0.4982 -0.6257
  530MOL0     H73133   2.085  10.145   1.489  0.2193  0.4867 -0.3389
  530MOL0     H73134   2.145   9.879   1.640  1.3860 -0.4566 -1.3917
  530MOL0     H73135   2.063   9.907   1.479 -4.6550  0.9480  0.3475
  530MOL0     H73136   1.732   9.971   1.713 -0.0090 -0.6888  1.9425
  530MOL0     H73137   2.306  10.400   1.799 -0.2769  0.0206  0.2983
  530MOL0     H73138   2.420  10.265   2.106 -2.9282  1.1378  1.6976
  530MOL0     H73139   2.464  10.434   2.076 -2.6588  2.2689 -0.1639
  530MOL0     H73140   2.314  10.374   2.014  2.0620  2.3271 -0.9176
  531MOL0     O73141   0.739   0.511   4.282 -1.0616 -0.5072 -0.3139
  531MOL0     C73142   0.791   0.428   4.210 -0.2508  0.5439  0.3226
  531MOL0     O73143   0.911   0.437   4.131  0.1901 -0.1033  0.5441
  531MOL0     C73144   1.016   0.518   4.154 -0.2411 -0.7879 -0.4225
  531MOL0     C73145   1.012   0.628   4.249  0.0416  0.7277 -0.8839
  531MOL0     C73146   1.132   0.706   4.257  0.4732 -0.2362 -0.1944
  531MOL0     C73147   1.240   0.690   4.170  0.9508 -0.2831 -0.2611
  531MOL0     O73148   1.361   0.757   4.180 -0.6554  0.5733 -1.2073
  531MOL0     C73149   1.408   0.800   4.308  0.6225  0.5383  0.3676
  531MOL0     C73150   1.371   0.948   4.345 -0.0936  0.3760 -0.2989
  531MOL0     C73151   1.391   0.994   4.494  0.8488  0.5364 -0.7901
  531MOL0     C73152   1.269   0.951   4.594 -0.1035 -0.7741  1.1676
  531MOL0     C73153   1.303   1.013   4.723 -0.8034 -0.4224  0.9094
  531MOL0     C73154   1.393   0.932   4.810 -0.7372  0.8816  0.0536
  531MOL0     C73155   1.440   1.005   4.935  0.6952  0.7903 -0.8598
  531MOL0     C73156   1.559   0.934   5.001 -0.2554  0.0668 -0.0786
  531MOL0     N73157   1.578   0.992   5.136 -0.0712  0.6060  1.1536
  531MOL0     C73158   1.488   0.955   5.235  0.3325 -0.1533 -0.4979
  531MOL0     C73159   1.511   1.041   5.332  0.6182  0.2983 -0.5647
  531MOL0     C73160   1.426   1.042   5.454 -0.7652 -0.2113  0.5905
  531MOL0     C73161   1.343   1.168   5.440 -0.8582  0.3463  0.3243
  531MOL0     C73162   1.227   1.170   5.532  0.7844  0.0995  0.1748
  531MOL0     C73163   1.119   1.055   5.533 -1.0855  0.0748  0.1311
  531MOL0     O73164   1.135   0.975   5.414 -0.0962  0.3155 -0.0035
  531MOL0     C73165   1.063   0.994   5.304 -0.0054 -0.1464 -0.1418
  531MOL0     C73166   0.972   1.104   5.286 -0.2844  0.3105 -0.0524
  531MOL0     C73167   0.908   1.130   5.162 -0.4859 -0.8795  1.1234
  531MOL0     C73168   0.842   1.263   5.138 -0.2428 -0.7125  0.4475
  531MOL0     C73169   0.935   1.039   5.059 -0.4521  0.4299 -0.0220
  531MOL0     C73170   0.864   1.048   4.928  0.0482 -0.6057  0.2933
  531MOL0     O73171   0.859   0.932   4.857 -0.0949  0.3398  0.8872
  531MOL0     C73172   0.781   0.924   4.743  0.3683 -0.0505  0.8705
  531MOL0     C73173   0.838   0.854   4.632 -0.7986 -1.1195 -0.0823
  531MOL0     C73174   0.761   0.819   4.519 -0.4768  0.4672  0.1453
  531MOL0     C73175   0.632   0.862   4.506  0.0389 -1.0737 -0.2273
  531MOL0     O73176   0.552   0.814   4.411 -0.6224  0.6447 -0.1894
  531MOL0     C73177   0.486   0.906   4.332  0.7674 -0.7482  0.8371
  531MOL0     C73178   0.397   0.830   4.225 -0.6620  0.3650 -0.3692
  531MOL0     C73179   0.327   0.927   4.142  0.3969  0.7148  0.2519
  531MOL0     C73180   0.308   0.879   3.998  0.9355  0.0847 -0.3958
  531MOL0     C73181   0.271   1.000   3.918 -0.0190  0.0812 -0.7071
  531MOL0     C73182   0.330   1.138   3.935  0.2342 -0.0127 -0.6267
  531MOL0     C73183   0.283   1.241   3.835  0.4906 -0.5258 -0.0354
  531MOL0     C73184   0.317   1.199   3.688 -0.4496  1.3490 -0.2946
  531MOL0    Cl73185   0.484   1.143   3.662 -0.5901  0.6608 -0.0510
  531MOL0     C73186   0.584   0.948   4.613 -0.2916  0.0411 -0.0712
  531MOL0     C73187   0.654   0.980   4.728 -0.2422 -0.3856  0.3103
  531MOL0     O73188   0.851   1.158   4.878  0.7472  0.1358  0.2590
  531MOL0     C73189   1.017   0.922   5.077 -0.2039 -0.1325  0.0047
  531MOL0     C73190   1.073   0.899   5.208  0.2722 -0.2570 -0.6075
  531MOL0     N73191   1.611   1.135   5.288  0.6383 -1.1042 -0.6794
  531MOL0     N73192   1.651   1.100   5.167 -0.0243 -0.6846  0.3783
  531MOL0     C73193   1.237   0.592   4.076  0.1402 -0.1504 -0.3227
  531MOL0     C73194   1.129   0.508   4.068 -0.7000  0.3249  0.7741
  531MOL0     C73195   0.719   0.295   4.195  0.0211  0.0593 -0.6371
  531MOL0     C73196   0.802   0.186   4.166  0.8156 -0.4090  0.1831
  531MOL0     C73197   0.752   0.057   4.131 -0.8820 -0.8328  0.5334
  531MOL0     C73198   0.612   0.042   4.116 -0.7789  0.0162  0.1550
  531MOL0     O73199   0.541  -0.073   4.085  0.4682 -1.4545 -0.8471
  531MOL0     C73200   0.586  -0.206   4.106 -0.4772 -0.2088  0.5827
  531MOL0     C73201   0.657  -0.253   3.989 -0.1592 -0.2572  0.5881
  531MOL0     C73202   0.680  -0.400   3.979  0.5957  0.4048 -0.6914
  531MOL0     C73203   0.779  -0.450   3.873  0.4975  0.0065  0.3529
  531MOL0     C73204   0.916  -0.400   3.885 -0.4119  1.3036 -0.7721
  531MOL0     C73205   1.041  -0.362   3.902  0.9415 -0.1163  0.0650
  531MOL0     C73206   0.532   0.157   4.145 -0.2121  0.8893 -0.0750
  531MOL0     C73207   0.585   0.284   4.184  0.6532  0.1773 -0.5657
  531MOL0     C73208   0.484   0.398   4.209 -0.0399 -0.3091  0.7013
  531MOL0     H73209   0.926   0.655   4.308 -0.6212  3.8047 -3.0024
  531MOL0     H73210   1.134   0.796   4.317  3.1287  0.5583 -1.3359
  531MOL0     H73211   1.515   0.788   4.326  0.6756 -0.7126 -0.7027
  531MOL0     H73212   1.369   0.723   4.375  0.4447 -1.0943 -1.5306
  531MOL0     H73213   1.425   1.024   4.288 -1.0234  0.0054 -1.7119
  531MOL0     H73214   1.268   0.963   4.314  0.0804  0.0942 -1.0249
  531MOL0     H73215   1.486   0.959   4.536  0.1347  0.3910  0.7786
  531MOL0     H73216   1.391   1.102   4.477  1.7961  0.3230 -2.4252
  531MOL0     H73217   1.171   0.988   4.563  0.6032  1.5576  1.5346
  531MOL0     H73218   1.254   0.843   4.592 -0.2878 -0.7997 -2.5643
  531MOL0     H73219   1.211   1.022   4.782 -3.1146 -2.7480 -2.0456
  531MOL0     H73220   1.346   1.113   4.713  2.2447 -1.6035  0.9523
  531MOL0     H73221   1.346   0.840   4.844 -2.2916  0.9271 -1.8305
  531MOL0     H73222   1.483   0.893   4.762  2.0502  1.8119  3.9699
  531MOL0     H73223   1.359   0.999   5.009  1.0169  0.9135 -0.4958
  531MOL0     H73224   1.471   1.106   4.907  1.0024  0.8435 -0.3373
  531MOL0     H73225   1.551   0.825   5.008 -3.8307  0.2785  0.8577
  531MOL0     H73226   1.644   0.950   4.934 -1.6344 -3.7979 -3.1410
  531MOL0     H73227   1.404   0.885   5.232 -0.3184  0.6048 -0.2572
  531MOL0     H73228   1.490   1.045   5.542  2.4877  1.4686 -1.6387
  531MOL0     H73229   1.368   0.949   5.449 -0.5737 -0.2615 -2.5082
  531MOL0     H73230   1.400   1.262   5.447  1.5728 -0.9397 -0.8794
  531MOL0     H73231   1.290   1.157   5.345 -1.5284 -2.3491  0.9440
  531MOL0     H73232   1.265   1.180   5.634  2.2484  0.0603 -0.3453
  531MOL0     H73233   1.175   1.265   5.521  1.1382  0.5515  2.0524
  531MOL0     H73234   1.147   0.981   5.608  0.3381  0.6058  0.1619
  531MOL0     H73235   1.021   1.092   5.563  0.7625  2.9351  3.3456
  531MOL0     H73236   0.951   1.167   5.372 -0.2085 -0.5063  0.5773
  531MOL0     H73237   0.752   1.251   5.077  1.7191 -0.3384 -2.7371
  531MOL0     H73238   0.909   1.333   5.088  0.8041 -2.2009 -0.3223
  531MOL0     H73239   0.817   1.311   5.233 -1.5072  0.4300 -0.4283
  531MOL0     H73240   0.941   0.822   4.628  0.2380  2.0723 -2.2816
  531MOL0     H73241   0.798   0.760   4.436  2.4656  0.4305  1.3586
  531MOL0     H73242   0.423   0.973   4.391  0.6848 -1.2704  1.3545
  531MOL0     H73243   0.555   0.963   4.269 -4.7571  1.1218 -4.5591
  531MOL0     H73244   0.469   0.770   4.169  1.7412  1.7182  1.0879
  531MOL0     H73245   0.327   0.773   4.286  1.0097  3.6213  5.2509
  531MOL0     H73246   0.392   1.015   4.137  1.8355 -0.3887 -1.3652
  531MOL0     H73247   0.234   0.951   4.195 -0.2560  0.0300 -0.5711
  531MOL0     H73248   0.237   0.796   3.991 -0.2073  1.2066 -4.0330
  531MOL0     H73249   0.395   0.832   3.950  0.4405 -2.6604  1.1364
  531MOL0     H73250   0.310   0.971   3.820 -0.3991 -0.5711 -0.6729
  531MOL0     H73251   0.163   1.013   3.902 -0.2334  0.3073  0.7698
  531MOL0     H73252   0.440   1.141   3.942  0.4362  1.2420 -3.2871
  531MOL0     H73253   0.294   1.170   4.033  0.0326 -0.4708 -0.5457
  531MOL0     H73254   0.337   1.335   3.846  2.4256 -1.4932 -0.7267
  531MOL0     H73255   0.179   1.266   3.857  0.5772  0.9533 -1.1374
  531MOL0     H73256   0.296   1.272   3.610  0.1513 -0.3285 -2.1074
  531MOL0     H73257   0.249   1.115   3.673  0.9353  0.2875 -0.8867
  531MOL0     H73258   0.482   0.984   4.605 -0.6417 -0.6542  1.0361
  531MOL0     H73259   0.610   1.042   4.805  5.5978  1.3574  2.8657
  531MOL0     H73260   1.033   0.846   5.002  1.8713 -0.2023  0.4634
  531MOL0     H73261   1.126   0.806   5.226  0.0803 -0.2869 -0.1746
  531MOL0     H73262   1.313   0.597   3.999 -2.0234  1.7789 -2.4693
  531MOL0     H73263   1.128   0.441   3.983 -1.2889 -1.0450  1.8275
  531MOL0     H73264   0.906   0.214   4.173  0.4652  0.5379  2.2252
  531MOL0     H73265   0.821  -0.020   4.099 -1.1792 -1.2546  0.8916
  531MOL0     H73266   0.651  -0.204   4.195  1.4204  1.5895 -0.7331
  531MOL0     H73267   0.503  -0.274   4.126 -0.2990  0.4638  4.4128
  531MOL0     H73268   0.753  -0.204   3.970  0.2983 -2.1421 -2.9654
  531MOL0     H73269   0.610  -0.222   3.895  3.3751  1.5747 -0.7674
  531MOL0     H73270   0.708  -0.426   4.082  0.1174  2.3862 -0.0137
  531MOL0     H73271   0.583  -0.439   3.945  1.6030 -2.2133 -0.8243
  531MOL0     H73272   0.746  -0.411   3.776 -0.9033  0.1790  0.8735
  531MOL0     H73273   0.790  -0.559   3.871  1.0538  0.0684 -0.8591
  531MOL0     H73274   1.146  -0.341   3.914  0.2978  2.8556  1.5768
  531MOL0     H73275   0.424   0.150   4.135 -0.1018 -1.4574 -0.1119
  531MOL0     H73276   0.492   0.426   4.314  4.0626  0.3886  0.3912
  531MOL0     H73277   0.510   0.489   4.154  0.4363 -1.1666 -0.5493
  531MOL0     H73278   0.382   0.370   4.181  0.1479 -3.4910  2.7103
  532MOL0     O73279   3.497   9.873   5.921 -0.8104 -0.4849 -0.0586
  532MOL0     C73280   3.463   9.884   5.805 -0.1861 -0.4558 -0.9187
  532MOL0     O73281   3.490   9.798   5.709 -0.2649 -0.1127  0.0686
  532MOL0     C73282   3.553   9.685   5.749  0.0694  0.6800 -1.0031
  532MOL0     C73283   3.477   9.572   5.782 -0.4000 -0.0529  0.3163
  532MOL0     C73284   3.548   9.445   5.816  0.3157  0.9567  0.6369
  532MOL0     C73285   3.691   9.433   5.800  0.8353  0.3823 -0.2932
  532MOL0     O73286   3.755   9.317   5.838 -0.7535 -0.3266 -0.2037
  532MOL0     C73287   3.725   9.200   5.758 -0.1681 -0.6917 -0.1581
  532MOL0     C73288   3.842   9.098   5.781 -0.0442  0.0440 -0.8893
  532MOL0     C73289   3.854   9.034   5.925  0.3540 -0.3560  0.5265
  532MOL0     C73290   3.971   8.938   5.927 -0.5193  0.3686  0.2085
  532MOL0     C73291   4.015   8.898   6.071 -0.4922 -0.4786  0.5141
  532MOL0     C73292   3.911   8.831   6.158  0.4186  0.3803 -0.3364
  532MOL0     C73293   3.942   8.806   6.307 -1.1655 -0.5935 -0.4757
  532MOL0     C73294   4.049   8.700   6.320 -0.5283  0.3538  0.3109
  532MOL0     N73295   4.004   8.596   6.411 -0.1010  0.6635  0.1868
  532MOL0     C73296   3.989   8.611   6.546 -0.8502 -0.3216 -0.4569
  532MOL0     C73297   3.980   8.491   6.603 -0.2993  0.4628 -0.4232
  532MOL0     C73298   3.960   8.492   6.750  0.2019 -0.9245 -0.4282
  532MOL0     C73299   3.947   8.341   6.803  0.5457 -0.2913 -0.3499
  532MOL0     C73300   4.083   8.278   6.807 -0.1388 -0.6752  0.3801
  532MOL0     C73301   4.083   8.123   6.834  0.0794  0.1322 -0.2840
  532MOL0     O73302   4.001   8.100   6.949  0.3890  0.0128 -0.1432
  532MOL0     C73303   3.966   7.971   6.958  1.0324 -0.3195  1.3956
  532MOL0     C73304   4.058   7.866   6.975  0.3199 -0.4571  1.0302
  532MOL0     C73305   4.020   7.736   6.969 -0.2155 -0.4289  0.1752
  532MOL0     C73306   4.134   7.641   6.976  0.1745 -0.3537 -0.2953
  532MOL0     C73307   3.884   7.693   6.954 -0.4400 -0.5523 -0.3849
  532MOL0     C73308   3.836   7.558   6.940  0.8072 -0.0506  0.7728
  532MOL0     O73309   3.881   7.473   7.029 -0.0666  0.1897 -0.3460
  532MOL0     C73310   3.896   7.341   6.997 -0.6821 -0.6160  0.6971
  532MOL0     C73311   3.850   7.240   7.080 -0.3372  0.4025  0.2920
  532MOL0     C73312   3.865   7.107   7.049  0.8621  0.7846  0.4734
  532MOL0     C73313   3.906   7.066   6.926  0.2933 -0.0674 -1.0386
  532MOL0     O73314   3.934   6.939   6.896  0.5675  0.0896  0.0176
  532MOL0     C73315   3.862   6.831   6.959 -0.0654  0.8058 -0.8304
  532MOL0     C73316   3.885   6.693   6.888 -0.3217  0.3485 -0.4830
  532MOL0     C73317   3.855   6.715   6.738 -0.1640 -0.3929 -0.1841
  532MOL0     C73318   3.869   6.581   6.663 -0.3844  0.1765 -0.0368
  532MOL0     C73319   3.802   6.601   6.523 -0.3200  1.3311 -0.2637
  532MOL0     C73320   3.869   6.496   6.433 -0.0945  0.0949 -0.6032
  532MOL0     C73321   3.862   6.530   6.287 -0.2523 -0.0306 -0.7270
  532MOL0     C73322   3.721   6.549   6.234 -0.7179 -0.3897 -0.5645
  532MOL0    Cl73323   3.597   6.426   6.283 -0.1015  0.0459 -0.3357
  532MOL0     C73324   3.955   7.170   6.835  0.0817  0.8812 -0.4191
  532MOL0     C73325   3.937   7.300   6.862 -0.3629 -0.0682 -0.3994
  532MOL0     O73326   3.734   7.537   6.874 -0.2098 -0.8989 -0.8459
  532MOL0     C73327   3.794   7.802   6.965 -0.1188 -0.0020  0.0717
  532MOL0     C73328   3.832   7.936   6.952  0.3650  0.7036  0.8996
  532MOL0     N73329   4.006   8.391   6.504  0.1038  0.8736 -0.6636
  532MOL0     N73330   4.026   8.463   6.393 -0.8082 -0.6070  0.1103
  532MOL0     C73331   3.757   9.541   5.770 -0.6887 -0.1783  0.1766
  532MOL0     C73332   3.698   9.668   5.751  1.0032 -0.9708  0.7154
  532MOL0     C73333   3.363   9.993   5.765  0.5531  0.9111 -0.0793
  532MOL0     C73334   3.313   9.992   5.636 -0.3077 -0.0127  0.0739
  532MOL0     C73335   3.230  10.095   5.590 -0.4831  0.3409 -0.3222
  532MOL0     C73336   3.200  10.204   5.674 -0.0347 -0.0501 -0.4191
  532MOL0     O73337   3.128  10.309   5.636  0.1273  0.0319  0.5716
  532MOL0     C73338   3.155  10.356   5.504 -0.2048 -0.4025 -0.2580
  532MOL0     C73339   3.048  10.470   5.463 -0.1154 -0.1819  0.3094
  532MOL0     C73340   3.020  10.483   5.311 -0.1241 -0.4908 -0.5320
  532MOL0     C73341   3.125  10.531   5.207 -0.4752  0.1234  0.3357
  532MOL0     C73342   3.207  10.647   5.256  1.2277 -0.7047  0.8355
  532MOL0     C73343   3.277  10.733   5.300 -0.5637 -0.6334 -0.4689
  532MOL0     C73344   3.233  10.186   5.808 -0.4638 -0.9733 -0.5491
  532MOL0     C73345   3.322  10.090   5.849 -0.7263 -0.1397  0.5920
  532MOL0     C73346   3.376  10.110   5.988  0.2663  0.1790 -0.7131
  532MOL0     H73347   3.370   9.587   5.792 -0.5329 -0.2504 -0.6579
  532MOL0     H73348   3.496   9.360   5.857  0.5456 -0.3139 -1.5257
  532MOL0     H73349   3.721   9.225   5.652  0.3320 -0.4716 -0.1259
  532MOL0     H73350   3.627   9.158   5.784 -0.8223  0.0202 -1.3805
  532MOL0     H73351   3.829   9.022   5.704  2.9810 -0.8098 -0.6705
  532MOL0     H73352   3.942   9.136   5.758 -0.8331  4.5042  1.7239
  532MOL0     H73353   3.868   9.111   6.002  0.6159  1.4452 -1.2338
  532MOL0     H73354   3.767   8.975   5.954 -0.0865  0.4068  0.8014
  532MOL0     H73355   3.953   8.843   5.876  1.2414 -3.2779  5.5572
  532MOL0     H73356   4.050   8.993   5.874 -0.7385 -1.8245 -2.6605
  532MOL0     H73357   4.051   8.994   6.106 -3.8506  0.0849  2.9171
  532MOL0     H73358   4.099   8.829   6.062 -0.3501 -0.4723  1.7007
  532MOL0     H73359   3.820   8.892   6.161 -0.3108 -0.6757 -0.3636
  532MOL0     H73360   3.881   8.748   6.092  0.3210  0.9629 -1.0338
  532MOL0     H73361   3.852   8.767   6.356 -0.0038  0.6555  2.9274
  532MOL0     H73362   3.978   8.888   6.368  3.2805 -2.0185 -0.7753
  532MOL0     H73363   4.067   8.650   6.225  4.0495  1.0169  0.6202
  532MOL0     H73364   4.140   8.757   6.340 -0.7764  0.5363  0.9468
  532MOL0     H73365   3.994   8.706   6.598 -0.3167 -2.4252  3.8267
  532MOL0     H73366   3.872   8.554   6.772 -0.6653 -0.1595 -5.0268
  532MOL0     H73367   4.045   8.540   6.799  1.1123  1.0050 -3.6481
  532MOL0     H73368   3.900   8.341   6.902 -0.0138 -0.7254 -0.6128
  532MOL0     H73369   3.884   8.284   6.734 -1.9904 -2.7331  3.5494
  532MOL0     H73370   4.120   8.308   6.709 -2.7739 -0.6561 -0.6794
  532MOL0     H73371   4.145   8.331   6.881 -1.1317  0.8146  0.1723
  532MOL0     H73372   4.040   8.057   6.758  0.1896 -3.8286  2.7246
  532MOL0     H73373   4.182   8.082   6.854 -0.4955 -0.2607  2.1063
  532MOL0     H73374   4.164   7.885   6.989  0.6598 -0.9199 -0.6895
  532MOL0     H73375   4.215   7.689   6.920  0.7797  2.2863  2.5570
  532MOL0     H73376   4.098   7.547   6.934 -0.1529 -0.8308  1.0025
  532MOL0     H73377   4.163   7.612   7.078  0.9466 -0.3512 -0.5166
  532MOL0     H73378   3.820   7.268   7.181  1.6580  1.1331  0.7307
  532MOL0     H73379   3.834   7.040   7.129 -2.6984  1.6373 -0.0130
  532MOL0     H73380   3.895   6.817   7.062  1.4819 -0.9007 -1.4960
  532MOL0     H73381   3.754   6.851   6.967 -0.4551 -1.3801  0.2699
  532MOL0     H73382   3.994   6.684   6.895 -0.2670  1.3072  0.2107
  532MOL0     H73383   3.821   6.615   6.930  0.2578  1.0289  1.8271
  532MOL0     H73384   3.916   6.792   6.690  1.7503 -1.2892  0.6993
  532MOL0     H73385   3.754   6.754   6.724 -0.1240 -1.1824 -3.6621
  532MOL0     H73386   3.824   6.497   6.717  1.3925 -2.3274 -2.2334
  532MOL0     H73387   3.978   6.570   6.661 -0.4250 -0.1813 -1.4758
  532MOL0     H73388   3.693   6.597   6.516 -0.2727 -0.4695 -0.3762
  532MOL0     H73389   3.840   6.700   6.494  3.7969 -0.2161 -0.9205
  532MOL0     H73390   3.812   6.402   6.440  0.2580 -0.2011 -1.4978
  532MOL0     H73391   3.972   6.482   6.467  0.5343  4.4671 -0.1728
  532MOL0     H73392   3.904   6.464   6.211 -4.5779 -0.1243 -3.3352
  532MOL0     H73393   3.920   6.621   6.270 -0.4824 -0.3642 -3.9809
  532MOL0     H73394   3.730   6.540   6.125 -1.9596 -3.3385 -0.5247
  532MOL0     H73395   3.687   6.643   6.277  0.3882 -0.8571  1.4813
  532MOL0     H73396   4.010   7.133   6.748  2.3107 -0.6075  1.4818
  532MOL0     H73397   3.970   7.373   6.789  1.6448 -0.0226  0.4902
  532MOL0     H73398   3.685   7.796   6.969 -0.6645  5.2769  0.6091
  532MOL0     H73399   3.761   8.012   6.919  0.7973  1.0746  0.8065
  532MOL0     H73400   3.865   9.534   5.766 -0.5612  0.8749  1.0888
  532MOL0     H73401   3.761   9.756   5.743 -0.4268  0.0120 -0.1069
  532MOL0     H73402   3.337   9.914   5.565 -0.9566 -0.6094  0.4981
  532MOL0     H73403   3.211  10.080   5.484  0.9115  0.3222 -0.5883
  532MOL0     H73404   3.253  10.403   5.498 -0.3361 -0.2333 -1.1731
  532MOL0     H73405   3.147  10.279   5.427  3.4205  0.1118 -1.3376
  532MOL0     H73406   3.089  10.563   5.504 -0.2763  0.4075 -0.8219
  532MOL0     H73407   2.956  10.434   5.510 -1.0298 -5.0053 -4.2128
  532MOL0     H73408   2.989  10.381   5.285  1.4370 -1.4458  1.1033
  532MOL0     H73409   2.940  10.556   5.295  2.9556  2.6688 -2.9718
  532MOL0     H73410   3.075  10.550   5.112 -1.5375 -2.2102  0.3721
  532MOL0     H73411   3.187  10.443   5.186  2.3265  1.8901  0.6511
  532MOL0     H73412   3.340  10.809   5.341  0.6966 -0.8468 -1.9656
  532MOL0     H73413   3.207  10.270   5.872  2.6372 -0.3906  0.1215
  532MOL0     H73414   3.339  10.203   6.031 -0.0775  0.9820 -2.6202
  532MOL0     H73415   3.347  10.029   6.056 -0.0787  1.6816  1.0005
  532MOL0     H73416   3.484  10.125   5.997 -0.0027  0.9272  2.4354
  533MOL0     O73417   7.566  10.577   3.665 -0.6187  0.2101  0.5696
  533MOL0     C73418   7.511  10.471   3.668  0.8479  0.8142 -1.0505
  533MOL0     O73419   7.393  10.442   3.731  0.6619 -0.9267  0.4094
  533MOL0     C73420   7.293  10.529   3.755  0.0203  0.1935 -0.4884
  533MOL0     C73421   7.178  10.471   3.804  0.2305  1.1793  0.4393
  533MOL0     C73422   7.060  10.550   3.807 -0.1100  0.7215  0.6547
  533MOL0     C73423   7.061  10.686   3.769  0.3293  0.1107 -1.0223
  533MOL0     O73424   6.950  10.772   3.778 -0.0839 -0.1940 -0.1937
  533MOL0     C73425   6.835  10.722   3.717 -0.6761 -0.6769  0.3287
  533MOL0     C73426   6.728  10.832   3.709  0.5567 -0.3573  0.3391
  533MOL0     C73427   6.611  10.794   3.625  0.1717  0.0895 -0.0987
  533MOL0     C73428   6.507  10.902   3.614  0.4260  0.7883  0.5213
  533MOL0     C73429   6.379  10.846   3.543  0.4110 -1.0300 -0.8973
  533MOL0     C73430   6.288  10.965   3.511 -0.4227  0.2748 -0.3123
  533MOL0     C73431   6.151  10.929   3.454  0.0614 -0.3638  0.3977
  533MOL0     C73432   6.060  11.059   3.444 -0.2884  0.3312  0.2786
  533MOL0     N73433   5.936  11.052   3.366  0.7373  0.2874 -0.1122
  533MOL0     C73434   5.948  11.030   3.227  0.0349 -0.0810  0.8602
  533MOL0     C73435   5.820  11.038   3.176  0.4334 -0.1734 -0.1475
  533MOL0     C73436   5.791  11.041   3.028  0.5138  0.1715 -1.0832
  533MOL0     C73437   5.817  11.185   2.974  0.0612 -0.3961 -0.0898
  533MOL0     C73438   5.787  11.230   2.833 -0.3710 -0.3562 -0.6959
  533MOL0     C73439   5.716  11.136   2.742  0.4902 -0.3055 -0.5435
  533MOL0     O73440   5.644  11.199   2.630 -0.0048 -0.9339  0.3878
  533MOL0     C73441   5.705  11.247   2.513 -0.1393  0.1900 -0.5614
  533MOL0     C73442   5.839  11.212   2.478 -0.0671 -0.2008  0.0717
  533MOL0     C73443   5.893  11.251   2.345  1.1274  0.4456 -0.1550
  533MOL0     C73444   6.029  11.194   2.325  0.1383  0.3099 -0.5964
  533MOL0     C73445   5.816  11.333   2.259  0.0068 -0.3858  0.0887
  533MOL0     C73446   5.872  11.388   2.129 -0.9246  0.8274  0.6531
  533MOL0     O73447   5.789  11.402   2.027  0.0969 -0.4914 -0.2104
  533MOL0     C73448   5.818  11.436   1.898  0.7144  1.0894  0.0284
  533MOL0     C73449   5.749  11.551   1.838 -0.0788 -0.1094 -0.2505
  533MOL0     C73450   5.784  11.605   1.712  1.2230  0.4721 -0.9379
  533MOL0     C73451   5.888  11.538   1.633  0.1838  0.0806  0.2815
  533MOL0     O73452   5.927  11.568   1.510  0.4452 -0.0199  0.8023
  533MOL0     C73453   5.905  11.707   1.478 -0.3724 -0.2881 -0.2223
  533MOL0     C73454   5.990  11.743   1.358 -0.2464  0.1599 -0.1406
  533MOL0     C73455   5.958  11.884   1.305  0.3930 -0.3862 -0.7445
  533MOL0     C73456   6.059  11.936   1.209  0.7570 -0.4807  0.4534
  533MOL0     C73457   6.031  11.906   1.067  0.7834 -0.0588 -0.0885
  533MOL0     C73458   6.157  11.878   0.984  0.5137  0.6608  0.3298
  533MOL0     C73459   6.122  11.881   0.836  0.8117 -0.0100 -0.1229
  533MOL0     C73460   6.253  11.881   0.752  0.1257 -0.1009 -0.8415
  533MOL0    Cl73461   6.357  11.734   0.784 -0.0714 -0.3655  0.2297
  533MOL0     C73462   5.950  11.417   1.686 -0.8609  0.3563  0.1377
  533MOL0     C73463   5.918  11.372   1.818  0.1072 -0.0812 -0.3935
  533MOL0     O73464   5.982  11.441   2.138 -0.0281 -0.1711  0.0785
  533MOL0     C73465   5.679  11.363   2.298 -0.1378  0.5503 -0.4086
  533MOL0     C73466   5.628  11.316   2.424 -0.1490 -0.4919  0.3639
  533MOL0     N73467   5.741  11.044   3.289  0.4870  0.0663  0.4326
  533MOL0     N73468   5.805  11.040   3.400 -0.3192  1.2722 -0.3048
  533MOL0     C73469   7.185  10.733   3.728  0.3541 -1.0170 -0.3491
  533MOL0     C73470   7.304  10.664   3.712 -0.5837  0.0752  0.4573
  533MOL0     C73471   7.567  10.358   3.615 -0.1081  0.5435  0.3383
  533MOL0     C73472   7.495  10.235   3.587  0.1338  0.6169 -0.5018
  533MOL0     C73473   7.554  10.125   3.535 -0.5403 -0.4591  0.3479
  533MOL0     C73474   7.691  10.117   3.519 -0.4388 -0.5172 -0.7626
  533MOL0     O73475   7.743  10.002   3.464  0.0245  0.2335 -0.7256
  533MOL0     C73476   7.871   9.958   3.513  1.0632  0.0327 -0.6052
  533MOL0     C73477   7.865   9.808   3.512 -0.3362  0.1480 -0.4889
  533MOL0     C73478   7.863   9.759   3.368 -0.2153  0.0854  0.0464
  533MOL0     C73479   7.874   9.605   3.358  0.9768 -0.1122 -0.9627
  533MOL0     C73480   7.902   9.579   3.212  0.5380 -0.4687  0.2896
  533MOL0     C73481   7.946   9.562   3.101  0.8076  0.1491 -0.1144
  533MOL0     C73482   7.760  10.228   3.548  0.4282 -0.4057 -0.6153
  533MOL0     C73483   7.707  10.354   3.590  0.2948  0.3163  0.0182
  533MOL0     C73484   7.818  10.465   3.614  0.6876  0.2673  1.0429
  533MOL0     H73485   7.168  10.366   3.829  1.7922  0.3029 -2.2418
  533MOL0     H73486   6.964  10.506   3.830 -0.3544  0.2686 -1.1080
  533MOL0     H73487   6.793  10.635   3.769 -2.0526 -0.5001 -0.4310
  533MOL0     H73488   6.853  10.693   3.613 -0.5051 -3.5844  1.0684
  533MOL0     H73489   6.696  10.852   3.812  0.2426  1.4627 -0.0842
  533MOL0     H73490   6.769  10.919   3.655 -1.7984 -0.3480 -1.5788
  533MOL0     H73491   6.652  10.774   3.526  1.6522  0.0775  0.4901
  533MOL0     H73492   6.575  10.700   3.668  1.9548 -1.9554 -2.7409
  533MOL0     H73493   6.475  10.937   3.712  1.1161  0.0605  1.0178
  533MOL0     H73494   6.561  10.977   3.556 -0.4289  1.7042  0.8926
  533MOL0     H73495   6.324  10.787   3.617 -2.2445  1.9046 -0.3148
  533MOL0     H73496   6.388  10.781   3.456 -2.5567  1.2416 -3.0907
  533MOL0     H73497   6.271  11.036   3.593 -1.2679  3.9753 -3.4072
  533MOL0     H73498   6.328  11.029   3.432 -5.6492  2.6303 -1.5356
  533MOL0     H73499   6.100  10.865   3.527  1.4511 -1.5837  0.3328
  533MOL0     H73500   6.161  10.880   3.357  0.5859 -2.5521  1.4893
  533MOL0     H73501   6.024  11.087   3.544 -0.0315 -0.2067  0.5245
  533MOL0     H73502   6.123  11.140   3.406  0.6983  0.3787  1.8945
  533MOL0     H73503   6.045  11.015   3.179  0.2953 -0.1722  1.4118
  533MOL0     H73504   5.687  11.012   3.008 -0.4941  3.0217 -0.5647
  533MOL0     H73505   5.856  10.966   2.982  0.0579 -0.0252 -1.4143
  533MOL0     H73506   5.773  11.256   3.045  1.0324 -1.4564  1.6277
  533MOL0     H73507   5.923  11.204   2.989  0.5563  1.3958 -4.3449
  533MOL0     H73508   5.733  11.321   2.857  2.4029  1.1350  0.3142
  533MOL0     H73509   5.877  11.268   2.783 -0.2252  3.8429  2.2646
  533MOL0     H73510   5.770  11.046   2.712 -0.8555 -0.3119 -3.2588
  533MOL0     H73511   5.627  11.099   2.794 -2.8050  0.0931 -5.2346
  533MOL0     H73512   5.901  11.157   2.549  2.0818 -0.8285 -2.1516
  533MOL0     H73513   6.107  11.259   2.364  0.7936 -0.3832 -0.7382
  533MOL0     H73514   6.061  11.188   2.220 -0.5963  0.3550 -0.8355
  533MOL0     H73515   6.032  11.093   2.366  3.4092  0.0971 -1.0754
  533MOL0     H73516   5.674  11.604   1.896  0.3519  1.2801 -0.9218
  533MOL0     H73517   5.715  11.687   1.695 -1.8629 -1.1630  2.3367
  533MOL0     H73518   5.802  11.722   1.446 -1.0121 -2.2088  0.8139
  533MOL0     H73519   5.930  11.782   1.554  1.7622 -0.6749 -0.4877
  533MOL0     H73520   6.095  11.733   1.386 -0.3978 -2.7647 -0.3409
  533MOL0     H73521   5.979  11.668   1.279  0.6668  0.9531 -1.0526
  533MOL0     H73522   5.958  11.948   1.394  0.3793  0.0847 -1.0806
  533MOL0     H73523   5.858  11.892   1.261 -0.6854 -1.6601  1.3006
  533MOL0     H73524   6.159  11.900   1.235  0.6937 -1.0839 -0.0967
  533MOL0     H73525   6.053  12.045   1.219  0.8287 -0.4909  0.6115
  533MOL0     H73526   5.971  11.814   1.062  1.0544 -0.1996 -4.1227
  533MOL0     H73527   5.962  11.977   1.020 -1.0143 -2.4773 -1.3245
  533MOL0     H73528   6.206  11.783   1.005 -1.7201 -0.9423 -1.2091
  533MOL0     H73529   6.231  11.955   1.007 -0.0308  1.1479  0.4715
  533MOL0     H73530   6.058  11.968   0.822  0.0500 -0.7385 -1.3455
  533MOL0     H73531   6.067  11.791   0.806 -1.3185  1.4258 -0.6518
  533MOL0     H73532   6.315  11.961   0.794 -1.2726  1.0627 -0.8705
  533MOL0     H73533   6.225  11.902   0.648 -0.3151  1.1709 -0.4846
  533MOL0     H73534   6.025  11.364   1.627 -1.9187 -0.2349 -0.7134
  533MOL0     H73535   5.986  11.296   1.856  2.4599  3.2487  2.8025
  533MOL0     H73536   5.625  11.433   2.234 -1.0103  1.1821  0.9722
  533MOL0     H73537   5.522  11.330   2.442 -0.5560 -3.4704  0.6660
  533MOL0     H73538   7.199  10.838   3.702  0.4124 -0.3420  2.1546
  533MOL0     H73539   7.389  10.719   3.672  0.7248 -1.4168  1.0798
  533MOL0     H73540   7.387  10.244   3.599  0.2162  0.0711  0.6970
  533MOL0     H73541   7.490  10.040   3.511 -0.0342 -0.6448 -0.3722
  533MOL0     H73542   7.945   9.990   3.439  0.8108  0.9047 -0.4920
  533MOL0     H73543   7.892   9.991   3.615 -1.2518 -1.9308  0.6179
  533MOL0     H73544   7.780   9.771   3.569  0.3210 -1.0148 -0.2243
  533MOL0     H73545   7.964   9.778   3.549 -0.3939  1.7648  1.0554
  533MOL0     H73546   7.773   9.792   3.314 -0.2915 -2.6885 -1.6951
  533MOL0     H73547   7.953   9.786   3.312  1.0068 -0.3618  1.7387
  533MOL0     H73548   7.782   9.554   3.385 -0.0705  2.8908  1.7934
  533MOL0     H73549   7.968   9.575   3.405 -0.4787 -0.4697  1.8838
  533MOL0     H73550   7.970   9.561   2.996 -0.1864  2.7045 -0.4376
  533MOL0     H73551   7.864  10.216   3.516 -0.4737 -3.3127 -2.9341
  533MOL0     H73552   7.919  10.434   3.587  0.1217  0.0588 -1.0587
  533MOL0     H73553   7.797  10.542   3.539  0.6428 -0.4335  0.3172
  533MOL0     H73554   7.799  10.507   3.713 -0.8823  1.2709  0.3501
  534MOL0     O73555   2.560   6.930   3.938  0.8889 -0.9078  0.2181
  534MOL0     C73556   2.608   6.928   3.832  0.1969  0.2805  0.7761
  534MOL0     O73557   2.718   6.992   3.797 -0.3928  0.1059  0.0896
  534MOL0     C73558   2.753   7.105   3.870 -0.6164  0.1657 -0.0726
  534MOL0     C73559   2.700   7.229   3.848 -0.6268 -0.1315 -0.7300
  534MOL0     C73560   2.741   7.341   3.925  0.5129 -0.4635 -0.6775
  534MOL0     C73561   2.853   7.331   4.002 -0.0630  1.0467 -0.5763
  534MOL0     O73562   2.893   7.428   4.087 -1.0095  1.0690  0.0194
  534MOL0     C73563   2.847   7.558   4.057 -0.1893  0.5991 -0.2346
  534MOL0     C73564   2.959   7.654   4.101  0.5185 -0.2570  0.2532
  534MOL0     C73565   3.024   7.617   4.231  0.2212  0.2214  0.3869
  534MOL0     C73566   3.094   7.739   4.291 -0.3160 -0.0120 -0.2244
  534MOL0     C73567   3.076   7.747   4.456 -0.3217  0.8997 -0.3676
  534MOL0     C73568   2.928   7.779   4.484 -0.3683 -1.0395 -0.2062
  534MOL0     C73569   2.907   7.765   4.629 -0.0519  0.0536  0.3289
  534MOL0     C73570   2.781   7.830   4.679  0.7676 -0.4591 -0.9200
  534MOL0     N73571   2.754   7.815   4.821 -0.0603 -0.3521 -0.1293
  534MOL0     C73572   2.831   7.767   4.921 -0.2166  1.4001 -0.5965
  534MOL0     C73573   2.772   7.778   5.039  0.8431 -1.2031  0.0622
  534MOL0     C73574   2.831   7.781   5.179 -0.5385 -0.3004 -0.3247
  534MOL0     C73575   2.830   7.919   5.244  0.4455 -0.0611 -0.9202
  534MOL0     C73576   2.899   7.942   5.381 -0.1637 -0.1144 -0.9605
  534MOL0     C73577   3.053   7.907   5.381  0.2382 -0.4224 -0.5750
  534MOL0     O73578   3.125   7.983   5.282 -0.2036  0.6699 -0.3269
  534MOL0     C73579   3.259   7.959   5.277 -0.4016 -1.1416  0.4584
  534MOL0     C73580   3.348   8.005   5.364 -0.1626 -0.6618 -0.9933
  534MOL0     C73581   3.487   7.968   5.360 -0.0682 -0.7627 -0.5916
  534MOL0     C73582   3.572   8.045   5.468  0.3087 -0.5965  0.0699
  534MOL0     C73583   3.546   7.899   5.248 -0.4073  0.0957  0.4443
  534MOL0     C73584   3.680   7.863   5.214  0.1977  0.8963  0.0302
  534MOL0     O73585   3.714   7.830   5.081 -0.1931  0.7036 -0.0112
  534MOL0     C73586   3.820   7.748   5.046  0.6398  0.3647 -0.1788
  534MOL0     C73587   3.919   7.792   4.968 -0.2348 -0.3402 -0.1294
  534MOL0     C73588   4.033   7.717   4.939 -0.5751 -0.4815  0.6341
  534MOL0     C73589   4.041   7.586   4.983  0.5231  0.2420  0.0293
  534MOL0     O73590   4.148   7.528   4.948  0.3462  0.2203  0.2726
  534MOL0     C73591   4.165   7.390   4.987 -0.1010 -0.4039 -0.0522
  534MOL0     C73592   4.295   7.332   4.924 -0.1461  0.2954 -0.0258
  534MOL0     C73593   4.296   7.176   4.944  0.3996 -1.1486  0.5992
  534MOL0     C73594   4.345   7.149   5.088  0.2201 -0.2905 -0.7203
  534MOL0     C73595   4.367   6.998   5.123  0.1598 -1.3163  0.1665
  534MOL0     C73596   4.242   6.913   5.094  0.1115  0.4469 -1.5512
  534MOL0     C73597   4.137   6.935   5.205  1.4358  0.2524 -0.2768
  534MOL0     C73598   4.008   6.845   5.196  0.3528 -0.2133 -0.6271
  534MOL0    Cl73599   4.061   6.684   5.252  0.4879 -0.1065  0.2021
  534MOL0     C73600   3.940   7.539   5.070  0.2967  0.5343  1.4722
  534MOL0     C73601   3.832   7.617   5.095  0.6021  0.3281 -0.3112
  534MOL0     O73602   3.762   7.866   5.306  0.1104 -0.4570 -0.2885
  534MOL0     C73603   3.450   7.859   5.150  0.2266 -0.1097 -0.0794
  534MOL0     C73604   3.313   7.897   5.164  0.2819  0.0217  0.1823
  534MOL0     N73605   2.641   7.817   5.002 -0.2829 -0.7235 -0.5822
  534MOL0     N73606   2.628   7.833   4.876 -0.0005  0.1435  0.2224
  534MOL0     C73607   2.927   7.210   4.006 -0.1058 -0.0474 -0.2449
  534MOL0     C73608   2.867   7.093   3.953  0.1861  0.5082 -0.7581
  534MOL0     C73609   2.544   6.847   3.725  0.4842 -0.4729 -0.4410
  534MOL0     C73610   2.440   6.760   3.771  0.6843  0.1799  0.6114
  534MOL0     C73611   2.368   6.692   3.672  0.3969  0.3022 -0.1316
  534MOL0     C73612   2.396   6.705   3.537  0.6370  0.0347 -0.9199
  534MOL0     O73613   2.322   6.630   3.452  0.2103  0.1064 -0.5589
  534MOL0     C73614   2.312   6.672   3.313  0.7319  0.2272  0.3746
  534MOL0     C73615   2.201   6.598   3.244  0.3751 -0.1157  0.8628
  534MOL0     C73616   2.062   6.661   3.283  1.3687  0.4430 -0.8211
  534MOL0     C73617   2.026   6.652   3.428  1.2120  0.3177  0.1719
  534MOL0     C73618   1.882   6.695   3.449 -0.5299  0.7789  1.0738
  534MOL0     C73619   1.765   6.724   3.462  0.0497 -0.9109 -0.2653
  534MOL0     C73620   2.502   6.788   3.496  0.7300  0.5291  0.1277
  534MOL0     C73621   2.570   6.865   3.589  0.7123  0.8559  0.1411
  534MOL0     C73622   2.680   6.953   3.527 -0.3917  0.2920 -0.5549
  534MOL0     H73623   2.615   7.238   3.780 -2.0048  2.8089  1.1884
  534MOL0     H73624   2.688   7.433   3.900  0.3594 -0.5670 -0.7397
  534MOL0     H73625   2.757   7.575   4.116  0.8351  1.5628  1.1145
  534MOL0     H73626   2.831   7.579   3.951  0.7758  0.1022 -0.4955
  534MOL0     H73627   3.039   7.659   4.027 -0.2765  2.8569 -0.5193
  534MOL0     H73628   2.923   7.757   4.095  0.5297 -0.3445 -2.6576
  534MOL0     H73629   2.934   7.586   4.285  0.3855 -5.4152 -1.9278
  534MOL0     H73630   3.085   7.527   4.221 -0.9087 -0.9663  3.1663
  534MOL0     H73631   3.201   7.718   4.290 -0.7130 -2.1873 -1.2941
  534MOL0     H73632   3.066   7.834   4.244 -0.6322 -0.5156 -1.0598
  534MOL0     H73633   3.145   7.818   4.502 -2.6429  0.9946  3.3524
  534MOL0     H73634   3.102   7.656   4.510 -4.4833 -0.0174  0.4423
  534MOL0     H73635   2.906   7.884   4.460 -1.2250 -1.2991 -0.6217
  534MOL0     H73636   2.858   7.717   4.427  0.1298 -1.3884 -0.4387
  534MOL0     H73637   2.994   7.788   4.691  0.9732 -0.0788 -1.0079
  534MOL0     H73638   2.900   7.657   4.615  0.3544  0.3726 -3.8070
  534MOL0     H73639   2.779   7.938   4.668 -2.8370 -0.0415  1.8494
  534MOL0     H73640   2.694   7.799   4.621 -0.5776 -0.7989  1.1559
  534MOL0     H73641   2.932   7.729   4.908  0.2302  1.3564  2.3913
  534MOL0     H73642   2.935   7.751   5.191 -0.0274  2.4268  4.5062
  534MOL0     H73643   2.768   7.713   5.237 -0.0671 -0.6298 -0.1939
  534MOL0     H73644   2.873   8.002   5.188  2.0403  0.1866  0.5908
  534MOL0     H73645   2.724   7.942   5.260  0.6485 -0.5243  1.4624
  534MOL0     H73646   2.894   8.049   5.400  0.8355 -0.0659 -0.9072
  534MOL0     H73647   2.851   7.887   5.463 -1.1060  0.2480 -1.2562
  534MOL0     H73648   3.112   7.922   5.472  4.6022  1.2470 -3.3983
  534MOL0     H73649   3.073   7.799   5.377 -0.5485 -0.7556  2.2849
  534MOL0     H73650   3.305   8.065   5.443  0.8570 -1.4840  0.2220
  534MOL0     H73651   3.527   8.059   5.567 -1.6385 -0.2505 -0.8205
  534MOL0     H73652   3.586   8.145   5.428  1.7936 -0.8398 -0.0649
  534MOL0     H73653   3.677   8.018   5.485  1.1302  2.2146 -0.1868
  534MOL0     H73654   3.913   7.894   4.933 -0.4001 -0.4626 -0.4589
  534MOL0     H73655   4.120   7.757   4.889 -0.7831  1.0705  1.4484
  534MOL0     H73656   4.163   7.383   5.096 -0.1313  0.9711  0.0604
  534MOL0     H73657   4.090   7.327   4.939  0.4432 -0.2358 -1.1458
  534MOL0     H73658   4.280   7.350   4.818  2.7217  2.8751 -0.1289
  534MOL0     H73659   4.376   7.396   4.960  2.2696 -1.2237 -2.4433
  534MOL0     H73660   4.368   7.141   4.869 -1.1275 -0.9316 -1.0357
  534MOL0     H73661   4.202   7.123   4.924  0.5018 -0.6649 -1.3705
  534MOL0     H73662   4.282   7.198   5.163 -0.4627 -1.2416 -0.6646
  534MOL0     H73663   4.445   7.191   5.103  0.2414 -0.7346  0.4549
  534MOL0     H73664   4.449   6.968   5.057 -1.9804  0.0317 -3.4294
  534MOL0     H73665   4.397   6.983   5.227  1.7490 -1.5214 -0.3000
  534MOL0     H73666   4.285   6.812   5.104  1.0907  1.0792  1.6674
  534MOL0     H73667   4.181   6.907   5.003  0.0756 -1.7888 -1.4505
  534MOL0     H73668   4.100   7.037   5.194  2.1573  0.5676  0.1640
  534MOL0     H73669   4.178   6.918   5.305 -2.7966 -3.6749  1.1151
  534MOL0     H73670   3.955   6.842   5.100 -0.3651 -2.2240 -0.1967
  534MOL0     H73671   3.933   6.875   5.269 -1.2340 -1.0404 -1.8356
  534MOL0     H73672   3.945   7.432   5.088  3.6480 -0.1590 -2.2362
  534MOL0     H73673   3.758   7.585   5.167  0.9535  3.3584  1.5955
  534MOL0     H73674   3.482   7.800   5.064 -0.8111 -0.9521  0.0817
  534MOL0     H73675   3.250   7.871   5.079  1.8945  2.8653 -2.0638
  534MOL0     H73676   3.015   7.205   4.070  0.8995  1.8808 -1.3762
  534MOL0     H73677   2.915   6.997   3.969 -0.9870 -0.0724 -0.5951
  534MOL0     H73678   2.412   6.756   3.876  0.6952 -0.2562  0.5977
  534MOL0     H73679   2.276   6.641   3.697 -1.0893  2.3681 -1.0305
  534MOL0     H73680   2.298   6.781   3.312 -2.6792 -0.0359 -3.4666
  534MOL0     H73681   2.404   6.649   3.259 -0.1587 -2.6738 -0.0295
  534MOL0     H73682   2.215   6.495   3.278  2.0774  0.2543  1.3607
  534MOL0     H73683   2.208   6.593   3.135  2.0245 -1.1021  0.9759
  534MOL0     H73684   2.042   6.765   3.256 -0.0473  0.4087 -0.0341
  534MOL0     H73685   1.993   6.599   3.225 -0.0366  2.8194 -1.7966
  534MOL0     H73686   2.078   6.730   3.485  2.9239  0.3265 -1.3447
  534MOL0     H73687   2.037   6.554   3.475 -1.7914 -2.0369 -3.4453
  534MOL0     H73688   1.663   6.741   3.489  0.5526  0.6772  0.7925
  534MOL0     H73689   2.521   6.801   3.389 -1.3438  2.7350 -0.0664
  534MOL0     H73690   2.675   7.052   3.572 -2.3453  0.6871 -1.5299
  534MOL0     H73691   2.771   6.910   3.569 -2.1110 -0.7703  2.4250
  534MOL0     H73692   2.686   6.964   3.418  0.3485  0.0905 -0.5444
  535MOL0     O73693  10.977   3.548   8.131  0.7805 -0.5610  0.1216
  535MOL0     C73694  11.002   3.634   8.215  0.1332  0.1643  0.4700
  535MOL0     O73695  11.039   3.608   8.344 -0.0545  0.5865 -0.3518
  535MOL0     C73696  11.044   3.481   8.397 -0.6697 -0.3972 -0.2034
  535MOL0     C73697  10.942   3.387   8.379 -0.9210 -1.0006  0.1584
  535MOL0     C73698  10.952   3.258   8.443 -0.7580 -0.0887 -0.6761
  535MOL0     C73699  11.057   3.232   8.534 -0.0024 -0.5538  0.4612
  535MOL0     O73700  11.065   3.115   8.597  0.0691  0.2846  0.6576
  535MOL0     C73701  10.969   3.012   8.577 -0.1921 -0.3647  1.1863
  535MOL0     C73702  11.013   2.898   8.667 -0.6328  0.8059  0.5112
  535MOL0     C73703  10.907   2.783   8.674  0.5499  0.2933  0.5165
  535MOL0     C73704  10.936   2.657   8.752  0.6788  0.5463  0.0986
  535MOL0     C73705  10.808   2.566   8.759  0.7640 -0.7785 -0.6021
  535MOL0     C73706  10.829   2.432   8.829  1.1407  0.1562 -0.4020
  535MOL0     C73707  10.707   2.338   8.801  0.3513  0.3134 -0.1404
  535MOL0     C73708  10.573   2.383   8.853 -0.4967  0.0261 -1.3153
  535MOL0     N73709  10.466   2.288   8.851  0.7045 -0.6177 -0.5803
  535MOL0     C73710  10.472   2.150   8.840 -0.7800 -1.0797 -0.1522
  535MOL0     C73711  10.350   2.110   8.812 -0.7308 -0.2175  0.1036
  535MOL0     C73712  10.287   1.976   8.814  0.3454  0.2085  1.0736
  535MOL0     C73713  10.160   1.958   8.895  0.6799  0.3006 -0.2645
  535MOL0     C73714  10.138   2.035   9.029 -0.0847 -0.0803 -0.4124
  535MOL0     C73715  10.242   2.004   9.131  0.1088 -0.4563 -0.4103
  535MOL0     O73716  10.233   2.070   9.251  0.1127 -0.4804 -0.4303
  535MOL0     C73717  10.304   2.184   9.282  0.6190  1.0654 -0.3473
  535MOL0     C73718  10.322   2.216   9.419  0.3624 -0.6430 -0.1332
  535MOL0     C73719  10.379   2.341   9.461 -0.0683  0.3578  0.2096
  535MOL0     C73720  10.378   2.370   9.611 -0.2833  0.5001  0.2634
  535MOL0     C73721  10.417   2.425   9.360 -0.9859  0.3202  0.4268
  535MOL0     C73722  10.494   2.550   9.390 -0.1474 -0.7027  0.4054
  535MOL0     O73723  10.562   2.595   9.282 -0.6117  0.2568  0.1465
  535MOL0     C73724  10.632   2.711   9.298 -1.0416  0.1086  0.3444
  535MOL0     C73725  10.777   2.702   9.282  1.1379 -0.7707  0.1752
  535MOL0     C73726  10.846   2.821   9.272 -0.9911 -0.6013  0.2280
  535MOL0     C73727  10.792   2.938   9.309  0.4701 -0.8747 -0.1666
  535MOL0     O73728  10.883   3.044   9.315 -0.0506 -0.3873 -0.2351
  535MOL0     C73729  10.839   3.167   9.363 -0.3790 -1.0896 -0.2876
  535MOL0     C73730  10.947   3.268   9.313  0.1347 -0.4391  0.1179
  535MOL0     C73731  10.921   3.417   9.339  0.2614 -0.2947 -0.0630
  535MOL0     C73732  11.063   3.480   9.317 -0.3158 -0.0158 -0.2744
  535MOL0     C73733  11.059   3.637   9.354 -0.0980  0.7311 -0.3726
  535MOL0     C73734  11.190   3.709   9.370 -0.0070 -0.6772  0.1064
  535MOL0     C73735  11.162   3.854   9.408  0.2083  0.3995  0.2451
  535MOL0     C73736  11.294   3.935   9.422  0.6793 -0.1014  0.0375
  535MOL0    Cl73737  11.266   4.106   9.492  0.1309  0.1260  0.5157
  535MOL0     C73738  10.654   2.943   9.355 -0.8807  0.7618 -0.2868
  535MOL0     C73739  10.579   2.826   9.353  0.4244 -0.3106  0.0940
  535MOL0     O73740  10.506   2.599   9.498 -0.0681 -0.3947 -0.2796
  535MOL0     C73741  10.403   2.391   9.218  0.1353 -0.2960 -1.1083
  535MOL0     C73742  10.351   2.268   9.185  0.6916 -0.1769  0.0318
  535MOL0     N73743  10.273   2.225   8.784  0.6863  0.0730  0.0614
  535MOL0     N73744  10.346   2.326   8.819  0.3635 -0.0408 -0.4898
  535MOL0     C73745  11.151   3.338   8.562  0.4583  0.4278 -0.4246
  535MOL0     C73746  11.142   3.463   8.494  0.7191 -0.0227  0.0783
  535MOL0     C73747  10.987   3.770   8.182 -0.1482  0.5016  0.0943
  535MOL0     C73748  11.063   3.865   8.255  0.9833  1.1176  0.2364
  535MOL0     C73749  11.037   4.004   8.245  0.1719 -0.6421 -1.1797
  535MOL0     C73750  10.942   4.051   8.161  0.5654  0.1796 -0.6958
  535MOL0     O73751  10.919   4.184   8.154 -0.1968  0.4542  0.0131
  535MOL0     C73752  10.846   4.241   8.042  0.0125 -0.1337 -0.3883
  535MOL0     C73753  10.928   4.252   7.912 -0.6886 -0.6295  0.5486
  535MOL0     C73754  11.045   4.351   7.918  0.0325 -0.2633 -0.0024
  535MOL0     C73755  11.119   4.354   7.780 -0.2688  0.4650  0.2126
  535MOL0     C73756  11.041   4.435   7.693 -0.2693  0.2738 -0.7312
  535MOL0     C73757  10.978   4.517   7.641  0.9687 -0.1021 -0.0636
  535MOL0     C73758  10.862   3.965   8.087  0.0411  0.4022  0.2890
  535MOL0     C73759  10.879   3.825   8.095 -0.0130 -0.4793  0.4939
  535MOL0     C73760  10.780   3.750   8.003 -1.1914  0.3773  0.2845
  535MOL0     H73761  10.861   3.395   8.307  1.0062 -0.9787 -2.1374
  535MOL0     H73762  10.874   3.185   8.425  1.1992 -2.0775 -1.5618
  535MOL0     H73763  10.972   2.970   8.475 -0.3913  0.9763  0.6124
  535MOL0     H73764  10.867   3.047   8.599 -0.8288 -0.6301 -1.0223
  535MOL0     H73765  11.106   2.850   8.636 -0.6761  0.4557  0.9130
  535MOL0     H73766  11.032   2.929   8.770 -0.3949 -2.1759  1.4388
  535MOL0     H73767  10.820   2.834   8.715  1.6183  2.6194  0.0578
  535MOL0     H73768  10.876   2.754   8.573  2.4027  0.6697 -0.2016
  535MOL0     H73769  11.011   2.601   8.695  0.0637  1.5939 -1.8267
  535MOL0     H73770  10.983   2.672   8.850  1.0113 -1.2433  0.2544
  535MOL0     H73771  10.760   2.554   8.662 -0.0267 -0.1819 -0.3012
  535MOL0     H73772  10.737   2.621   8.822  2.6368  1.1563 -0.0657
  535MOL0     H73773  10.918   2.380   8.792  0.1239 -1.0239 -1.2647
  535MOL0     H73774  10.823   2.456   8.935 -0.3937  5.1899 -1.3547
  535MOL0     H73775  10.732   2.245   8.853  0.9442  1.3385  1.4990
  535MOL0     H73776  10.693   2.308   8.697  2.2753 -1.2424  0.0005
  535MOL0     H73777  10.593   2.439   8.944  1.1964 -2.8136  0.2279
  535MOL0     H73778  10.542   2.453   8.775  0.0296  0.7761 -0.8571
  535MOL0     H73779  10.560   2.085   8.836  1.2050  1.5168 -1.8450
  535MOL0     H73780  10.357   1.899   8.846  0.2879  0.1047  0.9516
  535MOL0     H73781  10.261   1.959   8.709  1.5853  2.2966  0.3601
  535MOL0     H73782  10.077   1.981   8.827  0.9954 -0.3586 -0.8843
  535MOL0     H73783  10.151   1.853   8.925  1.6131  0.7357  1.6759
  535MOL0     H73784  10.133   2.144   9.014  0.9857 -0.0365 -0.5958
  535MOL0     H73785  10.045   2.001   9.074 -0.0698 -4.8056 -3.3368
  535MOL0     H73786  10.237   1.896   9.151  0.6560 -0.8210 -2.0855
  535MOL0     H73787  10.337   2.028   9.082  0.2999  1.0119  0.6071
  535MOL0     H73788  10.282   2.150   9.495 -0.9155  0.3722  0.1088
  535MOL0     H73789  10.328   2.288   9.664  1.4366 -2.1078 -1.8884
  535MOL0     H73790  10.333   2.467   9.634 -0.3445  0.3134  0.9633
  535MOL0     H73791  10.484   2.378   9.637 -0.7177  1.1720  1.9577
  535MOL0     H73792  10.821   2.612   9.241  2.6589  0.9520 -2.3277
  535MOL0     H73793  10.946   2.809   9.230 -1.3012 -0.3150 -0.6066
  535MOL0     H73794  10.741   3.209   9.336 -0.4697  0.3008  1.9620
  535MOL0     H73795  10.849   3.158   9.471  2.4449  1.4954 -0.2149
  535MOL0     H73796  11.036   3.245   9.372  0.8196 -0.3708 -0.8656
  535MOL0     H73797  10.966   3.272   9.205 -1.8972  1.5561 -0.2506
  535MOL0     H73798  10.886   3.445   9.439 -3.0562 -1.9129 -0.6319
  535MOL0     H73799  10.852   3.466   9.270  0.7100 -2.1687 -1.9058
  535MOL0     H73800  11.088   3.472   9.211  0.5362  0.2007 -0.1044
  535MOL0     H73801  11.151   3.433   9.363  1.7948  1.5314 -2.4650
  535MOL0     H73802  10.993   3.676   9.276 -1.8898 -2.4284 -0.5987
  535MOL0     H73803  11.010   3.647   9.451  2.2453  1.8802  0.7656
  535MOL0     H73804  11.240   3.702   9.273  0.7147  0.4821  0.3745
  535MOL0     H73805  11.247   3.660   9.449 -0.7584  0.4363  1.3751
  535MOL0     H73806  11.110   3.856   9.504 -2.2779  2.4788 -1.0238
  535MOL0     H73807  11.086   3.896   9.342 -0.2754 -2.7140 -1.4096
  535MOL0     H73808  11.342   3.949   9.325 -1.8945  0.8907 -1.1995
  535MOL0     H73809  11.366   3.894   9.492  1.7006  1.1572 -0.2360
  535MOL0     H73810  10.610   3.032   9.397 -0.1696  0.1474  1.8548
  535MOL0     H73811  10.472   2.834   9.368  0.0555 -0.2623 -2.1541
  535MOL0     H73812  10.428   2.452   9.131 -0.2553 -0.7456 -1.5442
  535MOL0     H73813  10.348   2.237   9.081  1.5569  0.8432 -0.3083
  535MOL0     H73814  11.237   3.336   8.629 -1.0980  0.4645  1.6702
  535MOL0     H73815  11.214   3.544   8.495  0.0338  0.8792 -3.8501
  535MOL0     H73816  11.117   3.831   8.343  3.4023  3.1801 -0.3121
  535MOL0     H73817  11.098   4.067   8.309 -0.8248 -0.7048 -0.1296
  535MOL0     H73818  10.747   4.195   8.036  0.3864 -0.9875 -0.1867
  535MOL0     H73819  10.826   4.343   8.076 -2.8051 -0.7364 -0.0328
  535MOL0     H73820  10.858   4.281   7.833  2.4522  2.8129 -1.2992
  535MOL0     H73821  10.967   4.152   7.890 -2.5424 -0.5217 -4.4984
  535MOL0     H73822  11.007   4.443   7.964  0.3327 -2.1383  4.5562
  535MOL0     H73823  11.106   4.305   7.996 -1.8096  1.3943  2.5865
  535MOL0     H73824  11.138   4.251   7.747  2.4396  1.7110 -2.6527
  535MOL0     H73825  11.217   4.396   7.804 -1.0813  2.1716  0.7060
  535MOL0     H73826  10.910   4.594   7.611 -0.0663 -0.4126  1.4203
  535MOL0     H73827  10.783   4.003   8.024  0.7726 -0.5797 -1.2908
  535MOL0     H73828  10.728   3.820   7.937 -0.4376  0.2110 -0.4935
  535MOL0     H73829  10.834   3.676   7.943 -1.8164 -0.6437  0.9344
  535MOL0     H73830  10.712   3.689   8.063  0.0553  3.4428  5.3297
  536MOL0     O73831   3.006   6.564   3.927 -0.3461 -0.0087 -0.7184
  536MOL0     C73832   2.971   6.615   4.035  0.6359 -1.3534  0.2243
  536MOL0     O73833   2.846   6.617   4.079 -0.4294 -0.2402 -0.3148
  536MOL0     C73834   2.769   6.508   4.049  0.6386  1.2081  0.6676
  536MOL0     C73835   2.817   6.371   4.045 -0.1394  0.1778 -0.0684
  536MOL0     C73836   2.721   6.266   4.037  0.5190  0.6156  0.4176
  536MOL0     C73837   2.590   6.293   4.028  0.5810  0.9987  0.0913
  536MOL0     O73838   2.486   6.201   4.012 -0.6382  0.5135 -0.7790
  536MOL0     C73839   2.471   6.104   4.116 -0.8228  0.0474  0.4078
  536MOL0     C73840   2.391   6.160   4.235  0.5327 -0.6533  0.1127
  536MOL0     C73841   2.240   6.179   4.201  0.8897 -0.2173 -0.8997
  536MOL0     C73842   2.146   6.162   4.320 -0.5121 -0.2071 -0.5028
  536MOL0     C73843   1.992   6.210   4.288 -0.6098 -0.0532 -0.3529
  536MOL0     C73844   1.901   6.161   4.402 -0.5946 -0.0652  0.2912
  536MOL0     C73845   1.863   6.013   4.378 -0.3181  0.1200  0.0506
  536MOL0     C73846   1.746   5.986   4.475 -0.8067  1.1015 -0.3521
  536MOL0     N73847   1.720   5.835   4.480 -0.4275 -0.2831 -0.3716
  536MOL0     C73848   1.774   5.755   4.577  0.0010  0.3534 -0.3708
  536MOL0     C73849   1.690   5.646   4.564 -0.2336  1.0972 -0.8046
  536MOL0     C73850   1.687   5.529   4.666 -0.9336 -0.7159  0.0470
  536MOL0     C73851   1.607   5.414   4.612  0.5911  0.5354  1.3484
  536MOL0     C73852   1.572   5.309   4.714  0.0655  0.5680 -0.7874
  536MOL0     C73853   1.432   5.337   4.778  0.7150  0.5208 -0.5390
  536MOL0     O73854   1.411   5.226   4.862 -0.3691 -0.0710 -0.2151
  536MOL0     C73855   1.370   5.106   4.812  0.5342 -0.2682  1.0934
  536MOL0     C73856   1.377   4.997   4.896 -0.9382  0.7208 -0.0791
  536MOL0     C73857   1.360   4.872   4.841  0.6580  0.2574  0.3149
  536MOL0     C73858   1.388   4.769   4.940  0.0632  0.5061 -0.1547
  536MOL0     C73859   1.305   4.848   4.705  0.3089  0.1120 -1.6125
  536MOL0     C73860   1.278   4.725   4.646  0.1094  0.9129  0.1842
  536MOL0     O73861   1.271   4.710   4.502 -0.6740  0.0559 -0.2754
  536MOL0     C73862   1.247   4.586   4.452 -0.0321 -0.5782 -0.6474
  536MOL0     C73863   1.135   4.548   4.375  0.2550  0.6706 -0.0357
  536MOL0     C73864   1.130   4.422   4.312  0.5301  0.2847  0.2748
  536MOL0     C73865   1.236   4.331   4.318  0.5603  0.1042 -0.5067
  536MOL0     O73866   1.233   4.209   4.262  0.4201  0.1045 -0.1163
  536MOL0     C73867   1.352   4.130   4.256 -0.6885  0.0607 -0.9430
  536MOL0     C73868   1.335   3.994   4.182 -0.1958  0.5916 -0.0781
  536MOL0     C73869   1.463   3.914   4.157 -0.8383  1.0776 -0.7634
  536MOL0     C73870   1.544   3.981   4.047  0.3058  0.5864  0.9651
  536MOL0     C73871   1.487   3.954   3.893 -0.3621 -0.0834 -0.2444
  536MOL0     C73872   1.590   3.956   3.779 -0.1108  0.5110 -0.0376
  536MOL0     C73873   1.534   3.908   3.645 -0.0672 -0.7237  0.6211
  536MOL0     C73874   1.635   3.954   3.540  0.4038 -1.1134  0.3030
  536MOL0    Cl73875   1.806   3.918   3.574 -0.2119  0.4010  0.0122
  536MOL0     C73876   1.357   4.374   4.376  0.1658 -0.0060 -0.2969
  536MOL0     C73877   1.361   4.497   4.446  0.3323  0.8956 -1.2711
  536MOL0     O73878   1.224   4.646   4.725  0.0233  0.0939  0.2035
  536MOL0     C73879   1.280   4.966   4.631  0.6382  0.6659  0.1770
  536MOL0     C73880   1.324   5.092   4.678  0.1239 -0.7809 -0.1460
  536MOL0     N73881   1.600   5.667   4.465  0.3122  0.1711  0.1731
  536MOL0     N73882   1.608   5.789   4.422 -0.2878  0.7597  0.2364
  536MOL0     C73883   2.550   6.430   4.037  0.1449 -0.2309 -0.1708
  536MOL0     C73884   2.636   6.530   4.051  1.4373  0.1425 -0.4683
  536MOL0     C73885   3.065   6.722   4.076 -0.4024 -0.4528  0.2165
  536MOL0     C73886   3.176   6.739   3.999  0.7310  0.2277 -0.2789
  536MOL0     C73887   3.260   6.857   4.013  1.2329  0.6238 -0.3751
  536MOL0     C73888   3.228   6.962   4.099 -0.4631  0.8430 -0.8378
  536MOL0     O73889   3.324   7.057   4.125 -0.6269  0.7361 -0.4505
  536MOL0     C73890   3.353   7.092   4.255  0.9412 -0.2945 -0.0223
  536MOL0     C73891   3.502   7.142   4.263  0.6568  0.2257 -0.2936
  536MOL0     C73892   3.536   7.253   4.171 -0.6025  0.4720 -0.2682
  536MOL0     C73893   3.437   7.375   4.178 -0.0210 -0.0542 -0.4309
  536MOL0     C73894   3.426   7.430   4.309 -0.2733 -0.8843  0.0281
  536MOL0     C73895   3.402   7.479   4.418 -0.0162  0.4294 -0.0880
  536MOL0     C73896   3.114   6.954   4.176 -0.4653  1.0942 -0.7059
  536MOL0     C73897   3.036   6.834   4.166 -0.0679  0.9879  0.5418
  536MOL0     C73898   2.910   6.823   4.250  0.8735  0.1819 -0.6664
  536MOL0     H73899   2.922   6.347   4.032 -0.2341  1.4774 -5.0421
  536MOL0     H73900   2.751   6.163   4.017 -2.6382 -0.4504  0.5591
  536MOL0     H73901   2.570   6.067   4.144 -1.1335 -2.0350 -1.0550
  536MOL0     H73902   2.411   6.026   4.068 -1.0686  0.4239  0.0921
  536MOL0     H73903   2.394   6.094   4.322 -0.8616 -2.5434 -1.2019
  536MOL0     H73904   2.426   6.260   4.264  0.8142 -1.2134  1.8309
  536MOL0     H73905   2.231   6.278   4.155 -2.5323  1.0791  2.0764
  536MOL0     H73906   2.207   6.100   4.133 -2.5509 -1.1438  1.5662
  536MOL0     H73907   2.149   6.063   4.366 -0.4541 -0.5369 -1.2122
  536MOL0     H73908   2.187   6.220   4.403 -1.7300 -1.1581  0.8097
  536MOL0     H73909   1.954   6.166   4.195 -0.1084 -5.4652  1.6538
  536MOL0     H73910   1.977   6.318   4.281 -4.3477 -0.4461 -0.4092
  536MOL0     H73911   1.944   6.175   4.502  0.0832 -0.4487  0.0589
  536MOL0     H73912   1.810   6.220   4.389  0.4305  0.9942 -3.1778
  536MOL0     H73913   1.950   5.948   4.389 -1.0853 -0.5469  3.3639
  536MOL0     H73914   1.829   5.997   4.276 -2.0497 -1.5594  0.8281
  536MOL0     H73915   1.769   6.028   4.574  1.6064 -2.1907  0.6866
  536MOL0     H73916   1.657   6.035   4.434  0.5024  1.5910 -2.8143
  536MOL0     H73917   1.854   5.788   4.642  0.9862  2.8058 -2.6465
  536MOL0     H73918   1.656   5.574   4.761 -2.8056 -0.9509 -0.4164
  536MOL0     H73919   1.785   5.483   4.680  0.3298  1.9422  0.6298
  536MOL0     H73920   1.514   5.452   4.567  1.2287  0.2785 -0.2355
  536MOL0     H73921   1.665   5.361   4.536 -0.2088 -2.0200  2.4101
  536MOL0     H73922   1.570   5.215   4.658  1.6274 -1.4760  2.3053
  536MOL0     H73923   1.647   5.303   4.793 -2.2141 -0.0830  1.4553
  536MOL0     H73924   1.428   5.423   4.845 -1.0351 -2.3081  3.3189
  536MOL0     H73925   1.348   5.342   4.708 -1.1760 -0.8135  1.4950
  536MOL0     H73926   1.436   5.015   4.985 -0.4457  1.9211 -0.6316
  536MOL0     H73927   1.438   4.683   4.895 -2.0658 -1.3950  0.8950
  536MOL0     H73928   1.285   4.738   4.960 -0.6758  0.7392 -3.1205
  536MOL0     H73929   1.436   4.806   5.031  0.2764  0.1343 -0.1140
  536MOL0     H73930   1.054   4.620   4.366 -1.9188 -1.5245  0.6480
  536MOL0     H73931   1.036   4.391   4.266 -0.0497  1.1797  0.8274
  536MOL0     H73932   1.420   4.194   4.197 -1.5164 -0.0710 -2.0686
  536MOL0     H73933   1.390   4.118   4.358 -3.9836 -0.2899  0.3565
  536MOL0     H73934   1.281   3.926   4.248 -0.2323 -2.0573 -2.6142
  536MOL0     H73935   1.272   4.006   4.093  0.2354 -2.6252 -0.9648
  536MOL0     H73936   1.436   3.809   4.147  1.3943  0.5013 -1.2523
  536MOL0     H73937   1.516   3.908   4.252 -0.4112 -0.2560 -1.0622
  536MOL0     H73938   1.648   3.947   4.052  0.5175  0.8850 -0.7288
  536MOL0     H73939   1.549   4.090   4.062  0.5352  0.4426  2.0164
  536MOL0     H73940   1.442   3.855   3.880  0.4196 -0.3708 -0.8776
  536MOL0     H73941   1.425   4.041   3.871  1.8663  1.2209 -1.7713
  536MOL0     H73942   1.676   3.899   3.814 -0.7382 -0.8360 -0.6160
  536MOL0     H73943   1.624   4.059   3.765 -0.6501  0.5737 -0.9711
  536MOL0     H73944   1.431   3.942   3.634  0.3905  0.6594  0.4199
  536MOL0     H73945   1.533   3.798   3.644  1.8932 -0.7768  0.0264
  536MOL0     H73946   1.623   4.063   3.537  1.6254 -0.9603  0.5128
  536MOL0     H73947   1.601   3.923   3.441  0.0737  2.3962 -0.8207
  536MOL0     H73948   1.456   4.329   4.376  1.5866  2.7470  2.8539
  536MOL0     H73949   1.452   4.522   4.497 -0.2132 -0.6116  0.5564
  536MOL0     H73950   1.229   4.951   4.536 -0.2328 -3.6163  1.0846
  536MOL0     H73951   1.325   5.177   4.610  0.9551 -0.5280  0.1691
  536MOL0     H73952   2.444   6.454   4.036  0.4061  1.2957  1.9149
  536MOL0     H73953   2.599   6.631   4.057  1.7560  0.1794  1.5892
  536MOL0     H73954   3.209   6.668   3.924 -0.3939 -0.6389  0.0214
  536MOL0     H73955   3.356   6.846   3.964  2.5178  0.9908  1.9054
  536MOL0     H73956   3.279   7.164   4.291  0.4574 -1.5141  1.5552
  536MOL0     H73957   3.339   7.007   4.323 -0.1329 -0.5021 -0.4901
  536MOL0     H73958   3.568   7.058   4.241 -2.3654 -2.6208  0.6749
  536MOL0     H73959   3.520   7.162   4.369 -0.5238 -0.2864  0.0152
  536MOL0     H73960   3.640   7.280   4.190 -0.6764 -0.5574  1.9376
  536MOL0     H73961   3.525   7.217   4.068 -0.0180  1.1818 -0.5871
  536MOL0     H73962   3.337   7.342   4.146 -0.8545  0.7755  1.2250
  536MOL0     H73963   3.467   7.459   4.115  0.3944  0.9782  1.0865
  536MOL0     H73964   3.368   7.500   4.517 -0.2960 -0.4919  0.0150
  536MOL0     H73965   3.096   7.004   4.271 -0.8268 -3.2150  1.7343
  536MOL0     H73966   2.927   6.886   4.338  0.5791  0.8465 -1.0782
  536MOL0     H73967   2.824   6.859   4.193 -0.2368  0.8341  1.3246
  536MOL0     H73968   2.897   6.719   4.283  0.6796  0.2999 -0.3684
  537MOL0     O73969   7.014  11.456   1.938 -0.4691 -0.0882 -0.0414
  537MOL0     C73970   7.093  11.414   1.850 -0.0002  0.6557  0.1770
  537MOL0     O73971   7.059  11.332   1.744 -0.4164 -0.3702 -0.3033
  537MOL0     C73972   6.920  11.323   1.714  0.2966  0.0489 -0.1433
  537MOL0     C73973   6.840  11.225   1.760 -0.2396  0.1821 -0.2486
  537MOL0     C73974   6.709  11.246   1.774  0.7485  0.8218 -0.3281
  537MOL0     C73975   6.650  11.348   1.703 -0.3509 -0.3893  0.7295
  537MOL0     O73976   6.515  11.344   1.685 -0.1817 -0.1213  0.2677
  537MOL0     C73977   6.446  11.415   1.578 -0.0042  0.3985 -0.2819
  537MOL0     C73978   6.419  11.556   1.609  0.8791 -0.4889  0.4663
  537MOL0     C73979   6.274  11.577   1.680  0.7937 -0.3106  0.3472
  537MOL0     C73980   6.255  11.722   1.733 -0.4200  0.3206  0.6905
  537MOL0     C73981   6.130  11.727   1.820  0.4436  0.7268  0.0790
  537MOL0     C73982   6.088  11.867   1.848 -0.4638 -0.1692  0.8947
  537MOL0     C73983   5.947  11.875   1.903  0.6307  0.5335  0.4314
  537MOL0     C73984   5.877  12.009   1.916 -0.0542 -0.7495 -0.2520
  537MOL0     N73985   5.961  12.121   1.970 -0.2390 -0.2899 -0.5940
  537MOL0     C73986   5.962  12.168   2.097  0.8235  0.4159  0.8419
  537MOL0     C73987   6.040  12.281   2.099  0.6365 -0.3696  1.2159
  537MOL0     C73988   6.083  12.354   2.218 -0.1010  0.2952  0.1129
  537MOL0     C73989   5.987  12.483   2.225  0.2444  0.7527  0.3813
  537MOL0     C73990   6.025  12.569   2.339  0.3482  0.2288  0.0597
  537MOL0     C73991   5.950  12.702   2.358  0.2107  0.5357  0.4056
  537MOL0     O73992   5.989  12.761   2.481 -0.8099 -0.3518  0.7813
  537MOL0     C73993   5.916  12.855   2.541 -0.0677 -0.2322  0.5214
  537MOL0     C73994   5.914  12.874   2.682  0.3624  0.4829 -0.1915
  537MOL0     C73995   5.846  12.971   2.755  0.2676 -0.0453  0.2172
  537MOL0     C73996   5.833  12.963   2.901 -0.0672  0.2251  0.0823
  537MOL0     C73997   5.779  13.063   2.682  0.1290 -0.4245 -0.8093
  537MOL0     C73998   5.721  13.182   2.736 -0.8670  0.1901 -0.0930
  537MOL0     O73999   5.592  13.189   2.746  0.5089 -0.0462 -0.6127
  537MOL0     C74000   5.522  13.311   2.738  0.7933 -0.3376 -0.3224
  537MOL0     C74001   5.432  13.328   2.625 -0.2344 -0.2952 -0.4662
  537MOL0     C74002   5.345  13.433   2.613  0.4238 -0.6369 -0.8123
  537MOL0     C74003   5.350  13.537   2.707 -0.5614 -0.2264 -0.3607
  537MOL0     O74004   5.253  13.634   2.684  1.3071 -0.0978 -0.0526
  537MOL0     C74005   5.238  13.736   2.784  0.2738 -0.2562  0.5958
  537MOL0     C74006   5.348  13.844   2.773 -0.1152  0.2528  0.3800
  537MOL0     C74007   5.346  13.912   2.633  0.2247  0.3791 -0.4542
  537MOL0     C74008   5.220  13.995   2.620 -0.4944 -0.6985  0.4443
  537MOL0     C74009   5.241  14.139   2.682  0.1964  0.2369 -0.3432
  537MOL0     C74010   5.154  14.254   2.616 -0.1985  0.1312  0.2682
  537MOL0     C74011   5.201  14.395   2.661 -0.4221  0.6490 -0.5111
  537MOL0     C74012   5.096  14.501   2.647 -0.6460  0.7202 -0.7027
  537MOL0    Cl74013   5.141  14.652   2.732  0.4576 -0.0476 -0.0378
  537MOL0     C74014   5.431  13.524   2.827 -0.4029 -0.1433 -0.5678
  537MOL0     C74015   5.507  13.409   2.842  0.0984  0.2842 -0.6867
  537MOL0     O74016   5.806  13.274   2.739  0.1448 -0.7166 -0.3783
  537MOL0     C74017   5.771  13.049   2.536  0.0291 -0.7736 -0.1720
  537MOL0     C74018   5.844  12.953   2.471  0.3301  0.0805 -0.0073
  537MOL0     N74019   6.099  12.296   1.972  0.1816 -0.4525  0.4976
  537MOL0     N74020   6.046  12.196   1.899  0.1536 -0.0845  0.0217
  537MOL0     C74021   6.728  11.446   1.641  0.9215  0.7667  0.1318
  537MOL0     C74022   6.863  11.436   1.650 -0.7444  0.2229 -0.3505
  537MOL0     C74023   7.239  11.462   1.870  0.2190 -0.4608 -0.1346
  537MOL0     C74024   7.331  11.396   1.797 -0.5178  1.6220 -0.9889
  537MOL0     C74025   7.469  11.415   1.819  0.5964  0.6085 -0.7016
  537MOL0     C74026   7.521  11.508   1.907  0.4103 -0.7255 -0.0785
  537MOL0     O74027   7.650  11.551   1.878 -0.4056 -0.2470 -0.0892
  537MOL0     C74028   7.733  11.612   1.979 -0.0889 -0.4246 -0.0579
  537MOL0     C74029   7.874  11.595   1.929  0.0072  0.7438  0.9392
  537MOL0     C74030   7.907  11.686   1.811 -0.4964 -0.6667  0.8469
  537MOL0     C74031   8.057  11.667   1.769 -0.2477  0.3521 -0.0219
  537MOL0     C74032   8.118  11.783   1.688  0.1853  0.2385  0.4948
  537MOL0     C74033   8.167  11.874   1.631  0.4967 -0.3795  0.6836
  537MOL0     C74034   7.424  11.575   1.989 -0.6023 -0.0584 -0.1059
  537MOL0     C74035   7.285  11.556   1.976  1.1824  0.7326 -0.6701
  537MOL0     C74036   7.192  11.617   2.087  0.7823 -0.7495  0.2898
  537MOL0     H74037   6.879  11.141   1.816  2.2728  2.2325  1.2730
  537MOL0     H74038   6.648  11.181   1.836  2.4792  3.5707  4.8407
  537MOL0     H74039   6.349  11.367   1.563 -1.0064  1.7434  1.4377
  537MOL0     H74040   6.503  11.413   1.485 -1.2721  0.9716 -1.0866
  537MOL0     H74041   6.490  11.596   1.682 -1.4825  1.7840  1.6832
  537MOL0     H74042   6.419  11.611   1.515  3.6034  0.8458  1.1676
  537MOL0     H74043   6.195  11.571   1.605  0.2939  1.2383  0.7183
  537MOL0     H74044   6.267  11.508   1.764  0.3927 -0.3880  0.2518
  537MOL0     H74045   6.337  11.754   1.799  1.1868 -0.1735 -0.9990
  537MOL0     H74046   6.235  11.792   1.652 -0.2879  1.4034  1.5696
  537MOL0     H74047   6.148  11.667   1.910 -4.4717  0.8966  1.4460
  537MOL0     H74048   6.046  11.676   1.771 -0.2964  0.7126  1.3034
  537MOL0     H74049   6.152  11.913   1.924 -0.9057  1.2500  0.4560
  537MOL0     H74050   6.092  11.923   1.754  1.9603 -0.6517  0.6374
  537MOL0     H74051   5.945  11.824   1.999  0.0863  0.3138  0.3081
  537MOL0     H74052   5.880  11.823   1.834 -0.0282  1.0132  0.6913
  537MOL0     H74053   5.839  12.040   1.819  0.5074 -0.7236 -0.4663
  537MOL0     H74054   5.789  12.000   1.980 -1.3580 -3.2043 -2.1875
  537MOL0     H74055   5.897  12.134   2.178  0.6280 -0.4051  0.3482
  537MOL0     H74056   6.186  12.386   2.200  0.0891  0.5139  1.5428
  537MOL0     H74057   6.068  12.291   2.306 -0.1228 -1.7596 -1.2849
  537MOL0     H74058   5.994  12.537   2.130 -2.1740 -1.6906 -1.3016
  537MOL0     H74059   5.892  12.444   2.262 -0.4782 -0.5773 -2.6151
  537MOL0     H74060   6.006  12.503   2.425  1.1223 -0.4011 -0.2385
  537MOL0     H74061   6.132  12.590   2.341  0.4951 -0.5165  0.7417
  537MOL0     H74062   5.956  12.769   2.271  0.8002  0.1732  0.1595
  537MOL0     H74063   5.844  12.678   2.366  0.1347  1.2556  1.9050
  537MOL0     H74064   5.959  12.795   2.743  1.6021 -0.0976 -1.7966
  537MOL0     H74065   5.871  13.049   2.957  1.8856 -1.1511  0.9797
  537MOL0     H74066   5.883  12.873   2.938  0.0581 -0.8019 -2.3678
  537MOL0     H74067   5.728  12.951   2.930 -0.5622  0.6592 -1.4157
  537MOL0     H74068   5.420  13.257   2.544 -1.8480 -0.8856  0.2212
  537MOL0     H74069   5.279  13.444   2.528  0.5867 -1.1177 -1.0076
  537MOL0     H74070   5.134  13.769   2.769  0.3793 -0.0141  0.3836
  537MOL0     H74071   5.239  13.701   2.887  0.3558  1.2740  1.1451
  537MOL0     H74072   5.319  13.920   2.846 -1.4122  1.2004 -1.0723
  537MOL0     H74073   5.446  13.794   2.779  1.1474  2.0030 -2.9936
  537MOL0     H74074   5.353  13.834   2.557 -0.7484  1.8410 -2.1113
  537MOL0     H74075   5.443  13.961   2.623  1.8768 -2.7376 -0.9466
  537MOL0     H74076   5.131  13.946   2.659 -0.1043 -1.0266  0.9406
  537MOL0     H74077   5.209  13.995   2.511 -1.4150  0.2870  0.5165
  537MOL0     H74078   5.245  14.139   2.791  1.0399  3.3680 -0.2653
  537MOL0     H74079   5.340  14.179   2.659 -0.4214  3.5340  1.9554
  537MOL0     H74080   5.055  14.229   2.653 -0.5370  1.9664  0.7063
  537MOL0     H74081   5.171  14.250   2.508 -1.3794  4.2738 -0.2586
  537MOL0     H74082   5.283  14.425   2.595 -2.4740 -0.7714 -3.9804
  537MOL0     H74083   5.229  14.381   2.765  0.6881 -0.1004 -0.8907
  537MOL0     H74084   5.010  14.454   2.694  2.1281 -3.0911  1.1711
  537MOL0     H74085   5.086  14.516   2.539  3.7719  2.1105 -1.1276
  537MOL0     H74086   5.419  13.602   2.903  0.5161  0.7442 -1.3094
  537MOL0     H74087   5.573  13.404   2.928  0.4977  2.5658 -0.7979
  537MOL0     H74088   5.716  13.125   2.480 -0.7880 -1.4743 -0.3412
  537MOL0     H74089   5.838  12.949   2.362 -2.4094  1.5419  0.0132
  537MOL0     H74090   6.679  11.528   1.590  0.2568 -0.8948 -2.0871
  537MOL0     H74091   6.915  11.521   1.607  2.1830 -0.5843  1.3898
  537MOL0     H74092   7.306  11.310   1.736 -1.9284  1.5250 -0.3054
  537MOL0     H74093   7.529  11.361   1.746  0.6783  0.2006 -0.3423
  537MOL0     H74094   7.713  11.719   1.989  2.4108  0.1735 -0.7124
  537MOL0     H74095   7.721  11.561   2.075 -0.7018  1.0137  0.6677
  537MOL0     H74096   7.884  11.495   1.887  0.4159  1.3009 -0.3227
  537MOL0     H74097   7.944  11.613   2.011  0.1445 -0.4329  1.0914
  537MOL0     H74098   7.839  11.676   1.726  0.0268  2.0998  0.0033
  537MOL0     H74099   7.891  11.793   1.828  0.8516 -0.4190  0.6732
  537MOL0     H74100   8.076  11.572   1.718 -1.9140 -0.0745  0.1117
  537MOL0     H74101   8.110  11.663   1.865  0.5959  1.1427 -0.4397
  537MOL0     H74102   8.207  11.962   1.584 -0.0029 -0.5703 -0.1285
  537MOL0     H74103   7.461  11.645   2.063  2.3570 -1.6392  0.0531
  537MOL0     H74104   7.144  11.711   2.061  0.2905 -1.6853 -2.4972
  537MOL0     H74105   7.107  11.556   2.119  1.0404 -0.5172  1.4507
  537MOL0     H74106   7.244  11.634   2.181 -0.2205  0.9318  0.5706
  538MOL0     O74107   0.796   7.403   2.228 -0.4652  0.7675 -0.5902
  538MOL0     C74108   0.832   7.467   2.329  0.0391  0.8219 -0.8625
  538MOL0     O74109   0.959   7.450   2.384 -0.3153 -0.6250 -1.0666
  538MOL0     C74110   1.043   7.347   2.333 -0.1835  0.1319 -0.1378
  538MOL0     C74111   1.118   7.372   2.222  0.4461  0.6039  0.0309
  538MOL0     C74112   1.206   7.275   2.172 -0.6846 -0.6378  0.4574
  538MOL0     C74113   1.209   7.150   2.233  0.0785  0.1826 -0.1036
  538MOL0     O74114   1.301   7.058   2.180 -0.2784  0.1157  0.0421
  538MOL0     C74115   1.349   6.953   2.261 -1.6429 -0.0955 -0.2943
  538MOL0     C74116   1.466   6.881   2.194 -0.9039 -0.0197  1.2264
  538MOL0     C74117   1.506   6.759   2.269 -0.4184  0.2659 -0.1034
  538MOL0     C74118   1.625   6.691   2.196  0.0098  0.2454 -0.1970
  538MOL0     C74119   1.704   6.601   2.287 -0.3915 -0.0589 -0.3960
  538MOL0     C74120   1.813   6.532   2.211 -0.5310 -0.2811  1.1343
  538MOL0     C74121   1.937   6.501   2.296 -0.6990 -0.3960 -0.9748
  538MOL0     C74122   2.018   6.626   2.344 -0.8052  0.9290 -0.2201
  538MOL0     N74123   2.093   6.600   2.465  0.7381  0.1038  0.7046
  538MOL0     C74124   2.114   6.696   2.556  0.0374 -0.3656  0.1565
  538MOL0     C74125   2.174   6.637   2.659 -0.0882  0.3335 -0.1393
  538MOL0     C74126   2.237   6.713   2.771  0.4922  0.1933  1.2705
  538MOL0     C74127   2.385   6.745   2.746 -0.6667  0.5303 -0.1173
  538MOL0     C74128   2.483   6.624   2.712  0.4173  0.1984 -0.0608
  538MOL0     C74129   2.470   6.512   2.813  0.0528 -0.1029  0.6200
  538MOL0     O74130   2.601   6.441   2.817  0.0197  0.0457 -0.2372
  538MOL0     C74131   2.691   6.468   2.923  0.4659  0.3958 -0.2117
  538MOL0     C74132   2.654   6.466   3.060 -0.5678 -0.2855 -0.0504
  538MOL0     C74133   2.751   6.516   3.155  0.0708  0.4569 -0.0938
  538MOL0     C74134   2.725   6.534   3.302 -0.4244  0.1200  0.1638
  538MOL0     C74135   2.886   6.549   3.112  0.4306 -0.1969  1.0856
  538MOL0     C74136   2.985   6.616   3.206  0.3991 -0.5438 -0.4606
  538MOL0     O74137   3.006   6.572   3.335 -1.0551  0.1927 -0.1726
  538MOL0     C74138   3.075   6.656   3.418 -0.0442 -0.9065  0.2952
  538MOL0     C74139   3.199   6.707   3.394 -1.0421 -0.2667 -0.6020
  538MOL0     C74140   3.270   6.780   3.487 -0.6627  0.1550 -0.0168
  538MOL0     C74141   3.215   6.808   3.610  0.2180  0.0924 -0.9580
  538MOL0     O74142   3.276   6.886   3.707  0.2833 -0.4724  0.1735
  538MOL0     C74143   3.309   7.014   3.658  0.3233  0.4597  1.0672
  538MOL0     C74144   3.299   7.103   3.780 -0.3197  0.3018 -0.7015
  538MOL0     C74145   3.322   7.258   3.734 -0.3585  0.3325 -0.2094
  538MOL0     C74146   3.299   7.368   3.838  0.1013 -0.3814 -0.7859
  538MOL0     C74147   3.347   7.506   3.774 -0.2807 -0.3585 -0.0970
  538MOL0     C74148   3.305   7.621   3.876  0.4463  1.2383  0.1070
  538MOL0     C74149   3.405   7.734   3.854  0.1248 -0.1368 -0.6431
  538MOL0     C74150   3.396   7.839   3.968 -0.1049 -0.1776 -0.8931
  538MOL0    Cl74151   3.229   7.913   3.942  0.1087  0.8021  0.3010
  538MOL0     C74152   3.096   6.759   3.649  0.1746  0.0831  0.4959
  538MOL0     C74153   3.030   6.683   3.546 -0.3059  0.4032 -0.1340
  538MOL0     O74154   3.045   6.708   3.161  0.1271 -0.3381  0.1946
  538MOL0     C74155   2.911   6.557   2.969  0.3834  0.5180 -1.1084
  538MOL0     C74156   2.821   6.500   2.884 -0.1686  0.2662  0.3432
  538MOL0     N74157   2.192   6.507   2.623 -0.0435  0.0084  1.2161
  538MOL0     N74158   2.143   6.482   2.503 -0.3394  0.0173  0.4320
  538MOL0     C74159   1.129   7.113   2.342 -0.4247 -1.0829  0.1277
  538MOL0     C74160   1.042   7.216   2.388 -0.2201 -1.3368 -0.2196
  538MOL0     C74161   0.750   7.581   2.376 -0.3917 -0.4487 -1.1379
  538MOL0     C74162   0.820   7.672   2.468  0.2638 -0.8625 -1.0407
  538MOL0     C74163   0.749   7.780   2.530 -0.1222  0.2052  0.4307
  538MOL0     C74164   0.614   7.815   2.492  0.4619  1.0009  0.7726
  538MOL0     O74165   0.550   7.926   2.535  0.3141 -0.2007  0.5159
  538MOL0     C74166   0.574   7.969   2.674 -0.0612 -0.4563  1.1398
  538MOL0     C74167   0.509   7.865   2.766  0.4901 -0.6599 -0.5108
  538MOL0     C74168   0.544   7.902   2.921 -0.7520 -0.2232 -0.2503
  538MOL0     C74169   0.448   7.833   3.012  0.0951  0.1055  0.5843
  538MOL0     C74170   0.325   7.914   3.028  0.6249  0.1110 -0.8104
  538MOL0     C74171   0.250   8.010   3.046  0.2868 -0.0113  0.4444
  538MOL0     C74172   0.552   7.727   2.399 -0.4677 -0.4658 -0.7730
  538MOL0     C74173   0.620   7.624   2.336  0.6902 -0.4827  0.0530
  538MOL0     C74174   0.539   7.548   2.240  0.8901 -0.0385 -0.6486
  538MOL0     H74175   1.113   7.466   2.168  3.5838  0.9932  0.1896
  538MOL0     H74176   1.267   7.293   2.084 -1.4739  1.7477  0.3365
  538MOL0     H74177   1.275   6.874   2.279  0.7951 -2.4100  0.1113
  538MOL0     H74178   1.384   7.000   2.353  0.4479  1.5992 -1.8592
  538MOL0     H74179   1.434   6.856   2.092 -0.4292 -0.3766  1.1635
  538MOL0     H74180   1.548   6.953   2.194  0.4486 -1.4619  3.0077
  538MOL0     H74181   1.536   6.797   2.367 -0.7943 -2.4765  1.1618
  538MOL0     H74182   1.423   6.688   2.265  0.1004 -0.3416 -0.1301
  538MOL0     H74183   1.585   6.621   2.121  0.1064  0.0319 -0.0485
  538MOL0     H74184   1.688   6.770   2.155  1.6734 -1.7988 -1.8088
  538MOL0     H74185   1.654   6.521   2.341  1.2426  0.3610  1.8614
  538MOL0     H74186   1.736   6.660   2.374  1.5990 -2.1602  0.4071
  538MOL0     H74187   1.766   6.437   2.182 -3.1527  1.5511 -1.2300
  538MOL0     H74188   1.840   6.597   2.127 -1.6160  1.1316  1.8350
  538MOL0     H74189   2.003   6.436   2.237  1.1861  2.4283 -2.1742
  538MOL0     H74190   1.895   6.450   2.383 -1.0849  2.7147  0.7991
  538MOL0     H74191   2.092   6.670   2.276  0.1887  1.4031  1.1245
  538MOL0     H74192   1.952   6.706   2.378 -1.2317 -0.8154  3.5318
  538MOL0     H74193   2.108   6.804   2.546  2.3800 -0.2718 -0.8586
  538MOL0     H74194   2.221   6.656   2.863  0.0634  1.1903  1.8269
  538MOL0     H74195   2.178   6.803   2.790  0.4135  0.2569  0.7284
  538MOL0     H74196   2.395   6.819   2.667  0.5339  0.7423  0.2087
  538MOL0     H74197   2.424   6.794   2.836 -0.8108  0.1021  0.1810
  538MOL0     H74198   2.454   6.577   2.618  0.4203  1.5840 -0.7688
  538MOL0     H74199   2.586   6.657   2.695  0.2169 -0.4545 -2.9429
  538MOL0     H74200   2.458   6.554   2.913 -1.2021 -3.3998  1.9872
  538MOL0     H74201   2.391   6.443   2.782 -0.6794  0.5996  0.8946
  538MOL0     H74202   2.559   6.430   3.100 -0.1054 -1.6960 -0.1648
  538MOL0     H74203   2.766   6.629   3.338 -1.7454  0.4494  0.8835
  538MOL0     H74204   2.782   6.451   3.346 -0.0285 -2.4522 -4.5568
  538MOL0     H74205   2.617   6.537   3.320 -0.4859  1.6375 -0.3348
  538MOL0     H74206   3.235   6.681   3.295 -2.3186  2.5624 -1.9143
  538MOL0     H74207   3.372   6.808   3.461 -0.4719 -0.9670 -0.5327
  538MOL0     H74208   3.410   7.022   3.616 -0.5924  1.9571 -1.0348
  538MOL0     H74209   3.240   7.040   3.577  2.0611  1.9281 -0.0210
  538MOL0     H74210   3.203   7.098   3.831 -1.1629 -1.5529 -2.3238
  538MOL0     H74211   3.378   7.066   3.846  0.6927  0.3846 -1.8193
  538MOL0     H74212   3.256   7.276   3.649 -0.3206  0.1780 -0.2721
  538MOL0     H74213   3.427   7.271   3.707  0.7236 -1.3179  2.8145
  538MOL0     H74214   3.351   7.337   3.929  3.6312  1.8108 -1.8421
  538MOL0     H74215   3.191   7.373   3.857  0.4096 -2.6203  2.3387
  538MOL0     H74216   3.456   7.509   3.775 -0.2616  2.2836  2.0419
  538MOL0     H74217   3.302   7.513   3.675  0.4097 -2.9657 -0.6743
  538MOL0     H74218   3.304   7.582   3.978 -0.9731 -0.3616 -0.4879
  538MOL0     H74219   3.200   7.645   3.859  0.1349  1.7732  2.3901
  538MOL0     H74220   3.405   7.765   3.749  1.3081 -3.1560 -1.6478
  538MOL0     H74221   3.505   7.691   3.863 -0.0220  0.0455  3.5717
  538MOL0     H74222   3.473   7.917   3.969  1.4290 -1.3642 -4.7314
  538MOL0     H74223   3.385   7.783   4.061  0.2819  0.6425 -0.3382
  538MOL0     H74224   3.056   6.770   3.750 -0.9775  2.4588 -0.1418
  538MOL0     H74225   2.935   6.644   3.581 -1.2683 -0.7278 -3.6604
  538MOL0     H74226   3.004   6.606   2.943  0.0513  1.6938 -0.1755
  538MOL0     H74227   2.838   6.486   2.778  1.5351 -4.3324  0.9970
  538MOL0     H74228   1.131   7.021   2.400  2.2464 -0.3757  1.3108
  538MOL0     H74229   0.987   7.197   2.480 -2.0673  0.9804 -0.7708
  538MOL0     H74230   0.921   7.652   2.504  1.0043  3.2954 -0.3323
  538MOL0     H74231   0.805   7.834   2.606  1.9419  0.6461 -1.2987
  538MOL0     H74232   0.680   7.988   2.696 -0.6448  5.4836  0.4177
  538MOL0     H74233   0.520   8.062   2.694 -0.2033 -0.2925  0.0085
  538MOL0     H74234   0.557   7.767   2.760 -0.2715 -1.1878  1.3087
  538MOL0     H74235   0.402   7.868   2.748  0.5144 -2.3783 -1.1236
  538MOL0     H74236   0.650   7.877   2.934  0.1477  2.7072 -1.1785
  538MOL0     H74237   0.540   8.010   2.930  1.3364 -0.0278 -1.0775
  538MOL0     H74238   0.501   7.810   3.105  2.4837  0.7182 -0.5621
  538MOL0     H74239   0.415   7.734   2.977 -0.7394  0.8822 -0.9194
  538MOL0     H74240   0.184   8.094   3.045 -0.9224 -0.9292 -0.3295
  538MOL0     H74241   0.455   7.766   2.371 -0.6225 -1.3057 -1.4202
  538MOL0     H74242   0.525   7.443   2.270  0.5470 -0.9698 -3.7491
  538MOL0     H74243   0.439   7.591   2.233  2.0795  2.8299 -1.0857
  538MOL0     H74244   0.589   7.541   2.143 -1.1501  0.7750 -1.8148
  539MOL0     O74245   7.358   9.443  10.735  0.1165 -0.7181 -0.3125
  539MOL0     C74246   7.433   9.531  10.699 -0.3693 -0.8792  0.1115
  539MOL0     O74247   7.398   9.633  10.607  0.9111 -0.3176  0.1702
  539MOL0     C74248   7.274   9.638  10.561 -0.0496  0.2761 -0.1501
  539MOL0     C74249   7.171   9.719  10.614  0.4729 -0.1263  0.7045
  539MOL0     C74250   7.041   9.710  10.555  0.1642 -0.4671 -0.4403
  539MOL0     C74251   7.016   9.632  10.447 -0.0114  0.3645 -0.6466
  539MOL0     O74252   6.887   9.625  10.399 -0.5491  0.0813  0.7567
  539MOL0     C74253   6.780   9.592  10.491  0.0752 -0.3791 -0.2047
  539MOL0     C74254   6.680   9.524  10.410  0.0179  0.5034  0.6805
  539MOL0     C74255   6.714   9.396  10.351  0.3296 -0.4789 -0.0707
  539MOL0     C74256   6.794   9.400  10.214  0.0077 -0.0427  0.5266
  539MOL0     C74257   6.819   9.255  10.166  0.3242  0.7827  0.5989
  539MOL0     C74258   6.869   9.250  10.024 -0.8820  0.2325 -0.6667
  539MOL0     C74259   6.975   9.349   9.986  0.2036  0.1886 -0.5511
  539MOL0     C74260   7.037   9.310   9.856 -0.3228  0.3123 -1.1213
  539MOL0     N74261   7.037   9.407   9.752  0.2486 -0.5389  0.2710
  539MOL0     C74262   7.122   9.515   9.755 -0.9979  0.2839 -0.0354
  539MOL0     C74263   7.079   9.582   9.644 -0.0156  0.4029 -0.3958
  539MOL0     C74264   7.126   9.724   9.610 -0.0534 -0.2946  0.1494
  539MOL0     C74265   7.247   9.718   9.522 -1.1172 -0.1759 -0.5370
  539MOL0     C74266   7.380   9.689   9.590 -0.1623  0.5717 -0.6382
  539MOL0     C74267   7.494   9.632   9.504 -0.4675 -0.2639 -0.2940
  539MOL0     O74268   7.445   9.538   9.409 -0.2497  0.5411 -0.3762
  539MOL0     C74269   7.468   9.409   9.447  0.1453  1.1109 -0.1830
  539MOL0     C74270   7.364   9.323   9.497 -0.7697 -0.3294  0.7030
  539MOL0     C74271   7.393   9.186   9.526 -0.0713  0.6169 -0.7093
  539MOL0     C74272   7.277   9.084   9.553 -0.5807 -0.2138 -0.4233
  539MOL0     C74273   7.528   9.134   9.545  0.2237  0.3974  0.2982
  539MOL0     C74274   7.561   8.994   9.593 -0.0143  0.5798 -0.3881
  539MOL0     O74275   7.495   8.951   9.707 -0.4689  0.0300 -0.2266
  539MOL0     C74276   7.511   8.829   9.757 -0.2553 -0.3751 -0.1710
  539MOL0     C74277   7.572   8.807   9.883 -0.2283 -0.5786  0.3241
  539MOL0     C74278   7.588   8.678   9.932  0.0104  0.2685 -0.5613
  539MOL0     C74279   7.522   8.570   9.875 -0.4205  0.2037 -0.3331
  539MOL0     O74280   7.545   8.449   9.933  0.7377 -0.2543 -0.5279
  539MOL0     C74281   7.508   8.333   9.856 -0.6371 -0.8351  0.3386
  539MOL0     C74282   7.557   8.197   9.903  0.4213  0.3472  0.1654
  539MOL0     C74283   7.551   8.187  10.055 -0.1506 -0.1362  0.0943
  539MOL0     C74284   7.555   8.038  10.108 -0.1801 -0.4933  0.0112
  539MOL0     C74285   7.509   8.017  10.247  0.2613  1.0384  0.0277
  539MOL0     C74286   7.518   7.855  10.291 -0.4936 -0.1888  0.1675
  539MOL0     C74287   7.392   7.782  10.314  0.1864 -0.4708  0.0364
  539MOL0     C74288   7.395   7.648  10.374 -0.0490  0.2235  0.0152
  539MOL0    Cl74289   7.480   7.533  10.270  0.6173 -0.2458 -0.5929
  539MOL0     C74290   7.456   8.590   9.754  0.4401 -0.8136  0.3887
  539MOL0     C74291   7.447   8.717   9.695  0.7949  0.2313 -0.3456
  539MOL0     O74292   7.653   8.931   9.534 -0.1830  0.5627 -0.2634
  539MOL0     C74293   7.624   9.223   9.477  0.3798 -0.6368  0.1038
  539MOL0     C74294   7.597   9.349   9.429  0.4757 -0.1955 -0.7535
  539MOL0     N74295   6.969   9.514   9.579 -0.2500 -0.1219  0.0757
  539MOL0     N74296   6.956   9.407   9.647  0.0414 -1.5238  0.1418
  539MOL0     C74297   7.119   9.547  10.392  0.3356 -0.7645  1.2600
  539MOL0     C74298   7.238   9.544  10.460  0.0096 -1.0057  0.3093
  539MOL0     C74299   7.574   9.525  10.736  0.1578  0.5299 -0.6004
  539MOL0     C74300   7.612   9.589  10.848 -0.0174 -0.2234 -1.2285
  539MOL0     C74301   7.737   9.582  10.912 -0.0121 -0.5165 -0.1637
  539MOL0     C74302   7.834   9.490  10.854 -0.2734 -0.0689  0.3129
  539MOL0     O74303   7.957   9.469  10.903  0.5845 -0.2281  0.2824
  539MOL0     C74304   8.041   9.583  10.939  0.2339 -0.4545 -0.1413
  539MOL0     C74305   8.067   9.675  10.827 -0.4563 -0.9395 -0.1728
  539MOL0     C74306   8.176   9.631  10.726  0.0289 -0.5749 -1.1838
  539MOL0     C74307   8.204   9.744  10.622  0.2995  0.2736  0.0565
  539MOL0     C74308   8.337   9.726  10.564  0.4389 -0.4276  0.7233
  539MOL0     C74309   8.435   9.704  10.502 -0.6111 -0.0183  0.1234
  539MOL0     C74310   7.790   9.412  10.738 -0.5824 -1.3172  0.2770
  539MOL0     C74311   7.657   9.422  10.686 -0.4761 -0.3680 -0.3651
  539MOL0     C74312   7.619   9.320  10.576 -0.1658 -0.2554 -0.9161
  539MOL0     H74313   7.207   9.792  10.686 -1.8441 -0.6344  2.5075
  539MOL0     H74314   6.962   9.769  10.599 -0.3180 -0.9062 -0.7004
  539MOL0     H74315   6.739   9.687  10.528 -1.3984 -1.3104  0.6943
  539MOL0     H74316   6.810   9.533  10.578  1.6170  0.1374 -0.3702
  539MOL0     H74317   6.590   9.525  10.473  0.5496  0.8285  1.4553
  539MOL0     H74318   6.653   9.592  10.329 -2.7894  0.1100  1.1684
  539MOL0     H74319   6.764   9.352  10.438  1.5773 -0.9531 -1.0062
  539MOL0     H74320   6.625   9.337  10.329  1.4670 -2.4180  0.3477
  539MOL0     H74321   6.733   9.466  10.152  1.0603 -0.0670 -0.5700
  539MOL0     H74322   6.894   9.437  10.239  0.1033  1.2683 -1.5586
  539MOL0     H74323   6.735   9.185  10.171  2.1343 -1.5345 -0.0656
  539MOL0     H74324   6.889   9.213  10.238  3.6473  3.9871 -0.4456
  539MOL0     H74325   6.915   9.152  10.014  1.3799  0.9311  1.9748
  539MOL0     H74326   6.779   9.259   9.961 -1.5247 -0.1726  0.1735
  539MOL0     H74327   7.051   9.364  10.063 -0.1280 -0.4265 -0.0938
  539MOL0     H74328   6.936   9.448   9.960  1.2588 -0.2710 -4.5679
  539MOL0     H74329   7.143   9.293   9.881 -0.6713  1.0393  1.0920
  539MOL0     H74330   6.993   9.219   9.815 -0.1898 -0.6415  0.7232
  539MOL0     H74331   7.199   9.532   9.829  0.0951 -0.7821 -0.8791
  539MOL0     H74332   7.138   9.769   9.710  0.8999 -2.1247  0.9090
  539MOL0     H74333   7.051   9.778   9.551  0.9686  0.0287 -0.8837
  539MOL0     H74334   7.224   9.648   9.442 -3.5374  2.4958 -2.3821
  539MOL0     H74335   7.266   9.815   9.476  0.6769 -0.3058 -0.1551
  539MOL0     H74336   7.406   9.783   9.639 -4.5146  1.0397  1.1773
  539MOL0     H74337   7.366   9.619   9.673 -1.2872  2.0246  0.4496
  539MOL0     H74338   7.531   9.717   9.445 -2.2929  1.2090  0.6087
  539MOL0     H74339   7.585   9.604   9.559 -0.7595  0.6353  0.6672
  539MOL0     H74340   7.263   9.361   9.501  0.0989  2.3593 -0.1045
  539MOL0     H74341   7.302   8.988   9.507  2.8952  1.3834 -2.3264
  539MOL0     H74342   7.183   9.124   9.513 -0.2562  3.2828  1.9070
  539MOL0     H74343   7.263   9.084   9.661 -2.5124  2.2042 -0.5704
  539MOL0     H74344   7.620   8.888   9.938  2.4399 -0.9471 -1.3089
  539MOL0     H74345   7.643   8.654  10.022 -0.2206  0.4326 -0.3739
  539MOL0     H74346   7.399   8.331   9.864 -1.0941  3.8241 -1.7309
  539MOL0     H74347   7.527   8.342   9.749 -0.5058 -0.8960  0.3572
  539MOL0     H74348   7.491   8.127   9.851 -4.4187  2.6162  2.5404
  539MOL0     H74349   7.659   8.172   9.871  0.5146  0.4948  0.3433
  539MOL0     H74350   7.455   8.234  10.079 -1.1192  0.0728 -3.5891
  539MOL0     H74351   7.630   8.241  10.109 -2.4892  3.1163  0.5552
  539MOL0     H74352   7.656   8.000  10.094  0.4516  1.0722  0.1324
  539MOL0     H74353   7.496   7.969  10.047 -1.0323 -1.1837  1.5435
  539MOL0     H74354   7.541   8.082  10.328 -0.2435  1.4590 -0.1048
  539MOL0     H74355   7.402   8.038  10.241 -0.0467  0.1209  1.8389
  539MOL0     H74356   7.562   7.853  10.391  3.3539 -1.6295 -1.3582
  539MOL0     H74357   7.576   7.805  10.213 -1.1248 -0.8191  0.1006
  539MOL0     H74358   7.350   7.788  10.213  3.7954  0.9013 -1.5805
  539MOL0     H74359   7.329   7.835  10.385 -0.9552  0.3309 -1.5301
  539MOL0     H74360   7.289   7.621  10.370 -1.3778  4.7207 -3.0482
  539MOL0     H74361   7.427   7.647  10.478 -2.3884  0.5440  0.7978
  539MOL0     H74362   7.410   8.506   9.703  2.1971 -1.2505 -0.5308
  539MOL0     H74363   7.409   8.726   9.594  1.4006 -2.8329 -0.9704
  539MOL0     H74364   7.731   9.203   9.470 -0.1341 -3.2558 -1.8248
  539MOL0     H74365   7.673   9.412   9.382 -0.1794  0.0730 -1.4827
  539MOL0     H74366   7.115   9.505  10.292 -0.4384  0.4311  0.7569
  539MOL0     H74367   7.321   9.483  10.427  1.5527  1.7465 -1.2661
  539MOL0     H74368   7.538   9.656  10.891 -2.6655 -2.7174 -1.6661
  539MOL0     H74369   7.758   9.633  11.006  1.1491 -2.3592  0.6345
  539MOL0     H74370   7.991   9.649  11.011  3.0418  1.0389  0.5667
  539MOL0     H74371   8.138   9.553  10.978  0.2430  0.4327  0.5605
  539MOL0     H74372   8.103   9.769  10.872 -2.6872 -2.1986  5.0254
  539MOL0     H74373   7.974   9.716  10.786  0.5631  1.6073 -0.1509
  539MOL0     H74374   8.272   9.612  10.775 -0.0649 -1.0008 -1.1615
  539MOL0     H74375   8.141   9.540  10.677 -0.8608 -0.9132  0.0108
  539MOL0     H74376   8.200   9.846  10.662 -0.1071  0.1484  0.3341
  539MOL0     H74377   8.140   9.729  10.535  0.1638 -1.8706  0.4769
  539MOL0     H74378   8.523   9.682  10.446  0.0724 -1.4354  1.6559
  539MOL0     H74379   7.848   9.333  10.691  3.8485  3.1963 -2.8869
  539MOL0     H74380   7.647   9.356  10.476  2.5098  0.3976 -0.0170
  539MOL0     H74381   7.667   9.223  10.587  1.2124  0.5216  0.3797
  539MOL0     H74382   7.510   9.310  10.571 -0.3019  0.7330 -0.2528
  540MOL0     O74383  10.374   1.260   7.802 -0.3997 -0.3444 -0.0092
  540MOL0     C74384  10.462   1.213   7.874  0.5872  0.0591  0.0095
  540MOL0     O74385  10.496   1.254   8.010  0.0955 -0.0386  0.0818
  540MOL0     C74386  10.426   1.360   8.061 -0.9549  0.4157  0.1611
  540MOL0     C74387  10.466   1.489   8.021  0.1841 -1.0748  0.2798
  540MOL0     C74388  10.375   1.594   8.034  0.4987 -0.4310 -0.7045
  540MOL0     C74389  10.252   1.573   8.097 -0.3879  0.0124  1.1726
  540MOL0     O74390  10.181   1.685   8.110 -0.1049  0.1929 -0.3719
  540MOL0     C74391  10.057   1.672   8.184 -0.0919  0.0226 -0.4304
  540MOL0     C74392  10.008   1.821   8.183  0.1576  0.5960  0.3654
  540MOL0     C74393  10.094   1.904   8.281  0.2001 -0.2773 -0.1222
  540MOL0     C74394  10.011   2.030   8.322  1.2004  1.4467 -0.4766
  540MOL0     C74395  10.074   2.127   8.409 -0.5087  0.1932  1.4744
  540MOL0     C74396  10.223   2.163   8.364  0.1570 -0.0345  0.1860
  540MOL0     C74397  10.274   2.300   8.411 -0.1434  0.2635 -0.3889
  540MOL0     C74398  10.414   2.352   8.369  0.4715  0.2899 -0.8233
  540MOL0     N74399  10.414   2.385   8.228  0.4094 -0.7005  0.0087
  540MOL0     C74400  10.402   2.518   8.171  0.7254 -1.2999 -0.0381
  540MOL0     C74401  10.414   2.500   8.038  0.0889 -0.0194  0.6572
  540MOL0     C74402  10.373   2.609   7.938 -0.2681  0.3048 -0.3367
  540MOL0     C74403  10.489   2.679   7.872  0.0281 -0.4860  0.4420
  540MOL0     C74404  10.430   2.803   7.803 -0.2892 -0.8418 -0.4041
  540MOL0     C74405  10.356   2.774   7.675 -0.3325  0.8137  0.7291
  540MOL0     O74406  10.293   2.900   7.628 -0.0380 -0.1222 -0.3326
  540MOL0     C74407  10.249   2.901   7.494 -0.2611 -1.3773  0.4898
  540MOL0     C74408  10.221   3.032   7.434  0.3595 -0.0781  0.6192
  540MOL0     C74409  10.180   3.049   7.301  0.5036 -0.0292  0.4310
  540MOL0     C74410  10.179   3.187   7.242  0.3058 -0.1319  0.4891
  540MOL0     C74411  10.145   2.942   7.220 -0.6834 -0.5086  0.0400
  540MOL0     C74412  10.099   2.936   7.083  0.4140 -0.2026  1.1134
  540MOL0     O74413  10.101   2.820   7.008 -0.2278  0.1006 -0.1218
  540MOL0     C74414  10.086   2.827   6.872 -0.7717  0.5674 -0.6143
  540MOL0     C74415  10.189   2.876   6.791  0.5030 -0.1410  0.0698
  540MOL0     C74416  10.165   2.882   6.653 -0.1163  0.0658  0.4500
  540MOL0     C74417  10.055   2.826   6.591 -0.3728 -0.3792  0.3800
  540MOL0     O74418  10.048   2.835   6.453 -0.5625 -0.1903 -0.0197
  540MOL0     C74419   9.953   2.763   6.377 -0.5440  0.0732  0.9277
  540MOL0     C74420   9.976   2.758   6.218 -0.1773  0.4019  1.1021
  540MOL0     C74421  10.127   2.723   6.199 -1.5290 -0.6959  0.3522
  540MOL0     C74422  10.140   2.654   6.068  0.0898 -0.1731  0.5932
  540MOL0     C74423  10.216   2.524   6.057 -0.5668 -0.2426  0.0103
  540MOL0     C74424  10.367   2.554   6.049 -1.0250  0.2331  0.0159
  540MOL0     C74425  10.451   2.429   6.042  0.4456  0.2053 -0.8691
  540MOL0     C74426  10.576   2.437   5.956  0.6137 -0.8445  0.4813
  540MOL0    Cl74427  10.504   2.482   5.802  0.3908  0.0440  0.2825
  540MOL0     C74428   9.960   2.766   6.672 -0.3245  0.9364  0.2051
  540MOL0     C74429   9.972   2.765   6.813 -0.6394 -1.1236  1.2930
  540MOL0     O74430  10.063   3.040   7.028  0.0063  0.1221 -0.5852
  540MOL0     C74431  10.156   2.819   7.279 -0.8574  0.4093 -0.7501
  540MOL0     C74432  10.220   2.793   7.410 -0.4087  0.0242  0.2346
  540MOL0     N74433  10.428   2.365   8.008 -0.2507  0.1776  0.3794
  540MOL0     N74434  10.419   2.303   8.116  0.4940  0.4502 -0.3185
  540MOL0     C74435  10.212   1.443   8.145 -0.4568  0.6264  0.2598
  540MOL0     C74436  10.300   1.337   8.108  0.6550  0.1861 -0.2581
  540MOL0     C74437  10.555   1.107   7.819 -0.4329  0.6948 -0.3759
  540MOL0     C74438  10.671   1.082   7.892 -0.1241 -0.3315  0.7078
  540MOL0     C74439  10.761   0.986   7.847 -0.3024 -0.0764 -0.6185
  540MOL0     C74440  10.731   0.903   7.743 -0.1184  1.0179 -0.2304
  540MOL0     O74441  10.827   0.811   7.716 -0.1746  0.2818 -0.0661
  540MOL0     C74442  10.789   0.709   7.624  0.6743 -0.1779 -0.6247
  540MOL0     C74443  10.848   0.575   7.634 -0.0880  1.0170 -0.8015
  540MOL0     C74444  11.000   0.576   7.605 -0.9807 -0.8937 -0.6075
  540MOL0     C74445  11.055   0.434   7.644  0.1318 -0.6147  0.3589
  540MOL0     C74446  11.184   0.403   7.594 -0.2428 -0.8911  0.7294
  540MOL0     C74447  11.291   0.383   7.550 -0.3715  1.2316  0.7117
  540MOL0     C74448  10.610   0.925   7.669 -0.4959 -0.2676  0.6058
  540MOL0     C74449  10.529   1.024   7.708 -0.3759  0.2855 -0.0026
  540MOL0     C74450  10.402   1.034   7.629 -0.2119  0.3024  0.5587
  540MOL0     H74451  10.560   1.507   7.970 -1.0267 -1.2225 -2.1451
  540MOL0     H74452  10.402   1.694   8.001 -1.5600  0.1953 -0.6661
  540MOL0     H74453  10.074   1.644   8.288  1.3994  2.2658 -0.0157
  540MOL0     H74454   9.981   1.614   8.130 -1.0902 -1.3087  2.2068
  540MOL0     H74455  10.015   1.864   8.083  1.4650  1.4965  0.8057
  540MOL0     H74456   9.907   1.832   8.223  0.9855  2.8533  2.1062
  540MOL0     H74457  10.115   1.839   8.367 -2.5094 -0.3694  0.5619
  540MOL0     H74458  10.191   1.938   8.244 -1.0572  3.7391 -0.2223
  540MOL0     H74459   9.979   2.092   8.239  0.7391 -0.3113 -1.6635
  540MOL0     H74460   9.930   1.989   8.383  2.3044  1.7042  1.2664
  540MOL0     H74461  10.076   2.090   8.512 -1.4433 -1.4086  0.9552
  540MOL0     H74462  10.019   2.222   8.405  2.6862  2.2637  2.4922
  540MOL0     H74463  10.285   2.080   8.400  0.5654  0.2578  0.1742
  540MOL0     H74464  10.229   2.170   8.255  0.8357  0.9301  0.2657
  540MOL0     H74465  10.266   2.325   8.517  0.6381  1.1882 -0.5311
  540MOL0     H74466  10.199   2.368   8.369 -1.8650 -1.3580 -0.0329
  540MOL0     H74467  10.451   2.426   8.441 -1.6809  1.8140 -1.1827
  540MOL0     H74468  10.486   2.272   8.385  1.6296  1.5921  0.7831
  540MOL0     H74469  10.369   2.610   8.218  0.4182 -0.7163 -1.3767
  540MOL0     H74470  10.312   2.675   8.000 -1.5973 -1.5887  0.4676
  540MOL0     H74471  10.299   2.567   7.868 -1.5348  1.8604  0.0034
  540MOL0     H74472  10.567   2.706   7.944 -0.1298 -1.0949  0.8521
  540MOL0     H74473  10.528   2.611   7.795  1.5820 -0.9073  1.5506
  540MOL0     H74474  10.369   2.857   7.876 -0.7870 -1.4346 -0.3789
  540MOL0     H74475  10.518   2.866   7.785 -0.2356 -0.7589  0.1301
  540MOL0     H74476  10.422   2.735   7.597  0.1220 -0.2368  1.6040
  540MOL0     H74477  10.281   2.698   7.695 -0.2396  0.7406  0.8032
  540MOL0     H74478  10.247   3.120   7.492  0.5288 -0.5968  1.3398
  540MOL0     H74479  10.240   3.249   7.308  1.5435  0.6531 -1.2862
  540MOL0     H74480  10.074   3.216   7.240 -0.0231 -1.1269  1.9455
  540MOL0     H74481  10.229   3.201   7.145  2.0446  1.6523  1.5638
  540MOL0     H74482  10.280   2.919   6.832  1.1641  0.2151 -1.6580
  540MOL0     H74483  10.236   2.927   6.585 -2.8557  1.2377 -1.8704
  540MOL0     H74484   9.942   2.658   6.404  1.0537  0.3076  2.6953
  540MOL0     H74485   9.856   2.814   6.382 -0.1149  2.0255 -4.4047
  540MOL0     H74486   9.908   2.678   6.185  1.6413 -0.8736  0.2991
  540MOL0     H74487   9.950   2.855   6.176 -0.6223  0.4195  1.4099
  540MOL0     H74488  10.176   2.657   6.272 -1.0549  0.2336  0.8886
  540MOL0     H74489  10.190   2.812   6.204 -0.3936 -1.3277 -1.7659
  540MOL0     H74490  10.179   2.729   5.998 -3.2711  1.2524  0.0551
  540MOL0     H74491  10.043   2.629   6.025  0.2985 -1.4179  0.8012
  540MOL0     H74492  10.182   2.455   6.135 -0.3586 -1.0101 -0.5668
  540MOL0     H74493  10.198   2.471   5.962  1.9130 -1.9225  0.3738
  540MOL0     H74494  10.396   2.608   6.140  4.6663  0.5011 -1.5362
  540MOL0     H74495  10.387   2.630   5.973 -0.9667  2.0170  1.7248
  540MOL0     H74496  10.389   2.341   6.018 -0.7476  0.9425 -0.5892
  540MOL0     H74497  10.483   2.408   6.144  1.4683 -0.0239 -1.2322
  540MOL0     H74498  10.639   2.348   5.958  1.5873 -0.2417 -1.3552
  540MOL0     H74499  10.634   2.523   5.991  0.9022 -1.3770  1.3199
  540MOL0     H74500   9.889   2.694   6.631  2.1737 -2.5380  1.4425
  540MOL0     H74501   9.901   2.703   6.867 -0.4397 -1.1275  1.5516
  540MOL0     H74502  10.132   2.729   7.222  2.7946 -1.1901 -0.0202
  540MOL0     H74503  10.249   2.694   7.442  0.2926  0.8035  2.1522
  540MOL0     H74504  10.113   1.436   8.189 -0.3203 -0.7857  0.3823
  540MOL0     H74505  10.271   1.235   8.132  0.1074 -0.0488 -1.8474
  540MOL0     H74506  10.711   1.132   7.980  1.6355 -2.2118  1.0726
  540MOL0     H74507  10.850   0.985   7.908 -0.5129  2.0870 -0.1828
  540MOL0     H74508  10.683   0.691   7.643  0.4476  2.9820  1.8706
  540MOL0     H74509  10.810   0.755   7.527  2.9353  0.1299 -0.0496
  540MOL0     H74510  10.797   0.507   7.566  1.1761 -2.8450  1.7828
  540MOL0     H74511  10.824   0.526   7.729  0.0622  0.1582 -1.2001
  540MOL0     H74512  11.033   0.610   7.507  4.1511 -0.4048  0.9951
  540MOL0     H74513  11.027   0.649   7.681 -1.6263 -0.4714 -0.7803
  540MOL0     H74514  10.983   0.373   7.589 -2.6808  1.1472  1.8587
  540MOL0     H74515  11.051   0.424   7.753  4.1682  1.0275  0.8048
  540MOL0     H74516  11.385   0.361   7.505 -1.1336  0.2985 -0.4867
  540MOL0     H74517  10.592   0.860   7.585 -1.0906 -0.5626  0.9480
  540MOL0     H74518  10.407   0.951   7.558  2.2475 -1.1490  2.2733
  540MOL0     H74519  10.323   1.023   7.704 -0.8215  2.8775  0.3749
  540MOL0     H74520  10.378   1.127   7.577 -2.5034 -0.9653 -0.8402
  541MOL0     O74521  10.674   8.532   2.886  0.0924 -0.0620  0.4903
  541MOL0     C74522  10.757   8.581   2.810  0.2791  0.2644 -0.6183
  541MOL0     O74523  10.746   8.568   2.673 -0.2555  0.3733 -0.3279
  541MOL0     C74524  10.641   8.505   2.625  0.0376  0.9203  0.1812
  541MOL0     C74525  10.669   8.369   2.600  0.2372 -0.8436 -0.2434
  541MOL0     C74526  10.571   8.295   2.541  0.5709  0.1673  0.5547
  541MOL0     C74527  10.445   8.357   2.496 -0.3606  0.1999 -0.0397
  541MOL0     O74528  10.345   8.281   2.449  0.4963 -0.2156  0.4508
  541MOL0     C74529  10.360   8.144   2.397  0.7332  0.0533  0.3041
  541MOL0     C74530  10.409   8.132   2.255  1.0113  0.1711 -0.3848
  541MOL0     C74531  10.297   8.185   2.155 -0.3604 -0.8847 -0.5276
  541MOL0     C74532  10.357   8.319   2.099  0.4069  0.3899  0.9800
  541MOL0     C74533  10.268   8.392   2.003 -0.1984  0.3888  0.6049
  541MOL0     C74534  10.270   8.335   1.861  0.8587 -0.0318 -0.9438
  541MOL0     C74535  10.196   8.432   1.765 -0.0834  0.1566  0.5540
  541MOL0     C74536  10.197   8.372   1.623  0.4688  0.2133 -0.6882
  541MOL0     N74537  10.113   8.453   1.535 -0.3517  0.9537 -0.5005
  541MOL0     C74538  10.099   8.433   1.398  0.1634  0.0292  0.1664
  541MOL0     C74539   9.993   8.513   1.356 -0.0800  0.5387 -0.0137
  541MOL0     C74540   9.965   8.522   1.205 -0.1707 -0.6912 -0.5273
  541MOL0     C74541  10.058   8.623   1.136 -0.3276  0.4651  0.2421
  541MOL0     C74542  10.005   8.757   1.105  0.3140 -1.0264  0.0387
  541MOL0     C74543  10.113   8.860   1.055 -0.0281 -0.4669  0.4587
  541MOL0     O74544  10.099   8.910   0.920  0.3792 -0.0666 -0.1108
  541MOL0     C74545  10.145   8.843   0.807 -0.6507  0.7420  0.5385
  541MOL0     C74546  10.102   8.895   0.685 -0.0671  0.0900  0.5907
  541MOL0     C74547  10.154   8.843   0.560 -0.6501 -0.2341 -0.4419
  541MOL0     C74548  10.108   8.914   0.425  0.9003  0.9657 -0.3929
  541MOL0     C74549  10.250   8.737   0.564 -0.2646 -0.7066 -0.4171
  541MOL0     C74550  10.317   8.678   0.445 -0.0450  0.4715  0.1610
  541MOL0     O74551  10.377   8.759   0.348  0.5442 -0.0200  0.1482
  541MOL0     C74552  10.386   8.731   0.213  0.0164 -0.3606 -0.4974
  541MOL0     C74553  10.371   8.845   0.127 -0.8540  0.1950 -0.0800
  541MOL0     C74554  10.366   8.836  -0.009  0.4541 -0.5083 -0.3292
  541MOL0     C74555  10.369   8.715  -0.073 -0.8959  1.0060  1.3512
  541MOL0     O74556  10.384   8.702  -0.210 -0.2468  0.2757 -1.0338
  541MOL0     C74557  10.452   8.588  -0.276  0.1839  0.0810 -0.3751
  541MOL0     C74558  10.493   8.638  -0.417  0.9901 -0.4251  1.3463
  541MOL0     C74559  10.599   8.750  -0.412  0.0056 -0.3876 -0.0142
  541MOL0     C74560  10.663   8.785  -0.547  0.3960 -0.4540  0.2058
  541MOL0     C74561  10.759   8.906  -0.527  0.0194  0.4213 -0.2150
  541MOL0     C74562  10.875   8.894  -0.618 -0.0931 -0.7656  0.0175
  541MOL0     C74563  10.952   9.021  -0.623  0.6876  0.5691 -0.2580
  541MOL0     C74564  11.095   8.994  -0.667  0.4180 -0.4186 -0.2613
  541MOL0    Cl74565  11.194   8.914  -0.530  0.1170  0.4084  0.2440
  541MOL0     C74566  10.384   8.605   0.009 -0.0677 -0.2694 -0.6470
  541MOL0     C74567  10.389   8.605   0.149 -0.3507  0.2557 -1.3927
  541MOL0     O74568  10.325   8.555   0.439 -0.2851  0.1363  0.2297
  541MOL0     C74569  10.286   8.679   0.688  0.3687 -1.4609  0.2120
  541MOL0     C74570  10.226   8.725   0.804  0.0832 -0.3978 -0.2723
  541MOL0     N74571   9.938   8.569   1.471  0.0978  0.4712  0.6426
  541MOL0     N74572  10.007   8.533   1.573 -0.2016  0.4064  0.1002
  541MOL0     C74573  10.418   8.494   2.523 -0.5664  0.9057 -0.3887
  541MOL0     C74574  10.521   8.569   2.588 -0.4633  0.1639 -0.2568
  541MOL0     C74575  10.876   8.655   2.856  0.2945 -0.1037  0.7754
  541MOL0     C74576  10.990   8.677   2.769  0.8615 -0.9443 -0.5432
  541MOL0     C74577  11.096   8.746   2.823 -0.1043  0.6057 -0.0750
  541MOL0     C74578  11.089   8.816   2.944  0.4342 -0.7012  0.9601
  541MOL0     O74579  11.191   8.893   2.998  0.6739 -0.3092  0.1203
  541MOL0     C74580  11.294   8.937   2.917 -0.3926 -0.9311 -0.0662
  541MOL0     C74581  11.414   8.983   3.008  0.0357  0.6115  0.2761
  541MOL0     C74582  11.380   9.114   3.088 -0.4836  0.1928 -0.6629
  541MOL0     C74583  11.499   9.154   3.182 -0.1794  0.5190 -0.1914
  541MOL0     C74584  11.621   9.189   3.111  0.2559  0.2062  0.3435
  541MOL0     C74585  11.716   9.180   3.037 -0.6506 -1.1707 -0.2214
  541MOL0     C74586  10.981   8.792   3.028  0.0222 -0.3221  0.0341
  541MOL0     C74587  10.871   8.714   2.985  0.2375  0.1529 -0.4622
  541MOL0     C74588  10.753   8.707   3.089  0.1686  0.4536  0.3969
  541MOL0     H74589  10.765   8.328   2.627  0.6915 -0.3548 -1.0594
  541MOL0     H74590  10.599   8.191   2.558  1.7611  0.8661  3.5180
  541MOL0     H74591  10.262   8.096   2.392  0.4452  0.6622  0.0084
  541MOL0     H74592  10.415   8.085   2.470 -0.3272 -0.1921  0.9332
  541MOL0     H74593  10.495   8.200   2.254 -0.0326  1.5187 -1.1839
  541MOL0     H74594  10.440   8.033   2.219  3.2716 -0.3180  2.4751
  541MOL0     H74595  10.268   8.120   2.072  2.4194 -1.5577 -1.0681
  541MOL0     H74596  10.209   8.221   2.210  0.2450  0.7441 -0.5725
  541MOL0     H74597  10.387   8.385   2.181  2.5232 -1.6713  1.9859
  541MOL0     H74598  10.453   8.290   2.055 -1.5801 -4.3251 -0.9378
  541MOL0     H74599  10.313   8.492   1.995  0.0051  0.1425 -3.2335
  541MOL0     H74600  10.170   8.402   2.051 -0.5300 -0.0036  0.0162
  541MOL0     H74601  10.373   8.322   1.826  0.9458  1.2285 -1.2310
  541MOL0     H74602  10.221   8.238   1.864 -0.2175  0.4907 -1.0358
  541MOL0     H74603  10.243   8.531   1.764  1.2753 -0.4428 -1.6587
  541MOL0     H74604  10.090   8.438   1.793 -0.9435  0.2443 -2.3720
  541MOL0     H74605  10.297   8.378   1.581 -0.3601 -0.5408 -2.9395
  541MOL0     H74606  10.166   8.267   1.632 -0.3448  0.6062  3.4426
  541MOL0     H74607  10.164   8.386   1.324  1.1055  0.1364  0.9008
  541MOL0     H74608   9.863   8.562   1.203  1.0401  2.7497 -0.7878
  541MOL0     H74609   9.966   8.419   1.167  0.0759 -2.4739  3.7764
  541MOL0     H74610  10.141   8.645   1.203  0.9294  0.0166 -1.0916
  541MOL0     H74611  10.090   8.588   1.037 -0.6256 -4.1207  1.5146
  541MOL0     H74612   9.923   8.736   1.035  0.6090  0.6013 -0.8435
  541MOL0     H74613   9.955   8.806   1.189 -1.2920  3.4691 -3.1603
  541MOL0     H74614  10.092   8.949   1.117  0.1114  0.7898 -1.2335
  541MOL0     H74615  10.213   8.829   1.086 -0.5200 -0.9788  1.6171
  541MOL0     H74616  10.037   8.982   0.686 -1.9846 -1.2828  0.1743
  541MOL0     H74617  10.120   9.022   0.436 -0.2667  0.8837  2.7287
  541MOL0     H74618  10.002   8.901   0.399  0.9970 -1.6350  0.2714
  541MOL0     H74619  10.171   8.884   0.341  0.9275 -0.6275  0.1600
  541MOL0     H74620  10.353   8.947   0.159  0.6006  0.3887  0.1824
  541MOL0     H74621  10.339   8.918  -0.076 -1.7349 -0.7636  0.1592
  541MOL0     H74622  10.536   8.540  -0.225  0.3384  0.1875 -0.5278
  541MOL0     H74623  10.392   8.496  -0.273  1.7312 -0.9811  2.5498
  541MOL0     H74624  10.536   8.554  -0.473  2.0128  0.1521  1.2496
  541MOL0     H74625  10.411   8.680  -0.476  0.3797  1.4298  3.3967
  541MOL0     H74626  10.676   8.731  -0.336  1.3308 -0.6414 -1.3669
  541MOL0     H74627  10.546   8.839  -0.380  0.6426 -0.9939  3.0218
  541MOL0     H74628  10.579   8.809  -0.613  1.1368 -1.0490 -0.9978
  541MOL0     H74629  10.725   8.704  -0.586  3.3408  1.4146  0.6767
  541MOL0     H74630  10.694   8.989  -0.553 -0.4809 -0.9607 -4.0634
  541MOL0     H74631  10.799   8.913  -0.425  2.0116  0.5339 -0.9531
  541MOL0     H74632  10.833   8.885  -0.719  0.2103 -0.2435 -0.1587
  541MOL0     H74633  10.935   8.806  -0.593  1.2747  0.4346  1.1539
  541MOL0     H74634  10.960   9.069  -0.525  2.1593 -1.3026  0.5883
  541MOL0     H74635  10.907   9.083  -0.701  1.9575 -0.7062 -2.1023
  541MOL0     H74636  11.140   9.092  -0.687 -2.4403  0.8755 -0.9060
  541MOL0     H74637  11.107   8.939  -0.761 -0.2420 -1.2334  0.1239
  541MOL0     H74638  10.377   8.510  -0.043 -0.3003 -0.5556 -0.1069
  541MOL0     H74639  10.400   8.524   0.221  0.3274  1.5130 -0.0427
  541MOL0     H74640  10.355   8.596   0.693 -1.1595 -2.7287  2.1684
  541MOL0     H74641  10.255   8.685   0.901  1.3958 -2.0716 -1.2895
  541MOL0     H74642  10.321   8.540   2.506 -1.0997  0.2566  0.7772
  541MOL0     H74643  10.508   8.673   2.617  1.4530  0.3240  0.2111
  541MOL0     H74644  10.996   8.626   2.673 -3.1814 -0.0052 -1.4566
  541MOL0     H74645  11.187   8.750   2.764  0.0443  0.2416  0.1256
  541MOL0     H74646  11.330   8.850   2.862  3.5150  0.0861  0.6175
  541MOL0     H74647  11.265   9.016   2.846  0.6409  1.3659  1.9201
  541MOL0     H74648  11.494   9.002   2.937 -2.2192 -0.3269 -2.6901
  541MOL0     H74649  11.436   8.903   3.079 -0.4470  0.5998  0.4214
  541MOL0     H74650  11.349   9.198   3.024 -0.6448 -0.4234 -1.4011
  541MOL0     H74651  11.292   9.091   3.148 -0.4339  1.5554 -0.0214
  541MOL0     H74652  11.527   9.080   3.258  2.1314  1.0815 -0.4188
  541MOL0     H74653  11.456   9.237   3.240 -3.7206 -2.7170  2.3628
  541MOL0     H74654  11.794   9.179   2.962 -0.4082  1.0603 -0.0798
  541MOL0     H74655  10.980   8.828   3.130  4.6927 -0.5424  0.3682
  541MOL0     H74656  10.764   8.616   3.149  0.4808  0.3735  0.2194
  541MOL0     H74657  10.763   8.794   3.154 -1.4363  1.1289 -0.2284
  541MOL0     H74658  10.652   8.708   3.049 -0.2054 -0.5820  1.2604
  542MOL0     O74659   3.937   6.323   5.982 -0.4010  0.1954  0.0154
  542MOL0     C74660   3.903   6.368   5.873  0.0186  0.2484 -0.1041
  542MOL0     O74661   3.772   6.390   5.832 -0.0180  0.3751  0.0604
  542MOL0     C74662   3.660   6.347   5.889 -0.1988 -0.5881  1.0731
  542MOL0     C74663   3.545   6.395   5.833  0.9096  0.0355 -0.1978
  542MOL0     C74664   3.420   6.353   5.878 -0.1659  0.5816 -0.5099
  542MOL0     C74665   3.413   6.255   5.984  0.1414  0.6001  0.4901
  542MOL0     O74666   3.294   6.194   6.015  0.0475  1.0854  0.2790
  542MOL0     C74667   3.233   6.220   6.137  0.4236  1.1315 -0.2024
  542MOL0     C74668   3.275   6.113   6.243 -0.0676  0.4375  0.2761
  542MOL0     C74669   3.251   5.968   6.211 -0.7095  0.2327 -0.2777
  542MOL0     C74670   3.107   5.944   6.170 -0.4957  0.2405 -0.6756
  542MOL0     C74671   3.059   5.800   6.155 -0.5233  0.2100  0.4086
  542MOL0     C74672   3.056   5.717   6.278  0.0498  0.1047 -0.1369
  542MOL0     C74673   3.025   5.789   6.417 -1.0089 -0.2143  0.8799
  542MOL0     C74674   3.019   5.699   6.536 -0.5925 -0.5588 -0.5988
  542MOL0     N74675   2.989   5.778   6.655  0.1905  0.3572 -0.2850
  542MOL0     C74676   2.877   5.852   6.686 -0.9906 -0.0942 -1.0421
  542MOL0     C74677   2.881   5.854   6.823  0.0094 -0.1817  0.2010
  542MOL0     C74678   2.782   5.930   6.914  0.4374  0.9181 -1.1090
  542MOL0     C74679   2.704   5.842   7.012 -0.5781  0.2465  0.7292
  542MOL0     C74680   2.593   5.772   6.944 -0.0094  0.0804  0.1204
  542MOL0     C74681   2.529   5.649   7.016 -0.0365  0.1439  0.0582
  542MOL0     O74682   2.428   5.686   7.109  0.6109 -0.8124 -0.1045
  542MOL0     C74683   2.345   5.586   7.144  0.4419  0.1989  0.0330
  542MOL0     C74684   2.229   5.570   7.069 -0.4294 -0.1854  0.3784
  542MOL0     C74685   2.121   5.481   7.084 -1.7507 -0.7566 -0.5030
  542MOL0     C74686   2.009   5.482   6.992  0.2109 -1.1919 -0.0278
  542MOL0     C74687   2.135   5.383   7.187 -0.5704  0.7509 -0.0107
  542MOL0     C74688   2.041   5.271   7.217 -0.3478  0.1793  1.2078
  542MOL0     O74689   2.010   5.196   7.110 -0.4064 -0.0630 -0.2794
  542MOL0     C74690   1.908   5.098   7.117  0.0978  1.1474 -0.2441
  542MOL0     C74691   1.929   4.965   7.075  1.2797 -0.1647  0.6525
  542MOL0     C74692   1.824   4.868   7.073 -0.4600  0.1906  0.4079
  542MOL0     C74693   1.716   4.892   7.152 -0.2008  0.8539 -0.8532
  542MOL0     O74694   1.645   4.786   7.207 -0.3974  0.3166 -0.6149
  542MOL0     C74695   1.693   4.768   7.348 -1.0211 -0.0201 -0.9293
  542MOL0     C74696   1.650   4.629   7.391  0.1315 -0.7862 -0.0930
  542MOL0     C74697   1.717   4.575   7.514  0.2731  0.4176 -0.7111
  542MOL0     C74698   1.660   4.627   7.644  0.3031 -0.9071 -0.7068
  542MOL0     C74699   1.655   4.519   7.751 -0.2411 -0.3579 -0.4052
  542MOL0     C74700   1.794   4.449   7.783  0.2289 -0.3177 -1.0727
  542MOL0     C74701   1.786   4.319   7.871 -0.1949 -0.3099 -0.5865
  542MOL0     C74702   1.722   4.204   7.780  0.3813  0.4925 -0.7841
  542MOL0    Cl74703   1.724   4.045   7.868 -0.1674 -0.5111 -0.1692
  542MOL0     C74704   1.699   5.019   7.206  0.1440 -0.4439 -0.3475
  542MOL0     C74705   1.788   5.122   7.179 -0.7801 -0.2473  0.1426
  542MOL0     O74706   2.017   5.250   7.333  0.0752  0.4460  0.1592
  542MOL0     C74707   2.260   5.386   7.264 -0.0386  0.4357 -0.3207
  542MOL0     C74708   2.362   5.487   7.243 -0.1632 -0.1168  0.5748
  542MOL0     N74709   2.994   5.798   6.872 -0.1444  0.4435  0.1905
  542MOL0     N74710   3.056   5.743   6.773 -0.5429  0.0876  0.4799
  542MOL0     C74711   3.530   6.215   6.043  0.2089 -0.3174 -0.7919
  542MOL0     C74712   3.653   6.258   5.993 -0.6559 -0.9485  0.4983
  542MOL0     C74713   4.015   6.426   5.784  1.0245  0.7320 -0.3881
  542MOL0     C74714   4.157   6.399   5.815 -0.9924  0.2177 -0.1014
  542MOL0     C74715   4.255   6.458   5.731  1.3346  0.3853  0.2238
  542MOL0     C74716   4.226   6.515   5.611  0.2114  1.7394  0.1022
  542MOL0     O74717   4.326   6.566   5.529  0.3229  0.5009 -0.0582
  542MOL0     C74718   4.462   6.524   5.535 -0.7554 -0.2236 -0.2488
  542MOL0     C74719   4.523   6.566   5.400 -0.2012  0.1718 -0.7006
  542MOL0     C74720   4.633   6.478   5.341 -0.0294 -0.4943 -0.9176
  542MOL0     C74721   4.703   6.533   5.219 -0.3678 -0.3721  0.3750
  542MOL0     C74722   4.618   6.590   5.110  0.9873  0.6233  0.2831
  542MOL0     C74723   4.560   6.650   5.026  0.1888  0.7343  0.0169
  542MOL0     C74724   4.089   6.545   5.593  0.7290 -1.0955  0.0398
  542MOL0     C74725   3.991   6.513   5.681  0.2890  1.1264  0.2484
  542MOL0     C74726   3.850   6.579   5.647 -0.3805  0.0610  0.5241
  542MOL0     H74727   3.553   6.473   5.759 -0.7019  2.6424  2.1493
  542MOL0     H74728   3.331   6.385   5.824 -2.5274 -2.8234  1.0596
  542MOL0     H74729   3.124   6.217   6.129  0.4243  0.1432 -0.0609
  542MOL0     H74730   3.254   6.323   6.167 -2.7005  2.1894 -1.2640
  542MOL0     H74731   3.383   6.125   6.257  0.3362  0.3947 -2.2861
  542MOL0     H74732   3.231   6.133   6.341 -1.8576 -3.5238  0.4655
  542MOL0     H74733   3.316   5.938   6.129  0.3784  1.3261  0.1437
  542MOL0     H74734   3.299   5.915   6.293  1.7222 -0.9513 -2.3529
  542MOL0     H74735   3.027   5.987   6.231  0.5276  1.9295 -0.4836
  542MOL0     H74736   3.074   5.996   6.079 -2.1492  0.0025 -0.2330
  542MOL0     H74737   3.109   5.742   6.076 -1.3254 -2.5922  1.8178
  542MOL0     H74738   2.955   5.804   6.121 -1.0256  1.4287  1.9633
  542MOL0     H74739   2.978   5.645   6.254  0.5308  0.1835 -2.0871
  542MOL0     H74740   3.151   5.668   6.302 -1.1648 -1.1591  2.4749
  542MOL0     H74741   2.928   5.840   6.412 -1.0613 -0.0800  2.5225
  542MOL0     H74742   3.111   5.855   6.437  0.9645 -1.8981 -1.5174
  542MOL0     H74743   2.943   5.624   6.514 -2.6931  0.5946  2.0616
  542MOL0     H74744   3.113   5.644   6.545 -1.8055 -2.3846  1.9550
  542MOL0     H74745   2.802   5.892   6.618  0.8530  3.3734 -1.2740
  542MOL0     H74746   2.711   5.983   6.850 -3.0529  1.5935  2.8389
  542MOL0     H74747   2.842   6.004   6.968  1.3293 -0.5672  0.0304
  542MOL0     H74748   2.779   5.782   7.064  1.0017  2.4662  1.1452
  542MOL0     H74749   2.663   5.898   7.096 -1.0504 -0.1979  0.8022
  542MOL0     H74750   2.518   5.841   6.904  0.2813  2.0196  2.6647
  542MOL0     H74751   2.648   5.727   6.861  1.9654 -0.6964  1.7673
  542MOL0     H74752   2.499   5.584   6.934 -0.8234  0.8252 -0.2024
  542MOL0     H74753   2.613   5.599   7.067  3.1676  2.1369 -2.8311
  542MOL0     H74754   2.220   5.637   6.984 -0.7878 -1.7443 -0.8766
  542MOL0     H74755   1.929   5.417   7.030 -2.0973  2.4222  1.8894
  542MOL0     H74756   2.017   5.466   6.884  0.6041  0.2038 -0.2313
  542MOL0     H74757   1.971   5.585   7.003  0.0733 -1.3531  1.1698
  542MOL0     H74758   2.023   4.935   7.031  2.2134 -0.2485  2.6130
  542MOL0     H74759   1.836   4.769   7.031  2.3626 -0.3654  2.2767
  542MOL0     H74760   1.801   4.758   7.353 -1.1172 -0.6345  0.3960
  542MOL0     H74761   1.655   4.848   7.412 -0.8621 -2.1458  2.0137
  542MOL0     H74762   1.542   4.638   7.397  0.1524  1.0750 -1.6444
  542MOL0     H74763   1.674   4.559   7.310  1.2629 -0.2069 -0.2775
  542MOL0     H74764   1.822   4.606   7.505  0.4122 -0.2998 -1.7193
  542MOL0     H74765   1.725   4.466   7.514 -0.2994  0.3347  1.2023
  542MOL0     H74766   1.555   4.656   7.630 -0.6298 -2.0501  2.9213
  542MOL0     H74767   1.711   4.718   7.676 -1.0955  0.3075 -1.7749
  542MOL0     H74768   1.629   4.563   7.847 -0.0786 -0.3413 -0.3682
  542MOL0     H74769   1.579   4.444   7.727 -0.1305 -1.5638  2.6657
  542MOL0     H74770   1.864   4.511   7.840 -0.7772  1.0093 -1.2447
  542MOL0     H74771   1.848   4.415   7.694 -1.2052 -2.6412 -1.1145
  542MOL0     H74772   1.726   4.330   7.962  0.8896  3.9207 -0.1502
  542MOL0     H74773   1.890   4.291   7.888  0.3443  0.1958 -2.7555
  542MOL0     H74774   1.765   4.199   7.679 -0.0349  0.7427 -0.9760
  542MOL0     H74775   1.615   4.223   7.766 -0.6676 -1.9028  2.5686
  542MOL0     H74776   1.607   5.048   7.256  0.4886 -1.6397  1.0408
  542MOL0     H74777   1.772   5.221   7.220  0.7034 -0.9360  2.6211
  542MOL0     H74778   2.264   5.306   7.337  1.9529  0.3784 -0.4450
  542MOL0     H74779   2.449   5.511   7.304 -0.2679  0.3348  0.5561
  542MOL0     H74780   3.529   6.148   6.128 -2.1832  0.0784 -0.4362
  542MOL0     H74781   3.744   6.215   6.033  0.0185  1.1056  1.2795
  542MOL0     H74782   4.180   6.331   5.897 -2.2435 -3.1598 -2.3021
  542MOL0     H74783   4.359   6.441   5.759  1.4613  1.1280  0.2068
  542MOL0     H74784   4.507   6.561   5.627 -1.8958 -0.7666  0.5581
  542MOL0     H74785   4.476   6.416   5.540  2.3023 -0.2863 -4.7321
  542MOL0     H74786   4.542   6.673   5.415 -2.3095  1.0488 -3.4787
  542MOL0     H74787   4.451   6.551   5.320 -0.9021 -1.2129  0.1559
  542MOL0     H74788   4.710   6.449   5.414 -0.4977  0.0903 -0.1728
  542MOL0     H74789   4.562   6.399   5.315 -0.2512 -0.5706 -0.0997
  542MOL0     H74790   4.774   6.462   5.175  1.8608  3.0433 -2.0607
  542MOL0     H74791   4.757   6.614   5.269  1.6042  0.1352 -2.3567
  542MOL0     H74792   4.494   6.702   4.959  3.7470  2.1625 -2.7101
  542MOL0     H74793   4.065   6.608   5.508  5.7292 -0.8495 -1.5396
  542MOL0     H74794   3.857   6.663   5.577 -0.9594  1.4008  2.0279
  542MOL0     H74795   3.785   6.503   5.601 -0.9711  2.1205 -2.3501
  542MOL0     H74796   3.798   6.617   5.735  0.4998 -0.8901  1.4745
  543MOL0     O74797   1.890   5.898  11.459 -0.2089  0.3039  0.5346
  543MOL0     C74798   1.991   5.850  11.405  0.1621  0.1447 -0.6860
  543MOL0     O74799   1.985   5.739  11.330 -0.6491  0.1508  0.2927
  543MOL0     C74800   1.886   5.644  11.328 -0.0795 -0.2260 -0.3276
  543MOL0     C74801   1.799   5.622  11.437 -0.3186 -0.3437 -0.6467
  543MOL0     C74802   1.712   5.516  11.433 -0.1590 -0.1177  0.0949
  543MOL0     C74803   1.703   5.424  11.331 -0.1913  0.1348 -0.0315
  543MOL0     O74804   1.625   5.310  11.331  0.0727  0.2498  0.1593
  543MOL0     C74805   1.582   5.260  11.458  0.1103  0.5949 -0.4493
  543MOL0     C74806   1.495   5.123  11.446  0.4729 -0.0372 -0.2444
  543MOL0     C74807   1.464   5.073  11.584  0.2016 -0.5051 -0.2841
  543MOL0     C74808   1.433   4.926  11.586  0.3307  0.2346  0.6212
  543MOL0     C74809   1.408   4.870  11.717  0.4032 -0.2604 -0.1727
  543MOL0     C74810   1.276   4.925  11.789 -1.0829  1.4478 -1.0132
  543MOL0     C74811   1.145   4.886  11.725 -0.0248  0.4645 -0.4200
  543MOL0     C74812   1.021   4.927  11.817  0.0125 -0.1971  0.1734
  543MOL0     N74813   0.903   4.849  11.766  0.2040 -0.3513 -0.9866
  543MOL0     C74814   0.779   4.892  11.727  0.0180  0.4114 -0.4724
  543MOL0     C74815   0.701   4.776  11.721  0.0395  0.5483  0.1179
  543MOL0     C74816   0.560   4.769  11.684  0.8338  0.6412 -0.8354
  543MOL0     C74817   0.537   4.717  11.549 -0.0305  0.7368 -0.4756
  543MOL0     C74818   0.393   4.758  11.499  0.0285  0.3477 -0.1013
  543MOL0     C74819   0.289   4.656  11.542  0.0355 -0.5844 -0.2991
  543MOL0     O74820   0.165   4.718  11.510 -0.0461 -0.4752  0.7618
  543MOL0     C74821   0.082   4.638  11.444  0.6171 -0.4770 -0.0563
  543MOL0     C74822  -0.043   4.596  11.500  0.1267 -0.4315  0.6653
  543MOL0     C74823  -0.125   4.505  11.432  0.3332  0.4602 -0.2513
  543MOL0     C74824  -0.259   4.485  11.498  0.2847  0.1009 -0.5961
  543MOL0     C74825  -0.083   4.445  11.318 -0.5683  0.4913  0.1319
  543MOL0     C74826  -0.174   4.353  11.241 -0.2495  0.5664 -0.3377
  543MOL0     O74827  -0.130   4.344  11.114 -0.4062  0.7397 -0.3645
  543MOL0     C74828  -0.153   4.230  11.027 -0.3791 -0.2101  0.8883
  543MOL0     C74829  -0.225   4.114  11.063 -0.2528 -0.6764 -1.1515
  543MOL0     C74830  -0.255   4.010  10.973  0.9089  0.4666 -0.4567
  543MOL0     C74831  -0.202   4.016  10.847  0.0274 -0.6212 -0.0216
  543MOL0     O74832  -0.231   3.924  10.745  0.0775 -0.3210 -0.3186
  543MOL0     C74833  -0.352   3.952  10.667 -0.3749 -0.9868 -0.5958
  543MOL0     C74834  -0.356   3.851  10.551 -0.9086 -0.4344  0.4010
  543MOL0     C74835  -0.255   3.871  10.431 -0.0209 -0.7594  0.5536
  543MOL0     C74836  -0.238   3.764  10.329  0.5748  0.5215 -0.0768
  543MOL0     C74837  -0.194   3.626  10.391 -0.1042 -0.1691 -0.1049
  543MOL0     C74838  -0.126   3.522  10.299  1.0245  0.2053 -0.2965
  543MOL0     C74839  -0.097   3.397  10.387 -0.6539 -0.3644  0.2124
  543MOL0     C74840  -0.020   3.284  10.315 -0.6778 -0.0959  0.3237
  543MOL0    Cl74841  -0.108   3.230  10.158  0.2456  0.4237 -0.2750
  543MOL0     C74842  -0.131   4.135  10.808  0.2920  0.1754  0.3077
  543MOL0     C74843  -0.105   4.239  10.890  0.5188  0.3508 -0.3545
  543MOL0     O74844  -0.268   4.292  11.286 -0.2868  0.8420  0.0231
  543MOL0     C74845   0.039   4.487  11.270 -0.2149  0.4576  0.5045
  543MOL0     C74846   0.120   4.586  11.323 -0.1031  0.5338  0.8029
  543MOL0     N74847   0.780   4.669  11.759  0.6272  0.0754  0.7311
  543MOL0     N74848   0.896   4.715  11.784  0.2688 -0.1984 -0.6303
  543MOL0     C74849   1.784   5.439  11.219 -0.2170 -0.9871  0.2326
  543MOL0     C74850   1.872   5.559  11.219  0.9436  0.7285 -0.3742
  543MOL0     C74851   2.111   5.920  11.420  0.6607  0.0053  0.8141
  543MOL0     C74852   2.228   5.847  11.386 -0.1219  0.6392 -0.5829
  543MOL0     C74853   2.353   5.912  11.381  0.6691 -0.1408  0.7976
  543MOL0     C74854   2.362   6.048  11.418  0.1312  0.4235 -0.2498
  543MOL0     O74855   2.487   6.111  11.427  0.0873 -0.1002 -0.6392
  543MOL0     C74856   2.611   6.051  11.368  1.6464  0.1656 -1.0350
  543MOL0     C74857   2.662   5.932  11.459 -0.8813 -0.7664 -0.3201
  543MOL0     C74858   2.823   5.929  11.460  1.2077 -0.0370  0.1461
  543MOL0     C74859   2.883   6.034  11.558  0.6753  0.5844  0.2486
  543MOL0     C74860   3.029   6.033  11.532  0.1041  0.2751 -0.4437
  543MOL0     C74861   3.148   6.043  11.514 -0.3052 -0.9972 -0.0620
  543MOL0     C74862   2.240   6.121  11.453 -1.3778 -0.2337  0.0567
  543MOL0     C74863   2.119   6.060  11.452 -0.0842 -0.4704  0.9505
  543MOL0     C74864   2.000   6.150  11.471  0.5748 -0.2343  1.5188
  543MOL0     H74865   1.808   5.692  11.518 -1.1856 -1.5915  0.5849
  543MOL0     H74866   1.654   5.504  11.524  0.1957 -1.1668  0.1912
  543MOL0     H74867   1.523   5.331  11.517 -1.3414  0.0490 -1.1782
  543MOL0     H74868   1.678   5.238  11.504 -0.5969 -2.5036 -0.1911
  543MOL0     H74869   1.406   5.143  11.386 -0.0107 -4.9111 -1.5276
  543MOL0     H74870   1.552   5.044  11.396 -0.9045 -1.2437  0.0450
  543MOL0     H74871   1.555   5.077  11.645  0.9869 -0.7639 -1.3975
  543MOL0     H74872   1.389   5.141  11.626  0.4406  1.3436 -2.6238
  543MOL0     H74873   1.348   4.904  11.521  0.9222 -0.4587  0.0504
  543MOL0     H74874   1.520   4.868  11.553 -0.3142 -0.1267 -0.5150
  543MOL0     H74875   1.497   4.882  11.780  1.3264  0.5253 -1.5763
  543MOL0     H74876   1.397   4.763  11.696  0.5722  0.2062 -2.9953
  543MOL0     H74877   1.276   4.895  11.895  0.1771 -0.5258 -1.5096
  543MOL0     H74878   1.289   5.033  11.791  0.4144  1.2834 -0.3620
  543MOL0     H74879   1.136   4.785  11.685 -2.0572  0.0023  1.0180
  543MOL0     H74880   1.139   4.935  11.627 -1.3368 -1.2972 -1.2771
  543MOL0     H74881   1.030   4.906  11.924  2.6089 -0.6244 -0.0474
  543MOL0     H74882   1.005   5.034  11.799 -1.4541 -0.4225  0.0499
  543MOL0     H74883   0.743   4.992  11.707 -2.7660  0.1400  2.4190
  543MOL0     H74884   0.532   4.875  11.689 -0.1967  0.3215  2.1931
  543MOL0     H74885   0.503   4.712  11.759 -0.5369 -0.8003 -2.8789
  543MOL0     H74886   0.615   4.759  11.486 -0.6998  0.9201 -1.2011
  543MOL0     H74887   0.545   4.608  11.541 -0.2809  0.7677 -1.2310
  543MOL0     H74888   0.377   4.863  11.525  3.0657  0.7729  0.4510
  543MOL0     H74889   0.379   4.753  11.391 -0.1102 -1.5765 -0.0342
  543MOL0     H74890   0.303   4.559  11.493  1.0056  0.1513 -1.5463
  543MOL0     H74891   0.299   4.649  11.651  2.4991 -0.9903 -0.4782
  543MOL0     H74892  -0.081   4.638  11.593 -1.7639  1.7897 -1.0090
  543MOL0     H74893  -0.331   4.499  11.417  0.4307 -0.8521 -0.8973
  543MOL0     H74894  -0.277   4.554  11.581 -0.0685  1.1454 -1.5243
  543MOL0     H74895  -0.261   4.384  11.539  1.2000  0.6523  0.8997
  543MOL0     H74896  -0.261   4.098  11.164 -1.4287 -0.2236 -1.4766
  543MOL0     H74897  -0.306   3.918  11.001 -0.4769  0.8568 -1.5378
  543MOL0     H74898  -0.442   3.947  10.730  1.0448  2.7599  2.1234
  543MOL0     H74899  -0.345   4.058  10.642  0.4265  0.0709  3.3933
  543MOL0     H74900  -0.338   3.751  10.592  0.7002  0.0890  1.0163
  543MOL0     H74901  -0.458   3.853  10.512 -0.3070 -3.1887 -1.5982
  543MOL0     H74902  -0.159   3.901  10.475 -0.3038  3.1475 -1.0762
  543MOL0     H74903  -0.302   3.948  10.370 -1.6429 -2.9780 -1.1892
  543MOL0     H74904  -0.173   3.792  10.245  1.7810  0.0392  0.6734
  543MOL0     H74905  -0.332   3.752  10.275  0.3797  1.4784  0.0323
  543MOL0     H74906  -0.131   3.642  10.478  1.0471 -1.6321 -0.6223
  543MOL0     H74907  -0.273   3.568  10.441 -1.4367 -1.4538 -3.4039
  543MOL0     H74908  -0.037   3.574  10.262  0.7923  1.2497  0.5624
  543MOL0     H74909  -0.203   3.498  10.225 -3.2096  2.2548  3.0089
  543MOL0     H74910  -0.195   3.362  10.421  0.1017 -0.8797  1.9625
  543MOL0     H74911  -0.043   3.426  10.478  1.1747  0.7900 -1.1568
  543MOL0     H74912  -0.004   3.197  10.380 -0.2089  0.3848  0.8681
  543MOL0     H74913   0.082   3.316  10.290 -0.0155 -2.6533 -0.5359
  543MOL0     H74914  -0.083   4.140  10.711 -0.4545 -0.6635 -0.1187
  543MOL0     H74915  -0.043   4.317  10.847  0.8110  0.1148 -0.3647
  543MOL0     H74916   0.068   4.447  11.173  0.2184  0.1632  0.7475
  543MOL0     H74917   0.216   4.613  11.282 -0.6085  0.7394 -0.2788
  543MOL0     H74918   1.777   5.375  11.131 -1.4555  2.1594 -2.1743
  543MOL0     H74919   1.934   5.568  11.130 -0.1828 -1.9617 -1.5416
  543MOL0     H74920   2.221   5.744  11.350 -0.4280  1.4176 -2.9141
  543MOL0     H74921   2.438   5.849  11.360  0.8631 -0.4726  2.4884
  543MOL0     H74922   2.590   6.008  11.270 -2.4411 -0.2564 -0.1547
  543MOL0     H74923   2.682   6.133  11.352 -1.1801  3.0974  0.0869
  543MOL0     H74924   2.629   5.843  11.404 -4.1371 -0.1730  0.4553
  543MOL0     H74925   2.619   5.927  11.560 -1.2205 -1.8259 -0.4989
  543MOL0     H74926   2.852   5.829  11.491  0.7277  0.1955  1.3867
  543MOL0     H74927   2.855   5.949  11.357  1.0591  1.5184  0.3661
  543MOL0     H74928   2.854   6.002  11.658  1.1639 -3.6394 -0.7969
  543MOL0     H74929   2.848   6.138  11.555  0.8869  0.7649  2.4635
  543MOL0     H74930   3.253   6.056  11.497 -0.5890 -0.1343 -1.2722
  543MOL0     H74931   2.241   6.226  11.479  2.5923 -0.0619 -0.2025
  543MOL0     H74932   1.953   6.180  11.377 -0.1644  1.7686  2.4675
  543MOL0     H74933   1.924   6.111  11.540  0.9469  0.3549  2.2805
  543MOL0     H74934   2.024   6.237  11.532 -0.2648 -0.2434  1.8871
  544MOL0     O74935   9.608   0.638  10.584 -0.6408 -0.6346 -0.3865
  544MOL0     C74936   9.719   0.621  10.527 -0.5176 -0.5912  0.5500
  544MOL0     O74937   9.750   0.511  10.446 -0.0474  0.4392  0.1699
  544MOL0     C74938   9.696   0.384  10.452  0.1291 -0.8982 -0.7671
  544MOL0     C74939   9.768   0.272  10.418 -0.3449 -0.2465  0.1575
  544MOL0     C74940   9.713   0.148  10.413 -0.2559 -0.2539 -0.1672
  544MOL0     C74941   9.573   0.125  10.436 -0.6632  0.0618  0.3265
  544MOL0     O74942   9.528  -0.009  10.427  0.2356 -0.8775 -1.3499
  544MOL0     C74943   9.386  -0.030  10.417  0.3794  0.1492 -1.0575
  544MOL0     C74944   9.312  -0.030  10.553 -0.5478 -0.6826  0.8818
  544MOL0     C74945   9.358  -0.151  10.629 -0.0879 -0.0909  0.4266
  544MOL0     C74946   9.276  -0.273  10.596  0.1860 -0.2807 -0.4117
  544MOL0     C74947   9.314  -0.396  10.679  0.6746 -0.3487  0.2299
  544MOL0     C74948   9.455  -0.442  10.641  0.7092  0.1592  0.4926
  544MOL0     C74949   9.487  -0.566  10.727 -0.3769 -0.6270 -0.3317
  544MOL0     C74950   9.437  -0.695  10.655  0.5984  0.1465 -1.2796
  544MOL0     N74951   9.520  -0.816  10.705  0.8919 -0.8019 -0.1314
  544MOL0     C74952   9.562  -0.847  10.835  0.1717 -0.1079 -0.7391
  544MOL0     C74953   9.652  -0.939  10.809 -0.9983  0.7631  0.4471
  544MOL0     C74954   9.756  -1.002  10.908  0.5770 -0.2185 -0.8029
  544MOL0     C74955   9.697  -1.118  10.983 -0.2405 -0.3539  0.4193
  544MOL0     C74956   9.624  -1.242  10.917 -0.4285 -0.6865 -0.1997
  544MOL0     C74957   9.580  -1.347  11.021 -0.3365  0.8092  0.2339
  544MOL0     O74958   9.703  -1.413  11.065 -0.5791 -0.2996 -1.2524
  544MOL0     C74959   9.700  -1.507  11.155  0.6247 -0.6125  0.2743
  544MOL0     C74960   9.729  -1.643  11.118 -0.2953 -0.7152 -0.5739
  544MOL0     C74961   9.762  -1.739  11.224 -0.0786 -1.0206 -0.7042
  544MOL0     C74962   9.810  -1.867  11.170 -0.6904 -0.2200  0.7458
  544MOL0     C74963   9.720  -1.705  11.355 -0.1169 -0.0483 -0.3204
  544MOL0     C74964   9.710  -1.796  11.467  0.2643 -0.2032  0.9522
  544MOL0     O74965   9.695  -1.922  11.427 -0.3451  1.2334  0.0498
  544MOL0     C74966   9.659  -2.019  11.514 -0.5335  1.0943 -0.7020
  544MOL0     C74967   9.549  -2.097  11.462 -0.6404 -0.0094  0.7694
  544MOL0     C74968   9.509  -2.215  11.526  0.1926 -0.0311  0.9043
  544MOL0     C74969   9.583  -2.256  11.639  0.5521 -0.7394 -0.3357
  544MOL0     O74970   9.549  -2.372  11.697  0.1941 -0.3290  0.2610
  544MOL0     C74971   9.437  -2.364  11.784  0.3722  0.0565 -0.1071
  544MOL0     C74972   9.493  -2.387  11.918  0.2824  0.2749  0.6329
  544MOL0     C74973   9.388  -2.416  12.028  1.0924 -0.2265 -0.3877
  544MOL0     C74974   9.455  -2.427  12.172 -0.7501  0.1218 -0.3766
  544MOL0     C74975   9.359  -2.466  12.286 -0.5468 -0.6033 -0.7458
  544MOL0     C74976   9.436  -2.499  12.419 -1.2141  0.7271 -0.5004
  544MOL0     C74977   9.337  -2.588  12.501  0.5076  0.3619  0.8175
  544MOL0     C74978   9.360  -2.625  12.645 -0.2266 -0.4040 -0.8748
  544MOL0    Cl74979   9.515  -2.704  12.666  0.2884  0.0869  0.4685
  544MOL0     C74980   9.686  -2.173  11.699 -0.3259  0.5560  0.3465
  544MOL0     C74981   9.719  -2.056  11.630 -0.6698 -0.7539 -0.2986
  544MOL0     O74982   9.726  -1.757  11.583 -0.3972 -0.5315  0.1794
  544MOL0     C74983   9.675  -1.578  11.378 -0.5616  0.2626  0.2602
  544MOL0     C74984   9.674  -1.475  11.284 -0.7759 -0.1351  0.1424
  544MOL0     N74985   9.652  -0.978  10.666 -0.4583 -0.2093 -0.5276
  544MOL0     N74986   9.579  -0.891  10.613  0.4407 -0.6132  0.6865
  544MOL0     C74987   9.494   0.244  10.465 -0.6828 -0.1107  0.0023
  544MOL0     C74988   9.554   0.366  10.473  0.1243 -0.0706  0.9778
  544MOL0     C74989   9.833   0.720  10.547  0.4214  0.3918  0.5875
  544MOL0     C74990   9.805   0.816  10.637 -0.1382  0.8249 -0.1903
  544MOL0     C74991   9.897   0.919  10.664 -0.7477 -0.4579  0.2998
  544MOL0     C74992  10.024   0.938  10.609  0.9124 -0.4149  0.2236
  544MOL0     O74993  10.086   1.060  10.632 -0.4315  0.0002  0.6572
  544MOL0     C74994  10.217   1.066  10.575 -0.0000 -0.4151  0.3415
  544MOL0     C74995  10.286   1.206  10.604  0.9365  0.4159  0.6928
  544MOL0     C74996  10.320   1.255  10.748  0.2245  0.1435  1.1731
  544MOL0     C74997  10.383   1.392  10.764 -0.2885  0.4902  0.9224
  544MOL0     C74998  10.511   1.417  10.689 -0.7589 -0.6172 -0.4338
  544MOL0     C74999  10.601   1.428  10.620  0.1177  0.7005  0.7235
  544MOL0     C75000  10.043   0.841  10.507  0.8357 -0.2376 -0.0928
  544MOL0     C75001   9.962   0.719  10.475  0.1610 -0.3486 -0.1802
  544MOL0     C75002   9.989   0.654  10.344  0.1643 -0.1913  0.3571
  544MOL0     H75003   9.867   0.301  10.383 -0.1860  1.6939  1.9587
  544MOL0     H75004   9.777   0.061  10.409 -0.8650 -1.0162  3.4001
  544MOL0     H75005   9.381  -0.123  10.360  1.5087 -1.3484  1.1307
  544MOL0     H75006   9.340   0.052  10.361  0.0991  0.7538  0.0302
  544MOL0     H75007   9.345   0.064  10.598 -1.0911 -0.2440  0.3767
  544MOL0     H75008   9.204  -0.015  10.551 -0.2385  2.0348 -0.6910
  544MOL0     H75009   9.466  -0.159  10.615  0.5086  2.7007  2.4596
  544MOL0     H75010   9.345  -0.128  10.736 -2.8608  1.1681 -0.0807
  544MOL0     H75011   9.174  -0.241  10.621  1.3500  2.8512  0.8961
  544MOL0     H75012   9.277  -0.303  10.491  0.7782  2.6062 -1.3353
  544MOL0     H75013   9.239  -0.470  10.648 -0.5012  0.7248  0.4155
  544MOL0     H75014   9.307  -0.384  10.787  0.1448 -1.3167  0.3164
  544MOL0     H75015   9.457  -0.458  10.532 -2.0945 -0.3509  0.4345
  544MOL0     H75016   9.538  -0.372  10.650  2.7833 -1.9640 -0.8504
  544MOL0     H75017   9.438  -0.551  10.824 -2.7518 -1.5605 -1.3188
  544MOL0     H75018   9.595  -0.578  10.741 -0.6321 -1.6470  0.9162
  544MOL0     H75019   9.330  -0.693  10.676  0.5024  5.2474 -0.9416
  544MOL0     H75020   9.450  -0.674  10.548 -0.1581 -0.0602 -1.4158
  544MOL0     H75021   9.536  -0.786  10.921 -4.7193  0.6930 -2.4821
  544MOL0     H75022   9.787  -0.929  10.984  1.2591  1.7678 -2.8904
  544MOL0     H75023   9.842  -1.046  10.856 -0.5202 -1.1182 -1.9213
  544MOL0     H75024   9.787  -1.162  11.026 -0.9660 -0.4587  1.8755
  544MOL0     H75025   9.634  -1.080  11.065 -1.3346 -1.4138  0.0982
  544MOL0     H75026   9.526  -1.220  10.874 -1.1572 -2.6387  0.3359
  544MOL0     H75027   9.683  -1.288  10.837 -0.1608  0.1006 -0.4626
  544MOL0     H75028   9.518  -1.302  11.099  0.7800 -0.0131  1.6688
  544MOL0     H75029   9.528  -1.423  10.963  1.7695 -1.2803  0.8851
  544MOL0     H75030   9.750  -1.648  11.012  0.0954  1.7931 -0.6827
  544MOL0     H75031   9.737  -1.946  11.194  0.0426 -0.7544  1.2317
  544MOL0     H75032   9.910  -1.877  11.212 -0.0776 -1.0940 -0.8344
  544MOL0     H75033   9.815  -1.869  11.061 -0.3360  2.4509  0.6482
  544MOL0     H75034   9.506  -2.085  11.364  0.2070 -2.8792 -0.0444
  544MOL0     H75035   9.423  -2.279  11.507  0.3090 -0.7352  2.6125
  544MOL0     H75036   9.384  -2.268  11.775  5.0909  3.2319  1.8500
  544MOL0     H75037   9.367  -2.443  11.757  0.6181 -0.5332  0.9361
  544MOL0     H75038   9.567  -2.468  11.906  0.3649  0.5081 -0.5965
  544MOL0     H75039   9.560  -2.301  11.927 -0.4177  1.0395 -1.0601
  544MOL0     H75040   9.343  -2.510  11.994  0.9316 -0.4038  0.3112
  544MOL0     H75041   9.308  -2.341  12.032  1.1312 -0.2290  0.5626
  544MOL0     H75042   9.512  -2.339  12.201 -2.4314  1.4763 -1.0108
  544MOL0     H75043   9.520  -2.515  12.167  0.2178  0.7300  1.0350
  544MOL0     H75044   9.283  -2.390  12.308 -0.5716 -0.3558 -1.6564
  544MOL0     H75045   9.311  -2.556  12.249  1.7459 -0.9974 -3.0465
  544MOL0     H75046   9.473  -2.406  12.464  2.3781 -0.9250  0.3583
  544MOL0     H75047   9.529  -2.550  12.392 -0.5763  0.8660  1.3082
  544MOL0     H75048   9.320  -2.682  12.448 -2.4888  2.3775 -2.1044
  544MOL0     H75049   9.240  -2.538  12.497  0.2669 -0.1681 -0.9156
  544MOL0     H75050   9.275  -2.688  12.676 -1.4788  0.7925 -1.7496
  544MOL0     H75051   9.357  -2.541  12.714  0.3641  1.1097 -2.6218
  544MOL0     H75052   9.728  -2.205  11.793 -1.7968  0.9353  1.1585
  544MOL0     H75053   9.792  -1.983  11.665 -0.2733  0.6860 -3.6621
  544MOL0     H75054   9.647  -1.549  11.479  0.3645 -0.3530  0.7072
  544MOL0     H75055   9.643  -1.373  11.302 -0.9951  0.1207 -1.4810
  544MOL0     H75056   9.390   0.236  10.493 -0.7594 -1.0602 -0.5318
  544MOL0     H75057   9.491   0.448  10.504 -0.9642 -0.5148  0.0337
  544MOL0     H75058   9.708   0.834  10.683 -0.9018  0.7687 -1.7193
  544MOL0     H75059   9.873   0.997  10.735  2.8185  2.3392 -1.2387
  544MOL0     H75060  10.273   0.995  10.636 -2.2651 -1.1667  1.6690
  544MOL0     H75061  10.217   1.044  10.468 -3.8506 -0.5062  0.2165
  544MOL0     H75062  10.225   1.277  10.547 -1.5863 -1.0629  1.3839
  544MOL0     H75063  10.378   1.192  10.547 -0.3853  1.3864 -1.8280
  544MOL0     H75064  10.221   1.255  10.795  0.5237  3.5582  2.1026
  544MOL0     H75065  10.388   1.181  10.791  0.5756 -1.1236 -1.3655
  544MOL0     H75066  10.384   1.413  10.872  2.9315  2.7887  0.5692
  544MOL0     H75067  10.313   1.465  10.723 -0.0675 -0.6032 -1.5609
  544MOL0     H75068  10.683   1.427  10.552 -0.2359  0.2051  0.2945
  544MOL0     H75069  10.126   0.859  10.440 -1.9844 -1.9601 -4.4823
  544MOL0     H75070  10.052   0.711  10.274  0.7055 -0.8416  0.3081
  544MOL0     H75071  10.043   0.561  10.367  1.9200  1.2089  2.2634
  544MOL0     H75072   9.898   0.645  10.284  0.6240 -0.6230 -0.3010
  545MOL0     O75073  10.481   9.237   1.030  0.9071 -0.0949  0.5197
  545MOL0     C75074  10.364   9.277   1.028 -0.7092  0.3826 -0.2029
  545MOL0     O75075  10.275   9.248   0.929  0.7627 -0.7747  0.7753
  545MOL0     C75076  10.309   9.207   0.804  0.3297 -0.2736 -0.4198
  545MOL0     C75077  10.284   9.294   0.707  0.7364  0.5287  1.1099
  545MOL0     C75078  10.320   9.258   0.577  0.1030  0.7673 -0.0676
  545MOL0     C75079  10.388   9.140   0.548 -0.0462  0.0881  0.6290
  545MOL0     O75080  10.417   9.108   0.416  0.0930  0.0870 -0.5917
  545MOL0     C75081  10.543   9.175   0.375 -0.3192  0.2046 -0.3190
  545MOL0     C75082  10.663   9.079   0.382 -0.4112 -0.4776 -0.1561
  545MOL0     C75083  10.795   9.162   0.353 -0.8665  0.9935  0.1893
  545MOL0     C75084  10.844   9.265   0.467  0.4418  0.7302  0.2352
  545MOL0     C75085  10.993   9.313   0.455  0.5833  0.2621  0.0707
  545MOL0     C75086  11.032   9.366   0.310 -0.2393  1.1848 -0.5143
  545MOL0     C75087  10.943   9.483   0.263 -0.3068  0.6294 -0.0292
  545MOL0     C75088  10.991   9.559   0.142 -0.3921  0.6778  0.6464
  545MOL0     N75089  10.915   9.671   0.089 -0.0251  0.5029 -0.2593
  545MOL0     C75090  10.824   9.657  -0.019 -0.6097  0.1905 -0.0495
  545MOL0     C75091  10.773   9.784  -0.029 -1.0550  0.6768 -0.4571
  545MOL0     C75092  10.685   9.837  -0.133  0.0136 -0.1684 -0.6385
  545MOL0     C75093  10.536   9.861  -0.082  0.7322 -0.5724  0.4568
  545MOL0     C75094  10.438   9.928  -0.192 -1.1708  0.8267  0.3436
  545MOL0     C75095  10.514  10.020  -0.298  0.3792  0.1447 -1.0613
  545MOL0     O75096  10.417  10.102  -0.372 -0.0821  0.2018  0.0855
  545MOL0     C75097  10.455  10.162  -0.490 -0.4760  0.0385 -0.5208
  545MOL0     C75098  10.380  10.278  -0.528 -0.5713  0.1926 -0.2195
  545MOL0     C75099  10.418  10.352  -0.642 -0.4820  0.0788 -0.4071
  545MOL0     C75100  10.332  10.469  -0.687  0.5965 -0.1110  0.1082
  545MOL0     C75101  10.530  10.310  -0.722 -0.0679  0.0543 -0.4262
  545MOL0     C75102  10.581  10.401  -0.825 -0.0181 -0.4098  0.4394
  545MOL0     O75103  10.600  10.528  -0.798  0.3992 -1.2005 -0.3687
  545MOL0     C75104  10.664  10.607  -0.897  0.9365 -0.2000 -0.1997
  545MOL0     C75105  10.803  10.598  -0.917  0.0641 -0.8374  0.3525
  545MOL0     C75106  10.860  10.681  -1.011 -1.2972  0.1498 -0.4072
  545MOL0     C75107  10.789  10.785  -1.081  0.7767  0.1220 -0.5334
  545MOL0     O75108  10.851  10.868  -1.166  0.3227 -0.1978  0.4495
  545MOL0     C75109  10.932  10.801  -1.269  0.2647  0.6329 -0.3028
  545MOL0     C75110  10.983  10.906  -1.376  0.3776 -1.2144  0.2437
  545MOL0     C75111  11.065  10.841  -1.487  0.3340 -0.1767  0.3373
  545MOL0     C75112  11.110  10.938  -1.593  0.6991  0.0726 -0.5220
  545MOL0     C75113  11.193  10.861  -1.696 -0.0771  0.7875 -0.4723
  545MOL0     C75114  11.331  10.835  -1.658  0.8076 -0.2676  0.1474
  545MOL0     C75115  11.417  10.754  -1.756 -0.9818  0.1357 -0.2026
  545MOL0     C75116  11.436  10.608  -1.719  0.8671  0.9005  0.8008
  545MOL0    Cl75117  11.515  10.611  -1.553  0.3566  0.2880 -0.2766
  545MOL0     C75118  10.653  10.802  -1.042  0.0126  0.1349 -0.8291
  545MOL0     C75119  10.595  10.709  -0.953 -0.3457 -0.0145  0.6566
  545MOL0     O75120  10.608  10.344  -0.931  0.1054  0.1102  0.4592
  545MOL0     C75121  10.604  10.195  -0.685 -0.1524  0.5422  0.1339
  545MOL0     C75122  10.564  10.122  -0.567 -0.2050 -0.2750  0.0860
  545MOL0     N75123  10.810   9.860   0.080 -0.9297 -0.0722  0.5111
  545MOL0     N75124  10.907   9.792   0.138  0.0124  0.7561  0.2973
  545MOL0     C75125  10.405   9.043   0.650 -0.9292 -0.3463  0.2798
  545MOL0     C75126  10.358   9.074   0.779 -0.0278  0.6507 -0.1431
  545MOL0     C75127  10.316   9.357   1.142  0.8177 -0.7423 -0.2429
  545MOL0     C75128  10.264   9.489   1.120  0.0234  0.0106  0.1121
  545MOL0     C75129  10.230   9.569   1.227  0.1809 -0.5236  0.7904
  545MOL0     C75130  10.253   9.534   1.354  0.6656 -0.8244 -0.2200
  545MOL0     O75131  10.228   9.613   1.465 -0.3095  0.1907  0.6170
  545MOL0     C75132  10.319   9.723   1.485 -0.4051 -0.1986  0.1463
  545MOL0     C75133  10.302   9.791   1.623  0.3916 -1.3620 -0.8422
  545MOL0     C75134  10.192   9.893   1.638 -0.4107  0.4567 -0.4946
  545MOL0     C75135  10.205  10.008   1.531  0.8216  0.3124 -0.4928
  545MOL0     C75136  10.118  10.123   1.569  0.0145  1.0334 -0.1141
  545MOL0     C75137  10.043  10.213   1.597  0.0156  0.1148 -0.4760
  545MOL0     C75138  10.297   9.411   1.387  0.2728 -0.1501 -0.6420
  545MOL0     C75139  10.327   9.323   1.278 -0.2390  1.0394  0.2772
  545MOL0     C75140  10.375   9.189   1.313 -0.2468 -0.2752  0.0329
  545MOL0     H75141  10.231   9.383   0.738 -0.5345 -0.2530  1.2483
  545MOL0     H75142  10.296   9.322   0.493  2.6106 -0.2032 -1.6483
  545MOL0     H75143  10.562   9.262   0.439  0.6025  1.1773 -1.8615
  545MOL0     H75144  10.531   9.217   0.275 -2.2614  2.2495  0.6889
  545MOL0     H75145  10.682   9.036   0.481  2.1038 -0.6516 -0.6570
  545MOL0     H75146  10.646   8.997   0.312 -0.9904 -2.1037  1.8056
  545MOL0     H75147  10.877   9.090   0.351 -0.4908  1.4263 -1.4252
  545MOL0     H75148  10.795   9.213   0.257  2.1769  0.2789 -0.3055
  545MOL0     H75149  10.782   9.354   0.483  1.1951  0.9885  1.8877
  545MOL0     H75150  10.833   9.222   0.567  0.0112  2.6924  1.0850
  545MOL0     H75151  11.055   9.227   0.481 -0.7910 -0.9844 -0.6501
  545MOL0     H75152  11.011   9.390   0.530 -1.2113 -0.2691  1.1143
  545MOL0     H75153  11.138   9.392   0.321  0.0711  0.6048 -1.9246
  545MOL0     H75154  11.032   9.283   0.239 -0.8087  1.2472 -0.5943
  545MOL0     H75155  10.922   9.548   0.349 -1.0611 -0.8557  0.9534
  545MOL0     H75156  10.843   9.443   0.246  0.3229 -0.1983 -2.0675
  545MOL0     H75157  11.082   9.601   0.188 -1.1752  1.1920  1.7633
  545MOL0     H75158  11.016   9.491   0.061 -0.7908  2.3599 -0.9534
  545MOL0     H75159  10.799   9.566  -0.071 -0.5955 -0.6112  1.2970
  545MOL0     H75160  10.680   9.764  -0.214 -2.4117 -1.8599  0.8706
  545MOL0     H75161  10.733   9.931  -0.162  0.3327 -0.2752 -0.4594
  545MOL0     H75162  10.487   9.772  -0.041  2.6574 -0.4717  3.2716
  545MOL0     H75163  10.534   9.932   0.002  1.4548  0.8802 -0.7051
  545MOL0     H75164  10.380   9.848  -0.238 -2.0103  0.8267  1.3621
  545MOL0     H75165  10.362   9.984  -0.137 -1.5647 -0.0289  0.6914
  545MOL0     H75166  10.582  10.085  -0.241 -1.2987  1.2501 -0.2490
  545MOL0     H75167  10.555   9.944  -0.365 -2.8327 -4.5249  1.6391
  545MOL0     H75168  10.313  10.318  -0.453  2.3449 -1.2437  3.4802
  545MOL0     H75169  10.346  10.475  -0.796 -3.5096 -1.7811 -0.6788
  545MOL0     H75170  10.366  10.562  -0.641  1.7160 -0.3247 -0.2354
  545MOL0     H75171  10.226  10.458  -0.664  0.4730 -0.0068 -0.3910
  545MOL0     H75172  10.860  10.524  -0.862 -0.0936 -1.3495 -0.1511
  545MOL0     H75173  10.968  10.678  -1.028 -1.4737 -3.0560 -1.5861
  545MOL0     H75174  11.020  10.746  -1.236 -0.8485 -2.0908 -1.5093
  545MOL0     H75175  10.861  10.722  -1.298 -0.3756  0.6782  1.0556
  545MOL0     H75176  10.905  10.965  -1.426 -0.6789 -0.2716  2.7940
  545MOL0     H75177  11.028  10.989  -1.321 -0.6681  0.9978 -2.0392
  545MOL0     H75178  11.002  10.760  -1.525  1.9513 -1.3221  0.0187
  545MOL0     H75179  11.153  10.792  -1.445  1.5943  0.7032 -1.1635
  545MOL0     H75180  11.146  11.031  -1.549  0.6954  0.0799 -0.5335
  545MOL0     H75181  11.034  10.982  -1.658  0.4222 -0.6310 -0.6838
  545MOL0     H75182  11.135  10.774  -1.729  2.8118 -1.1270 -0.8525
  545MOL0     H75183  11.202  10.921  -1.788  0.4894 -0.8677 -1.5429
  545MOL0     H75184  11.336  10.787  -1.560 -2.2435 -0.3236  0.3716
  545MOL0     H75185  11.373  10.934  -1.639  1.6379 -0.5275 -0.2722
  545MOL0     H75186  11.518  10.796  -1.759  0.2367 -2.1264  3.0839
  545MOL0     H75187  11.377  10.755  -1.858 -1.1425 -4.4674 -0.3704
  545MOL0     H75188  11.482  10.542  -1.793 -3.6244  1.2359 -2.7647
  545MOL0     H75189  11.344  10.551  -1.699  3.3229 -4.9447 -1.8882
  545MOL0     H75190  10.590  10.878  -1.087 -1.5574 -1.0104 -0.6484
  545MOL0     H75191  10.490  10.724  -0.928 -0.2049  0.6970  0.8367
  545MOL0     H75192  10.687  10.166  -0.747  0.8288  2.2920  0.5762
  545MOL0     H75193  10.631  10.039  -0.544  1.0370  0.4515 -0.8012
  545MOL0     H75194  10.454   8.952   0.616 -1.7544 -1.8576  2.8371
  545MOL0     H75195  10.361   8.996   0.855  5.0067  1.3323  0.7398
  545MOL0     H75196  10.231   9.535   1.027 -2.5407 -0.0968  0.8979
  545MOL0     H75197  10.197   9.671   1.209 -1.2944 -1.1274 -0.0794
  545MOL0     H75198  10.416   9.673   1.488  0.6326  1.4209 -2.7398
  545MOL0     H75199  10.327   9.808   1.417 -0.8919 -0.0784  0.2363
  545MOL0     H75200  10.400   9.837   1.636 -0.2644  0.1763 -1.1721
  545MOL0     H75201  10.288   9.713   1.698 -1.6043 -1.9537 -1.7502
  545MOL0     H75202  10.100   9.835   1.628  1.0031 -2.2016  0.9778
  545MOL0     H75203  10.189   9.935   1.739 -2.3603 -1.3252  0.2667
  545MOL0     H75204  10.181   9.977   1.429 -0.6283  1.9621 -0.7158
  545MOL0     H75205  10.309  10.039   1.518  0.6361  0.2420 -2.4801
  545MOL0     H75206   9.986  10.299   1.626  0.8784 -0.2471  2.8072
  545MOL0     H75207  10.326   9.379   1.487  0.4167 -0.7070 -0.8530
  545MOL0     H75208  10.348   9.160   1.415 -0.2070 -1.6711 -0.3347
  545MOL0     H75209  10.343   9.105   1.251  1.4355 -1.5628  0.8150
  545MOL0     H75210  10.484   9.199   1.315 -0.3427  1.0087 -0.0397
  546MOL0     O75211   4.627   4.477   7.633 -0.6366 -0.2225 -0.5696
  546MOL0     C75212   4.519   4.496   7.691 -0.1312 -0.7440 -0.2731
  546MOL0     O75213   4.448   4.617   7.684  0.0165  0.8403 -0.2346
  546MOL0     C75214   4.483   4.718   7.600 -0.8323  0.1546  0.4126
  546MOL0     C75215   4.605   4.791   7.600 -0.0686 -0.6397  0.2451
  546MOL0     C75216   4.630   4.892   7.508  0.2012 -0.1176 -0.8240
  546MOL0     C75217   4.548   4.919   7.397 -0.2015  0.1734  0.0779
  546MOL0     O75218   4.578   5.023   7.310 -0.7568  0.1559 -0.1433
  546MOL0     C75219   4.558   4.974   7.171  0.3787 -0.1420 -0.7135
  546MOL0     C75220   4.618   5.053   7.064 -0.4151  0.3420 -0.8022
  546MOL0     C75221   4.751   4.994   7.017 -0.2120  0.3775  0.1546
  546MOL0     C75222   4.881   4.977   7.109  0.1056  0.2032  0.3044
  546MOL0     C75223   5.011   4.949   7.036  0.3975  0.4030  0.5622
  546MOL0     C75224   5.066   5.063   6.946  0.8445  0.1570 -0.3121
  546MOL0     C75225   5.178   5.024   6.858  0.1738 -0.0816  0.2063
  546MOL0     C75226   5.146   4.947   6.730  0.1278 -0.6821  0.6097
  546MOL0     N75227   5.023   4.992   6.659  0.5746 -0.3737 -1.0920
  546MOL0     C75228   4.888   4.969   6.694 -0.2615  1.6546  0.8189
  546MOL0     C75229   4.815   5.055   6.624 -0.3130  0.4755 -0.9398
  546MOL0     C75230   4.662   5.065   6.624 -0.4026  0.1166  0.0728
  546MOL0     C75231   4.579   4.933   6.648  0.1760  0.2399 -0.7214
  546MOL0     C75232   4.435   4.968   6.665 -0.2889  0.5986  0.3280
  546MOL0     C75233   4.362   4.990   6.526  0.0550  0.1959  0.0887
  546MOL0     O75234   4.223   5.017   6.544  0.9101  0.3984 -0.0705
  546MOL0     C75235   4.135   5.017   6.442 -0.8089  0.2294  0.0593
  546MOL0     C75236   4.001   5.051   6.474 -0.4982  0.0672 -0.5816
  546MOL0     C75237   3.899   5.057   6.383 -1.1137  0.1745 -0.7004
  546MOL0     C75238   3.772   5.118   6.432 -0.1810 -0.0588  0.0127
  546MOL0     C75239   3.935   5.051   6.247  0.0928  0.1465  0.5794
  546MOL0     C75240   3.838   5.079   6.141 -0.0290 -0.8278 -0.9033
  546MOL0     O75241   3.882   5.172   6.051 -0.3071 -0.0993  0.4144
  546MOL0     C75242   3.796   5.207   5.956 -0.3688 -0.1723 -0.3993
  546MOL0     C75243   3.781   5.131   5.841  0.1429  0.0166  0.1580
  546MOL0     C75244   3.732   5.188   5.725  0.0044 -0.0531  0.5410
  546MOL0     C75245   3.692   5.319   5.720  0.3332  0.6702 -0.8066
  546MOL0     O75246   3.651   5.366   5.603  0.8449  0.0497 -0.3585
  546MOL0     C75247   3.513   5.416   5.595 -0.1024 -0.4716  0.3816
  546MOL0     C75248   3.428   5.312   5.536  0.3023 -0.1914  0.7438
  546MOL0     C75249   3.287   5.369   5.518 -0.0199  0.7944  0.7974
  546MOL0     C75250   3.247   5.428   5.383  0.1105  0.5105 -0.5843
  546MOL0     C75251   3.128   5.515   5.388  1.3467  0.1948  0.0220
  546MOL0     C75252   3.015   5.427   5.458  0.5602  0.6283 -0.6010
  546MOL0     C75253   2.876   5.499   5.459 -0.3381 -0.0253 -0.4974
  546MOL0     C75254   2.754   5.425   5.514  0.3170  0.2432  1.0963
  546MOL0    Cl75255   2.606   5.504   5.489  0.4774 -0.2767 -0.2376
  546MOL0     C75256   3.698   5.393   5.842  0.3593  1.0012  0.1735
  546MOL0     C75257   3.749   5.336   5.959 -0.9728 -1.1279  0.0039
  546MOL0     O75258   3.725   5.029   6.152  0.1571  0.4612  0.2702
  546MOL0     C75259   4.057   5.004   6.211 -0.0576  0.3878  0.3053
  546MOL0     C75260   4.160   4.982   6.315  0.6024 -0.3562  1.1917
  546MOL0     N75261   4.906   5.138   6.555 -0.0616  0.2929  0.4275
  546MOL0     N75262   5.031   5.094   6.570 -0.1099  0.4704  0.4008
  546MOL0     C75263   4.442   4.832   7.379  0.9146  0.0293 -0.0198
  546MOL0     C75264   4.412   4.734   7.483  0.6599  0.2635  0.1562
  546MOL0     C75265   4.456   4.386   7.765 -0.5792  0.0045 -0.3394
  546MOL0     C75266   4.317   4.372   7.764 -0.8988 -0.2652 -1.3587
  546MOL0     C75267   4.246   4.277   7.841  0.3298 -0.0731  0.1767
  546MOL0     C75268   4.324   4.200   7.933  0.0576  0.7219  0.1800
  546MOL0     O75269   4.267   4.096   7.999  0.0451  0.1120 -0.5822
  546MOL0     C75270   4.134   4.064   7.977 -0.1536  1.1709 -0.1954
  546MOL0     C75271   4.077   3.972   8.080  0.1104 -0.5466 -0.4841
  546MOL0     C75272   4.107   4.040   8.223 -0.9116 -0.0453  0.2978
  546MOL0     C75273   4.042   3.961   8.337  0.3333  0.5053  0.4519
  546MOL0     C75274   4.081   4.015   8.465 -0.0010 -0.9007 -0.5259
  546MOL0     C75275   4.127   4.055   8.571  0.0102  0.3474  0.1862
  546MOL0     C75276   4.460   4.213   7.931  0.8913  0.8656  0.8653
  546MOL0     C75277   4.530   4.296   7.850 -0.7232  0.0797 -0.2391
  546MOL0     C75278   4.689   4.273   7.861  0.2690  0.5218  0.0839
  546MOL0     H75279   4.672   4.770   7.683  0.2049  1.0143  0.4834
  546MOL0     H75280   4.719   4.952   7.526 -0.5119  1.0120 -0.9725
  546MOL0     H75281   4.451   4.959   7.154  0.0315  0.4751  0.7829
  546MOL0     H75282   4.610   4.878   7.158 -0.7891 -0.9353  0.1827
  546MOL0     H75283   4.548   5.044   6.981  0.6152  2.8142 -2.0332
  546MOL0     H75284   4.636   5.158   7.090 -4.1038  0.9757 -0.3495
  546MOL0     H75285   4.720   4.894   6.987 -0.0584 -0.2742  2.0460
  546MOL0     H75286   4.779   5.056   6.931 -2.4151 -0.4560 -1.2647
  546MOL0     H75287   4.897   5.069   7.166  2.5300 -1.7078  3.0432
  546MOL0     H75288   4.847   4.900   7.179 -0.0523  0.3313  0.3702
  546MOL0     H75289   4.999   4.858   6.977  0.7398 -1.4371  3.1598
  546MOL0     H75290   5.086   4.931   7.113  3.3239 -1.9015 -2.5617
  546MOL0     H75291   4.989   5.114   6.888  0.4224 -0.8069 -0.6029
  546MOL0     H75292   5.107   5.139   7.014 -1.8173  0.5271  0.9905
  546MOL0     H75293   5.264   4.982   6.911  1.3620  2.7231  0.7071
  546MOL0     H75294   5.228   5.118   6.832 -0.1225 -0.7268 -3.0591
  546MOL0     H75295   5.230   4.963   6.662 -0.0242  0.6825  0.7138
  546MOL0     H75296   5.150   4.839   6.750  1.9141 -0.5368  1.2291
  546MOL0     H75297   4.850   4.885   6.751  0.8218  0.4056 -0.2267
  546MOL0     H75298   4.629   5.118   6.535 -2.5140  0.6556  1.1136
  546MOL0     H75299   4.640   5.136   6.704 -4.6347 -1.5813  0.7115
  546MOL0     H75300   4.593   4.856   6.571 -4.4536 -2.7711  1.0317
  546MOL0     H75301   4.616   4.901   6.746  2.0792  1.0892 -1.1008
  546MOL0     H75302   4.389   4.883   6.716  0.2880 -0.4728 -0.8775
  546MOL0     H75303   4.423   5.049   6.738 -0.4202  0.3433  0.5940
  546MOL0     H75304   4.403   5.075   6.471  3.5300 -0.2610  1.7410
  546MOL0     H75305   4.372   4.900   6.463  1.6158  0.7560 -0.5075
  546MOL0     H75306   3.995   5.050   6.582  3.0087 -2.0779 -0.2379
  546MOL0     H75307   3.778   5.126   6.541  2.3658 -2.4716  0.1466
  546MOL0     H75308   3.690   5.048   6.413  1.1109 -1.1024 -2.0443
  546MOL0     H75309   3.745   5.213   6.385 -1.1621 -0.6039 -0.5631
  546MOL0     H75310   3.833   5.036   5.832  1.4631  0.8110 -0.8630
  546MOL0     H75311   3.744   5.131   5.634  0.8286 -0.2470  0.7673
  546MOL0     H75312   3.474   5.434   5.695  1.0826 -1.2146  1.0031
  546MOL0     H75313   3.512   5.511   5.540  0.6168 -0.8617 -0.3308
  546MOL0     H75314   3.476   5.281   5.442  2.1087 -0.8235  1.8385
  546MOL0     H75315   3.420   5.232   5.610 -1.6782  0.0324  0.8292
  546MOL0     H75316   3.263   5.435   5.602  1.8764  0.4380  1.6835
  546MOL0     H75317   3.215   5.287   5.528 -0.6680  1.0095 -1.5089
  546MOL0     H75318   3.225   5.346   5.314  1.1981  0.6108 -1.0569
  546MOL0     H75319   3.341   5.474   5.353  1.0213 -0.3798  0.7545
  546MOL0     H75320   3.146   5.611   5.439  0.4203  0.5179 -0.2479
  546MOL0     H75321   3.104   5.532   5.283 -0.1636  0.1464  0.3342
  546MOL0     H75322   3.033   5.402   5.563 -0.3445 -2.0079 -0.9932
  546MOL0     H75323   3.001   5.332   5.404 -2.3641 -0.0469  1.1210
  546MOL0     H75324   2.865   5.531   5.355 -0.2153  0.4847 -0.3565
  546MOL0     H75325   2.893   5.588   5.521 -2.0932  1.7672 -2.4048
  546MOL0     H75326   2.769   5.413   5.622 -0.1573 -2.0523  0.9529
  546MOL0     H75327   2.748   5.326   5.467 -3.6340  1.3832 -1.2643
  546MOL0     H75328   3.654   5.492   5.849 -2.1980  0.0740 -1.3939
  546MOL0     H75329   3.762   5.405   6.042 -0.5051  0.4302 -1.3102
  546MOL0     H75330   4.088   4.972   6.112  0.7973 -1.9442  1.2401
  546MOL0     H75331   4.253   4.932   6.289  0.2640 -0.9669  1.1483
  546MOL0     H75332   4.363   4.824   7.305 -0.5584 -5.9699  1.6373
  546MOL0     H75333   4.320   4.677   7.480  0.7285 -0.3586  4.2921
  546MOL0     H75334   4.259   4.442   7.704 -3.3878  0.7386  1.9237
  546MOL0     H75335   4.146   4.269   7.799  0.3349  1.1060 -0.1111
  546MOL0     H75336   4.093   4.164   7.997  0.8257  1.3124  1.2498
  546MOL0     H75337   4.126   4.021   7.877 -0.3403 -0.7942  0.6200
  546MOL0     H75338   4.115   3.871   8.063  0.7823  0.0663 -2.9206
  546MOL0     H75339   3.970   3.961   8.058 -0.2097 -0.1744  0.8041
  546MOL0     H75340   4.215   4.042   8.234 -0.7094 -0.1799 -1.4197
  546MOL0     H75341   4.066   4.142   8.225 -3.9641 -1.0209 -2.3843
  546MOL0     H75342   4.064   3.854   8.328 -2.2464 -0.0649 -0.0300
  546MOL0     H75343   3.932   3.962   8.338  0.3279 -0.1320  1.2263
  546MOL0     H75344   4.162   4.087   8.668 -2.2662 -0.8370  1.4897
  546MOL0     H75345   4.521   4.146   7.989  1.6980  1.5036  0.7679
  546MOL0     H75346   4.745   4.343   7.798  0.5137 -1.1842 -1.7106
  546MOL0     H75347   4.718   4.294   7.964  1.6636  1.8738 -0.5340
  546MOL0     H75348   4.720   4.177   7.818  2.5231  1.3374 -0.2461
  547MOL0     O75349   2.647   4.786   0.913 -0.7733 -0.0675 -0.8290
  547MOL0     C75350   2.630   4.907   0.933  0.5358  0.2562  0.0883
  547MOL0     O75351   2.505   4.971   0.928  0.2745 -0.0424  0.6832
  547MOL0     C75352   2.402   4.895   0.878  0.3213  0.6581  0.5832
  547MOL0     C75353   2.387   4.857   0.748 -0.2719  0.4766  0.1001
  547MOL0     C75354   2.266   4.802   0.708  0.2425  0.3500 -0.8116
  547MOL0     C75355   2.160   4.766   0.796 -1.1140 -1.2062  1.0743
  547MOL0     O75356   2.033   4.719   0.761  0.0573  0.2279  0.5370
  547MOL0     C75357   2.021   4.683   0.627  0.2766  0.5512 -0.4567
  547MOL0     C75358   1.912   4.577   0.614  0.2605  0.2637  0.1994
  547MOL0     C75359   1.764   4.624   0.623 -0.5801  0.0503 -0.2403
  547MOL0     C75360   1.711   4.708   0.504 -0.1249  0.4223  0.2391
  547MOL0     C75361   1.558   4.715   0.502 -0.5927 -0.1747 -0.4072
  547MOL0     C75362   1.504   4.595   0.413 -0.0214 -0.1278  0.5562
  547MOL0     C75363   1.354   4.579   0.429  0.4736 -0.8705  0.0867
  547MOL0     C75364   1.285   4.453   0.372  0.6131  0.6385 -0.0118
  547MOL0     N75365   1.311   4.345   0.468 -0.0655 -0.1967  0.2702
  547MOL0     C75366   1.242   4.312   0.583  0.3157  0.1657 -0.0617
  547MOL0     C75367   1.316   4.209   0.636  0.2135 -0.1870 -0.3245
  547MOL0     C75368   1.303   4.151   0.774  0.2686  0.3449 -0.1950
  547MOL0     C75369   1.349   4.262   0.875  1.0518  0.0802  0.5200
  547MOL0     C75370   1.497   4.265   0.899  0.5698 -0.2979  0.1072
  547MOL0     C75371   1.537   4.147   0.996  0.0074  0.1130  0.0734
  547MOL0     O75372   1.561   4.016   0.939 -0.1533 -0.5117 -0.0617
  547MOL0     C75373   1.555   3.904   1.020 -0.2848  0.6245 -0.2355
  547MOL0     C75374   1.495   3.785   0.983 -0.2660 -0.5316  0.0134
  547MOL0     C75375   1.482   3.674   1.075 -0.3550  0.0420  0.1146
  547MOL0     C75376   1.411   3.550   1.030 -0.0686  0.7271 -1.7484
  547MOL0     C75377   1.554   3.685   1.203  0.8230 -0.2638 -0.4821
  547MOL0     C75378   1.569   3.563   1.286 -0.1395  0.1116  0.4068
  547MOL0     O75379   1.700   3.545   1.335  0.4035  0.3604 -0.5288
  547MOL0     C75380   1.726   3.430   1.411 -0.4524  0.2249 -0.2307
  547MOL0     C75381   1.688   3.409   1.539 -0.4501 -0.6157  0.1734
  547MOL0     C75382   1.701   3.289   1.602 -0.6251 -0.1424 -0.2182
  547MOL0     C75383   1.780   3.188   1.546  0.0195 -0.6755 -0.0445
  547MOL0     O75384   1.815   3.094   1.635  0.7131  0.8625  0.5643
  547MOL0     C75385   1.925   2.999   1.600  0.7477  0.4564  0.6976
  547MOL0     C75386   1.910   2.878   1.703 -0.8832 -0.3965  0.7592
  547MOL0     C75387   1.990   2.757   1.647  0.7110  0.1445  0.4943
  547MOL0     C75388   1.932   2.633   1.706 -0.3001  0.2696 -0.4720
  547MOL0     C75389   2.015   2.499   1.689 -0.3554 -0.6557 -0.1576
  547MOL0     C75390   2.164   2.484   1.749 -0.5919 -0.3182  0.0916
  547MOL0     C75391   2.156   2.445   1.903  0.1512  0.8900 -0.1093
  547MOL0     C75392   2.294   2.437   1.957  0.2751  0.0974 -0.7908
  547MOL0    Cl75393   2.364   2.279   1.885 -0.4282  0.5052  0.0550
  547MOL0     C75394   1.833   3.213   1.414 -0.5202  1.8448  0.0166
  547MOL0     C75395   1.803   3.330   1.348 -0.4327 -0.1430 -0.7539
  547MOL0     O75396   1.469   3.512   1.331 -0.6785  0.5441  0.2827
  547MOL0     C75397   1.633   3.801   1.226 -0.0380 -0.1183  0.4917
  547MOL0     C75398   1.628   3.906   1.140  0.1482 -1.2402  0.2737
  547MOL0     N75399   1.424   4.171   0.553 -0.4114 -0.1904 -0.3384
  547MOL0     N75400   1.408   4.252   0.449 -0.9331  0.4872  0.4033
  547MOL0     C75401   2.179   4.805   0.923 -0.5339  0.6415  0.0544
  547MOL0     C75402   2.299   4.868   0.965  0.8158 -0.3640 -0.0724
  547MOL0     C75403   2.743   4.990   0.984 -0.4859  0.4631 -0.6705
  547MOL0     C75404   2.742   5.134   0.989 -0.1259  0.3338 -0.4410
  547MOL0     C75405   2.826   5.209   1.062  0.0485 -0.4154  0.0335
  547MOL0     C75406   2.934   5.148   1.116 -0.7264 -0.7947  0.0808
  547MOL0     O75407   3.026   5.226   1.190 -0.0068  0.5564  0.6364
  547MOL0     C75408   2.989   5.281   1.317  0.0170  0.4695 -0.5567
  547MOL0     C75409   2.973   5.170   1.425 -0.1647  0.4596  0.1789
  547MOL0     C75410   3.112   5.108   1.453  0.0525 -0.6509 -0.2448
  547MOL0     C75411   3.115   5.027   1.585  1.0962  0.2031  0.1275
  547MOL0     C75412   3.212   4.911   1.579 -0.8767 -0.4596 -0.5031
  547MOL0     C75413   3.282   4.819   1.546 -0.4362 -0.1911  0.5274
  547MOL0     C75414   2.950   5.017   1.105 -0.8031 -0.3650 -0.1548
  547MOL0     C75415   2.858   4.935   1.046 -0.0720  0.8216  0.1971
  547MOL0     C75416   2.889   4.786   1.039  0.0640  0.2574 -0.7232
  547MOL0     H75417   2.476   4.861   0.687  1.5474  1.3703  2.6550
  547MOL0     H75418   2.245   4.786   0.603 -1.5138  0.6466 -0.5482
  547MOL0     H75419   2.113   4.635   0.592  0.6280  0.9860 -0.1340
  547MOL0     H75420   1.999   4.770   0.563  3.5245  1.4409 -0.5479
  547MOL0     H75421   1.927   4.521   0.522 -2.1892  0.6779 -0.5192
  547MOL0     H75422   1.927   4.505   0.695  0.9122  3.6368  3.3966
  547MOL0     H75423   1.704   4.534   0.637 -0.2063  0.0514  1.6762
  547MOL0     H75424   1.754   4.692   0.708 -2.5854 -1.6556  0.9922
  547MOL0     H75425   1.741   4.811   0.520 -0.4307  0.2572  2.0534
  547MOL0     H75426   1.751   4.677   0.407  0.0476 -0.8633  0.6988
  547MOL0     H75427   1.527   4.812   0.463 -0.8727  0.1061  0.4913
  547MOL0     H75428   1.522   4.700   0.604  0.6826 -1.6728 -0.1307
  547MOL0     H75429   1.539   4.622   0.313 -0.8703  2.6484  0.9216
  547MOL0     H75430   1.564   4.510   0.446  2.2110  0.9580 -0.4771
  547MOL0     H75431   1.308   4.669   0.387  0.3125 -1.4338 -0.9685
  547MOL0     H75432   1.339   4.599   0.536 -0.5013  4.2447 -0.7363
  547MOL0     H75433   1.178   4.476   0.363  1.0006  2.7945  0.2548
  547MOL0     H75434   1.334   4.445   0.275 -0.7691  2.2603 -0.8993
  547MOL0     H75435   1.169   4.367   0.641  0.8876 -0.3681  1.2191
  547MOL0     H75436   1.362   4.060   0.785 -0.2904  0.0709  0.7133
  547MOL0     H75437   1.197   4.129   0.792  0.0166  1.7400  0.1050
  547MOL0     H75438   1.310   4.356   0.834  1.6796 -0.9457 -2.6844
  547MOL0     H75439   1.301   4.239   0.971 -0.9537 -1.1155 -0.6794
  547MOL0     H75440   1.544   4.259   0.801 -1.3279 -2.0399 -0.7844
  547MOL0     H75441   1.518   4.358   0.952  0.2702 -1.3396  2.1687
  547MOL0     H75442   1.625   4.194   1.041 -0.3034  1.3598 -0.5577
  547MOL0     H75443   1.469   4.141   1.081 -0.4072  2.4266 -0.0217
  547MOL0     H75444   1.454   3.783   0.882  1.9021  2.6497 -1.0637
  547MOL0     H75445   1.330   3.570   0.959 -1.2144  2.3281 -0.0800
  547MOL0     H75446   1.370   3.493   1.114 -0.0239 -0.8159 -2.7481
  547MOL0     H75447   1.476   3.474   0.988 -0.9839 -1.2883  0.2521
  547MOL0     H75448   1.638   3.497   1.579 -1.9954 -1.1245 -0.5381
  547MOL0     H75449   1.657   3.277   1.700  1.4520  1.5877  1.0032
  547MOL0     H75450   1.912   2.954   1.501 -1.4502 -0.7060  1.4304
  547MOL0     H75451   2.021   3.050   1.608  1.0510  0.6036 -2.6137
  547MOL0     H75452   1.947   2.911   1.800 -3.0229  0.8433  1.2107
  547MOL0     H75453   1.804   2.856   1.712 -0.6145 -0.9003  3.2641
  547MOL0     H75454   2.098   2.762   1.663  1.5135 -4.5402 -1.6042
  547MOL0     H75455   1.980   2.751   1.538 -2.2607 -0.6657  0.7219
  547MOL0     H75456   1.826   2.623   1.683 -1.1338 -0.8406  3.2282
  547MOL0     H75457   1.950   2.640   1.813  3.4764  0.5539 -0.9691
  547MOL0     H75458   1.963   2.412   1.730 -0.3297 -0.9896 -0.8110
  547MOL0     H75459   2.017   2.472   1.583  0.3775  2.6128 -1.0844
  547MOL0     H75460   2.225   2.575   1.740 -1.3418  0.3536  1.4111
  547MOL0     H75461   2.216   2.407   1.691  0.9366  1.2160 -0.6834
  547MOL0     H75462   2.100   2.353   1.922  1.3719  0.5212  2.1105
  547MOL0     H75463   2.094   2.519   1.953  1.3018 -0.0964  3.0362
  547MOL0     H75464   2.295   2.423   2.065 -0.4865  3.2891 -0.2769
  547MOL0     H75465   2.349   2.530   1.938  1.5940 -0.0676  1.7928
  547MOL0     H75466   1.887   3.132   1.365  1.3176  3.6953 -1.1718
  547MOL0     H75467   1.837   3.356   1.249 -1.4576  0.2964 -1.0028
  547MOL0     H75468   1.706   3.800   1.306  2.1122 -3.2371 -1.3139
  547MOL0     H75469   1.707   3.977   1.165  1.2460 -0.5246 -4.3927
  547MOL0     H75470   2.099   4.797   0.996 -2.6177  2.9388 -1.7820
  547MOL0     H75471   2.314   4.902   1.067  2.1656 -0.8068 -0.1010
  547MOL0     H75472   2.651   5.178   0.950  0.3357  0.5712 -1.2645
  547MOL0     H75473   2.823   5.318   1.067  1.6924 -0.4000  2.9027
  547MOL0     H75474   3.061   5.352   1.358 -0.0461  1.4532 -2.0635
  547MOL0     H75475   2.898   5.342   1.319 -0.4656 -0.1942  2.0919
  547MOL0     H75476   2.907   5.090   1.391  2.5326 -0.8400 -2.5526
  547MOL0     H75477   2.927   5.215   1.514 -0.7236 -0.1245  0.1925
  547MOL0     H75478   3.141   5.045   1.368 -1.1855  0.0339 -1.2010
  547MOL0     H75479   3.179   5.195   1.452 -0.0398 -0.5659  0.4305
  547MOL0     H75480   3.021   4.970   1.587  1.9039 -1.1511  1.8888
  547MOL0     H75481   3.142   5.089   1.671 -1.8215 -0.5703  1.7465
  547MOL0     H75482   3.331   4.730   1.513  0.9237  1.9173 -3.9793
  547MOL0     H75483   3.032   4.963   1.152 -0.6739  2.8340  3.9826
  547MOL0     H75484   2.978   4.773   1.101 -1.2610  2.2573  1.7938
  547MOL0     H75485   2.807   4.743   1.096 -1.6919  2.4890 -1.4311
  547MOL0     H75486   2.901   4.754   0.935 -1.0182  2.0178 -1.4332
  548MOL0     O75487   7.205   4.380   4.008 -0.5175 -0.0053  0.0413
  548MOL0     C75488   7.098   4.388   4.053 -0.1285 -0.1790 -0.8135
  548MOL0     O75489   6.986   4.415   3.978 -0.3574  0.5569  0.0993
  548MOL0     C75490   6.997   4.456   3.845 -0.2794  0.1368 -0.5568
  548MOL0     C75491   6.977   4.592   3.817 -0.8981 -0.4439  0.4468
  548MOL0     C75492   6.988   4.628   3.688  0.2112 -0.0189  0.0877
  548MOL0     C75493   6.991   4.536   3.582 -0.1241  0.6542 -0.5227
  548MOL0     O75494   7.003   4.586   3.456  0.0888 -0.1420 -0.4394
  548MOL0     C75495   7.137   4.629   3.413  0.6442 -0.3339 -0.4049
  548MOL0     C75496   7.124   4.719   3.293  0.2381 -0.7120  0.0356
  548MOL0     C75497   7.250   4.778   3.245  0.1571  0.5010 -0.8336
  548MOL0     C75498   7.368   4.693   3.190  0.1827 -0.8077  0.8324
  548MOL0     C75499   7.317   4.595   3.097 -1.4380  0.0534  0.2873
  548MOL0     C75500   7.428   4.529   3.014  0.1403 -0.5231  0.1982
  548MOL0     C75501   7.394   4.409   2.919 -0.0888 -0.8149 -0.3789
  548MOL0     C75502   7.526   4.323   2.898  1.1311  0.1448  1.1382
  548MOL0     N75503   7.508   4.214   2.802  0.1182 -0.4210  0.2126
  548MOL0     C75504   7.594   4.119   2.782 -0.9000 -0.0707  0.0420
  548MOL0     C75505   7.543   4.048   2.681 -0.1594  0.8307 -0.4564
  548MOL0     C75506   7.601   3.911   2.658  0.4117  0.1750 -0.2497
  548MOL0     C75507   7.496   3.802   2.641 -1.0727 -0.1533 -0.4880
  548MOL0     C75508   7.566   3.668   2.607 -0.3465  0.2499  0.0299
  548MOL0     C75509   7.464   3.561   2.579  0.9347 -0.3756 -0.6173
  548MOL0     O75510   7.513   3.474   2.480  0.2942  0.3684 -0.0284
  548MOL0     C75511   7.445   3.363   2.433  0.2098  0.6775 -0.1634
  548MOL0     C75512   7.520   3.265   2.357 -0.4599  0.6083 -0.8309
  548MOL0     C75513   7.456   3.163   2.294  0.1420  0.1859  0.2098
  548MOL0     C75514   7.529   3.074   2.200  0.2139  0.0270 -0.3436
  548MOL0     C75515   7.310   3.150   2.308 -0.0587  0.0357 -0.1429
  548MOL0     C75516   7.232   3.031   2.253  0.6142 -0.8758  0.5757
  548MOL0     O75517   7.112   3.059   2.198 -0.2546 -0.4811 -0.0482
  548MOL0     C75518   7.051   2.962   2.132 -0.6298 -0.6947  0.4649
  548MOL0     C75519   6.937   2.886   2.173  0.9074 -0.2805 -0.5837
  548MOL0     C75520   6.873   2.806   2.074 -0.5576 -1.2592  0.4564
  548MOL0     C75521   6.929   2.779   1.945  1.0910  0.2332  0.5603
  548MOL0     O75522   6.859   2.684   1.860 -1.1513  0.5671 -0.4512
  548MOL0     C75523   6.941   2.628   1.752 -0.4532 -0.0195 -0.1476
  548MOL0     C75524   6.889   2.487   1.734 -0.0728 -0.0686  0.0547
  548MOL0     C75525   6.969   2.368   1.794  0.1500 -0.2962  0.3933
  548MOL0     C75526   6.906   2.233   1.747 -0.2874  1.1800  0.5094
  548MOL0     C75527   7.002   2.121   1.781 -0.9340 -0.6701  0.2373
  548MOL0     C75528   6.943   1.995   1.731  0.0745 -0.4512  0.1533
  548MOL0     C75529   7.033   1.873   1.730 -0.0630  0.1515  0.9986
  548MOL0     C75530   6.958   1.745   1.697 -0.3050  0.0516  0.1832
  548MOL0    Cl75531   6.884   1.691   1.841  0.0242  0.1421 -0.3361
  548MOL0     C75532   7.036   2.859   1.908  0.4651 -1.6099 -0.2580
  548MOL0     C75533   7.093   2.944   1.994 -0.4922 -0.2037 -0.2902
  548MOL0     O75534   7.278   2.924   2.279 -0.0564  0.0138  1.2621
  548MOL0     C75535   7.245   3.237   2.386 -0.1025  0.5757 -0.3555
  548MOL0     C75536   7.313   3.348   2.454 -0.1442 -0.6100 -0.3948
  548MOL0     N75537   7.421   4.106   2.636  0.0038  0.7499  0.2964
  548MOL0     N75538   7.405   4.211   2.718  0.5078  0.3465  0.1547
  548MOL0     C75539   6.985   4.406   3.609 -0.1736  0.7514 -0.7391
  548MOL0     C75540   7.001   4.366   3.736 -0.2661 -0.2225  0.2754
  548MOL0     C75541   7.077   4.349   4.203 -0.3446 -0.1313 -0.2339
  548MOL0     C75542   7.189   4.331   4.280 -0.7142 -0.6241 -0.3121
  548MOL0     C75543   7.178   4.308   4.412 -0.7078  1.1596 -0.3169
  548MOL0     C75544   7.059   4.293   4.486 -0.1162  0.0539  0.2410
  548MOL0     O75545   7.062   4.258   4.621 -0.2635 -0.3129  0.1823
  548MOL0     C75546   6.941   4.212   4.681  0.9635 -0.9406  0.6150
  548MOL0     C75547   6.867   4.343   4.736  0.6455 -0.0268  0.2239
  548MOL0     C75548   6.729   4.315   4.807 -0.5189 -0.7913  0.5084
  548MOL0     C75549   6.739   4.293   4.958 -0.2464 -0.6979 -0.8809
  548MOL0     C75550   6.602   4.282   5.011  0.1596  0.0481  0.5929
  548MOL0     C75551   6.490   4.278   5.046 -0.8658  0.4722 -0.1804
  548MOL0     C75552   6.945   4.319   4.403 -0.2656 -0.2677 -0.4680
  548MOL0     C75553   6.949   4.330   4.269 -0.2098  0.2171  0.1520
  548MOL0     C75554   6.807   4.323   4.206 -0.0258 -0.5234 -0.5407
  548MOL0     H75555   6.964   4.671   3.890 -1.1991 -1.1843  1.2151
  548MOL0     H75556   6.976   4.734   3.666 -1.6359 -0.3009 -0.4438
  548MOL0     H75557   7.195   4.540   3.389  1.2835 -0.2391  0.7252
  548MOL0     H75558   7.204   4.669   3.490  1.2988 -2.7110  0.3212
  548MOL0     H75559   7.070   4.662   3.217 -0.2739 -1.5092  0.9671
  548MOL0     H75560   7.053   4.802   3.304 -0.8207 -0.9810 -3.5829
  548MOL0     H75561   7.228   4.852   3.167  0.6790  0.8403 -0.6637
  548MOL0     H75562   7.278   4.836   3.333 -1.9760 -3.3718  2.7362
  548MOL0     H75563   7.432   4.757   3.129 -0.7969  0.4624  1.0698
  548MOL0     H75564   7.427   4.649   3.271 -0.0440  0.4344  1.7034
  548MOL0     H75565   7.248   4.650   3.032 -1.5182  2.0596  1.9739
  548MOL0     H75566   7.267   4.516   3.153 -0.9134  0.1211  0.8579
  548MOL0     H75567   7.499   4.596   2.965  0.5787 -1.2805 -0.2202
  548MOL0     H75568   7.497   4.492   3.090  0.2346  0.0456  0.3926
  548MOL0     H75569   7.359   4.433   2.819  2.2872  1.0025 -0.8499
  548MOL0     H75570   7.320   4.351   2.976 -3.5621  3.0351 -0.5272
  548MOL0     H75571   7.597   4.395   2.855 -0.7992 -0.1246 -3.0150
  548MOL0     H75572   7.571   4.282   2.989  3.6016  1.8369  0.7798
  548MOL0     H75573   7.671   4.084   2.850  1.8534  0.8022 -2.4255
  548MOL0     H75574   7.676   3.875   2.730  1.3371 -0.0222 -1.2865
  548MOL0     H75575   7.650   3.915   2.560 -2.0849 -3.1113 -1.8265
  548MOL0     H75576   7.448   3.780   2.737 -1.6204 -1.5623 -1.0579
  548MOL0     H75577   7.409   3.839   2.586 -1.4196  0.2320  0.2962
  548MOL0     H75578   7.628   3.686   2.519 -3.0107  3.2264 -1.4441
  548MOL0     H75579   7.638   3.636   2.682  1.9422  0.5244 -1.9238
  548MOL0     H75580   7.432   3.505   2.668 -0.2726 -0.1563 -0.9036
  548MOL0     H75581   7.374   3.611   2.543  1.6836  0.7911 -0.8971
  548MOL0     H75582   7.623   3.275   2.326  0.8990 -3.0880  1.7676
  548MOL0     H75583   7.638   3.081   2.205  0.1068  1.3321  0.8177
  548MOL0     H75584   7.505   3.085   2.093 -1.1199  3.7691  0.1774
  548MOL0     H75585   7.514   2.969   2.224  1.0577 -0.3631 -1.4154
  548MOL0     H75586   6.897   2.913   2.270  1.7427 -2.1224  0.3165
  548MOL0     H75587   6.783   2.754   2.108  0.1307 -2.2682  0.7815
  548MOL0     H75588   6.929   2.691   1.664 -2.8786  0.1142  0.2014
  548MOL0     H75589   7.045   2.626   1.785 -0.6413  1.7416  0.6437
  548MOL0     H75590   6.788   2.478   1.776 -0.0829  1.8888  0.5651
  548MOL0     H75591   6.873   2.478   1.626  0.3710 -0.2498  0.0056
  548MOL0     H75592   6.965   2.387   1.901  3.2274  2.2423  0.1955
  548MOL0     H75593   7.074   2.367   1.765 -0.0378 -0.1572 -0.3068
  548MOL0     H75594   6.890   2.249   1.640  0.4608  1.0640  0.3719
  548MOL0     H75595   6.809   2.213   1.795  0.2886 -1.3790  0.7826
  548MOL0     H75596   7.090   2.137   1.719 -2.0757 -0.1192 -1.2804
  548MOL0     H75597   7.038   2.110   1.884  0.8040 -1.8518 -0.4332
  548MOL0     H75598   6.898   2.022   1.635 -0.1942 -1.9256 -0.1552
  548MOL0     H75599   6.857   1.979   1.796  0.5691  2.1284  1.5800
  548MOL0     H75600   7.081   1.858   1.827 -0.5106  3.2428  1.8079
  548MOL0     H75601   7.111   1.890   1.655 -0.0868  0.5855  1.0699
  548MOL0     H75602   7.023   1.672   1.649 -1.6757  0.9649 -3.3265
  548MOL0     H75603   6.882   1.776   1.625 -1.1072 -3.6088 -0.7188
  548MOL0     H75604   7.060   2.863   1.802 -2.6840  0.2964 -1.0155
  548MOL0     H75605   7.158   3.024   1.959 -2.3023  0.7551 -1.6526
  548MOL0     H75606   7.143   3.224   2.419 -0.2580  0.9096 -0.6875
  548MOL0     H75607   7.249   3.410   2.516  0.1765  2.2194 -2.6916
  548MOL0     H75608   6.966   4.338   3.527 -0.0880  1.0628 -1.0165
  548MOL0     H75609   7.005   4.260   3.761 -2.1995 -0.1007  1.2759
  548MOL0     H75610   7.291   4.342   4.247  0.4425 -1.6648  2.5771
  548MOL0     H75611   7.269   4.304   4.471 -1.0515 -1.7975  0.1482
  548MOL0     H75612   6.878   4.153   4.614 -1.0494  2.6090 -0.9091
  548MOL0     H75613   6.972   4.150   4.765  3.8294  0.9555  1.1217
  548MOL0     H75614   6.859   4.425   4.664  1.6011  1.3624  1.6368
  548MOL0     H75615   6.928   4.397   4.809 -2.4392  2.6860  0.9885
  548MOL0     H75616   6.676   4.402   4.766 -0.7369 -0.0068  2.3822
  548MOL0     H75617   6.686   4.225   4.763 -0.8788  1.2063 -3.7398
  548MOL0     H75618   6.787   4.380   5.003 -1.1034  2.3561 -5.1798
  548MOL0     H75619   6.788   4.198   4.984  0.8839 -0.1241 -0.8607
  548MOL0     H75620   6.387   4.260   5.069 -0.5022  0.3156  1.4393
  548MOL0     H75621   6.845   4.305   4.443  0.2539 -2.0122  0.3154
  548MOL0     H75622   6.780   4.424   4.176  1.4370  0.4919  1.3847
  548MOL0     H75623   6.807   4.252   4.122 -0.9374 -3.4168  1.7095
  548MOL0     H75624   6.735   4.290   4.281  2.3344 -0.0141  2.1062
  549MOL0     O75625   3.790   3.083   4.729 -0.2519  0.7148 -0.5144
  549MOL0     C75626   3.794   3.206   4.742  0.8654 -0.1945 -0.5862
  549MOL0     O75627   3.694   3.288   4.782  0.5088 -0.9080 -0.0653
  549MOL0     C75628   3.567   3.232   4.796  0.2135 -0.0057  0.6417
  549MOL0     C75629   3.506   3.156   4.689  0.4258 -1.0596 -1.2665
  549MOL0     C75630   3.372   3.115   4.708  0.4704  0.0077  0.4720
  549MOL0     C75631   3.294   3.161   4.811 -0.4282 -0.4825 -0.1538
  549MOL0     O75632   3.163   3.118   4.833 -0.6919 -1.2357  0.8690
  549MOL0     C75633   3.144   2.975   4.828 -1.0121 -0.2137  0.2001
  549MOL0     C75634   3.013   2.950   4.905 -0.3003  0.2555  0.4834
  549MOL0     C75635   3.010   2.804   4.954 -0.0447  0.0460  0.4876
  549MOL0     C75636   2.863   2.769   4.989 -0.0033 -0.6394 -0.1817
  549MOL0     C75637   2.860   2.633   5.055  0.2460 -0.1946  0.1534
  549MOL0     C75638   2.728   2.557   5.048 -0.8049 -0.2200  1.1912
  549MOL0     C75639   2.678   2.527   4.901  0.0616 -0.9494 -0.2544
  549MOL0     C75640   2.551   2.448   4.883 -0.0781  0.7373  0.5388
  549MOL0     N75641   2.506   2.439   4.744 -0.2443 -0.5578  0.2543
  549MOL0     C75642   2.578   2.414   4.639  0.5764 -0.3023 -0.4949
  549MOL0     C75643   2.488   2.413   4.536 -0.3439  0.3296  0.0027
  549MOL0     C75644   2.523   2.364   4.397 -0.9624  0.3476 -1.1613
  549MOL0     C75645   2.593   2.473   4.301  0.7614 -0.3768 -0.3499
  549MOL0     C75646   2.738   2.510   4.345  0.0319  1.0406  0.5218
  549MOL0     C75647   2.851   2.411   4.337  0.6953 -0.2134 -0.0328
  549MOL0     O75648   2.849   2.341   4.223  0.0635  0.7070 -0.7592
  549MOL0     C75649   2.935   2.374   4.112  0.0880 -0.2657 -0.4080
  549MOL0     C75650   3.066   2.419   4.114  0.5319  0.3484  1.2724
  549MOL0     C75651   3.141   2.453   3.998 -0.2601  1.1515 -0.2580
  549MOL0     C75652   3.282   2.496   4.016 -0.0136  0.0294 -0.3898
  549MOL0     C75653   3.080   2.435   3.874  0.2141 -0.9746  0.0650
  549MOL0     C75654   3.157   2.445   3.743  0.3865  0.2173  0.3731
  549MOL0     O75655   3.235   2.549   3.729 -0.3165  0.4116  0.0118
  549MOL0     C75656   3.290   2.561   3.605  0.1777  0.0731  0.8900
  549MOL0     C75657   3.401   2.490   3.560 -0.5514 -0.6431 -0.2076
  549MOL0     C75658   3.438   2.500   3.423 -0.5288  0.5599 -0.4000
  549MOL0     C75659   3.365   2.585   3.332  0.3486  0.5423 -0.2477
  549MOL0     O75660   3.403   2.586   3.204 -0.1285 -0.2575  0.3832
  549MOL0     C75661   3.408   2.456   3.144  0.1379 -0.6460 -0.1640
  549MOL0     C75662   3.409   2.473   2.994  0.3705 -0.1285 -0.3778
  549MOL0     C75663   3.533   2.548   2.945 -0.2383  1.0438 -0.2025
  549MOL0     C75664   3.562   2.500   2.805 -0.1277  0.3779 -0.2236
  549MOL0     C75665   3.679   2.569   2.745 -0.0646  0.6104  0.1524
  549MOL0     C75666   3.703   2.511   2.604 -0.0757 -0.0709 -0.2389
  549MOL0     C75667   3.840   2.557   2.556  0.0050  1.1045  0.3903
  549MOL0     C75668   3.962   2.508   2.634 -0.0206  0.2961  0.9355
  549MOL0    Cl75669   4.119   2.561   2.557  0.2865  0.4415  0.5765
  549MOL0     C75670   3.253   2.660   3.380  0.2435 -0.4172  0.4116
  549MOL0     C75671   3.218   2.652   3.518 -0.3186  0.9683  0.5593
  549MOL0     O75672   3.129   2.365   3.652  0.1452  0.5079 -0.5252
  549MOL0     C75673   2.945   2.388   3.868  0.1827 -0.0507  0.2772
  549MOL0     C75674   2.872   2.366   3.991 -0.1666 -0.4004  0.5969
  549MOL0     N75675   2.363   2.441   4.584 -0.2839  1.0350 -0.6022
  549MOL0     N75676   2.380   2.463   4.708 -0.1869 -0.0292  0.7453
  549MOL0     C75677   3.351   3.238   4.908 -0.0311 -0.7044 -0.4409
  549MOL0     C75678   3.487   3.269   4.900 -0.1261  0.5973 -0.3239
  549MOL0     C75679   3.925   3.254   4.712 -0.6036 -0.0536  0.1531
  549MOL0     C75680   4.037   3.179   4.731  1.1034 -0.3716 -0.3708
  549MOL0     C75681   4.164   3.232   4.705  0.2715  0.5064  0.0681
  549MOL0     C75682   4.185   3.366   4.670  0.4369  0.0694 -1.7836
  549MOL0     O75683   4.301   3.428   4.643  0.1786  0.3277  0.5888
  549MOL0     C75684   4.387   3.360   4.549  0.5655  0.2424 -0.3433
  549MOL0     C75685   4.517   3.432   4.541 -0.0214  0.6583 -0.3607
  549MOL0     C75686   4.523   3.542   4.436 -0.0985  0.6630 -0.3723
  549MOL0     C75687   4.505   3.688   4.494 -0.1230 -0.5331  1.0640
  549MOL0     C75688   4.365   3.730   4.527 -0.2251 -0.1237 -0.1839
  549MOL0     C75689   4.246   3.749   4.535  0.0683 -0.8716 -0.2818
  549MOL0     C75690   4.070   3.441   4.668  0.5961 -0.5874  0.6163
  549MOL0     C75691   3.941   3.399   4.686 -0.6140  0.3760 -1.1791
  549MOL0     C75692   3.835   3.509   4.666  0.3394 -0.2225  0.9070
  549MOL0     H75693   3.564   3.117   4.606  0.2093 -0.6151 -1.6266
  549MOL0     H75694   3.336   3.052   4.627 -1.4212  0.2704  1.0578
  549MOL0     H75695   3.231   2.923   4.870  0.1045  1.9573  0.7231
  549MOL0     H75696   3.131   2.954   4.721  1.3510  1.0954 -0.4114
  549MOL0     H75697   3.023   3.006   4.998  0.1744 -2.0825  1.9201
  549MOL0     H75698   2.927   2.985   4.846 -0.5340 -0.9777  0.0638
  549MOL0     H75699   3.044   2.732   4.879 -0.9532  1.0232 -0.8902
  549MOL0     H75700   3.075   2.795   5.042  1.7242  1.2174 -0.6287
  549MOL0     H75701   2.820   2.843   5.057  2.0866  0.8337 -0.3640
  549MOL0     H75702   2.808   2.775   4.895  0.2156 -0.2430 -0.2865
  549MOL0     H75703   2.880   2.636   5.162 -2.7228  0.0109  0.7910
  549MOL0     H75704   2.941   2.575   5.010  1.0177  1.7638 -1.1056
  549MOL0     H75705   2.743   2.464   5.104 -1.5799  0.1563  2.0187
  549MOL0     H75706   2.653   2.610   5.106 -0.0598 -0.5413  2.4729
  549MOL0     H75707   2.761   2.490   4.840  2.8285  0.8823  2.1109
  549MOL0     H75708   2.663   2.629   4.864  3.4237 -0.6144 -1.0310
  549MOL0     H75709   2.576   2.344   4.907 -0.3575  0.7616  0.9554
  549MOL0     H75710   2.467   2.484   4.944 -1.7498 -0.9498 -0.6724
  549MOL0     H75711   2.685   2.397   4.641  0.9838  1.9132  2.2490
  549MOL0     H75712   2.432   2.330   4.348  0.6848 -0.5209 -3.8336
  549MOL0     H75713   2.589   2.277   4.391 -0.5508  0.6817 -1.5338
  549MOL0     H75714   2.593   2.439   4.197 -3.7018 -0.9147 -0.3732
  549MOL0     H75715   2.539   2.568   4.293 -0.0112 -0.9657 -3.1881
  549MOL0     H75716   2.773   2.588   4.277  2.8820  0.0467  0.7410
  549MOL0     H75717   2.742   2.560   4.442  0.2711  0.5122  0.7853
  549MOL0     H75718   2.946   2.461   4.352  0.5592  0.1907 -0.4881
  549MOL0     H75719   2.829   2.336   4.414  1.4015 -1.1007 -0.6764
  549MOL0     H75720   3.107   2.431   4.213 -1.6713 -0.7720  2.3919
  549MOL0     H75721   3.330   2.546   3.931 -1.7314  1.7464 -0.4073
  549MOL0     H75722   3.332   2.409   4.060  0.0642  1.0655  1.7307
  549MOL0     H75723   3.302   2.566   4.098  1.5013  0.6187 -1.2256
  549MOL0     H75724   3.476   2.434   3.616 -0.2320  1.2326  1.3879
  549MOL0     H75725   3.530   2.448   3.396 -0.2331 -0.0077  1.5445
  549MOL0     H75726   3.502   2.402   3.155  0.3250 -0.1953  0.4991
  549MOL0     H75727   3.321   2.391   3.158  0.8641 -1.2669  1.7089
  549MOL0     H75728   3.412   2.375   2.947  1.8209 -1.0074  1.4242
  549MOL0     H75729   3.329   2.544   2.969  0.3128  0.8416  2.2392
  549MOL0     H75730   3.613   2.521   3.015 -0.5960 -0.8663 -0.4782
  549MOL0     H75731   3.506   2.654   2.949 -0.6750  0.9477 -0.5391
  549MOL0     H75732   3.475   2.526   2.743 -0.0184  3.5666  0.7840
  549MOL0     H75733   3.584   2.393   2.802  1.0476  0.6087 -0.0030
  549MOL0     H75734   3.650   2.672   2.725 -0.4263  0.5495  0.3570
  549MOL0     H75735   3.769   2.558   2.807  1.5229  4.7589 -1.0721
  549MOL0     H75736   3.623   2.554   2.543  2.1669  2.7984 -1.3794
  549MOL0     H75737   3.695   2.402   2.615 -0.7338 -0.2781 -2.3186
  549MOL0     H75738   3.848   2.666   2.549  0.7918  0.9488 -1.6063
  549MOL0     H75739   3.842   2.507   2.459  0.9495 -0.4003  1.1522
  549MOL0     H75740   3.977   2.400   2.641  0.8564  0.4880  2.4555
  549MOL0     H75741   3.967   2.548   2.736  2.2652 -1.2567  1.5110
  549MOL0     H75742   3.199   2.729   3.316  2.2539  1.9976  1.1666
  549MOL0     H75743   3.150   2.730   3.548  0.8630  2.4118 -0.3582
  549MOL0     H75744   2.888   2.357   3.780 -1.8890  4.0431 -0.0665
  549MOL0     H75745   2.767   2.339   3.983 -0.7280  1.5864  0.8613
  549MOL0     H75746   3.282   3.274   4.984 -1.2708  0.6538 -2.1435
  549MOL0     H75747   3.509   3.341   4.978  0.8269  1.4355 -1.3377
  549MOL0     H75748   4.037   3.072   4.752  3.4902 -1.4527 -4.5448
  549MOL0     H75749   4.255   3.172   4.709  0.1839  0.1157 -2.2797
  549MOL0     H75750   4.402   3.254   4.572  1.4146 -0.5637 -3.8940
  549MOL0     H75751   4.349   3.361   4.446  2.0505 -2.6025 -1.0074
  549MOL0     H75752   4.587   3.351   4.517 -1.2294 -0.1682 -1.2320
  549MOL0     H75753   4.557   3.477   4.632  0.8175  0.1707 -0.4759
  549MOL0     H75754   4.627   3.544   4.401 -0.3054  2.7996 -0.9803
  549MOL0     H75755   4.453   3.513   4.357  0.5020  0.2208 -0.7500
  549MOL0     H75756   4.544   3.763   4.424  1.6640 -0.4597  2.0626
  549MOL0     H75757   4.557   3.696   4.590  2.1566  1.3015 -0.2225
  549MOL0     H75758   4.142   3.770   4.553  0.3809  0.3624  0.2371
  549MOL0     H75759   4.086   3.547   4.649 -1.4501 -0.5486 -1.3273
  549MOL0     H75760   3.757   3.473   4.598  1.3296  1.0649 -0.9862
  549MOL0     H75761   3.780   3.525   4.760 -0.8714  3.6619 -0.2721
  549MOL0     H75762   3.882   3.601   4.632  1.6943 -0.8539  1.0326
  550MOL0     O75763   5.208   2.114   6.299  0.0806 -0.1034  0.0342
  550MOL0     C75764   5.174   2.041   6.204 -0.9904  0.4555  0.6287
  550MOL0     O75765   5.053   2.045   6.141 -0.4473 -1.0148 -0.4671
  550MOL0     C75766   4.995   2.159   6.105  1.2855 -1.0173  0.1564
  550MOL0     C75767   4.873   2.159   6.034  0.2859  0.1534  0.1809
  550MOL0     C75768   4.814   2.278   5.985  0.2460  1.3254  0.5231
  550MOL0     C75769   4.879   2.398   5.992  0.1504 -0.1981  0.3340
  550MOL0     O75770   4.815   2.515   5.956 -0.6860 -0.3934  0.0121
  550MOL0     C75771   4.698   2.516   5.869 -0.9586  0.2599 -0.1274
  550MOL0     C75772   4.656   2.666   5.842 -0.8561 -0.1178  0.2493
  550MOL0     C75773   4.575   2.728   5.953 -0.7456  0.0445 -0.1956
  550MOL0     C75774   4.478   2.836   5.910 -0.2039  0.6001 -0.0823
  550MOL0     C75775   4.387   2.866   6.023  0.3058  0.7883 -0.0366
  550MOL0     C75776   4.328   3.003   6.001 -0.1592 -0.0063  0.7159
  550MOL0     C75777   4.259   3.049   6.126  0.4627 -0.2251  0.0271
  550MOL0     C75778   4.175   3.181   6.108  0.7653 -0.4334 -0.8285
  550MOL0     N75779   4.069   3.177   6.006  0.4676 -0.3061 -0.2461
  550MOL0     C75780   4.098   3.213   5.881  0.0175 -0.2406  0.5531
  550MOL0     C75781   3.980   3.199   5.813 -0.5464 -0.4170  1.1007
  550MOL0     C75782   3.960   3.227   5.667  0.4842  0.8004  0.3983
  550MOL0     C75783   4.082   3.250   5.579 -0.1481  0.6196 -0.0069
  550MOL0     C75784   4.139   3.395   5.599  0.7200 -0.2474  0.0576
  550MOL0     C75785   4.284   3.392   5.581 -1.0216  0.2295  0.3748
  550MOL0     O75786   4.349   3.352   5.700 -0.2906  0.5245 -0.2082
  550MOL0     C75787   4.468   3.283   5.706  0.1474 -0.2205  0.5360
  550MOL0     C75788   4.540   3.221   5.603  0.3434 -0.4322  0.5558
  550MOL0     C75789   4.658   3.158   5.628  0.9954  0.0621 -0.4452
  550MOL0     C75790   4.725   3.093   5.508 -0.4665 -0.0406  0.1642
  550MOL0     C75791   4.708   3.144   5.760  0.5558  0.5394 -0.3314
  550MOL0     C75792   4.835   3.068   5.801  0.5497 -0.7119  0.2683
  550MOL0     O75793   4.876   2.973   5.717  0.1609  0.3564 -0.0394
  550MOL0     C75794   4.962   2.872   5.756 -1.2895 -0.5322 -0.7876
  550MOL0     C75795   5.020   2.801   5.646  0.1791 -0.3153  0.6570
  550MOL0     C75796   5.122   2.704   5.664 -0.4520 -0.0739  0.7206
  550MOL0     C75797   5.159   2.671   5.800  0.2247 -0.7597 -0.2256
  550MOL0     O75798   5.273   2.604   5.829 -0.1593 -0.1470  0.7714
  550MOL0     C75799   5.262   2.466   5.794  0.4189  0.2883  0.0403
  550MOL0     C75800   5.406   2.398   5.786  0.0840 -0.5151 -0.2782
  550MOL0     C75801   5.399   2.266   5.729 -0.1352  0.1124 -0.1246
  550MOL0     C75802   5.322   2.165   5.817  0.7287  0.3806 -0.3782
  550MOL0     C75803   5.338   2.024   5.754  1.0440 -1.3839 -0.3218
  550MOL0     C75804   5.479   1.977   5.784  0.2536  0.3996  1.0904
  550MOL0     C75805   5.498   1.836   5.730  0.1953  0.5082 -0.2622
  550MOL0     C75806   5.488   1.820   5.578  0.8340 -0.2073 -0.9405
  550MOL0    Cl75807   5.640   1.735   5.513 -0.3929  0.0257  0.2763
  550MOL0     C75808   5.090   2.730   5.910 -0.7114  0.2883 -0.1030
  550MOL0     C75809   5.006   2.838   5.888  0.7239  0.5249  1.1443
  550MOL0     O75810   4.903   3.110   5.891 -0.2584  1.0380  0.1079
  550MOL0     C75811   4.635   3.200   5.861 -0.6986 -0.6944 -0.0176
  550MOL0     C75812   4.522   3.277   5.834  0.3770  0.1875  0.2012
  550MOL0     N75813   3.883   3.166   5.903  1.1746 -0.0026  0.5294
  550MOL0     N75814   3.935   3.153   6.022 -0.6012  0.7313 -0.8948
  550MOL0     C75815   5.003   2.403   6.057 -0.4723 -0.1207  0.3857
  550MOL0     C75816   5.056   2.286   6.107 -0.6824  0.3284  0.7796
  550MOL0     C75817   5.277   1.925   6.186 -0.0863 -1.4827  0.9030
  550MOL0     C75818   5.412   1.950   6.211  0.7587 -0.2227 -0.1055
  550MOL0     C75819   5.509   1.844   6.215  0.5398 -0.6969  0.3763
  550MOL0     C75820   5.473   1.723   6.159  0.5338 -0.2388 -0.5738
  550MOL0     O75821   5.556   1.607   6.158 -0.6324 -0.8161  0.5861
  550MOL0     C75822   5.692   1.606   6.220  0.0443  0.0971  0.1019
  550MOL0     C75823   5.805   1.628   6.115  0.5872 -0.6279  0.5381
  550MOL0     C75824   5.944   1.641   6.181  0.4738 -0.8472  0.4105
  550MOL0     C75825   6.050   1.599   6.063 -0.0352 -0.4414 -0.0274
  550MOL0     C75826   6.183   1.618   6.117  0.8500 -0.2792 -0.0573
  550MOL0     C75827   6.279   1.655   6.172 -0.5031  0.8249 -0.0991
  550MOL0     C75828   5.342   1.701   6.118  0.0264 -0.2770  0.2428
  550MOL0     C75829   5.240   1.800   6.136  0.1128 -0.1925 -0.5021
  550MOL0     C75830   5.101   1.755   6.113 -0.2270  0.0098  0.3093
  550MOL0     H75831   4.830   2.062   6.008 -0.5345  0.5030  0.2124
  550MOL0     H75832   4.710   2.272   5.954 -0.7666  0.6441  3.6270
  550MOL0     H75833   4.611   2.459   5.905 -1.7947  0.9325 -1.0389
  550MOL0     H75834   4.727   2.464   5.778 -1.4942  2.5819 -1.7057
  550MOL0     H75835   4.753   2.716   5.828 -1.2807  0.0313 -2.8849
  550MOL0     H75836   4.609   2.679   5.744  2.2644 -0.1225 -1.4006
  550MOL0     H75837   4.530   2.649   6.014 -4.6486  2.4493  0.3729
  550MOL0     H75838   4.643   2.782   6.020 -1.8298  0.1526  0.8496
  550MOL0     H75839   4.550   2.915   5.889 -0.1229  0.2918 -0.9880
  550MOL0     H75840   4.417   2.810   5.823  0.9226  3.2676 -1.7661
  550MOL0     H75841   4.448   2.860   6.114 -0.5262  0.1605  0.4997
  550MOL0     H75842   4.305   2.793   6.030  0.4967  0.7098  1.9039
  550MOL0     H75843   4.413   3.070   5.983 -1.4332  1.1701 -1.2559
  550MOL0     H75844   4.259   2.997   5.917  1.9698 -0.6633 -1.0804
  550MOL0     H75845   4.330   3.067   6.208 -1.6324 -2.8336  2.6436
  550MOL0     H75846   4.181   2.976   6.147 -0.6032  0.4470 -1.4561
  550MOL0     H75847   4.128   3.213   6.201  1.0041  0.0976 -0.8847
  550MOL0     H75848   4.243   3.261   6.077  0.0900  0.6353  0.3540
  550MOL0     H75849   4.196   3.234   5.840 -0.9640 -0.2361 -1.9384
  550MOL0     H75850   3.893   3.312   5.656 -0.2806 -0.0217 -2.0540
  550MOL0     H75851   3.908   3.139   5.627  0.7029  1.4104 -1.3212
  550MOL0     H75852   4.163   3.183   5.609  0.7755  2.2919  1.3614
  550MOL0     H75853   4.051   3.236   5.475  1.1086  0.4927 -0.3759
  550MOL0     H75854   4.105   3.463   5.521  2.0884  0.1274 -0.2224
  550MOL0     H75855   4.105   3.435   5.696  0.2146  2.8786 -1.3007
  550MOL0     H75856   4.300   3.324   5.497  0.2206  0.8097  0.1058
  550MOL0     H75857   4.324   3.489   5.547  1.2719 -0.4067  1.0549
  550MOL0     H75858   4.500   3.231   5.502 -0.1456  3.7595  0.9785
  550MOL0     H75859   4.832   3.112   5.517 -0.9310  3.2571  0.1157
  550MOL0     H75860   4.679   3.131   5.416 -3.1231  0.6610  1.6701
  550MOL0     H75861   4.717   2.984   5.502  0.8892 -0.0940 -1.0569
  550MOL0     H75862   5.003   2.835   5.545  3.1754  1.4509  0.6234
  550MOL0     H75863   5.180   2.664   5.582  0.2527  1.2889  0.5316
  550MOL0     H75864   5.192   2.409   5.855 -0.8584  0.1398 -1.4975
  550MOL0     H75865   5.228   2.459   5.690 -0.7958 -2.2560  0.5411
  550MOL0     H75866   5.470   2.468   5.732 -0.8568  2.7049  2.4093
  550MOL0     H75867   5.450   2.389   5.886 -0.9757 -2.4661  0.0646
  550MOL0     H75868   5.504   2.241   5.714  0.2220  1.3916  0.1805
  550MOL0     H75869   5.348   2.273   5.632 -3.4078 -1.0816  1.3426
  550MOL0     H75870   5.216   2.190   5.802  0.9992  0.1199 -3.4745
  550MOL0     H75871   5.355   2.177   5.920  2.1453  1.4657 -0.9320
  550MOL0     H75872   5.261   1.962   5.801 -0.0345 -1.6711 -2.3536
  550MOL0     H75873   5.322   2.032   5.646  1.1684  1.2945 -0.2090
  550MOL0     H75874   5.502   1.983   5.891 -1.6038  1.2183  1.5066
  550MOL0     H75875   5.552   2.036   5.728  2.3642 -1.3798  1.8439
  550MOL0     H75876   5.439   1.762   5.785 -0.8909  0.3962 -1.5435
  550MOL0     H75877   5.601   1.818   5.762  0.4917  1.3637 -0.7215
  550MOL0     H75878   5.472   1.915   5.526 -1.2653 -1.7479 -3.3630
  550MOL0     H75879   5.404   1.755   5.553  2.5556 -2.3666 -1.4728
  550MOL0     H75880   5.123   2.700   6.009  0.6754 -1.0123 -0.9326
  550MOL0     H75881   4.970   2.896   5.972  0.1976  1.7172  0.1219
  550MOL0     H75882   4.674   3.185   5.961 -0.0456 -2.6356 -0.5130
  550MOL0     H75883   4.482   3.324   5.924  1.2799 -0.6135  1.0516
  550MOL0     H75884   5.046   2.501   6.076 -1.9430  0.2179  2.3680
  550MOL0     H75885   5.156   2.312   6.138 -1.1252  1.1124  1.6121
  550MOL0     H75886   5.443   2.049   6.242 -0.3025  0.4753 -1.2077
  550MOL0     H75887   5.609   1.869   6.249  1.4312 -0.9798 -1.8643
  550MOL0     H75888   5.702   1.683   6.297  2.4173 -0.0167 -0.0408
  550MOL0     H75889   5.724   1.511   6.263  2.7706  0.4118 -1.0862
  550MOL0     H75890   5.771   1.710   6.051  0.9233 -0.4871  0.5418
  550MOL0     H75891   5.812   1.541   6.048 -3.6117 -0.1045 -0.8638
  550MOL0     H75892   5.973   1.742   6.211  0.4272 -0.2704 -1.3637
  550MOL0     H75893   5.938   1.580   6.271  0.1281  0.7013  1.4695
  550MOL0     H75894   6.027   1.646   5.967  0.3430  2.5520  1.2286
  550MOL0     H75895   6.040   1.491   6.049  1.4116 -0.2573 -3.4021
  550MOL0     H75896   6.357   1.685   6.239 -1.0054  3.6797 -0.6732
  550MOL0     H75897   5.319   1.597   6.096  0.2158 -0.6397  1.6729
  550MOL0     H75898   5.064   1.797   6.019 -3.1951  1.3010  1.9200
  550MOL0     H75899   5.107   1.648   6.093  2.7050  0.2880 -0.7636
  550MOL0     H75900   5.036   1.775   6.198  0.8638  1.0910  0.9173
  551MOL0     O75901   5.813   4.278   7.243 -0.5923  0.1006 -0.1000
  551MOL0     C75902   5.757   4.374   7.307  0.1559  0.6406  0.0704
  551MOL0     O75903   5.745   4.498   7.258  0.2269 -0.4217  0.2780
  551MOL0     C75904   5.832   4.546   7.159  0.3416  0.4843  1.1331
  551MOL0     C75905   5.783   4.640   7.079 -0.1042  0.1119  0.5641
  551MOL0     C75906   5.861   4.698   6.981  0.8699  0.3644 -0.6448
  551MOL0     C75907   5.998   4.658   6.971 -0.3041  0.5418  0.8231
  551MOL0     O75908   6.094   4.706   6.878  0.5998  0.3111 -0.0842
  551MOL0     C75909   6.059   4.810   6.798  0.3396 -0.5358 -0.6020
  551MOL0     C75910   6.017   4.756   6.668  0.0847 -0.2766 -0.2449
  551MOL0     C75911   5.961   4.878   6.575  0.0606  0.8958  0.2937
  551MOL0     C75912   6.057   4.966   6.493  0.6650  0.1747  0.2306
  551MOL0     C75913   5.993   5.075   6.405 -0.1071 -0.3111  0.5703
  551MOL0     C75914   5.889   5.155   6.488  0.3445  0.2142  0.2340
  551MOL0     C75915   5.881   5.293   6.422  0.9418 -0.7327 -0.9855
  551MOL0     C75916   5.747   5.360   6.464  0.0345  0.8243 -0.4653
  551MOL0     N75917   5.712   5.485   6.395  0.4564 -0.7923  1.5473
  551MOL0     C75918   5.629   5.582   6.440 -0.2979 -0.5641 -0.7285
  551MOL0     C75919   5.612   5.667   6.335  1.0955 -0.5648  0.9510
  551MOL0     C75920   5.523   5.789   6.320  0.5162  0.8460 -0.3232
  551MOL0     C75921   5.512   5.829   6.177  0.4996 -0.1041  0.9827
  551MOL0     C75922   5.445   5.969   6.153 -0.2592  0.0403 -0.4098
  551MOL0     C75923   5.415   6.007   6.007 -0.3931  0.3941 -0.3392
  551MOL0     O75924   5.542   6.036   5.937  0.1236 -0.4514  0.3854
  551MOL0     C75925   5.548   6.085   5.805 -0.5820 -0.3708  0.3143
  551MOL0     C75926   5.663   6.133   5.747  0.5597  0.5078 -0.9720
  551MOL0     C75927   5.671   6.174   5.616  1.2956 -0.2100 -0.4545
  551MOL0     C75928   5.800   6.240   5.569 -0.1967  0.0977  1.1051
  551MOL0     C75929   5.559   6.150   5.531 -0.6258 -0.0548 -0.1521
  551MOL0     C75930   5.560   6.198   5.387  0.3254  0.0531  0.4971
  551MOL0     O75931   5.445   6.170   5.316  0.2180 -0.0187 -0.4617
  551MOL0     C75932   5.427   6.224   5.196 -0.0293  0.6279 -0.7669
  551MOL0     C75933   5.418   6.365   5.187  1.1977 -0.1930  0.4269
  551MOL0     C75934   5.364   6.418   5.069 -0.2687 -0.6246 -0.1972
  551MOL0     C75935   5.343   6.342   4.956  0.7205  0.2924  0.1910
  551MOL0     O75936   5.299   6.386   4.836  0.5053  0.4853  0.2688
  551MOL0     C75937   5.356   6.515   4.797 -0.0613 -0.0137  0.5609
  551MOL0     C75938   5.250   6.630   4.775 -0.1325  0.0242 -0.9291
  551MOL0     C75939   5.166   6.592   4.654  0.1615  0.2227  0.4672
  551MOL0     C75940   5.072   6.714   4.622 -1.2468 -0.3817  0.8503
  551MOL0     C75941   4.928   6.710   4.681  0.6080 -0.7534  0.1117
  551MOL0     C75942   4.843   6.819   4.617  0.2333 -0.1070 -0.7462
  551MOL0     C75943   4.695   6.819   4.669 -0.7493 -1.0008  0.1571
  551MOL0     C75944   4.611   6.921   4.590  0.5643  0.1409  0.1394
  551MOL0    Cl75945   4.441   6.942   4.660 -0.3126 -0.6689 -0.1266
  551MOL0     C75946   5.344   6.205   4.972  0.0749 -0.2322 -0.0595
  551MOL0     C75947   5.387   6.145   5.091  0.1385  0.9504  0.3582
  551MOL0     O75948   5.655   6.267   5.348 -0.0664 -0.7101  0.5240
  551MOL0     C75949   5.447   6.098   5.586  0.5038  0.1591 -0.3148
  551MOL0     C75950   5.439   6.062   5.723 -0.0302 -0.2685  1.0293
  551MOL0     N75951   5.696   5.626   6.228  0.2461 -0.6352  0.3423
  551MOL0     N75952   5.752   5.520   6.268  0.6048 -0.9585 -0.0824
  551MOL0     C75953   6.046   4.557   7.054  1.1245  0.6604  0.8007
  551MOL0     C75954   5.965   4.493   7.145  0.3250 -0.6435  0.1153
  551MOL0     C75955   5.680   4.333   7.423  0.4431  0.7571 -0.2654
  551MOL0     C75956   5.737   4.231   7.504 -1.7818  0.5754 -0.2081
  551MOL0     C75957   5.668   4.182   7.625  0.9449  0.2933 -0.3180
  551MOL0     C75958   5.554   4.237   7.674  0.3448 -1.2228 -0.2006
  551MOL0     O75959   5.485   4.210   7.791  0.0606 -0.6336  0.1040
  551MOL0     C75960   5.542   4.125   7.882  0.8775 -0.2404 -0.0990
  551MOL0     C75961   5.668   4.174   7.960 -0.3605  0.1763  0.3739
  551MOL0     C75962   5.640   4.308   8.032  0.1677 -0.4765  1.1059
  551MOL0     C75963   5.724   4.427   7.978  0.0765  0.1669 -0.1361
  551MOL0     C75964   5.857   4.416   8.035 -0.1190  0.7255 -0.0445
  551MOL0     C75965   5.975   4.404   8.066 -0.7087 -0.6407 -0.4800
  551MOL0     C75966   5.498   4.337   7.587 -0.4638  1.1951 -0.2611
  551MOL0     C75967   5.553   4.373   7.463  0.2586 -0.6253  0.3104
  551MOL0     C75968   5.476   4.468   7.377  0.8986 -0.5814 -0.4704
  551MOL0     H75969   5.675   4.653   7.083 -0.3961 -1.9085  0.5500
  551MOL0     H75970   5.804   4.753   6.907 -3.4517  0.2335  2.2460
  551MOL0     H75971   6.138   4.884   6.779  0.1799 -0.5433 -1.3193
  551MOL0     H75972   5.988   4.878   6.846  0.7998  0.7976 -1.7014
  551MOL0     H75973   6.108   4.709   6.632  1.6211  0.9972  1.7387
  551MOL0     H75974   5.931   4.690   6.686 -2.2764  1.8484 -2.7710
  551MOL0     H75975   5.891   4.835   6.503  1.4058 -0.5088 -0.2131
  551MOL0     H75976   5.916   4.944   6.650  2.0960  1.2232  1.2961
  551MOL0     H75977   6.118   5.011   6.572  1.9427  0.9288 -1.1422
  551MOL0     H75978   6.124   4.900   6.438 -1.1797 -1.6515  0.0719
  551MOL0     H75979   5.933   5.025   6.328 -1.2210  1.4511  0.2352
  551MOL0     H75980   6.070   5.139   6.361 -0.3764 -1.2394 -1.4070
  551MOL0     H75981   5.795   5.099   6.474  0.5392  0.5663 -3.1106
  551MOL0     H75982   5.903   5.152   6.597 -2.6999  1.9741  0.8104
  551MOL0     H75983   5.878   5.286   6.313  2.3140  0.0017 -1.1019
  551MOL0     H75984   5.968   5.352   6.454  0.5419 -0.9866  0.6111
  551MOL0     H75985   5.668   5.287   6.445  0.9260  0.1148 -1.5547
  551MOL0     H75986   5.762   5.388   6.569  1.6903  2.4503 -1.0957
  551MOL0     H75987   5.587   5.599   6.538  2.9845 -0.9463  0.8869
  551MOL0     H75988   5.570   5.868   6.378 -1.2260  1.3026  0.5402
  551MOL0     H75989   5.419   5.781   6.355 -0.2700 -0.9122 -2.7595
  551MOL0     H75990   5.605   5.834   6.119 -0.5357  0.4343 -0.7129
  551MOL0     H75991   5.445   5.760   6.126 -0.1183  1.9218 -1.1358
  551MOL0     H75992   5.350   5.968   6.208  1.5288  1.9741  2.9881
  551MOL0     H75993   5.511   6.047   6.189  0.4884 -0.3372 -0.9291
  551MOL0     H75994   5.376   5.918   5.957  0.8482 -1.1270  1.2739
  551MOL0     H75995   5.346   6.092   5.996 -2.2366 -1.1854 -1.5350
  551MOL0     H75996   5.762   6.132   5.792 -0.8007  1.8570  2.3462
  551MOL0     H75997   5.880   6.210   5.637  2.4146  1.0451 -1.3634
  551MOL0     H75998   5.814   6.349   5.567  1.1276  0.0443  3.5338
  551MOL0     H75999   5.821   6.191   5.473 -1.9831 -3.8219  2.5037
  551MOL0     H76000   5.449   6.429   5.269  2.0647 -1.4517  1.1126
  551MOL0     H76001   5.378   6.524   5.050  2.2805 -1.4158 -3.6886
  551MOL0     H76002   5.437   6.551   4.860 -0.1227 -0.0573  0.6642
  551MOL0     H76003   5.400   6.484   4.702  0.6414 -1.6663  1.3974
  551MOL0     H76004   5.190   6.637   4.866 -1.1765 -4.2485 -1.1044
  551MOL0     H76005   5.294   6.729   4.757 -1.4832  1.0925  1.2590
  551MOL0     H76006   5.111   6.498   4.666 -0.2493  0.6908  2.8580
  551MOL0     H76007   5.223   6.572   4.563 -3.6381 -0.3557 -2.0381
  551MOL0     H76008   5.060   6.711   4.513 -1.9943 -0.2031  0.9193
  551MOL0     H76009   5.129   6.802   4.653  1.1867 -1.6623  0.2286
  551MOL0     H76010   4.882   6.614   4.657  1.0424 -0.3495 -2.6893
  551MOL0     H76011   4.930   6.722   4.790  1.7519  1.8096 -0.1287
  551MOL0     H76012   4.836   6.805   4.508  3.2017 -0.8713 -0.9152
  551MOL0     H76013   4.892   6.912   4.649 -0.6264 -0.6936  2.6948
  551MOL0     H76014   4.690   6.844   4.775  0.7647 -2.2668  0.5725
  551MOL0     H76015   4.655   6.720   4.643  1.7759 -1.2608 -3.6389
  551MOL0     H76016   4.604   6.898   4.483 -3.3197  0.6135  0.1527
  551MOL0     H76017   4.665   7.016   4.593 -0.7029  1.0115 -2.0570
  551MOL0     H76018   5.321   6.137   4.891  0.5969 -0.6235  0.1155
  551MOL0     H76019   5.403   6.038   5.100  1.1985  0.7890 -2.4145
  551MOL0     H76020   5.356   6.077   5.531  1.5406  2.1958 -3.0161
  551MOL0     H76021   5.346   6.017   5.756 -1.1843 -0.3180 -1.9303
  551MOL0     H76022   6.151   4.534   7.040  0.9138  0.6229 -1.0453
  551MOL0     H76023   6.000   4.419   7.216 -4.5010 -0.4423  3.1939
  551MOL0     H76024   5.830   4.183   7.476 -1.6691  0.5793  0.1628
  551MOL0     H76025   5.697   4.093   7.679 -2.2418  0.8113  2.5516
  551MOL0     H76026   5.477   4.095   7.964  3.4546 -2.3295  1.3378
  551MOL0     H76027   5.565   4.029   7.834  0.2110  0.5872 -2.1728
  551MOL0     H76028   5.749   4.189   7.888  0.3197 -2.8353  0.3743
  551MOL0     H76029   5.694   4.103   8.039  2.0593  0.7423  0.1627
  551MOL0     H76030   5.537   4.336   8.008  0.4227  1.9047  2.3907
  551MOL0     H76031   5.643   4.303   8.141 -0.3017 -1.5868  1.0787
  551MOL0     H76032   5.671   4.516   8.014  0.9861  0.8707 -0.4845
  551MOL0     H76033   5.717   4.429   7.869 -3.5812  1.3320 -0.0358
  551MOL0     H76034   6.079   4.398   8.090  0.6216  6.0381 -2.4960
  551MOL0     H76035   5.407   4.393   7.611 -1.0066  1.1474 -2.0460
  551MOL0     H76036   5.369   4.467   7.398  0.9949 -1.4010  0.0108
  551MOL0     H76037   5.516   4.569   7.392 -2.3722  1.1718 -2.2710
  551MOL0     H76038   5.489   4.441   7.272  0.9793 -1.7113 -0.1869
  552MOL0     O76039  11.070   3.940   5.791 -0.5813 -0.4049  0.7270
  552MOL0     C76040  11.108   3.852   5.871  0.2763  1.1217  0.7889
  552MOL0     O76041  11.161   3.887   5.994 -0.2944  1.3236 -0.2544
  552MOL0     C76042  11.131   4.007   6.047  0.8218  0.3985  0.0313
  552MOL0     C76043  11.191   4.126   6.012 -0.0888 -0.5231  0.1532
  552MOL0     C76044  11.144   4.255   6.066 -0.1245 -0.5307  0.4853
  552MOL0     C76045  11.036   4.258   6.155 -1.4379 -0.4023 -0.0264
  552MOL0     O76046  10.996   4.365   6.225 -0.0282  0.4393 -0.2187
  552MOL0     C76047  11.000   4.498   6.181  0.7244 -0.4231 -0.5605
  552MOL0     C76048  10.936   4.576   6.310  0.4489  0.2980  0.7411
  552MOL0     C76049  10.953   4.725   6.273  0.1882 -0.2034 -0.2984
  552MOL0     C76050  10.847   4.770   6.171  0.5486  0.3311  0.1560
  552MOL0     C76051  10.898   4.892   6.091  0.3063 -0.5470 -0.6663
  552MOL0     C76052  10.913   5.030   6.166  0.0678 -0.5934  0.5166
  552MOL0     C76053  10.914   5.152   6.070  0.1783 -1.0265  0.8760
  552MOL0     C76054  10.837   5.268   6.141  0.4051 -0.0235  0.5184
  552MOL0     N76055  10.691   5.264   6.147  0.7739  0.4348 -1.6848
  552MOL0     C76056  10.595   5.274   6.045 -0.1899 -0.4670  0.4456
  552MOL0     C76057  10.473   5.260   6.112 -0.6393  0.5108  0.6779
  552MOL0     C76058  10.341   5.279   6.045  0.7722  0.9201 -0.0159
  552MOL0     C76059  10.274   5.157   5.978 -0.0708  0.2394 -0.5505
  552MOL0     C76060  10.260   5.032   6.067  0.4966 -0.7598  0.5255
  552MOL0     C76061  10.173   4.926   5.999  0.9379 -0.0082  0.5155
  552MOL0     O76062  10.258   4.884   5.884 -0.0148  0.2802 -0.0301
  552MOL0     C76063  10.191   4.833   5.778  0.0245 -0.5182  1.5774
  552MOL0     C76064  10.238   4.870   5.649 -0.3019 -0.0859 -0.5177
  552MOL0     C76065  10.187   4.809   5.530 -0.2548 -0.1543 -0.4162
  552MOL0     C76066  10.267   4.849   5.410 -0.9471 -0.6304 -0.0509
  552MOL0     C76067  10.094   4.713   5.531 -0.8006 -0.3567 -0.9820
  552MOL0     C76068  10.037   4.661   5.405 -0.5187 -0.5561  0.1158
  552MOL0     O76069  10.014   4.750   5.310 -0.2390 -0.5505  0.2980
  552MOL0     C76070   9.960   4.716   5.192  0.7283  0.6834 -0.4147
  552MOL0     C76071   9.827   4.663   5.188 -0.9377 -0.0106  0.3556
  552MOL0     C76072   9.767   4.627   5.071  0.1022  0.1461 -0.0351
  552MOL0     C76073   9.838   4.631   4.955 -0.1464 -0.3514 -0.1259
  552MOL0     O76074   9.769   4.594   4.838 -0.3581 -0.2220 -0.4047
  552MOL0     C76075   9.840   4.593   4.716  0.2978  0.0745 -0.4247
  552MOL0     C76076   9.743   4.559   4.613  0.6896  0.0383  0.3817
  552MOL0     C76077   9.683   4.420   4.632  1.0186 -0.2783  0.2116
  552MOL0     C76078   9.545   4.436   4.713  0.4585  0.6005  0.6662
  552MOL0     C76079   9.460   4.315   4.726  0.0635 -1.0506 -0.0514
  552MOL0     C76080   9.337   4.328   4.803 -0.8971  0.3932 -0.0567
  552MOL0     C76081   9.227   4.416   4.734 -0.0779  0.0947 -0.5803
  552MOL0     C76082   9.091   4.346   4.717 -0.1156 -0.1966 -0.1343
  552MOL0    Cl76083   9.038   4.264   4.866  0.2795 -0.0068 -0.0320
  552MOL0     C76084   9.970   4.670   4.955 -0.4376  0.4868 -0.6081
  552MOL0     C76085  10.030   4.724   5.071 -0.8396 -0.8568 -0.7399
  552MOL0     O76086  10.022   4.537   5.396  0.4079 -0.6938 -0.0368
  552MOL0     C76087  10.035   4.680   5.656 -0.3118  0.5134 -0.0783
  552MOL0     C76088  10.094   4.730   5.779 -0.0326  0.3528  0.3770
  552MOL0     N76089  10.495   5.250   6.244 -0.0441  0.7013 -0.5944
  552MOL0     N76090  10.619   5.251   6.262  0.2416 -0.3208  0.0635
  552MOL0     C76091  10.985   4.138   6.195  0.3313 -0.4134  0.4121
  552MOL0     C76092  11.023   4.008   6.139 -0.5622 -0.5486 -0.4173
  552MOL0     C76093  11.094   3.711   5.820  0.5444 -0.0179 -0.0653
  552MOL0     C76094  11.070   3.697   5.677  0.2631 -0.3918 -0.6894
  552MOL0     C76095  11.053   3.579   5.613 -0.3262  1.2376 -0.1044
  552MOL0     C76096  11.070   3.451   5.681  0.0038  0.0486  0.2473
  552MOL0     O76097  11.046   3.330   5.607  0.4972 -0.6248 -0.0373
  552MOL0     C76098  11.103   3.213   5.666 -0.4055  0.9759  0.4278
  552MOL0     C76099  11.154   3.107   5.554  0.2336 -0.1304  0.1664
  552MOL0     C76100  11.229   3.178   5.440  0.4682  0.3387  0.1148
  552MOL0     C76101  11.266   3.073   5.330  0.1688  0.0020 -0.2008
  552MOL0     C76102  11.330   3.145   5.211  0.4990  0.0404 -0.7641
  552MOL0     C76103  11.382   3.198   5.112 -0.8419 -0.2756  0.5686
  552MOL0     C76104  11.094   3.463   5.820  0.6399  0.0103  0.0583
  552MOL0     C76105  11.115   3.589   5.892  0.0893  1.0810  0.2178
  552MOL0     C76106  11.148   3.567   6.039 -1.1121  0.0401 -0.3159
  552MOL0     H76107  11.276   4.120   5.944  0.4229  2.8109  0.3495
  552MOL0     H76108  11.201   4.348   6.057 -2.5296  0.7859 -4.2901
  552MOL0     H76109  10.928   4.504   6.099 -0.4274  3.1628  0.5140
  552MOL0     H76110  11.100   4.523   6.146  0.7754 -2.1701 -1.8019
  552MOL0     H76111  10.833   4.543   6.323 -0.4056  2.3134 -0.4334
  552MOL0     H76112  10.987   4.535   6.397  1.2754  0.4629  0.3490
  552MOL0     H76113  10.946   4.791   6.361 -2.3661 -0.8649  0.0644
  552MOL0     H76114  11.055   4.734   6.233  0.2401  1.8816  0.1659
  552MOL0     H76115  10.825   4.678   6.117  1.0958 -0.4204  1.1787
  552MOL0     H76116  10.745   4.785   6.207 -0.3308 -1.5201 -1.4254
  552MOL0     H76117  10.824   4.906   6.012  0.4768  2.3245 -0.4334
  552MOL0     H76118  10.996   4.867   6.051  0.5531 -1.1416  0.2595
  552MOL0     H76119  10.828   5.041   6.235 -3.0482 -0.4981 -3.0319
  552MOL0     H76120  11.014   5.025   6.209  0.0890 -0.0498  0.5446
  552MOL0     H76121  10.870   5.126   5.973 -1.0500  0.8332  0.8788
  552MOL0     H76122  11.016   5.168   6.036 -0.3104 -3.0440 -1.8643
  552MOL0     H76123  10.882   5.289   6.239 -1.8942 -0.5537  1.7725
  552MOL0     H76124  10.870   5.353   6.080  1.7629  0.3055  1.6734
  552MOL0     H76125  10.614   5.283   5.938  1.3487  1.4324  0.8413
  552MOL0     H76126  10.348   5.356   5.967  2.2134 -0.2383 -1.0711
  552MOL0     H76127  10.272   5.312   6.124 -1.4194  1.9664 -2.2569
  552MOL0     H76128  10.177   5.192   5.942 -0.5323 -0.0940  0.3459
  552MOL0     H76129  10.337   5.132   5.892 -0.7410  0.0568 -1.0018
  552MOL0     H76130  10.356   4.982   6.080  2.5899  2.6205 -0.3904
  552MOL0     H76131  10.219   5.069   6.161 -1.4136  2.7705 -1.4544
  552MOL0     H76132  10.150   4.847   6.070  1.6109  1.9969  3.1051
  552MOL0     H76133  10.077   4.972   5.974  0.2156 -0.6630  1.9956
  552MOL0     H76134  10.318   4.943   5.638  0.3928 -0.8983 -1.0677
  552MOL0     H76135  10.228   4.941   5.366 -0.4101 -0.3668  0.0097
  552MOL0     H76136  10.265   4.772   5.332 -1.5014  2.0784 -2.9246
  552MOL0     H76137  10.375   4.867   5.420 -0.8129  0.9982 -3.1988
  552MOL0     H76138   9.785   4.661   5.288 -0.4976  1.2086  0.5852
  552MOL0     H76139   9.662   4.601   5.061  0.4347 -0.4942 -2.7260
  552MOL0     H76140   9.889   4.689   4.698  0.9880  0.5691  3.3152
  552MOL0     H76141   9.918   4.517   4.707  1.8429  1.6052 -0.4849
  552MOL0     H76142   9.674   4.641   4.590  1.3645  0.9235  1.4353
  552MOL0     H76143   9.797   4.534   4.521 -2.6173 -3.1526 -0.9207
  552MOL0     H76144   9.754   4.364   4.692  2.4395 -0.4023 -1.5066
  552MOL0     H76145   9.660   4.370   4.538 -2.2757  1.5973 -0.1469
  552MOL0     H76146   9.483   4.519   4.677  2.2082  2.1678  1.0949
  552MOL0     H76147   9.562   4.470   4.816 -0.0575  1.2431  0.5466
  552MOL0     H76148   9.440   4.264   4.632 -2.4513  0.2996 -0.3212
  552MOL0     H76149   9.526   4.245   4.779  2.2170  2.3268  2.1254
  552MOL0     H76150   9.359   4.382   4.895  0.1354  0.0904 -0.1211
  552MOL0     H76151   9.315   4.226   4.836  0.7558 -0.6777 -2.0149
  552MOL0     H76152   9.261   4.455   4.638  0.5123  1.2430  0.0790
  552MOL0     H76153   9.210   4.506   4.794 -2.0503  0.7452 -2.0265
  552MOL0     H76154   9.098   4.272   4.636 -3.4086 -0.2115 -0.5678
  552MOL0     H76155   9.020   4.425   4.692 -0.1736  0.3385  1.6039
  552MOL0     H76156  10.038   4.665   4.870  1.0651  2.5386  0.3957
  552MOL0     H76157  10.133   4.760   5.076 -1.0250 -0.4979  2.3149
  552MOL0     H76158   9.963   4.599   5.655  1.6507 -1.3191 -0.0409
  552MOL0     H76159  10.072   4.681   5.874  1.5337  1.5686  1.4221
  552MOL0     H76160  10.897   4.136   6.258 -0.8314  1.5545 -1.0540
  552MOL0     H76161  10.975   3.916   6.170  1.9766 -1.2685  1.7490
  552MOL0     H76162  11.056   3.786   5.618 -3.8604 -0.4150 -0.0641
  552MOL0     H76163  11.064   3.558   5.507 -0.4193  0.1524  0.0900
  552MOL0     H76164  11.193   3.242   5.722  0.4514 -0.6653 -0.0172
  552MOL0     H76165  11.038   3.160   5.737  1.6474 -1.7217  0.4855
  552MOL0     H76166  11.073   3.049   5.510  2.4146 -1.6084 -2.2205
  552MOL0     H76167  11.226   3.043   5.606 -1.5105 -0.7029  2.0104
  552MOL0     H76168  11.156   3.249   5.400  0.2912 -0.4073 -0.9342
  552MOL0     H76169  11.321   3.221   5.480  0.4414  0.3855  0.1254
  552MOL0     H76170  11.176   3.024   5.290  1.3757 -2.1871 -0.3423
  552MOL0     H76171  11.329   2.998   5.378  0.0440 -0.9813 -1.5183
  552MOL0     H76172  11.416   3.258   5.031 -1.8650 -0.1452  0.2295
  552MOL0     H76173  11.116   3.372   5.875  2.2461  0.7816  0.7692
  552MOL0     H76174  11.079   3.497   6.088  1.7039 -0.9652  2.5751
  552MOL0     H76175  11.250   3.529   6.036 -1.0214  0.2156  0.4762
  552MOL0     H76176  11.136   3.656   6.102 -2.1302 -1.2055  1.3473
  553MOL0     O76177   2.197   3.645   3.278 -0.3626 -0.2785 -0.1020
  553MOL0     C76178   2.169   3.523   3.283  0.1753 -0.4293 -0.4618
  553MOL0     O76179   2.256   3.424   3.331 -0.1192 -0.8456 -0.2767
  553MOL0     C76180   2.376   3.457   3.389 -0.4351  0.0967  0.0769
  553MOL0     C76181   2.429   3.588   3.405 -0.2421  0.2248 -0.6948
  553MOL0     C76182   2.557   3.610   3.467 -0.2231 -0.9547  0.2356
  553MOL0     C76183   2.626   3.494   3.509  0.2122 -0.5239 -0.0596
  553MOL0     O76184   2.750   3.511   3.557 -0.6031 -0.5520 -0.3063
  553MOL0     C76185   2.757   3.502   3.700  0.5599 -0.1787  0.1041
  553MOL0     C76186   2.888   3.529   3.757 -0.1891  0.6192 -0.1133
  553MOL0     C76187   2.979   3.402   3.747 -0.3215 -1.2347  0.5561
  553MOL0     C76188   3.111   3.420   3.828  0.0748 -0.8186 -0.2711
  553MOL0     C76189   3.221   3.315   3.784 -0.0989  0.9699  0.2063
  553MOL0     C76190   3.355   3.360   3.837  0.1891 -0.3088 -0.3804
  553MOL0     C76191   3.359   3.368   3.995  0.8911 -0.0469  0.2516
  553MOL0     C76192   3.330   3.241   4.064  0.5051  0.8905  0.6418
  553MOL0     N76193   3.432   3.205   4.165  0.0040 -0.4537  0.1900
  553MOL0     C76194   3.564   3.222   4.154 -1.0557 -0.1163 -0.2124
  553MOL0     C76195   3.608   3.184   4.283 -0.6813  0.5403 -0.3405
  553MOL0     C76196   3.748   3.166   4.327 -0.5110 -0.6401 -0.0244
  553MOL0     C76197   3.789   3.019   4.311  0.6718  0.2275  0.3749
  553MOL0     C76198   3.933   2.995   4.330  0.1677  0.1217  0.0260
  553MOL0     C76199   4.002   2.891   4.245 -0.3464  1.2765  0.8338
  553MOL0     O76200   3.999   2.918   4.104  0.2528 -0.2465 -0.6640
  553MOL0     C76201   4.047   2.827   4.014  0.5861 -0.5347 -0.2141
  553MOL0     C76202   4.025   2.853   3.881 -0.5072  0.4259 -0.8926
  553MOL0     C76203   4.047   2.758   3.779 -0.7593 -0.0769  0.5763
  553MOL0     C76204   4.014   2.797   3.631  0.7577 -0.5517 -0.1066
  553MOL0     C76205   4.097   2.633   3.817  0.2047 -0.4643  0.1023
  553MOL0     C76206   4.121   2.521   3.721  0.1201  0.3538  0.0126
  553MOL0     O76207   4.115   2.400   3.771  0.0883  0.8674  0.1217
  553MOL0     C76208   4.163   2.288   3.698 -0.7323  0.7275 -0.4746
  553MOL0     C76209   4.208   2.271   3.571  0.1846 -0.1728  1.1689
  553MOL0     C76210   4.247   2.153   3.516 -0.1530  1.1928 -0.1812
  553MOL0     C76211   4.216   2.035   3.588  0.9414  0.9725  0.0865
  553MOL0     O76212   4.227   1.916   3.515  0.0822 -0.5323 -0.0725
  553MOL0     C76213   4.236   1.791   3.587 -0.0959 -0.1645 -0.4942
  553MOL0     C76214   4.261   1.681   3.489  0.1576  0.0114  0.7405
  553MOL0     C76215   4.404   1.690   3.433  0.7657  0.1176  1.0499
  553MOL0     C76216   4.418   1.590   3.312  0.1545 -0.1157 -0.9642
  553MOL0     C76217   4.540   1.578   3.222 -0.1198 -1.0102 -0.3016
  553MOL0     C76218   4.671   1.524   3.278 -0.5727  0.7177 -0.4807
  553MOL0     C76219   4.806   1.563   3.201  0.6918 -0.0630  0.5184
  553MOL0     C76220   4.808   1.514   3.060  0.3090  0.0296 -1.2936
  553MOL0    Cl76221   4.684   1.573   2.946  0.1332 -0.0215  0.4254
  553MOL0     C76222   4.170   2.044   3.720 -0.7582 -0.6124 -0.0621
  553MOL0     C76223   4.141   2.168   3.771  0.1279 -0.5899 -0.9642
  553MOL0     O76224   4.137   2.555   3.607 -0.5745  0.2801 -0.4174
  553MOL0     C76225   4.121   2.607   3.954 -0.1487  0.4385  0.7338
  553MOL0     C76226   4.106   2.702   4.048 -0.0916  0.8550 -0.3948
  553MOL0     N76227   3.498   3.159   4.368  0.4701  0.6718 -0.3420
  553MOL0     N76228   3.397   3.178   4.292 -0.3091  0.1982 -0.0655
  553MOL0     C76229   2.571   3.365   3.494  0.3618  0.3935 -0.3079
  553MOL0     C76230   2.443   3.347   3.440  0.3698  0.2748 -0.5878
  553MOL0     C76231   2.035   3.469   3.239  0.2217  0.0127 -0.4728
  553MOL0     C76232   2.043   3.334   3.206  0.5136 -0.3705  0.2877
  553MOL0     C76233   1.929   3.267   3.157 -0.0326 -0.2345 -0.0021
  553MOL0     C76234   1.820   3.336   3.123  0.2496  0.2991 -0.4175
  553MOL0     O76235   1.714   3.289   3.047  0.2007  0.2475 -0.1976
  553MOL0     C76236   1.604   3.214   3.102 -0.0773 -0.1545 -0.0101
  553MOL0     C76237   1.609   3.197   3.253 -0.3660  0.2745 -0.1393
  553MOL0     C76238   1.506   3.097   3.305 -0.1116 -0.1211 -0.2110
  553MOL0     C76239   1.476   3.099   3.452 -1.1835  0.0507  0.5587
  553MOL0     C76240   1.336   3.054   3.467 -0.4023 -0.9067 -0.7491
  553MOL0     C76241   1.221   3.040   3.472  1.1079  0.4474 -0.1052
  553MOL0     C76242   1.801   3.473   3.151  0.7181  1.2701 -0.0635
  553MOL0     C76243   1.906   3.536   3.232 -0.0244 -0.0440  0.5732
  553MOL0     C76244   1.872   3.666   3.287  0.8861  0.2227  0.6948
  553MOL0     H76245   2.381   3.683   3.384  1.6865  2.1141  2.6841
  553MOL0     H76246   2.601   3.709   3.477  2.3858 -2.0913  0.7662
  553MOL0     H76247   2.715   3.404   3.727 -1.6111  1.3461  2.8408
  553MOL0     H76248   2.695   3.575   3.752  2.5194  1.2733  0.5102
  553MOL0     H76249   2.934   3.617   3.712  1.1717  1.3870  2.6030
  553MOL0     H76250   2.865   3.537   3.864  1.7188 -1.7060  0.5725
  553MOL0     H76251   2.936   3.306   3.774 -2.7421 -0.7934 -1.2935
  553MOL0     H76252   2.999   3.390   3.640 -1.5174 -0.2420  0.1893
  553MOL0     H76253   3.155   3.520   3.829  1.1934 -1.0678  5.0675
  553MOL0     H76254   3.090   3.405   3.935  0.2366 -0.0403 -0.1286
  553MOL0     H76255   3.211   3.296   3.677 -3.2178 -1.1828  0.7330
  553MOL0     H76256   3.212   3.221   3.840  2.1127  1.6737  1.9172
  553MOL0     H76257   3.436   3.299   3.795  0.1594  1.6024 -3.6416
  553MOL0     H76258   3.374   3.458   3.792 -0.4272  0.1253  0.2837
  553MOL0     H76259   3.281   3.436   4.031  2.8123  2.5841 -0.2674
  553MOL0     H76260   3.454   3.416   4.020 -1.0451  4.3043  0.1555
  553MOL0     H76261   3.232   3.237   4.113  1.2059  0.1524  2.0349
  553MOL0     H76262   3.334   3.158   3.993  1.6743  1.2120  0.3103
  553MOL0     H76263   3.618   3.253   4.065  1.0761 -0.2602  0.9630
  553MOL0     H76264   3.764   3.192   4.432  1.5583 -1.9949  0.0480
  553MOL0     H76265   3.807   3.225   4.257  0.0711 -0.7227  0.3900
  553MOL0     H76266   3.739   2.972   4.396  0.4647  0.3006  0.2934
  553MOL0     H76267   3.742   2.974   4.223  0.5164  0.5255  0.3040
  553MOL0     H76268   3.982   3.092   4.316  2.1446 -0.9703 -1.0927
  553MOL0     H76269   3.958   2.950   4.427 -3.1674  0.3800  1.1184
  553MOL0     H76270   4.107   2.883   4.276 -0.6074  0.5991  1.5888
  553MOL0     H76271   3.956   2.795   4.270  3.1836 -0.4858  1.3060
  553MOL0     H76272   3.987   2.954   3.865 -0.9501  0.3481 -0.3609
  553MOL0     H76273   4.100   2.835   3.575 -1.5672 -0.1166 -3.6797
  553MOL0     H76274   3.937   2.875   3.636  3.0045  1.7566  2.0949
  553MOL0     H76275   3.971   2.726   3.561  0.9402 -0.2610 -0.5203
  553MOL0     H76276   4.222   2.359   3.509  0.7930 -1.3721 -0.4731
  553MOL0     H76277   4.292   2.148   3.417  0.2568 -0.9940  0.0806
  553MOL0     H76278   4.323   1.800   3.653  1.6346  2.0089 -2.8573
  553MOL0     H76279   4.143   1.756   3.632  0.4420  0.0750  0.8330
  553MOL0     H76280   4.253   1.582   3.535 -2.9931 -1.9632 -3.4795
  553MOL0     H76281   4.189   1.684   3.408 -0.0940  1.4819  0.9885
  553MOL0     H76282   4.487   1.658   3.498  2.5834 -1.2917 -1.7381
  553MOL0     H76283   4.421   1.792   3.397 -1.8061  1.2713  2.7943
  553MOL0     H76284   4.338   1.617   3.243 -0.1073 -0.2558 -0.7183
  553MOL0     H76285   4.393   1.493   3.356  1.2354  0.2703  0.6275
  553MOL0     H76286   4.510   1.520   3.134 -1.0061 -1.6263  0.3890
  553MOL0     H76287   4.561   1.683   3.201  2.9752 -1.0593  1.7459
  553MOL0     H76288   4.660   1.415   3.288  0.1516  0.5697 -1.1828
  553MOL0     H76289   4.688   1.564   3.378  0.7032  3.1101 -1.5788
  553MOL0     H76290   4.897   1.532   3.254  0.7951 -0.4335  0.1335
  553MOL0     H76291   4.817   1.672   3.201  3.7053 -0.2587 -0.9758
  553MOL0     H76292   4.800   1.405   3.049 -3.1583  0.1070 -0.5875
  553MOL0     H76293   4.909   1.530   3.020  0.4698  1.4023 -0.3951
  553MOL0     H76294   4.159   1.947   3.766  1.1579 -0.9586 -0.2766
  553MOL0     H76295   4.109   2.183   3.874 -0.5365 -1.0677 -1.0940
  553MOL0     H76296   4.166   2.516   3.991 -0.1796 -0.4079 -1.1635
  553MOL0     H76297   4.145   2.676   4.146 -0.3299 -0.8049 -0.7138
  553MOL0     H76298   2.625   3.282   3.537  0.6614  0.0857 -1.2643
  553MOL0     H76299   2.396   3.249   3.444 -0.9892  0.9421  0.6331
  553MOL0     H76300   2.130   3.274   3.232 -0.1034 -0.8590  1.2760
  553MOL0     H76301   1.932   3.161   3.132  0.5421 -0.0131 -0.9455
  553MOL0     H76302   1.510   3.260   3.068 -0.3927 -1.5356 -1.1077
  553MOL0     H76303   1.606   3.115   3.056  4.9906 -1.2894  2.0909
  553MOL0     H76304   1.596   3.294   3.303 -2.8288  0.1824 -0.5147
  553MOL0     H76305   1.708   3.154   3.273 -0.3782 -0.3733 -1.4090
  553MOL0     H76306   1.413   3.112   3.250 -0.0603 -2.8110 -1.1902
  553MOL0     H76307   1.534   2.992   3.288 -2.8622 -1.0468  0.2890
  553MOL0     H76308   1.495   3.202   3.483 -0.3762  0.7640 -2.0337
  553MOL0     H76309   1.544   3.037   3.511 -0.4189 -0.0621 -0.4097
  553MOL0     H76310   1.118   3.017   3.489  1.2643 -0.7638 -0.6780
  553MOL0     H76311   1.709   3.514   3.112 -1.3736 -4.6542 -2.6577
  553MOL0     H76312   1.770   3.690   3.255 -0.9864 -4.6077  2.1420
  553MOL0     H76313   1.873   3.651   3.396  2.5270  0.0960  0.6921
  553MOL0     H76314   1.931   3.751   3.250  0.4098 -0.3811 -1.6290
  554MOL0     O76315   5.377   8.478   0.601  1.0366  0.1447 -0.4674
  554MOL0     C76316   5.447   8.384   0.555 -0.2223  0.0326 -0.7611
  554MOL0     O76317   5.533   8.406   0.452  0.0541  0.3543  0.4485
  554MOL0     C76318   5.580   8.530   0.434  0.0687 -0.6981 -0.1857
  554MOL0     C76319   5.494   8.630   0.381 -0.2612 -0.0060  0.3623
  554MOL0     C76320   5.547   8.745   0.328 -1.0330  0.2478  0.5420
  554MOL0     C76321   5.691   8.776   0.319  0.5451  0.1930  0.2719
  554MOL0     O76322   5.735   8.883   0.245  0.1952  0.0660 -0.2335
  554MOL0     C76323   5.854   8.877   0.164 -0.1325  0.1201 -0.3951
  554MOL0     C76324   5.844   8.988   0.056  0.2088 -0.5742 -0.4394
  554MOL0     C76325   5.771   8.940  -0.073  0.8002  0.6368 -0.2344
  554MOL0     C76326   5.772   9.064  -0.161  0.7643  0.2161 -1.0522
  554MOL0     C76327   5.683   9.064  -0.290  0.0846 -0.3635 -1.0520
  554MOL0     C76328   5.539   9.008  -0.264  0.5327  1.6529  1.1844
  554MOL0     C76329   5.460   9.040  -0.390  0.6846  0.5052  0.3622
  554MOL0     C76330   5.310   9.014  -0.372  0.1954  0.3765 -0.4109
  554MOL0     N76331   5.279   8.866  -0.344 -0.0756 -0.5993  0.8145
  554MOL0     C76332   5.278   8.810  -0.219  0.1955  0.4421  0.5766
  554MOL0     C76333   5.300   8.670  -0.241 -0.1285  0.3733 -0.6246
  554MOL0     C76334   5.328   8.565  -0.141 -0.1638  0.2543 -0.4279
  554MOL0     C76335   5.481   8.546  -0.113 -0.2246 -0.2176 -0.1632
  554MOL0     C76336   5.495   8.430  -0.033 -0.4486 -0.0323 -0.8223
  554MOL0     C76337   5.634   8.405   0.024  0.0715  0.4179  0.2589
  554MOL0     O76338   5.733   8.385  -0.081 -0.9009  0.8545 -0.3751
  554MOL0     C76339   5.766   8.256  -0.139 -0.5217  0.3912  0.8448
  554MOL0     C76340   5.867   8.248  -0.238 -0.0808 -0.5284  0.1613
  554MOL0     C76341   5.911   8.121  -0.286  0.1934 -0.1338 -0.0440
  554MOL0     C76342   6.026   8.112  -0.379  0.0117  0.3335 -0.2385
  554MOL0     C76343   5.841   8.000  -0.244  0.4631 -0.1408 -1.3889
  554MOL0     C76344   5.867   7.863  -0.298 -0.5092  0.1602 -0.2386
  554MOL0     O76345   5.821   7.759  -0.223  0.1519 -0.3235 -0.0912
  554MOL0     C76346   5.833   7.632  -0.275  0.0147 -1.0424 -0.3813
  554MOL0     C76347   5.938   7.539  -0.240  0.4653  0.2768  0.7028
  554MOL0     C76348   5.930   7.400  -0.278  1.3687 -0.3053  0.8752
  554MOL0     C76349   5.811   7.351  -0.347 -0.0787 -0.0236 -0.5090
  554MOL0     O76350   5.787   7.222  -0.385  0.0248 -0.3324 -0.5095
  554MOL0     C76351   5.901   7.145  -0.435 -0.1827  0.6462  0.1032
  554MOL0     C76352   5.842   7.038  -0.534  0.5515  0.5754  1.5379
  554MOL0     C76353   5.936   6.928  -0.582  0.0712 -0.7496 -0.1972
  554MOL0     C76354   5.890   6.815  -0.670  0.9023 -0.2732 -0.1846
  554MOL0     C76355   5.839   6.841  -0.813  0.2744 -0.9044 -0.5207
  554MOL0     C76356   5.954   6.829  -0.914 -0.2803  0.3206  0.2984
  554MOL0     C76357   5.920   6.873  -1.060  0.3627  0.3979  0.0896
  554MOL0     C76358   5.816   6.784  -1.133 -0.0094 -0.0009  0.6216
  554MOL0    Cl76359   5.875   6.620  -1.156 -0.2182  0.2518 -0.2841
  554MOL0     C76360   5.716   7.446  -0.383  0.5356 -0.5469  0.1678
  554MOL0     C76361   5.724   7.583  -0.346  0.3903 -0.0066 -0.8545
  554MOL0     O76362   5.920   7.849  -0.408  0.1316 -0.0777  0.2773
  554MOL0     C76363   5.740   8.015  -0.150 -0.5462  1.1161 -0.4831
  554MOL0     C76364   5.715   8.136  -0.089  0.1643 -1.1326  0.0329
  554MOL0     N76365   5.315   8.660  -0.375 -0.7793  0.3226  0.2992
  554MOL0     N76366   5.303   8.777  -0.439  0.3442 -0.4021 -0.4625
  554MOL0     C76367   5.772   8.674   0.370  0.6080  0.5271 -0.7395
  554MOL0     C76368   5.718   8.551   0.427  0.6370 -0.0717 -0.0411
  554MOL0     C76369   5.420   8.240   0.581 -0.9535  0.4513  0.1624
  554MOL0     C76370   5.533   8.153   0.582  0.5130  0.3436  0.3111
  554MOL0     C76371   5.524   8.014   0.621 -0.7961  0.0376 -0.1281
  554MOL0     C76372   5.396   7.966   0.641 -0.4286  0.6580  0.2933
  554MOL0     O76373   5.393   7.829   0.684  0.0938  0.1228  0.3339
  554MOL0     C76374   5.272   7.752   0.670  0.2642  0.0700  0.0448
  554MOL0     C76375   5.304   7.642   0.570 -0.1593 -0.2581  0.2466
  554MOL0     C76376   5.206   7.521   0.564 -0.2352 -0.4397 -0.9148
  554MOL0     C76377   5.277   7.395   0.507 -0.3308 -0.0734  0.6177
  554MOL0     C76378   5.291   7.413   0.364 -0.8843 -0.5532 -0.9415
  554MOL0     C76379   5.314   7.437   0.248  0.4748  0.4360 -0.6128
  554MOL0     C76380   5.281   8.051   0.638  0.1177 -0.3688  0.2995
  554MOL0     C76381   5.292   8.188   0.608  0.7256  0.7778  1.1079
  554MOL0     C76382   5.166   8.271   0.616  0.1672  1.0621 -0.8830
  554MOL0     H76383   5.386   8.626   0.381 -0.4210  0.5503 -3.5287
  554MOL0     H76384   5.480   8.822   0.293  1.9777  0.9104 -4.9127
  554MOL0     H76385   5.882   8.784   0.113  0.9763  1.0596 -1.5938
  554MOL0     H76386   5.937   8.891   0.234 -1.4478 -2.1083  1.7749
  554MOL0     H76387   5.795   9.081   0.087 -2.5979 -1.7787 -0.9725
  554MOL0     H76388   5.947   9.017   0.035 -0.6296  2.1667 -1.2949
  554MOL0     H76389   5.829   8.863  -0.125  0.9067 -0.0493  0.8574
  554MOL0     H76390   5.672   8.901  -0.050 -0.1680  2.5396 -0.9859
  554MOL0     H76391   5.747   9.148  -0.095  3.1691 -1.4217  2.3159
  554MOL0     H76392   5.877   9.088  -0.182  1.0116 -0.8558 -1.0860
  554MOL0     H76393   5.726   9.003  -0.370 -0.7661 -0.7291 -1.2466
  554MOL0     H76394   5.675   9.166  -0.328  2.0407  0.4911  0.6051
  554MOL0     H76395   5.538   8.899  -0.254 -0.1156  1.1074 -3.0411
  554MOL0     H76396   5.507   9.070  -0.179 -3.5526  2.0092 -0.3775
  554MOL0     H76397   5.502   8.976  -0.468  2.6115  0.3148  1.5041
  554MOL0     H76398   5.484   9.143  -0.421  1.2336  0.3262  0.1929
  554MOL0     H76399   5.268   9.077  -0.293  2.1099  2.4902 -0.9886
  554MOL0     H76400   5.253   9.026  -0.464 -3.6344  1.6833  1.9014
  554MOL0     H76401   5.284   8.858  -0.122  1.4388 -2.6071  2.1482
  554MOL0     H76402   5.279   8.470  -0.163  2.0207 -1.4180  1.4046
  554MOL0     H76403   5.300   8.603  -0.042 -1.0445  0.7028 -0.8418
  554MOL0     H76404   5.533   8.519  -0.206  0.9396 -0.8527  0.6434
  554MOL0     H76405   5.521   8.639  -0.071  0.3962 -0.8995  0.8161
  554MOL0     H76406   5.431   8.433   0.055  0.6286  0.5833 -0.0220
  554MOL0     H76407   5.467   8.341  -0.089 -3.7807 -0.5308  1.3760
  554MOL0     H76408   5.649   8.490   0.093 -3.2745  1.7125 -0.3839
  554MOL0     H76409   5.620   8.318   0.088 -1.7944 -0.3473 -1.1117
  554MOL0     H76410   5.918   8.337  -0.272  2.2725 -2.7626 -2.6693
  554MOL0     H76411   6.004   8.080  -0.482 -3.5374 -0.4608  0.6244
  554MOL0     H76412   6.098   8.040  -0.339 -1.9529 -3.3379 -2.7448
  554MOL0     H76413   6.065   8.214  -0.378 -0.1224  0.3821  1.3806
  554MOL0     H76414   6.020   7.559  -0.172  3.2880 -2.8971 -1.4358
  554MOL0     H76415   6.009   7.331  -0.251  1.3799 -0.6043  0.0852
  554MOL0     H76416   5.964   7.207  -0.499 -2.0637  1.6806 -0.8443
  554MOL0     H76417   5.958   7.101  -0.353  1.2732  1.0411 -0.6580
  554MOL0     H76418   5.751   6.996  -0.491 -1.4682  1.9847 -1.0553
  554MOL0     H76419   5.805   7.085  -0.625  0.7120  1.3259  1.8570
  554MOL0     H76420   5.974   6.883  -0.490 -1.2514 -0.8080  0.3429
  554MOL0     H76421   6.019   6.977  -0.632  1.8766  0.3368  3.5072
  554MOL0     H76422   5.795   6.776  -0.632 -0.1668 -0.0777 -2.4350
  554MOL0     H76423   5.974   6.746  -0.671 -0.0458 -1.6524  3.1881
  554MOL0     H76424   5.750   6.778  -0.822 -0.7282  0.2924  0.6520
  554MOL0     H76425   5.794   6.939  -0.828 -3.2906 -2.4707 -1.2427
  554MOL0     H76426   5.999   6.729  -0.921  4.1417  2.1617 -1.6617
  554MOL0     H76427   6.029   6.896  -0.872 -0.9194  0.8505  0.6114
  554MOL0     H76428   6.008   6.877  -1.125 -1.5669 -1.4149 -2.8673
  554MOL0     H76429   5.881   6.975  -1.057  1.6126  0.8863  0.1507
  554MOL0     H76430   5.800   6.826  -1.233  0.7213 -0.5365  0.2686
  554MOL0     H76431   5.726   6.781  -1.072  1.4143 -0.3156  2.8354
  554MOL0     H76432   5.625   7.419  -0.435 -0.3276 -0.9651  1.8632
  554MOL0     H76433   5.642   7.646  -0.379 -1.7391 -0.5732  2.8856
  554MOL0     H76434   5.683   7.928  -0.119 -0.9530  1.3244 -0.6428
  554MOL0     H76435   5.640   8.149  -0.012 -1.1124 -0.6879 -1.2389
  554MOL0     H76436   5.878   8.696   0.371  0.2703  2.5414  1.9362
  554MOL0     H76437   5.778   8.472   0.471 -1.1576 -0.1511  2.5257
  554MOL0     H76438   5.634   8.176   0.550 -0.9915  3.4818 -2.7415
  554MOL0     H76439   5.618   7.960   0.627 -1.0267 -0.7244 -2.5867
  554MOL0     H76440   5.236   7.706   0.763  2.7605 -1.7405  0.2153
  554MOL0     H76441   5.191   7.808   0.623  0.7545  0.3308 -0.5074
  554MOL0     H76442   5.402   7.598   0.589  0.7128  0.8063 -1.5289
  554MOL0     H76443   5.314   7.678   0.467 -0.6476 -4.4679 -1.4364
  554MOL0     H76444   5.179   7.500   0.668 -1.3823  0.7209 -0.9550
  554MOL0     H76445   5.114   7.550   0.512 -2.1242 -1.7090  1.5163
  554MOL0     H76446   5.216   7.305   0.521  1.5076 -1.0530  3.0766
  554MOL0     H76447   5.376   7.384   0.552 -1.0890 -0.3050  2.3211
  554MOL0     H76448   5.318   7.438   0.141 -1.5878 -0.0534 -0.7307
  554MOL0     H76449   5.183   8.016   0.669  0.9605 -1.1212  2.2462
  554MOL0     H76450   5.193   8.361   0.671  1.3086  2.2237 -3.1798
  554MOL0     H76451   5.131   8.292   0.514 -1.9674  2.1174  0.0137
  554MOL0     H76452   5.082   8.225   0.668 -0.5172  2.1708 -0.9856
  555MOL0     O76453  11.379  11.422   8.175  0.2741 -0.2689 -0.1921
  555MOL0     C76454  11.465  11.503   8.148  0.2890 -0.2493 -0.0065
  555MOL0     O76455  11.444  11.638   8.148 -0.4347 -1.2694 -0.5785
  555MOL0     C76456  11.311  11.680   8.133  0.2186 -0.3736  0.1142
  555MOL0     C76457  11.210  11.622   8.059  0.5254  0.2472 -0.1813
  555MOL0     C76458  11.081  11.680   8.048 -0.3877  0.9531 -0.6465
  555MOL0     C76459  11.049  11.794   8.122 -0.0562 -0.5074  1.1394
  555MOL0     O76460  10.925  11.859   8.118 -0.7751 -0.6487 -0.7728
  555MOL0     C76461  10.842  11.847   8.006 -0.3215  0.0287  0.1292
  555MOL0     C76462  10.694  11.857   8.052  0.0136  0.4769 -0.4839
  555MOL0     C76463  10.640  11.727   8.111 -0.3668  0.2624 -0.0617
  555MOL0     C76464  10.597  11.633   7.998  1.1622 -0.6937 -0.4379
  555MOL0     C76465  10.489  11.530   8.028  0.0955 -0.2475 -0.2064
  555MOL0     C76466  10.476  11.423   7.925 -0.5313 -0.1260 -0.1746
  555MOL0     C76467  10.366  11.315   7.962 -0.1653 -1.1270  0.0533
  555MOL0     C76468  10.326  11.236   7.832  0.1101 -0.4664  0.3211
  555MOL0     N76469  10.192  11.176   7.854  0.0712 -0.7078 -0.0901
  555MOL0     C76470  10.170  11.087   7.957  0.4525  0.2126 -0.0617
  555MOL0     C76471  10.045  11.046   7.935  0.1467  1.5869  0.3365
  555MOL0     C76472   9.986  10.938   8.029 -0.4132 -0.0363 -0.1793
  555MOL0     C76473   9.934  10.815   7.955  0.6346  0.4600  0.4142
  555MOL0     C76474   9.791  10.836   7.895 -0.1930 -0.7429  0.3815
  555MOL0     C76475   9.759  10.727   7.805  0.0250 -0.7005 -0.2287
  555MOL0     O76476   9.611  10.712   7.813  0.0867 -0.2485 -0.5320
  555MOL0     C76477   9.547  10.667   7.709  0.4892  0.0562 -0.0913
  555MOL0     C76478   9.444  10.748   7.656  0.1449  0.9541 -0.1493
  555MOL0     C76479   9.372  10.702   7.546 -0.6661 -0.7857 -0.6779
  555MOL0     C76480   9.280  10.801   7.482 -0.0258  0.4306 -0.8077
  555MOL0     C76481   9.380  10.577   7.493  0.2419  0.3430 -0.2484
  555MOL0     C76482   9.303  10.513   7.380 -1.3617 -0.3848  0.7020
  555MOL0     O76483   9.320  10.383   7.363  0.6477  0.3938  0.1475
  555MOL0     C76484   9.260  10.312   7.260 -0.1708  0.2789  0.1633
  555MOL0     C76485   9.219  10.360   7.132  0.3305 -0.0810  0.2396
  555MOL0     C76486   9.161  10.276   7.044  1.2840 -0.8682  0.0681
  555MOL0     C76487   9.115  10.146   7.071 -0.6351 -0.5008 -1.3864
  555MOL0     O76488   9.059  10.072   6.972  0.0102  0.1500  0.2024
  555MOL0     C76489   8.925  10.095   6.926  0.3279 -0.5261 -0.2054
  555MOL0     C76490   8.923  10.066   6.775 -0.2131 -0.1071  0.1267
  555MOL0     C76491   8.921   9.918   6.728  0.6212 -0.3775  0.3057
  555MOL0     C76492   8.827   9.872   6.604 -0.1881 -0.0052  0.9501
  555MOL0     C76493   8.846   9.717   6.563  0.8416 -0.2609  0.7093
  555MOL0     C76494   8.706   9.640   6.549 -0.3411  0.3582  0.7589
  555MOL0     C76495   8.623   9.631   6.677  0.0968 -0.7736  0.1039
  555MOL0     C76496   8.462   9.620   6.649  0.7965 -0.0160 -0.5788
  555MOL0    Cl76497   8.400   9.547   6.807 -0.3887 -0.1196  0.1128
  555MOL0     C76498   9.153  10.096   7.198  0.0819  0.9782 -0.8475
  555MOL0     C76499   9.225  10.171   7.288 -0.2112 -0.1597 -0.4441
  555MOL0     O76500   9.223  10.586   7.320  0.0053 -0.2771 -0.4222
  555MOL0     C76501   9.490  10.500   7.542 -0.5253  0.2038  0.0208
  555MOL0     C76502   9.572  10.544   7.647 -0.5793 -0.5449 -0.6375
  555MOL0     N76503   9.980  11.124   7.843  0.7423 -0.2980  1.0899
  555MOL0     N76504  10.074  11.197   7.787  0.0738  0.1243  0.4001
  555MOL0     C76505  11.150  11.842   8.209  0.2093 -0.3108  0.8428
  555MOL0     C76506  11.283  11.799   8.210  0.2585 -0.2273 -0.7061
  555MOL0     C76507  11.606  11.443   8.148  0.4637  0.8020  0.0737
  555MOL0     C76508  11.638  11.333   8.223  0.6967 -0.2191 -1.1621
  555MOL0     C76509  11.769  11.292   8.224  0.0571  0.0509  0.2870
  555MOL0     C76510  11.866  11.359   8.143 -0.7379 -1.0450  0.5769
  555MOL0     O76511  11.990  11.310   8.143  0.0575 -1.1274 -1.0088
  555MOL0     C76512  12.095  11.399   8.158  0.3030  0.4154  0.1918
  555MOL0     C76513  12.092  11.472   8.292  0.5073  1.2320 -0.5135
  555MOL0     C76514  12.047  11.611   8.285 -0.2840  0.0350  0.9599
  555MOL0     C76515  12.066  11.681   8.421 -0.3038 -1.0357  0.1489
  555MOL0     C76516  11.946  11.762   8.448  0.1030 -0.8619  0.1283
  555MOL0     C76517  11.843  11.828   8.464 -0.0393  0.6706 -0.5404
  555MOL0     C76518  11.829  11.465   8.061 -0.6552 -0.5308  1.4500
  555MOL0     C76519  11.701  11.513   8.061  0.6783 -0.1665 -0.3268
  555MOL0     C76520  11.668  11.627   7.970 -0.8536  0.0701 -0.6634
  555MOL0     H76521  11.231  11.545   7.985 -2.2231  1.0763 -1.9971
  555MOL0     H76522  11.014  11.632   7.977  0.5453  0.7165 -1.3896
  555MOL0     H76523  10.865  11.758   7.947  1.2474 -0.3191  1.2020
  555MOL0     H76524  10.853  11.932   7.939  2.8105 -0.6490 -0.3487
  555MOL0     H76525  10.684  11.937   8.126 -1.2125 -2.9580  3.4759
  555MOL0     H76526  10.652  11.878   7.953 -1.2723  0.2960  0.0031
  555MOL0     H76527  10.712  11.670   8.171 -1.1712  0.1227  0.7924
  555MOL0     H76528  10.541  11.746   8.155  0.0424 -0.6961  1.3649
  555MOL0     H76529  10.546  11.694   7.923  2.7956 -1.1706 -2.0316
  555MOL0     H76530  10.683  11.578   7.957  0.9140 -1.4803  0.0737
  555MOL0     H76531  10.397  11.586   8.044  0.5965 -0.0408  2.3091
  555MOL0     H76532  10.507  11.480   8.124 -0.6381  0.6256  0.3989
  555MOL0     H76533  10.470  11.462   7.823 -0.9558  0.6058  0.1270
  555MOL0     H76534  10.573  11.372   7.928  0.4133  1.5725 -0.4459
  555MOL0     H76535  10.284  11.372   8.006 -0.1909 -1.1074 -0.0186
  555MOL0     H76536  10.411  11.255   8.041 -1.5524  1.6640  3.1917
  555MOL0     H76537  10.331  11.306   7.747  3.7344 -1.0911 -0.1698
  555MOL0     H76538  10.400  11.162   7.801  0.8800  0.2990  0.2686
  555MOL0     H76539  10.240  11.054   8.032  0.3026  0.8073  0.3470
  555MOL0     H76540   9.915  10.984   8.097  0.5570 -2.6980  2.8680
  555MOL0     H76541  10.071  10.910   8.092  0.6402  1.7183 -0.7336
  555MOL0     H76542  10.001  10.799   7.870  0.4002 -0.2405  0.3602
  555MOL0     H76543   9.936  10.728   8.020  0.1734  0.4415  0.4088
  555MOL0     H76544   9.726  10.834   7.983 -3.0917  0.6594 -1.5922
  555MOL0     H76545   9.780  10.931   7.841  3.1062 -0.6809 -0.4153
  555MOL0     H76546   9.801  10.747   7.706  1.9106 -2.2562  0.1943
  555MOL0     H76547   9.806  10.634   7.837  0.7314  0.2749  1.7138
  555MOL0     H76548   9.442  10.853   7.684  2.9622  0.6708  1.6240
  555MOL0     H76549   9.317  10.840   7.387 -0.9845  3.2799 -0.1202
  555MOL0     H76550   9.263  10.885   7.550 -0.8308 -1.5825  1.6205
  555MOL0     H76551   9.179  10.765   7.463 -0.6304  1.1437  0.8519
  555MOL0     H76552   9.234  10.459   7.092 -0.5085 -0.6404 -1.5316
  555MOL0     H76553   9.133  10.318   6.949  0.5156 -0.5463  0.4351
  555MOL0     H76554   8.852  10.025   6.968  2.4847 -1.1587  2.8266
  555MOL0     H76555   8.914  10.202   6.947 -0.6579 -0.7130  0.2771
  555MOL0     H76556   8.829  10.105   6.734  0.2258 -0.1219 -0.9429
  555MOL0     H76557   9.002  10.122   6.725 -0.4290  1.9097  1.9330
  555MOL0     H76558   8.876   9.869   6.815  0.3311  1.1764  1.0822
  555MOL0     H76559   9.021   9.875   6.729  0.3518 -1.0010  0.5438
  555MOL0     H76560   8.860   9.927   6.516  0.5340  2.6358  2.7416
  555MOL0     H76561   8.722   9.889   6.631 -0.9252 -0.6663 -1.2585
  555MOL0     H76562   8.896   9.708   6.466 -2.2824 -0.1885 -1.0457
  555MOL0     H76563   8.911   9.658   6.627  2.6940 -2.5813 -2.9422
  555MOL0     H76564   8.722   9.533   6.536 -3.1523 -0.2883  1.7916
  555MOL0     H76565   8.651   9.674   6.460 -3.0594 -2.9558  0.9397
  555MOL0     H76566   8.641   9.710   6.750 -2.0707 -0.6225  0.5628
  555MOL0     H76567   8.650   9.532   6.714  0.7051 -1.0850 -1.1151
  555MOL0     H76568   8.446   9.551   6.567 -2.3303  1.9478 -1.7936
  555MOL0     H76569   8.424   9.716   6.613  1.6230 -0.1331 -1.8071
  555MOL0     H76570   9.109  10.001   7.227  0.3097  1.1389  0.0513
  555MOL0     H76571   9.230  10.139   7.392 -0.7310  0.3481 -0.2562
  555MOL0     H76572   9.497  10.402   7.496  0.4175  0.3829 -0.2488
  555MOL0     H76573   9.660  10.487   7.675 -0.1459 -0.9193 -2.6252
  555MOL0     H76574  11.132  11.913   8.290 -1.3854  0.3468 -0.0383
  555MOL0     H76575  11.350  11.844   8.282 -0.3751 -1.3281  0.6339
  555MOL0     H76576  11.556  11.282   8.272 -1.0026  0.5582 -3.0512
  555MOL0     H76577  11.801  11.192   8.254 -1.5282 -0.2873  0.9954
  555MOL0     H76578  12.189  11.344   8.149 -0.0132  0.2098 -3.6639
  555MOL0     H76579  12.097  11.468   8.072 -3.5287 -0.8135 -1.1084
  555MOL0     H76580  12.193  11.475   8.334  0.4513 -1.7448  0.0942
  555MOL0     H76581  12.031  11.413   8.362 -1.8151  0.2187 -3.2143
  555MOL0     H76582  12.110  11.658   8.209  1.0170  1.7759  3.0322
  555MOL0     H76583  11.942  11.615   8.254  0.0281  0.1152 -0.1247
  555MOL0     H76584  12.143  11.758   8.411  0.3981 -1.8313 -0.8054
  555MOL0     H76585  12.082  11.608   8.502  1.2370  0.0152  0.8457
  555MOL0     H76586  11.747  11.874   8.479 -0.5102  0.4435 -2.5449
  555MOL0     H76587  11.904  11.495   7.989 -0.6536  0.4479  1.8442
  555MOL0     H76588  11.759  11.645   7.911 -0.2986 -0.9444 -0.1301
  555MOL0     H76589  11.586  11.618   7.898  0.2867  2.9087 -2.4998
  555MOL0     H76590  11.654  11.727   8.013  1.1406 -0.0360  0.3326
  556MOL0     O76591   8.882   2.547   5.903  0.2957  0.3706 -0.2720
  556MOL0     C76592   8.884   2.667   5.906  0.0996  0.0809 -0.1621
  556MOL0     O76593   8.797   2.750   5.839  0.1634 -0.6568  0.7571
  556MOL0     C76594   8.715   2.695   5.743  0.3226 -0.5928  1.0790
  556MOL0     C76595   8.623   2.595   5.774 -0.0080  0.2687  0.4896
  556MOL0     C76596   8.535   2.544   5.671 -0.5917  0.4421 -1.7288
  556MOL0     C76597   8.531   2.611   5.556 -0.7708  0.3245 -0.3133
  556MOL0     O76598   8.450   2.574   5.452 -0.4729 -0.2818  0.1137
  556MOL0     C76599   8.307   2.552   5.470 -0.9871  0.9031 -0.2117
  556MOL0     C76600   8.257   2.501   5.338  1.3206  0.0961  1.4496
  556MOL0     C76601   8.239   2.625   5.245  0.3272 -0.2846 -0.2119
  556MOL0     C76602   8.145   2.590   5.131  0.3243 -0.8220  1.0531
  556MOL0     C76603   8.152   2.685   5.015  0.1488  0.1382  0.0310
  556MOL0     C76604   8.044   2.661   4.901 -0.1265  0.6600  0.3391
  556MOL0     C76605   7.901   2.661   4.968 -0.6036  0.3022  0.4471
  556MOL0     C76606   7.801   2.644   4.864  0.2514  0.0011  0.0245
  556MOL0     N76607   7.671   2.605   4.927 -0.7230  0.0304 -0.0567
  556MOL0     C76608   7.618   2.487   4.973  0.5669 -0.2788  0.3817
  556MOL0     C76609   7.484   2.512   4.991 -0.5596 -0.1360  0.1595
  556MOL0     C76610   7.365   2.435   5.019 -0.2133  0.4598 -0.3450
  556MOL0     C76611   7.336   2.428   5.171 -0.4447  0.1650  1.1510
  556MOL0     C76612   7.321   2.567   5.244  1.1401  0.3648  0.1729
  556MOL0     C76613   7.437   2.609   5.332  0.3098  0.2532 -0.8618
  556MOL0     O76614   7.431   2.503   5.428 -0.7410  0.6170  0.2856
  556MOL0     C76615   7.510   2.499   5.537 -0.4739 -0.4172 -0.0548
  556MOL0     C76616   7.508   2.374   5.599  0.0936 -0.2964 -0.3118
  556MOL0     C76617   7.566   2.353   5.721  0.1671 -0.8879  0.1415
  556MOL0     C76618   7.564   2.222   5.787 -0.1022  0.3387 -0.0115
  556MOL0     C76619   7.622   2.471   5.788  0.4251  0.0691  0.7000
  556MOL0     C76620   7.673   2.475   5.930 -0.9484 -0.8010  0.8889
  556MOL0     O76621   7.720   2.591   5.979  0.1713 -0.0137  0.7168
  556MOL0     C76622   7.811   2.581   6.076 -0.7514  0.3117 -0.3135
  556MOL0     C76623   7.927   2.496   6.073 -0.5105  0.2601 -0.1770
  556MOL0     C76624   8.007   2.477   6.190  0.0987  0.1955 -0.1425
  556MOL0     C76625   7.980   2.541   6.307 -0.4797  0.1205  1.2964
  556MOL0     O76626   8.066   2.517   6.409 -1.0240 -0.9847 -0.2349
  556MOL0     C76627   8.002   2.530   6.533  0.4991  0.1832 -0.4914
  556MOL0     C76628   8.099   2.497   6.647 -0.6176  0.0181 -0.2311
  556MOL0     C76629   8.122   2.341   6.670  0.1259  0.2676 -0.6744
  556MOL0     C76630   8.127   2.304   6.817  1.0865  0.1612 -0.5313
  556MOL0     C76631   8.179   2.156   6.836 -0.2070 -0.1625 -0.0966
  556MOL0     C76632   8.200   2.136   6.989 -1.2530  0.6549  0.2410
  556MOL0     C76633   8.234   1.988   7.021  0.5411  0.8600  0.4754
  556MOL0     C76634   8.244   1.973   7.173 -0.0847  0.4961  0.1124
  556MOL0    Cl76635   8.104   1.904   7.246 -0.1536 -0.0455 -0.1627
  556MOL0     C76636   7.875   2.634   6.304 -0.4448 -0.7089  0.6701
  556MOL0     C76637   7.795   2.656   6.190 -0.2733  0.1138 -0.4924
  556MOL0     O76638   7.679   2.372   5.993 -0.2874  0.6579  0.7409
  556MOL0     C76639   7.637   2.598   5.715  0.0723  0.2716  0.8686
  556MOL0     C76640   7.580   2.616   5.586  0.1043  1.1879  0.9246
  556MOL0     N76641   7.466   2.649   4.966  1.0536  0.3265  0.0315
  556MOL0     N76642   7.578   2.703   4.933 -0.1511  0.4539 -0.5161
  556MOL0     C76643   8.624   2.716   5.524  0.9817  0.3772 -0.7392
  556MOL0     C76644   8.715   2.763   5.616 -0.5369  1.3335  0.2260
  556MOL0     C76645   9.001   2.723   5.982  0.2993  0.0292 -0.0517
  556MOL0     C76646   9.038   2.851   5.941 -0.8224 -0.7311 -0.5655
  556MOL0     C76647   9.145   2.922   5.999 -0.8687  0.4658  1.1225
  556MOL0     C76648   9.222   2.865   6.097 -0.5306  0.3990 -0.3212
  556MOL0     O76649   9.335   2.918   6.150  0.7166  0.3360  0.6635
  556MOL0     C76650   9.451   2.898   6.065  0.7481  0.2142  0.0469
  556MOL0     C76651   9.465   2.743   6.035 -0.3248  0.3482 -1.0154
  556MOL0     C76652   9.595   2.702   5.970  0.4175  0.3869 -0.0923
  556MOL0     C76653   9.598   2.559   5.924 -0.5382 -0.3623  0.8721
  556MOL0     C76654   9.726   2.524   5.850 -0.6730 -0.1265 -0.0664
  556MOL0     C76655   9.825   2.489   5.794 -0.2254  0.5323  0.1796
  556MOL0     C76656   9.179   2.740   6.152 -0.0834 -0.3874  0.1960
  556MOL0     C76657   9.068   2.672   6.095 -0.5303 -0.3645 -0.5765
  556MOL0     C76658   9.026   2.552   6.177 -0.1041  0.3652 -0.4306
  556MOL0     H76659   8.620   2.566   5.878 -0.3492 -0.4967  0.2709
  556MOL0     H76660   8.469   2.465   5.703  2.0129 -2.2197 -2.4675
  556MOL0     H76661   8.258   2.642   5.509  3.0681  3.0390  0.4976
  556MOL0     H76662   8.288   2.477   5.548 -0.6108  1.4992  0.4711
  556MOL0     H76663   8.323   2.428   5.291 -2.2549 -1.0825 -2.3348
  556MOL0     H76664   8.158   2.457   5.351  2.0465 -1.9995  0.2464
  556MOL0     H76665   8.182   2.701   5.298  0.1290 -0.3326 -0.3581
  556MOL0     H76666   8.337   2.659   5.208 -0.2997  1.0180 -0.7331
  556MOL0     H76667   8.180   2.492   5.097  1.3414  0.7292 -2.7776
  556MOL0     H76668   8.045   2.576   5.174  0.0296 -1.6321  0.1185
  556MOL0     H76669   8.250   2.668   4.970  0.9542 -1.9033  2.2958
  556MOL0     H76670   8.166   2.788   5.051 -0.0127  1.3360 -3.0491
  556MOL0     H76671   8.047   2.744   4.830  0.5933 -0.9665 -1.6465
  556MOL0     H76672   8.067   2.575   4.837 -2.2036  1.7904 -2.0963
  556MOL0     H76673   7.883   2.750   5.029 -0.9246 -0.8803  2.1542
  556MOL0     H76674   7.885   2.577   5.036  0.7440  0.4588  0.9771
  556MOL0     H76675   7.802   2.734   4.802  1.3460  1.8992  2.6263
  556MOL0     H76676   7.822   2.556   4.802 -2.5561 -1.7155  1.2855
  556MOL0     H76677   7.679   2.397   4.966  0.1436 -0.4329 -2.3294
  556MOL0     H76678   7.394   2.337   4.982 -1.3403 -0.2318  0.5470
  556MOL0     H76679   7.275   2.474   4.971  0.5361  0.7544 -1.5512
  556MOL0     H76680   7.238   2.381   5.184 -0.9283  0.9473  0.4664
  556MOL0     H76681   7.397   2.355   5.224 -1.2475 -0.9169  0.6240
  556MOL0     H76682   7.311   2.651   5.174 -0.5454 -1.2148 -1.5928
  556MOL0     H76683   7.229   2.555   5.303  0.2211 -2.6623 -1.6601
  556MOL0     H76684   7.533   2.618   5.280  0.8632  1.9444  0.3954
  556MOL0     H76685   7.417   2.697   5.392  2.7741  1.7157 -2.0226
  556MOL0     H76686   7.470   2.287   5.545  0.0590 -0.9168  0.6832
  556MOL0     H76687   7.510   2.229   5.882  0.4083 -0.3666  0.3385
  556MOL0     H76688   7.662   2.194   5.825 -0.1463  0.6910  0.3596
  556MOL0     H76689   7.520   2.137   5.733  0.2906 -1.7977  2.7879
  556MOL0     H76690   7.967   2.446   5.985  0.6105 -1.2296  1.1194
  556MOL0     H76691   8.088   2.404   6.188 -0.4451 -0.4683  0.9452
  556MOL0     H76692   7.965   2.631   6.553  2.1596  0.6141  0.6653
  556MOL0     H76693   7.918   2.459   6.528  0.1969  0.6336 -2.2068
  556MOL0     H76694   8.194   2.551   6.647 -1.1393  1.0419  1.7199
  556MOL0     H76695   8.059   2.534   6.742  1.3101  0.7363  0.3475
  556MOL0     H76696   8.211   2.293   6.628 -1.9403 -2.8921 -1.7637
  556MOL0     H76697   8.035   2.294   6.624 -1.5034  4.6861 -2.6288
  556MOL0     H76698   8.027   2.319   6.858  1.2288 -0.5372  0.1104
  556MOL0     H76699   8.186   2.372   6.879 -0.4473 -1.5599  3.1402
  556MOL0     H76700   8.099   2.101   6.788 -2.4497  2.8347 -0.0954
  556MOL0     H76701   8.276   2.144   6.787  0.3997 -1.5499  1.3478
  556MOL0     H76702   8.110   2.170   7.041  0.4333 -1.7189  5.2711
  556MOL0     H76703   8.286   2.195   7.022  0.1240  0.3613 -2.5372
  556MOL0     H76704   8.331   1.957   6.982  0.4709  1.5662 -0.3009
  556MOL0     H76705   8.160   1.926   6.970  0.0660  1.3186  0.5930
  556MOL0     H76706   8.254   2.074   7.213  1.5081 -0.8231  3.4777
  556MOL0     H76707   8.328   1.911   7.207  1.8706  2.1740 -1.3781
  556MOL0     H76708   7.850   2.702   6.385 -0.2585  0.7444 -0.4576
  556MOL0     H76709   7.716   2.729   6.202  0.7516  1.8576 -3.3140
  556MOL0     H76710   7.678   2.690   5.756 -2.0619  2.0252 -0.6834
  556MOL0     H76711   7.588   2.702   5.520  1.5011 -0.5562 -1.3526
  556MOL0     H76712   8.619   2.746   5.420  1.4402 -1.0759 -1.2164
  556MOL0     H76713   8.792   2.836   5.592  0.5736  0.3552  0.6932
  556MOL0     H76714   8.999   2.878   5.843 -2.1893 -1.1823 -0.1754
  556MOL0     H76715   9.180   3.021   5.970 -2.1389  0.8752  0.9409
  556MOL0     H76716   9.438   2.950   5.970  0.6103 -1.0793 -0.6688
  556MOL0     H76717   9.537   2.938   6.119 -1.2240  3.2140  1.2161
  556MOL0     H76718   9.389   2.710   5.964  0.5792 -3.6920 -0.3222
  556MOL0     H76719   9.458   2.677   6.122  1.5483  0.3753 -0.8216
  556MOL0     H76720   9.607   2.775   5.890 -1.6998 -1.1224 -1.8928
  556MOL0     H76721   9.673   2.715   6.046 -0.3026 -2.5230  1.3001
  556MOL0     H76722   9.520   2.550   5.848  2.8913 -2.4177 -2.7952
  556MOL0     H76723   9.588   2.483   6.002 -1.3363  0.2264  1.3619
  556MOL0     H76724   9.906   2.459   5.731  0.8027 -2.5490  2.7174
  556MOL0     H76725   9.241   2.697   6.230  0.9502  1.3359  0.3949
  556MOL0     H76726   8.921   2.571   6.202  0.2597 -0.3558  1.8750
  556MOL0     H76727   9.041   2.455   6.129  0.6202 -0.2986  1.0714
  556MOL0     H76728   9.081   2.544   6.271 -4.9810 -2.9132  2.6232
  557MOL0     O76729   4.544  11.192   1.104 -0.6382 -0.0426  0.3020
  557MOL0     C76730   4.474  11.123   1.180 -0.1169  0.4680 -0.2488
  557MOL0     O76731   4.388  11.168   1.272  0.9249  0.6600 -0.1987
  557MOL0     C76732   4.399  11.299   1.299 -0.6764 -1.1353  0.3619
  557MOL0     C76733   4.528  11.353   1.344 -0.1388  0.4442 -0.0074
  557MOL0     C76734   4.532  11.488   1.374  0.2159 -0.7443 -0.4550
  557MOL0     C76735   4.427  11.576   1.348 -1.1135  1.0255  0.7651
  557MOL0     O76736   4.433  11.712   1.358  0.7520 -0.1238  0.3094
  557MOL0     C76737   4.520  11.770   1.449  0.4117  0.5669 -0.8955
  557MOL0     C76738   4.502  11.925   1.448 -0.4649  0.6764  1.2962
  557MOL0     C76739   4.548  11.996   1.323 -0.5381  0.2291  0.0798
  557MOL0     C76740   4.504  12.145   1.330  1.0484  0.0874 -0.2634
  557MOL0     C76741   4.571  12.233   1.221 -0.3652 -0.4105  0.6240
  557MOL0     C76742   4.473  12.338   1.169 -0.9797  0.1539  0.2166
  557MOL0     C76743   4.532  12.381   1.027  1.0732 -0.9791 -1.8198
  557MOL0     C76744   4.445  12.482   0.952 -1.0088 -0.7269 -0.1574
  557MOL0     N76745   4.310  12.439   0.911 -0.2169  0.7204 -0.0215
  557MOL0     C76746   4.271  12.409   0.781 -0.3367  1.0895 -0.4380
  557MOL0     C76747   4.144  12.403   0.786 -0.0944 -0.0901  0.7367
  557MOL0     C76748   4.048  12.373   0.675 -0.5744 -0.1129 -0.6601
  557MOL0     C76749   4.020  12.231   0.645 -0.3014  0.3843 -0.0604
  557MOL0     C76750   3.905  12.173   0.730 -1.1451 -0.4830  0.0128
  557MOL0     C76751   3.859  12.046   0.673 -0.6866  0.3336  0.7130
  557MOL0     O76752   3.955  11.946   0.640 -1.1050 -0.0605 -0.3241
  557MOL0     C76753   3.975  11.840   0.720  0.8453  0.1580 -0.2873
  557MOL0     C76754   4.028  11.859   0.843  0.4302 -0.5743 -0.0667
  557MOL0     C76755   4.030  11.754   0.932 -0.0670  0.5480  0.3028
  557MOL0     C76756   4.083  11.788   1.065 -0.4205 -0.6967  0.1532
  557MOL0     C76757   3.994  11.623   0.895  0.5235  1.4607  0.3493
  557MOL0     C76758   3.983  11.499   0.984 -0.3320 -0.3051  0.3781
  557MOL0     O76759   3.930  11.386   0.932 -0.1165  0.3549 -1.1761
  557MOL0     C76760   3.931  11.280   1.018  0.0635  0.7545 -0.2134
  557MOL0     C76761   4.032  11.187   1.024 -0.4591  0.4429 -0.1571
  557MOL0     C76762   4.037  11.071   1.103 -0.1190  0.5256 -0.6560
  557MOL0     C76763   3.920  11.042   1.183 -0.2473  0.4217 -1.0332
  557MOL0     O76764   3.900  10.927   1.256  0.1621 -0.7714 -0.1860
  557MOL0     C76765   4.003  10.828   1.267 -0.8328 -1.0511  0.8731
  557MOL0     C76766   4.017  10.741   1.140  0.9920  0.7181 -0.8387
  557MOL0     C76767   3.885  10.656   1.101 -0.2413  0.2649  1.2050
  557MOL0     C76768   3.907  10.626   0.951  0.0024 -0.0511 -0.3343
  557MOL0     C76769   3.819  10.521   0.889 -0.5353  0.9181  0.0057
  557MOL0     C76770   3.859  10.377   0.920  0.1658  0.1615  0.2028
  557MOL0     C76771   3.769  10.272   0.852 -0.3798 -0.0634 -0.2166
  557MOL0     C76772   3.832  10.132   0.841  0.0942 -0.0339  0.6241
  557MOL0    Cl76773   3.720  10.003   0.816 -0.6830  0.0409  0.3273
  557MOL0     C76774   3.818  11.135   1.179 -0.6535  0.1844 -0.6783
  557MOL0     C76775   3.823  11.248   1.102 -0.2331 -0.1349 -1.0923
  557MOL0     O76776   4.030  11.514   1.095 -0.2359  0.0888 -0.7090
  557MOL0     C76777   3.946  11.605   0.762 -0.1735 -0.4346  0.4073
  557MOL0     C76778   3.933  11.708   0.675 -1.0648 -0.2351 -0.5234
  557MOL0     N76779   4.099  12.440   0.913  0.2400  0.6692 -0.4486
  557MOL0     N76780   4.203  12.449   0.989 -0.4934 -0.0521  0.3532
  557MOL0     C76781   4.308  11.521   1.295  0.1720 -0.5740 -0.5187
  557MOL0     C76782   4.297  11.389   1.264 -0.0939 -0.6854 -0.4229
  557MOL0     C76783   4.472  10.967   1.171 -0.3352  1.3046  0.1596
  557MOL0     C76784   4.400  10.896   1.263 -0.2256 -0.2963  0.3785
  557MOL0     C76785   4.395  10.757   1.263 -0.3852  0.4747 -0.4738
  557MOL0     C76786   4.461  10.680   1.174  0.5493 -0.7217  0.4573
  557MOL0     O76787   4.458  10.545   1.175 -0.1157  0.8533  0.0582
  557MOL0     C76788   4.418  10.490   1.047 -0.3269 -0.0110 -0.3920
  557MOL0     C76789   4.333  10.366   1.075  0.1325 -0.2878  0.7832
  557MOL0     C76790   4.280  10.321   0.933 -0.4970 -1.0004 -1.3943
  557MOL0     C76791   4.198  10.194   0.934  0.9717  0.5502 -0.6980
  557MOL0     C76792   4.175  10.155   0.791  0.4720  1.0342 -0.5719
  557MOL0     C76793   4.188  10.127   0.675 -0.6503 -0.3267  0.0826
  557MOL0     C76794   4.537  10.749   1.077  0.2468  0.1333  0.1620
  557MOL0     C76795   4.551  10.889   1.080 -0.5489  1.4691  0.0761
  557MOL0     C76796   4.656  10.946   0.986  0.7469  0.1608 -0.7187
  557MOL0     H76797   4.604  11.279   1.369 -1.2404  0.0662  2.5465
  557MOL0     H76798   4.620  11.518   1.430 -0.4168 -0.0578  0.1914
  557MOL0     H76799   4.623  11.736   1.441 -0.2490 -1.7008 -0.3772
  557MOL0     H76800   4.481  11.745   1.548  0.1444  1.7315 -0.6870
  557MOL0     H76801   4.394  11.940   1.449 -0.5977  0.4674 -1.3025
  557MOL0     H76802   4.550  11.968   1.536 -1.7464  3.0008  0.9279
  557MOL0     H76803   4.657  11.983   1.324 -0.7172 -1.4407  0.6933
  557MOL0     H76804   4.500  11.957   1.233  3.4934 -0.7443 -1.8960
  557MOL0     H76805   4.395  12.146   1.319  1.2773  2.3413 -4.1491
  557MOL0     H76806   4.543  12.181   1.426  3.4586  0.9396 -1.4784
  557MOL0     H76807   4.618  12.168   1.147  3.7048  2.3326  0.5086
  557MOL0     H76808   4.651  12.294   1.265 -1.0817  1.9223 -1.1669
  557MOL0     H76809   4.376  12.292   1.145 -0.2952 -1.8045  1.0348
  557MOL0     H76810   4.465  12.416   1.245 -0.9672  0.4299 -0.0598
  557MOL0     H76811   4.531  12.288   0.970 -1.2117 -1.5448 -0.9674
  557MOL0     H76812   4.634  12.420   1.034  0.4787  1.0195 -3.4391
  557MOL0     H76813   4.446  12.565   1.023  3.0438  0.7131 -1.5959
  557MOL0     H76814   4.501  12.517   0.864 -2.4186 -1.1671 -1.2841
  557MOL0     H76815   4.343  12.392   0.702 -1.8081 -2.8112 -1.1567
  557MOL0     H76816   4.074  12.406   0.574  1.4998 -2.1059 -0.8393
  557MOL0     H76817   3.960  12.433   0.698  2.3763  3.9879  1.0459
  557MOL0     H76818   3.999  12.213   0.539 -3.5610 -1.3958  0.7701
  557MOL0     H76819   4.114  12.183   0.676 -0.3590  1.1385  1.3481
  557MOL0     H76820   3.944  12.162   0.832  1.5680  0.3200 -0.8441
  557MOL0     H76821   3.816  12.237   0.732 -0.2921  0.7485 -0.1502
  557MOL0     H76822   3.782  12.006   0.739 -2.1903 -1.1299 -1.7650
  557MOL0     H76823   3.826  12.064   0.570  2.4868  0.0485 -0.4818
  557MOL0     H76824   4.069  11.957   0.863 -2.8492  0.4684  2.3684
  557MOL0     H76825   4.042  11.889   1.075 -3.1325 -1.8885  2.6506
  557MOL0     H76826   4.192  11.797   1.070 -0.4869  0.3516 -0.0575
  557MOL0     H76827   4.044  11.736   1.154  1.3095  0.5045  1.6977
  557MOL0     H76828   4.112  11.211   0.954 -0.5220  1.0998 -0.0065
  557MOL0     H76829   4.126  11.009   1.106 -0.5518 -0.1330 -1.2141
  557MOL0     H76830   4.099  10.872   1.296 -0.0392 -0.4365 -2.3025
  557MOL0     H76831   3.988  10.754   1.347  1.6846 -1.7605  0.7863
  557MOL0     H76832   4.061  10.792   1.054  1.9803 -1.5186 -1.7423
  557MOL0     H76833   4.086  10.664   1.176 -0.8188  0.1029  1.6607
  557MOL0     H76834   3.795  10.717   1.111 -0.1614  0.3066  1.6765
  557MOL0     H76835   3.879  10.560   1.152  2.2400 -1.5646 -1.5757
  557MOL0     H76836   4.010  10.591   0.937  0.9307  1.3598  2.2245
  557MOL0     H76837   3.892  10.717   0.893 -2.6405 -1.9223 -2.8450
  557MOL0     H76838   3.721  10.539   0.935 -1.5349  0.8164 -1.9661
  557MOL0     H76839   3.822  10.542   0.782  1.5583  1.7683  0.1842
  557MOL0     H76840   3.875  10.371   1.028  0.2551  0.5259  0.2158
  557MOL0     H76841   3.964  10.359   0.895  0.5029 -4.4602  3.6336
  557MOL0     H76842   3.750  10.298   0.747  0.1614  0.0083 -0.2987
  557MOL0     H76843   3.674  10.254   0.903  0.9471 -1.3261  1.9360
  557MOL0     H76844   3.882  10.115   0.937  2.2972  0.4701 -0.3741
  557MOL0     H76845   3.909  10.145   0.765 -0.5528  4.1699  0.4854
  557MOL0     H76846   3.730  11.112   1.239 -1.0245  4.0226  0.4827
  557MOL0     H76847   3.736  11.312   1.090 -1.3095 -1.7672 -2.3894
  557MOL0     H76848   3.914  11.506   0.733 -1.6678 -0.6288  2.4581
  557MOL0     H76849   3.896  11.697   0.574 -0.5796 -0.4505 -0.6821
  557MOL0     H76850   4.218  11.583   1.291  0.2452 -0.3550  0.7137
  557MOL0     H76851   4.201  11.352   1.229 -0.3977  1.1866 -1.6811
  557MOL0     H76852   4.346  10.941   1.345  0.3811 -1.1736  1.2911
  557MOL0     H76853   4.336  10.706   1.338  1.1113  0.1525  0.5281
  557MOL0     H76854   4.371  10.565   0.983  1.4338  1.8573  0.3649
  557MOL0     H76855   4.509  10.466   0.991  1.1955  1.6377  1.2438
  557MOL0     H76856   4.250  10.395   1.139  0.8593  0.2554  1.4859
  557MOL0     H76857   4.379  10.273   1.112  1.8174 -0.5002 -1.5804
  557MOL0     H76858   4.208  10.403   0.921 -1.0089 -0.1269  4.4353
  557MOL0     H76859   4.357  10.323   0.856  0.7122 -0.3989 -0.2130
  557MOL0     H76860   4.099  10.207   0.978  0.4280  0.1273 -1.7496
  557MOL0     H76861   4.260  10.113   0.975  0.4120 -0.0998 -1.1206
  557MOL0     H76862   4.212  10.110   0.572 -2.0868  1.9379 -0.6888
  557MOL0     H76863   4.606  10.700   1.010 -1.0097 -1.4864 -0.0102
  557MOL0     H76864   4.695  10.871   0.917 -2.1073 -1.1086 -1.1038
  557MOL0     H76865   4.600  11.021   0.928  1.9303  0.9291 -0.8970
  557MOL0     H76866   4.733  10.979   1.056 -0.4816 -1.2649  1.4260
  558MOL0     O76867   7.493   8.103   6.278  0.2353 -0.1185 -0.0790
  558MOL0     C76868   7.516   8.218   6.324 -0.1246  0.0057  0.2510
  558MOL0     O76869   7.631   8.275   6.347 -0.6295 -0.0902 -0.3734
  558MOL0     C76870   7.750   8.213   6.309 -0.0810  0.0771  1.1140
  558MOL0     C76871   7.796   8.099   6.371 -0.6419  0.1453  0.6329
  558MOL0     C76872   7.910   8.044   6.312  0.0811  0.5451  0.4766
  558MOL0     C76873   7.981   8.105   6.204  1.0673 -0.0998 -0.2582
  558MOL0     O76874   8.098   8.044   6.169 -0.2603 -0.3591 -0.3266
  558MOL0     C76875   8.122   8.006   6.033  0.4453 -0.2202  0.3539
  558MOL0     C76876   8.270   7.951   6.018 -0.2860 -0.0561  0.2263
  558MOL0     C76877   8.372   8.059   6.018 -0.5829 -0.4383 -0.0280
  558MOL0     C76878   8.363   8.138   5.882  0.2286 -0.5664 -0.0547
  558MOL0     C76879   8.501   8.172   5.831 -0.4056  0.3891 -0.5648
  558MOL0     C76880   8.478   8.279   5.718 -0.1837 -0.6416  0.4143
  558MOL0     C76881   8.593   8.381   5.710  0.5070 -0.5593 -0.4082
  558MOL0     C76882   8.735   8.316   5.694 -0.4638  0.2723  0.1985
  558MOL0     N76883   8.741   8.261   5.559  0.7313  0.6145 -0.2684
  558MOL0     C76884   8.722   8.128   5.527 -0.3722 -0.2396 -0.2918
  558MOL0     C76885   8.761   8.130   5.397  0.2854  0.1119 -0.3485
  558MOL0     C76886   8.773   8.004   5.310  0.6901  0.7124 -1.1414
  558MOL0     C76887   8.896   8.007   5.225 -0.5794 -0.5651  0.4319
  558MOL0     C76888   8.869   8.063   5.082  0.2312  0.6114 -0.3191
  558MOL0     C76889   8.995   8.072   4.998  0.1364 -0.8076 -0.0234
  558MOL0     O76890   9.036   7.935   4.966 -0.1478 -0.7052 -0.1532
  558MOL0     C76891   9.163   7.907   4.926 -1.4372 -0.0214 -1.1703
  558MOL0     C76892   9.260   8.001   4.910  0.8876 -0.0693 -0.9028
  558MOL0     C76893   9.394   7.982   4.875 -0.3397  0.0450 -0.7124
  558MOL0     C76894   9.491   8.100   4.870 -0.6019  0.3799  0.3781
  558MOL0     C76895   9.437   7.845   4.867 -0.5466  0.3618  0.8045
  558MOL0     C76896   9.566   7.808   4.812 -0.4952  0.1490  0.0690
  558MOL0     O76897   9.594   7.673   4.833  0.3426  0.4823 -0.7263
  558MOL0     C76898   9.730   7.643   4.828 -0.3974 -0.2280  0.5620
  558MOL0     C76899   9.812   7.670   4.942  0.1593 -0.0239  0.1549
  558MOL0     C76900   9.946   7.662   4.936 -0.2560  0.8558  0.6371
  558MOL0     C76901  10.017   7.625   4.818  0.8047  0.3753  0.0804
  558MOL0     O76902  10.152   7.630   4.814 -0.2114  0.6959 -0.2700
  558MOL0     C76903  10.224   7.693   4.703  1.0711  0.3313  0.2389
  558MOL0     C76904  10.309   7.588   4.638 -1.5286  1.1229 -0.3917
  558MOL0     C76905  10.396   7.636   4.526  0.9397  0.2044  0.1449
  558MOL0     C76906  10.327   7.636   4.381 -0.6717 -1.3494 -0.1608
  558MOL0     C76907  10.249   7.763   4.343 -1.1038 -0.0674  0.3107
  558MOL0     C76908  10.198   7.744   4.203 -1.3285  0.5339 -0.1168
  558MOL0     C76909  10.151   7.873   4.142  0.3299 -0.5887 -0.3676
  558MOL0     C76910  10.135   7.867   3.997  0.2859 -0.4632 -0.1972
  558MOL0    Cl76911  10.043   8.024   3.944  0.5217  0.2254  0.2112
  558MOL0     C76912   9.930   7.595   4.708 -0.3815 -0.3910 -0.0287
  558MOL0     C76913   9.795   7.595   4.717  0.4737  0.7742  0.3339
  558MOL0     O76914   9.638   7.886   4.747  0.5134 -1.1242 -0.3790
  558MOL0     C76915   9.339   7.747   4.886  0.2494  0.0939 -0.0032
  558MOL0     C76916   9.208   7.781   4.917 -0.0542 -0.0428  0.4560
  558MOL0     N76917   8.796   8.252   5.353 -0.0316 -0.2973 -0.4201
  558MOL0     N76918   8.788   8.332   5.454  0.0407 -0.2627 -0.3365
  558MOL0     C76919   7.930   8.225   6.145  0.3918  0.4385 -0.5423
  558MOL0     C76920   7.820   8.284   6.203 -0.2151  1.0714 -0.9817
  558MOL0     C76921   7.406   8.306   6.371  0.7869  0.3839 -0.1089
  558MOL0     C76922   7.426   8.422   6.446 -0.0858 -0.0172  0.5296
  558MOL0     C76923   7.330   8.503   6.490 -0.5308 -0.9457  0.0675
  558MOL0     C76924   7.197   8.478   6.470 -0.0226  0.7044  0.3906
  558MOL0     O76925   7.091   8.554   6.508  0.2081 -0.8718 -0.9859
  558MOL0     C76926   7.083   8.572   6.652  0.2966  0.8685  0.1655
  558MOL0     C76927   7.007   8.445   6.712  0.3443 -0.1140 -0.5289
  558MOL0     C76928   6.864   8.453   6.670  0.3219  0.4093  0.7806
  558MOL0     C76929   6.780   8.336   6.707  0.1246  0.1170  1.0990
  558MOL0     C76930   6.788   8.307   6.854  0.1329 -1.1648 -0.1681
  558MOL0     C76931   6.795   8.308   6.977  0.4717  0.7320 -0.6658
  558MOL0     C76932   7.158   8.360   6.398  0.0588 -0.6674  0.1179
  558MOL0     C76933   7.264   8.277   6.352 -0.5509  0.1806  0.6443
  558MOL0     C76934   7.216   8.148   6.285  0.0112  0.3747 -0.3097
  558MOL0     H76935   7.739   8.052   6.450  1.2636  1.2947  2.8006
  558MOL0     H76936   7.960   7.957   6.353 -0.8476  0.4448  1.4501
  558MOL0     H76937   8.103   8.089   5.965  1.2575  0.4079  0.8835
  558MOL0     H76938   8.046   7.932   6.006 -0.5843  0.3515  1.5964
  558MOL0     H76939   8.295   7.882   6.100  0.5443 -0.4603 -0.3502
  558MOL0     H76940   8.283   7.890   5.928  0.8135 -2.1000  1.6797
  558MOL0     H76941   8.363   8.133   6.097 -3.3958  1.1056 -1.6251
  558MOL0     H76942   8.469   8.009   6.028  0.5283  1.9088  1.7044
  558MOL0     H76943   8.304   8.070   5.820 -0.5088 -1.8408  1.9335
  558MOL0     H76944   8.305   8.228   5.905  2.3877  0.8904 -0.0634
  558MOL0     H76945   8.562   8.090   5.793  0.9930  1.8577 -1.6340
  558MOL0     H76946   8.559   8.209   5.916  0.0889  0.9318 -1.1286
  558MOL0     H76947   8.466   8.227   5.623  0.7777 -1.0404  0.5008
  558MOL0     H76948   8.379   8.327   5.724 -0.7219 -0.7823 -3.9394
  558MOL0     H76949   8.595   8.441   5.801  5.0571  1.0425 -1.3232
  558MOL0     H76950   8.578   8.452   5.627 -0.6717 -1.2470 -0.8120
  558MOL0     H76951   8.811   8.393   5.714  1.9007 -2.3080  1.8825
  558MOL0     H76952   8.761   8.246   5.773  4.2917  1.6696  0.2071
  558MOL0     H76953   8.686   8.045   5.586 -0.1989  0.4991  0.8971
  558MOL0     H76954   8.681   7.988   5.252 -2.2733  0.8484  3.1104
  558MOL0     H76955   8.785   7.916   5.373 -4.1815  0.3041 -0.4497
  558MOL0     H76956   8.978   8.063   5.269  0.2200 -1.4296  0.0675
  558MOL0     H76957   8.940   7.911   5.197  0.5075  1.1228 -4.7038
  558MOL0     H76958   8.795   8.001   5.030  0.2019  1.0471 -0.8028
  558MOL0     H76959   8.819   8.160   5.095  0.5821  0.5940  1.3631
  558MOL0     H76960   8.978   8.132   4.908  0.8689 -0.1506  0.2649
  558MOL0     H76961   9.078   8.122   5.050  2.2361 -1.9270 -2.0701
  558MOL0     H76962   9.229   8.104   4.929 -1.4937 -0.8028 -0.4801
  558MOL0     H76963   9.573   8.110   4.941  0.0944  5.5310 -0.7118
  558MOL0     H76964   9.431   8.189   4.895 -0.9189  0.3937 -0.4146
  558MOL0     H76965   9.529   8.106   4.768  0.3384  1.3743  0.7605
  558MOL0     H76966   9.764   7.673   5.039 -0.9758 -2.6797 -0.2186
  558MOL0     H76967  10.004   7.675   5.027  0.7373 -0.0391  0.1531
  558MOL0     H76968  10.151   7.719   4.625  0.6852 -0.9681  0.1543
  558MOL0     H76969  10.277   7.785   4.732  1.9526 -0.1420  0.1714
  558MOL0     H76970  10.365   7.531   4.712 -0.4642 -0.2880 -2.1822
  558MOL0     H76971  10.235   7.516   4.600 -0.9760 -2.6033  4.5936
  558MOL0     H76972  10.488   7.577   4.532 -0.0982 -1.4589  0.2787
  558MOL0     H76973  10.424   7.740   4.545  0.0608  0.6442 -0.8943
  558MOL0     H76974  10.257   7.554   4.366 -2.1866 -0.0173 -0.6414
  558MOL0     H76975  10.414   7.628   4.316 -0.2368 -1.3908  0.4142
  558MOL0     H76976  10.164   7.781   4.409 -0.0574 -1.5854  2.1646
  558MOL0     H76977  10.306   7.856   4.349  1.0315 -1.2571 -0.3044
  558MOL0     H76978  10.112   7.675   4.209 -1.9936  1.3209 -0.3842
  558MOL0     H76979  10.285   7.714   4.145 -1.0818 -2.8876  1.7351
  558MOL0     H76980  10.204   7.968   4.158 -3.0720  1.3666  0.5050
  558MOL0     H76981  10.051   7.889   4.184 -0.7606  2.6011 -3.6303
  558MOL0     H76982  10.082   7.780   3.956 -0.6002  0.7004 -1.6374
  558MOL0     H76983  10.239   7.869   3.966  0.2843 -0.5002 -0.2055
  558MOL0     H76984   9.983   7.575   4.615 -0.0147  1.6897 -0.3300
  558MOL0     H76985   9.741   7.541   4.639  0.5118  1.5061 -0.2118
  558MOL0     H76986   9.354   7.644   4.855  0.2382  0.1509 -0.1994
  558MOL0     H76987   9.148   7.692   4.933 -0.7908  0.2052 -0.8103
  558MOL0     H76988   7.975   8.287   6.068 -0.3074 -0.5596 -1.7805
  558MOL0     H76989   7.780   8.376   6.161 -3.3116 -1.1376 -3.3052
  558MOL0     H76990   7.527   8.456   6.468 -0.2474 -1.7316  4.8136
  558MOL0     H76991   7.362   8.598   6.532  0.6815 -1.8813  1.3407
  558MOL0     H76992   7.186   8.576   6.689  0.4377 -0.7241  0.0019
  558MOL0     H76993   7.028   8.659   6.689  2.7954  2.6064  0.0189
  558MOL0     H76994   7.015   8.453   6.820  0.1308  2.1562 -0.6435
  558MOL0     H76995   7.060   8.360   6.667 -1.4957  0.1852 -3.5491
  558MOL0     H76996   6.820   8.537   6.723  1.6346  0.6715  1.5111
  558MOL0     H76997   6.857   8.462   6.561  0.3941 -0.1452  0.7225
  558MOL0     H76998   6.814   8.246   6.655 -0.0973  0.7871 -0.2476
  558MOL0     H76999   6.672   8.351   6.693 -0.6918  0.8428  6.1265
  558MOL0     H77000   6.807   8.302   7.083 -2.9561  0.4066 -0.1839
  558MOL0     H77001   7.053   8.337   6.384  0.6637 -3.3534 -0.5046
  558MOL0     H77002   7.245   8.066   6.351 -3.7291 -0.1415  0.9752
  558MOL0     H77003   7.106   8.151   6.283 -0.1641  3.3876 -6.0728
  558MOL0     H77004   7.236   8.132   6.179 -0.4574  1.8263 -0.6454
  559MOL0     O77005   3.627   8.210   0.879  0.6245  0.0840  0.7142
  559MOL0     C77006   3.620   8.151   0.985  0.6726 -0.3670 -0.2369
  559MOL0     O77007   3.561   8.209   1.098  0.0267  0.8457  0.2615
  559MOL0     C77008   3.496   8.326   1.084 -0.4115  0.9245  0.5599
  559MOL0     C77009   3.366   8.315   1.055  0.4589 -1.2871  0.0701
  559MOL0     C77010   3.288   8.428   1.040 -0.1837 -0.6706 -0.0173
  559MOL0     C77011   3.354   8.557   1.039  0.7467  0.0462  0.8074
  559MOL0     O77012   3.264   8.654   1.013 -0.1881 -0.2132  0.3593
  559MOL0     C77013   3.305   8.787   1.054  0.4239 -0.2088  0.3711
  559MOL0     C77014   3.179   8.881   1.033 -0.9091 -0.3973  1.0485
  559MOL0     C77015   3.051   8.816   1.096 -0.0438 -0.0222  0.2727
  559MOL0     C77016   2.929   8.905   1.109 -0.2825 -0.9867  0.2804
  559MOL0     C77017   2.812   8.835   1.188  0.7495 -0.3768 -0.0166
  559MOL0     C77018   2.690   8.936   1.211 -0.5365 -0.3162  0.5469
  559MOL0     C77019   2.569   8.858   1.256  0.4522 -0.3318  0.9388
  559MOL0     C77020   2.442   8.939   1.256  0.4079  0.4218 -1.0243
  559MOL0     N77021   2.336   8.852   1.307  0.1442  0.4530 -0.9438
  559MOL0     C77022   2.311   8.829   1.445  0.3541 -0.2929 -0.4644
  559MOL0     C77023   2.202   8.754   1.463  0.9352  0.6347 -0.7883
  559MOL0     C77024   2.150   8.692   1.597  0.8533  0.9335  0.2243
  559MOL0     C77025   2.134   8.539   1.593  0.0852  0.1168  0.1787
  559MOL0     C77026   2.049   8.476   1.701 -0.3269  0.3424 -0.0531
  559MOL0     C77027   2.125   8.453   1.836  0.1682  0.0206  0.2196
  559MOL0     O77028   2.067   8.353   1.921  0.5349  0.2353  0.5737
  559MOL0     C77029   2.032   8.398   2.039  0.3456  0.3578 -0.2595
  559MOL0     C77030   2.092   8.358   2.158 -0.1890 -0.2786  0.5432
  559MOL0     C77031   2.034   8.383   2.280  0.1891  0.2018  0.7561
  559MOL0     C77032   2.103   8.330   2.398  0.3915  0.9271  0.7937
  559MOL0     C77033   1.919   8.465   2.293 -0.5996  0.9888 -0.6863
  559MOL0     C77034   1.861   8.499   2.424 -0.1740  0.3435  0.6713
  559MOL0     O77035   1.858   8.402   2.515 -0.2607  0.4483 -0.3674
  559MOL0     C77036   1.850   8.435   2.651  0.5678 -0.5568  0.5851
  559MOL0     C77037   1.759   8.522   2.707 -0.9294 -0.4243  0.5879
  559MOL0     C77038   1.760   8.560   2.846 -0.0019  0.0618  1.2681
  559MOL0     C77039   1.840   8.504   2.933 -0.2838 -0.0518 -0.0683
  559MOL0     O77040   1.854   8.546   3.066 -0.1330 -0.1184  0.1817
  559MOL0     C77041   1.856   8.445   3.164 -0.6729 -0.6194 -0.0166
  559MOL0     C77042   1.777   8.477   3.298  0.0850 -0.0364  0.6169
  559MOL0     C77043   1.649   8.569   3.268 -0.3386  0.1497 -0.1511
  559MOL0     C77044   1.532   8.567   3.368  0.2015 -0.0603 -0.2851
  559MOL0     C77045   1.575   8.625   3.507  0.1133  0.1738  0.4938
  559MOL0     C77046   1.605   8.770   3.497 -0.3065 -0.3062 -1.1684
  559MOL0     C77047   1.656   8.823   3.642  0.4244  0.5927 -0.1342
  559MOL0     C77048   1.555   8.856   3.748  0.4164  0.5562 -0.4358
  559MOL0    Cl77049   1.499   9.027   3.752  0.1623 -0.3310 -0.3290
  559MOL0     C77050   1.934   8.403   2.884  0.8063  0.0548 -0.3549
  559MOL0     C77051   1.928   8.373   2.748  0.1487 -0.0186  1.3154
  559MOL0     O77052   1.828   8.618   2.444 -0.5964 -0.1595  0.4908
  559MOL0     C77053   1.863   8.510   2.172 -0.3431  0.0537  0.0614
  559MOL0     C77054   1.917   8.478   2.050 -1.1594  0.4626  0.9106
  559MOL0     N77055   2.145   8.736   1.339  0.2351  0.1779  1.1931
  559MOL0     N77056   2.225   8.793   1.251 -1.2472 -0.7098  0.4891
  559MOL0     C77057   3.489   8.569   1.056  0.6377  0.6500 -0.0742
  559MOL0     C77058   3.564   8.449   1.087 -0.0799 -0.5760 -0.0565
  559MOL0     C77059   3.676   8.017   0.997 -0.0829 -0.5218 -0.4757
  559MOL0     C77060   3.623   7.929   1.091  1.0556 -0.3850  0.2359
  559MOL0     C77061   3.674   7.803   1.105 -0.3396  0.4198 -0.3337
  559MOL0     C77062   3.776   7.745   1.035 -0.7114  0.1147  0.2726
  559MOL0     O77063   3.812   7.628   1.088 -0.1030 -0.3145 -0.9942
  559MOL0     C77064   3.915   7.560   1.003  0.5996  0.5767 -0.4552
  559MOL0     C77065   3.940   7.433   1.085  1.0645 -0.5398  0.4447
  559MOL0     C77066   4.063   7.352   1.041  1.3105  0.2585  0.2701
  559MOL0     C77067   4.029   7.250   0.924  0.0415 -0.1129 -1.3157
  559MOL0     C77068   4.049   7.307   0.790  0.5736  0.2014  0.1172
  559MOL0     C77069   4.051   7.355   0.672 -0.4632 -0.0889 -0.1555
  559MOL0     C77070   3.845   7.843   0.953  0.0170  0.7862 -0.5664
  559MOL0     C77071   3.791   7.973   0.929 -0.4159 -0.3753 -0.3537
  559MOL0     C77072   3.871   8.061   0.836  0.3086  0.5539  0.4382
  559MOL0     H77073   3.296   8.233   1.069 -1.0726 -0.1116 -0.4360
  559MOL0     H77074   3.181   8.411   1.039  0.1143 -2.7592 -1.2186
  559MOL0     H77075   3.385   8.822   0.988  0.5517 -2.3780 -0.7080
  559MOL0     H77076   3.344   8.795   1.156  0.5116 -0.4322  0.3560
  559MOL0     H77077   3.200   8.981   1.072  4.2850 -1.6322  2.1171
  559MOL0     H77078   3.163   8.897   0.926  0.4989 -1.5012  0.6406
  559MOL0     H77079   3.029   8.722   1.044 -0.0472 -0.9461  1.8728
  559MOL0     H77080   3.075   8.782   1.198  0.6096 -0.1067  0.0925
  559MOL0     H77081   2.961   8.994   1.165  1.0778 -1.2696 -0.0140
  559MOL0     H77082   2.892   8.927   1.008  1.5454 -0.3815 -0.2901
  559MOL0     H77083   2.860   8.812   1.284  1.1969 -1.6816 -0.5378
  559MOL0     H77084   2.792   8.734   1.153  0.2318 -0.8132  1.4571
  559MOL0     H77085   2.718   9.008   1.288  1.1328 -2.3068  1.8992
  559MOL0     H77086   2.665   8.980   1.114  0.0763  0.4384  0.7202
  559MOL0     H77087   2.589   8.820   1.357  0.7894 -0.8327  0.6908
  559MOL0     H77088   2.560   8.766   1.197  2.5238  0.7840 -1.2998
  559MOL0     H77089   2.469   9.012   1.333  0.1257 -1.7298  1.2499
  559MOL0     H77090   2.421   8.984   1.158  3.3295 -0.8518 -2.3535
  559MOL0     H77091   2.359   8.872   1.531 -2.2741  0.4939  0.7211
  559MOL0     H77092   2.047   8.725   1.615 -0.7014 -3.1652 -0.2113
  559MOL0     H77093   2.220   8.712   1.679  1.2606  1.1765 -0.1775
  559MOL0     H77094   2.098   8.506   1.495  3.2739  0.9392 -1.4189
  559MOL0     H77095   2.231   8.488   1.594 -0.0755 -0.1898  0.6183
  559MOL0     H77096   1.957   8.534   1.716 -0.9055 -0.4986 -0.2426
  559MOL0     H77097   2.010   8.380   1.667  1.9747 -0.9279  0.6757
  559MOL0     H77098   2.217   8.404   1.803 -1.1400 -2.7709  0.3582
  559MOL0     H77099   2.147   8.549   1.883  0.1288 -1.4076  3.4037
  559MOL0     H77100   2.181   8.297   2.145  0.8850  1.6628 -1.9313
  559MOL0     H77101   2.100   8.400   2.482 -2.2518 -0.0544  1.6107
  559MOL0     H77102   2.204   8.308   2.362 -0.3442  0.0107 -0.8035
  559MOL0     H77103   2.044   8.245   2.431  0.1438  0.3343 -1.0877
  559MOL0     H77104   1.699   8.583   2.641  0.4542  0.5533  0.1911
  559MOL0     H77105   1.705   8.644   2.887 -1.5621 -0.3527  0.1195
  559MOL0     H77106   1.819   8.347   3.130  0.4939 -1.1708  0.2581
  559MOL0     H77107   1.963   8.437   3.181 -0.2557 -0.0482 -2.0176
  559MOL0     H77108   1.747   8.383   3.347  2.4134 -1.3031 -0.2063
  559MOL0     H77109   1.847   8.520   3.370  0.8328 -3.5463  2.2496
  559MOL0     H77110   1.614   8.547   3.167  0.1303 -3.7233  0.3709
  559MOL0     H77111   1.697   8.667   3.267 -1.5037  0.9152  3.5912
  559MOL0     H77112   1.495   8.463   3.364  0.7756 -0.3722  1.5253
  559MOL0     H77113   1.446   8.625   3.333  0.4270  0.0009 -0.7316
  559MOL0     H77114   1.496   8.599   3.579 -0.5822 -1.1584 -0.6967
  559MOL0     H77115   1.664   8.570   3.539 -1.6313 -2.5051  1.0868
  559MOL0     H77116   1.511   8.815   3.463  0.8567  1.8173 -1.7599
  559MOL0     H77117   1.687   8.799   3.431  1.7268  3.0626  2.3805
  559MOL0     H77118   1.714   8.914   3.623  3.9480 -1.2813  0.7224
  559MOL0     H77119   1.739   8.766   3.684 -1.4527 -1.1754  1.3781
  559MOL0     H77120   1.599   8.821   3.841  0.2659 -1.7257 -1.1731
  559MOL0     H77121   1.467   8.793   3.731 -0.8633  2.1699 -0.1085
  559MOL0     H77122   2.014   8.358   2.941 -1.4417 -2.4724  1.0762
  559MOL0     H77123   2.000   8.297   2.718  1.2052  0.5262  2.3920
  559MOL0     H77124   1.780   8.579   2.157 -0.7077  0.0286  1.7281
  559MOL0     H77125   1.862   8.496   1.957 -1.2691 -0.9177  0.6818
  559MOL0     H77126   3.543   8.663   1.052 -0.3646  1.2291 -0.3124
  559MOL0     H77127   3.672   8.455   1.096 -0.3341  2.0230  3.7253
  559MOL0     H77128   3.540   7.955   1.155  0.6985  0.0898 -0.4105
  559MOL0     H77129   3.631   7.751   1.190 -2.3676  1.1558 -0.8439
  559MOL0     H77130   3.872   7.545   0.903  2.1795 -2.9466 -0.7329
  559MOL0     H77131   4.009   7.615   0.992  1.1417 -0.1320  0.5994
  559MOL0     H77132   3.849   7.373   1.087 -1.1783  2.5498 -0.1862
  559MOL0     H77133   3.960   7.447   1.192  3.7713 -1.2036  0.1197
  559MOL0     H77134   4.145   7.418   1.012  0.6763  0.9545  0.0148
  559MOL0     H77135   4.087   7.290   1.128 -1.4325 -1.2798  0.0734
  559MOL0     H77136   3.924   7.220   0.933 -0.2288  1.3247  1.4582
  559MOL0     H77137   4.091   7.163   0.944 -0.7354 -0.3230  0.4037
  559MOL0     H77138   4.052   7.399   0.574 -1.4676 -1.0513 -0.6225
  559MOL0     H77139   3.936   7.822   0.898 -1.1950  0.1791 -2.4739
  559MOL0     H77140   3.976   8.047   0.862  0.3935  0.4119  0.0302
  559MOL0     H77141   3.851   8.028   0.733  0.9166  1.6519 -0.0573
  559MOL0     H77142   3.854   8.168   0.853  0.8477  0.8163 -0.6071
  560MOL0     O77143  10.269   2.574   3.928 -0.1573 -0.7117  0.4011
  560MOL0     C77144  10.204   2.575   3.824  0.0359 -0.1080 -0.0559
  560MOL0     O77145  10.097   2.650   3.806 -0.0458 -0.2789 -0.6891
  560MOL0     C77146  10.050   2.726   3.910 -0.2860  0.5217 -0.9623
  560MOL0     C77147  10.051   2.868   3.895 -0.0514 -0.0365 -0.6626
  560MOL0     C77148  10.009   2.955   4.001  0.4503  0.6650  0.3813
  560MOL0     C77149   9.959   2.908   4.121 -1.3370  0.7268  0.4937
  560MOL0     O77150   9.920   3.000   4.214  0.0083  0.3155  0.7320
  560MOL0     C77151   9.835   2.950   4.323 -1.0435 -0.0892 -0.8445
  560MOL0     C77152   9.834   3.076   4.402  0.1894  0.1283 -0.1356
  560MOL0     C77153   9.859   3.046   4.545  0.3328  0.3454  0.3809
  560MOL0     C77154   9.857   3.167   4.635  0.2763 -0.4245 -1.3073
  560MOL0     C77155   9.817   3.127   4.772 -0.4125 -1.0915  0.1579
  560MOL0     C77156   9.922   3.036   4.829 -0.1659  1.2827  0.3212
  560MOL0     C77157   9.938   3.051   4.980  0.1015  0.0790 -0.7232
  560MOL0     C77158  10.074   2.981   5.027  0.7720  0.3397  0.3151
  560MOL0     N77159  10.097   3.008   5.164 -0.1171  0.7350 -0.6978
  560MOL0     C77160  10.199   3.081   5.216  0.5667  0.9711  0.6593
  560MOL0     C77161  10.207   3.050   5.350  1.3062  1.1360  0.0506
  560MOL0     C77162  10.299   3.085   5.465  0.1403  0.0721  0.4106
  560MOL0     C77163  10.398   3.198   5.458 -0.0607 -0.9100  0.2565
  560MOL0     C77164  10.492   3.209   5.585  0.2710 -0.4823 -0.0274
  560MOL0     C77165  10.415   3.240   5.714  0.1492 -0.7702 -0.0857
  560MOL0     O77166  10.387   3.381   5.713  0.0365 -0.2210  0.2295
  560MOL0     C77167  10.400   3.448   5.835  1.0786  0.0360 -0.7273
  560MOL0     C77168  10.417   3.590   5.816 -0.2701 -0.8889 -0.0905
  560MOL0     C77169  10.435   3.675   5.928  1.0823  1.0282  0.3751
  560MOL0     C77170  10.420   3.819   5.890  0.3251  0.4194  0.2578
  560MOL0     C77171  10.431   3.630   6.055 -0.0725  0.5043 -0.1744
  560MOL0     C77172  10.413   3.718   6.176 -0.8462  0.3940 -0.6499
  560MOL0     O77173  10.442   3.853   6.177  0.5148  0.3051  0.1097
  560MOL0     C77174  10.412   3.924   6.286  1.2221  0.9356  0.0979
  560MOL0     C77175  10.460   3.897   6.414  0.7321 -0.1740  0.1230
  560MOL0     C77176  10.404   3.982   6.519  0.5294  0.2228 -0.8748
  560MOL0     C77177  10.320   4.084   6.498 -0.0411  0.1018  0.0268
  560MOL0     O77178  10.271   4.167   6.600  0.4137  0.1657  0.8478
  560MOL0     C77179  10.333   4.179   6.730 -0.2080 -0.6925  0.7018
  560MOL0     C77180  10.464   4.265   6.731  0.8001  0.5055  0.5919
  560MOL0     C77181  10.579   4.200   6.647 -0.7824  0.2454 -0.2107
  560MOL0     C77182  10.707   4.297   6.664  0.0404  0.0742 -0.0149
  560MOL0     C77183  10.832   4.253   6.587  0.4660  0.3979  0.1552
  560MOL0     C77184  10.925   4.162   6.675  0.7388  0.2081 -0.1459
  560MOL0     C77185  11.026   4.113   6.579  0.9808  0.7089 -0.9467
  560MOL0     C77186  11.108   3.990   6.641 -0.1841  0.7201  0.1955
  560MOL0    Cl77187  11.149   4.015   6.818  0.0441 -0.0793 -0.7123
  560MOL0     C77188  10.284   4.111   6.367 -0.7189  0.4975  0.6273
  560MOL0     C77189  10.321   4.031   6.260 -0.9544  0.6471  0.9830
  560MOL0     O77190  10.377   3.665   6.278  0.3036 -0.0054 -0.3741
  560MOL0     C77191  10.428   3.489   6.072 -0.1688 -0.6072  0.3798
  560MOL0     C77192  10.401   3.395   5.963 -1.4925 -1.1471  0.4384
  560MOL0     N77193  10.094   2.970   5.371 -0.4260 -0.5371  0.0025
  560MOL0     N77194  10.025   2.945   5.265 -0.2719  0.5900 -0.3733
  560MOL0     C77195   9.971   2.766   4.137  0.1368  0.7853  0.9778
  560MOL0     C77196  10.013   2.673   4.036  0.3479 -0.2421 -0.0099
  560MOL0     C77197  10.246   2.464   3.729  0.1331  1.2867 -0.4122
  560MOL0     C77198  10.286   2.340   3.778 -0.1038  0.9120 -0.2933
  560MOL0     C77199  10.315   2.236   3.686 -0.0553 -0.0180 -0.1833
  560MOL0     C77200  10.296   2.248   3.547  0.0663  0.2428  0.6578
  560MOL0     O77201  10.327   2.135   3.472 -0.2200  0.4765 -0.9626
  560MOL0     C77202  10.435   2.140   3.376 -0.2461 -0.1483 -0.1793
  560MOL0     C77203  10.401   2.181   3.239 -0.1003 -0.0432  1.0177
  560MOL0     C77204  10.529   2.215   3.164 -0.5685 -0.1869  0.3319
  560MOL0     C77205  10.592   2.353   3.189 -0.1837 -0.3779  0.4405
  560MOL0     C77206  10.727   2.362   3.144  0.0121 -0.7100 -0.7026
  560MOL0     C77207  10.847   2.368   3.116 -0.4979  0.4174  0.0218
  560MOL0     C77208  10.254   2.373   3.503 -0.8086  0.1192 -0.2819
  560MOL0     C77209  10.217   2.477   3.593 -0.5543  0.0142 -0.4047
  560MOL0     C77210  10.166   2.608   3.535  0.0941 -0.3653  0.6772
  560MOL0     H77211  10.068   2.913   3.798 -2.6255 -2.8766 -2.6097
  560MOL0     H77212  10.015   3.060   3.976 -2.8553  0.2131 -3.6623
  560MOL0     H77213   9.880   2.871   4.384 -2.3680  0.6705  1.2313
  560MOL0     H77214   9.740   2.907   4.289 -1.5147 -1.6507  2.0752
  560MOL0     H77215   9.912   3.145   4.367  3.0305 -2.6231  0.2646
  560MOL0     H77216   9.734   3.119   4.394 -0.2182 -0.8939 -0.6082
  560MOL0     H77217   9.789   2.966   4.571  2.1140 -0.9466  1.4354
  560MOL0     H77218   9.962   3.009   4.540  0.0636 -0.2416 -2.9032
  560MOL0     H77219   9.959   3.207   4.636  0.6246 -1.2982 -0.9314
  560MOL0     H77220   9.782   3.240   4.603 -1.4875 -2.1238 -1.2323
  560MOL0     H77221   9.721   3.074   4.772  0.4613 -2.7692 -0.9398
  560MOL0     H77222   9.810   3.216   4.835 -1.9747 -0.5806 -0.6820
  560MOL0     H77223   9.903   2.931   4.806  2.7811  1.4527 -4.1488
  560MOL0     H77224  10.020   3.056   4.784  0.7277 -2.4173  0.3005
  560MOL0     H77225   9.859   3.002   5.037 -0.2257  2.1956  0.7744
  560MOL0     H77226   9.947   3.156   5.010  1.4025 -0.2875  0.2943
  560MOL0     H77227  10.080   2.876   4.997 -1.1362  0.8652 -2.2323
  560MOL0     H77228  10.153   3.023   4.963 -2.5133  0.0029 -4.5099
  560MOL0     H77229  10.272   3.143   5.165  0.1724 -0.0333 -1.2360
  560MOL0     H77230  10.369   3.001   5.470 -0.1980 -0.2172  0.2919
  560MOL0     H77231  10.244   3.081   5.559  1.3652  2.9863  1.3859
  560MOL0     H77232  10.451   3.188   5.363 -0.1262 -2.3419  0.3522
  560MOL0     H77233  10.350   3.297   5.454  1.0627 -0.3727 -3.2873
  560MOL0     H77234  10.544   3.113   5.587  1.9861  0.3498 -1.7447
  560MOL0     H77235  10.572   3.281   5.568  1.6536 -1.3383  2.3093
  560MOL0     H77236  10.318   3.190   5.720 -1.8304  2.2622 -2.9809
  560MOL0     H77237  10.472   3.216   5.804 -2.6514  1.9531  2.6962
  560MOL0     H77238  10.416   3.629   5.714  3.0645 -2.2433 -0.7991
  560MOL0     H77239  10.507   3.879   5.920  0.8016  0.9085 -1.9682
  560MOL0     H77240  10.333   3.854   5.946 -0.4331  0.9766 -1.2142
  560MOL0     H77241  10.389   3.850   5.791  0.5933 -1.6407 -0.5286
  560MOL0     H77242  10.526   3.811   6.422  1.8845  0.4386 -2.0014
  560MOL0     H77243  10.419   3.957   6.624 -0.2988  0.0213 -0.7979
  560MOL0     H77244  10.270   4.231   6.803  0.1651 -0.9797  1.2324
  560MOL0     H77245  10.360   4.083   6.774 -0.5057 -1.0302  0.1550
  560MOL0     H77246  10.441   4.365   6.693 -1.9316 -0.5376 -0.8330
  560MOL0     H77247  10.486   4.271   6.838 -3.8622  0.7778  1.7769
  560MOL0     H77248  10.562   4.198   6.539  1.2334 -1.7167 -0.5677
  560MOL0     H77249  10.600   4.100   6.688  0.0686  1.2675  2.0395
  560MOL0     H77250  10.725   4.304   6.771  1.1125 -0.9306 -0.1056
  560MOL0     H77251  10.670   4.392   6.622  0.6987 -0.6958 -2.5411
  560MOL0     H77252  10.802   4.200   6.496  1.7663  1.2320 -0.8000
  560MOL0     H77253  10.891   4.341   6.559  0.0394  0.3674 -0.9105
  560MOL0     H77254  10.860   4.089   6.723  1.2560 -0.4187 -0.3738
  560MOL0     H77255  10.971   4.225   6.751  0.6701  1.9129 -1.4344
  560MOL0     H77256  11.084   4.200   6.548  1.2629  0.4456 -1.1666
  560MOL0     H77257  10.984   4.083   6.482  0.4922  0.8924 -0.7936
  560MOL0     H77258  11.200   3.985   6.582 -1.0099  0.9029 -1.1458
  560MOL0     H77259  11.055   3.894   6.633  0.9455  0.1229 -0.3560
  560MOL0     H77260  10.217   4.195   6.346 -1.2257  0.6704  2.7082
  560MOL0     H77261  10.290   4.039   6.156  1.4754  0.9892  0.2154
  560MOL0     H77262  10.424   3.452   6.174  2.6635  0.3197  0.9446
  560MOL0     H77263  10.392   3.291   5.994 -3.8771  0.1484  5.1625
  560MOL0     H77264   9.946   2.713   4.228 -2.1749 -2.3174 -1.2491
  560MOL0     H77265  10.009   2.566   4.054  0.6171  0.3175  4.7767
  560MOL0     H77266  10.281   2.318   3.884  4.3209  1.8848  0.3114
  560MOL0     H77267  10.352   2.140   3.719 -2.3888 -1.0734 -0.4644
  560MOL0     H77268  10.499   2.209   3.431 -1.7994  0.4484  0.9311
  560MOL0     H77269  10.480   2.041   3.363 -4.3522 -2.0749 -1.5899
  560MOL0     H77270  10.328   2.262   3.232 -2.0104 -1.7918 -3.2927
  560MOL0     H77271  10.353   2.092   3.197 -3.0574  3.3154 -3.8052
  560MOL0     H77272  10.607   2.140   3.181  2.0213  1.5101 -2.9885
  560MOL0     H77273  10.504   2.214   3.057 -0.9752  3.6273  0.2785
  560MOL0     H77274  10.600   2.370   3.297 -2.5288 -1.2624  0.7971
  560MOL0     H77275  10.529   2.430   3.143 -1.1896 -0.8365  1.0217
  560MOL0     H77276  10.953   2.378   3.100 -0.2698  3.1894  2.4013
  560MOL0     H77277  10.242   2.385   3.395 -0.0132 -0.1950 -0.4158
  560MOL0     H77278  10.189   2.606   3.428  0.0040  2.6772  0.5069
  560MOL0     H77279  10.057   2.611   3.548  0.0882 -0.1513  0.5880
  560MOL0     H77280  10.215   2.692   3.584  1.0051 -0.8465  0.6061
  561MOL0     O77281   1.190   1.524   9.147  0.7534  0.6909 -0.3268
  561MOL0     C77282   1.277   1.480   9.064 -0.5354  0.0526 -0.6483
  561MOL0     O77283   1.405   1.520   9.067  0.2098  0.7707  0.4192
  561MOL0     C77284   1.430   1.634   9.132 -0.3357 -0.4694 -0.9557
  561MOL0     C77285   1.526   1.627   9.226 -0.1405 -0.0556 -0.5105
  561MOL0     C77286   1.572   1.734   9.291 -0.5101  0.2696 -0.7678
  561MOL0     C77287   1.519   1.860   9.268 -0.0190  0.4671 -0.1954
  561MOL0     O77288   1.586   1.974   9.321  0.1782  0.0098  0.0152
  561MOL0     C77289   1.495   2.078   9.376  0.0802  0.4833  1.6626
  561MOL0     C77290   1.554   2.150   9.493 -1.4607 -0.0391  0.2468
  561MOL0     C77291   1.550   2.076   9.618  0.0572  0.9352 -0.5619
  561MOL0     C77292   1.668   2.104   9.713 -1.2305 -0.2872 -0.2958
  561MOL0     C77293   1.637   2.045   9.854 -0.2535  0.2497 -0.1486
  561MOL0     C77294   1.754   1.978   9.908 -0.2295  0.4043  0.3378
  561MOL0     C77295   1.718   1.906  10.033  0.8760  0.2626  0.0149
  561MOL0     C77296   1.843   1.840  10.081  0.7664 -0.6487  0.0145
  561MOL0     N77297   1.815   1.749  10.192  0.3664  0.2272  0.3127
  561MOL0     C77298   1.703   1.712  10.260  0.0829  0.5720  0.2963
  561MOL0     C77299   1.739   1.599  10.328 -0.2186  0.6471  0.3747
  561MOL0     C77300   1.664   1.517  10.426  0.0312 -0.1432  0.4594
  561MOL0     C77301   1.631   1.579  10.562  0.8614  1.2862  0.2859
  561MOL0     C77302   1.501   1.647  10.559  0.2904  0.0044  0.2615
  561MOL0     C77303   1.459   1.718  10.685 -0.0934  0.6018 -1.0873
  561MOL0     O77304   1.565   1.802  10.740  0.2377  0.1420  1.2339
  561MOL0     C77305   1.560   1.863  10.860 -0.2997 -0.5954 -0.0072
  561MOL0     C77306   1.653   1.958  10.901 -0.5372 -0.8377  0.2083
  561MOL0     C77307   1.655   2.034  11.027 -0.2075  0.0797  0.3873
  561MOL0     C77308   1.762   2.139  11.060  0.1981 -0.4818 -0.3917
  561MOL0     C77309   1.558   1.992  11.125 -0.1118  0.1567 -0.8272
  561MOL0     C77310   1.550   2.053  11.264  0.2966 -0.6814 -0.1197
  561MOL0     O77311   1.481   1.980  11.356 -0.8347 -0.5640  1.0585
  561MOL0     C77312   1.447   2.041  11.472 -0.4226  0.4589 -0.1410
  561MOL0     C77313   1.543   2.076  11.566 -1.0582  0.3062  0.1528
  561MOL0     C77314   1.499   2.123  11.701 -0.4171 -0.0488  0.2705
  561MOL0     C77315   1.358   2.118  11.728 -0.7876  0.1886 -0.6470
  561MOL0     O77316   1.327   2.152  11.857  0.1787 -0.2616  0.0821
  561MOL0     C77317   1.212   2.241  11.873 -0.6044  0.8785  0.1281
  561MOL0     C77318   1.264   2.361  11.958  0.2617  0.0996  0.0202
  561MOL0     C77319   1.344   2.461  11.866  0.4815  0.1602 -0.3470
  561MOL0     C77320   1.485   2.466  11.884 -0.2848 -0.4612  0.6332
  561MOL0     C77321   1.548   2.579  11.802 -0.3498 -0.5034 -0.5754
  561MOL0     C77322   1.690   2.549  11.744  0.0873 -0.4151 -0.2530
  561MOL0     C77323   1.749   2.675  11.676 -0.6272  0.4864  0.0135
  561MOL0     C77324   1.898   2.653  11.670 -0.6985  0.4410 -0.1792
  561MOL0    Cl77325   1.979   2.767  11.557 -0.1743 -0.1428 -0.4428
  561MOL0     C77326   1.269   2.067  11.637 -0.2057 -0.2982 -0.2486
  561MOL0     C77327   1.316   2.029  11.512  0.6441  0.2309 -0.0412
  561MOL0     O77328   1.592   2.164  11.291 -0.3883 -0.6984  0.0479
  561MOL0     C77329   1.461   1.899  11.089  0.1837  0.2541  0.6169
  561MOL0     C77330   1.468   1.844  10.960  0.1216 -0.2296  0.8382
  561MOL0     N77331   1.876   1.589  10.310 -0.3500 -0.4639 -0.2032
  561MOL0     N77332   1.926   1.675  10.229  0.4717 -0.3590  0.1696
  561MOL0     C77333   1.415   1.869   9.175  0.1675 -0.6320 -0.0717
  561MOL0     C77334   1.364   1.762   9.111  0.4355  0.9339  0.5750
  561MOL0     C77335   1.249   1.374   8.960  0.3047 -0.1746 -0.8538
  561MOL0     C77336   1.337   1.355   8.858 -0.2013 -1.3290 -0.2922
  561MOL0     C77337   1.336   1.244   8.777 -0.5867 -1.2784 -0.0752
  561MOL0     C77338   1.233   1.144   8.789 -1.1416 -0.1870  0.1338
  561MOL0     O77339   1.251   1.026   8.712 -0.0321 -0.8085 -0.3557
  561MOL0     C77340   1.146   0.925   8.719 -0.4944 -1.1147 -0.0314
  561MOL0     C77341   1.177   0.811   8.828  0.2421  0.7586 -0.4793
  561MOL0     C77342   1.253   0.848   8.956 -0.4032  0.0757 -0.2309
  561MOL0     C77343   1.272   0.726   9.050 -0.4946 -0.4018  0.5689
  561MOL0     C77344   1.307   0.768   9.186  0.2666  1.0402  0.7998
  561MOL0     C77345   1.362   0.791   9.294  0.4210  0.0854 -1.3058
  561MOL0     C77346   1.140   1.170   8.883  0.2166  0.3029  0.1069
  561MOL0     C77347   1.137   1.283   8.968 -0.9070 -0.0655 -0.0404
  561MOL0     C77348   1.023   1.294   9.073 -0.4628 -0.2364  0.1937
  561MOL0     H77349   1.584   1.536   9.238 -1.8625 -0.8574  3.0215
  561MOL0     H77350   1.657   1.718   9.355 -0.8476 -1.7141 -0.7413
  561MOL0     H77351   1.390   2.053   9.395 -0.0361  1.1537  1.9395
  561MOL0     H77352   1.487   2.152   9.295 -0.2235 -0.4047  0.8561
  561MOL0     H77353   1.659   2.173   9.468 -1.5353 -0.7210 -0.7552
  561MOL0     H77354   1.502   2.246   9.502 -1.2886  0.0885 -0.0931
  561MOL0     H77355   1.460   2.104   9.673  0.0747 -0.3709  0.1766
  561MOL0     H77356   1.540   1.969   9.600  0.4214  0.5841  1.1976
  561MOL0     H77357   1.747   2.047   9.663 -3.6359 -2.9947 -1.2628
  561MOL0     H77358   1.690   2.211   9.716  1.6352 -0.7368 -1.9470
  561MOL0     H77359   1.553   1.975   9.848  0.6558 -0.7318 -3.2434
  561MOL0     H77360   1.613   2.121   9.929 -0.8814  0.6013 -0.6878
  561MOL0     H77361   1.790   1.907   9.833  0.6757 -2.1004  2.9739
  561MOL0     H77362   1.833   2.052   9.926  1.7311 -1.3009 -0.8142
  561MOL0     H77363   1.635   1.841  10.003 -1.4901  2.0088  2.3533
  561MOL0     H77364   1.670   1.967  10.110 -0.1079 -0.0480 -0.3256
  561MOL0     H77365   1.892   1.791   9.996  3.2793  0.8703  0.4726
  561MOL0     H77366   1.903   1.921  10.123 -2.1616 -0.3220  4.1261
  561MOL0     H77367   1.604   1.757  10.258 -0.0503  0.2798 -1.5520
  561MOL0     H77368   1.716   1.424  10.448 -0.2324 -0.8109 -1.5867
  561MOL0     H77369   1.574   1.485  10.373  1.5754  1.9158 -3.9360
  561MOL0     H77370   1.616   1.494  10.629 -3.9570 -1.0521 -3.1834
  561MOL0     H77371   1.722   1.628  10.600  2.4830  0.0808 -1.7893
  561MOL0     H77372   1.517   1.732  10.491  1.1288 -0.4435 -0.1210
  561MOL0     H77373   1.417   1.582  10.534 -2.7878  2.2754  3.7526
  561MOL0     H77374   1.361   1.767  10.685 -1.0155 -1.0976  0.7405
  561MOL0     H77375   1.445   1.636  10.756 -2.1078 -0.0343 -2.1499
  561MOL0     H77376   1.740   1.982  10.841  0.8943 -1.3275  2.0083
  561MOL0     H77377   1.840   2.135  10.984 -1.4956  1.3386 -2.3903
  561MOL0     H77378   1.810   2.116  11.155  0.0254  2.4029  0.5001
  561MOL0     H77379   1.713   2.236  11.076  2.6141  0.4557  1.9303
  561MOL0     H77380   1.645   2.081  11.529 -1.4520  0.6991 -0.9382
  561MOL0     H77381   1.558   2.159  11.785 -0.5089  1.9052 -0.4435
  561MOL0     H77382   1.168   2.278  11.780  1.0422  1.6237 -0.4001
  561MOL0     H77383   1.128   2.191  11.922  0.4177 -0.6905  0.3306
  561MOL0     H77384   1.177   2.406  12.006  0.5990 -1.8149  2.6722
  561MOL0     H77385   1.322   2.315  12.039  2.5429 -1.9393 -2.5775
  561MOL0     H77386   1.300   2.560  11.875 -0.9918 -0.3941 -1.1216
  561MOL0     H77387   1.327   2.442  11.759 -0.7523  2.2234 -0.5645
  561MOL0     H77388   1.541   2.374  11.867 -0.1141 -0.0368 -1.2905
  561MOL0     H77389   1.495   2.485  11.992  3.8066 -0.5428  0.3938
  561MOL0     H77390   1.489   2.600  11.712 -0.6227 -1.7223 -0.6876
  561MOL0     H77391   1.560   2.667  11.866  1.9771 -0.0498 -1.5496
  561MOL0     H77392   1.675   2.468  11.673 -2.3850 -1.0136  0.8426
  561MOL0     H77393   1.761   2.522  11.823 -0.1552  0.2443  0.2084
  561MOL0     H77394   1.733   2.762  11.741 -0.3810 -0.7925  1.8524
  561MOL0     H77395   1.712   2.681  11.573  0.9667 -0.0839 -0.6164
  561MOL0     H77396   1.931   2.552  11.643 -0.2601  0.2480  0.9931
  561MOL0     H77397   1.942   2.675  11.768 -0.2099  0.3064 -0.3697
  561MOL0     H77398   1.163   2.064  11.661 -0.4473 -1.8668 -1.3717
  561MOL0     H77399   1.255   1.982  11.435  2.6747  0.5708 -1.9579
  561MOL0     H77400   1.371   1.865  11.139  2.6213 -1.7962  4.0735
  561MOL0     H77401   1.383   1.777  10.951 -1.0101  1.4412 -2.7061
  561MOL0     H77402   1.370   1.963   9.144  1.5139 -0.0877 -0.4825
  561MOL0     H77403   1.287   1.769   9.035  1.2986 -0.5175 -0.4828
  561MOL0     H77404   1.423   1.418   8.839  0.0725 -1.6092 -0.0040
  561MOL0     H77405   1.407   1.233   8.695  2.8399 -1.3478  2.6918
  561MOL0     H77406   1.048   0.970   8.736  0.6207  1.0588  1.0821
  561MOL0     H77407   1.142   0.869   8.625 -1.5765 -0.6138 -0.2946
  561MOL0     H77408   1.244   0.736   8.785 -0.3937  0.5119 -1.0491
  561MOL0     H77409   1.079   0.769   8.854  0.1177  0.9844 -0.5893
  561MOL0     H77410   1.348   0.900   8.938 -1.0914  0.7730 -2.0781
  561MOL0     H77411   1.186   0.911   9.016 -0.0959  1.1753 -1.0279
  561MOL0     H77412   1.357   0.669   9.011  0.3145  1.1587 -0.0292
  561MOL0     H77413   1.181   0.666   9.055 -3.6320  3.9620  1.3454
  561MOL0     H77414   1.428   0.805   9.378 -0.4339 -1.6135 -0.2918
  561MOL0     H77415   1.065   1.094   8.901  0.3773 -0.1093 -0.9192
  561MOL0     H77416   1.059   1.274   9.174  1.7314  1.0072 -0.2859
  561MOL0     H77417   0.973   1.391   9.062 -0.8455 -0.3282  1.0643
  561MOL0     H77418   0.950   1.216   9.049 -0.8345 -0.8182  2.9111
  562MOL0     O77419   2.150   0.862   5.499 -0.4943  0.4955  0.0004
  562MOL0     C77420   2.083   0.965   5.490  0.2284  0.4819 -0.2104
  562MOL0     O77421   1.999   0.995   5.385 -0.1502 -0.2488  0.7800
  562MOL0     C77422   1.973   0.899   5.290 -0.6392  1.6601 -0.3598
  562MOL0     C77423   1.848   0.843   5.285  0.4879  0.3400  0.3071
  562MOL0     C77424   1.817   0.747   5.189  0.4399  0.9746  0.8591
  562MOL0     C77425   1.904   0.704   5.092 -0.0621  1.0579 -0.2008
  562MOL0     O77426   1.851   0.618   4.994  1.2404 -0.6317 -0.1062
  562MOL0     C77427   1.936   0.527   4.923 -0.0456  0.5351  0.1967
  562MOL0     C77428   1.861   0.397   4.899  0.7894 -0.9211  1.2439
  562MOL0     C77429   1.945   0.275   4.921  0.1166 -0.1442  0.4260
  562MOL0     C77430   2.025   0.251   4.792  0.1254 -0.3438 -0.5189
  562MOL0     C77431   1.945   0.152   4.698 -0.0793  0.3949  0.8187
  562MOL0     C77432   2.041   0.104   4.582  0.3478  0.2783  0.9267
  562MOL0     C77433   1.988  -0.020   4.527  0.8383  0.2374 -0.8181
  562MOL0     C77434   2.055  -0.103   4.428 -0.2196 -0.0393  0.1424
  562MOL0     N77435   1.965  -0.210   4.379  1.0484 -0.0052 -0.2427
  562MOL0     C77436   1.969  -0.339   4.428  0.1933 -0.0472 -0.4045
  562MOL0     C77437   1.854  -0.397   4.382 -0.3534  0.7314 -0.1756
  562MOL0     C77438   1.802  -0.540   4.411 -0.4673 -0.5510 -0.0309
  562MOL0     C77439   1.850  -0.639   4.301  0.5483 -0.2740 -0.5296
  562MOL0     C77440   1.966  -0.725   4.358  0.6702  0.0723  0.3710
  562MOL0     C77441   2.050  -0.801   4.252 -0.4137 -0.7746 -0.4736
  562MOL0     O77442   2.123  -0.719   4.166 -0.3177 -0.3120  1.0188
  562MOL0     C77443   2.205  -0.782   4.077  0.6069 -0.4455  0.8478
  562MOL0     C77444   2.219  -0.918   4.058 -0.5425  0.3963  0.6189
  562MOL0     C77445   2.311  -0.979   3.963  0.2974 -0.9302  1.0580
  562MOL0     C77446   2.327  -1.127   3.971 -0.4260 -0.8286  0.0889
  562MOL0     C77447   2.403  -0.900   3.885 -0.1047  0.0405  0.1308
  562MOL0     C77448   2.520  -0.942   3.799 -0.7383 -0.2801 -0.5040
  562MOL0     O77449   2.608  -0.841   3.759 -0.6000  0.1894 -0.0778
  562MOL0     C77450   2.725  -0.860   3.692 -1.0589  0.8132 -0.2952
  562MOL0     C77451   2.848  -0.873   3.750  0.3276  0.4992  0.5766
  562MOL0     C77452   2.964  -0.886   3.674  0.1649  0.1226 -0.3371
  562MOL0     C77453   2.962  -0.898   3.532  0.0124 -0.5814  0.7472
  562MOL0     O77454   3.067  -0.927   3.451  0.2461  0.1304  0.1095
  562MOL0     C77455   3.194  -0.952   3.504  0.7724 -0.3096  0.1588
  562MOL0     C77456   3.278  -0.836   3.538  0.3299  0.1455 -0.3788
  562MOL0     C77457   3.305  -0.765   3.395  0.3990 -0.7332 -0.0090
  562MOL0     C77458   3.438  -0.681   3.398  0.2971  0.3465  0.5050
  562MOL0     C77459   3.565  -0.742   3.450 -0.0582 -0.9083  0.1043
  562MOL0     C77460   3.605  -0.875   3.391  0.8653 -0.4459 -0.1892
  562MOL0     C77461   3.613  -0.883   3.241 -0.2635 -0.5852  0.3689
  562MOL0     C77462   3.703  -0.783   3.167 -0.5612  0.1886 -1.1511
  562MOL0    Cl77463   3.853  -0.755   3.256 -0.4543 -0.3313  0.2474
  562MOL0     C77464   2.832  -0.898   3.471 -0.5661  0.3432  0.0062
  562MOL0     C77465   2.717  -0.882   3.552  0.8675 -0.4812  0.1585
  562MOL0     O77466   2.531  -1.057   3.778  0.3376  0.8006  0.4025
  562MOL0     C77467   2.371  -0.768   3.889  0.1483 -0.5042 -0.3303
  562MOL0     C77468   2.277  -0.710   3.981  0.5870  0.2098  0.0912
  562MOL0     N77469   1.792  -0.306   4.307  0.1653 -0.1085 -0.1405
  562MOL0     N77470   1.846  -0.193   4.317 -0.6959  0.6505 -0.5605
  562MOL0     C77471   2.036   0.754   5.103  0.2518  0.8821  0.2173
  562MOL0     C77472   2.068   0.855   5.190  1.7540 -0.0949 -0.6837
  562MOL0     C77473   2.094   1.048   5.605 -0.9319  0.0828 -0.2554
  562MOL0     C77474   2.068   1.184   5.594 -0.0420  0.8116  0.3015
  562MOL0     C77475   2.084   1.271   5.703 -1.3318 -1.6072 -0.5528
  562MOL0     C77476   2.143   1.238   5.820 -0.4352 -0.5000 -1.5996
  562MOL0     O77477   2.183   1.338   5.909 -0.0262  0.4141  0.0161
  562MOL0     C77478   2.172   1.327   6.050 -1.2432  0.2126  0.7190
  562MOL0     C77479   2.026   1.351   6.088  0.1296  0.3337  0.1509
  562MOL0     C77480   2.005   1.288   6.230  0.4878  0.4987  0.0424
  562MOL0     C77481   1.859   1.275   6.275 -0.2371  0.0145 -0.8717
  562MOL0     C77482   1.840   1.238   6.417 -0.0858 -0.9455  0.3962
  562MOL0     C77483   1.828   1.194   6.527  0.4789  0.8341 -0.9887
  562MOL0     C77484   2.143   1.099   5.847 -0.3742 -0.0067  0.6945
  562MOL0     C77485   2.121   1.009   5.740 -0.8363 -0.2436 -0.1976
  562MOL0     C77486   2.121   0.862   5.772 -0.7528  0.6258 -0.2491
  562MOL0     H77487   1.770   0.859   5.358 -1.3500 -0.0153 -1.4777
  562MOL0     H77488   1.721   0.698   5.203  0.8694  0.4409  2.0191
  562MOL0     H77489   2.014   0.508   4.997  1.4897 -0.1232 -1.5144
  562MOL0     H77490   1.986   0.558   4.831  1.1388  0.8848  0.9378
  562MOL0     H77491   1.770   0.391   4.959 -0.3650  2.1180 -0.0230
  562MOL0     H77492   1.815   0.413   4.801  0.2862 -0.5756  1.5333
  562MOL0     H77493   2.014   0.295   5.004  1.4935  0.2597 -0.7636
  562MOL0     H77494   1.873   0.197   4.949 -1.6583  0.9445 -0.9015
  562MOL0     H77495   2.046   0.350   4.751  0.2088  1.2785  3.0059
  562MOL0     H77496   2.122   0.219   4.833 -0.0641 -0.5553 -0.2268
  562MOL0     H77497   1.859   0.209   4.660 -0.8471  2.6327  5.2463
  562MOL0     H77498   1.897   0.070   4.750  1.3683  0.4179  2.2775
  562MOL0     H77499   2.043   0.181   4.505 -0.8964  3.8537  4.1775
  562MOL0     H77500   2.144   0.110   4.619  1.0082  4.1069 -1.0105
  562MOL0     H77501   1.907   0.021   4.467 -0.6048 -0.7186  0.3974
  562MOL0     H77502   1.949  -0.090   4.601  1.6230 -2.1274 -2.5161
  562MOL0     H77503   2.086  -0.041   4.343 -0.6379  3.2864  2.2154
  562MOL0     H77504   2.142  -0.160   4.461 -1.2233 -1.7136 -0.0082
  562MOL0     H77505   2.043  -0.372   4.501 -0.0174  1.0118  0.3262
  562MOL0     H77506   1.693  -0.539   4.419 -0.4681  3.8307  2.8811
  562MOL0     H77507   1.830  -0.565   4.513 -0.7278 -2.2976 -0.3538
  562MOL0     H77508   1.764  -0.699   4.272 -3.5829  3.2797  2.9534
  562MOL0     H77509   1.888  -0.580   4.217  1.6046 -0.7191 -0.3755
  562MOL0     H77510   2.043  -0.668   4.410  1.0474  1.7449 -1.8735
  562MOL0     H77511   1.919  -0.798   4.424 -0.6854  1.0857  0.5604
  562MOL0     H77512   2.127  -0.858   4.306 -0.2903 -0.2671 -0.1085
  562MOL0     H77513   1.994  -0.884   4.208 -0.0905 -1.4704  0.3946
  562MOL0     H77514   2.153  -0.984   4.114 -0.4796  0.0203  0.2513
  562MOL0     H77515   2.431  -1.154   3.990 -0.4293 -1.5388 -0.8414
  562MOL0     H77516   2.311  -1.166   3.870 -0.5792  1.8536 -1.0059
  562MOL0     H77517   2.268  -1.176   4.049  1.0577 -1.2828  0.9661
  562MOL0     H77518   2.856  -0.872   3.859  3.3138 -1.5439  0.5056
  562MOL0     H77519   3.056  -0.884   3.730  1.0455 -1.7228 -1.6377
  562MOL0     H77520   3.179  -1.023   3.585 -4.1570  0.2328 -0.0123
  562MOL0     H77521   3.257  -1.003   3.430  2.8630  1.3511  0.6872
  562MOL0     H77522   3.226  -0.768   3.606  1.1678  0.5664 -0.1493
  562MOL0     H77523   3.368  -0.876   3.585 -0.7913 -0.9544  0.9342
  562MOL0     H77524   3.216  -0.708   3.367 -0.0184 -1.2686  0.1890
  562MOL0     H77525   3.298  -0.838   3.313 -2.7184  0.1518 -0.6851
  562MOL0     H77526   3.408  -0.598   3.462  0.1732  0.4531  0.3073
  562MOL0     H77527   3.463  -0.642   3.299  0.2969  2.7735  1.4020
  562MOL0     H77528   3.648  -0.672   3.433 -1.8093  1.3644  0.4157
  562MOL0     H77529   3.547  -0.751   3.558 -1.4486 -1.2903 -0.1471
  562MOL0     H77530   3.526  -0.945   3.420  0.8061 -0.0848  0.5602
  562MOL0     H77531   3.698  -0.918   3.428 -0.2329 -1.6964  1.2814
  562MOL0     H77532   3.510  -0.864   3.210 -0.5956  2.3531  2.8443
  562MOL0     H77533   3.655  -0.975   3.198 -1.4553 -0.1895 -1.8200
  562MOL0     H77534   3.664  -0.681   3.153  0.8642  0.7862 -0.9871
  562MOL0     H77535   3.728  -0.810   3.064  0.1858  1.5223 -1.3421
  562MOL0     H77536   2.819  -0.929   3.368 -0.8995 -0.6748  0.3448
  562MOL0     H77537   2.619  -0.877   3.506 -0.5642  0.9937  3.0439
  562MOL0     H77538   2.427  -0.686   3.844  0.3864 -0.0071  0.8327
  562MOL0     H77539   2.271  -0.602   3.970  0.0270  0.2091  0.3520
  562MOL0     H77540   2.100   0.722   5.021  0.9832 -0.4108  1.2715
  562MOL0     H77541   2.169   0.895   5.200  1.6905 -0.1021  0.0255
  562MOL0     H77542   2.036   1.221   5.497 -0.2756 -2.9360 -1.2067
  562MOL0     H77543   2.077   1.376   5.677  2.6501 -1.0415 -0.0899
  562MOL0     H77544   2.204   1.225   6.076 -0.9107 -0.5778 -2.3771
  562MOL0     H77545   2.240   1.397   6.099 -0.4031 -0.8962  1.1926
  562MOL0     H77546   1.958   1.295   6.024 -1.7506 -3.1023  4.6034
  562MOL0     H77547   2.000   1.458   6.084 -4.4065 -0.6285 -2.6169
  562MOL0     H77548   2.058   1.193   6.238 -0.9076 -0.3908 -1.0753
  562MOL0     H77549   2.048   1.354   6.306 -1.3978 -1.0225  2.5668
  562MOL0     H77550   1.801   1.209   6.210  0.6400 -1.6123 -0.0549
  562MOL0     H77551   1.814   1.371   6.250  1.3912  1.3035  0.8269
  562MOL0     H77552   1.826   1.159   6.628  0.3076 -0.9329 -1.5786
  562MOL0     H77553   2.167   1.067   5.948 -0.0215  2.9895  1.6581
  562MOL0     H77554   2.115   0.847   5.880  3.1063 -2.5497 -0.2776
  562MOL0     H77555   2.031   0.806   5.743 -0.1539 -0.2939 -0.3667
  562MOL0     H77556   2.213   0.819   5.732  0.1645  0.8515  1.4926
  563MOL0     O77557   2.186   3.798   6.302 -0.2209 -0.2244  0.0347
  563MOL0     C77558   2.183   3.679   6.278  0.8793  0.2831 -0.4574
  563MOL0     O77559   2.174   3.633   6.159  0.0552  0.4105 -0.0815
  563MOL0     C77560   2.109   3.709   6.067 -0.5941  0.1600  0.2859
  563MOL0     C77561   2.171   3.723   5.942 -0.6774 -0.9681 -0.9885
  563MOL0     C77562   2.109   3.798   5.839 -0.2204  0.8479 -0.4155
  563MOL0     C77563   1.976   3.837   5.850  0.0508  0.1873  0.8225
  563MOL0     O77564   1.908   3.896   5.739 -0.1000 -0.0325 -0.4126
  563MOL0     C77565   1.790   3.976   5.766 -0.1502  0.4483 -0.2891
  563MOL0     C77566   1.757   4.068   5.657  1.2423 -0.0646  0.2175
  563MOL0     C77567   1.773   4.004   5.523 -0.2238  0.3026 -0.1065
  563MOL0     C77568   1.668   4.031   5.427 -0.2636 -0.5441 -0.3990
  563MOL0     C77569   1.667   3.937   5.307 -0.7533  0.4114  0.1914
  563MOL0     C77570   1.692   4.009   5.180  0.0460 -0.3214 -0.2181
  563MOL0     C77571   1.552   4.058   5.115  0.3062  0.1976 -1.2894
  563MOL0     C77572   1.561   4.187   5.044  0.6698 -0.7259 -0.3090
  563MOL0     N77573   1.603   4.311   5.092 -0.1831 -0.4683 -1.1419
  563MOL0     C77574   1.705   4.398   5.042  0.4183  0.4904  0.1133
  563MOL0     C77575   1.664   4.525   5.075  0.0967  0.4535 -0.1138
  563MOL0     C77576   1.744   4.648   5.055  0.2749 -0.4618 -0.1864
  563MOL0     C77577   1.889   4.624   5.103  0.0597 -0.3677  0.3651
  563MOL0     C77578   1.987   4.750   5.104  0.3720 -0.1121 -0.0824
  563MOL0     C77579   1.965   4.833   5.222 -0.0080  0.4325 -0.3952
  563MOL0     O77580   2.026   4.960   5.188  0.1855  0.0446 -0.3499
  563MOL0     C77581   2.141   5.000   5.246 -0.6485 -0.0141  1.2063
  563MOL0     C77582   2.156   5.136   5.277  0.3928  0.5174 -1.6246
  563MOL0     C77583   2.276   5.192   5.328  0.3944 -0.4697  0.8819
  563MOL0     C77584   2.283   5.343   5.352 -0.1440 -0.1915  0.4670
  563MOL0     C77585   2.376   5.101   5.363  0.7634 -0.0432 -0.4550
  563MOL0     C77586   2.508   5.141   5.413 -1.1246 -0.3431  0.2291
  563MOL0     O77587   2.572   5.046   5.493 -0.5007  0.4801 -0.0024
  563MOL0     C77588   2.695   5.067   5.544 -0.0224  0.0853 -0.5510
  563MOL0     C77589   2.805   5.036   5.462  0.4295 -1.2159  0.9151
  563MOL0     C77590   2.933   5.054   5.519 -0.0093 -1.2361 -0.0255
  563MOL0     C77591   2.943   5.112   5.645 -0.2625 -0.2852  0.3527
  563MOL0     O77592   3.076   5.141   5.688  0.1894  0.7380 -0.3782
  563MOL0     C77593   3.088   5.143   5.833 -0.2368 -0.1561 -0.0671
  563MOL0     C77594   3.234   5.168   5.878 -0.2000 -0.6950 -0.4407
  563MOL0     C77595   3.248   5.187   6.023  0.4145 -0.5115 -0.1334
  563MOL0     C77596   3.394   5.209   6.062  0.2368 -0.2894  0.2724
  563MOL0     C77597   3.425   5.186   6.212  0.3286  0.3950 -0.5937
  563MOL0     C77598   3.342   5.266   6.327  0.0807 -0.2344 -0.0969
  563MOL0     C77599   3.389   5.236   6.470 -0.0254  0.5182 -0.0076
  563MOL0     C77600   3.300   5.284   6.583 -0.3850 -0.1854 -0.4246
  563MOL0    Cl77601   3.227   5.432   6.551 -0.5940  0.0305 -0.1506
  563MOL0     C77602   2.831   5.157   5.717  0.0248 -0.7218  0.3936
  563MOL0     C77603   2.703   5.130   5.665  0.0257  0.2059  0.1994
  563MOL0     O77604   2.557   5.237   5.354  0.2241  0.4582  0.2162
  563MOL0     C77605   2.363   4.970   5.327 -0.1545  0.2693 -1.3943
  563MOL0     C77606   2.248   4.916   5.274  1.1342 -0.0245  0.0178
  563MOL0     N77607   1.540   4.531   5.136 -0.0097  0.7006  0.0305
  563MOL0     N77608   1.516   4.405   5.151  0.4411  0.0059  0.3198
  563MOL0     C77609   1.910   3.807   5.965 -0.0208 -0.8082 -0.3013
  563MOL0     C77610   1.977   3.752   6.071  0.0122  0.4948  0.2116
  563MOL0     C77611   2.191   3.591   6.399 -0.2141  1.2168 -0.2997
  563MOL0     C77612   2.207   3.454   6.373  0.5442 -0.4688  0.8039
  563MOL0     C77613   2.249   3.356   6.471  0.0677  1.2428  0.6757
  563MOL0     C77614   2.279   3.410   6.596  0.2436 -0.1061 -0.5145
  563MOL0     O77615   2.321   3.325   6.700 -0.3286 -0.6450 -0.1708
  563MOL0     C77616   2.428   3.364   6.787 -0.6815 -0.7870  0.7610
  563MOL0     C77617   2.457   3.261   6.888  0.4379  1.0388  0.3020
  563MOL0     C77618   2.581   3.310   6.978 -0.0905  0.6758  0.2781
  563MOL0     C77619   2.638   3.195   7.065  0.0199 -0.1544  0.4968
  563MOL0     C77620   2.657   3.068   6.991  0.3831 -0.0692 -1.3811
  563MOL0     C77621   2.662   2.962   6.927 -0.7633  0.5246  0.0435
  563MOL0     C77622   2.236   3.535   6.629 -0.2730  0.0179  1.1966
  563MOL0     C77623   2.189   3.631   6.534 -0.4132  0.4797 -0.9687
  563MOL0     C77624   2.156   3.771   6.595  0.8079 -0.5627 -0.7583
  563MOL0     H77625   2.276   3.697   5.930  0.7594  2.0750  2.7851
  563MOL0     H77626   2.168   3.818   5.750  1.1417  0.5194  0.3862
  563MOL0     H77627   1.796   4.029   5.861 -3.5779  1.1650 -0.3400
  563MOL0     H77628   1.701   3.913   5.772 -0.0868  0.4010  0.1669
  563MOL0     H77629   1.663   4.122   5.672 -0.2466 -2.4635  0.1210
  563MOL0     H77630   1.837   4.142   5.654  1.1901  0.0270  0.9514
  563MOL0     H77631   1.866   4.049   5.488  0.6561 -0.9056  0.5791
  563MOL0     H77632   1.782   3.895   5.535  0.1106  0.4348  1.0231
  563MOL0     H77633   1.569   4.045   5.472  0.2792 -1.9690  1.3359
  563MOL0     H77634   1.690   4.135   5.398  0.9629 -0.7464 -0.2346
  563MOL0     H77635   1.574   3.878   5.299 -1.0885  1.1246 -1.5573
  563MOL0     H77636   1.746   3.863   5.323 -1.0566 -0.0308 -0.2892
  563MOL0     H77637   1.751   4.100   5.196  0.3297 -0.6641  0.8002
  563MOL0     H77638   1.741   3.940   5.111 -0.3414  0.0954 -0.9228
  563MOL0     H77639   1.477   4.055   5.195  4.5349 -1.1914  3.1881
  563MOL0     H77640   1.518   3.981   5.046  1.4723 -3.9252  2.2529
  563MOL0     H77641   1.622   4.151   4.961  0.2759 -2.3928  0.0888
  563MOL0     H77642   1.468   4.210   4.990  0.6652  0.9220  0.3382
  563MOL0     H77643   1.789   4.367   4.979  0.9133 -0.7456  1.3392
  563MOL0     H77644   1.694   4.731   5.106  1.0659  0.4727 -0.8803
  563MOL0     H77645   1.739   4.675   4.948 -0.5916  1.2590  0.2395
  563MOL0     H77646   1.899   4.581   5.203 -2.3795  2.8233  2.1757
  563MOL0     H77647   1.932   4.550   5.035  1.5050 -1.5068  2.4050
  563MOL0     H77648   2.087   4.707   5.113 -0.6623 -2.5172  1.0751
  563MOL0     H77649   1.972   4.792   5.005 -1.1564 -0.0380  0.1442
  563MOL0     H77650   1.857   4.834   5.243 -0.7580  3.9534 -3.3199
  563MOL0     H77651   2.012   4.792   5.312 -0.7589  0.3076 -0.0448
  563MOL0     H77652   2.071   5.203   5.265  0.8494  1.4768  0.0393
  563MOL0     H77653   2.350   5.369   5.434 -0.4781  1.2942  0.3106
  563MOL0     H77654   2.187   5.386   5.383 -0.7575 -1.5477  0.5404
  563MOL0     H77655   2.336   5.393   5.270 -0.0439 -0.6110  0.2752
  563MOL0     H77656   2.791   4.998   5.361  2.4940 -3.5446  1.4176
  563MOL0     H77657   3.025   5.029   5.468 -0.2388  1.7647 -2.2002
  563MOL0     H77658   3.033   5.220   5.887  2.5873  1.0484  1.2658
  563MOL0     H77659   3.054   5.047   5.873  0.6364  0.3495  1.9884
  563MOL0     H77660   3.287   5.080   5.840 -1.8047 -1.9162  0.0577
  563MOL0     H77661   3.270   5.255   5.822  2.4965  0.5539  2.9306
  563MOL0     H77662   3.213   5.091   6.063 -0.7065  0.4293  1.2309
  563MOL0     H77663   3.179   5.265   6.055 -0.7069 -1.0338 -1.1901
  563MOL0     H77664   3.422   5.311   6.038 -0.3980 -0.2873 -0.4921
  563MOL0     H77665   3.467   5.144   6.012 -0.2743 -1.3698  0.8842
  563MOL0     H77666   3.404   5.079   6.223  0.2852  0.4955  0.3659
  563MOL0     H77667   3.533   5.189   6.227  0.8365 -0.2356 -3.3998
  563MOL0     H77668   3.238   5.239   6.308 -0.5754  2.6299 -1.0777
  563MOL0     H77669   3.352   5.374   6.311 -3.0157  0.1047 -0.2130
  563MOL0     H77670   3.490   5.278   6.476  1.6631 -2.7368 -2.3787
  563MOL0     H77671   3.400   5.130   6.494  0.7392  1.0656  2.3271
  563MOL0     H77672   3.342   5.294   6.684  0.9001 -0.7399 -0.8771
  563MOL0     H77673   3.226   5.203   6.580 -1.3234  0.6415 -0.0703
  563MOL0     H77674   2.841   5.208   5.812 -0.7627  1.6081 -0.7020
  563MOL0     H77675   2.616   5.166   5.717  1.8095  5.5587  0.0158
  563MOL0     H77676   2.447   4.902   5.337  2.5082  3.5817  1.4241
  563MOL0     H77677   2.230   4.810   5.259  0.6233 -0.1937  1.6715
  563MOL0     H77678   1.806   3.821   5.990 -0.5800 -5.3436  0.9312
  563MOL0     H77679   1.926   3.726   6.163 -2.7669 -0.0217 -1.3586
  563MOL0     H77680   2.183   3.417   6.274 -2.7058  0.5668  1.0797
  563MOL0     H77681   2.270   3.257   6.432 -1.2943  1.9277 -2.0451
  563MOL0     H77682   2.513   3.373   6.718 -0.2029 -2.1121  1.1341
  563MOL0     H77683   2.410   3.461   6.834  2.8142  0.1898  0.4174
  563MOL0     H77684   2.467   3.163   6.838  2.8559  1.3204  0.1294
  563MOL0     H77685   2.367   3.261   6.950  0.5304  2.5986  0.4623
  563MOL0     H77686   2.654   3.351   6.908 -0.5748 -0.6102 -1.0468
  563MOL0     H77687   2.541   3.392   7.037  0.5733 -0.3342  2.2134
  563MOL0     H77688   2.584   3.180   7.159 -0.3144 -1.1579  0.1446
  563MOL0     H77689   2.739   3.222   7.097  0.2625 -1.5792  1.0048
  563MOL0     H77690   2.656   2.878   6.861  2.0008  1.9231 -2.1844
  563MOL0     H77691   2.241   3.571   6.731  1.7642 -0.3624  1.2673
  563MOL0     H77692   2.203   3.787   6.692 -0.5931  1.3114 -0.3437
  563MOL0     H77693   2.174   3.857   6.530 -0.0773 -0.9368 -1.5209
  563MOL0     H77694   2.050   3.769   6.620  0.6148  2.1273 -1.0503
  564MOL0     O77695   2.641  11.552   7.015 -0.1563 -0.6549 -0.0025
  564MOL0     C77696   2.594  11.653   6.962 -0.5242 -0.5599  1.3495
  564MOL0     O77697   2.468  11.671   6.922  0.3395 -1.0079  0.1822
  564MOL0     C77698   2.386  11.562   6.935  0.5011  0.5355  0.4979
  564MOL0     C77699   2.262  11.593   7.006  0.6103 -0.1174 -0.1349
  564MOL0     C77700   2.176  11.492   7.027  0.4881  0.5918  0.3333
  564MOL0     C77701   2.194  11.369   6.966  0.1584  0.3283  0.0123
  564MOL0     O77702   2.105  11.275   6.995  0.5542 -0.0470  0.5045
  564MOL0     C77703   2.095  11.156   6.910 -0.1297  1.3263 -0.3172
  564MOL0     C77704   2.004  11.157   6.787  0.1525  0.8390 -0.2058
  564MOL0     C77705   1.855  11.146   6.826 -0.2885 -0.9494 -0.0466
  564MOL0     C77706   1.804  11.259   6.913 -0.0731  0.0732  0.1201
  564MOL0     C77707   1.831  11.405   6.862 -1.1956 -0.6564 -0.0760
  564MOL0     C77708   1.755  11.513   6.948 -0.0235 -0.2286  0.1890
  564MOL0     C77709   1.767  11.653   6.901  0.7344  0.4012  0.0241
  564MOL0     C77710   1.659  11.706   6.804  0.6917 -0.0793 -0.8430
  564MOL0     N77711   1.642  11.637   6.675 -0.2203  0.2009 -1.7094
  564MOL0     C77712   1.725  11.643   6.567 -0.5654 -0.5413  0.6604
  564MOL0     C77713   1.675  11.554   6.480 -0.1822 -0.3122  0.5770
  564MOL0     C77714   1.743  11.525   6.347  0.0765 -0.4231 -0.4593
  564MOL0     C77715   1.855  11.420   6.354  0.2775 -0.3815 -0.4917
  564MOL0     C77716   1.797  11.287   6.395 -0.3113  0.6407 -0.4923
  564MOL0     C77717   1.705  11.216   6.297 -0.3872  0.4566 -0.6725
  564MOL0     O77718   1.771  11.202   6.175 -0.1181  0.5990  0.1355
  564MOL0     C77719   1.676  11.191   6.076 -0.6800 -0.0130 -0.3453
  564MOL0     C77720   1.568  11.097   6.081  0.2010  0.3621  0.1136
  564MOL0     C77721   1.486  11.097   5.974  0.7093 -0.1406  0.2796
  564MOL0     C77722   1.365  10.997   5.981 -0.5902 -0.8329  0.3445
  564MOL0     C77723   1.496  11.195   5.867  0.1633  0.3841 -0.0437
  564MOL0     C77724   1.412  11.197   5.745 -0.5709  0.4995 -0.1831
  564MOL0     O77725   1.446  11.287   5.649 -0.2533  0.6562  0.1031
  564MOL0     C77726   1.393  11.275   5.522 -0.4551  0.1825  0.5733
  564MOL0     C77727   1.357  11.162   5.455 -0.3965 -0.4219  0.1841
  564MOL0     C77728   1.315  11.167   5.325 -0.3020  0.4046 -0.8063
  564MOL0     C77729   1.318  11.286   5.253  0.4536 -0.1297  0.0542
  564MOL0     O77730   1.275  11.306   5.121 -0.3062  1.3330  0.2688
  564MOL0     C77731   1.186  11.212   5.074  0.0590  0.5735  0.5364
  564MOL0     C77732   1.138  11.251   4.931  0.6819 -0.6537  0.5132
  564MOL0     C77733   1.256  11.292   4.833  0.4555  0.3485 -1.0439
  564MOL0     C77734   1.323  11.165   4.784 -0.7213  0.3719 -0.3187
  564MOL0     C77735   1.378  11.170   4.644  0.1215  0.5870  0.7916
  564MOL0     C77736   1.517  11.229   4.620 -0.6521  0.1188  0.6138
  564MOL0     C77737   1.535  11.354   4.711 -0.3911  0.0741 -0.3521
  564MOL0     C77738   1.646  11.450   4.681 -0.1241  0.2433  0.7583
  564MOL0    Cl77739   1.600  11.586   4.581 -0.3113  0.1669  0.3358
  564MOL0     C77740   1.358  11.399   5.315 -0.4471 -0.0822 -0.0905
  564MOL0     C77741   1.399  11.395   5.445 -0.8643 -0.4095  0.7650
  564MOL0     O77742   1.318  11.127   5.747 -0.0536 -0.0979 -0.3349
  564MOL0     C77743   1.593  11.298   5.877  0.9346  0.4789 -0.0956
  564MOL0     C77744   1.682  11.293   5.981 -0.3925 -0.2260  0.1267
  564MOL0     N77745   1.570  11.487   6.533  0.0791 -0.0736 -0.3580
  564MOL0     N77746   1.544  11.543   6.648  0.0245  0.0325 -0.4954
  564MOL0     C77747   2.318  11.343   6.898 -0.5044  0.7486 -0.0182
  564MOL0     C77748   2.417  11.438   6.898 -0.9860  0.2323  1.0421
  564MOL0     C77749   2.692  11.771   6.952  0.4367  1.4167 -0.5869
  564MOL0     C77750   2.655  11.909   6.958  0.1506  0.8626 -0.0026
  564MOL0     C77751   2.746  12.014   6.968 -0.3144 -0.0522  1.2348
  564MOL0     C77752   2.880  11.985   6.959 -0.4332  0.4091 -0.1495
  564MOL0     O77753   2.975  12.081   6.970 -0.0388 -0.3533 -0.4410
  564MOL0     C77754   2.965  12.151   7.097  0.3324  0.2411 -0.1095
  564MOL0     C77755   3.083  12.256   7.095 -0.3243  0.5314 -0.3677
  564MOL0     C77756   3.224  12.185   7.101  0.1725  0.0456  0.3336
  564MOL0     C77757   3.240  12.110   7.238  0.5338  0.0419  0.3311
  564MOL0     C77758   3.385  12.072   7.247 -0.0881 -0.3028  0.3678
  564MOL0     C77759   3.488  12.021   7.257 -1.1915 -1.1459  0.1132
  564MOL0     C77760   2.915  11.854   6.946  0.2743 -0.6125 -0.8585
  564MOL0     C77761   2.826  11.749   6.937  0.2659  0.0439 -0.1105
  564MOL0     C77762   2.895  11.610   6.924  0.6144 -0.4270 -0.1713
  564MOL0     H77763   2.255  11.698   7.032 -1.6111  0.0876 -1.3055
  564MOL0     H77764   2.086  11.510   7.085  0.8186  0.3487  0.9354
  564MOL0     H77765   2.060  11.070   6.969  2.2017  0.2790 -0.3504
  564MOL0     H77766   2.197  11.128   6.883 -0.3181 -0.0150  0.2558
  564MOL0     H77767   2.015  11.249   6.728 -2.1450  0.2443 -1.7198
  564MOL0     H77768   2.029  11.084   6.710 -0.7486 -0.3022  0.5501
  564MOL0     H77769   1.796  11.143   6.733 -0.6544 -3.1903  0.1954
  564MOL0     H77770   1.832  11.054   6.880 -0.4132 -0.5281  0.6231
  564MOL0     H77771   1.695  11.251   6.910 -0.0769  0.3844 -0.6942
  564MOL0     H77772   1.836  11.243   7.017  1.9869 -2.2669 -0.7763
  564MOL0     H77773   1.812  11.435   6.759 -0.2745  2.8427  0.6187
  564MOL0     H77774   1.937  11.430   6.871 -0.6935 -2.2944 -1.0491
  564MOL0     H77775   1.649  11.492   6.963 -0.1184  0.6905  0.9477
  564MOL0     H77776   1.801  11.503   7.048 -2.9687 -1.2980  1.5479
  564MOL0     H77777   1.856  11.661   6.838 -0.3390  1.8298 -1.4098
  564MOL0     H77778   1.775  11.718   6.988 -0.4103 -0.7258  1.0204
  564MOL0     H77779   1.568  11.714   6.864  1.3190 -2.6547  0.6026
  564MOL0     H77780   1.684  11.810   6.784  1.7899  0.0166  0.8374
  564MOL0     H77781   1.819  11.698   6.571  0.1427 -1.7538  1.6243
  564MOL0     H77782   1.784  11.618   6.307  2.3498 -0.6744  1.1498
  564MOL0     H77783   1.667  11.492   6.275  1.1254  0.4539 -2.0144
  564MOL0     H77784   1.911  11.413   6.260  4.5576 -0.4665  1.8730
  564MOL0     H77785   1.924  11.463   6.426 -0.8686 -0.1487  0.5022
  564MOL0     H77786   1.884  11.223   6.412  0.2231  1.7751  1.3584
  564MOL0     H77787   1.742  11.281   6.489 -0.8725 -2.5634 -0.9017
  564MOL0     H77788   1.692  11.111   6.328  0.7833 -0.0849 -1.9409
  564MOL0     H77789   1.612  11.274   6.297  0.4189  1.8098  1.0402
  564MOL0     H77790   1.567  11.027   6.164  2.8441 -2.2241 -1.8156
  564MOL0     H77791   1.272  11.054   5.991 -0.6926  0.1710 -4.3569
  564MOL0     H77792   1.372  10.927   6.065 -0.0949  0.6198  1.5632
  564MOL0     H77793   1.369  10.937   5.890 -1.2988 -1.4873  0.7342
  564MOL0     H77794   1.343  11.064   5.499  0.1648 -0.6480 -0.1412
  564MOL0     H77795   1.274  11.077   5.282 -0.0769 -0.6067  1.0276
  564MOL0     H77796   1.232  11.112   5.076 -0.7194  0.1629  3.6436
  564MOL0     H77797   1.091  11.198   5.126 -2.3426  1.0361 -3.3319
  564MOL0     H77798   1.076  11.166   4.901 -0.2580  0.6584 -1.4970
  564MOL0     H77799   1.075  11.341   4.938 -0.2898 -1.3747  1.4065
  564MOL0     H77800   1.333  11.358   4.874 -0.8050  0.8301  0.6968
  564MOL0     H77801   1.210  11.356   4.757  0.5943  3.5064  1.2844
  564MOL0     H77802   1.256  11.079   4.793 -2.5037  1.7646  0.1401
  564MOL0     H77803   1.403  11.133   4.852 -1.0139 -1.2142 -0.6766
  564MOL0     H77804   1.372  11.066   4.613  1.9103  0.8773 -0.6785
  564MOL0     H77805   1.306  11.216   4.576  0.8532 -1.9197 -1.8505
  564MOL0     H77806   1.533  11.264   4.517  0.0144 -1.0198  0.3168
  564MOL0     H77807   1.589  11.150   4.643 -0.4134  0.8111  2.3687
  564MOL0     H77808   1.551  11.305   4.808 -0.9581 -0.0937 -0.3404
  564MOL0     H77809   1.442  11.412   4.702 -0.0255  0.4347 -2.0782
  564MOL0     H77810   1.737  11.412   4.633  1.6533 -1.0138  4.6939
  564MOL0     H77811   1.676  11.487   4.780  2.6231 -2.3385  1.0378
  564MOL0     H77812   1.366  11.483   5.247 -1.1691 -0.3937 -0.5766
  564MOL0     H77813   1.438  11.473   5.510  1.5314  0.5112 -1.5594
  564MOL0     H77814   1.590  11.377   5.802  2.2487 -0.8292 -1.5901
  564MOL0     H77815   1.760  11.368   5.987 -2.4223  1.9795  0.5078
  564MOL0     H77816   2.343  11.253   6.844 -4.1836 -0.8440  0.6418
  564MOL0     H77817   2.512  11.402   6.858 -1.6124  0.6166 -0.9357
  564MOL0     H77818   2.547  11.924   6.958 -0.2155 -1.3761  0.0561
  564MOL0     H77819   2.717  12.118   6.975 -0.8745 -0.2195  1.4486
  564MOL0     H77820   2.870  12.202   7.115 -0.2130 -0.9615  0.5970
  564MOL0     H77821   2.975  12.085   7.183  2.6912  2.4952  1.4940
  564MOL0     H77822   3.073  12.326   7.179  0.4249 -1.3343  1.3553
  564MOL0     H77823   3.101  12.314   7.004  2.2874  0.8612  0.2716
  564MOL0     H77824   3.219  12.120   7.013 -2.6259  1.5138 -0.7201
  564MOL0     H77825   3.305  12.255   7.078 -0.3620  0.6817  0.3711
  564MOL0     H77826   3.178  12.020   7.230  3.1020 -1.7135 -1.5727
  564MOL0     H77827   3.207  12.172   7.322  1.4784 -0.0077  0.7517
  564MOL0     H77828   3.587  11.984   7.279 -0.2127  1.0158 -0.3509
  564MOL0     H77829   3.022  11.835   6.949  0.7633  1.9997  1.5320
  564MOL0     H77830   2.991  11.611   6.873  1.6106 -1.0586  1.6039
  564MOL0     H77831   2.908  11.566   7.023 -2.4911 -1.1269  0.0304
  564MOL0     H77832   2.826  11.538   6.879 -1.7209  2.2093 -1.1644
  565MOL0     O77833   6.716   5.723   4.749 -0.1757 -1.1851  0.1521
  565MOL0     C77834   6.739   5.783   4.646 -0.6546 -0.4890 -1.2139
  565MOL0     O77835   6.848   5.872   4.631  0.2762  0.1875  0.7016
  565MOL0     C77836   6.927   5.908   4.738  0.2363 -0.2223 -0.4944
  565MOL0     C77837   7.056   5.860   4.753 -0.1358  0.3477  0.5740
  565MOL0     C77838   7.143   5.920   4.845  0.3621 -0.1873  0.5184
  565MOL0     C77839   7.102   6.029   4.920  0.7650 -0.3420  0.3005
  565MOL0     O77840   7.185   6.093   5.010 -0.1837  0.5992 -0.7146
  565MOL0     C77841   7.295   6.022   5.054 -0.8077  0.3517 -0.0912
  565MOL0     C77842   7.360   6.064   5.184 -0.3858  0.7054  0.1442
  565MOL0     C77843   7.311   5.966   5.296 -0.6108  0.3129 -0.8438
  565MOL0     C77844   7.374   5.824   5.288 -1.0103 -0.3860  0.7209
  565MOL0     C77845   7.508   5.821   5.359 -0.2640  0.1880  0.6088
  565MOL0     C77846   7.598   5.706   5.333 -0.2296  0.0444 -0.2636
  565MOL0     C77847   7.575   5.604   5.445 -0.3807 -0.8747 -0.4825
  565MOL0     C77848   7.663   5.482   5.414 -0.4896  0.7131 -0.2482
  565MOL0     N77849   7.622   5.381   5.512 -0.7387 -0.3045 -0.5548
  565MOL0     C77850   7.689   5.306   5.602 -0.3493  0.0370  0.8909
  565MOL0     C77851   7.592   5.222   5.668 -0.3194 -0.5438  0.5765
  565MOL0     C77852   7.636   5.097   5.748 -0.2557 -0.9026 -0.3027
  565MOL0     C77853   7.719   5.010   5.648 -1.0315 -0.8506 -0.1791
  565MOL0     C77854   7.690   4.856   5.677  0.7263  0.6196  0.6191
  565MOL0     C77855   7.763   4.794   5.802  0.5130  0.7868  0.0441
  565MOL0     O77856   7.683   4.816   5.912  0.1474 -0.4307  0.7640
  565MOL0     C77857   7.690   4.733   6.018 -0.1804 -0.4922  0.5037
  565MOL0     C77858   7.590   4.744   6.115  0.1145  0.5275  1.0784
  565MOL0     C77859   7.593   4.661   6.230 -0.1081  0.5744  0.4636
  565MOL0     C77860   7.481   4.683   6.327 -0.9403  0.0915  0.9810
  565MOL0     C77861   7.685   4.552   6.231  0.1043 -0.0076 -0.0224
  565MOL0     C77862   7.685   4.437   6.331  0.3048 -0.3702 -0.5656
  565MOL0     O77863   7.784   4.340   6.338 -0.2688  0.1401 -0.4252
  565MOL0     C77864   7.779   4.236   6.422  0.7693  0.1690 -0.5578
  565MOL0     C77865   7.714   4.117   6.381  0.1575  0.2439 -0.3936
  565MOL0     C77866   7.694   4.013   6.471  0.2121  0.6272 -0.5875
  565MOL0     C77867   7.732   4.034   6.602 -0.5327  0.3683  0.1848
  565MOL0     O77868   7.719   3.930   6.695 -0.7155 -0.8267  0.9274
  565MOL0     C77869   7.847   3.856   6.683  0.2440 -0.5964 -0.0988
  565MOL0     C77870   7.854   3.739   6.791  0.2987 -0.4132  0.5318
  565MOL0     C77871   7.745   3.632   6.775 -0.2177 -0.1429  1.0309
  565MOL0     C77872   7.783   3.507   6.844  0.0095 -0.2273 -0.0230
  565MOL0     C77873   7.704   3.385   6.815  0.3461 -0.1279 -0.0530
  565MOL0     C77874   7.756   3.323   6.693 -0.3503  0.1455 -0.4790
  565MOL0     C77875   7.679   3.191   6.670 -0.4485 -0.5815  0.2167
  565MOL0     C77876   7.650   3.162   6.520  0.0187 -0.0292 -0.4626
  565MOL0    Cl77877   7.807   3.086   6.466  0.4975  0.0099 -0.5684
  565MOL0     C77878   7.790   4.153   6.644  0.7090  0.0892 -0.3400
  565MOL0     C77879   7.817   4.260   6.553 -0.3777 -0.5300  0.5845
  565MOL0     O77880   7.592   4.437   6.415  0.0963  0.2124  0.3338
  565MOL0     C77881   7.793   4.547   6.133 -0.5273 -1.3797  0.5647
  565MOL0     C77882   7.800   4.637   6.028 -0.5657 -0.3543  0.9531
  565MOL0     N77883   7.471   5.263   5.624 -0.2049 -0.1232  0.1161
  565MOL0     N77884   7.495   5.357   5.537 -0.7271  0.2776 -0.2575
  565MOL0     C77885   6.976   6.086   4.909 -0.6025 -0.0351  0.7154
  565MOL0     C77886   6.885   6.022   4.819 -0.5905 -0.2930 -0.7345
  565MOL0     C77887   6.663   5.750   4.523 -0.3714 -0.1151  0.7123
  565MOL0     C77888   6.726   5.779   4.399  0.8281  0.0227 -0.0426
  565MOL0     C77889   6.672   5.740   4.273  0.2091 -0.6578  1.1188
  565MOL0     C77890   6.537   5.674   4.280 -0.8850 -0.1386 -0.6445
  565MOL0     O77891   6.468   5.633   4.169 -0.4105  0.1547 -0.3227
  565MOL0     C77892   6.523   5.667   4.040  0.3433 -0.3059  0.8201
  565MOL0     C77893   6.444   5.611   3.924  0.1978  0.2758  0.5298
  565MOL0     C77894   6.511   5.664   3.789  0.9606  1.2068 -1.1703
  565MOL0     C77895   6.433   5.604   3.677  0.0020  0.0380 -0.1657
  565MOL0     C77896   6.318   5.690   3.624  0.8392  0.1333 -0.6255
  565MOL0     C77897   6.211   5.736   3.593 -0.7244 -0.4342 -0.1512
  565MOL0     C77898   6.485   5.642   4.405 -0.5349  0.3375  0.1231
  565MOL0     C77899   6.540   5.683   4.524  1.1092  0.7961  1.0745
  565MOL0     C77900   6.468   5.631   4.648 -0.4308  0.4528 -0.5552
  565MOL0     H77901   7.093   5.777   4.695  2.6055  2.2743 -0.6400
  565MOL0     H77902   7.244   5.883   4.862  0.5640  1.1733  2.7501
  565MOL0     H77903   7.361   6.017   4.967 -0.8187  1.4787 -0.1768
  565MOL0     H77904   7.264   5.918   5.068 -0.0567  0.0453 -0.6122
  565MOL0     H77905   7.469   6.062   5.186 -0.3072  2.1478 -1.2632
  565MOL0     H77906   7.331   6.167   5.206 -1.4165  0.1861  1.3866
  565MOL0     H77907   7.350   6.015   5.386  4.0723  1.2656 -3.0510
  565MOL0     H77908   7.203   5.958   5.285 -0.5084 -2.7361 -0.4420
  565MOL0     H77909   7.310   5.738   5.312  0.1301 -3.0662 -4.3806
  565MOL0     H77910   7.404   5.811   5.184  1.0860  0.6806  1.1362
  565MOL0     H77911   7.500   5.826   5.468 -4.3925 -0.1484  0.4809
  565MOL0     H77912   7.557   5.909   5.316  1.7759 -1.1288  0.0848
  565MOL0     H77913   7.577   5.668   5.232  2.8961  1.7724 -1.7105
  565MOL0     H77914   7.703   5.732   5.325 -0.1031 -0.7677 -1.5748
  565MOL0     H77915   7.472   5.565   5.446 -0.4629 -0.6585  0.9176
  565MOL0     H77916   7.602   5.654   5.538  0.0421  2.5625 -2.3030
  565MOL0     H77917   7.639   5.448   5.312  0.8292 -0.0785 -0.3135
  565MOL0     H77918   7.763   5.525   5.416 -0.9123  1.8659 -1.5295
  565MOL0     H77919   7.796   5.295   5.616  0.2485  2.5701 -0.9471
  565MOL0     H77920   7.542   5.054   5.785 -0.7223  1.1637  1.1172
  565MOL0     H77921   7.695   5.110   5.840  3.1137 -1.3581 -2.2402
  565MOL0     H77922   7.696   5.010   5.540 -3.4035 -3.8526  0.1946
  565MOL0     H77923   7.824   5.031   5.669 -0.7890 -1.5156 -0.6835
  565MOL0     H77924   7.585   4.842   5.704  0.0497  4.1172  0.2048
  565MOL0     H77925   7.724   4.803   5.587 -2.4789 -0.2040 -0.2163
  565MOL0     H77926   7.760   4.685   5.795 -3.9183  0.3899  3.2540
  565MOL0     H77927   7.868   4.821   5.813  0.3882  1.5380 -0.4992
  565MOL0     H77928   7.512   4.819   6.116 -0.1838  0.2233  1.0384
  565MOL0     H77929   7.532   4.712   6.420  0.3680 -0.6139  0.5039
  565MOL0     H77930   7.421   4.594   6.351 -0.8250  0.6762  3.7698
  565MOL0     H77931   7.409   4.755   6.289 -1.5295 -1.3428 -0.7323
  565MOL0     H77932   7.673   4.103   6.281 -2.5998  1.4504  0.4739
  565MOL0     H77933   7.645   3.921   6.439 -0.6039  0.5857  0.7123
  565MOL0     H77934   7.865   3.812   6.584 -1.9920 -0.0744 -0.7889
  565MOL0     H77935   7.936   3.917   6.701  1.2642 -2.3529  1.2202
  565MOL0     H77936   7.952   3.693   6.775 -0.4749 -1.6054 -0.9544
  565MOL0     H77937   7.841   3.789   6.887 -3.9343  1.3614 -0.7309
  565MOL0     H77938   7.739   3.613   6.667 -0.5843 -0.7318  1.1484
  565MOL0     H77939   7.651   3.675   6.808 -1.3170  0.3357 -2.3378
  565MOL0     H77940   7.784   3.538   6.949 -2.3160  0.2101 -0.0794
  565MOL0     H77941   7.886   3.497   6.809 -0.7623  0.4107 -2.7168
  565MOL0     H77942   7.721   3.314   6.896  0.8584  1.4552  1.2770
  565MOL0     H77943   7.600   3.414   6.794  1.0077  0.9804 -2.1811
  565MOL0     H77944   7.864   3.305   6.692  0.2324  3.1912 -0.0460
  565MOL0     H77945   7.738   3.386   6.605 -1.0732  0.3636 -0.1874
  565MOL0     H77946   7.578   3.206   6.710 -0.1420 -1.0777  1.2026
  565MOL0     H77947   7.719   3.103   6.721  1.8636  1.2497  1.7508
  565MOL0     H77948   7.622   3.247   6.457 -4.4520  1.8463  3.4532
  565MOL0     H77949   7.562   3.100   6.497 -0.4421  0.5496 -0.2786
  565MOL0     H77950   7.803   4.168   6.750 -0.4240 -1.6076  0.0882
  565MOL0     H77951   7.873   4.349   6.582  1.3646 -0.2446 -3.1063
  565MOL0     H77952   7.871   4.471   6.139 -1.9427 -2.7600  2.5625
  565MOL0     H77953   7.879   4.624   5.955  2.0172 -1.7572  3.7773
  565MOL0     H77954   6.953   6.176   4.965 -0.4853 -0.4794  1.4948
  565MOL0     H77955   6.783   6.051   4.796  0.1092  2.3200 -0.8284
  565MOL0     H77956   6.818   5.837   4.399 -0.3987  2.1684 -1.6426
  565MOL0     H77957   6.719   5.769   4.179  0.2197 -2.6683  0.4654
  565MOL0     H77958   6.534   5.776   4.037  0.7066 -0.3630 -0.4261
  565MOL0     H77959   6.621   5.620   4.032 -0.1891 -1.1307 -1.8153
  565MOL0     H77960   6.346   5.655   3.942  0.0199  0.6023 -1.1024
  565MOL0     H77961   6.430   5.503   3.934 -1.0783  0.1832 -1.6039
  565MOL0     H77962   6.512   5.774   3.783 -0.0446  1.2395 -0.8538
  565MOL0     H77963   6.611   5.620   3.785  0.6475  0.1775  0.8884
  565MOL0     H77964   6.389   5.507   3.704 -0.0770 -0.6407 -2.5025
  565MOL0     H77965   6.502   5.583   3.595  0.9136  1.9487  0.0583
  565MOL0     H77966   6.118   5.770   3.553  0.0120  1.5125 -0.3217
  565MOL0     H77967   6.396   5.579   4.414  0.7389 -1.5594  0.0543
  565MOL0     H77968   6.360   5.616   4.637 -0.7830 -1.3804  3.4960
  565MOL0     H77969   6.507   5.532   4.674 -0.4552  0.0564 -1.9556
  565MOL0     H77970   6.487   5.683   4.742 -0.0926 -2.1074  0.8672
  566MOL0     O77971   9.091   6.385  11.339 -0.4931 -0.0109  0.1476
  566MOL0     C77972   8.972   6.393  11.355  0.2460  0.0748  0.8666
  566MOL0     O77973   8.884   6.411  11.239  0.0702 -0.1350  0.1925
  566MOL0     C77974   8.752   6.423  11.248 -0.5477  0.2071  0.2113
  566MOL0     C77975   8.675   6.328  11.189 -0.3136 -0.3164  0.2303
  566MOL0     C77976   8.537   6.336  11.192 -0.2913  0.3436 -0.2719
  566MOL0     C77977   8.473   6.438  11.259  0.0969 -0.0802  0.6654
  566MOL0     O77978   8.341   6.435  11.250 -0.1347 -0.4093 -0.4789
  566MOL0     C77979   8.271   6.444  11.368  0.4378  0.0457  0.0398
  566MOL0     C77980   8.125   6.431  11.321  1.8538 -0.0451 -0.7128
  566MOL0     C77981   8.076   6.559  11.247  0.0464  0.2805 -0.6465
  566MOL0     C77982   8.028   6.667  11.349 -0.1265 -0.0441 -0.4392
  566MOL0     C77983   7.958   6.783  11.290  0.0697  0.2226 -0.6740
  566MOL0     C77984   8.032   6.873  11.192  0.1307 -0.3045  0.4063
  566MOL0     C77985   7.958   7.005  11.181 -0.1428 -0.0583  1.3138
  566MOL0     C77986   7.987   7.074  11.045  0.6583  0.3527 -0.0309
  566MOL0     N77987   7.905   7.020  10.930  0.2376  0.1775  0.5135
  566MOL0     C77988   7.907   7.070  10.806  0.2996  0.4224  1.0622
  566MOL0     C77989   7.813   7.004  10.737 -0.1362 -0.8325 -0.9969
  566MOL0     C77990   7.759   7.011  10.589  0.3175 -0.5180 -0.9756
  566MOL0     C77991   7.685   7.154  10.577 -0.0469  0.4004  0.5813
  566MOL0     C77992   7.668   7.192  10.433 -0.4208 -0.6009  0.2920
  566MOL0     C77993   7.786   7.252  10.368  0.0444  0.2028  0.5297
  566MOL0     O77994   7.760   7.289  10.228  0.4903  0.4306 -0.1080
  566MOL0     C77995   7.838   7.387  10.187 -0.6142 -0.1992 -0.4861
  566MOL0     C77996   7.959   7.436  10.244 -0.2950 -0.4977  0.5408
  566MOL0     C77997   8.033   7.548  10.183 -0.7541 -0.1038 -0.1261
  566MOL0     C77998   8.156   7.595  10.259 -0.1147  0.8704  0.2166
  566MOL0     C77999   7.991   7.591  10.052 -0.4719  1.9491  0.0237
  566MOL0     C78000   8.048   7.705   9.977 -0.8227 -0.1742  0.6700
  566MOL0     O78001   7.978   7.746   9.875  0.7240  0.0292  1.0596
  566MOL0     C78002   8.003   7.877   9.835 -0.7841  0.2263  0.0340
  566MOL0     C78003   8.035   7.896   9.695 -0.0770 -0.4742 -1.3197
  566MOL0     C78004   8.035   8.025   9.628  0.3186  0.3599  0.3465
  566MOL0     C78005   8.031   8.138   9.715 -0.4893  0.7314  0.4638
  566MOL0     O78006   8.042   8.260   9.657  0.7383 -0.4397 -0.0098
  566MOL0     C78007   8.022   8.377   9.743 -0.9203  0.4468 -0.0868
  566MOL0     C78008   8.058   8.494   9.651  0.7376  0.4144  0.6111
  566MOL0     C78009   8.016   8.626   9.732  0.5365  0.5545  0.6280
  566MOL0     C78010   8.094   8.744   9.676  0.0181  0.8537  0.3102
  566MOL0     C78011   8.020   8.874   9.651  0.2279 -0.6779 -0.5638
  566MOL0     C78012   7.963   8.921   9.780 -0.0134 -0.4802  0.7739
  566MOL0     C78013   7.892   9.058   9.749 -0.7018 -0.2687 -0.5620
  566MOL0     C78014   7.817   9.117   9.870  0.5864 -0.3549  0.3391
  566MOL0    Cl78015   7.671   9.220   9.825  0.2393  0.0445 -0.0402
  566MOL0     C78016   8.020   8.120   9.858 -0.0898 -0.7314 -0.1008
  566MOL0     C78017   7.978   7.997   9.916 -0.0155  0.1274 -0.7723
  566MOL0     O78018   8.159   7.755  10.003  0.3053 -0.3026  0.3474
  566MOL0     C78019   7.870   7.533  10.000  0.2023  0.1220  0.8762
  566MOL0     C78020   7.798   7.435  10.066 -0.3635 -0.3902 -0.3058
  566MOL0     N78021   7.751   6.912  10.818 -0.0457  0.6085  0.5190
  566MOL0     N78022   7.812   6.918  10.930  0.0588  0.6944  0.6140
  566MOL0     C78023   8.549   6.541  11.316 -0.6869  0.2669  0.1734
  566MOL0     C78024   8.694   6.537  11.308 -0.4451  0.3586  0.9125
  566MOL0     C78025   8.921   6.368  11.496 -0.2839 -0.1249 -0.6511
  566MOL0     C78026   8.846   6.259  11.519 -0.2308 -0.5371  0.5118
  566MOL0     C78027   8.802   6.222  11.649  0.0912  0.1311 -0.7432
  566MOL0     C78028   8.824   6.309  11.755  0.4184 -0.0406 -0.3106
  566MOL0     O78029   8.793   6.282  11.890 -0.1513 -0.0011 -0.0323
  566MOL0     C78030   8.692   6.199  11.920  0.5120  0.5532  0.0685
  566MOL0     C78031   8.669   6.175  12.074 -0.0452 -0.0891 -0.3291
  566MOL0     C78032   8.539   6.092  12.101  0.7513 -0.6202  0.5674
  566MOL0     C78033   8.476   6.134  12.225 -0.4673 -0.7766 -0.9728
  566MOL0     C78034   8.561   6.099  12.337 -0.2867  0.0348  0.9545
  566MOL0     C78035   8.634   6.089  12.440 -0.1767 -0.2404 -0.2043
  566MOL0     C78036   8.888   6.432  11.730  0.2706  0.0190 -0.5436
  566MOL0     C78037   8.945   6.456  11.607 -0.3770 -0.9759  0.8258
  566MOL0     C78038   9.042   6.573  11.594  0.1070  0.8185  0.5279
  566MOL0     H78039   8.718   6.241  11.138 -0.2532 -0.5157  0.6170
  566MOL0     H78040   8.474   6.268  11.133  0.7127  0.3131 -1.3494
  566MOL0     H78041   8.280   6.531  11.433 -1.2502 -0.4669  1.0316
  566MOL0     H78042   8.285   6.355  11.430  2.4866 -0.4175 -1.0273
  566MOL0     H78043   8.109   6.344  11.257 -0.0278 -0.2388 -0.0462
  566MOL0     H78044   8.064   6.425  11.411  0.4385  2.0632 -1.4631
  566MOL0     H78045   8.160   6.586  11.182  0.4442 -1.7455 -1.0698
  566MOL0     H78046   7.990   6.535  11.184  0.3619 -2.3143 -0.2204
  566MOL0     H78047   7.963   6.616  11.421 -3.6654  4.3932 -0.0959
  566MOL0     H78048   8.122   6.703  11.394 -0.3733  2.5792 -1.8421
  566MOL0     H78049   7.908   6.833  11.374 -1.4241 -2.4546  0.1606
  566MOL0     H78050   7.875   6.748  11.228  0.4591  1.6005 -2.0352
  566MOL0     H78051   8.138   6.886  11.217 -0.3817  0.8763  2.1463
  566MOL0     H78052   8.037   6.819  11.097  2.2047 -2.6178  1.6856
  566MOL0     H78053   7.982   7.067  11.268 -0.4733 -0.0053  1.3676
  566MOL0     H78054   7.851   6.985  11.179  0.4062 -3.7175  0.4846
  566MOL0     H78055   7.964   7.179  11.066  0.1493 -0.0427  1.5451
  566MOL0     H78056   8.094   7.081  11.023  0.5371 -0.0030 -0.7702
  566MOL0     H78057   7.976   7.147  10.773  0.0583  0.3860  0.4668
  566MOL0     H78058   7.689   6.928  10.577 -1.3922  0.6776  0.2735
  566MOL0     H78059   7.843   7.008  10.518  0.9236 -0.7449 -0.2591
  566MOL0     H78060   7.593   7.134  10.633  1.1144 -4.4551  1.2567
  566MOL0     H78061   7.742   7.230  10.630  1.6686 -0.0842 -0.4855
  566MOL0     H78062   7.636   7.104  10.376 -1.1853 -0.4159  0.4192
  566MOL0     H78063   7.582   7.259  10.437 -0.2338 -0.1604 -1.7157
  566MOL0     H78064   7.814   7.339  10.429 -0.8071 -0.3952  1.8202
  566MOL0     H78065   7.861   7.174  10.354 -1.9044 -1.5392 -0.6226
  566MOL0     H78066   7.998   7.395  10.336 -0.0314 -0.3239  0.5079
  566MOL0     H78067   8.174   7.525  10.341  1.4543 -0.2478 -1.0345
  566MOL0     H78068   8.150   7.697  10.298  0.8338  1.4906 -1.1975
  566MOL0     H78069   8.249   7.596  10.202 -0.6721 -2.5111 -0.9770
  566MOL0     H78070   8.049   7.802   9.644 -2.0820 -0.7821 -1.3849
  566MOL0     H78071   8.053   8.028   9.521  2.8768 -2.6131  0.5364
  566MOL0     H78072   7.914   8.379   9.762 -0.6257 -0.8761  2.0726
  566MOL0     H78073   8.083   8.377   9.834 -2.3008  2.0909  0.9233
  566MOL0     H78074   8.163   8.488   9.622  0.5880 -3.4861  0.2829
  566MOL0     H78075   8.008   8.482   9.554  1.6402 -1.9917  0.3602
  566MOL0     H78076   8.028   8.621   9.841 -1.4577  0.3819  0.8714
  566MOL0     H78077   7.910   8.638   9.711  0.0877  0.7339  2.7770
  566MOL0     H78078   8.129   8.704   9.581 -0.2335  1.3434  0.0028
  566MOL0     H78079   8.174   8.747   9.750  2.2140  0.9246 -1.9063
  566MOL0     H78080   8.096   8.944   9.613 -2.6348  1.5045 -2.7728
  566MOL0     H78081   7.938   8.878   9.579 -0.8627  0.8690  0.6952
  566MOL0     H78082   8.051   8.929   9.845  1.4707 -1.2960 -1.0502
  566MOL0     H78083   7.890   8.848   9.814  1.4378 -2.1203  0.5217
  566MOL0     H78084   7.832   9.056   9.658 -4.7338  3.9948  1.5774
  566MOL0     H78085   7.974   9.124   9.720 -1.2868  0.3413 -0.8511
  566MOL0     H78086   7.892   9.167   9.932  1.1621 -1.4951  0.5923
  566MOL0     H78087   7.780   9.028   9.922 -1.2352 -0.3267 -0.8251
  566MOL0     H78088   8.023   8.204   9.926  1.4254  1.7678 -3.0308
  566MOL0     H78089   7.948   7.995  10.020 -1.6827  0.9839 -1.2029
  566MOL0     H78090   7.824   7.565   9.907 -2.0425 -0.4637  1.7280
  566MOL0     H78091   7.710   7.386  10.026 -0.6507 -0.8790  0.8878
  566MOL0     H78092   8.497   6.628  11.353  2.5084  2.9704 -1.1825
  566MOL0     H78093   8.748   6.621  11.349  0.6035 -0.6016  1.5585
  566MOL0     H78094   8.819   6.185  11.444 -2.0876 -0.6638  1.2588
  566MOL0     H78095   8.745   6.131  11.663  0.4964  0.1494  1.2050
  566MOL0     H78096   8.602   6.239  11.874  2.6101  1.2420 -3.8195
  566MOL0     H78097   8.719   6.102  11.877 -3.0241 -1.6402  2.2848
  566MOL0     H78098   8.674   6.275  12.119  0.5464 -0.9668  1.6797
  566MOL0     H78099   8.750   6.118  12.121 -0.4570  1.2826  2.2511
  566MOL0     H78100   8.470   6.110  12.018  3.0426 -0.7017 -1.4755
  566MOL0     H78101   8.544   5.983  12.097 -0.7558 -0.6805 -1.1001
  566MOL0     H78102   8.380   6.085  12.241 -0.9927  0.9209  1.6208
  566MOL0     H78103   8.455   6.242  12.230  0.2654 -0.6298 -0.9319
  566MOL0     H78104   8.705   6.081  12.520  0.2477  2.7135 -0.1990
  566MOL0     H78105   8.904   6.494  11.818  1.1281 -1.7710  0.6289
  566MOL0     H78106   9.139   6.531  11.567 -0.7846 -0.1073 -1.4945
  566MOL0     H78107   9.004   6.645  11.521  1.1742  3.1313  2.1269
  566MOL0     H78108   9.046   6.627  11.689  0.1956 -0.7678  1.4468
  567MOL0     O78109   0.307   6.853   2.435 -0.9743 -0.7642 -0.0237
  567MOL0     C78110   0.250   6.955   2.472 -0.6376 -0.2308 -0.4962
  567MOL0     O78111   0.230   6.989   2.608 -0.1251  0.4231  0.8001
  567MOL0     C78112   0.308   6.922   2.697 -0.0250 -0.1300 -0.1729
  567MOL0     C78113   0.403   6.995   2.764 -0.4139 -0.7445  0.4150
  567MOL0     C78114   0.493   6.930   2.857  0.3770  0.4685 -0.2466
  567MOL0     C78115   0.478   6.791   2.887 -0.4771 -0.0954 -0.3769
  567MOL0     O78116   0.587   6.731   2.953  1.1135 -0.4264  0.4859
  567MOL0     C78117   0.609   6.590   2.927  0.3660  0.3556  0.4272
  567MOL0     C78118   0.740   6.568   2.850 -0.0503  0.3076 -0.0440
  567MOL0     C78119   0.852   6.641   2.929 -0.3371 -1.0043  0.3079
  567MOL0     C78120   0.992   6.615   2.860 -0.0989  0.3214 -0.0693
  567MOL0     C78121   1.118   6.669   2.941 -0.0432 -0.4746  0.7361
  567MOL0     C78122   1.105   6.821   2.929 -0.7210 -0.3106  0.1189
  567MOL0     C78123   1.235   6.897   2.977  0.1363 -0.8284  1.0012
  567MOL0     C78124   1.355   6.883   2.885 -0.7017 -0.8050  0.0396
  567MOL0     N78125   1.370   6.997   2.795 -0.0703 -0.0063  0.0345
  567MOL0     C78126   1.406   7.125   2.821  0.4530 -0.7177 -0.1567
  567MOL0     C78127   1.394   7.198   2.709 -0.5832  0.4675 -0.1448
  567MOL0     C78128   1.407   7.346   2.686 -0.4057  1.0886  0.0464
  567MOL0     C78129   1.302   7.383   2.584 -0.1662 -0.4489 -0.6002
  567MOL0     C78130   1.306   7.530   2.558 -0.3774  0.7662  0.0370
  567MOL0     C78131   1.234   7.629   2.639 -0.0789 -0.4585 -0.2726
  567MOL0     O78132   1.241   7.761   2.573 -0.3225 -0.1967 -0.5886
  567MOL0     C78133   1.161   7.856   2.621  0.2086 -0.0279  0.3104
  567MOL0     C78134   1.187   7.989   2.579 -0.0434  1.0781 -0.7721
  567MOL0     C78135   1.119   8.101   2.636  0.1792 -1.1355  0.0985
  567MOL0     C78136   1.139   8.238   2.574 -0.2839  0.3637  0.0352
  567MOL0     C78137   1.020   8.075   2.736  0.3508  0.1458  0.4803
  567MOL0     C78138   0.949   8.189   2.805 -0.1863  0.1595  0.2047
  567MOL0     O78139   0.997   8.321   2.811  0.5213 -0.1380 -0.0285
  567MOL0     C78140   0.918   8.423   2.865  0.2034  0.5647  1.0965
  567MOL0     C78141   0.858   8.508   2.773 -0.6817 -0.3303  0.3018
  567MOL0     C78142   0.780   8.605   2.833 -0.0966 -0.7475  0.7049
  567MOL0     C78143   0.778   8.646   2.961  0.1552  0.4454  0.1750
  567MOL0     O78144   0.735   8.771   3.004  0.1083  0.3378  1.2829
  567MOL0     C78145   0.683   8.790   3.135 -0.5747 -0.2816  0.5067
  567MOL0     C78146   0.599   8.918   3.158  0.0605 -0.7173  0.3335
  567MOL0     C78147   0.581   8.947   3.307  0.1075  0.2670 -0.4098
  567MOL0     C78148   0.459   9.044   3.334 -0.2860  0.2341  0.4914
  567MOL0     C78149   0.325   8.974   3.308 -0.2700 -0.8108 -0.9078
  567MOL0     C78150   0.297   8.850   3.391 -0.4021 -0.6559 -0.2166
  567MOL0     C78151   0.150   8.803   3.369  0.3720 -0.3506  0.2518
  567MOL0     C78152   0.128   8.683   3.277 -0.1043 -0.2327 -0.2322
  567MOL0    Cl78153   0.176   8.537   3.366  0.0712 -0.6201  0.1949
  567MOL0     C78154   0.850   8.562   3.053  0.5536 -0.2348 -0.1344
  567MOL0     C78155   0.914   8.447   3.004 -0.3801  0.9949  0.5596
  567MOL0     O78156   0.842   8.158   2.856  0.4811 -0.4441 -0.4719
  567MOL0     C78157   0.985   7.938   2.765 -0.2574 -0.0595 -0.3445
  567MOL0     C78158   1.059   7.835   2.712 -0.7040  0.5533  0.0396
  567MOL0     N78159   1.351   7.109   2.606  0.0918 -0.0617 -0.1119
  567MOL0     N78160   1.325   6.995   2.668 -0.4913 -0.3358 -0.7017
  567MOL0     C78161   0.370   6.721   2.821 -0.0865  0.4624 -0.6519
  567MOL0     C78162   0.278   6.796   2.737  0.3401  0.4824 -0.2166
  567MOL0     C78163   0.198   7.052   2.367 -0.3182 -0.3216 -0.5606
  567MOL0     C78164   0.091   7.132   2.412  0.6421  0.1524  0.4954
  567MOL0     C78165   0.046   7.237   2.335 -0.4238 -0.1582 -0.8079
  567MOL0     C78166   0.094   7.264   2.204 -0.5183  0.2332 -0.8694
  567MOL0     O78167   0.023   7.359   2.142  0.5063  0.1655  0.4878
  567MOL0     C78168   0.089   7.423   2.031  0.7708  0.6420 -0.3713
  567MOL0     C78169   0.019   7.551   2.013  0.5434  0.3352  0.5320
  567MOL0     C78170   0.065   7.614   1.879  0.3770 -0.8591 -0.2224
  567MOL0     C78171  -0.018   7.551   1.767  0.5638 -0.1135 -0.1729
  567MOL0     C78172   0.002   7.610   1.638  0.6056 -0.9746 -1.1456
  567MOL0     C78173   0.022   7.656   1.531  0.6916 -0.7284  0.1776
  567MOL0     C78174   0.206   7.179   2.158  0.4971 -0.4583  0.1774
  567MOL0     C78175   0.265   7.081   2.241  0.6210  0.0481 -0.1375
  567MOL0     C78176   0.375   6.995   2.183  0.7473 -0.6780 -0.4162
  567MOL0     H78177   0.410   7.100   2.739  1.4634 -0.0845  3.2527
  567MOL0     H78178   0.576   6.977   2.909  1.0943 -1.8341  0.8121
  567MOL0     H78179   0.523   6.540   2.881  1.2943 -2.2148  1.3088
  567MOL0     H78180   0.612   6.550   3.029 -3.2788  0.3449  0.6466
  567MOL0     H78181   0.738   6.458   2.845 -2.9198  0.2202  1.0813
  567MOL0     H78182   0.732   6.608   2.748 -0.0460  1.3360  0.3554
  567MOL0     H78183   0.824   6.747   2.936 -3.4185 -1.7240  0.0914
  567MOL0     H78184   0.858   6.598   3.029  0.5959  2.1199  1.7522
  567MOL0     H78185   1.006   6.507   2.851  0.5000  0.0883  2.6869
  567MOL0     H78186   0.991   6.661   2.761  0.7309  1.7304  0.5396
  567MOL0     H78187   1.198   6.631   2.877 -1.9591 -2.3287 -0.7376
  567MOL0     H78188   1.112   6.633   3.044 -0.1132 -2.7624 -0.0090
  567MOL0     H78189   1.078   6.848   2.827 -0.6482  0.9094  0.4068
  567MOL0     H78190   1.025   6.863   2.991 -0.2701  4.5406 -2.1379
  567MOL0     H78191   1.261   6.859   3.076 -1.8235 -0.2668  1.7865
  567MOL0     H78192   1.203   7.001   2.990  0.7894 -0.8689  3.3957
  567MOL0     H78193   1.450   6.892   2.938  0.5305 -2.4983 -1.7268
  567MOL0     H78194   1.365   6.788   2.831 -1.6649  0.8764 -3.4145
  567MOL0     H78195   1.432   7.157   2.922 -1.7215 -0.6627  0.4303
  567MOL0     H78196   1.507   7.371   2.648 -1.0538 -1.4892 -3.9190
  567MOL0     H78197   1.386   7.397   2.780 -3.7631 -0.0436  0.0507
  567MOL0     H78198   1.319   7.335   2.487  0.7861 -0.6947 -0.3267
  567MOL0     H78199   1.201   7.357   2.615 -0.4156 -0.8830 -1.7413
  567MOL0     H78200   1.412   7.559   2.556 -0.9345  3.0184  1.0433
  567MOL0     H78201   1.268   7.545   2.457 -2.0797 -0.0592  0.5184
  567MOL0     H78202   1.132   7.599   2.664 -0.6504  1.2215 -0.4339
  567MOL0     H78203   1.282   7.647   2.736 -0.4284 -1.7562  0.1645
  567MOL0     H78204   1.272   7.988   2.512  1.1206  0.0518  0.6447
  567MOL0     H78205   1.202   8.227   2.485 -0.7624 -0.5308 -0.2143
  567MOL0     H78206   1.188   8.295   2.652  0.8177  0.7131 -0.8853
  567MOL0     H78207   1.040   8.281   2.556 -0.3676 -0.4491 -1.7361
  567MOL0     H78208   0.848   8.505   2.665 -0.5534  0.6107  0.2565
  567MOL0     H78209   0.726   8.669   2.763  1.4713  2.2205  1.9974
  567MOL0     H78210   0.623   8.703   3.163 -1.2854  0.7753  2.4473
  567MOL0     H78211   0.770   8.795   3.202  1.2901 -0.7641 -1.7109
  567MOL0     H78212   0.654   8.999   3.108 -0.1461 -1.2173 -0.7239
  567MOL0     H78213   0.501   8.911   3.110 -0.9379 -1.6049  2.3688
  567MOL0     H78214   0.663   9.005   3.349 -0.3814 -1.1023  2.6693
  567MOL0     H78215   0.586   8.864   3.378  0.2429  2.6516  2.5740
  567MOL0     H78216   0.462   9.133   3.270 -3.9677 -0.5944 -1.1629
  567MOL0     H78217   0.449   9.090   3.432 -1.4930  0.8521  0.1030
  567MOL0     H78218   0.247   9.038   3.350 -0.3499 -2.2850  1.3850
  567MOL0     H78219   0.303   8.974   3.201 -4.6299  3.3726 -0.3342
  567MOL0     H78220   0.311   8.875   3.497 -0.3246 -1.7500  0.0420
  567MOL0     H78221   0.366   8.771   3.358 -0.5488 -0.7466 -0.3039
  567MOL0     H78222   0.094   8.890   3.332  0.9463  0.0713  0.3637
  567MOL0     H78223   0.105   8.771   3.463 -0.1306  0.1103  0.1718
  567MOL0     H78224   0.179   8.696   3.181  2.1002  2.7711  1.2091
  567MOL0     H78225   0.022   8.666   3.254  0.4558 -2.8255 -1.3147
  567MOL0     H78226   0.872   8.599   3.152 -0.7194  1.7221 -0.5142
  567MOL0     H78227   0.967   8.390   3.080 -1.5860 -0.8232  0.1162
  567MOL0     H78228   0.906   7.917   2.837 -1.0392  0.7651 -0.9426
  567MOL0     H78229   1.038   7.737   2.752  0.0921  0.4023  0.0909
  567MOL0     H78230   0.351   6.614   2.827  0.4907  0.3905  0.0368
  567MOL0     H78231   0.194   6.742   2.695  1.5857 -0.8087 -1.1110
  567MOL0     H78232   0.045   7.109   2.508 -2.0168 -1.8934 -1.1420
  567MOL0     H78233  -0.036   7.291   2.381  1.9220  1.7005  1.4698
  567MOL0     H78234   0.192   7.449   2.059 -0.0349  1.3240  2.2839
  567MOL0     H78235   0.098   7.366   1.938  0.2007 -0.0781  0.0040
  567MOL0     H78236   0.040   7.629   2.087  1.0530 -1.2428  2.0984
  567MOL0     H78237  -0.090   7.547   2.020  0.3255  3.8344  1.2962
  567MOL0     H78238   0.030   7.717   1.888 -1.0569 -1.2910 -0.5935
  567MOL0     H78239   0.174   7.612   1.865  0.4331  1.6204 -0.5802
  567MOL0     H78240  -0.122   7.557   1.798  0.5655 -0.1916 -0.1536
  567MOL0     H78241   0.008   7.446   1.748  0.5095 -0.3791  1.1202
  567MOL0     H78242   0.039   7.699   1.434 -0.7479  0.7159  0.5090
  567MOL0     H78243   0.247   7.199   2.059 -0.7331  4.3320  0.3597
  567MOL0     H78244   0.356   6.888   2.197 -3.0241 -0.0451  0.6330
  567MOL0     H78245   0.379   7.013   2.075  0.1475  4.4017  0.1703
  567MOL0     H78246   0.469   7.024   2.229 -0.1060 -0.3600  1.2043
  568MOL0     O78247   9.778   5.186   5.879  0.4115 -0.5421  1.3797
  568MOL0     C78248   9.677   5.125   5.850  0.4543 -0.1337 -0.0438
  568MOL0     O78249   9.550   5.167   5.868  0.2476 -0.7065 -0.2004
  568MOL0     C78250   9.525   5.287   5.938 -0.2666 -0.6652  1.0111
  568MOL0     C78251   9.481   5.298   6.076 -0.1474  0.5737  0.6971
  568MOL0     C78252   9.468   5.422   6.144  0.7393 -0.0273 -0.4842
  568MOL0     C78253   9.490   5.534   6.063 -0.8743 -0.3518  0.1860
  568MOL0     O78254   9.458   5.661   6.120 -0.2760 -0.2954  0.2443
  568MOL0     C78255   9.540   5.702   6.223  0.1948  0.7169  0.3509
  568MOL0     C78256   9.452   5.779   6.308 -0.2062 -0.3074  0.1686
  568MOL0     C78257   9.524   5.847   6.427 -0.4473 -0.5245  0.0708
  568MOL0     C78258   9.415   5.895   6.528 -0.4947 -0.5554 -0.9071
  568MOL0     C78259   9.367   6.038   6.519 -0.5327  0.0448 -0.7851
  568MOL0     C78260   9.293   6.069   6.384  0.4242 -0.5136 -0.8474
  568MOL0     C78261   9.247   6.218   6.398  1.1810 -0.3358  0.5951
  568MOL0     C78262   9.201   6.252   6.261 -0.2525 -1.2466 -0.1413
  568MOL0     N78263   9.190   6.402   6.248  0.2014  0.6619  0.3353
  568MOL0     C78264   9.079   6.470   6.290 -0.8571  0.8908  0.2014
  568MOL0     C78265   9.098   6.592   6.237 -0.0912  1.3860  0.5827
  568MOL0     C78266   9.013   6.717   6.250 -0.2285 -0.5256 -0.1356
  568MOL0     C78267   8.910   6.722   6.140  1.1582 -0.5765 -0.0130
  568MOL0     C78268   8.878   6.869   6.132 -0.2974  0.6436 -0.2060
  568MOL0     C78269   8.787   6.876   6.014  0.1306  0.4175 -0.2700
  568MOL0     O78270   8.744   7.012   5.993  0.2652  0.2465  0.2554
  568MOL0     C78271   8.657   7.022   5.891 -0.0625  0.4996 -0.8439
  568MOL0     C78272   8.521   7.045   5.941  0.4835 -0.6414  0.3966
  568MOL0     C78273   8.420   7.047   5.839  0.1468  0.2147  0.3583
  568MOL0     C78274   8.275   7.051   5.884 -0.0665  0.3179 -0.6565
  568MOL0     C78275   8.455   7.061   5.696 -0.4820 -0.8041 -0.4541
  568MOL0     C78276   8.364   7.092   5.586  0.1000 -0.6938  0.6423
  568MOL0     O78277   8.259   7.176   5.613 -0.4443 -0.5360 -0.3082
  568MOL0     C78278   8.180   7.225   5.515 -0.6383 -0.4955  0.6059
  568MOL0     C78279   8.214   7.316   5.419 -0.0955 -0.4462  0.7993
  568MOL0     C78280   8.113   7.346   5.314  0.0235  0.3652 -0.7545
  568MOL0     C78281   7.978   7.299   5.329  0.4531  0.1615  0.3627
  568MOL0     O78282   7.895   7.334   5.224 -0.6195  0.0060 -0.6235
  568MOL0     C78283   7.852   7.463   5.232  0.1075 -0.2119 -0.5494
  568MOL0     C78284   7.702   7.471   5.226  1.1409  0.3357 -0.0651
  568MOL0     C78285   7.650   7.613   5.209  0.4392 -0.4390  0.0434
  568MOL0     C78286   7.497   7.602   5.202  0.3717  0.7833  0.2115
  568MOL0     C78287   7.435   7.740   5.255  0.1711  0.3123  0.8307
  568MOL0     C78288   7.279   7.726   5.269 -0.4302  0.3192 -0.0552
  568MOL0     C78289   7.225   7.847   5.347 -0.3369  0.0626  0.3967
  568MOL0     C78290   7.262   7.837   5.494  0.5903 -0.5057 -0.1606
  568MOL0    Cl78291   7.107   7.882   5.590  0.3990  0.0486  0.0600
  568MOL0     C78292   7.942   7.230   5.439 -0.1153  1.1549  0.1033
  568MOL0     C78293   8.045   7.185   5.520  0.2225  0.1751 -0.8316
  568MOL0     O78294   8.373   7.030   5.484 -1.2708  0.6881  0.3463
  568MOL0     C78295   8.590   7.046   5.659  0.2300  0.6721 -0.7236
  568MOL0     C78296   8.690   7.015   5.754  0.2328 -0.2288  0.9360
  568MOL0     N78297   9.219   6.601   6.170  0.2659 -0.0743 -0.0646
  568MOL0     N78298   9.275   6.484   6.183  0.0656 -0.0928  1.0008
  568MOL0     C78299   9.503   5.526   5.924 -0.3723 -0.1399 -1.0566
  568MOL0     C78300   9.538   5.402   5.872 -1.0254 -0.3217 -0.3546
  568MOL0     C78301   9.673   5.006   5.768 -0.0626 -0.1610  0.9865
  568MOL0     C78302   9.561   4.921   5.764  0.5253  0.1338  0.2559
  568MOL0     C78303   9.558   4.810   5.688  0.4966  1.0294  0.7810
  568MOL0     C78304   9.649   4.790   5.588 -0.1513  0.3200 -0.1256
  568MOL0     O78305   9.630   4.698   5.485 -0.4681 -0.5007 -0.6427
  568MOL0     C78306   9.502   4.644   5.457  0.3121 -0.5172  0.3476
  568MOL0     C78307   9.450   4.693   5.317 -0.7478 -0.0496 -0.2468
  568MOL0     C78308   9.335   4.797   5.324 -0.1302  0.5604  0.3111
  568MOL0     C78309   9.298   4.836   5.181 -0.2201 -0.2587  0.0795
  568MOL0     C78310   9.249   4.729   5.110  0.7112 -0.4170  0.5423
  568MOL0     C78311   9.197   4.629   5.061  0.4837  0.2586 -0.2707
  568MOL0     C78312   9.767   4.867   5.590 -0.3995 -0.0211 -0.8516
  568MOL0     C78313   9.788   4.977   5.686 -0.1012  0.6470  0.1279
  568MOL0     C78314   9.919   5.054   5.682  0.8166  0.6617 -0.3385
  568MOL0     H78315   9.465   5.207   6.133  3.2945 -0.8233 -0.3216
  568MOL0     H78316   9.459   5.432   6.252 -1.4687  1.3846 -0.7432
  568MOL0     H78317   9.629   5.752   6.184  2.1308 -2.4487  0.3176
  568MOL0     H78318   9.584   5.620   6.281 -2.7074 -1.4498 -0.2967
  568MOL0     H78319   9.397   5.851   6.246  0.5239 -0.3623 -0.5569
  568MOL0     H78320   9.382   5.711   6.357  0.5980  1.2185  3.7218
  568MOL0     H78321   9.585   5.770   6.475  1.9494 -0.1079 -2.0706
  568MOL0     H78322   9.585   5.930   6.390 -0.2161  0.4954  2.5090
  568MOL0     H78323   9.335   5.821   6.524 -0.0011 -1.1132 -0.6465
  568MOL0     H78324   9.462   5.884   6.626  0.8208 -0.4495 -1.5034
  568MOL0     H78325   9.462   6.093   6.522  0.3868 -1.4199 -1.6211
  568MOL0     H78326   9.308   6.061   6.608  2.1687  2.9036  0.4777
  568MOL0     H78327   9.369   6.056   6.306 -0.6865  0.5319 -2.1589
  568MOL0     H78328   9.211   6.001   6.359  1.0691 -1.4790 -0.4044
  568MOL0     H78329   9.333   6.272   6.438  0.1137 -0.6106  3.5039
  568MOL0     H78330   9.161   6.227   6.465 -0.5572 -1.7645 -1.3208
  568MOL0     H78331   9.274   6.217   6.187  1.7352 -1.6501  1.8743
  568MOL0     H78332   9.107   6.201   6.243 -1.1213  0.4387 -0.5940
  568MOL0     H78333   9.000   6.430   6.352  0.2843 -3.4089 -0.7626
  568MOL0     H78334   9.083   6.799   6.229  0.2114 -1.6635 -3.9307
  568MOL0     H78335   8.971   6.729   6.350  1.5652  2.4145  0.3846
  568MOL0     H78336   8.960   6.675   6.055 -0.7478  1.9567 -2.7291
  568MOL0     H78337   8.821   6.662   6.164  1.1066 -1.3387 -1.9076
  568MOL0     H78338   8.834   6.906   6.224 -2.7312 -1.4893 -0.3840
  568MOL0     H78339   8.958   6.940   6.113  0.5452 -0.2316 -0.0230
  568MOL0     H78340   8.848   6.841   5.931  0.8586  0.9301  0.0358
  568MOL0     H78341   8.702   6.808   6.016 -0.3138  0.9809  1.2973
  568MOL0     H78342   8.490   7.053   6.045  0.5702  4.4813  0.2661
  568MOL0     H78343   8.241   6.951   5.913 -2.0447  1.0473 -0.2851
  568MOL0     H78344   8.214   7.097   5.805 -1.9643 -0.6320  0.1722
  568MOL0     H78345   8.263   7.113   5.973 -1.5723 -0.3223 -0.3759
  568MOL0     H78346   8.315   7.353   5.408  1.4326 -4.8389 -3.8605
  568MOL0     H78347   8.125   7.405   5.223  1.4534  1.5978  0.1752
  568MOL0     H78348   7.880   7.510   5.327  0.5176 -0.1439 -0.6998
  568MOL0     H78349   7.892   7.522   5.149 -2.6448 -1.5886 -3.0478
  568MOL0     H78350   7.660   7.406   5.149  0.2248 -0.5679  1.1516
  568MOL0     H78351   7.660   7.429   5.318 -0.7627  3.3933  0.5953
  568MOL0     H78352   7.700   7.649   5.118  0.9412 -0.4361  0.3171
  568MOL0     H78353   7.683   7.676   5.293  0.2151  1.2830 -1.1011
  568MOL0     H78354   7.461   7.522   5.268 -0.7494  2.7198  2.0656
  568MOL0     H78355   7.467   7.574   5.101 -2.4087 -1.6222  1.5269
  568MOL0     H78356   7.485   7.775   5.346  0.7722 -0.5001  0.8240
  568MOL0     H78357   7.465   7.825   5.193  3.3553 -1.0116  0.3288
  568MOL0     H78358   7.244   7.631   5.311  1.2679 -1.0184 -1.5135
  568MOL0     H78359   7.235   7.724   5.168  0.2220  2.2110 -0.4054
  568MOL0     H78360   7.116   7.846   5.340 -0.3606  2.8334 -5.1459
  568MOL0     H78361   7.253   7.931   5.284  2.2731 -3.5849 -3.9189
  568MOL0     H78362   7.350   7.898   5.515 -1.1490  1.4181  2.2595
  568MOL0     H78363   7.298   7.738   5.520  0.6578 -0.1386  1.2296
  568MOL0     H78364   7.846   7.179   5.441  0.2271  0.4313  3.2177
  568MOL0     H78365   8.013   7.122   5.602  2.0546  0.7069  0.3761
  568MOL0     H78366   8.612   7.041   5.553  1.8888 -2.0831 -0.3470
  568MOL0     H78367   8.788   6.991   5.714 -0.3795 -0.3090 -0.6227
  568MOL0     H78368   9.502   5.614   5.860  0.2198 -0.0720 -0.9754
  568MOL0     H78369   9.576   5.376   5.773  0.0528 -4.0853  0.9006
  568MOL0     H78370   9.474   4.943   5.825  2.9372  1.4455  3.5353
  568MOL0     H78371   9.483   4.732   5.699  0.5216  0.8062 -0.5526
  568MOL0     H78372   9.521   4.536   5.454  2.2367 -0.2101 -0.1255
  568MOL0     H78373   9.419   4.660   5.525  0.1579 -3.6505  1.0496
  568MOL0     H78374   9.408   4.598   5.282  1.7035 -1.4940  0.4945
  568MOL0     H78375   9.527   4.718   5.243  1.7732  0.7886  2.4499
  568MOL0     H78376   9.246   4.785   5.387 -0.1727  3.8605  1.0904
  568MOL0     H78377   9.383   4.884   5.370  2.4376  0.0400 -1.1803
  568MOL0     H78378   9.384   4.874   5.124  0.1703 -1.8892 -0.4817
  568MOL0     H78379   9.232   4.923   5.189 -1.0889 -0.8227 -0.7310
  568MOL0     H78380   9.177   4.538   5.007  1.4979  1.1440 -2.2380
  568MOL0     H78381   9.845   4.863   5.515  2.3467  0.9552  1.7159
  568MOL0     H78382   9.968   5.047   5.779  0.5173 -1.3112 -0.2795
  568MOL0     H78383   9.980   5.031   5.593  0.2568 -2.0583 -0.1080
  568MOL0     H78384   9.898   5.161   5.675  1.8499  1.0036  1.3726
  569MOL0     O78385   3.066   4.655   4.248 -0.1042 -0.2499 -0.6496
  569MOL0     C78386   3.115   4.643   4.136 -0.0403 -0.1754 -0.1049
  569MOL0     O78387   3.080   4.546   4.039  1.0823  0.4964 -0.2607
  569MOL0     C78388   2.973   4.468   4.071 -0.1734 -0.1507 -0.3248
  569MOL0     C78389   2.846   4.508   4.071  1.2214 -0.6887 -0.4936
  569MOL0     C78390   2.751   4.424   4.123  0.3637 -0.0190 -0.2872
  569MOL0     C78391   2.782   4.302   4.176  0.0787  0.1111  0.0160
  569MOL0     O78392   2.675   4.236   4.235 -0.1362  0.4986 -1.1942
  569MOL0     C78393   2.712   4.102   4.271 -0.6808  0.7411 -0.1736
  569MOL0     C78394   2.572   4.036   4.311 -1.5176  0.3314 -0.4036
  569MOL0     C78395   2.527   4.078   4.446 -0.5519 -0.5067  0.2554
  569MOL0     C78396   2.383   4.039   4.476 -1.0319 -0.2020 -0.6420
  569MOL0     C78397   2.322   4.088   4.611 -0.1373  1.1648 -0.6680
  569MOL0     C78398   2.377   3.999   4.723  0.6822  0.3383 -0.5123
  569MOL0     C78399   2.348   4.041   4.864  0.6502  0.0647 -0.7114
  569MOL0     C78400   2.208   3.986   4.910  0.5457  0.5770  0.1198
  569MOL0     N78401   2.123   4.088   4.985 -0.1878  0.1337  0.6279
  569MOL0     C78402   2.107   4.081   5.119 -0.2989 -1.0779 -0.9189
  569MOL0     C78403   2.051   4.201   5.145  0.4258  0.0938  0.5753
  569MOL0     C78404   2.034   4.255   5.290  0.4249  0.3155 -0.6903
  569MOL0     C78405   2.154   4.257   5.383 -0.9971 -0.4152  0.3524
  569MOL0     C78406   2.136   4.376   5.477 -0.9439  0.3778  0.0598
  569MOL0     C78407   2.153   4.511   5.414 -0.2998  0.7186 -0.4250
  569MOL0     O78408   2.127   4.624   5.505 -0.4908 -0.0401 -0.2813
  569MOL0     C78409   2.226   4.699   5.565  0.2851  0.6868  0.0053
  569MOL0     C78410   2.207   4.830   5.612 -0.0217 -0.4481 -0.5044
  569MOL0     C78411   2.311   4.894   5.684  0.7762 -0.4261  0.0919
  569MOL0     C78412   2.270   5.038   5.725 -0.1788 -0.7306  0.3768
  569MOL0     C78413   2.422   4.821   5.731 -0.3641  0.8822 -0.3505
  569MOL0     C78414   2.508   4.869   5.835 -0.3999 -0.5552  0.6429
  569MOL0     O78415   2.599   4.779   5.884  0.0999 -0.2950 -0.5621
  569MOL0     C78416   2.683   4.817   5.994  0.4990  0.5342 -0.0760
  569MOL0     C78417   2.641   4.826   6.134  0.1605  1.2949  0.2151
  569MOL0     C78418   2.724   4.871   6.241 -0.4623  0.8508  0.6219
  569MOL0     C78419   2.849   4.926   6.209 -0.7059 -0.3415  1.0538
  569MOL0     O78420   2.940   4.989   6.291 -0.2013  0.6664  0.1509
  569MOL0     C78421   2.875   5.034   6.418  0.5542  0.9549  0.3033
  569MOL0     C78422   2.980   5.139   6.472  0.3226  0.2461 -0.2034
  569MOL0     C78423   2.905   5.265   6.532 -0.2230  1.2405 -0.0423
  569MOL0     C78424   2.895   5.269   6.682  0.7138 -1.1468  0.5037
  569MOL0     C78425   2.833   5.398   6.734 -0.0972 -0.3113  1.0797
  569MOL0     C78426   2.775   5.386   6.878 -0.0335 -0.6201 -0.3302
  569MOL0     C78427   2.864   5.331   6.991  0.1669  0.9434 -0.8398
  569MOL0     C78428   2.797   5.344   7.124 -0.4992  0.1733  0.3967
  569MOL0    Cl78429   2.652   5.244   7.130 -0.0746  0.1803 -0.1022
  569MOL0     C78430   2.889   4.919   6.072 -0.3535 -0.0038 -0.8811
  569MOL0     C78431   2.813   4.854   5.966 -0.6944  0.4963  0.6528
  569MOL0     O78432   2.515   4.986   5.862  0.1343 -0.9493  0.3768
  569MOL0     C78433   2.442   4.691   5.677  0.0010 -0.1072 -0.3087
  569MOL0     C78434   2.346   4.645   5.592  0.2863  0.7277 -0.0355
  569MOL0     N78435   2.029   4.282   5.027 -0.3403  0.3909 -0.0790
  569MOL0     N78436   2.072   4.201   4.937 -0.7150  0.3772  1.2067
  569MOL0     C78437   2.915   4.264   4.180 -0.0132  0.4808 -0.4452
  569MOL0     C78438   3.016   4.345   4.124 -0.0482  0.2960  0.5745
  569MOL0     C78439   3.208   4.745   4.096 -0.4349 -0.9593 -1.4095
  569MOL0     C78440   3.347   4.717   4.117  0.3702 -0.7653  0.4360
  569MOL0     C78441   3.436   4.821   4.097  0.2638 -0.2513  0.0429
  569MOL0     C78442   3.400   4.950   4.062  0.4530 -0.0574 -0.0785
  569MOL0     O78443   3.488   5.055   4.033  0.2359 -0.5993  0.0157
  569MOL0     C78444   3.500   5.160   4.129 -0.3266 -0.3861  0.3575
  569MOL0     C78445   3.635   5.165   4.207 -0.9041  0.0039  1.1791
  569MOL0     C78446   3.758   5.242   4.141  0.1556 -0.1297 -0.3346
  569MOL0     C78447   3.815   5.185   4.009  0.0760  0.9204  0.7295
  569MOL0     C78448   3.891   5.059   4.018  0.4957 -0.0106  0.2118
  569MOL0     C78449   3.957   4.961   4.025 -0.9378 -0.3147 -0.4441
  569MOL0     C78450   3.264   4.971   4.043  0.0264  0.7559  1.4362
  569MOL0     C78451   3.169   4.874   4.060 -0.0215 -0.3361  0.6430
  569MOL0     C78452   3.019   4.901   4.049 -0.5115  0.9547 -0.3760
  569MOL0     H78453   2.809   4.602   4.030 -2.0041 -0.2120  2.9128
  569MOL0     H78454   2.648   4.457   4.114 -0.1953 -0.6182  2.7500
  569MOL0     H78455   2.770   4.100   4.364 -2.2066 -1.6492  0.8121
  569MOL0     H78456   2.768   4.049   4.194  0.3513 -0.2126  1.1833
  569MOL0     H78457   2.506   4.065   4.228 -0.3660  1.5863 -0.9276
  569MOL0     H78458   2.576   3.926   4.307 -0.4415  0.3852 -1.9712
  569MOL0     H78459   2.598   4.037   4.519 -1.8555 -0.0597  1.8166
  569MOL0     H78460   2.533   4.186   4.463 -1.0046 -0.4315 -0.0423
  569MOL0     H78461   2.319   4.085   4.400 -1.5082  0.8536  0.3645
  569MOL0     H78462   2.378   3.930   4.473 -0.2147 -0.3054  0.7273
  569MOL0     H78463   2.214   4.072   4.607 -0.0708  0.2427  0.7007
  569MOL0     H78464   2.341   4.194   4.632 -0.1233  1.1520 -0.6151
  569MOL0     H78465   2.340   3.898   4.699 -3.3676  1.7719 -1.0255
  569MOL0     H78466   2.485   3.996   4.709  0.8530 -3.7338  0.3284
  569MOL0     H78467   2.358   4.149   4.875  1.8648 -0.1712  0.7862
  569MOL0     H78468   2.409   3.991   4.940 -3.4100 -1.0031  2.2244
  569MOL0     H78469   2.167   3.950   4.815  1.4449  0.5825 -0.2774
  569MOL0     H78470   2.239   3.900   4.970  3.0875 -0.2190 -2.1689
  569MOL0     H78471   2.122   3.998   5.187 -4.3646 -0.9583  0.3675
  569MOL0     H78472   1.966   4.176   5.322 -0.3059  1.1129 -0.2276
  569MOL0     H78473   1.969   4.343   5.290 -0.4657 -0.3257 -0.9018
  569MOL0     H78474   2.149   4.163   5.437  0.8333 -0.4836  0.4884
  569MOL0     H78475   2.247   4.270   5.326 -1.6057  0.1294 -0.5442
  569MOL0     H78476   2.029   4.388   5.497 -0.3886 -0.8860  5.4947
  569MOL0     H78477   2.192   4.384   5.571  0.3283 -2.7879 -0.3181
  569MOL0     H78478   2.253   4.512   5.369 -0.0344 -0.0394  0.1301
  569MOL0     H78479   2.088   4.509   5.326  1.7261 -0.8957 -1.9994
  569MOL0     H78480   2.114   4.880   5.589  0.5027  0.1367 -1.4224
  569MOL0     H78481   2.173   5.063   5.682 -0.4224 -0.5818  1.0037
  569MOL0     H78482   2.355   5.094   5.683 -0.3085 -0.1053  0.9373
  569MOL0     H78483   2.259   5.050   5.833  1.8184 -4.0230  1.1055
  569MOL0     H78484   2.544   4.791   6.168  0.9124 -3.9558 -2.0635
  569MOL0     H78485   2.690   4.876   6.344  1.4259 -1.0730  1.4167
  569MOL0     H78486   2.774   5.075   6.417 -0.0233 -0.0840  3.4241
  569MOL0     H78487   2.869   4.951   6.488  0.3492  1.3753  0.7925
  569MOL0     H78488   3.047   5.107   6.553 -0.1038  0.0709  0.0872
  569MOL0     H78489   3.035   5.175   6.385 -1.3799  0.9788 -1.0247
  569MOL0     H78490   2.810   5.271   6.479  1.8461 -0.3213 -4.4601
  569MOL0     H78491   2.974   5.344   6.499  0.2345  1.5130  1.4609
  569MOL0     H78492   2.994   5.256   6.727  0.3780 -1.2073  1.2412
  569MOL0     H78493   2.823   5.190   6.708 -1.0300  0.0000 -0.5961
  569MOL0     H78494   2.922   5.462   6.730 -1.7597  2.1979 -3.9269
  569MOL0     H78495   2.755   5.436   6.668  1.1312 -1.4937 -1.2028
  569MOL0     H78496   2.698   5.309   6.875 -0.2683 -0.4263  0.4987
  569MOL0     H78497   2.742   5.487   6.906  2.1224  1.2593 -3.7778
  569MOL0     H78498   2.959   5.383   7.004 -0.6295  2.7240 -1.7733
  569MOL0     H78499   2.882   5.226   6.966 -0.5464  0.6316 -0.1013
  569MOL0     H78500   2.762   5.446   7.145  0.9740  1.1963 -1.7032
  569MOL0     H78501   2.857   5.295   7.201 -1.4296 -2.2765 -0.3436
  569MOL0     H78502   2.978   4.976   6.048 -0.4133 -0.9655 -3.7752
  569MOL0     H78503   2.861   4.864   5.870 -0.2862 -0.0593  0.7922
  569MOL0     H78504   2.546   4.660   5.685  1.2743  3.7442 -0.1085
  569MOL0     H78505   2.366   4.552   5.541 -0.8837  1.8524 -2.7522
  569MOL0     H78506   2.950   4.169   4.220 -1.7573  0.5399  1.3424
  569MOL0     H78507   3.121   4.321   4.135  1.1707  1.8315 -4.7059
  569MOL0     H78508   3.363   4.629   4.179 -3.3887 -2.0006 -0.0765
  569MOL0     H78509   3.538   4.792   4.121 -0.0851 -0.6006  1.1327
  569MOL0     H78510   3.488   5.255   4.077 -0.8142 -1.4954 -1.6606
  569MOL0     H78511   3.423   5.144   4.205  1.2882  0.3517  2.2514
  569MOL0     H78512   3.673   5.063   4.196  0.9884  0.8420 -0.4453
  569MOL0     H78513   3.613   5.209   4.305 -3.1269 -0.3239  0.8826
  569MOL0     H78514   3.728   5.346   4.126  1.2171  0.1852 -0.3240
  569MOL0     H78515   3.834   5.233   4.219 -0.7339 -1.2292  0.4524
  569MOL0     H78516   3.884   5.260   3.970  0.3790 -0.0325 -0.6279
  569MOL0     H78517   3.733   5.176   3.937  0.3371 -1.2149  0.6413
  569MOL0     H78518   4.022   4.876   4.029 -0.7575 -0.1153  2.1728
  569MOL0     H78519   3.220   5.066   4.014 -1.8801 -0.2723  0.7687
  569MOL0     H78520   2.985   4.868   3.951 -1.1552 -1.5228  0.6061
  569MOL0     H78521   2.961   4.871   4.137  1.1920  1.1869  0.8705
  569MOL0     H78522   3.014   5.011   4.048  0.8047  1.0644  0.9067
  570MOL0     O78523   7.265  11.079   7.487 -0.7986  0.2055  0.4774
  570MOL0     C78524   7.295  11.020   7.584 -0.0084 -0.6472 -0.5539
  570MOL0     O78525   7.421  11.013   7.642 -0.2076  0.1789 -0.0129
  570MOL0     C78526   7.535  11.045   7.577  1.0741  0.7095  0.5577
  570MOL0     C78527   7.573  10.988   7.450  0.3539  0.1307 -0.8171
  570MOL0     C78528   7.696  11.010   7.396  0.3448 -1.7477 -0.1926
  570MOL0     C78529   7.787  11.091   7.460 -0.3806  0.2610 -1.0075
  570MOL0     O78530   7.909  11.117   7.407  0.0233  1.3386  0.7215
  570MOL0     C78531   7.970  11.246   7.445 -0.8800 -0.1593  0.2307
  570MOL0     C78532   8.061  11.274   7.321 -0.5240  0.4165  0.8639
  570MOL0     C78533   8.098  11.416   7.325 -0.8859 -0.9779  0.0053
  570MOL0     C78534   8.197  11.462   7.219  0.1704 -0.5362 -0.8624
  570MOL0     C78535   8.240  11.602   7.245 -0.5519 -0.0766 -1.1815
  570MOL0     C78536   8.255  11.694   7.122 -0.3275 -0.9321  1.3641
  570MOL0     C78537   8.355  11.643   7.017 -0.4734 -0.1957 -0.5561
  570MOL0     C78538   8.321  11.674   6.869 -0.0528  0.5539  0.6808
  570MOL0     N78539   8.267  11.810   6.870 -0.1376 -0.1922 -0.3046
  570MOL0     C78540   8.341  11.927   6.874 -0.5020 -0.0070 -0.1290
  570MOL0     C78541   8.253  12.031   6.894 -0.0128  0.2224  0.3506
  570MOL0     C78542   8.284  12.172   6.879 -0.0544  0.1223 -0.2297
  570MOL0     C78543   8.244  12.212   6.732  0.4174 -0.5467 -1.0008
  570MOL0     C78544   8.307  12.350   6.701  0.4036  0.3533  0.3345
  570MOL0     C78545   8.273  12.462   6.802  0.1233  0.0171  0.6172
  570MOL0     O78546   8.131  12.483   6.778  0.1221  0.1994  0.2823
  570MOL0     C78547   8.084  12.598   6.841  0.2192  0.1420 -0.7952
  570MOL0     C78548   7.945  12.618   6.833  0.1831  0.3840 -0.3263
  570MOL0     C78549   7.874  12.719   6.894  0.3303  0.9667  0.0563
  570MOL0     C78550   7.721  12.715   6.885 -0.3108  0.1987  0.2123
  570MOL0     C78551   7.948  12.816   6.968 -0.1394 -0.5635 -0.4856
  570MOL0     C78552   7.882  12.928   7.036 -0.3013  0.1580 -0.9087
  570MOL0     O78553   7.938  12.967   7.152 -0.2814  0.5484  0.1483
  570MOL0     C78554   7.878  13.045   7.243 -0.4664  0.6221 -0.0608
  570MOL0     C78555   7.741  13.027   7.283 -0.0911 -1.1172 -1.1992
  570MOL0     C78556   7.701  13.094   7.405 -0.0607 -0.3519  0.0396
  570MOL0     C78557   7.777  13.193   7.463  0.2043 -0.6319  0.3127
  570MOL0     O78558   7.735  13.247   7.584 -0.1107 -0.5973  0.1895
  570MOL0     C78559   7.782  13.377   7.625  0.3449  0.2763 -0.0154
  570MOL0     C78560   7.709  13.433   7.743 -0.4633  0.3426 -0.1551
  570MOL0     C78561   7.735  13.343   7.862  0.0030  0.8322 -0.6336
  570MOL0     C78562   7.631  13.383   7.970 -0.4220 -0.4771  0.2107
  570MOL0     C78563   7.664  13.317   8.105  1.1105  0.2270  0.2080
  570MOL0     C78564   7.532  13.338   8.184 -0.0071  0.0148 -0.3162
  570MOL0     C78565   7.535  13.276   8.329  0.3875  0.1116  0.6288
  570MOL0     C78566   7.421  13.325   8.396  0.3454 -1.0509 -1.6575
  570MOL0    Cl78567   7.273  13.290   8.295 -0.2062  0.2042  0.3936
  570MOL0     C78568   7.902  13.225   7.409 -0.8904 -0.0289  0.2143
  570MOL0     C78569   7.952  13.151   7.299  1.0294  0.1462 -1.0856
  570MOL0     O78570   7.798  12.996   6.977  0.2373  0.9198 -0.1064
  570MOL0     C78571   8.084  12.804   6.976 -0.2397  0.1645  0.5979
  570MOL0     C78572   8.160  12.695   6.919  0.5811 -0.3245 -0.8478
  570MOL0     N78573   8.129  11.974   6.897  0.2069  0.5574  0.5327
  570MOL0     N78574   8.138  11.849   6.886 -0.5603  0.4914 -0.3655
  570MOL0     C78575   7.763  11.142   7.589  0.1242 -0.4002  0.6402
  570MOL0     C78576   7.634  11.122   7.642 -0.5183  0.4109  0.7867
  570MOL0     C78577   7.183  10.941   7.643 -0.3301  1.0062  0.5580
  570MOL0     C78578   7.059  10.999   7.669 -0.5815 -0.0748  0.4174
  570MOL0     C78579   6.945  10.930   7.714  0.8195  0.2962  0.9868
  570MOL0     C78580   6.959  10.793   7.729  1.0045 -0.5856 -0.0872
  570MOL0     O78581   6.854  10.729   7.790  0.7004 -0.2938  0.4462
  570MOL0     C78582   6.843  10.583   7.796  0.2251  0.4526  0.3145
  570MOL0     C78583   6.911  10.530   7.927 -0.4147 -0.3629 -1.4818
  570MOL0     C78584   6.860  10.609   8.050 -0.3697  0.1103  0.1223
  570MOL0     C78585   6.932  10.569   8.175  0.0921 -0.3088 -1.0192
  570MOL0     C78586   6.914  10.655   8.296  0.0788  0.5229  0.6949
  570MOL0     C78587   6.908  10.735   8.391 -0.3011 -0.1229  0.7334
  570MOL0     C78588   7.078  10.733   7.689 -0.4412 -0.5713  0.8288
  570MOL0     C78589   7.189  10.801   7.646 -0.0186 -0.6510 -0.1103
  570MOL0     C78590   7.298  10.718   7.593 -1.0260 -0.3327  0.6730
  570MOL0     H78591   7.511  10.907   7.413  1.2786 -0.4610 -1.0830
  570MOL0     H78592   7.719  10.979   7.294  2.1978 -1.2094  0.0208
  570MOL0     H78593   8.046  11.242   7.524  1.7504 -1.6746 -2.1645
  570MOL0     H78594   7.901  11.328   7.466  1.5381  3.1126 -3.2120
  570MOL0     H78595   8.145  11.203   7.316 -1.9755 -1.4767  1.8817
  570MOL0     H78596   8.007  11.246   7.231  0.1225 -0.2233  0.6664
  570MOL0     H78597   8.005  11.469   7.303  0.5436  2.4513  1.5772
  570MOL0     H78598   8.136  11.437   7.425  1.6077  1.7626 -1.3513
  570MOL0     H78599   8.280  11.393   7.235  0.3359  0.1261  1.5754
  570MOL0     H78600   8.161  11.454   7.116  1.1187 -0.3621 -1.2172
  570MOL0     H78601   8.334  11.601   7.302 -0.3767 -2.3488 -1.4315
  570MOL0     H78602   8.160  11.650   7.303  1.0806 -1.4498  2.5318
  570MOL0     H78603   8.154  11.697   7.079 -0.0960 -0.7709  0.8278
  570MOL0     H78604   8.294  11.791   7.154 -2.5581  0.8538 -0.8918
  570MOL0     H78605   8.359  11.534   7.030  0.5871  0.0373  1.3107
  570MOL0     H78606   8.451  11.691   7.036 -1.9767  2.6326  0.5018
  570MOL0     H78607   8.413  11.668   6.809 -0.2577  0.2645  0.3940
  570MOL0     H78608   8.252  11.599   6.830  0.8299 -0.5623  1.1644
  570MOL0     H78609   8.445  11.942   6.849 -1.2313  3.4570 -1.7368
  570MOL0     H78610   8.390  12.192   6.892  0.4897  1.7033 -5.1016
  570MOL0     H78611   8.208  12.217   6.943 -2.0802  0.2564 -2.5672
  570MOL0     H78612   8.278  12.129   6.670 -0.1845 -1.5679 -0.0146
  570MOL0     H78613   8.137  12.231   6.738  0.8001  1.5457  0.8218
  570MOL0     H78614   8.415  12.332   6.698  0.4900  0.7114  1.1489
  570MOL0     H78615   8.263  12.376   6.604  0.2086 -1.4003 -0.0887
  570MOL0     H78616   8.290  12.421   6.902 -1.4815  0.3010  1.0363
  570MOL0     H78617   8.329  12.553   6.781 -3.0729  2.3173  1.2735
  570MOL0     H78618   7.887  12.537   6.790 -1.6895  1.2732  0.3818
  570MOL0     H78619   7.685  12.752   6.788 -0.2819  1.8671  0.8131
  570MOL0     H78620   7.673  12.774   6.963 -2.2913 -0.6765 -0.2832
  570MOL0     H78621   7.692  12.612   6.906  1.7704 -0.0259  2.4959
  570MOL0     H78622   7.683  12.941   7.251 -0.2766 -1.9687  1.2037
  570MOL0     H78623   7.609  13.080   7.462 -0.4936 -0.2387 -0.6251
  570MOL0     H78624   7.889  13.363   7.639  0.3182 -0.8573 -0.7784
  570MOL0     H78625   7.765  13.452   7.548 -0.1427  0.3662  0.1740
  570MOL0     H78626   7.751  13.532   7.762  1.9063 -0.6260 -0.0089
  570MOL0     H78627   7.607  13.445   7.706 -0.9005 -3.3246 -0.4713
  570MOL0     H78628   7.837  13.360   7.900  0.5137  1.5608 -2.2383
  570MOL0     H78629   7.723  13.237   7.841  0.0080  0.2764  1.8293
  570MOL0     H78630   7.535  13.360   7.922  0.3547 -0.0044 -1.6463
  570MOL0     H78631   7.633  13.491   7.986  2.2232 -0.4420  0.0096
  570MOL0     H78632   7.693  13.212   8.109  2.2249  0.5569  1.2955
  570MOL0     H78633   7.757  13.361   8.142  0.0295  1.2740  1.8558
  570MOL0     H78634   7.455  13.289   8.124  1.1339  1.7055 -3.3780
  570MOL0     H78635   7.512  13.445   8.196 -1.4284 -0.4287  1.7552
  570MOL0     H78636   7.623  13.299   8.390  2.5471 -1.2851 -1.7539
  570MOL0     H78637   7.530  13.168   8.311  0.0402 -0.1427  2.1432
  570MOL0     H78638   7.415  13.434   8.406 -0.8751 -1.1982 -0.3118
  570MOL0     H78639   7.407  13.284   8.497  1.8718  1.2581 -0.3966
  570MOL0     H78640   7.963  13.311   7.435  0.5728  0.3172 -3.7139
  570MOL0     H78641   8.049  13.162   7.252  1.3579 -1.5129 -0.8528
  570MOL0     H78642   8.137  12.884   7.027  0.5565  0.2796 -0.3861
  570MOL0     H78643   8.264  12.691   6.948  0.7286  1.4783 -0.9820
  570MOL0     H78644   7.839  11.188   7.651  0.6677  1.6974 -1.4487
  570MOL0     H78645   7.608  11.155   7.742 -0.9114 -3.6414  2.2299
  570MOL0     H78646   7.064  11.108   7.664  0.4957 -0.1010  0.7913
  570MOL0     H78647   6.848  10.979   7.719  0.6813  0.1049  0.2281
  570MOL0     H78648   6.738  10.553   7.796 -0.2636  2.0066  1.7664
  570MOL0     H78649   6.901  10.534   7.717 -1.0990  1.3782 -1.3312
  570MOL0     H78650   7.016  10.560   7.920  1.4320 -4.2433  3.4355
  570MOL0     H78651   6.913  10.423   7.952  0.0183  0.0097  0.1893
  570MOL0     H78652   6.858  10.716   8.026 -1.4468 -0.0470 -0.5640
  570MOL0     H78653   6.755  10.585   8.067 -0.4315  0.5656  0.4139
  570MOL0     H78654   7.037  10.588   8.150  0.4679  0.6908  1.1057
  570MOL0     H78655   6.909  10.466   8.203 -0.7207  0.0792 -0.2140
  570MOL0     H78656   6.897  10.792   8.482  2.4768  2.6729 -0.4977
  570MOL0     H78657   7.059  10.629   7.667  1.5800 -0.5199 -1.4984
  570MOL0     H78658   7.356  10.687   7.680  2.3463  1.3316 -0.8075
  570MOL0     H78659   7.286  10.625   7.536  1.4822 -1.2442  1.4808
  570MOL0     H78660   7.356  10.785   7.529  0.9850 -1.3189  1.3657
  571MOL0     O78661   9.728   7.402   5.639  0.1126  0.5042 -0.5776
  571MOL0     C78662   9.787   7.412   5.528 -0.2850  0.2915 -0.0791
  571MOL0     O78663   9.920   7.400   5.512 -1.0247  0.4115 -0.4049
  571MOL0     C78664   9.989   7.374   5.628 -0.5260  0.0995  0.4442
  571MOL0     C78665  10.041   7.481   5.695 -0.7839  0.0740 -0.0475
  571MOL0     C78666  10.114   7.456   5.818  0.4101  0.3964 -0.3871
  571MOL0     C78667  10.148   7.324   5.859 -0.7541 -0.5042  0.9896
  571MOL0     O78668  10.218   7.305   5.970  0.1054  0.5198  0.8182
  571MOL0     C78669  10.197   7.377   6.085  0.6641 -1.1176 -0.5380
  571MOL0     C78670  10.221   7.264   6.197 -0.7669 -0.0609 -0.4894
  571MOL0     C78671  10.208   7.321   6.338  0.6207  0.3900  0.8209
  571MOL0     C78672  10.240   7.213   6.432  0.8507 -0.5685  0.7613
  571MOL0     C78673  10.225   7.259   6.572 -0.3481 -0.5534  0.1380
  571MOL0     C78674  10.266   7.144   6.664 -0.4273  0.4626  0.1709
  571MOL0     C78675  10.280   7.176   6.807  0.5042  0.1931  0.0368
  571MOL0     C78676  10.155   7.214   6.891  0.6416  0.1278  0.8800
  571MOL0     N78677  10.121   7.349   6.872  0.9270  0.2373 -0.0400
  571MOL0     C78678  10.201   7.459   6.881  0.0209  0.3191 -0.6962
  571MOL0     C78679  10.120   7.566   6.839  0.0143  0.6416  0.4835
  571MOL0     C78680  10.166   7.705   6.826 -0.0615  0.9316 -0.1705
  571MOL0     C78681  10.243   7.733   6.690 -0.4221  0.2368 -0.6651
  571MOL0     C78682  10.173   7.669   6.568  1.0606 -0.7568 -0.3429
  571MOL0     C78683  10.055   7.754   6.527 -0.5722 -0.5940 -0.8491
  571MOL0     O78684  10.007   7.706   6.401 -0.2694 -0.0800  0.2631
  571MOL0     C78685  10.057   7.744   6.282 -0.3264 -0.6860 -0.0837
  571MOL0     C78686   9.972   7.737   6.177  0.0624 -0.3171  0.4167
  571MOL0     C78687  10.011   7.772   6.047 -0.3572  1.0822 -0.3205
  571MOL0     C78688   9.895   7.762   5.945 -0.1003  0.1947 -0.9655
  571MOL0     C78689  10.140   7.825   6.024  0.4086 -0.0204  0.3849
  571MOL0     C78690  10.184   7.872   5.891  0.2234 -0.0055  0.6203
  571MOL0     O78691  10.272   7.977   5.897 -0.8670 -0.5124 -0.6906
  571MOL0     C78692  10.307   8.027   5.777  0.5307  0.7015  0.2465
  571MOL0     C78693  10.395   7.960   5.687 -0.3426 -0.1443  0.6624
  571MOL0     C78694  10.432   8.020   5.567  0.1531 -0.0813 -0.3170
  571MOL0     C78695  10.391   8.153   5.534 -0.3222 -1.0589 -0.1304
  571MOL0     O78696  10.419   8.220   5.417 -0.1890 -0.4045 -0.7811
  571MOL0     C78697  10.533   8.173   5.347  0.4203  0.2968  0.1804
  571MOL0     C78698  10.567   8.256   5.226 -0.6124 -0.2754 -0.5610
  571MOL0     C78699  10.604   8.412   5.248  1.2145  0.0728  0.0752
  571MOL0     C78700  10.715   8.435   5.341 -0.2917 -0.0691  0.2597
  571MOL0     C78701  10.746   8.578   5.389  0.8437  1.1818  0.6369
  571MOL0     C78702  10.839   8.591   5.516  0.0778 -0.2422  0.1909
  571MOL0     C78703  10.992   8.567   5.469 -0.3720 -0.7424 -0.0131
  571MOL0     C78704  11.083   8.587   5.589  0.2694 -0.4387 -0.5100
  571MOL0    Cl78705  11.255   8.525   5.550 -0.0084 -0.2350  0.2115
  571MOL0     C78706  10.312   8.218   5.630  0.3020 -0.2938  0.2437
  571MOL0     C78707  10.262   8.155   5.746  0.1263  0.5964  1.2029
  571MOL0     O78708  10.128   7.825   5.791  0.0774 -0.6341  1.1945
  571MOL0     C78709  10.232   7.828   6.134 -0.0747  0.4366  0.9517
  571MOL0     C78710  10.193   7.789   6.263 -0.1286 -1.2747  0.2056
  571MOL0     N78711  10.001   7.514   6.794 -0.2107 -0.4647 -1.2524
  571MOL0     N78712   9.999   7.385   6.817 -0.6296  0.0348 -0.4266
  571MOL0     C78713  10.094   7.214   5.788 -0.0125  0.1971  0.5419
  571MOL0     C78714  10.022   7.241   5.663  0.2060 -0.4681  0.0337
  571MOL0     C78715   9.702   7.424   5.410 -0.0518  0.3112  0.8042
  571MOL0     C78716   9.564   7.431   5.434  0.6199 -0.2199  0.3431
  571MOL0     C78717   9.473   7.463   5.322  0.3533 -0.2019 -0.3135
  571MOL0     C78718   9.518   7.464   5.195 -1.0625 -0.3295 -0.5280
  571MOL0     O78719   9.445   7.503   5.084 -0.3126 -0.1781 -0.6082
  571MOL0     C78720   9.326   7.429   5.054  0.7924 -0.2016  0.1855
  571MOL0     C78721   9.356   7.305   4.966 -0.3452 -0.9314 -0.4051
  571MOL0     C78722   9.231   7.219   4.959  0.4595 -0.1224 -0.8672
  571MOL0     C78723   9.174   7.217   4.818  0.2009  0.6399 -0.1607
  571MOL0     C78724   9.114   7.344   4.784 -0.5634 -0.7456  0.3520
  571MOL0     C78725   9.063   7.447   4.741 -0.3499  0.2403 -0.3427
  571MOL0     C78726   9.660   7.448   5.178  0.6285 -0.4045  0.2235
  571MOL0     C78727   9.752   7.426   5.279 -0.0100  1.4711 -0.4497
  571MOL0     C78728   9.896   7.395   5.231 -0.1456  0.2870  0.5902
  571MOL0     H78729  10.044   7.583   5.658  1.3918 -0.8685 -2.7734
  571MOL0     H78730  10.166   7.530   5.879 -0.0804 -1.5081  2.5533
  571MOL0     H78731  10.096   7.416   6.093  0.4604 -1.6289 -0.5990
  571MOL0     H78732  10.269   7.459   6.091 -0.9377  0.8090 -4.4463
  571MOL0     H78733  10.142   7.190   6.182 -0.7448  0.3893 -3.2200
  571MOL0     H78734  10.317   7.213   6.189 -0.2030  1.1178 -1.5913
  571MOL0     H78735  10.292   7.388   6.353  1.7562 -0.3621 -1.6787
  571MOL0     H78736  10.116   7.373   6.365  0.3945 -0.7424  2.4258
  571MOL0     H78737  10.164   7.135   6.420 -1.7033  0.7223  5.7856
  571MOL0     H78738  10.336   7.170   6.404  0.2140 -1.4717 -0.0943
  571MOL0     H78739  10.122   7.291   6.593 -0.5800 -0.4590 -1.0641
  571MOL0     H78740  10.292   7.345   6.581  1.2960 -1.5651 -1.8454
  571MOL0     H78741  10.195   7.061   6.655  1.4186 -0.9804 -4.8778
  571MOL0     H78742  10.359   7.100   6.628 -0.7864  0.0171 -0.2301
  571MOL0     H78743  10.351   7.260   6.808 -1.0705  1.5905  1.7440
  571MOL0     H78744  10.332   7.102   6.869  0.6907  2.3426  2.6109
  571MOL0     H78745  10.081   7.140   6.860  2.6025 -1.0582 -1.3641
  571MOL0     H78746  10.169   7.196   6.998 -2.0222 -4.8544  0.6957
  571MOL0     H78747  10.304   7.477   6.909 -0.2624 -1.5078  1.8847
  571MOL0     H78748  10.232   7.732   6.908 -2.1818 -0.7023  2.2145
  571MOL0     H78749  10.083   7.777   6.826  0.4665  1.6052 -2.0911
  571MOL0     H78750  10.258   7.839   6.671 -1.1497  0.2143 -1.3954
  571MOL0     H78751  10.338   7.680   6.707 -1.5342 -1.0867  2.0435
  571MOL0     H78752  10.256   7.666   6.498  1.6716 -2.4595  0.3922
  571MOL0     H78753  10.129   7.569   6.579 -0.5009  0.0139  0.8312
  571MOL0     H78754   9.970   7.751   6.595 -0.8730 -0.0025 -1.1902
  571MOL0     H78755  10.096   7.855   6.525 -3.2720  0.6394  0.3604
  571MOL0     H78756   9.868   7.716   6.198 -0.3517  0.4747 -0.7387
  571MOL0     H78757   9.928   7.706   5.856 -5.5028 -1.5089 -2.2478
  571MOL0     H78758   9.862   7.860   5.910  0.8324  0.2660 -1.6856
  571MOL0     H78759   9.811   7.707   5.988 -1.1522  0.5228 -2.5254
  571MOL0     H78760  10.427   7.859   5.710 -0.3397  0.3157  2.8709
  571MOL0     H78761  10.492   7.965   5.495  3.8037  4.0870 -0.8695
  571MOL0     H78762  10.620   8.181   5.412  1.0966 -2.7981 -0.2385
  571MOL0     H78763  10.528   8.070   5.312 -3.2803  0.1191  0.8666
  571MOL0     H78764  10.647   8.215   5.165 -0.8912 -0.5161 -0.7704
  571MOL0     H78765  10.482   8.229   5.162 -3.0274  0.1639  2.2489
  571MOL0     H78766  10.521   8.463   5.298  0.0922 -1.7325  0.1142
  571MOL0     H78767  10.628   8.463   5.154  1.1467  0.9373  0.5167
  571MOL0     H78768  10.800   8.398   5.284 -0.7063  0.1595 -0.5293
  571MOL0     H78769  10.690   8.369   5.424 -2.4101 -2.3172 -2.0048
  571MOL0     H78770  10.779   8.635   5.302  3.0123 -0.5518  0.2377
  571MOL0     H78771  10.648   8.598   5.433  1.2846  0.1191  2.1921
  571MOL0     H78772  10.819   8.517   5.593 -2.3603 -1.2331 -1.2843
  571MOL0     H78773  10.823   8.688   5.564 -2.6003 -0.3209 -0.4259
  571MOL0     H78774  11.026   8.626   5.383  1.2620 -2.4179 -0.5729
  571MOL0     H78775  11.000   8.469   5.421  0.7501  0.0582 -1.5590
  571MOL0     H78776  11.051   8.534   5.680  2.3590  1.8491  1.6815
  571MOL0     H78777  11.072   8.694   5.604  0.1313 -0.4359 -0.6232
  571MOL0     H78778  10.274   8.318   5.612  0.5870  0.7782  4.6154
  571MOL0     H78779  10.197   8.219   5.804  1.6744  2.9985  0.4572
  571MOL0     H78780  10.334   7.864   6.121 -0.2010  0.3837 -0.2845
  571MOL0     H78781  10.265   7.799   6.343  1.2815 -4.7353 -0.4591
  571MOL0     H78782  10.105   7.109   5.812  1.2068  0.5152  1.4762
  571MOL0     H78783   9.976   7.158   5.611 -4.3639 -0.7019  3.7812
  571MOL0     H78784   9.526   7.442   5.535 -1.7296  1.3903 -0.6057
  571MOL0     H78785   9.377   7.488   5.366  1.1802 -1.4777  2.4613
  571MOL0     H78786   9.268   7.404   5.143  2.2472 -1.3478  0.8448
  571MOL0     H78787   9.258   7.495   4.999 -1.0876  0.5431  3.1602
  571MOL0     H78788   9.429   7.240   5.016  0.4905  1.0119  1.0421
  571MOL0     H78789   9.387   7.338   4.867 -1.7180  0.3735 -0.4317
  571MOL0     H78790   9.244   7.117   4.995  2.7517  0.2742 -0.3975
  571MOL0     H78791   9.148   7.260   5.017  1.4102  1.3641 -0.4990
  571MOL0     H78792   9.095   7.142   4.813  2.3885 -2.4996  4.3935
  571MOL0     H78793   9.252   7.185   4.748  0.2332  1.2826 -0.4215
  571MOL0     H78794   9.005   7.534   4.715 -4.5532 -1.8990  1.0461
  571MOL0     H78795   9.683   7.453   5.072  1.1839 -1.4423  0.2848
  571MOL0     H78796   9.960   7.457   5.295 -0.0657 -2.1491  3.0271
  571MOL0     H78797   9.931   7.292   5.239  0.8484  0.6374  0.8221
  571MOL0     H78798   9.901   7.433   5.128 -1.5175  0.5256  0.5878
  572MOL0     O78799   2.589   8.430   2.766 -1.0006  0.1998 -0.9752
  572MOL0     C78800   2.552   8.342   2.849  0.2899 -0.3701  0.0094
  572MOL0     O78801   2.578   8.211   2.849  1.2957  0.2959  0.0811
  572MOL0     C78802   2.671   8.160   2.756 -0.5617  0.0649 -0.5378
  572MOL0     C78803   2.803   8.219   2.754  0.7000 -0.0886 -0.1780
  572MOL0     C78804   2.897   8.166   2.661  0.7117  0.0277 -0.3632
  572MOL0     C78805   2.867   8.063   2.573 -0.3293  0.5776 -0.6294
  572MOL0     O78806   2.953   7.996   2.490 -0.0872 -0.5383  0.1579
  572MOL0     C78807   2.969   7.863   2.495  0.0011  0.9261 -0.0500
  572MOL0     C78808   3.085   7.806   2.409 -0.5036  0.1460  0.8570
  572MOL0     C78809   3.232   7.823   2.466 -0.0101 -0.4501  0.3730
  572MOL0     C78810   3.242   7.966   2.513 -0.2387  0.3740  0.2721
  572MOL0     C78811   3.382   7.988   2.570  0.2606 -0.5599 -0.3540
  572MOL0     C78812   3.424   8.140   2.578  0.2603  0.2611  0.2584
  572MOL0     C78813   3.337   8.202   2.689 -0.1030  0.0008  0.1819
  572MOL0     C78814   3.396   8.332   2.739 -0.2117  0.8194 -0.9640
  572MOL0     N78815   3.319   8.391   2.849 -0.1879 -0.0581 -0.2088
  572MOL0     C78816   3.362   8.400   2.977  1.3940  0.6419 -0.8796
  572MOL0     C78817   3.251   8.443   3.044 -0.7121  0.3072 -0.9682
  572MOL0     C78818   3.227   8.461   3.191 -0.7091  0.3384 -0.0460
  572MOL0     C78819   3.108   8.376   3.238  0.4283  0.5158 -0.1540
  572MOL0     C78820   3.123   8.225   3.205  0.1396  1.1419 -0.0035
  572MOL0     C78821   3.008   8.165   3.132  0.3825 -0.8096  0.5113
  572MOL0     O78822   2.910   8.111   3.223 -0.3644  0.4006  0.0475
  572MOL0     C78823   2.830   8.189   3.306 -0.9349 -0.5511  0.6915
  572MOL0     C78824   2.786   8.141   3.427  0.1096  0.3249 -0.2178
  572MOL0     C78825   2.705   8.216   3.519  0.5064  0.8653  0.4053
  572MOL0     C78826   2.678   8.151   3.653 -0.1551 -0.9818 -0.0272
  572MOL0     C78827   2.659   8.348   3.478 -0.6753  0.5045 -0.6123
  572MOL0     C78828   2.577   8.432   3.565  0.4036 -0.1434  0.2128
  572MOL0     O78829   2.493   8.366   3.640 -0.1493 -0.0860 -0.5303
  572MOL0     C78830   2.427   8.425   3.741  0.1539 -0.6950 -0.6124
  572MOL0     C78831   2.483   8.496   3.849 -0.3035 -0.9120 -0.0872
  572MOL0     C78832   2.391   8.551   3.950 -0.0314  0.6648 -0.4201
  572MOL0     C78833   2.246   8.542   3.941 -1.4880 -0.3510  0.8884
  572MOL0     O78834   2.163   8.592   4.042 -0.4169  0.2911 -0.4080
  572MOL0     C78835   2.029   8.629   4.015  0.7323  1.1271 -0.0009
  572MOL0     C78836   1.971   8.726   4.113 -0.3145 -0.2762  0.0893
  572MOL0     C78837   1.842   8.796   4.068  0.5552 -0.3484 -0.1952
  572MOL0     C78838   1.827   8.938   4.124  0.2663  0.8107 -1.3318
  572MOL0     C78839   1.695   9.007   4.090 -0.0011  0.5244 -0.2656
  572MOL0     C78840   1.633   9.083   4.199 -0.3461  0.2781 -0.5948
  572MOL0     C78841   1.496   9.147   4.172 -1.0691 -0.4071  1.0043
  572MOL0     C78842   1.514   9.267   4.080 -0.0204  0.8415 -0.3454
  572MOL0    Cl78843   1.609   9.396   4.161 -0.0195  0.4833 -0.3493
  572MOL0     C78844   2.194   8.475   3.821  0.0578 -0.3854  0.7248
  572MOL0     C78845   2.278   8.419   3.729 -0.3290  0.6441  0.9696
  572MOL0     O78846   2.584   8.546   3.554  0.2059 -0.4523 -0.1233
  572MOL0     C78847   2.718   8.403   3.359  0.1423  0.1200  0.0554
  572MOL0     C78848   2.794   8.324   3.269 -0.0939  0.3672  1.1633
  572MOL0     N78849   3.149   8.460   2.954  0.1995 -0.3770 -0.1028
  572MOL0     N78850   3.186   8.421   2.838 -0.4608 -0.1526 -0.6692
  572MOL0     C78851   2.737   8.008   2.574 -0.2434  0.2325 -0.7922
  572MOL0     C78852   2.642   8.058   2.658 -0.3456 -0.1115 -0.5135
  572MOL0     C78853   2.465   8.390   2.954 -0.4635 -0.4205 -0.7560
  572MOL0     C78854   2.491   8.363   3.090  0.1084 -0.2700 -0.9373
  572MOL0     C78855   2.412   8.419   3.194  0.1817 -1.1859  0.1062
  572MOL0     C78856   2.306   8.510   3.156  0.3768 -0.3744 -0.3654
  572MOL0     O78857   2.232   8.576   3.251  0.1884  0.8554 -0.2129
  572MOL0     C78858   2.257   8.588   3.394  0.3838  0.2267  0.2222
  572MOL0     C78859   2.132   8.642   3.462  0.6025 -0.8276  0.4999
  572MOL0     C78860   2.077   8.763   3.390 -0.0369 -0.7793 -0.1275
  572MOL0     C78861   1.996   8.848   3.480 -0.2666  0.5764  0.4996
  572MOL0     C78862   2.070   8.918   3.583 -1.2482 -0.5321  0.1751
  572MOL0     C78863   2.143   8.990   3.650 -0.2676  0.1684  0.1238
  572MOL0     C78864   2.278   8.524   3.024 -0.0293  0.1901  0.8481
  572MOL0     C78865   2.349   8.464   2.924  0.3209 -0.6757 -0.8177
  572MOL0     C78866   2.305   8.483   2.782  0.1807 -0.1932 -0.1840
  572MOL0     H78867   2.814   8.301   2.824 -0.5908  0.2544 -0.3449
  572MOL0     H78868   2.995   8.212   2.656  1.2390 -1.1818 -2.7781
  572MOL0     H78869   2.884   7.803   2.460  0.9923  1.8553 -4.6205
  572MOL0     H78870   2.998   7.829   2.596  0.5217 -2.7094 -1.2574
  572MOL0     H78871   3.078   7.700   2.381  2.0368  1.0278 -4.2190
  572MOL0     H78872   3.075   7.854   2.312 -0.4805  1.0171  1.2776
  572MOL0     H78873   3.239   7.747   2.545 -0.6180 -1.9073 -0.9029
  572MOL0     H78874   3.313   7.801   2.396  1.0424 -0.2097  1.4720
  572MOL0     H78875   3.206   8.035   2.436 -0.2898  0.6304  0.5230
  572MOL0     H78876   3.173   7.980   2.597  0.6550 -1.0928  1.2888
  572MOL0     H78877   3.460   7.943   2.508 -0.3263 -0.6125 -1.0637
  572MOL0     H78878   3.392   7.941   2.669  0.7612 -0.4699 -0.3627
  572MOL0     H78879   3.526   8.150   2.616  0.0531  2.0401  0.4691
  572MOL0     H78880   3.417   8.188   2.480 -3.1878 -0.4199  0.0717
  572MOL0     H78881   3.337   8.142   2.780 -0.5594  0.6234  0.6005
  572MOL0     H78882   3.236   8.215   2.648 -1.3182  1.4223  3.3060
  572MOL0     H78883   3.500   8.323   2.773 -0.9615 -1.2616  1.0452
  572MOL0     H78884   3.398   8.402   2.655 -0.4103 -0.2266 -1.8655
  572MOL0     H78885   3.458   8.382   3.024  1.4361 -0.2464 -1.2884
  572MOL0     H78886   3.212   8.566   3.217 -0.3790  0.1029  1.1454
  572MOL0     H78887   3.310   8.427   3.253  0.1019  0.4151 -1.0694
  572MOL0     H78888   3.099   8.382   3.346  0.4273 -0.7114 -0.0722
  572MOL0     H78889   3.019   8.423   3.194  1.1740  0.1885 -2.1607
  572MOL0     H78890   3.215   8.201   3.152  1.3772 -3.2961  3.5070
  572MOL0     H78891   3.131   8.174   3.301 -1.8841  0.0728 -0.3381
  572MOL0     H78892   2.951   8.222   3.058 -1.2309 -1.5151  1.1686
  572MOL0     H78893   3.048   8.081   3.075 -2.4177 -0.5552 -2.1079
  572MOL0     H78894   2.825   8.045   3.457 -3.5242 -1.6940 -1.3732
  572MOL0     H78895   2.572   8.128   3.664 -0.0544 -1.9850 -1.0695
  572MOL0     H78896   2.719   8.213   3.734  1.1714 -0.8545 -0.7621
  572MOL0     H78897   2.734   8.059   3.667  0.2715 -0.8727 -0.9379
  572MOL0     H78898   2.589   8.515   3.847 -0.5492  1.5382  3.1936
  572MOL0     H78899   2.440   8.590   4.038 -1.1473  1.8420 -0.2864
  572MOL0     H78900   2.020   8.670   3.914  2.8326 -0.0919 -0.7574
  572MOL0     H78901   1.970   8.537   4.013  1.5732  0.5585  0.4598
  572MOL0     H78902   1.948   8.662   4.199  0.7570  0.0149  0.6066
  572MOL0     H78903   2.043   8.805   4.136  1.5607  0.3390 -6.1655
  572MOL0     H78904   1.759   8.743   4.116 -1.2526  0.7660 -1.9527
  572MOL0     H78905   1.833   8.810   3.960  1.3265  1.5062 -0.0481
  572MOL0     H78906   1.898   9.012   4.083 -1.0191  3.7640  1.3314
  572MOL0     H78907   1.840   8.927   4.232 -1.8257  1.7199 -0.9372
  572MOL0     H78908   1.699   9.077   4.006  1.6792  0.6528 -0.1140
  572MOL0     H78909   1.621   8.931   4.064  0.4261 -0.2163  0.6518
  572MOL0     H78910   1.700   9.163   4.233 -2.2282  1.6979 -0.0434
  572MOL0     H78911   1.611   9.009   4.276  0.9540  2.3970  1.9942
  572MOL0     H78912   1.451   9.192   4.261 -0.4976  1.5608  0.3461
  572MOL0     H78913   1.420   9.080   4.131 -3.2794  0.4681  3.3628
  572MOL0     H78914   1.412   9.293   4.050 -0.3630  0.0647  0.1061
  572MOL0     H78915   1.563   9.237   3.986 -2.0222  0.0456 -1.1797
  572MOL0     H78916   2.086   8.479   3.814 -0.0016  0.4727  1.8045
  572MOL0     H78917   2.235   8.369   3.643 -1.5197 -1.1735  2.5635
  572MOL0     H78918   2.686   8.505   3.338 -1.6637 -0.8889 -2.6397
  572MOL0     H78919   2.814   8.358   3.168 -0.6747 -0.2070  0.8489
  572MOL0     H78920   2.713   7.930   2.502 -1.0752 -1.5474  1.3019
  572MOL0     H78921   2.553   7.998   2.642  0.3366 -0.5133 -3.4496
  572MOL0     H78922   2.578   8.313   3.132 -0.7431  0.1523  1.5390
  572MOL0     H78923   2.427   8.391   3.298  1.4344  0.1746  0.3172
  572MOL0     H78924   2.278   8.487   3.429 -0.2012  0.2064  0.5291
  572MOL0     H78925   2.341   8.657   3.410  0.0596  0.9430 -1.0258
  572MOL0     H78926   2.154   8.668   3.566 -0.7821 -2.1788  1.1707
  572MOL0     H78927   2.055   8.565   3.451  0.5844 -0.8590  0.8520
  572MOL0     H78928   2.150   8.832   3.347 -2.1673  2.9564  1.7377
  572MOL0     H78929   2.017   8.723   3.308 -0.1125  2.3300 -1.7286
  572MOL0     H78930   1.914   8.794   3.529 -1.7501  0.3306 -2.0802
  572MOL0     H78931   1.942   8.919   3.417  1.3566  0.2962 -1.3094
  572MOL0     H78932   2.198   9.075   3.685 -0.3570  1.1892 -2.0475
  572MOL0     H78933   2.190   8.585   3.005  0.6934  1.1377  0.4290
  572MOL0     H78934   2.325   8.388   2.733 -0.1558 -1.3323  1.7968
  572MOL0     H78935   2.203   8.520   2.766  0.8968  3.2619  2.0884
  572MOL0     H78936   2.369   8.558   2.735  0.2352  0.4076  0.8087
  573MOL0     O78937   7.500   6.859   6.475 -0.3758  0.0349 -0.3548
  573MOL0     C78938   7.469   6.816   6.591 -0.9960 -0.0616  0.9492
  573MOL0     O78939   7.548   6.826   6.705  0.1873 -0.2511  0.1258
  573MOL0     C78940   7.680   6.844   6.697  0.2081  0.8651  0.7095
  573MOL0     C78941   7.756   6.774   6.598 -0.7367  0.3677 -0.3871
  573MOL0     C78942   7.897   6.757   6.606 -0.5572  0.5286  1.0982
  573MOL0     C78943   7.960   6.815   6.711  0.1514 -0.4411 -0.6530
  573MOL0     O78944   8.094   6.805   6.723  0.2050 -0.2942  0.3108
  573MOL0     C78945   8.169   6.931   6.711  0.0617 -0.1249  0.1498
  573MOL0     C78946   8.205   6.955   6.564 -0.5836 -0.5223 -0.2302
  573MOL0     C78947   8.283   7.082   6.532  0.4249  0.4879  0.2244
  573MOL0     C78948   8.276   7.112   6.382  0.6002 -0.6089  0.7290
  573MOL0     C78949   8.318   7.262   6.335  0.0804 -0.6740 -1.3301
  573MOL0     C78950   8.454   7.314   6.393  0.5171  0.0761  0.6500
  573MOL0     C78951   8.565   7.216   6.338  0.0397 -0.0455 -0.3352
  573MOL0     C78952   8.709   7.248   6.371  0.2421  0.0195 -0.0718
  573MOL0     N78953   8.745   7.199   6.510  0.0479 -0.8256  0.3455
  573MOL0     C78954   8.659   7.192   6.622 -0.3858  0.7395  0.9395
  573MOL0     C78955   8.728   7.121   6.711 -0.0873 -0.1708 -0.3145
  573MOL0     C78956   8.667   7.083   6.829 -0.2845  0.0158 -0.7309
  573MOL0     C78957   8.613   6.939   6.829 -0.4476  0.2593  0.1158
  573MOL0     C78958   8.550   6.889   6.959 -0.9023 -0.7432 -0.0597
  573MOL0     C78959   8.489   6.755   6.962  0.7375  0.2188 -0.1726
  573MOL0     O78960   8.407   6.719   6.850 -0.5550 -0.2017 -0.1746
  573MOL0     C78961   8.356   6.598   6.831  0.0218 -0.2920 -0.6124
  573MOL0     C78962   8.316   6.569   6.701 -0.0766  0.3143 -0.1709
  573MOL0     C78963   8.271   6.443   6.672  0.7549 -0.2171 -0.1847
  573MOL0     C78964   8.236   6.424   6.526  0.1063  0.3519 -0.4342
  573MOL0     C78965   8.291   6.334   6.763 -0.2994  0.3625 -0.9187
  573MOL0     C78966   8.254   6.190   6.737 -0.6154 -0.3593  0.2999
  573MOL0     O78967   8.150   6.167   6.653 -0.5268  0.2445  0.1571
  573MOL0     C78968   8.098   6.039   6.611 -0.7975 -0.7607 -1.0577
  573MOL0     C78969   8.145   5.912   6.650  0.1817 -0.5409  0.2589
  573MOL0     C78970   8.088   5.797   6.611 -0.2261  0.0912  0.0837
  573MOL0     C78971   7.975   5.798   6.527  0.8143 -0.1769  0.3495
  573MOL0     O78972   7.907   5.684   6.483  0.2360 -0.1683 -0.5670
  573MOL0     C78973   7.980   5.562   6.464 -0.5599  0.0399  0.3553
  573MOL0     C78974   7.903   5.454   6.548 -0.0481  0.2710  0.3392
  573MOL0     C78975   7.940   5.463   6.699 -0.0156 -1.2761 -0.6894
  573MOL0     C78976   8.068   5.384   6.729  0.4886  0.0705  0.0544
  573MOL0     C78977   8.119   5.422   6.861  0.3597  0.8684 -0.0152
  573MOL0     C78978   8.034   5.352   6.973 -0.5148  0.0131  0.2995
  573MOL0     C78979   8.098   5.208   6.993  0.2879  0.0221 -0.0248
  573MOL0     C78980   8.040   5.174   7.137 -0.8240  0.6127 -0.3285
  573MOL0    Cl78981   8.033   4.997   7.163  0.0488  0.1215  0.0190
  573MOL0     C78982   7.928   5.924   6.481  0.3103  1.1429 -0.0768
  573MOL0     C78983   7.984   6.045   6.533 -1.2593  0.3170 -0.2779
  573MOL0     O78984   8.317   6.100   6.795 -0.6502  0.1494 -0.0236
  573MOL0     C78985   8.324   6.373   6.896 -0.2603 -0.6826 -0.6449
  573MOL0     C78986   8.350   6.504   6.929  0.5595  0.1250  0.0833
  573MOL0     N78987   8.848   7.076   6.662 -0.4394 -0.6420  0.9687
  573MOL0     N78988   8.853   7.121   6.537  1.4559  0.0523  0.1650
  573MOL0     C78989   7.892   6.871   6.817 -0.1115  0.0159  1.2355
  573MOL0     C78990   7.750   6.885   6.811 -0.1525  0.1872 -0.3735
  573MOL0     C78991   7.347   6.730   6.615  0.0112 -0.4255  0.1772
  573MOL0     C78992   7.338   6.631   6.716 -0.4271  0.3174 -1.0601
  573MOL0     C78993   7.219   6.555   6.731 -0.1517  0.2305  0.0467
  573MOL0     C78994   7.118   6.560   6.637 -0.6889 -0.0150 -0.1288
  573MOL0     O78995   7.004   6.476   6.640 -0.1608  0.0202  0.3089
  573MOL0     C78996   6.990   6.385   6.747  0.4429  0.0589  0.2149
  573MOL0     C78997   6.875   6.292   6.729 -0.4989 -0.4991  0.0075
  573MOL0     C78998   6.900   6.212   6.595  0.2335  1.1125 -0.6602
  573MOL0     C78999   6.872   6.069   6.602 -0.2011  0.2830  0.7936
  573MOL0     C79000   6.974   6.001   6.672  0.1237  0.6527 -0.5349
  573MOL0     C79001   7.067   5.943   6.721  0.1679  0.4546 -0.0570
  573MOL0     C79002   7.125   6.654   6.539  0.1919  0.6847 -0.2666
  573MOL0     C79003   7.238   6.731   6.520 -0.7277 -0.1389 -0.3595
  573MOL0     C79004   7.230   6.818   6.391 -0.3414  0.7537  0.1612
  573MOL0     H79005   7.702   6.727   6.516  0.1516 -3.4662  1.0313
  573MOL0     H79006   7.941   6.697   6.527 -1.0077  3.1952 -1.3147
  573MOL0     H79007   8.263   6.919   6.767  1.5299  1.5041 -1.7878
  573MOL0     H79008   8.121   7.021   6.750 -0.9757 -0.8652  0.6302
  573MOL0     H79009   8.260   6.870   6.524  1.9354 -0.3855  2.5640
  573MOL0     H79010   8.113   6.954   6.505 -1.4602 -2.1609  1.0722
  573MOL0     H79011   8.239   7.171   6.577 -2.9660 -1.1128  0.4200
  573MOL0     H79012   8.386   7.066   6.567  1.8202 -0.0249 -3.6510
  573MOL0     H79013   8.328   7.033   6.328  0.2561 -0.2004 -0.2193
  573MOL0     H79014   8.168   7.113   6.365  0.3413  2.5813  1.9820
  573MOL0     H79015   8.248   7.328   6.386  0.1741 -0.7569 -1.0961
  573MOL0     H79016   8.301   7.267   6.227 -5.2436 -1.4796 -0.7961
  573MOL0     H79017   8.476   7.410   6.344 -3.0233  0.3413 -0.7015
  573MOL0     H79018   8.460   7.330   6.501  1.1429 -2.7593  1.1121
  573MOL0     H79019   8.540   7.202   6.232 -1.6862  0.7093 -0.0791
  573MOL0     H79020   8.534   7.130   6.397  0.8280  1.7496  2.9523
  573MOL0     H79021   8.777   7.199   6.301  1.1826  2.0991 -0.6804
  573MOL0     H79022   8.718   7.357   6.361 -1.8209  0.2531  0.1749
  573MOL0     H79023   8.564   7.245   6.627  0.2897  2.2896 -1.0835
  573MOL0     H79024   8.589   7.155   6.854 -2.3924 -1.8693 -1.5567
  573MOL0     H79025   8.744   7.084   6.907 -1.2705 -1.4157  0.3371
  573MOL0     H79026   8.518   6.938   6.774 -1.4012 -0.6090  1.7165
  573MOL0     H79027   8.684   6.871   6.780 -0.7222 -1.9229  2.5784
  573MOL0     H79028   8.623   6.885   7.041 -0.5635  0.9758 -0.2438
  573MOL0     H79029   8.478   6.967   6.986 -1.5667 -0.0906 -3.3196
  573MOL0     H79030   8.577   6.690   6.966 -0.9728 -2.1876  1.2634
  573MOL0     H79031   8.439   6.738   7.058  1.9552  2.1177  0.8798
  573MOL0     H79032   8.335   6.636   6.618 -1.0610  1.2107  0.3051
  573MOL0     H79033   8.313   6.359   6.483  0.8536  0.1778  1.0978
  573MOL0     H79034   8.248   6.517   6.469  0.3857  0.3323 -0.4108
  573MOL0     H79035   8.138   6.378   6.516  0.7945 -0.7319 -3.0571
  573MOL0     H79036   8.234   5.897   6.710 -1.2929 -1.9887  2.2105
  573MOL0     H79037   8.135   5.706   6.648  1.2086 -0.8530 -3.5587
  573MOL0     H79038   7.971   5.535   6.359  2.4796  0.6935 -0.1597
  573MOL0     H79039   8.085   5.579   6.486 -1.1210  1.5141  2.1750
  573MOL0     H79040   7.794   5.443   6.552 -0.3063  1.2960 -2.1966
  573MOL0     H79041   7.943   5.361   6.508  1.4315  1.5027 -1.2078
  573MOL0     H79042   7.856   5.419   6.753  0.7149 -2.8113 -0.7421
  573MOL0     H79043   7.957   5.568   6.721 -2.6534 -1.1556  1.1958
  573MOL0     H79044   8.142   5.420   6.657 -1.3991  1.1714 -1.4426
  573MOL0     H79045   8.060   5.276   6.710  1.4010 -0.0076  0.0601
  573MOL0     H79046   8.224   5.398   6.874  0.6795  3.1288  2.4114
  573MOL0     H79047   8.112   5.530   6.874 -0.2375  0.9272 -0.7543
  573MOL0     H79048   7.928   5.336   6.952 -0.2373 -0.4698 -0.8240
  573MOL0     H79049   8.049   5.406   7.066  0.7407  0.3521 -0.0789
  573MOL0     H79050   8.207   5.214   7.002  0.1612  3.6634  0.5988
  573MOL0     H79051   8.079   5.128   6.920 -1.2840 -0.3261  0.7417
  573MOL0     H79052   7.937   5.212   7.141 -0.0281  2.8503  2.8711
  573MOL0     H79053   8.108   5.225   7.206 -0.5888  1.2840 -1.0496
  573MOL0     H79054   7.846   5.926   6.411 -1.1193 -2.0456  1.3299
  573MOL0     H79055   7.960   6.146   6.500  0.2013 -0.0465 -2.6764
  573MOL0     H79056   8.329   6.300   6.976 -3.0524 -2.0473 -1.5886
  573MOL0     H79057   8.392   6.508   7.029 -0.4741  0.8746  0.5111
  573MOL0     H79058   7.944   6.905   6.906  1.8777 -0.6472  0.3803
  573MOL0     H79059   7.689   6.942   6.880 -0.5719  3.2704 -3.0594
  573MOL0     H79060   7.416   6.619   6.790 -1.2890 -4.3493 -0.5564
  573MOL0     H79061   7.211   6.491   6.819 -1.7806  0.0462 -0.2121
  573MOL0     H79062   7.084   6.330   6.739  1.1491  1.4823 -2.9677
  573MOL0     H79063   6.983   6.448   6.836  1.9654  2.4606 -1.2512
  573MOL0     H79064   6.781   6.347   6.723  0.4094  0.9732 -1.3288
  573MOL0     H79065   6.874   6.216   6.808 -2.8263 -0.6241 -0.0719
  573MOL0     H79066   6.842   6.265   6.519  0.2945  3.2763  0.7313
  573MOL0     H79067   7.002   6.227   6.558  0.5668  0.8257  0.1104
  573MOL0     H79068   6.855   6.024   6.503  0.5758  0.2278  0.6794
  573MOL0     H79069   6.774   6.043   6.642 -0.1822 -2.8257 -0.9092
  573MOL0     H79070   7.151   5.882   6.746 -1.1455 -0.7083  1.7854
  573MOL0     H79071   7.037   6.647   6.476  1.8076 -1.3059 -2.4617
  573MOL0     H79072   7.313   6.772   6.337  0.1720  0.7143  0.9633
  573MOL0     H79073   7.142   6.796   6.331  0.4914 -0.3903 -0.6887
  573MOL0     H79074   7.249   6.926   6.394 -0.7126  0.9709 -2.5819
  574MOL0     O79075   7.386   1.856   1.763 -0.1847 -0.1192 -0.9876
  574MOL0     C79076   7.405   1.740   1.800  1.3677  0.6257  0.0900
  574MOL0     O79077   7.389   1.698   1.927 -0.2391 -0.7945  0.8695
  574MOL0     C79078   7.318   1.785   2.012 -0.5810 -0.7577 -0.0362
  574MOL0     C79079   7.195   1.749   2.064  0.1553 -0.0217 -0.2776
  574MOL0     C79080   7.115   1.850   2.127  0.9079 -0.5962 -0.4583
  574MOL0     C79081   7.166   1.982   2.154  0.3542 -0.1790 -0.6412
  574MOL0     O79082   7.101   2.087   2.219  0.4781 -0.1516 -0.0536
  574MOL0     C79083   6.957   2.103   2.216 -0.2018  0.3794  0.4123
  574MOL0     C79084   6.920   2.216   2.312  0.1452  1.1725 -0.5768
  574MOL0     C79085   6.768   2.249   2.315 -0.0108 -0.3674 -0.6851
  574MOL0     C79086   6.729   2.354   2.212  0.2221 -0.1769  0.4531
  574MOL0     C79087   6.577   2.372   2.202 -0.1846 -0.4570  0.0548
  574MOL0     C79088   6.537   2.457   2.078 -0.3078 -0.5486 -0.2874
  574MOL0     C79089   6.410   2.526   2.113  0.0493 -0.4169 -0.6605
  574MOL0     C79090   6.388   2.623   2.003  0.3246  1.8360  0.0686
  574MOL0     N79091   6.361   2.552   1.869  0.8568 -1.0465 -0.5626
  574MOL0     C79092   6.253   2.477   1.835 -0.3389 -0.5355 -0.6046
  574MOL0     C79093   6.263   2.463   1.701  0.1392 -0.0792 -0.4783
  574MOL0     C79094   6.186   2.372   1.614  0.2350  0.5347  0.5099
  574MOL0     C79095   6.229   2.225   1.605  0.0835  0.5219  0.1792
  574MOL0     C79096   6.364   2.210   1.529  0.4247 -0.7103  0.5312
  574MOL0     C79097   6.344   2.218   1.371 -0.8170 -0.2228 -0.0448
  574MOL0     O79098   6.452   2.211   1.284 -0.4897 -0.0275 -0.1213
  574MOL0     C79099   6.519   2.324   1.252  0.7743  0.2267  0.4781
  574MOL0     C79100   6.523   2.445   1.317 -0.7932  0.5278  0.5419
  574MOL0     C79101   6.604   2.547   1.265  0.3346  0.0770  0.5288
  574MOL0     C79102   6.612   2.679   1.340 -0.7296  0.2087  0.7321
  574MOL0     C79103   6.681   2.528   1.146 -0.1283 -0.4388 -0.4757
  574MOL0     C79104   6.765   2.632   1.086  0.2334  0.0021  0.6434
  574MOL0     O79105   6.731   2.771   1.103 -0.4288  0.6457 -0.0366
  574MOL0     C79106   6.837   2.851   1.095 -0.1371 -0.5476 -0.0013
  574MOL0     C79107   6.962   2.828   1.162  0.6897 -0.2042 -0.5459
  574MOL0     C79108   7.064   2.914   1.135  0.0260 -0.6636 -0.8396
  574MOL0     C79109   7.058   3.026   1.036  0.9239  0.1290 -1.1023
  574MOL0     O79110   7.168   3.102   1.022 -0.3635 -0.4720  0.5037
  574MOL0     C79111   7.164   3.178   0.904 -0.1590  0.5899 -0.4819
  574MOL0     C79112   7.306   3.224   0.891 -0.5418  0.4724 -0.1635
  574MOL0     C79113   7.314   3.344   0.790  0.2457 -0.0843 -1.2210
  574MOL0     C79114   7.446   3.427   0.786  0.6868  0.5114  0.5364
  574MOL0     C79115   7.556   3.363   0.705 -0.4319 -0.2694  0.0642
  574MOL0     C79116   7.542   3.406   0.557 -0.3343 -0.7256 -0.4335
  574MOL0     C79117   7.663   3.389   0.476  0.2913  0.0881 -0.1576
  574MOL0     C79118   7.739   3.251   0.489  0.0959  0.6125  0.4046
  574MOL0    Cl79119   7.622   3.120   0.474  0.4162 -0.3581 -0.3152
  574MOL0     C79120   6.936   3.035   0.963  0.4172  0.0554  0.3283
  574MOL0     C79121   6.823   2.953   1.003  0.3635 -0.2419 -0.0971
  574MOL0     O79122   6.859   2.596   1.014  0.2507 -0.3517  0.8067
  574MOL0     C79123   6.678   2.401   1.088  1.3862 -0.0782  0.4041
  574MOL0     C79124   6.592   2.304   1.134  0.2829 -0.3240  0.5992
  574MOL0     N79125   6.360   2.547   1.647 -0.6193 -0.4215  0.2883
  574MOL0     N79126   6.405   2.604   1.751 -0.4458  1.8551 -0.5452
  574MOL0     C79127   7.304   2.000   2.129  0.5465 -0.0424  0.0705
  574MOL0     C79128   7.377   1.903   2.058  0.6904 -1.2643 -0.1414
  574MOL0     C79129   7.458   1.641   1.696  0.6657 -0.2130  0.1496
  574MOL0     C79130   7.553   1.681   1.599 -0.2620  0.2102 -0.3412
  574MOL0     C79131   7.603   1.596   1.506  0.2130  0.1902  0.0428
  574MOL0     C79132   7.536   1.473   1.496 -0.2035  0.4494  0.4742
  574MOL0     O79133   7.562   1.388   1.389 -0.1806  0.3635  0.3223
  574MOL0     C79134   7.467   1.282   1.358 -0.3014 -0.0656 -0.1577
  574MOL0     C79135   7.458   1.270   1.207 -0.4982  1.3292  0.7197
  574MOL0     C79136   7.347   1.169   1.161 -0.4846  0.4749 -0.0201
  574MOL0     C79137   7.297   1.197   1.026 -0.1677 -0.2943  0.7434
  574MOL0     C79138   7.163   1.145   0.996 -0.2996  0.0658 -0.3818
  574MOL0     C79139   7.050   1.105   0.990  0.3669 -0.1031 -0.0236
  574MOL0     C79140   7.439   1.429   1.589 -0.1350 -1.0616  0.5504
  574MOL0     C79141   7.417   1.506   1.696  0.0817 -0.9958  0.1956
  574MOL0     C79142   7.336   1.454   1.811  0.2125 -0.1145  0.6299
  574MOL0     H79143   7.171   1.647   2.034  3.5278 -0.8522 -0.5868
  574MOL0     H79144   7.009   1.827   2.137  0.7695 -0.2954 -1.1977
  574MOL0     H79145   6.928   2.006   2.259 -2.6835 -1.0560 -3.8463
  574MOL0     H79146   6.911   2.108   2.117 -0.7951  0.2588  0.6774
  574MOL0     H79147   6.941   2.178   2.413 -1.4986  1.2553 -0.1769
  574MOL0     H79148   6.982   2.305   2.297  1.2890  0.1675 -2.0032
  574MOL0     H79149   6.710   2.156   2.305 -0.6300 -0.0475 -0.1498
  574MOL0     H79150   6.747   2.286   2.415  1.9073 -4.1300  1.3443
  574MOL0     H79151   6.780   2.447   2.235 -2.9498  1.9499 -0.4319
  574MOL0     H79152   6.765   2.314   2.117 -0.6624 -1.3211  0.5629
  574MOL0     H79153   6.546   2.421   2.295  0.9847  0.4857 -0.0338
  574MOL0     H79154   6.542   2.269   2.212 -1.0008 -0.2528 -0.5661
  574MOL0     H79155   6.616   2.531   2.065  1.6693 -1.9354  2.7699
  574MOL0     H79156   6.527   2.386   1.995 -0.7972  0.5006 -1.1419
  574MOL0     H79157   6.412   2.582   2.207 -1.5870  3.5841 -2.7570
  574MOL0     H79158   6.333   2.448   2.117 -0.0868 -0.2425  0.6416
  574MOL0     H79159   6.297   2.680   2.022  0.6583  3.2865 -2.3423
  574MOL0     H79160   6.471   2.694   1.995  0.8037  1.4740  1.5130
  574MOL0     H79161   6.192   2.410   1.895  1.8372  0.0667  2.5074
  574MOL0     H79162   6.188   2.407   1.510  0.2187 -1.2690 -0.1360
  574MOL0     H79163   6.085   2.375   1.656  1.3855  0.2614  3.5252
  574MOL0     H79164   6.243   2.177   1.702  2.8117 -1.8628 -1.2348
  574MOL0     H79165   6.155   2.162   1.556 -0.7643 -0.2487  2.3557
  574MOL0     H79166   6.436   2.283   1.567 -1.9910  1.2159  1.7286
  574MOL0     H79167   6.397   2.107   1.547  1.9312 -0.2083  0.8220
  574MOL0     H79168   6.280   2.145   1.320  1.7313 -0.9280 -2.5210
  574MOL0     H79169   6.294   2.313   1.350 -1.1703 -0.0647  1.4316
  574MOL0     H79170   6.472   2.453   1.412  0.0732  5.4303  0.8645
  574MOL0     H79171   6.718   2.701   1.356 -0.7824  1.7201 -0.6702
  574MOL0     H79172   6.558   2.680   1.435  0.6856 -0.9795  1.5949
  574MOL0     H79173   6.564   2.758   1.282 -2.1797  2.0219  4.1846
  574MOL0     H79174   6.987   2.742   1.224 -1.9781  1.3239  2.9461
  574MOL0     H79175   7.149   2.885   1.196 -0.3180 -1.7383 -0.8617
  574MOL0     H79176   7.143   3.107   0.824  3.1715 -1.0209 -0.0639
  574MOL0     H79177   7.103   3.269   0.908 -0.1273  0.6838 -1.6746
  574MOL0     H79178   7.335   3.261   0.990 -1.8084  1.1940 -0.0391
  574MOL0     H79179   7.362   3.136   0.860 -3.2421 -1.2976 -0.3211
  574MOL0     H79180   7.233   3.415   0.809  1.4616  1.8984 -2.9516
  574MOL0     H79181   7.296   3.301   0.691  0.5568 -2.4400 -0.3205
  574MOL0     H79182   7.483   3.436   0.889 -1.0209 -1.1175  1.3484
  574MOL0     H79183   7.426   3.529   0.753  0.1460  0.6900  1.3968
  574MOL0     H79184   7.654   3.383   0.749 -2.7128  1.1385  5.3289
  574MOL0     H79185   7.554   3.254   0.709 -0.3260 -0.2434  1.6177
  574MOL0     H79186   7.525   3.514   0.558  0.8453 -0.5281  1.0512
  574MOL0     H79187   7.459   3.350   0.512 -0.0263 -3.5382  2.1368
  574MOL0     H79188   7.732   3.467   0.509  0.7791  0.7053 -2.4580
  574MOL0     H79189   7.626   3.396   0.374 -0.1396 -4.3620 -0.5383
  574MOL0     H79190   7.788   3.250   0.587 -2.3431  1.9068  1.7458
  574MOL0     H79191   7.805   3.244   0.402 -2.1601 -2.5085 -1.2608
  574MOL0     H79192   6.929   3.100   0.876 -3.0055 -0.8185 -0.1770
  574MOL0     H79193   6.721   2.973   0.973  0.3748 -1.6450 -1.2318
  574MOL0     H79194   6.742   2.370   1.006 -0.3920 -2.4226 -0.2071
  574MOL0     H79195   6.603   2.214   1.074 -1.2818 -1.9751  2.6338
  574MOL0     H79196   7.356   2.093   2.150 -0.3517  0.4316  0.2601
  574MOL0     H79197   7.475   1.936   2.025  0.2253  2.1621  1.4615
  574MOL0     H79198   7.589   1.781   1.618 -0.5824 -0.2414  3.1711
  574MOL0     H79199   7.686   1.628   1.445  1.2419  1.4654  2.0132
  574MOL0     H79200   7.511   1.187   1.389  1.5138  0.6134 -0.5525
  574MOL0     H79201   7.370   1.313   1.398  0.3109 -0.4407  1.6692
  574MOL0     H79202   7.557   1.232   1.180  0.0007  4.0882 -1.7730
  574MOL0     H79203   7.439   1.369   1.165 -0.7255  0.8833 -0.2494
  574MOL0     H79204   7.394   1.071   1.164 -1.9614 -0.3623 -1.9818
  574MOL0     H79205   7.266   1.160   1.233  1.5467 -3.2887  2.1075
  574MOL0     H79206   7.373   1.170   0.953  0.4684  0.5961  1.0604
  574MOL0     H79207   7.286   1.306   1.026  0.7568 -0.1426  3.1571
  574MOL0     H79208   6.946   1.080   0.980 -0.2672  2.0758  0.6910
  574MOL0     H79209   7.397   1.331   1.608 -0.6367 -0.5995  1.9287
  574MOL0     H79210   7.374   1.469   1.913 -0.5731 -1.5600  1.1716
  574MOL0     H79211   7.234   1.494   1.808  0.5196  0.8563  2.2553
  574MOL0     H79212   7.333   1.345   1.804  1.8808 -0.1465  0.0771
  575MOL0     O79213  10.236  11.362   4.439 -0.1747  0.0711  0.4559
  575MOL0     C79214  10.299  11.256   4.450 -0.5578  0.4271  0.8200
  575MOL0     O79215  10.248  11.128   4.435  0.3623 -0.7490 -0.4982
  575MOL0     C79216  10.114  11.103   4.443  0.1090  0.4544 -0.2767
  575MOL0     C79217  10.026  11.108   4.331 -0.2838 -0.4107 -0.5870
  575MOL0     C79218   9.895  11.069   4.352  0.6619  0.1577  0.0959
  575MOL0     C79219   9.846  11.013   4.476  0.6011  0.1085  0.1264
  575MOL0     O79220   9.718  10.974   4.500  0.6382 -0.2199 -0.4194
  575MOL0     C79221   9.633  10.947   4.382  0.4107 -0.8624  0.0008
  575MOL0     C79222   9.498  10.880   4.414  1.0314 -0.5360 -1.0012
  575MOL0     C79223   9.436  10.824   4.284  0.1809  0.0397  0.2326
  575MOL0     C79224   9.286  10.793   4.287 -0.4178  0.7665 -0.8681
  575MOL0     C79225   9.245  10.720   4.157  0.8877 -0.9786  1.2047
  575MOL0     C79226   9.094  10.719   4.135  1.1722 -0.7879 -0.4400
  575MOL0     C79227   9.040  10.589   4.074  0.4239 -0.4436 -0.6695
  575MOL0     C79228   8.920  10.611   3.972 -1.0149 -0.8537 -0.0115
  575MOL0     N79229   8.809  10.689   4.010  0.5576 -0.1577  0.2448
  575MOL0     C79230   8.765  10.732   4.137 -0.6028  0.1818  0.0747
  575MOL0     C79231   8.666  10.825   4.104 -0.1515 -0.3740 -1.8729
  575MOL0     C79232   8.592  10.900   4.214  0.2604 -0.2931  0.1137
  575MOL0     C79233   8.625  11.046   4.223 -1.4048  0.2377 -0.4706
  575MOL0     C79234   8.536  11.144   4.315  0.0146  0.1517 -0.2863
  575MOL0     C79235   8.523  11.111   4.456 -0.4155  0.3915  0.1471
  575MOL0     O79236   8.477  10.973   4.473  0.2994 -0.3853 -0.3655
  575MOL0     C79237   8.519  10.891   4.581  0.2065 -0.0225 -1.1541
  575MOL0     C79238   8.472  10.757   4.590 -0.0980 -0.0390 -0.4863
  575MOL0     C79239   8.503  10.667   4.691  1.0804 -0.0440 -0.2747
  575MOL0     C79240   8.446  10.529   4.680  0.7465 -0.0384  1.1073
  575MOL0     C79241   8.566  10.726   4.804  0.6458 -0.8156  0.3651
  575MOL0     C79242   8.589  10.652   4.937  0.1136 -0.0032 -0.4313
  575MOL0     O79243   8.617  10.729   5.049 -0.0405 -0.3373 -0.6819
  575MOL0     C79244   8.580  10.673   5.167 -0.6127  1.2022 -0.2036
  575MOL0     C79245   8.457  10.606   5.199 -0.2437 -0.8351  0.7621
  575MOL0     C79246   8.439  10.528   5.320 -0.2253 -0.1207  0.2942
  575MOL0     C79247   8.544  10.518   5.412 -0.0948  0.1788 -1.3727
  575MOL0     O79248   8.524  10.449   5.529  1.3423 -0.1464 -0.0796
  575MOL0     C79249   8.421  10.521   5.601  0.8864  0.9552 -0.3961
  575MOL0     C79250   8.420  10.483   5.752 -0.6686  0.2046 -0.3825
  575MOL0     C79251   8.547  10.530   5.825  1.1692  0.0451  0.1293
  575MOL0     C79252   8.546  10.497   5.983 -0.1965 -0.0220  0.9165
  575MOL0     C79253   8.671  10.539   6.054  0.3887 -0.0421  0.7711
  575MOL0     C79254   8.704  10.449   6.176 -0.1950 -0.8886  0.2195
  575MOL0     C79255   8.852  10.457   6.240 -0.7663  0.3967 -0.6203
  575MOL0     C79256   8.858  10.423   6.394  0.6197  0.5115  0.9548
  575MOL0    Cl79257   8.787  10.260   6.415  0.5840 -0.2541 -0.0740
  575MOL0     C79258   8.665  10.574   5.388 -0.1528  0.2389 -0.3310
  575MOL0     C79259   8.677  10.658   5.271 -0.5709  0.3221 -0.2197
  575MOL0     O79260   8.593  10.527   4.933 -0.0629 -0.4082 -0.0721
  575MOL0     C79261   8.612  10.867   4.801  0.1326  0.0125  0.1992
  575MOL0     C79262   8.597  10.947   4.686  0.0292  0.0028 -0.1953
  575MOL0     N79263   8.642  10.826   3.970  0.1582 -0.0681 -0.5464
  575MOL0     N79264   8.727  10.752   3.916 -0.1696 -0.0148  0.1956
  575MOL0     C79265   9.931  11.029   4.588  0.4469 -0.5283 -0.6930
  575MOL0     C79266  10.062  11.061   4.567  0.0766 -0.4776 -0.5921
  575MOL0     C79267  10.446  11.261   4.471  0.6280  0.2134 -0.1867
  575MOL0     C79268  10.529  11.155   4.429 -0.2649  0.8543  0.8340
  575MOL0     C79269  10.670  11.158   4.428  0.2671 -0.1466  0.0061
  575MOL0     C79270  10.729  11.271   4.473  0.3427 -0.5679 -1.0544
  575MOL0     O79271  10.866  11.274   4.448 -0.2002 -0.6143 -0.0051
  575MOL0     C79272  10.945  11.158   4.478 -1.1471  0.0485  0.3697
  575MOL0     C79273  11.078  11.194   4.405 -1.1029  0.0205 -0.3998
  575MOL0     C79274  11.189  11.105   4.452 -0.1343  0.5797  0.8090
  575MOL0     C79275  11.312  11.141   4.374  0.2565 -0.2525  0.4460
  575MOL0     C79276  11.410  11.030   4.410 -0.3084 -0.7239 -0.0966
  575MOL0     C79277  11.493  10.940   4.406  0.3034 -0.1559  0.1663
  575MOL0     C79278  10.649  11.373   4.539  0.2743 -0.6912  0.0576
  575MOL0     C79279  10.508  11.380   4.528  0.0374 -0.3559  0.1010
  575MOL0     C79280  10.435  11.503   4.580  0.0938 -0.6006  0.0676
  575MOL0     H79281  10.053  11.164   4.242 -0.3691  0.8253  0.1339
  575MOL0     H79282   9.836  11.055   4.262  4.3960  0.7018 -2.7127
  575MOL0     H79283   9.690  10.881   4.316  1.0085  0.1827 -0.5435
  575MOL0     H79284   9.605  11.033   4.320  2.3417  0.1946  0.5192
  575MOL0     H79285   9.505  10.800   4.489 -1.8079  0.1118  0.0666
  575MOL0     H79286   9.429  10.948   4.465 -1.8866 -4.3648  0.7544
  575MOL0     H79287   9.459  10.891   4.201  1.6945  3.1222  2.8910
  575MOL0     H79288   9.487  10.730   4.261  0.2160  0.1482 -0.1338
  575MOL0     H79289   9.251  10.736   4.373  1.7785 -0.4902 -0.7361
  575MOL0     H79290   9.220  10.880   4.279 -0.6026  0.5350 -2.0134
  575MOL0     H79291   9.284  10.618   4.144  2.5120 -0.0249 -2.9429
  575MOL0     H79292   9.289  10.776   4.074 -0.9343 -0.6102  0.4514
  575MOL0     H79293   9.048  10.732   4.233  0.4449  0.4533 -0.9135
  575MOL0     H79294   9.062  10.811   4.085 -1.3907 -2.0037 -1.2356
  575MOL0     H79295   9.000  10.535   4.160  1.5341  2.9070  2.1747
  575MOL0     H79296   9.125  10.542   4.024  1.0417 -1.1627  0.9921
  575MOL0     H79297   8.964  10.654   3.882  2.0860 -1.2867  1.1800
  575MOL0     H79298   8.886  10.511   3.943 -0.8261  0.0169 -3.8003
  575MOL0     H79299   8.804  10.703   4.234  0.7700  2.4192  0.2660
  575MOL0     H79300   8.600  10.836   4.303 -2.6304  1.6574  1.9545
  575MOL0     H79301   8.483  10.910   4.207  0.3009  1.0024  0.8786
  575MOL0     H79302   8.727  11.049   4.261 -0.1931 -4.3401 -2.5824
  575MOL0     H79303   8.620  11.086   4.121 -1.5496 -0.1018 -0.5988
  575MOL0     H79304   8.570  11.246   4.296 -3.0308  1.7106  1.7511
  575MOL0     H79305   8.436  11.143   4.272 -2.2372  1.2548  4.3077
  575MOL0     H79306   8.620  11.124   4.504 -0.3237 -4.2924  1.7135
  575MOL0     H79307   8.451  11.166   4.517  0.2637 -2.1986  3.6088
  575MOL0     H79308   8.417  10.718   4.506  0.1736 -1.3878 -0.0559
  575MOL0     H79309   8.372  10.491   4.751 -3.1934 -0.2409 -2.7241
  575MOL0     H79310   8.532  10.461   4.691 -0.1756 -1.3565  0.4661
  575MOL0     H79311   8.403  10.502   4.583 -2.3494  2.1994  1.7110
  575MOL0     H79312   8.377  10.608   5.126  1.1820  3.0629 -0.9548
  575MOL0     H79313   8.350  10.466   5.328 -0.8223  0.3587 -2.0559
  575MOL0     H79314   8.430  10.630   5.590 -1.0590  1.5589  2.8541
  575MOL0     H79315   8.327  10.488   5.555  1.3317 -0.6185 -0.2371
  575MOL0     H79316   8.337  10.535   5.800  2.1271  3.1806  1.6441
  575MOL0     H79317   8.417  10.374   5.762  0.1030  0.3497  1.9422
  575MOL0     H79318   8.532  10.638   5.814 -0.2439 -0.1121  0.3351
  575MOL0     H79319   8.635  10.493   5.773  1.4752  0.3354  0.4406
  575MOL0     H79320   8.539  10.388   5.983  0.6536 -0.1072 -0.9431
  575MOL0     H79321   8.457  10.525   6.041 -0.5290  0.4018  0.2117
  575MOL0     H79322   8.753  10.523   5.983 -2.3826 -2.1172 -2.2345
  575MOL0     H79323   8.661  10.646   6.075 -0.0492 -0.1426  1.0968
  575MOL0     H79324   8.691  10.343   6.153 -0.5768 -0.8008  0.0271
  575MOL0     H79325   8.627  10.464   6.252  1.2703 -2.0512  2.0395
  575MOL0     H79326   8.888  10.560   6.237  4.5009 -1.1549 -2.4724
  575MOL0     H79327   8.926  10.405   6.178  0.7602  3.0859 -1.2124
  575MOL0     H79328   8.803  10.497   6.452  1.3606  1.9144 -0.0850
  575MOL0     H79329   8.962  10.440   6.422  0.7070  1.4102  0.1509
  575MOL0     H79330   8.745  10.562   5.461 -1.3564 -2.9655  0.6352
  575MOL0     H79331   8.767  10.707   5.235  0.0649 -0.1850  0.6646
  575MOL0     H79332   8.650  10.901   4.896  1.3843  1.2334 -0.6994
  575MOL0     H79333   8.640  11.047   4.688  0.0823  0.0191 -1.5255
  575MOL0     H79334   9.892  11.011   4.688  3.7708  4.6639  1.9690
  575MOL0     H79335  10.135  11.051   4.646 -1.1127  3.5127  1.2433
  575MOL0     H79336  10.492  11.064   4.383 -0.9782 -0.0363  3.0665
  575MOL0     H79337  10.711  11.068   4.383  0.7336  1.3793 -2.8645
  575MOL0     H79338  10.962  11.151   4.586 -2.0591 -1.8830  0.4205
  575MOL0     H79339  10.908  11.062   4.443  2.1246 -0.8190 -1.1169
  575MOL0     H79340  11.108  11.298   4.424  0.3124 -0.7818  2.3673
  575MOL0     H79341  11.077  11.175   4.297  2.2683 -2.9573 -0.1089
  575MOL0     H79342  11.220  11.113   4.557 -2.0662  2.2216  1.3226
  575MOL0     H79343  11.168  11.000   4.429 -0.3846  0.9969 -0.9970
  575MOL0     H79344  11.351  11.242   4.391  3.6724 -1.7495  2.7514
  575MOL0     H79345  11.289  11.133   4.267 -0.5012  2.0078  0.3837
  575MOL0     H79346  11.574  10.870   4.414 -1.3457 -2.2413 -0.3596
  575MOL0     H79347  10.697  11.462   4.577  1.3246 -0.9920 -0.5119
  575MOL0     H79348  10.407  11.577   4.504  1.0517  1.5184  1.6650
  575MOL0     H79349  10.347  11.470   4.636  1.1601 -0.7023  1.7732
  575MOL0     H79350  10.498  11.545   4.659 -0.7107  2.5351 -0.8043
  576MOL0     O79351   0.154  10.952   3.500  0.1964  0.1889 -0.3488
  576MOL0     C79352   0.201  10.857   3.566 -0.1493  0.9199 -0.2787
  576MOL0     O79353   0.141  10.741   3.610 -0.5071  0.0419 -1.2356
  576MOL0     C79354   0.012  10.744   3.595  0.5128 -0.1047  0.1459
  576MOL0     C79355  -0.037  10.662   3.493 -0.3495 -0.6449  0.0898
  576MOL0     C79356  -0.173  10.628   3.499 -0.0635  0.6406 -1.1138
  576MOL0     C79357  -0.264  10.694   3.590  0.3982  0.7366  0.6804
  576MOL0     O79358  -0.404  10.664   3.576 -0.6627 -0.1413 -0.4784
  576MOL0     C79359  -0.473  10.624   3.695 -0.7987 -0.7351  0.5475
  576MOL0     C79360  -0.607  10.562   3.667  0.6795 -1.1727 -0.1783
  576MOL0     C79361  -0.685  10.516   3.789  0.1272  0.0494  0.8705
  576MOL0     C79362  -0.637  10.406   3.878  0.2658 -0.3170 -0.0233
  576MOL0     C79363  -0.720  10.391   4.003 -0.2924 -0.5886 -0.0978
  576MOL0     C79364  -0.681  10.268   4.094 -0.2272  1.3113 -0.0077
  576MOL0     C79365  -0.556  10.283   4.176 -1.1482  0.7763  0.3815
  576MOL0     C79366  -0.509  10.147   4.229 -0.2073 -0.8418  0.6376
  576MOL0     N79367  -0.378  10.141   4.293 -0.8177 -0.4102  0.2331
  576MOL0     C79368  -0.356  10.141   4.426  0.0986 -0.0360 -0.9145
  576MOL0     C79369  -0.226  10.133   4.442 -0.2071 -0.4008  0.3299
  576MOL0     C79370  -0.140  10.145   4.567 -0.5384  0.9174 -0.3725
  576MOL0     C79371  -0.190  10.060   4.684 -0.4239  0.5841 -0.4332
  576MOL0     C79372  -0.180   9.908   4.658  0.3049  0.1192  0.5094
  576MOL0     C79373  -0.284   9.828   4.733  0.2116 -0.1281 -0.0749
  576MOL0     O79374  -0.249   9.821   4.872 -0.9995 -0.0917  0.1204
  576MOL0     C79375  -0.261   9.708   4.951 -0.1686 -0.3372  1.2972
  576MOL0     C79376  -0.368   9.624   4.939  0.0555  1.2752 -0.4906
  576MOL0     C79377  -0.385   9.506   5.008 -0.1856  0.0204 -1.2677
  576MOL0     C79378  -0.511   9.420   4.984  0.1445  1.0897 -1.3975
  576MOL0     C79379  -0.278   9.481   5.105 -0.3756  0.3516 -0.5999
  576MOL0     C79380  -0.277   9.370   5.205 -0.1063 -0.2334  0.0394
  576MOL0     O79381  -0.158   9.349   5.281 -0.1877  0.1107  0.2495
  576MOL0     C79382  -0.180   9.278   5.405  0.0528  0.7094  0.0617
  576MOL0     C79383  -0.109   9.160   5.427  0.1938  0.1445  0.2022
  576MOL0     C79384  -0.118   9.082   5.538 -0.1801  0.2063  0.4056
  576MOL0     C79385  -0.198   9.122   5.641  0.3535  0.0406 -0.6071
  576MOL0     O79386  -0.216   9.047   5.759 -0.3692 -0.7786  0.4582
  576MOL0     C79387  -0.189   8.899   5.749 -0.0440 -0.9191 -0.6570
  576MOL0     C79388  -0.229   8.829   5.883  0.1434  0.5926  0.9438
  576MOL0     C79389  -0.210   8.677   5.857 -0.0133  0.6292  0.8433
  576MOL0     C79390  -0.244   8.587   5.974  0.3830 -0.1538  0.5185
  576MOL0     C79391  -0.226   8.442   5.949  0.1974 -0.2683  0.3246
  576MOL0     C79392  -0.078   8.410   5.918  0.2562 -0.0631 -0.0945
  576MOL0     C79393  -0.061   8.256   5.888  1.3347  1.2426  0.1136
  576MOL0     C79394   0.079   8.222   5.925 -0.5699 -0.2362  0.5849
  576MOL0    Cl79395   0.124   8.057   5.873  0.3920  0.3929 -0.1379
  576MOL0     C79396  -0.264   9.249   5.638 -0.3606 -0.2533  0.0816
  576MOL0     C79397  -0.254   9.330   5.521  0.4032  0.1293  0.2496
  576MOL0     O79398  -0.380   9.306   5.219 -0.8181 -0.1324  0.0151
  576MOL0     C79399  -0.163   9.567   5.115 -0.1852 -0.3432 -0.4489
  576MOL0     C79400  -0.161   9.682   5.037  0.7426 -0.0225 -0.2335
  576MOL0     N79401  -0.164  10.107   4.321  0.3063 -0.5577 -0.0535
  576MOL0     N79402  -0.259  10.121   4.231  0.1718  0.2152  0.0995
  576MOL0     C79403  -0.208  10.779   3.687  0.3276 -0.6937  0.1080
  576MOL0     C79404  -0.072  10.794   3.695  0.1641 -1.2954 -0.1622
  576MOL0     C79405   0.348  10.836   3.580  0.1457 -0.6655  0.6579
  576MOL0     C79406   0.405  10.707   3.546  0.0549  0.0150 -0.0400
  576MOL0     C79407   0.541  10.690   3.548 -0.4787  0.1835  0.0127
  576MOL0     C79408   0.623  10.793   3.594 -0.0723  1.1844 -0.7017
  576MOL0     O79409   0.756  10.770   3.585 -0.1791 -0.0644 -0.4128
  576MOL0     C79410   0.860  10.868   3.600 -0.5857  1.1842 -0.5059
  576MOL0     C79411   0.974  10.830   3.504 -0.5652  0.7105 -0.6301
  576MOL0     C79412   1.110  10.885   3.560  0.4418  0.3155 -0.1998
  576MOL0     C79413   1.223  10.787   3.549 -0.0403  0.7932 -0.5099
  576MOL0     C79414   1.344  10.863   3.525 -0.8231  0.5990 -0.4160
  576MOL0     C79415   1.447  10.938   3.534  0.0357  0.5813  1.4266
  576MOL0     C79416   0.574  10.914   3.621  0.0865 -1.2546  0.5398
  576MOL0     C79417   0.437  10.942   3.611  0.1340 -0.2323  0.0647
  576MOL0     C79418   0.395  11.086   3.636  0.5214 -0.2922  0.5656
  576MOL0     H79419   0.031  10.624   3.416 -1.0287  1.0480 -1.4227
  576MOL0     H79420  -0.208  10.565   3.418 -2.3593  0.4499 -0.0511
  576MOL0     H79421  -0.469  10.717   3.753  2.4659  2.0680 -3.5424
  576MOL0     H79422  -0.419  10.543   3.746 -1.7650 -0.7000  1.6777
  576MOL0     H79423  -0.659  10.633   3.603  0.2084  0.2292  1.6732
  576MOL0     H79424  -0.572  10.469   3.621  3.3261 -0.7230  0.7494
  576MOL0     H79425  -0.702  10.602   3.854 -0.4442  1.0617 -0.5831
  576MOL0     H79426  -0.776  10.475   3.744 -0.0402 -0.7442  1.8830
  576MOL0     H79427  -0.645  10.323   3.807 -1.3463  0.5468 -0.9004
  576MOL0     H79428  -0.533  10.430   3.902 -0.4151  1.9930  0.8990
  576MOL0     H79429  -0.824  10.372   3.976 -0.4076 -2.6044  1.4446
  576MOL0     H79430  -0.719  10.478   4.069  1.5676 -1.4484  1.0971
  576MOL0     H79431  -0.773  10.257   4.152 -3.5620 -0.3076 -4.9586
  576MOL0     H79432  -0.671  10.180   4.029 -4.1073  0.4028  0.3946
  576MOL0     H79433  -0.588  10.341   4.263 -0.9416  0.0183  0.9754
  576MOL0     H79434  -0.474  10.332   4.122 -0.3492 -0.0722  0.8062
  576MOL0     H79435  -0.586  10.101   4.291 -1.7229  0.7934  0.0670
  576MOL0     H79436  -0.499  10.083   4.141  1.7960  0.4613 -0.1668
  576MOL0     H79437  -0.416  10.156   4.515  2.6252 -0.8316  1.0486
  576MOL0     H79438  -0.147  10.249   4.600 -1.9414  0.7299  0.0198
  576MOL0     H79439  -0.037  10.112   4.550 -0.3691  2.4722 -2.7792
  576MOL0     H79440  -0.148  10.088   4.781 -2.3012  2.1752 -0.0100
  576MOL0     H79441  -0.295  10.088   4.695 -0.4203  0.2597  0.5261
  576MOL0     H79442  -0.188   9.886   4.552  0.5864 -2.2942  0.9436
  576MOL0     H79443  -0.081   9.884   4.698  0.9588  1.1984 -0.3990
  576MOL0     H79444  -0.384   9.863   4.709  0.4752  0.6517 -0.0542
  576MOL0     H79445  -0.281   9.723   4.702 -1.5944  0.0331 -0.9000
  576MOL0     H79446  -0.445   9.655   4.869 -1.4591  3.0383  1.8232
  576MOL0     H79447  -0.568   9.414   5.077  2.4670  0.1257  0.0703
  576MOL0     H79448  -0.471   9.319   4.970  0.7941  0.6589  2.4520
  576MOL0     H79449  -0.580   9.460   4.909  1.6887 -0.5196 -3.8344
  576MOL0     H79450  -0.040   9.125   5.351 -0.1419  0.3573 -0.2039
  576MOL0     H79451  -0.047   9.000   5.542 -1.5217 -1.0938 -0.8766
  576MOL0     H79452  -0.245   8.850   5.668  2.0849 -2.1772 -1.4315
  576MOL0     H79453  -0.083   8.882   5.734 -0.1544 -2.6251  0.2675
  576MOL0     H79454  -0.155   8.846   5.961  1.0003 -0.2306  0.3354
  576MOL0     H79455  -0.333   8.846   5.911 -0.5681 -2.2175  0.3074
  576MOL0     H79456  -0.103   8.670   5.835  0.3659  1.9495  2.1062
  576MOL0     H79457  -0.265   8.655   5.765 -1.8023  0.4484  1.9158
  576MOL0     H79458  -0.342   8.606   6.017  1.0648  3.0058  0.8979
  576MOL0     H79459  -0.178   8.623   6.054 -1.9529  2.6172  1.3606
  576MOL0     H79460  -0.262   8.386   6.037  0.7211 -3.6505 -1.4358
  576MOL0     H79461  -0.282   8.405   5.863 -1.6004 -0.1679  1.4040
  576MOL0     H79462  -0.012   8.452   5.994 -0.6339  0.1096  0.5998
  576MOL0     H79463  -0.047   8.465   5.829  0.2236 -2.6133 -1.7903
  576MOL0     H79464  -0.075   8.255   5.780 -2.7219 -0.3092  0.4920
  576MOL0     H79465  -0.137   8.198   5.940  0.5664  0.9194 -1.3489
  576MOL0     H79466   0.096   8.240   6.032 -2.5140  0.0839  0.8679
  576MOL0     H79467   0.142   8.295   5.874 -0.3080  0.5316  1.9535
  576MOL0     H79468  -0.319   9.282   5.726 -0.0434  1.0061 -0.1816
  576MOL0     H79469  -0.309   9.422   5.505  0.4528  0.1624  0.2695
  576MOL0     H79470  -0.082   9.564   5.187 -1.9058  1.6524  1.7107
  576MOL0     H79471  -0.095   9.768   5.041  2.0044 -0.9827  0.5082
  576MOL0     H79472  -0.275  10.817   3.764  1.1663  0.0072  0.5161
  576MOL0     H79473  -0.015  10.836   3.778  0.9013 -0.6677 -0.9660
  576MOL0     H79474   0.348  10.631   3.494  2.5402 -3.2927  1.6489
  576MOL0     H79475   0.591  10.599   3.515  2.9898  2.0745 -0.4242
  576MOL0     H79476   0.831  10.964   3.555  0.9119  2.2134  0.6084
  576MOL0     H79477   0.888  10.874   3.706  0.5544  1.0638 -0.7868
  576MOL0     H79478   0.949  10.873   3.406  0.0866 -0.2412 -1.2288
  576MOL0     H79479   0.984  10.722   3.491  1.7735  0.3718  2.8958
  576MOL0     H79480   1.136  10.978   3.509  1.4214 -0.0900 -0.4681
  576MOL0     H79481   1.092  10.917   3.662 -2.7229  1.8333 -1.1170
  576MOL0     H79482   1.210  10.717   3.467 -0.6646  1.2111 -0.7741
  576MOL0     H79483   1.228  10.720   3.635  3.5526 -0.1819 -1.3076
  576MOL0     H79484   1.536  10.998   3.536  1.0220 -0.7589  0.4066
  576MOL0     H79485   0.645  10.992   3.648 -0.8213 -0.1140 -0.2858
  576MOL0     H79486   0.320  11.092   3.716  2.0150  2.4976  1.9030
  576MOL0     H79487   0.472  11.152   3.677  0.5523 -0.1444  0.2688
  576MOL0     H79488   0.359  11.123   3.539 -0.4686  0.0878  1.0677
  577MOL0     O79489  10.478   8.206   1.501  0.0481 -0.6872 -0.4068
  577MOL0     C79490  10.511   8.148   1.396  0.3555 -0.5055  0.0827
  577MOL0     O79491  10.456   8.035   1.352 -0.0763  0.3139 -0.4937
  577MOL0     C79492  10.350   7.976   1.422  0.3955 -0.5298  0.6487
  577MOL0     C79493  10.255   7.919   1.342 -0.2891 -0.0250 -0.2369
  577MOL0     C79494  10.133   7.869   1.396  0.8727 -0.1611 -1.4491
  577MOL0     C79495  10.106   7.864   1.530 -0.3187 -0.1943 -1.0408
  577MOL0     O79496   9.987   7.834   1.595  0.2248 -0.2605  0.0562
  577MOL0     C79497   9.926   7.709   1.564  0.6520 -0.6400  0.6967
  577MOL0     C79498   9.780   7.716   1.598 -0.5308 -0.1105 -0.0987
  577MOL0     C79499   9.762   7.733   1.752  0.0244 -0.4369 -0.6104
  577MOL0     C79500   9.616   7.733   1.810  0.5514 -0.6385 -0.8153
  577MOL0     C79501   9.528   7.842   1.742 -0.2729  0.5210 -0.1122
  577MOL0     C79502   9.386   7.807   1.755 -0.3239  0.0941 -0.3658
  577MOL0     C79503   9.292   7.916   1.714 -0.1286 -0.0852 -0.6624
  577MOL0     C79504   9.277   8.025   1.814 -1.0413  0.3024 -1.2524
  577MOL0     N79505   9.182   8.130   1.777  0.1677  1.1425 -0.6481
  577MOL0     C79506   9.175   8.198   1.664 -0.5403  0.7750  0.3675
  577MOL0     C79507   9.062   8.270   1.669 -0.2479  0.2998 -0.5409
  577MOL0     C79508   9.005   8.353   1.554 -0.7369  0.1969  0.4221
  577MOL0     C79509   8.917   8.280   1.461  0.5646 -0.2139 -0.0435
  577MOL0     C79510   8.795   8.209   1.523  0.1131 -0.4948 -0.2942
  577MOL0     C79511   8.717   8.135   1.415  0.7410 -0.0957  0.5603
  577MOL0     O79512   8.625   8.048   1.473  0.5821  1.3325  0.0452
  577MOL0     C79513   8.542   7.971   1.399 -0.5711 -0.1507  0.5813
  577MOL0     C79514   8.492   7.848   1.448 -0.7083 -0.1950  0.8369
  577MOL0     C79515   8.412   7.767   1.376  0.7677  0.0371 -0.4709
  577MOL0     C79516   8.375   7.634   1.446 -0.7339 -0.7623  0.8828
  577MOL0     C79517   8.366   7.806   1.246  0.2908 -0.3283 -0.2378
  577MOL0     C79518   8.252   7.739   1.183  1.0820  0.9695  0.3314
  577MOL0     O79519   8.292   7.702   1.063  0.4999 -0.1536  0.0326
  577MOL0     C79520   8.209   7.624   0.992 -0.5905 -0.0415  1.4139
  577MOL0     C79521   8.137   7.667   0.887 -0.2882  0.0947  0.2034
  577MOL0     C79522   8.068   7.574   0.803  0.6517 -0.7666 -0.0966
  577MOL0     C79523   8.054   7.441   0.847  0.6581 -0.4196 -0.0322
  577MOL0     O79524   7.960   7.355   0.793 -0.8848  0.6265 -0.4233
  577MOL0     C79525   7.841   7.396   0.741  0.0191  0.2423 -0.5071
  577MOL0     C79526   7.755   7.269   0.721  0.4958  0.2191  0.8666
  577MOL0     C79527   7.815   7.167   0.618  0.1911 -0.5375 -0.4863
  577MOL0     C79528   7.755   7.028   0.613 -0.5612  0.4728 -0.5744
  577MOL0     C79529   7.612   7.020   0.549  0.5194  0.1861 -0.2854
  577MOL0     C79530   7.596   6.871   0.545 -0.5980  0.3318  0.2924
  577MOL0     C79531   7.479   6.827   0.464 -0.4467  0.6465 -0.3659
  577MOL0     C79532   7.493   6.674   0.463 -0.3963 -0.2892 -0.5458
  577MOL0    Cl79533   7.590   6.622   0.327 -0.2921  0.2108 -0.1470
  577MOL0     C79534   8.130   7.393   0.954 -0.6214 -0.1192 -0.2235
  577MOL0     C79535   8.206   7.490   1.027 -0.3424  0.2055  0.4076
  577MOL0     O79536   8.144   7.703   1.239 -0.1600 -0.2291  0.3990
  577MOL0     C79537   8.411   7.924   1.195  0.1419  0.4304  0.2348
  577MOL0     C79538   8.497   8.007   1.273 -0.9655  0.6066 -0.3731
  577MOL0     N79539   9.007   8.251   1.790 -0.3243 -0.2215 -1.0868
  577MOL0     N79540   9.081   8.168   1.858  0.2804  0.0012 -0.1535
  577MOL0     C79541  10.204   7.916   1.615 -1.0058 -0.1192 -0.9464
  577MOL0     C79542  10.322   7.973   1.564 -1.2633  0.2571  0.2040
  577MOL0     C79543  10.612   8.224   1.323 -0.5637  0.0309 -0.7947
  577MOL0     C79544  10.630   8.370   1.346 -0.5182  1.0011  0.3987
  577MOL0     C79545  10.727   8.438   1.283 -0.9215 -0.1186  0.6798
  577MOL0     C79546  10.806   8.381   1.185  0.4137  0.0737 -0.5791
  577MOL0     O79547  10.911   8.455   1.125  0.4134 -0.4194 -0.7456
  577MOL0     C79548  11.023   8.388   1.073 -0.5836  0.5294 -0.1052
  577MOL0     C79549  11.122   8.507   1.050  0.2555  0.3298  0.6241
  577MOL0     C79550  11.200   8.541   1.177  0.1632 -0.2646 -0.4166
  577MOL0     C79551  11.332   8.620   1.138  0.2426 -0.8618 -0.5443
  577MOL0     C79552  11.406   8.605   1.266  0.3271  0.9883  0.5901
  577MOL0     C79553  11.465   8.614   1.373 -0.6832 -0.3032  0.2334
  577MOL0     C79554  10.781   8.249   1.147 -0.6303 -0.6251 -0.1859
  577MOL0     C79555  10.686   8.172   1.212  0.2918 -0.4600  0.5077
  577MOL0     C79556  10.672   8.034   1.174  0.2670  0.5677  0.4565
  577MOL0     H79557  10.261   7.920   1.234 -0.8630  0.1147 -0.2729
  577MOL0     H79558  10.063   7.825   1.326  1.2484 -2.6094 -0.4063
  577MOL0     H79559   9.966   7.627   1.624 -0.8631  0.1232  2.8542
  577MOL0     H79560   9.931   7.673   1.461  2.0265 -0.8685  0.8269
  577MOL0     H79561   9.729   7.795   1.542 -2.3339  1.3549  3.3089
  577MOL0     H79562   9.744   7.617   1.570  3.2256 -0.8664 -3.0674
  577MOL0     H79563   9.820   7.656   1.804  0.0540  1.2033  1.9742
  577MOL0     H79564   9.814   7.818   1.798  0.2950 -0.0276 -1.6525
  577MOL0     H79565   9.579   7.631   1.796  1.9527 -1.2095 -0.5167
  577MOL0     H79566   9.605   7.729   1.918  0.2638 -4.9656 -0.8362
  577MOL0     H79567   9.551   7.844   1.635  1.1199 -1.5206  0.0869
  577MOL0     H79568   9.556   7.938   1.785 -1.7444  0.2414  1.5892
  577MOL0     H79569   9.372   7.727   1.682  0.4651 -0.3760 -0.0156
  577MOL0     H79570   9.357   7.775   1.856 -0.9218 -0.3982 -0.6845
  577MOL0     H79571   9.191   7.876   1.700 -0.9232  1.3951  0.5173
  577MOL0     H79572   9.321   7.962   1.619 -1.5177  0.7443 -0.7160
  577MOL0     H79573   9.247   7.972   1.905 -0.1015  0.9716 -0.5347
  577MOL0     H79574   9.375   8.069   1.833 -0.3575 -0.1351 -3.4770
  577MOL0     H79575   9.245   8.181   1.583 -3.1586  0.5434 -1.9726
  577MOL0     H79576   9.079   8.404   1.493  0.7039 -2.5954 -0.3467
  577MOL0     H79577   8.937   8.426   1.599 -1.1641  0.4286 -0.5919
  577MOL0     H79578   8.877   8.347   1.383  0.4292  0.8921  0.9418
  577MOL0     H79579   8.983   8.210   1.409  0.0825 -0.4708 -0.3176
  577MOL0     H79580   8.822   8.124   1.587  0.8802 -1.6036 -2.0217
  577MOL0     H79581   8.732   8.290   1.560  0.9434  1.2840 -2.4979
  577MOL0     H79582   8.672   8.216   1.356  1.8464  1.6105  1.9527
  577MOL0     H79583   8.787   8.084   1.348 -0.4367  0.2579 -1.0112
  577MOL0     H79584   8.532   7.806   1.540  1.3364 -2.0058 -0.7937
  577MOL0     H79585   8.467   7.600   1.494  1.9295  3.2252 -0.8331
  577MOL0     H79586   8.343   7.560   1.371 -0.4846  1.8833 -2.0507
  577MOL0     H79587   8.296   7.660   1.517  1.0208  2.9327  1.6892
  577MOL0     H79588   8.161   7.767   0.853 -0.0408 -0.8133 -2.5102
  577MOL0     H79589   8.026   7.603   0.708  3.0989 -0.9812 -1.3167
  577MOL0     H79590   7.788   7.464   0.807 -0.9716 -1.0873  0.1253
  577MOL0     H79591   7.856   7.447   0.645  1.1728  1.1727  0.1539
  577MOL0     H79592   7.754   7.219   0.818 -0.6578 -2.8951 -0.6007
  577MOL0     H79593   7.650   7.298   0.705 -0.0349 -0.3742  2.9506
  577MOL0     H79594   7.918   7.150   0.651  0.4511 -0.5426 -1.2777
  577MOL0     H79595   7.821   7.200   0.514  2.5431 -0.7873 -0.4753
  577MOL0     H79596   7.750   6.975   0.708 -2.6094 -3.1452 -2.4688
  577MOL0     H79597   7.835   6.977   0.558  1.0682 -0.7868  2.6869
  577MOL0     H79598   7.539   7.072   0.612  1.0290 -0.7159  1.1167
  577MOL0     H79599   7.609   7.058   0.447 -0.7696 -1.2283 -0.8176
  577MOL0     H79600   7.591   6.836   0.649  1.6517  2.4030  1.2145
  577MOL0     H79601   7.685   6.828   0.499  1.5569  5.0250 -0.5566
  577MOL0     H79602   7.480   6.869   0.363 -0.6064 -1.9401 -1.5008
  577MOL0     H79603   7.383   6.845   0.513 -0.8449 -1.6742 -0.2000
  577MOL0     H79604   7.394   6.633   0.441  0.5059 -2.8419 -0.2001
  577MOL0     H79605   7.512   6.626   0.560 -1.1237  0.9775  0.2665
  577MOL0     H79606   8.136   7.292   0.991  4.1601 -0.1509 -0.5139
  577MOL0     H79607   8.269   7.455   1.108  0.1155  3.5737  1.6636
  577MOL0     H79608   8.399   7.954   1.092  4.9727 -0.9124 -0.9415
  577MOL0     H79609   8.519   8.101   1.224 -0.8815  0.7026 -0.1483
  577MOL0     H79610  10.170   7.917   1.718 -3.0195 -4.9402 -1.2962
  577MOL0     H79611  10.393   7.996   1.642 -0.9712  1.4948 -0.3909
  577MOL0     H79612  10.575   8.419   1.426 -2.4709  1.4111 -1.1288
  577MOL0     H79613  10.732   8.545   1.303 -1.5756  0.4519 -1.8350
  577MOL0     H79614  11.066   8.323   1.149  0.3248  1.1950 -0.0335
  577MOL0     H79615  11.013   8.325   0.984  1.3572  1.1065 -0.7907
  577MOL0     H79616  11.061   8.594   1.023  0.0215 -0.6447 -2.3917
  577MOL0     H79617  11.193   8.482   0.971 -1.9542 -2.2019 -0.7604
  577MOL0     H79618  11.138   8.593   1.250  0.0842 -1.2516  0.2432
  577MOL0     H79619  11.232   8.447   1.225  1.8473  1.0237  1.1338
  577MOL0     H79620  11.313   8.725   1.114  1.3315 -0.5110  0.0597
  577MOL0     H79621  11.380   8.584   1.046  0.0777  0.6245 -1.2387
  577MOL0     H79622  11.521   8.612   1.464 -0.4665 -7.2516  0.4593
  577MOL0     H79623  10.847   8.201   1.076 -0.3514 -0.2366 -0.1923
  577MOL0     H79624  10.701   7.970   1.258  1.7647  0.4699 -0.1092
  577MOL0     H79625  10.571   8.022   1.135  0.7589  2.0381 -1.4085
  577MOL0     H79626  10.738   8.008   1.090 -0.5284  0.0750 -0.0255
  578MOL0     O79627   0.510  11.491  10.386  0.1876 -0.4044 -0.1408
  578MOL0     C79628   0.495  11.512  10.259 -0.4232  0.2233 -1.0404
  578MOL0     O79629   0.387  11.455  10.183 -0.4788 -0.5947  0.0101
  578MOL0     C79630   0.302  11.377  10.246 -0.1387 -1.0580 -0.5991
  578MOL0     C79631   0.173  11.419  10.267 -1.0365  0.3468  0.0574
  578MOL0     C79632   0.094  11.329  10.339 -0.3761  0.0705 -0.0375
  578MOL0     C79633   0.139  11.206  10.388 -0.2910 -0.2742  0.3565
  578MOL0     O79634   0.061  11.153  10.487  0.2319 -0.9518 -0.1438
  578MOL0     C79635   0.105  11.044  10.564 -0.0416  0.5864 -0.3609
  578MOL0     C79636  -0.008  10.973  10.627 -0.4309 -0.2856 -0.0722
  578MOL0     C79637   0.015  10.831  10.670  1.9079 -0.2095 -0.5814
  578MOL0     C79638   0.126  10.796  10.770  0.9061 -0.8995 -0.0692
  578MOL0     C79639   0.103  10.872  10.897 -0.7420 -1.0064 -0.8253
  578MOL0     C79640   0.196  10.817  11.007 -0.6667 -0.5710 -0.3329
  578MOL0     C79641   0.185  10.925  11.123 -0.0929 -0.8361 -0.5735
  578MOL0     C79642   0.258  10.873  11.247  0.0467 -0.3435  0.9760
  578MOL0     N79643   0.242  10.980  11.345 -0.4089  0.1237  0.8566
  578MOL0     C79644   0.335  11.070  11.388  0.7648 -0.3289  1.0431
  578MOL0     C79645   0.275  11.144  11.481 -0.0910  1.1468 -0.3150
  578MOL0     C79646   0.329  11.263  11.558 -0.4404  0.1711 -0.0649
  578MOL0     C79647   0.221  11.352  11.629 -0.7652 -0.4578  1.0650
  578MOL0     C79648   0.168  11.277  11.752 -0.3805  0.1037 -0.6509
  578MOL0     C79649   0.064  11.373  11.810  0.4774 -0.3434 -0.4335
  578MOL0     O79650   0.005  11.294  11.915  0.2284 -0.8424 -0.3067
  578MOL0     C79651  -0.127  11.328  11.937  0.0929 -0.1941  0.3253
  578MOL0     C79652  -0.177  11.462  11.952  0.2146  0.0873  0.7201
  578MOL0     C79653  -0.316  11.493  11.954  0.1460 -0.0390  0.6758
  578MOL0     C79654  -0.350  11.642  11.970  0.5184 -0.2963  0.2900
  578MOL0     C79655  -0.407  11.388  11.928  0.1077  0.3983 -0.4009
  578MOL0     C79656  -0.550  11.404  11.910 -0.3021  1.3052  0.0368
  578MOL0     O79657  -0.619  11.298  11.872 -0.3043  0.2729  0.5415
  578MOL0     C79658  -0.731  11.302  11.796  0.1837 -1.2514 -1.2450
  578MOL0     C79659  -0.824  11.204  11.833 -0.1233  0.1099 -1.1729
  578MOL0     C79660  -0.942  11.195  11.769 -0.0603  0.3486 -0.0575
  578MOL0     C79661  -0.973  11.284  11.659 -0.4074  0.5245  0.0225
  578MOL0     O79662  -1.092  11.273  11.589  0.0859 -0.3076  0.3165
  578MOL0     C79663  -1.193  11.168  11.624 -0.4714 -0.7689 -0.1929
  578MOL0     C79664  -1.310  11.172  11.518 -0.7105 -0.9287  0.1944
  578MOL0     C79665  -1.371  11.309  11.490 -0.4202  0.2193 -0.0055
  578MOL0     C79666  -1.495  11.304  11.396 -0.3919 -0.3116 -0.4161
  578MOL0     C79667  -1.564  11.442  11.398 -0.9754  0.2368 -0.0545
  578MOL0     C79668  -1.714  11.432  11.366 -0.0872  0.8784  0.1521
  578MOL0     C79669  -1.785  11.495  11.490 -1.4688 -0.5840  0.7890
  578MOL0     C79670  -1.938  11.471  11.495 -0.5344 -0.8528  0.0821
  578MOL0    Cl79671  -1.968  11.299  11.536  0.4991  0.1305 -0.1556
  578MOL0     C79672  -0.883  11.386  11.625 -0.1069 -0.3471 -0.5333
  578MOL0     C79673  -0.764  11.396  11.694 -0.3502  0.2572 -1.2049
  578MOL0     O79674  -0.601  11.504  11.951 -0.2065 -0.8068 -0.0060
  578MOL0     C79675  -0.356  11.260  11.910  0.0690 -0.3605 -0.4500
  578MOL0     C79676  -0.217  11.229  11.918 -0.1511  0.5936 -0.5619
  578MOL0     N79677   0.152  11.085  11.506  0.0126 -0.3957 -1.0179
  578MOL0     N79678   0.132  10.989  11.428  0.3260  0.3515  0.0714
  578MOL0     C79679   0.271  11.164  10.364  0.0119  0.2216 -0.0793
  578MOL0     C79680   0.347  11.254  10.292  0.5249 -0.5894  0.2106
  578MOL0     C79681   0.564  11.618  10.189 -0.5350  0.9636  0.6772
  578MOL0     C79682   0.601  11.591  10.058  0.1350 -0.3802 -1.7426
  578MOL0     C79683   0.663  11.685   9.978 -0.2821  0.1641 -0.5736
  578MOL0     C79684   0.662  11.818  10.017  0.4001 -0.7413 -0.7156
  578MOL0     O79685   0.668  11.920   9.923 -0.3108 -0.3887  0.1186
  578MOL0     C79686   0.643  12.049   9.953  0.2152  0.4610  0.7791
  578MOL0     C79687   0.615  12.120   9.814 -0.3201  0.7635  0.7324
  578MOL0     C79688   0.745  12.112   9.729 -0.0494 -0.1017  0.5950
  578MOL0     C79689   0.853  12.212   9.785  0.5555  0.0955  0.4287
  578MOL0     C79690   0.962  12.207   9.688 -0.9546  0.5525 -0.2736
  578MOL0     C79691   1.049  12.202   9.602  0.3356  0.4277 -0.6219
  578MOL0     C79692   0.625  11.846  10.157  0.0521 -0.5526  0.0511
  578MOL0     C79693   0.579  11.744  10.244  0.0998  0.0544 -0.1494
  578MOL0     C79694   0.524  11.793  10.388 -0.4723  1.0161  0.6079
  578MOL0     H79695   0.135  11.510  10.222 -1.4464 -1.2504 -3.0943
  578MOL0     H79696  -0.006  11.360  10.365 -1.1338  0.1278 -2.7328
  578MOL0     H79697   0.179  11.078  10.636 -1.2155  1.9891  0.2425
  578MOL0     H79698   0.147  10.967  10.499 -2.8573  0.6583 -2.4951
  578MOL0     H79699  -0.037  11.037  10.711 -1.1705  1.3399 -1.5019
  578MOL0     H79700  -0.089  10.979  10.554 -1.8248 -0.5567  1.3891
  578MOL0     H79701  -0.080  10.783  10.697  1.6232 -0.6390 -2.2625
  578MOL0     H79702   0.043  10.782  10.577  1.6147  2.3477 -2.1023
  578MOL0     H79703   0.122  10.688  10.792  3.3658 -1.2479 -1.0680
  578MOL0     H79704   0.225  10.812  10.729  1.3130 -1.5563  0.6243
  578MOL0     H79705  -0.004  10.879  10.919 -0.5011 -4.4154  2.7164
  578MOL0     H79706   0.143  10.970  10.869  2.4957 -2.3526 -1.3833
  578MOL0     H79707   0.169  10.712  11.023  0.1957 -1.1428 -2.3796
  578MOL0     H79708   0.302  10.813  10.981 -0.7616 -2.8528 -0.6065
  578MOL0     H79709   0.081  10.950  11.146  0.6909  1.2271  1.0729
  578MOL0     H79710   0.241  11.012  11.086 -1.4789  1.0309  1.4108
  578MOL0     H79711   0.204  10.785  11.285 -1.6299  0.2770  0.1353
  578MOL0     H79712   0.359  10.840  11.223 -0.0470  0.0093  0.0753
  578MOL0     H79713   0.438  11.081  11.356  0.4142 -2.7155 -1.2275
  578MOL0     H79714   0.376  11.325  11.480  0.7056 -2.2534 -1.4398
  578MOL0     H79715   0.399  11.226  11.634  0.6701 -0.0848 -1.1706
  578MOL0     H79716   0.268  11.448  11.655  0.2236 -0.7828  0.5478
  578MOL0     H79717   0.152  11.383  11.551 -0.1429 -0.2557  0.5807
  578MOL0     H79718   0.118  11.185  11.719  0.4249 -0.4042 -0.4973
  578MOL0     H79719   0.240  11.252  11.830 -0.3000  0.2553 -0.6764
  578MOL0     H79720   0.108  11.469  11.838  0.1230 -0.4960  0.6847
  578MOL0     H79721  -0.003  11.390  11.725  1.5231 -0.6102 -1.3483
  578MOL0     H79722  -0.103  11.537  11.980 -1.9128  2.1770  1.0896
  578MOL0     H79723  -0.450  11.674  11.942 -1.2862 -1.5207  4.6708
  578MOL0     H79724  -0.268  11.706  11.935  0.1925 -0.7249 -1.3675
  578MOL0     H79725  -0.355  11.660  12.077 -0.0083  0.7013  0.1033
  578MOL0     H79726  -0.792  11.134  11.909  0.7522  2.4934  0.7896
  578MOL0     H79727  -1.013  11.116  11.790 -2.1786  2.3768  0.9606
  578MOL0     H79728  -1.145  11.071  11.608 -3.8609 -2.0805 -4.6690
  578MOL0     H79729  -1.236  11.182  11.723 -2.7954 -2.3933 -0.8969
  578MOL0     H79730  -1.268  11.121  11.431 -1.5454 -0.4080 -0.5273
  578MOL0     H79731  -1.391  11.112  11.561 -1.0329 -3.1784 -3.1693
  578MOL0     H79732  -1.296  11.379  11.453  1.5276 -2.1987 -0.8714
  578MOL0     H79733  -1.413  11.338  11.587 -2.4237  1.3368 -1.1273
  578MOL0     H79734  -1.563  11.231  11.440 -1.8154  0.2116 -1.6628
  578MOL0     H79735  -1.466  11.291  11.291  2.3494  2.2905 -0.1320
  578MOL0     H79736  -1.551  11.493  11.493 -0.4790 -0.5449  0.3086
  578MOL0     H79737  -1.529  11.501  11.312 -0.6291 -1.6738 -1.2968
  578MOL0     H79738  -1.746  11.328  11.353  1.3018  0.0191  2.7549
  578MOL0     H79739  -1.738  11.483  11.272  1.7323  3.5570  1.0188
  578MOL0     H79740  -1.768  11.603  11.486  1.2336 -0.9310  1.2411
  578MOL0     H79741  -1.740  11.466  11.586 -2.2506  1.0127  1.6782
  578MOL0     H79742  -1.992  11.480  11.401 -0.8421  1.8475  0.4480
  578MOL0     H79743  -1.984  11.541  11.566  0.3027 -0.6603  0.4541
  578MOL0     H79744  -0.896  11.468  11.556  0.8224  0.7847  0.5952
  578MOL0     H79745  -0.693  11.477  11.677  0.6133  0.0558  1.3403
  578MOL0     H79746  -0.417  11.176  11.878  1.2528 -0.3278 -2.9700
  578MOL0     H79747  -0.183  11.129  11.897 -0.7666  0.5214 -1.2789
  578MOL0     H79748   0.321  11.089  10.424 -1.6591  1.8332  3.6616
  578MOL0     H79749   0.450  11.233  10.270  0.3388 -3.1260  1.4575
  578MOL0     H79750   0.576  11.500  10.004  0.5555 -0.4549 -1.8095
  578MOL0     H79751   0.679  11.664   9.872 -1.8843  3.0679 -1.5005
  578MOL0     H79752   0.546  12.057  10.004  0.8900  0.6712  2.0859
  578MOL0     H79753   0.730  12.088  10.006 -0.0686 -1.6394  2.9605
  578MOL0     H79754   0.588  12.223   9.841  1.7220  1.0551  1.9251
  578MOL0     H79755   0.538  12.061   9.764 -0.1970 -1.3741  2.9287
  578MOL0     H79756   0.782  12.011   9.713 -0.8699 -0.2164 -0.8307
  578MOL0     H79757   0.716  12.140   9.627  1.0380 -1.6379 -0.1678
  578MOL0     H79758   0.886  12.185   9.886  1.6696 -2.4540 -0.5333
  578MOL0     H79759   0.807  12.311   9.780 -0.8161 -0.1673  4.2435
  578MOL0     H79760   1.123  12.207   9.524  1.6196 -2.2266  0.3198
  578MOL0     H79761   0.627  11.952  10.180 -0.6995 -0.8372  1.5995
  578MOL0     H79762   0.415  11.795  10.394 -0.7004 -0.8770 -1.4164
  578MOL0     H79763   0.550  11.711  10.456  1.1177  1.0788  0.1349
  578MOL0     H79764   0.572  11.888  10.412 -2.6211  1.9725  1.2903
  579MOL0     O79765  10.053   8.871   9.930 -0.5097  0.4129 -0.2106
  579MOL0     C79766  10.071   8.796   9.835 -0.0388 -0.3504  0.6927
  579MOL0     O79767  10.116   8.828   9.712 -0.2168 -0.5988 -0.6894
  579MOL0     C79768  10.135   8.966   9.678 -0.4118  0.3039  0.5262
  579MOL0     C79769  10.126   8.997   9.546 -0.4329 -0.2227 -0.4910
  579MOL0     C79770  10.139   9.125   9.499 -0.1937  0.6153 -0.3198
  579MOL0     C79771  10.174   9.226   9.595  0.4179 -0.5323 -0.1569
  579MOL0     O79772  10.189   9.355   9.545 -0.2064  0.1996  0.1660
  579MOL0     C79773  10.256   9.371   9.419 -0.3804 -0.1725  0.5163
  579MOL0     C79774  10.277   9.520   9.398  0.7775 -0.1717  0.3843
  579MOL0     C79775  10.284   9.566   9.256  0.5439 -0.4577  1.3170
  579MOL0     C79776  10.248   9.714   9.227 -0.1851  0.1292  0.0133
  579MOL0     C79777  10.282   9.761   9.095  0.0309  0.3406  0.6847
  579MOL0     C79778  10.209   9.900   9.084  0.1124 -0.8080 -1.2384
  579MOL0     C79779  10.288  10.010   9.160  0.3022 -0.3880  0.1830
  579MOL0     C79780  10.207  10.107   9.245 -0.5824  0.9831  0.1995
  579MOL0     N79781  10.145  10.210   9.170 -0.5397 -0.7946 -0.3081
  579MOL0     C79782  10.027  10.211   9.112  0.4254 -0.1992  0.0227
  579MOL0     C79783  10.031  10.327   9.033  0.0054  0.5479 -1.1777
  579MOL0     C79784   9.922  10.365   8.931 -0.6581  0.0449 -0.0846
  579MOL0     C79785   9.968  10.360   8.794 -0.3207  0.8698  0.3746
  579MOL0     C79786   9.856  10.418   8.703  0.5976 -0.3001  0.2037
  579MOL0     C79787   9.761  10.297   8.669 -0.0276  0.5013 -0.8215
  579MOL0     O79788   9.680  10.311   8.554 -0.1506  0.0780  0.3142
  579MOL0     C79789   9.740  10.327   8.427  0.2404 -0.3734  0.2773
  579MOL0     C79790   9.675  10.387   8.328  0.4636 -0.2585  0.7751
  579MOL0     C79791   9.734  10.428   8.211  0.3609 -0.0902  0.6621
  579MOL0     C79792   9.654  10.520   8.117  0.1810  0.2481 -0.6317
  579MOL0     C79793   9.869  10.396   8.173 -0.5830 -0.3163 -0.0367
  579MOL0     C79794   9.936  10.413   8.045 -0.1845  0.7159 -0.0751
  579MOL0     O79795  10.073  10.386   8.046  0.0644 -0.1221  0.0164
  579MOL0     C79796  10.149  10.398   7.932  0.4243 -0.0917  0.1822
  579MOL0     C79797  10.127  10.311   7.831  0.2194  0.5961  0.3897
  579MOL0     C79798  10.192  10.326   7.712  0.6688 -0.7328  0.1082
  579MOL0     C79799  10.281  10.437   7.687  0.4568 -0.4184 -0.2522
  579MOL0     O79800  10.331  10.458   7.561 -1.0118 -0.2604  0.0192
  579MOL0     C79801  10.396  10.591   7.544  0.2845  0.1457  0.4794
  579MOL0     C79802  10.454  10.611   7.404 -1.2057 -0.0251  0.6427
  579MOL0     C79803  10.529  10.746   7.382  0.6672 -0.1435 -0.8126
  579MOL0     C79804  10.583  10.773   7.235  0.2315  0.4769 -0.1755
  579MOL0     C79805  10.633  10.907   7.204  0.1985  0.6460  0.6223
  579MOL0     C79806  10.634  10.921   7.051 -0.1168  0.4064  0.0125
  579MOL0     C79807  10.684  11.060   6.999 -0.4560 -0.4030 -0.0214
  579MOL0     C79808  10.687  11.087   6.854  0.5924 -0.3928  0.3573
  579MOL0    Cl79809  10.765  11.230   6.806  0.4423 -0.0087 -0.0905
  579MOL0     C79810  10.303  10.517   7.801 -0.3810 -0.0699 -0.0489
  579MOL0     C79811  10.241  10.497   7.925 -0.1119  0.1978  0.3409
  579MOL0     O79812   9.866  10.418   7.942  0.0355  0.4470 -0.2993
  579MOL0     C79813   9.939  10.329   8.275  0.0501 -0.4321 -0.7013
  579MOL0     C79814   9.878  10.297   8.402 -0.5361 -0.1023  1.1645
  579MOL0     N79815  10.154  10.381   9.051 -0.6465 -0.6665 -1.6809
  579MOL0     N79816  10.226  10.317   9.135 -0.4744 -1.5886  0.0148
  579MOL0     C79817  10.203   9.187   9.725 -0.8035  0.3439 -0.7196
  579MOL0     C79818  10.196   9.053   9.770 -0.9431 -0.7092 -0.2183
  579MOL0     C79819  10.027   8.650   9.856  0.4071 -0.5556 -0.4602
  579MOL0     C79820   9.978   8.617   9.986  0.6645  0.1491  1.0612
  579MOL0     C79821   9.923   8.485  10.010  1.2150  0.1987 -0.3806
  579MOL0     C79822   9.913   8.399   9.909 -0.2228 -0.1265 -0.5534
  579MOL0     O79823   9.868   8.275   9.943  0.3926  0.0013 -1.0113
  579MOL0     C79824   9.823   8.172   9.855 -0.6461 -0.0810  0.0920
  579MOL0     C79825   9.695   8.216   9.774 -0.3359  0.1101 -0.4896
  579MOL0     C79826   9.631   8.090   9.730 -0.0640  0.2288 -0.7810
  579MOL0     C79827   9.529   8.127   9.627  0.1987 -1.0422 -0.0647
  579MOL0     C79828   9.464   8.007   9.560 -0.2399  0.7081  0.2802
  579MOL0     C79829   9.394   7.918   9.514 -0.0933 -0.0446 -0.4025
  579MOL0     C79830   9.955   8.430   9.783 -0.1571  0.3670 -0.0391
  579MOL0     C79831  10.010   8.554   9.753  0.1660  0.1979 -0.7671
  579MOL0     C79832  10.066   8.566   9.625 -0.1453 -0.5316 -0.3394
  579MOL0     H79833  10.095   8.919   9.477  0.5164 -0.0575 -1.1300
  579MOL0     H79834  10.118   9.130   9.392  3.1525 -0.6938 -1.1623
  579MOL0     H79835  10.188   9.336   9.341  0.3383  0.3073 -0.3435
  579MOL0     H79836  10.355   9.326   9.416 -1.0525 -1.7757  1.2023
  579MOL0     H79837  10.204   9.577   9.456 -0.2349  0.8650 -1.7764
  579MOL0     H79838  10.375   9.548   9.436  0.9430  0.2533 -0.3401
  579MOL0     H79839  10.383   9.544   9.215  0.4457  0.2899  0.6424
  579MOL0     H79840  10.215   9.510   9.192  1.6863  1.1802 -1.5451
  579MOL0     H79841  10.142   9.718   9.254 -0.6037  1.0241 -1.6319
  579MOL0     H79842  10.310   9.772   9.296  1.5882 -0.7024 -0.8173
  579MOL0     H79843  10.251   9.689   9.018  1.6250 -1.0630  1.3019
  579MOL0     H79844  10.388   9.783   9.082  0.5811 -3.1683 -3.0031
  579MOL0     H79845  10.209   9.918   8.976  0.5364  2.4612 -0.7831
  579MOL0     H79846  10.104   9.893   9.113 -0.1476 -2.6338 -2.4769
  579MOL0     H79847  10.339  10.070   9.084 -1.7888 -0.3601 -1.2987
  579MOL0     H79848  10.370   9.961   9.212  0.9961 -0.1720 -0.6755
  579MOL0     H79849  10.136  10.046   9.303  0.4654 -0.4623  0.0199
  579MOL0     H79850  10.269  10.147   9.326  0.9184 -2.4030  0.8911
  579MOL0     H79851   9.951  10.134   9.105 -1.5142  1.7664 -2.1957
  579MOL0     H79852   9.887  10.465   8.957  0.7910  0.3319  0.8484
  579MOL0     H79853   9.836  10.302   8.957 -0.3186 -0.2144  0.4244
  579MOL0     H79854  10.061  10.416   8.781  1.3259 -1.9372 -1.1810
  579MOL0     H79855   9.987  10.256   8.764  2.1429  1.9481 -2.3885
  579MOL0     H79856   9.808  10.507   8.745  0.8314  0.0854 -0.3354
  579MOL0     H79857   9.891  10.447   8.604  0.2141  2.2414  0.7533
  579MOL0     H79858   9.809  10.200   8.652 -2.1000 -1.5773  3.6866
  579MOL0     H79859   9.703  10.281   8.760  4.5013 -0.4121  2.2085
  579MOL0     H79860   9.568  10.403   8.339 -0.0356  1.7730 -4.1622
  579MOL0     H79861   9.572  10.568   8.171  1.6211  2.1808 -0.0618
  579MOL0     H79862   9.606  10.459   8.039 -2.8014 -0.7828  1.7920
  579MOL0     H79863   9.715  10.598   8.073  1.0347 -1.6290 -3.0208
  579MOL0     H79864  10.045  10.241   7.825  0.7438  0.0812 -1.4451
  579MOL0     H79865  10.157  10.272   7.624  0.2795  3.1596 -2.3639
  579MOL0     H79866  10.319  10.668   7.560  1.2066  1.2351 -0.1959
  579MOL0     H79867  10.468  10.615   7.622  0.6336 -2.2388  0.9538
  579MOL0     H79868  10.530  10.540   7.371  0.2703  1.1142  1.4635
  579MOL0     H79869  10.370  10.610   7.333  0.0760  0.4119 -0.9449
  579MOL0     H79870  10.608  10.764   7.455 -0.3915  2.7582 -0.2664
  579MOL0     H79871  10.468  10.831   7.412  5.3721  3.9499 -1.5395
  579MOL0     H79872  10.492  10.761   7.177  0.5038  0.9142 -0.6996
  579MOL0     H79873  10.657  10.698   7.204 -0.1463 -0.5351  1.2713
  579MOL0     H79874  10.571  10.982   7.253 -1.8435 -0.1875 -0.5569
  579MOL0     H79875  10.731  10.922   7.249  2.0068 -2.1960 -1.9594
  579MOL0     H79876  10.536  10.893   7.011  0.0019 -0.8295  0.5454
  579MOL0     H79877  10.711  10.850   7.018 -0.6234 -1.2652  2.1629
  579MOL0     H79878  10.789  11.069   7.028 -0.4111  2.0035 -0.7211
  579MOL0     H79879  10.621  11.133   7.051 -0.5863 -0.4004 -0.1813
  579MOL0     H79880  10.580  11.106   6.840  0.5970  1.3915  2.1889
  579MOL0     H79881  10.735  11.012   6.791  3.2273  0.4119  1.2544
  579MOL0     H79882  10.374  10.600   7.800 -3.4157  2.7364 -1.4960
  579MOL0     H79883  10.253  10.573   8.001 -0.6104  0.9532 -0.3223
  579MOL0     H79884  10.046  10.312   8.271  0.0061 -0.8483 -0.1987
  579MOL0     H79885   9.936  10.233   8.467 -2.1629 -0.8809  1.9080
  579MOL0     H79886  10.235   9.253   9.806 -1.0181  0.8849 -1.0700
  579MOL0     H79887  10.233   9.037   9.871  0.2327 -0.1247 -0.5360
  579MOL0     H79888   9.979   8.681  10.074  2.9415 -2.1403  2.8601
  579MOL0     H79889   9.895   8.451  10.109  1.1553 -0.2535 -0.5496
  579MOL0     H79890   9.900   8.138   9.785 -1.2740  1.7593 -1.5800
  579MOL0     H79891   9.803   8.080   9.911 -0.2613 -0.0847  0.2273
  579MOL0     H79892   9.732   8.277   9.691  1.9703 -1.9375 -1.0897
  579MOL0     H79893   9.633   8.279   9.838  1.5849  1.6442 -0.0617
  579MOL0     H79894   9.699   8.010   9.700  0.5865 -0.4605  2.1818
  579MOL0     H79895   9.577   8.061   9.821  1.6970  0.9189  0.5263
  579MOL0     H79896   9.576   8.192   9.552 -1.5337 -1.2213 -1.3908
  579MOL0     H79897   9.454   8.197   9.666  0.6329  3.0157 -5.3099
  579MOL0     H79898   9.333   7.846   9.463 -5.1523  2.3610  1.5271
  579MOL0     H79899   9.958   8.350   9.710 -0.2992 -0.9562  1.3288
  579MOL0     H79900  10.174   8.571   9.641 -0.3733  1.4850  0.8568
  579MOL0     H79901  10.043   8.476   9.568 -1.7452 -1.1272  1.1423
  579MOL0     H79902  10.026   8.654   9.573  0.2741  0.5361  1.0849
  580MOL0     O79903  10.254   2.755   9.235 -0.0637  0.1982  0.0330
  580MOL0     C79904  10.188   2.656   9.193  0.7841  0.9949 -0.1292
  580MOL0     O79905  10.186   2.616   9.065  0.3406 -0.3911  0.5949
  580MOL0     C79906  10.249   2.666   8.963 -0.2135 -0.5120  1.2716
  580MOL0     C79907  10.196   2.634   8.837 -0.7767  0.1626 -0.3837
  580MOL0     C79908  10.265   2.667   8.721 -0.0591  0.5942 -0.2138
  580MOL0     C79909  10.377   2.748   8.733 -0.2920 -0.3961 -0.1950
  580MOL0     O79910  10.447   2.793   8.628  0.4421  0.1966 -0.0105
  580MOL0     C79911  10.394   2.903   8.552 -0.1741 -0.0472  0.2519
  580MOL0     C79912  10.423   2.875   8.405 -0.3311 -0.7221 -0.2111
  580MOL0     C79913  10.574   2.921   8.374  0.3060  0.2114 -1.0539
  580MOL0     C79914  10.592   2.916   8.221 -0.6327 -1.0533 -0.0627
  580MOL0     C79915  10.717   3.010   8.188  0.4074  0.4523 -0.6598
  580MOL0     C79916  10.730   3.016   8.034 -0.4146  0.5522  0.4298
  580MOL0     C79917  10.865   3.082   7.994 -0.3198 -0.0316  1.2945
  580MOL0     C79918  10.857   3.235   8.022 -0.7470 -0.4443  0.2726
  580MOL0     N79919  10.731   3.301   7.966 -1.4233 -1.0087 -0.0842
  580MOL0     C79920  10.686   3.334   7.837  0.3122  0.1387 -0.2824
  580MOL0     C79921  10.561   3.389   7.847  0.4087 -0.2527 -0.7930
  580MOL0     C79922  10.476   3.441   7.729  0.1946 -0.8193 -0.5965
  580MOL0     C79923  10.392   3.320   7.675 -0.0709 -0.5317 -0.6344
  580MOL0     C79924  10.299   3.248   7.780 -0.1318 -0.1264  0.7703
  580MOL0     C79925  10.202   3.328   7.855 -0.9220 -0.0821 -0.1998
  580MOL0     O79926  10.068   3.312   7.798 -0.2747  0.6949 -0.9660
  580MOL0     C79927  10.033   3.377   7.679 -0.3945 -0.1843  0.0525
  580MOL0     C79928  10.114   3.478   7.611  0.1393 -0.4434 -0.9006
  580MOL0     C79929  10.085   3.536   7.481 -0.3311 -0.1695 -0.5127
  580MOL0     C79930  10.182   3.643   7.421 -0.5487 -0.7337  0.9663
  580MOL0     C79931   9.965   3.487   7.427 -0.4654 -0.1939  1.7121
  580MOL0     C79932   9.928   3.521   7.279  0.4765  0.6275 -0.4251
  580MOL0     O79933   9.860   3.419   7.201  0.0998  0.1689  0.2219
  580MOL0     C79934   9.831   3.456   7.079 -0.3373  0.3077  0.7470
  580MOL0     C79935   9.713   3.524   7.053  0.6852 -0.6977  0.2759
  580MOL0     C79936   9.664   3.548   6.919 -0.7478  0.0260  0.0023
  580MOL0     C79937   9.752   3.520   6.816 -0.4239  0.1672 -0.1618
  580MOL0     O79938   9.713   3.563   6.696 -0.3637  0.7693  0.2188
  580MOL0     C79939   9.795   3.642   6.611  0.0174  0.0342  1.0685
  580MOL0     C79940   9.787   3.588   6.475  0.0366  0.0226  1.1204
  580MOL0     C79941   9.646   3.568   6.425  0.3863 -0.3417  0.6812
  580MOL0     C79942   9.640   3.522   6.281  0.0129 -0.7102  0.1785
  580MOL0     C79943   9.511   3.445   6.242 -0.0865 -0.6451  0.1831
  580MOL0     C79944   9.494   3.306   6.291  0.4315 -0.2859  0.4054
  580MOL0     C79945   9.413   3.223   6.188 -0.3996 -0.2390 -0.1974
  580MOL0     C79946   9.266   3.224   6.211  0.1715  0.5574  0.0148
  580MOL0    Cl79947   9.205   3.375   6.134  0.4070  0.5266  0.1222
  580MOL0     C79948   9.881   3.470   6.841 -0.6164 -0.0359 -0.0600
  580MOL0     C79949   9.915   3.438   6.974  0.7380 -1.3357  0.5253
  580MOL0     O79950   9.936   3.634   7.241  0.1095 -0.2814  0.0439
  580MOL0     C79951   9.891   3.388   7.488 -0.6394  0.9188  0.6055
  580MOL0     C79952   9.924   3.340   7.622  1.1587  0.0007  0.1316
  580MOL0     N79953  10.539   3.415   7.983 -0.1705  0.6912 -0.2374
  580MOL0     N79954  10.640   3.359   8.046 -0.0838 -1.0489 -0.0419
  580MOL0     C79955  10.435   2.783   8.858 -0.8043  0.3393 -0.4486
  580MOL0     C79956  10.373   2.729   8.975  0.7846 -0.5438  0.3074
  580MOL0     C79957  10.118   2.563   9.290  0.4649 -0.1752  0.4530
  580MOL0     C79958  10.070   2.443   9.231  0.6191 -0.9073 -0.1588
  580MOL0     C79959   9.994   2.356   9.314 -0.3297  0.5976 -1.5560
  580MOL0     C79960   9.988   2.368   9.450  0.1817  0.1684  0.4387
  580MOL0     O79961   9.933   2.262   9.524  0.1053  0.3398 -0.5962
  580MOL0     C79962   9.993   2.218   9.642 -0.2543 -1.3367 -0.0046
  580MOL0     C79963  10.016   2.071   9.627 -0.3210 -0.1398  0.2741
  580MOL0     C79964  10.084   2.005   9.749  0.6923 -0.2770 -0.2588
  580MOL0     C79965  10.098   1.851   9.736  0.2901  0.4851 -0.8457
  580MOL0     C79966   9.972   1.775   9.739 -0.2913  0.3911 -0.3191
  580MOL0     C79967   9.866   1.714   9.742  0.1049  0.4535  0.2920
  580MOL0     C79968  10.052   2.477   9.503 -0.3953  0.6672 -0.6661
  580MOL0     C79969  10.115   2.576   9.427 -0.1277  0.6206 -0.5817
  580MOL0     C79970  10.178   2.689   9.508  0.2716 -0.4293  0.3171
  580MOL0     H79971  10.111   2.569   8.821  0.7755 -2.4557  1.1689
  580MOL0     H79972  10.236   2.639   8.621 -3.0719  3.9526 -0.4952
  580MOL0     H79973  10.439   2.998   8.582  1.5277 -0.3477 -1.2141
  580MOL0     H79974  10.286   2.917   8.559  0.0712  1.1605  2.8563
  580MOL0     H79975  10.402   2.770   8.384  0.9040 -0.6473 -2.0503
  580MOL0     H79976  10.353   2.929   8.340  1.1780  1.3580 -0.2194
  580MOL0     H79977  10.594   3.025   8.403  0.6255 -0.8328  3.0923
  580MOL0     H79978  10.650   2.864   8.429  0.1381  1.5709  0.6961
  580MOL0     H79979  10.617   2.815   8.185 -3.1361  0.3365 -7.3670
  580MOL0     H79980  10.504   2.945   8.164 -0.0151  2.1442  0.4148
  580MOL0     H79981  10.812   2.966   8.216 -0.5961 -0.5069  1.4199
  580MOL0     H79982  10.721   3.110   8.231  0.0902 -0.4536  1.5840
  580MOL0     H79983  10.722   2.913   8.000  0.8425  1.2359 -2.1959
  580MOL0     H79984  10.642   3.066   7.992 -0.3853  1.1389  1.0496
  580MOL0     H79985  10.880   3.064   7.887 -1.8754  2.5497  0.5472
  580MOL0     H79986  10.950   3.044   8.051  1.3654  1.7513  0.0753
  580MOL0     H79987  10.870   3.254   8.129 -1.4313 -2.2008  0.7104
  580MOL0     H79988  10.942   3.284   7.974 -1.0347  0.1178  0.3364
  580MOL0     H79989  10.716   3.293   7.741 -2.8090 -1.0078 -0.8863
  580MOL0     H79990  10.529   3.481   7.642 -2.9804  2.8765 -1.1030
  580MOL0     H79991  10.414   3.526   7.757  0.0839 -0.7482 -1.0560
  580MOL0     H79992  10.325   3.344   7.592 -0.5925  0.6119  0.0888
  580MOL0     H79993  10.461   3.236   7.666  0.5996 -0.5555  3.1282
  580MOL0     H79994  10.250   3.164   7.728  1.4250  0.6276 -2.1626
  580MOL0     H79995  10.369   3.194   7.844 -0.6306 -1.6264  0.1100
  580MOL0     H79996  10.189   3.298   7.959 -1.5007 -0.6739 -0.4378
  580MOL0     H79997  10.230   3.433   7.866 -1.7091  0.1608 -0.4505
  580MOL0     H79998  10.200   3.517   7.665  1.2415 -2.9716 -0.6751
  580MOL0     H79999  10.203   3.715   7.501  1.4687  2.4825 -2.1717
  580MOL0     H80000  10.138   3.710   7.347  4.8290  2.7835  0.3856
  580MOL0     H80001  10.272   3.594   7.382 -1.0429 -1.1924  0.3920
  580MOL0     H80002   9.649   3.538   7.140  0.3905  0.1453 -0.0674
  580MOL0     H80003   9.563   3.585   6.904 -2.1647 -1.7062  3.7827
  580MOL0     H80004   9.747   3.740   6.601 -3.0970 -1.5044 -0.2727
  580MOL0     H80005   9.898   3.646   6.648  0.4417  0.6325 -0.1379
  580MOL0     H80006   9.844   3.641   6.398 -0.2664 -0.3707  0.6156
  580MOL0     H80007   9.841   3.493   6.473 -1.3820 -0.8225  1.8677
  580MOL0     H80008   9.584   3.658   6.436  0.0590 -0.0352 -2.6357
  580MOL0     H80009   9.593   3.489   6.478  0.1780  0.0381  1.0423
  580MOL0     H80010   9.730   3.476   6.240 -0.4819  0.5150 -2.5208
  580MOL0     H80011   9.642   3.613   6.220 -2.2660 -0.9488 -0.3334
  580MOL0     H80012   9.415   3.492   6.265 -0.4567 -1.1864 -0.2242
  580MOL0     H80013   9.523   3.440   6.134  1.3970  1.4315  0.1974
  580MOL0     H80014   9.439   3.312   6.386  2.2903  0.3787  1.5059
  580MOL0     H80015   9.594   3.263   6.302  0.7318 -0.3983 -2.2595
  580MOL0     H80016   9.435   3.127   6.235 -3.7391 -0.3241  1.5239
  580MOL0     H80017   9.457   3.219   6.088  0.6851 -1.8901  0.3169
  580MOL0     H80018   9.260   3.227   6.320 -3.3448 -2.0436  0.0617
  580MOL0     H80019   9.213   3.136   6.173  1.9686 -0.4043 -0.3417
  580MOL0     H80020   9.939   3.448   6.752 -1.0204  2.7021 -1.1263
  580MOL0     H80021  10.005   3.386   7.008  0.5629 -1.8836  0.1719
  580MOL0     H80022   9.795   3.355   7.449 -0.1807  2.5309 -2.1239
  580MOL0     H80023   9.855   3.265   7.658 -0.4002  0.0298 -2.5251
  580MOL0     H80024  10.535   2.825   8.864  0.0983 -1.4115 -2.2232
  580MOL0     H80025  10.426   2.731   9.070 -1.6574 -0.1308  1.7311
  580MOL0     H80026  10.082   2.416   9.127 -0.7883 -1.0179 -0.3157
  580MOL0     H80027   9.954   2.279   9.249  1.9659  0.0582 -2.4225
  580MOL0     H80028  10.092   2.259   9.665  1.0497 -0.1932 -5.8895
  580MOL0     H80029   9.917   2.234   9.720 -1.9075 -2.4195 -1.3118
  580MOL0     H80030  10.078   2.041   9.542  0.9526  0.9783  0.7811
  580MOL0     H80031   9.914   2.034   9.612 -0.5619  1.7044 -4.3908
  580MOL0     H80032  10.185   2.046   9.764  2.1894 -3.6518 -0.1492
  580MOL0     H80033  10.028   2.027   9.840  1.0272 -1.5307  0.2752
  580MOL0     H80034  10.150   1.818   9.826 -1.3288  2.1105  0.7572
  580MOL0     H80035  10.161   1.834   9.648  0.5319 -1.2086 -0.3759
  580MOL0     H80036   9.775   1.659   9.727 -1.5703  3.5125 -1.8048
  580MOL0     H80037  10.037   2.488   9.610 -2.9520  2.3029 -1.1145
  580MOL0     H80038  10.192   2.643   9.606  0.1359 -2.5650 -0.5959
  580MOL0     H80039  10.278   2.725   9.484 -0.2237  0.6429 -0.2164
  580MOL0     H80040  10.112   2.775   9.520  0.1853 -0.5533  0.7355
  581MOL0     O80041   9.056   7.617  10.518 -0.2514 -0.0788  0.3477
  581MOL0     C80042   9.050   7.560  10.416  0.6903  0.0851  0.2559
  581MOL0     O80043   9.000   7.607  10.300 -0.0531 -0.0440 -0.4450
  581MOL0     C80044   8.976   7.741  10.293  0.1009  0.1309 -0.2504
  581MOL0     C80045   9.071   7.838  10.316 -0.5191  0.5564  0.4453
  581MOL0     C80046   9.034   7.973  10.293 -0.5666  0.0148  0.6587
  581MOL0     C80047   8.903   7.999  10.258 -0.4096 -0.2305  0.5473
  581MOL0     O80048   8.877   8.137  10.237  0.3079  1.1046  0.0491
  581MOL0     C80049   8.759   8.168  10.157 -0.4446 -0.5061  0.1074
  581MOL0     C80050   8.764   8.325  10.140  0.1403 -0.1421  0.5722
  581MOL0     C80051   8.905   8.380  10.092  0.3815 -0.5496  0.0207
  581MOL0     C80052   8.893   8.542  10.083  0.4129  0.2098 -0.2657
  581MOL0     C80053   8.968   8.599   9.971  0.0543  0.1146  0.4412
  581MOL0     C80054   8.860   8.630   9.864  0.0222 -0.1664 -0.9434
  581MOL0     C80055   8.943   8.682   9.750 -0.2843  0.5893  0.3299
  581MOL0     C80056   8.864   8.740   9.640  1.3074  1.0250 -0.4823
  581MOL0     N80057   8.947   8.784   9.524  0.5908  0.2502 -0.4505
  581MOL0     C80058   8.929   8.746   9.390 -0.3696  0.5925  0.4890
  581MOL0     C80059   8.999   8.837   9.314  0.4407  0.3203 -0.8094
  581MOL0     C80060   9.003   8.838   9.161 -0.0844 -1.1927 -0.0665
  581MOL0     C80061   8.877   8.901   9.097 -0.1892 -0.5460  0.0381
  581MOL0     C80062   8.854   8.842   8.949  0.9104 -0.2443 -0.3885
  581MOL0     C80063   8.768   8.715   8.959 -1.0674  0.1049 -0.1564
  581MOL0     O80064   8.636   8.740   9.023 -0.4403  0.8745 -0.5030
  581MOL0     C80065   8.603   8.683   9.146 -0.3370  0.0766  0.6261
  581MOL0     C80066   8.612   8.549   9.170  0.7956  0.0501 -0.2163
  581MOL0     C80067   8.589   8.496   9.295 -1.1120 -0.2578  0.5345
  581MOL0     C80068   8.624   8.352   9.311 -0.5147  0.3984  0.2586
  581MOL0     C80069   8.545   8.582   9.406 -1.1113  0.5676  0.4200
  581MOL0     C80070   8.509   8.533   9.545 -0.0771 -0.3314  0.5311
  581MOL0     O80071   8.470   8.623   9.637 -0.2777 -1.0652 -0.3390
  581MOL0     C80072   8.446   8.586   9.769 -0.8920 -0.0911 -0.2092
  581MOL0     C80073   8.484   8.679   9.866 -0.1854 -0.9746 -0.6494
  581MOL0     C80074   8.467   8.655  10.001 -0.2168  1.1379 -0.3680
  581MOL0     C80075   8.404   8.531  10.038 -0.5737 -0.7368 -0.2889
  581MOL0     O80076   8.381   8.482  10.165 -0.6270  0.2341 -0.4283
  581MOL0     C80077   8.439   8.541  10.283  0.3845  0.4006  0.3738
  581MOL0     C80078   8.373   8.477  10.406  0.4414 -0.1710 -0.2767
  581MOL0     C80079   8.382   8.565  10.519  0.2244 -1.6398 -0.1698
  581MOL0     C80080   8.525   8.598  10.571  1.1408 -1.0405  0.0547
  581MOL0     C80081   8.524   8.739  10.622 -0.6801  1.0610 -0.2687
  581MOL0     C80082   8.443   8.747  10.751 -0.1250  0.2866  0.3964
  581MOL0     C80083   8.541   8.767  10.876 -0.3887  0.0176  0.1427
  581MOL0     C80084   8.607   8.636  10.921 -0.1104  0.0547 -0.3730
  581MOL0    Cl80085   8.778   8.626  10.863  0.1007 -0.0067 -0.5449
  581MOL0     C80086   8.347   8.449   9.939 -0.2811  0.1640  1.5862
  581MOL0     C80087   8.367   8.478   9.802 -0.1929 -0.4134  0.0727
  581MOL0     O80088   8.526   8.413   9.565 -0.4278  0.3354  0.0289
  581MOL0     C80089   8.526   8.718   9.369  0.0616 -0.3244 -0.3458
  581MOL0     C80090   8.553   8.767   9.240 -0.3431 -0.4220 -0.3869
  581MOL0     N80091   9.056   8.922   9.401  0.2585  0.0685  0.4547
  581MOL0     N80092   9.025   8.893   9.526 -0.7776  0.1590 -0.1029
  581MOL0     C80093   8.811   7.897  10.241  0.1552  0.5152  0.3042
  581MOL0     C80094   8.852   7.759  10.253  0.2329 -1.0023  0.4257
  581MOL0     C80095   9.115   7.428  10.403 -0.2488  0.2830 -0.4182
  581MOL0     C80096   9.072   7.338  10.300 -0.8802 -0.8685  0.2601
  581MOL0     C80097   9.125   7.216  10.281 -0.7355  0.4663  0.6537
  581MOL0     C80098   9.223   7.158  10.364 -0.8379 -0.9194 -0.4746
  581MOL0     O80099   9.267   7.031  10.334  0.0041 -0.4748 -0.0191
  581MOL0     C80100   9.349   6.952  10.423  0.1977 -0.1878 -0.3996
  581MOL0     C80101   9.345   6.813  10.368  0.4921 -0.1443  0.7356
  581MOL0     C80102   9.209   6.753  10.411  0.0268 -0.2133 -0.7881
  581MOL0     C80103   9.099   6.757  10.302 -0.0339 -0.1201 -0.7437
  581MOL0     C80104   8.977   6.754  10.372  0.0231 -0.2397 -0.4220
  581MOL0     C80105   8.863   6.771  10.411 -1.3339 -0.0367 -0.1841
  581MOL0     C80106   9.267   7.239  10.471  0.2636  0.2014  0.3295
  581MOL0     C80107   9.211   7.374  10.491 -1.6043  0.9849  1.0024
  581MOL0     C80108   9.277   7.445  10.605  0.1688 -0.4756 -0.2356
  581MOL0     H80109   9.175   7.809  10.311 -0.3226  1.2411  0.3988
  581MOL0     H80110   9.110   8.051  10.296  0.8157 -1.2157 -0.4642
  581MOL0     H80111   8.664   8.139  10.203 -1.8084  1.4580 -1.3352
  581MOL0     H80112   8.768   8.129  10.055 -1.8841 -0.1856 -0.1584
  581MOL0     H80113   8.677   8.330  10.074 -2.1622 -1.1873  3.3756
  581MOL0     H80114   8.734   8.385  10.226 -0.9989 -0.9411  0.7500
  581MOL0     H80115   8.975   8.374  10.176  1.1106 -1.3268 -0.6250
  581MOL0     H80116   8.942   8.331  10.001  4.2810  1.8628  0.0417
  581MOL0     H80117   8.785   8.555  10.066 -0.0940 -0.6715  1.9343
  581MOL0     H80118   8.919   8.597  10.174 -2.8820 -1.2808  1.7735
  581MOL0     H80119   9.032   8.522   9.927  0.9637  0.5715  0.9341
  581MOL0     H80120   9.021   8.691   9.996  0.2615  0.1850 -0.2149
  581MOL0     H80121   8.798   8.544   9.836 -0.2410 -0.2102 -0.2332
  581MOL0     H80122   8.801   8.719   9.887  1.1027 -0.0891  2.0346
  581MOL0     H80123   9.003   8.600   9.709  3.0992  3.5629 -1.2472
  581MOL0     H80124   9.006   8.763   9.788 -0.8957  1.2017  0.0537
  581MOL0     H80125   8.806   8.658   9.596 -0.6315  1.9210  0.2724
  581MOL0     H80126   8.794   8.815   9.678  1.3284  0.9765 -0.3482
  581MOL0     H80127   8.865   8.667   9.352  0.8778 -0.6758  0.9314
  581MOL0     H80128   9.030   8.738   9.126  1.0497 -0.6585 -0.7778
  581MOL0     H80129   9.087   8.902   9.132  0.4892 -2.1006 -0.4476
  581MOL0     H80130   8.792   8.884   9.164 -0.7476  2.0961  0.1343
  581MOL0     H80131   8.881   9.010   9.084  0.8755 -0.4018  1.4007
  581MOL0     H80132   8.798   8.918   8.894 -1.3924 -0.4779  1.4851
  581MOL0     H80133   8.947   8.814   8.899  1.1816 -0.8520  0.4208
  581MOL0     H80134   8.772   8.678   8.857 -0.7373  1.4245 -0.6417
  581MOL0     H80135   8.814   8.634   9.017 -4.9284 -2.9109 -0.9160
  581MOL0     H80136   8.632   8.485   9.085 -1.8032 -0.0792 -0.8060
  581MOL0     H80137   8.690   8.341   9.398  0.5069  3.4569  0.0007
  581MOL0     H80138   8.672   8.309   9.223 -0.3541 -0.9135  0.9678
  581MOL0     H80139   8.527   8.302   9.318  0.2348 -0.8943  2.0361
  581MOL0     H80140   8.524   8.779   9.851 -1.9175  0.1674  1.7716
  581MOL0     H80141   8.505   8.730  10.068 -2.7561  1.7106  0.5466
  581MOL0     H80142   8.544   8.509  10.276  0.6245  1.1403  0.5005
  581MOL0     H80143   8.419   8.648  10.270  0.0828  0.2820 -0.1930
  581MOL0     H80144   8.269   8.453  10.383  0.1580 -1.8363  2.3105
  581MOL0     H80145   8.418   8.379  10.424  2.0861  0.9374  2.2483
  581MOL0     H80146   8.324   8.511  10.593 -0.3071 -0.2277  0.4900
  581MOL0     H80147   8.320   8.653  10.501  1.1273 -1.6515 -4.7596
  581MOL0     H80148   8.600   8.582  10.493  3.9215 -1.9099  2.7273
  581MOL0     H80149   8.539   8.542  10.664 -3.4109  0.0404  1.7007
  581MOL0     H80150   8.629   8.767  10.631  0.0105 -0.9512 -1.2805
  581MOL0     H80151   8.483   8.795  10.537 -0.3134  1.1914 -0.3586
  581MOL0     H80152   8.369   8.667  10.759 -1.2225  1.3208  0.8927
  581MOL0     H80153   8.392   8.842  10.734  2.4943  1.6012 -0.7363
  581MOL0     H80154   8.484   8.814  10.957  0.7999  2.9636 -0.5795
  581MOL0     H80155   8.620   8.841  10.858 -1.3617  0.8879 -0.6141
  581MOL0     H80156   8.554   8.546  10.890  1.3451 -0.0233 -2.9068
  581MOL0     H80157   8.627   8.629  11.029  0.7330  0.9115 -0.4574
  581MOL0     H80158   8.309   8.355   9.978 -2.9942  0.1505 -0.7942
  581MOL0     H80159   8.344   8.403   9.727  0.7184 -1.4846  0.8454
  581MOL0     H80160   8.483   8.787   9.441 -0.7170  1.0809 -2.0650
  581MOL0     H80161   8.541   8.867   9.200 -2.1395  0.7944  2.8072
  581MOL0     H80162   8.712   7.922  10.203 -0.3211  0.1238  1.2484
  581MOL0     H80163   8.788   7.674  10.229 -0.5567 -0.0910 -0.7871
  581MOL0     H80164   9.009   7.373  10.219 -1.3235 -4.2270 -0.9987
  581MOL0     H80165   9.084   7.154  10.201  2.6359  1.3981 -2.0363
  581MOL0     H80166   9.455   6.980  10.424  0.2272 -0.1326  2.4353
  581MOL0     H80167   9.317   6.957  10.527  2.6174 -0.4997  0.4356
  581MOL0     H80168   9.425   6.753  10.411  0.9337 -1.2481 -1.4475
  581MOL0     H80169   9.365   6.816  10.260 -0.5848  0.2162  0.5257
  581MOL0     H80170   9.230   6.655  10.455  0.1999  1.6737  4.0647
  581MOL0     H80171   9.162   6.804  10.496 -0.5307  0.7071 -1.6354
  581MOL0     H80172   9.101   6.670  10.236  0.2756 -0.9731  0.3420
  581MOL0     H80173   9.113   6.846  10.242 -0.1648  1.3687  1.3246
  581MOL0     H80174   8.767   6.791  10.455 -0.0240 -2.4760  4.4479
  581MOL0     H80175   9.343   7.207  10.541  1.8920  0.6465 -1.1714
  581MOL0     H80176   9.228   7.411  10.697  2.5132  1.0877  1.7136
  581MOL0     H80177   9.379   7.406  10.616 -1.1709 -3.7952  2.7720
  581MOL0     H80178   9.287   7.553  10.592 -3.8634 -0.1714 -2.1223
  582MOL0     O80179   4.358   4.230   8.755 -0.2699  0.1800  0.0418
  582MOL0     C80180   4.338   4.347   8.800 -0.6139  0.3125 -0.0504
  582MOL0     O80181   4.332   4.381   8.935  0.2719  0.6505 -0.2174
  582MOL0     C80182   4.346   4.283   9.038 -0.5948 -0.5864  0.2687
  582MOL0     C80183   4.462   4.205   9.033 -0.3636 -0.2597  0.1637
  582MOL0     C80184   4.494   4.119   9.143 -0.7709 -0.2683 -0.4097
  582MOL0     C80185   4.413   4.109   9.259 -0.2969  0.7543  0.0344
  582MOL0     O80186   4.434   4.015   9.362 -0.0128 -0.2847 -0.2635
  582MOL0     C80187   4.515   3.905   9.355 -0.2918  0.9740  0.0947
  582MOL0     C80188   4.461   3.800   9.249 -0.2602 -1.0795 -0.4958
  582MOL0     C80189   4.409   3.687   9.323  0.6186  0.0233 -0.7729
  582MOL0     C80190   4.285   3.722   9.406  0.9105 -0.5267  0.2755
  582MOL0     C80191   4.154   3.739   9.320  0.1227  0.2990 -0.2175
  582MOL0     C80192   4.063   3.853   9.359  0.2625  0.1014  0.8394
  582MOL0     C80193   3.955   3.868   9.252  0.4733  0.2623 -0.2111
  582MOL0     C80194   3.879   3.992   9.293 -0.0254 -0.8269  0.0040
  582MOL0     N80195   3.834   4.078   9.177  0.4054 -0.0947 -0.4369
  582MOL0     C80196   3.912   4.156   9.096  0.8908  0.1924  0.9269
  582MOL0     C80197   3.834   4.202   8.997 -0.8555  0.4613  1.6404
  582MOL0     C80198   3.872   4.293   8.879 -0.4978 -0.2736 -0.6019
  582MOL0     C80199   3.954   4.423   8.911 -0.2468  0.0595  0.4131
  582MOL0     C80200   3.915   4.487   9.044  0.3128  0.5869  0.0483
  582MOL0     C80201   3.782   4.559   9.051  0.0823  0.6141  0.3858
  582MOL0     O80202   3.787   4.686   8.987 -0.4331 -0.0634  0.4838
  582MOL0     C80203   3.710   4.704   8.877 -0.0857 -0.1372 -0.1055
  582MOL0     C80204   3.721   4.835   8.825 -0.5067 -0.3166  0.2628
  582MOL0     C80205   3.656   4.875   8.708 -0.5427  0.4665 -0.4074
  582MOL0     C80206   3.662   5.011   8.661 -0.3613  0.5343  0.8443
  582MOL0     C80207   3.581   4.777   8.640  0.6152 -0.3931 -0.4608
  582MOL0     C80208   3.509   4.811   8.508  0.1100 -0.6169 -1.0162
  582MOL0     O80209   3.477   4.693   8.448 -0.4233 -0.2641  1.0430
  582MOL0     C80210   3.399   4.691   8.328 -0.4071 -0.6156  0.4509
  582MOL0     C80211   3.298   4.786   8.283  0.3194 -0.4693 -0.1149
  582MOL0     C80212   3.240   4.774   8.163  0.2994 -0.7600  0.2974
  582MOL0     C80213   3.268   4.663   8.084 -0.7486  0.0916 -1.1848
  582MOL0     O80214   3.206   4.632   7.961  1.0921  0.4682  0.3790
  582MOL0     C80215   3.120   4.738   7.909  0.2424  0.8637  0.1492
  582MOL0     C80216   3.206   4.857   7.855  0.3080 -0.2808 -0.0372
  582MOL0     C80217   3.256   4.830   7.717  0.0522 -0.2694 -0.6782
  582MOL0     C80218   3.320   4.962   7.654  0.0714  0.7593 -0.3357
  582MOL0     C80219   3.351   4.949   7.509  1.0649 -0.7561 -0.2607
  582MOL0     C80220   3.390   5.085   7.452  0.3932  0.1406 -0.8436
  582MOL0     C80221   3.412   5.072   7.301  0.2248  0.0129  0.2025
  582MOL0     C80222   3.465   5.205   7.255 -0.8704 -0.7669  0.5731
  582MOL0    Cl80223   3.324   5.316   7.225 -0.3156  0.5353 -0.0216
  582MOL0     C80224   3.370   4.571   8.124 -0.1723 -0.3175  0.2649
  582MOL0     C80225   3.434   4.587   8.245  0.4134  0.3968 -0.3385
  582MOL0     O80226   3.464   4.923   8.480  0.0363  0.2672  0.6342
  582MOL0     C80227   3.561   4.648   8.694 -0.3163  1.0032 -0.3957
  582MOL0     C80228   3.629   4.605   8.811 -0.2250  0.0376  0.4370
  582MOL0     N80229   3.705   4.153   9.009  0.1678 -0.6773  0.1460
  582MOL0     N80230   3.712   4.074   9.113 -0.1564 -0.9239  0.0856
  582MOL0     C80231   4.305   4.204   9.266  0.5826  0.0923 -0.3115
  582MOL0     C80232   4.275   4.286   9.155 -0.7170 -0.9819 -0.2049
  582MOL0     C80233   4.299   4.457   8.703 -0.2281  0.3403 -0.8764
  582MOL0     C80234   4.266   4.575   8.762 -0.1433 -0.3896 -0.8776
  582MOL0     C80235   4.203   4.670   8.687  0.1921 -0.0592  0.4982
  582MOL0     C80236   4.194   4.672   8.548  0.1408 -0.4073 -0.9668
  582MOL0     O80237   4.128   4.769   8.467 -0.3183  0.5693  0.2385
  582MOL0     C80238   4.003   4.807   8.516  0.0898  0.7485 -0.1415
  582MOL0     C80239   3.905   4.698   8.501 -0.6344 -0.4890 -0.0749
  582MOL0     C80240   3.924   4.588   8.396  0.3113  0.5337 -0.1356
  582MOL0     C80241   3.798   4.559   8.322  0.2040  0.2522 -0.3830
  582MOL0     C80242   3.799   4.435   8.244  0.7344 -0.0194  0.2426
  582MOL0     C80243   3.787   4.330   8.180  0.9420  0.1971  1.2499
  582MOL0     C80244   4.242   4.561   8.487  0.4362 -0.9763  0.1646
  582MOL0     C80245   4.289   4.453   8.559 -0.2453  0.1258 -0.4368
  582MOL0     C80246   4.340   4.341   8.484 -0.2641 -0.1124  0.3390
  582MOL0     H80247   4.513   4.201   8.938 -1.6020  0.6066 -0.5614
  582MOL0     H80248   4.583   4.056   9.145 -0.4266  0.2239  1.5131
  582MOL0     H80249   4.527   3.856   9.452  2.0999  0.6852 -0.2893
  582MOL0     H80250   4.612   3.952   9.338 -0.3051  0.2063 -2.6185
  582MOL0     H80251   4.377   3.833   9.186 -0.1201  0.0849 -0.0891
  582MOL0     H80252   4.548   3.759   9.197  0.5593 -3.0734  2.2025
  582MOL0     H80253   4.390   3.611   9.247 -1.7651  2.3954 -2.7723
  582MOL0     H80254   4.483   3.645   9.392  0.1135 -1.2287 -0.9639
  582MOL0     H80255   4.273   3.638   9.474  1.0125  0.1240  1.1206
  582MOL0     H80256   4.302   3.820   9.453 -0.3606  1.4409 -3.0022
  582MOL0     H80257   4.092   3.649   9.325  3.9426 -2.6343 -1.2333
  582MOL0     H80258   4.185   3.759   9.217 -1.2014 -0.9979 -0.8973
  582MOL0     H80259   4.010   3.843   9.454  2.8095 -1.1430  2.2169
  582MOL0     H80260   4.129   3.940   9.354 -0.7176  0.7999 -1.4613
  582MOL0     H80261   3.892   3.779   9.259  3.4998 -2.0893 -0.7087
  582MOL0     H80262   3.990   3.878   9.149  1.3711 -0.1599  0.0430
  582MOL0     H80263   3.792   3.959   9.352  0.6366 -0.0165  1.5010
  582MOL0     H80264   3.948   4.056   9.349 -0.2391 -0.8773  0.3310
  582MOL0     H80265   4.020   4.167   9.109  1.4554  1.5675 -3.2318
  582MOL0     H80266   3.778   4.315   8.827 -1.1501 -0.6632  0.3652
  582MOL0     H80267   3.925   4.233   8.805 -1.3525 -1.1033 -0.5693
  582MOL0     H80268   4.060   4.396   8.920 -0.3092 -0.1928  0.3942
  582MOL0     H80269   3.952   4.492   8.827 -4.0149 -0.8638 -0.4392
  582MOL0     H80270   3.907   4.411   9.122  1.2750 -0.1465 -0.5350
  582MOL0     H80271   3.996   4.552   9.075  2.0268 -1.8306  0.9701
  582MOL0     H80272   3.697   4.497   9.022 -0.3978 -1.4080  5.1589
  582MOL0     H80273   3.757   4.560   9.158 -1.5361 -1.5748  0.1085
  582MOL0     H80274   3.788   4.887   8.892  0.6274 -1.3309 -0.0426
  582MOL0     H80275   3.691   5.030   8.558 -2.9036  1.1994  0.1862
  582MOL0     H80276   3.723   5.060   8.737  2.8035 -5.7202  3.0540
  582MOL0     H80277   3.562   5.052   8.680 -0.4113  0.8250 -0.0132
  582MOL0     H80278   3.275   4.876   8.338  2.8188  0.6012 -0.6770
  582MOL0     H80279   3.176   4.858   8.140 -0.0765 -1.1038  0.0689
  582MOL0     H80280   3.057   4.710   7.824  1.1557  1.7931 -0.8784
  582MOL0     H80281   3.043   4.760   7.983  2.9898  1.5572  2.9986
  582MOL0     H80282   3.143   4.947   7.857 -0.1924 -0.5569 -1.5560
  582MOL0     H80283   3.293   4.875   7.918 -0.0773 -0.1404  0.4574
  582MOL0     H80284   3.175   4.793   7.655 -0.5383 -1.1557  0.5801
  582MOL0     H80285   3.335   4.755   7.723  1.5674  1.3489  1.7712
  582MOL0     H80286   3.413   4.979   7.709  0.0710 -0.3386  0.0146
  582MOL0     H80287   3.251   5.043   7.680  0.2601  0.5799  0.7909
  582MOL0     H80288   3.420   4.870   7.479 -1.0140 -2.0739 -1.8561
  582MOL0     H80289   3.257   4.919   7.461  0.0997  1.6400 -0.0249
  582MOL0     H80290   3.478   5.128   7.501 -1.2852  4.6696 -1.3830
  582MOL0     H80291   3.307   5.154   7.467 -1.5371 -2.2481  0.0384
  582MOL0     H80292   3.323   5.045   7.243  0.0383 -0.6085  0.7705
  582MOL0     H80293   3.480   4.988   7.287 -0.6540 -0.8428  0.9058
  582MOL0     H80294   3.519   5.195   7.160 -0.8474  3.5252 -0.0467
  582MOL0     H80295   3.545   5.250   7.314  0.5811 -2.0438 -0.3436
  582MOL0     H80296   3.394   4.486   8.061  5.8791 -1.6429  3.5286
  582MOL0     H80297   3.507   4.512   8.275 -0.6490 -0.3140  0.5777
  582MOL0     H80298   3.489   4.577   8.653  0.6405 -0.6061  0.5787
  582MOL0     H80299   3.611   4.504   8.845 -0.9872  0.4999  1.4683
  582MOL0     H80300   4.255   4.201   9.361 -1.8274 -4.2787 -1.4357
  582MOL0     H80301   4.197   4.361   9.167 -0.4724 -0.9254  1.2016
  582MOL0     H80302   4.275   4.608   8.865  1.9083  0.4314 -1.2715
  582MOL0     H80303   4.172   4.760   8.740  1.7775 -0.8190  2.8797
  582MOL0     H80304   4.015   4.831   8.622 -1.6349 -0.8042  0.4531
  582MOL0     H80305   3.959   4.895   8.466 -0.2839  1.1137  0.7974
  582MOL0     H80306   3.807   4.746   8.492 -0.6365 -0.9219 -4.3318
  582MOL0     H80307   3.904   4.644   8.597  2.0202 -2.5752 -1.1043
  582MOL0     H80308   4.005   4.600   8.324  1.1781  1.2029  0.9063
  582MOL0     H80309   3.968   4.500   8.445  1.9907  0.8214 -1.0287
  582MOL0     H80310   3.768   4.632   8.246  0.3846  1.7200  0.9104
  582MOL0     H80311   3.726   4.539   8.401  2.6185 -0.2700  1.8410
  582MOL0     H80312   3.780   4.240   8.122  0.6735 -0.4012  2.1910
  582MOL0     H80313   4.234   4.553   8.378 -2.0331 -0.5507  0.2440
  582MOL0     H80314   4.434   4.298   8.520 -0.6214 -2.1091 -0.9427
  582MOL0     H80315   4.284   4.247   8.493  0.6776 -0.9015 -1.6226
  582MOL0     H80316   4.353   4.359   8.378 -3.1930 -2.2177 -0.5329
  583MOL0     O80317   2.516   5.709   2.682 -0.8687  0.6446  0.3102
  583MOL0     C80318   2.401   5.712   2.731  0.7959 -0.4334  0.1022
  583MOL0     O80319   2.314   5.814   2.695 -0.0369  0.1788  0.0343
  583MOL0     C80320   2.354   5.922   2.632  0.2693  0.4102 -0.6436
  583MOL0     C80321   2.365   5.919   2.493  0.3814  0.9611 -0.4298
  583MOL0     C80322   2.397   6.028   2.424 -0.5905 -0.6575  0.2506
  583MOL0     C80323   2.440   6.146   2.492  0.0378  0.1989 -0.0660
  583MOL0     O80324   2.523   6.242   2.432 -0.4183  0.2736  0.2939
  583MOL0     C80325   2.470   6.377   2.433  0.2428 -0.0054 -0.4421
  583MOL0     C80326   2.437   6.416   2.286  0.5292 -0.9098 -0.3267
  583MOL0     C80327   2.398   6.570   2.272  0.4375  0.4202 -0.9863
  583MOL0     C80328   2.527   6.654   2.299  0.5415  0.6521  0.0287
  583MOL0     C80329   2.500   6.803   2.265 -0.0700 -0.0189  0.0713
  583MOL0     C80330   2.402   6.863   2.369 -0.1122  1.4934 -0.5445
  583MOL0     C80331   2.373   7.000   2.354  0.7584 -0.5258  0.1513
  583MOL0     C80332   2.290   7.051   2.479 -0.1240 -1.1504 -0.5508
  583MOL0     N80333   2.268   7.195   2.471  0.5432 -0.3162 -0.0168
  583MOL0     C80334   2.208   7.264   2.369 -0.8884 -1.0844  0.4237
  583MOL0     C80335   2.202   7.391   2.419  0.2586  0.8753  0.9359
  583MOL0     C80336   2.150   7.502   2.324  0.0966  0.5796 -0.2056
  583MOL0     C80337   2.013   7.562   2.368  1.0351  0.8275 -0.0380
  583MOL0     C80338   2.002   7.598   2.514 -0.5695  0.2525  0.4728
  583MOL0     C80339   1.954   7.483   2.599  0.0346  0.0731 -0.2394
  583MOL0     O80340   1.805   7.480   2.591  0.3299 -0.0230  0.9661
  583MOL0     C80341   1.733   7.580   2.651  0.6476 -0.0786 -0.1562
  583MOL0     C80342   1.725   7.585   2.786 -0.6270  0.4780 -0.3698
  583MOL0     C80343   1.651   7.675   2.863 -0.3814 -0.0416  1.3416
  583MOL0     C80344   1.636   7.640   3.010 -0.2699  0.5241  0.0632
  583MOL0     C80345   1.591   7.775   2.782  0.0663  0.2891 -0.7911
  583MOL0     C80346   1.511   7.877   2.842 -0.7178  0.4216 -0.0614
  583MOL0     O80347   1.524   8.003   2.791 -0.0419  0.9795  0.0764
  583MOL0     C80348   1.471   8.109   2.869 -1.4728 -0.3268  0.5991
  583MOL0     C80349   1.337   8.125   2.884  0.7157  0.3688 -0.0332
  583MOL0     C80350   1.289   8.244   2.952 -0.3433 -0.4059  0.4111
  583MOL0     C80351   1.382   8.347   2.998  0.5921  0.0269  0.0437
  583MOL0     O80352   1.340   8.453   3.079 -0.2498  0.1642 -0.3313
  583MOL0     C80353   1.344   8.567   3.002 -0.6210 -0.7890  0.3925
  583MOL0     C80354   1.231   8.659   3.058 -0.7924 -0.6238 -0.1222
  583MOL0     C80355   1.237   8.797   2.996  0.0467  0.7353 -0.3643
  583MOL0     C80356   1.118   8.874   3.044  0.1404 -0.0039  0.1447
  583MOL0     C80357   1.082   8.898   3.185  0.2598  0.0424 -0.2958
  583MOL0     C80358   1.152   9.003   3.252 -0.9318  0.0500  0.1253
  583MOL0     C80359   1.301   8.979   3.283  0.2064 -1.4055  0.1762
  583MOL0     C80360   1.358   9.088   3.373  0.5183  0.2014 -0.0444
  583MOL0    Cl80361   1.539   9.095   3.382 -0.1254 -0.1323 -0.4110
  583MOL0     C80362   1.519   8.317   2.986 -0.7213  0.2156  0.1605
  583MOL0     C80363   1.566   8.208   2.914  0.1992  0.4366 -0.2314
  583MOL0     O80364   1.437   7.840   2.934 -0.3776 -0.5072  0.2983
  583MOL0     C80365   1.602   7.780   2.642 -0.5717 -0.1888 -0.9235
  583MOL0     C80366   1.670   7.682   2.579 -0.2178 -0.2560  0.0169
  583MOL0     N80367   2.237   7.392   2.549  0.1393  0.9735 -0.4659
  583MOL0     N80368   2.279   7.273   2.582  0.0594 -0.3855 -0.4572
  583MOL0     C80369   2.427   6.150   2.634 -0.0645 -0.8210  0.1638
  583MOL0     C80370   2.376   6.042   2.700  0.3643 -0.2984 -0.3676
  583MOL0     C80371   2.348   5.604   2.822  0.4089 -0.4702  1.1595
  583MOL0     C80372   2.441   5.507   2.861 -0.7692  0.0299 -0.6423
  583MOL0     C80373   2.421   5.411   2.965  0.3999  0.6724 -0.8043
  583MOL0     C80374   2.295   5.409   3.031 -0.4053  0.0893  0.5872
  583MOL0     O80375   2.263   5.322   3.138 -0.6586 -0.3596 -0.1363
  583MOL0     C80376   2.369   5.223   3.182  0.3421 -0.4589  0.1204
  583MOL0     C80377   2.378   5.102   3.076  0.5967  0.2977  0.2424
  583MOL0     C80378   2.243   5.037   3.090 -0.7478 -0.2732 -0.2643
  583MOL0     C80379   2.260   4.901   3.009 -0.1690 -0.6752 -0.2047
  583MOL0     C80380   2.285   4.804   3.115 -0.1567  0.7107 -0.1278
  583MOL0     C80381   2.283   4.726   3.209  0.9480 -0.1413  0.4449
  583MOL0     C80382   2.198   5.498   2.985  0.2218  0.9745 -0.5050
  583MOL0     C80383   2.219   5.598   2.888 -0.0538  0.6287  1.1264
  583MOL0     C80384   2.099   5.701   2.878 -1.3152  0.5058 -0.0162
  583MOL0     H80385   2.345   5.829   2.434  0.9875  1.3924 -1.3172
  583MOL0     H80386   2.420   6.018   2.318 -0.9530 -1.7129  0.2628
  583MOL0     H80387   2.560   6.429   2.469  0.6931 -2.5030  2.4146
  583MOL0     H80388   2.382   6.394   2.495 -1.2497  1.8328 -2.8699
  583MOL0     H80389   2.524   6.397   2.224 -0.4246 -2.0177 -1.3713
  583MOL0     H80390   2.359   6.349   2.249 -0.3464 -0.4905  0.6699
  583MOL0     H80391   2.359   6.589   2.172  1.2398 -1.0633 -1.6061
  583MOL0     H80392   2.321   6.604   2.342  0.7787  2.8091 -1.6718
  583MOL0     H80393   2.569   6.628   2.397 -0.4260  0.3307  0.3704
  583MOL0     H80394   2.605   6.630   2.226  1.0385  0.3770  0.6337
  583MOL0     H80395   2.458   6.812   2.165  1.6235 -1.7503 -0.8714
  583MOL0     H80396   2.592   6.857   2.286 -0.9185  0.9585  1.4935
  583MOL0     H80397   2.313   6.800   2.371  2.5392 -2.6389  0.8467
  583MOL0     H80398   2.445   6.845   2.468 -3.9623 -1.4183  0.8342
  583MOL0     H80399   2.301   7.012   2.272 -1.2271 -0.3468  1.8404
  583MOL0     H80400   2.470   7.048   2.339  0.6911 -0.4736 -0.1406
  583MOL0     H80401   2.199   6.992   2.463  0.0434 -1.8703  0.9725
  583MOL0     H80402   2.335   7.027   2.576 -2.8310 -0.8275  0.9014
  583MOL0     H80403   2.172   7.218   2.277 -0.4863 -0.3756 -0.0979
  583MOL0     H80404   2.153   7.462   2.222  0.4937  0.0495  0.0073
  583MOL0     H80405   2.229   7.577   2.312  1.2492 -0.8665 -2.5176
  583MOL0     H80406   1.996   7.644   2.298 -1.9982  0.1003 -0.2874
  583MOL0     H80407   1.930   7.496   2.339 -1.8297  2.8382  2.8466
  583MOL0     H80408   2.103   7.626   2.542 -0.6376  0.5419  0.4303
  583MOL0     H80409   1.935   7.682   2.535 -0.6404  0.3908 -0.2628
  583MOL0     H80410   1.993   7.391   2.556  3.5823  2.2107 -2.0326
  583MOL0     H80411   1.983   7.481   2.705  1.6531  1.2996 -0.6312
  583MOL0     H80412   1.784   7.505   2.832 -1.4446  0.7536  1.2522
  583MOL0     H80413   1.703   7.555   3.029 -1.5753 -0.4640  0.3768
  583MOL0     H80414   1.533   7.609   3.031 -0.2328 -1.5039 -2.2419
  583MOL0     H80415   1.670   7.714   3.083 -0.0233  1.9351 -1.4272
  583MOL0     H80416   1.269   8.046   2.855  0.4183  0.2459  0.9690
  583MOL0     H80417   1.183   8.257   2.974 -0.3272  0.9226 -0.2202
  583MOL0     H80418   1.446   8.607   3.003 -0.5300 -0.9642 -0.7807
  583MOL0     H80419   1.301   8.543   2.905 -1.4177 -1.1781  0.8289
  583MOL0     H80420   1.133   8.614   3.037 -1.1023  0.8920 -2.2832
  583MOL0     H80421   1.252   8.670   3.165  4.1435  0.2542 -0.9548
  583MOL0     H80422   1.238   8.789   2.887 -1.5492  0.1933 -0.3666
  583MOL0     H80423   1.334   8.841   3.022  0.8154 -1.9870  1.7855
  583MOL0     H80424   1.028   8.830   3.000  1.0069 -0.6312 -1.0852
  583MOL0     H80425   1.129   8.971   2.995  0.7630 -0.5946 -0.9370
  583MOL0     H80426   0.974   8.910   3.191 -0.1028 -2.3877 -0.9418
  583MOL0     H80427   1.110   8.809   3.242  2.7329  1.5879  1.0616
  583MOL0     H80428   1.101   9.023   3.347 -2.3871 -3.1097  0.1447
  583MOL0     H80429   1.146   9.102   3.207  0.6350 -0.3905 -1.1088
  583MOL0     H80430   1.349   8.997   3.187 -1.0034  0.0019 -0.1963
  583MOL0     H80431   1.318   8.880   3.327 -1.8692 -1.7059  0.4167
  583MOL0     H80432   1.326   9.093   3.478  0.2290  0.9076 -0.1605
  583MOL0     H80433   1.324   9.182   3.330 -0.9229 -0.1779  0.1789
  583MOL0     H80434   1.598   8.388   3.008  0.5389 -1.4213  1.2192
  583MOL0     H80435   1.674   8.216   2.899  0.1858  1.9124  0.3384
  583MOL0     H80436   1.548   7.860   2.593  1.2060  2.6587  1.4334
  583MOL0     H80437   1.692   7.689   2.473  0.8684 -2.5451  0.0350
  583MOL0     H80438   2.438   6.240   2.694  0.2756  0.5409 -1.8221
  583MOL0     H80439   2.363   6.032   2.807  3.3318 -4.0696 -0.1304
  583MOL0     H80440   2.536   5.497   2.810 -1.4338 -2.8704 -1.5239
  583MOL0     H80441   2.495   5.332   2.966 -1.4972 -1.3017  2.1249
  583MOL0     H80442   2.462   5.280   3.191  1.6054 -2.3811 -0.1976
  583MOL0     H80443   2.333   5.181   3.277  0.2568 -1.0439 -0.1699
  583MOL0     H80444   2.461   5.042   3.116  2.1107  2.3467  0.2955
  583MOL0     H80445   2.399   5.136   2.974  2.6208 -0.9802  0.1822
  583MOL0     H80446   2.222   5.023   3.196  2.3008  2.5837  0.8458
  583MOL0     H80447   2.162   5.099   3.050 -2.0681 -0.8768  1.3519
  583MOL0     H80448   2.345   4.902   2.940  1.9437 -2.2049  2.1966
  583MOL0     H80449   2.173   4.881   2.945 -0.6879 -0.1350  0.3146
  583MOL0     H80450   2.262   4.660   3.291 -2.1468 -1.8990 -1.5714
  583MOL0     H80451   2.110   5.486   3.048  0.5392 -1.8237 -0.4819
  583MOL0     H80452   2.024   5.686   2.956 -1.7213  3.1407  0.2057
  583MOL0     H80453   2.149   5.798   2.874 -0.7090  0.1671 -1.1682
  583MOL0     H80454   2.061   5.698   2.775  1.6400 -1.0263 -1.1770
  584MOL0     O80455   2.970   6.457   7.097 -0.2136 -0.6209 -0.2999
  584MOL0     C80456   3.036   6.442   7.198  0.2181  0.4157 -0.7054
  584MOL0     O80457   3.044   6.534   7.299  0.4288 -0.2309  0.7594
  584MOL0     C80458   3.050   6.657   7.255 -0.4259  0.4615 -0.2479
  584MOL0     C80459   3.131   6.695   7.138 -0.7952  0.2691  0.6532
  584MOL0     C80460   3.137   6.828   7.095 -0.8593  0.2229 -0.3780
  584MOL0     C80461   3.062   6.919   7.172 -0.1614  0.7548 -0.7278
  584MOL0     O80462   3.082   7.048   7.134  0.4346 -0.2638 -0.0715
  584MOL0     C80463   2.991   7.147   7.179  0.7438  0.4080  0.5069
  584MOL0     C80464   2.845   7.126   7.133  0.3405  0.5116 -0.6994
  584MOL0     C80465   2.762   7.249   7.146 -1.1566 -0.4377  0.2716
  584MOL0     C80466   2.741   7.302   7.289  0.0944 -0.6252  0.7810
  584MOL0     C80467   2.654   7.434   7.277  0.7669  0.9723  0.2742
  584MOL0     C80468   2.562   7.460   7.392  0.4041  0.5680 -0.1096
  584MOL0     C80469   2.439   7.365   7.383 -1.0524  0.5797 -0.5587
  584MOL0     C80470   2.403   7.354   7.534 -0.8454 -0.2730  0.9139
  584MOL0     N80471   2.285   7.270   7.562 -0.1408 -0.2675  0.6443
  584MOL0     C80472   2.181   7.244   7.471 -0.0593  0.0333  0.1778
  584MOL0     C80473   2.089   7.177   7.550  0.1992  0.8000 -0.1093
  584MOL0     C80474   1.950   7.143   7.502 -0.4188 -0.8845  0.4018
  584MOL0     C80475   1.950   7.032   7.386 -1.0844  0.5894  0.1896
  584MOL0     C80476   2.000   6.897   7.439 -0.1596  0.5566 -0.1257
  584MOL0     C80477   1.899   6.827   7.545  0.2613 -0.9067  0.4327
  584MOL0     O80478   1.804   6.744   7.484  0.0315  0.5935  0.0317
  584MOL0     C80479   1.680   6.782   7.461  0.8894 -0.2578  0.4814
  584MOL0     C80480   1.615   6.730   7.356 -0.1892  0.8654 -0.0420
  584MOL0     C80481   1.488   6.747   7.324  0.1567 -0.7312 -0.2444
  584MOL0     C80482   1.446   6.709   7.184  0.9834  0.8024 -0.7150
  584MOL0     C80483   1.402   6.806   7.422 -0.2411 -0.2419 -0.0772
  584MOL0     C80484   1.252   6.805   7.408 -0.0586 -0.7303  0.2837
  584MOL0     O80485   1.180   6.877   7.505  0.3639 -0.7407  0.5729
  584MOL0     C80486   1.044   6.858   7.506  0.4363  0.1932 -0.1578
  584MOL0     C80487   0.996   6.808   7.629  0.0967 -0.7624 -0.1191
  584MOL0     C80488   0.857   6.815   7.650 -0.1296  0.1493 -0.6671
  584MOL0     C80489   0.775   6.866   7.556  0.3523 -0.2139  0.6344
  584MOL0     O80490   0.644   6.872   7.603 -0.0170 -0.0994 -0.5416
  584MOL0     C80491   0.557   6.938   7.512  0.1569  0.3679 -0.0150
  584MOL0     C80492   0.429   6.968   7.577 -0.0450 -0.0134 -0.9242
  584MOL0     C80493   0.441   7.054   7.707 -0.9757  0.4750 -1.1005
  584MOL0     C80494   0.416   6.977   7.843 -0.1742 -0.6071  0.7384
  584MOL0     C80495   0.456   7.052   7.973  0.1805 -0.8513  0.2519
  584MOL0     C80496   0.608   7.060   7.986  0.3332  0.3666  0.3900
  584MOL0     C80497   0.639   7.137   8.107  0.1002  0.0125  0.3485
  584MOL0     C80498   0.786   7.179   8.123 -0.3860  0.3761  0.4250
  584MOL0    Cl80499   0.836   7.297   8.008 -0.1442 -0.1350 -0.2638
  584MOL0     C80500   0.820   6.904   7.425  0.8104  0.3032  0.4170
  584MOL0     C80501   0.957   6.893   7.401 -0.0864  0.0448 -0.7050
  584MOL0     O80502   1.210   6.723   7.325 -0.2872 -0.0125 -0.5671
  584MOL0     C80503   1.460   6.851   7.542 -0.6874  0.0026  0.1453
  584MOL0     C80504   1.601   6.851   7.558 -0.8055 -0.9884  0.4333
  584MOL0     N80505   2.129   7.179   7.684  0.9589  0.3754 -1.0272
  584MOL0     N80506   2.249   7.224   7.680  0.2113  0.7749  0.1768
  584MOL0     C80507   2.977   6.885   7.284 -0.9438  0.1486 -0.6829
  584MOL0     C80508   2.982   6.753   7.321  0.2048  0.1749  0.3991
  584MOL0     C80509   3.098   6.310   7.225  0.4535  0.2805 -0.4891
  584MOL0     C80510   3.117   6.256   7.354  0.7857 -0.8378 -0.4304
  584MOL0     C80511   3.187   6.145   7.383  0.0687  0.8446 -0.7591
  584MOL0     C80512   3.255   6.077   7.278  0.0538  0.0624 -0.5106
  584MOL0     O80513   3.322   5.966   7.312 -0.0316  0.1345  0.0845
  584MOL0     C80514   3.323   5.853   7.227  0.5251 -0.3201  0.4224
  584MOL0     C80515   3.192   5.805   7.166  1.0231  0.2304 -0.2984
  584MOL0     C80516   3.095   5.760   7.283  0.3179  0.1268 -1.7430
  584MOL0     C80517   2.978   5.671   7.247 -0.1875  0.1945  0.3116
  584MOL0     C80518   2.874   5.677   7.355  0.2247 -0.2933 -0.1981
  584MOL0     C80519   2.800   5.676   7.449 -1.3119 -0.1913  0.5674
  584MOL0     C80520   3.239   6.121   7.146 -1.0373 -0.8387 -0.3276
  584MOL0     C80521   3.159   6.235   7.121 -0.5315  0.0201 -0.2981
  584MOL0     C80522   3.137   6.270   6.971  0.6189 -0.4605 -0.9920
  584MOL0     H80523   3.191   6.616   7.095 -1.2868 -0.1165  0.6682
  584MOL0     H80524   3.203   6.847   7.011  0.9882  1.7021  1.3006
  584MOL0     H80525   3.019   7.242   7.132 -1.4744  1.4171  1.1200
  584MOL0     H80526   2.994   7.175   7.284 -1.3853 -1.4738  1.1509
  584MOL0     H80527   2.841   7.079   7.035 -2.7170 -0.9966  0.0385
  584MOL0     H80528   2.800   7.046   7.192 -3.6404  1.0430 -2.6768
  584MOL0     H80529   2.795   7.334   7.086 -1.8386  0.1586  0.7195
  584MOL0     H80530   2.663   7.224   7.108 -3.1523  2.8443  2.7314
  584MOL0     H80531   2.692   7.216   7.335 -2.3574 -1.3310 -2.7896
  584MOL0     H80532   2.843   7.316   7.327  0.5125  3.9208 -1.2835
  584MOL0     H80533   2.596   7.426   7.184  1.1851 -2.1000  0.1907
  584MOL0     H80534   2.726   7.516   7.267  0.8019  1.5025  3.6746
  584MOL0     H80535   2.625   7.423   7.473 -1.4604 -2.3413  0.1622
  584MOL0     H80536   2.538   7.564   7.415 -0.0479  0.0769  1.7563
  584MOL0     H80537   2.457   7.277   7.322 -1.0446  0.8329 -0.9203
  584MOL0     H80538   2.358   7.415   7.328  0.1677  0.8413 -2.1887
  584MOL0     H80539   2.481   7.326   7.605  2.6485  3.1865 -1.1977
  584MOL0     H80540   2.379   7.455   7.566 -2.1432 -0.6557  1.2210
  584MOL0     H80541   2.175   7.278   7.368 -2.3755 -0.9204 -0.0693
  584MOL0     H80542   1.916   7.238   7.459  1.8879  0.5132  1.4876
  584MOL0     H80543   1.877   7.117   7.579 -1.4186 -2.3011 -0.9417
  584MOL0     H80544   1.852   7.007   7.345 -1.6602  2.2740  0.4364
  584MOL0     H80545   2.012   7.058   7.300 -3.9324  0.8501 -1.9171
  584MOL0     H80546   2.002   6.830   7.353  3.9379 -2.1496  1.7589
  584MOL0     H80547   2.102   6.898   7.477 -0.4050 -1.3657  0.7003
  584MOL0     H80548   1.956   6.750   7.599  2.5415  0.8427  0.6936
  584MOL0     H80549   1.865   6.901   7.618  0.1256 -1.6427  1.1286
  584MOL0     H80550   1.677   6.665   7.295 -1.0420  0.1556 -0.1583
  584MOL0     H80551   1.388   6.794   7.147  0.0859  0.8516  0.7101
  584MOL0     H80552   1.381   6.622   7.196  1.7738 -0.0425 -2.3055
  584MOL0     H80553   1.537   6.684   7.128  3.0561  3.0904  1.3205
  584MOL0     H80554   1.068   6.770   7.701 -0.7950  1.2234  1.9342
  584MOL0     H80555   0.816   6.796   7.748 -2.0994  3.4320 -0.7050
  584MOL0     H80556   0.595   7.032   7.469 -0.7135  0.2552 -1.0801
  584MOL0     H80557   0.549   6.874   7.424 -3.0283 -0.8003  0.9894
  584MOL0     H80558   0.368   7.019   7.501 -0.3850  0.3295 -0.4256
  584MOL0     H80559   0.383   6.872   7.598 -1.6005  1.2084  1.7085
  584MOL0     H80560   0.379   7.143   7.694  0.3190  1.5035 -0.5023
  584MOL0     H80561   0.543   7.092   7.697 -1.3898  0.9982 -4.8588
  584MOL0     H80562   0.465   6.879   7.845  1.3548  0.1173  0.0907
  584MOL0     H80563   0.307   6.965   7.852 -0.1561 -0.7361  0.7911
  584MOL0     H80564   0.413   7.152   7.970  0.2927 -0.7907 -2.6510
  584MOL0     H80565   0.420   7.014   8.069 -2.9455  1.4134  0.1154
  584MOL0     H80566   0.656   7.107   7.900 -0.7606  0.5442 -0.1337
  584MOL0     H80567   0.656   6.962   7.997 -2.7540 -1.1681  1.3450
  584MOL0     H80568   0.596   7.085   8.192 -1.8799  0.7255 -0.1699
  584MOL0     H80569   0.590   7.233   8.089 -1.5660 -0.9485 -0.5516
  584MOL0     H80570   0.830   7.080   8.103 -1.5114  0.3561 -2.3887
  584MOL0     H80571   0.789   7.216   8.226 -0.1783  0.3527  0.4279
  584MOL0     H80572   0.763   6.936   7.339  5.1962 -0.4722 -3.1189
  584MOL0     H80573   0.992   6.933   7.306 -1.7980  1.9583 -0.5854
  584MOL0     H80574   1.398   6.887   7.624  0.0301  0.9637  0.2770
  584MOL0     H80575   1.646   6.880   7.653  1.0665 -1.6064 -0.2076
  584MOL0     H80576   2.919   6.958   7.339 -0.1014  0.5080 -0.2601
  584MOL0     H80577   2.920   6.708   7.398  0.0097 -3.3296 -1.6006
  584MOL0     H80578   3.067   6.309   7.434  1.6257 -1.4798  0.5449
  584MOL0     H80579   3.195   6.105   7.483 -1.1896  2.8122  0.2062
  584MOL0     H80580   3.383   5.880   7.140  0.0890 -0.3791  0.1043
  584MOL0     H80581   3.373   5.768   7.275  0.3660  0.2890  1.7058
  584MOL0     H80582   3.225   5.725   7.100  3.7933  2.5842 -2.0094
  584MOL0     H80583   3.147   5.881   7.102  4.5292  2.0685 -0.8244
  584MOL0     H80584   3.158   5.701   7.350  1.6905 -2.1698 -4.8124
  584MOL0     H80585   3.055   5.844   7.342 -1.1715 -1.8791  0.2967
  584MOL0     H80586   3.013   5.569   7.228 -0.3233  0.1931  0.0604
  584MOL0     H80587   2.936   5.710   7.154 -0.6278 -2.7994 -0.8494
  584MOL0     H80588   2.734   5.697   7.531  0.7856 -0.0411  2.3322
  584MOL0     H80589   3.287   6.084   7.055 -2.4657  1.0322 -1.9301
  584MOL0     H80590   3.032   6.258   6.943  0.3688  4.5711 -3.3313
  584MOL0     H80591   3.158   6.375   6.951  4.3029 -1.0497 -1.0316
  584MOL0     H80592   3.198   6.207   6.905  1.3552 -1.5040  0.6275
  585MOL0     O80593   7.700   4.588   7.544  0.1849 -0.6219  0.2076
  585MOL0     C80594   7.684   4.704   7.534  0.1250 -1.1663 -0.0743
  585MOL0     O80595   7.674   4.792   7.633 -0.6171 -0.1633 -0.4184
  585MOL0     C80596   7.627   4.749   7.760 -0.8231 -0.7586  1.1143
  585MOL0     C80597   7.519   4.826   7.810  0.3569 -0.1693 -0.1603
  585MOL0     C80598   7.460   4.794   7.929  0.1713 -0.0603  0.1125
  585MOL0     C80599   7.502   4.687   8.006 -0.8655 -0.4132 -1.0070
  585MOL0     O80600   7.416   4.658   8.114 -0.4627 -0.5005  0.3507
  585MOL0     C80601   7.440   4.551   8.207 -0.1956 -0.0100  0.6895
  585MOL0     C80602   7.322   4.522   8.301 -0.2404  0.6424  0.4589
  585MOL0     C80603   7.347   4.455   8.431  1.0395  0.3074  0.6531
  585MOL0     C80604   7.475   4.376   8.456  0.3525  1.0642  0.0183
  585MOL0     C80605   7.476   4.247   8.378 -0.4481  0.0600  0.2060
  585MOL0     C80606   7.620   4.186   8.373 -0.4106 -0.3223 -0.0435
  585MOL0     C80607   7.713   4.254   8.270 -0.3160 -0.8123 -0.3983
  585MOL0     C80608   7.686   4.211   8.125  0.2210  0.5070 -0.1086
  585MOL0     N80609   7.784   4.266   8.030  0.9651 -0.6197 -0.7257
  585MOL0     C80610   7.742   4.300   7.904  0.3114  0.3636  0.2906
  585MOL0     C80611   7.854   4.312   7.832  0.6821 -0.4525 -0.1327
  585MOL0     C80612   7.853   4.332   7.680  0.4910 -0.5840 -1.0025
  585MOL0     C80613   7.919   4.217   7.605 -0.5769  0.0037 -0.1474
  585MOL0     C80614   7.824   4.165   7.501 -0.4537  0.5868  0.6997
  585MOL0     C80615   7.871   4.030   7.456 -0.9263 -0.0109  0.2483
  585MOL0     O80616   7.798   3.967   7.350 -0.5375  0.7475  0.6688
  585MOL0     C80617   7.868   3.855   7.292  0.9351 -0.3280  0.7264
  585MOL0     C80618   7.812   3.730   7.297  0.3290  0.0173  0.3613
  585MOL0     C80619   7.868   3.615   7.236 -0.2485  0.4449 -0.4240
  585MOL0     C80620   7.785   3.487   7.250  1.1464 -0.3613 -0.5424
  585MOL0     C80621   7.988   3.625   7.155  0.1445 -0.4454 -0.3755
  585MOL0     C80622   8.058   3.515   7.083 -0.7672 -0.0646  0.6106
  585MOL0     O80623   8.158   3.545   6.993  0.0367 -0.5778 -0.0942
  585MOL0     C80624   8.179   3.430   6.926  1.5129  0.7675 -0.5755
  585MOL0     C80625   8.154   3.427   6.793  0.1362 -0.0439  0.9477
  585MOL0     C80626   8.191   3.319   6.706  0.4028 -0.2787  0.9698
  585MOL0     C80627   8.243   3.205   6.767  0.1658 -0.0737  0.2000
  585MOL0     O80628   8.271   3.081   6.703 -0.1176 -0.0828 -0.2547
  585MOL0     C80629   8.193   3.054   6.581  0.6273  0.3893  0.8101
  585MOL0     C80630   8.244   2.927   6.499 -0.6948  0.1509 -0.6738
  585MOL0     C80631   8.375   2.973   6.410  0.4937  0.5083 -0.7439
  585MOL0     C80632   8.507   2.986   6.495 -0.1266  0.0141  0.1426
  585MOL0     C80633   8.627   3.002   6.413 -0.6676  0.7780  0.8760
  585MOL0     C80634   8.669   2.874   6.332  0.3956 -0.9730 -0.6692
  585MOL0     C80635   8.802   2.904   6.262  0.5905 -0.2247 -0.2071
  585MOL0     C80636   8.802   3.027   6.162 -0.1139 -0.1152 -0.1144
  585MOL0    Cl80637   8.812   3.177   6.250  0.0767  0.4689  0.3494
  585MOL0     C80638   8.271   3.209   6.900  0.8112 -0.4642  0.4903
  585MOL0     C80639   8.246   3.312   6.988  0.0027  0.8701  0.9396
  585MOL0     O80640   8.033   3.401   7.128 -0.3767 -0.0270 -0.6428
  585MOL0     C80641   8.045   3.757   7.161 -0.6579 -0.1701 -0.1145
  585MOL0     C80642   7.984   3.870   7.219 -0.3350 -0.4638  0.1133
  585MOL0     N80643   7.964   4.293   7.917 -0.4178  0.8881  0.6948
  585MOL0     N80644   7.917   4.261   8.037 -0.0288  0.2738  0.3342
  585MOL0     C80645   7.627   4.624   7.968 -0.1736 -1.0089  1.1238
  585MOL0     C80646   7.683   4.651   7.844  0.2754 -0.0566 -0.1775
  585MOL0     C80647   7.694   4.761   7.401 -0.3861  0.0819 -0.1396
  585MOL0     C80648   7.690   4.900   7.384  0.2036 -0.2590 -0.7925
  585MOL0     C80649   7.691   4.962   7.259 -0.3265  0.6836  0.0189
  585MOL0     C80650   7.697   4.891   7.146  0.1848  0.8819  0.1976
  585MOL0     O80651   7.698   4.958   7.027  0.3876  0.2956  0.3238
  585MOL0     C80652   7.593   4.933   6.939  0.3094  0.9080  0.2797
  585MOL0     C80653   7.539   5.067   6.888 -0.0367 -0.5538  0.0981
  585MOL0     C80654   7.537   5.079   6.729 -0.0010  0.0409 -0.4626
  585MOL0     C80655   7.506   5.227   6.696  0.7509  0.5381 -0.2556
  585MOL0     C80656   7.495   5.249   6.548  0.5939  0.3071 -0.3143
  585MOL0     C80657   7.482   5.278   6.432 -0.0039  1.2145  0.1872
  585MOL0     C80658   7.711   4.751   7.156  0.0412 -0.0671 -0.4325
  585MOL0     C80659   7.706   4.684   7.278 -0.4421 -0.9146 -0.2811
  585MOL0     C80660   7.725   4.532   7.271 -0.6901 -1.1244  0.4078
  585MOL0     H80661   7.486   4.906   7.744  2.5525 -0.1669 -1.3608
  585MOL0     H80662   7.371   4.841   7.969  0.6057  2.2986 -1.4817
  585MOL0     H80663   7.517   4.592   8.272  1.5995  2.2282 -2.5384
  585MOL0     H80664   7.507   4.475   8.166 -1.2022  0.1285 -1.3832
  585MOL0     H80665   7.275   4.616   8.328  3.8902  3.1725 -0.2214
  585MOL0     H80666   7.256   4.456   8.244  1.8170 -2.3582  1.2756
  585MOL0     H80667   7.333   4.522   8.517  0.6268 -0.6041  1.3159
  585MOL0     H80668   7.270   4.380   8.450  2.7392 -1.2536  1.7896
  585MOL0     H80669   7.563   4.426   8.415  1.9815 -3.0127 -1.9682
  585MOL0     H80670   7.475   4.349   8.562 -1.0415 -1.8776 -0.6150
  585MOL0     H80671   7.440   4.256   8.275 -3.1576 -0.8002  0.9977
  585MOL0     H80672   7.402   4.187   8.430  0.0510 -1.2426 -0.5464
  585MOL0     H80673   7.662   4.198   8.473 -2.1883  0.5119  0.6587
  585MOL0     H80674   7.616   4.078   8.359 -2.2474 -0.1450 -1.2047
  585MOL0     H80675   7.815   4.229   8.301 -0.0072  2.8329  2.0576
  585MOL0     H80676   7.720   4.363   8.266  3.5279 -0.9077  0.2929
  585MOL0     H80677   7.712   4.105   8.114 -0.4674  0.2754  0.3701
  585MOL0     H80678   7.584   4.220   8.085 -0.0799  0.7990  0.7030
  585MOL0     H80679   7.642   4.309   7.861  0.7787  1.8250 -0.5747
  585MOL0     H80680   7.902   4.429   7.675  0.4297 -0.4848  0.0601
  585MOL0     H80681   7.753   4.354   7.641  1.3473  2.5451 -1.6866
  585MOL0     H80682   8.019   4.242   7.567  0.5508 -1.8811  1.3625
  585MOL0     H80683   7.927   4.142   7.684 -3.7158  0.9315  1.1968
  585MOL0     H80684   7.720   4.156   7.535 -0.4828 -1.5567  0.2186
  585MOL0     H80685   7.814   4.236   7.419 -0.8705  2.0428  1.9660
  585MOL0     H80686   7.973   4.050   7.420 -1.7921  0.3053 -2.2425
  585MOL0     H80687   7.860   3.966   7.544 -4.7260 -0.7612 -0.5897
  585MOL0     H80688   7.730   3.709   7.365  0.2603  2.5057  1.1506
  585MOL0     H80689   7.838   3.392   7.254 -3.6437 -3.3598  2.4870
  585MOL0     H80690   7.711   3.475   7.170  0.0137  0.0007  0.4122
  585MOL0     H80691   7.739   3.479   7.349 -1.7890 -2.4278 -1.9289
  585MOL0     H80692   8.106   3.521   6.767 -0.5846 -0.1160  1.9827
  585MOL0     H80693   8.202   3.340   6.600 -0.4138  1.0765  1.1236
  585MOL0     H80694   8.088   3.033   6.605  0.1598 -0.2909 -1.6518
  585MOL0     H80695   8.188   3.142   6.517 -3.6718 -2.2054 -3.0314
  585MOL0     H80696   8.262   2.840   6.562 -0.4980  0.1262 -0.7620
  585MOL0     H80697   8.167   2.904   6.425 -0.3441 -0.9109 -0.7269
  585MOL0     H80698   8.373   3.068   6.357  4.3629  0.8922 -0.4794
  585MOL0     H80699   8.393   2.895   6.335  1.7086 -0.7498  0.7815
  585MOL0     H80700   8.522   2.896   6.556  0.9933 -1.1118 -1.6821
  585MOL0     H80701   8.503   3.077   6.555  0.0132  0.2032 -0.1312
  585MOL0     H80702   8.602   3.087   6.349  0.9152  0.9189  0.3856
  585MOL0     H80703   8.704   3.031   6.486  0.5957 -3.7479  1.6599
  585MOL0     H80704   8.599   2.859   6.250 -0.3364 -0.7857 -0.0941
  585MOL0     H80705   8.664   2.779   6.386 -1.2947 -1.0075 -0.8152
  585MOL0     H80706   8.822   2.813   6.205 -0.6794 -1.2282  0.8980
  585MOL0     H80707   8.881   2.906   6.337 -0.9797  1.4248  1.5172
  585MOL0     H80708   8.710   3.036   6.104  0.2461 -0.6864 -0.7864
  585MOL0     H80709   8.889   3.026   6.096  0.1515  0.4508  0.2200
  585MOL0     H80710   8.315   3.114   6.926  2.4864  0.4003  0.9527
  585MOL0     H80711   8.270   3.288   7.091 -3.2579  1.9592  2.0854
  585MOL0     H80712   8.141   3.766   7.112 -1.0769 -1.7000 -1.3090
  585MOL0     H80713   8.033   3.963   7.194 -2.8629  0.8364 -0.3557
  585MOL0     H80714   7.682   4.560   8.035  0.7585  2.8393  4.4490
  585MOL0     H80715   7.774   4.599   7.817  0.4849 -1.9811  3.5714
  585MOL0     H80716   7.695   4.963   7.472 -0.0386  0.2806 -1.1582
  585MOL0     H80717   7.692   5.071   7.263  2.5650  0.7263  3.0535
  585MOL0     H80718   7.640   4.878   6.857  0.9878  1.0267  0.5810
  585MOL0     H80719   7.519   4.861   6.976  4.2549 -3.3148  0.8191
  585MOL0     H80720   7.613   5.142   6.916  1.3833 -2.5317  2.0386
  585MOL0     H80721   7.446   5.085   6.944 -0.2651 -0.9222 -0.1580
  585MOL0     H80722   7.640   5.057   6.701  0.9245  4.1543 -0.7996
  585MOL0     H80723   7.471   4.997   6.697  0.3407 -1.1303  1.6283
  585MOL0     H80724   7.589   5.285   6.738  0.3416  0.0139  1.3445
  585MOL0     H80725   7.414   5.267   6.741 -1.3919 -1.7776 -2.2600
  585MOL0     H80726   7.471   5.300   6.327 -0.7741 -2.0750 -0.5593
  585MOL0     H80727   7.702   4.696   7.063 -1.8196  1.9580 -1.5526
  585MOL0     H80728   7.733   4.503   7.166 -0.1996  1.6159 -0.3921
  585MOL0     H80729   7.822   4.510   7.315 -0.2677  1.4832  0.9315
  585MOL0     H80730   7.639   4.494   7.327  0.6193 -0.0371  3.3097
  586MOL0     O80731   6.570  10.157   0.180 -0.1864 -0.0907 -0.7191
  586MOL0     C80732   6.474  10.163   0.255 -0.8775  0.9330  0.6498
  586MOL0     O80733   6.352  10.106   0.223 -0.5123 -0.0007 -0.1343
  586MOL0     C80734   6.343  10.050   0.098 -0.3235  0.3021  1.1689
  586MOL0     C80735   6.350   9.914   0.084 -0.0967 -0.2147 -1.1087
  586MOL0     C80736   6.332   9.845  -0.032  0.9967  0.1377  0.5108
  586MOL0     C80737   6.315   9.910  -0.150 -0.2010 -0.1537  0.7365
  586MOL0     O80738   6.281   9.854  -0.269 -0.9668  0.0930  0.6990
  586MOL0     C80739   6.300   9.710  -0.297  0.2808 -0.4105  0.4326
  586MOL0     C80740   6.313   9.700  -0.449 -0.2465 -1.3986 -0.3769
  586MOL0     C80741   6.368   9.573  -0.505 -0.0823 -0.0781 -0.0088
  586MOL0     C80742   6.355   9.552  -0.657  0.2880 -0.1587  0.2659
  586MOL0     C80743   6.359   9.407  -0.706  0.2672 -0.7712  0.8593
  586MOL0     C80744   6.352   9.403  -0.855  1.1449 -0.7736 -0.2938
  586MOL0     C80745   6.354   9.268  -0.916 -0.3894  0.5556  0.1577
  586MOL0     C80746   6.495   9.203  -0.936 -0.1706 -0.2154  0.0734
  586MOL0     N80747   6.517   9.118  -1.053  0.2219 -0.5527  1.2449
  586MOL0     C80748   6.634   9.056  -1.084  0.5935 -0.0315 -1.1888
  586MOL0     C80749   6.621   8.982  -1.195 -0.3349  0.1120  0.1976
  586MOL0     C80750   6.740   8.924  -1.277 -0.1384 -0.8185 -0.2135
  586MOL0     C80751   6.820   8.819  -1.197  0.1050  0.0166 -0.2392
  586MOL0     C80752   6.933   8.782  -1.280  0.2477  0.4408  1.3288
  586MOL0     C80753   7.006   8.659  -1.229 -0.7441  0.0685 -0.9161
  586MOL0     O80754   7.071   8.707  -1.105 -0.6520 -0.2470  0.8152
  586MOL0     C80755   7.059   8.645  -0.988 -0.4066  1.5437 -0.6175
  586MOL0     C80756   7.054   8.497  -0.974 -0.6239  0.3549  0.5185
  586MOL0     C80757   7.042   8.437  -0.853  0.0715  1.0885  0.0824
  586MOL0     C80758   7.011   8.291  -0.863  0.1677 -0.0599 -0.6148
  586MOL0     C80759   7.064   8.516  -0.728 -0.4632 -0.3584  0.5258
  586MOL0     C80760   7.076   8.450  -0.594  0.2710 -0.0978 -0.7184
  586MOL0     O80761   7.079   8.530  -0.483 -0.4822 -0.6410 -0.0118
  586MOL0     C80762   7.148   8.473  -0.377 -0.5278  0.5081  0.0804
  586MOL0     C80763   7.092   8.464  -0.254  0.2456  0.0301 -0.8207
  586MOL0     C80764   7.148   8.400  -0.135  1.0356  0.1829  0.6107
  586MOL0     C80765   7.277   8.361  -0.147 -0.0178 -0.6478 -0.2701
  586MOL0     O80766   7.320   8.301  -0.028  0.4087 -0.3309  0.5003
  586MOL0     C80767   7.456   8.261  -0.025  0.0932 -1.0981  0.1784
  586MOL0     C80768   7.505   8.247   0.124 -0.2206 -0.7228 -0.3580
  586MOL0     C80769   7.480   8.378   0.213  0.1317  0.4492 -0.3725
  586MOL0     C80770   7.551   8.373   0.349  1.3531 -0.9156  0.6857
  586MOL0     C80771   7.485   8.476   0.448  0.2348  0.7946  0.3105
  586MOL0     C80772   7.490   8.624   0.399 -0.4093 -0.3996 -0.0103
  586MOL0     C80773   7.635   8.677   0.382 -0.5288  0.3097 -0.4610
  586MOL0     C80774   7.639   8.838   0.400 -0.2853  0.9133 -0.1332
  586MOL0    Cl80775   7.701   8.897   0.560  0.1478  0.2819 -0.3008
  586MOL0     C80776   7.343   8.373  -0.270 -0.7719  0.2816  0.8600
  586MOL0     C80777   7.284   8.430  -0.379 -0.3555  0.3509  0.2604
  586MOL0     O80778   7.098   8.329  -0.594  0.7229  0.1351  0.1803
  586MOL0     C80779   7.049   8.655  -0.746  0.3072  0.9696  0.4285
  586MOL0     C80780   7.057   8.719  -0.867  0.0699 -0.1120  0.7178
  586MOL0     N80781   6.484   8.973  -1.216  0.7318  0.6283  0.4840
  586MOL0     N80782   6.425   9.058  -1.137  0.2909  0.2500 -0.5521
  586MOL0     C80783   6.299  10.048  -0.142  0.3439  0.6085  0.7982
  586MOL0     C80784   6.321  10.122  -0.024 -0.5971  0.6872 -0.1091
  586MOL0     C80785   6.492  10.232   0.389 -0.4333 -0.5602  0.2393
  586MOL0     C80786   6.374  10.237   0.478 -0.8887  0.3205 -0.3508
  586MOL0     C80787   6.387  10.299   0.602  0.5808 -0.2403 -0.7215
  586MOL0     C80788   6.495  10.370   0.640  0.0401 -0.3154 -1.1360
  586MOL0     O80789   6.532  10.416   0.764 -0.0605  0.3318 -0.1896
  586MOL0     C80790   6.433  10.392   0.867  0.2514  0.0850 -0.1936
  586MOL0     C80791   6.405  10.260   0.922 -0.4970  0.7827  0.2854
  586MOL0     C80792   6.293  10.260   1.021 -0.3156 -0.2133 -0.1766
  586MOL0     C80793   6.290  10.123   1.094  0.3788  1.3046  0.1633
  586MOL0     C80794   6.177  10.096   1.184 -0.0927  0.0181 -0.1728
  586MOL0     C80795   6.085  10.066   1.248  1.1426 -0.4973 -0.7560
  586MOL0     C80796   6.589  10.389   0.546  0.1694 -0.2085  0.9077
  586MOL0     C80797   6.604  10.321   0.424  0.2313  1.2373  0.3746
  586MOL0     C80798   6.710  10.352   0.330  0.3631  0.6075 -0.2119
  586MOL0     H80799   6.380   9.862   0.174 -0.6184 -2.5297 -2.1860
  586MOL0     H80800   6.342   9.737  -0.043 -1.4912  0.1091 -2.9779
  586MOL0     H80801   6.211   9.654  -0.265 -0.3289  1.1422  1.5666
  586MOL0     H80802   6.394   9.670  -0.259  0.5918 -1.6275 -1.4856
  586MOL0     H80803   6.215   9.713  -0.496 -0.3473  2.2296  0.5362
  586MOL0     H80804   6.372   9.787  -0.477 -1.6999 -0.6664 -1.3010
  586MOL0     H80805   6.474   9.561  -0.484 -0.1314 -0.1293  0.2203
  586MOL0     H80806   6.323   9.483  -0.460  4.2235 -2.1170  0.7107
  586MOL0     H80807   6.261   9.591  -0.696  2.7350  3.0128 -3.2693
  586MOL0     H80808   6.432   9.620  -0.696  2.3600 -0.5543  3.2843
  586MOL0     H80809   6.280   9.347  -0.658  0.6529 -1.3576  0.7686
  586MOL0     H80810   6.451   9.358  -0.675 -0.6196 -3.3073 -0.2753
  586MOL0     H80811   6.253   9.438  -0.885  1.5244 -0.7302 -1.5173
  586MOL0     H80812   6.426   9.472  -0.896  1.5524 -0.7972  0.3833
  586MOL0     H80813   6.303   9.274  -1.013 -1.0781  0.4599  0.5030
  586MOL0     H80814   6.292   9.205  -0.851  4.1665 -0.8359  3.7222
  586MOL0     H80815   6.569   9.281  -0.958 -0.2440 -0.8382 -2.7501
  586MOL0     H80816   6.517   9.151  -0.842 -0.0511  3.4107  2.2802
  586MOL0     H80817   6.727   9.083  -1.034 -2.1467 -1.0359  5.4499
  586MOL0     H80818   6.816   8.999  -1.303 -0.8335 -0.0296  0.0079
  586MOL0     H80819   6.699   8.887  -1.371 -0.5278  2.2865 -1.3593
  586MOL0     H80820   6.858   8.852  -1.099  2.3525 -0.6461 -0.8402
  586MOL0     H80821   6.749   8.736  -1.187 -0.1184 -0.5111 -4.6297
  586MOL0     H80822   6.901   8.752  -1.380 -0.4743  2.7624  0.7774
  586MOL0     H80823   7.001   8.867  -1.289  1.7993 -0.9832 -2.9507
  586MOL0     H80824   6.933   8.583  -1.200 -0.0510 -0.3605 -0.2403
  586MOL0     H80825   7.082   8.618  -1.296  1.6141  1.0222  1.0090
  586MOL0     H80826   7.055   8.436  -1.064  0.8466 -1.1107  1.4795
  586MOL0     H80827   7.101   8.229  -0.864 -0.1322 -0.4979 -0.7479
  586MOL0     H80828   6.958   8.259  -0.953 -1.9688 -1.0910  0.9321
  586MOL0     H80829   6.941   8.263  -0.783 -0.6897 -2.1621 -2.0179
  586MOL0     H80830   6.998   8.518  -0.259  0.5663  0.5670 -1.2364
  586MOL0     H80831   7.090   8.392  -0.044  1.0348 -1.8389  0.4763
  586MOL0     H80832   7.469   8.170  -0.084  0.2561 -1.0776  0.1801
  586MOL0     H80833   7.511   8.342  -0.075  2.1595 -1.4941  1.7022
  586MOL0     H80834   7.448   8.173   0.181  0.6164  1.9065  4.3981
  586MOL0     H80835   7.609   8.214   0.115  0.4087  0.1129  2.7020
  586MOL0     H80836   7.371   8.385   0.224  0.0797  1.0416 -1.1594
  586MOL0     H80837   7.519   8.462   0.154 -2.4062  0.2971 -2.4566
  586MOL0     H80838   7.656   8.402   0.342  1.1520 -0.0339  1.2398
  586MOL0     H80839   7.547   8.273   0.392 -2.4680 -0.7294  1.1097
  586MOL0     H80840   7.389   8.444   0.490  1.2685 -0.3998  1.8706
  586MOL0     H80841   7.563   8.468   0.524  3.4925 -1.4779 -2.9285
  586MOL0     H80842   7.444   8.676   0.483 -1.2287 -2.4839  0.8961
  586MOL0     H80843   7.439   8.632   0.303 -2.6930 -0.1035  1.1719
  586MOL0     H80844   7.669   8.660   0.279  2.2528 -1.9457  0.6947
  586MOL0     H80845   7.701   8.627   0.454 -0.4878  1.1543  0.1017
  586MOL0     H80846   7.537   8.871   0.378 -0.1254  1.1980 -0.4598
  586MOL0     H80847   7.701   8.888   0.325  1.4180 -0.7065  0.1250
  586MOL0     H80848   7.442   8.338  -0.294 -0.8475  2.1422 -2.8614
  586MOL0     H80849   7.341   8.423  -0.472  1.1532  2.1140  1.0036
  586MOL0     H80850   7.018   8.711  -0.658 -2.3267 -0.7696  0.7574
  586MOL0     H80851   7.067   8.826  -0.875  2.3751 -0.3311 -0.0160
  586MOL0     H80852   6.258  10.104  -0.225 -1.6837  2.2790  2.7841
  586MOL0     H80853   6.342  10.228  -0.031 -0.6446  0.7724  0.8498
  586MOL0     H80854   6.285  10.178   0.460 -0.3106 -0.8834  0.5933
  586MOL0     H80855   6.299  10.280   0.661 -0.0903 -0.6962 -1.8384
  586MOL0     H80856   6.466  10.453   0.951 -1.5554  0.4825  0.2728
  586MOL0     H80857   6.335  10.427   0.833 -0.4492 -2.8861 -1.5615
  586MOL0     H80858   6.485  10.202   0.970 -1.3860 -0.0662  0.7761
  586MOL0     H80859   6.379  10.192   0.840  2.2890 -0.4238  0.2878
  586MOL0     H80860   6.309  10.342   1.091  3.1332 -0.8192 -0.1083
  586MOL0     H80861   6.197  10.277   0.971 -0.2826 -2.9803 -1.3753
  586MOL0     H80862   6.382  10.105   1.152 -1.0661 -1.8918  1.7656
  586MOL0     H80863   6.296  10.036   1.028  2.1636  0.2431  1.5960
  586MOL0     H80864   6.009  10.015   1.304  1.7157  0.2575  0.7677
  586MOL0     H80865   6.674  10.451   0.574  1.5441 -2.0846  1.0286
  586MOL0     H80866   6.793  10.398   0.383  2.2421 -0.8066 -1.7701
  586MOL0     H80867   6.741  10.251   0.299 -1.2034 -0.0268  0.1685
  586MOL0     H80868   6.677  10.415   0.247  1.5284 -1.0371 -2.0019
  587MOL0     O80869   5.564   2.922   7.833 -0.4402  0.1657 -0.8561
  587MOL0     C80870   5.604   2.839   7.752  0.7085 -1.0570  0.5505
  587MOL0     O80871   5.667   2.723   7.777  0.0147 -0.9149  0.1141
  587MOL0     C80872   5.734   2.714   7.900 -0.1233  0.7016 -0.0768
  587MOL0     C80873   5.821   2.811   7.942 -1.0435 -0.0404  0.0618
  587MOL0     C80874   5.886   2.802   8.072  0.1442  0.8651  0.4688
  587MOL0     C80875   5.874   2.686   8.145 -0.0591 -1.0775 -0.7347
  587MOL0     O80876   5.941   2.659   8.261 -0.3802  0.6141 -0.9791
  587MOL0     C80877   6.051   2.736   8.301 -0.2895 -0.5327  0.3612
  587MOL0     C80878   6.115   2.670   8.419  0.4543 -0.3141 -0.6348
  587MOL0     C80879   6.227   2.756   8.493 -0.5396 -0.5256 -0.8136
  587MOL0     C80880   6.300   2.685   8.608 -0.3459 -0.7911 -0.1129
  587MOL0     C80881   6.440   2.744   8.629  0.7062  0.5320  0.3005
  587MOL0     C80882   6.485   2.667   8.757 -0.0512 -0.1059  0.6918
  587MOL0     C80883   6.649   2.700   8.756 -0.5501 -0.2177 -0.2131
  587MOL0     C80884   6.725   2.651   8.890  0.1700 -0.3002  0.6133
  587MOL0     N80885   6.867   2.680   8.864  0.5809 -0.0992 -0.1904
  587MOL0     C80886   6.944   2.603   8.783 -0.8968  0.6426 -0.5151
  587MOL0     C80887   7.065   2.662   8.778 -0.1820 -0.1414 -0.2705
  587MOL0     C80888   7.195   2.611   8.716  1.0650 -0.5304  0.3618
  587MOL0     C80889   7.189   2.548   8.590 -0.9690  0.3951 -0.3824
  587MOL0     C80890   7.315   2.451   8.579  0.8830  0.9067 -0.0791
  587MOL0     C80891   7.308   2.364   8.449  0.0671 -0.0206 -0.6650
  587MOL0     O80892   7.437   2.310   8.412  0.5954 -0.7630 -0.2635
  587MOL0     C80893   7.479   2.209   8.496 -0.0987 -0.1740 -0.7388
  587MOL0     C80894   7.404   2.120   8.584  0.8484  0.1349  0.8328
  587MOL0     C80895   7.470   2.016   8.659 -0.5503 -0.3291 -0.8620
  587MOL0     C80896   7.378   1.930   8.745  0.3502  0.6391 -0.5147
  587MOL0     C80897   7.614   1.998   8.631 -0.4693  1.5164 -0.3367
  587MOL0     C80898   7.688   1.887   8.691  0.4509 -0.4804  0.7248
  587MOL0     O80899   7.652   1.834   8.808  1.1163  0.8878 -0.0881
  587MOL0     C80900   7.710   1.710   8.837  0.2588 -1.1095  0.2224
  587MOL0     C80901   7.838   1.723   8.893  0.6378  0.3008 -0.0898
  587MOL0     C80902   7.909   1.597   8.922 -0.3581 -0.5231 -0.4968
  587MOL0     C80903   7.858   1.474   8.875 -0.9595  0.5708 -0.3438
  587MOL0     O80904   7.943   1.366   8.907 -0.0517 -0.7810 -0.1650
  587MOL0     C80905   7.892   1.239   8.930  0.2714 -0.9286 -0.3046
  587MOL0     C80906   8.004   1.161   8.997 -0.6725  1.4971  0.0100
  587MOL0     C80907   8.014   1.181   9.148 -0.0069  0.0425 -0.7430
  587MOL0     C80908   8.049   1.313   9.191 -0.3056 -0.4850  0.9255
  587MOL0     C80909   8.066   1.331   9.339  0.2540  0.0207  0.8429
  587MOL0     C80910   8.145   1.459   9.362  0.1391  0.2577  0.3359
  587MOL0     C80911   8.162   1.499   9.511 -0.4419 -0.8947  0.4230
  587MOL0     C80912   8.221   1.646   9.510  0.1659 -0.8144  0.3331
  587MOL0    Cl80913   8.402   1.643   9.527  0.2056  0.0658  0.2265
  587MOL0     C80914   7.729   1.471   8.822  0.3320  0.0238  0.8179
  587MOL0     C80915   7.654   1.589   8.801 -0.6583 -0.3596 -0.9201
  587MOL0     O80916   7.783   1.847   8.632 -0.4546  0.1398 -0.1672
  587MOL0     C80917   7.678   2.087   8.546 -0.7219  1.2945  0.2413
  587MOL0     C80918   7.615   2.202   8.497  0.2266  0.2941 -0.3385
  587MOL0     N80919   7.058   2.783   8.852  0.5417 -0.6003  0.5745
  587MOL0     N80920   6.934   2.797   8.893 -0.4730  0.8544 -0.0741
  587MOL0     C80921   5.789   2.590   8.107  0.0268 -0.2576  0.1974
  587MOL0     C80922   5.710   2.601   7.989 -0.1778  0.2746 -0.2067
  587MOL0     C80923   5.582   2.875   7.610 -0.6260  0.0155  0.0276
  587MOL0     C80924   5.489   2.970   7.567  0.9711  0.1703 -0.7081
  587MOL0     C80925   5.448   2.995   7.437  1.0137 -0.4873  0.9536
  587MOL0     C80926   5.490   2.911   7.336  0.1035 -0.8863 -0.1318
  587MOL0     O80927   5.451   2.908   7.200  0.2571 -0.0122 -0.5790
  587MOL0     C80928   5.318   2.966   7.162  0.5363 -0.5143 -0.7069
  587MOL0     C80929   5.306   2.941   7.020  0.3452  0.1133  0.4217
  587MOL0     C80930   5.180   2.989   6.937 -0.4421  0.0588  0.2931
  587MOL0     C80931   5.221   2.995   6.790  1.2654  0.3548 -0.6687
  587MOL0     C80932   5.321   3.091   6.757 -0.5548 -0.5480 -0.6379
  587MOL0     C80933   5.413   3.156   6.720  0.3908  0.4366  0.0347
  587MOL0     C80934   5.593   2.819   7.372  0.3894  0.4008 -0.2378
  587MOL0     C80935   5.648   2.805   7.503 -0.8544 -0.9404  0.3809
  587MOL0     C80936   5.781   2.729   7.509  0.6938 -0.0234  0.0346
  587MOL0     H80937   5.835   2.907   7.891 -3.9237 -0.8700 -2.5852
  587MOL0     H80938   5.949   2.882   8.109  0.7092  0.4154  0.5087
  587MOL0     H80939   6.022   2.833   8.341  4.0174  0.7125  0.9765
  587MOL0     H80940   6.129   2.749   8.226 -1.2645  1.9725 -0.3115
  587MOL0     H80941   6.035   2.634   8.484  0.9628  1.4851  1.0853
  587MOL0     H80942   6.180   2.590   8.384 -1.0787 -0.8739 -2.3654
  587MOL0     H80943   6.307   2.768   8.419 -0.7964 -2.2660 -1.4093
  587MOL0     H80944   6.188   2.856   8.516  1.4363 -0.1869  1.4391
  587MOL0     H80945   6.242   2.717   8.695 -2.2958  2.9352 -2.4915
  587MOL0     H80946   6.304   2.576   8.609 -1.2878 -0.8623 -1.6284
  587MOL0     H80947   6.429   2.851   8.650 -2.1463  0.3970 -0.0530
  587MOL0     H80948   6.494   2.721   8.537  1.8233  0.1614  1.0363
  587MOL0     H80949   6.427   2.695   8.845 -1.4550  0.5810 -0.4230
  587MOL0     H80950   6.490   2.561   8.733 -0.2099 -0.1049  0.6542
  587MOL0     H80951   6.681   2.803   8.739  0.8747 -0.7174 -0.7557
  587MOL0     H80952   6.694   2.654   8.668  0.2205 -0.2151  0.1725
  587MOL0     H80953   6.688   2.694   8.983  2.1540  1.4104  0.6846
  587MOL0     H80954   6.714   2.542   8.901  0.2097 -0.6474 -2.0699
  587MOL0     H80955   6.924   2.508   8.733  0.2052  0.2520 -0.2410
  587MOL0     H80956   7.232   2.543   8.793  0.4708  1.3932  2.4411
  587MOL0     H80957   7.259   2.699   8.705 -2.1936  1.8192 -1.4452
  587MOL0     H80958   7.106   2.478   8.576  1.0514 -2.2145 -0.1577
  587MOL0     H80959   7.182   2.621   8.509 -0.3572 -0.1377 -0.9282
  587MOL0     H80960   7.410   2.505   8.579  1.4719 -0.1160  0.5356
  587MOL0     H80961   7.327   2.391   8.669 -0.6293  1.5343  0.5780
  587MOL0     H80962   7.232   2.285   8.457 -0.0584 -0.0372 -1.8939
  587MOL0     H80963   7.285   2.432   8.367 -0.4377 -0.0672 -0.5633
  587MOL0     H80964   7.298   2.138   8.593  1.2927  2.9167  1.3224
  587MOL0     H80965   7.369   1.831   8.701  1.6305 -0.4727  1.5290
  587MOL0     H80966   7.279   1.975   8.745 -1.2356 -2.5295  0.9263
  587MOL0     H80967   7.402   1.924   8.852  0.1448  2.1265 -0.3590
  587MOL0     H80968   7.884   1.818   8.919  1.7357 -0.6201  1.5333
  587MOL0     H80969   8.016   1.597   8.939 -0.2350 -0.0556 -1.2094
  587MOL0     H80970   7.793   1.243   8.976 -0.7616 -1.2899 -2.4020
  587MOL0     H80971   7.860   1.182   8.842 -4.4178 -1.9303  1.7355
  587MOL0     H80972   8.004   1.056   8.968  1.5418  2.3318 -3.6638
  587MOL0     H80973   8.095   1.193   8.945  1.4096 -0.3391  2.2520
  587MOL0     H80974   8.069   1.099   9.193 -1.8497 -0.3598  0.9377
  587MOL0     H80975   7.914   1.153   9.184  0.4838 -1.2846 -0.3556
  587MOL0     H80976   7.977   1.387   9.154  0.6169 -0.7442 -1.5840
  587MOL0     H80977   8.145   1.326   9.140 -0.6662 -0.1371  0.3157
  587MOL0     H80978   7.970   1.367   9.376  0.5936  1.8815  0.0726
  587MOL0     H80979   8.106   1.242   9.388  0.8246 -1.6860 -2.4381
  587MOL0     H80980   8.091   1.537   9.307 -1.2971 -0.8748  0.0763
  587MOL0     H80981   8.243   1.454   9.315 -0.1588  2.3368 -0.6114
  587MOL0     H80982   8.224   1.423   9.560 -2.3306 -3.5900 -1.1064
  587MOL0     H80983   8.061   1.509   9.553 -2.1322 -0.2898 -3.3320
  587MOL0     H80984   8.197   1.698   9.603 -1.7423  2.8309 -2.0022
  587MOL0     H80985   8.186   1.697   9.420  1.1113 -2.4113 -0.9990
  587MOL0     H80986   7.689   1.376   8.788  1.3232 -0.0239 -0.2951
  587MOL0     H80987   7.548   1.588   8.779 -1.8274 -0.5661  3.6834
  587MOL0     H80988   7.783   2.067   8.525 -1.1596  1.4241 -2.3243
  587MOL0     H80989   7.679   2.262   8.434  1.7498  0.1323  0.9798
  587MOL0     H80990   5.787   2.500   8.167  0.7412 -0.1574  0.3735
  587MOL0     H80991   5.634   2.536   7.948  1.8685  1.1080 -6.3031
  587MOL0     H80992   5.449   3.031   7.647  4.2846  2.4316 -0.5760
  587MOL0     H80993   5.370   3.066   7.414 -1.8154 -2.6778  3.0864
  587MOL0     H80994   5.238   2.921   7.221  2.7386 -1.4930  1.7114
  587MOL0     H80995   5.319   3.073   7.188  1.3779 -0.2556 -1.7382
  587MOL0     H80996   5.325   2.834   7.008  0.5749  0.4439 -3.0922
  587MOL0     H80997   5.389   2.995   6.972  2.9331 -2.8361  1.2294
  587MOL0     H80998   5.093   2.922   6.945 -1.2476  1.2350  2.0696
  587MOL0     H80999   5.149   3.087   6.976  0.5595 -0.6678  3.2005
  587MOL0     H81000   5.134   3.020   6.729  0.6929  1.2573  0.4746
  587MOL0     H81001   5.254   2.896   6.756 -1.5460 -0.3479 -1.6085
  587MOL0     H81002   5.483   3.231   6.690  0.8688 -0.4338 -1.1308
  587MOL0     H81003   5.620   2.747   7.296  0.4496  0.2726 -0.0960
  587MOL0     H81004   5.851   2.771   7.583  1.7191 -3.1005  0.9483
  587MOL0     H81005   5.769   2.629   7.551 -2.4631  0.0696 -0.3961
  587MOL0     H81006   5.833   2.729   7.413  1.1348  0.9876  0.2578
  588MOL0     O81007   9.740   7.321  11.242  0.0990  0.1427  0.2253
  588MOL0     C81008   9.744   7.442  11.226  0.6829  0.6301 -0.0853
  588MOL0     O81009   9.748   7.532  11.326  0.0981 -0.1451 -0.5318
  588MOL0     C81010   9.758   7.501  11.458  0.0608  0.5293 -0.2787
  588MOL0     C81011   9.867   7.422  11.500  0.6333  0.7511  0.4021
  588MOL0     C81012   9.872   7.350  11.616  0.4535 -0.9512  0.1526
  588MOL0     C81013   9.776   7.373  11.712 -0.9979 -0.1549 -0.1306
  588MOL0     O81014   9.781   7.301  11.828  1.5462  0.7292  0.1088
  588MOL0     C81015   9.882   7.334  11.923 -0.0809 -0.0560  1.0629
  588MOL0     C81016   9.826   7.284  12.061  0.6954 -1.1415  1.1986
  588MOL0     C81017   9.924   7.343  12.160  0.1620  0.9571  0.2651
  588MOL0     C81018   9.887   7.296  12.306 -0.1477 -0.0570  0.1640
  588MOL0     C81019   9.954   7.384  12.405 -0.4561  1.3012  0.9189
  588MOL0     C81020   9.914   7.389  12.547  0.3991  0.5049 -1.3644
  588MOL0     C81021  10.038   7.379  12.637  0.2501  0.1745 -0.7333
  588MOL0     C81022  10.022   7.464  12.770  1.0323  0.3704 -0.7423
  588MOL0     N81023   9.932   7.400  12.867  0.1831 -0.1037  0.1875
  588MOL0     C81024   9.940   7.276  12.924 -0.0528 -0.6183  0.0448
  588MOL0     C81025   9.830   7.270  13.003 -0.1468 -0.1023  0.0618
  588MOL0     C81026   9.790   7.154  13.093  0.3405 -0.8639 -0.5251
  588MOL0     C81027   9.809   7.204  13.236  0.7065 -0.0446  0.7961
  588MOL0     C81028   9.687   7.277  13.287  0.0153 -0.2286 -0.3645
  588MOL0     C81029   9.712   7.348  13.418 -0.5073 -0.4291 -0.7913
  588MOL0     O81030   9.706   7.253  13.520  0.1621  0.2190 -0.6126
  588MOL0     C81031   9.825   7.200  13.572 -0.4306  0.0687 -0.3955
  588MOL0     C81032   9.957   7.225  13.525  0.0021 -0.1597 -0.4879
  588MOL0     C81033  10.063   7.166  13.590 -0.4551 -0.2992 -0.3744
  588MOL0     C81034  10.196   7.206  13.538  1.0596 -0.7476  0.2510
  588MOL0     C81035  10.058   7.088  13.711  0.1243 -0.3392 -0.5973
  588MOL0     C81036  10.174   7.052  13.785 -0.6546 -0.2557 -0.4823
  588MOL0     O81037  10.265   7.152  13.818  0.2049 -0.7244 -0.3037
  588MOL0     C81038  10.382   7.126  13.887 -0.8845  0.9994  0.5119
  588MOL0     C81039  10.436   7.207  13.988 -0.7903  0.1592 -0.0665
  588MOL0     C81040  10.545   7.170  14.065  0.4100  1.0850  1.8407
  588MOL0     C81041  10.607   7.047  14.046 -0.2774  1.1240  0.2080
  588MOL0     O81042  10.723   7.002  14.106  0.6115 -0.3070 -0.1838
  588MOL0     C81043  10.828   7.097  14.088  0.1012  0.4057 -0.4018
  588MOL0     C81044  10.948   7.052  14.174  0.8706 -0.6495 -0.7027
  588MOL0     C81045  10.976   6.898  14.192 -0.2428 -0.0004  0.1007
  588MOL0     C81046  11.009   6.816  14.063  0.5055  0.1905 -0.5127
  588MOL0     C81047  11.032   6.667  14.096  0.0985  0.6299 -0.5787
  588MOL0     C81048  11.152   6.646  14.202 -0.0425  0.0111  0.6940
  588MOL0     C81049  11.291   6.695  14.167 -0.3636 -0.8999  0.8645
  588MOL0     C81050  11.402   6.661  14.270  0.4432 -0.8145  0.1882
  588MOL0    Cl81051  11.528   6.794  14.270 -0.0963 -0.2117  0.4661
  588MOL0     C81052  10.564   6.966  13.943  0.7745  0.2816  0.3335
  588MOL0     C81053  10.459   7.004  13.860  0.0866 -0.1477 -0.2230
  588MOL0     O81054  10.166   6.940  13.832 -0.3373  0.0863  0.7393
  588MOL0     C81055   9.930   7.058  13.758  0.2355  0.0467 -1.2432
  588MOL0     C81056   9.819   7.111  13.688  0.2593 -0.1275  0.3342
  588MOL0     N81057   9.762   7.391  12.991  0.1156 -0.2719  0.5646
  588MOL0     N81058   9.823   7.472  12.913  0.3585 -0.1703 -0.3385
  588MOL0     C81059   9.683   7.475  11.689 -0.3657  0.2371 -0.4805
  588MOL0     C81060   9.662   7.519  11.557  0.3488 -0.8317 -0.2457
  588MOL0     C81061   9.751   7.506  11.099 -0.8399 -0.1411  0.3402
  588MOL0     C81062   9.710   7.638  11.083 -0.2798  0.9954 -1.1251
  588MOL0     C81063   9.710   7.692  10.959  0.0204 -0.5134  0.8381
  588MOL0     C81064   9.749   7.624  10.844 -0.1279 -0.0482 -0.7694
  588MOL0     O81065   9.739   7.680  10.722  0.2368  0.0321 -0.2512
  588MOL0     C81066   9.735   7.599  10.597 -0.3313 -0.0408 -0.8096
  588MOL0     C81067   9.846   7.652  10.507 -0.3114  0.7257 -0.5830
  588MOL0     C81068   9.986   7.591  10.545  0.5760  0.3146 -0.4161
  588MOL0     C81069  10.079   7.577  10.428  0.8601  0.2536  0.3594
  588MOL0     C81070  10.221   7.581  10.476 -0.5434 -0.8076 -0.0197
  588MOL0     C81071  10.332   7.560  10.527  0.5379 -0.1026  0.2292
  588MOL0     C81072   9.815   7.498  10.865 -0.2064 -0.1818  0.2069
  588MOL0     C81073   9.809   7.443  10.988 -0.0958 -0.3743 -0.0270
  588MOL0     C81074   9.889   7.313  11.009  0.0688  0.8380 -0.7403
  588MOL0     H81075   9.947   7.396  11.432  0.2191 -2.3187  0.9454
  588MOL0     H81076   9.956   7.281  11.624 -1.1113 -2.8796  0.6992
  588MOL0     H81077   9.907   7.440  11.918 -0.0675 -0.1200 -0.8935
  588MOL0     H81078   9.977   7.288  11.893 -2.0266 -1.5389 -3.9329
  588MOL0     H81079   9.726   7.325  12.082  0.7146  0.5800 -1.5768
  588MOL0     H81080   9.834   7.175  12.057  3.0511 -1.1020 -4.7293
  588MOL0     H81081  10.024   7.312  12.130 -0.0508  0.1818  0.3270
  588MOL0     H81082   9.919   7.452  12.154  2.5685  1.0571 -1.0661
  588MOL0     H81083   9.778   7.311  12.306 -0.9585 -4.5222  0.6846
  588MOL0     H81084   9.896   7.189  12.324  4.8650 -0.2364 -1.8432
  588MOL0     H81085   9.947   7.489  12.376  1.7115  0.9049 -1.3725
  588MOL0     H81086  10.059   7.357  12.395 -0.9133 -0.0145 -0.8923
  588MOL0     H81087   9.873   7.489  12.557  3.1602  1.5604  0.5608
  588MOL0     H81088   9.844   7.308  12.571  1.2423  0.7218  2.3604
  588MOL0     H81089  10.124   7.425  12.587  0.5766  0.4952  0.1003
  588MOL0     H81090  10.059   7.273  12.657  1.1159  0.2552 -1.1314
  588MOL0     H81091  10.119   7.470  12.819  0.8369 -2.1521  0.1186
  588MOL0     H81092   9.979   7.563  12.750 -1.5261 -0.8391 -1.6948
  588MOL0     H81093  10.020   7.205  12.908 -0.9883 -2.2059  2.0589
  588MOL0     H81094   9.865   7.076  13.078 -0.7130 -2.4754  2.0147
  588MOL0     H81095   9.688   7.121  13.072  1.2361 -4.1046 -0.2343
  588MOL0     H81096   9.817   7.116  13.301 -0.3742 -1.0088 -0.3395
  588MOL0     H81097   9.906   7.256  13.238  1.4945 -1.2244 -2.0120
  588MOL0     H81098   9.642   7.360  13.232  2.3132  1.8477  0.6663
  588MOL0     H81099   9.605   7.206  13.299  1.1530 -1.5408  0.0200
  588MOL0     H81100   9.804   7.406  13.407 -0.9998  0.1036 -2.4637
  588MOL0     H81101   9.637   7.423  13.446  0.2933 -0.6417  2.3361
  588MOL0     H81102   9.974   7.276  13.431 -2.2467  1.2088 -0.2213
  588MOL0     H81103  10.193   7.243  13.435  1.0602  3.2833  1.5464
  588MOL0     H81104  10.256   7.114  13.539 -1.2740 -2.3674  0.3882
  588MOL0     H81105  10.243   7.282  13.601 -1.0173  3.9563 -3.2718
  588MOL0     H81106  10.389   7.305  13.990  0.7882  1.3065 -4.9079
  588MOL0     H81107  10.578   7.243  14.139  3.9771 -0.4183  1.9356
  588MOL0     H81108  10.852   7.090  13.981  1.4499 -1.0829 -0.0204
  588MOL0     H81109  10.803   7.201  14.112 -0.3270 -0.2837  2.4689
  588MOL0     H81110  11.037   7.106  14.140  1.3975 -1.7109 -1.0605
  588MOL0     H81111  10.938   7.084  14.278 -0.3178 -0.6181 -0.8104
  588MOL0     H81112  10.891   6.852  14.242  1.8007 -3.3750  0.8407
  588MOL0     H81113  11.050   6.894  14.273 -0.5327 -0.2341  0.3531
  588MOL0     H81114  11.091   6.853  14.000  0.2128  1.2900 -0.2646
  588MOL0     H81115  10.918   6.801  14.005  0.2178 -1.6968  0.3393
  588MOL0     H81116  10.946   6.621  14.145 -0.0104 -0.7969 -2.0385
  588MOL0     H81117  11.044   6.612  14.002 -0.7933 -0.5263 -0.0437
  588MOL0     H81118  11.157   6.540  14.228 -0.6385  0.3445  2.3254
  588MOL0     H81119  11.123   6.686  14.299  1.5376 -0.4534  1.3881
  588MOL0     H81120  11.288   6.803  14.148 -0.0095 -0.7072  1.8494
  588MOL0     H81121  11.318   6.649  14.072  0.9272  1.3516  0.0446
  588MOL0     H81122  11.448   6.566  14.239 -0.1218 -0.3233 -2.3851
  588MOL0     H81123  11.358   6.654  14.370  2.4185 -0.1137  1.1560
  588MOL0     H81124  10.619   6.875  13.923  1.7830  0.2371  2.9572
  588MOL0     H81125  10.414   6.936  13.789  0.2825  1.2053 -1.6979
  588MOL0     H81126   9.904   6.991  13.839  1.8847 -2.2424 -2.5074
  588MOL0     H81127   9.720   7.086  13.724  0.4768 -0.0968  0.9748
  588MOL0     H81128   9.617   7.505  11.770  0.1469  2.9359 -0.9740
  588MOL0     H81129   9.581   7.586  11.531  2.0627  1.5970  0.3829
  588MOL0     H81130   9.667   7.694  11.165  0.4663 -3.4671  2.7292
  588MOL0     H81131   9.653   7.780  10.929 -0.8444 -0.8340  1.4968
  588MOL0     H81132   9.741   7.491  10.613 -0.6508  0.3860  2.8911
  588MOL0     H81133   9.644   7.614  10.538  0.7371  0.0256 -2.5030
  588MOL0     H81134   9.864   7.760  10.507 -0.9245  0.8549  0.6932
  588MOL0     H81135   9.807   7.634  10.407 -0.9984 -3.2995  0.2566
  588MOL0     H81136  10.025   7.668  10.612  0.1403 -1.3258  1.8107
  588MOL0     H81137   9.968   7.499  10.600 -1.4747  1.5633  1.1436
  588MOL0     H81138  10.063   7.662  10.362 -1.5022 -2.5143 -2.9501
  588MOL0     H81139  10.055   7.489  10.368  0.8322  2.1547 -2.6105
  588MOL0     H81140  10.419   7.549  10.589  0.5329  1.5959  0.5888
  588MOL0     H81141   9.873   7.456  10.783 -2.6736  0.6070 -2.0836
  588MOL0     H81142   9.939   7.273  10.920  0.3695 -2.5978  0.8474
  588MOL0     H81143   9.964   7.322  11.088  1.0917  0.4311 -1.6402
  588MOL0     H81144   9.823   7.230  11.035  0.3787 -0.6046 -4.0805
  589MOL0     O81145   9.034   6.115   3.630  0.5381  0.1267 -0.4171
  589MOL0     C81146   9.009   6.094   3.751  0.3991 -0.0203  0.3253
  589MOL0     O81147   8.957   5.973   3.796 -0.2490  0.3585 -0.0603
  589MOL0     C81148   8.923   5.880   3.703 -0.4332 -0.6825  0.4189
  589MOL0     C81149   9.022   5.804   3.645  0.2320 -0.4040  0.1902
  589MOL0     C81150   8.985   5.709   3.547 -0.7756  0.8351  0.2051
  589MOL0     C81151   8.851   5.695   3.505  0.1011  0.0304 -0.2621
  589MOL0     O81152   8.810   5.590   3.426  0.0807  0.5172  0.9063
  589MOL0     C81153   8.898   5.488   3.379  0.1727  0.8187  0.5663
  589MOL0     C81154   8.835   5.351   3.351 -0.5283  0.1582  2.0690
  589MOL0     C81155   8.803   5.291   3.486 -0.9092 -0.8722 -0.2481
  589MOL0     C81156   8.782   5.141   3.470 -1.3186 -1.1033  0.3748
  589MOL0     C81157   8.743   5.076   3.602 -0.2946 -0.1003  0.1365
  589MOL0     C81158   8.697   4.927   3.580  0.2594  1.3716 -0.5998
  589MOL0     C81159   8.640   4.852   3.706 -0.8466 -0.5131 -0.4565
  589MOL0     C81160   8.613   4.709   3.671 -1.2425  0.0665 -0.0111
  589MOL0     N81161   8.537   4.645   3.782 -0.0696  0.2559 -0.6179
  589MOL0     C81162   8.397   4.666   3.792 -0.8473  0.0283  0.7492
  589MOL0     C81163   8.370   4.626   3.912 -0.4253  0.5331  0.0728
  589MOL0     C81164   8.228   4.632   3.972  0.5213 -0.6661  0.6451
  589MOL0     C81165   8.180   4.492   4.020 -0.9502 -0.6906  0.0352
  589MOL0     C81166   8.102   4.408   3.921 -0.1586  0.4193 -0.0350
  589MOL0     C81167   8.053   4.273   3.975  0.1062  0.0958  0.4220
  589MOL0     O81168   7.968   4.296   4.085  0.0590 -0.1292  0.0380
  589MOL0     C81169   7.845   4.351   4.070 -0.3805 -0.1854  0.4838
  589MOL0     C81170   7.790   4.398   3.954 -0.1811 -0.1373 -0.8613
  589MOL0     C81171   7.671   4.476   3.965 -0.2820  0.4496 -0.2683
  589MOL0     C81172   7.603   4.505   3.830 -0.2459 -1.3425  0.2911
  589MOL0     C81173   7.617   4.509   4.090  0.2039  0.8228 -0.8054
  589MOL0     C81174   7.486   4.584   4.106  0.0847 -0.4658 -0.6524
  589MOL0     O81175   7.421   4.561   4.229 -0.1577 -0.0169  0.2957
  589MOL0     C81176   7.335   4.635   4.295 -0.2896 -0.8970 -0.3460
  589MOL0     C81177   7.322   4.635   4.437  1.0317 -0.3193 -0.1730
  589MOL0     C81178   7.218   4.717   4.492 -0.5428  0.1857 -0.0384
  589MOL0     C81179   7.120   4.776   4.416  0.6184 -0.1761  0.5798
  589MOL0     O81180   7.021   4.837   4.485 -0.2690  0.1702 -0.2190
  589MOL0     C81181   6.889   4.831   4.436  0.1847 -0.1437 -0.3986
  589MOL0     C81182   6.829   4.706   4.493  1.0603 -0.0116  0.0236
  589MOL0     C81183   6.675   4.709   4.481 -0.7101 -0.3423  0.0798
  589MOL0     C81184   6.622   4.575   4.499  0.0988  1.2338 -0.3043
  589MOL0     C81185   6.464   4.578   4.479 -0.1040  0.6303  0.2136
  589MOL0     C81186   6.378   4.612   4.605 -0.4128  0.3766  0.0306
  589MOL0     C81187   6.362   4.476   4.684  0.2147 -0.5354 -0.1013
  589MOL0     C81188   6.265   4.491   4.806 -0.2226 -1.5364 -0.6102
  589MOL0    Cl81189   6.338   4.607   4.925 -0.0475 -0.5433 -0.3342
  589MOL0     C81190   7.137   4.767   4.277  0.4678 -0.7432  0.0808
  589MOL0     C81191   7.239   4.699   4.217 -0.5232 -0.4757 -0.9372
  589MOL0     O81192   7.462   4.673   4.024 -0.0455 -0.1278  0.1523
  589MOL0     C81193   7.672   4.445   4.198 -0.0485  0.3918 -0.2698
  589MOL0     C81194   7.787   4.378   4.194 -0.1896  1.0195 -0.4239
  589MOL0     N81195   8.483   4.607   3.982  0.3190 -0.8513 -0.0398
  589MOL0     N81196   8.580   4.624   3.903 -0.0046 -0.6982  0.0795
  589MOL0     C81197   8.757   5.777   3.564  0.7914  0.0590  0.2942
  589MOL0     C81198   8.787   5.865   3.669  0.5459  0.7076 -0.0448
  589MOL0     C81199   9.054   6.195   3.848  0.4744 -0.8558 -0.3538
  589MOL0     C81200   9.173   6.260   3.831 -0.3114  0.2275 -0.5043
  589MOL0     C81201   9.240   6.336   3.935  0.2040  0.4789 -0.3737
  589MOL0     C81202   9.168   6.353   4.059 -0.3580 -0.9204 -0.6598
  589MOL0     O81203   9.229   6.430   4.155 -0.0820  0.4410  0.3120
  589MOL0     C81204   9.153   6.489   4.256  0.1633 -0.5010  0.5380
  589MOL0     C81205   9.235   6.602   4.330  0.5991  1.1599  0.7517
  589MOL0     C81206   9.144   6.679   4.428  0.0482 -0.2853  0.1443
  589MOL0     C81207   9.230   6.768   4.528 -0.6757 -0.8067  0.6625
  589MOL0     C81208   9.323   6.861   4.454 -0.0102 -0.7619  0.1804
  589MOL0     C81209   9.386   6.941   4.383 -1.0228 -0.5906 -0.5935
  589MOL0     C81210   9.045   6.302   4.068  0.7315  0.9737  0.5595
  589MOL0     C81211   8.993   6.214   3.971 -0.0457  0.2516  0.3589
  589MOL0     C81212   8.848   6.172   3.998 -0.1004 -0.1854  0.4529
  589MOL0     H81213   9.125   5.815   3.678 -0.1228  0.4252  1.0593
  589MOL0     H81214   9.060   5.646   3.501 -1.2988  0.2686  0.1197
  589MOL0     H81215   8.980   5.464   3.447 -2.1906 -3.8599  2.1714
  589MOL0     H81216   8.940   5.527   3.285  1.0460 -1.5327 -0.0902
  589MOL0     H81217   8.750   5.370   3.285  1.3859 -1.5659 -1.1322
  589MOL0     H81218   8.907   5.294   3.291 -1.8307  1.7479 -1.2095
  589MOL0     H81219   8.884   5.298   3.558 -0.7190  0.7051 -0.5837
  589MOL0     H81220   8.713   5.339   3.525  0.9246  3.0981 -0.4507
  589MOL0     H81221   8.703   5.126   3.397 -0.2372  1.4903 -1.4758
  589MOL0     H81222   8.873   5.094   3.433 -0.3090  0.2806  1.0014
  589MOL0     H81223   8.659   5.118   3.657 -0.5182 -2.3715  1.6890
  589MOL0     H81224   8.832   5.076   3.665  0.2216 -0.7599 -0.5624
  589MOL0     H81225   8.625   4.930   3.497  0.3625 -2.0034 -0.9526
  589MOL0     H81226   8.788   4.877   3.549  0.2075  0.7219  0.2484
  589MOL0     H81227   8.551   4.901   3.747 -0.3568 -0.8071  1.0170
  589MOL0     H81228   8.713   4.858   3.787  0.8525 -1.9504 -1.7901
  589MOL0     H81229   8.578   4.703   3.567  3.1137  1.1412 -1.7489
  589MOL0     H81230   8.710   4.660   3.660 -0.5055  1.4096  0.3925
  589MOL0     H81231   8.321   4.710   3.727  0.7179 -1.0271 -1.9711
  589MOL0     H81232   8.156   4.687   3.909 -0.8262  0.1764  2.8212
  589MOL0     H81233   8.236   4.693   4.062  0.9430  3.0048 -1.6539
  589MOL0     H81234   8.258   4.423   4.053 -2.2340 -2.3082 -0.1274
  589MOL0     H81235   8.118   4.508   4.109 -1.6580  2.4833 -0.9121
  589MOL0     H81236   8.029   4.481   3.885 -2.2110 -1.2456  0.5189
  589MOL0     H81237   8.167   4.382   3.837  2.0836 -3.2889  2.5921
  589MOL0     H81238   8.003   4.213   3.898 -1.6248 -2.0280  3.0075
  589MOL0     H81239   8.139   4.212   4.003 -0.5262 -2.0426 -1.9464
  589MOL0     H81240   7.833   4.362   3.861  2.7816 -0.2230  0.4317
  589MOL0     H81241   7.630   4.607   3.803  2.0336 -1.5406  1.6285
  589MOL0     H81242   7.494   4.490   3.836  0.0639 -3.3879  2.0924
  589MOL0     H81243   7.631   4.432   3.754 -0.3623 -2.5272  1.3573
  589MOL0     H81244   7.399   4.587   4.498  1.5568 -0.9434 -1.2978
  589MOL0     H81245   7.219   4.727   4.600  3.1293 -0.1208  0.1065
  589MOL0     H81246   6.836   4.921   4.470 -0.6460 -0.0407 -1.9088
  589MOL0     H81247   6.876   4.835   4.328  0.9048 -1.4030 -0.5523
  589MOL0     H81248   6.874   4.617   4.449  3.2446  0.0719  1.8905
  589MOL0     H81249   6.856   4.687   4.598 -2.2701 -1.7358  0.7267
  589MOL0     H81250   6.643   4.749   4.384 -2.8228 -2.0855 -0.0441
  589MOL0     H81251   6.642   4.778   4.559  1.2934 -1.2114  1.7928
  589MOL0     H81252   6.646   4.534   4.598 -2.1120  1.8772  0.5446
  589MOL0     H81253   6.679   4.514   4.428  3.4970  2.7591  0.8925
  589MOL0     H81254   6.439   4.650   4.401  0.6789  0.0715 -0.5647
  589MOL0     H81255   6.441   4.476   4.447 -0.8053  0.5412  0.9589
  589MOL0     H81256   6.281   4.651   4.575  1.0230  3.6431 -0.8509
  589MOL0     H81257   6.428   4.681   4.674 -1.7368  0.1055  1.3120
  589MOL0     H81258   6.452   4.442   4.736 -0.4415 -1.0249  0.7428
  589MOL0     H81259   6.313   4.394   4.631 -1.1261 -0.1146  0.4136
  589MOL0     H81260   6.258   4.390   4.848  0.7936 -1.4275 -0.1476
  589MOL0     H81261   6.165   4.523   4.775  1.1006  3.6679 -0.4379
  589MOL0     H81262   7.071   4.803   4.199 -0.2734  1.3831  1.6091
  589MOL0     H81263   7.250   4.697   4.109 -0.3697  1.2038 -0.9711
  589MOL0     H81264   7.623   4.447   4.295  0.5817 -0.1600  0.0702
  589MOL0     H81265   7.833   4.333   4.281 -1.1479  2.0518  0.6536
  589MOL0     H81266   8.651   5.759   3.548  0.6677  0.6147  0.4842
  589MOL0     H81267   8.706   5.918   3.720  0.5539 -0.0577  0.7909
  589MOL0     H81268   9.234   6.237   3.745 -0.5825 -1.1948 -0.3520
  589MOL0     H81269   9.341   6.374   3.928  2.0617 -3.8808 -0.1247
  589MOL0     H81270   9.054   6.524   4.224 -0.7111 -3.4883 -0.3621
  589MOL0     H81271   9.143   6.402   4.321  2.0747 -1.4267 -0.3312
  589MOL0     H81272   9.280   6.668   4.254 -2.9060  1.9552 -0.8432
  589MOL0     H81273   9.324   6.554   4.371  0.4287 -3.1914 -3.1144
  589MOL0     H81274   9.081   6.743   4.365  0.7470 -2.1088 -2.5864
  589MOL0     H81275   9.078   6.608   4.479 -1.8174  0.9163 -0.4695
  589MOL0     H81276   9.296   6.710   4.593  3.3389  4.4719  1.9587
  589MOL0     H81277   9.180   6.829   4.603  0.7551  0.3226  0.7276
  589MOL0     H81278   9.443   7.004   4.318  0.2186 -1.7230 -0.6501
  589MOL0     H81279   8.989   6.321   4.159 -0.1481  0.3501  0.1563
  589MOL0     H81280   8.779   6.249   3.964  0.1388  0.4128  1.2955
  589MOL0     H81281   8.819   6.072   3.964  1.1150  0.0097 -1.2815
  589MOL0     H81282   8.842   6.172   4.107  1.8161  1.0191  0.5983
  590MOL0     O81283   1.249   8.194   8.147  0.1464  0.5311 -0.2515
  590MOL0     C81284   1.351   8.164   8.082 -0.1153  0.6102  0.2033
  590MOL0     O81285   1.418   8.242   7.991 -0.5280 -0.0200 -0.2496
  590MOL0     C81286   1.408   8.374   8.019 -0.6479 -0.2138 -0.5505
  590MOL0     C81287   1.400   8.424   8.145  0.3108 -1.6070  0.0317
  590MOL0     C81288   1.365   8.564   8.166  0.3539  0.7212  0.1161
  590MOL0     C81289   1.352   8.651   8.051 -0.4448  1.0759 -1.1834
  590MOL0     O81290   1.318   8.783   8.084 -0.2576  0.9718  0.3432
  590MOL0     C81291   1.299   8.881   7.980  0.0457 -0.9490  0.1862
  590MOL0     C81292   1.282   9.040   8.013 -1.2225  0.4349  1.2534
  590MOL0     C81293   1.401   9.085   8.104 -0.3154 -0.7831 -1.0194
  590MOL0     C81294   1.349   9.132   8.251  0.3435 -0.3117  0.7044
  590MOL0     C81295   1.445   9.160   8.367 -0.3098  0.3051  0.0609
  590MOL0     C81296   1.525   9.287   8.351 -0.0169  0.0124 -1.0168
  590MOL0     C81297   1.434   9.413   8.346  0.4377  0.6075 -0.9612
  590MOL0     C81298   1.521   9.531   8.392  0.0198 -0.1646  1.1551
  590MOL0     N81299   1.435   9.650   8.392 -0.5928 -0.3972  0.6875
  590MOL0     C81300   1.411   9.718   8.501  0.1851 -0.8626 -0.6463
  590MOL0     C81301   1.359   9.835   8.446  0.2072 -0.4860  1.1947
  590MOL0     C81302   1.289   9.944   8.534 -0.9385  0.0350 -0.5605
  590MOL0     C81303   1.220  10.049   8.453 -0.6555  0.9394 -0.1998
  590MOL0     C81304   1.150  10.159   8.529 -0.1919 -0.2836 -0.0569
  590MOL0     C81305   1.053  10.103   8.633  0.3138 -1.1894 -0.1439
  590MOL0     O81306   0.957  10.014   8.587  0.7816  0.0240  0.4619
  590MOL0     C81307   0.836  10.070   8.555  0.6733  0.5164  0.1881
  590MOL0     C81308   0.743  10.104   8.647 -0.1436  0.0122 -0.9998
  590MOL0     C81309   0.615  10.180   8.621  0.3539  0.5862  0.4729
  590MOL0     C81310   0.529  10.203   8.742  0.5922  0.3669  0.2308
  590MOL0     C81311   0.581  10.198   8.486  0.2665 -0.1605  0.6208
  590MOL0     C81312   0.456  10.250   8.448  0.0547 -0.7088 -0.4232
  590MOL0     O81313   0.428  10.252   8.316  0.3327 -0.1203 -0.8678
  590MOL0     C81314   0.302  10.275   8.275  0.4919 -0.2294  0.0660
  590MOL0     C81315   0.191  10.194   8.313  0.8133  0.0595  0.0004
  590MOL0     C81316   0.066  10.236   8.277  0.4370  0.0526  0.4165
  590MOL0     C81317   0.033  10.349   8.208  0.2009  0.1393 -0.1782
  590MOL0     O81318  -0.100  10.380   8.178 -0.2440  0.5156 -0.6016
  590MOL0     C81319  -0.127  10.519   8.172 -0.0682  1.2277 -0.2270
  590MOL0     C81320  -0.147  10.541   8.019 -0.1472 -0.0130 -0.8808
  590MOL0     C81321  -0.177  10.685   7.981 -0.3607 -0.7904 -0.0160
  590MOL0     C81322  -0.059  10.779   8.007  0.1521  0.4476 -0.3566
  590MOL0     C81323  -0.081  10.919   7.940  0.7743  1.3577 -0.3261
  590MOL0     C81324   0.043  11.006   7.951  0.0670  1.0241 -0.8423
  590MOL0     C81325   0.007  11.148   7.976 -0.8728 -0.1033 -0.8488
  590MOL0     C81326  -0.059  11.199   7.856  1.0436 -0.1573  0.2514
  590MOL0    Cl81327   0.022  11.184   7.703  0.3412 -0.2742 -0.4275
  590MOL0     C81328   0.151  10.417   8.157 -0.0217  0.9983  0.6724
  590MOL0     C81329   0.278  10.383   8.199 -0.6789 -0.1645  0.7577
  590MOL0     O81330   0.381  10.297   8.536  0.2976 -0.0071 -0.3015
  590MOL0     C81331   0.681  10.145   8.392  0.0168  0.0498 -0.4854
  590MOL0     C81332   0.812  10.103   8.426 -0.2557  1.3401 -0.1915
  590MOL0     N81333   1.367   9.831   8.307 -0.2634 -0.2133 -0.1326
  590MOL0     N81334   1.415   9.715   8.274 -0.0741 -0.4537 -0.0995
  590MOL0     C81335   1.354   8.594   7.929  0.5804  1.2013  0.6416
  590MOL0     C81336   1.389   8.455   7.914  0.5977  0.7549 -0.8912
  590MOL0     C81337   1.388   8.013   8.087 -0.1366 -0.1191  0.9979
  590MOL0     C81338   1.331   7.944   8.186 -0.2100  0.3809  0.4723
  590MOL0     C81339   1.351   7.807   8.199 -0.2474 -0.0952 -0.1513
  590MOL0     C81340   1.432   7.737   8.114 -1.2218 -0.6223 -0.3811
  590MOL0     O81341   1.451   7.598   8.140  0.1947 -0.8732  0.1306
  590MOL0     C81342   1.527   7.516   8.059 -0.6660  0.1004  0.4487
  590MOL0     C81343   1.558   7.377   8.113  0.3427 -0.4507  0.8173
  590MOL0     C81344   1.669   7.300   8.036 -0.0405  0.9784 -0.6425
  590MOL0     C81345   1.677   7.155   8.084 -0.0289  0.5241 -0.1225
  590MOL0     C81346   1.780   7.079   8.010  0.0665 -1.6551  0.3746
  590MOL0     C81347   1.849   7.016   7.930  0.2848  0.6124 -0.8652
  590MOL0     C81348   1.486   7.815   8.002  0.2725  0.0395  1.2231
  590MOL0     C81349   1.457   7.950   7.983  0.1354 -0.2161 -0.0188
  590MOL0     C81350   1.512   8.007   7.852 -0.5054  0.3520 -0.2366
  590MOL0     H81351   1.392   8.357   8.230 -1.6595 -3.2954 -1.3914
  590MOL0     H81352   1.355   8.607   8.265 -4.7981  0.8142 -0.1493
  590MOL0     H81353   1.208   8.852   7.927  0.3362 -0.9816 -0.3035
  590MOL0     H81354   1.384   8.872   7.911  0.8509 -4.2273  1.4428
  590MOL0     H81355   1.280   9.098   7.920  0.2874 -0.4845  0.6085
  590MOL0     H81356   1.183   9.055   8.058 -1.4090 -0.4631  1.1476
  590MOL0     H81357   1.460   8.995   8.122 -2.2994 -1.7317  1.1836
  590MOL0     H81358   1.461   9.165   8.058  0.2693 -1.3144 -1.1994
  590MOL0     H81359   1.287   9.219   8.229 -0.8689 -2.1066 -4.4075
  590MOL0     H81360   1.283   9.052   8.286  1.4633 -1.9264 -0.7181
  590MOL0     H81361   1.509   9.071   8.372 -0.5496  0.1995  1.8268
  590MOL0     H81362   1.376   9.168   8.451  0.3456 -4.3395  1.3574
  590MOL0     H81363   1.601   9.292   8.429 -1.8946  1.2565  0.8488
  590MOL0     H81364   1.579   9.301   8.257  0.9703  3.7149 -0.0618
  590MOL0     H81365   1.349   9.399   8.413  1.7170 -2.2219  0.2348
  590MOL0     H81366   1.386   9.437   8.251 -0.2503 -0.8387 -1.0090
  590MOL0     H81367   1.569   9.517   8.489  1.0026  1.6257  0.9727
  590MOL0     H81368   1.596   9.546   8.314  0.0231 -0.9298  1.0027
  590MOL0     H81369   1.412   9.700   8.608  2.1369 -0.5696 -0.5659
  590MOL0     H81370   1.367   9.985   8.598 -0.0009  0.8613 -2.1748
  590MOL0     H81371   1.224   9.885   8.599  1.1172 -0.6001  1.0542
  590MOL0     H81372   1.293  10.097   8.386 -1.5304  1.7545 -0.5899
  590MOL0     H81373   1.139  10.022   8.385 -0.0007  0.5044 -0.8226
  590MOL0     H81374   1.214  10.232   8.580  0.2019 -0.4724 -0.2808
  590MOL0     H81375   1.097  10.222   8.456  1.3197  2.3217  0.9413
  590MOL0     H81376   1.099  10.071   8.727 -2.3670  0.9276  2.0775
  590MOL0     H81377   1.005  10.196   8.665 -0.1615 -1.4642 -0.0485
  590MOL0     H81378   0.769  10.087   8.751  0.5014  2.0568 -0.7832
  590MOL0     H81379   0.509  10.310   8.751  0.4502  0.2442  1.4925
  590MOL0     H81380   0.580  10.174   8.834 -0.3064 -2.7438 -0.1414
  590MOL0     H81381   0.438  10.145   8.719  2.0596 -0.0379 -6.6445
  590MOL0     H81382   0.203  10.094   8.354  0.0804 -0.9607 -2.1459
  590MOL0     H81383  -0.015  10.164   8.287  1.1155 -0.6718  0.8931
  590MOL0     H81384  -0.219  10.540   8.228  0.5115  1.7456  0.5544
  590MOL0     H81385  -0.039  10.574   8.204  1.8429 -0.9714 -1.4344
  590MOL0     H81386  -0.059  10.513   7.961  0.0994  0.4550 -0.7343
  590MOL0     H81387  -0.230  10.485   7.974 -1.5922  1.1263  0.2558
  590MOL0     H81388  -0.259  10.716   8.047  0.5245 -1.7463  1.5934
  590MOL0     H81389  -0.199  10.681   7.874  0.0242  0.3027 -0.1541
  590MOL0     H81390   0.033  10.731   7.971 -0.7522 -1.7615  0.0680
  590MOL0     H81391  -0.033  10.808   8.109  0.1123  0.2998 -0.3039
  590MOL0     H81392  -0.097  10.924   7.832  3.4333  2.1169 -0.7576
  590MOL0     H81393  -0.171  10.954   7.991 -0.9669 -0.2177 -2.1443
  590MOL0     H81394   0.102  10.987   7.860  0.1341  0.4472 -0.6835
  590MOL0     H81395   0.105  10.974   8.035 -0.5371  1.0272 -0.3961
  590MOL0     H81396   0.099  11.205   7.985 -1.0838  0.4124 -1.8447
  590MOL0     H81397  -0.058  11.155   8.065  2.2028  1.0997  1.4757
  590MOL0     H81398  -0.086  11.304   7.866  0.9711 -0.2613  1.2397
  590MOL0     H81399  -0.152  11.144   7.838  2.1984 -1.7267 -1.2776
  590MOL0     H81400   0.126  10.503   8.096 -0.8743  1.2361  1.3376
  590MOL0     H81401   0.360  10.444   8.163 -0.5387 -1.4741 -1.3085
  590MOL0     H81402   0.663  10.154   8.285 -2.0227  1.0033 -0.1128
  590MOL0     H81403   0.882  10.079   8.347 -2.8600 -2.5269 -1.6888
  590MOL0     H81404   1.316   8.653   7.846 -1.5611 -1.2185 -0.2509
  590MOL0     H81405   1.391   8.416   7.812  1.8655 -1.7055  0.0109
  590MOL0     H81406   1.274   7.988   8.268 -0.5185 -0.5876  0.7937
  590MOL0     H81407   1.296   7.757   8.278 -2.1964 -0.6154 -1.7572
  590MOL0     H81408   1.461   7.510   7.972  0.8430  5.3719 -1.4270
  590MOL0     H81409   1.612   7.582   8.038 -1.1732  0.4357 -0.6554
  590MOL0     H81410   1.467   7.317   8.101  1.5113 -1.8155 -2.1629
  590MOL0     H81411   1.601   7.387   8.213  2.1121 -2.7264  0.3756
  590MOL0     H81412   1.654   7.303   7.928  1.9365 -0.5812 -1.0241
  590MOL0     H81413   1.766   7.346   8.058  1.4276 -2.6042  1.3167
  590MOL0     H81414   1.579   7.107   8.078  0.0750  0.4845 -2.2348
  590MOL0     H81415   1.707   7.159   8.189  0.0268  2.7040 -0.1783
  590MOL0     H81416   1.917   6.961   7.868 -1.9633 -3.0963 -0.3114
  590MOL0     H81417   1.538   7.752   7.931 -1.6219  0.4287 -0.5962
  590MOL0     H81418   1.585   8.088   7.861 -1.1369  1.1687 -2.0311
  590MOL0     H81419   1.556   7.933   7.785  1.8020  0.2545  1.2513
  590MOL0     H81420   1.433   8.053   7.792  0.0273  1.1524 -0.3400
  591MOL0     O81421   7.791  11.427   8.605 -1.1981 -0.0070  0.8302
  591MOL0     C81422   7.905  11.446   8.654  0.0573  0.5641 -0.4151
  591MOL0     O81423   8.026  11.407   8.591  0.4085  0.0105 -0.5204
  591MOL0     C81424   8.025  11.336   8.474 -0.9281  0.4307  0.2256
  591MOL0     C81425   8.131  11.372   8.387  0.3079 -0.2675  0.5650
  591MOL0     C81426   8.156  11.297   8.264 -0.0608  0.0439 -0.1438
  591MOL0     C81427   8.080  11.183   8.237 -1.4740 -0.7645  0.2559
  591MOL0     O81428   8.097  11.115   8.114  0.3328  0.9002  0.2724
  591MOL0     C81429   8.091  10.972   8.122 -0.2303  0.5325  1.2516
  591MOL0     C81430   8.123  10.921   7.974  0.7303  0.8248 -0.3448
  591MOL0     C81431   8.004  10.835   7.927 -0.9800 -0.0864  0.0159
  591MOL0     C81432   8.038  10.791   7.781  0.7838 -0.6941  0.4576
  591MOL0     C81433   7.932  10.691   7.740 -0.9588  0.4317  1.0936
  591MOL0     C81434   7.803  10.754   7.682 -0.7743 -0.6667  0.0692
  591MOL0     C81435   7.688  10.661   7.623 -0.2324 -0.6758 -1.0847
  591MOL0     C81436   7.737  10.600   7.495  0.0776 -0.1057 -0.2468
  591MOL0     N81437   7.636  10.516   7.430 -0.4304 -0.3025  0.0776
  591MOL0     C81438   7.597  10.525   7.302  0.2977 -0.2503 -0.9047
  591MOL0     C81439   7.510  10.428   7.272  0.1879  0.4069  0.5512
  591MOL0     C81440   7.450  10.411   7.137  0.6677 -0.2174  0.2036
  591MOL0     C81441   7.309  10.354   7.140 -0.4279 -0.5894  0.9657
  591MOL0     C81442   7.259  10.376   6.994  0.9536 -0.0260 -0.3575
  591MOL0     C81443   7.113  10.358   6.992  0.5861  0.3446  0.7275
  591MOL0     O81444   7.040  10.457   7.071  0.1203  1.5827  0.1244
  591MOL0     C81445   6.905  10.433   7.055 -0.2129 -0.0011 -0.7539
  591MOL0     C81446   6.842  10.312   7.063  0.3888  1.2031 -0.5892
  591MOL0     C81447   6.708  10.299   7.038  1.2131 -0.9156  0.3134
  591MOL0     C81448   6.652  10.159   7.044 -0.6439  0.0467 -0.4048
  591MOL0     C81449   6.624  10.417   7.023  0.9686  0.3956 -0.9774
  591MOL0     C81450   6.477  10.407   7.014  0.0871 -0.2170 -0.2154
  591MOL0     O81451   6.406  10.523   7.017  0.2865 -0.4241  0.2862
  591MOL0     C81452   6.270  10.539   7.005  0.5007 -0.0145 -0.4302
  591MOL0     C81453   6.219  10.656   6.957 -0.0091 -0.2354  0.9475
  591MOL0     C81454   6.081  10.687   6.967  0.4168  0.2800 -1.3505
  591MOL0     C81455   5.995  10.584   7.031 -0.5147 -0.5870 -0.5047
  591MOL0     O81456   5.858  10.617   7.041  0.3736  0.5247 -0.0243
  591MOL0     C81457   5.819  10.659   7.169  0.2741  0.9350 -0.4632
  591MOL0     C81458   5.672  10.628   7.191 -1.0400 -0.0893 -0.3764
  591MOL0     C81459   5.616  10.486   7.164 -0.2239 -0.1373  0.4745
  591MOL0     C81460   5.469  10.503   7.136 -0.4689  0.2384 -0.7764
  591MOL0     C81461   5.403  10.365   7.147  0.2696  0.7010  0.6023
  591MOL0     C81462   5.258  10.361   7.092  0.2701  0.0378 -0.4606
  591MOL0     C81463   5.188  10.226   7.102  0.1224  0.3202 -0.0663
  591MOL0     C81464   5.038  10.246   7.108  0.2441 -0.1869 -0.5324
  591MOL0    Cl81465   4.978  10.304   6.950 -0.0498  0.3540 -0.2868
  591MOL0     C81466   6.045  10.471   7.081 -0.1001  0.3283 -0.2907
  591MOL0     C81467   6.184  10.447   7.070 -0.2587 -0.3012 -0.0062
  591MOL0     O81468   6.423  10.299   6.996 -0.4406  0.5600  0.5597
  591MOL0     C81469   6.689  10.540   7.015 -0.5766 -0.1517 -0.4905
  591MOL0     C81470   6.828  10.548   7.045 -0.1830 -0.7904  0.4084
  591MOL0     N81471   7.488  10.354   7.386  0.4779 -0.5278  0.2414
  591MOL0     N81472   7.555  10.417   7.478 -0.0433  0.7331 -0.2173
  591MOL0     C81473   7.972  11.159   8.318  1.0389 -1.1331 -0.3217
  591MOL0     C81474   7.935  11.230   8.434  0.4953  0.4637  0.4186
  591MOL0     C81475   7.916  11.512   8.789 -0.2291  1.3662  0.0410
  591MOL0     C81476   7.795  11.533   8.856 -0.2448  0.1978  0.0091
  591MOL0     C81477   7.787  11.591   8.982 -0.2804 -0.6160 -0.3009
  591MOL0     C81478   7.899  11.626   9.046 -0.2115 -0.8519  0.0789
  591MOL0     O81479   7.881  11.691   9.168  0.5150  0.4144 -0.7512
  591MOL0     C81480   7.987  11.682   9.263  0.3853  0.4428  0.0556
  591MOL0     C81481   7.939  11.689   9.407  0.4604  0.2304  0.5170
  591MOL0     C81482   8.060  11.670   9.496 -0.1195 -0.6453 -0.1098
  591MOL0     C81483   8.178  11.776   9.492  0.7623 -0.5115 -0.2946
  591MOL0     C81484   8.115  11.906   9.510 -0.7501 -0.6442  0.3042
  591MOL0     C81485   8.061  12.012   9.539 -0.0715  0.2161 -0.2277
  591MOL0     C81486   8.022  11.603   8.983  1.0119 -0.9251  0.3181
  591MOL0     C81487   8.033  11.549   8.857 -1.4734 -0.4077  0.3671
  591MOL0     C81488   8.170  11.523   8.808 -0.4078  0.5029 -1.1210
  591MOL0     H81489   8.190  11.461   8.406 -3.2220  3.0326 -2.2783
  591MOL0     H81490   8.242  11.324   8.204 -2.0057  0.7569 -2.7968
  591MOL0     H81491   7.999  10.930   8.163  0.2428 -1.5768  0.3374
  591MOL0     H81492   8.168  10.936   8.191 -0.9482 -0.6418  1.4716
  591MOL0     H81493   8.137  11.012   7.915  0.4551  0.4915 -0.9318
  591MOL0     H81494   8.212  10.859   7.991 -1.1591 -1.8384  0.5686
  591MOL0     H81495   7.998  10.748   7.993 -0.6574  0.4527  0.7689
  591MOL0     H81496   7.906  10.882   7.918 -0.5492  0.4579 -3.0117
  591MOL0     H81497   8.040  10.870   7.706 -2.1536 -2.5229 -1.7876
  591MOL0     H81498   8.133  10.739   7.793  0.7983 -0.9363 -0.6254
  591MOL0     H81499   7.886  10.628   7.816 -0.4359 -0.4450  0.6914
  591MOL0     H81500   7.972  10.625   7.663 -4.7866 -0.4566 -0.3652
  591MOL0     H81501   7.770  10.821   7.761  1.3902 -0.0658  0.5475
  591MOL0     H81502   7.836  10.826   7.606 -1.3466 -0.9463 -0.4513
  591MOL0     H81503   7.604  10.727   7.600  1.1068  0.5620 -2.6338
  591MOL0     H81504   7.658  10.586   7.697 -2.1980  1.5005  0.4515
  591MOL0     H81505   7.776  10.678   7.428 -0.8112  0.8709  0.3437
  591MOL0     H81506   7.826  10.538   7.510  1.5299  0.6013 -4.5833
  591MOL0     H81507   7.638  10.590   7.225  2.5771 -0.5949 -0.0561
  591MOL0     H81508   7.510  10.332   7.092  1.0251 -1.1061  2.1183
  591MOL0     H81509   7.453  10.503   7.078  1.3554  0.5065  1.3137
  591MOL0     H81510   7.308  10.249   7.169  2.2885 -0.7719  0.6963
  591MOL0     H81511   7.242  10.410   7.206 -1.8197 -0.6009 -0.3617
  591MOL0     H81512   7.279  10.470   6.942 -1.3697  0.1227 -1.1153
  591MOL0     H81513   7.305  10.302   6.927 -0.8550  0.2403 -1.9975
  591MOL0     H81514   7.072  10.344   6.892 -0.1782 -2.4305  1.3328
  591MOL0     H81515   7.099  10.266   7.050 -1.3958 -0.8893 -1.5162
  591MOL0     H81516   6.893  10.217   7.077 -1.6841  0.1747  0.5345
  591MOL0     H81517   6.608  10.134   6.947 -0.1717 -0.4300 -0.5032
  591MOL0     H81518   6.578  10.149   7.124  1.5276 -2.3530  1.4914
  591MOL0     H81519   6.737  10.094   7.066  0.3983  1.2450 -0.8254
  591MOL0     H81520   6.298  10.719   6.917  0.4506 -2.4526 -2.0133
  591MOL0     H81521   6.042  10.787   6.953  1.1372  1.1270  1.9048
  591MOL0     H81522   5.879  10.607   7.245 -0.0574 -1.2163 -1.6069
  591MOL0     H81523   5.835  10.763   7.198 -0.9098  0.6390  1.4578
  591MOL0     H81524   5.646  10.654   7.294  3.0013  1.3739  0.4357
  591MOL0     H81525   5.630  10.695   7.115 -1.0269  0.0070 -0.2988
  591MOL0     H81526   5.639  10.417   7.245 -0.4446 -0.6842  0.0815
  591MOL0     H81527   5.659  10.456   7.068  2.1573  1.0705  1.1070
  591MOL0     H81528   5.445  10.552   7.041 -1.4401 -0.3419 -0.8420
  591MOL0     H81529   5.430  10.556   7.223 -1.6220 -1.3856 -0.2648
  591MOL0     H81530   5.462  10.300   7.083 -1.2827  1.0730 -1.3328
  591MOL0     H81531   5.396  10.335   7.252  0.9984 -0.7174  0.2554
  591MOL0     H81532   5.262  10.405   6.992 -0.3398 -0.4661 -0.7151
  591MOL0     H81533   5.193  10.423   7.154 -1.5570 -1.5684 -0.6809
  591MOL0     H81534   5.219  10.178   7.196  3.2089 -1.4077 -1.8130
  591MOL0     H81535   5.216  10.162   7.018  1.3932  1.3887 -0.4898
  591MOL0     H81536   5.004  10.304   7.194 -0.5802 -0.6455 -0.5435
  591MOL0     H81537   4.993  10.150   7.135 -1.6982  0.4761 -1.2451
  591MOL0     H81538   5.973  10.395   7.111 -2.2926  2.1566 -0.6721
  591MOL0     H81539   6.221  10.354   7.112 -1.8878 -0.5570  0.9564
  591MOL0     H81540   6.623  10.625   7.002 -2.1827 -0.9579  1.7536
  591MOL0     H81541   6.882  10.641   7.031 -1.9840 -0.1008 -2.9919
  591MOL0     H81542   7.913  11.070   8.300  1.6155 -1.4474 -0.6926
  591MOL0     H81543   7.847  11.206   8.493 -1.0126  0.5741 -1.6309
  591MOL0     H81544   7.700  11.504   8.811 -1.7915  1.7335  2.0616
  591MOL0     H81545   7.690  11.611   9.028  1.1737  0.5973  2.4585
  591MOL0     H81546   8.041  11.590   9.240  0.9818  0.6738  0.5178
  591MOL0     H81547   8.052  11.769   9.251  2.0395 -0.5096  1.7357
  591MOL0     H81548   7.874  11.603   9.425  1.7350 -0.5428  1.6049
  591MOL0     H81549   7.883  11.780   9.429  1.2371  1.3184 -1.6994
  591MOL0     H81550   8.020  11.679   9.597  1.7749 -2.1691  0.8472
  591MOL0     H81551   8.107  11.573   9.478  2.3744 -0.0216  2.2655
  591MOL0     H81552   8.226  11.776   9.394  1.3869 -1.9015 -0.0208
  591MOL0     H81553   8.262  11.748   9.555 -0.5097 -0.9888  1.2609
  591MOL0     H81554   8.022  12.109   9.564 -2.1120 -0.9832  1.5564
  591MOL0     H81555   8.115  11.631   9.031  1.4478 -3.6452  1.2198
  591MOL0     H81556   8.190  11.416   8.804 -0.0211  0.6093 -3.4178
  591MOL0     H81557   8.186  11.551   8.703  0.6004 -1.1680 -1.4492
  591MOL0     H81558   8.235  11.582   8.874 -3.5165  1.9048  0.9447
  592MOL0     O81559   7.403  11.485   7.819 -0.7170 -0.3659 -0.0257
  592MOL0     C81560   7.309  11.476   7.742  0.4834  0.5786  0.0131
  592MOL0     O81561   7.300  11.523   7.614 -0.3221  0.3349  0.3745
  592MOL0     C81562   7.424  11.522   7.552 -0.4923  0.1832 -0.1124
  592MOL0     C81563   7.474  11.652   7.534  0.1365  0.5826 -0.8469
  592MOL0     C81564   7.584  11.679   7.462 -0.3846  0.3168  0.0615
  592MOL0     C81565   7.655  11.585   7.398  0.7066  0.6156  0.7031
  592MOL0     O81566   7.752  11.608   7.302  0.2133 -1.0292  0.4179
  592MOL0     C81567   7.781  11.731   7.233 -0.9394  0.1929  0.3212
  592MOL0     C81568   7.874  11.818   7.327  0.7228  1.2530 -0.2293
  592MOL0     C81569   7.958  11.920   7.240  1.2147  0.5192  0.2760
  592MOL0     C81570   8.004  12.046   7.313 -0.3476  0.1353  0.2948
  592MOL0     C81571   8.117  12.109   7.229  0.0799  0.2248  0.3018
  592MOL0     C81572   8.145  12.236   7.295 -1.2306  0.1279  0.1666
  592MOL0     C81573   8.231  12.330   7.210 -0.8654  0.3716 -0.0583
  592MOL0     C81574   8.274  12.450   7.302 -1.0760  0.0077 -0.1846
  592MOL0     N81575   8.386  12.521   7.237 -0.0483  0.2916 -0.2341
  592MOL0     C81576   8.506  12.474   7.201  0.7660  0.4486  0.6698
  592MOL0     C81577   8.563  12.575   7.129 -0.2683  0.1778  0.4268
  592MOL0     C81578   8.696  12.571   7.060 -0.1729  0.9686 -0.0463
  592MOL0     C81579   8.804  12.484   7.132 -0.1290  0.2012  0.3446
  592MOL0     C81580   8.838  12.534   7.274 -0.1308  0.6299 -0.3700
  592MOL0     C81581   8.948  12.442   7.335 -0.2666  0.1225  0.0053
  592MOL0     O81582   8.900  12.316   7.374 -0.6313  0.8031  0.0438
  592MOL0     C81583   8.801  12.313   7.464 -0.1351  0.1838 -0.4713
  592MOL0     C81584   8.806  12.390   7.582 -0.7754 -0.1763  0.2012
  592MOL0     C81585   8.695  12.396   7.669 -0.5330 -0.5825  0.8767
  592MOL0     C81586   8.708  12.503   7.783  0.5384 -0.0226 -0.1412
  592MOL0     C81587   8.581  12.309   7.642 -0.1694  0.1029 -0.1036
  592MOL0     C81588   8.458  12.292   7.720 -0.1016  0.6125 -0.5140
  592MOL0     O81589   8.356  12.231   7.657 -0.2516 -0.2861  0.4702
  592MOL0     C81590   8.236  12.212   7.715  0.4458 -0.0822 -0.0349
  592MOL0     C81591   8.203  12.148   7.840 -0.0030 -0.3930  0.7012
  592MOL0     C81592   8.078  12.107   7.878  0.2380 -0.2913 -1.1325
  592MOL0     C81593   7.969  12.165   7.813  0.0075 -0.6461  0.1668
  592MOL0     O81594   7.845  12.136   7.859  0.5564 -0.0322  0.5189
  592MOL0     C81595   7.821  11.993   7.857  0.2002  0.0826  0.0717
  592MOL0     C81596   7.672  11.995   7.888  0.4142 -0.9065 -0.5157
  592MOL0     C81597   7.629  11.841   7.883  0.3477  0.4594  0.7156
  592MOL0     C81598   7.482  11.827   7.938  0.7293  0.0600 -0.1512
  592MOL0     C81599   7.380  11.921   7.864 -0.1443 -0.1742  0.4734
  592MOL0     C81600   7.235  11.910   7.911  0.1500 -0.8024 -0.7217
  592MOL0     C81601   7.154  12.026   7.858 -1.6625 -0.0022 -1.0188
  592MOL0     C81602   7.092  11.993   7.717  0.6667 -0.2145  0.6802
  592MOL0    Cl81603   6.948  11.886   7.745  0.3022  0.1016 -0.3693
  592MOL0     C81604   7.995  12.231   7.691 -0.4284  0.9480 -0.0214
  592MOL0     C81605   8.119  12.252   7.645 -1.0020  0.3153  0.4196
  592MOL0     O81606   8.445  12.358   7.824  0.3299 -0.1463  0.3009
  592MOL0     C81607   8.585  12.237   7.515 -0.0469  0.9756 -0.3391
  592MOL0     C81608   8.692  12.241   7.427 -0.0203  0.3753  0.4363
  592MOL0     N81609   8.469  12.672   7.113 -0.1714 -0.0151 -0.0395
  592MOL0     N81610   8.365  12.630   7.165  0.0532  0.3325 -0.4051
  592MOL0     C81611   7.612  11.445   7.414 -0.0615 -0.4918 -0.4323
  592MOL0     C81612   7.490  11.417   7.489 -0.0734 -0.0269 -0.3216
  592MOL0     C81613   7.191  11.421   7.798  0.5030 -0.1265 -0.3018
  592MOL0     C81614   7.063  11.485   7.787 -0.3871 -0.3798  0.7302
  592MOL0     C81615   6.950  11.422   7.832  0.2738 -0.1828 -0.0018
  592MOL0     C81616   6.958  11.305   7.901  0.3158  1.0164  0.1512
  592MOL0     O81617   6.836  11.245   7.943  0.0651  1.1055  0.4514
  592MOL0     C81618   6.839  11.191   8.075  0.5628 -0.3111 -0.9974
  592MOL0     C81619   6.815  11.042   8.068  0.9309  0.0325 -0.0861
  592MOL0     C81620   6.669  11.024   8.050  0.5306  0.7512  0.8592
  592MOL0     C81621   6.614  10.902   8.129  0.8936 -0.0061  0.6341
  592MOL0     C81622   6.610  10.924   8.269  0.2981 -0.4667  1.2807
  592MOL0     C81623   6.613  10.941   8.386  1.0127  0.0946 -0.1290
  592MOL0     C81624   7.077  11.234   7.906 -0.3340  0.5774  0.3175
  592MOL0     C81625   7.192  11.297   7.867 -0.7334  0.0402  0.4567
  592MOL0     C81626   7.322  11.213   7.883  0.1752 -0.1053 -0.2466
  592MOL0     H81627   7.423  11.731   7.590  0.0598 -1.0457  1.5098
  592MOL0     H81628   7.631  11.777   7.463  1.7940 -0.6627  0.3554
  592MOL0     H81629   7.690  11.787   7.208 -1.2581 -0.2679  0.4341
  592MOL0     H81630   7.829  11.710   7.137  3.1289  3.0859  1.4317
  592MOL0     H81631   7.817  11.859   7.411 -1.0963 -0.9835 -0.2573
  592MOL0     H81632   7.950  11.759   7.380 -0.3539 -1.0516 -1.0985
  592MOL0     H81633   8.047  11.873   7.198  0.4776 -0.6250 -0.0672
  592MOL0     H81634   7.901  11.943   7.150  0.3778 -0.8586  0.4166
  592MOL0     H81635   7.920  12.117   7.309 -1.3352 -1.0455 -1.4693
  592MOL0     H81636   8.037  12.033   7.416  0.6233  0.3653  0.0198
  592MOL0     H81637   8.086  12.130   7.126  3.9327  1.5765 -0.7504
  592MOL0     H81638   8.208  12.049   7.240 -1.0872 -1.3487  1.8883
  592MOL0     H81639   8.054  12.287   7.326 -2.2477  0.4610 -2.9922
  592MOL0     H81640   8.202  12.216   7.386 -1.0761 -1.0253 -0.1596
  592MOL0     H81641   8.164  12.372   7.135 -2.3061 -0.5148  0.6970
  592MOL0     H81642   8.318  12.273   7.175 -1.7466 -0.8586 -0.3163
  592MOL0     H81643   8.189  12.517   7.316 -0.8785 -0.2918  3.3285
  592MOL0     H81644   8.305  12.414   7.401 -0.5077  0.5389 -0.1614
  592MOL0     H81645   8.554  12.385   7.238  1.7174  0.7308  0.1594
  592MOL0     H81646   8.730  12.675   7.056  3.3936 -0.0661 -2.6695
  592MOL0     H81647   8.677  12.538   6.958  0.1417  2.5780 -0.6492
  592MOL0     H81648   8.771  12.380   7.125 -0.7475  0.4769 -1.1310
  592MOL0     H81649   8.895  12.484   7.071 -0.8109  0.1547 -0.6973
  592MOL0     H81650   8.888  12.631   7.263 -2.0676  1.9910  1.9114
  592MOL0     H81651   8.749  12.561   7.332  0.2929  2.8600 -0.6512
  592MOL0     H81652   9.037  12.439   7.271  0.1881  2.2580  0.4665
  592MOL0     H81653   8.979  12.494   7.426 -1.2452 -0.1141  0.4832
  592MOL0     H81654   8.894  12.451   7.601 -1.2133  0.6306 -0.2947
  592MOL0     H81655   8.803  12.558   7.786  0.4508  0.1206  0.0601
  592MOL0     H81656   8.685  12.449   7.876 -3.8136 -1.9303 -2.0818
  592MOL0     H81657   8.625  12.573   7.774  0.7558  0.5850  1.9277
  592MOL0     H81658   8.282  12.108   7.902  0.9735 -0.9845 -0.8659
  592MOL0     H81659   8.058  12.059   7.973 -2.8357  3.1921  0.2342
  592MOL0     H81660   7.832  11.957   7.754 -1.4884 -0.1765 -0.0592
  592MOL0     H81661   7.860  11.922   7.931 -1.0107 -0.8434 -0.1305
  592MOL0     H81662   7.665  12.039   7.988 -0.0711 -0.7124 -0.6309
  592MOL0     H81663   7.609  12.054   7.821  1.2211 -0.3072 -0.7628
  592MOL0     H81664   7.703  11.781   7.937  0.9117  0.1284 -0.4093
  592MOL0     H81665   7.627  11.801   7.782 -0.9089  0.9691  0.5191
  592MOL0     H81666   7.473  11.850   8.045 -0.9121 -1.5153  0.1052
  592MOL0     H81667   7.456  11.720   7.935 -0.2655  0.2141  1.4530
  592MOL0     H81668   7.404  12.023   7.894  1.2316 -0.4123  0.2268
  592MOL0     H81669   7.386  11.902   7.756 -0.2013 -2.1245  0.7709
  592MOL0     H81670   7.232  11.938   8.017  1.0601 -1.6585 -0.4535
  592MOL0     H81671   7.192  11.810   7.904 -1.1278 -0.2970 -0.3612
  592MOL0     H81672   7.217  12.114   7.846 -1.4633 -0.1712 -1.2257
  592MOL0     H81673   7.081  12.069   7.927  0.5411  0.7332  0.9658
  592MOL0     H81674   7.171  11.948   7.656  2.2265  0.9722  1.7545
  592MOL0     H81675   7.060  12.090   7.678  1.2615 -0.1636  0.3078
  592MOL0     H81676   7.911  12.251   7.626 -1.7477  2.1330  1.9521
  592MOL0     H81677   8.127  12.311   7.554 -0.1996  0.7230  0.7417
  592MOL0     H81678   8.512  12.162   7.486  2.6830 -1.4274 -1.5278
  592MOL0     H81679   8.700  12.180   7.337 -0.5702 -3.7870  2.9520
  592MOL0     H81680   7.671  11.374   7.356 -0.1257 -1.2176  0.3669
  592MOL0     H81681   7.470  11.311   7.490 -0.5426  0.0566 -0.4993
  592MOL0     H81682   7.059  11.575   7.726  0.9171  0.3054  1.5980
  592MOL0     H81683   6.850  11.462   7.826 -0.3288 -1.8418 -2.7473
  592MOL0     H81684   6.937  11.205   8.121 -0.4128  0.1685  1.0509
  592MOL0     H81685   6.788  11.243   8.157  3.0799  2.9280 -1.3220
  592MOL0     H81686   6.850  11.019   8.169  4.2385  2.5338 -0.4986
  592MOL0     H81687   6.875  10.996   7.989  0.4875 -0.8601  0.0803
  592MOL0     H81688   6.608  11.112   8.075  0.6656  0.8920  0.6897
  592MOL0     H81689   6.651  11.014   7.943  1.7652  0.1971  0.6938
  592MOL0     H81690   6.687  10.821   8.118 -0.6134 -1.8454  3.1756
  592MOL0     H81691   6.521  10.873   8.080 -0.2765 -0.7934  3.1428
  592MOL0     H81692   6.607  10.962   8.491  3.4757  1.8829 -0.2386
  592MOL0     H81693   7.064  11.128   7.926 -1.1598  0.4127 -0.9535
  592MOL0     H81694   7.384  11.261   7.959  0.2826  0.2903 -0.5791
  592MOL0     H81695   7.303  11.112   7.920  3.4475  0.2657  2.9912
  592MOL0     H81696   7.376  11.197   7.789  2.4455  2.0059  0.5857
  593MOL0     O81697   1.899   9.522   0.294 -0.4204  1.0674  0.6814
  593MOL0     C81698   1.950   9.401   0.312  0.2238 -0.2572  0.2625
  593MOL0     O81699   1.948   9.297   0.228 -0.5804  0.2214  0.1608
  593MOL0     C81700   1.912   9.307   0.101  0.7394 -0.2136 -1.1824
  593MOL0     C81701   1.956   9.408   0.017  0.3971 -0.0111 -0.0998
  593MOL0     C81702   1.911   9.415  -0.114  0.6864  0.0144  1.1315
  593MOL0     C81703   1.819   9.330  -0.166 -0.2502 -0.1248 -0.0755
  593MOL0     O81704   1.779   9.324  -0.294 -0.0103  0.3832  0.3853
  593MOL0     C81705   1.731   9.447  -0.355 -0.4524 -0.1009  0.8529
  593MOL0     C81706   1.580   9.444  -0.338  0.8765  0.7199 -0.0698
  593MOL0     C81707   1.528   9.488  -0.201  0.0697  0.0585 -0.8592
  593MOL0     C81708   1.371   9.502  -0.177 -0.2568  0.2839 -0.0906
  593MOL0     C81709   1.302   9.490  -0.035  0.4743  0.3060 -0.0915
  593MOL0     C81710   1.305   9.638   0.016 -0.2577 -0.9873  0.1805
  593MOL0     C81711   1.204   9.648   0.135  0.3051 -1.3990  0.4516
  593MOL0     C81712   1.239   9.575   0.261  0.8731 -0.4036 -0.1031
  593MOL0     N81713   1.315   9.668   0.344  0.2679  0.2331 -0.6662
  593MOL0     C81714   1.443   9.692   0.339 -0.1008  0.6744 -0.4224
  593MOL0     C81715   1.465   9.779   0.439 -0.6788 -0.1764  0.3475
  593MOL0     C81716   1.592   9.849   0.472  0.6899 -0.0768  0.1719
  593MOL0     C81717   1.602   9.876   0.624  0.6279 -0.2285  0.1367
  593MOL0     C81718   1.733   9.952   0.651 -0.6674 -1.2956  0.2831
  593MOL0     C81719   1.760  10.005   0.794 -0.9838 -0.7088  0.1022
  593MOL0     O81720   1.775   9.892   0.874 -0.3119 -0.1762 -0.1199
  593MOL0     C81721   1.899   9.847   0.902  0.6564 -0.5382  0.6126
  593MOL0     C81722   2.013   9.863   0.818  0.1366  0.5894 -0.5778
  593MOL0     C81723   2.133   9.805   0.848 -0.2710  1.1833  1.1624
  593MOL0     C81724   2.241   9.811   0.749 -0.2132  0.1111 -0.4551
  593MOL0     C81725   2.153   9.736   0.969 -0.2332 -0.2149  0.9831
  593MOL0     C81726   2.286   9.688   1.015  0.2086  0.1015  0.7125
  593MOL0     O81727   2.281   9.597   1.113  0.6969 -0.2909 -0.1034
  593MOL0     C81728   2.401   9.558   1.169  0.2511  0.0387  0.4998
  593MOL0     C81729   2.435   9.605   1.297  0.1728  1.0509 -0.0005
  593MOL0     C81730   2.538   9.542   1.371 -0.3770 -0.1220 -0.3030
  593MOL0     C81731   2.627   9.458   1.298  0.6618 -0.4310  0.0746
  593MOL0     O81732   2.724   9.400   1.375  0.0219  0.3266 -0.0966
  593MOL0     C81733   2.810   9.297   1.330 -1.0460 -0.0883 -0.5660
  593MOL0     C81734   2.933   9.350   1.247 -0.0294 -0.3838  0.6270
  593MOL0     C81735   3.009   9.443   1.343  0.6539  0.4138  0.6013
  593MOL0     C81736   3.168   9.439   1.325 -0.5643  0.1014 -0.2758
  593MOL0     C81737   3.224   9.581   1.357  0.0933  0.5930 -0.3470
  593MOL0     C81738   3.378   9.595   1.357 -0.9257  0.8520 -0.1648
  593MOL0     C81739   3.427   9.732   1.384  0.1948 -0.0678  0.1852
  593MOL0     C81740   3.417   9.769   1.534 -0.6642 -0.0196 -0.3607
  593MOL0    Cl81741   3.422   9.954   1.553  0.6127  0.5433 -0.1370
  593MOL0     C81742   2.591   9.418   1.164 -0.3039 -0.2312 -1.0371
  593MOL0     C81743   2.477   9.461   1.102 -0.2620 -0.1983  0.0016
  593MOL0     O81744   2.382   9.748   0.982 -0.0297 -0.0383 -0.3979
  593MOL0     C81745   2.038   9.716   1.048 -0.2075  0.1693  0.6032
  593MOL0     C81746   1.916   9.773   1.013  0.2512  0.6488 -0.1861
  593MOL0     N81747   1.354   9.804   0.503 -0.3107  0.0329 -0.4027
  593MOL0     N81748   1.263   9.740   0.440  0.3869  1.1750  0.2319
  593MOL0     C81749   1.772   9.235  -0.080  0.3553 -0.0160 -0.0264
  593MOL0     C81750   1.822   9.219   0.050  1.2392 -1.1914  0.7664
  593MOL0     C81751   2.008   9.392   0.447 -0.7642 -0.0515  0.7670
  593MOL0     C81752   2.112   9.302   0.466 -0.6384 -0.1977  1.0755
  593MOL0     C81753   2.179   9.299   0.582 -0.0554  0.2542 -0.3060
  593MOL0     C81754   2.151   9.386   0.692  0.2670  0.4619  0.9689
  593MOL0     O81755   2.237   9.387   0.792  0.0593 -0.6569 -0.5625
  593MOL0     C81756   2.256   9.267   0.877  0.6922 -0.7776 -0.0918
  593MOL0     C81757   2.163   9.263   1.000  0.3711  0.2767 -1.1960
  593MOL0     C81758   2.162   9.118   1.062 -0.5058 -1.3646  0.4330
  593MOL0     C81759   2.079   9.119   1.191  0.5458 -0.8929 -0.2761
  593MOL0     C81760   2.139   9.206   1.289 -0.0336 -0.3965  1.1627
  593MOL0     C81761   2.169   9.288   1.373 -0.1379  0.5437  0.3981
  593MOL0     C81762   2.059   9.489   0.668 -0.3163  0.7506 -0.3899
  593MOL0     C81763   1.989   9.492   0.550 -0.0796 -0.4402  0.4483
  593MOL0     C81764   1.882   9.606   0.555  0.6981  0.8332 -0.2713
  593MOL0     H81765   2.027   9.482   0.054 -2.5077  2.3369  1.2514
  593MOL0     H81766   1.935   9.490  -0.188 -0.6176  1.3710  2.0341
  593MOL0     H81767   1.755   9.448  -0.462 -2.0389 -0.7752  0.4652
  593MOL0     H81768   1.767   9.539  -0.306  1.5163 -0.1703 -0.3710
  593MOL0     H81769   1.536   9.523  -0.400  0.7473  2.7928  2.4663
  593MOL0     H81770   1.535   9.345  -0.350 -1.7658  1.4031  2.8014
  593MOL0     H81771   1.567   9.419  -0.126  2.6443  1.5360 -0.7316
  593MOL0     H81772   1.574   9.584  -0.174 -1.3723  0.4720  0.2414
  593MOL0     H81773   1.335   9.592  -0.227 -0.0516 -0.8084 -2.3464
  593MOL0     H81774   1.321   9.425  -0.236 -0.5690  1.7334 -1.8121
  593MOL0     H81775   1.343   9.407   0.024  2.0510  1.0251 -0.1378
  593MOL0     H81776   1.198   9.465  -0.057 -0.0828  0.5961  1.9576
  593MOL0     H81777   1.405   9.662   0.053 -0.0527  0.6511 -1.3012
  593MOL0     H81778   1.296   9.708  -0.067  1.0044 -1.3900 -0.3324
  593MOL0     H81779   1.105   9.621   0.096 -0.4785  1.9699 -0.2627
  593MOL0     H81780   1.188   9.755   0.150 -3.3076 -1.0132 -3.8023
  593MOL0     H81781   1.142   9.547   0.302  0.8537 -1.8291 -1.0722
  593MOL0     H81782   1.287   9.478   0.246 -1.1462 -1.2833 -1.3306
  593MOL0     H81783   1.518   9.652   0.271 -2.4484 -0.7246 -2.3744
  593MOL0     H81784   1.599   9.948   0.426  2.0426 -0.0869  0.3091
  593MOL0     H81785   1.673   9.784   0.436 -0.8205 -2.2892  0.5690
  593MOL0     H81786   1.515   9.929   0.663  0.1413 -0.4785 -0.5767
  593MOL0     H81787   1.609   9.778   0.672  1.9737 -1.0775 -1.6742
  593MOL0     H81788   1.818   9.892   0.616  3.0562  2.7990  1.3732
  593MOL0     H81789   1.722  10.045   0.594 -0.5500  0.6712  3.2307
  593MOL0     H81790   1.845  10.072   0.795 -0.6387 -1.0799 -1.4071
  593MOL0     H81791   1.673  10.061   0.828 -1.4059 -1.7122  0.7157
  593MOL0     H81792   1.985   9.905   0.722  0.9093  1.6500 -0.3669
  593MOL0     H81793   2.297   9.717   0.752  0.5583  0.5849  0.4673
  593MOL0     H81794   2.307   9.897   0.764  2.6543 -2.3077  2.2845
  593MOL0     H81795   2.195   9.814   0.649 -0.0982  1.0280 -0.4853
  593MOL0     H81796   2.363   9.670   1.346 -0.5356  0.7082 -0.5800
  593MOL0     H81797   2.551   9.570   1.475  1.7616 -0.5099 -0.4279
  593MOL0     H81798   2.845   9.244   1.420  1.7186  1.7983 -0.3999
  593MOL0     H81799   2.760   9.230   1.260  1.3273 -1.3686 -1.1677
  593MOL0     H81800   2.997   9.266   1.218 -0.3315  0.1946 -1.9870
  593MOL0     H81801   2.899   9.410   1.162 -0.7864 -0.3350  0.9586
  593MOL0     H81802   2.984   9.424   1.447 -0.6958 -0.3623  0.1577
  593MOL0     H81803   2.970   9.545   1.329  0.3673  0.4015  1.2735
  593MOL0     H81804   3.192   9.414   1.221 -1.5463  0.1281 -0.5198
  593MOL0     H81805   3.200   9.360   1.392 -3.9668  0.2670  1.8013
  593MOL0     H81806   3.174   9.647   1.287 -2.5230  1.2162  1.9258
  593MOL0     H81807   3.188   9.594   1.460  0.7836 -2.8071  0.4653
  593MOL0     H81808   3.416   9.586   1.255  2.2610  4.5903  0.4662
  593MOL0     H81809   3.412   9.522   1.430 -1.8005 -1.2464 -1.7364
  593MOL0     H81810   3.361   9.797   1.326  2.6719  2.7749  0.3040
  593MOL0     H81811   3.528   9.745   1.343 -0.0577  4.9683  0.5089
  593MOL0     H81812   3.498   9.717   1.585 -1.1618 -1.9506 -1.4456
  593MOL0     H81813   3.325   9.739   1.585 -0.3945  4.3460  3.3009
  593MOL0     H81814   2.655   9.341   1.120 -1.2942 -0.1582 -2.6724
  593MOL0     H81815   2.459   9.426   1.000  0.0909 -0.1290 -0.0866
  593MOL0     H81816   2.052   9.661   1.140 -2.4509  0.6324  1.2697
  593MOL0     H81817   1.830   9.754   1.075  0.6247 -1.1614 -0.1497
  593MOL0     H81818   1.706   9.162  -0.127 -1.6394  1.6178  0.0868
  593MOL0     H81819   1.796   9.136   0.115  0.6991 -2.7341 -1.3066
  593MOL0     H81820   2.121   9.219   0.397 -0.8990 -1.2202  2.2536
  593MOL0     H81821   2.258   9.224   0.585 -2.4881 -2.5616 -1.2240
  593MOL0     H81822   2.237   9.170   0.830  1.1246 -1.6948  1.5421
  593MOL0     H81823   2.360   9.267   0.911 -0.0214 -0.5793  2.2473
  593MOL0     H81824   2.062   9.286   0.967 -0.2471 -2.9612 -1.8358
  593MOL0     H81825   2.201   9.331   1.077  1.3655  0.1046 -1.5133
  593MOL0     H81826   2.102   9.047   1.003  2.4237 -2.8294 -1.0373
  593MOL0     H81827   2.264   9.081   1.077  1.0701  2.2349 -0.4666
  593MOL0     H81828   2.067   9.019   1.234  1.8089 -0.6921  0.5835
  593MOL0     H81829   1.975   9.147   1.169 -0.0172 -3.1834 -0.8582
  593MOL0     H81830   2.192   9.354   1.454  1.9420 -0.2524  0.5212
  593MOL0     H81831   2.050   9.561   0.749 -0.1277  0.3807 -0.0401
  593MOL0     H81832   1.923   9.692   0.501  0.5479 -1.0613 -3.6969
  593MOL0     H81833   1.789   9.579   0.504 -0.3447  0.8395  1.5421
  593MOL0     H81834   1.846   9.634   0.654 -1.1120 -2.6692  0.2162
  594MOL0     O81835   8.949   0.573   1.235 -0.3635 -0.0527  0.0877
  594MOL0     C81836   8.919   0.531   1.123 -0.2560  0.0540  0.3879
  594MOL0     O81837   8.974   0.417   1.056 -0.6303  0.0410 -0.1865
  594MOL0     C81838   9.044   0.318   1.118  0.8436  0.4917  0.4528
  594MOL0     C81839   9.107   0.242   1.029 -0.4135  0.7051  0.0313
  594MOL0     C81840   9.181   0.132   1.069 -0.5986  0.4607  0.1284
  594MOL0     C81841   9.191   0.105   1.204 -0.3586  0.3667  0.2315
  594MOL0     O81842   9.256  -0.010   1.243  0.3971 -1.3191  0.0994
  594MOL0     C81843   9.212  -0.135   1.183 -0.3915  1.1763  0.3922
  594MOL0     C81844   9.245  -0.246   1.282  0.2570 -0.9223  0.4089
  594MOL0     C81845   9.166  -0.224   1.417 -0.4317  0.3309 -0.1477
  594MOL0     C81846   9.208  -0.333   1.517  0.1590 -0.1514  0.6061
  594MOL0     C81847   9.164  -0.309   1.661 -0.5472  0.0267 -0.0338
  594MOL0     C81848   9.225  -0.180   1.716 -0.5376 -0.4462 -1.2180
  594MOL0     C81849   9.381  -0.200   1.744  0.2646 -0.0214  0.1557
  594MOL0     C81850   9.419  -0.188   1.887  0.6703  1.0536 -1.4624
  594MOL0     N81851   9.366  -0.305   1.961 -0.0178  0.0358 -0.3228
  594MOL0     C81852   9.431  -0.425   1.979 -0.7942 -0.0531 -0.0216
  594MOL0     C81853   9.342  -0.522   2.007 -0.1174  0.2739  0.2374
  594MOL0     C81854   9.349  -0.674   2.012  0.0111  0.2686  0.0186
  594MOL0     C81855   9.488  -0.725   2.044  0.1321  0.0052 -0.4501
  594MOL0     C81856   9.546  -0.684   2.179  0.1584 -0.0656  0.4748
  594MOL0     C81857   9.469  -0.738   2.301  0.3410 -0.4847  0.1063
  594MOL0     O81858   9.530  -0.703   2.428 -0.2096 -0.1069 -0.6877
  594MOL0     C81859   9.522  -0.581   2.473  0.4826 -0.4360 -1.1643
  594MOL0     C81860   9.414  -0.484   2.459  1.0162  0.1620 -0.3414
  594MOL0     C81861   9.424  -0.356   2.512 -0.4473  0.2562 -0.0154
  594MOL0     C81862   9.290  -0.275   2.507 -0.7284 -0.3709  0.5026
  594MOL0     C81863   9.544  -0.308   2.566 -0.8702 -0.4860  0.5758
  594MOL0     C81864   9.572  -0.174   2.598  0.4036 -0.4399 -0.5726
  594MOL0     O81865   9.684  -0.120   2.535 -0.7328  0.4383  0.1224
  594MOL0     C81866   9.726   0.009   2.569 -0.5038 -0.6021  0.0278
  594MOL0     C81867   9.712   0.122   2.491  0.9852  0.6722 -0.0284
  594MOL0     C81868   9.752   0.253   2.544 -0.2153 -0.6428  0.3180
  594MOL0     C81869   9.816   0.260   2.663 -1.1379 -0.0766 -0.2440
  594MOL0     O81870   9.848   0.389   2.699  0.3471  0.0967 -0.4033
  594MOL0     C81871   9.961   0.392   2.788 -0.2545  0.2417 -0.4692
  594MOL0     C81872  10.017   0.538   2.775  0.5689  0.1935 -0.0359
  594MOL0     C81873  10.094   0.568   2.640  0.1671 -0.2376 -0.4749
  594MOL0     C81874  10.165   0.696   2.661 -0.8061  0.7192  0.5892
  594MOL0     C81875  10.269   0.714   2.542 -0.2001  0.0039 -0.8118
  594MOL0     C81876  10.222   0.749   2.400 -1.1666  0.1154 -0.3612
  594MOL0     C81877  10.136   0.877   2.404  0.2938 -0.1051 -0.2904
  594MOL0     C81878  10.091   0.915   2.257 -0.1784  0.9350  0.6838
  594MOL0    Cl81879   9.950   1.018   2.250  0.1311  0.2940 -0.2831
  594MOL0     C81880   9.845   0.146   2.729 -0.1461 -0.2272 -0.5246
  594MOL0     C81881   9.815   0.018   2.678 -0.4216  0.0733 -0.1214
  594MOL0     O81882   9.500  -0.111   2.677  0.1989  0.6322 -0.1992
  594MOL0     C81883   9.643  -0.400   2.586 -0.4947  1.3801 -0.0682
  594MOL0     C81884   9.632  -0.537   2.553 -0.2371 -0.1253  0.5549
  594MOL0     N81885   9.218  -0.455   2.013 -0.6242 -0.7182  0.1090
  594MOL0     N81886   9.233  -0.325   1.988  0.2439  0.4228 -0.1502
  594MOL0     C81887   9.141   0.191   1.303  1.0023  0.6599 -0.2848
  594MOL0     C81888   9.062   0.301   1.256 -1.1245  0.2509  0.4492
  594MOL0     C81889   8.806   0.593   1.056  1.3141 -0.5571 -0.1281
  594MOL0     C81890   8.748   0.522   0.948 -0.1177  1.1222  1.3166
  594MOL0     C81891   8.635   0.573   0.876 -0.2716 -0.8662  1.1728
  594MOL0     C81892   8.573   0.686   0.921 -0.4242  0.9410 -0.5268
  594MOL0     O81893   8.467   0.746   0.864 -0.0180  0.3140 -0.1249
  594MOL0     C81894   8.383   0.676   0.770 -0.5414  0.2746  0.9726
  594MOL0     C81895   8.434   0.699   0.631  0.4019  0.5470 -0.5756
  594MOL0     C81896   8.460   0.847   0.604  0.1991 -0.1967  1.1829
  594MOL0     C81897   8.517   0.882   0.462  0.6964 -0.8772  0.6454
  594MOL0     C81898   8.662   0.845   0.449  0.9482 -0.7007 -0.1071
  594MOL0     C81899   8.780   0.826   0.424 -0.5510  0.2760 -0.2530
  594MOL0     C81900   8.628   0.762   1.030 -0.0640 -0.2817  0.2160
  594MOL0     C81901   8.748   0.722   1.099 -0.2193  0.1605  0.9264
  594MOL0     C81902   8.807   0.819   1.198 -0.0129  0.5494  0.2273
  594MOL0     H81903   9.095   0.240   0.921  2.2277 -2.1781 -0.3307
  594MOL0     H81904   9.238   0.072   0.998 -0.8238 -1.8183  1.7564
  594MOL0     H81905   9.272  -0.164   1.096  1.5668 -1.4816  2.4630
  594MOL0     H81906   9.104  -0.133   1.171 -0.5176 -1.3479  0.7025
  594MOL0     H81907   9.207  -0.329   1.222 -0.3364  1.3813 -2.6252
  594MOL0     H81908   9.352  -0.245   1.304 -0.2260  0.3223  3.1703
  594MOL0     H81909   9.193  -0.123   1.448 -0.5899  0.5665 -0.7675
  594MOL0     H81910   9.058  -0.221   1.399 -0.9236 -5.2306  0.2225
  594MOL0     H81911   9.177  -0.431   1.481  0.0389  0.5129 -1.2007
  594MOL0     H81912   9.316  -0.349   1.514  0.1710  0.0554 -1.9702
  594MOL0     H81913   9.169  -0.389   1.735 -0.9865  0.6662  0.6955
  594MOL0     H81914   9.057  -0.291   1.653 -0.4887  0.4421  0.0666
  594MOL0     H81915   9.210  -0.094   1.651 -1.2007  1.6561  1.5124
  594MOL0     H81916   9.175  -0.158   1.811  3.8143 -0.7092  1.4651
  594MOL0     H81917   9.419  -0.115   1.686 -0.0874 -0.5452 -0.8672
  594MOL0     H81918   9.422  -0.291   1.701 -0.6287 -0.7382  0.7846
  594MOL0     H81919   9.526  -0.178   1.907  1.1785 -3.8070 -0.5772
  594MOL0     H81920   9.356  -0.115   1.939  0.4655 -1.6589  2.4958
  594MOL0     H81921   9.538  -0.441   1.965 -0.6928  0.7081 -0.1390
  594MOL0     H81922   9.313  -0.724   1.922  2.7525 -1.5275 -0.1862
  594MOL0     H81923   9.293  -0.717   2.095 -2.7966  1.6762 -1.0272
  594MOL0     H81924   9.499  -0.833   2.034  2.4372  0.3143 -2.4205
  594MOL0     H81925   9.547  -0.687   1.960  0.6049  0.3978  0.0495
  594MOL0     H81926   9.648  -0.721   2.194 -1.1149 -3.1346  2.8434
  594MOL0     H81927   9.538  -0.575   2.182 -1.6055 -0.0591 -1.7496
  594MOL0     H81928   9.363  -0.711   2.300  0.7910  1.6362  1.9533
  594MOL0     H81929   9.480  -0.846   2.309  1.3610 -0.3537  0.6666
  594MOL0     H81930   9.318  -0.522   2.426 -0.1996 -0.0715  3.0984
  594MOL0     H81931   9.200  -0.327   2.543 -1.3845 -1.7506 -2.7456
  594MOL0     H81932   9.264  -0.265   2.401  0.7056 -2.1475 -0.0601
  594MOL0     H81933   9.302  -0.180   2.559  2.4255 -1.4488  1.9893
  594MOL0     H81934   9.666   0.114   2.393  0.4643 -0.0625  0.2699
  594MOL0     H81935   9.755   0.344   2.486  3.2144 -1.5289 -1.1518
  594MOL0     H81936   9.923   0.395   2.891 -2.2247  1.6926 -1.1731
  594MOL0     H81937  10.038   0.317   2.768 -0.3937 -0.6053  1.8260
  594MOL0     H81938   9.929   0.602   2.779 -0.3256 -1.0513  0.8836
  594MOL0     H81939  10.086   0.562   2.856  0.9104  0.4182 -0.3843
  594MOL0     H81940  10.010   0.578   2.570 -0.6909  2.2542  0.7755
  594MOL0     H81941  10.151   0.482   2.604  1.7344  1.0040 -1.0838
  594MOL0     H81942  10.217   0.691   2.757  1.3719 -2.0138 -0.5641
  594MOL0     H81943  10.089   0.773   2.672 -2.0329 -0.5647  1.4702
  594MOL0     H81944  10.342   0.792   2.564  0.8081 -0.2648 -2.9605
  594MOL0     H81945  10.319   0.617   2.536  1.2654  0.8042 -2.3677
  594MOL0     H81946  10.170   0.670   2.346  0.1143 -0.9842 -0.0364
  594MOL0     H81947  10.317   0.773   2.351  1.2066  0.6573  3.9213
  594MOL0     H81948  10.187   0.959   2.456  0.3236 -1.4729  1.9481
  594MOL0     H81949  10.044   0.853   2.458  0.3887 -3.2634 -1.3502
  594MOL0     H81950  10.054   0.823   2.212 -0.9514  0.0679  2.9335
  594MOL0     H81951  10.181   0.948   2.204 -0.1346 -0.6735 -0.3055
  594MOL0     H81952   9.890   0.145   2.828 -0.5666 -1.3681 -0.3422
  594MOL0     H81953   9.832  -0.079   2.724  1.9271  0.1475 -0.7504
  594MOL0     H81954   9.743  -0.361   2.604 -0.0354  1.2301 -2.0848
  594MOL0     H81955   9.723  -0.596   2.559 -1.4973 -2.9711 -3.5231
  594MOL0     H81956   9.163   0.171   1.407 -1.7148 -0.5209  0.1482
  594MOL0     H81957   9.022   0.374   1.326 -0.9149 -0.2331  1.0874
  594MOL0     H81958   8.790   0.427   0.920 -0.1890  0.3027  3.7356
  594MOL0     H81959   8.591   0.521   0.792 -0.2254 -1.5217  1.5490
  594MOL0     H81960   8.366   0.570   0.791  0.8828  0.2744  2.3122
  594MOL0     H81961   8.288   0.729   0.758 -1.1280 -0.4100  2.3802
  594MOL0     H81962   8.365   0.652   0.559  2.8754 -0.8546 -2.1777
  594MOL0     H81963   8.528   0.649   0.609 -0.1032 -0.7171  0.0367
  594MOL0     H81964   8.370   0.906   0.626  0.0006 -0.1076  0.2045
  594MOL0     H81965   8.534   0.887   0.672 -0.7427  1.9571  1.0235
  594MOL0     H81966   8.496   0.989   0.460 -1.1594 -1.1464  2.3347
  594MOL0     H81967   8.462   0.831   0.383  0.2624 -1.1858  1.1358
  594MOL0     H81968   8.883   0.820   0.398  0.3955 -0.1178  3.1236
  594MOL0     H81969   8.594   0.862   1.057  0.6390 -0.6111  2.6007
  594MOL0     H81970   8.774   0.795   1.299 -3.2222 -0.0539 -0.8373
  594MOL0     H81971   8.916   0.823   1.203 -0.0371  0.5171  0.8134
  594MOL0     H81972   8.779   0.921   1.172  0.7196  0.3472 -1.5553
  595MOL0     O81973   3.074   2.449  10.794 -0.2171  0.2016 -0.4062
  595MOL0     C81974   3.179   2.494  10.830  0.6296 -1.3505  0.4115
  595MOL0     O81975   3.299   2.444  10.782 -0.4024  0.4693  0.4569
  595MOL0     C81976   3.307   2.328  10.695 -0.3415  0.6518  0.0884
  595MOL0     C81977   3.224   2.219  10.708 -0.9908 -0.0546  0.2124
  595MOL0     C81978   3.233   2.106  10.627  0.5766 -0.2043 -0.1468
  595MOL0     C81979   3.301   2.112  10.508 -0.6112 -1.5776  0.3462
  595MOL0     O81980   3.302   2.028  10.400 -0.1059  0.0601  0.3718
  595MOL0     C81981   3.204   1.924  10.414  0.2773 -0.0624 -0.7322
  595MOL0     C81982   3.234   1.817  10.316 -0.4212  0.1404  0.5474
  595MOL0     C81983   3.226   1.862  10.168  0.1725  0.3169 -0.0254
  595MOL0     C81984   3.226   1.737  10.068  0.5184 -0.2549  0.6682
  595MOL0     C81985   3.248   1.774   9.926 -0.2268  0.4094 -0.4920
  595MOL0     C81986   3.400   1.816   9.900  0.9361  0.2710  0.6017
  595MOL0     C81987   3.428   1.896   9.774  0.3001 -0.3323  0.0427
  595MOL0     C81988   3.511   1.821   9.671 -0.0155  0.1117 -0.2777
  595MOL0     N81989   3.662   1.824   9.692 -0.0005  0.2645  0.4480
  595MOL0     C81990   3.721   1.833   9.812 -0.2169  0.2198  0.2855
  595MOL0     C81991   3.859   1.824   9.787  0.1646 -0.1311  0.4127
  595MOL0     C81992   3.957   1.796   9.902 -0.2790 -0.1135  0.1322
  595MOL0     C81993   4.005   1.921   9.976  0.5511 -0.2846  0.2553
  595MOL0     C81994   4.099   1.885  10.086 -0.1704  0.0380 -0.5288
  595MOL0     C81995   4.192   2.004  10.105 -0.0999 -0.7673 -0.3109
  595MOL0     O81996   4.311   1.968  10.173  0.1995  0.3986 -0.1034
  595MOL0     C81997   4.412   2.054  10.202 -0.6449 -0.1610  0.3935
  595MOL0     C81998   4.538   2.004  10.240  0.0752  0.3790 -0.0781
  595MOL0     C81999   4.657   2.087  10.256 -0.6900 -0.5808 -0.3075
  595MOL0     C82000   4.794   2.023  10.273 -0.4171 -0.7956  0.1057
  595MOL0     C82001   4.635   2.228  10.254  0.3818 -0.1821  0.3688
  595MOL0     C82002   4.738   2.337  10.283 -0.5558 -0.3352  0.0418
  595MOL0     O82003   4.691   2.455  10.334  0.5960  0.1820 -0.4433
  595MOL0     C82004   4.785   2.553  10.361  0.4720  0.5038 -0.1040
  595MOL0     C82005   4.838   2.541  10.489 -0.5989  0.6642 -0.7129
  595MOL0     C82006   4.942   2.633  10.529  0.8697  0.3048  0.2605
  595MOL0     C82007   4.992   2.722  10.434 -0.0919 -0.7649  0.2867
  595MOL0     O82008   5.102   2.787  10.471 -0.7793 -0.7128  0.5967
  595MOL0     C82009   5.235   2.734  10.449  0.4979  0.3061 -0.3003
  595MOL0     C82010   5.334   2.823  10.523  0.1601  0.5553 -0.2466
  595MOL0     C82011   5.472   2.779  10.481 -0.0698 -0.1040  1.3709
  595MOL0     C82012   5.581   2.872  10.511  0.7962  0.3096 -0.5971
  595MOL0     C82013   5.722   2.803  10.506  0.4640 -0.0971 -0.1616
  595MOL0     C82014   5.777   2.776  10.365  0.2230  0.2079 -0.3340
  595MOL0     C82015   5.931   2.735  10.360 -0.0625 -0.1726  0.1850
  595MOL0     C82016   6.004   2.842  10.282  0.2506 -0.4300  0.4245
  595MOL0    Cl82017   5.962   2.849  10.110 -0.2434  0.0219 -0.1022
  595MOL0     C82018   4.930   2.734  10.310 -0.2639 -0.1971  0.1607
  595MOL0     C82019   4.828   2.643  10.270  0.7393  0.2397 -0.2105
  595MOL0     O82020   4.857   2.306  10.270 -0.0850  0.2530  0.8356
  595MOL0     C82021   4.502   2.276  10.217  0.0743  0.5350  0.4170
  595MOL0     C82022   4.403   2.188  10.179  0.4728 -0.1897  0.0791
  595MOL0     N82023   3.878   1.818   9.652 -0.8010  0.0562  0.0307
  595MOL0     N82024   3.764   1.815   9.599 -0.3047  0.3582  0.3624
  595MOL0     C82025   3.394   2.223  10.495  1.1222 -0.7875  0.5132
  595MOL0     C82026   3.402   2.332  10.593  0.7957 -0.2413  0.6256
  595MOL0     C82027   3.177   2.624  10.908 -0.6467 -0.7567 -1.0778
  595MOL0     C82028   3.281   2.643  11.007 -0.6807 -0.0885 -0.0653
  595MOL0     C82029   3.281   2.762  11.078 -0.2792 -0.0485  0.5424
  595MOL0     C82030   3.186   2.865  11.065 -0.2499  1.1271 -0.7304
  595MOL0     O82031   3.198   2.979  11.143 -0.1658 -0.0906 -0.6016
  595MOL0     C82032   3.130   3.097  11.101  0.6393 -1.2187  1.0482
  595MOL0     C82033   3.196   3.222  11.162 -0.2764  0.3604  0.5592
  595MOL0     C82034   3.131   3.343  11.101 -0.2209  0.2724 -0.1244
  595MOL0     C82035   3.155   3.457  11.199 -1.1587 -0.2338 -0.4913
  595MOL0     C82036   3.150   3.593  11.148 -0.5092  0.2407  0.5466
  595MOL0     C82037   3.147   3.714  11.143  0.3848 -0.7729  0.1551
  595MOL0     C82038   3.084   2.845  10.971 -0.4027 -0.7577  0.6283
  595MOL0     C82039   3.076   2.726  10.894 -0.5922  0.2545  0.0062
  595MOL0     C82040   2.972   2.733  10.782  0.2193 -0.0431 -0.2037
  595MOL0     H82041   3.134   2.220  10.770 -1.3068 -3.2520 -0.0260
  595MOL0     H82042   3.154   2.032  10.632  0.6307 -1.0660 -5.7669
  595MOL0     H82043   3.103   1.966  10.407  0.9167  1.8368  0.7186
  595MOL0     H82044   3.215   1.875  10.511  1.5710  2.0528  0.2632
  595MOL0     H82045   3.342   1.798  10.324 -0.6163 -1.4565 -0.2219
  595MOL0     H82046   3.169   1.731  10.336 -0.6020  0.6252  2.2377
  595MOL0     H82047   3.137   1.921  10.144 -3.9421 -4.8666  0.5516
  595MOL0     H82048   3.302   1.938  10.147 -1.1535  1.5623 -0.4539
  595MOL0     H82049   3.308   1.667  10.082  0.8639  0.2214  1.0842
  595MOL0     H82050   3.125   1.697  10.081 -0.6296  2.2883  0.1332
  595MOL0     H82051   3.171   1.848   9.904 -0.5256  0.7344  1.4197
  595MOL0     H82052   3.230   1.685   9.865 -0.1716 -0.0455  0.1383
  595MOL0     H82053   3.442   1.882   9.976 -0.9990 -0.9618  2.8852
  595MOL0     H82054   3.458   1.724   9.889 -0.0818 -0.3279 -0.0156
  595MOL0     H82055   3.484   1.989   9.787  1.6292 -0.9234 -1.2336
  595MOL0     H82056   3.336   1.926   9.723  1.8416 -0.5410 -3.0762
  595MOL0     H82057   3.483   1.715   9.664 -2.3396  0.7760 -2.6752
  595MOL0     H82058   3.491   1.863   9.572  1.0134  0.8501 -0.1878
  595MOL0     H82059   3.669   1.846   9.906  0.4424 -1.7089  0.9629
  595MOL0     H82060   4.044   1.751   9.853 -1.5322 -1.8855 -0.5638
  595MOL0     H82061   3.918   1.716   9.965  1.1797 -1.4384 -0.5967
  595MOL0     H82062   4.078   1.971   9.912  2.5249  0.7408  3.0824
  595MOL0     H82063   3.928   1.992  10.010  0.4469 -0.3424  0.1405
  595MOL0     H82064   4.050   1.870  10.183  1.8686  2.8750  1.0593
  595MOL0     H82065   4.166   1.802  10.062  0.1438  0.5101 -1.3562
  595MOL0     H82066   4.220   2.052  10.010 -1.4518 -0.3686 -0.5379
  595MOL0     H82067   4.143   2.085  10.160 -0.1807 -1.5773  0.8462
  595MOL0     H82068   4.548   1.897  10.256 -0.1282  0.2606 -0.6949
  595MOL0     H82069   4.834   2.055  10.370  2.3757 -2.2414 -0.4819
  595MOL0     H82070   4.866   2.050  10.195 -1.0651 -1.1415 -0.6276
  595MOL0     H82071   4.787   1.915  10.284  0.9968 -1.4919 -4.1200
  595MOL0     H82072   4.814   2.454  10.549  2.6696  1.5073  2.1645
  595MOL0     H82073   4.988   2.639  10.627  1.0461  0.2443  0.1822
  595MOL0     H82074   5.237   2.633  10.489 -2.4937  0.2642 -0.0033
  595MOL0     H82075   5.237   2.727  10.340 -5.8510 -2.2035 -0.7209
  595MOL0     H82076   5.319   2.928  10.495  0.3710  1.2651  2.1195
  595MOL0     H82077   5.312   2.807  10.629 -4.1432 -0.6272 -1.0962
  595MOL0     H82078   5.469   2.771  10.372 -2.5493 -1.4580  1.4607
  595MOL0     H82079   5.491   2.687  10.538  0.7805 -0.5191  0.4491
  595MOL0     H82080   5.580   2.927  10.606  3.3328  1.7610 -1.2967
  595MOL0     H82081   5.574   2.950  10.434 -1.4285 -1.7092 -2.6236
  595MOL0     H82082   5.785   2.878  10.555 -1.9986  1.5810  0.6466
  595MOL0     H82083   5.717   2.718  10.574 -1.3714  2.1627  2.7815
  595MOL0     H82084   5.765   2.865  10.304 -0.3020 -1.0199 -2.1018
  595MOL0     H82085   5.716   2.702  10.313 -0.2690 -1.4563  2.4206
  595MOL0     H82086   5.948   2.641  10.306 -0.2974  0.4495 -1.0020
  595MOL0     H82087   5.977   2.730  10.459 -0.1515  3.6955  0.5518
  595MOL0     H82088   6.112   2.829  10.294  0.2431 -0.7821  0.0878
  595MOL0     H82089   5.984   2.934  10.338 -0.5810 -0.8470  0.8289
  595MOL0     H82090   4.985   2.810  10.256  0.2182  1.1001  2.3450
  595MOL0     H82091   4.764   2.645  10.182  0.3604  0.4206  0.0661
  595MOL0     H82092   4.483   2.382  10.202 -0.1152  0.3025 -1.2661
  595MOL0     H82093   4.309   2.228  10.141  1.4949 -0.6423 -3.2635
  595MOL0     H82094   3.464   2.212  10.413 -1.8143  1.9945 -2.6891
  595MOL0     H82095   3.462   2.421  10.583 -0.1421  0.3369 -0.0479
  595MOL0     H82096   3.354   2.564  11.021  0.6126  1.1929  0.6258
  595MOL0     H82097   3.366   2.765  11.146 -0.6795 -0.0019  1.0414
  595MOL0     H82098   3.138   3.098  10.992  1.7964  0.0973  1.1266
  595MOL0     H82099   3.027   3.081  11.134  1.3118  0.1996  4.2357
  595MOL0     H82100   3.303   3.220  11.137 -0.7264  3.0468 -2.2436
  595MOL0     H82101   3.183   3.218  11.270 -0.0130  3.1145  0.7673
  595MOL0     H82102   3.178   3.370  11.006  0.3722  0.0704  0.1023
  595MOL0     H82103   3.024   3.325  11.092 -0.4139  1.9701 -2.0081
  595MOL0     H82104   3.257   3.442  11.235 -0.4946  4.4110  0.1152
  595MOL0     H82105   3.087   3.452  11.284  0.4693 -0.0789  0.8623
  595MOL0     H82106   3.145   3.821  11.149  0.0782 -0.6699 -1.3366
  595MOL0     H82107   3.023   2.932  10.949 -0.2562 -0.9242 -0.4782
  595MOL0     H82108   2.906   2.820  10.782  0.8005  0.4233  1.0786
  595MOL0     H82109   3.015   2.720  10.683  0.4648  2.6245 -0.5071
  595MOL0     H82110   2.893   2.657  10.784  2.6773 -2.9225 -2.9213
  596MOL0     O82111   1.034   8.194   9.785 -0.9427 -0.7367  0.1484
  596MOL0     C82112   1.098   8.179   9.688 -0.3558  0.2739  0.6010
  596MOL0     O82113   1.112   8.273   9.586 -0.9118 -0.3564 -0.3940
  596MOL0     C82114   1.061   8.396   9.602  0.0425 -0.4125 -0.1116
  596MOL0     C82115   0.985   8.451   9.503  0.0214  0.9873  0.9934
  596MOL0     C82116   0.944   8.586   9.498 -0.6795  1.2979  0.4548
  596MOL0     C82117   0.999   8.673   9.598  0.5630 -0.8972  0.6633
  596MOL0     O82118   0.979   8.810   9.589 -0.3018  0.9218  0.7511
  596MOL0     C82119   0.946   8.860   9.460 -0.7569  0.1219 -0.6990
  596MOL0     C82120   0.969   9.013   9.444  0.7736  0.0177  0.4931
  596MOL0     C82121   0.834   9.082   9.455  0.4886  0.1755 -0.3577
  596MOL0     C82122   0.850   9.197   9.553 -0.4441  0.3526 -1.1214
  596MOL0     C82123   0.714   9.262   9.586  0.0554  0.5243  0.3834
  596MOL0     C82124   0.634   9.318   9.460  0.9692 -0.5343 -0.0580
  596MOL0     C82125   0.487   9.328   9.515 -0.6922  0.1929 -1.7496
  596MOL0     C82126   0.410   9.202   9.557 -0.4066  0.2985 -0.7951
  596MOL0     N82127   0.385   9.113   9.447 -0.0631 -0.1669 -0.3211
  596MOL0     C82128   0.278   9.119   9.355 -0.3084  0.1700 -0.3542
  596MOL0     C82129   0.278   8.993   9.298 -0.3031 -0.9030 -0.4626
  596MOL0     C82130   0.184   8.945   9.188 -0.3538  0.0157  0.6435
  596MOL0     C82131   0.138   9.033   9.069 -0.5533  0.4039  0.1609
  596MOL0     C82132   0.232   9.023   8.950  0.2749  0.3742  0.0491
  596MOL0     C82133   0.178   8.936   8.848  0.5390  0.2713 -0.4807
  596MOL0     O82134   0.270   8.936   8.748  0.3710 -1.2022  0.4244
  596MOL0     C82135   0.270   8.831   8.663 -0.4721 -0.0388  0.2423
  596MOL0     C82136   0.376   8.806   8.584 -0.3154  0.8258  0.4857
  596MOL0     C82137   0.388   8.690   8.501  0.1067  1.4112  0.9204
  596MOL0     C82138   0.494   8.687   8.386  0.5614  0.8679 -0.3001
  596MOL0     C82139   0.274   8.599   8.502  0.0679  0.3261  0.3914
  596MOL0     C82140   0.281   8.477   8.418  0.3992 -0.3631  1.5573
  596MOL0     O82141   0.171   8.462   8.340  0.7224 -0.5707  0.8097
  596MOL0     C82142   0.170   8.364   8.247  0.3167 -0.6031 -0.8230
  596MOL0     C82143   0.244   8.365   8.128 -0.3266  0.1050  0.1510
  596MOL0     C82144   0.248   8.255   8.044 -0.5690  0.9885 -0.8861
  596MOL0     C82145   0.168   8.146   8.075  0.7709 -0.1608  0.1765
  596MOL0     O82146   0.177   8.041   7.986  0.4523  0.5322 -0.5646
  596MOL0     C82147   0.063   7.966   7.960  0.2750 -0.0777 -0.3663
  596MOL0     C82148   0.032   7.955   7.807  0.0871 -0.0464  0.1919
  596MOL0     C82149   0.023   8.089   7.738 -0.1672 -0.3048 -0.4829
  596MOL0     C82150  -0.058   8.062   7.607 -0.6878 -0.2022 -0.7435
  596MOL0     C82151  -0.046   8.186   7.503  0.2882 -0.1266 -0.4701
  596MOL0     C82152  -0.154   8.292   7.558 -0.3239 -0.6382 -0.2385
  596MOL0     C82153  -0.197   8.398   7.461 -0.0240 -0.9808 -0.1092
  596MOL0     C82154  -0.317   8.479   7.510 -0.7994  0.3088  0.0084
  596MOL0    Cl82155  -0.261   8.566   7.649  0.0340 -0.2763 -0.2089
  596MOL0     C82156   0.089   8.145   8.187 -0.1656 -0.1695 -0.0626
  596MOL0     C82157   0.088   8.256   8.270 -0.2540 -0.1195  0.0054
  596MOL0     O82158   0.368   8.402   8.432  0.0710 -0.2783 -0.6075
  596MOL0     C82159   0.156   8.629   8.574 -0.2309 -0.3111 -0.4174
  596MOL0     C82160   0.161   8.740   8.660  0.1874  0.2175  0.0114
  596MOL0     N82161   0.387   8.927   9.352 -0.9165  0.5300  0.9011
  596MOL0     N82162   0.444   8.991   9.443  0.4794  0.2440 -0.5047
  596MOL0     C82163   1.069   8.623   9.705  0.6766 -0.8502  0.6696
  596MOL0     C82164   1.100   8.484   9.700 -1.3746 -0.1402 -0.5052
  596MOL0     C82165   1.173   8.044   9.676  0.1809 -0.2257 -0.0925
  596MOL0     C82166   1.168   7.954   9.792  0.6529  0.1148  0.0901
  596MOL0     C82167   1.253   7.851   9.802  0.7125 -0.7038  0.3092
  596MOL0     C82168   1.329   7.815   9.690 -0.5772  0.8132  0.0256
  596MOL0     O82169   1.394   7.698   9.689  0.1092 -0.3462  0.0094
  596MOL0     C82170   1.313   7.604   9.622 -0.9654  0.3530  0.2934
  596MOL0     C82171   1.387   7.462   9.634  0.1646  0.1339  0.4808
  596MOL0     C82172   1.315   7.348   9.558  0.2356  0.2979 -0.0688
  596MOL0     C82173   1.211   7.283   9.654  0.0387  0.3037  0.4582
  596MOL0     C82174   1.134   7.186   9.572 -0.5062  0.4973  0.3647
  596MOL0     C82175   1.063   7.121   9.507  0.1623 -0.4837  0.1210
  596MOL0     C82176   1.326   7.888   9.576 -1.0205  0.5330  0.3529
  596MOL0     C82177   1.258   8.008   9.565  0.4956  0.4303 -0.0109
  596MOL0     C82178   1.274   8.073   9.436 -0.1603  0.2154 -0.2335
  596MOL0     H82179   0.946   8.384   9.427 -0.1438 -1.0298  2.7420
  596MOL0     H82180   0.878   8.610   9.416  1.6673 -1.2892 -2.4510
  596MOL0     H82181   0.844   8.840   9.425 -1.9343  3.6913  0.2272
  596MOL0     H82182   1.014   8.818   9.385  0.4276  2.4452 -1.0233
  596MOL0     H82183   1.045   9.056   9.511  4.0410 -1.5101 -1.9428
  596MOL0     H82184   1.008   9.025   9.343 -0.5239 -0.3330 -0.0660
  596MOL0     H82185   0.817   9.134   9.361 -1.0717  1.1497  0.4184
  596MOL0     H82186   0.752   9.014   9.479 -0.0208 -0.2985 -3.1373
  596MOL0     H82187   0.899   9.172   9.647  1.0796  2.2513 -1.3687
  596MOL0     H82188   0.916   9.274   9.512 -0.5261  1.6412  0.9825
  596MOL0     H82189   0.720   9.334   9.668 -0.8561  1.1430 -0.0852
  596MOL0     H82190   0.669   9.175   9.636  0.8277 -0.7102 -0.9850
  596MOL0     H82191   0.678   9.412   9.425  2.5115 -1.5711 -1.0209
  596MOL0     H82192   0.640   9.255   9.371 -0.9710  0.6960 -1.1615
  596MOL0     H82193   0.422   9.378   9.443 -0.7158 -0.8655 -2.4811
  596MOL0     H82194   0.492   9.394   9.603 -1.4202 -0.5742 -1.1216
  596MOL0     H82195   0.469   9.148   9.631  1.6800  1.1164 -1.7810
  596MOL0     H82196   0.313   9.225   9.601 -0.6524 -3.6684  1.1465
  596MOL0     H82197   0.206   9.200   9.343  0.3145  1.0797  1.6547
  596MOL0     H82198   0.089   8.915   9.232  0.5814 -0.3403  2.5453
  596MOL0     H82199   0.233   8.857   9.145  3.9743  2.4876 -0.1290
  596MOL0     H82200   0.033   9.019   9.042 -0.6521  0.0471  0.7291
  596MOL0     H82201   0.134   9.135   9.109  0.6405 -0.2134  1.9493
  596MOL0     H82202   0.242   9.125   8.913 -0.6528  0.5303  0.1984
  596MOL0     H82203   0.329   8.994   8.992 -0.0526 -0.0538  0.5311
  596MOL0     H82204   0.170   8.840   8.899 -2.8912 -0.6216 -2.3948
  596MOL0     H82205   0.081   8.977   8.820  0.2951  0.9218  1.1916
  596MOL0     H82206   0.455   8.879   8.571  1.1640 -0.8955 -0.7440
  596MOL0     H82207   0.540   8.785   8.384 -4.0227  3.2956 -0.8603
  596MOL0     H82208   0.448   8.673   8.288  0.6868  3.2464 -0.7418
  596MOL0     H82209   0.577   8.615   8.388  1.4850  1.7419 -3.2616
  596MOL0     H82210   0.293   8.457   8.098  0.8344  0.4749  2.9029
  596MOL0     H82211   0.314   8.253   7.958 -0.0558  0.0273 -0.4976
  596MOL0     H82212   0.084   7.866   7.998 -0.0281  0.3191  0.8637
  596MOL0     H82213  -0.031   8.005   8.000 -1.7640 -3.6327 -1.1548
  596MOL0     H82214   0.098   7.881   7.759  0.7252  1.2404 -0.9720
  596MOL0     H82215  -0.070   7.916   7.809 -0.5846  1.6271  0.1618
  596MOL0     H82216   0.120   8.117   7.696 -1.4770  4.1854 -1.0295
  596MOL0     H82217  -0.015   8.164   7.808 -0.2181 -0.4450 -0.3588
  596MOL0     H82218  -0.158   8.025   7.629 -0.8755  0.2911 -0.7725
  596MOL0     H82219  -0.018   7.973   7.557 -2.0366 -0.0797 -2.1110
  596MOL0     H82220   0.057   8.223   7.497  0.6196 -1.0161 -0.3159
  596MOL0     H82221  -0.090   8.149   7.410  1.9400  2.0767 -2.2517
  596MOL0     H82222  -0.117   8.342   7.648 -1.1670  1.6018 -1.0570
  596MOL0     H82223  -0.247   8.243   7.591 -1.3973  0.7272 -1.1217
  596MOL0     H82224  -0.225   8.352   7.366 -0.6471 -0.4121 -0.2147
  596MOL0     H82225  -0.115   8.467   7.439  0.9718 -1.0837  2.8153
  596MOL0     H82226  -0.395   8.406   7.538  1.4056 -3.3056 -2.3667
  596MOL0     H82227  -0.354   8.546   7.432 -1.9157 -0.2882  0.0019
  596MOL0     H82228   0.040   8.052   8.214 -0.4255 -1.0931 -3.2557
  596MOL0     H82229   0.036   8.260   8.366  1.3358  2.2334  0.8471
  596MOL0     H82230   0.062   8.574   8.572 -1.7055  1.8932  1.8926
  596MOL0     H82231   0.063   8.756   8.705 -0.0547  1.2848 -0.8560
  596MOL0     H82232   1.090   8.683   9.793 -0.5046  1.1120 -0.3084
  596MOL0     H82233   1.153   8.435   9.781 -1.9110  0.2414  0.0832
  596MOL0     H82234   1.115   7.976   9.885 -1.9067  0.7608 -1.4286
  596MOL0     H82235   1.261   7.787   9.890  0.0272 -1.4556 -0.1668
  596MOL0     H82236   1.219   7.607   9.677 -2.6343 -1.8994 -2.2192
  596MOL0     H82237   1.301   7.640   9.519  1.0796 -0.1128 -0.1489
  596MOL0     H82238   1.400   7.428   9.737  1.4062 -1.1962 -0.0823
  596MOL0     H82239   1.488   7.478   9.595  0.2045 -2.1032 -0.4342
  596MOL0     H82240   1.260   7.388   9.473  0.9438 -0.0903 -0.7247
  596MOL0     H82241   1.383   7.273   9.516 -1.9713 -1.7895 -0.1028
  596MOL0     H82242   1.147   7.359   9.700 -0.4803 -0.3035  0.7402
  596MOL0     H82243   1.264   7.233   9.736 -0.1874  1.3598  1.2648
  596MOL0     H82244   0.995   7.077   9.437 -2.0999 -0.1215  1.9939
  596MOL0     H82245   1.387   7.845   9.497 -1.8174 -1.5519  0.8007
  596MOL0     H82246   1.376   8.058   9.397  1.6020  0.3273  3.8615
  596MOL0     H82247   1.196   8.041   9.366  1.1015  0.7089 -1.9420
  596MOL0     H82248   1.271   8.182   9.448  1.0916  0.3605 -0.9677
  597MOL0     O82249   9.302   9.790  10.227 -0.6195  0.4955  0.2818
  597MOL0     C82250   9.331   9.671  10.228 -0.1233  0.3686 -0.3372
  597MOL0     O82251   9.333   9.591  10.339 -1.3378 -0.1991 -0.8398
  597MOL0     C82252   9.265   9.612  10.458  0.4709  0.5435 -0.3813
  597MOL0     C82253   9.164   9.704  10.480  0.3022 -0.4148  0.0438
  597MOL0     C82254   9.087   9.707  10.604 -0.3430  0.4682 -0.5038
  597MOL0     C82255   9.109   9.609  10.693 -0.1269 -0.4041 -0.4385
  597MOL0     O82256   9.039   9.624  10.817 -0.2676 -0.7204 -0.4820
  597MOL0     C82257   9.040   9.498  10.900 -1.0403 -0.3642 -0.2068
  597MOL0     C82258   8.915   9.490  10.996  0.4205  0.0073  1.2059
  597MOL0     C82259   8.892   9.595  11.107 -0.0655  0.2901  0.1152
  597MOL0     C82260   8.773   9.568  11.200 -0.2337  0.1201  0.7216
  597MOL0     C82261   8.761   9.675  11.312 -1.4927 -0.2073 -0.7317
  597MOL0     C82262   8.643   9.646  11.401  0.3845 -0.9264  0.2369
  597MOL0     C82263   8.671   9.548  11.521  0.2466  0.0282 -0.1821
  597MOL0     C82264   8.736   9.606  11.645  0.2568 -0.3097 -0.1394
  597MOL0     N82265   8.630   9.634  11.748 -0.2535 -0.5376 -0.4501
  597MOL0     C82266   8.628   9.599  11.877 -0.6757  1.2171 -0.5724
  597MOL0     C82267   8.517   9.650  11.935  0.3878  0.5983 -0.6440
  597MOL0     C82268   8.470   9.638  12.076 -0.4337  0.4560 -0.5028
  597MOL0     C82269   8.439   9.488  12.108  0.7521  1.1265 -0.1797
  597MOL0     C82270   8.370   9.401  12.001  0.8184 -0.2974  0.6370
  597MOL0     C82271   8.223   9.442  11.969 -0.3889 -0.1259  0.2260
  597MOL0     O82272   8.160   9.345  11.883 -0.3237  0.5451  0.3807
  597MOL0     C82273   8.192   9.332  11.749 -0.3175 -0.1133  0.0627
  597MOL0     C82274   8.126   9.228  11.679  0.2717 -0.2215  0.4522
  597MOL0     C82275   8.150   9.212  11.545  0.7349 -0.8126  0.1001
  597MOL0     C82276   8.080   9.090  11.478  0.7822  0.6387 -0.7406
  597MOL0     C82277   8.222   9.308  11.471 -0.8661  0.9418  0.4518
  597MOL0     C82278   8.244   9.304  11.322 -1.2902 -0.2131  0.2487
  597MOL0     O82279   8.320   9.407  11.272 -0.6359  0.4355  0.6496
  597MOL0     C82280   8.382   9.387  11.155 -0.2750 -1.4131  0.0664
  597MOL0     C82281   8.412   9.505  11.082 -0.2579  0.8729  0.0735
  597MOL0     C82282   8.495   9.489  10.967 -0.7448 -0.2638 -0.9398
  597MOL0     C82283   8.548   9.364  10.923  0.5603  0.2546  1.1971
  597MOL0     O82284   8.632   9.347  10.818 -0.0384  0.7346 -0.0688
  597MOL0     C82285   8.599   9.422  10.697  0.0160 -0.2926  0.0757
  597MOL0     C82286   8.665   9.348  10.578 -0.4277  1.0128  0.1276
  597MOL0     C82287   8.818   9.336  10.597 -0.1307  1.3745 -0.1680
  597MOL0     C82288   8.876   9.206  10.535 -0.7604  0.5440  0.3985
  597MOL0     C82289   9.024   9.200  10.484  0.5010 -0.4189 -0.6885
  597MOL0     C82290   9.078   9.317  10.406 -0.4222 -0.1707  0.0341
  597MOL0     C82291   8.996   9.338  10.277 -0.4804 -0.6508  0.3576
  597MOL0     C82292   9.075   9.432  10.179 -0.1652 -0.5392 -0.0084
  597MOL0    Cl82293   9.013   9.601  10.211  0.1356 -0.1361 -0.0499
  597MOL0     C82294   8.519   9.251  11.003  0.1046 -1.3702 -0.6533
  597MOL0     C82295   8.450   9.261  11.123 -0.1478  0.2948  0.0006
  597MOL0     O82296   8.196   9.210  11.252 -0.5135  0.3661  0.0918
  597MOL0     C82297   8.288   9.413  11.542  0.7520  0.5965  0.2990
  597MOL0     C82298   8.274   9.419  11.678 -1.3691  0.5966  0.3819
  597MOL0     N82299   8.455   9.723  11.836  0.3525 -0.6516  0.3560
  597MOL0     N82300   8.515   9.708  11.726  0.1338  1.3656 -0.9893
  597MOL0     C82301   9.212   9.525  10.680  0.2085  0.2221  1.1480
  597MOL0     C82302   9.299   9.522  10.567 -0.5828  0.0695  0.8779
  597MOL0     C82303   9.380   9.618  10.091  0.1297  0.7885  0.2740
  597MOL0     C82304   9.372   9.707   9.982  0.0242  0.1969 -0.2826
  597MOL0     C82305   9.411   9.669   9.858  0.8310  0.2209 -0.7034
  597MOL0     C82306   9.446   9.538   9.835 -0.3458 -0.1132  0.7234
  597MOL0     O82307   9.482   9.504   9.703  0.4371 -0.4070 -0.2716
  597MOL0     C82308   9.404   9.545   9.593  0.1428  0.6882  1.0053
  597MOL0     C82309   9.247   9.501   9.603 -0.9929 -0.3102  0.8299
  597MOL0     C82310   9.152   9.569   9.492 -0.4240  0.8119 -0.3463
  597MOL0     C82311   9.011   9.513   9.491 -0.7382  0.4458  0.4621
  597MOL0     C82312   8.999   9.382   9.435  0.7908 -1.2153  0.1977
  597MOL0     C82313   8.975   9.271   9.381 -0.2351 -0.8003 -0.7807
  597MOL0     C82314   9.460   9.446   9.943  0.0820  1.2558 -0.0002
  597MOL0     C82315   9.439   9.492  10.072  0.2393  0.1278 -0.0651
  597MOL0     C82316   9.497   9.401  10.187  1.1240  0.0700  0.5592
  597MOL0     H82317   9.136   9.785  10.413 -1.0383  0.9587  2.1271
  597MOL0     H82318   9.015   9.785  10.626  3.8640  5.0817 -1.2485
  597MOL0     H82319   9.122   9.494  10.973  0.3517  1.6978 -1.5544
  597MOL0     H82320   9.047   9.409  10.837 -2.1313 -2.2363  2.1508
  597MOL0     H82321   8.819   9.488  10.944  0.7448 -0.6409  0.6195
  597MOL0     H82322   8.920   9.396  11.051 -3.9951 -0.2408  1.4926
  597MOL0     H82323   8.977   9.603  11.174 -0.3867 -0.0823  0.5709
  597MOL0     H82324   8.875   9.696  11.067  0.9710  0.7012  0.6836
  597MOL0     H82325   8.684   9.556  11.138  1.2531 -2.0789 -1.1444
  597MOL0     H82326   8.799   9.470  11.240  3.0902  0.3471 -0.5657
  597MOL0     H82327   8.748   9.777  11.275 -3.3977 -0.0394  0.2708
  597MOL0     H82328   8.851   9.676  11.373 -0.2164 -0.3744 -2.5357
  597MOL0     H82329   8.610   9.743  11.439  0.1440  0.1084 -2.3461
  597MOL0     H82330   8.562   9.605  11.339 -1.1925 -1.1006  2.3201
  597MOL0     H82331   8.739   9.470  11.485  0.6440 -1.1020  2.7165
  597MOL0     H82332   8.579   9.493  11.543  1.7484 -3.3966 -1.6464
  597MOL0     H82333   8.799   9.523  11.678  2.4977  0.8235 -1.3285
  597MOL0     H82334   8.803   9.690  11.623 -0.7386  0.0322 -2.0457
  597MOL0     H82335   8.708   9.541  11.922  1.5693  2.0072 -3.2464
  597MOL0     H82336   8.370   9.682  12.089 -0.7733 -0.6678  1.1004
  597MOL0     H82337   8.541   9.684  12.145 -0.3479 -2.9020  1.9008
  597MOL0     H82338   8.532   9.451  12.151  1.0629  2.2826  0.1697
  597MOL0     H82339   8.369   9.483  12.191  1.8527 -0.4558  0.6928
  597MOL0     H82340   8.427   9.391  11.908 -1.4072 -0.5336 -0.7978
  597MOL0     H82341   8.368   9.295  12.028  1.2885 -0.1938  1.0960
  597MOL0     H82342   8.169   9.448  12.063 -1.5700 -1.6724 -0.3139
  597MOL0     H82343   8.235   9.542  11.926  4.2899  0.8667  3.0775
  597MOL0     H82344   8.063   9.157  11.733  0.0294  0.6688  1.3756
  597MOL0     H82345   8.029   9.117  11.385  1.7695  1.0521 -1.1726
  597MOL0     H82346   8.002   9.037  11.534 -0.0813  3.1098  0.5543
  597MOL0     H82347   8.166   9.027  11.453 -0.2576 -1.4481  0.6369
  597MOL0     H82348   8.402   9.603  11.127 -3.3014  0.8226 -0.2671
  597MOL0     H82349   8.512   9.578  10.909  1.3095  2.4003  3.2725
  597MOL0     H82350   8.491   9.426  10.682  0.0874  3.6472 -0.3625
  597MOL0     H82351   8.644   9.522  10.708  0.3075 -0.0649 -2.6418
  597MOL0     H82352   8.616   9.250  10.571  0.6939  0.5440 -2.5379
  597MOL0     H82353   8.645   9.392  10.480 -0.8257 -0.9497 -0.7205
  597MOL0     H82354   8.847   9.330  10.703  1.7192  1.6110 -0.6310
  597MOL0     H82355   8.864   9.429  10.562 -0.5194  0.9487 -1.8727
  597MOL0     H82356   8.822   9.184  10.443  3.9489  0.5601 -2.6461
  597MOL0     H82357   8.864   9.118  10.600 -1.2597  1.8401  2.1462
  597MOL0     H82358   9.093   9.188  10.567  2.8618 -0.1459 -2.5224
  597MOL0     H82359   9.041   9.110  10.424  1.0746 -2.5814  2.5159
  597MOL0     H82360   9.181   9.294  10.380 -0.8762 -1.4769 -0.7052
  597MOL0     H82361   9.065   9.410  10.463 -2.4893 -0.6241  0.4035
  597MOL0     H82362   8.901   9.388  10.296  0.2473  1.7913 -1.8542
  597MOL0     H82363   8.975   9.241  10.231  2.4001 -1.9330  1.4955
  597MOL0     H82364   9.059   9.416  10.072  2.2729  3.3142 -1.1744
  597MOL0     H82365   9.184   9.424  10.182 -0.0718  0.1356 -0.8938
  597MOL0     H82366   8.549   9.153  10.965 -1.2985 -0.7757 -3.6391
  597MOL0     H82367   8.445   9.175  11.189 -0.5863 -0.9485 -1.5904
  597MOL0     H82368   8.339   9.490  11.485 -0.9785  2.3055  0.9679
  597MOL0     H82369   8.330   9.496  11.729 -5.4922  2.7411  2.1549
  597MOL0     H82370   9.240   9.459  10.761  2.2569 -1.3055 -0.6767
  597MOL0     H82371   9.374   9.444  10.566  0.1356  0.7535  1.0021
  597MOL0     H82372   9.339   9.809   9.996  0.3111  0.1311  0.9391
  597MOL0     H82373   9.390   9.737   9.776 -1.1106 -1.5981 -1.7979
  597MOL0     H82374   9.429   9.650   9.580  0.6943  0.5031  0.5385
  597MOL0     H82375   9.444   9.512   9.497 -2.0192  2.2957 -0.5256
  597MOL0     H82376   9.203   9.525   9.700 -1.1532  0.0514  0.6723
  597MOL0     H82377   9.246   9.393   9.588  2.2568 -0.1672 -1.7185
  597MOL0     H82378   9.154   9.676   9.516 -1.1344  0.3938  1.8305
  597MOL0     H82379   9.193   9.551   9.393 -1.5118 -0.8246 -0.5317
  597MOL0     H82380   8.944   9.574   9.430 -1.7633 -1.5136 -0.4639
  597MOL0     H82381   8.981   9.505   9.596 -1.7984  1.3979  0.2488
  597MOL0     H82382   8.943   9.187   9.323 -0.8031  0.0630 -1.7492
  597MOL0     H82383   9.497   9.344   9.937  1.8023  1.6930  1.9942
  597MOL0     H82384   9.559   9.321  10.146  0.3026 -1.6294  2.5003
  597MOL0     H82385   9.554   9.452  10.266  0.1564 -1.2318  2.1575
  597MOL0     H82386   9.420   9.357  10.250  0.1956  1.2358  0.2850
  598MOL0     O82387   2.961  10.877   9.008 -0.2321 -0.5444 -1.0361
  598MOL0     C82388   3.079  10.891   8.997  0.2781  0.2943  0.0794
  598MOL0     O82389   3.144  11.000   8.936  0.0965  0.6951 -0.5309
  598MOL0     C82390   3.083  11.104   8.869  0.3554  0.4617  0.1831
  598MOL0     C82391   3.157  11.196   8.790  0.5426 -0.4238 -0.2513
  598MOL0     C82392   3.093  11.296   8.719  0.0905  0.1565  0.2611
  598MOL0     C82393   2.953  11.310   8.709 -0.8719 -0.6733 -0.5256
  598MOL0     O82394   2.880  11.419   8.653 -0.1862 -0.4166  0.7359
  598MOL0     C82395   2.956  11.535   8.631  0.1463  0.3459  0.0516
  598MOL0     C82396   2.872  11.640   8.576 -0.4235 -0.1485  0.6184
  598MOL0     C82397   2.818  11.583   8.438  0.4293 -0.2280 -0.7762
  598MOL0     C82398   2.780  11.692   8.338  1.2471  0.5712  0.1902
  598MOL0     C82399   2.681  11.641   8.215 -0.0680  0.8062 -0.1227
  598MOL0     C82400   2.759  11.611   8.081  0.4257 -0.0828  0.4544
  598MOL0     C82401   2.710  11.480   8.025 -0.1179  0.1200  1.1939
  598MOL0     C82402   2.765  11.464   7.884 -0.3643  0.7378  0.0961
  598MOL0     N82403   2.736  11.320   7.839 -0.4410  0.4855  0.4605
  598MOL0     C82404   2.818  11.240   7.754 -0.0882 -0.4513 -0.3859
  598MOL0     C82405   2.759  11.114   7.769 -0.2962  0.0519  0.5899
  598MOL0     C82406   2.782  10.993   7.673  0.0281  0.2103 -0.3291
  598MOL0     C82407   2.911  10.913   7.714  0.8365 -0.3003  0.0009
  598MOL0     C82408   2.890  10.843   7.847 -0.5613 -0.6174  0.1723
  598MOL0     C82409   3.016  10.770   7.886 -0.6025 -0.0294 -0.6216
  598MOL0     O82410   2.970  10.689   8.003  0.2782 -0.0410 -0.1316
  598MOL0     C82411   3.024  10.570   8.039  0.8201  1.0788 -0.2559
  598MOL0     C82412   2.944  10.478   8.118 -0.1091  0.3057  0.1250
  598MOL0     C82413   2.998  10.357   8.173 -0.6250 -0.2135 -0.4923
  598MOL0     C82414   2.913  10.274   8.261  0.3935  0.1062 -0.5147
  598MOL0     C82415   3.121  10.315   8.128  0.4252 -0.2137  0.3145
  598MOL0     C82416   3.183  10.173   8.148 -0.6976 -0.1214 -0.2921
  598MOL0     O82417   3.103  10.059   8.146  0.2862 -0.0434  0.2344
  598MOL0     C82418   3.177   9.947   8.169 -0.7411 -0.7056 -0.2885
  598MOL0     C82419   3.262   9.893   8.062 -0.7085  0.0825 -0.0636
  598MOL0     C82420   3.311   9.763   8.076  0.4721 -0.5784 -0.6910
  598MOL0     C82421   3.286   9.683   8.186 -0.7303 -0.6764 -0.5638
  598MOL0     O82422   3.325   9.557   8.189 -0.6406  1.0718 -0.2189
  598MOL0     C82423   3.224   9.455   8.163 -0.4496  0.1500 -0.3583
  598MOL0     C82424   3.258   9.313   8.194 -0.8366  0.4616  0.4105
  598MOL0     C82425   3.169   9.214   8.126  0.0902  1.3353  0.2399
  598MOL0     C82426   3.041   9.181   8.204  1.0384 -0.3018 -0.1300
  598MOL0     C82427   2.962   9.077   8.126 -0.7143  0.2697 -0.4011
  598MOL0     C82428   2.838   9.032   8.215 -0.1403  0.5816  0.4769
  598MOL0     C82429   2.730   8.947   8.135 -0.1580 -0.2419  0.9934
  598MOL0     C82430   2.609   8.930   8.218  0.0449 -0.9073  1.1833
  598MOL0    Cl82431   2.533   9.098   8.225 -0.3574  0.3814  0.0641
  598MOL0     C82432   3.207   9.736   8.288 -0.5144  0.7634  0.6899
  598MOL0     C82433   3.159   9.866   8.274 -0.4319  0.5976 -0.1134
  598MOL0     O82434   3.307  10.170   8.155 -0.5899  0.4993  0.6697
  598MOL0     C82435   3.196  10.403   8.039  0.1134  0.0942 -0.5637
  598MOL0     C82436   3.151  10.533   8.000  0.0575 -0.5920  0.1558
  598MOL0     N82437   2.642  11.116   7.852 -0.6196 -0.4430 -1.2722
  598MOL0     N82438   2.631  11.241   7.885  0.2502 -0.4925  0.7324
  598MOL0     C82439   2.884  11.222   8.779 -0.4323 -0.0375  0.3111
  598MOL0     C82440   2.944  11.129   8.864 -0.0502  0.5467 -0.2029
  598MOL0     C82441   3.159  10.816   9.086  0.0122  0.2605  0.4876
  598MOL0     C82442   3.275  10.877   9.145 -0.6027  0.3311 -0.0730
  598MOL0     C82443   3.364  10.809   9.231  0.0812  1.0529  0.2744
  598MOL0     C82444   3.337  10.675   9.262 -0.3248 -0.0414  0.3670
  598MOL0     O82445   3.422  10.601   9.350  0.1818 -0.0468 -0.6452
  598MOL0     C82446   3.565  10.614   9.325  0.3735 -0.6837  1.0011
  598MOL0     C82447   3.626  10.475   9.343  0.1735 -0.5532 -0.0796
  598MOL0     C82448   3.665  10.403   9.202  0.2508 -0.1197  0.0686
  598MOL0     C82449   3.531  10.338   9.146  0.3699 -0.9413 -0.1094
  598MOL0     C82450   3.565  10.283   9.013 -0.7848 -0.3451  0.2121
  598MOL0     C82451   3.604  10.233   8.909  0.4660 -0.1023  0.1519
  598MOL0     C82452   3.221  10.622   9.216  0.0349  1.8642 -0.3667
  598MOL0     C82453   3.134  10.679   9.129  0.3198 -0.4360  0.6251
  598MOL0     C82454   3.011  10.604   9.089  0.0290  0.8669  0.8150
  598MOL0     H82455   3.264  11.189   8.772 -0.0801 -1.9610 -4.3359
  598MOL0     H82456   3.148  11.366   8.657  0.3928  0.5170  0.9254
  598MOL0     H82457   3.043  11.514   8.567  0.7194  3.5264 -0.3707
  598MOL0     H82458   3.005  11.563   8.725  4.0380 -1.3328 -1.2343
  598MOL0     H82459   2.794  11.674   8.644 -0.9644 -1.4996  0.7034
  598MOL0     H82460   2.932  11.724   8.541 -1.2566 -0.0094 -0.5739
  598MOL0     H82461   2.888  11.513   8.392 -1.6623 -3.1897  0.2817
  598MOL0     H82462   2.741  11.515   8.475 -0.3921  1.1991  0.2727
  598MOL0     H82463   2.733  11.773   8.394 -1.0130 -0.6806  0.2354
  598MOL0     H82464   2.872  11.722   8.287 -1.1685  2.2119 -3.6869
  598MOL0     H82465   2.590  11.701   8.209  1.1123  2.7847  0.7397
  598MOL0     H82466   2.644  11.544   8.249 -0.4388  1.1944  0.6030
  598MOL0     H82467   2.739  11.694   8.012 -1.2824 -0.1184  0.8721
  598MOL0     H82468   2.866  11.598   8.100  0.0733 -0.3544  2.4744
  598MOL0     H82469   2.604  11.490   8.001  0.1428 -0.0863 -0.1302
  598MOL0     H82470   2.717  11.388   8.084 -0.1971  0.7531  2.2225
  598MOL0     H82471   2.706  11.524   7.814 -0.0047 -0.3536 -1.1784
  598MOL0     H82472   2.873  11.483   7.878 -0.4018  1.3197  1.1278
  598MOL0     H82473   2.903  11.274   7.696  2.7161  1.2456  4.1875
  598MOL0     H82474   2.789  11.014   7.566 -3.6897 -4.1469 -1.7301
  598MOL0     H82475   2.694  10.928   7.684 -0.4506  0.1550 -3.4537
  598MOL0     H82476   2.913  10.826   7.648  2.2874 -0.0253 -0.3341
  598MOL0     H82477   2.997  10.980   7.709  0.9759 -0.5495 -3.5678
  598MOL0     H82478   2.871  10.921   7.921  0.0101 -1.3437  1.1162
  598MOL0     H82479   2.803  10.777   7.851 -0.7079 -0.5857 -1.6029
  598MOL0     H82480   3.052  10.702   7.809 -1.4743 -0.9051 -0.2800
  598MOL0     H82481   3.093  10.841   7.918  0.6034 -1.6002  0.1198
  598MOL0     H82482   2.848  10.516   8.153 -0.6266  0.1870 -1.1040
  598MOL0     H82483   2.822  10.330   8.280  0.3153 -0.6997  1.7461
  598MOL0     H82484   2.968  10.237   8.348  1.6099  0.0397 -1.2791
  598MOL0     H82485   2.891  10.186   8.200  2.0382  0.1751 -1.2893
  598MOL0     H82486   3.275   9.938   7.964 -0.6203 -1.0468 -0.5829
  598MOL0     H82487   3.371   9.721   7.997  1.2208 -2.5517  0.8440
  598MOL0     H82488   3.136   9.473   8.226 -0.7239 -0.2309 -0.6279
  598MOL0     H82489   3.184   9.465   8.062  3.6548  0.0658 -2.1862
  598MOL0     H82490   3.362   9.289   8.172 -0.6604  0.0221  1.6660
  598MOL0     H82491   3.247   9.301   8.302 -3.2169  1.9010  0.3966
  598MOL0     H82492   3.228   9.125   8.103  2.1590  2.2441  1.6778
  598MOL0     H82493   3.141   9.247   8.025  2.1762 -1.7722 -1.5223
  598MOL0     H82494   2.986   9.276   8.203 -0.0402 -0.9103 -0.0135
  598MOL0     H82495   3.070   9.149   8.304 -0.6574 -1.9500 -0.0943
  598MOL0     H82496   2.940   9.125   8.030  0.9399 -2.6496 -2.4258
  598MOL0     H82497   3.030   8.995   8.101  0.6037  1.3397 -0.4591
  598MOL0     H82498   2.789   9.123   8.250 -0.1856  1.2904 -1.3081
  598MOL0     H82499   2.873   8.969   8.297 -2.2605  0.8672  1.6760
  598MOL0     H82500   2.772   8.847   8.122  0.8119 -0.1926  3.2851
  598MOL0     H82501   2.710   8.994   8.039 -0.0732  0.4170  1.2909
  598MOL0     H82502   2.647   8.884   8.310  2.0445 -3.9344 -0.9742
  598MOL0     H82503   2.545   8.853   8.174  1.5360 -2.7888  2.1418
  598MOL0     H82504   3.190   9.662   8.365 -0.5305 -0.4703 -0.4514
  598MOL0     H82505   3.077   9.896   8.339 -3.0370  1.9733 -3.7122
  598MOL0     H82506   3.287  10.368   7.991  0.3986  2.2489 -1.7219
  598MOL0     H82507   3.209  10.595   7.932  1.2443 -0.4979  1.2243
  598MOL0     H82508   2.776  11.234   8.777 -0.4101  0.1130 -0.9210
  598MOL0     H82509   2.877  11.068   8.924  0.7525 -1.0730 -0.9030
  598MOL0     H82510   3.301  10.981   9.127  1.7394  0.0403  1.2627
  598MOL0     H82511   3.450  10.859   9.275  1.1313 -1.8358  1.7669
  598MOL0     H82512   3.590  10.640   9.222  1.7623  0.6150  1.6286
  598MOL0     H82513   3.612  10.677   9.401 -0.4436 -0.8323  1.6481
  598MOL0     H82514   3.568  10.410   9.409  2.5987 -0.1104  2.7547
  598MOL0     H82515   3.725  10.486   9.390  2.1332 -3.7334 -2.9664
  598MOL0     H82516   3.700  10.471   9.123 -0.0517 -1.3501 -1.1603
  598MOL0     H82517   3.742  10.327   9.220  2.2390  1.6376 -0.5127
  598MOL0     H82518   3.442  10.400   9.133 -1.2474 -3.2433 -0.7267
  598MOL0     H82519   3.500  10.263   9.219  1.1262 -0.0876  1.1150
  598MOL0     H82520   3.650  10.192   8.821  0.9550 -0.4301  0.5517
  598MOL0     H82521   3.205  10.518   9.243 -0.8114  1.4758 -2.1926
  598MOL0     H82522   3.034  10.561   8.991  2.6780 -0.8214  2.0668
  598MOL0     H82523   2.998  10.511   9.146  0.8110  0.4218  0.2902
  598MOL0     H82524   2.919  10.663   9.101 -0.2710  0.3083  1.3061
  599MOL0     O82525  10.210   3.429   8.449 -0.0117  0.2260 -0.0395
  599MOL0     C82526  10.326   3.417   8.405 -0.2405 -0.2176 -0.1354
  599MOL0     O82527  10.361   3.328   8.304  0.0752 -0.1831  0.2093
  599MOL0     C82528  10.268   3.234   8.255  0.2753 -0.7753 -0.0991
  599MOL0     C82529  10.318   3.165   8.146 -0.3152  0.3724 -0.4436
  599MOL0     C82530  10.242   3.073   8.073  0.6701 -0.7038  0.2062
  599MOL0     C82531  10.115   3.044   8.117 -0.4778  0.5041 -0.3916
  599MOL0     O82532  10.033   2.959   8.056  0.4711  0.8196 -1.2182
  599MOL0     C82533  10.057   2.930   7.917  0.1379 -0.5956  0.5217
  599MOL0     C82534   9.943   2.834   7.868  0.5661  0.0812  0.3392
  599MOL0     C82535   9.923   2.824   7.723  0.5991  0.5305  0.6197
  599MOL0     C82536   9.886   2.960   7.660 -0.5155 -0.8082  0.0310
  599MOL0     C82537   9.799   2.936   7.537  0.9830 -0.3267 -0.8671
  599MOL0     C82538   9.823   3.037   7.425  0.1015  0.0798 -0.4690
  599MOL0     C82539   9.743   3.003   7.295 -0.7261 -0.2378 -0.0907
  599MOL0     C82540   9.746   3.109   7.192 -0.5668  0.1841  0.4974
  599MOL0     N82541   9.702   3.067   7.055 -0.7614 -0.0166  0.0826
  599MOL0     C82542   9.658   3.148   6.953  0.4787 -0.1522  0.1646
  599MOL0     C82543   9.651   3.068   6.844 -0.1670 -0.4231  0.5533
  599MOL0     C82544   9.592   3.107   6.705  0.8161 -0.3684  0.6121
  599MOL0     C82545   9.656   3.041   6.581 -0.3559  0.4725  0.3563
  599MOL0     C82546   9.755   3.144   6.524  0.3875  0.0473  0.5961
  599MOL0     C82547   9.880   3.147   6.616  1.5368  0.2835  0.1621
  599MOL0     O82548   9.973   3.235   6.566  0.3772 -0.1043  1.0427
  599MOL0     C82549  10.088   3.268   6.636  0.0126 -0.1786  0.0290
  599MOL0     C82550  10.170   3.373   6.594  0.0821 -0.1683 -0.4525
  599MOL0     C82551  10.282   3.418   6.661  0.4765  0.9003 -0.2302
  599MOL0     C82552  10.346   3.542   6.595 -0.5416  0.1039  0.5635
  599MOL0     C82553  10.307   3.366   6.784 -0.3321  0.0398 -0.5585
  599MOL0     C82554  10.408   3.417   6.885  0.2045  0.3425  0.2428
  599MOL0     O82555  10.418   3.355   7.003 -0.9088  0.2543 -0.7954
  599MOL0     C82556  10.490   3.422   7.105 -0.9453  0.0260 -0.8667
  599MOL0     C82557  10.574   3.354   7.189  0.6362 -0.1006 -0.2778
  599MOL0     C82558  10.656   3.429   7.282 -0.0318 -0.2323 -0.1282
  599MOL0     C82559  10.626   3.563   7.311 -0.8294 -0.2652 -0.1008
  599MOL0     O82560  10.693   3.629   7.422 -0.2968  0.5039 -0.2695
  599MOL0     C82561  10.640   3.757   7.473  0.3279 -0.3598  0.1005
  599MOL0     C82562  10.717   3.793   7.603  1.1108  0.5239 -0.7898
  599MOL0     C82563  10.716   3.944   7.636  0.8808 -0.3081 -0.1698
  599MOL0     C82564  10.567   4.002   7.651 -0.4752 -0.4733  0.4173
  599MOL0     C82565  10.566   4.142   7.728  0.2009 -0.3900  0.1323
  599MOL0     C82566  10.419   4.158   7.781  0.4243 -0.0795 -0.1055
  599MOL0     C82567  10.404   4.281   7.873  0.0978 -0.3879 -0.5608
  599MOL0     C82568  10.286   4.295   7.959 -0.3771  0.1452  0.3530
  599MOL0    Cl82569  10.297   4.447   8.046 -0.1314  0.5338 -0.1814
  599MOL0     C82570  10.530   3.622   7.236 -0.2791  0.3689  0.3497
  599MOL0     C82571  10.463   3.562   7.131  0.1168 -0.2072  0.2551
  599MOL0     O82572  10.480   3.509   6.841 -0.3644  0.0904  0.1808
  599MOL0     C82573  10.231   3.261   6.830 -0.3690  1.1431 -0.3529
  599MOL0     C82574  10.128   3.207   6.752 -0.0324  0.8410  0.3092
  599MOL0     N82575   9.695   2.946   6.886  0.1127 -1.0035  0.3257
  599MOL0     N82576   9.714   2.944   7.006 -0.0650  1.1102 -0.3172
  599MOL0     C82577  10.071   3.100   8.235  0.9289 -0.7389 -0.6636
  599MOL0     C82578  10.136   3.204   8.299 -0.3528  0.2741 -1.0212
  599MOL0     C82579  10.437   3.514   8.439  0.0944  0.9214 -0.0262
  599MOL0     C82580  10.540   3.531   8.351 -0.2135 -0.4429  0.7341
  599MOL0     C82581  10.654   3.608   8.384 -0.3022 -0.0259  0.1710
  599MOL0     C82582  10.659   3.661   8.508 -0.3524  0.0414 -0.0129
  599MOL0     O82583  10.774   3.722   8.560 -0.3588  0.9794  0.0299
  599MOL0     C82584  10.855   3.652   8.665  0.1328  0.2630 -0.4725
  599MOL0     C82585  10.947   3.760   8.732  0.0586  0.0624 -0.2641
  599MOL0     C82586  11.099   3.734   8.702  0.5641  0.3209 -0.0817
  599MOL0     C82587  11.194   3.842   8.754  0.6565 -0.2744 -0.3038
  599MOL0     C82588  11.192   3.862   8.899  0.2328  0.0565  0.1202
  599MOL0     C82589  11.184   3.896   9.015 -0.2408 -0.1106 -0.1877
  599MOL0     C82590  10.543   3.658   8.594  0.2414  0.0126  0.6301
  599MOL0     C82591  10.434   3.577   8.561 -0.4528 -0.6373 -0.4300
  599MOL0     C82592  10.339   3.551   8.669 -0.4311 -0.6483 -0.7562
  599MOL0     H82593  10.416   3.193   8.110 -1.0112  2.6764 -0.7150
  599MOL0     H82594  10.288   3.037   7.981  3.5114 -1.7275  1.9282
  599MOL0     H82595  10.149   2.871   7.909 -0.3993 -2.1220  3.9703
  599MOL0     H82596  10.059   3.017   7.850  0.7749 -2.2352 -1.7121
  599MOL0     H82597   9.967   2.743   7.924  0.6071  2.0851  3.8764
  599MOL0     H82598   9.851   2.878   7.907  1.2588 -1.4489  4.2480
  599MOL0     H82599  10.019   2.794   7.680  0.9802  0.9091  1.1820
  599MOL0     H82600   9.844   2.752   7.699 -0.9360  2.8494 -1.7531
  599MOL0     H82601   9.827   3.023   7.728  2.0440  2.1621 -0.2677
  599MOL0     H82602   9.980   3.014   7.646  1.6172 -3.7420  1.9187
  599MOL0     H82603   9.693   2.943   7.564  2.0560  0.4226  4.0457
  599MOL0     H82604   9.813   2.834   7.500 -3.0161 -0.6597 -1.9646
  599MOL0     H82605   9.792   3.134   7.463 -0.9502 -0.4881  0.1616
  599MOL0     H82606   9.932   3.031   7.412  0.0394 -0.2072 -0.9011
  599MOL0     H82607   9.642   2.969   7.318 -0.1614 -0.8587  1.7007
  599MOL0     H82608   9.793   2.918   7.247  0.6953 -0.7264  2.0906
  599MOL0     H82609   9.677   3.188   7.223  0.0384  1.0396 -0.2763
  599MOL0     H82610   9.842   3.159   7.175  0.7977 -2.1883  0.8742
  599MOL0     H82611   9.631   3.253   6.945  0.8752 -0.1322 -1.1337
  599MOL0     H82612   9.594   3.215   6.693  1.5649  0.1367  4.1423
  599MOL0     H82613   9.491   3.065   6.696  0.9578 -0.6222  0.1803
  599MOL0     H82614   9.714   2.952   6.605  1.3661  2.0540  2.4820
  599MOL0     H82615   9.586   3.017   6.500 -0.5233  0.1065  0.6072
  599MOL0     H82616   9.784   3.124   6.421 -3.5441 -0.8768 -0.4796
  599MOL0     H82617   9.709   3.242   6.512 -0.6990 -0.7792 -3.4216
  599MOL0     H82618   9.864   3.180   6.719 -1.6999 -0.4865  0.0250
  599MOL0     H82619   9.920   3.046   6.612 -1.0323 -0.7898 -3.0764
  599MOL0     H82620  10.147   3.417   6.497  1.5246  0.3092 -0.6022
  599MOL0     H82621  10.444   3.514   6.556 -0.6651 -0.0408  0.3526
  599MOL0     H82622  10.365   3.634   6.651  0.8479 -0.0016  0.2836
  599MOL0     H82623  10.279   3.580   6.517  2.2286  3.5404 -0.3670
  599MOL0     H82624  10.586   3.247   7.177  1.0877 -0.0180 -0.5915
  599MOL0     H82625  10.738   3.383   7.336  2.9482  2.0685 -2.3378
  599MOL0     H82626  10.655   3.830   7.394 -0.7078  1.0092  1.1248
  599MOL0     H82627  10.533   3.750   7.493 -0.0808 -1.2580 -2.0867
  599MOL0     H82628  10.670   3.722   7.672  1.6503 -2.1522 -2.9630
  599MOL0     H82629  10.818   3.752   7.589  1.5698  1.4918 -0.3539
  599MOL0     H82630  10.768   3.997   7.556  2.5386 -1.6942 -0.0718
  599MOL0     H82631  10.768   3.944   7.732  1.0058  0.4209 -0.2304
  599MOL0     H82632  10.504   3.926   7.697 -0.2661 -1.5433 -0.9866
  599MOL0     H82633  10.523   4.030   7.555 -1.5840 -0.9650  0.7688
  599MOL0     H82634  10.641   4.138   7.807  0.8385 -4.0313 -0.4809
  599MOL0     H82635  10.588   4.222   7.657  2.2582  0.3569  1.5312
  599MOL0     H82636  10.398   4.067   7.838  1.0152  0.1854  0.5435
  599MOL0     H82637  10.347   4.169   7.699 -0.4432 -1.9887  0.3530
  599MOL0     H82638  10.432   4.375   7.825 -1.4653  0.5583  0.2861
  599MOL0     H82639  10.492   4.275   7.938  0.1606 -1.6007 -0.7288
  599MOL0     H82640  10.294   4.199   8.011 -0.9844 -0.9878 -1.5336
  599MOL0     H82641  10.192   4.302   7.903 -1.0332  2.7748  1.6268
  599MOL0     H82642  10.511   3.728   7.247  0.3297  0.5492 -0.2126
  599MOL0     H82643  10.382   3.616   7.083 -2.1822 -3.2545  0.3351
  599MOL0     H82644  10.246   3.208   6.923 -1.4351  0.0543 -0.7729
  599MOL0     H82645  10.084   3.118   6.794  0.1970  0.5173 -0.1287
  599MOL0     H82646   9.978   3.058   8.273  2.3006 -2.9827  0.4104
  599MOL0     H82647  10.106   3.251   8.392  0.1180  2.6720 -1.9982
  599MOL0     H82648  10.545   3.500   8.247 -1.8856 -1.1689  0.8421
  599MOL0     H82649  10.716   3.619   8.296 -1.7550 -3.2988 -1.4432
  599MOL0     H82650  10.780   3.615   8.737 -1.2545 -0.7847 -2.3788
  599MOL0     H82651  10.910   3.573   8.613 -0.1221 -0.5127  0.3984
  599MOL0     H82652  10.941   3.749   8.841 -2.0197 -0.2228 -0.3656
  599MOL0     H82653  10.906   3.858   8.709 -0.3061  0.7836  3.0195
  599MOL0     H82654  11.126   3.637   8.745 -0.8627  0.6112  1.5732
  599MOL0     H82655  11.104   3.735   8.593 -0.1360  1.8068 -0.1262
  599MOL0     H82656  11.165   3.936   8.706  0.1396  0.5012  1.4433
  599MOL0     H82657  11.299   3.821   8.731  0.6125 -0.6422 -0.1755
  599MOL0     H82658  11.185   3.941   9.112  1.1496  1.4390 -0.8745
  599MOL0     H82659  10.546   3.719   8.684  1.3815  1.4041 -0.3085
  599MOL0     H82660  10.234   3.568   8.640 -0.7837 -2.6877 -0.8249
  599MOL0     H82661  10.357   3.451   8.708 -0.0536 -0.5168 -0.5957
  599MOL0     H82662  10.369   3.613   8.754 -1.6596 -1.2008  0.1072
  600MOL0     O82663  11.087   5.143   5.269  0.3652  0.2456  0.1209
  600MOL0     C82664  11.121   5.044   5.205  0.1978  0.4074 -0.0523
  600MOL0     O82665  11.065   4.921   5.221  0.7311 -0.2155 -0.7036
  600MOL0     C82666  11.006   4.894   5.340  0.0028 -0.8106  0.3775
  600MOL0     C82667  11.075   4.914   5.452 -0.1464  0.5885  0.1522
  600MOL0     C82668  11.012   4.893   5.579 -0.2160 -0.1636  0.3719
  600MOL0     C82669  10.874   4.854   5.578 -0.5086 -1.1146 -1.4465
  600MOL0     O82670  10.820   4.849   5.711 -0.2721  0.7448  0.2435
  600MOL0     C82671  10.682   4.885   5.742 -0.0642  0.5893  0.4955
  600MOL0     C82672  10.610   4.760   5.776  0.4571 -0.8520  0.7163
  600MOL0     C82673  10.559   4.658   5.667 -0.3681  1.0709  0.0580
  600MOL0     C82674  10.460   4.543   5.703 -0.2810 -0.0254  0.7244
  600MOL0     C82675  10.469   4.425   5.603  0.3375 -0.3956 -0.4311
  600MOL0     C82676  10.413   4.463   5.472  0.5315 -0.2737  0.6643
  600MOL0     C82677  10.410   4.334   5.383  0.7681 -0.5830 -0.6040
  600MOL0     C82678  10.408   4.358   5.226  0.3510  0.0057  0.6506
  600MOL0     N82679  10.528   4.427   5.178  0.6427  0.5220 -0.5052
  600MOL0     C82680  10.651   4.376   5.143 -0.7000 -0.4042  1.2717
  600MOL0     C82681  10.720   4.483   5.104  0.1258 -0.5257 -0.1648
  600MOL0     C82682  10.863   4.481   5.057 -0.0716 -0.4533 -1.0288
  600MOL0     C82683  10.966   4.553   5.151 -0.7755 -0.3903  0.0974
  600MOL0     C82684  10.981   4.498   5.290  0.4310  0.2368 -0.7270
  600MOL0     C82685  11.126   4.510   5.334  0.8693  0.1665  0.0206
  600MOL0     O82686  11.212   4.412   5.273  0.1305 -0.4491  1.2948
  600MOL0     C82687  11.343   4.451   5.271  0.2342 -0.3278 -0.7286
  600MOL0     C82688  11.403   4.499   5.387 -0.2511  0.4839  0.0250
  600MOL0     C82689  11.541   4.528   5.395  0.3680  1.1623  0.4585
  600MOL0     C82690  11.572   4.580   5.529  0.9642 -0.3561  0.8589
  600MOL0     C82691  11.629   4.513   5.293  0.1329  0.2846 -0.7132
  600MOL0     C82692  11.771   4.526   5.306 -0.6611  0.4519  0.6375
  600MOL0     O82693  11.844   4.446   5.220 -0.9027  0.8146  0.4081
  600MOL0     C82694  11.984   4.449   5.201  0.2903 -0.4066 -0.0034
  600MOL0     C82695  12.018   4.418   5.067  0.6747  1.5203  0.3895
  600MOL0     C82696  12.153   4.410   5.027 -0.9770 -0.8570  0.4263
  600MOL0     C82697  12.254   4.443   5.110 -0.2237  0.2663  0.1672
  600MOL0     O82698  12.379   4.443   5.054 -0.2235 -0.4844  0.0917
  600MOL0     C82699  12.477   4.536   5.090 -0.2132  0.0276 -0.1477
  600MOL0     C82700  12.464   4.675   5.032 -0.1234  0.1159  0.0764
  600MOL0     C82701  12.445   4.664   4.873  0.0062  0.6391 -1.2527
  600MOL0     C82702  12.397   4.793   4.813  0.8278 -1.6411 -0.2003
  600MOL0     C82703  12.354   4.790   4.667 -0.2925 -0.1301 -0.0437
  600MOL0     C82704  12.343   4.924   4.590  0.2293 -0.3042 -0.7574
  600MOL0     C82705  12.291   4.909   4.442 -0.1213  0.3705  0.0449
  600MOL0     C82706  12.213   5.033   4.401 -0.5881 -0.5687  0.1361
  600MOL0    Cl82707  12.335   5.173   4.408  0.2412  0.0520 -0.1581
  600MOL0     C82708  12.228   4.471   5.244  0.6569 -0.6000 -0.2785
  600MOL0     C82709  12.085   4.489   5.281  0.7107 -0.6708 -1.0114
  600MOL0     O82710  11.832   4.600   5.389  0.3490 -0.4090  0.3312
  600MOL0     C82711  11.567   4.454   5.176 -0.8647 -0.3343 -0.3726
  600MOL0     C82712  11.431   4.438   5.160  0.3492 -0.4416 -0.3642
  600MOL0     N82713  10.640   4.595   5.109  0.5422  0.3435 -0.0734
  600MOL0     N82714  10.524   4.557   5.158 -0.2250 -0.2223  1.0797
  600MOL0     C82715  10.813   4.829   5.464 -0.6434 -0.6747  0.8564
  600MOL0     C82716  10.867   4.861   5.344  0.0052  0.2889  0.3229
  600MOL0     C82717  11.240   5.045   5.114  0.0632  0.1142 -0.0980
  600MOL0     C82718  11.316   4.922   5.097 -0.5456  0.6064 -0.0173
  600MOL0     C82719  11.437   4.925   5.027 -0.0882 -0.1751  0.0788
  600MOL0     C82720  11.485   5.037   4.957  0.2226  0.0588  0.0772
  600MOL0     O82721  11.600   5.029   4.891 -0.2999 -0.0877  0.7983
  600MOL0     C82722  11.641   5.121   4.787 -0.8219  0.3894  1.1131
  600MOL0     C82723  11.736   5.041   4.687  1.5017 -0.5023 -0.9521
  600MOL0     C82724  11.880   5.041   4.720 -0.0992  0.7328  0.5049
  600MOL0     C82725  11.965   5.170   4.706 -0.1654 -0.3537  1.0255
  600MOL0     C82726  11.947   5.236   4.572 -0.0358  0.4216 -0.2097
  600MOL0     C82727  11.927   5.286   4.463  0.2616  0.2866 -1.7514
  600MOL0     C82728  11.401   5.153   4.972 -1.0170  0.6283 -0.2926
  600MOL0     C82729  11.284   5.162   5.047 -0.7049 -0.1081  0.1869
  600MOL0     C82730  11.209   5.294   5.054 -1.3947  0.5337  0.8555
  600MOL0     H82731  11.179   4.943   5.452  0.3561 -1.1187  0.4435
  600MOL0     H82732  11.071   4.887   5.670  1.1643 -4.1270 -0.5750
  600MOL0     H82733  10.630   4.932   5.658 -0.6039 -0.3405  0.2872
  600MOL0     H82734  10.674   4.954   5.826  2.0445 -0.3267  1.5148
  600MOL0     H82735  10.674   4.695   5.836 -0.5104 -2.8759 -0.3454
  600MOL0     H82736  10.525   4.795   5.836 -0.6830 -1.9135 -0.2220
  600MOL0     H82737  10.504   4.714   5.591  1.1451  1.9743 -0.4145
  600MOL0     H82738  10.642   4.615   5.610  0.4758  2.1220  0.4621
  600MOL0     H82739  10.492   4.496   5.796  2.0188 -1.2329 -0.6079
  600MOL0     H82740  10.356   4.576   5.698 -1.1188 -2.2610  1.7016
  600MOL0     H82741  10.411   4.344   5.649 -2.6495  0.2801 -2.6590
  600MOL0     H82742  10.573   4.396   5.590  1.1119  1.4874  1.1188
  600MOL0     H82743  10.309   4.492   5.483  1.3116  1.9949  2.7234
  600MOL0     H82744  10.472   4.545   5.428 -1.1868  1.0911  0.8225
  600MOL0     H82745  10.336   4.268   5.430  2.4762 -1.3206  1.1816
  600MOL0     H82746  10.501   4.275   5.397  1.8335  0.9664 -0.6644
  600MOL0     H82747  10.392   4.263   5.173 -1.2858  1.0193 -0.7357
  600MOL0     H82748  10.325   4.422   5.198  1.1453 -0.4790 -3.3041
  600MOL0     H82749  10.683   4.272   5.149  0.2208 -0.4042 -1.9133
  600MOL0     H82750  10.878   4.531   4.961 -2.1113 -2.7405 -2.6458
  600MOL0     H82751  10.897   4.377   5.051  0.7911 -0.1492 -1.5812
  600MOL0     H82752  11.062   4.553   5.099  0.3202 -0.0869  2.0243
  600MOL0     H82753  10.932   4.657   5.163 -0.5091 -0.2335 -0.4505
  600MOL0     H82754  10.915   4.557   5.353  0.0787 -0.5787 -0.3117
  600MOL0     H82755  10.958   4.391   5.286  1.7891 -0.0572 -1.4252
  600MOL0     H82756  11.171   4.607   5.311  1.4120  0.3137  1.6376
  600MOL0     H82757  11.130   4.511   5.443 -1.7906 -1.0476  0.1868
  600MOL0     H82758  11.338   4.524   5.470  0.0953 -0.2587  0.5324
  600MOL0     H82759  11.656   4.521   5.568 -0.1616 -2.7110 -0.0956
  600MOL0     H82760  11.489   4.560   5.597  0.0283 -0.6508 -0.3574
  600MOL0     H82761  11.585   4.689   5.522  1.4869 -0.4382  0.4629
  600MOL0     H82762  11.930   4.392   5.010  0.2311 -1.0302  2.0526
  600MOL0     H82763  12.175   4.391   4.923  3.1353  2.2343  0.5027
  600MOL0     H82764  12.481   4.563   5.196 -1.2653 -0.8054  0.1233
  600MOL0     H82765  12.578   4.499   5.068 -0.7565 -0.5679 -1.7386
  600MOL0     H82766  12.365   4.712   5.060  1.0449  1.8013  2.2755
  600MOL0     H82767  12.547   4.735   5.070 -1.2921 -0.1409  3.2934
  600MOL0     H82768  12.373   4.584   4.853 -1.2886  1.1635  0.9901
  600MOL0     H82769  12.543   4.631   4.839 -0.5935 -0.6011 -1.8534
  600MOL0     H82770  12.484   4.859   4.817  0.0666 -0.2242 -3.5600
  600MOL0     H82771  12.310   4.830   4.869  0.7646 -1.4287 -0.4362
  600MOL0     H82772  12.436   4.740   4.614 -1.2252 -2.0107  0.1905
  600MOL0     H82773  12.265   4.733   4.640 -0.7439  0.2931  0.5315
  600MOL0     H82774  12.445   4.962   4.578  0.3335 -0.6745 -1.0551
  600MOL0     H82775  12.285   5.000   4.644  1.3584 -0.3805  0.6193
  600MOL0     H82776  12.218   4.827   4.441 -0.7780  0.9308 -1.8020
  600MOL0     H82777  12.375   4.887   4.376 -0.5392 -0.7323 -0.1559
  600MOL0     H82778  12.138   5.066   4.473 -0.2850  0.6234 -0.0853
  600MOL0     H82779  12.153   5.010   4.312  1.0285 -3.8798 -0.2857
  600MOL0     H82780  12.302   4.500   5.317 -0.8124  0.7783  0.7378
  600MOL0     H82781  12.062   4.520   5.383 -0.9937  0.2806 -1.6453
  600MOL0     H82782  11.621   4.415   5.091 -1.6521 -3.7866  0.5540
  600MOL0     H82783  11.411   4.404   5.059  1.0503  0.2264 -0.7314
  600MOL0     H82784  10.710   4.799   5.451 -0.0559 -1.5321 -3.7321
  600MOL0     H82785  10.802   4.854   5.258  0.1439  1.8294  0.0632
  600MOL0     H82786  11.281   4.826   5.134  5.5370 -1.7682  0.7310
  600MOL0     H82787  11.485   4.827   5.030 -0.1476 -0.1715  1.2144
  600MOL0     H82788  11.558   5.157   4.724 -1.9440 -1.6578  1.3226
  600MOL0     H82789  11.697   5.196   4.843  1.3174 -1.1847  1.1811
  600MOL0     H82790  11.725   5.093   4.592  4.4292 -0.4475 -1.3554
  600MOL0     H82791  11.698   4.938   4.682  1.1330 -0.3096 -2.9745
  600MOL0     H82792  11.888   4.993   4.818 -2.8304  0.7952  0.8308
  600MOL0     H82793  11.920   4.965   4.651 -0.2973  0.2593  0.9022
  600MOL0     H82794  12.070   5.142   4.718 -0.6261 -4.3477 -2.1030
  600MOL0     H82795  11.942   5.246   4.781 -0.0951  1.6006 -0.8130
  600MOL0     H82796  11.900   5.334   4.371 -0.7503  2.7625 -0.2738
  600MOL0     H82797  11.439   5.236   4.913 -1.7070  3.3576  2.8054
  600MOL0     H82798  11.104   5.287   5.024 -0.6133  0.8383 -2.2239
  600MOL0     H82799  11.219   5.336   5.155  2.8005  0.4094  0.6740
  600MOL0     H82800  11.275   5.350   4.988  2.0351 -0.1517  3.3774
  601MOL0     O82801   5.809   6.350   8.203 -0.1190  0.0568 -0.1010
  601MOL0     C82802   5.691   6.357   8.151 -0.7437  0.6972 -0.1047
  601MOL0     O82803   5.637   6.472   8.112  0.6788 -0.7084  0.2025
  601MOL0     C82804   5.692   6.590   8.156  0.1864 -0.1695  0.9054
  601MOL0     C82805   5.629   6.680   8.253  0.2141  0.6778  0.6175
  601MOL0     C82806   5.706   6.774   8.300  1.2510 -0.1491 -0.2762
  601MOL0     C82807   5.832   6.806   8.254  0.0900 -0.3361  0.3405
  601MOL0     O82808   5.893   6.921   8.274 -0.3943 -0.3228  0.2767
  601MOL0     C82809   5.876   6.992   8.396 -0.9899 -0.0379 -0.3971
  601MOL0     C82810   6.003   7.083   8.399 -0.0708 -0.5381  0.2287
  601MOL0     C82811   6.112   7.022   8.485  1.1675 -0.6446  0.6264
  601MOL0     C82812   6.248   7.101   8.485  0.8965 -1.2758  0.7670
  601MOL0     C82813   6.320   7.092   8.342 -0.2509  0.4751 -0.4702
  601MOL0     C82814   6.441   6.997   8.363  0.5024 -0.0306  1.2271
  601MOL0     C82815   6.515   6.952   8.234  1.2085 -0.2473  0.6122
  601MOL0     C82816   6.613   6.840   8.260 -0.0470  0.1073 -0.2980
  601MOL0     N82817   6.549   6.715   8.311  0.9364  0.0182 -1.2639
  601MOL0     C82818   6.420   6.671   8.279 -0.4030 -0.8733  0.2479
  601MOL0     C82819   6.405   6.562   8.354 -0.1396  1.0211  0.8815
  601MOL0     C82820   6.284   6.463   8.352  0.2263 -0.1845 -0.3025
  601MOL0     C82821   6.283   6.348   8.458  0.4096  0.7089 -0.7509
  601MOL0     C82822   6.176   6.250   8.442 -0.6897  0.2131  0.3460
  601MOL0     C82823   6.162   6.155   8.557  0.1072  0.2720  0.1087
  601MOL0     O82824   6.073   6.050   8.522 -0.4812  0.0978 -0.0816
  601MOL0     C82825   6.001   5.996   8.627 -0.7149 -0.0515 -0.2192
  601MOL0     C82826   5.873   6.037   8.648  0.1915 -0.7027  0.7780
  601MOL0     C82827   5.790   5.979   8.752 -0.7894 -0.5993  0.2323
  601MOL0     C82828   5.646   6.030   8.760 -0.1462 -0.4112 -0.5292
  601MOL0     C82829   5.841   5.881   8.833  0.7842 -0.6130 -1.0203
  601MOL0     C82830   5.773   5.826   8.958 -0.7298 -0.0762  1.9048
  601MOL0     O82831   5.835   5.708   9.009  0.7508 -0.2738 -0.1862
  601MOL0     C82832   5.784   5.652   9.123 -0.2039 -0.8593 -1.0783
  601MOL0     C82833   5.887   5.569   9.180  0.9146  0.4468  0.0147
  601MOL0     C82834   5.843   5.490   9.286 -0.3128  0.2784  0.2017
  601MOL0     C82835   5.722   5.510   9.352  0.4741  1.2033  0.1072
  601MOL0     O82836   5.695   5.430   9.460 -0.2582  0.2276 -0.2452
  601MOL0     C82837   5.577   5.454   9.535  0.4328 -0.2839  0.3579
  601MOL0     C82838   5.564   5.355   9.645 -0.7466  0.5792  0.4552
  601MOL0     C82839   5.439   5.364   9.728  0.1561 -0.4478  0.2944
  601MOL0     C82840   5.423   5.267   9.838 -0.3092 -0.8779 -0.5598
  601MOL0     C82841   5.277   5.241   9.896 -1.2062  0.1553  0.9572
  601MOL0     C82842   5.281   5.160  10.028 -0.4369 -1.4037 -0.1947
  601MOL0     C82843   5.149   5.140  10.100  0.1651  0.2832  0.5327
  601MOL0     C82844   5.085   5.265  10.152  0.0014  0.6941 -0.1008
  601MOL0    Cl82845   4.923   5.251  10.210 -0.0061  0.3026  0.4337
  601MOL0     C82846   5.626   5.584   9.294  0.9076 -0.1138  0.0989
  601MOL0     C82847   5.659   5.658   9.180 -0.3415  0.9500  0.4339
  601MOL0     O82848   5.686   5.892   9.011  0.0235  0.2401  0.3945
  601MOL0     C82849   5.980   5.844   8.810  0.9864 -0.5023 -0.1234
  601MOL0     C82850   6.058   5.895   8.704  0.2225 -0.3957  0.5498
  601MOL0     N82851   6.517   6.541   8.433  0.2350 -0.4185 -0.1937
  601MOL0     N82852   6.604   6.636   8.407 -0.8873 -0.2017 -0.1943
  601MOL0     C82853   5.881   6.736   8.147 -1.4393 -0.5721 -0.3463
  601MOL0     C82854   5.813   6.636   8.091 -0.3672  0.0748 -0.1308
  601MOL0     C82855   5.628   6.224   8.114 -0.3602 -0.1840 -0.1329
  601MOL0     C82856   5.693   6.100   8.140 -0.7290  0.1388  0.4345
  601MOL0     C82857   5.644   5.976   8.103  0.2514  0.1472  0.5958
  601MOL0     C82858   5.513   5.960   8.071 -0.8794 -0.6789 -0.1631
  601MOL0     O82859   5.456   5.844   8.045  0.0351  0.2852 -0.5809
  601MOL0     C82860   5.506   5.720   8.088 -0.5212 -0.6199 -1.1197
  601MOL0     C82861   5.463   5.691   8.233  0.3054 -0.5727 -0.1187
  601MOL0     C82862   5.485   5.543   8.279  0.2384  0.0383  0.0638
  601MOL0     C82863   5.399   5.513   8.405  0.9074  0.7779 -0.1717
  601MOL0     C82864   5.379   5.366   8.428  0.7185  1.2174  0.4685
  601MOL0     C82865   5.387   5.241   8.449  0.4518  0.3142  0.8953
  601MOL0     C82866   5.433   6.076   8.063 -1.0126  0.2654  0.5425
  601MOL0     C82867   5.488   6.205   8.069 -0.6255  0.6920 -0.5688
  601MOL0     C82868   5.393   6.322   8.036  0.3780  0.0460 -0.1298
  601MOL0     H82869   5.535   6.650   8.299 -0.7890  2.3469 -0.2590
  601MOL0     H82870   5.661   6.846   8.368 -3.5345 -1.4362 -1.6481
  601MOL0     H82871   5.867   6.923   8.480  0.4478  2.8834  2.3652
  601MOL0     H82872   5.785   7.052   8.399 -2.0922 -1.4789  4.6095
  601MOL0     H82873   6.035   7.118   8.301  1.8493 -2.4154  0.1307
  601MOL0     H82874   5.953   7.168   8.445  1.4118  0.0530  0.8001
  601MOL0     H82875   6.072   7.000   8.584  0.9578 -1.8608  0.2938
  601MOL0     H82876   6.137   6.923   8.445  0.7369 -0.8798  0.9307
  601MOL0     H82877   6.231   7.204   8.516 -0.3644 -1.4190  0.5896
  601MOL0     H82878   6.310   7.071   8.570  1.5355 -1.4881  0.2345
  601MOL0     H82879   6.343   7.194   8.310  1.2514  0.4743  0.5075
  601MOL0     H82880   6.250   7.044   8.273 -1.3645  1.7101 -0.2501
  601MOL0     H82881   6.513   7.036   8.435  1.0974  0.5799  0.3284
  601MOL0     H82882   6.396   6.906   8.402  0.2125  0.3305  1.7504
  601MOL0     H82883   6.579   7.032   8.196  2.8179 -1.6294  0.2936
  601MOL0     H82884   6.443   6.933   8.154 -0.2565  3.3875  0.8946
  601MOL0     H82885   6.675   6.809   8.175  2.3291 -3.6991  2.4683
  601MOL0     H82886   6.683   6.877   8.336 -3.4326  3.6780  1.4355
  601MOL0     H82887   6.345   6.718   8.216  0.2187  0.8172  0.7046
  601MOL0     H82888   6.294   6.423   8.251  0.2337 -1.1334  0.0573
  601MOL0     H82889   6.190   6.518   8.346  0.1602 -0.4929 -3.6399
  601MOL0     H82890   6.381   6.299   8.451  0.0889  0.0346 -0.5391
  601MOL0     H82891   6.267   6.408   8.548 -1.1127  2.2881 -2.0114
  601MOL0     H82892   6.079   6.299   8.432 -0.5621  0.4760  0.3875
  601MOL0     H82893   6.189   6.184   8.356  0.1720  0.7799  0.0275
  601MOL0     H82894   6.251   6.105   8.597  1.3382 -2.1048 -4.7857
  601MOL0     H82895   6.134   6.227   8.634  2.2451  4.1525 -2.3759
  601MOL0     H82896   5.839   6.126   8.595 -1.5342  0.5395  3.7356
  601MOL0     H82897   5.579   5.994   8.682 -0.5156  0.5541 -0.6779
  601MOL0     H82898   5.649   6.140   8.762  1.1435 -0.4164  2.0388
  601MOL0     H82899   5.591   5.999   8.849 -1.1114  0.1018 -0.9242
  601MOL0     H82900   5.983   5.554   9.133  0.0665 -0.4475 -1.5429
  601MOL0     H82901   5.921   5.424   9.322 -1.4475 -0.4542  1.4063
  601MOL0     H82902   5.571   5.558   9.568  0.1012  0.4627 -1.8922
  601MOL0     H82903   5.491   5.440   9.469 -0.1713  0.5072  0.9607
  601MOL0     H82904   5.573   5.258   9.596 -1.2416  0.2329  1.0335
  601MOL0     H82905   5.648   5.368   9.713 -1.3001  0.7276  1.1221
  601MOL0     H82906   5.363   5.340   9.652 -0.1688  0.1197  0.4347
  601MOL0     H82907   5.417   5.468   9.756 -0.3095 -0.2877 -0.6136
  601MOL0     H82908   5.488   5.311   9.914 -0.6407  0.1856 -0.8748
  601MOL0     H82909   5.457   5.171   9.799  0.8985 -0.5119 -0.4460
  601MOL0     H82910   5.239   5.338   9.928 -0.7112 -0.1061  2.4510
  601MOL0     H82911   5.206   5.208   9.820 -0.7677  1.0397  0.1494
  601MOL0     H82912   5.334   5.218  10.104 -1.0772 -0.0168 -0.7712
  601MOL0     H82913   5.336   5.069  10.003  2.5925  0.6139 -1.4825
  601MOL0     H82914   5.166   5.075  10.186  0.5846 -0.4030 -0.0557
  601MOL0     H82915   5.092   5.089  10.021  3.9402 -1.5069 -1.2901
  601MOL0     H82916   5.096   5.339  10.072  2.4646  1.7508  1.0958
  601MOL0     H82917   5.159   5.294  10.227 -0.7195  1.2511  0.4151
  601MOL0     H82918   5.531   5.604   9.343  2.0659 -0.4238  2.6457
  601MOL0     H82919   5.579   5.719   9.141 -1.3343 -0.2167  0.5975
  601MOL0     H82920   6.017   5.765   8.874 -0.1840 -0.7951  0.2178
  601MOL0     H82921   6.162   5.866   8.691  0.8267  1.7925  0.1048
  601MOL0     H82922   5.972   6.774   8.102 -0.8101 -1.9423 -0.3034
  601MOL0     H82923   5.858   6.577   8.011  3.8335 -1.2053  2.8510
  601MOL0     H82924   5.798   6.095   8.168 -0.8008  0.5221  0.7789
  601MOL0     H82925   5.704   5.885   8.112  2.4131  1.6054  2.0876
  601MOL0     H82926   5.456   5.652   8.018 -2.9098 -0.4034  0.2748
  601MOL0     H82927   5.614   5.708   8.073  0.2749  2.6079  0.9905
  601MOL0     H82928   5.356   5.710   8.247  0.4462  0.8657 -0.7798
  601MOL0     H82929   5.510   5.763   8.301 -1.1743  0.1624  0.1530
  601MOL0     H82930   5.449   5.477   8.199 -0.3543 -2.4325  2.2055
  601MOL0     H82931   5.588   5.528   8.312 -0.8208 -1.7423  3.0031
  601MOL0     H82932   5.297   5.551   8.401  0.1551 -0.7548  2.2796
  601MOL0     H82933   5.449   5.572   8.482  0.8724 -0.0499  0.4944
  601MOL0     H82934   5.388   5.134   8.461 -2.3749 -0.4091 -3.1657
  601MOL0     H82935   5.328   6.060   8.042 -1.6283  3.2395  0.9151
  601MOL0     H82936   5.295   6.283   8.005  1.5091 -2.1581 -1.1381
  601MOL0     H82937   5.384   6.393   8.119  0.1990 -0.0484 -0.0650
  601MOL0     H82938   5.434   6.383   7.955  2.6440  0.2875  1.1295
  602MOL0     O82939   8.306   3.045   7.545  0.1408  0.0191 -0.1749
  602MOL0     C82940   8.315   3.135   7.461 -0.1447 -0.4149 -0.2141
  602MOL0     O82941   8.346   3.110   7.329 -0.2268 -0.0943 -0.1771
  602MOL0     C82942   8.308   2.984   7.292  0.7415  0.9192  0.9839
  602MOL0     C82943   8.187   2.968   7.219 -0.3419  1.1597  0.5908
  602MOL0     C82944   8.127   2.845   7.192  0.9060 -0.3468 -0.1556
  602MOL0     C82945   8.207   2.727   7.220  0.5279 -0.0618  0.4382
  602MOL0     O82946   8.137   2.610   7.194 -0.2117 -0.3263 -0.2750
  602MOL0     C82947   8.161   2.503   7.277  0.5061 -0.3430  0.3743
  602MOL0     C82948   8.037   2.411   7.271  0.8413  0.2306 -0.3482
  602MOL0     C82949   8.062   2.261   7.323 -0.2645  0.8670  0.6632
  602MOL0     C82950   8.044   2.251   7.474  0.3120  0.1720  0.0637
  602MOL0     C82951   8.074   2.113   7.520 -0.3597 -0.2759 -0.1436
  602MOL0     C82952   8.122   2.122   7.667 -0.3350  0.2759  0.2687
  602MOL0     C82953   8.111   1.991   7.742  0.0154 -0.8659 -0.5614
  602MOL0     C82954   8.176   1.987   7.876  0.3334 -0.0182  0.3594
  602MOL0     N82955   8.156   1.872   7.955  0.8906 -0.1762 -0.5311
  602MOL0     C82956   8.175   1.750   7.911  1.1597 -0.2885 -0.5670
  602MOL0     C82957   8.164   1.674   8.023 -0.4259 -0.1125  0.3672
  602MOL0     C82958   8.154   1.521   8.033 -0.7337 -0.4483  0.2312
  602MOL0     C82959   8.008   1.493   8.091 -0.0052  0.5036  0.0505
  602MOL0     C82960   7.990   1.334   8.097  0.5089 -0.1636 -0.2886
  602MOL0     C82961   7.889   1.304   8.219 -0.3421 -0.6433 -0.5185
  602MOL0     O82962   7.769   1.369   8.169 -0.6737  0.5797 -0.2926
  602MOL0     C82963   7.702   1.314   8.069  0.0252 -0.0975 -0.3644
  602MOL0     C82964   7.587   1.381   8.033 -0.5143  0.0436 -0.3627
  602MOL0     C82965   7.493   1.331   7.942 -0.4939  0.1153 -0.1876
  602MOL0     C82966   7.381   1.412   7.909 -0.1775  0.5526 -0.1265
  602MOL0     C82967   7.525   1.205   7.870  0.8338  0.1331  0.2814
  602MOL0     C82968   7.442   1.150   7.753  0.0115  0.0072  0.4074
  602MOL0     O82969   7.457   1.009   7.737 -0.9142 -0.7623 -0.3420
  602MOL0     C82970   7.392   0.954   7.628 -0.7481 -0.2151  0.8824
  602MOL0     C82971   7.300   0.853   7.651 -0.5971  0.7957 -0.1576
  602MOL0     C82972   7.217   0.808   7.548  0.1791  0.1793 -0.2242
  602MOL0     C82973   7.213   0.862   7.424 -0.3738 -0.9224  0.1935
  602MOL0     O82974   7.123   0.808   7.329 -0.3400 -0.4576  0.1309
  602MOL0     C82975   7.078   0.898   7.223  0.4481  0.6214 -0.4852
  602MOL0     C82976   6.966   0.844   7.140 -0.2092  0.9336  0.5333
  602MOL0     C82977   7.013   0.738   7.046  0.1658  0.7143 -0.8425
  602MOL0     C82978   6.899   0.695   6.958  0.2224 -0.4039  0.0125
  602MOL0     C82979   6.792   0.608   7.029 -0.0465  0.2018  0.4517
  602MOL0     C82980   6.850   0.489   7.124  0.1521 -1.2479  0.2228
  602MOL0     C82981   6.730   0.406   7.152  0.1529 -0.5053 -0.0695
  602MOL0     C82982   6.772   0.294   7.244  0.5494  0.3753  0.0537
  602MOL0    Cl82983   6.829   0.157   7.151 -0.9566  0.0548 -0.1955
  602MOL0     C82984   7.319   0.950   7.398 -0.4953 -1.1283 -0.0796
  602MOL0     C82985   7.408   0.997   7.501 -0.8113  0.1602  0.4825
  602MOL0     O82986   7.384   1.226   7.676  0.0087  0.1492  0.3832
  602MOL0     C82987   7.640   1.139   7.918 -0.7031 -0.0128 -0.2293
  602MOL0     C82988   7.718   1.189   8.019 -0.1811  1.4001 -0.3158
  602MOL0     N82989   8.143   1.759   8.135  0.3118 -0.7256  0.3414
  602MOL0     N82990   8.126   1.883   8.091 -1.0939 -0.3059  0.5938
  602MOL0     C82991   8.334   2.748   7.282  0.0308  0.2795 -0.3074
  602MOL0     C82992   8.389   2.871   7.307 -0.8684 -0.8979  0.1096
  602MOL0     C82993   8.297   3.277   7.494  0.3443  0.0221  0.6135
  602MOL0     C82994   8.230   3.357   7.404  1.6316 -0.1249  0.0856
  602MOL0     C82995   8.206   3.497   7.434  0.7469  0.7605 -0.0974
  602MOL0     C82996   8.277   3.560   7.539  0.0542  0.6145 -0.0557
  602MOL0     O82997   8.272   3.684   7.589 -1.1733  0.3253 -0.2263
  602MOL0     C82998   8.258   3.793   7.496 -0.1523 -0.6193 -0.8353
  602MOL0     C82999   8.233   3.924   7.579 -0.1613  0.0865  0.0009
  602MOL0     C83000   8.333   3.960   7.686 -0.6930 -0.5691  0.8537
  602MOL0     C83001   8.463   4.011   7.630 -0.1172 -0.6686 -0.4697
  602MOL0     C83002   8.572   4.000   7.733  0.9051 -0.0777  1.2359
  602MOL0     C83003   8.659   3.994   7.817 -0.1307 -0.0975  0.6935
  602MOL0     C83004   8.342   3.472   7.628 -0.0973  0.5287  0.4402
  602MOL0     C83005   8.350   3.336   7.610  1.3753  0.4261 -0.1033
  602MOL0     C83006   8.419   3.258   7.715  0.2531  0.3099  0.8025
  602MOL0     H83007   8.134   3.059   7.190 -0.0124  1.5671  1.2561
  602MOL0     H83008   8.024   2.839   7.159  0.3104 -0.4579  1.6055
  602MOL0     H83009   8.178   2.532   7.381 -0.4123 -0.8658  0.6774
  602MOL0     H83010   8.250   2.451   7.241  0.2905 -0.9572  0.7205
  602MOL0     H83011   7.957   2.456   7.331 -0.4337  0.4113 -2.1016
  602MOL0     H83012   8.010   2.422   7.165 -0.1175 -2.8061 -0.5164
  602MOL0     H83013   7.988   2.197   7.275  1.6373 -3.0449  2.4467
  602MOL0     H83014   8.160   2.223   7.293 -0.1984 -0.3921  2.3439
  602MOL0     H83015   8.121   2.319   7.513  0.0634  1.3292 -1.3963
  602MOL0     H83016   7.954   2.288   7.523 -0.0908  0.2822 -0.7419
  602MOL0     H83017   8.153   2.082   7.452 -0.4991  0.4220 -0.6380
  602MOL0     H83018   7.987   2.048   7.505  0.8045 -1.4710 -2.1082
  602MOL0     H83019   8.228   2.148   7.670 -0.0820 -0.5219 -0.8740
  602MOL0     H83020   8.074   2.203   7.722 -0.3983  1.6657 -1.7361
  602MOL0     H83021   8.149   1.906   7.685  0.0962 -1.0770 -0.1979
  602MOL0     H83022   8.004   1.971   7.747 -0.3983 -0.2439 -4.2205
  602MOL0     H83023   8.282   2.002   7.856  0.4261  0.0260  0.8818
  602MOL0     H83024   8.140   2.076   7.929 -0.8724  0.7246 -1.5995
  602MOL0     H83025   8.206   1.712   7.814  1.0515 -2.0648  0.0655
  602MOL0     H83026   8.230   1.493   8.106 -2.3592  0.2219  2.2753
  602MOL0     H83027   8.185   1.467   7.943  0.7332  2.3317 -1.0907
  602MOL0     H83028   7.992   1.540   8.189 -3.6070  0.0195 -0.1411
  602MOL0     H83029   7.930   1.538   8.029 -1.2268 -0.2995  0.9515
  602MOL0     H83030   7.969   1.300   7.995 -0.2619  0.1142 -0.2259
  602MOL0     H83031   8.086   1.291   8.127 -0.3073 -1.5722  0.3572
  602MOL0     H83032   7.879   1.196   8.230  1.7846 -0.7604  0.8361
  602MOL0     H83033   7.921   1.354   8.311 -1.5072  2.4717 -1.6569
  602MOL0     H83034   7.564   1.478   8.075  1.4543  1.2910 -1.9314
  602MOL0     H83035   7.405   1.472   7.820 -0.0973  3.2504  1.5890
  602MOL0     H83036   7.352   1.472   7.996 -2.8174 -3.1301  1.7990
  602MOL0     H83037   7.287   1.359   7.897 -1.8141  3.0688  0.7010
  602MOL0     H83038   7.294   0.808   7.750  0.9566  1.7560  0.4165
  602MOL0     H83039   7.147   0.730   7.577  0.7979  0.1528  1.3028
  602MOL0     H83040   7.043   0.988   7.274  1.6960 -0.0469  1.7081
  602MOL0     H83041   7.163   0.925   7.159  0.4006  2.4183  0.1369
  602MOL0     H83042   6.896   0.802   7.212  0.0875 -0.1545  0.2201
  602MOL0     H83043   6.923   0.924   7.080  0.1081  1.3837  0.8982
  602MOL0     H83044   7.065   0.656   7.096  1.6835  1.8180 -0.5422
  602MOL0     H83045   7.089   0.790   6.986  0.6366  0.0234 -0.8462
  602MOL0     H83046   6.940   0.644   6.871  0.2009 -0.5338  0.0781
  602MOL0     H83047   6.863   0.780   6.900  0.2490 -1.2043 -1.2045
  602MOL0     H83048   6.734   0.665   7.104 -1.8975  1.5082 -1.8346
  602MOL0     H83049   6.730   0.580   6.944  0.7091  0.5441 -0.2224
  602MOL0     H83050   6.899   0.539   7.208 -0.0859  0.2376 -0.4808
  602MOL0     H83051   6.927   0.431   7.072 -0.4549 -1.3290 -0.6189
  602MOL0     H83052   6.688   0.365   7.060  1.8087  2.4212 -2.3343
  602MOL0     H83053   6.658   0.477   7.193  1.1563  0.9338 -0.6983
  602MOL0     H83054   6.686   0.249   7.296  0.2873 -0.8821 -1.4017
  602MOL0     H83055   6.856   0.327   7.306  1.0503  2.6133 -1.7108
  602MOL0     H83056   7.348   0.994   7.303  1.8746  0.3394  1.2413
  602MOL0     H83057   7.484   1.073   7.485 -0.2038 -0.3973  0.6936
  602MOL0     H83058   7.674   1.048   7.868 -2.3630 -0.7970 -0.0076
  602MOL0     H83059   7.783   1.120   8.072 -0.6584  0.3134 -1.1107
  602MOL0     H83060   8.382   2.656   7.314 -1.0633  0.3836  1.7773
  602MOL0     H83061   8.479   2.883   7.367 -0.9796 -2.8685  0.7161
  602MOL0     H83062   8.187   3.317   7.313  0.6576 -0.0312  0.4879
  602MOL0     H83063   8.150   3.564   7.369  2.0734  0.1557 -1.9480
  602MOL0     H83064   8.347   3.801   7.434  0.4179 -1.0836 -0.0913
  602MOL0     H83065   8.173   3.771   7.430  0.6916 -0.8362 -1.8770
  602MOL0     H83066   8.143   3.919   7.640 -0.0750 -2.5818  0.0203
  602MOL0     H83067   8.232   4.003   7.503  0.2804 -0.2375 -0.3434
  602MOL0     H83068   8.295   4.029   7.762  1.8934  0.9455  0.8428
  602MOL0     H83069   8.356   3.862   7.730 -0.3992 -1.3844 -1.0206
  602MOL0     H83070   8.462   4.116   7.600  3.0735 -0.4034 -0.0591
  602MOL0     H83071   8.501   3.958   7.543  2.7515 -0.0050  0.2654
  602MOL0     H83072   8.736   4.002   7.892  0.8391  0.1522 -0.2990
  602MOL0     H83073   8.382   3.509   7.722 -1.1460  0.4751  0.9231
  602MOL0     H83074   8.501   3.194   7.679 -1.2346 -0.6127 -1.1146
  602MOL0     H83075   8.461   3.327   7.789 -1.5305 -0.7334  2.8832
  602MOL0     H83076   8.345   3.200   7.770  2.0229  0.0868  3.1369
  603MOL0     O83077   5.780   8.950   8.130 -0.2711 -0.0238  0.0257
  603MOL0     C83078   5.705   8.988   8.036 -0.0136 -0.4849 -0.3106
  603MOL0     O83079   5.746   9.055   7.926  0.9322 -0.8345 -0.4564
  603MOL0     C83080   5.882   9.066   7.899  0.0084 -1.5720 -0.0430
  603MOL0     C83081   5.972   9.126   7.989  0.4507 -0.8124 -0.1537
  603MOL0     C83082   6.110   9.133   7.950  0.2305  0.1013 -0.4888
  603MOL0     C83083   6.157   9.093   7.830  0.4560 -0.8448  0.0999
  603MOL0     O83084   6.294   9.099   7.794  1.0187 -0.5525 -0.8589
  603MOL0     C83085   6.359   9.225   7.813  0.1908 -0.3699  1.4744
  603MOL0     C83086   6.455   9.257   7.696 -0.2224  0.3158  0.2214
  603MOL0     C83087   6.370   9.331   7.581 -0.8446  0.5746 -0.3099
  603MOL0     C83088   6.378   9.488   7.609  0.6628 -0.1855  0.4894
  603MOL0     C83089   6.293   9.563   7.502  0.2630  0.4115 -0.5528
  603MOL0     C83090   6.139   9.545   7.526 -0.5351  0.2984 -0.4160
  603MOL0     C83091   6.052   9.605   7.419 -0.1556  1.0133 -0.1090
  603MOL0     C83092   5.914   9.626   7.470  0.2109 -0.3421 -0.0557
  603MOL0     N83093   5.834   9.691   7.358 -0.1257 -0.7917 -0.1304
  603MOL0     C83094   5.861   9.822   7.308 -0.7601 -0.1889  0.4652
  603MOL0     C83095   5.767   9.838   7.211  0.1165  0.0783 -0.3564
  603MOL0     C83096   5.743   9.963   7.131  0.8653 -0.4288  0.6094
  603MOL0     C83097   5.674  10.078   7.212  0.6243  0.7205  0.4212
  603MOL0     C83098   5.521  10.042   7.231  0.5781 -0.4198  0.0699
  603MOL0     C83099   5.489   9.949   7.345  0.4150 -1.2563  0.5496
  603MOL0     O83100   5.340   9.953   7.385 -0.5361 -0.9648 -0.0738
  603MOL0     C83101   5.329   9.987   7.519  0.9468  0.4184 -0.8426
  603MOL0     C83102   5.356  10.114   7.565  0.1209 -0.5090 -0.1104
  603MOL0     C83103   5.336  10.154   7.702 -0.6246  0.6124 -0.6382
  603MOL0     C83104   5.339  10.307   7.730  0.1011 -0.0572 -0.1523
  603MOL0     C83105   5.319  10.049   7.804  0.5194  0.0629  1.4597
  603MOL0     C83106   5.319  10.060   7.948 -0.8816  0.3821  0.2322
  603MOL0     O83107   5.301   9.952   8.028  0.3488 -1.0599 -0.0148
  603MOL0     C83108   5.356   9.965   8.149  0.3193 -0.4235 -0.5040
  603MOL0     C83109   5.297  10.048   8.251  0.6114 -1.0711  0.9229
  603MOL0     C83110   5.338  10.054   8.381  0.4403 -0.2550  0.6837
  603MOL0     C83111   5.453   9.976   8.418  0.7039  0.1228 -0.2384
  603MOL0     O83112   5.504   9.958   8.544 -0.2803 -0.3314  0.3451
  603MOL0     C83113   5.466  10.041   8.656  0.6457 -0.1683  0.0416
  603MOL0     C83114   5.542   9.999   8.781  0.0223  0.4939  0.0232
  603MOL0     C83115   5.556  10.108   8.887 -0.7162 -0.9040  0.6277
  603MOL0     C83116   5.602  10.058   9.027  0.0248 -0.1515 -0.2201
  603MOL0     C83117   5.622  10.180   9.115 -0.9335 -0.2687 -0.5850
  603MOL0     C83118   5.500  10.275   9.151 -0.1984  0.5770 -0.1512
  603MOL0     C83119   5.516  10.408   9.077  0.6728  0.3706  0.3521
  603MOL0     C83120   5.405  10.500   9.124  0.2369  0.2082 -0.0459
  603MOL0    Cl83121   5.371  10.646   9.025 -0.3487  0.2418  0.2817
  603MOL0     C83122   5.510   9.895   8.319 -0.7097 -0.8240 -0.5005
  603MOL0     C83123   5.459   9.884   8.194 -0.3751 -0.3681  0.5240
  603MOL0     O83124   5.355  10.174   7.986 -0.0623  0.6788 -0.0883
  603MOL0     C83125   5.295   9.919   7.751  0.0457  0.7179 -1.1313
  603MOL0     C83126   5.297   9.888   7.615 -0.3156 -0.6106  0.0846
  603MOL0     N83127   5.702   9.717   7.184 -0.1068  1.4287 -0.1597
  603MOL0     N83128   5.736   9.637   7.282  0.1863 -0.9243  0.2505
  603MOL0     C83129   6.069   9.060   7.734  1.5197  1.1933  0.2552
  603MOL0     C83130   5.931   9.038   7.774 -0.2042 -0.1060  0.2218
  603MOL0     C83131   5.556   8.965   8.057 -0.5298 -0.1878 -0.4940
  603MOL0     C83132   5.502   8.928   8.190 -0.9419 -0.0657  0.0005
  603MOL0     C83133   5.371   8.924   8.216 -0.4742 -0.6399 -0.5410
  603MOL0     C83134   5.280   8.959   8.107  0.4016  0.0246 -0.7643
  603MOL0     O83135   5.145   8.979   8.139 -0.0273  0.6188 -0.5803
  603MOL0     C83136   5.089   8.886   8.230 -1.0308 -1.0460  1.3687
  603MOL0     C83137   4.946   8.859   8.202  0.0987  0.0365  0.6278
  603MOL0     C83138   4.938   8.766   8.081 -0.4583  0.9549 -1.0410
  603MOL0     C83139   4.988   8.626   8.108  0.2944  1.3176 -0.0553
  603MOL0     C83140   4.908   8.531   8.027 -0.3974 -0.1105 -0.5466
  603MOL0     C83141   4.854   8.447   7.965 -0.3129 -0.1591  0.2109
  603MOL0     C83142   5.328   8.994   7.985  0.6737 -0.7401  0.0788
  603MOL0     C83143   5.464   8.996   7.956 -0.0054  0.4686 -0.3780
  603MOL0     C83144   5.495   9.014   7.808 -0.7387  0.3366  0.5774
  603MOL0     H83145   5.947   9.160   8.089 -1.2263 -1.5286 -0.2996
  603MOL0     H83146   6.183   9.173   8.019  0.5812 -2.7149  0.9371
  603MOL0     H83147   6.416   9.206   7.904  1.9147  0.5551  0.6432
  603MOL0     H83148   6.282   9.303   7.816 -0.7363 -0.9222 -2.4394
  603MOL0     H83149   6.546   9.311   7.725  2.1170 -3.0096 -0.4374
  603MOL0     H83150   6.504   9.171   7.651 -1.5939  0.4438 -1.6458
  603MOL0     H83151   6.413   9.307   7.484  0.4326 -0.3159  0.4358
  603MOL0     H83152   6.267   9.295   7.579 -1.0056  1.0366 -0.4567
  603MOL0     H83153   6.330   9.504   7.706 -1.4428  0.6590 -0.6332
  603MOL0     H83154   6.483   9.517   7.607  0.6434 -0.1199  0.4426
  603MOL0     H83155   6.316   9.533   7.399 -2.0454  3.8093 -2.2794
  603MOL0     H83156   6.308   9.670   7.521 -0.1062 -0.0129  2.5878
  603MOL0     H83157   6.107   9.441   7.528 -2.0473  0.6694 -2.4648
  603MOL0     H83158   6.131   9.610   7.614  0.1087 -0.5443  0.2822
  603MOL0     H83159   6.044   9.544   7.329  0.0647  2.5553 -1.2098
  603MOL0     H83160   6.090   9.702   7.385 -0.5538  1.2194  0.0237
  603MOL0     H83161   5.872   9.528   7.493 -0.8052  0.6692  2.8480
  603MOL0     H83162   5.918   9.698   7.553  1.1869  0.7721 -1.0236
  603MOL0     H83163   5.925   9.899   7.349  0.3028 -1.0689  0.4779
  603MOL0     H83164   5.671   9.939   7.052 -2.7765 -0.0692  3.5275
  603MOL0     H83165   5.841   9.988   7.089  1.2749 -1.5119  0.8804
  603MOL0     H83166   5.720  10.101   7.309 -0.1927 -1.0335  1.2666
  603MOL0     H83167   5.680  10.169   7.152 -0.6578  0.0750 -0.7185
  603MOL0     H83168   5.473  10.138   7.253  0.1114 -0.5651 -0.2861
  603MOL0     H83169   5.468  10.005   7.142 -0.3768  0.2036  0.3560
  603MOL0     H83170   5.516   9.845   7.324 -2.5099 -1.3438 -4.0887
  603MOL0     H83171   5.567   9.973   7.418 -0.1159 -4.3132  2.2775
  603MOL0     H83172   5.387  10.190   7.494  1.4989 -1.4700 -0.5729
  603MOL0     H83173   5.330  10.367   7.639  1.3460  1.1626  0.4813
  603MOL0     H83174   5.444  10.329   7.755  0.1919  1.3357 -1.6039
  603MOL0     H83175   5.274  10.346   7.809  0.6221  0.7620 -0.1165
  603MOL0     H83176   5.223  10.118   8.213  2.4542 -0.0041 -0.9231
  603MOL0     H83177   5.288  10.123   8.447 -1.8504 -0.1208 -1.0591
  603MOL0     H83178   5.484  10.147   8.637 -2.7505  0.2586 -1.5129
  603MOL0     H83179   5.358  10.033   8.672  0.1288  2.8323 -1.2137
  603MOL0     H83180   5.500   9.910   8.829  1.5727  1.4019  3.3004
  603MOL0     H83181   5.643   9.974   8.748  0.3163 -2.7665  2.9284
  603MOL0     H83182   5.453  10.146   8.891 -0.2020  0.4179  3.5595
  603MOL0     H83183   5.631  10.179   8.853 -0.5883 -2.5537 -2.9714
  603MOL0     H83184   5.698  10.007   9.016  0.0532 -0.3359  0.7801
  603MOL0     H83185   5.524   9.994   9.068 -1.0782  0.2409 -1.6168
  603MOL0     H83186   5.666  10.142   9.208  1.9435  1.2158 -1.2182
  603MOL0     H83187   5.710  10.234   9.079  0.3374 -1.7620  0.1343
  603MOL0     H83188   5.486  10.288   9.258  0.1078 -1.0470  0.1120
  603MOL0     H83189   5.409  10.227   9.113 -0.0548  1.6430 -1.9639
  603MOL0     H83190   5.500  10.385   8.971 -3.6875 -0.3104  0.9544
  603MOL0     H83191   5.612  10.456   9.098  1.3577  0.0119 -1.7159
  603MOL0     H83192   5.444  10.541   9.218 -0.7913 -1.2049  1.0416
  603MOL0     H83193   5.311  10.447   9.141  1.1967 -1.6927 -0.4818
  603MOL0     H83194   5.590   9.830   8.351 -0.3904  0.6164  1.8700
  603MOL0     H83195   5.511   9.805   8.140  0.2514 -0.2145  0.8917
  603MOL0     H83196   5.281   9.825   7.804  1.8339  1.0712  0.0664
  603MOL0     H83197   5.269   9.789   7.583  0.9118 -1.0283  0.2785
  603MOL0     H83198   6.102   9.035   7.633 -3.4122 -3.5830 -0.6548
  603MOL0     H83199   5.865   8.998   7.698  1.3359  0.3606 -1.4389
  603MOL0     H83200   5.574   8.899   8.266 -1.0204  0.8525  0.4415
  603MOL0     H83201   5.337   8.888   8.313  3.8127 -1.3273  0.9116
  603MOL0     H83202   5.130   8.785   8.220 -3.7529 -2.0975 -0.9369
  603MOL0     H83203   5.112   8.930   8.327 -1.5963 -0.8640  1.4219
  603MOL0     H83204   4.902   8.955   8.173  3.1246  1.7665  1.3230
  603MOL0     H83205   4.893   8.825   8.292 -3.2199 -0.3015 -1.2992
  603MOL0     H83206   4.832   8.759   8.056 -0.7547 -4.1268  0.5618
  603MOL0     H83207   5.002   8.792   7.996  0.9422 -4.3193 -1.9349
  603MOL0     H83208   4.968   8.603   8.213  2.7192  0.5594  0.2880
  603MOL0     H83209   5.091   8.604   8.078 -0.4016 -0.9358 -1.0433
  603MOL0     H83210   4.814   8.360   7.916 -1.0677  1.3124 -1.9104
  603MOL0     H83211   5.271   9.043   7.906 -0.8064 -1.0268  0.9372
  603MOL0     H83212   5.587   8.963   7.779 -0.3453 -0.2352  2.6730
  603MOL0     H83213   5.410   8.977   7.750  0.0427 -1.7662  0.6713
  603MOL0     H83214   5.506   9.120   7.785 -0.5269  0.7279  2.3301
  604MOL0     O83215   0.731   6.130   2.848 -0.5348 -0.1192  0.1341
  604MOL0     C83216   0.630   6.075   2.886  0.0239 -0.7012  0.2389
  604MOL0     O83217   0.586   6.057   3.018 -0.0332  0.1218 -0.3907
  604MOL0     C83218   0.628   6.146   3.114  0.2983  0.6992 -0.0142
  604MOL0     C83219   0.638   6.094   3.240 -0.4458  0.5501 -0.3393
  604MOL0     C83220   0.682   6.180   3.352 -0.3206  0.5346  0.2240
  604MOL0     C83221   0.723   6.309   3.326  0.3199 -0.6049  0.3135
  604MOL0     O83222   0.780   6.399   3.415 -0.7424  0.6844  0.3952
  604MOL0     C83223   0.781   6.360   3.552  0.1733 -0.2095  0.2708
  604MOL0     C83224   0.909   6.275   3.590 -0.7308 -0.7404 -0.5768
  604MOL0     C83225   0.916   6.222   3.731  1.2623 -0.4743 -0.3114
  604MOL0     C83226   1.046   6.142   3.759 -0.8843 -0.2965 -0.8823
  604MOL0     C83227   1.054   6.057   3.883 -0.0775  0.2337 -0.0617
  604MOL0     C83228   0.982   5.918   3.876 -0.4332  0.4758  0.3318
  604MOL0     C83229   1.050   5.804   3.944 -0.4007 -0.3605  0.8482
  604MOL0     C83230   1.180   5.758   3.863  0.4401  0.0077 -0.5096
  604MOL0     N83231   1.221   5.616   3.889 -0.0766  0.0485 -0.4469
  604MOL0     C83232   1.167   5.508   3.820 -0.2798  0.9874 -0.3828
  604MOL0     C83233   1.238   5.399   3.872 -0.1182 -0.2664 -1.1894
  604MOL0     C83234   1.220   5.253   3.841  0.5949 -0.3621  0.3302
  604MOL0     C83235   1.185   5.170   3.964  0.7469 -0.6846 -0.2011
  604MOL0     C83236   1.056   5.220   4.031  0.5648 -0.9729  0.1245
  604MOL0     C83237   1.029   5.142   4.161  0.5931 -0.5412  0.6011
  604MOL0     O83238   1.143   5.141   4.247 -0.1409  0.3647  0.7512
  604MOL0     C83239   1.143   5.258   4.327  0.2585 -0.7243  0.3158
  604MOL0     C83240   1.217   5.367   4.303  0.0589  0.0456 -0.5059
  604MOL0     C83241   1.222   5.478   4.389  0.3024  0.6219 -0.1265
  604MOL0     C83242   1.296   5.596   4.340  0.8363  0.1347  0.5169
  604MOL0     C83243   1.155   5.462   4.512 -0.5812  0.1187  0.6555
  604MOL0     C83244   1.143   5.575   4.611  0.0743  0.5074  0.4788
  604MOL0     O83245   1.188   5.703   4.582 -0.2333  0.0139 -0.1553
  604MOL0     C83246   1.141   5.796   4.673  0.8032 -0.4147 -0.3170
  604MOL0     C83247   1.201   5.805   4.799 -0.4217 -0.4550  0.7336
  604MOL0     C83248   1.154   5.900   4.898 -1.2709  0.1551  0.0664
  604MOL0     C83249   1.047   5.982   4.867 -1.0660  0.5352  0.8786
  604MOL0     O83250   1.020   6.071   4.967 -0.9463  0.0995  0.2346
  604MOL0     C83251   0.917   6.173   4.932  0.0557  0.9030 -0.5700
  604MOL0     C83252   0.902   6.246   5.063  0.4465  0.6103 -0.4692
  604MOL0     C83253   0.809   6.370   5.052 -0.9939  0.1705 -0.2633
  604MOL0     C83254   0.771   6.414   5.192 -0.7445  0.0642 -0.5530
  604MOL0     C83255   0.882   6.466   5.291  0.3096  0.2786 -0.3437
  604MOL0     C83256   0.831   6.572   5.386  0.2193  0.2728  0.1515
  604MOL0     C83257   0.947   6.639   5.460  0.4475  0.3019  0.0077
  604MOL0     C83258   0.919   6.788   5.471  0.3329 -0.7053 -0.1019
  604MOL0    Cl83259   0.780   6.819   5.573 -0.4949  0.1876  0.3449
  604MOL0     C83260   0.983   5.967   4.739 -0.1015 -0.3076 -0.4010
  604MOL0     C83261   1.025   5.872   4.648 -0.7989  0.5600  0.1640
  604MOL0     O83262   1.110   5.536   4.723  0.5831  0.3084  0.2674
  604MOL0     C83263   1.095   5.342   4.544  0.5186  0.0075  0.2714
  604MOL0     C83264   1.070   5.245   4.445  0.0303 -0.3251  0.7398
  604MOL0     N83265   1.324   5.448   3.970 -0.3397  0.7796 -0.2587
  604MOL0     N83266   1.307   5.574   3.986  0.0722  0.5308  0.3229
  604MOL0     C83267   0.701   6.361   3.199 -0.0648 -0.3455 -0.1669
  604MOL0     C83268   0.655   6.283   3.089  0.1583 -0.6477 -0.2503
  604MOL0     C83269   0.542   6.015   2.781  0.1207  0.7452  0.0720
  604MOL0     C83270   0.591   6.025   2.643  0.5266  0.2386  0.3648
  604MOL0     C83271   0.512   5.978   2.534 -1.2853 -0.2120  0.0530
  604MOL0     C83272   0.387   5.919   2.557  0.0525 -0.9478  0.1397
  604MOL0     O83273   0.324   5.851   2.453  0.1215 -0.4142 -0.0431
  604MOL0     C83274   0.206   5.777   2.466  0.5775  1.0892  0.3657
  604MOL0     C83275   0.163   5.728   2.318  0.9179 -0.3440 -0.4810
  604MOL0     C83276   0.269   5.681   2.223  1.2157 -0.4585 -0.4561
  604MOL0     C83277   0.222   5.590   2.110  0.3868  0.3180 -0.7581
  604MOL0     C83278   0.341   5.528   2.053  0.0404  0.1442  0.0181
  604MOL0     C83279   0.445   5.489   2.010 -0.1814  0.7432 -0.1445
  604MOL0     C83280   0.341   5.915   2.686 -0.5037 -0.2350 -0.0042
  604MOL0     C83281   0.408   5.954   2.805 -1.2429 -0.6053  0.3367
  604MOL0     C83282   0.344   5.935   2.940 -0.4858 -0.5948  0.0895
  604MOL0     H83283   0.607   5.993   3.263  3.5325 -0.6653  0.5027
  604MOL0     H83284   0.702   6.138   3.450 -0.0396  3.7257  1.6678
  604MOL0     H83285   0.688   6.305   3.571 -0.2082 -0.1193 -1.2445
  604MOL0     H83286   0.774   6.445   3.620 -2.7394 -1.1495  1.3294
  604MOL0     H83287   0.908   6.185   3.527  1.4315 -0.9971 -0.3235
  604MOL0     H83288   1.003   6.327   3.572 -0.8821 -0.4856 -0.6297
  604MOL0     H83289   0.893   6.298   3.807 -0.5392 -1.3853  0.1022
  604MOL0     H83290   0.839   6.145   3.741  0.7673  0.1837  1.3599
  604MOL0     H83291   1.074   6.073   3.679  2.6383  0.1311 -0.1628
  604MOL0     H83292   1.129   6.214   3.759  0.5883 -1.9112 -1.9377
  604MOL0     H83293   1.017   6.118   3.966 -4.8429  3.7703 -4.2310
  604MOL0     H83294   1.160   6.037   3.905 -0.2423 -2.9252 -1.5598
  604MOL0     H83295   0.880   5.937   3.912 -0.2842  3.4401 -0.5233
  604MOL0     H83296   0.964   5.894   3.771 -0.0047  1.5026  0.0172
  604MOL0     H83297   0.972   5.727   3.939  0.7261 -1.4684 -3.2193
  604MOL0     H83298   1.073   5.822   4.050  1.1839 -0.9336  0.6149
  604MOL0     H83299   1.155   5.771   3.757  3.0473 -1.8625 -1.4634
  604MOL0     H83300   1.265   5.824   3.880 -0.3749  2.0217 -3.4081
  604MOL0     H83301   1.082   5.507   3.753 -1.7056 -0.4999  1.3446
  604MOL0     H83302   1.311   5.209   3.800 -0.0961 -1.2952 -0.2525
  604MOL0     H83303   1.126   5.240   3.786  2.3482  2.8826 -4.0501
  604MOL0     H83304   1.175   5.063   3.942 -0.0758 -0.3827 -1.3711
  604MOL0     H83305   1.265   5.189   4.036  0.3369 -0.2427  0.1510
  604MOL0     H83306   1.068   5.322   4.069  1.7294 -0.6608 -0.9788
  604MOL0     H83307   0.967   5.213   3.967  1.4092 -2.5381 -0.9434
  604MOL0     H83308   0.943   5.190   4.207  0.8963 -1.3323  2.0596
  604MOL0     H83309   1.005   5.036   4.146 -0.4920 -0.7702  3.2994
  604MOL0     H83310   1.292   5.360   4.225  0.4283 -1.7293 -0.0374
  604MOL0     H83311   1.225   5.646   4.274  0.9157 -2.8545 -2.0933
  604MOL0     H83312   1.387   5.574   4.283  3.2921  0.8250  3.8954
  604MOL0     H83313   1.332   5.659   4.421  3.3460 -3.1936  2.2546
  604MOL0     H83314   1.285   5.742   4.828 -1.7617 -2.3780  0.6057
  604MOL0     H83315   1.205   5.914   4.993  0.9574  1.4502 -1.2322
  604MOL0     H83316   0.959   6.237   4.853 -1.4382 -0.2631 -2.3784
  604MOL0     H83317   0.818   6.134   4.909  0.2322 -0.6985  1.1389
  604MOL0     H83318   0.851   6.171   5.123  2.4293 -0.6941 -0.3401
  604MOL0     H83319   0.999   6.269   5.108 -0.8760  1.9264  1.9012
  604MOL0     H83320   0.723   6.340   4.991 -0.2788 -0.3807 -1.0312
  604MOL0     H83321   0.861   6.455   5.008  1.0783 -0.5457  0.6527
  604MOL0     H83322   0.728   6.333   5.253  1.8459  0.7033  2.4177
  604MOL0     H83323   0.701   6.498   5.187  1.1733  1.8965  1.0493
  604MOL0     H83324   0.913   6.380   5.352  4.1645 -0.9608 -3.6015
  604MOL0     H83325   0.973   6.499   5.239 -0.8001  3.7520 -0.3353
  604MOL0     H83326   0.776   6.510   5.457  2.7653 -0.0279  1.9937
  604MOL0     H83327   0.764   6.650   5.348 -0.7039 -1.4582 -1.9758
  604MOL0     H83328   1.035   6.624   5.398 -1.2291  2.6842 -3.2298
  604MOL0     H83329   0.978   6.586   5.551 -0.5256 -1.2233 -0.5014
  604MOL0     H83330   0.907   6.827   5.369  0.2239 -0.0112  0.1688
  604MOL0     H83331   1.007   6.839   5.510 -1.7506  1.8562  1.6089
  604MOL0     H83332   0.901   6.031   4.711  1.4878  2.6635  1.2030
  604MOL0     H83333   0.973   5.857   4.554 -1.2843  0.5307  0.4340
  604MOL0     H83334   1.045   5.333   4.640 -3.5207  6.9356 -0.4983
  604MOL0     H83335   1.025   5.153   4.480  2.8468 -1.7456  0.9192
  604MOL0     H83336   0.732   6.465   3.193  0.6566 -0.4812  0.9285
  604MOL0     H83337   0.638   6.324   2.991 -0.3805 -1.5341 -0.5399
  604MOL0     H83338   0.690   6.059   2.614 -0.2161  0.9051 -1.4900
  604MOL0     H83339   0.548   5.979   2.432  0.4057  0.0709  0.6202
  604MOL0     H83340   0.221   5.687   2.526  1.4668  1.4835  0.7613
  604MOL0     H83341   0.130   5.831   2.523 -2.5904 -1.7713 -0.8211
  604MOL0     H83342   0.108   5.812   2.273  0.3740  0.0408  0.8514
  604MOL0     H83343   0.083   5.657   2.341 -0.1148  0.9597  0.1461
  604MOL0     H83344   0.314   5.774   2.188  0.4403 -0.3912 -1.3119
  604MOL0     H83345   0.341   5.622   2.281  0.2174 -0.1599  1.1827
  604MOL0     H83346   0.161   5.638   2.033  1.7471  1.9637 -0.8649
  604MOL0     H83347   0.163   5.505   2.148  0.9138 -0.0060 -0.6497
  604MOL0     H83348   0.531   5.445   1.964 -1.2402  1.4649 -3.0076
  604MOL0     H83349   0.250   5.855   2.693  0.4304 -2.1160 -2.4852
  604MOL0     H83350   0.248   5.884   2.943  0.6750 -3.4209 -3.5193
  604MOL0     H83351   0.415   5.883   3.004  0.3245 -1.8463 -1.7438
  604MOL0     H83352   0.333   6.039   2.974  1.3497  0.1469 -1.3713
  605MOL0     O83353   0.226   1.082   0.219  0.3242 -0.4817  0.3091
  605MOL0     C83354   0.187   1.008   0.307  0.2859 -0.4442 -0.4461
  605MOL0     O83355   0.122   1.041   0.424  0.0656 -0.2055  0.4696
  605MOL0     C83356   0.097   1.180   0.436 -0.1130  0.6374  0.3805
  605MOL0     C83357   0.181   1.256   0.520 -0.2251 -0.5448  0.4600
  605MOL0     C83358   0.133   1.382   0.560  0.2823  0.7013 -0.3054
  605MOL0     C83359   0.001   1.433   0.537 -0.8247  0.5144 -0.1890
  605MOL0     O83360  -0.055   1.553   0.588 -0.8678 -0.4239  1.0163
  605MOL0     C83361  -0.026   1.598   0.719 -0.8495 -0.8039  0.5316
  605MOL0     C83362   0.105   1.674   0.719  0.2784 -0.3607  0.0109
  605MOL0     C83363   0.127   1.750   0.851  0.4029 -0.2529 -0.0915
  605MOL0     C83364   0.263   1.807   0.853  0.1941 -0.2645  0.3892
  605MOL0     C83365   0.397   1.715   0.866  0.3573  0.2004 -0.1085
  605MOL0     C83366   0.465   1.663   0.733  0.4359 -0.0955  0.4677
  605MOL0     C83367   0.614   1.667   0.739  0.3371 -0.6003 -1.0138
  605MOL0     C83368   0.677   1.595   0.617  0.0652 -0.4922 -0.2624
  605MOL0     N83369   0.661   1.449   0.600 -1.1480 -0.3558 -0.2311
  605MOL0     C83370   0.661   1.380   0.476 -0.2329 -1.2334 -0.2788
  605MOL0     C83371   0.662   1.247   0.521  0.3663 -0.2439  0.3046
  605MOL0     C83372   0.672   1.126   0.433 -0.2617 -0.0091 -0.1405
  605MOL0     C83373   0.545   1.055   0.384  0.1333 -0.1515  0.3070
  605MOL0     C83374   0.575   0.946   0.279  0.0342  1.4681 -0.7115
  605MOL0     C83375   0.629   0.816   0.336 -0.0971 -0.3754  0.5363
  605MOL0     O83376   0.553   0.783   0.452 -0.2888  0.3271  0.3092
  605MOL0     C83377   0.589   0.660   0.508 -0.0132 -0.0599  0.1178
  605MOL0     C83378   0.657   0.554   0.443  0.0646 -0.7452  0.0167
  605MOL0     C83379   0.666   0.426   0.505 -0.3645  0.6518 -0.1778
  605MOL0     C83380   0.746   0.315   0.435  0.1684  0.2769  0.5170
  605MOL0     C83381   0.598   0.399   0.631  0.4576 -0.3230 -0.1749
  605MOL0     C83382   0.593   0.260   0.700  0.3415 -0.6799 -0.3855
  605MOL0     O83383   0.561   0.274   0.835 -0.1994 -0.3366 -0.7520
  605MOL0     C83384   0.512   0.158   0.894  0.6216 -0.1002  0.3535
  605MOL0     C83385   0.371   0.156   0.902 -1.3257  0.7646 -0.0111
  605MOL0     C83386   0.320   0.045   0.977  0.0903  0.0577  1.0356
  605MOL0     C83387   0.396  -0.058   1.020  0.0024  0.7870 -0.0135
  605MOL0     O83388   0.321  -0.161   1.065 -0.2375 -0.9516  0.3171
  605MOL0     C83389   0.388  -0.260   1.143 -0.5770 -0.0572  0.3617
  605MOL0     C83390   0.285  -0.374   1.153  0.7627 -0.3003 -0.4649
  605MOL0     C83391   0.206  -0.339   1.275  0.0302  0.6805 -1.4551
  605MOL0     C83392   0.106  -0.454   1.291 -0.5114  0.7897  0.0975
  605MOL0     C83393   0.003  -0.411   1.405 -0.3736  1.2367 -1.0434
  605MOL0     C83394   0.062  -0.419   1.545 -0.7017 -0.2566 -0.0041
  605MOL0     C83395  -0.039  -0.452   1.647 -0.0844  0.1957 -0.6595
  605MOL0     C83396   0.022  -0.495   1.782  0.3368  0.2023 -0.1861
  605MOL0    Cl83397  -0.110  -0.545   1.890  0.0625 -0.8014 -0.0430
  605MOL0     C83398   0.539  -0.046   1.005  0.4745  0.0642 -0.8390
  605MOL0     C83399   0.598   0.059   0.939  0.7158  0.7775 -0.0150
  605MOL0     O83400   0.587   0.158   0.633 -0.1260 -0.2515  0.5622
  605MOL0     C83401   0.543   0.513   0.701  0.2806  1.0681 -0.3059
  605MOL0     C83402   0.535   0.628   0.635 -0.2072 -0.2014  0.3036
  605MOL0     N83403   0.644   1.243   0.661 -0.2962 -0.1074 -0.4860
  605MOL0     N83404   0.658   1.363   0.707 -1.0338 -0.3799  0.2603
  605MOL0     C83405  -0.079   1.352   0.456  0.5054 -0.1539 -0.5232
  605MOL0     C83406  -0.034   1.231   0.406 -0.9736  0.5279 -0.6342
  605MOL0     C83407   0.206   0.860   0.299  0.6907  0.2008 -0.3351
  605MOL0     C83408   0.247   0.784   0.407  0.6544  0.6556  0.4418
  605MOL0     C83409   0.262   0.655   0.407  0.3331  0.9135 -0.4885
  605MOL0     C83410   0.253   0.584   0.289  0.3083  0.0044  1.0169
  605MOL0     O83411   0.271   0.453   0.294  0.0411 -0.6036 -0.7582
  605MOL0     C83412   0.387   0.411   0.216 -0.6034 -0.0678  0.8104
  605MOL0     C83413   0.413   0.269   0.252  0.0438 -0.7620  0.2089
  605MOL0     C83414   0.299   0.167   0.225 -0.6803 -0.5005  0.2174
  605MOL0     C83415   0.241   0.172   0.084  0.3043 -0.5001  0.2561
  605MOL0     C83416   0.348   0.137   0.001  0.2633  0.9075  1.3368
  605MOL0     C83417   0.461   0.127  -0.050 -1.0935 -0.5187 -0.6379
  605MOL0     C83418   0.217   0.652   0.167  0.3730  0.5382  0.5315
  605MOL0     C83419   0.196   0.791   0.174 -0.1812 -0.9442 -0.7790
  605MOL0     C83420   0.165   0.864   0.035 -0.1527  0.2067  0.0482
  605MOL0     H83421   0.275   1.210   0.549  0.5447 -0.6946 -2.0903
  605MOL0     H83422   0.201   1.433   0.626  1.0812 -1.6368  0.7837
  605MOL0     H83423  -0.021   1.519   0.795 -4.6820  2.5579  4.8396
  605MOL0     H83424  -0.108   1.662   0.752 -1.6012 -0.7284 -1.3458
  605MOL0     H83425   0.191   1.606   0.717 -0.2447 -1.2709  3.3533
  605MOL0     H83426   0.108   1.748   0.638  1.9009  0.3661  0.6742
  605MOL0     H83427   0.058   1.835   0.848  2.4501  1.6364  2.3604
  605MOL0     H83428   0.107   1.697   0.945 -1.2770  0.6822  0.1166
  605MOL0     H83429   0.275   1.888   0.780  1.9943 -1.3077 -0.5655
  605MOL0     H83430   0.271   1.858   0.949 -0.4423  0.1391  0.2282
  605MOL0     H83431   0.375   1.633   0.935  0.5595  1.3027  1.3133
  605MOL0     H83432   0.462   1.769   0.935  1.5097 -3.3456  1.8114
  605MOL0     H83433   0.430   1.560   0.717 -1.7392  0.8298 -1.1721
  605MOL0     H83434   0.423   1.724   0.653 -2.7444 -0.8976  1.3600
  605MOL0     H83435   0.638   1.615   0.832 -2.4691  0.0436  0.1921
  605MOL0     H83436   0.644   1.771   0.748 -2.4157  0.4755 -2.7848
  605MOL0     H83437   0.634   1.634   0.525  1.3499  0.0897 -0.6301
  605MOL0     H83438   0.784   1.616   0.624 -0.4523  2.2081  0.5130
  605MOL0     H83439   0.659   1.430   0.380 -5.5694 -0.0753  0.1368
  605MOL0     H83440   0.718   1.050   0.497  0.9153 -0.3365 -1.3131
  605MOL0     H83441   0.727   1.138   0.339 -2.8710 -0.4934 -1.8423
  605MOL0     H83442   0.494   1.009   0.469 -0.6517 -1.6980 -0.9427
  605MOL0     H83443   0.477   1.129   0.339  3.5961  2.0968 -1.7346
  605MOL0     H83444   0.485   0.912   0.226  2.1204  0.4790 -3.8760
  605MOL0     H83445   0.643   0.976   0.199  0.6026  0.1066 -0.7661
  605MOL0     H83446   0.634   0.746   0.252 -2.7188 -0.8019  0.6669
  605MOL0     H83447   0.730   0.836   0.374  0.3784  1.2144 -1.4004
  605MOL0     H83448   0.707   0.574   0.348  0.3095 -0.6261  0.1684
  605MOL0     H83449   0.666   0.259   0.386 -0.3678  2.0725 -0.7569
  605MOL0     H83450   0.807   0.266   0.511 -1.0574  0.1691  1.4607
  605MOL0     H83451   0.810   0.357   0.357  1.0823  1.5924  1.9226
  605MOL0     H83452   0.306   0.233   0.863 -1.9131 -0.2009 -0.9597
  605MOL0     H83453   0.212   0.045   0.985  0.1170  0.2076  1.4095
  605MOL0     H83454   0.478  -0.298   1.094 -0.7288 -0.3899  0.3431
  605MOL0     H83455   0.416  -0.226   1.244  4.0496 -1.8230 -0.0638
  605MOL0     H83456   0.225  -0.380   1.062 -0.1197  3.5914 -0.3291
  605MOL0     H83457   0.336  -0.470   1.158  4.2248  1.4136  1.0204
  605MOL0     H83458   0.157  -0.242   1.260  2.1951  2.2521  0.7181
  605MOL0     H83459   0.259  -0.328   1.370  1.5088 -0.0242 -2.1700
  605MOL0     H83460   0.149  -0.551   1.317  1.1318  1.9070  1.8275
  605MOL0     H83461   0.052  -0.459   1.196  2.7763  1.9968 -1.9943
  605MOL0     H83462  -0.038  -0.313   1.381 -4.2359 -0.2247 -1.0835
  605MOL0     H83463  -0.075  -0.488   1.404  2.0792 -1.4881 -0.5566
  605MOL0     H83464   0.109  -0.323   1.571 -0.9417  0.1842 -1.1497
  605MOL0     H83465   0.145  -0.490   1.556  2.0572  3.0020  2.9212
  605MOL0     H83466  -0.100  -0.536   1.612 -0.4441  1.1949 -2.5349
  605MOL0     H83467  -0.100  -0.363   1.664  0.6521  0.0987  3.6316
  605MOL0     H83468   0.078  -0.410   1.823  3.6773 -0.3006 -3.2077
  605MOL0     H83469   0.093  -0.576   1.764  2.5222  1.4950  2.0650
  605MOL0     H83470   0.606  -0.119   1.050  0.3437  0.2743 -0.2885
  605MOL0     H83471   0.706   0.053   0.932  0.5284 -1.0471 -2.9644
  605MOL0     H83472   0.477   0.509   0.788 -2.8093  0.5478 -2.5139
  605MOL0     H83473   0.471   0.705   0.675  0.1694  2.5009 -3.6648
  605MOL0     H83474  -0.183   1.373   0.432  0.6280 -0.0021 -0.9294
  605MOL0     H83475  -0.108   1.175   0.350 -1.3853  1.2064 -0.7885
  605MOL0     H83476   0.258   0.838   0.501 -1.0801  0.4830  0.7915
  605MOL0     H83477   0.284   0.605   0.501 -0.3817  1.1059 -0.2136
  605MOL0     H83478   0.350   0.410   0.113 -1.3473 -1.2851  1.0713
  605MOL0     H83479   0.473   0.478   0.218 -1.0111  0.4712  0.4031
  605MOL0     H83480   0.439   0.269   0.359  2.1259 -2.4422 -0.2283
  605MOL0     H83481   0.499   0.226   0.202 -0.0394 -1.1466  0.3937
  605MOL0     H83482   0.340   0.067   0.244 -0.3782 -0.3818  0.1815
  605MOL0     H83483   0.215   0.187   0.293 -1.4093  0.4934 -0.9194
  605MOL0     H83484   0.211   0.274   0.058  2.6849  0.3672  0.6542
  605MOL0     H83485   0.155   0.107   0.068 -2.1661  2.5161  0.5136
  605MOL0     H83486   0.556   0.114  -0.099  0.2417  2.8081  0.7266
  605MOL0     H83487   0.217   0.589   0.078 -1.8462  1.2143 -0.0071
  605MOL0     H83488   0.245   0.932   0.006 -0.6710  1.2106  0.9078
  605MOL0     H83489   0.169   0.778  -0.032 -1.0457  0.4485 -0.3346
  605MOL0     H83490   0.070   0.919   0.029  1.3029  3.2632  2.0583
  606MOL0     O83491   0.930   4.306   5.659  0.0245  0.9009 -0.2422
  606MOL0     C83492   0.918   4.309   5.538 -0.0045  1.3304 -0.2011
  606MOL0     O83493   0.972   4.400   5.455  0.3627  0.5331  1.0387
  606MOL0     C83494   1.044   4.504   5.514  0.1174  0.1830  0.3897
  606MOL0     C83495   1.005   4.577   5.628  0.4212  0.1781  0.6694
  606MOL0     C83496   1.073   4.696   5.661 -0.0649  0.0748  0.2786
  606MOL0     C83497   1.181   4.739   5.591  0.0869 -0.3351  0.7587
  606MOL0     O83498   1.237   4.865   5.625 -0.8365  0.0833 -0.4282
  606MOL0     C83499   1.334   4.927   5.545 -0.0118 -0.0491 -0.3806
  606MOL0     C83500   1.338   5.066   5.597  0.2564 -0.5597  0.1666
  606MOL0     C83501   1.195   5.131   5.599  1.0500  0.2755  0.4422
  606MOL0     C83502   1.211   5.284   5.585 -0.1650 -0.2184 -0.6125
  606MOL0     C83503   1.075   5.348   5.594 -0.4876  0.3187  0.3732
  606MOL0     C83504   1.078   5.499   5.604 -0.9047  0.9296  0.2180
  606MOL0     C83505   1.136   5.558   5.733 -0.4136  0.1638  0.6499
  606MOL0     C83506   1.120   5.712   5.743  0.1761  0.2561  0.1351
  606MOL0     N83507   1.220   5.780   5.818 -0.1029 -0.1295 -0.1769
  606MOL0     C83508   1.203   5.834   5.945 -0.6963  0.5668  0.0739
  606MOL0     C83509   1.310   5.911   5.966 -0.1465 -1.6537 -0.0975
  606MOL0     C83510   1.334   5.985   6.095 -0.2702  0.0937 -1.1722
  606MOL0     C83511   1.475   5.951   6.152  0.6084  0.4485 -0.5351
  606MOL0     C83512   1.523   6.048   6.256  1.0928 -0.0112  0.7417
  606MOL0     C83513   1.449   6.036   6.392  0.0629 -0.5289  0.3765
  606MOL0     O83514   1.497   5.931   6.466  0.5259 -0.4193  0.5598
  606MOL0     C83515   1.425   5.897   6.582 -0.8415 -0.9925 -0.1218
  606MOL0     C83516   1.312   5.974   6.629 -0.0597  0.5393  1.9213
  606MOL0     C83517   1.236   5.936   6.735 -0.0406 -0.5877 -0.5246
  606MOL0     C83518   1.116   6.022   6.765  0.7774  0.5550 -0.5555
  606MOL0     C83519   1.284   5.834   6.823  0.4063 -0.0380 -0.2083
  606MOL0     C83520   1.201   5.776   6.934  0.1703 -0.4948  0.3561
  606MOL0     O83521   1.084   5.839   6.973 -0.3717  0.2512 -0.6681
  606MOL0     C83522   1.007   5.774   7.071  0.7657 -0.3842 -0.6689
  606MOL0     C83523   1.024   5.805   7.202  0.1532  0.4695 -0.6193
  606MOL0     C83524   0.940   5.748   7.299 -0.6017  0.7731  0.8778
  606MOL0     C83525   0.850   5.640   7.263  0.2647 -0.3712 -0.3245
  606MOL0     O83526   0.761   5.568   7.350 -0.4989 -1.2601  0.2591
  606MOL0     C83527   0.789   5.596   7.491  0.4577  0.6298 -0.1146
  606MOL0     C83528   0.706   5.490   7.573 -0.7124  0.0687  0.2835
  606MOL0     C83529   0.779   5.466   7.699 -0.0268 -0.4797 -0.1206
  606MOL0     C83530   0.876   5.348   7.675  0.4053  0.7590  1.0213
  606MOL0     C83531   0.913   5.275   7.799 -0.6429 -0.0242  0.7799
  606MOL0     C83532   0.799   5.187   7.846 -0.1220 -0.8491 -0.0958
  606MOL0     C83533   0.809   5.041   7.802 -0.0292  0.5963 -0.2580
  606MOL0     C83534   0.690   4.968   7.879 -0.1561  0.1543  0.4583
  606MOL0    Cl83535   0.634   4.829   7.791  0.3214  0.0743 -0.3016
  606MOL0     C83536   0.827   5.622   7.136 -0.9339 -0.1162  0.0129
  606MOL0     C83537   0.908   5.683   7.039 -0.2928  0.7150 -0.5450
  606MOL0     O83538   1.257   5.684   6.994 -0.1933 -0.4576 -0.5494
  606MOL0     C83539   1.400   5.766   6.791 -1.0045  0.2083  0.1764
  606MOL0     C83540   1.478   5.800   6.680 -0.1586 -0.7124  0.0213
  606MOL0     N83541   1.399   5.897   5.857  0.4934 -0.3785  0.2293
  606MOL0     N83542   1.343   5.827   5.768  0.4284  0.5163  0.4709
  606MOL0     C83543   1.225   4.672   5.486 -0.8652 -0.3043  0.5769
  606MOL0     C83544   1.162   4.555   5.448 -0.7226 -0.5499 -0.5830
  606MOL0     C83545   0.846   4.201   5.469 -0.8066  0.5220  0.1510
  606MOL0     C83546   0.840   4.206   5.332 -1.1620  0.5513  0.3433
  606MOL0     C83547   0.772   4.112   5.268  0.3817  0.1069  0.4125
  606MOL0     C83548   0.709   4.012   5.337  0.2723  0.0727  0.3666
  606MOL0     O83549   0.630   3.928   5.255 -0.5566  0.0070 -0.1249
  606MOL0     C83550   0.686   3.793   5.255  1.4859 -0.4029  0.1539
  606MOL0     C83551   0.677   3.732   5.114  0.4086  0.2798  0.3124
  606MOL0     C83552   0.534   3.712   5.052  1.0073  0.4074 -0.0730
  606MOL0     C83553   0.542   3.648   4.916 -0.2568  0.5125  0.3888
  606MOL0     C83554   0.626   3.723   4.827  0.1771 -0.0104 -0.4002
  606MOL0     C83555   0.706   3.777   4.757  0.0749 -0.4848  0.7385
  606MOL0     C83556   0.728   3.999   5.477 -1.1788 -0.8307 -0.7913
  606MOL0     C83557   0.796   4.092   5.553  0.6886 -0.0249  0.0980
  606MOL0     C83558   0.807   4.066   5.706  0.0771  0.2090  0.5980
  606MOL0     H83559   0.929   4.538   5.695 -0.5043  0.3514 -0.2736
  606MOL0     H83560   1.045   4.755   5.748  3.2618  2.2115  0.0953
  606MOL0     H83561   1.305   4.926   5.440 -1.3465 -0.9152 -0.0274
  606MOL0     H83562   1.432   4.881   5.557  0.1324  0.2031 -0.5758
  606MOL0     H83563   1.393   5.073   5.691 -0.8362 -0.9773  0.8474
  606MOL0     H83564   1.391   5.128   5.524 -0.0575  0.3911  0.7193
  606MOL0     H83565   1.141   5.101   5.508  0.2633 -0.8648  1.2512
  606MOL0     H83566   1.149   5.097   5.692  1.9372 -0.9072  0.4822
  606MOL0     H83567   1.275   5.327   5.663 -3.1733  3.9470 -0.0830
  606MOL0     H83568   1.265   5.323   5.498  0.7649  2.9660  1.1972
  606MOL0     H83569   1.038   5.308   5.688  2.6636  0.3512  1.7531
  606MOL0     H83570   1.013   5.319   5.509 -3.4370 -0.8047  2.7119
  606MOL0     H83571   1.130   5.536   5.515 -0.4177  0.0547  0.1339
  606MOL0     H83572   0.972   5.526   5.597 -1.5083 -1.1247  0.8366
  606MOL0     H83573   1.242   5.531   5.731 -1.1044 -2.7955 -1.0981
  606MOL0     H83574   1.089   5.503   5.815  1.5605 -4.2095 -0.8710
  606MOL0     H83575   1.120   5.762   5.646  2.0653  0.2041  0.0752
  606MOL0     H83576   1.019   5.738   5.774 -0.4008 -1.7953  0.1267
  606MOL0     H83577   1.118   5.820   6.010 -0.6836 -1.5120 -0.2975
  606MOL0     H83578   1.256   5.984   6.171  1.7230 -1.4522  0.9824
  606MOL0     H83579   1.336   6.092   6.076 -1.4206  0.4639  0.6044
  606MOL0     H83580   1.483   5.846   6.181 -1.0824  0.0774 -1.2913
  606MOL0     H83581   1.545   5.937   6.070 -2.6525 -3.8656 -2.9907
  606MOL0     H83582   1.631   6.039   6.268  1.1303 -2.8924 -0.8892
  606MOL0     H83583   1.514   6.154   6.233 -0.5644  0.1780  1.9866
  606MOL0     H83584   1.469   6.130   6.445  1.1131 -0.4813 -0.0806
  606MOL0     H83585   1.341   6.034   6.377  0.3400 -1.0760 -1.9074
  606MOL0     H83586   1.289   6.063   6.572  0.5289 -0.8680 -0.7051
  606MOL0     H83587   1.106   6.108   6.699  0.1976  1.3003  0.4652
  606MOL0     H83588   1.124   6.070   6.863 -3.4741 -0.0963  0.2875
  606MOL0     H83589   1.023   5.967   6.746  1.5050 -0.0798 -2.4804
  606MOL0     H83590   1.114   5.857   7.233 -1.0397  1.0923  2.1046
  606MOL0     H83591   0.966   5.765   7.403  0.8295  0.2453  0.6182
  606MOL0     H83592   0.897   5.592   7.506  0.4345 -3.1410  0.0578
  606MOL0     H83593   0.747   5.695   7.514 -2.4080 -0.6683  0.6680
  606MOL0     H83594   0.611   5.540   7.595  0.3032  1.4701  1.7134
  606MOL0     H83595   0.688   5.409   7.502 -0.6261  2.1698 -2.3024
  606MOL0     H83596   0.707   5.433   7.775 -1.7766 -3.2704 -2.7677
  606MOL0     H83597   0.835   5.554   7.733 -0.2103 -0.0781 -0.8400
  606MOL0     H83598   0.971   5.375   7.628  0.5248  0.3747  1.0388
  606MOL0     H83599   0.830   5.268   7.616  3.8900  0.0821 -1.0064
  606MOL0     H83600   1.000   5.211   7.785 -1.2095 -0.6491  0.0165
  606MOL0     H83601   0.936   5.364   7.858 -0.3561  1.7536 -1.8221
  606MOL0     H83602   0.706   5.236   7.816  0.1588 -1.2474 -1.7362
  606MOL0     H83603   0.793   5.184   7.955 -3.6276 -0.9552 -0.1978
  606MOL0     H83604   0.906   5.005   7.837 -0.5518 -0.3893  0.2254
  606MOL0     H83605   0.812   5.033   7.693  2.2632 -0.2192 -0.1853
  606MOL0     H83606   0.604   5.033   7.861 -1.5797 -1.5574  0.8416
  606MOL0     H83607   0.696   4.967   7.988 -3.6447  1.7357  0.8033
  606MOL0     H83608   0.752   5.549   7.108 -1.0056 -1.3772  3.1429
  606MOL0     H83609   0.900   5.642   6.939  2.2619  0.0982 -0.5744
  606MOL0     H83610   1.454   5.689   6.845  0.0679 -0.6190 -1.9667
  606MOL0     H83611   1.573   5.751   6.661  1.7361  0.5191  4.8928
  606MOL0     H83612   1.318   4.704   5.440  0.0086 -2.6995  0.5338
  606MOL0     H83613   1.206   4.498   5.367  0.9774  0.2363 -0.2621
  606MOL0     H83614   0.891   4.283   5.276  1.4701 -2.1584 -1.3324
  606MOL0     H83615   0.742   4.141   5.168 -1.3987 -0.1283  0.8394
  606MOL0     H83616   0.790   3.787   5.288  1.4498 -2.2585  0.0555
  606MOL0     H83617   0.634   3.727   5.325  0.0317  1.0475  0.4919
  606MOL0     H83618   0.739   3.642   5.115  0.4126  0.0578 -4.1262
  606MOL0     H83619   0.729   3.798   5.044 -0.5724  0.6804 -0.0518
  606MOL0     H83620   0.479   3.645   5.119  2.4979  0.6913  1.5020
  606MOL0     H83621   0.461   3.794   5.043 -1.0437 -1.5110 -2.6423
  606MOL0     H83622   0.443   3.647   4.870  0.5764 -1.2141 -1.5023
  606MOL0     H83623   0.568   3.543   4.932 -1.5749  0.2809  1.2339
  606MOL0     H83624   0.779   3.838   4.709  0.8786 -0.0436  2.4446
  606MOL0     H83625   0.683   3.931   5.549  0.0581  1.9260  2.9234
  606MOL0     H83626   0.758   4.153   5.751  0.0132  0.1534  0.6350
  606MOL0     H83627   0.762   3.984   5.762 -0.2385  1.2465  1.9378
  606MOL0     H83628   0.914   4.070   5.728  0.1084 -0.0505  0.4871
  607MOL0     O83629   7.702  10.956   8.589  0.0054 -0.0952  0.4818
  607MOL0     C83630   7.780  10.871   8.621 -0.3420  0.6919 -0.0919
  607MOL0     O83631   7.847  10.867   8.736  0.2422  0.2261  0.1679
  607MOL0     C83632   7.815  10.953   8.836 -0.8524 -0.2781  0.6386
  607MOL0     C83633   7.893  11.064   8.861 -0.5792 -1.0073  0.4037
  607MOL0     C83634   7.856  11.153   8.963 -0.3323  0.5214  0.0231
  607MOL0     C83635   7.746  11.134   9.035 -0.0484 -0.0661 -0.1446
  607MOL0     O83636   7.713  11.235   9.123  0.0337  0.1480 -0.4704
  607MOL0     C83637   7.596  11.310   9.090 -0.1113  1.1845 -0.5295
  607MOL0     C83638   7.553  11.405   9.188 -0.5059 -0.3952 -1.0074
  607MOL0     C83639   7.539  11.332   9.322 -0.6860  0.3530 -1.4009
  607MOL0     C83640   7.440  11.424   9.406 -0.5220 -0.0395 -0.0680
  607MOL0     C83641   7.455  11.363   9.548  0.2459  0.0822  0.2439
  607MOL0     C83642   7.349  11.428   9.629 -0.5494 -0.0114  0.2248
  607MOL0     C83643   7.357  11.363   9.771 -0.3230  0.0896 -0.3143
  607MOL0     C83644   7.238  11.415   9.854 -0.1693 -0.3477 -0.7775
  607MOL0     N83645   7.231  11.328   9.974  0.4012 -0.0832  0.5284
  607MOL0     C83646   7.238  11.378  10.103  0.2728 -0.0867 -0.2672
  607MOL0     C83647   7.220  11.269  10.180 -0.9877  0.1934 -0.9934
  607MOL0     C83648   7.220  11.276  10.328 -0.1532 -1.7398 -0.2741
  607MOL0     C83649   7.093  11.316  10.400  0.4754  0.0114  0.5561
  607MOL0     C83650   6.950  11.244  10.368 -1.6624  0.7676  0.0098
  607MOL0     C83651   6.837  11.310  10.444  0.9743  0.7228  0.5533
  607MOL0     O83652   6.791  11.435  10.382 -0.4315 -0.8665 -0.1219
  607MOL0     C83653   6.692  11.518  10.438 -0.3774 -0.1619  0.5529
  607MOL0     C83654   6.615  11.479  10.552  0.3267 -0.5268  0.3896
  607MOL0     C83655   6.527  11.571  10.611  0.1358 -1.0377  0.1294
  607MOL0     C83656   6.459  11.525  10.744  0.5224  0.1693  0.6609
  607MOL0     C83657   6.501  11.701  10.561 -0.3222 -0.2987  0.0622
  607MOL0     C83658   6.407  11.805  10.616 -0.4281 -0.4019 -0.0724
  607MOL0     O83659   6.325  11.777  10.720 -1.7060 -0.0223 -0.7842
  607MOL0     C83660   6.269  11.888  10.796 -0.3421 -0.2402  0.2233
  607MOL0     C83661   6.320  11.902  10.926  0.3365  0.2830  0.1986
  607MOL0     C83662   6.269  12.001  11.011 -0.0219  0.3558  0.2566
  607MOL0     C83663   6.186  12.106  10.962  0.0529 -0.2926 -0.8077
  607MOL0     O83664   6.134  12.205  11.037 -0.3298  0.2075  0.8825
  607MOL0     C83665   6.204  12.222  11.163  0.1204  0.0661  0.4169
  607MOL0     C83666   6.163  12.361  11.229 -0.5524  0.0998  0.0985
  607MOL0     C83667   6.272  12.427  11.311  0.9346  0.1717 -0.4329
  607MOL0     C83668   6.199  12.528  11.413 -0.2881 -0.6825 -0.3750
  607MOL0     C83669   6.304  12.603  11.491 -1.1634 -0.2670  0.7661
  607MOL0     C83670   6.381  12.508  11.585  0.4603 -0.2349 -0.1772
  607MOL0     C83671   6.493  12.587  11.652 -0.1968  0.0978 -0.3311
  607MOL0     C83672   6.577  12.483  11.729 -0.2006  0.4046  0.8147
  607MOL0    Cl83673   6.691  12.406  11.619 -0.5401 -0.0481 -0.4169
  607MOL0     C83674   6.125  12.084  10.836  0.9717  0.0166  0.2065
  607MOL0     C83675   6.174  11.980  10.750  0.5819  0.0546 -0.8594
  607MOL0     O83676   6.407  11.910  10.556  0.0459  0.3897 -1.0192
  607MOL0     C83677   6.577  11.735  10.441  0.1029 -0.0436  0.2963
  607MOL0     C83678   6.668  11.647  10.387 -0.8511 -0.5682  0.9813
  607MOL0     N83679   7.193  11.163  10.092  0.1876  0.1433 -0.3661
  607MOL0     N83680   7.190  11.205   9.975 -0.3915 -0.1768 -0.5728
  607MOL0     C83681   7.669  11.022   9.008 -0.0753 -0.4945  0.4029
  607MOL0     C83682   7.703  10.935   8.910 -0.5002  0.3643  0.2010
  607MOL0     C83683   7.822  10.766   8.520 -0.4596  0.6630 -0.5925
  607MOL0     C83684   7.962  10.726   8.514  0.3408  0.0349  0.2995
  607MOL0     C83685   8.017  10.648   8.413 -0.1993  0.3373  0.6136
  607MOL0     C83686   7.935  10.611   8.307  0.2833 -0.3095 -0.2280
  607MOL0     O83687   7.978  10.553   8.190  0.1998 -0.3343  0.3820
  607MOL0     C83688   8.115  10.523   8.159  0.5766 -0.0388  0.2434
  607MOL0     C83689   8.117  10.464   8.018  0.6362  0.1582 -0.6160
  607MOL0     C83690   8.258  10.430   7.975 -0.2351 -0.0177 -0.5288
  607MOL0     C83691   8.253  10.348   7.843  0.1280  0.2238  0.2286
  607MOL0     C83692   8.383  10.303   7.792  0.1092  0.1779 -0.3559
  607MOL0     C83693   8.490  10.264   7.746  0.3264  0.0981  0.5424
  607MOL0     C83694   7.797  10.644   8.312  0.4668  0.8090 -0.4917
  607MOL0     C83695   7.736  10.707   8.419 -0.3888  0.7702 -0.0332
  607MOL0     C83696   7.592  10.725   8.433  0.5110 -0.4786 -0.2538
  607MOL0     H83697   7.987  11.074   8.808 -1.8288 -2.3876 -2.2630
  607MOL0     H83698   7.921  11.235   8.991  0.9252 -0.1944 -0.6894
  607MOL0     H83699   7.512  11.244   9.067  1.6463  0.1569 -4.9109
  607MOL0     H83700   7.612  11.370   9.001  2.0738  0.3667 -0.7525
  607MOL0     H83701   7.632  11.480   9.200  1.3298 -1.9672 -2.5261
  607MOL0     H83702   7.463  11.447   9.143 -0.9805  0.2150  0.4675
  607MOL0     H83703   7.493  11.234   9.302 -0.5207  0.3764 -1.8992
  607MOL0     H83704   7.639  11.313   9.363 -0.9627  0.0078 -0.8818
  607MOL0     H83705   7.485  11.524   9.404 -0.5961  0.0298  0.9674
  607MOL0     H83706   7.338  11.424   9.368 -0.4266  1.3686 -0.3487
  607MOL0     H83707   7.554  11.364   9.593  1.4735  1.5780 -2.3060
  607MOL0     H83708   7.436  11.256   9.536 -3.1229  0.6712 -0.9750
  607MOL0     H83709   7.366  11.536   9.630  1.1301 -0.1780 -1.8770
  607MOL0     H83710   7.252  11.409   9.582  0.3178 -1.3591 -1.1177
  607MOL0     H83711   7.454  11.370   9.820  0.1348 -1.0794 -1.0408
  607MOL0     H83712   7.339  11.256   9.758  0.4723 -0.1317  0.3162
  607MOL0     H83713   7.243  11.517   9.893  3.9676 -0.4301 -0.5972
  607MOL0     H83714   7.143  11.403   9.801 -1.5798  1.3881  1.2192
  607MOL0     H83715   7.257  11.479  10.138  4.4340 -0.5854 -0.6247
  607MOL0     H83716   7.301  11.344  10.358 -0.4145 -1.2224 -0.7196
  607MOL0     H83717   7.247  11.176  10.362 -0.2468 -1.5824  0.2746
  607MOL0     H83718   7.097  11.300  10.508  0.3606  0.9133  0.6998
  607MOL0     H83719   7.087  11.424  10.384  0.2203 -0.1327 -0.4329
  607MOL0     H83720   6.933  11.258  10.261 -1.9248  0.5155  0.0187
  607MOL0     H83721   6.957  11.137  10.392 -1.0988  0.5907 -0.8703
  607MOL0     H83722   6.750  11.244  10.437  1.7787 -0.5304  1.9204
  607MOL0     H83723   6.861  11.319  10.550  1.3296 -2.1017  0.7841
  607MOL0     H83724   6.622  11.382  10.600  0.6125 -1.4980 -1.5032
  607MOL0     H83725   6.491  11.432  10.791 -0.7501 -1.1473 -0.9582
  607MOL0     H83726   6.352  11.508  10.726  0.0370  2.9804  0.3516
  607MOL0     H83727   6.472  11.607  10.816  1.6894  0.2320  0.3910
  607MOL0     H83728   6.390  11.829  10.965  0.9309  1.0658  0.6197
  607MOL0     H83729   6.311  11.986  11.111 -2.2085 -0.0777  1.1596
  607MOL0     H83730   6.167  12.143  11.229 -1.5670  1.4182  1.1735
  607MOL0     H83731   6.312  12.233  11.151  0.2245 -1.8699 -0.8669
  607MOL0     H83732   6.137  12.437  11.155 -0.4090  3.1975  2.9603
  607MOL0     H83733   6.080  12.341  11.298 -0.5471  1.1515  0.4361
  607MOL0     H83734   6.346  12.488  11.259  1.5369  4.0673  4.2880
  607MOL0     H83735   6.319  12.350  11.372 -1.0290 -0.8415 -0.1090
  607MOL0     H83736   6.140  12.466  11.481 -1.3758  2.1586  1.4480
  607MOL0     H83737   6.138  12.597  11.355  1.4383  1.0675 -0.2106
  607MOL0     H83738   6.385  12.635  11.425  0.1272 -1.6436  1.6304
  607MOL0     H83739   6.245  12.678  11.544 -0.4721  0.5593  0.3930
  607MOL0     H83740   6.422  12.425  11.527 -4.1711 -3.0328  0.0357
  607MOL0     H83741   6.307  12.471  11.656 -1.8660 -1.7070 -3.1038
  607MOL0     H83742   6.460  12.660  11.726  0.4629 -0.9463  1.0518
  607MOL0     H83743   6.549  12.633  11.571 -0.7309  1.0379 -0.1791
  607MOL0     H83744   6.498  12.422  11.775  0.0732  0.8914  1.9672
  607MOL0     H83745   6.638  12.531  11.806  0.2011  0.9323  0.1829
  607MOL0     H83746   6.046  12.152  10.804 -0.5821 -0.9005  1.8865
  607MOL0     H83747   6.132  11.954  10.653 -4.6834 -2.2482  1.5961
  607MOL0     H83748   6.551  11.832  10.399 -2.9858 -2.4912 -4.2916
  607MOL0     H83749   6.722  11.680  10.298 -0.2704 -2.8595  0.4086
  607MOL0     H83750   7.580  11.007   9.068  0.2495 -0.0256  1.0143
  607MOL0     H83751   7.638  10.856   8.873  1.6977  0.0953 -3.5258
  607MOL0     H83752   8.037  10.768   8.580  0.3136  1.1665 -0.3656
  607MOL0     H83753   8.122  10.624   8.419 -0.4200 -0.8681 -0.0082
  607MOL0     H83754   8.174  10.615   8.159 -0.1675  0.4428  0.3293
  607MOL0     H83755   8.165  10.463   8.235 -1.6401 -0.1510  1.7246
  607MOL0     H83756   8.066  10.525   7.942 -3.6272 -1.0229  1.0622
  607MOL0     H83757   8.068  10.367   8.026  2.5471 -1.0896 -2.6423
  607MOL0     H83758   8.320  10.520   7.960  1.0634 -0.5434  1.2133
  607MOL0     H83759   8.302  10.383   8.064 -0.4819 -1.7549 -1.2959
  607MOL0     H83760   8.211  10.406   7.761 -0.5369 -1.1222 -0.4107
  607MOL0     H83761   8.186  10.262   7.847  1.5574 -1.0181 -1.1677
  607MOL0     H83762   8.579  10.231   7.696 -1.5710 -1.1800 -2.2502
  607MOL0     H83763   7.734  10.599   8.236  0.0237  1.0954 -0.2998
  607MOL0     H83764   7.549  10.761   8.528 -2.9380  0.7572 -2.1079
  607MOL0     H83765   7.555  10.804   8.367 -0.3825 -0.3844  0.3304
  607MOL0     H83766   7.547  10.630   8.403 -0.9572 -0.7652  2.4966
  608MOL0     O83767   4.703   7.306   1.516 -0.9858  0.2035  0.6948
  608MOL0     C83768   4.754   7.282   1.409 -0.3919  0.2232  1.5530
  608MOL0     O83769   4.887   7.266   1.382 -1.1153 -1.0933 -0.3971
  608MOL0     C83770   4.970   7.317   1.486 -0.4012  0.3155 -0.2515
  608MOL0     C83771   5.060   7.227   1.543 -0.5300 -0.1321 -0.5686
  608MOL0     C83772   5.172   7.278   1.624  0.3840  0.4064  0.9054
  608MOL0     C83773   5.176   7.409   1.650 -0.3631 -0.1888  0.7031
  608MOL0     O83774   5.273   7.454   1.731  0.4727 -0.9955 -0.2671
  608MOL0     C83775   5.322   7.588   1.699  0.3731  0.4734 -0.4367
  608MOL0     C83776   5.379   7.604   1.554  0.4432  0.5447  0.3612
  608MOL0     C83777   5.489   7.490   1.537  0.6882 -0.5460 -0.6430
  608MOL0     C83778   5.523   7.474   1.385  0.4187 -0.5922 -0.4718
  608MOL0     C83779   5.645   7.396   1.366  0.6160  0.5453 -0.4761
  608MOL0     C83780   5.694   7.375   1.224 -0.6558  0.7630 -0.0153
  608MOL0     C83781   5.828   7.287   1.212 -0.5221  0.7116  0.6173
  608MOL0     C83782   5.834   7.218   1.075  0.8024  0.0240 -0.2238
  608MOL0     N83783   5.972   7.179   1.041  0.6209  0.2081 -0.3484
  608MOL0     C83784   6.006   7.052   1.040 -0.3063  0.0786 -0.4234
  608MOL0     C83785   6.135   7.055   0.986 -0.2938  0.4587 -0.4019
  608MOL0     C83786   6.252   6.953   0.991 -0.2217  1.1895 -0.1189
  608MOL0     C83787   6.261   6.865   0.855  0.1056 -0.0134  0.5603
  608MOL0     C83788   6.306   6.958   0.742  0.2329 -0.5265  0.6701
  608MOL0     C83789   6.380   6.878   0.623  0.1201  0.0982 -0.0915
  608MOL0     O83790   6.450   6.965   0.533  0.2375 -0.0219  0.6907
  608MOL0     C83791   6.382   7.062   0.466  0.5705 -0.4291  0.3417
  608MOL0     C83792   6.243   7.066   0.449  0.8709 -0.4497 -0.8231
  608MOL0     C83793   6.180   7.176   0.387 -0.0784  0.3355 -0.2486
  608MOL0     C83794   6.025   7.175   0.377 -1.4230  0.6875  0.2524
  608MOL0     C83795   6.268   7.282   0.335  0.4259  0.6916  0.6262
  608MOL0     C83796   6.211   7.405   0.275 -0.2267 -0.3417 -0.1817
  608MOL0     O83797   6.085   7.457   0.316 -0.0296 -0.3290  0.3390
  608MOL0     C83798   6.018   7.567   0.268  0.1979  0.7746  0.6478
  608MOL0     C83799   5.982   7.660   0.366  0.9802 -0.0578 -0.2232
  608MOL0     C83800   5.915   7.783   0.336  0.6550 -0.2944  1.4741
  608MOL0     C83801   5.885   7.803   0.199  0.1838 -0.0142  0.4970
  608MOL0     O83802   5.794   7.901   0.170 -1.2476  0.1508  0.3791
  608MOL0     C83803   5.818   8.030   0.236 -0.4832 -0.4375  0.3396
  608MOL0     C83804   5.952   8.095   0.197 -0.3298 -0.3850  0.1390
  608MOL0     C83805   5.952   8.251   0.205  0.0600  1.4671  0.7571
  608MOL0     C83806   6.094   8.289   0.175 -0.5447  0.9257 -0.4711
  608MOL0     C83807   6.098   8.439   0.156  0.1485 -0.3200 -0.0489
  608MOL0     C83808   6.235   8.493   0.123  0.0370 -0.8062  1.4374
  608MOL0     C83809   6.220   8.651   0.128  0.5172  0.5004 -0.6044
  608MOL0     C83810   6.368   8.696   0.136  1.3701 -0.3028  0.3383
  608MOL0    Cl83811   6.393   8.862   0.152 -0.4644 -0.4383  0.0022
  608MOL0     C83812   5.916   7.704   0.108 -0.9870 -0.8089 -0.5431
  608MOL0     C83813   5.977   7.592   0.140 -0.6361  0.3525  0.1517
  608MOL0     O83814   6.288   7.454   0.194 -0.6603 -0.3581 -0.3192
  608MOL0     C83815   6.403   7.270   0.356  1.2223  1.0545 -0.2240
  608MOL0     C83816   6.462   7.160   0.416  0.4550  0.3543  0.0486
  608MOL0     N83817   6.160   7.182   0.955 -0.0003  0.0445  0.6661
  608MOL0     N83818   6.065   7.259   0.988  0.2710  0.0566  0.3022
  608MOL0     C83819   5.072   7.488   1.592  0.1380  0.0061 -0.1607
  608MOL0     C83820   4.974   7.444   1.513  0.3411  0.3644 -0.5370
  608MOL0     C83821   4.657   7.273   1.292 -0.2228  0.7654  1.2023
  608MOL0     C83822   4.551   7.362   1.289 -0.1277  1.4317  0.1726
  608MOL0     C83823   4.471   7.372   1.163  0.0375  0.2999  0.1184
  608MOL0     C83824   4.510   7.304   1.058  0.1787  0.0918  1.0050
  608MOL0     O83825   4.442   7.305   0.938 -0.1255 -0.3798 -1.2622
  608MOL0     C83826   4.461   7.425   0.870 -0.1042 -0.4787  0.2987
  608MOL0     C83827   4.418   7.399   0.731 -0.2503  0.4525 -0.8208
  608MOL0     C83828   4.396   7.524   0.653  0.1020 -0.3805  0.0504
  608MOL0     C83829   4.407   7.501   0.501  0.6981  0.0208  0.3635
  608MOL0     C83830   4.421   7.617   0.416 -0.7036  0.1133 -1.0970
  608MOL0     C83831   4.448   7.708   0.344 -0.1289  0.8384 -0.4680
  608MOL0     C83832   4.620   7.219   1.058  0.1682 -0.1348  0.6466
  608MOL0     C83833   4.692   7.193   1.174  0.0457  0.3769  0.0010
  608MOL0     C83834   4.796   7.091   1.178 -0.4266  0.7860 -0.6980
  608MOL0     H83835   5.054   7.119   1.532 -0.6721 -0.0830 -0.9621
  608MOL0     H83836   5.246   7.205   1.657  1.0290 -0.4851 -2.2303
  608MOL0     H83837   5.409   7.598   1.765  0.4955 -3.2605  0.2208
  608MOL0     H83838   5.254   7.665   1.735 -1.7273 -1.7785  0.7884
  608MOL0     H83839   5.299   7.595   1.480 -0.0058 -1.4709  1.0191
  608MOL0     H83840   5.424   7.703   1.543  3.6681 -0.9429 -1.5849
  608MOL0     H83841   5.576   7.505   1.601  0.6762 -0.0819 -0.7303
  608MOL0     H83842   5.449   7.396   1.574  0.1740  0.7032  2.2390
  608MOL0     H83843   5.442   7.423   1.333 -0.7058 -1.3488  1.8804
  608MOL0     H83844   5.543   7.567   1.331 -0.4784 -0.9109 -1.3914
  608MOL0     H83845   5.619   7.297   1.406  0.1441  0.2568 -1.4760
  608MOL0     H83846   5.726   7.437   1.428  1.5227 -0.7911 -0.7191
  608MOL0     H83847   5.618   7.309   1.179  0.2000 -1.8454  2.1027
  608MOL0     H83848   5.708   7.470   1.171  3.0326 -0.4151 -1.4565
  608MOL0     H83849   5.816   7.203   1.282 -3.7261  1.1015  0.7208
  608MOL0     H83850   5.914   7.348   1.238  1.5963 -1.6873 -0.3390
  608MOL0     H83851   5.753   7.145   1.067  0.9393  0.0677 -3.4566
  608MOL0     H83852   5.803   7.299   1.008  0.3916 -0.3074 -0.4360
  608MOL0     H83853   5.956   6.960   1.069  2.0931 -0.7798  1.3255
  608MOL0     H83854   6.230   6.890   1.077  0.9539  3.9393  2.3541
  608MOL0     H83855   6.350   6.998   1.012  0.3969  0.0078 -0.3826
  608MOL0     H83856   6.332   6.782   0.859 -0.2422 -0.2642  3.1687
  608MOL0     H83857   6.165   6.818   0.831  0.2708 -0.7540  1.2885
  608MOL0     H83858   6.213   7.011   0.720  0.6647  0.4503  1.1609
  608MOL0     H83859   6.376   7.035   0.777 -3.1731  2.8379  0.7114
  608MOL0     H83860   6.447   6.799   0.658 -0.6356 -1.3061 -1.6534
  608MOL0     H83861   6.301   6.818   0.576  0.2132 -0.1167  0.0211
  608MOL0     H83862   6.178   6.987   0.485  0.4860  0.6454  0.9950
  608MOL0     H83863   5.970   7.085   0.408 -0.6246 -1.3598 -3.6522
  608MOL0     H83864   5.992   7.202   0.276 -3.9984  0.2948  0.9087
  608MOL0     H83865   5.997   7.251   0.450  1.2719  2.3724 -0.3259
  608MOL0     H83866   6.023   7.637   0.465  0.7686  0.2301 -0.0680
  608MOL0     H83867   5.883   7.854   0.412 -0.5211  2.2729 -1.2474
  608MOL0     H83868   5.740   8.097   0.198 -2.0447 -1.1214  2.1676
  608MOL0     H83869   5.806   8.025   0.344  1.3990 -1.3184  0.5497
  608MOL0     H83870   6.034   8.059   0.261 -0.3365 -0.8685 -0.1213
  608MOL0     H83871   5.962   8.066   0.092 -0.9624 -0.9152  0.2191
  608MOL0     H83872   5.933   8.291   0.305 -0.2413 -1.0210  1.7874
  608MOL0     H83873   5.883   8.289   0.129  0.1827  0.0358 -0.1153
  608MOL0     H83874   6.128   8.246   0.080  0.9677 -0.1861  0.5149
  608MOL0     H83875   6.170   8.266   0.251  0.0617  3.4935 -0.2146
  608MOL0     H83876   6.022   8.481   0.090  2.8170  4.8203 -0.4562
  608MOL0     H83877   6.064   8.489   0.247 -1.1546  1.4695 -1.4349
  608MOL0     H83878   6.269   8.456   0.026  3.2155  1.7421  1.4112
  608MOL0     H83879   6.310   8.458   0.194  2.9480  0.4802 -0.8143
  608MOL0     H83880   6.167   8.696   0.213  0.4686  2.9150 -1.8350
  608MOL0     H83881   6.159   8.688   0.045  1.1653  3.4723  0.1062
  608MOL0     H83882   6.417   8.662   0.045 -2.0564  2.2165 -2.7375
  608MOL0     H83883   6.412   8.648   0.224 -1.7302 -1.3439  1.4458
  608MOL0     H83884   5.877   7.715   0.008 -0.7765 -3.7444 -1.0618
  608MOL0     H83885   5.994   7.507   0.074  2.0154 -1.2638  2.6932
  608MOL0     H83886   6.476   7.348   0.336  2.7808 -0.6689 -1.6688
  608MOL0     H83887   6.569   7.151   0.429  0.1855 -1.2454  1.5195
  608MOL0     H83888   5.070   7.595   1.609  4.8914  0.0709  1.3276
  608MOL0     H83889   4.911   7.519   1.466  0.0915  0.6947  0.3075
  608MOL0     H83890   4.537   7.422   1.378  5.8408  3.9441 -0.1759
  608MOL0     H83891   4.393   7.447   1.166  1.0049  1.5147 -2.4198
  608MOL0     H83892   4.398   7.505   0.910 -2.5805 -2.8038  1.3787
  608MOL0     H83893   4.568   7.449   0.867 -0.4361  1.9308  3.3348
  608MOL0     H83894   4.327   7.342   0.752  0.5478 -0.0364  1.8061
  608MOL0     H83895   4.476   7.326   0.674 -3.1440 -0.8434 -2.2739
  608MOL0     H83896   4.304   7.570   0.689 -0.3174 -1.6614  0.6710
  608MOL0     H83897   4.474   7.596   0.677 -0.6182 -0.0197  1.3999
  608MOL0     H83898   4.304   7.475   0.475  0.6290  0.3395  0.3208
  608MOL0     H83899   4.473   7.415   0.484  2.2812  1.1316  0.6887
  608MOL0     H83900   4.473   7.777   0.267 -1.9241 -0.2021 -2.0578
  608MOL0     H83901   4.637   7.153   0.973 -1.7656  0.0577  0.0687
  608MOL0     H83902   4.891   7.144   1.176  2.5500 -3.9430 -1.6502
  608MOL0     H83903   4.780   7.037   1.273  0.0366  1.1157 -0.4303
  608MOL0     H83904   4.796   7.013   1.101  2.5102  0.0148 -0.0419
  609MOL0     O83905   9.417   7.135   2.195 -0.3201 -0.3693  0.4539
  609MOL0     C83906   9.361   7.154   2.307  0.0813  1.1581  0.2077
  609MOL0     O83907   9.307   7.058   2.382 -0.6851 -0.1879 -0.6709
  609MOL0     C83908   9.261   6.948   2.323  0.9210 -0.1767 -0.1021
  609MOL0     C83909   9.197   6.951   2.197  0.4810  0.4021  0.2094
  609MOL0     C83910   9.122   6.836   2.157 -0.9647  0.2828  0.0836
  609MOL0     C83911   9.125   6.719   2.229 -0.0988  0.5995 -0.7131
  609MOL0     O83912   9.076   6.595   2.181 -0.0738  0.1428 -0.1504
  609MOL0     C83913   9.047   6.573   2.043 -0.2168 -0.6222 -0.4972
  609MOL0     C83914   9.172   6.555   1.967 -0.3027 -0.7618  0.3332
  609MOL0     C83915   9.137   6.510   1.832 -0.0247 -0.6148 -0.4804
  609MOL0     C83916   9.229   6.578   1.734  0.1818  0.2526 -0.1484
  609MOL0     C83917   9.206   6.520   1.595  0.6198 -0.5326 -0.2544
  609MOL0     C83918   9.072   6.580   1.541 -1.3849 -0.2609  0.0257
  609MOL0     C83919   9.055   6.537   1.391 -0.4373  0.3750  0.1992
  609MOL0     C83920   8.936   6.592   1.322  0.6705  0.9618  0.9436
  609MOL0     N83921   8.937   6.508   1.206  0.0541 -0.7114 -0.0937
  609MOL0     C83922   8.978   6.534   1.081 -0.5690  0.5397  0.4552
  609MOL0     C83923   8.923   6.441   1.004  0.0345 -0.9368  1.0480
  609MOL0     C83924   8.930   6.438   0.851 -0.7004 -0.8135 -0.5913
  609MOL0     C83925   8.860   6.552   0.774  0.3903  0.0855  0.1573
  609MOL0     C83926   8.712   6.551   0.819  0.2842 -0.6311 -0.0346
  609MOL0     C83927   8.636   6.685   0.770 -0.0869  0.0271 -0.2962
  609MOL0     O83928   8.651   6.712   0.632  0.0122 -0.0286 -0.4134
  609MOL0     C83929   8.575   6.631   0.548  0.3606  0.4928 -1.4000
  609MOL0     C83930   8.605   6.659   0.416 -0.0907  0.3991  0.1569
  609MOL0     C83931   8.536   6.596   0.312  0.2790 -0.6514 -0.7204
  609MOL0     C83932   8.562   6.623   0.166  0.3345 -0.1401  0.3648
  609MOL0     C83933   8.448   6.492   0.348 -0.3243  0.0988 -0.2755
  609MOL0     C83934   8.374   6.415   0.253 -0.3888 -0.5070  0.8392
  609MOL0     O83935   8.354   6.291   0.283 -0.1606  0.1444 -0.4009
  609MOL0     C83936   8.315   6.211   0.175 -0.9387  0.0712  0.7814
  609MOL0     C83937   8.412   6.165   0.084  0.2911  0.4626 -0.2983
  609MOL0     C83938   8.378   6.093  -0.029  1.0284  0.7784 -0.7584
  609MOL0     C83939   8.242   6.062  -0.052  0.2104  0.5453 -0.6628
  609MOL0     O83940   8.210   5.999  -0.180 -0.7028 -0.3814  0.0242
  609MOL0     C83941   8.081   6.018  -0.237 -0.0108 -0.9099  0.0804
  609MOL0     C83942   8.058   5.908  -0.345 -0.0353  0.1678 -1.0497
  609MOL0     C83943   7.921   5.927  -0.411 -0.6994 -0.8618 -0.6303
  609MOL0     C83944   7.917   5.991  -0.554 -1.2083 -0.4096  0.0218
  609MOL0     C83945   7.783   5.977  -0.622  0.2926  0.0427 -0.0028
  609MOL0     C83946   7.788   5.976  -0.779 -0.1050  0.1763 -0.3034
  609MOL0     C83947   7.790   6.111  -0.845  0.0579  0.2817  0.8069
  609MOL0     C83948   7.763   6.108  -0.997 -0.0126 -0.7326  0.0694
  609MOL0    Cl83949   7.589   6.136  -1.039  0.4102 -0.1789 -0.1596
  609MOL0     C83950   8.142   6.104   0.040  0.2987 -0.0074  0.1933
  609MOL0     C83951   8.182   6.181   0.151 -0.7231  0.3401  0.1540
  609MOL0     O83952   8.323   6.473   0.154  0.0388 -0.5383 -0.2362
  609MOL0     C83953   8.415   6.470   0.481  0.4733 -0.6548 -0.6922
  609MOL0     C83954   8.485   6.529   0.583  0.8432 -0.0267 -0.9176
  609MOL0     N83955   8.867   6.348   1.078  0.0898 -0.8667  1.0724
  609MOL0     N83956   8.875   6.394   1.199  0.7704  0.8551  0.6766
  609MOL0     C83957   9.204   6.719   2.348 -0.0843 -0.7319 -0.0636
  609MOL0     C83958   9.264   6.834   2.396 -0.1458 -0.2773 -0.0490
  609MOL0     C83959   9.366   7.289   2.368 -0.6624 -0.7429  0.7711
  609MOL0     C83960   9.354   7.296   2.510  0.7935  0.8757  0.1534
  609MOL0     C83961   9.347   7.407   2.590  0.3392 -0.5061  0.1693
  609MOL0     C83962   9.383   7.528   2.530 -0.6307 -0.2511  1.1129
  609MOL0     O83963   9.376   7.646   2.599 -0.3631  0.8342  0.3999
  609MOL0     C83964   9.400   7.770   2.533 -0.0416  0.1254  0.2097
  609MOL0     C83965   9.432   7.876   2.629  0.4882 -0.5868  0.4476
  609MOL0     C83966   9.439   8.007   2.547 -0.5000  0.2536 -0.1977
  609MOL0     C83967   9.428   8.118   2.646  0.4652  0.6083 -0.1151
  609MOL0     C83968   9.410   8.250   2.590 -0.4403 -0.5046  0.1848
  609MOL0     C83969   9.363   8.358   2.556 -1.3594 -0.0509  0.2794
  609MOL0     C83970   9.406   7.526   2.383 -0.2470  0.3261 -0.6304
  609MOL0     C83971   9.397   7.412   2.304  0.1017  0.3127  0.2474
  609MOL0     C83972   9.405   7.429   2.152 -0.7998 -0.2330 -0.3988
  609MOL0     H83973   9.195   7.040   2.135 -0.4373 -0.7332 -1.4754
  609MOL0     H83974   9.059   6.834   2.068  1.3247 -2.6446 -1.6834
  609MOL0     H83975   8.980   6.656   2.021 -0.4127 -0.1110  1.7714
  609MOL0     H83976   8.985   6.483   2.038 -1.2736  0.1415 -1.5431
  609MOL0     H83977   9.225   6.650   1.974 -0.1363 -0.9658  2.2990
  609MOL0     H83978   9.236   6.483   2.020 -0.7004 -0.3956  1.3260
  609MOL0     H83979   9.154   6.404   1.810  1.2542 -1.0083  2.0387
  609MOL0     H83980   9.034   6.533   1.806  0.4525  0.4074 -1.5853
  609MOL0     H83981   9.213   6.686   1.732 -1.3581  0.1394  2.1750
  609MOL0     H83982   9.336   6.559   1.747  0.0311  0.2174  1.1010
  609MOL0     H83983   9.204   6.411   1.609  1.6811 -0.3245  1.7558
  609MOL0     H83984   9.284   6.540   1.521 -0.2770 -0.2606 -1.1513
  609MOL0     H83985   8.981   6.554   1.596  0.6797 -0.8066  3.5097
  609MOL0     H83986   9.086   6.688   1.531 -0.5344 -0.2047  1.5145
  609MOL0     H83987   9.043   6.429   1.397 -3.5455  0.5431 -0.9010
  609MOL0     H83988   9.142   6.575   1.337 -0.8066 -0.4816 -1.0657
  609MOL0     H83989   8.846   6.573   1.382 -0.9290 -2.1057 -2.0879
  609MOL0     H83990   8.950   6.696   1.290 -1.0855  1.4790  1.7458
  609MOL0     H83991   9.039   6.617   1.045  2.9251 -2.3922 -1.0483
  609MOL0     H83992   8.896   6.344   0.806 -0.8648 -1.3007  0.5081
  609MOL0     H83993   9.035   6.434   0.822 -0.3410 -0.3095  0.5599
  609MOL0     H83994   8.910   6.644   0.806  3.0359 -2.2241  3.5176
  609MOL0     H83995   8.871   6.543   0.666 -2.3648  3.4044 -0.5455
  609MOL0     H83996   8.665   6.462   0.776  1.2893 -1.8890  1.3650
  609MOL0     H83997   8.705   6.542   0.928  1.4673  2.0061  0.3221
  609MOL0     H83998   8.533   6.671   0.803 -0.3889  3.4916  0.6722
  609MOL0     H83999   8.682   6.775   0.812  1.6633 -0.1752 -1.6702
  609MOL0     H84000   8.676   6.737   0.391  1.2592 -0.9455 -0.3577
  609MOL0     H84001   8.595   6.533   0.113  2.6637 -0.5056  2.2969
  609MOL0     H84002   8.640   6.699   0.159  2.1759 -2.0940 -2.4343
  609MOL0     H84003   8.473   6.664   0.117 -0.1872 -0.0693  1.3389
  609MOL0     H84004   8.518   6.182   0.101 -0.2507  3.6067  0.7269
  609MOL0     H84005   8.459   6.053  -0.089  2.1334  1.6725  0.0893
  609MOL0     H84006   7.995   6.003  -0.171 -0.2024 -1.1205 -0.2176
  609MOL0     H84007   8.076   6.113  -0.291  0.4733 -1.9768 -1.9084
  609MOL0     H84008   8.148   5.918  -0.408  1.5515  0.9272  1.2011
  609MOL0     H84009   8.062   5.809  -0.297 -0.4097  0.2871 -0.7748
  609MOL0     H84010   7.842   5.974  -0.351 -0.1863  0.7470 -1.1730
  609MOL0     H84011   7.872   5.830  -0.426 -1.7223 -0.3620 -0.6097
  609MOL0     H84012   7.996   5.954  -0.620  1.3487  2.8906  0.9684
  609MOL0     H84013   7.944   6.097  -0.548 -1.3923 -0.3345 -0.4058
  609MOL0     H84014   7.738   5.884  -0.585  3.5138 -2.6263 -2.1541
  609MOL0     H84015   7.717   6.060  -0.598 -0.2079 -1.4436  4.6781
  609MOL0     H84016   7.700   5.918  -0.810  1.4387 -2.0250 -0.8342
  609MOL0     H84017   7.876   5.921  -0.815  0.6958  1.2522 -0.0392
  609MOL0     H84018   7.891   6.146  -0.824  0.3286  1.2631 -1.7956
  609MOL0     H84019   7.712   6.167  -0.793  0.2756  2.3393 -0.9689
  609MOL0     H84020   7.793   6.014  -1.045  0.5078  0.8869 -3.1112
  609MOL0     H84021   7.825   6.193  -1.027 -3.4948  1.5320 -1.3910
  609MOL0     H84022   8.042   6.071   0.014  0.0850  0.3744  0.5277
  609MOL0     H84023   8.105   6.208   0.222  0.6289 -0.9385  2.2208
  609MOL0     H84024   8.337   6.397   0.501 -0.6195  0.4839 -0.6885
  609MOL0     H84025   8.476   6.493   0.685  2.6050  1.2527 -0.2588
  609MOL0     H84026   9.226   6.622   2.392 -2.0996 -1.2847 -0.1538
  609MOL0     H84027   9.313   6.829   2.493 -0.3947  1.7313  0.2131
  609MOL0     H84028   9.343   7.202   2.563 -2.5302  0.8362 -0.4081
  609MOL0     H84029   9.299   7.408   2.687 -1.0248  0.9719 -0.4636
  609MOL0     H84030   9.473   7.768   2.451  0.9797 -0.2334  1.0954
  609MOL0     H84031   9.305   7.797   2.487 -0.5774  0.3480  1.4234
  609MOL0     H84032   9.520   7.845   2.686 -0.4223 -3.0300  0.6611
  609MOL0     H84033   9.348   7.875   2.699 -0.5327 -1.7132 -0.7273
  609MOL0     H84034   9.538   8.016   2.504 -0.7674  0.6407 -0.7445
  609MOL0     H84035   9.356   8.019   2.477  1.7439  2.3312 -2.6800
  609MOL0     H84036   9.518   8.126   2.707  1.9870 -1.3984 -1.9662
  609MOL0     H84037   9.338   8.103   2.707 -1.8643 -0.0424 -3.4035
  609MOL0     H84038   9.344   8.463   2.559  1.7229  0.5836  0.8031
  609MOL0     H84039   9.417   7.618   2.325 -0.1427 -0.2044 -1.4803
  609MOL0     H84040   9.401   7.535   2.124 -0.4002 -0.3104 -0.7396
  609MOL0     H84041   9.483   7.374   2.100 -0.6719  2.4947 -3.3491
  609MOL0     H84042   9.314   7.383   2.111 -0.9857  0.1038 -0.3648
  610MOL0     O84043  10.682  10.394   0.405  0.0221  0.1868 -0.4735
  610MOL0     C84044  10.739  10.430   0.295  0.2569 -0.1062 -1.1407
  610MOL0     O84045  10.844  10.368   0.234 -0.1625 -0.3811 -0.2540
  610MOL0     C84046  10.916  10.275   0.312  0.2949 -0.3914  0.5730
  610MOL0     C84047  11.030  10.305   0.372  0.7306  0.0692 -0.2197
  610MOL0     C84048  11.107  10.208   0.446 -0.1128  0.0436  0.5849
  610MOL0     C84049  11.064  10.081   0.471  0.6676  0.1769  0.2234
  610MOL0     O84050  11.136   9.988   0.535 -0.8285 -0.3051 -1.0970
  610MOL0     C84051  11.071   9.898   0.624  0.4243 -0.3869  0.4662
  610MOL0     C84052  11.173   9.793   0.670  0.4207 -0.2134 -0.6026
  610MOL0     C84053  11.245   9.717   0.557 -0.0755 -0.1319  1.0267
  610MOL0     C84054  11.362   9.636   0.609  0.0594 -0.3565  0.0271
  610MOL0     C84055  11.459   9.579   0.497  0.6550 -0.7329 -0.0648
  610MOL0     C84056  11.390   9.469   0.407 -0.3972  0.7457 -0.2193
  610MOL0     C84057  11.503   9.384   0.338  1.7012 -0.3229  0.9731
  610MOL0     C84058  11.442   9.279   0.250  0.2738 -0.1692 -0.1115
  610MOL0     N84059  11.381   9.327   0.127 -0.1262 -0.5966 -0.8756
  610MOL0     C84060  11.438   9.425   0.047  0.2471  0.7135 -0.6451
  610MOL0     C84061  11.350   9.436  -0.056  0.8185 -0.4668  0.4725
  610MOL0     C84062  11.366   9.537  -0.164 -0.7222 -0.3550  0.1829
  610MOL0     C84063  11.264   9.652  -0.150  0.7358 -0.1757  0.8293
  610MOL0     C84064  11.139   9.614  -0.236 -0.5935  0.1444 -0.2437
  610MOL0     C84065  11.050   9.746  -0.253 -0.3075  0.2735  0.1401
  610MOL0     O84066  10.926   9.719  -0.323 -0.3127 -0.6793  0.4859
  610MOL0     C84067  10.891   9.791  -0.436  0.4270 -0.0438  0.0276
  610MOL0     C84068  10.946   9.895  -0.500 -1.4567 -0.3504  0.7096
  610MOL0     C84069  10.907   9.947  -0.625 -0.3138  0.4460 -0.1013
  610MOL0     C84070  11.001  10.052  -0.692 -1.0603 -0.1414 -0.2969
  610MOL0     C84071  10.793   9.893  -0.686  0.0534 -0.1622  0.0392
  610MOL0     C84072  10.757   9.907  -0.824  1.1617 -0.4689 -0.6921
  610MOL0     O84073  10.851   9.929  -0.914  0.2665 -0.5855 -0.1161
  610MOL0     C84074  10.827   9.948  -1.049  0.0800  0.4687  0.0665
  610MOL0     C84075  10.786   9.849  -1.136  0.7272 -0.1747  0.8364
  610MOL0     C84076  10.749   9.883  -1.275  0.2460  0.1719 -0.4984
  610MOL0     C84077  10.781  10.017  -1.321 -0.0736 -0.7405 -0.0735
  610MOL0     O84078  10.761  10.065  -1.450 -0.5020 -0.2589 -0.3514
  610MOL0     C84079  10.705   9.989  -1.552 -0.4645 -0.1426 -0.9199
  610MOL0     C84080  10.720  10.046  -1.687  0.2469 -0.2008  0.5756
  610MOL0     C84081  10.733  10.193  -1.683 -1.1268 -0.0928 -0.3167
  610MOL0     C84082  10.693  10.266  -1.809 -0.5808  0.3073 -0.5587
  610MOL0     C84083  10.544  10.318  -1.823  0.1318 -0.3325  0.0508
  610MOL0     C84084  10.525  10.393  -1.954  0.4298  0.6535  0.1160
  610MOL0     C84085  10.387  10.469  -1.937  1.0251 -0.6408 -0.0027
  610MOL0     C84086  10.324  10.516  -2.072 -0.4980  0.6277  0.1988
  610MOL0    Cl84087  10.157  10.435  -2.125 -0.2797 -0.5481 -0.3767
  610MOL0     C84088  10.842  10.106  -1.230 -0.3319  0.4017 -0.0696
  610MOL0     C84089  10.852  10.070  -1.096 -0.0228 -0.7867 -0.2162
  610MOL0     O84090  10.638   9.900  -0.855  0.0421 -0.0253 -0.5614
  610MOL0     C84091  10.722   9.791  -0.614  0.8609 -0.3560 -0.3872
  610MOL0     C84092  10.768   9.745  -0.487  0.4457  0.8695  1.0146
  610MOL0     N84093  11.249   9.342  -0.035 -0.0622 -0.8834  0.5949
  610MOL0     N84094  11.273   9.274   0.074 -1.0622 -0.0538  0.2041
  610MOL0     C84095  10.946  10.051   0.408  0.1544 -0.3521  0.5252
  610MOL0     C84096  10.876  10.144   0.325  0.8578 -0.2230 -0.1346
  610MOL0     C84097  10.693  10.553   0.215  0.4567  0.1782  0.3762
  610MOL0     C84098  10.788  10.605   0.128  0.2608  0.7865 -0.1028
  610MOL0     C84099  10.752  10.709   0.042 -0.2872  0.2424  0.5571
  610MOL0     C84100  10.642  10.788   0.067  0.2286 -0.7793 -0.0786
  610MOL0     O84101  10.598  10.895  -0.010 -0.8112 -0.0790 -0.4497
  610MOL0     C84102  10.664  10.951  -0.122  0.0670 -0.0545 -0.2800
  610MOL0     C84103  10.623  10.862  -0.241 -0.1262 -0.2009 -0.4398
  610MOL0     C84104  10.653  10.925  -0.379  0.5294 -0.5186 -0.7202
  610MOL0     C84105  10.581  10.843  -0.495 -0.1584 -0.1534 -0.8719
  610MOL0     C84106  10.597  10.698  -0.486  1.0906 -0.1315  0.3189
  610MOL0     C84107  10.641  10.588  -0.511  0.2455  0.4492 -0.1038
  610MOL0     C84108  10.553  10.747   0.167 -0.3134  0.1364  0.0455
  610MOL0     C84109  10.568  10.618   0.231 -0.0940 -0.6279 -0.4690
  610MOL0     C84110  10.463  10.578   0.331  1.0443 -0.0874 -0.1192
  610MOL0     H84111  11.071  10.405   0.365  0.7208  0.0377 -0.7364
  610MOL0     H84112  11.202  10.248   0.480  0.0463 -0.8109  1.1561
  610MOL0     H84113  10.987   9.848   0.577 -0.2614 -0.1490  1.4085
  610MOL0     H84114  11.040   9.963   0.707  0.7696 -0.4340  0.6338
  610MOL0     H84115  11.241   9.845   0.738  0.0725  1.0178 -1.1588
  610MOL0     H84116  11.120   9.720   0.732 -2.8107  1.9902 -0.5028
  610MOL0     H84117  11.176   9.653   0.501  1.1527 -0.3227 -0.3069
  610MOL0     H84118  11.295   9.785   0.488  1.3436 -1.0746  1.1001
  610MOL0     H84119  11.430   9.696   0.671 -0.1659  0.7816 -0.7925
  610MOL0     H84120  11.325   9.559   0.677  1.3678  0.4147  1.7101
  610MOL0     H84121  11.546   9.534   0.547  1.0323  1.2145  1.1521
  610MOL0     H84122  11.503   9.663   0.442  2.4033 -2.2968 -1.2012
  610MOL0     H84123  11.330   9.400   0.467 -1.1070  1.3644 -0.1936
  610MOL0     H84124  11.342   9.521   0.323 -1.6426 -0.5625 -0.3642
  610MOL0     H84125  11.555   9.327   0.415 -0.3430 -2.1264  1.1172
  610MOL0     H84126  11.570   9.458   0.293  2.6740 -3.3386 -3.2432
  610MOL0     H84127  11.524   9.210   0.229 -1.4418 -1.7953 -1.9294
  610MOL0     H84128  11.362   9.224   0.300  0.3962 -0.9294 -0.7308
  610MOL0     H84129  11.537   9.466   0.062  1.4081 -1.8901 -0.6698
  610MOL0     H84130  11.361   9.479  -0.256 -2.1661  0.3055 -0.1987
  610MOL0     H84131  11.464   9.585  -0.156 -0.7883 -0.2576  0.4478
  610MOL0     H84132  11.249   9.674  -0.044  3.4065  0.1149  1.2114
  610MOL0     H84133  11.316   9.741  -0.187 -0.0743 -0.2853 -0.6451
  610MOL0     H84134  11.169   9.587  -0.338 -1.5062 -0.0508 -0.4681
  610MOL0     H84135  11.074   9.534  -0.201  0.2623 -1.0032 -1.2197
  610MOL0     H84136  11.026   9.775  -0.151  0.0713 -1.7264  0.8534
  610MOL0     H84137  11.114   9.824  -0.296  0.3020 -1.5031 -2.4476
  610MOL0     H84138  11.042   9.938  -0.473 -0.1613 -1.6901 -1.4627
  610MOL0     H84139  11.036  10.126  -0.619 -0.3060  1.9262 -2.6367
  610MOL0     H84140  10.961  10.101  -0.781  1.2271 -1.7779 -2.3594
  610MOL0     H84141  11.090   9.999  -0.728  0.2354  1.1500  0.8636
  610MOL0     H84142  10.783   9.743  -1.116 -3.1118 -0.5135 -0.7116
  610MOL0     H84143  10.713   9.816  -1.353 -0.0517  1.5772 -1.6005
  610MOL0     H84144  10.766   9.898  -1.553  1.4093  1.0570 -0.3099
  610MOL0     H84145  10.600   9.970  -1.529 -0.7461  0.5317 -1.6329
  610MOL0     H84146  10.804   9.998  -1.738  0.6372  1.9265 -0.8919
  610MOL0     H84147  10.640  10.011  -1.752  1.3563  2.2344 -2.3563
  610MOL0     H84148  10.829  10.240  -1.658 -2.7473  2.5169  1.4536
  610MOL0     H84149  10.659  10.219  -1.607 -0.8249  3.5469 -1.0828
  610MOL0     H84150  10.724  10.215  -1.900  1.6229  0.7689 -0.1221
  610MOL0     H84151  10.758  10.352  -1.824 -3.6082  2.9828  0.5592
  610MOL0     H84152  10.467  10.240  -1.822  0.2745 -0.4713  0.5848
  610MOL0     H84153  10.526  10.386  -1.739  0.2824 -0.2544  0.0193
  610MOL0     H84154  10.521  10.332  -2.045 -3.4162  3.5880 -1.9357
  610MOL0     H84155  10.601  10.471  -1.967  0.2659  0.5525 -1.7672
  610MOL0     H84156  10.408  10.561  -1.882 -1.3912  1.4284 -2.2997
  610MOL0     H84157  10.311  10.416  -1.878  1.9522 -0.0151  1.8422
  610MOL0     H84158  10.388  10.499  -2.159 -2.9705  0.3902 -1.6823
  610MOL0     H84159  10.305  10.624  -2.064 -1.9044  0.4644 -0.7203
  610MOL0     H84160  10.887  10.201  -1.258  0.7534  0.2085  0.9415
  610MOL0     H84161  10.874  10.145  -1.021 -3.0852  0.0639 -0.0690
  610MOL0     H84162  10.628   9.750  -0.651  0.4149 -0.5109  0.8608
  610MOL0     H84163  10.708   9.669  -0.438 -1.1432  2.4298  1.6143
  610MOL0     H84164  10.898   9.956   0.389 -1.4837  1.1951 -4.4758
  610MOL0     H84165  10.783  10.105   0.282 -0.3093  2.5824 -0.3525
  610MOL0     H84166  10.889  10.566   0.130  0.0084  0.1101 -0.0025
  610MOL0     H84167  10.828  10.723  -0.034 -2.1102  1.4364 -1.1512
  610MOL0     H84168  10.629  11.054  -0.136 -0.5764 -0.3034 -0.5548
  610MOL0     H84169  10.773  10.949  -0.112 -0.1451 -0.8595  2.9541
  610MOL0     H84170  10.515  10.843  -0.243  0.1447 -1.8428 -0.3299
  610MOL0     H84171  10.665  10.761  -0.235  0.1499 -0.1750 -1.6169
  610MOL0     H84172  10.605  11.023  -0.381  0.1277 -0.6879 -3.6295
  610MOL0     H84173  10.759  10.936  -0.402  0.2995 -1.9573 -2.7446
  610MOL0     H84174  10.615  10.874  -0.594  0.5993 -3.2364 -1.7054
  610MOL0     H84175  10.475  10.862  -0.474  0.1197 -0.4170  0.9531
  610MOL0     H84176  10.678  10.489  -0.526 -1.2495  0.0074 -1.0842
  610MOL0     H84177  10.462  10.806   0.171 -0.4327 -0.0020 -0.5612
  610MOL0     H84178  10.459  10.468   0.337  1.7549 -0.0665  0.9940
  610MOL0     H84179  10.495  10.615   0.429 -4.2473  0.9143  1.5779
  610MOL0     H84180  10.360  10.599   0.301  0.8928 -2.1283 -1.2368
  611MOL0     O84181  10.813   3.410   5.883 -0.1511 -0.3333  0.6794
  611MOL0     C84182  10.767   3.509   5.932  0.1154 -0.6004 -1.1731
  611MOL0     O84183  10.721   3.618   5.867 -0.0419  0.0604  0.2854
  611MOL0     C84184  10.731   3.642   5.726  0.4924 -0.2087 -0.5354
  611MOL0     C84185  10.693   3.539   5.634 -0.1803 -0.3890  0.6845
  611MOL0     C84186  10.660   3.575   5.499 -0.5227  0.2734  0.4164
  611MOL0     C84187  10.670   3.710   5.452 -1.5434  0.4551 -0.0272
  611MOL0     O84188  10.651   3.733   5.318  0.5049  0.2853  0.8706
  611MOL0     C84189  10.625   3.864   5.283  0.3673 -0.6349  0.1389
  611MOL0     C84190  10.567   3.875   5.148  0.4825  0.1814  0.1862
  611MOL0     C84191  10.582   4.024   5.103  0.9730 -0.0624  1.0521
  611MOL0     C84192  10.522   4.047   4.963  0.8951 -0.0216  0.5250
  611MOL0     C84193  10.604   4.159   4.888  0.4868 -0.0609  0.1690
  611MOL0     C84194  10.559   4.178   4.745  1.0042 -0.0031 -0.6604
  611MOL0     C84195  10.565   4.330   4.707 -0.4569  1.1727  0.1626
  611MOL0     C84196  10.531   4.347   4.556 -0.8748 -0.7919 -0.1050
  611MOL0     N84197  10.578   4.240   4.470  0.3534 -0.8748  0.3106
  611MOL0     C84198  10.494   4.143   4.421  0.3188 -0.8504  0.0237
  611MOL0     C84199  10.571   4.064   4.342 -0.2886 -0.0071  0.1454
  611MOL0     C84200  10.510   3.950   4.268  0.8485  0.2799 -0.5556
  611MOL0     C84201  10.612   3.852   4.221  0.4779 -0.9915 -0.4738
  611MOL0     C84202  10.659   3.758   4.329  0.3204  0.1386  0.4969
  611MOL0     C84203  10.761   3.652   4.313  0.8600 -0.1793  0.8144
  611MOL0     O84204  10.877   3.696   4.247  1.2955 -0.0415 -0.4307
  611MOL0     C84205  10.967   3.753   4.323 -0.4406  0.9633 -0.7184
  611MOL0     C84206  11.002   3.887   4.314 -0.1072 -0.1250 -0.4648
  611MOL0     C84207  11.108   3.947   4.383 -1.1846 -1.0394  0.8545
  611MOL0     C84208  11.141   4.091   4.345  0.4367 -1.2996  1.1946
  611MOL0     C84209  11.190   3.864   4.472  0.4255 -0.1662  0.5710
  611MOL0     C84210  11.295   3.918   4.564  0.5604  0.5426  0.1656
  611MOL0     O84211  11.283   4.037   4.623  0.0042  0.0803  0.2972
  611MOL0     C84212  11.364   4.060   4.726  0.6132 -0.2474 -0.8486
  611MOL0     C84213  11.369   3.973   4.841  0.8312  0.3388  0.3901
  611MOL0     C84214  11.466   3.995   4.936  0.5644 -0.2188  0.8771
  611MOL0     C84215  11.544   4.103   4.928 -0.5343 -0.3966 -0.9291
  611MOL0     O84216  11.630   4.142   5.026 -0.1256  0.1831 -0.3435
  611MOL0     C84217  11.666   4.058   5.131  0.8306  0.1203  0.3638
  611MOL0     C84218  11.776   4.128   5.209  0.4709  0.7266 -0.0426
  611MOL0     C84219  11.823   4.036   5.324  0.1644 -0.0993 -0.2899
  611MOL0     C84220  11.943   4.086   5.391 -0.7577 -0.0632  0.3345
  611MOL0     C84221  11.910   4.187   5.499  0.0613 -0.1782 -0.9649
  611MOL0     C84222  12.031   4.242   5.574 -0.1948  0.1279  0.1187
  611MOL0     C84223  11.990   4.356   5.666 -0.7105  0.8144 -0.3696
  611MOL0     C84224  12.105   4.461   5.686 -0.9009 -0.3418 -0.0033
  611MOL0    Cl84225  12.175   4.483   5.850 -0.0627 -0.6192  0.1002
  611MOL0     C84226  11.543   4.192   4.824 -0.2844  0.6232  0.2437
  611MOL0     C84227  11.446   4.170   4.723 -0.4919  0.6517  0.5033
  611MOL0     O84228  11.385   3.838   4.587 -0.6922  0.4715  0.7074
  611MOL0     C84229  11.161   3.729   4.475 -0.0889 -0.5446  0.1279
  611MOL0     C84230  11.046   3.678   4.407 -0.4516 -1.0701 -0.3195
  611MOL0     N84231  10.703   4.122   4.354  0.1531 -0.0003 -0.2970
  611MOL0     N84232  10.701   4.226   4.429  0.3733  0.0167 -0.1171
  611MOL0     C84233  10.710   3.806   5.547 -0.2969  0.2547 -0.1062
  611MOL0     C84234  10.737   3.773   5.690  0.0983  0.2006 -0.1078
  611MOL0     C84235  10.765   3.528   6.083  0.4107 -0.2616 -0.5065
  611MOL0     C84236  10.777   3.659   6.136  0.1290  0.9277  0.0337
  611MOL0     C84237  10.774   3.684   6.272 -1.4956  0.2783  0.2026
  611MOL0     C84238  10.773   3.582   6.365  0.2410 -0.6029 -0.2572
  611MOL0     O84239  10.795   3.628   6.493 -0.0221  0.1345  0.6473
  611MOL0     C84240  10.783   3.548   6.607 -0.4790  0.0052 -1.1892
  611MOL0     C84241  10.904   3.539   6.698  0.7648 -0.2860 -0.4447
  611MOL0     C84242  10.874   3.449   6.819  0.0392  0.1039  0.1125
  611MOL0     C84243  10.948   3.486   6.944  0.4774  0.5424 -0.3086
  611MOL0     C84244  11.097   3.483   6.937 -0.0086 -0.1644 -0.2330
  611MOL0     C84245  11.213   3.478   6.910 -0.4344  1.2486  0.1676
  611MOL0     C84246  10.784   3.453   6.308  0.3825 -0.7833 -0.4500
  611MOL0     C84247  10.771   3.420   6.174  0.4702 -0.7296 -0.4562
  611MOL0     C84248  10.765   3.272   6.146  0.9702  0.3204 -0.3832
  611MOL0     H84249  10.694   3.435   5.666  0.8143 -0.6377 -0.0771
  611MOL0     H84250  10.619   3.504   5.428  0.3996  0.7160 -0.5696
  611MOL0     H84251  10.728   3.902   5.279 -0.8693  2.9921 -2.6842
  611MOL0     H84252  10.553   3.920   5.343  0.9788  1.4748 -0.9985
  611MOL0     H84253  10.629   3.813   5.083 -0.7362 -1.1652  0.2627
  611MOL0     H84254  10.466   3.834   5.150  0.1112  0.9770 -1.0334
  611MOL0     H84255  10.533   4.089   5.176 -1.3776  0.7309 -1.1056
  611MOL0     H84256  10.688   4.052   5.102  0.6558  1.4387 -1.4809
  611MOL0     H84257  10.522   3.956   4.902 -1.6755  1.4196 -1.8912
  611MOL0     H84258  10.417   4.075   4.974  1.2524  2.1005 -0.9083
  611MOL0     H84259  10.711   4.136   4.889  0.2824 -1.0369  0.6040
  611MOL0     H84260  10.594   4.248   4.951 -0.6395 -0.6226  0.7967
  611MOL0     H84261  10.617   4.117   4.674  1.4752  1.0819 -1.2340
  611MOL0     H84262  10.462   4.131   4.728  2.7343 -4.1690 -0.3793
  611MOL0     H84263  10.661   4.378   4.727 -0.2836  1.6077 -1.5550
  611MOL0     H84264  10.501   4.382   4.779 -2.2129  0.4409 -0.7965
  611MOL0     H84265  10.423   4.342   4.569 -0.4672 -2.0149  4.7533
  611MOL0     H84266  10.573   4.438   4.511 -0.5753 -2.2358 -2.9871
  611MOL0     H84267  10.389   4.137   4.447 -0.3274 -0.3974 -2.3194
  611MOL0     H84268  10.456   3.983   4.179  2.0627  0.2262 -1.3403
  611MOL0     H84269  10.426   3.901   4.319  0.8084 -0.6511 -1.4768
  611MOL0     H84270  10.567   3.794   4.140  0.0421  1.8236 -2.4017
  611MOL0     H84271  10.693   3.903   4.168 -0.9255  0.9322 -0.8892
  611MOL0     H84272  10.699   3.823   4.408  1.6607  1.0386 -0.8588
  611MOL0     H84273  10.568   3.710   4.366 -1.1188  1.9182 -0.5765
  611MOL0     H84274  10.786   3.601   4.406 -0.5735  1.5092  2.1970
  611MOL0     H84275  10.726   3.569   4.251  4.8658 -0.2875 -1.6070
  611MOL0     H84276  10.924   3.937   4.258 -3.6431 -2.0767  2.3045
  611MOL0     H84277  11.064   4.156   4.388  0.2651 -0.0505 -0.8543
  611MOL0     H84278  11.134   4.110   4.237  0.3133 -0.5958  1.3209
  611MOL0     H84279  11.243   4.115   4.376  1.4272 -2.5036 -0.9563
  611MOL0     H84280  11.310   3.883   4.851  3.9777 -1.6454  3.8543
  611MOL0     H84281  11.456   3.939   5.028  1.0108 -0.9953  0.4664
  611MOL0     H84282  11.579   4.059   5.198  0.8975  3.1941  0.5257
  611MOL0     H84283  11.693   3.955   5.104 -0.0223  0.6302 -2.9145
  611MOL0     H84284  11.858   4.143   5.138  0.6062  2.9475  0.4970
  611MOL0     H84285  11.740   4.227   5.237 -0.4454 -0.6803  4.6765
  611MOL0     H84286  11.836   3.940   5.273 -0.4948 -0.1822 -0.3128
  611MOL0     H84287  11.748   4.017   5.401  0.9387 -0.3582  0.4097
  611MOL0     H84288  12.025   4.127   5.332  0.1055 -1.5137  0.4596
  611MOL0     H84289  11.988   3.995   5.432 -0.0841 -1.5519 -3.3657
  611MOL0     H84290  11.856   4.277   5.468 -0.6796  1.2419  3.6884
  611MOL0     H84291  11.853   4.125   5.568  1.6792 -0.1572  0.4454
  611MOL0     H84292  12.106   4.275   5.501 -1.3882  2.9014  0.0057
  611MOL0     H84293  12.073   4.159   5.632 -4.8211 -1.8128  1.1756
  611MOL0     H84294  11.943   4.326   5.759 -0.3110 -0.1232 -0.4664
  611MOL0     H84295  11.912   4.409   5.609 -1.2612  0.6055  0.1879
  611MOL0     H84296  12.051   4.552   5.658  0.2696 -0.9256 -5.1422
  611MOL0     H84297  12.182   4.444   5.610 -2.3359 -0.2446 -1.5511
  611MOL0     H84298  11.609   4.277   4.813  2.1382 -1.2268 -0.4376
  611MOL0     H84299  11.453   4.236   4.636  2.5111 -1.1958 -0.8155
  611MOL0     H84300  11.232   3.655   4.510  2.7628  1.9602  0.0498
  611MOL0     H84301  11.024   3.571   4.405 -0.9301 -0.9727 -0.3490
  611MOL0     H84302  10.730   3.907   5.512  2.1100 -1.2755 -3.7552
  611MOL0     H84303  10.758   3.855   5.757  0.5470  0.3144 -0.3873
  611MOL0     H84304  10.772   3.750   6.077 -0.1340  1.7972  1.3358
  611MOL0     H84305  10.783   3.787   6.304  3.1671  0.2392 -0.3625
  611MOL0     H84306  10.692   3.575   6.662 -0.8000 -1.1259 -1.1395
  611MOL0     H84307  10.768   3.445   6.573 -0.9791  0.3417 -2.0113
  611MOL0     H84308  10.935   3.637   6.734 -1.2635  0.2870 -0.1317
  611MOL0     H84309  10.986   3.503   6.635  1.4267  1.5547 -0.6823
  611MOL0     H84310  10.768   3.445   6.847  0.1629 -1.0184  0.4799
  611MOL0     H84311  10.895   3.352   6.772 -1.3162  0.4379 -1.2314
  611MOL0     H84312  10.923   3.418   7.026 -0.4432  1.0132 -0.1747
  611MOL0     H84313  10.912   3.586   6.972  3.3492  0.5421  4.5230
  611MOL0     H84314  11.311   3.447   6.881 -1.3220 -4.5296  2.0723
  611MOL0     H84315  10.802   3.369   6.374 -3.5219 -2.1724 -0.8922
  611MOL0     H84316  10.724   3.216   6.231  2.2684  1.3797  0.9877
  611MOL0     H84317  10.709   3.247   6.056  1.0261  1.3528 -0.7114
  611MOL0     H84318  10.866   3.230   6.149  0.9131 -0.0912  4.5909
  612MOL0     O84319   8.110  10.502   5.017 -0.1229 -0.2036 -0.6532
  612MOL0     C84320   8.062  10.601   5.070 -0.0688 -0.0687 -0.5886
  612MOL0     O84321   7.969  10.592   5.172 -0.0983  0.9435  0.5857
  612MOL0     C84322   7.945  10.478   5.231 -0.4526 -0.9918 -0.2583
  612MOL0     C84323   8.014  10.431   5.338 -0.2752  0.4289 -0.2855
  612MOL0     C84324   7.962  10.319   5.415  0.7438 -0.5399 -1.5018
  612MOL0     C84325   7.843  10.255   5.391 -0.0390  0.2232 -0.3304
  612MOL0     O84326   7.813  10.157   5.488  0.5307 -0.2647  0.0295
  612MOL0     C84327   7.707  10.066   5.448 -0.3081 -0.4933  0.5963
  612MOL0     C84328   7.656   9.986   5.564  0.0491 -0.3554 -0.5570
  612MOL0     C84329   7.773   9.941   5.659  0.1421  0.1031 -0.8722
  612MOL0     C84330   7.712   9.816   5.743 -0.3997 -0.6301  0.5774
  612MOL0     C84331   7.822   9.765   5.828 -0.0640  0.2122 -0.5763
  612MOL0     C84332   7.785   9.636   5.911  0.2317 -0.5805 -0.3591
  612MOL0     C84333   7.910   9.554   5.953  0.8511  0.3767 -0.1144
  612MOL0     C84334   7.869   9.420   6.004  1.1044 -0.1811  0.1334
  612MOL0     N84335   7.920   9.365   6.136  0.3339 -0.0479  0.4581
  612MOL0     C84336   7.849   9.332   6.247 -0.4249 -0.7630 -0.2395
  612MOL0     C84337   7.935   9.287   6.347 -0.5005 -1.2678  0.6993
  612MOL0     C84338   7.877   9.239   6.473 -0.4927  0.6684  0.1081
  612MOL0     C84339   7.859   9.353   6.574  0.5409  0.1776  0.4384
  612MOL0     C84340   7.857   9.311   6.723  0.4527  0.2898  0.1451
  612MOL0     C84341   7.741   9.224   6.770  0.0361 -0.1635  0.5075
  612MOL0     O84342   7.755   9.100   6.711 -0.3851  0.2038 -0.5024
  612MOL0     C84343   7.685   8.994   6.759  0.1801  0.5296 -0.5432
  612MOL0     C84344   7.613   9.001   6.878  0.2137  0.3895 -0.4074
  612MOL0     C84345   7.544   8.891   6.924  0.4589  0.1862  0.7414
  612MOL0     C84346   7.464   8.916   7.052 -0.7632  0.2096 -0.9628
  612MOL0     C84347   7.550   8.765   6.852  0.1747  0.6358  0.7570
  612MOL0     C84348   7.485   8.642   6.901  0.1724  0.2483  0.1474
  612MOL0     O84349   7.421   8.648   7.021  0.4006 -0.0362 -0.1248
  612MOL0     C84350   7.328   8.550   7.061  0.2029 -0.0514  0.6779
  612MOL0     C84351   7.258   8.586   7.184 -0.1706 -0.3889 -0.1261
  612MOL0     C84352   7.164   8.506   7.245 -0.1204 -0.4898  0.3260
  612MOL0     C84353   7.130   8.382   7.192  0.1849  0.4709  0.7797
  612MOL0     O84354   7.038   8.294   7.249 -0.0883  0.2059  0.4922
  612MOL0     C84355   7.029   8.285   7.394  0.1894  0.0789 -0.3417
  612MOL0     C84356   6.941   8.162   7.430  0.8258  0.2450 -0.1563
  612MOL0     C84357   6.819   8.137   7.344 -0.1975 -0.2464  0.6775
  612MOL0     C84358   6.727   8.260   7.354 -0.9228  1.7312  0.7242
  612MOL0     C84359   6.585   8.230   7.342  0.0678  1.5313 -0.2312
  612MOL0     C84360   6.496   8.351   7.332 -0.8193 -0.2789  0.4924
  612MOL0     C84361   6.343   8.335   7.347 -0.1780  0.2502 -0.6079
  612MOL0     C84362   6.279   8.246   7.239 -0.5735 -0.0092  0.6907
  612MOL0    Cl84363   6.106   8.236   7.284 -0.1314 -0.4473 -0.4904
  612MOL0     C84364   7.185   8.344   7.063 -0.4438  0.5382  0.5874
  612MOL0     C84365   7.279   8.423   6.999 -0.4781  0.5665 -0.0450
  612MOL0     O84366   7.484   8.539   6.824 -0.1787  0.1752  0.6490
  612MOL0     C84367   7.639   8.758   6.745 -0.3516 -0.4197  0.0170
  612MOL0     C84368   7.705   8.869   6.694  0.3031 -0.2214  0.6461
  612MOL0     N84369   8.057   9.313   6.288 -0.0666 -0.4821  0.2379
  612MOL0     N84370   8.050   9.350   6.166 -0.1751 -0.4713 -0.0080
  612MOL0     C84371   7.760  10.315   5.295  0.3127 -0.0810 -0.4833
  612MOL0     C84372   7.819  10.422   5.212 -0.4687  0.6262  1.2403
  612MOL0     C84373   8.105  10.728   5.012 -0.1834 -0.0823 -0.8141
  612MOL0     C84374   8.151  10.729   4.880  1.1053 -0.0937  0.1534
  612MOL0     C84375   8.191  10.850   4.826 -0.5030  0.3753  0.1953
  612MOL0     C84376   8.162  10.967   4.890 -0.1322  0.7211 -0.6600
  612MOL0     O84377   8.186  11.082   4.823 -0.9862  0.2058  0.2507
  612MOL0     C84378   8.299  11.156   4.868 -0.1624 -0.0147  0.6970
  612MOL0     C84379   8.263  11.303   4.853 -0.1366  0.0378  0.2601
  612MOL0     C84380   8.273  11.363   4.989 -0.1772 -0.6299 -1.0071
  612MOL0     C84381   8.193  11.502   5.000 -0.8820  0.5833 -0.0650
  612MOL0     C84382   8.050  11.476   5.001  1.0445  0.1375 -0.2522
  612MOL0     C84383   7.932  11.433   4.995 -0.0164  0.4926  0.0180
  612MOL0     C84384   8.094  10.973   5.009 -0.3292  0.7040 -0.6287
  612MOL0     C84385   8.075  10.854   5.079  0.4743  0.2758  0.0487
  612MOL0     C84386   8.008  10.871   5.215  1.5252 -0.0714 -0.1772
  612MOL0     H84387   8.107  10.481   5.364 -0.7893  1.9695 -1.2313
  612MOL0     H84388   8.015  10.257   5.487 -2.0307  0.4855  1.6503
  612MOL0     H84389   7.755   9.994   5.381 -1.0266 -0.3508 -0.0821
  612MOL0     H84390   7.628  10.113   5.389  0.4344  2.3792  1.7071
  612MOL0     H84391   7.578  10.037   5.621 -2.2118 -2.6410 -1.4248
  612MOL0     H84392   7.620   9.894   5.518  3.9700 -2.7211  0.5584
  612MOL0     H84393   7.858   9.906   5.600  0.8762  0.5660 -0.1082
  612MOL0     H84394   7.802  10.025   5.723 -0.9246  0.0314 -0.2693
  612MOL0     H84395   7.621   9.843   5.799 -1.5506 -1.2662 -0.9128
  612MOL0     H84396   7.681   9.735   5.677  1.7864 -0.4230 -0.7920
  612MOL0     H84397   7.852   9.840   5.902  0.1945  0.0326 -0.4973
  612MOL0     H84398   7.911   9.743   5.769  0.2652 -1.1001  0.3628
  612MOL0     H84399   7.734   9.654   6.006  1.8136  0.7629  0.2788
  612MOL0     H84400   7.735   9.568   5.841  0.5901 -1.1270 -0.0848
  612MOL0     H84401   7.969   9.607   6.029 -2.5080  0.6049  2.5847
  612MOL0     H84402   7.969   9.547   5.862  3.1923  0.2344  1.3295
  612MOL0     H84403   7.761   9.420   5.984  1.0037  2.5939  0.2856
  612MOL0     H84404   7.908   9.346   5.934  2.7360  1.2980 -0.5903
  612MOL0     H84405   7.742   9.326   6.262 -0.3983  1.8115  1.8634
  612MOL0     H84406   7.951   9.174   6.520 -1.9147 -1.1285  0.0015
  612MOL0     H84407   7.797   9.166   6.457 -2.5868  2.7158  0.7114
  612MOL0     H84408   7.940   9.423   6.555  0.1184 -0.0176 -2.5829
  612MOL0     H84409   7.779   9.417   6.537 -0.0891 -2.3093 -2.9535
  612MOL0     H84410   7.950   9.257   6.738  0.0614 -0.4820 -0.1229
  612MOL0     H84411   7.857   9.401   6.785 -1.8987 -0.2116  0.9686
  612MOL0     H84412   7.753   9.219   6.879  1.6983 -1.0327  0.3211
  612MOL0     H84413   7.641   9.262   6.747 -0.3843 -2.4190 -1.9190
  612MOL0     H84414   7.610   9.094   6.934  3.5428  0.9649 -1.0010
  612MOL0     H84415   7.370   8.860   7.048  0.7120 -2.6975  1.3224
  612MOL0     H84416   7.442   9.022   7.064 -0.2350  0.1204  1.4209
  612MOL0     H84417   7.531   8.889   7.134 -2.8954  1.6524  1.3840
  612MOL0     H84418   7.284   8.673   7.244 -0.4683 -2.2336  2.9167
  612MOL0     H84419   7.110   8.536   7.334 -2.9757 -3.3151 -0.2705
  612MOL0     H84420   7.129   8.277   7.439  0.7249  0.3908 -1.4436
  612MOL0     H84421   6.991   8.384   7.422  0.7446  1.3244 -3.5184
  612MOL0     H84422   7.005   8.074   7.445 -1.3158 -1.3160  0.3017
  612MOL0     H84423   6.895   8.160   7.529  0.1485  1.3056 -0.4370
  612MOL0     H84424   6.768   8.044   7.371 -3.1816  0.5758 -1.5479
  612MOL0     H84425   6.840   8.125   7.238 -1.0976 -1.5110  0.6145
  612MOL0     H84426   6.752   8.333   7.276  1.0193  0.7963  0.4074
  612MOL0     H84427   6.752   8.313   7.446  1.4258  0.4277  0.8900
  612MOL0     H84428   6.569   8.168   7.253  0.2058  0.0571  0.7338
  612MOL0     H84429   6.558   8.164   7.425 -1.5803 -0.7176 -2.3812
  612MOL0     H84430   6.516   8.407   7.240  0.1674 -0.2637  0.7028
  612MOL0     H84431   6.528   8.409   7.419  0.4779  0.3001 -0.3439
  612MOL0     H84432   6.306   8.438   7.353  0.6062  0.4839  0.5267
  612MOL0     H84433   6.321   8.287   7.442  1.5193  1.2778  0.3601
  612MOL0     H84434   6.312   8.142   7.246  0.9880  0.5707  3.7471
  612MOL0     H84435   6.295   8.286   7.139 -0.0076 -2.1623 -0.1365
  612MOL0     H84436   7.147   8.255   7.015 -0.6523  1.0710 -0.2441
  612MOL0     H84437   7.312   8.374   6.908  0.4014  2.2742 -0.6931
  612MOL0     H84438   7.651   8.664   6.692 -2.2016  0.2085 -1.6162
  612MOL0     H84439   7.768   8.877   6.606 -0.0385 -0.3691  0.3857
  612MOL0     H84440   7.666  10.261   5.281  0.8724 -0.6291 -2.2645
  612MOL0     H84441   7.760  10.460   5.129 -0.2554 -1.6703 -0.0402
  612MOL0     H84442   8.185  10.637   4.833 -0.4673 -0.6496  0.0351
  612MOL0     H84443   8.227  10.849   4.723 -0.4261  2.2918  0.1706
  612MOL0     H84444   8.342  11.135   4.966 -0.6949 -0.2230  0.8913
  612MOL0     H84445   8.377  11.132   4.796  0.8924  0.3532  1.6972
  612MOL0     H84446   8.164  11.310   4.807  0.2613  1.2535 -0.4461
  612MOL0     H84447   8.330  11.347   4.778 -0.7479 -0.3248 -0.5105
  612MOL0     H84448   8.232  11.295   5.065 -3.1176  1.1767 -0.8407
  612MOL0     H84449   8.376  11.378   5.023 -0.8580  5.0946 -0.6409
  612MOL0     H84450   8.222  11.562   4.913 -0.3054 -0.1588 -0.3981
  612MOL0     H84451   8.214  11.554   5.094 -1.1033 -0.0850  0.3598
  612MOL0     H84452   7.831  11.398   4.990 -0.9826  2.2279  3.5620
  612MOL0     H84453   8.071  11.065   5.061 -1.2568 -0.7379  1.6715
  612MOL0     H84454   8.034  10.795   5.290 -1.9614 -1.8468 -0.5299
  612MOL0     H84455   8.022  10.970   5.260 -0.7497  0.2660 -0.0642
  612MOL0     H84456   7.900  10.863   5.200  1.5554  1.5211 -1.4179
  613MOL0     O84457   8.646   9.863   5.109 -0.1189 -0.7386  0.3823
  613MOL0     C84458   8.634   9.964   5.035  0.3662 -0.1198 -0.6385
  613MOL0     O84459   8.520  10.049   5.036  0.4134  0.4260 -0.2708
  613MOL0     C84460   8.452  10.051   5.155  1.0280 -0.6202  1.4158
  613MOL0     C84461   8.402   9.940   5.220 -0.8232  0.0391 -0.7513
  613MOL0     C84462   8.319   9.953   5.332  0.8097 -0.9707  0.5551
  613MOL0     C84463   8.283  10.081   5.377 -0.2101  0.0619  0.1590
  613MOL0     O84464   8.191  10.100   5.476  0.3912  0.8011 -0.3265
  613MOL0     C84465   8.179   9.986   5.567 -0.7290  0.0696 -0.5061
  613MOL0     C84466   8.150  10.022   5.716 -0.6203  0.8564 -1.1695
  613MOL0     C84467   8.248  10.137   5.750 -0.2651  0.2494 -0.4080
  613MOL0     C84468   8.220  10.186   5.896  0.5419 -0.2105 -0.5492
  613MOL0     C84469   8.248  10.085   6.000 -0.3639  0.3306 -0.4781
  613MOL0     C84470   8.271  10.137   6.149 -0.9971 -1.1040 -0.2794
  613MOL0     C84471   8.170  10.226   6.219  0.1996  0.7439 -0.7864
  613MOL0     C84472   8.031  10.168   6.230  0.0425  0.4522  0.0684
  613MOL0     N84473   7.967  10.245   6.337  0.2008  0.8573  1.0203
  613MOL0     C84474   7.831  10.226   6.359  0.2248  0.3556 -0.4546
  613MOL0     C84475   7.809  10.236   6.491 -0.3675 -0.3990 -0.5360
  613MOL0     C84476   7.673  10.246   6.549 -0.1823 -0.3727 -0.2040
  613MOL0     C84477   7.633  10.111   6.625 -0.7057 -0.2425 -0.3117
  613MOL0     C84478   7.484  10.103   6.653  0.2384  0.2919 -0.1402
  613MOL0     C84479   7.463   9.973   6.729 -0.0332  0.4536 -0.3282
  613MOL0     O84480   7.352  10.002   6.820  0.1684  0.5591 -0.0472
  613MOL0     C84481   7.279   9.899   6.878  0.4461  0.1264 -1.2784
  613MOL0     C84482   7.181   9.936   6.972  0.5042  0.2683 -0.4934
  613MOL0     C84483   7.098   9.842   7.040 -0.9191 -0.2991  0.3030
  613MOL0     C84484   7.004   9.895   7.145  0.6040 -0.3188  1.4540
  613MOL0     C84485   7.098   9.708   6.995  0.2023 -0.4347  0.9974
  613MOL0     C84486   6.992   9.604   7.035 -0.1322 -0.0390 -0.1674
  613MOL0     O84487   7.027   9.472   7.015 -0.0932  0.5356  0.6769
  613MOL0     C84488   6.942   9.374   7.071 -0.9119  0.1977  0.8972
  613MOL0     C84489   6.972   9.341   7.204  0.3008  0.7080 -0.3471
  613MOL0     C84490   6.880   9.268   7.274  0.1865  0.2340  0.5234
  613MOL0     C84491   6.774   9.197   7.203 -0.3634 -0.7249 -0.5218
  613MOL0     O84492   6.690   9.127   7.287 -0.7002 -0.4038  0.1818
  613MOL0     C84493   6.570   9.086   7.239 -0.5237  0.2998 -0.7508
  613MOL0     C84494   6.472   9.038   7.346 -0.1856 -0.2769 -1.0513
  613MOL0     C84495   6.333   9.037   7.290 -0.2842  0.0423 -0.0849
  613MOL0     C84496   6.231   8.990   7.394 -0.2711  0.4042  0.1486
  613MOL0     C84497   6.084   8.964   7.329 -0.9166  0.1866  0.3278
  613MOL0     C84498   5.989   9.080   7.363 -0.0724  0.2933  0.3911
  613MOL0     C84499   5.859   9.038   7.302  1.3407  0.7519 -0.5025
  613MOL0     C84500   5.746   9.122   7.362  0.2281 -0.5951  0.5345
  613MOL0    Cl84501   5.710   9.262   7.252 -0.1252 -0.1000  0.1652
  613MOL0     C84502   6.758   9.222   7.065 -0.7193 -1.3761 -0.2547
  613MOL0     C84503   6.846   9.312   6.999 -0.8709 -0.5554 -0.5759
  613MOL0     O84504   6.877   9.647   7.067  0.3382 -0.0611 -0.0884
  613MOL0     C84505   7.194   9.675   6.902  0.1546 -0.4654 -0.2337
  613MOL0     C84506   7.293   9.767   6.847  0.4872  0.9500  0.0595
  613MOL0     N84507   7.928  10.277   6.546  0.4987 -0.2323  0.1175
  613MOL0     N84508   8.024  10.265   6.461 -0.5489 -1.1199 -1.0604
  613MOL0     C84509   8.327  10.187   5.307 -0.5901 -0.5563 -0.4151
  613MOL0     C84510   8.410  10.177   5.194 -0.3859 -0.2431 -0.0037
  613MOL0     C84511   8.738  10.007   4.929  0.3670  0.0986 -0.2894
  613MOL0     C84512   8.706  10.120   4.846  0.7197  0.9413  0.1033
  613MOL0     C84513   8.789  10.160   4.744 -0.4116 -0.0321 -0.1523
  613MOL0     C84514   8.915  10.104   4.728  1.5166  0.1739  0.0391
  613MOL0     O84515   8.995  10.142   4.623  0.4413 -0.6804 -0.2909
  613MOL0     C84516   9.134  10.080   4.611  0.7563  0.7137  1.0258
  613MOL0     C84517   9.184  10.119   4.475 -0.6260 -0.1412  1.1520
  613MOL0     C84518   9.183  10.276   4.461  0.5765 -0.1577  0.8317
  613MOL0     C84519   9.269  10.337   4.348  0.0050 -0.4688 -0.5649
  613MOL0     C84520   9.224  10.294   4.217  1.0241  0.2162 -0.4794
  613MOL0     C84521   9.175  10.283   4.102  0.1084  0.2928  0.7842
  613MOL0     C84522   8.954  10.001   4.818  0.7642  0.2658 -0.3948
  613MOL0     C84523   8.867   9.953   4.913  0.8083 -0.5508 -0.5006
  613MOL0     C84524   8.927   9.838   4.999  0.4088 -0.3406 -0.1610
  613MOL0     H84525   8.413   9.846   5.168  0.1785  0.5214 -1.4384
  613MOL0     H84526   8.274   9.872   5.388  0.2810 -0.5166  0.8001
  613MOL0     H84527   8.279   9.943   5.578 -0.5048  0.5049 -0.8314
  613MOL0     H84528   8.111   9.904   5.542  1.4362 -2.4069  1.1775
  613MOL0     H84529   8.044  10.048   5.724 -1.6830 -2.7283 -1.7208
  613MOL0     H84530   8.178   9.941   5.784  5.9710  0.8676 -3.2078
  613MOL0     H84531   8.344  10.085   5.750 -0.5888 -0.4235  1.3643
  613MOL0     H84532   8.248  10.222   5.681 -1.1616 -0.3811 -1.2141
  613MOL0     H84533   8.264  10.284   5.913  2.4531 -1.2577  1.0284
  613MOL0     H84534   8.118  10.224   5.893  0.7119  0.1998 -2.1539
  613MOL0     H84535   8.326  10.018   5.963 -1.8968 -0.2706 -2.8027
  613MOL0     H84536   8.161  10.018   6.001 -1.8921  2.2392  0.7740
  613MOL0     H84537   8.277  10.052   6.217 -2.6468  0.9674  2.6998
  613MOL0     H84538   8.369  10.184   6.159 -1.3260 -0.6893  1.2904
  613MOL0     H84539   8.161  10.324   6.172 -0.3914  0.2038 -1.8283
  613MOL0     H84540   8.213  10.240   6.319 -2.0462 -3.0330  0.9365
  613MOL0     H84541   7.985  10.188   6.132  1.0104 -0.7015 -0.6497
  613MOL0     H84542   8.025  10.062   6.259 -4.5060  0.0163 -1.5775
  613MOL0     H84543   7.760  10.216   6.277  0.6053 -2.2957 -0.5649
  613MOL0     H84544   7.611  10.283   6.467  1.3585  3.0021 -0.0234
  613MOL0     H84545   7.650  10.319   6.628  0.2265 -0.8402  0.3602
  613MOL0     H84546   7.665  10.026   6.564  1.4669  0.0857  0.2991
  613MOL0     H84547   7.689  10.111   6.718 -1.6439  1.0684  0.2842
  613MOL0     H84548   7.460  10.191   6.714 -0.7235 -0.5813  0.8058
  613MOL0     H84549   7.419  10.109   6.565 -0.3601  1.5594  0.3692
  613MOL0     H84550   7.440   9.897   6.654  0.8862  1.3725 -1.6003
  613MOL0     H84551   7.552   9.937   6.781 -1.3468 -3.6222 -0.5715
  613MOL0     H84552   7.173  10.040   7.002 -2.7067  0.3953 -1.4421
  613MOL0     H84553   7.035   9.993   7.183 -0.2848  1.3541 -1.7373
  613MOL0     H84554   6.981   9.825   7.225 -2.1321 -0.5778  0.5429
  613MOL0     H84555   6.906   9.914   7.101  0.5215  3.1505  2.8391
  613MOL0     H84556   7.063   9.383   7.243 -0.6246  0.6539  2.0331
  613MOL0     H84557   6.902   9.242   7.377  1.2105 -0.8088  0.0673
  613MOL0     H84558   6.517   9.171   7.196  0.8573  0.4360 -2.2725
  613MOL0     H84559   6.585   9.006   7.166  0.8636  0.0606 -0.2340
  613MOL0     H84560   6.508   8.940   7.378  0.9233  0.5619  0.4014
  613MOL0     H84561   6.479   9.118   7.421  0.2922  1.1065 -2.5274
  613MOL0     H84562   6.332   8.961   7.211  1.9910  0.0022 -0.1442
  613MOL0     H84563   6.292   9.128   7.245 -1.9576 -1.3132 -1.4452
  613MOL0     H84564   6.233   9.053   7.483 -2.3296 -1.4992  1.6456
  613MOL0     H84565   6.272   8.893   7.421  2.1053  1.3036  0.0596
  613MOL0     H84566   6.096   8.948   7.221  0.3751 -0.1960  0.5127
  613MOL0     H84567   6.045   8.870   7.369 -2.6694 -0.7582 -3.2277
  613MOL0     H84568   6.021   9.181   7.335  1.2708 -0.2777 -0.2510
  613MOL0     H84569   5.980   9.091   7.471 -0.6034  1.6524  0.2302
  613MOL0     H84570   5.844   8.931   7.311  0.0877  0.6895 -2.7380
  613MOL0     H84571   5.858   9.056   7.194  0.9506  0.0055 -0.6263
  613MOL0     H84572   5.769   9.161   7.461  0.5977 -1.0274  0.6238
  613MOL0     H84573   5.654   9.063   7.367 -1.4435  1.8733  0.6430
  613MOL0     H84574   6.677   9.169   7.015  0.3349 -3.1025 -0.2212
  613MOL0     H84575   6.845   9.328   6.892  2.5281 -0.6237 -0.7369
  613MOL0     H84576   7.190   9.580   6.849  0.5837 -0.4992 -0.2121
  613MOL0     H84577   7.368   9.723   6.783 -1.9250 -3.0950 -0.3608
  613MOL0     H84578   8.302  10.282   5.354 -0.0268 -1.1212  1.0624
  613MOL0     H84579   8.447  10.269   5.150 -2.5380  1.5457  1.7212
  613MOL0     H84580   8.613  10.175   4.861  1.1387  1.6708  0.1063
  613MOL0     H84581   8.758  10.243   4.682 -1.3569  0.3012  0.7409
  613MOL0     H84582   9.201  10.102   4.694  2.3248  4.4917 -1.0168
  613MOL0     H84583   9.127   9.971   4.622  1.1505  0.7468  1.6764
  613MOL0     H84584   9.125  10.080   4.392  1.9140  0.2832 -0.9978
  613MOL0     H84585   9.286  10.085   4.455 -1.4124 -0.5674 -3.0887
  613MOL0     H84586   9.083  10.306   4.430  0.8172 -0.9490 -0.8065
  613MOL0     H84587   9.214  10.325   4.554  2.4810 -0.3757  0.3563
  613MOL0     H84588   9.368  10.294   4.369 -0.6426 -1.0979  1.4669
  613MOL0     H84589   9.254  10.444   4.361 -1.0759 -0.7827  1.2310
  613MOL0     H84590   9.117  10.269   4.013 -0.3155  3.5489  0.4070
  613MOL0     H84591   9.056   9.964   4.815  1.3639  1.8761 -0.3747
  613MOL0     H84592   8.845   9.765   4.999  1.5380 -1.7202 -2.3790
  613MOL0     H84593   9.004   9.786   4.941 -0.6424 -1.8272 -0.2917
  613MOL0     H84594   8.962   9.855   5.101 -4.3781 -2.9622  2.3027
  614MOL0     O84595   4.745   9.291   5.370 -0.6904  0.1358  0.5182
  614MOL0     C84596   4.633   9.275   5.409  0.1294  0.3152  0.4144
  614MOL0     O84597   4.597   9.237   5.541 -0.4343  0.1488  0.0475
  614MOL0     C84598   4.674   9.233   5.651  0.7143  0.7350 -0.3938
  614MOL0     C84599   4.608   9.175   5.755  0.3629  0.1389  0.3454
  614MOL0     C84600   4.675   9.134   5.866 -0.8714  0.0638 -0.1679
  614MOL0     C84601   4.814   9.181   5.886 -0.2796 -0.0692 -0.2874
  614MOL0     O84602   4.898   9.155   5.986 -0.3294 -0.2163  0.6227
  614MOL0     C84603   4.849   9.096   6.109  1.1211  0.2418 -0.3919
  614MOL0     C84604   4.906   8.951   6.124 -0.9262  0.1656 -0.3534
  614MOL0     C84605   4.866   8.877   5.992 -0.4254 -0.2139  0.2627
  614MOL0     C84606   4.920   8.726   5.997  0.0942  0.3489 -0.7889
  614MOL0     C84607   4.885   8.645   5.860  0.0197 -0.1577 -0.2963
  614MOL0     C84608   4.887   8.494   5.886 -0.4626  0.6912  0.2425
  614MOL0     C84609   4.845   8.415   5.763 -0.0875  0.3964  0.2206
  614MOL0     C84610   4.777   8.275   5.801 -0.5272  0.5528 -0.7100
  614MOL0     N84611   4.839   8.208   5.912 -1.0843  0.4809  0.0211
  614MOL0     C84612   4.820   8.204   6.045  0.2057 -0.0553  0.6695
  614MOL0     C84613   4.903   8.124   6.096 -0.4253 -0.2982 -0.5157
  614MOL0     C84614   4.914   8.089   6.244 -0.2187  0.5621  0.0859
  614MOL0     C84615   4.974   7.941   6.266  0.1170  0.5959  0.7553
  614MOL0     C84616   4.920   7.873   6.399 -0.0892 -0.6511 -0.9697
  614MOL0     C84617   4.767   7.858   6.414  0.6404  0.0553 -0.1582
  614MOL0     O84618   4.713   7.817   6.292 -0.1434 -0.2592 -0.3328
  614MOL0     C84619   4.669   7.690   6.283  0.5573 -0.3122  0.1913
  614MOL0     C84620   4.538   7.649   6.291 -0.7844  0.0330 -0.4539
  614MOL0     C84621   4.505   7.513   6.282  0.2908 -0.3350 -0.1825
  614MOL0     C84622   4.360   7.492   6.323 -1.2144  0.7477  0.6067
  614MOL0     C84623   4.609   7.419   6.260 -0.0466  0.5517 -0.1022
  614MOL0     C84624   4.577   7.270   6.283  0.0742 -0.3575 -0.3504
  614MOL0     O84625   4.459   7.239   6.328  0.4234  0.3025  0.2658
  614MOL0     C84626   4.435   7.102   6.359 -1.0030  1.0400  0.4857
  614MOL0     C84627   4.443   7.000   6.259 -0.7080 -0.1516 -0.2348
  614MOL0     C84628   4.430   6.864   6.310 -0.5266 -0.3719  0.9233
  614MOL0     C84629   4.410   6.835   6.443 -1.1685 -0.1120 -1.0202
  614MOL0     O84630   4.407   6.707   6.492  0.6698  0.6113  0.4341
  614MOL0     C84631   4.506   6.617   6.443 -0.0094  0.4323  0.9977
  614MOL0     C84632   4.625   6.621   6.543  0.7871  0.9920  0.0051
  614MOL0     C84633   4.584   6.642   6.688 -0.1557  0.2576 -0.1489
  614MOL0     C84634   4.502   6.521   6.739 -0.4861  0.0641 -0.8708
  614MOL0     C84635   4.472   6.521   6.892 -0.0849 -0.2700  1.0299
  614MOL0     C84636   4.366   6.626   6.931  0.4829  0.0061 -0.0147
  614MOL0     C84637   4.347   6.623   7.087 -0.3074  0.2480 -0.5022
  614MOL0     C84638   4.443   6.726   7.147  0.3084  0.7250 -0.1230
  614MOL0    Cl84639   4.617   6.692   7.140  0.4557  0.1746 -0.2242
  614MOL0     C84640   4.384   6.945   6.533  1.5124  0.8531  0.9235
  614MOL0     C84641   4.387   7.074   6.489 -1.0469  0.0648  0.6416
  614MOL0     O84642   4.659   7.182   6.259  0.3532  0.7955 -0.1595
  614MOL0     C84643   4.737   7.461   6.242 -0.4604 -0.4388  0.0777
  614MOL0     C84644   4.767   7.599   6.259 -0.6435  0.4154  0.3631
  614MOL0     N84645   4.989   8.079   5.995  0.2543  0.5357 -0.3138
  614MOL0     N84646   4.945   8.123   5.884  0.2502 -0.1056 -0.3300
  614MOL0     C84647   4.877   9.244   5.775 -0.9003  0.6371  0.4105
  614MOL0     C84648   4.806   9.281   5.655  0.1131 -0.5862 -0.1237
  614MOL0     C84649   4.527   9.288   5.309  1.1238 -0.2300  0.3004
  614MOL0     C84650   4.399   9.230   5.344  0.3364  0.2902 -0.3418
  614MOL0     C84651   4.295   9.228   5.253 -0.1395  1.8187  0.9614
  614MOL0     C84652   4.303   9.301   5.133  1.2138 -0.7817 -0.6650
  614MOL0     O84653   4.201   9.335   5.050  0.0581  0.2992  0.3433
  614MOL0     C84654   4.062   9.295   5.083 -0.0290 -0.0913  0.3522
  614MOL0     C84655   3.957   9.353   4.994  0.0233 -0.2305 -1.6820
  614MOL0     C84656   3.979   9.341   4.848 -0.0671 -0.6741 -0.3777
  614MOL0     C84657   3.860   9.370   4.760 -0.1258 -0.4522 -0.6449
  614MOL0     C84658   3.820   9.511   4.759  0.0680 -0.4679  0.1712
  614MOL0     C84659   3.798   9.627   4.747  0.7147 -0.5114  0.3085
  614MOL0     C84660   4.427   9.351   5.097 -0.3020  0.3558  0.7460
  614MOL0     C84661   4.544   9.342   5.177 -0.5778 -0.3076  0.4640
  614MOL0     C84662   4.668   9.381   5.094 -0.3051 -0.0418 -0.1801
  614MOL0     H84663   4.502   9.155   5.742  0.0340  3.1064 -3.0971
  614MOL0     H84664   4.616   9.075   5.936 -0.4814  0.5599  0.5883
  614MOL0     H84665   4.741   9.094   6.124  1.5159 -0.7346  3.3060
  614MOL0     H84666   4.891   9.150   6.194 -1.9613 -0.1730  1.5378
  614MOL0     H84667   5.015   8.954   6.133 -0.9635  0.4221  0.0164
  614MOL0     H84668   4.871   8.903   6.216  0.7225  0.3875  0.4210
  614MOL0     H84669   4.758   8.894   5.988 -0.4217  0.7928  2.6185
  614MOL0     H84670   4.911   8.917   5.901  0.1706  0.2701  0.7590
  614MOL0     H84671   5.029   8.724   6.009  0.0198  1.4522  0.1976
  614MOL0     H84672   4.871   8.675   6.080  0.4919  0.9518 -0.1778
  614MOL0     H84673   4.961   8.665   5.784 -1.2440 -0.1878 -1.6200
  614MOL0     H84674   4.784   8.672   5.826 -0.3445 -3.2215 -1.9955
  614MOL0     H84675   4.981   8.444   5.912 -2.6930 -4.8810 -0.8201
  614MOL0     H84676   4.818   8.481   5.970 -0.9824  0.9545 -0.1410
  614MOL0     H84677   4.931   8.392   5.700 -1.1789 -4.0943  0.0460
  614MOL0     H84678   4.770   8.472   5.707 -0.1379 -1.1874 -1.4182
  614MOL0     H84679   4.672   8.305   5.813 -0.6609  2.2495 -4.7179
  614MOL0     H84680   4.794   8.208   5.717  3.1208  0.5334 -0.0958
  614MOL0     H84681   4.756   8.276   6.096  1.0211  2.6198 -1.8125
  614MOL0     H84682   4.810   8.092   6.277  0.2008 -1.1436  1.7903
  614MOL0     H84683   4.984   8.155   6.296 -1.0382  2.4319 -1.0887
  614MOL0     H84684   4.950   7.881   6.178 -2.8412  2.9464 -0.2319
  614MOL0     H84685   5.083   7.947   6.266  0.3284  6.7332 -4.0362
  614MOL0     H84686   4.967   7.776   6.417 -0.7092 -1.4604 -3.2765
  614MOL0     H84687   4.966   7.936   6.475  0.3118  2.3868 -3.4913
  614MOL0     H84688   4.755   7.789   6.498 -0.6727 -0.7268 -0.9568
  614MOL0     H84689   4.726   7.955   6.442  0.4025 -0.7723  2.6393
  614MOL0     H84690   4.462   7.724   6.310  1.8890  2.7683  0.2736
  614MOL0     H84691   4.303   7.440   6.245 -0.1862 -1.2439  1.1109
  614MOL0     H84692   4.318   7.589   6.350  0.8971  1.6494  0.8272
  614MOL0     H84693   4.354   7.438   6.418 -3.3677  0.5577  0.4122
  614MOL0     H84694   4.466   7.019   6.155  0.3537 -0.9919 -0.1851
  614MOL0     H84695   4.453   6.791   6.234 -0.1979  0.6018  0.0687
  614MOL0     H84696   4.464   6.516   6.441 -1.1877  0.8650  2.1812
  614MOL0     H84697   4.529   6.657   6.344 -0.5145  2.3454  1.6004
  614MOL0     H84698   4.686   6.530   6.545 -1.9955 -1.0193  2.1931
  614MOL0     H84699   4.691   6.697   6.499 -0.1534  0.2478 -2.9280
  614MOL0     H84700   4.533   6.737   6.704 -0.3734  0.2167 -0.6033
  614MOL0     H84701   4.675   6.646   6.749  1.5009 -2.5227 -2.1909
  614MOL0     H84702   4.554   6.427   6.721 -4.6069 -2.6251 -0.2062
  614MOL0     H84703   4.406   6.509   6.687 -2.8942  0.5963  3.0386
  614MOL0     H84704   4.439   6.420   6.919 -2.2925 -0.7664 -2.8236
  614MOL0     H84705   4.572   6.544   6.930  0.1659  0.9691 -0.3042
  614MOL0     H84706   4.273   6.594   6.883  0.1888  1.3979 -0.4320
  614MOL0     H84707   4.386   6.729   6.900 -2.8364  0.7051 -0.2534
  614MOL0     H84708   4.361   6.523   7.128  2.1346  0.8523  0.3339
  614MOL0     H84709   4.243   6.652   7.105  0.4000  2.0177  1.1150
  614MOL0     H84710   4.413   6.740   7.251 -3.0921  1.7205 -1.1128
  614MOL0     H84711   4.435   6.823   7.097  0.8188  2.7180  3.3026
  614MOL0     H84712   4.344   6.913   6.629  1.3067 -3.4830 -0.3687
  614MOL0     H84713   4.347   7.154   6.551 -2.3364 -2.5617  3.4737
  614MOL0     H84714   4.816   7.390   6.223 -0.2377 -0.2217  0.1847
  614MOL0     H84715   4.869   7.629   6.237 -1.3220  2.4399 -0.1698
  614MOL0     H84716   4.983   9.262   5.781 -0.3224 -1.4633 -1.8404
  614MOL0     H84717   4.851   9.333   5.572 -0.8662  0.5813  0.0479
  614MOL0     H84718   4.385   9.181   5.440 -2.3356  2.4837  0.5371
  614MOL0     H84719   4.206   9.189   5.302  1.3096  0.5152  2.7122
  614MOL0     H84720   4.078   9.187   5.089  1.3047  0.0578 -0.3084
  614MOL0     H84721   4.042   9.318   5.188  4.4152 -0.7868  1.5552
  614MOL0     H84722   3.944   9.459   5.013 -3.9148 -0.2452 -3.3815
  614MOL0     H84723   3.865   9.297   5.013  2.4650 -3.9514  0.6012
  614MOL0     H84724   4.060   9.413   4.833  0.3433 -0.9707  0.3772
  614MOL0     H84725   4.012   9.238   4.829  1.0199 -0.1629 -1.4110
  614MOL0     H84726   3.776   9.309   4.794  0.4946 -1.6520 -1.1915
  614MOL0     H84727   3.885   9.350   4.655  0.5933  1.9284 -0.9839
  614MOL0     H84728   3.785   9.732   4.730 -0.8882 -0.9491 -1.5375
  614MOL0     H84729   4.436   9.388   4.995 -0.0425 -0.4340  0.4800
  614MOL0     H84730   4.761   9.388   5.151 -0.3034  0.3194 -0.2260
  614MOL0     H84731   4.682   9.300   5.022  1.1947 -1.6247  1.7950
  614MOL0     H84732   4.645   9.476   5.045 -3.2792 -2.0368 -3.1168
  615MOL0     O84733   2.767   5.108   3.288  0.0791  0.2819  0.0913
  615MOL0     C84734   2.880   5.138   3.329 -0.7005 -0.0954  0.2954
  615MOL0     O84735   2.950   5.249   3.274  0.4070 -0.3290  0.4129
  615MOL0     C84736   2.891   5.324   3.179  0.0672  0.3931  0.7817
  615MOL0     C84737   2.966   5.342   3.060  0.6278 -0.5211  0.7604
  615MOL0     C84738   2.932   5.450   2.973  0.0009  0.1381  0.1970
  615MOL0     C84739   2.810   5.515   2.997  0.1141  0.8683 -0.1942
  615MOL0     O84740   2.784   5.609   2.899  0.2814 -0.0778 -0.0816
  615MOL0     C84741   2.723   5.725   2.939 -0.1923 -0.1932  0.0084
  615MOL0     C84742   2.786   5.831   2.854  0.3479  0.1879 -0.5409
  615MOL0     C84743   2.695   5.958   2.867 -0.6677 -0.2767 -0.3621
  615MOL0     C84744   2.764   6.081   2.806 -0.1743  0.2116 -0.0708
  615MOL0     C84745   2.779   6.085   2.662 -0.1838  1.0629  0.9164
  615MOL0     C84746   2.791   6.228   2.610 -0.4959 -0.1234  0.1939
  615MOL0     C84747   2.836   6.228   2.464 -0.2306  0.7361  0.2064
  615MOL0     C84748   2.852   6.363   2.402  0.2113 -0.0529 -0.0487
  615MOL0     N84749   2.933   6.467   2.466  0.5939 -0.1578  1.2492
  615MOL0     C84750   3.069   6.481   2.456  0.4679 -0.3565 -0.0736
  615MOL0     C84751   3.094   6.609   2.501  0.9143  0.1640 -0.4575
  615MOL0     C84752   3.230   6.670   2.525 -0.4471  0.0208 -1.1773
  615MOL0     C84753   3.326   6.638   2.413  0.1270  0.3961  1.2618
  615MOL0     C84754   3.476   6.656   2.458  0.1764  0.3019 -0.0945
  615MOL0     C84755   3.569   6.620   2.338  0.0528  0.9692 -0.9751
  615MOL0     O84756   3.697   6.658   2.386 -0.1326 -0.4302 -0.0582
  615MOL0     C84757   3.806   6.620   2.299  0.4500 -0.1199  0.7234
  615MOL0     C84758   3.797   6.532   2.189  0.0621  0.0332  0.5664
  615MOL0     C84759   3.911   6.496   2.115  0.5946  0.7181 -0.1617
  615MOL0     C84760   3.889   6.401   1.999  0.0370 -0.3111  0.1306
  615MOL0     C84761   4.037   6.541   2.165 -0.7836  0.1494  0.6199
  615MOL0     C84762   4.163   6.466   2.127 -0.5304 -0.7154  0.6777
  615MOL0     O84763   4.158   6.360   2.044  0.2209  0.4342  0.2755
  615MOL0     C84764   4.273   6.294   2.026 -0.6305  0.2397  0.9107
  615MOL0     C84765   4.290   6.179   2.103  0.0533 -0.9524  0.0583
  615MOL0     C84766   4.402   6.100   2.087 -0.0658 -0.5827 -0.3110
  615MOL0     C84767   4.509   6.137   2.002 -0.0363 -0.3869 -0.0442
  615MOL0     O84768   4.616   6.056   2.002 -0.4871  0.2235 -0.5862
  615MOL0     C84769   4.676   6.046   2.136 -0.1141 -0.1114  0.9471
  615MOL0     C84770   4.738   6.169   2.193 -0.2427  0.5963  0.2945
  615MOL0     C84771   4.821   6.138   2.322  0.6778  0.0727 -0.3423
  615MOL0     C84772   4.896   6.264   2.363 -0.3391  0.1049  0.8560
  615MOL0     C84773   4.989   6.233   2.472  0.7907  0.7710  0.2107
  615MOL0     C84774   5.082   6.341   2.513 -0.3105 -0.1491 -0.5735
  615MOL0     C84775   5.021   6.486   2.549  1.3199  0.7450  0.9916
  615MOL0     C84776   4.907   6.484   2.647 -0.3113 -0.0543  0.1769
  615MOL0    Cl84777   4.964   6.460   2.818  0.4621 -0.5162 -0.0355
  615MOL0     C84778   4.487   6.237   1.913 -0.3719 -0.7052 -0.0741
  615MOL0     C84779   4.368   6.317   1.930 -0.8034  0.0391 -0.1302
  615MOL0     O84780   4.262   6.508   2.187  0.5840  0.1177  0.2048
  615MOL0     C84781   4.039   6.647   2.259 -0.8883  0.1520 -0.0681
  615MOL0     C84782   3.927   6.674   2.332 -0.0857  0.7697 -0.0032
  615MOL0     N84783   2.969   6.666   2.531  0.6536  0.3883 -0.3023
  615MOL0     N84784   2.877   6.583   2.501  0.0723 -0.2068 -0.0104
  615MOL0     C84785   2.723   5.471   3.091  0.3220  0.4006  0.2050
  615MOL0     C84786   2.768   5.381   3.185  1.0939 -0.1913 -0.8248
  615MOL0     C84787   2.957   5.057   3.428 -0.8956  0.2451  0.3655
  615MOL0     C84788   3.096   5.098   3.453  0.0773  0.4927 -0.4503
  615MOL0     C84789   3.175   5.027   3.549 -0.3601 -0.9741 -0.3484
  615MOL0     C84790   3.127   4.915   3.619 -0.0965 -0.4005 -0.1473
  615MOL0     O84791   3.203   4.847   3.703 -0.5276 -0.0201 -0.2893
  615MOL0     C84792   3.244   4.720   3.642 -0.1846 -0.4743  0.1880
  615MOL0     C84793   3.250   4.608   3.738  0.3235 -0.0419 -0.1417
  615MOL0     C84794   3.333   4.499   3.664 -0.7857 -0.8316  0.2814
  615MOL0     C84795   3.342   4.367   3.741  0.0980  0.4271  0.0708
  615MOL0     C84796   3.406   4.377   3.873  0.5756 -0.2655  0.1181
  615MOL0     C84797   3.452   4.396   3.982 -0.3260  0.2654  0.2493
  615MOL0     C84798   2.989   4.888   3.597 -0.2825 -0.8718 -0.6745
  615MOL0     C84799   2.909   4.951   3.507  0.1719  0.4873 -0.4859
  615MOL0     C84800   2.767   4.906   3.504  0.1203  0.0176 -0.1768
  615MOL0     H84801   3.042   5.267   3.039  1.1753  0.4203 -0.7749
  615MOL0     H84802   2.993   5.468   2.886 -1.8543  1.4524 -0.9069
  615MOL0     H84803   2.753   5.743   3.043  0.7540  0.0513 -0.2975
  615MOL0     H84804   2.615   5.721   2.929 -0.1593 -0.8522 -0.1034
  615MOL0     H84805   2.888   5.849   2.889  0.8451 -1.6997 -0.9191
  615MOL0     H84806   2.781   5.791   2.753  3.1818 -1.8499  0.0020
  615MOL0     H84807   2.591   5.940   2.837 -1.3165 -2.0869  2.5478
  615MOL0     H84808   2.692   5.991   2.971 -2.8485  1.3879 -0.8595
  615MOL0     H84809   2.699   6.168   2.819  0.1434  1.0120 -3.1744
  615MOL0     H84810   2.863   6.103   2.847 -0.4706 -0.3246  0.9625
  615MOL0     H84811   2.696   6.030   2.618  0.6599  0.1236  0.4514
  615MOL0     H84812   2.863   6.018   2.641 -0.7161  1.0934 -1.4906
  615MOL0     H84813   2.697   6.281   2.623  0.2064  1.4499 -0.7904
  615MOL0     H84814   2.871   6.278   2.666 -0.1200  1.1488 -1.4123
  615MOL0     H84815   2.772   6.173   2.393  1.4460 -0.6234 -0.3191
  615MOL0     H84816   2.932   6.176   2.465 -0.2292  0.6519  3.2380
  615MOL0     H84817   2.896   6.355   2.302 -0.4522 -1.8124 -0.2196
  615MOL0     H84818   2.750   6.401   2.389  0.5169  0.6312 -0.5423
  615MOL0     H84819   3.139   6.406   2.420 -0.4304 -1.7191  0.9064
  615MOL0     H84820   3.261   6.624   2.620  1.8931 -0.0951 -1.9361
  615MOL0     H84821   3.213   6.775   2.549 -0.6637  0.0561 -1.4885
  615MOL0     H84822   3.311   6.538   2.370  2.4260  1.4361 -2.3600
  615MOL0     H84823   3.303   6.700   2.326  0.4807 -0.6017  0.4300
  615MOL0     H84824   3.492   6.762   2.478 -1.3823  0.7232 -0.8896
  615MOL0     H84825   3.496   6.594   2.546 -0.1416 -1.5228 -1.2582
  615MOL0     H84826   3.566   6.513   2.315 -0.7675  0.2520  2.0013
  615MOL0     H84827   3.541   6.680   2.251  3.1759  3.1182 -0.6396
  615MOL0     H84828   3.702   6.488   2.159 -0.6451  2.4108 -0.8738
  615MOL0     H84829   3.783   6.394   1.971  0.9061 -3.3306 -3.1248
  615MOL0     H84830   3.926   6.300   2.016 -0.6865 -0.5394  0.4119
  615MOL0     H84831   3.938   6.434   1.907 -3.2821  2.5225 -0.8782
  615MOL0     H84832   4.215   6.169   2.181 -0.5975  0.8554 -0.2857
  615MOL0     H84833   4.422   6.011   2.146  0.7791  1.3320  2.4747
  615MOL0     H84834   4.602   6.003   2.205 -1.8356  0.4314 -0.5023
  615MOL0     H84835   4.754   5.969   2.132 -1.6531 -1.8335  2.1457
  615MOL0     H84836   4.809   6.217   2.125  2.4144 -3.6257 -0.2655
  615MOL0     H84837   4.663   6.244   2.221 -1.7163 -1.6622  2.9159
  615MOL0     H84838   4.891   6.054   2.311  0.9468  0.1943  0.3874
  615MOL0     H84839   4.748   6.122   2.402 -1.0240  1.1289 -1.6091
  615MOL0     H84840   4.834   6.353   2.378 -0.4036  0.4997 -1.3452
  615MOL0     H84841   4.960   6.294   2.279 -0.6994  1.0996  0.9235
  615MOL0     H84842   4.935   6.203   2.563 -0.8559 -2.0817 -1.5490
  615MOL0     H84843   5.044   6.144   2.439 -1.6028  0.5973 -3.9206
  615MOL0     H84844   5.170   6.351   2.449  0.0967  0.0382  0.0065
  615MOL0     H84845   5.128   6.314   2.608 -3.7415  1.0521  1.6379
  615MOL0     H84846   4.990   6.532   2.455 -2.4710 -0.9126  1.2547
  615MOL0     H84847   5.109   6.541   2.586  1.8283  0.1900  0.6299
  615MOL0     H84848   4.822   6.419   2.625 -1.0570  0.8482  0.2723
  615MOL0     H84849   4.870   6.587   2.638  3.2215  1.3858  0.5049
  615MOL0     H84850   4.561   6.259   1.837  0.7539 -0.8271  0.9510
  615MOL0     H84851   4.343   6.406   1.873  1.1758  1.3636  0.9219
  615MOL0     H84852   4.131   6.694   2.292 -2.4558  2.0272  1.8734
  615MOL0     H84853   3.936   6.742   2.416  1.2441 -0.5435  0.9646
  615MOL0     H84854   2.629   5.525   3.092  0.2948  0.4653  3.0753
  615MOL0     H84855   2.711   5.342   3.269  3.6011 -2.7091 -0.1563
  615MOL0     H84856   3.145   5.177   3.396  0.5355  0.0392 -0.6880
  615MOL0     H84857   3.282   5.046   3.551 -0.6611  1.0103 -0.8154
  615MOL0     H84858   3.168   4.701   3.565 -1.4481  3.9207  0.1049
  615MOL0     H84859   3.341   4.733   3.592  0.2881  1.5379  1.5500
  615MOL0     H84860   3.151   4.576   3.771  0.5481 -1.5329 -0.8274
  615MOL0     H84861   3.297   4.663   3.820 -1.2128  0.5622  0.3638
  615MOL0     H84862   3.300   4.469   3.565  2.0534 -1.1060 -0.6824
  615MOL0     H84863   3.431   4.545   3.646 -1.2035  0.2741  0.6971
  615MOL0     H84864   3.389   4.294   3.674  0.7765  1.1581 -0.2601
  615MOL0     H84865   3.244   4.326   3.766  0.5307 -1.9213 -1.7068
  615MOL0     H84866   3.489   4.378   4.081  2.0488  0.0418 -0.6014
  615MOL0     H84867   2.955   4.810   3.664  4.1254 -0.8895  1.9326
  615MOL0     H84868   2.763   4.804   3.543  1.4613  0.7977  2.2298
  615MOL0     H84869   2.709   4.980   3.560 -1.3778 -1.0201 -0.3115
  615MOL0     H84870   2.714   4.912   3.408 -1.9571  0.1312  0.9215
  616MOL0     O84871   7.239   7.947   5.989  0.6473 -0.4908 -0.1546
  616MOL0     C84872   7.317   7.864   6.033 -0.3442 -0.1350 -1.3257
  616MOL0     O84873   7.446   7.860   6.006  0.6787 -0.7809  1.1832
  616MOL0     C84874   7.512   7.961   5.932  0.3424  0.2712 -0.1204
  616MOL0     C84875   7.480   7.944   5.800  0.4037 -0.1681  0.3634
  616MOL0     C84876   7.561   8.007   5.703  0.6109 -0.6765 -0.1169
  616MOL0     C84877   7.680   8.072   5.739 -0.6050  0.8122  0.3615
  616MOL0     O84878   7.763   8.143   5.646  0.8665  0.0871  0.2673
  616MOL0     C84879   7.745   8.113   5.509  0.3697 -0.0557 -0.7373
  616MOL0     C84880   7.842   8.181   5.416  0.3564  0.4888 -0.0153
  616MOL0     C84881   7.987   8.152   5.441  0.5281  0.3187 -0.2105
  616MOL0     C84882   8.077   8.226   5.346 -0.4709 -0.7001  0.7752
  616MOL0     C84883   8.221   8.253   5.381 -0.3437 -0.3524  0.0659
  616MOL0     C84884   8.300   8.318   5.267  0.9556 -0.0555 -0.3279
  616MOL0     C84885   8.273   8.466   5.240 -0.6396 -0.2508  0.0331
  616MOL0     C84886   8.356   8.515   5.124  0.7681  0.2433 -1.1851
  616MOL0     N84887   8.458   8.603   5.164 -0.4351  0.0605 -0.4115
  616MOL0     C84888   8.574   8.567   5.223  0.0169 -0.9202 -0.4112
  616MOL0     C84889   8.632   8.689   5.246  0.1101 -0.5352  0.1604
  616MOL0     C84890   8.782   8.691   5.289  0.7193 -0.8696 -0.9991
  616MOL0     C84891   8.823   8.809   5.372 -0.2446  1.4230 -0.0560
  616MOL0     C84892   8.798   8.781   5.527  0.5731 -0.4371 -0.2135
  616MOL0     C84893   8.646   8.751   5.543 -0.5365  0.1165 -0.1753
  616MOL0     O84894   8.590   8.778   5.669  0.2663 -0.1879 -0.1099
  616MOL0     C84895   8.463   8.718   5.700 -1.1064  0.6383  0.4312
  616MOL0     C84896   8.447   8.684   5.835 -0.3671 -0.0022 -0.4159
  616MOL0     C84897   8.323   8.625   5.877 -1.2828 -1.2379  0.5750
  616MOL0     C84898   8.300   8.600   6.026  0.5813  0.4624  0.1404
  616MOL0     C84899   8.224   8.594   5.782  0.2518 -0.3056 -0.0661
  616MOL0     C84900   8.101   8.537   5.837  0.7144 -0.3536 -0.2460
  616MOL0     O84901   7.986   8.624   5.835 -0.7972 -0.5228  0.1537
  616MOL0     C84902   7.864   8.583   5.883  0.1535  0.2014 -0.4663
  616MOL0     C84903   7.779   8.683   5.945 -0.5556 -0.1609 -0.7263
  616MOL0     C84904   7.642   8.661   5.972  0.6903  0.0181 -0.6386
  616MOL0     C84905   7.594   8.530   5.967  1.2587  0.0117 -0.6131
  616MOL0     O84906   7.463   8.504   6.016  0.0216 -0.6818 -0.0908
  616MOL0     C84907   7.419   8.375   6.037  0.0987  0.5581 -0.2952
  616MOL0     C84908   7.310   8.342   5.931  0.1736 -0.4419 -0.9515
  616MOL0     C84909   7.368   8.352   5.787 -0.0735 -1.1159 -1.1928
  616MOL0     C84910   7.243   8.336   5.695 -0.2273  0.3833  0.1886
  616MOL0     C84911   7.287   8.325   5.550 -0.7693  0.3870  0.5103
  616MOL0     C84912   7.343   8.462   5.506  0.6874 -0.2596  0.3968
  616MOL0     C84913   7.358   8.458   5.353 -0.7771 -0.2477  1.0474
  616MOL0     C84914   7.480   8.374   5.306 -0.4454  0.4359 -0.3591
  616MOL0    Cl84915   7.619   8.489   5.343 -0.0450  0.2923  0.0112
  616MOL0     C84916   7.675   8.432   5.910 -1.1138  0.3866  0.3862
  616MOL0     C84917   7.807   8.464   5.860  0.7773 -0.3851 -0.1648
  616MOL0     O84918   8.106   8.423   5.876  0.3344  0.4262  0.5655
  616MOL0     C84919   8.239   8.642   5.654  0.2105 -0.2716  0.7064
  616MOL0     C84920   8.354   8.711   5.618 -0.1231 -0.1828 -0.6501
  616MOL0     N84921   8.547   8.791   5.211  0.2073 -0.5502 -0.3006
  616MOL0     N84922   8.447   8.738   5.158 -0.1641 -0.2434 -0.3866
  616MOL0     C84923   7.716   8.076   5.877 -0.1154 -0.2190  1.0065
  616MOL0     C84924   7.630   8.025   5.976 -0.5239  0.6236  0.3490
  616MOL0     C84925   7.269   7.752   6.124 -0.0686 -1.0021  0.0405
  616MOL0     C84926   7.262   7.784   6.261 -0.3613 -0.6076 -0.2872
  616MOL0     C84927   7.221   7.689   6.358  0.0891  0.1525  0.0922
  616MOL0     C84928   7.174   7.561   6.312 -0.0433 -0.6967  0.2485
  616MOL0     O84929   7.117   7.484   6.405  0.3414  0.5864  0.4896
  616MOL0     C84930   7.122   7.339   6.390  0.3291  0.4639 -0.8792
  616MOL0     C84931   7.257   7.276   6.432  0.5302  0.5045  0.3749
  616MOL0     C84932   7.294   7.291   6.580 -0.1355 -0.0636 -0.2938
  616MOL0     C84933   7.212   7.196   6.668 -0.4302 -0.5729  0.1518
  616MOL0     C84934   7.268   7.207   6.807 -0.6026  0.0456  1.4434
  616MOL0     C84935   7.316   7.229   6.913  0.2903  0.1064  1.1472
  616MOL0     C84936   7.188   7.538   6.177  0.4443  0.3965 -0.2832
  616MOL0     C84937   7.237   7.624   6.078  0.1443 -1.0078 -0.4988
  616MOL0     C84938   7.247   7.591   5.938 -1.2297 -0.1142  0.9887
  616MOL0     H84939   7.392   7.883   5.786  1.5085 -1.2767 -2.4113
  616MOL0     H84940   7.521   8.000   5.603  1.7291 -0.9091 -0.5648
  616MOL0     H84941   7.644   8.149   5.487 -0.3708 -1.3104  0.3940
  616MOL0     H84942   7.738   8.006   5.488  1.2263 -0.1070 -0.8041
  616MOL0     H84943   7.811   8.155   5.314 -1.3017  0.5873  0.4411
  616MOL0     H84944   7.837   8.290   5.429  0.3574  0.4346  0.4616
  616MOL0     H84945   8.009   8.182   5.543 -1.1747  4.6279 -0.9159
  616MOL0     H84946   8.009   8.045   5.435 -1.3505 -0.0267 -3.1126
  616MOL0     H84947   8.082   8.162   5.258  1.8935 -0.7288  0.8570
  616MOL0     H84948   8.032   8.320   5.313 -2.1102 -1.6699  0.1281
  616MOL0     H84949   8.263   8.153   5.396 -0.2870 -0.6486 -1.8813
  616MOL0     H84950   8.219   8.320   5.467  1.0688 -1.1674  0.7618
  616MOL0     H84951   8.399   8.305   5.311  0.9557 -1.9427 -0.8152
  616MOL0     H84952   8.291   8.260   5.175 -0.9986 -1.3678  0.6057
  616MOL0     H84953   8.285   8.528   5.329  1.4076  0.9252 -0.9884
  616MOL0     H84954   8.167   8.484   5.218 -0.7134  3.0018  2.4194
  616MOL0     H84955   8.418   8.436   5.081  2.9072  0.0524  1.9270
  616MOL0     H84956   8.283   8.569   5.064 -0.4206  0.9115  0.7764
  616MOL0     H84957   8.619   8.469   5.227 -3.9899 -3.1348 -3.0654
  616MOL0     H84958   8.838   8.686   5.196 -0.6862 -2.8388 -1.8173
  616MOL0     H84959   8.804   8.600   5.346  0.3012 -0.2420  0.2196
  616MOL0     H84960   8.932   8.819   5.361  0.6087 -2.2076  2.9527
  616MOL0     H84961   8.774   8.903   5.346 -2.1988  0.5358  0.2416
  616MOL0     H84962   8.868   8.705   5.564  5.3044  2.2055 -2.7187
  616MOL0     H84963   8.839   8.864   5.585 -1.5083  0.1386  0.5395
  616MOL0     H84964   8.587   8.810   5.473 -1.7048 -1.2163 -0.3550
  616MOL0     H84965   8.618   8.649   5.517  1.0397 -0.0984 -1.1486
  616MOL0     H84966   8.524   8.678   5.911 -0.1787 -3.5979 -0.7334
  616MOL0     H84967   8.196   8.613   6.057  1.8248  1.1272  4.7410
  616MOL0     H84968   8.365   8.677   6.069  0.4442  0.3368  0.5701
  616MOL0     H84969   8.331   8.500   6.057  2.3805  1.0100  0.2458
  616MOL0     H84970   7.827   8.779   5.961  0.1848 -0.5201 -0.7776
  616MOL0     H84971   7.579   8.740   6.011 -4.0019 -4.0172  1.1318
  616MOL0     H84972   7.501   8.302   6.037 -0.0048  0.4357 -0.6664
  616MOL0     H84973   7.356   8.377   6.126 -3.6673 -2.0628 -2.5863
  616MOL0     H84974   7.278   8.238   5.945  0.2711 -0.1351  2.6754
  616MOL0     H84975   7.230   8.415   5.941  2.3156  2.0536 -1.0274
  616MOL0     H84976   7.439   8.269   5.776  1.3899 -0.4293  1.8440
  616MOL0     H84977   7.421   8.447   5.774 -3.8004  1.0543 -1.7769
  616MOL0     H84978   7.169   8.416   5.707  0.6402  1.7496 -2.7458
  616MOL0     H84979   7.197   8.242   5.726  0.3734  0.8444  2.7251
  616MOL0     H84980   7.366   8.250   5.548 -0.8433  0.0592  3.9252
  616MOL0     H84981   7.203   8.311   5.481  0.7422  1.1513 -1.5850
  616MOL0     H84982   7.434   8.482   5.563  0.7030  0.7287  0.0450
  616MOL0     H84983   7.265   8.536   5.529  1.3155  0.9457 -1.1129
  616MOL0     H84984   7.372   8.555   5.305 -1.8921 -0.1961  0.7968
  616MOL0     H84985   7.269   8.414   5.306  2.2187 -2.9948 -2.7670
  616MOL0     H84986   7.466   8.367   5.198 -2.9200 -1.6113  0.0007
  616MOL0     H84987   7.482   8.273   5.348 -0.0962  0.4464 -0.3543
  616MOL0     H84988   7.644   8.332   5.880 -0.8212  1.1562 -2.7585
  616MOL0     H84989   7.875   8.393   5.814  0.9808 -0.8545  0.8235
  616MOL0     H84990   8.158   8.649   5.582  0.0325  0.7810  0.9955
  616MOL0     H84991   8.341   8.759   5.521  0.5163 -1.0282 -1.1668
  616MOL0     H84992   7.809   8.127   5.900  0.4381 -1.3399  1.2899
  616MOL0     H84993   7.657   8.018   6.081  0.5961  1.2069  0.1124
  616MOL0     H84994   7.311   7.877   6.290  0.5339 -1.4363  0.9896
  616MOL0     H84995   7.226   7.712   6.464 -0.3528 -2.0439  0.6446
  616MOL0     H84996   7.040   7.285   6.438  1.2361  0.3938  0.6774
  616MOL0     H84997   7.114   7.298   6.289 -0.7736 -3.2823  0.5367
  616MOL0     H84998   7.336   7.320   6.370  1.2188 -0.9815  0.1683
  616MOL0     H84999   7.256   7.176   6.388 -3.4806  0.7704 -0.4780
  616MOL0     H85000   7.401   7.270   6.594 -0.4066 -1.3536 -0.0030
  616MOL0     H85001   7.269   7.388   6.624 -0.9505 -0.7318  0.7642
  616MOL0     H85002   7.228   7.094   6.631 -1.1554  1.0591 -5.6239
  616MOL0     H85003   7.106   7.223   6.672  0.0089  1.2298  0.5089
  616MOL0     H85004   7.364   7.248   7.007  1.8006  0.7569  0.2703
  616MOL0     H85005   7.147   7.442   6.147 -2.4503  0.3043  3.3373
  616MOL0     H85006   7.204   7.491   5.930  1.0299 -1.0192 -0.7836
  616MOL0     H85007   7.186   7.654   5.873 -0.3310  0.1439  0.3749
  616MOL0     H85008   7.353   7.589   5.909 -1.1341  1.7499  1.1069
  617MOL0     O85009   6.552   7.916   2.303 -0.2635 -0.5934 -1.0308
  617MOL0     C85010   6.620   7.817   2.275  0.1986 -0.2015  0.3863
  617MOL0     O85011   6.574   7.691   2.247  0.4840 -0.2613 -0.2167
  617MOL0     C85012   6.443   7.689   2.220 -0.4546  0.6547  0.5881
  617MOL0     C85013   6.396   7.714   2.089 -0.8824 -0.8455  0.6311
  617MOL0     C85014   6.263   7.709   2.060 -0.4022  0.5732  0.0464
  617MOL0     C85015   6.173   7.680   2.168  0.1232  0.3513  0.5218
  617MOL0     O85016   6.039   7.696   2.138  0.6711 -0.1124 -0.0203
  617MOL0     C85017   5.948   7.727   2.255  0.0101  0.5392  0.7076
  617MOL0     C85018   5.821   7.805   2.212 -0.0871  0.6001 -0.0476
  617MOL0     C85019   5.839   7.960   2.200  0.2299  0.8970 -0.4035
  617MOL0     C85020   5.854   8.028   2.340  0.6345 -0.7926 -0.2302
  617MOL0     C85021   5.845   8.173   2.350  0.5691  0.5220 -0.6129
  617MOL0     C85022   5.722   8.233   2.295 -0.0133 -0.0470 -0.8724
  617MOL0     C85023   5.588   8.208   2.370 -0.4900 -0.1022  0.8819
  617MOL0     C85024   5.600   8.254   2.516 -0.0614 -0.3759  0.0816
  617MOL0     N85025   5.493   8.216   2.611  0.7104 -1.1541 -0.2242
  617MOL0     C85026   5.406   8.297   2.669 -0.7457  0.2736  0.2068
  617MOL0     C85027   5.347   8.217   2.764  0.7324 -0.5812 -0.4998
  617MOL0     C85028   5.252   8.264   2.874 -0.1657  0.3176 -0.2672
  617MOL0     C85029   5.303   8.393   2.924  0.0223  0.2927  0.7189
  617MOL0     C85030   5.217   8.439   3.045  0.3473 -0.6417 -0.3584
  617MOL0     C85031   5.260   8.573   3.086 -0.2777 -0.4463  0.1532
  617MOL0     O85032   5.237   8.675   2.984 -0.7420 -0.0058  0.2072
  617MOL0     C85033   5.274   8.808   3.003  0.4471  0.0441  0.8286
  617MOL0     C85034   5.352   8.859   3.102 -0.1334  0.1661 -0.5765
  617MOL0     C85035   5.379   8.996   3.131  0.4323  0.6893  0.2954
  617MOL0     C85036   5.467   9.044   3.248 -0.9814  0.4873 -0.9404
  617MOL0     C85037   5.327   9.083   3.035 -0.1414 -0.4261 -0.1331
  617MOL0     C85038   5.354   9.225   3.051  0.3682 -0.2166  0.4437
  617MOL0     O85039   5.484   9.256   3.063  0.1394 -0.0469 -0.3125
  617MOL0     C85040   5.519   9.385   3.036  0.1808  0.0207  0.2340
  617MOL0     C85041   5.492   9.453   2.917 -0.9431  0.1231 -0.2117
  617MOL0     C85042   5.557   9.574   2.883 -0.2446 -0.4153 -0.7609
  617MOL0     C85043   5.634   9.646   2.974 -1.3631  0.1306  0.0519
  617MOL0     O85044   5.686   9.772   2.939  0.3386  0.3953  0.0836
  617MOL0     C85045   5.786   9.836   3.025  0.1693 -0.9123 -0.7855
  617MOL0     C85046   5.870   9.944   2.945 -0.0050 -0.3045  1.4342
  617MOL0     C85047   5.923  10.057   3.022  0.0268  0.5123 -0.7320
  617MOL0     C85048   6.004  10.156   2.925 -0.6716 -0.6655 -0.2523
  617MOL0     C85049   6.099  10.256   2.995  0.3750 -0.0328  1.6680
  617MOL0     C85050   6.204  10.186   3.076 -0.2150  0.2385  0.6852
  617MOL0     C85051   6.314  10.260   3.133  0.6919 -0.5322  0.5671
  617MOL0     C85052   6.409  10.319   3.023  0.2565 -1.2737 -0.7331
  617MOL0    Cl85053   6.473  10.208   2.896 -0.0809 -0.5933 -0.4757
  617MOL0     C85054   5.644   9.582   3.108 -0.3742 -0.4744 -0.0038
  617MOL0     C85055   5.596   9.458   3.131 -0.5323 -0.2756 -0.2192
  617MOL0     O85056   5.258   9.300   3.046  0.1116 -0.4447 -0.0467
  617MOL0     C85057   5.243   9.035   2.935  0.4061  1.8368 -0.4385
  617MOL0     C85058   5.210   8.900   2.924  0.8554 -0.3451 -0.8996
  617MOL0     N85059   5.401   8.089   2.761 -0.4435  0.3859  0.9152
  617MOL0     N85060   5.486   8.086   2.665 -0.0513  0.2298 -0.1387
  617MOL0     C85061   6.220   7.641   2.293  0.1659 -0.3217  0.1808
  617MOL0     C85062   6.349   7.657   2.321 -0.6721 -0.1627 -0.2617
  617MOL0     C85063   6.773   7.835   2.255 -1.3618 -0.3335 -0.3379
  617MOL0     C85064   6.849   7.737   2.184 -0.9657 -0.1885  0.7071
  617MOL0     C85065   6.987   7.757   2.153 -0.4448 -0.7352  0.7322
  617MOL0     C85066   7.062   7.865   2.208 -0.4851  0.6331  0.3002
  617MOL0     O85067   7.196   7.879   2.180 -0.6245  0.7748 -0.2517
  617MOL0     C85068   7.269   7.792   2.088  0.4435  0.3601 -0.5252
  617MOL0     C85069   7.405   7.840   2.062 -0.3287  0.2950  0.5163
  617MOL0     C85070   7.506   7.834   2.179 -0.1894  0.8460  0.4502
  617MOL0     C85071   7.568   7.692   2.192 -0.7461 -0.0543  0.0517
  617MOL0     C85072   7.659   7.687   2.310  0.3619 -0.2420  0.5138
  617MOL0     C85073   7.737   7.691   2.396 -0.6596 -0.5217 -0.7006
  617MOL0     C85074   6.994   7.954   2.287  0.5166 -0.1532 -1.1178
  617MOL0     C85075   6.851   7.943   2.310  0.7988  1.0021 -0.4664
  617MOL0     C85076   6.789   8.058   2.378 -0.2135 -0.1991 -0.0163
  617MOL0     H85077   6.471   7.742   2.015  0.6899 -1.1089  2.0810
  617MOL0     H85078   6.221   7.746   1.967 -2.7662  1.0449  1.2290
  617MOL0     H85079   5.995   7.778   2.338 -0.4560  1.7293  0.2588
  617MOL0     H85080   5.919   7.628   2.292 -0.8067  1.4672  2.7062
  617MOL0     H85081   5.797   7.769   2.112  0.3537  0.7056 -0.1931
  617MOL0     H85082   5.746   7.776   2.286  0.0762 -2.1571 -0.8404
  617MOL0     H85083   5.926   7.986   2.139 -1.4045  2.5797 -2.1763
  617MOL0     H85084   5.748   7.995   2.150 -0.7151 -0.4577  0.2895
  617MOL0     H85085   5.793   7.984   2.419  1.7100  1.4823  2.0294
  617MOL0     H85086   5.959   8.015   2.367  1.7132  0.8600 -3.2004
  617MOL0     H85087   5.935   8.221   2.310  1.4680 -2.2204 -2.1153
  617MOL0     H85088   5.850   8.197   2.457 -1.7414 -4.3859  0.8554
  617MOL0     H85089   5.744   8.340   2.297 -1.7156  0.3987  2.9824
  617MOL0     H85090   5.725   8.197   2.191 -0.5371 -1.1506 -0.5275
  617MOL0     H85091   5.562   8.101   2.365 -1.7491  0.2221  0.0539
  617MOL0     H85092   5.504   8.255   2.319 -1.3537 -0.9039  1.5359
  617MOL0     H85093   5.696   8.228   2.561  1.8772  2.7769 -1.8814
  617MOL0     H85094   5.599   8.363   2.505 -2.0670 -0.3378  0.2527
  617MOL0     H85095   5.382   8.400   2.642  1.9989  0.8213 -0.4013
  617MOL0     H85096   5.251   8.188   2.952 -1.3962  0.0751 -0.5006
  617MOL0     H85097   5.151   8.280   2.836 -1.3788 -0.5179  2.3816
  617MOL0     H85098   5.408   8.384   2.953  0.1598 -0.9001 -0.1304
  617MOL0     H85099   5.302   8.477   2.854  1.9724 -1.4097 -1.4934
  617MOL0     H85100   5.113   8.421   3.019  0.4929 -2.0267 -0.1018
  617MOL0     H85101   5.232   8.379   3.135  1.7902 -2.0602 -1.4758
  617MOL0     H85102   5.199   8.599   3.172  1.1567 -0.2257  1.1314
  617MOL0     H85103   5.363   8.574   3.123 -0.0414 -0.2127 -0.4983
  617MOL0     H85104   5.412   8.792   3.164 -0.2623 -2.3453 -2.9199
  617MOL0     H85105   5.566   9.058   3.204 -0.9868 -1.6155 -1.7751
  617MOL0     H85106   5.478   8.963   3.320 -1.6424 -0.0066 -1.3751
  617MOL0     H85107   5.434   9.133   3.302  1.7174  0.6447  0.6008
  617MOL0     H85108   5.429   9.395   2.851 -0.0442 -0.6794 -0.3959
  617MOL0     H85109   5.546   9.625   2.788 -2.0950  1.3802  0.3490
  617MOL0     H85110   5.736   9.890   3.106 -1.3381  0.3097 -2.4206
  617MOL0     H85111   5.860   9.766   3.063  1.6190  1.4361  1.0373
  617MOL0     H85112   5.953   9.892   2.896 -1.3940  0.7731 -2.3631
  617MOL0     H85113   5.817   9.973   2.854  1.7420  1.1451  0.8057
  617MOL0     H85114   5.964  10.011   3.112 -3.4607 -1.8432 -0.1044
  617MOL0     H85115   5.830  10.106   3.053 -2.5541 -2.3342 -3.1917
  617MOL0     H85116   5.920  10.204   2.875 -1.1401  0.4890  1.5455
  617MOL0     H85117   6.068  10.096   2.860 -0.1135 -1.3367  0.8878
  617MOL0     H85118   6.148  10.318   2.919  0.1329  0.9013  2.2605
  617MOL0     H85119   6.046  10.319   3.067 -0.5899 -1.0615  1.8745
  617MOL0     H85120   6.246  10.105   3.015 -0.1887  1.2576 -0.6979
  617MOL0     H85121   6.149  10.132   3.154  0.4310 -0.4802  0.6496
  617MOL0     H85122   6.368  10.189   3.197  2.3730 -1.0514 -1.2980
  617MOL0     H85123   6.275  10.347   3.186 -3.3442 -2.9970  2.0627
  617MOL0     H85124   6.492  10.364   3.078 -0.1552  1.2346 -1.9702
  617MOL0     H85125   6.356  10.403   2.976  0.1461 -0.4856  0.7609
  617MOL0     H85126   5.697   9.646   3.178  1.0801 -1.3783 -0.2367
  617MOL0     H85127   5.619   9.402   3.221 -1.7771 -1.9755 -0.9049
  617MOL0     H85128   5.206   9.098   2.854 -3.2574 -2.1409 -2.2523
  617MOL0     H85129   5.141   8.857   2.853  1.5569 -5.7690  1.2473
  617MOL0     H85130   6.142   7.603   2.358 -0.6823 -0.7993 -1.0779
  617MOL0     H85131   6.386   7.631   2.419 -2.9410 -0.2352  0.6329
  617MOL0     H85132   6.806   7.644   2.149  3.2573 -1.9680 -0.3862
  617MOL0     H85133   7.032   7.683   2.087 -0.5688  1.0596 -1.5084
  617MOL0     H85134   7.279   7.688   2.121 -2.8141 -0.9144 -3.0651
  617MOL0     H85135   7.219   7.788   1.991  3.7513  1.1969 -2.4505
  617MOL0     H85136   7.410   7.946   2.039  2.9148  0.0282 -0.5227
  617MOL0     H85137   7.453   7.805   1.970 -0.4374  0.2832  0.4627
  617MOL0     H85138   7.594   7.895   2.160  2.0959 -2.6706 -1.3168
  617MOL0     H85139   7.460   7.874   2.270  1.7101  2.7860  0.6338
  617MOL0     H85140   7.617   7.648   2.105 -1.3268 -2.6849  0.9252
  617MOL0     H85141   7.482   7.629   2.218 -1.3830  1.2069  1.0926
  617MOL0     H85142   7.813   7.716   2.467 -0.3127 -0.4440 -1.0943
  617MOL0     H85143   7.038   8.045   2.327 -2.9638  2.4695 -2.7518
  617MOL0     H85144   6.713   8.107   2.316  1.5835  0.5286 -1.7784
  617MOL0     H85145   6.741   8.038   2.474 -0.2528  0.7625  0.1810
  617MOL0     H85146   6.866   8.136   2.387  0.3997 -0.8526  0.4033
  618MOL0     O85147   1.713   4.507   8.193  0.1292 -0.4832  0.6481
  618MOL0     C85148   1.715   4.468   8.314 -0.2951 -0.1364 -0.4370
  618MOL0     O85149   1.814   4.393   8.368 -0.0645  0.0059  0.3477
  618MOL0     C85150   1.896   4.316   8.292  0.2535  0.0948 -0.1982
  618MOL0     C85151   1.906   4.175   8.320  0.3112 -1.0241  0.7838
  618MOL0     C85152   1.965   4.092   8.232 -0.2670  0.2091  0.3380
  618MOL0     C85153   2.046   4.133   8.122  0.6320  0.6581 -0.2876
  618MOL0     O85154   2.113   4.028   8.061  0.3005  0.7170  0.2778
  618MOL0     C85155   2.245   4.060   8.019 -0.5189  0.4090  0.4560
  618MOL0     C85156   2.350   4.083   8.136  0.7037  1.0799 -0.4595
  618MOL0     C85157   2.411   3.950   8.178 -0.0984  0.5156  0.2461
  618MOL0     C85158   2.533   3.974   8.275  0.5869  0.4781  0.2804
  618MOL0     C85159   2.605   3.849   8.322  0.6093  0.0467  0.2883
  618MOL0     C85160   2.694   3.788   8.215  0.5299  0.0782 -0.8759
  618MOL0     C85161   2.773   3.662   8.246  0.3543  0.1832 -0.0863
  618MOL0     C85162   2.687   3.538   8.249  0.4526  0.0451  0.6243
  618MOL0     N85163   2.624   3.519   8.115  0.2454  0.5864  0.3406
  618MOL0     C85164   2.497   3.547   8.085  0.2532 -0.6143 -0.3863
  618MOL0     C85165   2.466   3.495   7.961 -0.0640  0.6470 -0.4197
  618MOL0     C85166   2.336   3.509   7.886  0.0720  0.3717 -0.1555
  618MOL0     C85167   2.217   3.437   7.964 -0.8112 -0.3013 -0.4971
  618MOL0     C85168   2.081   3.466   7.903  0.8118 -0.6989  0.4185
  618MOL0     C85169   1.977   3.359   7.943 -0.0898  0.4752 -0.9045
  618MOL0     O85170   1.959   3.350   8.089 -0.0339 -0.2005  0.7306
  618MOL0     C85171   1.911   3.457   8.165 -0.5539  0.2725 -0.0380
  618MOL0     C85172   1.828   3.560   8.114  0.6214  0.5336  0.2137
  618MOL0     C85173   1.772   3.662   8.187  0.4966 -0.1728  0.1714
  618MOL0     C85174   1.698   3.769   8.110  0.3805 -0.0782  0.1996
  618MOL0     C85175   1.794   3.672   8.327 -0.5056 -0.0559  0.9359
  618MOL0     C85176   1.748   3.783   8.415  0.2385  0.1999 -0.6419
  618MOL0     O85177   1.831   3.802   8.526 -0.2700  0.7999 -0.3167
  618MOL0     C85178   1.811   3.915   8.605 -0.6443  1.1067  0.8442
  618MOL0     C85179   1.688   3.964   8.647  0.9964  0.3803 -0.2907
  618MOL0     C85180   1.672   4.076   8.725  0.0104  0.1870 -1.0078
  618MOL0     C85181   1.787   4.133   8.779 -0.6171  0.0726 -0.0508
  618MOL0     O85182   1.767   4.245   8.856  0.3979 -0.6467 -0.2123
  618MOL0     C85183   1.880   4.292   8.924  0.2692 -0.1947 -0.0401
  618MOL0     C85184   1.830   4.421   8.966  0.0109  0.1889 -0.2340
  618MOL0     C85185   1.921   4.499   9.066 -1.4786 -0.0400  0.2420
  618MOL0     C85186   1.871   4.642   9.088 -0.5214  0.6220 -0.4483
  618MOL0     C85187   1.958   4.752   9.024 -0.5714 -0.1780 -0.4388
  618MOL0     C85188   1.951   4.748   8.870 -0.3376 -0.1346  0.4538
  618MOL0     C85189   2.019   4.859   8.791  0.5887  1.4395 -0.4055
  618MOL0     C85190   2.167   4.863   8.795  0.6463 -0.1007 -0.0979
  618MOL0    Cl85191   2.233   4.918   8.956 -0.2566  0.4205 -0.4821
  618MOL0     C85192   1.916   4.088   8.738  0.2227  0.6517  0.0998
  618MOL0     C85193   1.924   3.976   8.649 -0.0526 -0.7696  1.1239
  618MOL0     O85194   1.644   3.840   8.396  0.4746  0.6889  0.4369
  618MOL0     C85195   1.873   3.563   8.382 -0.2081  0.8503  0.2633
  618MOL0     C85196   1.922   3.457   8.311 -0.0131 -0.9570 -0.3536
  618MOL0     N85197   2.576   3.403   7.936 -0.2176 -0.1522 -0.0190
  618MOL0     N85198   2.665   3.422   8.029  0.7865  0.8863 -0.4417
  618MOL0     C85199   2.048   4.270   8.095  0.4618  0.3002 -0.1919
  618MOL0     C85200   1.961   4.355   8.174 -0.7561  0.2260  0.6382
  618MOL0     C85201   1.606   4.495   8.410  0.3625  0.7295  0.4132
  618MOL0     C85202   1.620   4.459   8.546  0.9106  0.3959  1.2078
  618MOL0     C85203   1.517   4.453   8.635  0.6653  0.1541  0.3086
  618MOL0     C85204   1.389   4.494   8.593  0.7069  0.5762 -1.4025
  618MOL0     O85205   1.279   4.478   8.681  0.5017  0.8123 -0.7110
  618MOL0     C85206   1.148   4.441   8.636 -0.1418 -0.5206 -0.1166
  618MOL0     C85207   1.134   4.291   8.594 -0.3145 -0.1075 -0.0791
  618MOL0     C85208   1.184   4.194   8.711  0.7323 -0.4877  0.4228
  618MOL0     C85209   1.140   4.043   8.677  0.4833  0.9650  1.4348
  618MOL0     C85210   1.205   3.943   8.766 -0.3087 -0.0560  0.0663
  618MOL0     C85211   1.238   3.878   8.860 -0.1709 -0.6386 -0.9055
  618MOL0     C85212   1.377   4.545   8.463  0.3614 -0.4932  0.1192
  618MOL0     C85213   1.474   4.542   8.363 -0.6431  0.2917  0.4181
  618MOL0     C85214   1.450   4.605   8.231  0.2789 -0.2653  0.6665
  618MOL0     H85215   1.855   4.151   8.412  0.9724 -0.7123  1.2371
  618MOL0     H85216   1.969   3.985   8.249  1.5502 -0.2077 -2.0969
  618MOL0     H85217   2.235   4.155   7.966 -1.7661 -0.0994 -0.2562
  618MOL0     H85218   2.279   3.978   7.956 -1.8611  0.6509 -0.6468
  618MOL0     H85219   2.422   4.161   8.110 -1.1334  2.1860 -2.5681
  618MOL0     H85220   2.291   4.133   8.214 -0.5930  1.8435 -1.8600
  618MOL0     H85221   2.343   3.878   8.224  1.1603 -1.0722 -0.3185
  618MOL0     H85222   2.456   3.892   8.098 -0.0582  0.3927  0.3576
  618MOL0     H85223   2.608   4.039   8.229 -2.8225  2.3105 -3.2483
  618MOL0     H85224   2.494   4.025   8.364  0.9810  3.0730 -0.9422
  618MOL0     H85225   2.538   3.773   8.364  0.0172 -2.2815 -4.2194
  618MOL0     H85226   2.672   3.874   8.404 -0.2120 -1.9164  1.6318
  618MOL0     H85227   2.629   3.778   8.127  1.0219 -3.9095 -0.9823
  618MOL0     H85228   2.773   3.863   8.211  0.8990 -0.1014  1.4720
  618MOL0     H85229   2.836   3.679   8.334  1.2742 -0.8505 -0.5336
  618MOL0     H85230   2.837   3.637   8.162 -1.4309  1.4139 -1.8932
  618MOL0     H85231   2.759   3.459   8.272  1.5318  1.0037  0.6785
  618MOL0     H85232   2.607   3.533   8.323 -0.7077  0.5844 -0.5451
  618MOL0     H85233   2.447   3.627   8.140  1.0208 -1.4574  1.6403
  618MOL0     H85234   2.351   3.472   7.785  3.2790  2.1348 -0.4433
  618MOL0     H85235   2.305   3.614   7.876 -2.6540 -0.5407 -3.1362
  618MOL0     H85236   2.229   3.328   7.962 -1.0158 -0.3853  1.4882
  618MOL0     H85237   2.203   3.475   8.066 -1.6171 -0.8124 -0.4047
  618MOL0     H85238   2.034   3.558   7.940  1.2209 -0.0802 -0.5787
  618MOL0     H85239   2.082   3.472   7.794  1.2396  0.4617  0.4652
  618MOL0     H85240   1.880   3.377   7.896 -0.4972  1.7802  0.3480
  618MOL0     H85241   2.008   3.264   7.899 -1.5673 -1.1835  1.3716
  618MOL0     H85242   1.821   3.550   8.006 -0.3350 -2.3438  0.4536
  618MOL0     H85243   1.609   3.804   8.162  1.1866  4.0844 -0.8370
  618MOL0     H85244   1.677   3.724   8.012  0.7128  1.5814 -0.6797
  618MOL0     H85245   1.768   3.849   8.084 -2.3362  1.8942 -1.6646
  618MOL0     H85246   1.598   3.911   8.617 -0.7756  1.1387  3.2981
  618MOL0     H85247   1.574   4.116   8.746 -0.1983 -0.7920 -0.1005
  618MOL0     H85248   1.892   4.229   9.013  0.8484 -0.2281 -0.1401
  618MOL0     H85249   1.962   4.295   8.852  2.4058 -2.4891  2.0938
  618MOL0     H85250   1.814   4.482   8.877  2.9775  1.4078 -0.0412
  618MOL0     H85251   1.730   4.409   9.009  1.6567  1.7777  4.7277
  618MOL0     H85252   2.025   4.504   9.032 -0.9827 -0.6694  1.5760
  618MOL0     H85253   1.929   4.441   9.158  0.7533  0.3053  0.3221
  618MOL0     H85254   1.887   4.652   9.196 -0.1597  2.8299 -0.6622
  618MOL0     H85255   1.767   4.656   9.056 -1.6099 -0.7138  2.1910
  618MOL0     H85256   1.922   4.849   9.058  0.1453 -0.1192  0.1905
  618MOL0     H85257   2.059   4.745   9.066 -1.4889 -0.4197  1.8522
  618MOL0     H85258   1.846   4.763   8.844 -0.9050 -3.1141  0.7082
  618MOL0     H85259   1.978   4.650   8.830  2.3710  0.4687  0.6496
  618MOL0     H85260   1.967   4.952   8.817  1.1531  1.5429  0.4156
  618MOL0     H85261   1.991   4.834   8.689  1.9545 -0.6554 -0.3113
  618MOL0     H85262   2.203   4.944   8.730 -4.5983  3.3091  0.6272
  618MOL0     H85263   2.209   4.768   8.760 -2.1682 -1.5867  0.3389
  618MOL0     H85264   2.013   4.126   8.768  0.1388  1.5226 -0.6612
  618MOL0     H85265   2.021   3.940   8.616  0.9050  3.4117 -1.3727
  618MOL0     H85266   1.889   3.561   8.489  1.3413  0.0284  0.0536
  618MOL0     H85267   1.968   3.381   8.374  2.1452 -0.2769 -1.0423
  618MOL0     H85268   2.109   4.297   8.009  0.5697  0.5592 -0.0370
  618MOL0     H85269   1.976   4.461   8.156  2.1327 -0.0508  0.9497
  618MOL0     H85270   1.711   4.422   8.592  0.8790 -2.8354 -1.0341
  618MOL0     H85271   1.541   4.416   8.734  0.0149  2.4480  1.4033
  618MOL0     H85272   1.074   4.455   8.715  1.4075  1.0869  1.1215
  618MOL0     H85273   1.129   4.514   8.556  0.6438  1.3084  1.2831
  618MOL0     H85274   1.195   4.287   8.504 -1.0946 -1.0083 -0.5871
  618MOL0     H85275   1.031   4.269   8.565  0.6036 -2.7323 -1.7914
  618MOL0     H85276   1.293   4.191   8.725  0.6701 -0.8277  0.8788
  618MOL0     H85277   1.141   4.229   8.805 -0.5571  1.6186 -0.8997
  618MOL0     H85278   1.168   4.019   8.574  2.1836  2.7062  1.4318
  618MOL0     H85279   1.032   4.037   8.698  0.8919 -1.4209  3.2874
  618MOL0     H85280   1.269   3.819   8.944 -2.8044  0.7465  1.2021
  618MOL0     H85281   1.279   4.586   8.440  0.9584 -0.3403 -2.4280
  618MOL0     H85282   1.344   4.602   8.204  0.4447  2.6907 -0.8175
  618MOL0     H85283   1.494   4.705   8.220 -0.3343 -0.1642 -1.1595
  618MOL0     H85284   1.481   4.539   8.149  1.4178 -0.2889  1.1034
  619MOL0     O85285   4.822   9.652   6.869  0.5727 -0.2777  0.0030
  619MOL0     C85286   4.818   9.760   6.931 -0.8348  0.8889  0.2377
  619MOL0     O85287   4.893   9.789   7.044  0.0256 -0.3099  0.8409
  619MOL0     C85288   4.983   9.706   7.088 -0.4876  0.0338 -0.8026
  619MOL0     C85289   5.108   9.745   7.134 -0.2982 -0.1735 -0.0266
  619MOL0     C85290   5.194   9.670   7.207 -0.4974  0.0456  0.7252
  619MOL0     C85291   5.151   9.543   7.245 -0.1016  1.0095  0.7172
  619MOL0     O85292   5.208   9.470   7.340 -0.5816  0.5287 -0.3088
  619MOL0     C85293   5.340   9.503   7.397  1.2217  0.0122  0.2806
  619MOL0     C85294   5.391   9.401   7.501 -0.0742 -0.2978 -0.1095
  619MOL0     C85295   5.510   9.480   7.563 -0.2038  0.0076 -0.8314
  619MOL0     C85296   5.560   9.414   7.695 -0.4857  0.0535  0.0996
  619MOL0     C85297   5.557   9.521   7.805  0.2242 -0.9934 -0.4158
  619MOL0     C85298   5.652   9.482   7.925  0.3040  0.6527  0.7537
  619MOL0     C85299   5.803   9.482   7.887 -0.8718 -0.4632 -1.1795
  619MOL0     C85300   5.894   9.495   8.016 -0.0387  0.2072 -0.3335
  619MOL0     N85301   5.923   9.627   8.062 -0.4323 -0.1840 -0.4433
  619MOL0     C85302   5.848   9.704   8.149 -0.3012 -0.4941 -0.1421
  619MOL0     C85303   5.910   9.825   8.157 -1.2494  0.8533 -1.0538
  619MOL0     C85304   5.859   9.938   8.233  0.3525  0.7577  0.8341
  619MOL0     C85305   5.962  10.055   8.244  0.5309 -0.5979  0.4454
  619MOL0     C85306   5.883  10.186   8.286  0.4896  0.1447 -0.6016
  619MOL0     C85307   5.833  10.176   8.430  0.2643 -0.1653 -0.0329
  619MOL0     O85308   5.936  10.131   8.512 -0.7750 -0.4950 -0.0804
  619MOL0     C85309   5.992  10.211   8.607  0.2760  0.0747 -0.1565
  619MOL0     C85310   5.969  10.189   8.739 -0.3946 -0.4070  1.1744
  619MOL0     C85311   6.020  10.277   8.837  0.2070  0.9898 -0.2743
  619MOL0     C85312   5.969  10.245   8.983  0.5739 -1.0351  0.5052
  619MOL0     C85313   6.100  10.378   8.793 -0.5665 -0.5511  0.0088
  619MOL0     C85314   6.148  10.490   8.882 -0.2911  1.1917 -0.4060
  619MOL0     O85315   6.280  10.528   8.890 -0.1533 -0.1161  0.0392
  619MOL0     C85316   6.380  10.452   8.844 -0.5460 -0.1027 -0.0710
  619MOL0     C85317   6.438  10.503   8.721 -1.1361  0.3037 -0.1852
  619MOL0     C85318   6.561  10.445   8.671  0.2332 -0.9277  0.7451
  619MOL0     C85319   6.621  10.340   8.742 -0.2961 -0.1320  0.3363
  619MOL0     O85320   6.750  10.301   8.716  0.0997  0.8399 -0.6972
  619MOL0     C85321   6.771  10.252   8.587 -0.5635  0.0277 -0.0205
  619MOL0     C85322   6.756  10.099   8.591  1.2953 -0.1097 -0.0500
  619MOL0     C85323   6.731  10.040   8.456 -0.1185 -0.7765 -0.3305
  619MOL0     C85324   6.854  10.075   8.369 -0.4165  0.2347 -0.2447
  619MOL0     C85325   6.846  10.023   8.227  0.4844 -0.0753  0.3757
  619MOL0     C85326   6.721  10.068   8.143  0.7953  0.2346 -0.6289
  619MOL0     C85327   6.749  10.209   8.104  0.6536 -0.8918  1.1521
  619MOL0     C85328   6.641  10.271   8.020 -0.2292  0.1170 -0.3470
  619MOL0    Cl85329   6.624  10.204   7.851 -0.4192  0.2074 -0.0453
  619MOL0     C85330   6.577  10.310   8.869 -0.5904  0.6798  0.3227
  619MOL0     C85331   6.463  10.359   8.917  0.8052 -1.1964  0.3060
  619MOL0     O85332   6.064  10.533   8.956 -0.6692 -0.3260  0.1774
  619MOL0     C85333   6.120  10.393   8.659  0.4339 -0.4128  0.9035
  619MOL0     C85334   6.068  10.310   8.564 -0.5740 -0.3752 -0.1236
  619MOL0     N85335   6.024   9.809   8.075  0.6079  0.8928 -0.2476
  619MOL0     N85336   6.031   9.691   8.025  0.6368  0.3120 -0.5532
  619MOL0     C85337   5.031   9.497   7.198 -0.6863  0.4982  0.9523
  619MOL0     C85338   4.951   9.577   7.120 -0.7435 -0.3969 -0.9776
  619MOL0     C85339   4.740   9.857   6.862  0.5596  0.1293 -1.0660
  619MOL0     C85340   4.786   9.988   6.865  0.0383 -0.7775  0.0632
  619MOL0     C85341   4.719  10.094   6.803  0.2988 -0.2241 -0.4965
  619MOL0     C85342   4.612  10.075   6.717  0.5982  0.4489 -0.5937
  619MOL0     O85343   4.574  10.181   6.645 -0.8132 -0.4842 -0.3040
  619MOL0     C85344   4.453  10.160   6.565 -0.7256 -0.9716 -0.1943
  619MOL0     C85345   4.328  10.121   6.648 -0.9498  0.2502  0.8894
  619MOL0     C85346   4.207  10.223   6.617 -0.1410  0.8840  0.8872
  619MOL0     C85347   4.168  10.224   6.471  0.1046  0.5443 -0.6749
  619MOL0     C85348   4.134  10.091   6.424  0.2318  0.1508  0.1686
  619MOL0     C85349   4.086   9.997   6.369 -0.6884  0.3293 -0.3930
  619MOL0     C85350   4.561   9.944   6.710 -0.5716  0.1689  0.1766
  619MOL0     C85351   4.630   9.836   6.781 -0.6088  0.2827  0.0838
  619MOL0     C85352   4.560   9.711   6.769 -0.0853  0.3002 -0.4257
  619MOL0     H85353   5.144   9.844   7.108 -2.1413  0.4102 -0.5149
  619MOL0     H85354   5.293   9.710   7.228 -0.2282 -0.4725  0.4570
  619MOL0     H85355   5.316   9.599   7.443 -1.0068 -1.0129  1.3868
  619MOL0     H85356   5.420   9.517   7.323 -0.2984  1.7156 -1.1400
  619MOL0     H85357   5.306   9.375   7.564 -2.0665  0.8732 -2.1713
  619MOL0     H85358   5.426   9.316   7.443 -3.5056 -1.9934  0.0568
  619MOL0     H85359   5.591   9.472   7.490  0.5517 -3.4781  0.1685
  619MOL0     H85360   5.487   9.586   7.577  1.8739  0.7568 -2.5918
  619MOL0     H85361   5.501   9.325   7.718 -0.1757 -0.2827 -0.3897
  619MOL0     H85362   5.664   9.382   7.678  1.0948  1.3731  5.4955
  619MOL0     H85363   5.457   9.539   7.844  1.0689  0.5837  1.1677
  619MOL0     H85364   5.591   9.610   7.751  2.5786 -0.6248  1.4847
  619MOL0     H85365   5.647   9.557   8.005  1.2153  0.5726  0.9025
  619MOL0     H85366   5.624   9.388   7.972 -0.5874  0.6812  0.2921
  619MOL0     H85367   5.823   9.559   7.812 -5.2500  1.6591 -0.5081
  619MOL0     H85368   5.810   9.381   7.846 -2.4829 -1.8032  1.5835
  619MOL0     H85369   5.848   9.439   8.098  0.1684 -0.0876 -0.4173
  619MOL0     H85370   5.995   9.458   7.996  0.3027  1.7932 -1.7679
  619MOL0     H85371   5.755   9.670   8.194 -1.1168  3.2183  1.3616
  619MOL0     H85372   5.838   9.913   8.337  1.6570  0.8139  1.1312
  619MOL0     H85373   5.770   9.979   8.183 -0.3586  1.2218  2.4121
  619MOL0     H85374   6.044  10.035   8.313  0.3357 -1.2292  0.5069
  619MOL0     H85375   5.993  10.064   8.139 -1.0216 -2.5052 -0.2546
  619MOL0     H85376   5.958  10.262   8.261 -0.9419  0.9440 -2.7438
  619MOL0     H85377   5.795  10.201   8.223  0.6836 -1.9071 -1.4364
  619MOL0     H85378   5.808  10.281   8.446  1.5250  0.2540 -0.6913
  619MOL0     H85379   5.747  10.113   8.452 -0.0532  0.7166  1.4262
  619MOL0     H85380   5.908  10.104   8.766  1.9600 -2.6318 -0.0676
  619MOL0     H85381   6.052  10.204   9.041  3.1929  5.0020  1.8004
  619MOL0     H85382   5.876  10.188   8.982 -0.6847  0.8281  2.2722
  619MOL0     H85383   5.944  10.335   9.039 -0.1330 -1.6773  1.2396
  619MOL0     H85384   6.381  10.582   8.673 -1.0585  0.7437  0.4264
  619MOL0     H85385   6.594  10.476   8.572 -3.2399  1.3649  0.1082
  619MOL0     H85386   6.705  10.297   8.513 -0.9476 -1.1704 -0.4411
  619MOL0     H85387   6.877  10.261   8.561 -0.8391  1.1672 -0.7955
  619MOL0     H85388   6.847  10.044   8.620  1.7738 -0.1987 -1.5950
  619MOL0     H85389   6.674  10.067   8.656  0.0712  2.6662 -0.1293
  619MOL0     H85390   6.632  10.079   8.430 -1.6859 -1.5529  3.7387
  619MOL0     H85391   6.718   9.931   8.456  0.8342 -0.9213  0.9561
  619MOL0     H85392   6.948  10.044   8.415  0.0338 -0.6949 -1.6956
  619MOL0     H85393   6.870  10.181   8.351  1.3340  0.2679  1.2022
  619MOL0     H85394   6.936  10.051   8.172 -0.9614  1.7526 -1.1794
  619MOL0     H85395   6.834   9.914   8.233 -0.3397  0.0891  3.5430
  619MOL0     H85396   6.633  10.058   8.208  0.4138 -1.5907 -1.3802
  619MOL0     H85397   6.699  10.005   8.057 -0.8193  0.2901 -0.2912
  619MOL0     H85398   6.847  10.228   8.059  1.1424  0.9260  2.8089
  619MOL0     H85399   6.767  10.280   8.186  1.7678 -1.0525  1.0740
  619MOL0     H85400   6.664  10.378   8.013 -0.6346  0.1882 -0.6189
  619MOL0     H85401   6.544  10.256   8.068  1.3391 -1.2798  2.6395
  619MOL0     H85402   6.627  10.236   8.930  0.7852  1.4581  0.1971
  619MOL0     H85403   6.434  10.338   9.019  0.4249  0.1647  0.5004
  619MOL0     H85404   6.160  10.488   8.626  1.2677 -0.8723  0.5597
  619MOL0     H85405   6.088  10.318   8.458 -1.3498  0.1986 -0.2273
  619MOL0     H85406   4.989   9.399   7.218 -0.9996  0.5361  0.4968
  619MOL0     H85407   4.853   9.535   7.099 -1.3776  0.3852  0.3021
  619MOL0     H85408   4.884  10.015   6.902 -0.0928 -0.7426  0.3913
  619MOL0     H85409   4.766  10.192   6.800  0.3619 -0.2636 -2.1022
  619MOL0     H85410   4.440  10.260   6.521 -1.1404 -1.2453 -0.7021
  619MOL0     H85411   4.470  10.078   6.496 -3.4752 -1.6067 -0.2445
  619MOL0     H85412   4.358  10.138   6.752  1.8713  2.8279 -0.1847
  619MOL0     H85413   4.300  10.016   6.646  0.3772 -0.1412  1.6495
  619MOL0     H85414   4.126  10.190   6.683 -1.8628  1.5297 -0.8286
  619MOL0     H85415   4.221  10.327   6.650  1.2039  0.6373  1.1945
  619MOL0     H85416   4.250  10.265   6.411 -0.2109 -1.5830 -2.6848
  619MOL0     H85417   4.080  10.287   6.458  1.2796  2.2202 -0.8495
  619MOL0     H85418   4.029   9.911   6.339 -1.1976 -0.2026  1.9428
  619MOL0     H85419   4.478   9.917   6.645 -3.3505  1.6672  2.8357
  619MOL0     H85420   4.553   9.667   6.869 -1.0704  3.8062  1.2173
  619MOL0     H85421   4.455   9.729   6.743 -0.5012 -2.6611 -1.2334
  619MOL0     H85422   4.590   9.652   6.682 -1.5010  0.3466 -0.9751
  620MOL0     O85423   6.486   8.262   0.462 -0.0479  0.2451 -0.7483
  620MOL0     C85424   6.589   8.219   0.508 -0.0146  0.2240 -0.2558
  620MOL0     O85425   6.675   8.296   0.588 -0.2714  0.4169 -0.0110
  620MOL0     C85426   6.636   8.427   0.632 -0.0807  0.4990  0.2370
  620MOL0     C85427   6.714   8.537   0.596 -0.3981 -0.0044 -0.2350
  620MOL0     C85428   6.681   8.670   0.622  0.3658  0.1631 -0.0846
  620MOL0     C85429   6.568   8.695   0.706 -0.1122 -0.5979  0.6787
  620MOL0     O85430   6.520   8.819   0.740 -0.0891 -0.2345 -0.6109
  620MOL0     C85431   6.527   8.933   0.656  0.4586 -0.0500  0.5209
  620MOL0     C85432   6.484   8.919   0.517  0.2098  0.7530 -0.5124
  620MOL0     C85433   6.330   8.940   0.504 -0.2112 -0.4292 -0.0558
  620MOL0     C85434   6.229   8.850   0.574 -0.2407  0.1472 -0.0069
  620MOL0     C85435   6.235   8.696   0.537  0.2304  0.0722 -0.2196
  620MOL0     C85436   6.147   8.619   0.629  0.0744 -0.2201  0.5369
  620MOL0     C85437   6.154   8.474   0.601 -0.3023  0.2029 -0.4191
  620MOL0     C85438   6.076   8.394   0.703  0.2549  0.0802  0.6653
  620MOL0     N85439   6.049   8.255   0.664  0.7128 -0.2655 -0.0005
  620MOL0     C85440   6.142   8.165   0.636  0.3629  0.3728  0.2132
  620MOL0     C85441   6.074   8.048   0.620 -0.6037 -1.0417  0.9913
  620MOL0     C85442   6.138   7.913   0.609 -0.8514 -1.3128 -0.6657
  620MOL0     C85443   6.167   7.854   0.757 -0.0704 -0.4051 -0.3556
  620MOL0     C85444   6.265   7.738   0.735  0.3408  0.1382 -1.2960
  620MOL0     C85445   6.190   7.610   0.718  0.0089  0.5090 -0.0365
  620MOL0     O85446   6.280   7.522   0.643  0.0408 -1.1199 -0.6295
  620MOL0     C85447   6.387   7.459   0.710 -0.0985  0.4597 -0.1115
  620MOL0     C85448   6.387   7.407   0.841  0.5712 -0.8657 -0.2119
  620MOL0     C85449   6.498   7.351   0.896 -0.0782 -0.5086 -0.2098
  620MOL0     C85450   6.487   7.292   1.035 -0.1212  0.1702  0.0743
  620MOL0     C85451   6.623   7.345   0.829 -0.5692  0.3152 -0.3358
  620MOL0     C85452   6.760   7.292   0.879 -0.8094 -1.1735  0.8686
  620MOL0     O85453   6.754   7.214   0.987 -1.2255  0.7732  0.8213
  620MOL0     C85454   6.862   7.203   1.066  0.1349  0.0717  1.0871
  620MOL0     C85455   6.934   7.309   1.126 -0.1780 -0.5643 -0.7484
  620MOL0     C85456   7.038   7.290   1.219 -0.4013  0.2204  0.7871
  620MOL0     C85457   7.087   7.164   1.247  0.1171  0.0521 -0.7402
  620MOL0     O85458   7.176   7.151   1.343 -0.3476 -0.2111  0.8503
  620MOL0     C85459   7.277   7.256   1.349 -0.1758 -0.7310 -1.2094
  620MOL0     C85460   7.398   7.221   1.427 -0.1174 -0.1405  0.4699
  620MOL0     C85461   7.376   7.151   1.566  0.4087  0.4048  0.0171
  620MOL0     C85462   7.497   7.137   1.666 -0.4996  0.1360 -0.5997
  620MOL0     C85463   7.460   7.075   1.794  0.5933  0.7686 -0.9617
  620MOL0     C85464   7.440   6.921   1.801  0.2355 -0.0480 -0.0552
  620MOL0     C85465   7.373   6.887   1.934 -0.1820 -0.1060  0.5363
  620MOL0     C85466   7.413   6.750   1.986 -0.0979  0.3457 -0.5058
  620MOL0    Cl85467   7.335   6.624   1.898 -0.1373 -0.1008  0.1662
  620MOL0     C85468   7.011   7.066   1.197  0.0793  0.9251 -0.1559
  620MOL0     C85469   6.897   7.076   1.113  0.0060 -0.3312  0.2714
  620MOL0     O85470   6.862   7.342   0.825  0.2390  0.8575 -0.6338
  620MOL0     C85471   6.619   7.382   0.693 -0.1128  0.3198 -0.9849
  620MOL0     C85472   6.511   7.447   0.638  0.0918 -1.0624 -0.2133
  620MOL0     N85473   5.939   8.087   0.610  0.7126  0.8625 -0.2366
  620MOL0     N85474   5.926   8.205   0.642 -0.5872 -0.0006 -0.6433
  620MOL0     C85475   6.486   8.586   0.732 -0.3036 -0.1489 -0.0018
  620MOL0     C85476   6.521   8.456   0.693 -0.6912  0.9956  0.8203
  620MOL0     C85477   6.611   8.074   0.484  0.0739  0.3132 -0.8110
  620MOL0     C85478   6.655   8.035   0.359  0.2696  0.5197  0.3010
  620MOL0     C85479   6.663   7.903   0.321  0.5989  0.1739  0.4992
  620MOL0     C85480   6.645   7.804   0.421  0.3997 -0.2157  0.6731
  620MOL0     O85481   6.645   7.666   0.398  0.2515  0.4377  0.0348
  620MOL0     C85482   6.718   7.616   0.287  0.1449  0.5331 -0.3094
  620MOL0     C85483   6.634   7.554   0.169 -0.4825 -0.7072 -0.6519
  620MOL0     C85484   6.719   7.491   0.055  0.7389  0.0735 -0.1633
  620MOL0     C85485   6.799   7.601  -0.021  0.4242 -0.2657  0.5664
  620MOL0     C85486   6.713   7.692  -0.100  0.3661 -0.8392 -0.3320
  620MOL0     C85487   6.639   7.767  -0.159  0.8889  0.3195  0.3523
  620MOL0     C85488   6.609   7.835   0.549 -0.3501 -0.3576  0.0714
  620MOL0     C85489   6.585   7.971   0.580  0.1872 -1.0646  0.5533
  620MOL0     C85490   6.539   8.002   0.713  0.4361  0.1998 -1.0944
  620MOL0     H85491   6.809   8.508   0.553 -0.3711 -1.4210  0.6867
  620MOL0     H85492   6.747   8.744   0.579  0.7732 -0.8639 -1.2696
  620MOL0     H85493   6.629   8.971   0.646  0.3303  0.0022 -0.7479
  620MOL0     H85494   6.482   9.022   0.701 -0.3651  0.0750 -0.5180
  620MOL0     H85495   6.537   8.995   0.459  1.7754 -0.0315 -0.1546
  620MOL0     H85496   6.501   8.818   0.479 -2.4074  0.0055  0.0728
  620MOL0     H85497   6.304   9.045   0.521  0.9349 -0.1484  0.0360
  620MOL0     H85498   6.309   8.916   0.399  4.4257 -0.1314 -1.2777
  620MOL0     H85499   6.242   8.857   0.682  1.1904 -2.7003  0.0941
  620MOL0     H85500   6.130   8.882   0.540 -0.4657 -2.3991 -2.0944
  620MOL0     H85501   6.342   8.672   0.534 -0.0587 -1.2656 -0.4343
  620MOL0     H85502   6.199   8.692   0.434  2.2842 -1.0106 -0.9721
  620MOL0     H85503   6.172   8.633   0.734  1.4533  4.8420 -0.2058
  620MOL0     H85504   6.051   8.669   0.609  0.9640  1.3657  0.0597
  620MOL0     H85505   6.257   8.440   0.596 -0.4180  0.0222 -3.0919
  620MOL0     H85506   6.099   8.442   0.512 -1.4712 -1.9113  0.9881
  620MOL0     H85507   6.132   8.390   0.796  0.0841  3.2743  1.0137
  620MOL0     H85508   5.991   8.460   0.725  1.4283  1.8990 -0.0391
  620MOL0     H85509   6.248   8.185   0.641 -0.0464  2.6778  4.6241
  620MOL0     H85510   6.225   7.930   0.544 -2.3396  0.4083 -2.3516
  620MOL0     H85511   6.084   7.840   0.548 -2.2443  1.0886 -2.4895
  620MOL0     H85512   6.205   7.936   0.819  0.9819  0.4445 -2.0511
  620MOL0     H85513   6.070   7.821   0.797  0.0937  1.0281  1.4001
  620MOL0     H85514   6.321   7.754   0.642  2.0341 -2.5191 -0.8205
  620MOL0     H85515   6.335   7.731   0.818 -0.4723 -1.6252 -0.7116
  620MOL0     H85516   6.167   7.569   0.817 -2.0080 -0.6280 -0.9295
  620MOL0     H85517   6.094   7.626   0.669 -0.3917 -0.3778  0.4373
  620MOL0     H85518   6.301   7.415   0.907 -0.0678 -1.0330 -1.0163
  620MOL0     H85519   6.394   7.317   1.086 -0.3854 -1.9090  0.7042
  620MOL0     H85520   6.566   7.326   1.102  0.3052 -1.7875  0.6335
  620MOL0     H85521   6.499   7.183   1.035  0.8659  0.2644 -0.1339
  620MOL0     H85522   6.918   7.412   1.093  0.1010 -1.0517 -2.4935
  620MOL0     H85523   7.087   7.381   1.250 -0.6691  1.3542 -1.8716
  620MOL0     H85524   7.307   7.290   1.249 -2.4287 -2.5391 -2.6144
  620MOL0     H85525   7.248   7.342   1.409  2.0358 -1.4554  1.0555
  620MOL0     H85526   7.466   7.155   1.373  1.9508  1.9375  0.3859
  620MOL0     H85527   7.453   7.313   1.449  0.5932 -0.1368 -1.2044
  620MOL0     H85528   7.341   7.048   1.552 -0.0107  0.8687 -2.9803
  620MOL0     H85529   7.288   7.198   1.611 -0.6607 -2.1080  0.7420
  620MOL0     H85530   7.528   7.239   1.688 -0.9226  0.2397 -0.4825
  620MOL0     H85531   7.572   7.075   1.614 -1.3958 -2.2460  0.7643
  620MOL0     H85532   7.528   7.100   1.875 -1.5839 -0.4052  1.3798
  620MOL0     H85533   7.362   7.106   1.831  1.1578 -0.2941  1.6274
  620MOL0     H85534   7.532   6.865   1.783  0.5510  0.8950 -1.6148
  620MOL0     H85535   7.368   6.899   1.722 -0.3455  1.3569  0.0442
  620MOL0     H85536   7.264   6.893   1.923 -0.0211  1.4741 -0.7092
  620MOL0     H85537   7.403   6.964   2.005  2.7258 -0.3716 -0.2652
  620MOL0     H85538   7.386   6.752   2.092  4.1178 -2.5787  0.8816
  620MOL0     H85539   7.521   6.731   1.982 -0.0772  0.5253 -0.8237
  620MOL0     H85540   7.041   6.964   1.221 -3.2248 -0.1812 -0.2050
  620MOL0     H85541   6.848   6.992   1.064  0.4278  0.8784 -2.3817
  620MOL0     H85542   6.701   7.376   0.623 -0.7047 -1.2121 -1.5779
  620MOL0     H85543   6.527   7.495   0.543 -0.8167  1.9757  1.0483
  620MOL0     H85544   6.389   8.598   0.779  0.7323  1.5740  1.8695
  620MOL0     H85545   6.457   8.374   0.722  2.2547 -1.1916  1.6698
  620MOL0     H85546   6.670   8.106   0.279  1.7598  0.5946  0.6095
  620MOL0     H85547   6.700   7.873   0.223  2.5214  0.2974  1.1368
  620MOL0     H85548   6.789   7.681   0.236 -1.7040  0.9529 -2.5461
  620MOL0     H85549   6.766   7.531   0.335 -1.2231  0.0217  0.2007
  620MOL0     H85550   6.571   7.632   0.125 -1.1434 -1.7972 -1.7141
  620MOL0     H85551   6.569   7.477   0.211  3.6994 -3.0523  2.2073
  620MOL0     H85552   6.791   7.425   0.104 -0.2159 -2.0706 -1.4997
  620MOL0     H85553   6.658   7.422  -0.004 -0.8024 -1.7470  3.2528
  620MOL0     H85554   6.876   7.549  -0.079  0.2273 -1.3314  1.2296
  620MOL0     H85555   6.854   7.654   0.058 -1.9383 -2.4112  3.8943
  620MOL0     H85556   6.570   7.831  -0.211  1.4054  2.0145  1.6427
  620MOL0     H85557   6.582   7.755   0.617 -2.5680 -0.1735 -0.4958
  620MOL0     H85558   6.611   8.064   0.766 -1.2154  2.4682 -1.3471
  620MOL0     H85559   6.440   8.049   0.708  1.4799  2.7899  0.4447
  620MOL0     H85560   6.523   7.912   0.774  1.8193  0.1016 -0.8432
  621MOL0     O85561   4.993  11.330   1.632 -0.2010 -0.3256  0.0654
  621MOL0     C85562   5.001  11.448   1.669  0.1813  1.3578  0.0723
  621MOL0     O85563   5.118  11.513   1.673 -0.2224 -0.0812  0.3569
  621MOL0     C85564   5.239  11.448   1.647 -0.4578  0.1684 -0.5328
  621MOL0     C85565   5.299  11.369   1.736 -0.0221  0.6851  0.2645
  621MOL0     C85566   5.433  11.322   1.712 -0.2923 -0.5144 -0.2262
  621MOL0     C85567   5.492  11.348   1.600 -0.4359  0.7114 -0.3827
  621MOL0     O85568   5.617  11.303   1.592 -0.3437 -0.1304  0.3237
  621MOL0     C85569   5.675  11.291   1.461  0.7231  0.7847 -0.5750
  621MOL0     C85570   5.759  11.158   1.454  0.2221 -0.6186 -0.1276
  621MOL0     C85571   5.683  11.034   1.487  0.5541 -0.1084 -0.7707
  621MOL0     C85572   5.555  11.010   1.401  0.5284 -0.5923 -0.4867
  621MOL0     C85573   5.460  10.901   1.439 -0.0646 -0.4948  0.1637
  621MOL0     C85574   5.367  10.923   1.557  0.9514 -0.1208 -0.0061
  621MOL0     C85575   5.272  11.038   1.534  0.3992  0.5744 -0.4111
  621MOL0     C85576   5.169  11.048   1.655  1.3791 -0.5601 -0.4422
  621MOL0     N85577   5.124  10.914   1.699  0.0781  0.0786  1.0396
  621MOL0     C85578   5.055  10.827   1.613 -0.0631  0.7330 -0.8031
  621MOL0     C85579   5.039  10.716   1.697 -0.0275  0.4217  0.0380
  621MOL0     C85580   4.978  10.578   1.665 -0.3169 -1.5505  0.1308
  621MOL0     C85581   5.084  10.477   1.638  0.0564 -0.1842  0.2606
  621MOL0     C85582   5.132  10.507   1.486  0.0259  0.3919 -2.3527
  621MOL0     C85583   5.268  10.441   1.464 -1.1718  0.1228  0.2904
  621MOL0     O85584   5.357  10.528   1.529 -0.6599 -0.6070 -0.5264
  621MOL0     C85585   5.494  10.510   1.520 -0.5538 -0.4771 -0.7224
  621MOL0     C85586   5.576  10.592   1.597  0.8026 -0.0369  0.2441
  621MOL0     C85587   5.714  10.567   1.603 -1.0003  0.1403 -0.0970
  621MOL0     C85588   5.794  10.644   1.702  0.1707 -0.8676  0.1586
  621MOL0     C85589   5.780  10.476   1.518 -0.2531  0.0195 -0.2533
  621MOL0     C85590   5.919  10.439   1.525  0.5338  1.0932  0.0571
  621MOL0     O85591   6.010  10.539   1.539 -0.2696  0.1299 -0.3197
  621MOL0     C85592   6.147  10.510   1.533  0.7085 -1.1551  0.6657
  621MOL0     C85593   6.226  10.556   1.644 -0.4199 -0.0367 -0.7829
  621MOL0     C85594   6.366  10.528   1.637  0.0447  0.0742 -0.9919
  621MOL0     C85595   6.426  10.472   1.520 -0.0150 -0.5813 -0.1643
  621MOL0     O85596   6.563  10.475   1.517  0.3314 -0.0926 -0.4071
  621MOL0     C85597   6.632  10.435   1.403  0.4035 -0.0491  0.4084
  621MOL0     C85598   6.781  10.472   1.429  0.2786 -0.1822  0.0676
  621MOL0     C85599   6.824  10.423   1.566 -0.2883  0.1793 -0.0863
  621MOL0     C85600   6.799  10.532   1.670 -0.4932  0.1947 -0.0610
  621MOL0     C85601   6.888  10.543   1.796 -1.5419  0.2044 -0.2689
  621MOL0     C85602   7.033  10.537   1.767  0.1368  0.6485  0.4689
  621MOL0     C85603   7.101  10.583   1.898 -0.6448  0.7057  0.4156
  621MOL0     C85604   7.257  10.576   1.880 -0.3729  0.5628  0.1740
  621MOL0    Cl85605   7.310  10.691   2.002 -0.1380 -0.3373  0.6387
  621MOL0     C85606   6.344  10.432   1.414 -0.5417  0.1237 -1.1217
  621MOL0     C85607   6.205  10.453   1.424 -1.3086  0.7240  0.7051
  621MOL0     O85608   5.947  10.316   1.526  0.3181  0.1596 -0.2374
  621MOL0     C85609   5.695  10.406   1.428  0.2240  0.5391 -0.5661
  621MOL0     C85610   5.556  10.415   1.436  0.3252 -0.2321 -0.5122
  621MOL0     N85611   5.085  10.748   1.829  0.4616 -0.0589 -0.4255
  621MOL0     N85612   5.144  10.861   1.826 -0.3789 -0.0622  0.1203
  621MOL0     C85613   5.432  11.426   1.503 -0.0654  0.7386  0.6999
  621MOL0     C85614   5.300  11.468   1.525  0.6543 -0.3955  0.1083
  621MOL0     C85615   4.873  11.519   1.699  0.2668  0.1978 -0.9895
  621MOL0     C85616   4.760  11.439   1.718 -0.2500 -0.0968  0.6889
  621MOL0     C85617   4.637  11.502   1.744 -0.5229  0.0571  0.4879
  621MOL0     C85618   4.628  11.646   1.760 -0.2714 -1.1354  0.1163
  621MOL0     O85619   4.519  11.722   1.800  0.1557  0.1609 -0.5986
  621MOL0     C85620   4.399  11.647   1.821 -0.5907 -0.3359  0.2858
  621MOL0     C85621   4.281  11.740   1.874 -0.3184  0.7307 -0.3599
  621MOL0     C85622   4.168  11.662   1.944  1.0121  0.6937  0.1233
  621MOL0     C85623   4.042  11.741   1.964  0.5573 -0.3055  0.4263
  621MOL0     C85624   3.946  11.670   2.051  0.2944  0.2471  0.3472
  621MOL0     C85625   3.878  11.609   2.136  0.8651  0.6430  0.1363
  621MOL0     C85626   4.738  11.718   1.737 -0.2090 -0.1582 -0.2434
  621MOL0     C85627   4.854  11.662   1.685 -0.2736  1.2555  0.2644
  621MOL0     C85628   4.962  11.763   1.661 -0.0541  0.2101  0.6466
  621MOL0     H85629   5.247  11.351   1.830 -1.2793  0.0200 -0.5433
  621MOL0     H85630   5.482  11.274   1.796  1.5927  0.1018 -0.9185
  621MOL0     H85631   5.742  11.377   1.451  0.1137  1.4825  1.1458
  621MOL0     H85632   5.602  11.291   1.379  1.0676  0.0536 -0.8959
  621MOL0     H85633   5.822  11.156   1.365  3.4426 -3.4628  1.9367
  621MOL0     H85634   5.819  11.182   1.543 -3.0654  2.2125  1.5711
  621MOL0     H85635   5.749  10.947   1.484  0.9846  0.2284 -1.2439
  621MOL0     H85636   5.646  11.058   1.587 -2.0635  2.4158 -2.1880
  621MOL0     H85637   5.502  11.106   1.402 -0.3752 -0.9313 -3.4687
  621MOL0     H85638   5.599  10.989   1.303  0.8278  0.1662 -0.5216
  621MOL0     H85639   5.531  10.820   1.458  0.0571 -1.0119 -2.2070
  621MOL0     H85640   5.395  10.886   1.352  0.0408  0.0154 -0.0041
  621MOL0     H85641   5.317  10.826   1.561  1.2626 -0.3109 -0.5339
  621MOL0     H85642   5.423  10.940   1.650  0.1244 -0.2731  0.5260
  621MOL0     H85643   5.224  11.009   1.440 -0.8231 -0.5452  0.5225
  621MOL0     H85644   5.319  11.135   1.518 -1.8612  2.1807  1.7858
  621MOL0     H85645   5.222  11.083   1.745  1.5703  1.0084 -1.1331
  621MOL0     H85646   5.085  11.114   1.632  2.6239  0.6807 -1.5852
  621MOL0     H85647   5.023  10.846   1.511  1.6985  6.2112 -0.6754
  621MOL0     H85648   4.911  10.592   1.580  1.7141 -2.0628 -1.6280
  621MOL0     H85649   4.933  10.541   1.758  4.1994 -2.2445  2.3262
  621MOL0     H85650   5.165  10.477   1.711 -0.1860  2.2104  0.6163
  621MOL0     H85651   5.041  10.377   1.649 -0.4429  0.2386  3.0399
  621MOL0     H85652   5.055  10.475   1.415  1.1136 -1.5036 -2.7473
  621MOL0     H85653   5.153  10.613   1.468 -0.7938  1.0192  0.0191
  621MOL0     H85654   5.284  10.343   1.510 -1.1108  0.4553  0.9875
  621MOL0     H85655   5.286  10.437   1.356 -2.4454  0.2803  0.0513
  621MOL0     H85656   5.539  10.680   1.649  0.5740 -0.0531  0.1076
  621MOL0     H85657   5.732  10.709   1.764 -0.7931 -2.0828  0.5181
  621MOL0     H85658   5.848  10.726   1.654 -3.0121  0.4149 -1.5169
  621MOL0     H85659   5.861  10.581   1.762  0.3261  2.4160  3.8074
  621MOL0     H85660   6.179  10.607   1.728  0.3886  4.6733 -2.8351
  621MOL0     H85661   6.423  10.560   1.723  0.9217 -1.3554 -0.9987
  621MOL0     H85662   6.623  10.326   1.398 -1.6052  0.1124 -0.0925
  621MOL0     H85663   6.590  10.485   1.316  1.5644  0.2591 -0.0015
  621MOL0     H85664   6.843  10.426   1.352  1.6767 -0.6045  1.4025
  621MOL0     H85665   6.798  10.578   1.407 -0.1862 -0.5306 -2.3437
  621MOL0     H85666   6.925  10.380   1.566 -0.9883 -1.6368  1.6544
  621MOL0     H85667   6.761  10.339   1.598 -1.9760  0.1927 -3.0067
  621MOL0     H85668   6.692  10.539   1.693  0.0057 -0.2227  2.7270
  621MOL0     H85669   6.831  10.621   1.616  2.2910 -0.9026 -0.3875
  621MOL0     H85670   6.859  10.630   1.855 -1.4488  1.0328 -1.4044
  621MOL0     H85671   6.862  10.450   1.847  1.6841 -1.2676 -1.0605
  621MOL0     H85672   7.062  10.611   1.692  1.0383 -0.0704  0.0835
  621MOL0     H85673   7.072  10.451   1.711 -0.9898 -0.9150  1.9667
  621MOL0     H85674   7.065  10.529   1.985 -1.8272  2.1305  0.8415
  621MOL0     H85675   7.081  10.691   1.904 -1.0793  0.6322  0.3052
  621MOL0     H85676   7.276  10.615   1.779 -3.7750 -3.0006 -2.1206
  621MOL0     H85677   7.297  10.475   1.885  0.6904  1.0385  3.1482
  621MOL0     H85678   6.371  10.395   1.315 -0.2978 -0.6229 -0.7838
  621MOL0     H85679   6.142  10.429   1.339  1.8907  1.3391 -2.0259
  621MOL0     H85680   5.747  10.334   1.366 -1.6874 -2.5353  1.1338
  621MOL0     H85681   5.495  10.340   1.386  0.5052 -2.0414  1.7980
  621MOL0     H85682   5.469  11.449   1.403 -1.4014  0.5705  0.1486
  621MOL0     H85683   5.250  11.527   1.449  2.3270  1.1267  0.1156
  621MOL0     H85684   4.775  11.333   1.702  0.6358  0.3069 -1.4827
  621MOL0     H85685   4.550  11.437   1.750 -1.3449  1.1482  0.9263
  621MOL0     H85686   4.357  11.614   1.726 -0.5347  1.8922 -0.5697
  621MOL0     H85687   4.418  11.558   1.881 -1.9138 -2.0492 -1.6773
  621MOL0     H85688   4.244  11.786   1.782  0.4222 -1.2882 -1.7458
  621MOL0     H85689   4.317  11.816   1.944  1.4209 -2.0607  2.0267
  621MOL0     H85690   4.132  11.580   1.881 -0.6681  1.5225 -0.0604
  621MOL0     H85691   4.193  11.635   2.047 -2.0463  0.9821  1.0517
  621MOL0     H85692   3.992  11.762   1.868  3.8332 -0.4152 -1.4299
  621MOL0     H85693   4.062  11.836   2.015  0.7694  0.0283 -0.2715
  621MOL0     H85694   3.803  11.576   2.205  0.0208  0.8010 -0.6785
  621MOL0     H85695   4.724  11.824   1.756 -1.1334 -0.5176  1.3143
  621MOL0     H85696   5.013  11.804   1.748  0.2375  0.9548  0.1382
  621MOL0     H85697   5.042  11.719   1.601  0.3898  2.0139 -0.1517
  621MOL0     H85698   4.915  11.848   1.611  1.1668  0.9878  0.7842
  622MOL0     O85699   2.793   9.673   3.963 -0.2868 -0.2100 -0.2766
  622MOL0     C85700   2.844   9.585   3.891 -0.2156  0.3551 -0.2163
  622MOL0     O85701   2.780   9.523   3.794 -0.3411  0.4219  0.5116
  622MOL0     C85702   2.666   9.573   3.742  0.7804 -0.2858  0.7201
  622MOL0     C85703   2.645   9.700   3.696 -0.0326  0.2419  0.1225
  622MOL0     C85704   2.526   9.733   3.639  0.0021 -0.3430  0.7609
  622MOL0     C85705   2.421   9.649   3.610  0.3334  0.5006 -0.7282
  622MOL0     O85706   2.304   9.709   3.564 -0.0060 -0.0370 -0.8064
  622MOL0     C85707   2.184   9.634   3.550  1.4707 -0.0823 -0.4826
  622MOL0     C85708   2.063   9.728   3.526 -0.7060 -0.6611  0.8679
  622MOL0     C85709   2.031   9.825   3.641 -0.2728  0.1729 -0.1883
  622MOL0     C85710   1.925   9.938   3.610 -0.4408  0.0888  0.1481
  622MOL0     C85711   1.777   9.889   3.603 -0.0882 -0.2992  0.5913
  622MOL0     C85712   1.703   9.912   3.732  0.2425  0.0525 -0.0980
  622MOL0     C85713   1.746   9.816   3.841  0.3771 -0.2648  0.2320
  622MOL0     C85714   1.637   9.783   3.944 -0.7463 -0.6978 -0.6047
  622MOL0     N85715   1.540   9.680   3.906 -0.3733 -0.2589  1.1846
  622MOL0     C85716   1.567   9.552   3.850 -0.4160 -0.3720 -0.3193
  622MOL0     C85717   1.439   9.510   3.803 -0.6219 -0.3779 -0.8515
  622MOL0     C85718   1.409   9.393   3.720 -0.5680  0.6601  0.1106
  622MOL0     C85719   1.320   9.434   3.599  0.9547  0.7171 -0.3665
  622MOL0     C85720   1.390   9.514   3.496 -0.3842 -1.2181 -0.3713
  622MOL0     C85721   1.302   9.528   3.370  0.6806 -0.4281 -0.2527
  622MOL0     O85722   1.386   9.565   3.259 -0.4271  0.2258 -0.4777
  622MOL0     C85723   1.439   9.689   3.238 -0.1215  0.2342 -0.1667
  622MOL0     C85724   1.531   9.716   3.135  0.0482 -0.7573 -0.1545
  622MOL0     C85725   1.596   9.842   3.120  0.1640 -0.1643 -0.1432
  622MOL0     C85726   1.712   9.843   3.016 -0.0050 -1.1494 -0.3310
  622MOL0     C85727   1.573   9.949   3.220 -0.3084  0.4225  0.4347
  622MOL0     C85728   1.640  10.079   3.225 -0.2272 -0.3708  0.7507
  622MOL0     O85729   1.622  10.161   3.330  0.2319 -0.2171 -0.6780
  622MOL0     C85730   1.723  10.260   3.348 -0.3079  0.2469  0.3295
  622MOL0     C85731   1.809  10.267   3.464  0.6426  0.2461  0.1899
  622MOL0     C85732   1.915  10.353   3.465  0.7534  0.2326 -0.7224
  622MOL0     C85733   1.943  10.446   3.358  1.2203  0.0871 -0.3751
  622MOL0     O85734   2.039  10.542   3.359 -0.1086  0.5216 -0.9542
  622MOL0     C85735   2.168  10.522   3.413  0.0941  0.5539 -0.4106
  622MOL0     C85736   2.232  10.666   3.407 -0.2164 -1.2094 -0.5876
  622MOL0     C85737   2.374  10.666   3.337 -0.4801  0.2119  0.6231
  622MOL0     C85738   2.350  10.687   3.183  0.0003 -0.9718 -0.2621
  622MOL0     C85739   2.485  10.675   3.116  0.1545  0.6431  0.2670
  622MOL0     C85740   2.532  10.816   3.072  0.5410  0.0192 -0.2776
  622MOL0     C85741   2.684  10.823   3.022  0.1937  0.5141 -0.0455
  622MOL0     C85742   2.720  10.966   2.967 -0.5544 -0.4892  0.8736
  622MOL0    Cl85743   2.653  11.078   3.066 -0.0902  0.0239  0.7915
  622MOL0     C85744   1.841  10.465   3.264 -0.4030 -1.0184 -0.7992
  622MOL0     C85745   1.737  10.365   3.257 -0.1490 -0.6860  0.3144
  622MOL0     O85746   1.702  10.106   3.129 -0.1428  0.0659 -0.4898
  622MOL0     C85747   1.465   9.920   3.302  0.8169  0.9880  0.1546
  622MOL0     C85748   1.398   9.798   3.316 -0.2010 -0.4356  1.4115
  622MOL0     N85749   1.348   9.605   3.842 -0.3199 -0.1521  0.2118
  622MOL0     N85750   1.408   9.701   3.902  0.7916  0.0887  0.4954
  622MOL0     C85751   2.445   9.513   3.648  0.6869 -0.5997  0.3079
  622MOL0     C85752   2.559   9.478   3.719  0.0006 -0.5120 -0.3595
  622MOL0     C85753   2.996   9.571   3.891  0.3921 -0.0715 -0.2228
  622MOL0     C85754   3.059   9.555   3.767 -0.1935  0.2741 -0.6092
  622MOL0     C85755   3.193   9.554   3.763  1.0053 -0.4225 -0.5878
  622MOL0     C85756   3.274   9.571   3.876 -0.2491 -0.4235  0.3706
  622MOL0     O85757   3.411   9.557   3.874 -0.2659  1.1830  0.3653
  622MOL0     C85758   3.496   9.489   3.768  0.3389 -0.3549 -0.5014
  622MOL0     C85759   3.621   9.444   3.822 -0.3886  0.5708 -0.4249
  622MOL0     C85760   3.686   9.529   3.943  0.3827  1.1931  0.0932
  622MOL0     C85761   3.810   9.463   4.002 -0.2153  1.1203 -0.4343
  622MOL0     C85762   3.782   9.325   4.060 -1.4208  0.3855  0.0104
  622MOL0     C85763   3.758   9.211   4.100  0.3693 -0.8495  0.0182
  622MOL0     C85764   3.209   9.602   3.996  0.5855  0.1664  0.0692
  622MOL0     C85765   3.074   9.600   4.006  0.3455  0.0214 -1.0862
  622MOL0     C85766   3.013   9.609   4.148  0.2889 -0.0642 -0.6852
  622MOL0     H85767   2.712   9.780   3.728  2.5447 -2.7091  2.7831
  622MOL0     H85768   2.520   9.837   3.611 -0.7975  0.3229  3.1734
  622MOL0     H85769   2.172   9.580   3.645 -0.6085  1.9248  0.4941
  622MOL0     H85770   2.192   9.563   3.467 -2.0345 -0.3736 -0.7013
  622MOL0     H85771   2.086   9.790   3.439 -4.0470 -1.6031 -0.8566
  622MOL0     H85772   1.975   9.665   3.508 -2.4196  1.2954  2.0675
  622MOL0     H85773   2.013   9.769   3.733 -0.9610 -0.5950 -0.7698
  622MOL0     H85774   2.121   9.881   3.665  0.4030 -1.2869  0.8285
  622MOL0     H85775   1.927  10.014   3.688 -4.5883  1.1420 -0.5207
  622MOL0     H85776   1.957   9.986   3.517 -1.9482  1.0469  0.0929
  622MOL0     H85777   1.776   9.782   3.578  0.1524 -0.4166  1.0827
  622MOL0     H85778   1.740   9.945   3.517  2.6570  0.3756 -0.2324
  622MOL0     H85779   1.722  10.016   3.761 -1.0756 -0.4038  2.7766
  622MOL0     H85780   1.602   9.905   3.691  0.9416  1.5898 -2.2745
  622MOL0     H85781   1.844   9.855   3.871  2.3689 -1.2726 -4.0324
  622MOL0     H85782   1.755   9.715   3.798  0.3333 -0.2009  0.0756
  622MOL0     H85783   1.692   9.746   4.031 -0.3672 -1.0376 -0.9876
  622MOL0     H85784   1.585   9.876   3.969  0.7538  0.7650 -2.5462
  622MOL0     H85785   1.660   9.498   3.843  0.5485  1.2533 -0.5301
  622MOL0     H85786   1.354   9.312   3.770  0.5283  0.0369  0.3471
  622MOL0     H85787   1.504   9.347   3.691 -1.0054  0.7205 -1.5253
  622MOL0     H85788   1.282   9.338   3.562  1.0231  0.0690  1.1680
  622MOL0     H85789   1.229   9.485   3.632  1.0857  2.5366 -2.5322
  622MOL0     H85790   1.409   9.610   3.546  0.6508 -0.1263 -2.7143
  622MOL0     H85791   1.490   9.477   3.471  0.7101  1.8104 -0.9479
  622MOL0     H85792   1.247   9.439   3.337 -1.3707 -0.0304  1.8326
  622MOL0     H85793   1.227   9.604   3.388  1.8208  0.5189  0.6628
  622MOL0     H85794   1.547   9.643   3.057 -1.3342 -0.8439 -0.3765
  622MOL0     H85795   1.811   9.834   3.061  0.3319 -0.0564 -0.8033
  622MOL0     H85796   1.711   9.931   2.951 -0.4424 -1.3510 -0.6020
  622MOL0     H85797   1.710   9.749   2.960  2.9247 -0.9031 -1.0483
  622MOL0     H85798   1.780  10.201   3.545 -1.1563  1.7049  0.7895
  622MOL0     H85799   1.978  10.370   3.552  2.2262 -0.0458 -1.6971
  622MOL0     H85800   2.159  10.476   3.512 -1.9636  1.9041  0.1011
  622MOL0     H85801   2.228  10.457   3.349  1.7712 -0.5483  2.1261
  622MOL0     H85802   2.170  10.745   3.364 -0.1986 -1.2570 -0.7028
  622MOL0     H85803   2.240  10.702   3.510  2.0330  1.1363 -1.4767
  622MOL0     H85804   2.425  10.572   3.358 -0.4663  0.7525  3.4342
  622MOL0     H85805   2.437  10.746   3.378 -0.7501  0.1007  1.2590
  622MOL0     H85806   2.312  10.787   3.157  0.0961 -0.1562  2.3700
  622MOL0     H85807   2.277  10.610   3.155  2.1475 -2.7747 -1.1814
  622MOL0     H85808   2.564  10.621   3.169  0.1504 -1.7943 -1.9950
  622MOL0     H85809   2.461  10.629   3.020 -4.4151  1.3425  0.8615
  622MOL0     H85810   2.528  10.894   3.149  0.3513 -0.6980  0.4488
  622MOL0     H85811   2.477  10.858   2.988 -0.9268  0.9618  1.1067
  622MOL0     H85812   2.699  10.754   2.938  1.2456 -1.5204  1.7260
  622MOL0     H85813   2.755  10.794   3.100  1.0023  2.9421  0.1865
  622MOL0     H85814   2.694  10.971   2.861 -1.1320  2.6332  1.0664
  622MOL0     H85815   2.828  10.967   2.980 -0.5157 -1.8139  0.7973
  622MOL0     H85816   1.853  10.545   3.191 -0.9319  0.8370  1.0339
  622MOL0     H85817   1.662  10.368   3.178  0.8555  0.5105 -0.6300
  622MOL0     H85818   1.425   9.998   3.366 -2.6879 -0.0566 -0.5646
  622MOL0     H85819   1.304   9.803   3.371 -1.5769  0.9372 -0.9077
  622MOL0     H85820   2.364   9.440   3.642 -0.8179  0.7354  2.6227
  622MOL0     H85821   2.590   9.378   3.749  0.8313  0.0347  0.6870
  622MOL0     H85822   3.005   9.548   3.673 -3.1359 -0.5336  0.9980
  622MOL0     H85823   3.243   9.548   3.667 -1.6259  0.3808 -2.1097
  622MOL0     H85824   3.452   9.406   3.712 -0.5972 -0.9852  1.0927
  622MOL0     H85825   3.529   9.561   3.692  2.6770  0.6100  1.3060
  622MOL0     H85826   3.687   9.433   3.736 -0.3626 -1.6369 -0.1736
  622MOL0     H85827   3.597   9.341   3.849  0.1679  0.2200 -1.2436
  622MOL0     H85828   3.708   9.627   3.899  1.6804 -0.4547 -3.3536
  622MOL0     H85829   3.618   9.530   4.028  0.2600  0.3085  0.0131
  622MOL0     H85830   3.838   9.531   4.082  1.8861 -0.7141  0.4838
  622MOL0     H85831   3.895   9.463   3.934  2.9818 -0.7537  3.2220
  622MOL0     H85832   3.721   9.119   4.138 -1.4471  0.4434  1.5696
  622MOL0     H85833   3.277   9.600   4.081  0.3147  2.0256  0.3672
  622MOL0     H85834   2.926   9.676   4.148  0.7183  0.6497 -3.5708
  622MOL0     H85835   2.999   9.512   4.195 -1.2270 -1.1624 -3.1928
  622MOL0     H85836   3.087   9.665   4.207  2.6743 -0.7706 -2.8156
  623MOL0     O85837   1.073   2.364   5.463 -0.5238  0.0457 -0.3477
  623MOL0     C85838   1.102   2.477   5.458  0.2589 -0.9672 -1.3815
  623MOL0     O85839   1.008   2.576   5.436  0.8534 -0.1160 -0.1804
  623MOL0     C85840   1.040   2.699   5.391  0.3949 -0.4230 -0.6266
  623MOL0     C85841   1.047   2.802   5.488 -0.0888 -0.1186 -0.1194
  623MOL0     C85842   1.091   2.930   5.446 -0.4146  1.5169 -0.3115
  623MOL0     C85843   1.109   2.954   5.306  0.0462 -0.0051 -0.1532
  623MOL0     O85844   1.150   3.083   5.279 -0.0055  0.6785  0.4659
  623MOL0     C85845   1.278   3.096   5.211  0.0351 -0.4473  0.5601
  623MOL0     C85846   1.254   3.149   5.070  0.2604  0.4310  0.2928
  623MOL0     C85847   1.389   3.205   5.017  0.5585 -0.1613  0.3437
  623MOL0     C85848   1.396   3.154   4.875  0.1436  0.9741  0.3754
  623MOL0     C85849   1.523   3.193   4.808  0.2358 -0.7934  0.3199
  623MOL0     C85850   1.520   3.335   4.747 -0.1893 -0.0323  0.1894
  623MOL0     C85851   1.645   3.361   4.659  0.5752  0.4093 -1.3447
  623MOL0     C85852   1.596   3.413   4.513  0.4317 -0.5591 -0.1659
  623MOL0     N85853   1.708   3.439   4.417  0.5985 -0.0611 -0.3570
  623MOL0     C85854   1.791   3.337   4.367  0.2922 -0.0373 -0.5409
  623MOL0     C85855   1.853   3.396   4.260  0.0755 -0.2411 -0.3195
  623MOL0     C85856   1.958   3.326   4.182 -0.6708  0.3683 -0.9342
  623MOL0     C85857   1.915   3.291   4.041 -0.0614 -0.4308  0.6824
  623MOL0     C85858   1.891   3.413   3.954 -0.3568 -0.1453  0.6567
  623MOL0     C85859   1.830   3.362   3.823 -0.3518 -0.0611  0.1354
  623MOL0     O85860   1.708   3.285   3.830  0.4155  0.4376 -1.1470
  623MOL0     C85861   1.598   3.358   3.862 -0.8113 -0.8929 -0.4583
  623MOL0     C85862   1.560   3.386   3.996 -0.1631  0.0468  0.0154
  623MOL0     C85863   1.453   3.471   4.028 -0.3338 -0.0526 -0.8948
  623MOL0     C85864   1.425   3.489   4.176 -0.1468 -0.0908 -1.1906
  623MOL0     C85865   1.369   3.521   3.927 -1.1277 -0.1244  0.2679
  623MOL0     C85866   1.254   3.606   3.950 -0.0489  0.2283  0.2395
  623MOL0     O85867   1.191   3.635   3.836  0.2949 -0.0606  1.2355
  623MOL0     C85868   1.106   3.744   3.807  0.0414  0.3622  0.2696
  623MOL0     C85869   1.065   3.760   3.676 -0.5847 -0.6152 -0.3103
  623MOL0     C85870   0.969   3.855   3.638 -0.7077 -0.3859 -0.4384
  623MOL0     C85871   0.910   3.932   3.745  0.6427 -0.0473  0.0286
  623MOL0     O85872   0.804   4.013   3.704  0.5893  0.0114 -0.6792
  623MOL0     C85873   0.681   3.992   3.774 -0.0530 -0.6903  0.3315
  623MOL0     C85874   0.640   4.119   3.859  0.7469 -0.2983  0.2947
  623MOL0     C85875   0.484   4.118   3.891 -0.9930  0.3381 -0.9822
  623MOL0     C85876   0.390   4.070   3.774 -0.6448 -1.9001 -0.1303
  623MOL0     C85877   0.241   4.111   3.805 -0.8017 -0.0579  1.0013
  623MOL0     C85878   0.150   4.069   3.686  0.2888  0.2547 -0.4396
  623MOL0     C85879   0.151   3.913   3.661 -0.2519  1.1212 -0.2327
  623MOL0     C85880   0.060   3.880   3.547  0.1519  0.4455 -0.0665
  623MOL0    Cl85881  -0.113   3.905   3.570  0.3114  0.0237 -0.0398
  623MOL0     C85882   0.960   3.920   3.877 -0.3250  1.0709 -0.1470
  623MOL0     C85883   1.056   3.824   3.905  0.0488  0.0562 -0.7388
  623MOL0     O85884   1.214   3.636   4.065 -0.0811  0.3555 -0.5494
  623MOL0     C85885   1.416   3.492   3.792  0.5507 -0.1768  0.6021
  623MOL0     C85886   1.534   3.421   3.767 -0.0540  0.8282  0.4228
  623MOL0     N85887   1.816   3.528   4.253 -0.5057 -0.8752 -0.5632
  623MOL0     N85888   1.738   3.548   4.355 -0.2212 -0.3912  0.5396
  623MOL0     C85889   1.095   2.853   5.210 -0.1171  0.4304  0.0478
  623MOL0     C85890   1.046   2.726   5.253 -0.0980  1.1192  0.1119
  623MOL0     C85891   1.258   2.496   5.461  0.2318  0.2730 -1.3699
  623MOL0     C85892   1.308   2.576   5.569 -0.1849 -0.0996  0.4088
  623MOL0     C85893   1.446   2.600   5.590 -0.1130 -0.2436  0.4707
  623MOL0     C85894   1.532   2.545   5.492 -0.1536 -0.1770 -0.3019
  623MOL0     O85895   1.668   2.553   5.496  0.2740 -0.0006  0.4212
  623MOL0     C85896   1.752   2.595   5.601  0.6602  0.7625 -0.0504
  623MOL0     C85897   1.860   2.487   5.633 -0.1296  0.7339 -0.0782
  623MOL0     C85898   1.812   2.340   5.665  0.4031  0.0768  0.1491
  623MOL0     C85899   1.914   2.233   5.720  0.9878 -0.1899 -0.1571
  623MOL0     C85900   1.984   2.267   5.841  0.4475 -0.4740  0.9220
  623MOL0     C85901   2.050   2.303   5.933 -0.5751  0.4979 -0.4313
  623MOL0     C85902   1.482   2.460   5.394  0.1865 -0.4724 -0.7661
  623MOL0     C85903   1.346   2.444   5.370  0.5041 -0.5950 -0.7487
  623MOL0     C85904   1.286   2.370   5.249 -0.3341 -0.0324 -0.0977
  623MOL0     H85905   1.018   2.772   5.588 -3.4359  4.0251  0.4348
  623MOL0     H85906   1.113   3.011   5.515  0.0544  1.8599 -0.8585
  623MOL0     H85907   1.321   2.996   5.200 -0.1326 -0.4240 -0.3799
  623MOL0     H85908   1.346   3.159   5.269  0.3546  0.7143 -1.0368
  623MOL0     H85909   1.220   3.062   5.012  0.7957  0.2823  0.2027
  623MOL0     H85910   1.183   3.233   5.072  1.8322  1.8994 -1.6352
  623MOL0     H85911   1.385   3.315   5.014 -0.2053 -0.1858  0.3925
  623MOL0     H85912   1.472   3.167   5.077 -0.5424 -2.2395  0.6145
  623MOL0     H85913   1.417   3.048   4.885 -0.2344  0.5854 -2.2235
  623MOL0     H85914   1.309   3.181   4.814 -0.9641  0.4533  1.6735
  623MOL0     H85915   1.531   3.116   4.731  1.6114 -0.6154  0.2646
  623MOL0     H85916   1.606   3.195   4.879 -1.6741 -2.0195  2.7110
  623MOL0     H85917   1.435   3.338   4.679 -0.2632  0.6128  0.3063
  623MOL0     H85918   1.524   3.416   4.820  1.6896 -0.7911  1.0086
  623MOL0     H85919   1.699   3.270   4.632 -1.1890 -2.0458  2.5938
  623MOL0     H85920   1.715   3.433   4.702 -2.6756  2.6805  0.6180
  623MOL0     H85921   1.523   3.344   4.468  2.6497 -1.0597 -3.3110
  623MOL0     H85922   1.544   3.508   4.527  1.5045  0.1114 -0.6497
  623MOL0     H85923   1.795   3.244   4.424 -1.2302  2.3570  4.0075
  623MOL0     H85924   1.990   3.242   4.244  2.8380  1.3525 -1.2027
  623MOL0     H85925   2.050   3.385   4.176  1.1087 -1.6804  2.5639
  623MOL0     H85926   1.998   3.243   3.988 -0.1860 -0.0454  0.1298
  623MOL0     H85927   1.826   3.229   4.055 -2.0934  1.3813 -2.8626
  623MOL0     H85928   1.832   3.491   4.003  2.9554  2.5464  0.6998
  623MOL0     H85929   1.979   3.471   3.925 -2.9411  3.3100 -0.9674
  623MOL0     H85930   1.813   3.443   3.751 -0.2957 -1.4807 -1.5458
  623MOL0     H85931   1.907   3.308   3.767 -1.9818 -1.8639 -0.4909
  623MOL0     H85932   1.620   3.337   4.073  1.9916 -0.5021 -1.9095
  623MOL0     H85933   1.503   3.443   4.237  0.4677  2.8735  0.4280
  623MOL0     H85934   1.327   3.452   4.208  1.6863 -2.1611  2.7276
  623MOL0     H85935   1.428   3.594   4.206 -0.8162 -0.1571 -0.8851
  623MOL0     H85936   1.114   3.693   3.606 -0.7194 -0.3852 -0.6247
  623MOL0     H85937   0.942   3.857   3.533  1.2119 -3.1895 -1.0958
  623MOL0     H85938   0.614   3.968   3.691 -1.1570  1.6036  0.4926
  623MOL0     H85939   0.676   3.913   3.850 -0.1775  1.4647  2.7325
  623MOL0     H85940   0.691   4.113   3.956  3.4105  2.7536 -0.7315
  623MOL0     H85941   0.659   4.208   3.798  0.1416  0.5942  1.3626
  623MOL0     H85942   0.476   4.221   3.925  1.9615  0.1728  0.4942
  623MOL0     H85943   0.471   4.052   3.977  3.2529 -1.2181 -1.3093
  623MOL0     H85944   0.404   3.962   3.774 -2.1160 -2.1406  1.6232
  623MOL0     H85945   0.425   4.111   3.679 -1.9543 -0.2639  0.0511
  623MOL0     H85946   0.198   4.063   3.894 -2.0463  0.9312  0.9658
  623MOL0     H85947   0.237   4.218   3.828  0.4912  0.1396  0.3583
  623MOL0     H85948   0.176   4.125   3.595  1.5384 -0.1986 -0.3880
  623MOL0     H85949   0.045   4.086   3.709  0.4715 -1.1865  1.7810
  623MOL0     H85950   0.138   3.842   3.743  1.3675  0.5753 -0.4080
  623MOL0     H85951   0.256   3.892   3.639 -0.7294 -0.2559 -1.3384
  623MOL0     H85952   0.083   3.774   3.531 -0.4070  0.0605  1.5560
  623MOL0     H85953   0.091   3.946   3.465  1.7033 -1.0991 -0.7693
  623MOL0     H85954   0.927   3.982   3.959 -1.0217  0.6165 -0.0757
  623MOL0     H85955   1.089   3.808   4.007 -0.9934 -1.4646 -0.6118
  623MOL0     H85956   1.382   3.561   3.716 -1.0031  1.5487  2.7151
  623MOL0     H85957   1.579   3.408   3.669  2.2918 -2.6583  1.7611
  623MOL0     H85958   1.100   2.877   5.104  2.9768  1.6758  0.3814
  623MOL0     H85959   1.028   2.642   5.186  2.7108 -1.7118  2.5250
  623MOL0     H85960   1.233   2.627   5.630 -2.1321 -2.4189  0.0996
  623MOL0     H85961   1.483   2.664   5.669  0.3995 -0.7502  0.6486
  623MOL0     H85962   1.804   2.688   5.577 -0.1342  1.0397 -0.7229
  623MOL0     H85963   1.683   2.605   5.686 -0.9670 -1.3183 -1.0466
  623MOL0     H85964   1.924   2.522   5.714 -1.8036  1.5634  0.9377
  623MOL0     H85965   1.905   2.488   5.533 -1.5765 -0.7818 -0.7845
  623MOL0     H85966   1.734   2.344   5.742  2.6966  0.7497  2.6291
  623MOL0     H85967   1.773   2.311   5.568  1.1287  2.8993 -1.0812
  623MOL0     H85968   1.998   2.219   5.651  1.5836  2.4632 -0.0646
  623MOL0     H85969   1.850   2.147   5.742 -4.2127  3.5728  1.3878
  623MOL0     H85970   2.091   2.363   6.013  0.9741  0.2043 -0.9658
  623MOL0     H85971   1.551   2.416   5.322  1.1046  1.7117 -1.2793
  623MOL0     H85972   1.273   2.444   5.168  0.7903  0.3585  0.0552
  623MOL0     H85973   1.364   2.300   5.218  1.1268  0.6477  1.8576
  623MOL0     H85974   1.190   2.325   5.275 -0.1361  0.1311  0.9492
  624MOL0     O85975   6.075   1.380   2.142  0.9984 -0.0618  0.6800
  624MOL0     C85976   6.184   1.374   2.191  0.1629 -0.6563  0.8153
  624MOL0     O85977   6.247   1.484   2.260 -1.6402  0.0800 -0.0275
  624MOL0     C85978   6.175   1.595   2.290  0.4424 -0.4643  0.6869
  624MOL0     C85979   6.139   1.617   2.416 -0.0365 -0.2473  0.5489
  624MOL0     C85980   6.074   1.728   2.457  0.1874 -0.2804  0.1157
  624MOL0     C85981   6.022   1.812   2.354 -0.8622  1.0324 -1.2738
  624MOL0     O85982   5.963   1.932   2.380 -0.3266  0.1063 -0.0071
  624MOL0     C85983   5.866   1.933   2.484 -0.5297 -1.0514 -0.9468
  624MOL0     C85984   5.801   2.075   2.501 -0.4311 -0.1260  0.4085
  624MOL0     C85985   5.889   2.193   2.456  0.4011 -0.7788  0.1585
  624MOL0     C85986   5.830   2.343   2.473 -0.2037  0.7471  0.4774
  624MOL0     C85987   5.937   2.440   2.442  0.1169  0.2250  0.0808
  624MOL0     C85988   6.034   2.454   2.558  0.0538 -0.1315 -0.3857
  624MOL0     C85989   6.156   2.546   2.542 -0.5146  0.2986 -0.2725
  624MOL0     C85990   6.254   2.463   2.448  0.3221 -0.3225 -0.2492
  624MOL0     N85991   6.346   2.391   2.523  0.1847 -0.3107  0.2463
  624MOL0     C85992   6.359   2.257   2.537  0.0118  0.1457 -0.4677
  624MOL0     C85993   6.457   2.240   2.622 -1.3751 -0.2358 -0.4694
  624MOL0     C85994   6.495   2.108   2.687 -0.4374  0.4492 -0.5176
  624MOL0     C85995   6.633   2.049   2.630 -0.2042 -0.0573  0.9921
  624MOL0     C85996   6.763   2.104   2.686  0.7200  0.1916  0.3404
  624MOL0     C85997   6.800   2.041   2.822 -0.0055  0.2107 -0.2034
  624MOL0     O85998   6.794   1.899   2.809 -0.0789  0.3428  0.6777
  624MOL0     C85999   6.866   1.815   2.891  0.5504 -0.3775  0.5228
  624MOL0     C86000   6.997   1.850   2.919  0.3712  0.0120  0.1770
  624MOL0     C86001   7.079   1.754   2.992 -0.2701 -0.3165 -0.6534
  624MOL0     C86002   7.221   1.784   3.020 -0.0003  0.4589 -0.7339
  624MOL0     C86003   7.016   1.641   3.047  0.4060  0.1371  0.0532
  624MOL0     C86004   7.075   1.557   3.141 -0.3077  0.6323  0.7271
  624MOL0     O86005   7.065   1.424   3.115 -0.1360  0.0244  0.4571
  624MOL0     C86006   7.114   1.324   3.198  0.2773 -0.2217 -0.4552
  624MOL0     C86007   7.023   1.275   3.297  0.3841  0.8172 -0.0771
  624MOL0     C86008   7.055   1.160   3.374 -0.6438 -0.2033  0.2253
  624MOL0     C86009   7.187   1.117   3.377  0.3667  0.4103 -0.3442
  624MOL0     O86010   7.209   1.007   3.461  0.4963 -0.2359 -0.2029
  624MOL0     C86011   7.332   0.937   3.455 -0.2803  0.6803 -0.7236
  624MOL0     C86012   7.361   0.861   3.581 -0.3075 -1.1772 -0.4678
  624MOL0     C86013   7.236   0.795   3.628  0.5835  0.7565  0.4558
  624MOL0     C86014   7.279   0.711   3.760  0.4408 -0.0871  0.0715
  624MOL0     C86015   7.369   0.588   3.716 -0.5202  0.0463  0.5504
  624MOL0     C86016   7.341   0.471   3.806  0.1267 -0.0551  0.2888
  624MOL0     C86017   7.364   0.508   3.950 -1.1210 -0.4142  0.3281
  624MOL0     C86018   7.399   0.387   4.042  0.4171 -0.8748  0.3230
  624MOL0    Cl86019   7.572   0.332   4.014 -0.3741  0.1603 -0.1917
  624MOL0     C86020   7.280   1.172   3.290 -0.2584  0.6002 -0.3100
  624MOL0     C86021   7.245   1.266   3.198 -0.6656 -0.4531  0.4079
  624MOL0     O86022   7.118   1.604   3.242 -0.1532 -0.8745 -0.3581
  624MOL0     C86023   6.879   1.617   3.027  0.1001 -0.3915  0.4750
  624MOL0     C86024   6.799   1.705   2.951  0.3307 -1.5586 -1.0486
  624MOL0     N86025   6.495   2.375   2.678  0.0739 -0.3332  0.4701
  624MOL0     N86026   6.428   2.460   2.614 -0.0179 -0.4269 -0.2241
  624MOL0     C86027   6.043   1.788   2.219  0.0441 -0.4999 -0.8447
  624MOL0     C86028   6.125   1.681   2.186 -0.7972  0.6094 -0.1659
  624MOL0     C86029   6.259   1.247   2.199  0.2497  0.4085 -0.8150
  624MOL0     C86030   6.242   1.148   2.098  0.1083 -0.4804 -0.6438
  624MOL0     C86031   6.336   1.035   2.087  0.5583  1.1351  0.1076
  624MOL0     C86032   6.435   1.013   2.181 -0.5731 -0.4526  0.2398
  624MOL0     O86033   6.512   0.895   2.183  0.2018 -0.2293  0.0404
  624MOL0     C86034   6.654   0.926   2.202  0.3899  0.4556 -0.0968
  624MOL0     C86035   6.723   0.941   2.073 -0.1374  0.1398  1.1404
  624MOL0     C86036   6.719   1.079   2.007 -0.8177  1.0450  0.6200
  624MOL0     C86037   6.835   1.165   2.062  0.6540  0.1775 -0.0394
  624MOL0     C86038   6.960   1.158   1.982 -0.1951 -0.3074 -0.7469
  624MOL0     C86039   7.072   1.136   1.928  0.1352 -0.5885 -0.3986
  624MOL0     C86040   6.444   1.108   2.280  0.4669  0.0111  0.8888
  624MOL0     C86041   6.363   1.218   2.293 -0.9205  0.6210 -0.5345
  624MOL0     C86042   6.373   1.293   2.427  0.0235 -0.0252 -0.2299
  624MOL0     H86043   6.186   1.560   2.495  1.3366  0.9413  0.6458
  624MOL0     H86044   6.068   1.753   2.562 -1.3037  0.4136 -0.1108
  624MOL0     H86045   5.920   1.902   2.573  0.8512  0.2384 -1.2963
  624MOL0     H86046   5.791   1.854   2.468 -0.3772 -1.1346 -1.2562
  624MOL0     H86047   5.703   2.076   2.454 -1.8594 -2.0786  3.0360
  624MOL0     H86048   5.772   2.091   2.605 -0.6896  1.1433  0.1519
  624MOL0     H86049   5.983   2.190   2.513  1.9851  2.2434 -2.0256
  624MOL0     H86050   5.924   2.173   2.354  3.3665 -1.1299  1.1367
  624MOL0     H86051   5.741   2.362   2.412 -1.9682  0.2492  2.7638
  624MOL0     H86052   5.800   2.354   2.577  2.2372 -0.0950  1.3459
  624MOL0     H86053   5.890   2.537   2.421 -0.9592 -0.4740 -0.8486
  624MOL0     H86054   5.986   2.407   2.350 -3.0522 -1.7640 -1.0540
  624MOL0     H86055   5.972   2.479   2.645 -3.1288 -2.6845 -1.7227
  624MOL0     H86056   6.072   2.353   2.578  4.3178  1.1720 -0.9148
  624MOL0     H86057   6.194   2.568   2.642 -2.0937  2.0376  0.0121
  624MOL0     H86058   6.134   2.645   2.501 -0.7377  0.1780 -0.4505
  624MOL0     H86059   6.198   2.412   2.370 -1.4613  2.5819 -1.0430
  624MOL0     H86060   6.311   2.535   2.388 -1.7297  0.3679 -1.4574
  624MOL0     H86061   6.296   2.178   2.498 -2.3509  1.9152 -0.4917
  624MOL0     H86062   6.413   2.036   2.671  2.1780 -4.0711  3.6351
  624MOL0     H86063   6.497   2.121   2.796  3.9887  0.4868 -0.4245
  624MOL0     H86064   6.633   1.940   2.629  1.5553 -0.0911  0.3895
  624MOL0     H86065   6.637   2.055   2.521 -0.2184  1.1353  1.0446
  624MOL0     H86066   6.839   2.072   2.614 -1.0901 -1.1461 -1.0516
  624MOL0     H86067   6.750   2.212   2.681  0.5437  0.1340 -0.6314
  624MOL0     H86068   6.901   2.070   2.851  0.4716 -1.0240 -0.5971
  624MOL0     H86069   6.723   2.061   2.897  1.8837 -1.9242  2.5312
  624MOL0     H86070   7.053   1.934   2.880 -0.2851  0.3465 -0.0656
  624MOL0     H86071   7.255   1.819   3.118  3.4680 -2.1391 -0.8239
  624MOL0     H86072   7.262   1.852   2.944  4.0479  0.2377  0.9951
  624MOL0     H86073   7.279   1.693   3.006 -0.9525 -0.1127 -0.9869
  624MOL0     H86074   6.921   1.311   3.296 -1.2907 -3.4467  0.1946
  624MOL0     H86075   6.980   1.107   3.432 -0.3930 -1.8435 -0.8669
  624MOL0     H86076   7.327   0.860   3.378 -0.2771 -0.2616  0.2011
  624MOL0     H86077   7.418   0.997   3.423 -0.0596  0.5844 -0.3136
  624MOL0     H86078   7.435   0.780   3.571  2.1866  0.1342  4.2505
  624MOL0     H86079   7.405   0.931   3.652  1.3949 -1.0680 -1.5701
  624MOL0     H86080   7.212   0.716   3.556  1.5711 -0.5856  1.5273
  624MOL0     H86081   7.146   0.854   3.646  1.9209  2.2971  2.4319
  624MOL0     H86082   7.181   0.673   3.791  0.5683 -0.1651  0.3802
  624MOL0     H86083   7.329   0.767   3.839  0.9088  0.3303 -0.5104
  624MOL0     H86084   7.341   0.552   3.617 -0.3718  0.3283  0.4067
  624MOL0     H86085   7.475   0.613   3.713 -0.9444  2.1358  1.2184
  624MOL0     H86086   7.403   0.385   3.778 -0.1046 -0.6102  1.4243
  624MOL0     H86087   7.238   0.439   3.787  0.0829  0.3315 -0.1512
  624MOL0     H86088   7.269   0.554   3.979  0.4078  1.9855  1.8632
  624MOL0     H86089   7.438   0.587   3.961 -0.7399 -0.8980  1.3153
  624MOL0     H86090   7.335   0.301   4.023 -0.3412 -1.3983  4.4162
  624MOL0     H86091   7.378   0.408   4.147  0.3773  3.2163 -0.3428
  624MOL0     H86092   7.385   1.144   3.291 -0.3978  0.0755  0.1836
  624MOL0     H86093   7.309   1.291   3.114 -2.3163  2.6969 -0.0730
  624MOL0     H86094   6.835   1.528   3.072  0.9494 -1.7670 -1.2991
  624MOL0     H86095   6.694   1.688   2.930  0.7482 -1.3095 -3.6231
  624MOL0     H86096   6.008   1.864   2.150  1.7273  0.5584 -0.6095
  624MOL0     H86097   6.145   1.658   2.082 -2.1520  0.8748 -0.5045
  624MOL0     H86098   6.160   1.159   2.028 -0.0482  2.4036 -0.1482
  624MOL0     H86099   6.329   0.954   2.015 -1.8411  0.1177  1.3748
  624MOL0     H86100   6.675   1.018   2.257 -1.0622  1.4679 -1.1498
  624MOL0     H86101   6.686   0.837   2.257  1.0385 -0.3135 -1.6681
  624MOL0     H86102   6.666   0.873   2.009 -0.5651  1.2126  0.3374
  624MOL0     H86103   6.824   0.900   2.073  0.1912  0.8348 -0.8244
  624MOL0     H86104   6.730   1.068   1.899 -0.1739  1.6229  0.6198
  624MOL0     H86105   6.621   1.124   2.024 -1.6675 -0.0041 -1.2478
  624MOL0     H86106   6.860   1.130   2.163 -2.6169  1.1418  1.2430
  624MOL0     H86107   6.806   1.270   2.074 -4.6031 -1.0132  0.3268
  624MOL0     H86108   7.176   1.127   1.905 -0.3376 -2.2667 -2.0464
  624MOL0     H86109   6.509   1.094   2.366  3.2745  0.2963 -1.0348
  624MOL0     H86110   6.272   1.317   2.459 -0.8176  0.0377 -2.7232
  624MOL0     H86111   6.426   1.235   2.503  1.5459  2.7104  0.9510
  624MOL0     H86112   6.429   1.387   2.432 -2.9733  1.8468  3.3698
  625MOL0     O86113   0.825   7.367   0.303 -0.3258 -0.7760  0.2109
  625MOL0     C86114   0.833   7.492   0.308  0.3173  0.3349 -0.3698
  625MOL0     O86115   0.875   7.551   0.423 -0.3131  0.1506 -0.1280
  625MOL0     C86116   0.829   7.510   0.543 -0.5336 -0.2321  0.1839
  625MOL0     C86117   0.903   7.568   0.645 -0.4808  0.3592  0.3374
  625MOL0     C86118   0.865   7.543   0.777  0.1989  0.3101 -0.3775
  625MOL0     C86119   0.747   7.477   0.817 -0.0763 -0.5655 -0.5766
  625MOL0     O86120   0.701   7.466   0.945 -0.1219  0.1450 -0.3129
  625MOL0     C86121   0.773   7.535   1.046 -0.3911 -0.6968  0.2154
  625MOL0     C86122   0.727   7.480   1.186  0.5296 -0.2248  0.6076
  625MOL0     C86123   0.762   7.582   1.287 -0.4750  0.1490 -1.2176
  625MOL0     C86124   0.689   7.539   1.416  0.4923 -0.1091 -0.3589
  625MOL0     C86125   0.696   7.633   1.532  0.2691  0.7547 -1.3385
  625MOL0     C86126   0.685   7.565   1.672  0.8807  0.0245  0.9411
  625MOL0     C86127   0.744   7.659   1.775 -0.3784 -0.3770 -0.3308
  625MOL0     C86128   0.677   7.632   1.905 -0.5534  1.5813  0.8938
  625MOL0     N86129   0.562   7.717   1.930  0.3195  0.9253  0.1580
  625MOL0     C86130   0.561   7.834   1.999  0.9709  0.8698 -0.2003
  625MOL0     C86131   0.441   7.886   1.983 -0.7315 -0.1226 -0.4739
  625MOL0     C86132   0.403   8.020   2.038 -0.3039 -0.5394  0.0186
  625MOL0     C86133   0.416   8.049   2.191 -0.2689  0.2797 -0.3856
  625MOL0     C86134   0.306   7.965   2.261  0.0238 -0.0458  0.2558
  625MOL0     C86135   0.162   8.006   2.231  0.7608  0.5024 -0.4524
  625MOL0     O86136   0.148   8.134   2.178 -0.3260 -0.3500 -0.6713
  625MOL0     C86137   0.029   8.184   2.217  0.3101 -0.6703 -0.2925
  625MOL0     C86138  -0.085   8.131   2.170  0.7793  0.5517 -0.6068
  625MOL0     C86139  -0.209   8.177   2.204  0.3643 -0.5006 -0.3980
  625MOL0     C86140  -0.326   8.121   2.143 -0.1366 -0.6355 -0.1051
  625MOL0     C86141  -0.211   8.277   2.312  0.3522  0.0803 -0.4041
  625MOL0     C86142  -0.335   8.353   2.359  0.3268  0.1570  0.1653
  625MOL0     O86143  -0.459   8.312   2.317 -0.8533  0.4486  1.0225
  625MOL0     C86144  -0.578   8.391   2.293 -0.4487 -0.6420  0.7305
  625MOL0     C86145  -0.682   8.347   2.210 -0.4339  0.6659  1.5196
  625MOL0     C86146  -0.803   8.409   2.203  0.2948 -0.0692 -0.2202
  625MOL0     C86147  -0.830   8.522   2.277 -0.4614 -0.3984  1.0474
  625MOL0     O86148  -0.957   8.575   2.253 -0.5301 -0.3804 -0.1815
  625MOL0     C86149  -0.979   8.712   2.280 -0.7018 -0.3867 -0.0585
  625MOL0     C86150  -1.114   8.789   2.256 -0.0284  0.2748 -0.3665
  625MOL0     C86151  -1.093   8.933   2.236  0.6820 -0.9831  0.0557
  625MOL0     C86152  -1.218   9.018   2.221 -0.5928 -0.7165 -0.6610
  625MOL0     C86153  -1.270   9.017   2.078  0.6295  0.1751  0.0172
  625MOL0     C86154  -1.393   9.108   2.066  0.0707 -0.4864  0.1150
  625MOL0     C86155  -1.347   9.253   2.050  0.8958 -0.0828  0.4687
  625MOL0     C86156  -1.327   9.300   1.902  0.8035 -0.3712  0.1222
  625MOL0    Cl86157  -1.278   9.462   1.909 -0.1558  0.6401 -0.4644
  625MOL0     C86158  -0.723   8.585   2.351  0.2723 -0.5932 -0.0246
  625MOL0     C86159  -0.603   8.517   2.365 -0.4643  0.1918  0.1668
  625MOL0     O86160  -0.316   8.451   2.432  0.1744 -0.2189  0.3541
  625MOL0     C86161  -0.095   8.317   2.375 -0.3165 -0.5282 -0.4878
  625MOL0     C86162   0.026   8.271   2.321 -0.4489  0.2813 -0.1335
  625MOL0     N86163   0.366   7.805   1.905  1.1082 -0.0812 -0.5337
  625MOL0     N86164   0.437   7.699   1.881  0.5060  0.6422  0.0017
  625MOL0     C86165   0.678   7.421   0.712  0.1685  0.1785  0.4198
  625MOL0     C86166   0.711   7.442   0.575 -1.7577  0.1070 -0.3627
  625MOL0     C86167   0.774   7.563   0.189  1.2461  0.1234 -0.1909
  625MOL0     C86168   0.647   7.513   0.160  0.5543  0.7947  0.1830
  625MOL0     C86169   0.560   7.576   0.064 -0.2664  0.3232  1.1784
  625MOL0     C86170   0.596   7.695   0.001  0.3084 -0.0016 -0.4205
  625MOL0     O86171   0.509   7.743  -0.089  0.4232  0.2704 -0.2762
  625MOL0     C86172   0.531   7.876  -0.150  1.1608 -0.2860  0.5927
  625MOL0     C86173   0.438   7.907  -0.270 -1.0306  0.6811 -0.1786
  625MOL0     C86174   0.306   7.944  -0.204 -0.4877  0.8514 -0.4451
  625MOL0     C86175   0.194   7.844  -0.255 -0.2784  0.1282  0.2929
  625MOL0     C86176   0.061   7.862  -0.201  0.5688 -1.2157  0.2050
  625MOL0     C86177  -0.049   7.882  -0.144  0.4839  0.6267 -0.0266
  625MOL0     C86178   0.717   7.748   0.040 -0.4489  0.3616  0.2536
  625MOL0     C86179   0.812   7.683   0.122  0.1140  0.5106 -0.3013
  625MOL0     C86180   0.939   7.740   0.150  0.9044 -0.4262 -0.9411
  625MOL0     H86181   0.994   7.624   0.626  2.3080 -2.7901  3.0884
  625MOL0     H86182   0.920   7.607   0.845  1.7001 -1.9505  0.6506
  625MOL0     H86183   0.746   7.640   1.036 -0.1233 -0.4115  2.1450
  625MOL0     H86184   0.882   7.527   1.041 -0.3544  0.2542 -1.0273
  625MOL0     H86185   0.618   7.478   1.191  0.5175 -1.5903  0.1148
  625MOL0     H86186   0.769   7.381   1.203  2.0702  0.3061  0.0945
  625MOL0     H86187   0.870   7.592   1.298  0.0353  3.4436 -5.9298
  625MOL0     H86188   0.732   7.683   1.257 -1.4769  0.4767  0.7372
  625MOL0     H86189   0.582   7.524   1.400  0.8496  0.4331 -4.1208
  625MOL0     H86190   0.736   7.442   1.435  1.3713 -0.1273 -2.4681
  625MOL0     H86191   0.621   7.713   1.531  0.0682  0.5617 -2.4423
  625MOL0     H86192   0.795   7.680   1.527  0.8470 -0.3701 -0.8165
  625MOL0     H86193   0.581   7.538   1.694  1.5185 -2.1065  1.6135
  625MOL0     H86194   0.738   7.471   1.691  0.1917 -0.2566  1.5105
  625MOL0     H86195   0.736   7.766   1.755 -1.3452 -0.1638  1.0783
  625MOL0     H86196   0.851   7.653   1.800 -0.1017  1.8753 -0.7520
  625MOL0     H86197   0.644   7.528   1.903  2.9402  0.2960 -2.3314
  625MOL0     H86198   0.752   7.617   1.984  5.3670 -2.5311 -4.5089
  625MOL0     H86199   0.642   7.874   2.060  0.5326  1.7071 -0.1480
  625MOL0     H86200   0.299   8.040   2.010 -0.3242 -0.9258 -0.1832
  625MOL0     H86201   0.465   8.098   1.994 -1.3933 -1.5097 -3.5938
  625MOL0     H86202   0.503   8.026   2.253 -1.9645 -0.4199  1.9079
  625MOL0     H86203   0.396   8.156   2.208  2.7633  0.6950  1.4435
  625MOL0     H86204   0.319   7.858   2.244  2.3324  0.5635 -2.8173
  625MOL0     H86205   0.324   7.983   2.367 -0.5244  0.2446  0.3039
  625MOL0     H86206   0.123   7.931   2.162  1.0120 -2.5518  2.4860
  625MOL0     H86207   0.104   7.980   2.320  2.2009 -4.2261 -0.6093
  625MOL0     H86208  -0.072   8.065   2.085 -0.5642  1.6421 -1.7235
  625MOL0     H86209  -0.299   8.063   2.055 -0.9342  1.8842 -2.1071
  625MOL0     H86210  -0.393   8.199   2.105  1.9718  1.4518  0.2188
  625MOL0     H86211  -0.370   8.060   2.223  0.3194  2.9324  3.2005
  625MOL0     H86212  -0.665   8.248   2.167 -1.1974  0.2222  2.2295
  625MOL0     H86213  -0.885   8.367   2.145  1.2396 -0.5700 -1.2312
  625MOL0     H86214  -0.971   8.731   2.388 -0.6691 -2.8057  0.4296
  625MOL0     H86215  -0.896   8.769   2.237  0.7204 -1.3559  1.2463
  625MOL0     H86216  -1.168   8.750   2.170  0.2368 -0.8655 -0.0314
  625MOL0     H86217  -1.179   8.765   2.341  0.0552 -2.1531 -0.9394
  625MOL0     H86218  -1.040   8.959   2.145  1.9935  1.3477  1.3865
  625MOL0     H86219  -1.030   8.966   2.320  1.6188 -2.1943 -0.1568
  625MOL0     H86220  -1.195   9.124   2.234 -1.9038 -0.3665 -1.0577
  625MOL0     H86221  -1.293   9.003   2.299  1.6830  2.6184  2.4824
  625MOL0     H86222  -1.193   9.038   2.004  1.2536 -4.0868 -0.7803
  625MOL0     H86223  -1.317   8.918   2.075  0.7510  0.0016  2.0399
  625MOL0     H86224  -1.450   9.113   2.160 -4.4745  2.9337 -2.4324
  625MOL0     H86225  -1.449   9.074   1.979 -1.0638  2.3102 -0.3185
  625MOL0     H86226  -1.255   9.266   2.107 -0.1782  0.3484  2.1808
  625MOL0     H86227  -1.421   9.319   2.097 -0.2731 -0.4383 -0.7931
  625MOL0     H86228  -1.414   9.287   1.837  1.9733  1.6799 -2.0268
  625MOL0     H86229  -1.247   9.251   1.845  1.5946 -0.6533  1.4467
  625MOL0     H86230  -0.757   8.674   2.402 -0.5787 -0.6218 -0.5284
  625MOL0     H86231  -0.540   8.571   2.435 -2.4191  1.5522  0.9662
  625MOL0     H86232  -0.079   8.405   2.437  1.3192 -0.9887 -0.2100
  625MOL0     H86233   0.119   8.315   2.357 -0.8831 -0.2592  1.7494
  625MOL0     H86234   0.583   7.370   0.720 -1.3609  2.5674 -1.3586
  625MOL0     H86235   0.647   7.399   0.499 -1.0784 -4.6882  1.3723
  625MOL0     H86236   0.622   7.418   0.205  4.7241 -0.1649  0.9069
  625MOL0     H86237   0.464   7.538   0.029 -0.8031  3.8766 -1.8787
  625MOL0     H86238   0.517   7.966  -0.088 -2.8789  1.2911 -2.2183
  625MOL0     H86239   0.637   7.884  -0.175  0.6690 -1.4149 -2.2044
  625MOL0     H86240   0.433   7.814  -0.326  1.0712  0.6994 -0.4851
  625MOL0     H86241   0.477   7.987  -0.333  0.1001  0.6344  0.4283
  625MOL0     H86242   0.313   7.951  -0.095 -0.2684  1.6112 -0.5005
  625MOL0     H86243   0.274   8.045  -0.230 -0.2506  0.8306 -0.8162
  625MOL0     H86244   0.208   7.736  -0.257 -1.2186 -0.0420 -3.0014
  625MOL0     H86245   0.183   7.866  -0.362 -1.5715  3.7442  1.0021
  625MOL0     H86246  -0.135   7.908  -0.086  0.4566  2.3564 -0.7659
  625MOL0     H86247   0.751   7.848   0.014  2.1513 -0.4315  0.3180
  625MOL0     H86248   1.001   7.661   0.194  1.0977  0.0854 -0.2674
  625MOL0     H86249   0.988   7.789   0.065  0.7747  3.0559  0.7948
  625MOL0     H86250   0.929   7.831   0.210 -1.8903 -0.4020 -1.3048
  626MOL0     O86251   4.606   9.324   3.520  0.3630  0.9860  0.2320
  626MOL0     C86252   4.645   9.402   3.606 -0.0407  0.3974  0.2005
  626MOL0     O86253   4.596   9.528   3.626 -0.5435 -0.1948  0.0458
  626MOL0     C86254   4.498   9.570   3.541  0.2161  0.4299  0.0839
  626MOL0     C86255   4.364   9.546   3.572 -0.7159 -0.0248 -0.9528
  626MOL0     C86256   4.268   9.605   3.490 -0.0232  0.5147  0.1443
  626MOL0     C86257   4.303   9.666   3.366  0.2899 -0.4698 -0.7938
  626MOL0     O86258   4.223   9.717   3.264  0.3670  0.3134 -0.3478
  626MOL0     C86259   4.081   9.681   3.286  0.0829  0.1442 -0.8759
  626MOL0     C86260   4.001   9.704   3.163 -0.0132  0.3367 -0.0642
  626MOL0     C86261   4.054   9.633   3.036  0.8084  0.3383  0.6659
  626MOL0     C86262   3.958   9.645   2.912 -0.0589  0.5284 -0.3475
  626MOL0     C86263   3.971   9.532   2.806  0.1775 -0.0961 -0.6048
  626MOL0     C86264   4.114   9.543   2.744  0.4380 -0.1928 -0.0074
  626MOL0     C86265   4.127   9.443   2.627  0.7081 -0.5882 -0.2563
  626MOL0     C86266   4.119   9.299   2.668  0.3739  0.3238  0.5210
  626MOL0     N86267   3.990   9.235   2.649 -0.7152 -0.9276  0.1405
  626MOL0     C86268   3.911   9.248   2.538  0.9518  0.2693 -0.1274
  626MOL0     C86269   3.787   9.193   2.576  0.0387  0.0450  0.4620
  626MOL0     C86270   3.647   9.201   2.494 -0.4010  0.0275 -0.7042
  626MOL0     C86271   3.588   9.344   2.502  1.0649  0.5396 -0.4411
  626MOL0     C86272   3.578   9.386   2.651  0.7919  0.7406 -1.1436
  626MOL0     C86273   3.486   9.303   2.724 -0.0256  0.5339  0.2333
  626MOL0     O86274   3.456   9.355   2.859  0.2725 -0.1707  0.0017
  626MOL0     C86275   3.503   9.283   2.967  0.6560  0.7205 -0.0976
  626MOL0     C86276   3.641   9.267   2.991 -0.0038 -0.0089  0.0033
  626MOL0     C86277   3.686   9.212   3.110  0.2026  0.1796  0.1229
  626MOL0     C86278   3.837   9.183   3.124 -0.5985  0.0334 -0.8459
  626MOL0     C86279   3.591   9.165   3.202  0.3767 -0.3662 -0.0252
  626MOL0     C86280   3.628   9.097   3.325  0.4856 -0.2056 -0.4644
  626MOL0     O86281   3.547   9.112   3.438 -0.1660 -0.3268 -0.2404
  626MOL0     C86282   3.596   9.066   3.559 -0.0671  0.5301 -0.0445
  626MOL0     C86283   3.507   8.988   3.636  0.4020  0.2596 -0.0918
  626MOL0     C86284   3.539   8.945   3.771  0.3792  0.1382  1.2069
  626MOL0     C86285   3.664   8.970   3.819  0.7365  0.4984 -1.1348
  626MOL0     O86286   3.706   8.911   3.937  0.3594 -0.0221 -0.5433
  626MOL0     C86287   3.651   8.787   3.990  0.5086 -0.2925 -0.5086
  626MOL0     C86288   3.730   8.745   4.114 -0.1593 -0.2721  0.2372
  626MOL0     C86289   3.631   8.688   4.218 -1.0203  0.6742 -0.7303
  626MOL0     C86290   3.720   8.656   4.346  0.7227  0.4521 -0.6827
  626MOL0     C86291   3.652   8.551   4.427 -0.1667 -0.1558  0.4357
  626MOL0     C86292   3.725   8.532   4.567  0.6282  0.4645  0.4338
  626MOL0     C86293   3.649   8.445   4.660  0.1393 -0.6418 -0.9215
  626MOL0     C86294   3.682   8.471   4.807 -0.2449 -0.0940 -0.2117
  626MOL0    Cl86295   3.561   8.377   4.916  0.0166  0.4777  0.2628
  626MOL0     C86296   3.749   9.057   3.745 -0.6938  0.3005 -0.2321
  626MOL0     C86297   3.708   9.113   3.620  0.3221  0.5421 -0.2421
  626MOL0     O86298   3.725   9.027   3.331 -0.1365 -0.6794 -0.1033
  626MOL0     C86299   3.451   9.181   3.178  0.0743 -1.1785 -0.6000
  626MOL0     C86300   3.410   9.242   3.062  0.4717 -1.1364 -0.2110
  626MOL0     N86301   3.801   9.145   2.704  0.7763 -0.0910  0.1359
  626MOL0     N86302   3.922   9.165   2.744  0.2816  0.1613  0.4141
  626MOL0     C86303   4.438   9.684   3.343  0.0352 -0.3619  0.5414
  626MOL0     C86304   4.531   9.647   3.428 -0.4917 -0.2240 -0.3411
  626MOL0     C86305   4.752   9.370   3.700 -0.8858  0.3410 -0.4120
  626MOL0     C86306   4.794   9.468   3.790 -0.0405 -0.0518 -0.1823
  626MOL0     C86307   4.893   9.444   3.889 -0.2567  0.4635 -0.1618
  626MOL0     C86308   4.961   9.319   3.884  0.8133  0.5576 -0.1534
  626MOL0     O86309   5.058   9.287   3.976 -0.6614 -0.0788 -0.5262
  626MOL0     C86310   5.182   9.356   3.973 -0.3410 -0.2916 -0.4759
  626MOL0     C86311   5.286   9.251   4.022 -0.7584 -0.3838  0.4715
  626MOL0     C86312   5.295   9.252   4.173 -1.2858 -0.8011 -0.2369
  626MOL0     C86313   5.399   9.156   4.238 -0.0539 -0.2254 -0.6154
  626MOL0     C86314   5.371   9.135   4.380  0.2215  0.0779 -0.1829
  626MOL0     C86315   5.342   9.135   4.498  0.3388 -0.6329  0.6468
  626MOL0     C86316   4.917   9.217   3.793  0.3661  0.4702  0.3498
  626MOL0     C86317   4.812   9.243   3.706  0.1063  0.3099 -0.1566
  626MOL0     C86318   4.773   9.122   3.621 -0.0495  0.4990 -0.4461
  626MOL0     H86319   4.343   9.491   3.663  0.0478  0.1962 -0.6371
  626MOL0     H86320   4.164   9.609   3.522 -1.0897 -1.5505 -2.6682
  626MOL0     H86321   4.038   9.735   3.371 -0.5905  2.4376 -2.5848
  626MOL0     H86322   4.069   9.575   3.308 -0.2455  0.0874 -1.3201
  626MOL0     H86323   3.897   9.681   3.187 -0.1020  0.1811 -0.5787
  626MOL0     H86324   4.003   9.812   3.145  0.6698  0.4038  0.3548
  626MOL0     H86325   4.158   9.660   3.012  1.8065 -1.9658  1.9875
  626MOL0     H86326   4.058   9.529   3.071  0.0498  0.4453  1.0875
  626MOL0     H86327   3.855   9.637   2.947 -0.4581  0.3607 -1.5436
  626MOL0     H86328   3.962   9.745   2.868 -1.7393  1.1190  0.7433
  626MOL0     H86329   3.892   9.552   2.734 -1.6359  2.6204  1.9148
  626MOL0     H86330   3.948   9.430   2.838  1.7728 -1.1406 -2.5659
  626MOL0     H86331   4.128   9.646   2.709 -3.9524  0.4823 -0.4146
  626MOL0     H86332   4.190   9.514   2.817 -1.7726 -1.9865  1.7288
  626MOL0     H86333   4.224   9.460   2.578  1.2290 -2.0592  0.1918
  626MOL0     H86334   4.052   9.470   2.553 -1.7589  0.8095  2.5783
  626MOL0     H86335   4.190   9.246   2.604  0.3966  0.0643  0.7573
  626MOL0     H86336   4.152   9.288   2.772  2.7807  0.6600 -0.1520
  626MOL0     H86337   3.949   9.284   2.443  1.5246 -0.1469 -0.0603
  626MOL0     H86338   3.577   9.133   2.544 -1.7475  1.2594 -0.8747
  626MOL0     H86339   3.661   9.165   2.391 -2.2831  1.3398 -1.4622
  626MOL0     H86340   3.640   9.424   2.449  0.0893  2.6959  1.6732
  626MOL0     H86341   3.491   9.340   2.451  0.8435  1.2727 -0.0971
  626MOL0     H86342   3.675   9.379   2.702  0.1145 -0.6131  0.0006
  626MOL0     H86343   3.566   9.495   2.653 -0.1726  0.6277 -0.4576
  626MOL0     H86344   3.398   9.281   2.663  0.5434 -0.9072 -0.1019
  626MOL0     H86345   3.537   9.206   2.732  1.4737  0.8193 -3.7865
  626MOL0     H86346   3.714   9.317   2.929  1.4152  0.8042  2.1942
  626MOL0     H86347   3.838   9.074   3.110  0.9164 -0.2050  0.7390
  626MOL0     H86348   3.879   9.206   3.222 -0.5090 -2.6677 -0.1618
  626MOL0     H86349   3.904   9.242   3.061  1.2368  0.3358  1.2716
  626MOL0     H86350   3.408   8.978   3.593 -0.9039  3.3559  1.8351
  626MOL0     H86351   3.471   8.886   3.831 -0.5619 -1.4231 -1.2386
  626MOL0     H86352   3.542   8.780   3.995  0.4658 -0.9011 -1.9091
  626MOL0     H86353   3.664   8.709   3.915  0.2248 -0.2152 -0.6410
  626MOL0     H86354   3.802   8.672   4.076 -1.4070  0.0260 -3.0128
  626MOL0     H86355   3.787   8.828   4.157 -0.4563  1.8066 -2.9826
  626MOL0     H86356   3.585   8.594   4.187 -1.6278 -0.9873  4.2654
  626MOL0     H86357   3.556   8.764   4.241  0.0358  1.1929  1.2432
  626MOL0     H86358   3.747   8.741   4.410 -2.5762  1.9714 -1.1336
  626MOL0     H86359   3.819   8.620   4.317  2.0687  2.5275  1.0130
  626MOL0     H86360   3.552   8.579   4.463 -1.1475 -1.7569 -0.9094
  626MOL0     H86361   3.642   8.458   4.370  0.7120  0.9460 -1.5920
  626MOL0     H86362   3.735   8.627   4.621 -0.1078 -0.8809  3.0992
  626MOL0     H86363   3.827   8.503   4.540  1.4689  3.0326  0.5239
  626MOL0     H86364   3.654   8.338   4.637  0.5529 -0.9866  0.6781
  626MOL0     H86365   3.545   8.477   4.662 -0.1177 -1.4813 -0.2604
  626MOL0     H86366   3.662   8.577   4.825 -1.9039 -0.6071  1.3085
  626MOL0     H86367   3.788   8.458   4.830 -1.0356 -2.9358  2.5097
  626MOL0     H86368   3.838   9.094   3.795  1.1621  1.9014 -4.2620
  626MOL0     H86369   3.763   9.193   3.572  2.5166 -1.2072 -0.8207
  626MOL0     H86370   3.365   9.148   3.236 -0.3449 -0.8013 -1.0079
  626MOL0     H86371   3.310   9.267   3.028  1.4150  1.0261 -1.6693
  626MOL0     H86372   4.467   9.735   3.252 -0.6829 -2.1699 -0.7689
  626MOL0     H86373   4.631   9.662   3.390 -1.0339 -0.5898 -2.0317
  626MOL0     H86374   4.747   9.565   3.801 -2.2489 -1.3386  3.8131
  626MOL0     H86375   4.921   9.521   3.960 -0.7579  1.0163 -0.5536
  626MOL0     H86376   5.210   9.390   3.873  1.4570 -2.8294 -0.9286
  626MOL0     H86377   5.179   9.444   4.038  0.3852  0.6832 -1.7183
  626MOL0     H86378   5.373   9.290   3.969 -1.4413 -0.6584 -0.8949
  626MOL0     H86379   5.273   9.148   3.986 -1.2725 -1.3677  3.2539
  626MOL0     H86380   5.323   9.356   4.193  2.8447 -1.4520 -1.7757
  626MOL0     H86381   5.193   9.231   4.206 -0.9129 -1.5523  0.4663
  626MOL0     H86382   5.500   9.199   4.232  1.3662 -2.4060  3.4490
  626MOL0     H86383   5.388   9.056   4.195 -0.8888 -0.0500 -0.8111
  626MOL0     H86384   5.329   9.131   4.604 -0.9401 -0.1183  0.5335
  626MOL0     H86385   4.960   9.120   3.815  3.4182  0.8950 -2.8902
  626MOL0     H86386   4.664   9.112   3.624 -0.0299  0.3894  0.3392
  626MOL0     H86387   4.804   9.134   3.517  1.1223  1.3335 -0.0211
  626MOL0     H86388   4.816   9.031   3.665  4.1396  1.2259 -2.5804
  627MOL0     O86389   4.635   3.602   6.595 -0.4862  0.4999  0.4971
  627MOL0     C86390   4.643   3.670   6.695  0.0658 -0.9612 -0.1680
  627MOL0     O86391   4.549   3.758   6.737 -0.1917 -0.0260 -0.2676
  627MOL0     C86392   4.428   3.765   6.674  0.5802 -0.1439 -0.0365
  627MOL0     C86393   4.420   3.828   6.548  0.1290  0.7757  0.2295
  627MOL0     C86394   4.303   3.869   6.487  0.4295  0.1178 -0.0356
  627MOL0     C86395   4.179   3.825   6.551 -0.7013 -0.1313 -0.1527
  627MOL0     O86396   4.063   3.854   6.485  0.9492 -1.0639  0.6520
  627MOL0     C86397   4.047   3.996   6.462  0.1906 -0.8395  0.9067
  627MOL0     C86398   3.926   4.016   6.361  0.5276  0.5883  0.3313
  627MOL0     C86399   3.977   3.977   6.223 -0.2633 -0.7050  0.0310
  627MOL0     C86400   3.870   3.943   6.113  0.5302 -0.7001  0.7398
  627MOL0     C86401   3.932   3.929   5.979 -0.9234 -0.4015  1.0585
  627MOL0     C86402   3.849   3.846   5.880 -0.0195  0.0872  0.0721
  627MOL0     C86403   3.909   3.841   5.736  0.1508 -0.0568  0.4624
  627MOL0     C86404   3.823   3.748   5.642 -0.2683  0.3811  0.3176
  627MOL0     N86405   3.738   3.826   5.553  0.3666 -0.7082  0.6505
  627MOL0     C86406   3.620   3.897   5.587 -0.1596  0.1843  0.3586
  627MOL0     C86407   3.544   3.904   5.474 -0.2460 -0.3181  0.9865
  627MOL0     C86408   3.397   3.934   5.459  0.5061  0.0120  0.3887
  627MOL0     C86409   3.361   4.075   5.410 -0.4548  0.6943  0.8611
  627MOL0     C86410   3.402   4.198   5.490 -0.4732  0.2236 -0.2006
  627MOL0     C86411   3.321   4.328   5.478 -0.3105 -0.4548 -0.1920
  627MOL0     O86412   3.350   4.390   5.354 -1.1775 -0.1139 -0.0891
  627MOL0     C86413   3.255   4.411   5.258  0.5371 -0.4795  0.6214
  627MOL0     C86414   3.296   4.501   5.164  0.1835 -0.9914 -0.5406
  627MOL0     C86415   3.221   4.535   5.049  0.0013 -0.3923 -0.6117
  627MOL0     C86416   3.276   4.653   4.965  0.4366  0.3048  0.0120
  627MOL0     C86417   3.100   4.469   5.022  0.4173  0.4343 -0.5740
  627MOL0     C86418   3.013   4.485   4.901 -0.2217  0.3576 -0.2805
  627MOL0     O86419   2.896   4.413   4.901  0.0526 -0.0318 -0.3778
  627MOL0     C86420   2.811   4.427   4.793 -1.5585  0.4527 -0.1319
  627MOL0     C86421   2.817   4.344   4.681  0.9552  0.9643 -0.6474
  627MOL0     C86422   2.751   4.373   4.566 -0.2465  0.5819  0.2722
  627MOL0     C86423   2.662   4.488   4.573 -0.2659 -0.4584  0.0894
  627MOL0     O86424   2.585   4.510   4.458  0.1979  0.1030 -0.4278
  627MOL0     C86425   2.476   4.605   4.445  0.1514 -0.3690 -0.2884
  627MOL0     C86426   2.341   4.525   4.468 -0.2893  0.9135  0.7048
  627MOL0     C86427   2.329   4.424   4.355 -0.1117  0.8628 -0.0084
  627MOL0     C86428   2.234   4.455   4.253  0.8028 -0.0293  0.2505
  627MOL0     C86429   2.250   4.360   4.136 -0.1741  1.2750  0.0598
  627MOL0     C86430   2.171   4.415   4.016  0.1087  0.0988 -0.5117
  627MOL0     C86431   2.111   4.311   3.912  0.3637  0.9292  0.2830
  627MOL0     C86432   2.062   4.357   3.783 -0.1330 -1.3349 -1.2996
  627MOL0    Cl86433   2.090   4.222   3.664  0.5571 -0.1603 -0.1518
  627MOL0     C86434   2.653   4.565   4.689  0.1479  1.0654 -0.6354
  627MOL0     C86435   2.724   4.532   4.798  0.0755  0.0118 -0.2934
  627MOL0     O86436   3.055   4.547   4.802  0.1249  0.1846  0.2118
  627MOL0     C86437   3.062   4.372   5.118  0.2462 -0.8087  0.3366
  627MOL0     C86438   3.134   4.353   5.235  0.3414  1.4252  0.8217
  627MOL0     N86439   3.626   3.856   5.371  0.3680 -0.7556  0.5348
  627MOL0     N86440   3.745   3.819   5.416  0.4687 -0.0475 -0.0093
  627MOL0     C86441   4.180   3.755   6.669 -0.6639 -0.3192  0.9853
  627MOL0     C86442   4.303   3.724   6.733  0.5422 -0.1043 -0.4156
  627MOL0     C86443   4.761   3.658   6.782 -0.4139  0.1602  0.0525
  627MOL0     C86444   4.827   3.780   6.820 -0.0954  0.3109 -0.1599
  627MOL0     C86445   4.937   3.790   6.904  1.1680  1.2560  1.0170
  627MOL0     C86446   4.985   3.671   6.958 -0.0705  0.1680  0.9454
  627MOL0     O86447   5.094   3.682   7.046 -0.0263  0.5704 -0.4268
  627MOL0     C86448   5.113   3.560   7.123 -0.7903 -1.0219 -0.0021
  627MOL0     C86449   5.206   3.461   7.056  0.0259  0.4140 -0.1592
  627MOL0     C86450   5.342   3.536   7.041 -0.1154  0.5839 -0.3859
  627MOL0     C86451   5.423   3.522   7.174 -0.4357 -0.0823  0.0220
  627MOL0     C86452   5.499   3.395   7.162 -0.4134 -0.1677 -0.5702
  627MOL0     C86453   5.571   3.301   7.132 -0.3538  0.2676  0.2732
  627MOL0     C86454   4.936   3.544   6.913 -0.6605 -0.4596 -0.2164
  627MOL0     C86455   4.824   3.538   6.824  0.1900 -0.0357 -0.6760
  627MOL0     C86456   4.766   3.403   6.785 -0.3229  0.6507 -0.3051
  627MOL0     H86457   4.518   3.860   6.515  0.5420 -0.1919  0.4752
  627MOL0     H86458   4.304   3.914   6.389 -4.4989 -1.5058 -1.1388
  627MOL0     H86459   4.134   4.049   6.424 -0.5598 -0.8381 -0.9188
  627MOL0     H86460   4.015   4.039   6.557  1.5800  2.4030  0.0330
  627MOL0     H86461   3.855   3.942   6.399  1.0573 -0.2930 -0.3519
  627MOL0     H86462   3.880   4.115   6.356 -1.4304 -0.1737  1.9990
  627MOL0     H86463   4.046   4.053   6.184 -0.1670 -0.3458  0.8684
  627MOL0     H86464   4.043   3.890   6.234  1.0342  0.4681  2.3996
  627MOL0     H86465   3.818   3.851   6.143  0.4282 -1.1960 -0.8752
  627MOL0     H86466   3.799   4.024   6.097  5.1113  3.1365 -2.9869
  627MOL0     H86467   4.029   3.880   5.978 -0.4282  0.5633  0.6127
  627MOL0     H86468   3.952   4.026   5.933 -2.2989  0.3111  1.8980
  627MOL0     H86469   3.862   3.741   5.911  1.8179  0.0962 -0.5859
  627MOL0     H86470   3.744   3.873   5.891  0.4191  1.6097  0.6472
  627MOL0     H86471   4.014   3.810   5.735  0.8059  1.9774  1.7440
  627MOL0     H86472   3.910   3.941   5.693 -0.5362  1.0675  2.8938
  627MOL0     H86473   3.887   3.698   5.569  2.5454  2.6239  1.0966
  627MOL0     H86474   3.776   3.670   5.704  2.1140  0.6098  2.6007
  627MOL0     H86475   3.582   3.902   5.689  1.0129 -2.8363  1.0466
  627MOL0     H86476   3.340   3.906   5.548 -0.0406 -0.0967  0.0078
  627MOL0     H86477   3.362   3.874   5.375  0.9728  3.0645 -2.1724
  627MOL0     H86478   3.399   4.091   5.309  0.3561  1.2803  1.2486
  627MOL0     H86479   3.252   4.079   5.407 -0.6721 -2.5853  0.2567
  627MOL0     H86480   3.415   4.159   5.591  1.0216  0.7949 -0.1510
  627MOL0     H86481   3.504   4.227   5.464 -0.0702  1.3496  2.3635
  627MOL0     H86482   3.212   4.317   5.485 -0.4181  0.7281  0.3643
  627MOL0     H86483   3.350   4.393   5.561  0.0682 -1.6284  0.6233
  627MOL0     H86484   3.377   4.570   5.186 -2.6165  1.7442  2.2184
  627MOL0     H86485   3.362   4.697   5.017 -0.8990  3.3098 -0.1272
  627MOL0     H86486   3.202   4.732   4.955  0.3312 -0.0615 -3.1279
  627MOL0     H86487   3.320   4.620   4.870  1.6039  0.7659  0.3664
  627MOL0     H86488   2.893   4.266   4.684  2.0141  1.6985 -3.7184
  627MOL0     H86489   2.751   4.301   4.485  1.2568 -0.0591  0.8006
  627MOL0     H86490   2.473   4.697   4.504 -0.8307 -0.8181  0.3900
  627MOL0     H86491   2.475   4.647   4.344 -0.9806  1.1000  0.2928
  627MOL0     H86492   2.348   4.462   4.557 -0.4459 -3.3968 -2.0313
  627MOL0     H86493   2.250   4.586   4.471 -0.0245  1.3361  0.2813
  627MOL0     H86494   2.315   4.325   4.399  1.0879  0.8113  0.2858
  627MOL0     H86495   2.423   4.420   4.298  1.3076  0.4977  2.2496
  627MOL0     H86496   2.226   4.558   4.216 -0.2242 -0.9992 -2.5230
  627MOL0     H86497   2.139   4.434   4.303  1.1042 -2.5890 -0.1012
  627MOL0     H86498   2.357   4.341   4.119 -0.2748 -1.0792  1.6004
  627MOL0     H86499   2.221   4.258   4.161 -2.7831  1.8030 -0.5686
  627MOL0     H86500   2.232   4.490   3.964  0.0567  3.3340  3.6282
  627MOL0     H86501   2.082   4.461   4.059 -0.7432 -0.0016 -2.1115
  627MOL0     H86502   2.027   4.267   3.966  1.0789  1.6404  2.0577
  627MOL0     H86503   2.184   4.231   3.897 -0.2642  0.4287 -0.1511
  627MOL0     H86504   2.121   4.441   3.744  0.4712 -2.4648 -2.9439
  627MOL0     H86505   1.957   4.384   3.790 -0.0947 -0.8694 -2.3066
  627MOL0     H86506   2.588   4.652   4.684  2.0623  2.5850 -0.5545
  627MOL0     H86507   2.710   4.590   4.889 -0.7453 -1.4502  0.5530
  627MOL0     H86508   2.977   4.304   5.110 -1.2203  1.1498 -2.3527
  627MOL0     H86509   3.097   4.283   5.309  2.5287  0.0451  0.6842
  627MOL0     H86510   4.080   3.739   6.710 -0.3863 -1.9908  1.0898
  627MOL0     H86511   4.295   3.672   6.828 -1.7654  2.5690  1.0154
  627MOL0     H86512   4.778   3.872   6.789 -2.9312 -1.3560 -1.0134
  627MOL0     H86513   4.978   3.886   6.937  1.0963  1.4047  0.6724
  627MOL0     H86514   5.150   3.606   7.215 -0.3572 -1.4245  0.0297
  627MOL0     H86515   5.029   3.501   7.160 -1.7703 -1.2821 -2.4626
  627MOL0     H86516   5.177   3.424   6.957  1.7155 -0.2542 -0.4487
  627MOL0     H86517   5.216   3.368   7.112  1.2086 -0.6620 -2.0312
  627MOL0     H86518   5.379   3.494   6.946 -3.3770  0.3712 -1.6913
  627MOL0     H86519   5.327   3.644   7.032 -1.3471  0.5094  0.5453
  627MOL0     H86520   5.366   3.534   7.267 -0.8281 -0.5254 -0.1534
  627MOL0     H86521   5.508   3.590   7.177 -1.8875  1.8008  0.5565
  627MOL0     H86522   5.627   3.215   7.101  4.0307  3.8996 -3.0768
  627MOL0     H86523   4.946   3.452   6.970  1.0817  0.9612  1.9582
  627MOL0     H86524   4.828   3.325   6.830  3.0354  1.8212 -2.4608
  627MOL0     H86525   4.666   3.397   6.828  0.3663  2.1405  1.6446
  627MOL0     H86526   4.773   3.380   6.678 -3.4061 -0.3818 -0.3816
  628MOL0     O86527   1.360   4.254   7.867 -0.3865  0.2537 -0.2680
  628MOL0     C86528   1.309   4.140   7.850  0.1264 -0.4693  0.5213
  628MOL0     O86529   1.309   4.075   7.733  0.0693  0.4332  0.6700
  628MOL0     C86530   1.364   4.135   7.624  1.1835 -0.3072 -0.4016
  628MOL0     C86531   1.302   4.251   7.584  0.2032 -0.0745  0.3212
  628MOL0     C86532   1.348   4.322   7.475 -0.0487 -0.3373 -1.0620
  628MOL0     C86533   1.457   4.266   7.398  0.3283 -0.1843  0.7760
  628MOL0     O86534   1.507   4.325   7.281  1.2359 -0.7030 -0.1928
  628MOL0     C86535   1.417   4.362   7.177 -0.4355 -0.0999  0.3297
  628MOL0     C86536   1.295   4.265   7.141  0.0996 -0.0076 -0.3609
  628MOL0     C86537   1.201   4.342   7.048 -0.1822  0.1059  0.1187
  628MOL0     C86538   1.265   4.342   6.911 -0.5114  0.5788 -0.2843
  628MOL0     C86539   1.157   4.368   6.804 -0.2092 -0.5538  0.4420
  628MOL0     C86540   1.210   4.359   6.650  0.3138  0.7549  0.6132
  628MOL0     C86541   1.214   4.217   6.584  0.2420  0.4087 -0.5699
  628MOL0     C86542   1.348   4.154   6.592 -0.7848  0.1223 -0.1447
  628MOL0     N86543   1.374   4.067   6.479  0.4351 -0.4874  0.0646
  628MOL0     C86544   1.408   4.105   6.349  0.6365  0.2296 -0.8789
  628MOL0     C86545   1.429   3.990   6.279  1.2645 -0.6215  0.2994
  628MOL0     C86546   1.482   3.981   6.142  0.0681 -0.3086 -0.1326
  628MOL0     C86547   1.434   4.093   6.060 -0.0418 -0.4701 -0.9734
  628MOL0     C86548   1.504   4.111   5.919 -0.9162  0.1927  0.2065
  628MOL0     C86549   1.410   4.205   5.840  0.4115 -0.9901  0.0949
  628MOL0     O86550   1.299   4.128   5.784 -0.7926  0.3074  0.1003
  628MOL0     C86551   1.288   4.114   5.647  0.2504  0.3459  0.0797
  628MOL0     C86552   1.228   4.001   5.599  0.5130 -0.5131 -0.1656
  628MOL0     C86553   1.195   3.975   5.463 -0.1924  0.1225  0.7114
  628MOL0     C86554   1.130   3.844   5.442 -1.0183  0.2937 -0.8534
  628MOL0     C86555   1.233   4.076   5.371  0.6012 -0.0696  0.0873
  628MOL0     C86556   1.198   4.066   5.226 -1.2290  0.2897 -0.6455
  628MOL0     O86557   1.180   4.181   5.165  0.5822  0.2125 -0.2413
  628MOL0     C86558   1.097   4.197   5.055 -0.0533  0.2844 -0.5231
  628MOL0     C86559   0.989   4.110   5.039 -0.0271  0.0861 -0.6908
  628MOL0     C86560   0.916   4.119   4.919  0.2489  0.5990  0.1176
  628MOL0     C86561   0.947   4.198   4.814 -0.1156 -0.2350  0.1485
  628MOL0     O86562   0.875   4.198   4.692 -0.1087 -0.5681  0.8503
  628MOL0     C86563   0.945   4.236   4.574 -0.6431 -0.6241 -0.5214
  628MOL0     C86564   0.882   4.173   4.458 -0.1106  0.2028  0.0376
  628MOL0     C86565   0.936   4.029   4.447 -0.0398 -0.1362 -0.5927
  628MOL0     C86566   0.865   3.941   4.335  0.3175 -0.0378  0.2711
  628MOL0     C86567   0.936   3.802   4.324 -0.0121  0.7638 -0.4018
  628MOL0     C86568   0.979   3.735   4.462  0.4137 -0.2691  0.0310
  628MOL0     C86569   1.022   3.585   4.445  1.0665  0.3821  0.6978
  628MOL0     C86570   1.168   3.575   4.420  0.0373  0.0190  0.0417
  628MOL0    Cl86571   1.207   3.404   4.447  0.4565 -0.0394 -0.0447
  628MOL0     C86572   1.048   4.291   4.834  0.1305  0.3051 -0.1288
  628MOL0     C86573   1.128   4.287   4.951 -0.1790  0.7382  0.1436
  628MOL0     O86574   1.180   3.955   5.178  0.9545  0.0967 -0.0815
  628MOL0     C86575   1.289   4.195   5.423 -0.2787  0.8251 -0.4753
  628MOL0     C86576   1.318   4.213   5.557 -0.2369  1.0833 -0.0281
  628MOL0     N86577   1.417   3.884   6.368  0.2215 -0.7514 -0.8250
  628MOL0     N86578   1.381   3.928   6.485  0.0729 -0.0123  1.3452
  628MOL0     C86579   1.527   4.152   7.444  0.6465 -0.6426  0.7437
  628MOL0     C86580   1.479   4.079   7.557 -0.2111 -0.3062  0.3803
  628MOL0     C86581   1.266   4.059   7.973  0.6846  0.4676  0.7566
  628MOL0     C86582   1.143   3.989   7.964  0.4464 -1.2216  0.1844
  628MOL0     C86583   1.111   3.891   8.053 -0.5594  0.7894 -0.8869
  628MOL0     C86584   1.170   3.871   8.172  0.3356  0.1673  0.2651
  628MOL0     O86585   1.127   3.766   8.249  0.0087 -0.0113 -0.0992
  628MOL0     C86586   1.208   3.724   8.361 -0.8462  0.3713 -0.3516
  628MOL0     C86587   1.337   3.646   8.325  1.1069 -1.1774 -0.7307
  628MOL0     C86588   1.375   3.559   8.448  0.5513  0.3931  0.7232
  628MOL0     C86589   1.429   3.626   8.572  0.7852 -0.9692  0.6155
  628MOL0     C86590   1.399   3.570   8.697  0.2925 -0.2534 -0.0014
  628MOL0     C86591   1.369   3.526   8.808 -0.1739  0.3523 -0.3841
  628MOL0     C86592   1.291   3.950   8.189  0.2028 -0.5152  0.7531
  628MOL0     C86593   1.341   4.042   8.087  0.8065  0.3020 -0.7629
  628MOL0     C86594   1.479   4.108   8.108 -0.4302  0.4715 -1.2792
  628MOL0     H86595   1.214   4.287   7.636  0.4071  2.1818 -0.7672
  628MOL0     H86596   1.310   4.423   7.458  1.9743  0.5421 -0.6635
  628MOL0     H86597   1.478   4.369   7.087 -0.7412  1.9287  0.2382
  628MOL0     H86598   1.373   4.460   7.196 -3.6171 -1.4589  0.5941
  628MOL0     H86599   1.323   4.173   7.089 -2.6645 -0.8665 -0.5079
  628MOL0     H86600   1.252   4.228   7.234  2.5807 -1.2850  0.3739
  628MOL0     H86601   1.105   4.290   7.051 -1.3723  2.1640 -0.4222
  628MOL0     H86602   1.192   4.446   7.080  0.0591  0.2322 -0.2214
  628MOL0     H86603   1.328   4.432   6.915 -0.9230  0.8760 -0.4062
  628MOL0     H86604   1.314   4.246   6.897 -2.0239 -0.5309  1.5216
  628MOL0     H86605   1.106   4.462   6.829 -1.3793 -0.7696 -1.0777
  628MOL0     H86606   1.076   4.297   6.819  0.3980 -1.3477  0.0068
  628MOL0     H86607   1.144   4.423   6.590 -0.3058  0.9832  1.5109
  628MOL0     H86608   1.306   4.410   6.645  2.0870 -2.4782 -2.8539
  628MOL0     H86609   1.191   4.230   6.478 -2.4740  0.3621 -0.0524
  628MOL0     H86610   1.134   4.153   6.621  0.4120  1.0636  1.0224
  628MOL0     H86611   1.419   4.238   6.596 -0.1418 -0.4586  2.0322
  628MOL0     H86612   1.357   4.097   6.685  0.2585  1.1271  0.3983
  628MOL0     H86613   1.415   4.210   6.321  0.4732  0.5251  0.1536
  628MOL0     H86614   1.455   3.888   6.090 -1.7139 -0.7944  1.5350
  628MOL0     H86615   1.591   3.980   6.150  0.0493 -1.0209  0.1303
  628MOL0     H86616   1.328   4.082   6.036 -0.4101  0.4716  0.0977
  628MOL0     H86617   1.452   4.180   6.124 -0.2149 -1.3907  0.3829
  628MOL0     H86618   1.603   4.156   5.928 -0.7754 -0.2345  0.8216
  628MOL0     H86619   1.507   4.015   5.867 -3.4672  0.2074 -0.0903
  628MOL0     H86620   1.383   4.295   5.896 -1.9294 -0.3397 -1.9158
  628MOL0     H86621   1.475   4.248   5.763  1.7242  0.4038  1.8851
  628MOL0     H86622   1.200   3.926   5.672  2.0936 -0.7433  0.2412
  628MOL0     H86623   1.212   3.772   5.440 -1.3963 -0.1623 -3.1432
  628MOL0     H86624   1.079   3.838   5.345 -0.1656  2.1722 -1.4828
  628MOL0     H86625   1.071   3.822   5.531  0.8878 -2.9367 -0.2407
  628MOL0     H86626   0.953   4.023   5.093  1.2938 -0.1290 -0.1254
  628MOL0     H86627   0.843   4.039   4.908  2.8841 -2.1346  0.9316
  628MOL0     H86628   0.935   4.344   4.560  0.0393 -0.7246 -2.0046
  628MOL0     H86629   1.051   4.207   4.577 -0.0803  1.3243  1.0948
  628MOL0     H86630   0.774   4.162   4.471 -0.2615  1.5202  0.0263
  628MOL0     H86631   0.908   4.231   4.369  0.4913  0.9442  0.6742
  628MOL0     H86632   0.920   3.980   4.543  0.4280 -2.3211 -1.5482
  628MOL0     H86633   1.045   4.042   4.439 -0.1347  2.1836  1.0912
  628MOL0     H86634   0.868   3.998   4.242  1.9352 -0.4936  0.0050
  628MOL0     H86635   0.763   3.908   4.357  0.6318 -0.9909  0.3413
  628MOL0     H86636   0.863   3.734   4.279  1.1825 -1.4533  0.8429
  628MOL0     H86637   1.026   3.795   4.261 -1.6450 -1.1452 -2.6912
  628MOL0     H86638   0.896   3.731   4.534  2.0690  0.0680  2.0577
  628MOL0     H86639   1.069   3.785   4.496  1.0412 -0.3381 -1.4687
  628MOL0     H86640   0.972   3.548   4.355 -1.3123  1.3286  1.5511
  628MOL0     H86641   0.986   3.520   4.525  4.1300 -3.3349 -0.6516
  628MOL0     H86642   1.219   3.632   4.498  0.2771  0.1884 -0.2387
  628MOL0     H86643   1.204   3.607   4.322  0.4124  1.1848  0.5387
  628MOL0     H86644   1.070   4.366   4.758  1.5045  0.7319  0.6552
  628MOL0     H86645   1.204   4.363   4.968  2.3840 -1.9600  1.8558
  628MOL0     H86646   1.313   4.258   5.338 -2.7819 -0.7053 -2.4761
  628MOL0     H86647   1.363   4.310   5.577  0.4758  0.7244  0.1653
  628MOL0     H86648   1.610   4.109   7.388  1.9521  0.8049  1.4998
  628MOL0     H86649   1.535   3.988   7.580  1.8859  1.1093  1.1744
  628MOL0     H86650   1.073   3.995   7.881  0.0062  0.3779  0.6371
  628MOL0     H86651   1.026   3.829   8.029 -0.6262  1.1229 -1.5267
  628MOL0     H86652   1.253   3.808   8.415  1.1013  0.3976 -1.9017
  628MOL0     H86653   1.146   3.667   8.430 -0.7832  1.9768  1.0904
  628MOL0     H86654   1.422   3.709   8.298 -0.0494 -0.7460 -3.6981
  628MOL0     H86655   1.313   3.591   8.234 -3.1156 -0.9482  0.0324
  628MOL0     H86656   1.293   3.493   8.476 -0.9647  0.5808 -2.7647
  628MOL0     H86657   1.457   3.494   8.415 -1.2023 -0.9986 -1.1194
  628MOL0     H86658   1.389   3.728   8.576  0.1124 -1.1483 -0.9260
  628MOL0     H86659   1.538   3.615   8.576  1.1082  1.6930  3.3701
  628MOL0     H86660   1.362   3.491   8.909  6.4507 -0.3026  0.2659
  628MOL0     H86661   1.350   3.931   8.279  1.2315 -1.5288 -0.0893
  628MOL0     H86662   1.547   4.036   8.155 -1.9934 -1.1298 -1.3660
  628MOL0     H86663   1.535   4.124   8.016 -0.4782 -2.2138 -1.8302
  628MOL0     H86664   1.464   4.208   8.152 -0.7506  1.3140 -3.2132
  629MOL0     O86665   5.498   6.500   3.595 -0.5449 -0.1311  0.7111
  629MOL0     C86666   5.554   6.467   3.703 -0.4359  0.1955 -0.4258
  629MOL0     O86667   5.692   6.468   3.727 -0.5645 -0.9498  0.7627
  629MOL0     C86668   5.765   6.516   3.625 -1.8681 -0.8884 -0.6746
  629MOL0     C86669   5.812   6.644   3.642 -0.6824  0.0136  0.1722
  629MOL0     C86670   5.897   6.706   3.559  1.1485 -0.1865  0.0998
  629MOL0     C86671   5.922   6.650   3.431  0.7312  0.1610 -0.1995
  629MOL0     O86672   6.006   6.725   3.355  0.3758  0.2121 -0.0870
  629MOL0     C86673   6.040   6.673   3.230 -1.1644 -1.3382  0.6133
  629MOL0     C86674   6.111   6.771   3.140 -0.5255 -0.1660  0.3823
  629MOL0     C86675   6.027   6.905   3.123  0.1773  0.0397  0.5397
  629MOL0     C86676   5.992   6.950   2.984  1.0180  0.1298  0.4508
  629MOL0     C86677   5.964   7.104   2.977  0.1916  0.4837  0.3556
  629MOL0     C86678   5.813   7.134   2.996  0.5153 -0.3955  0.5312
  629MOL0     C86679   5.785   7.284   2.984  0.3654 -0.5708 -0.5509
  629MOL0     C86680   5.646   7.313   2.935 -1.2479  0.3879 -0.2277
  629MOL0     N86681   5.611   7.457   2.953  0.5244 -0.2278  0.4141
  629MOL0     C86682   5.554   7.525   3.066 -0.9923  0.6279 -0.6337
  629MOL0     C86683   5.532   7.653   3.026 -0.4002 -0.4604 -0.3316
  629MOL0     C86684   5.430   7.755   3.079 -0.1363  0.6958  0.1342
  629MOL0     C86685   5.344   7.837   2.983 -0.4865 -0.7116 -0.2609
  629MOL0     C86686   5.237   7.754   2.929 -0.0877 -0.1927  0.4866
  629MOL0     C86687   5.127   7.847   2.872 -0.2987 -0.7763  0.3478
  629MOL0     O86688   5.020   7.854   2.968 -1.7911 -0.3618  1.0131
  629MOL0     C86689   4.970   7.973   3.002  0.8122 -0.5914 -0.7664
  629MOL0     C86690   4.893   7.966   3.108 -0.3394 -0.0139  0.1609
  629MOL0     C86691   4.835   8.076   3.164  0.0991 -0.2310 -0.2584
  629MOL0     C86692   4.766   8.059   3.299  0.9523  0.2135  0.0498
  629MOL0     C86693   4.848   8.202   3.100  0.2454  0.3294  1.2172
  629MOL0     C86694   4.792   8.335   3.155 -0.0084  0.3417  0.8357
  629MOL0     O86695   4.856   8.439   3.105 -1.3816 -0.0976  0.3471
  629MOL0     C86696   4.830   8.573   3.134  1.3214  1.1999  0.4393
  629MOL0     C86697   4.884   8.664   3.046  0.6789  0.0903  0.3194
  629MOL0     C86698   4.865   8.806   3.061  0.5414 -0.3072 -0.2379
  629MOL0     C86699   4.804   8.860   3.181 -0.9693  0.0247  0.0856
  629MOL0     O86700   4.808   8.993   3.206  1.3407 -0.1799  0.0762
  629MOL0     C86701   4.905   9.073   3.136 -0.1901  0.1031 -0.5195
  629MOL0     C86702   4.937   9.206   3.216  0.5862 -0.1670 -0.7875
  629MOL0     C86703   4.826   9.306   3.240 -0.1260  0.2545 -0.2864
  629MOL0     C86704   4.750   9.345   3.116  0.9231  0.3891 -0.3314
  629MOL0     C86705   4.620   9.428   3.140  0.4356 -0.0366  0.0844
  629MOL0     C86706   4.500   9.356   3.078 -0.1093  0.0354  1.0600
  629MOL0     C86707   4.443   9.254   3.172  0.0941 -0.6006  0.3587
  629MOL0     C86708   4.320   9.180   3.111 -0.2452  1.0056 -0.1165
  629MOL0    Cl86709   4.169   9.286   3.066 -0.2672  0.0674 -0.5157
  629MOL0     C86710   4.762   8.767   3.275  0.5951  0.9997  0.6388
  629MOL0     C86711   4.771   8.629   3.254 -0.5128  0.0543 -0.4843
  629MOL0     O86712   4.683   8.332   3.217  0.0725  0.9118 -0.0847
  629MOL0     C86713   4.917   8.200   2.982 -0.9396 -0.4887 -0.1931
  629MOL0     C86714   4.977   8.088   2.925  0.2438  0.8296  0.1005
  629MOL0     N86715   5.587   7.664   2.897 -0.1697  1.1543  0.8886
  629MOL0     N86716   5.626   7.553   2.855  0.2441 -0.9893  0.3977
  629MOL0     C86717   5.868   6.529   3.405 -1.2639  0.4362 -0.1762
  629MOL0     C86718   5.798   6.451   3.505 -0.9476  0.2622  0.7615
  629MOL0     C86719   5.455   6.427   3.812 -1.0496  0.1052  1.0281
  629MOL0     C86720   5.337   6.361   3.767 -0.9425  0.6405  0.2625
  629MOL0     C86721   5.247   6.326   3.859  0.4061  0.7998 -0.3064
  629MOL0     C86722   5.263   6.330   3.993  0.3289 -0.4020  0.7521
  629MOL0     O86723   5.169   6.270   4.080  0.6183  0.5109 -0.3422
  629MOL0     C86724   5.180   6.280   4.213 -1.0956  0.2945  1.3290
  629MOL0     C86725   5.043   6.294   4.269  0.6782 -0.4829  0.5027
  629MOL0     C86726   5.048   6.316   4.408  0.6407  0.5457  0.2882
  629MOL0     C86727   4.921   6.261   4.481  0.0088 -0.6691 -0.2947
  629MOL0     C86728   4.921   6.286   4.630 -0.0867 -0.7507 -0.1229
  629MOL0     C86729   4.924   6.295   4.753 -0.8844  0.1937 -0.1581
  629MOL0     C86730   5.382   6.385   4.033 -0.2337 -1.2594  0.0675
  629MOL0     C86731   5.475   6.441   3.947  0.0787  0.0561  0.3377
  629MOL0     C86732   5.607   6.494   4.001  0.0634  0.0554  0.3272
  629MOL0     H86733   5.780   6.695   3.732  0.5620  0.8232  0.1862
  629MOL0     H86734   5.923   6.809   3.580 -1.1761  0.9096 -2.0085
  629MOL0     H86735   5.946   6.639   3.187 -1.2934 -2.9933  2.0666
  629MOL0     H86736   6.113   6.591   3.239  0.3062 -0.0738  0.7283
  629MOL0     H86737   6.213   6.791   3.175  0.4112 -2.2617 -0.9703
  629MOL0     H86738   6.106   6.722   3.043 -6.8339 -0.6003  0.5568
  629MOL0     H86739   5.930   6.887   3.171 -2.1483  4.2299 -2.0022
  629MOL0     H86740   6.079   6.974   3.190 -1.1131 -1.2397  3.0037
  629MOL0     H86741   6.070   6.913   2.917 -1.5763 -2.0814 -1.5372
  629MOL0     H86742   5.903   6.899   2.947 -0.4193  2.7184  0.0565
  629MOL0     H86743   5.997   7.129   2.876  0.4781 -4.2252 -0.9583
  629MOL0     H86744   6.013   7.164   3.055 -2.3157  0.5629  1.9684
  629MOL0     H86745   5.756   7.083   2.917 -0.5794  0.0388  1.0131
  629MOL0     H86746   5.781   7.091   3.092  0.4595  0.8257  1.0736
  629MOL0     H86747   5.847   7.336   2.910 -2.4704  3.8665 -0.1927
  629MOL0     H86748   5.804   7.333   3.080  3.7816  0.1356 -1.4477
  629MOL0     H86749   5.653   7.287   2.829  4.4011 -2.2106  0.4015
  629MOL0     H86750   5.572   7.251   2.988  3.5538 -2.3656  4.2794
  629MOL0     H86751   5.515   7.482   3.158  1.5370 -0.9777 -0.2186
  629MOL0     H86752   5.493   7.822   3.140  0.4794 -0.8179  1.2225
  629MOL0     H86753   5.370   7.698   3.151 -3.8768  2.1803 -1.5734
  629MOL0     H86754   5.310   7.931   3.027 -3.9572 -1.2575 -1.4562
  629MOL0     H86755   5.414   7.862   2.902  0.5085 -1.5296  0.3210
  629MOL0     H86756   5.274   7.693   2.845  1.6282  0.0074  1.0504
  629MOL0     H86757   5.200   7.694   3.012 -0.2514  0.2646  0.7410
  629MOL0     H86758   5.180   7.938   2.843  4.1103 -3.3955 -0.7681
  629MOL0     H86759   5.079   7.805   2.783 -0.8636  2.1113 -0.8436
  629MOL0     H86760   4.892   7.875   3.168 -0.7599 -0.2521 -0.2087
  629MOL0     H86761   4.815   8.118   3.377  1.8337 -0.6386  0.1661
  629MOL0     H86762   4.772   7.957   3.339  2.3301  0.8625  1.6142
  629MOL0     H86763   4.661   8.090   3.289 -0.8291 -3.7411  3.3845
  629MOL0     H86764   4.917   8.630   2.948 -1.6383 -0.8924 -0.1696
  629MOL0     H86765   4.900   8.858   2.972 -1.0866 -2.1366 -2.0678
  629MOL0     H86766   4.997   9.016   3.122  0.4061  0.5941  1.1882
  629MOL0     H86767   4.877   9.099   3.033 -0.4838  1.4609 -0.1113
  629MOL0     H86768   4.989   9.177   3.308 -1.5335  0.2403  0.6012
  629MOL0     H86769   5.012   9.257   3.155  1.6180  0.3824  0.8727
  629MOL0     H86770   4.847   9.392   3.304 -0.9023 -0.4927  1.0101
  629MOL0     H86771   4.759   9.247   3.302 -0.0179  0.7594  0.3216
  629MOL0     H86772   4.728   9.248   3.070  2.6449 -0.0971 -0.2074
  629MOL0     H86773   4.818   9.395   3.047 -0.3742  2.3405 -0.2715
  629MOL0     H86774   4.596   9.461   3.241 -2.2924  1.5691 -0.9764
  629MOL0     H86775   4.636   9.522   3.087  2.8441 -1.7819 -2.6389
  629MOL0     H86776   4.529   9.305   2.985 -0.3602  0.8792  0.5002
  629MOL0     H86777   4.429   9.436   3.056 -0.8810 -0.8154  0.3477
  629MOL0     H86778   4.398   9.301   3.261 -3.9756 -0.4411 -1.5759
  629MOL0     H86779   4.521   9.179   3.183  0.8042  0.1182  0.3290
  629MOL0     H86780   4.289   9.108   3.188  1.6011 -0.4810 -0.6775
  629MOL0     H86781   4.362   9.129   3.023 -2.9880 -3.6918  0.9282
  629MOL0     H86782   4.696   8.797   3.356 -1.8237  2.7001 -1.7672
  629MOL0     H86783   4.732   8.570   3.335 -0.5827  0.8424  0.0695
  629MOL0     H86784   4.922   8.294   2.928 -0.0008 -0.9214 -0.8885
  629MOL0     H86785   5.040   8.102   2.837  3.0801  0.3823  1.9418
  629MOL0     H86786   5.894   6.480   3.311 -0.2131  0.7099 -0.0407
  629MOL0     H86787   5.756   6.355   3.477  2.1425 -0.9189 -0.2716
  629MOL0     H86788   5.311   6.359   3.662 -0.8280 -2.8891  0.1832
  629MOL0     H86789   5.150   6.282   3.842  0.8367 -0.0209 -0.6716
  629MOL0     H86790   5.222   6.187   4.253 -1.3102  0.1803  1.2918
  629MOL0     H86791   5.240   6.365   4.248  0.2279  0.1812 -0.5013
  629MOL0     H86792   4.963   6.229   4.232 -1.5882  1.9107  0.8363
  629MOL0     H86793   5.013   6.390   4.224 -2.1655 -2.3389 -1.9338
  629MOL0     H86794   5.128   6.254   4.449  2.6006  2.6564 -0.1440
  629MOL0     H86795   5.078   6.419   4.428  1.3925  0.8739 -2.2469
  629MOL0     H86796   4.908   6.154   4.461  1.6708 -0.5778 -2.2195
  629MOL0     H86797   4.837   6.322   4.446  2.5987  2.9170 -0.8249
  629MOL0     H86798   4.935   6.312   4.858  0.7535 -3.6945  0.4853
  629MOL0     H86799   5.397   6.384   4.140  0.6597  0.2233 -0.0128
  629MOL0     H86800   5.681   6.414   3.992 -0.6044 -0.6675  1.1796
  629MOL0     H86801   5.631   6.582   3.940 -0.1924  0.0910  0.2784
  629MOL0     H86802   5.595   6.525   4.106 -0.7032  0.4039  0.1417
  630MOL0     O86803   6.676   3.233   9.159 -0.2171 -0.9545  0.5796
  630MOL0     C86804   6.757   3.317   9.115  0.2677  1.2738 -0.4999
  630MOL0     O86805   6.732   3.450   9.114 -0.4414  0.3352  0.1195
  630MOL0     C86806   6.602   3.486   9.153  0.7394 -0.3985  0.7652
  630MOL0     C86807   6.579   3.519   9.287  0.3480 -1.0626 -0.3855
  630MOL0     C86808   6.458   3.568   9.332 -0.0506  0.2154 -0.3428
  630MOL0     C86809   6.352   3.575   9.243  0.2785  0.7397 -0.8067
  630MOL0     O86810   6.230   3.613   9.292 -0.4667  0.6881 -0.8237
  630MOL0     C86811   6.189   3.742   9.242  0.4744 -0.2830 -0.5750
  630MOL0     C86812   6.090   3.811   9.346 -0.6296 -0.5284 -0.1613
  630MOL0     C86813   5.968   3.726   9.374  0.6628 -0.6570 -0.0155
  630MOL0     C86814   5.846   3.808   9.433 -0.2307 -0.1934 -0.1597
  630MOL0     C86815   5.722   3.724   9.456  0.3515 -0.0341 -0.7839
  630MOL0     C86816   5.590   3.801   9.468  0.2297 -0.6116 -0.2461
  630MOL0     C86817   5.589   3.881   9.595  0.4063  0.6783  1.0746
  630MOL0     C86818   5.447   3.926   9.621 -1.1929 -0.0707 -0.8958
  630MOL0     N86819   5.413   4.044   9.550  0.0642  0.4682 -1.0768
  630MOL0     C86820   5.473   4.166   9.560  0.0907 -0.6259  0.0082
  630MOL0     C86821   5.420   4.247   9.459  0.2511  0.2394  0.4286
  630MOL0     C86822   5.471   4.378   9.417  1.3153 -1.1302  0.3145
  630MOL0     C86823   5.585   4.434   9.501 -0.1779  0.3742 -0.5987
  630MOL0     C86824   5.724   4.395   9.443  0.9877  0.2159  0.3980
  630MOL0     C86825   5.826   4.447   9.535 -0.9494 -0.0633 -0.4108
  630MOL0     O86826   5.916   4.354   9.594 -0.7226  0.5184  0.1402
  630MOL0     C86827   5.861   4.254   9.672 -0.2516  0.4447 -0.0221
  630MOL0     C86828   5.943   4.134   9.692  0.0679 -0.3372 -0.0526
  630MOL0     C86829   5.896   4.030   9.774  0.2209 -0.0468 -0.1824
  630MOL0     C86830   5.998   3.917   9.797  0.5871  0.1054 -0.1875
  630MOL0     C86831   5.781   4.049   9.857 -0.2833  0.5989  0.6876
  630MOL0     C86832   5.737   3.948   9.950 -0.0481  0.2901 -0.0750
  630MOL0     O86833   5.686   4.002  10.066 -0.3178 -0.3466 -0.5775
  630MOL0     C86834   5.678   3.921  10.180  0.0337  0.9140 -0.0306
  630MOL0     C86835   5.791   3.885  10.251 -0.4640  0.4317 -0.7107
  630MOL0     C86836   5.778   3.799  10.362  1.2206 -0.2266  0.4570
  630MOL0     C86837   5.649   3.772  10.421  0.2282  0.3726  0.5520
  630MOL0     O86838   5.630   3.714  10.547 -0.6315 -1.0282  0.0942
  630MOL0     C86839   5.722   3.617  10.598  0.2031 -1.2083  0.9443
  630MOL0     C86840   5.653   3.488  10.658  0.0004 -0.6261  0.6428
  630MOL0     C86841   5.758   3.389  10.703 -0.4512 -0.5279  0.2661
  630MOL0     C86842   5.690   3.262  10.761 -0.5624 -0.0766  0.7349
  630MOL0     C86843   5.788   3.162  10.826 -0.1297  0.0421  0.3680
  630MOL0     C86844   5.869   3.209  10.943  0.2495  0.1033  0.7395
  630MOL0     C86845   5.854   3.109  11.062  0.2064  0.5807 -0.0720
  630MOL0     C86846   5.977   3.111  11.159 -0.7118  0.3411 -0.2414
  630MOL0    Cl86847   5.960   3.242  11.282 -0.0563  0.3953 -0.3472
  630MOL0     C86848   5.533   3.813  10.347 -0.1877  0.4791 -1.0618
  630MOL0     C86849   5.555   3.875  10.225  0.1513  0.5017 -0.7431
  630MOL0     O86850   5.753   3.827   9.929 -0.7101  0.2897 -0.0872
  630MOL0     C86851   5.719   4.172   9.860  0.7050  0.8706  0.2617
  630MOL0     C86852   5.760   4.275   9.776 -0.5908 -0.2121  0.1018
  630MOL0     N86853   5.326   4.164   9.398 -0.4005 -0.4825 -1.0934
  630MOL0     N86854   5.317   4.047   9.453 -0.0645 -0.3465 -0.2255
  630MOL0     C86855   6.378   3.554   9.108  0.3020 -0.7185 -0.5865
  630MOL0     C86856   6.497   3.510   9.062  0.7037 -0.2079 -0.0672
  630MOL0     C86857   6.892   3.262   9.076 -0.5805 -0.4695 -0.1098
  630MOL0     C86858   6.986   3.359   9.042  1.1522  0.1497 -0.7602
  630MOL0     C86859   7.111   3.334   8.997  0.5202 -0.7507  0.4685
  630MOL0     C86860   7.155   3.206   8.980  0.7328 -0.5334 -0.3773
  630MOL0     O86861   7.287   3.192   8.932 -0.5434 -0.3469  0.2688
  630MOL0     C86862   7.340   3.064   8.954 -0.3734  0.7660  0.3016
  630MOL0     C86863   7.484   3.057   8.920 -0.2993 -0.2355 -0.1192
  630MOL0     C86864   7.539   2.918   8.927  0.2059  0.7058 -0.8428
  630MOL0     C86865   7.689   2.914   8.884  0.3524  1.1188 -1.0885
  630MOL0     C86866   7.771   2.981   8.982 -0.5615  0.2925 -0.0126
  630MOL0     C86867   7.835   3.037   9.068  0.1562  0.7804 -0.3085
  630MOL0     C86868   7.063   3.101   9.023 -0.2148  0.1065 -0.4019
  630MOL0     C86869   6.938   3.124   9.069 -0.5780 -0.5469 -0.0201
  630MOL0     C86870   6.852   3.014   9.114  1.1105 -0.5200  0.9535
  630MOL0     H86871   6.659   3.517   9.361  4.7014  0.9325 -4.5482
  630MOL0     H86872   6.450   3.580   9.440 -0.8948  3.3562 -0.6566
  630MOL0     H86873   6.142   3.735   9.144 -4.7292  0.6909  1.4672
  630MOL0     H86874   6.279   3.802   9.224  1.0558 -1.6091 -2.2104
  630MOL0     H86875   6.140   3.828   9.442 -2.2015  3.4302  0.1583
  630MOL0     H86876   6.061   3.913   9.318 -0.6261  0.2323  2.3733
  630MOL0     H86877   5.926   3.666   9.293 -3.4926  0.4562  1.1109
  630MOL0     H86878   5.996   3.648   9.446  0.2502 -1.3345 -0.5747
  630MOL0     H86879   5.887   3.847   9.526  0.6929 -1.2419 -0.0986
  630MOL0     H86880   5.805   3.896   9.381 -2.2399  1.9098  4.4612
  630MOL0     H86881   5.727   3.656   9.541 -2.4396  0.3024 -0.2597
  630MOL0     H86882   5.706   3.665   9.366 -0.3073  0.4192 -0.9750
  630MOL0     H86883   5.567   3.866   9.383 -1.7160 -2.0988 -0.9344
  630MOL0     H86884   5.521   3.716   9.464 -0.7031  0.0415  1.1728
  630MOL0     H86885   5.642   3.975   9.580  1.2194 -0.1471 -1.9725
  630MOL0     H86886   5.632   3.838   9.685  0.9467 -0.4205  0.3138
  630MOL0     H86887   5.388   3.846   9.575  2.5558 -4.7836  1.4868
  630MOL0     H86888   5.409   3.922   9.723 -2.4798 -1.3295 -1.3889
  630MOL0     H86889   5.545   4.199   9.634  0.5354  1.3202 -1.2240
  630MOL0     H86890   5.383   4.441   9.436  3.0855  1.4082  0.6924
  630MOL0     H86891   5.498   4.388   9.311 -1.5358 -0.1646 -0.4093
  630MOL0     H86892   5.584   4.543   9.508  2.9250  0.4250  0.7165
  630MOL0     H86893   5.565   4.396   9.602  2.8600  0.4125  0.1137
  630MOL0     H86894   5.728   4.287   9.428  2.1929  0.3174 -0.1021
  630MOL0     H86895   5.731   4.439   9.343  1.1406  0.1011  0.3578
  630MOL0     H86896   5.885   4.526   9.488  1.2889 -1.0495  0.5976
  630MOL0     H86897   5.780   4.494   9.622  2.5603 -0.1918  1.7082
  630MOL0     H86898   6.042   4.123   9.647  1.4056 -1.9845  3.0153
  630MOL0     H86899   6.096   3.934   9.751  1.2286  0.4570  1.2726
  630MOL0     H86900   5.957   3.821   9.763 -1.0542  0.9884 -0.8195
  630MOL0     H86901   6.008   3.897   9.904 -1.6669 -4.2622 -0.5315
  630MOL0     H86902   5.884   3.916  10.204 -1.3475  0.5736 -2.4331
  630MOL0     H86903   5.865   3.768  10.420  2.1872  0.3252 -0.6483
  630MOL0     H86904   5.794   3.583  10.523  1.8315  0.7502  1.5511
  630MOL0     H86905   5.789   3.667  10.668 -1.2872  0.7333  1.0831
  630MOL0     H86906   5.590   3.513  10.744 -4.1594 -1.1872 -1.9501
  630MOL0     H86907   5.581   3.445  10.588  1.1413 -3.3650  1.0269
  630MOL0     H86908   5.817   3.433  10.783  0.0236 -3.1350  1.4556
  630MOL0     H86909   5.825   3.369  10.619  1.4822  1.2814  1.2920
  630MOL0     H86910   5.632   3.208  10.685 -0.0347  0.1511  0.1634
  630MOL0     H86911   5.612   3.289  10.832  0.3997 -1.2942  2.3285
  630MOL0     H86912   5.724   3.079  10.860  0.5771  0.1600  2.0260
  630MOL0     H86913   5.857   3.115  10.755 -1.0064 -1.5183  0.4745
  630MOL0     H86914   5.829   3.306  10.976  1.2690 -0.7099  4.8644
  630MOL0     H86915   5.963   3.232  10.892 -0.4572  0.1070 -0.6119
  630MOL0     H86916   5.838   3.007  11.026  0.5872  0.0438  1.2234
  630MOL0     H86917   5.767   3.135  11.124  1.2272 -1.0368  2.1783
  630MOL0     H86918   6.062   3.114  11.090 -0.6200  0.1461 -0.1390
  630MOL0     H86919   5.977   3.025  11.227 -3.3310  1.4150  1.2704
  630MOL0     H86920   5.436   3.808  10.396  0.6355  0.6013  0.6762
  630MOL0     H86921   5.470   3.905  10.163  0.7092  1.3588 -1.1205
  630MOL0     H86922   5.634   4.184   9.925  1.7870  1.6593  1.5960
  630MOL0     H86923   5.710   4.372   9.779 -1.3304 -0.4194 -2.4404
  630MOL0     H86924   6.291   3.577   9.047 -2.8419  0.1187  3.6864
  630MOL0     H86925   6.506   3.482   8.957  0.8299  0.7330 -0.3155
  630MOL0     H86926   6.962   3.465   9.039  1.8789  0.3034 -1.4896
  630MOL0     H86927   7.183   3.414   8.987  1.0522 -1.2789 -0.0091
  630MOL0     H86928   7.328   3.015   9.051  2.1263 -2.0576 -0.6508
  630MOL0     H86929   7.283   2.998   8.888 -3.2479  0.7932  2.5455
  630MOL0     H86930   7.541   3.112   8.996 -0.9239 -0.6352  0.6491
  630MOL0     H86931   7.497   3.111   8.826  0.7104  0.5802  0.4600
  630MOL0     H86932   7.540   2.879   9.030  0.3749 -1.2011 -1.5288
  630MOL0     H86933   7.477   2.851   8.867 -1.0644 -1.0568  2.2081
  630MOL0     H86934   7.705   2.958   8.785  0.8744 -0.8152 -1.8949
  630MOL0     H86935   7.728   2.812   8.879 -1.1701  0.5137 -1.0172
  630MOL0     H86936   7.894   3.089   9.142  0.5182 -2.1621  1.6220
  630MOL0     H86937   7.086   2.995   9.021  1.2356  0.3739  0.6557
  630MOL0     H86938   6.786   2.989   9.030  1.6878 -0.7083  0.5464
  630MOL0     H86939   6.917   2.929   9.137  0.5990 -1.3165 -0.3864
  630MOL0     H86940   6.790   3.035   9.201  0.5665 -0.1031  0.4738
  631MOL0     O86941   7.095   1.654   6.514 -0.5748  0.4914 -0.4258
  631MOL0     C86942   7.046   1.547   6.472 -0.6777 -0.1314 -0.3962
  631MOL0     O86943   7.101   1.466   6.378  0.0946 -0.3086 -0.6053
  631MOL0     C86944   7.228   1.475   6.337 -0.5028  0.0585 -0.6901
  631MOL0     C86945   7.334   1.554   6.395 -0.3267  0.7255 -0.2985
  631MOL0     C86946   7.456   1.549   6.340  0.6060  0.3367 -0.4183
  631MOL0     C86947   7.488   1.461   6.245 -0.1897 -0.1864 -0.0570
  631MOL0     O86948   7.613   1.465   6.185  0.3594  0.7862 -0.3156
  631MOL0     C86949   7.667   1.338   6.131 -0.3557 -0.1708  0.6131
  631MOL0     C86950   7.822   1.360   6.157 -0.0117  0.3514  0.1265
  631MOL0     C86951   7.917   1.236   6.140  1.4443 -0.5703 -0.5179
  631MOL0     C86952   7.950   1.209   5.990  0.0291  0.0075  0.0653
  631MOL0     C86953   8.087   1.142   5.971  1.1976 -0.0591 -0.5446
  631MOL0     C86954   8.079   0.991   6.014  0.0190 -0.0484 -0.3764
  631MOL0     C86955   8.222   0.929   5.983  0.5683  0.6253  0.3584
  631MOL0     C86956   8.223   0.775   6.002 -0.6089 -0.0231  0.2137
  631MOL0     N86957   8.357   0.713   5.985 -0.0006 -0.6026 -0.6226
  631MOL0     C86958   8.467   0.715   6.073 -0.7515 -0.2882  0.2293
  631MOL0     C86959   8.567   0.660   5.998  0.0350 -0.4899  0.4781
  631MOL0     C86960   8.707   0.643   6.037 -0.9617  0.5477  0.2139
  631MOL0     C86961   8.729   0.502   6.099  0.1115  0.7904 -0.2825
  631MOL0     C86962   8.714   0.389   5.997  0.5289 -0.4046 -0.8006
  631MOL0     C86963   8.792   0.406   5.872  0.8894 -0.6241 -0.2451
  631MOL0     O86964   8.769   0.279   5.801  0.8555  0.2356 -0.6268
  631MOL0     C86965   8.818   0.282   5.671 -0.0341 -0.3853 -0.3644
  631MOL0     C86966   8.900   0.380   5.611  0.1115  0.3102 -0.2571
  631MOL0     C86967   8.953   0.371   5.483  0.2704  0.0297  0.4763
  631MOL0     C86968   9.049   0.482   5.432  0.1866  1.1125  0.1028
  631MOL0     C86969   8.907   0.263   5.392  0.3180  0.1218 -0.3728
  631MOL0     C86970   8.956   0.227   5.262 -0.0127  0.2071  1.3606
  631MOL0     O86971   8.917   0.104   5.196 -0.0484 -0.0896 -0.0829
  631MOL0     C86972   9.003   0.070   5.094 -0.9069 -0.1358 -0.0626
  631MOL0     C86973   8.960   0.072   4.962  0.0891  0.0330 -0.3494
  631MOL0     C86974   9.046   0.027   4.856 -0.3016 -0.5720 -0.1300
  631MOL0     C86975   9.175  -0.017   4.880  0.5258  0.4575 -0.1013
  631MOL0     O86976   9.259  -0.043   4.775  0.2739 -0.6903 -0.1568
  631MOL0     C86977   9.402  -0.021   4.778  0.5643 -0.4421  0.5906
  631MOL0     C86978   9.478  -0.155   4.794  0.5629  0.1966 -0.2793
  631MOL0     C86979   9.634  -0.132   4.780 -0.3730  0.3437 -0.4520
  631MOL0     C86980   9.717  -0.262   4.794  0.0024 -1.2231  0.2327
  631MOL0     C86981   9.872  -0.242   4.807  1.5486 -0.8525  0.1809
  631MOL0     C86982   9.918  -0.177   4.937  0.0351  0.0036 -0.5844
  631MOL0     C86983  10.076  -0.195   4.957  0.4426  0.9720 -0.4583
  631MOL0     C86984  10.097  -0.289   5.072  0.3121 -0.1012 -0.5906
  631MOL0    Cl86985  10.050  -0.451   5.029 -0.3354 -0.1953 -0.1373
  631MOL0     C86986   9.216  -0.024   5.017 -0.2177 -0.3415 -1.3578
  631MOL0     C86987   9.132   0.011   5.122  0.3248  0.0189 -0.3746
  631MOL0     O86988   9.057   0.294   5.225 -0.0949 -0.6138  0.1554
  631MOL0     C86989   8.827   0.166   5.451  1.2059  0.0396 -0.7194
  631MOL0     C86990   8.784   0.182   5.585 -1.1235 -0.3240 -0.3444
  631MOL0     N86991   8.515   0.622   5.868  1.0005  1.0466 -0.3892
  631MOL0     N86992   8.396   0.662   5.867  0.1543  0.1422 -0.6105
  631MOL0     C86993   7.390   1.384   6.183 -0.0212 -0.8026  0.6987
  631MOL0     C86994   7.256   1.400   6.226 -0.2452  0.1831  0.4485
  631MOL0     C86995   6.906   1.528   6.485  0.3599 -0.5189  0.6689
  631MOL0     C86996   6.827   1.527   6.359 -0.8900 -0.2296  0.4254
  631MOL0     C86997   6.698   1.482   6.368  0.7597  0.5988  0.3616
  631MOL0     C86998   6.638   1.456   6.495  0.3771 -0.6933  1.1148
  631MOL0     O86999   6.502   1.438   6.478  0.8451 -0.1621  0.4530
  631MOL0     C87000   6.433   1.422   6.599  0.2075  0.3877 -0.5323
  631MOL0     C87001   6.284   1.437   6.549  0.0483 -0.2567 -0.0667
  631MOL0     C87002   6.257   1.590   6.537  0.5975  0.2071 -0.1894
  631MOL0     C87003   6.106   1.610   6.552 -0.1739 -0.5940  0.0284
  631MOL0     C87004   6.064   1.747   6.504 -0.1389  0.5412 -0.1933
  631MOL0     C87005   6.060   1.859   6.450  0.5157 -0.1575 -0.8023
  631MOL0     C87006   6.713   1.475   6.613  0.3651  0.2147 -0.7600
  631MOL0     C87007   6.848   1.500   6.612  0.1440 -0.3458 -0.0814
  631MOL0     C87008   6.927   1.501   6.745 -0.0182 -0.1227  0.0857
  631MOL0     H87009   7.311   1.619   6.479  3.1415 -0.7164  2.0251
  631MOL0     H87010   7.534   1.614   6.380 -2.2748  0.9836  5.0900
  631MOL0     H87011   7.639   1.308   6.030  0.1463  0.1949  0.3635
  631MOL0     H87012   7.635   1.258   6.198  2.1965 -1.4913  0.3562
  631MOL0     H87013   7.863   1.435   6.089  5.1529  0.1012  2.5062
  631MOL0     H87014   7.837   1.400   6.258 -1.1010 -3.2106  1.8794
  631MOL0     H87015   8.008   1.256   6.196  1.5918  3.3870 -1.8320
  631MOL0     H87016   7.883   1.148   6.196  3.9387 -1.9929 -1.1055
  631MOL0     H87017   7.867   1.154   5.947 -0.6945  2.1585 -1.4478
  631MOL0     H87018   7.958   1.308   5.945 -2.1040  0.0919 -0.2119
  631MOL0     H87019   8.171   1.182   6.028  2.8767 -3.9889  0.0516
  631MOL0     H87020   8.121   1.156   5.868  4.0296 -1.8949  0.0337
  631MOL0     H87021   8.049   0.970   6.117 -0.0445 -0.7714 -0.5416
  631MOL0     H87022   8.002   0.940   5.957 -1.2799  0.3792  0.9199
  631MOL0     H87023   8.299   0.977   6.044  0.5154 -2.4862  3.2020
  631MOL0     H87024   8.244   0.937   5.876  2.8644 -1.1205  0.6117
  631MOL0     H87025   8.203   0.732   6.100  0.8249 -2.4732 -0.4650
  631MOL0     H87026   8.152   0.726   5.934 -3.0605  2.3233  0.9186
  631MOL0     H87027   8.483   0.763   6.169  2.4537 -0.1291 -0.2987
  631MOL0     H87028   8.736   0.722   6.106  0.3817  0.1881  0.1003
  631MOL0     H87029   8.779   0.650   5.955 -2.5360  0.4629 -1.2110
  631MOL0     H87030   8.832   0.500   6.136  1.7227 -0.4101 -4.2751
  631MOL0     H87031   8.648   0.481   6.170 -0.8478  0.4364 -1.4393
  631MOL0     H87032   8.763   0.302   6.042  1.7938 -0.0022 -1.3553
  631MOL0     H87033   8.609   0.366   5.977 -0.0451 -0.1402  1.5945
  631MOL0     H87034   8.759   0.488   5.808 -0.8437 -1.3558 -0.3379
  631MOL0     H87035   8.896   0.406   5.904 -0.0888 -0.3900  3.2625
  631MOL0     H87036   8.918   0.468   5.671  1.2954 -0.9430  1.3097
  631MOL0     H87037   9.065   0.566   5.500  0.2536  0.0974  1.3822
  631MOL0     H87038   9.002   0.523   5.342 -3.0289  2.5790  2.2727
  631MOL0     H87039   9.148   0.443   5.408 -0.3361 -2.2809  2.6377
  631MOL0     H87040   8.862   0.114   4.939  0.0094  1.0874  1.6558
  631MOL0     H87041   9.018   0.051   4.755  2.8761  1.7518 -0.6121
  631MOL0     H87042   9.419   0.024   4.680  0.2326 -2.2096 -0.3247
  631MOL0     H87043   9.425   0.052   4.856 -1.7001 -0.1420  1.0479
  631MOL0     H87044   9.460  -0.208   4.888  0.2804 -3.5466 -2.2687
  631MOL0     H87045   9.449  -0.219   4.711 -0.5177  0.4658 -0.1296
  631MOL0     H87046   9.667  -0.067   4.861 -1.6427 -1.4652  1.6448
  631MOL0     H87047   9.655  -0.090   4.681  1.1134 -0.5514 -0.5526
  631MOL0     H87048   9.708  -0.331   4.709  1.0073 -0.7666 -0.2501
  631MOL0     H87049   9.688  -0.319   4.883 -2.7475 -0.1043  0.1537
  631MOL0     H87050   9.923  -0.338   4.792  0.1695 -1.1328 -4.0484
  631MOL0     H87051   9.901  -0.176   4.724 -4.2998  0.7610 -1.0785
  631MOL0     H87052   9.869  -0.235   5.016  0.4804  0.5000  0.0763
  631MOL0     H87053   9.882  -0.075   4.954 -3.0731 -0.8754 -1.2504
  631MOL0     H87054  10.130  -0.101   4.971 -1.4113  2.0605 -0.3124
  631MOL0     H87055  10.126  -0.245   4.873  2.4979  0.0809  1.1923
  631MOL0     H87056  10.037  -0.251   5.156 -0.2258  2.0602 -1.8657
  631MOL0     H87057  10.203  -0.287   5.097  0.4561 -1.5595 -1.0083
  631MOL0     H87058   9.321  -0.050   5.027  0.2495  0.7028 -3.1010
  631MOL0     H87059   9.167   0.001   5.224  1.0004 -0.8465 -0.6802
  631MOL0     H87060   8.791   0.082   5.392 -0.1122 -1.1112  1.6188
  631MOL0     H87061   8.719   0.102   5.619 -1.3527 -0.0496 -0.1269
  631MOL0     H87062   7.396   1.337   6.085 -1.9257 -0.7937  0.5440
  631MOL0     H87063   7.180   1.356   6.162  0.6319 -2.0158  0.8584
  631MOL0     H87064   6.879   1.537   6.265  1.1428 -2.2559  1.2416
  631MOL0     H87065   6.633   1.480   6.282  0.4365 -2.2521  0.5674
  631MOL0     H87066   6.452   1.320   6.636 -3.0695 -0.3103 -0.4505
  631MOL0     H87067   6.457   1.484   6.686 -3.7547 -0.0160  1.0407
  631MOL0     H87068   6.221   1.379   6.616  0.0834 -1.1510 -0.7767
  631MOL0     H87069   6.277   1.389   6.450  3.8408  0.1746 -0.6774
  631MOL0     H87070   6.309   1.651   6.611 -0.0874 -0.4392  0.8482
  631MOL0     H87071   6.287   1.612   6.434 -1.4248 -6.5143 -2.7866
  631MOL0     H87072   6.073   1.603   6.656 -3.7491  1.6626 -0.7887
  631MOL0     H87073   6.048   1.539   6.492  2.5087 -3.6140  0.6909
  631MOL0     H87074   6.048   1.956   6.408  0.1765  0.9520  1.6768
  631MOL0     H87075   6.666   1.461   6.709 -2.6093  1.3475 -1.9348
  631MOL0     H87076   6.940   1.607   6.767  1.1393 -0.3136  0.4428
  631MOL0     H87077   6.871   1.454   6.826 -0.1974 -1.4471 -0.7754
  631MOL0     H87078   7.028   1.460   6.731 -0.4879 -1.9982  1.6566
  632MOL0     O87079   8.027   2.989   5.581 -1.0270  0.4871  0.6706
  632MOL0     C87080   7.976   2.893   5.641 -0.7104 -0.3521  0.6460
  632MOL0     O87081   7.954   2.886   5.779 -1.3317 -0.0405 -0.2815
  632MOL0     C87082   7.971   2.999   5.862 -0.1621  0.4981 -0.3563
  632MOL0     C87083   8.027   3.118   5.821  0.2564 -1.6866 -0.6140
  632MOL0     C87084   8.014   3.233   5.907 -0.4977  0.0310 -0.0767
  632MOL0     C87085   7.976   3.222   6.039  0.0752 -0.3345  0.3263
  632MOL0     O87086   7.973   3.342   6.106  0.6242  0.4898  0.2748
  632MOL0     C87087   7.982   3.349   6.250  0.8576 -0.7643  0.0349
  632MOL0     C87088   7.907   3.468   6.321  0.3634  0.2482  0.5352
  632MOL0     C87089   7.974   3.606   6.292  0.8929 -0.0031 -1.2351
  632MOL0     C87090   8.069   3.647   6.401  1.6279 -0.3233 -0.4674
  632MOL0     C87091   8.163   3.764   6.362  0.2549 -0.8470 -0.4817
  632MOL0     C87092   8.081   3.873   6.295 -0.2612 -0.4933 -0.3837
  632MOL0     C87093   8.160   4.004   6.295 -1.0094  0.3397 -0.4217
  632MOL0     C87094   8.108   4.086   6.179  0.1272 -0.2655  0.4345
  632MOL0     N87095   8.158   4.224   6.193  1.0575 -0.3123  0.1612
  632MOL0     C87096   8.104   4.310   6.280  0.0358 -0.3999  0.7143
  632MOL0     C87097   8.176   4.421   6.263 -0.0612 -0.0009  0.4629
  632MOL0     C87098   8.139   4.547   6.335  0.3625  0.0770 -0.2191
  632MOL0     C87099   8.257   4.617   6.400 -0.3848 -1.3629 -0.1357
  632MOL0     C87100   8.250   4.615   6.554 -0.5595 -0.4890 -0.4551
  632MOL0     C87101   8.259   4.475   6.616 -0.2230 -0.4981  0.5708
  632MOL0     O87102   8.369   4.407   6.558 -0.9680 -0.1115 -0.3790
  632MOL0     C87103   8.377   4.271   6.579 -0.2162 -0.0903 -0.0939
  632MOL0     C87104   8.298   4.211   6.674  0.5438 -0.4067 -0.0366
  632MOL0     C87105   8.317   4.077   6.708  0.6691 -1.0154  0.2544
  632MOL0     C87106   8.239   4.029   6.822  0.0364 -0.2439 -0.0026
  632MOL0     C87107   8.401   3.994   6.639  0.7996 -0.3394  0.6623
  632MOL0     C87108   8.439   3.852   6.670  0.3666  0.2567  0.1306
  632MOL0     O87109   8.502   3.781   6.571  0.2576 -0.0258 -0.9939
  632MOL0     C87110   8.564   3.664   6.607  0.2815 -0.2198 -0.4693
  632MOL0     C87111   8.503   3.542   6.631 -0.1329  0.1139  0.0302
  632MOL0     C87112   8.576   3.428   6.656  0.0108 -0.2897 -0.3628
  632MOL0     C87113   8.709   3.439   6.685  0.2847  0.5698 -0.1930
  632MOL0     O87114   8.777   3.331   6.721  0.3450 -0.1418  0.6089
  632MOL0     C87115   8.703   3.229   6.793  0.1527  0.3299 -0.0382
  632MOL0     C87116   8.804   3.122   6.847  0.9476  0.0779  0.6267
  632MOL0     C87117   8.750   3.014   6.944  0.7683  0.7593  0.2767
  632MOL0     C87118   8.718   2.880   6.880 -0.4658  0.8172 -0.2935
  632MOL0     C87119   8.602   2.808   6.954 -1.3379 -0.0803 -0.1961
  632MOL0     C87120   8.583   2.659   6.905  0.1136  0.0380 -0.9234
  632MOL0     C87121   8.512   2.593   7.013  0.0709  0.3587 -0.6764
  632MOL0     C87122   8.463   2.447   6.971 -0.4655 -0.6075  0.0911
  632MOL0    Cl87123   8.607   2.346   6.950  0.1015  0.4549  0.5248
  632MOL0     C87124   8.779   3.562   6.669  0.3271 -0.0219  0.0186
  632MOL0     C87125   8.703   3.674   6.643  0.5217 -0.0703  1.0641
  632MOL0     O87126   8.396   3.796   6.772 -0.1118  0.2122 -0.6462
  632MOL0     C87127   8.482   4.055   6.538  0.0585 -0.3972 -0.2224
  632MOL0     C87128   8.471   4.196   6.508 -1.1045 -1.3557  0.6672
  632MOL0     N87129   8.278   4.395   6.172  0.3974 -0.1703  0.8445
  632MOL0     N87130   8.268   4.270   6.137  0.1837 -1.1493 -0.1371
  632MOL0     C87131   7.943   3.088   6.088  0.1401 -0.1952  0.2341
  632MOL0     C87132   7.926   2.986   5.997 -0.1715  0.4920 -0.0915
  632MOL0     C87133   7.952   2.769   5.573 -0.7759 -0.4511  1.2621
  632MOL0     C87134   7.966   2.651   5.641 -0.2622  0.5856 -0.6745
  632MOL0     C87135   7.924   2.528   5.597  0.4444 -0.1731  0.3797
  632MOL0     C87136   7.864   2.511   5.470 -0.2936  0.0205  0.1819
  632MOL0     O87137   7.840   2.385   5.433 -0.2801 -0.1658  0.8501
  632MOL0     C87138   7.786   2.373   5.298  0.9691 -0.5532  0.5157
  632MOL0     C87139   7.757   2.224   5.250 -0.8542  0.7091 -0.0545
  632MOL0     C87140   7.873   2.127   5.242 -0.1098 -0.4436 -0.5764
  632MOL0     C87141   8.006   2.177   5.181  0.5818 -0.0237 -0.2175
  632MOL0     C87142   7.981   2.241   5.054 -0.1600 -0.6646  0.7290
  632MOL0     C87143   7.983   2.303   4.946  0.1477 -0.9239  0.8605
  632MOL0     C87144   7.857   2.626   5.387 -0.1702  0.6017  0.6244
  632MOL0     C87145   7.906   2.756   5.442  0.6057  0.1763  0.6517
  632MOL0     C87146   7.894   2.873   5.354  0.9689 -0.3747 -0.5025
  632MOL0     H87147   8.082   3.142   5.731 -1.5332  0.9593 -1.1059
  632MOL0     H87148   8.054   3.324   5.862  0.3694 -0.8686 -1.1877
  632MOL0     H87149   8.087   3.364   6.275  0.7291  1.1276 -0.4186
  632MOL0     H87150   7.957   3.256   6.302  0.4352 -0.3826  0.5358
  632MOL0     H87151   7.807   3.471   6.277  1.4938 -1.3093 -2.4536
  632MOL0     H87152   7.902   3.444   6.428 -1.1041  0.6554  0.5733
  632MOL0     H87153   8.024   3.603   6.195  1.2655  0.2432 -1.0538
  632MOL0     H87154   7.893   3.679   6.284  0.6869  0.2163  1.7089
  632MOL0     H87155   8.011   3.659   6.492  0.3531  2.0395 -1.5102
  632MOL0     H87156   8.144   3.569   6.417  0.9402 -1.2518 -1.6287
  632MOL0     H87157   8.253   3.744   6.303  1.7709  0.9110  1.1350
  632MOL0     H87158   8.200   3.796   6.460 -1.5648 -0.6681  0.1836
  632MOL0     H87159   8.060   3.840   6.192  1.5096  2.4729 -1.8443
  632MOL0     H87160   7.993   3.880   6.358  0.0781 -0.9960  0.1558
  632MOL0     H87161   8.263   3.983   6.265  0.2154  2.2700  2.1335
  632MOL0     H87162   8.179   4.071   6.379 -1.2614  0.3817 -0.3958
  632MOL0     H87163   8.147   4.040   6.088  0.0489  0.9883 -0.2448
  632MOL0     H87164   8.000   4.100   6.179 -0.0461 -0.0260  5.0265
  632MOL0     H87165   8.029   4.283   6.354  0.1248 -1.6318  0.3681
  632MOL0     H87166   8.059   4.533   6.408  3.2991 -2.0423  2.9021
  632MOL0     H87167   8.097   4.620   6.265 -0.6429  0.9791  1.2644
  632MOL0     H87168   8.351   4.582   6.355  0.0691 -0.2574 -0.0816
  632MOL0     H87169   8.257   4.724   6.377  4.5225 -1.1176 -0.1054
  632MOL0     H87170   8.322   4.690   6.587 -1.9070  0.8704 -0.4814
  632MOL0     H87171   8.160   4.667   6.588  2.0005  2.7995  1.9292
  632MOL0     H87172   8.271   4.483   6.724  1.9795 -3.7418  0.6774
  632MOL0     H87173   8.165   4.422   6.596 -0.1413 -0.8454  1.0925
  632MOL0     H87174   8.233   4.264   6.743  0.4637 -0.8077  0.2007
  632MOL0     H87175   8.175   3.950   6.781  0.3018 -1.1096  1.1967
  632MOL0     H87176   8.174   4.104   6.868 -0.3519  0.3293 -1.4297
  632MOL0     H87177   8.307   3.993   6.900 -0.4153  0.3566  0.6778
  632MOL0     H87178   8.395   3.548   6.629 -0.1283  2.3988  2.1427
  632MOL0     H87179   8.514   3.340   6.666 -1.0944  0.4436 -0.5526
  632MOL0     H87180   8.639   3.271   6.872  2.5774  0.2439  2.0953
  632MOL0     H87181   8.640   3.172   6.724  0.2828 -0.7641  0.7226
  632MOL0     H87182   8.854   3.074   6.763 -0.0264 -1.8022  1.0720
  632MOL0     H87183   8.878   3.173   6.909 -1.0734  0.6728  2.7122
  632MOL0     H87184   8.669   3.061   7.000  0.3947 -0.9942  1.3182
  632MOL0     H87185   8.828   2.980   7.013  1.5244 -2.3334 -1.8755
  632MOL0     H87186   8.801   2.810   6.870  0.1519  1.4721  0.1664
  632MOL0     H87187   8.680   2.903   6.780 -2.1325  2.3001  0.6125
  632MOL0     H87188   8.612   2.799   7.062  3.8707 -0.8533 -0.4995
  632MOL0     H87189   8.512   2.860   6.918 -2.1085 -2.1325 -1.4097
  632MOL0     H87190   8.682   2.617   6.889  0.4554 -2.0993  4.5519
  632MOL0     H87191   8.520   2.663   6.816 -1.5303  2.2252  0.2394
  632MOL0     H87192   8.416   2.644   7.028  0.9365  2.0104 -0.5720
  632MOL0     H87193   8.559   2.589   7.111  1.0143 -1.0981 -1.1578
  632MOL0     H87194   8.407   2.455   6.877 -0.8080 -2.0750  0.1568
  632MOL0     H87195   8.404   2.402   7.050  1.6772  0.6129  2.5346
  632MOL0     H87196   8.885   3.577   6.691  0.3051  0.3127 -0.0966
  632MOL0     H87197   8.756   3.768   6.644 -1.3555  1.0594  0.1632
  632MOL0     H87198   8.558   4.000   6.484  2.1778 -0.3352  2.4730
  632MOL0     H87199   8.519   4.249   6.426 -1.9433 -0.5987  0.6488
  632MOL0     H87200   7.897   3.079   6.186 -0.1991 -2.2620 -0.0697
  632MOL0     H87201   7.896   2.887   6.030  1.1902  0.1274  0.1230
  632MOL0     H87202   8.005   2.644   5.742 -2.2439  0.5622  0.1270
  632MOL0     H87203   7.930   2.448   5.670  3.0532  0.3659  0.8469
  632MOL0     H87204   7.692   2.426   5.283  2.1976  1.0369 -2.3958
  632MOL0     H87205   7.855   2.427   5.233  0.5772  1.3618  1.6401
  632MOL0     H87206   7.725   2.244   5.147 -4.4801 -1.6637  0.4318
  632MOL0     H87207   7.675   2.181   5.307  1.3774 -3.7983  0.1836
  632MOL0     H87208   7.895   2.102   5.347  1.4104  1.2993 -0.4473
  632MOL0     H87209   7.836   2.043   5.183  0.4076 -1.0750 -0.0232
  632MOL0     H87210   8.084   2.100   5.176  0.1267 -0.7362  2.3158
  632MOL0     H87211   8.042   2.255   5.249 -1.1931 -0.4399  1.2696
  632MOL0     H87212   7.977   2.363   4.858 -1.8281  0.7535  2.0390
  632MOL0     H87213   7.815   2.632   5.288  2.4604  0.7679 -0.5770
  632MOL0     H87214   7.839   2.953   5.405 -0.7105 -0.6117 -1.8630
  632MOL0     H87215   7.993   2.894   5.313  1.4722 -2.2964 -0.3780
  632MOL0     H87216   7.828   2.847   5.271  0.9906 -1.2404 -0.2567
  633MOL0     O87217  11.552   1.241   3.580  0.0376 -0.3916 -0.5602
  633MOL0     C87218  11.441   1.212   3.553 -0.7672 -0.5251  0.4937
  633MOL0     O87219  11.348   1.172   3.653  0.4670 -0.3121 -1.3278
  633MOL0     C87220  11.392   1.179   3.787  0.3947  0.5765 -0.3645
  633MOL0     C87221  11.457   1.293   3.843 -0.3640 -0.9714  0.4821
  633MOL0     C87222  11.493   1.283   3.975 -0.3786  0.1599 -0.9189
  633MOL0     C87223  11.469   1.168   4.059  0.2582  0.0281  0.1650
  633MOL0     O87224  11.512   1.181   4.186  0.1336  0.7893  0.1910
  633MOL0     C87225  11.539   1.061   4.267  0.0453  0.1802  0.2732
  633MOL0     C87226  11.405   1.023   4.340  0.3121  0.6445 -0.1965
  633MOL0     C87227  11.375   1.137   4.444  0.1854  0.0987 -0.0460
  633MOL0     C87228  11.247   1.091   4.516 -0.8325  1.8304 -0.0933
  633MOL0     C87229  11.185   1.205   4.597 -1.0689  0.2099 -0.3252
  633MOL0     C87230  11.055   1.171   4.662  0.0004 -0.1042  0.2954
  633MOL0     C87231  11.022   1.267   4.784  0.1112  0.7031 -0.0906
  633MOL0     C87232  11.006   1.408   4.734 -0.4823 -0.9665  0.4718
  633MOL0     N87233  11.048   1.516   4.826  0.0165 -0.1957  0.5955
  633MOL0     C87234  10.998   1.534   4.955  0.6253 -0.6246  0.1021
  633MOL0     C87235  11.072   1.647   4.993  1.1194  0.4900 -0.5436
  633MOL0     C87236  11.058   1.723   5.119  0.4988  0.4317  0.1252
  633MOL0     C87237  11.005   1.865   5.115  0.5023 -0.5291 -0.3244
  633MOL0     C87238  10.872   1.856   5.041 -0.0820 -0.5861 -0.4569
  633MOL0     C87239  10.798   1.991   5.026 -0.6407  0.8419  0.1118
  633MOL0     O87240  10.687   1.985   5.106 -1.0378 -0.4150 -0.1923
  633MOL0     C87241  10.569   1.936   5.056 -0.2223 -0.2900  0.2284
  633MOL0     C87242  10.498   1.855   5.142  0.1614 -0.0751  0.8280
  633MOL0     C87243  10.381   1.789   5.099  0.5583  0.9644 -0.2618
  633MOL0     C87244  10.327   1.696   5.206  0.2509  0.4730 -0.9722
  633MOL0     C87245  10.327   1.808   4.969 -0.1053  0.5309 -0.0447
  633MOL0     C87246  10.192   1.745   4.929 -0.8356  0.0011 -0.4906
  633MOL0     O87247  10.097   1.735   5.030 -0.3728 -0.0529  0.5905
  633MOL0     C87248   9.978   1.698   4.975  0.8064 -0.0031 -0.2061
  633MOL0     C87249   9.882   1.785   4.933 -0.5454 -0.9353  0.1648
  633MOL0     C87250   9.762   1.739   4.866  0.6795 -0.1154  0.0106
  633MOL0     C87251   9.736   1.603   4.842  0.2256  0.8370 -0.5324
  633MOL0     O87252   9.621   1.556   4.787 -0.3961 -0.3075  0.7723
  633MOL0     C87253   9.602   1.411   4.770  1.0185  0.1059  0.1257
  633MOL0     C87254   9.456   1.358   4.727  0.8692  0.4992 -0.0801
  633MOL0     C87255   9.352   1.446   4.811  1.3558 -0.3448 -0.6263
  633MOL0     C87256   9.353   1.440   4.957  0.5144  0.2741  0.0881
  633MOL0     C87257   9.252   1.525   5.029  1.2722  0.3485  0.7748
  633MOL0     C87258   9.297   1.550   5.173  0.0046  0.9597 -0.6036
  633MOL0     C87259   9.297   1.421   5.260  0.1468 -0.1748 -0.1067
  633MOL0     C87260   9.346   1.457   5.399  0.3957  0.4125 -0.5026
  633MOL0    Cl87261   9.208   1.491   5.525 -0.1267  0.5078 -0.5672
  633MOL0     C87262   9.833   1.520   4.897  0.2405  1.0911  0.1705
  633MOL0     C87263   9.950   1.565   4.957  0.5208 -0.6397 -0.7675
  633MOL0     O87264  10.182   1.719   4.806  0.0691 -0.2111  0.1149
  633MOL0     C87265  10.390   1.899   4.895 -1.5964 -0.5547  0.4213
  633MOL0     C87266  10.510   1.963   4.930 -0.1823 -0.1672  0.8150
  633MOL0     N87267  11.162   1.671   4.899  0.5900  0.0519 -0.4252
  633MOL0     N87268  11.147   1.606   4.794  0.6137  0.4818  0.7599
  633MOL0     C87269  11.412   1.054   3.998 -0.6194  1.4829  0.2272
  633MOL0     C87270  11.367   1.062   3.860 -0.2534 -0.9359 -0.7539
  633MOL0     C87271  11.412   1.183   3.412 -0.7339 -0.1572 -0.6976
  633MOL0     C87272  11.309   1.098   3.386  0.4508  0.1849 -0.2676
  633MOL0     C87273  11.269   1.054   3.262  0.5901 -0.0642  0.7831
  633MOL0     C87274  11.351   1.079   3.152  0.0737 -0.5656  0.7939
  633MOL0     O87275  11.335   1.045   3.021  0.1800  0.2723 -0.2849
  633MOL0     C87276  11.261   0.925   2.990  0.5603 -0.3002  0.5672
  633MOL0     C87277  11.323   0.791   3.027 -0.2952  0.0945  0.1339
  633MOL0     C87278  11.425   0.735   2.930  0.3146  0.1454  0.4843
  633MOL0     C87279  11.503   0.613   2.979 -0.0479  0.5063 -0.2235
  633MOL0     C87280  11.420   0.497   2.938 -0.4619  0.8375 -0.1905
  633MOL0     C87281  11.365   0.390   2.935 -0.7360  0.5124 -0.3318
  633MOL0     C87282  11.460   1.160   3.166 -0.2431 -0.0139 -0.4156
  633MOL0     C87283  11.498   1.210   3.298  0.3105  0.0548 -0.5039
  633MOL0     C87284  11.623   1.291   3.299 -0.1760 -0.1884  0.4455
  633MOL0     H87285  11.460   1.385   3.786  1.6138 -1.4294 -0.2424
  633MOL0     H87286  11.534   1.369   4.027 -0.4990 -0.8723  0.9859
  633MOL0     H87287  11.620   1.070   4.340  0.0430 -1.4778  0.4984
  633MOL0     H87288  11.577   0.979   4.205  2.6750 -0.1069  2.1086
  633MOL0     H87289  11.327   1.017   4.264  0.1019 -4.1105  0.1307
  633MOL0     H87290  11.412   0.927   4.391 -1.2469  1.7404  2.3033
  633MOL0     H87291  11.456   1.149   4.516  0.7940 -1.8895 -0.3448
  633MOL0     H87292  11.360   1.230   4.388  1.8767 -1.0497 -2.5839
  633MOL0     H87293  11.172   1.061   4.442  4.0982 -6.0086 -3.2218
  633MOL0     H87294  11.263   1.002   4.577 -1.8437  1.2770 -0.6118
  633MOL0     H87295  11.188   1.298   4.541  3.9657  1.7893  2.0158
  633MOL0     H87296  11.252   1.228   4.680 -1.1989 -2.0250  0.4791
  633MOL0     H87297  10.982   1.180   4.581  1.6267 -1.5663 -1.4144
  633MOL0     H87298  11.054   1.066   4.691  0.9965 -0.5001 -0.9999
  633MOL0     H87299  11.100   1.257   4.859 -1.2231 -1.6817  1.0628
  633MOL0     H87300  10.924   1.243   4.828  0.8166  0.1912  1.2396
  633MOL0     H87301  11.064   1.436   4.645 -0.3643  0.8778  1.0937
  633MOL0     H87302  10.903   1.432   4.706 -0.4742 -0.6363  0.7344
  633MOL0     H87303  10.918   1.482   5.006 -0.4112  1.5134  0.7601
  633MOL0     H87304  11.161   1.738   5.151  1.0332 -2.5595  0.1283
  633MOL0     H87305  11.007   1.672   5.202 -0.7846  2.1824  0.4643
  633MOL0     H87306  10.978   1.901   5.214 -2.9866 -2.9611 -0.2142
  633MOL0     H87307  11.074   1.922   5.052  0.2136 -1.7891 -1.8642
  633MOL0     H87308  10.898   1.823   4.940 -1.0237  1.1639 -1.3141
  633MOL0     H87309  10.807   1.780   5.085  3.0813 -2.7661  0.8925
  633MOL0     H87310  10.870   2.066   5.057  0.8162 -1.2991  2.2896
  633MOL0     H87311  10.766   2.009   4.923 -3.0044 -0.8285  0.4673
  633MOL0     H87312  10.539   1.826   5.238  0.5987 -1.1192  0.3404
  633MOL0     H87313  10.263   1.758   5.269  1.4448  0.8490 -0.0867
  633MOL0     H87314  10.401   1.640   5.265  0.3248  0.0666 -1.4412
  633MOL0     H87315  10.276   1.613   5.157  0.1851  1.0641 -1.9396
  633MOL0     H87316   9.891   1.892   4.949 -2.8517 -0.6696  0.0210
  633MOL0     H87317   9.694   1.811   4.821  1.1454  1.1235  1.2053
  633MOL0     H87318   9.670   1.367   4.696  0.4855 -3.1108  1.3766
  633MOL0     H87319   9.618   1.360   4.866  1.5456  1.0980  0.5882
  633MOL0     H87320   9.433   1.373   4.621  1.3560  2.6963  0.0687
  633MOL0     H87321   9.439   1.252   4.744 -1.8131  0.5586 -1.7455
  633MOL0     H87322   9.257   1.405   4.775 -0.5896  1.9860  1.4992
  633MOL0     H87323   9.349   1.549   4.774 -0.9952  0.4367  1.5082
  633MOL0     H87324   9.453   1.471   4.989  1.6377 -0.9991 -1.9387
  633MOL0     H87325   9.338   1.336   4.988 -1.7844  0.7698  0.7940
  633MOL0     H87326   9.255   1.621   4.977 -0.5825 -0.0674 -0.1659
  633MOL0     H87327   9.155   1.476   5.019  1.8160 -0.2805 -2.8701
  633MOL0     H87328   9.232   1.621   5.225 -0.5113 -0.4392  0.7253
  633MOL0     H87329   9.393   1.600   5.162  0.3981 -0.0145 -1.9057
  633MOL0     H87330   9.357   1.346   5.208  0.0736  0.0445 -0.5106
  633MOL0     H87331   9.198   1.376   5.272 -1.3407  2.6848 -0.8274
  633MOL0     H87332   9.427   1.530   5.408  0.7596 -0.0896  0.4950
  633MOL0     H87333   9.395   1.365   5.432  0.0349  0.9592  1.7455
  633MOL0     H87334   9.822   1.412   4.892 -2.8082  0.8006  5.3629
  633MOL0     H87335  10.017   1.492   5.001 -1.7963 -1.3572  1.8457
  633MOL0     H87336  10.348   1.930   4.800 -4.7450  2.5522  2.5613
  633MOL0     H87337  10.547   2.026   4.850 -1.2624  1.1340  1.2930
  633MOL0     H87338  11.404   0.958   4.048  0.1259  2.3699  2.1531
  633MOL0     H87339  11.313   0.992   3.797 -2.2414  0.7688 -1.0541
  633MOL0     H87340  11.240   1.075   3.467 -1.5483  3.7606 -0.7257
  633MOL0     H87341  11.176   0.998   3.256  0.5736 -0.0249  0.6783
  633MOL0     H87342  11.160   0.927   3.032 -1.0099 -1.7989 -2.8298
  633MOL0     H87343  11.219   0.923   2.889 -1.8556  6.8084  0.8760
  633MOL0     H87344  11.232   0.730   3.027 -0.0041 -0.3594  1.1456
  633MOL0     H87345  11.365   0.797   3.127 -0.6822 -0.9219  0.3731
  633MOL0     H87346  11.367   0.708   2.842  2.9544  2.7175 -2.2305
  633MOL0     H87347  11.494   0.814   2.900 -1.4477  1.0702 -1.3094
  633MOL0     H87348  11.498   0.612   3.088 -0.2346 -1.4090 -0.2024
  633MOL0     H87349  11.606   0.605   2.942 -0.5724 -0.9313 -1.4956
  633MOL0     H87350  11.315   0.301   2.903 -1.8287  0.5479  1.1807
  633MOL0     H87351  11.524   1.179   3.080  0.2764 -3.4302 -0.9458
  633MOL0     H87352  11.610   1.357   3.212  0.4113  2.2226  2.0891
  633MOL0     H87353  11.639   1.363   3.379  0.3804 -0.1866  0.3435
  633MOL0     H87354  11.716   1.235   3.285  0.0627  0.7061 -2.2173
  634MOL0     O87355   5.373   1.678  10.696  0.6273 -0.0958 -0.2379
  634MOL0     C87356   5.344   1.791  10.729  0.3770 -1.1925 -0.0266
  634MOL0     O87357   5.435   1.888  10.757  0.5864 -0.6160 -0.7768
  634MOL0     C87358   5.568   1.853  10.776 -0.0273 -0.2173  0.0775
  634MOL0     C87359   5.652   1.789  10.677 -0.8966 -0.1514 -0.4168
  634MOL0     C87360   5.795   1.777  10.691  0.0021  0.7635 -0.3736
  634MOL0     C87361   5.845   1.811  10.821  0.0639 -1.1239 -0.0764
  634MOL0     O87362   5.975   1.800  10.863  0.0826  0.0228  0.1754
  634MOL0     C87363   6.075   1.745  10.768 -0.2701 -0.2148  0.6715
  634MOL0     C87364   6.209   1.702  10.835  1.4148 -0.0290  1.0409
  634MOL0     C87365   6.279   1.807  10.915 -0.7548 -0.5106  0.4347
  634MOL0     C87366   6.294   1.942  10.855 -1.4689 -0.1940  0.1055
  634MOL0     C87367   6.343   2.058  10.943  0.2626 -0.4585 -0.4058
  634MOL0     C87368   6.467   2.026  11.029  0.6016 -0.5564  0.5679
  634MOL0     C87369   6.602   1.985  10.959  0.3266 -0.6616  0.3137
  634MOL0     C87370   6.709   1.981  11.072  0.2453 -0.0446  0.3596
  634MOL0     N87371   6.849   1.980  11.024  0.5463  0.0177  0.7503
  634MOL0     C87372   6.939   2.087  11.033  0.0385  0.2017  0.3804
  634MOL0     C87373   7.045   2.034  10.969  0.1200 -1.7133  0.1028
  634MOL0     C87374   7.179   2.109  10.938  1.1185  0.8323  0.3212
  634MOL0     C87375   7.263   2.092  11.056 -0.2543  0.5408 -0.5439
  634MOL0     C87376   7.286   1.943  11.091  0.9486  0.2981  0.0932
  634MOL0     C87377   7.363   1.950  11.219  0.5086 -0.1752  0.1325
  634MOL0     O87378   7.499   1.989  11.192 -0.3504  0.9823  0.7897
  634MOL0     C87379   7.587   1.933  11.277 -0.1696 -0.4238 -0.3451
  634MOL0     C87380   7.714   1.893  11.236 -0.4007  1.3166 -0.6941
  634MOL0     C87381   7.812   1.841  11.331 -0.3015 -0.3148  0.0880
  634MOL0     C87382   7.944   1.795  11.273  0.4006 -0.6022  0.8151
  634MOL0     C87383   7.788   1.835  11.466 -0.3849  0.7954 -0.2855
  634MOL0     C87384   7.880   1.789  11.572 -0.9381  0.1663 -0.8291
  634MOL0     O87385   8.009   1.818  11.554  0.0382  0.4247 -0.1368
  634MOL0     C87386   8.090   1.795  11.657 -0.3679 -0.6388 -0.8667
  634MOL0     C87387   8.169   1.684  11.659 -0.1056 -0.1281  0.2012
  634MOL0     C87388   8.241   1.650  11.771 -0.2269 -1.2264  0.6732
  634MOL0     C87389   8.252   1.746  11.876 -0.9828  0.3566  0.2973
  634MOL0     O87390   8.323   1.720  11.989 -0.9045  0.2355 -0.8573
  634MOL0     C87391   8.348   1.584  12.045 -0.5508  0.1940 -0.3073
  634MOL0     C87392   8.493   1.539  12.047  0.2068  0.1679 -0.4040
  634MOL0     C87393   8.562   1.646  12.128 -0.4191 -0.1202 -0.6139
  634MOL0     C87394   8.695   1.601  12.169 -1.1980  0.0203  0.3235
  634MOL0     C87395   8.715   1.476  12.258 -0.2230 -0.9996  1.0293
  634MOL0     C87396   8.626   1.488  12.381 -0.0753 -0.1330 -0.2968
  634MOL0     C87397   8.680   1.395  12.505  0.7249 -1.2101 -0.3351
  634MOL0     C87398   8.606   1.430  12.632 -0.1512  0.7218 -0.3794
  634MOL0    Cl87399   8.633   1.592  12.695 -0.2092 -0.0943  0.2594
  634MOL0     C87400   8.198   1.874  11.866 -0.3323  0.6733  0.3528
  634MOL0     C87401   8.120   1.899  11.749  0.6766 -0.1002  0.6435
  634MOL0     O87402   7.834   1.730  11.674 -0.3801  0.0779 -0.8137
  634MOL0     C87403   7.660   1.881  11.504  0.1466  0.6767 -0.5361
  634MOL0     C87404   7.560   1.933  11.418 -0.8844  0.7143  0.3926
  634MOL0     N87405   7.015   1.919  10.904 -0.1159 -0.1277  0.9748
  634MOL0     N87406   6.897   1.881  10.946 -0.4186 -0.9312 -1.0840
  634MOL0     C87407   5.759   1.864  10.912  0.7271 -0.2903 -1.1995
  634MOL0     C87408   5.627   1.892  10.891  0.4121 -0.4955  0.1152
  634MOL0     C87409   5.201   1.825  10.748  0.5941 -0.2337 -0.3034
  634MOL0     C87410   5.167   1.963  10.759  0.1590 -0.1257 -0.3362
  634MOL0     C87411   5.037   2.006  10.754 -0.2672  0.2088 -0.2885
  634MOL0     C87412   4.936   1.912  10.735 -0.0297 -0.1752 -0.6385
  634MOL0     O87413   4.814   1.940  10.689  0.3581 -0.2841 -0.6093
  634MOL0     C87414   4.769   2.069  10.657 -0.9697 -1.5827  0.1832
  634MOL0     C87415   4.744   2.155  10.777 -0.2903  0.5644  0.5223
  634MOL0     C87416   4.674   2.082  10.893  0.2194  0.1727  0.7834
  634MOL0     C87417   4.633   2.185  10.997 -0.1649 -0.6072  0.3857
  634MOL0     C87418   4.717   2.303  11.042  0.1643 -0.7817  0.0672
  634MOL0     C87419   4.779   2.404  11.067  0.2106 -0.0581 -0.4581
  634MOL0     C87420   4.966   1.774  10.752  0.3370 -0.8845  0.6740
  634MOL0     C87421   5.100   1.730  10.760 -1.0620 -0.3026  0.0447
  634MOL0     C87422   5.123   1.581  10.775 -0.2875  0.0792  0.1543
  634MOL0     H87423   5.601   1.748  10.590  2.1711 -1.2651 -1.8303
  634MOL0     H87424   5.862   1.740  10.614 -0.6248  0.7720 -0.9239
  634MOL0     H87425   6.098   1.821  10.694 -0.4062 -1.2660 -0.4782
  634MOL0     H87426   6.049   1.658  10.707  3.7598 -0.5989 -0.7972
  634MOL0     H87427   6.185   1.625  10.909 -0.3842  0.3977  0.9444
  634MOL0     H87428   6.274   1.667  10.755 -0.1886  2.8245 -1.7206
  634MOL0     H87429   6.227   1.817  11.011  0.1897  2.0243  0.7652
  634MOL0     H87430   6.374   1.762  10.945  0.8562  2.3127 -0.1257
  634MOL0     H87431   6.370   1.935  10.777  0.5683  1.3300  1.8296
  634MOL0     H87432   6.201   1.981  10.812 -1.9230  1.3174  2.2585
  634MOL0     H87433   6.265   2.087  11.013  0.9078  0.7733 -0.1789
  634MOL0     H87434   6.362   2.148  10.885 -3.3243  0.9137  0.3071
  634MOL0     H87435   6.506   2.116  11.078  3.2577  1.4083 -4.3962
  634MOL0     H87436   6.430   1.950  11.099  0.4684  1.5185  2.8966
  634MOL0     H87437   6.640   2.056  10.885 -1.4671 -0.8017 -0.8066
  634MOL0     H87438   6.591   1.890  10.905  0.3536 -0.4262 -0.1075
  634MOL0     H87439   6.698   2.054  11.153 -0.0119  1.8935 -1.3207
  634MOL0     H87440   6.712   1.887  11.127 -0.3188 -0.7406 -0.7631
  634MOL0     H87441   6.922   2.175  11.095 -0.0478  0.3822  0.1054
  634MOL0     H87442   7.165   2.215  10.918  1.8210  0.5165 -2.2604
  634MOL0     H87443   7.226   2.063  10.850 -1.0941  1.6109 -1.3417
  634MOL0     H87444   7.354   2.146  11.030  0.9446 -1.7690 -1.4219
  634MOL0     H87445   7.221   2.144  11.142  3.1136  0.7623  1.1120
  634MOL0     H87446   7.195   1.882  11.099  0.5077  0.9324  0.0425
  634MOL0     H87447   7.352   1.915  11.009  1.1179 -1.2095  0.7097
  634MOL0     H87448   7.314   2.020  11.287  2.1173  1.9214 -0.7487
  634MOL0     H87449   7.361   1.855  11.273  1.6723 -0.4659 -0.2927
  634MOL0     H87450   7.748   1.890  11.133  1.0653 -1.0324 -0.2351
  634MOL0     H87451   8.032   1.838  11.322  0.3413  2.0934 -1.2273
  634MOL0     H87452   7.964   1.833  11.172  1.4692 -1.9781  0.4724
  634MOL0     H87453   7.943   1.689  11.247 -0.6364 -0.3101 -0.4581
  634MOL0     H87454   8.152   1.608  11.584 -1.0706  0.5875 -0.3296
  634MOL0     H87455   8.296   1.557  11.782  1.7162  0.0897  3.0284
  634MOL0     H87456   8.300   1.577  12.142 -0.5490  0.3351 -0.2954
  634MOL0     H87457   8.298   1.506  11.986  0.8116  0.9240 -2.5765
  634MOL0     H87458   8.503   1.440  12.092  0.5284  0.6779  0.6835
  634MOL0     H87459   8.538   1.537  11.947  2.1663  3.2972  0.2798
  634MOL0     H87460   8.514   1.654  12.226  0.6028 -1.7533  0.0731
  634MOL0     H87461   8.559   1.747  12.086 -4.0290 -0.1730 -0.8090
  634MOL0     H87462   8.730   1.691  12.222 -2.8889  1.2064 -0.4983
  634MOL0     H87463   8.770   1.592  12.090 -0.0613 -0.3713  1.4180
  634MOL0     H87464   8.686   1.381  12.214 -3.1192  1.3975 -2.8483
  634MOL0     H87465   8.820   1.477  12.288  2.3454 -0.1463 -6.2155
  634MOL0     H87466   8.522   1.464  12.355 -0.0085  0.0356 -0.7310
  634MOL0     H87467   8.629   1.597  12.392  1.8288  0.8869 -6.8262
  634MOL0     H87468   8.788   1.414  12.510  0.3138  1.7918 -1.0688
  634MOL0     H87469   8.674   1.288  12.481  2.1887 -1.1872 -0.8862
  634MOL0     H87470   8.645   1.361  12.707 -2.3637 -1.0894 -0.7806
  634MOL0     H87471   8.500   1.406  12.620  0.2574 -0.5498 -1.8430
  634MOL0     H87472   8.220   1.942  11.947 -0.4129  0.7326  0.3256
  634MOL0     H87473   8.075   1.997  11.734  1.0380 -0.0526 -0.2263
  634MOL0     H87474   7.643   1.870  11.611  3.2357  1.3502  0.1379
  634MOL0     H87475   7.463   1.966  11.455 -1.9479 -1.7172 -0.0422
  634MOL0     H87476   5.813   1.897  11.000 -2.4890  1.3814  0.3492
  634MOL0     H87477   5.576   1.938  10.975  0.1839 -3.0155  1.4362
  634MOL0     H87478   5.251   2.030  10.747  2.5117 -2.8967 -0.2586
  634MOL0     H87479   5.035   2.114  10.756  1.1798  0.2576  1.1739
  634MOL0     H87480   4.855   2.102  10.597 -1.0233 -0.5927  0.6307
  634MOL0     H87481   4.682   2.068  10.592 -0.4925  0.9264 -0.6060
  634MOL0     H87482   4.687   2.243  10.744  0.6555  1.7478  1.8968
  634MOL0     H87483   4.833   2.206  10.817 -2.3616  2.5558  2.9292
  634MOL0     H87484   4.588   2.023  10.861  1.8790 -1.4070 -1.0501
  634MOL0     H87485   4.752   2.018  10.934  0.4104  1.7910  3.1864
  634MOL0     H87486   4.616   2.128  11.089 -0.9713  1.3691  1.5313
  634MOL0     H87487   4.537   2.231  10.974  0.9093 -0.0194 -3.7103
  634MOL0     H87488   4.839   2.486  11.101  2.6926 -1.9109 -0.0771
  634MOL0     H87489   4.887   1.701  10.736  1.1388 -1.8694  1.1341
  634MOL0     H87490   5.139   1.518  10.687  2.6718  0.6133  0.1839
  634MOL0     H87491   5.220   1.559  10.821  1.5057 -0.6661 -3.5773
  634MOL0     H87492   5.037   1.539  10.827 -0.7011  1.1865  0.3876
  635MOL0     O87493   5.005   1.196   8.146  0.9207 -0.3138 -0.1421
  635MOL0     C87494   4.915   1.120   8.139 -0.9468  0.8038 -0.9062
  635MOL0     O87495   4.804   1.148   8.074  1.2983 -0.1456 -0.5312
  635MOL0     C87496   4.777   1.275   8.029 -0.2614  1.4487  0.3547
  635MOL0     C87497   4.775   1.378   8.115 -0.7888 -0.7733  0.5437
  635MOL0     C87498   4.747   1.505   8.081 -0.4802 -0.0097 -0.0405
  635MOL0     C87499   4.718   1.541   7.953 -0.0760  0.1743 -0.1818
  635MOL0     O87500   4.681   1.673   7.931  0.3124  0.0497 -0.3911
  635MOL0     C87501   4.664   1.726   7.806 -0.5677  0.3288  0.6115
  635MOL0     C87502   4.668   1.872   7.798  0.2866 -0.0211 -0.6790
  635MOL0     C87503   4.560   1.948   7.880  0.4816 -0.2049 -1.3764
  635MOL0     C87504   4.429   1.944   7.791 -0.1672 -0.5252 -0.3354
  635MOL0     C87505   4.298   2.011   7.863 -0.3661  0.6339 -0.6516
  635MOL0     C87506   4.164   1.990   7.790  0.1678 -0.8955 -0.1793
  635MOL0     C87507   4.045   2.041   7.874  0.5391 -0.0931 -0.3705
  635MOL0     C87508   3.902   1.988   7.838  0.2304 -0.6792  0.3568
  635MOL0     N87509   3.840   2.056   7.719 -0.0046 -1.1588  0.0654
  635MOL0     C87510   3.898   2.142   7.627 -0.6496  0.3737 -0.6756
  635MOL0     C87511   3.797   2.169   7.541 -0.8842 -0.2385  0.3804
  635MOL0     C87512   3.814   2.247   7.415 -0.3722 -0.5820 -1.5420
  635MOL0     C87513   3.767   2.176   7.297  0.1505 -0.0503  0.2334
  635MOL0     C87514   3.764   2.274   7.174 -0.6717 -0.0054 -0.3471
  635MOL0     C87515   3.783   2.179   7.048 -0.1032  1.4033 -0.0829
  635MOL0     O87516   3.775   2.262   6.933 -0.3262 -1.1552 -0.9125
  635MOL0     C87517   3.890   2.325   6.888 -0.0093 -0.2325  0.2866
  635MOL0     C87518   4.020   2.310   6.944  0.8965  0.0536 -0.0202
  635MOL0     C87519   4.134   2.376   6.890  0.4710 -0.2368  0.6057
  635MOL0     C87520   4.275   2.356   6.948  0.0246 -0.1961  0.5036
  635MOL0     C87521   4.118   2.454   6.769  0.0160 -0.1033 -0.3477
  635MOL0     C87522   4.234   2.523   6.689 -0.2030 -0.3702 -0.4768
  635MOL0     O87523   4.186   2.599   6.587 -0.7975  0.2523 -0.4287
  635MOL0     C87524   4.281   2.674   6.535  0.4193 -0.5672 -0.5905
  635MOL0     C87525   4.392   2.627   6.460  0.5206  0.0494 -0.3926
  635MOL0     C87526   4.484   2.703   6.405 -0.4374 -0.0399  0.0233
  635MOL0     C87527   4.476   2.842   6.412 -0.3321 -0.2314  0.7325
  635MOL0     O87528   4.554   2.935   6.357 -0.3564 -0.5273  0.0121
  635MOL0     C87529   4.671   2.982   6.430  0.4932  0.6351  0.3227
  635MOL0     C87530   4.755   3.107   6.386 -0.5977 -0.9133  0.1133
  635MOL0     C87531   4.839   3.144   6.504 -0.1939  0.3489  0.3845
  635MOL0     C87532   4.912   3.279   6.481  0.9542 -0.5905  0.1881
  635MOL0     C87533   5.028   3.287   6.580 -0.0641  0.4436 -1.4012
  635MOL0     C87534   5.087   3.429   6.578 -0.3004 -0.9676 -0.1881
  635MOL0     C87535   5.232   3.420   6.622 -0.0287 -0.0463  0.3716
  635MOL0     C87536   5.304   3.556   6.608  0.2577 -0.1880  0.5271
  635MOL0    Cl87537   5.477   3.559   6.647 -0.3202 -0.4522 -0.6219
  635MOL0     C87538   4.377   2.895   6.495 -0.1312 -0.4042  0.5358
  635MOL0     C87539   4.278   2.811   6.547  0.2574 -0.3414 -0.6150
  635MOL0     O87540   4.353   2.492   6.715 -0.0907 -0.2022  0.5955
  635MOL0     C87541   3.984   2.462   6.723 -1.2502  0.1708  0.3021
  635MOL0     C87542   3.872   2.403   6.778 -0.3197 -0.0801 -0.0601
  635MOL0     N87543   3.683   2.109   7.572  0.7960 -0.2114  0.2208
  635MOL0     N87544   3.709   2.044   7.678 -0.4710 -0.0235  0.2038
  635MOL0     C87545   4.708   1.440   7.854 -0.3242  0.6454 -0.0866
  635MOL0     C87546   4.729   1.302   7.895 -0.7922  0.5753 -0.3783
  635MOL0     C87547   4.928   0.977   8.208  0.6448  0.0447 -0.7238
  635MOL0     C87548   4.818   0.886   8.190 -1.2731  0.5708  1.2410
  635MOL0     C87549   4.819   0.756   8.241  0.5644  1.0768 -1.1394
  635MOL0     C87550   4.922   0.709   8.317 -0.7946 -0.7066  0.1385
  635MOL0     O87551   4.912   0.586   8.376  0.5887 -0.4483  0.0175
  635MOL0     C87552   4.894   0.585   8.521 -1.2180  0.6839  0.1903
  635MOL0     C87553   4.796   0.475   8.562  0.1045  0.0340 -0.0901
  635MOL0     C87554   4.812   0.462   8.719  0.7676 -0.2007  0.1289
  635MOL0     C87555   4.734   0.569   8.806  1.1465 -0.0520  0.0764
  635MOL0     C87556   4.768   0.554   8.947 -0.2422  0.0021 -0.5136
  635MOL0     C87557   4.784   0.535   9.072  1.0685 -0.2037 -0.4764
  635MOL0     C87558   5.023   0.793   8.341 -0.5974 -0.0192 -0.2758
  635MOL0     C87559   5.031   0.920   8.284 -0.5548 -0.2096 -0.8741
  635MOL0     C87560   5.168   0.992   8.308 -0.1868  0.1384 -0.2067
  635MOL0     H87561   4.809   1.357   8.216  2.5483  0.4030 -0.1920
  635MOL0     H87562   4.747   1.579   8.160  1.2542 -1.5313  1.4742
  635MOL0     H87563   4.563   1.699   7.773 -0.9561  0.9964  1.2544
  635MOL0     H87564   4.741   1.682   7.741 -3.2409  0.3817 -2.9238
  635MOL0     H87565   4.768   1.895   7.836 -0.2500 -1.2355  1.6578
  635MOL0     H87566   4.655   1.901   7.694 -2.0381 -2.1679 -1.0859
  635MOL0     H87567   4.534   1.906   7.978 -3.6869  1.9858 -1.3550
  635MOL0     H87568   4.585   2.053   7.894  0.4110 -0.3896  0.2989
  635MOL0     H87569   4.454   2.016   7.712 -0.5450 -0.2932 -0.2486
  635MOL0     H87570   4.406   1.847   7.746 -1.2921  0.0810 -1.1210
  635MOL0     H87571   4.294   2.120   7.869 -4.3640  0.5781 -0.0126
  635MOL0     H87572   4.296   1.975   7.966 -3.5608  1.2590 -0.4003
  635MOL0     H87573   4.168   2.036   7.691  0.8002 -2.7092 -1.0539
  635MOL0     H87574   4.129   1.888   7.770 -2.5809  0.0009 -0.2736
  635MOL0     H87575   4.029   2.147   7.854 -4.8854 -1.2229 -4.2189
  635MOL0     H87576   4.072   2.018   7.978 -0.3570 -2.7317 -0.6509
  635MOL0     H87577   3.898   1.881   7.815 -0.3058 -0.5580 -0.1676
  635MOL0     H87578   3.833   2.015   7.918 -0.5338  1.4016 -0.9070
  635MOL0     H87579   4.003   2.168   7.620 -1.1238  2.4562 -0.7120
  635MOL0     H87580   3.913   2.283   7.388 -0.8822  1.3225 -0.9935
  635MOL0     H87581   3.765   2.344   7.428  2.1783  0.6847 -0.6413
  635MOL0     H87582   3.831   2.090   7.275  2.9295  1.9321  0.1054
  635MOL0     H87583   3.662   2.152   7.317  0.0092 -0.2238 -0.6842
  635MOL0     H87584   3.671   2.330   7.163 -0.6936 -0.4483 -3.2098
  635MOL0     H87585   3.849   2.343   7.176 -1.9327  1.7670 -2.7036
  635MOL0     H87586   3.869   2.111   7.049  0.1226  1.6905  0.2250
  635MOL0     H87587   3.705   2.104   7.028  1.2284 -0.7058  2.0723
  635MOL0     H87588   4.045   2.253   7.032 -0.8962 -0.6249  0.0983
  635MOL0     H87589   4.338   2.291   6.887  1.1845  2.4728 -1.2917
  635MOL0     H87590   4.269   2.301   7.043 -2.2124  0.1043  0.5917
  635MOL0     H87591   4.329   2.449   6.963 -1.6056  0.7574  0.7157
  635MOL0     H87592   4.403   2.519   6.457  3.9734  0.0604  3.3724
  635MOL0     H87593   4.564   2.664   6.342 -1.7812 -0.4103 -1.5216
  635MOL0     H87594   4.643   2.979   6.536 -2.4391 -5.3303 -0.1894
  635MOL0     H87595   4.749   2.905   6.434  0.5622  0.4076 -3.0267
  635MOL0     H87596   4.816   3.085   6.298  0.2241  0.0770  0.4166
  635MOL0     H87597   4.688   3.192   6.373 -1.5666 -1.5435  0.8040
  635MOL0     H87598   4.908   3.059   6.513 -1.9714 -1.0934  1.0707
  635MOL0     H87599   4.787   3.144   6.601  0.7685 -3.8314  1.1238
  635MOL0     H87600   4.847   3.366   6.476  2.0136  0.1548 -1.4033
  635MOL0     H87601   4.959   3.281   6.382  0.7469 -0.5519  0.0910
  635MOL0     H87602   4.984   3.256   6.675 -0.2465  1.8999 -0.9846
  635MOL0     H87603   5.109   3.215   6.561  1.7257  2.5894 -2.3794
  635MOL0     H87604   5.022   3.501   6.628 -0.9937 -1.5764 -0.1853
  635MOL0     H87605   5.098   3.456   6.472  1.8072  0.4622  0.3459
  635MOL0     H87606   5.284   3.346   6.561  2.0684  1.1205  0.6444
  635MOL0     H87607   5.223   3.385   6.725 -3.1188 -0.8459 -0.0761
  635MOL0     H87608   5.246   3.627   6.667 -0.5054  2.1258 -2.7220
  635MOL0     H87609   5.310   3.591   6.504 -0.1693 -0.5554  0.3764
  635MOL0     H87610   4.376   3.004   6.492  1.9092 -0.3516  0.2841
  635MOL0     H87611   4.199   2.864   6.599  0.0558 -0.6024 -0.6502
  635MOL0     H87612   3.975   2.522   6.633  0.7883 -0.3828 -0.3181
  635MOL0     H87613   3.773   2.412   6.734 -1.2904 -1.9610  1.5640
  635MOL0     H87614   4.678   1.454   7.751  2.5248 -1.1547 -1.2768
  635MOL0     H87615   4.716   1.218   7.826  0.1748 -0.7914  1.0421
  635MOL0     H87616   4.733   0.916   8.130 -1.4295 -1.4528  0.3569
  635MOL0     H87617   4.744   0.686   8.206 -1.0922  0.5403  2.9413
  635MOL0     H87618   4.997   0.558   8.546 -1.5746 -2.3078 -1.2230
  635MOL0     H87619   4.870   0.688   8.548 -1.2292  0.9655 -0.8637
  635MOL0     H87620   4.842   0.389   8.512  1.0932  0.8785 -0.6754
  635MOL0     H87621   4.695   0.498   8.528  0.1594 -0.9802 -0.9908
  635MOL0     H87622   4.777   0.362   8.748 -0.7521  0.6370  1.3176
  635MOL0     H87623   4.919   0.457   8.741  0.7394 -0.7897  0.1706
  635MOL0     H87624   4.629   0.542   8.792 -0.2751  4.4698  0.5061
  635MOL0     H87625   4.756   0.672   8.777  1.0406  0.7146  2.4592
  635MOL0     H87626   4.797   0.531   9.178  1.8101 -0.6350 -0.5778
  635MOL0     H87627   5.099   0.760   8.412  0.1411  0.5682 -0.7889
  635MOL0     H87628   5.215   0.943   8.394 -2.1568 -1.5250  0.0258
  635MOL0     H87629   5.218   0.967   8.214 -1.4386 -1.7847 -0.4348
  635MOL0     H87630   5.160   1.101   8.314  0.1209  0.3574 -2.8577
  636MOL0     O87631   5.598   2.082   5.426  0.0410  0.1793  0.1155
  636MOL0     C87632   5.714   2.058   5.383 -0.4602  0.4442  0.0152
  636MOL0     O87633   5.831   2.070   5.460 -0.2908 -0.3584 -0.1617
  636MOL0     C87634   5.814   2.114   5.592  0.2237 -0.6388 -0.3252
  636MOL0     C87635   5.842   2.030   5.693  0.3868  0.0644  0.6165
  636MOL0     C87636   5.829   2.073   5.825 -0.3211  0.1768 -0.0140
  636MOL0     C87637   5.792   2.199   5.851 -1.0529  0.5891 -0.1370
  636MOL0     O87638   5.792   2.251   5.976 -0.0114  0.0668 -0.7323
  636MOL0     C87639   5.733   2.173   6.081  0.5854 -0.6017 -0.1483
  636MOL0     C87640   5.702   2.261   6.195 -0.5534 -0.0779  0.8536
  636MOL0     C87641   5.579   2.340   6.149 -0.0393  0.2722  0.4742
  636MOL0     C87642   5.555   2.447   6.258 -0.6091  1.0862  0.1156
  636MOL0     C87643   5.438   2.541   6.234 -1.0674 -0.4556  0.4745
  636MOL0     C87644   5.461   2.629   6.111 -0.3355 -0.3046  0.4964
  636MOL0     C87645   5.564   2.736   6.114 -0.5433 -0.5686 -0.0998
  636MOL0     C87646   5.523   2.871   6.154 -0.0488  0.3438  0.7633
  636MOL0     N87647   5.635   2.966   6.140 -0.2715 -0.4547 -0.1076
  636MOL0     C87648   5.667   3.026   6.025  0.6197 -0.3095 -0.0482
  636MOL0     C87649   5.759   3.121   6.062  1.0923 -0.0900 -0.5206
  636MOL0     C87650   5.850   3.203   5.977  0.1068 -0.2838  0.0820
  636MOL0     C87651   5.766   3.301   5.892 -0.2721  0.1209 -0.3568
  636MOL0     C87652   5.845   3.375   5.783 -0.2911  0.1033  0.3927
  636MOL0     C87653   5.740   3.439   5.683  0.4125 -0.2152  0.6817
  636MOL0     O87654   5.803   3.519   5.577  0.2095 -0.7909  0.9309
  636MOL0     C87655   5.859   3.451   5.473 -0.6652  0.0742 -0.3348
  636MOL0     C87656   5.916   3.531   5.369  0.7262 -0.2228  0.0521
  636MOL0     C87657   5.969   3.478   5.246  0.7282  0.4147 -0.3695
  636MOL0     C87658   6.023   3.578   5.153  0.2515 -0.0852  0.6885
  636MOL0     C87659   5.958   3.336   5.223 -1.4998  0.9744 -0.6819
  636MOL0     C87660   6.001   3.271   5.098 -0.0988 -0.1328 -0.2761
  636MOL0     O87661   6.026   3.353   4.986 -0.1417  0.3208 -0.4364
  636MOL0     C87662   6.057   3.290   4.869  0.1585  0.1035  0.8713
  636MOL0     C87663   5.969   3.202   4.801 -0.0194  0.1581 -1.0431
  636MOL0     C87664   6.012   3.121   4.689  0.1420 -0.2133 -0.1095
  636MOL0     C87665   6.143   3.132   4.643  0.0196  0.3616 -0.4232
  636MOL0     O87666   6.204   3.066   4.535 -0.0390 -0.3451 -0.3319
  636MOL0     C87667   6.121   3.000   4.435  0.5128 -0.2292  0.0011
  636MOL0     C87668   6.053   3.098   4.343  0.5258 -0.3614 -0.2568
  636MOL0     C87669   6.145   3.157   4.234 -0.1345 -0.0085 -0.0543
  636MOL0     C87670   6.068   3.253   4.133 -0.6737 -0.0887 -0.0066
  636MOL0     C87671   6.177   3.329   4.045  0.4041  0.2089  0.4122
  636MOL0     C87672   6.243   3.456   4.107 -0.7555 -0.2196 -0.3533
  636MOL0     C87673   6.314   3.532   4.000 -0.3771  0.7119  0.9645
  636MOL0     C87674   6.363   3.664   4.034 -1.3198  0.3516  0.1304
  636MOL0    Cl87675   6.513   3.639   4.133 -0.1052 -0.1975 -0.1696
  636MOL0     C87676   6.228   3.214   4.707 -0.3997  0.3705 -0.8769
  636MOL0     C87677   6.185   3.302   4.808 -1.1818  1.2855 -0.6958
  636MOL0     O87678   6.000   3.148   5.103  0.9511 -0.3153 -0.3912
  636MOL0     C87679   5.906   3.259   5.331  0.4319  0.3168  0.0459
  636MOL0     C87680   5.854   3.310   5.455  1.0639  0.8583  0.7985
  636MOL0     N87681   5.771   3.116   6.196  0.1450 -0.2722 -0.0002
  636MOL0     N87682   5.682   3.030   6.245 -0.3391 -0.8218  0.2609
  636MOL0     C87683   5.775   2.292   5.744  0.0707  0.1750 -0.0552
  636MOL0     C87684   5.774   2.248   5.612 -1.0263 -0.4395 -0.3115
  636MOL0     C87685   5.738   2.010   5.249  0.1784  0.0834 -0.9811
  636MOL0     C87686   5.859   1.947   5.217 -0.5954 -0.7517 -0.4104
  636MOL0     C87687   5.908   1.920   5.090  0.4635  1.0767 -0.0045
  636MOL0     C87688   5.818   1.933   4.981  0.2540 -0.0902  0.7525
  636MOL0     O87689   5.871   1.878   4.865 -0.2795 -0.4747 -0.1222
  636MOL0     C87690   5.811   1.918   4.740  0.5736  0.9085  0.6993
  636MOL0     C87691   5.836   1.808   4.634 -0.5746 -0.7717 -0.4695
  636MOL0     C87692   5.976   1.768   4.575  0.5558 -0.2362 -0.1021
  636MOL0     C87693   5.982   1.720   4.425 -0.4693 -0.3441 -0.7685
  636MOL0     C87694   6.121   1.700   4.380  0.0534 -0.2893 -0.4795
  636MOL0     C87695   6.240   1.695   4.355  0.2533  0.4931 -0.0192
  636MOL0     C87696   5.690   1.979   5.010 -0.5110 -0.1674 -0.6551
  636MOL0     C87697   5.647   2.019   5.136 -0.3823 -0.5544 -0.7488
  636MOL0     C87698   5.524   2.099   5.150  0.7056 -0.3959  0.0701
  636MOL0     H87699   5.855   1.923   5.680  1.5410  0.2763 -0.1266
  636MOL0     H87700   5.837   2.002   5.907 -0.8614 -0.8514 -0.8245
  636MOL0     H87701   5.808   2.104   6.121  1.3596  1.0600  1.4099
  636MOL0     H87702   5.643   2.122   6.045 -1.3234  2.7073 -0.4841
  636MOL0     H87703   5.680   2.200   6.283 -0.3318 -0.8388  0.3888
  636MOL0     H87704   5.784   2.334   6.203 -1.7905  1.4459  0.0045
  636MOL0     H87705   5.600   2.384   6.051  0.9022 -2.5705 -0.6984
  636MOL0     H87706   5.493   2.276   6.126  0.2614  0.6816 -2.0995
  636MOL0     H87707   5.538   2.388   6.348 -0.7349  0.7901 -0.1016
  636MOL0     H87708   5.643   2.512   6.262 -1.6750  2.7433 -1.4353
  636MOL0     H87709   5.423   2.603   6.322  1.1425  1.7346 -0.5756
  636MOL0     H87710   5.350   2.481   6.207 -0.1154 -1.0149 -1.6109
  636MOL0     H87711   5.475   2.565   6.023  0.9988 -3.0508  2.5553
  636MOL0     H87712   5.363   2.676   6.096  0.5327  1.2238 -0.7420
  636MOL0     H87713   5.594   2.756   6.010 -2.5025  0.3474 -0.5532
  636MOL0     H87714   5.655   2.717   6.171  1.8659  4.4291 -1.6993
  636MOL0     H87715   5.437   2.901   6.094 -1.3845 -1.8380  1.4801
  636MOL0     H87716   5.500   2.860   6.260 -2.6172  1.7632  0.4184
  636MOL0     H87717   5.650   2.975   5.930 -2.3959 -3.3984  1.8910
  636MOL0     H87718   5.904   3.133   5.912 -0.0333  1.3003 -1.8514
  636MOL0     H87719   5.912   3.270   6.037 -0.8714  1.6007 -0.9318
  636MOL0     H87720   5.687   3.241   5.846 -1.6005 -0.0038  1.9682
  636MOL0     H87721   5.734   3.378   5.962  0.5800 -0.3183  0.5321
  636MOL0     H87722   5.905   3.454   5.828 -0.2549  0.1610  0.2435
  636MOL0     H87723   5.916   3.313   5.728 -0.4022  1.0571 -0.8749
  636MOL0     H87724   5.667   3.377   5.630 -0.0862  0.0482  1.0559
  636MOL0     H87725   5.665   3.502   5.731 -0.3873  0.1901 -1.0069
  636MOL0     H87726   5.928   3.638   5.379  2.6687 -0.4018  0.1714
  636MOL0     H87727   6.115   3.535   5.112 -1.0099 -2.1778 -0.0909
  636MOL0     H87728   6.025   3.678   5.198  5.1910  1.5457 -2.2682
  636MOL0     H87729   5.964   3.612   5.068  0.8475 -0.0064  0.3010
  636MOL0     H87730   5.868   3.193   4.842  0.1441  1.4454 -0.3140
  636MOL0     H87731   5.947   3.058   4.630 -0.2632 -0.5988  0.7241
  636MOL0     H87732   6.191   2.937   4.381  2.6619  0.6842  1.5674
  636MOL0     H87733   6.046   2.935   4.481  0.6370 -0.2177  0.2192
  636MOL0     H87734   5.982   3.042   4.282 -0.4843  4.9475 -4.8407
  636MOL0     H87735   6.006   3.176   4.404 -2.6812 -1.5784 -0.9705
  636MOL0     H87736   6.194   3.077   4.177  0.6990  1.4423 -1.4736
  636MOL0     H87737   6.229   3.208   4.282  0.8293  0.6774 -2.3127
  636MOL0     H87738   6.021   3.330   4.195  1.9852 -0.6823  3.0105
  636MOL0     H87739   5.999   3.200   4.067 -0.4830  1.2843 -1.3558
  636MOL0     H87740   6.256   3.262   4.011  0.0842  0.5138 -0.9690
  636MOL0     H87741   6.132   3.362   3.951  0.9072  2.8799  1.0327
  636MOL0     H87742   6.316   3.420   4.181  0.9745  0.1510 -1.7913
  636MOL0     H87743   6.176   3.528   4.154  0.0352 -1.6515  3.2648
  636MOL0     H87744   6.238   3.547   3.924  2.5629 -0.6545 -2.5170
  636MOL0     H87745   6.398   3.477   3.958  0.3309  1.5851  1.1919
  636MOL0     H87746   6.291   3.721   4.095 -1.6657  1.4462 -1.2367
  636MOL0     H87747   6.370   3.716   3.938  0.5220 -2.9052 -1.6782
  636MOL0     H87748   6.334   3.221   4.689 -0.4506  0.9616 -0.9640
  636MOL0     H87749   6.255   3.371   4.854 -0.6557 -0.7731  1.8109
  636MOL0     H87750   5.888   3.152   5.329 -1.0061  0.5312  0.6031
  636MOL0     H87751   5.805   3.233   5.514  0.3917 -0.4597 -1.3560
  636MOL0     H87752   5.755   2.393   5.778 -0.2680 -0.6429  2.3456
  636MOL0     H87753   5.749   2.320   5.535  2.2971  3.2767  1.6926
  636MOL0     H87754   5.934   1.926   5.292 -0.4213 -1.1715 -0.6987
  636MOL0     H87755   6.003   1.874   5.065  1.6155  1.0418  3.8634
  636MOL0     H87756   5.702   1.922   4.751  0.2429  0.7717 -1.9313
  636MOL0     H87757   5.854   2.015   4.711  0.6382  0.0743 -2.3611
  636MOL0     H87758   5.761   1.818   4.554  0.7537 -1.5433 -1.8563
  636MOL0     H87759   5.812   1.718   4.691  0.8603 -0.9245 -0.0872
  636MOL0     H87760   6.029   1.864   4.580 -0.1856  0.1898 -0.2430
  636MOL0     H87761   6.035   1.693   4.629  1.7118  0.5151 -0.2899
  636MOL0     H87762   5.940   1.803   4.366 -1.7798  0.3001  0.9769
  636MOL0     H87763   5.927   1.627   4.408 -1.9394  0.7783 -2.6824
  636MOL0     H87764   6.344   1.684   4.332  0.5741  1.1748  1.0253
  636MOL0     H87765   5.618   1.986   4.928  0.1886  0.3099 -1.2428
  636MOL0     H87766   5.555   2.188   5.205  2.5925 -1.7315  1.3264
  636MOL0     H87767   5.479   2.130   5.055 -0.9840 -2.6136  0.0409
  636MOL0     H87768   5.445   2.050   5.209  0.4544 -0.4991 -0.3467
  637MOL0     O87769   2.895   5.044  10.923 -0.4494 -0.6522  0.1413
  637MOL0     C87770   2.885   5.136  11.007 -0.1185  0.1573 -0.4311
  637MOL0     O87771   2.778   5.141  11.107 -0.2229  0.3266  0.3928
  637MOL0     C87772   2.673   5.058  11.091  0.2418  0.7682  0.9050
  637MOL0     C87773   2.606   5.055  10.957 -0.1195 -0.7924 -1.3088
  637MOL0     C87774   2.493   4.983  10.942  0.2282  0.0992  0.0374
  637MOL0     C87775   2.445   4.901  11.048 -0.5436  0.2332  0.3783
  637MOL0     O87776   2.325   4.833  11.039 -0.4770 -0.2838  0.4518
  637MOL0     C87777   2.341   4.720  10.950 -0.8516  0.0756 -0.1569
  637MOL0     C87778   2.381   4.594  11.019 -0.7189 -1.0455 -0.3086
  637MOL0     C87779   2.270   4.522  11.093 -0.8954  0.6397  0.2190
  637MOL0     C87780   2.331   4.396  11.149 -0.0033  0.6758 -0.0989
  637MOL0     C87781   2.252   4.344  11.263 -0.0283 -0.2734  0.3402
  637MOL0     C87782   2.274   4.410  11.394 -0.2090 -0.7917  0.7607
  637MOL0     C87783   2.177   4.361  11.490  1.1407  0.0105  0.4544
  637MOL0     C87784   2.190   4.214  11.514 -0.5608 -0.9458  0.3680
  637MOL0     N87785   2.135   4.186  11.649 -0.5179 -0.1369 -0.0438
  637MOL0     C87786   2.020   4.110  11.668 -0.4084 -0.0006 -0.3137
  637MOL0     C87787   2.009   4.103  11.804 -0.0108  0.3060 -0.2606
  637MOL0     C87788   1.897   4.037  11.886 -0.3796  0.2785 -0.0724
  637MOL0     C87789   1.872   4.112  12.024 -0.9666  0.3646  1.0244
  637MOL0     C87790   1.756   4.065  12.112 -0.5963  0.5597 -0.8517
  637MOL0     C87791   1.758   3.924  12.143  0.0452  0.5126  0.9491
  637MOL0     O87792   1.704   3.847  12.036 -0.4016 -0.0148 -1.4207
  637MOL0     C87793   1.725   3.706  12.045 -0.1217 -0.2464 -0.1133
  637MOL0     C87794   1.677   3.640  11.937  1.0606  1.2881  0.6111
  637MOL0     C87795   1.673   3.500  11.934 -0.5717 -1.2392  0.6554
  637MOL0     C87796   1.599   3.448  11.813 -0.5357  0.7532 -1.5290
  637MOL0     C87797   1.729   3.426  12.039 -0.5167  0.5030 -0.7171
  637MOL0     C87798   1.728   3.282  12.049  0.4861 -0.1879  0.7248
  637MOL0     O87799   1.838   3.225  12.104 -0.0599  0.5690  0.1109
  637MOL0     C87800   1.854   3.081  12.090 -0.3336 -0.4613 -0.1758
  637MOL0     C87801   1.923   3.039  11.981  0.0899  0.5650  0.2847
  637MOL0     C87802   1.925   2.904  11.954 -0.5965  0.7670 -0.5569
  637MOL0     C87803   1.876   2.812  12.050  0.5654  0.0123 -1.1288
  637MOL0     O87804   1.866   2.682  12.030 -0.2430  0.3382 -0.0756
  637MOL0     C87805   1.919   2.599  12.130 -0.1766  0.0120  0.2506
  637MOL0     C87806   1.944   2.459  12.077  0.2482  0.2589  0.5342
  637MOL0     C87807   2.029   2.369  12.169  0.0999 -0.9474  0.0612
  637MOL0     C87808   1.975   2.388  12.323  0.0117 -0.3080 -0.1768
  637MOL0     C87809   2.036   2.288  12.407  0.0258 -0.2202  0.8072
  637MOL0     C87810   2.188   2.303  12.440  0.2324 -0.7183  0.3511
  637MOL0     C87811   2.235   2.214  12.552 -0.5321  0.6861  0.0245
  637MOL0     C87812   2.387   2.205  12.569  0.1743 -1.0669 -0.3359
  637MOL0    Cl87813   2.469   2.146  12.419  0.2202 -0.2112  0.0636
  637MOL0     C87814   1.804   2.866  12.166 -0.4523 -0.3132 -0.9006
  637MOL0     C87815   1.797   2.998  12.182  0.0946 -0.1734 -0.4702
  637MOL0     O87816   1.635   3.222  11.994 -0.6255  0.1968 -0.3891
  637MOL0     C87817   1.779   3.491  12.147 -1.4990  0.7035  0.0480
  637MOL0     C87818   1.780   3.635  12.149 -0.3181  0.0416 -0.0552
  637MOL0     N87819   2.123   4.171  11.863  0.7783  0.8668  0.7816
  637MOL0     N87820   2.201   4.219  11.770  0.0949  0.6502  0.3020
  637MOL0     C87821   2.499   4.922  11.177  0.1013 -0.4318 -0.9477
  637MOL0     C87822   2.613   4.999  11.198 -0.6236  0.9022  0.6970
  637MOL0     C87823   2.995   5.229  11.030 -0.3690  0.0917 -1.1129
  637MOL0     C87824   2.967   5.370  11.055 -0.0407  0.1688 -0.1585
  637MOL0     C87825   3.065   5.452  11.112 -1.3201  0.0957 -0.5773
  637MOL0     C87826   3.192   5.408  11.128 -0.0008 -1.1618 -1.0576
  637MOL0     O87827   3.273   5.496  11.196  0.2310  0.8770 -0.5441
  637MOL0     C87828   3.415   5.484  11.191  0.3638 -0.8332 -0.0961
  637MOL0     C87829   3.484   5.475  11.328 -0.5575  0.4694  0.2244
  637MOL0     C87830   3.647   5.478  11.318  0.3645  0.0127 -0.2327
  637MOL0     C87831   3.702   5.525  11.454  0.8986  0.5743 -0.2077
  637MOL0     C87832   3.687   5.419  11.556  0.9924 -0.1373 -0.2312
  637MOL0     C87833   3.672   5.352  11.652 -0.5090  0.0529 -0.2652
  637MOL0     C87834   3.229   5.282  11.082 -0.3067 -0.0277  0.3102
  637MOL0     C87835   3.130   5.185  11.042 -0.6546 -1.0397  0.4307
  637MOL0     C87836   3.177   5.044  10.994  0.4897  0.3201  1.3000
  637MOL0     H87837   2.632   5.126  10.879 -1.1121 -1.0097 -1.8581
  637MOL0     H87838   2.448   4.988  10.844  1.4362  0.5273 -0.5200
  637MOL0     H87839   2.417   4.746  10.876 -0.9234  0.5655 -0.0613
  637MOL0     H87840   2.240   4.710  10.908  0.1251 -0.0049 -2.6701
  637MOL0     H87841   2.415   4.532  10.935  1.9027  1.9816 -1.7018
  637MOL0     H87842   2.470   4.629  11.072 -1.0834 -1.1150  0.3623
  637MOL0     H87843   2.226   4.578  11.176  0.9866  2.6395 -0.0250
  637MOL0     H87844   2.184   4.503  11.028 -0.2637  3.4916 -1.6581
  637MOL0     H87845   2.336   4.321  11.070 -2.1993  0.0179  0.3127
  637MOL0     H87846   2.435   4.413  11.178 -0.0033 -0.7075  0.7598
  637MOL0     H87847   2.287   4.242  11.276 -0.3381 -0.6719 -1.6613
  637MOL0     H87848   2.147   4.342  11.232 -0.4667 -0.9859  1.8185
  637MOL0     H87849   2.380   4.392  11.414  0.4856  0.8015 -1.1290
  637MOL0     H87850   2.257   4.518  11.402  0.7287 -0.4785 -0.8658
  637MOL0     H87851   2.075   4.377  11.453  0.9381 -1.0970  0.4819
  637MOL0     H87852   2.202   4.418  11.580  2.0879  2.9233 -1.5245
  637MOL0     H87853   2.145   4.156  11.434 -1.2777  1.2893 -0.9414
  637MOL0     H87854   2.296   4.188  11.524 -0.3622  0.5124  3.2611
  637MOL0     H87855   1.953   4.076  11.590  3.1720 -0.9191 -3.2285
  637MOL0     H87856   1.934   3.938  11.917 -0.1512  0.3424 -0.1349
  637MOL0     H87857   1.810   4.023  11.821  0.8251  0.3014 -1.7590
  637MOL0     H87858   1.972   4.091  12.064 -0.2329  0.9029 -0.4315
  637MOL0     H87859   1.864   4.216  11.993  0.6506  0.4003  0.6249
  637MOL0     H87860   1.753   4.117  12.209  0.6615 -0.7308 -0.0776
  637MOL0     H87861   1.665   4.086  12.055 -1.0507  1.3302  0.1217
  637MOL0     H87862   1.860   3.889  12.161  0.4020  1.4539  0.8195
  637MOL0     H87863   1.694   3.905  12.230  1.3143 -0.5090  1.6915
  637MOL0     H87864   1.632   3.701  11.860  2.7433  0.7360 -0.8804
  637MOL0     H87865   1.589   3.526  11.737 -3.1441  1.9426 -0.1144
  637MOL0     H87866   1.502   3.424  11.859  0.8111  0.4170  1.3843
  637MOL0     H87867   1.656   3.361  11.781 -0.6368  0.4408 -0.8691
  637MOL0     H87868   1.951   3.115  11.908  3.2931 -0.7932 -0.0682
  637MOL0     H87869   1.965   2.867  11.860 -1.5427  0.5931 -0.9040
  637MOL0     H87870   2.001   2.649  12.182  0.9373  1.5526 -2.7048
  637MOL0     H87871   1.835   2.588  12.200  0.7087  4.0424  2.2496
  637MOL0     H87872   1.852   2.400  12.072  1.0226 -1.0124  0.7737
  637MOL0     H87873   2.002   2.459  11.984  0.4201 -0.3441  0.6333
  637MOL0     H87874   2.136   2.387  12.156  0.2768 -0.5092  1.8619
  637MOL0     H87875   2.018   2.266  12.136  2.3031 -2.3620  3.2873
  637MOL0     H87876   1.867   2.372  12.325  0.0208 -0.3185  0.2081
  637MOL0     H87877   1.996   2.486  12.367  1.0370 -0.4044 -0.4335
  637MOL0     H87878   1.980   2.290  12.500 -0.8765  0.6368  0.2646
  637MOL0     H87879   2.034   2.195  12.348 -1.6054 -0.1219  0.6666
  637MOL0     H87880   2.211   2.407  12.462  1.6351 -0.3881 -2.2207
  637MOL0     H87881   2.252   2.287  12.352  1.6416  3.0020  0.5258
  637MOL0     H87882   2.182   2.123  12.523  3.0686 -1.6462  0.0929
  637MOL0     H87883   2.197   2.254  12.647  0.2536  0.7550  0.3171
  637MOL0     H87884   2.397   2.136  12.653 -1.8676 -0.4100  0.5093
  637MOL0     H87885   2.424   2.302  12.603  3.0063 -1.5667 -1.6480
  637MOL0     H87886   1.764   2.799  12.241  0.8605  2.0579  2.1288
  637MOL0     H87887   1.740   3.039  12.265 -1.1099  1.1889 -1.8879
  637MOL0     H87888   1.822   3.439  12.232 -0.1472  0.8686 -0.5086
  637MOL0     H87889   1.824   3.686  12.234 -0.9314  1.1383 -0.3800
  637MOL0     H87890   2.459   4.866  11.261 -0.8024  1.6991  0.1533
  637MOL0     H87891   2.663   4.998  11.294  1.3379  0.8336 -0.2772
  637MOL0     H87892   2.868   5.415  11.054  0.7208  1.9663  0.0227
  637MOL0     H87893   3.041   5.546  11.162 -0.9020 -0.5189  0.8463
  637MOL0     H87894   3.451   5.402  11.128 -0.8604  0.9250 -3.3722
  637MOL0     H87895   3.460   5.566  11.134 -0.7930 -1.1298 -1.5201
  637MOL0     H87896   3.460   5.380  11.377  0.1869  1.0691  1.8082
  637MOL0     H87897   3.459   5.555  11.397 -0.3181  0.2618  0.5529
  637MOL0     H87898   3.681   5.378  11.289  2.3020 -0.0074  1.8341
  637MOL0     H87899   3.682   5.554  11.248 -0.4217 -0.0373 -0.6865
  637MOL0     H87900   3.645   5.610  11.495  3.4263  0.8029  3.2925
  637MOL0     H87901   3.809   5.547  11.450  0.5394  2.3638 -2.6072
  637MOL0     H87902   3.675   5.294  11.742  5.5221  0.9274  0.5344
  637MOL0     H87903   3.333   5.251  11.084 -0.5102 -0.6734  1.3633
  637MOL0     H87904   3.283   5.025  10.976  0.0353  0.1685 -1.8967
  637MOL0     H87905   3.136   4.966  11.057 -1.4424  1.4200  1.4906
  637MOL0     H87906   3.139   5.038  10.891  0.6354  3.3513  0.9534
  638MOL0     O87907   4.056   9.364   1.960  0.1830  1.3258 -0.6814
  638MOL0     C87908   3.975   9.362   2.053  0.1034 -0.1621  0.4955
  638MOL0     O87909   3.994   9.398   2.178 -0.7097 -1.0378 -0.0153
  638MOL0     C87910   4.121   9.414   2.227  0.1389  0.4972  0.0792
  638MOL0     C87911   4.199   9.525   2.191 -0.3348 -0.5265 -0.2869
  638MOL0     C87912   4.320   9.537   2.244 -0.0142  0.1875 -0.3340
  638MOL0     C87913   4.383   9.441   2.330 -0.8433 -0.0343 -0.0263
  638MOL0     O87914   4.511   9.440   2.373  0.3939  0.3100  0.7111
  638MOL0     C87915   4.586   9.567   2.395 -0.3763 -1.2005  0.3743
  638MOL0     C87916   4.728   9.544   2.440  0.3608 -0.3509  0.5679
  638MOL0     C87917   4.824   9.484   2.339  0.1954 -0.0563  0.6668
  638MOL0     C87918   4.959   9.541   2.365  0.2872 -0.3027 -0.0936
  638MOL0     C87919   5.056   9.471   2.271  0.5885  0.6591 -0.4367
  638MOL0     C87920   5.203   9.522   2.306 -0.1893 -0.9296 -0.3772
  638MOL0     C87921   5.234   9.671   2.323  0.6658  0.9521  0.1901
  638MOL0     C87922   5.381   9.707   2.333 -1.0090 -0.1648  1.2308
  638MOL0     N87923   5.461   9.611   2.401 -0.4802  0.9817 -1.0001
  638MOL0     C87924   5.544   9.513   2.343 -0.8544 -0.0859 -0.1783
  638MOL0     C87925   5.605   9.451   2.445  0.4195  0.2431 -0.4166
  638MOL0     C87926   5.717   9.353   2.438 -1.0458 -0.0438  0.2448
  638MOL0     C87927   5.720   9.257   2.556  0.2006  0.8407  0.1758
  638MOL0     C87928   5.613   9.147   2.537  0.4703  0.2407  0.4646
  638MOL0     C87929   5.630   9.039   2.640  0.8572  0.1741  0.1441
  638MOL0     O87930   5.538   8.935   2.594 -0.9726 -0.1754  0.7648
  638MOL0     C87931   5.590   8.816   2.641 -0.4476  0.6744 -0.9561
  638MOL0     C87932   5.689   8.745   2.568 -0.9198 -0.1918 -0.0306
  638MOL0     C87933   5.763   8.638   2.619  0.2472 -0.4128  0.2376
  638MOL0     C87934   5.858   8.571   2.524  0.5898 -0.5094  0.6023
  638MOL0     C87935   5.722   8.593   2.748  0.2448 -0.6839 -0.6253
  638MOL0     C87936   5.791   8.477   2.815  0.1071 -0.6829 -0.3319
  638MOL0     O87937   5.740   8.436   2.945  0.1504 -0.3430 -0.6368
  638MOL0     C87938   5.767   8.322   3.003  0.2509 -0.0236  0.3077
  638MOL0     C87939   5.892   8.312   3.060  0.1801  1.0171  0.2980
  638MOL0     C87940   5.940   8.193   3.124  0.3455  0.7166 -0.1634
  638MOL0     C87941   5.850   8.092   3.141  0.5403  2.0455 -0.7434
  638MOL0     O87942   5.886   7.977   3.214 -0.4628  0.3462  0.1874
  638MOL0     C87943   5.817   7.848   3.193 -1.2544  1.1130  0.1034
  638MOL0     C87944   5.856   7.742   3.296 -0.4433 -0.0624  0.2791
  638MOL0     C87945   5.891   7.808   3.425  0.0347  0.4475  0.2262
  638MOL0     C87946   5.926   7.705   3.537  0.5912 -0.1796 -0.2559
  638MOL0     C87947   5.939   7.772   3.669 -0.5447 -1.0262  0.0326
  638MOL0     C87948   5.940   7.655   3.784 -0.9473  0.3498 -0.3083
  638MOL0     C87949   5.815   7.559   3.765 -0.0356 -0.8623  0.2671
  638MOL0     C87950   5.768   7.513   3.904 -0.5183 -0.0923  0.2222
  638MOL0    Cl87951   5.601   7.449   3.908  0.5197  0.4748  0.2044
  638MOL0     C87952   5.725   8.096   3.087 -0.6510 -0.0512 -0.0122
  638MOL0     C87953   5.685   8.201   3.010 -0.1998 -0.4170 -0.1458
  638MOL0     O87954   5.884   8.415   2.766 -0.2826 -0.3253  0.5778
  638MOL0     C87955   5.614   8.655   2.812 -0.2242 -0.2125 -0.1967
  638MOL0     C87956   5.551   8.776   2.764 -0.3711  0.0336  0.0735
  638MOL0     N87957   5.546   9.503   2.562 -0.1053 -0.0727 -0.1307
  638MOL0     N87958   5.467   9.598   2.535 -0.3112 -0.6497  0.7822
  638MOL0     C87959   4.311   9.324   2.358  0.5088 -0.5534  0.2846
  638MOL0     C87960   4.179   9.313   2.311 -0.1479  0.0943  1.3344
  638MOL0     C87961   3.847   9.297   2.025 -0.5383 -0.8369  1.2405
  638MOL0     C87962   3.793   9.205   2.123 -0.0483 -0.5840  0.5127
  638MOL0     C87963   3.676   9.132   2.090  0.0407  0.4979  0.1213
  638MOL0     C87964   3.611   9.160   1.965 -0.0898 -0.1499 -0.4300
  638MOL0     O87965   3.495   9.095   1.925  0.7564  1.3082  0.9571
  638MOL0     C87966   3.415   8.999   2.006  0.1695 -0.2453  0.1419
  638MOL0     C87967   3.285   9.047   2.060 -0.4649 -0.6218 -0.4264
  638MOL0     C87968   3.320   9.159   2.159 -0.1385  0.5928 -0.3164
  638MOL0     C87969   3.194   9.209   2.225 -0.6528  0.4130 -0.4152
  638MOL0     C87970   3.169   9.113   2.335 -0.3284 -0.3256  0.3522
  638MOL0     C87971   3.141   9.030   2.419  0.1779  0.3996 -0.1233
  638MOL0     C87972   3.661   9.256   1.875  0.4805 -0.0436 -0.2524
  638MOL0     C87973   3.781   9.323   1.897  0.3831  0.3979  0.4006
  638MOL0     C87974   3.841   9.400   1.776 -0.2036 -0.4863 -0.6078
  638MOL0     H87975   4.157   9.601   2.126  0.6561 -0.1182 -0.4638
  638MOL0     H87976   4.379   9.624   2.216 -3.6868  3.4537  1.1712
  638MOL0     H87977   4.526   9.606   2.478 -1.6689  0.2118 -1.1797
  638MOL0     H87978   4.596   9.627   2.305  3.5994  1.2402  2.1694
  638MOL0     H87979   4.768   9.636   2.483 -2.6881  1.4377 -0.1850
  638MOL0     H87980   4.729   9.464   2.516  1.0327 -0.6873  0.2103
  638MOL0     H87981   4.815   9.375   2.339  0.3832 -0.0715  1.1986
  638MOL0     H87982   4.793   9.511   2.237 -0.8533  0.1693  1.0279
  638MOL0     H87983   4.960   9.648   2.345 -0.9515 -0.7605 -3.2197
  638MOL0     H87984   4.991   9.516   2.466  2.7622 -0.0490 -0.7549
  638MOL0     H87985   5.032   9.490   2.166  3.9235 -2.5461 -2.0545
  638MOL0     H87986   5.043   9.362   2.271 -0.2291  0.7162 -2.4428
  638MOL0     H87987   5.214   9.466   2.399  0.9797  1.8287  1.2712
  638MOL0     H87988   5.270   9.468   2.238  0.0860  1.1932 -1.8993
  638MOL0     H87989   5.193   9.697   2.421  0.9646  0.2778  0.5016
  638MOL0     H87990   5.177   9.727   2.248  1.1334  0.0611 -0.8549
  638MOL0     H87991   5.415   9.718   2.229 -2.1145 -2.3384  0.5975
  638MOL0     H87992   5.395   9.803   2.383 -1.2869  1.7951 -2.1557
  638MOL0     H87993   5.582   9.501   2.242  1.9167 -2.0348  0.9688
  638MOL0     H87994   5.812   9.405   2.440 -0.9941 -0.1498  0.5622
  638MOL0     H87995   5.716   9.306   2.339 -1.4759 -0.6328  0.5214
  638MOL0     H87996   5.814   9.201   2.555 -0.3511 -0.1333 -1.7770
  638MOL0     H87997   5.709   9.317   2.647  4.2718 -0.5704  1.8261
  638MOL0     H87998   5.514   9.193   2.542  1.2853  2.1929 -0.3042
  638MOL0     H87999   5.610   9.082   2.449  1.8301 -2.5918  2.3693
  638MOL0     H88000   5.736   9.012   2.636  0.3541 -1.8325 -2.4542
  638MOL0     H88001   5.607   9.078   2.740  2.7311  1.8492 -0.0331
  638MOL0     H88002   5.717   8.787   2.472 -1.4545  0.3719  0.0574
  638MOL0     H88003   5.955   8.620   2.510 -0.6625  1.4978 -1.8996
  638MOL0     H88004   5.809   8.571   2.426 -1.5965  0.8875  1.6327
  638MOL0     H88005   5.869   8.462   2.536  0.5685 -0.7363 -1.1219
  638MOL0     H88006   5.966   8.392   3.061  1.7893 -0.3429 -1.3206
  638MOL0     H88007   6.044   8.180   3.151 -0.1484 -0.5615  1.2695
  638MOL0     H88008   5.709   7.861   3.200 -1.8106 -1.3922 -2.0141
  638MOL0     H88009   5.828   7.821   3.087 -3.3700 -1.2426  0.3830
  638MOL0     H88010   5.775   7.669   3.310  1.0413 -2.1670 -1.4395
  638MOL0     H88011   5.947   7.686   3.274  1.4468  2.7054  0.5928
  638MOL0     H88012   5.805   7.871   3.446 -1.3073 -0.6434 -1.7138
  638MOL0     H88013   5.982   7.865   3.404 -0.9306  1.7102 -0.6506
  638MOL0     H88014   6.013   7.646   3.509  1.1130 -0.0266  0.9843
  638MOL0     H88015   5.835   7.645   3.547 -0.6722  1.4768 -1.1431
  638MOL0     H88016   6.032   7.828   3.681 -0.2515 -1.4703 -0.1598
  638MOL0     H88017   5.856   7.844   3.675 -0.9833 -1.3438 -1.7457
  638MOL0     H88018   5.940   7.707   3.880  0.8023 -3.7806  2.1577
  638MOL0     H88019   6.033   7.599   3.774 -0.4400  0.9716  0.7886
  638MOL0     H88020   5.847   7.477   3.699 -1.9481 -1.2136 -0.2833
  638MOL0     H88021   5.729   7.609   3.719  0.8296  1.3566  0.9345
  638MOL0     H88022   5.772   7.594   3.977  2.6614  0.0346  0.0204
  638MOL0     H88023   5.844   7.444   3.942  2.1879  1.8835 -1.3043
  638MOL0     H88024   5.636   8.038   3.110  0.4736 -1.5572  0.7370
  638MOL0     H88025   5.586   8.206   2.965 -0.5583  3.0029  0.7065
  638MOL0     H88026   5.593   8.621   2.913 -1.7201  0.2673 -0.3275
  638MOL0     H88027   5.466   8.819   2.815 -2.4688 -0.6460 -2.6723
  638MOL0     H88028   4.356   9.240   2.410  1.4025 -0.2263  0.0721
  638MOL0     H88029   4.128   9.218   2.315  1.1091 -0.6555  0.4379
  638MOL0     H88030   3.847   9.195   2.218  0.9938  1.0338  0.1247
  638MOL0     H88031   3.645   9.064   2.169 -0.4746 -0.1573 -0.6424
  638MOL0     H88032   3.384   8.918   1.939 -3.5688  0.9217  0.2782
  638MOL0     H88033   3.461   8.958   2.097 -0.1911  2.2314  1.5216
  638MOL0     H88034   3.227   8.968   2.109 -1.5839  0.1364 -0.4881
  638MOL0     H88035   3.225   9.106   1.991 -0.4689 -0.5919 -0.3974
  638MOL0     H88036   3.398   9.132   2.230  0.0779 -2.6571 -1.6119
  638MOL0     H88037   3.375   9.233   2.100  2.8020 -0.4490  0.9338
  638MOL0     H88038   3.125   9.216   2.141  0.7022 -0.5705 -1.6660
  638MOL0     H88039   3.196   9.314   2.258 -2.1642  0.3426 -0.0596
  638MOL0     H88040   3.096   8.955   2.481  1.2520  1.7689  2.4725
  638MOL0     H88041   3.602   9.259   1.784  1.5738  0.7400 -0.9655
  638MOL0     H88042   3.772   9.421   1.693 -0.2190  2.2428 -0.0043
  638MOL0     H88043   3.861   9.502   1.809 -3.3173 -0.4625  1.7171
  638MOL0     H88044   3.929   9.352   1.734 -0.4354  0.5077 -2.2933
  639MOL0     O88045   3.952   0.488   4.739 -0.4260  0.0445  0.2639
  639MOL0     C88046   3.948   0.478   4.615 -0.5061  0.3042 -0.4852
  639MOL0     O88047   3.864   0.552   4.534 -0.6876  0.3939  0.8409
  639MOL0     C88048   3.757   0.617   4.585 -0.5969 -0.8594 -0.0979
  639MOL0     C88049   3.636   0.583   4.558  0.0229  0.3773 -0.9963
  639MOL0     C88050   3.537   0.649   4.632  0.4377 -0.4052  0.7057
  639MOL0     C88051   3.560   0.758   4.720  0.8675 -0.9996 -0.3001
  639MOL0     O88052   3.469   0.815   4.799  0.0404 -1.0530 -0.2273
  639MOL0     C88053   3.326   0.785   4.768  0.6243 -0.0275 -0.4936
  639MOL0     C88054   3.238   0.876   4.850  0.4916  0.1832 -0.0035
  639MOL0     C88055   3.277   1.025   4.820 -0.7870  0.8317  0.8060
  639MOL0     C88056   3.178   1.138   4.847 -0.3028 -0.4777  0.9321
  639MOL0     C88057   3.242   1.277   4.854  0.2975 -0.1059 -0.1458
  639MOL0     C88058   3.315   1.318   4.724 -0.4971 -0.4800 -0.0275
  639MOL0     C88059   3.362   1.466   4.744  0.1949 -0.1472 -0.1449
  639MOL0     C88060   3.479   1.501   4.835 -0.1005 -0.0016  0.0379
  639MOL0     N88061   3.594   1.430   4.773 -0.4410  0.0775  0.1163
  639MOL0     C88062   3.628   1.311   4.808  0.2367  0.6460 -0.2517
  639MOL0     C88063   3.722   1.270   4.720 -0.2509 -0.4812  0.7274
  639MOL0     C88064   3.751   1.126   4.704  0.0033  0.6984  0.2651
  639MOL0     C88065   3.880   1.092   4.625  0.4643  0.1042  0.6248
  639MOL0     C88066   3.873   1.090   4.469  0.3743 -0.1021 -1.1711
  639MOL0     C88067   3.999   1.028   4.412  0.2926 -0.4094 -0.1142
  639MOL0     O88068   4.024   0.902   4.461  1.1422 -0.7731 -0.0576
  639MOL0     C88069   4.147   0.854   4.452 -0.0069 -1.1599 -0.2744
  639MOL0     C88070   4.186   0.762   4.539  0.7243 -0.1281 -0.1088
  639MOL0     C88071   4.312   0.713   4.547 -0.5163 -0.2609  0.0664
  639MOL0     C88072   4.352   0.614   4.655  0.6658 -0.0998 -0.7921
  639MOL0     C88073   4.405   0.745   4.446 -0.3491  0.4447  0.1577
  639MOL0     C88074   4.554   0.711   4.453  0.0338  0.5946 -0.1215
  639MOL0     O88075   4.632   0.814   4.393 -0.0973 -0.4328 -0.6033
  639MOL0     C88076   4.752   0.774   4.342  0.1421 -0.2272 -0.2944
  639MOL0     C88077   4.869   0.805   4.399 -0.1042 -0.3173  0.1277
  639MOL0     C88078   4.986   0.760   4.335 -0.0339  0.1346  0.1567
  639MOL0     C88079   4.983   0.683   4.215  0.5170 -0.5769  0.0622
  639MOL0     O88080   5.090   0.630   4.153  0.3256 -0.1127  0.4598
  639MOL0     C88081   5.208   0.629   4.235  0.5002  0.3625  0.1259
  639MOL0     C88082   5.310   0.524   4.195 -0.4906 -0.2103 -0.5817
  639MOL0     C88083   5.383   0.549   4.068  0.3484 -1.0202  0.7743
  639MOL0     C88084   5.473   0.427   4.034  0.7852  0.4103  0.8227
  639MOL0     C88085   5.464   0.362   3.892  1.0937  0.5174  1.0612
  639MOL0     C88086   5.583   0.277   3.852 -1.0944  0.4944  0.1700
  639MOL0     C88087   5.580   0.234   3.702 -0.0808 -0.2504  0.2074
  639MOL0     C88088   5.605   0.354   3.612 -0.8591 -0.9515 -0.1708
  639MOL0    Cl88089   5.642   0.297   3.452  0.1408 -0.0354 -0.0317
  639MOL0     C88090   4.851   0.660   4.154  0.0614  0.3744  0.4314
  639MOL0     C88091   4.743   0.707   4.220  0.0220 -0.8060  0.4143
  639MOL0     O88092   4.595   0.607   4.507  0.1745  0.7652  0.1584
  639MOL0     C88093   4.361   0.834   4.343 -0.3056  0.1543 -0.2731
  639MOL0     C88094   4.235   0.886   4.342  0.3462  0.3638 -0.6543
  639MOL0     N88095   3.747   1.380   4.635 -0.0913  0.7138  0.3488
  639MOL0     N88096   3.678   1.474   4.677  0.0906 -0.5200  0.6772
  639MOL0     C88097   3.688   0.788   4.742 -1.5112  0.9780  0.1125
  639MOL0     C88098   3.796   0.720   4.674  0.3194  0.8052  0.1600
  639MOL0     C88099   4.059   0.402   4.545  0.3076  0.2602  0.2330
  639MOL0     C88100   4.084   0.439   4.411  1.5066  0.0230  0.3879
  639MOL0     C88101   4.186   0.366   4.343 -0.7162  0.3979 -0.2011
  639MOL0     C88102   4.265   0.267   4.398 -0.3529 -1.5503 -0.3490
  639MOL0     O88103   4.359   0.207   4.325  0.3499 -0.2853  0.2148
  639MOL0     C88104   4.493   0.227   4.367 -0.4421  0.3843  0.9555
  639MOL0     C88105   4.577   0.315   4.269  0.0173 -0.0403 -1.3046
  639MOL0     C88106   4.584   0.253   4.134 -0.6205  1.0908 -0.2987
  639MOL0     C88107   4.650   0.358   4.037  0.0780 -0.2650 -0.7583
  639MOL0     C88108   4.553   0.462   4.004 -0.4872 -0.5981 -0.0015
  639MOL0     C88109   4.468   0.543   3.984 -0.2143 -0.4500  0.6631
  639MOL0     C88110   4.249   0.243   4.531 -0.0508 -0.5127 -1.1425
  639MOL0     C88111   4.141   0.302   4.604  0.0937  0.1801 -0.1208
  639MOL0     C88112   4.119   0.244   4.739  0.2163 -0.7802 -0.6740
  639MOL0     H88113   3.608   0.508   4.486 -1.8638 -0.1746  0.2470
  639MOL0     H88114   3.438   0.608   4.611 -0.2404  0.5240  1.9088
  639MOL0     H88115   3.303   0.685   4.808 -0.5164  1.0476  1.7452
  639MOL0     H88116   3.306   0.790   4.660  0.7462  0.7883 -0.4804
  639MOL0     H88117   3.133   0.861   4.820  1.0180  1.4414 -2.7620
  639MOL0     H88118   3.250   0.844   4.954  0.2473 -0.1564 -0.0766
  639MOL0     H88119   3.360   1.030   4.890 -1.9914  2.9113  2.2201
  639MOL0     H88120   3.303   1.036   4.714 -3.3269  0.9999  0.1108
  639MOL0     H88121   3.108   1.134   4.763 -0.1374 -2.4268  0.8355
  639MOL0     H88122   3.125   1.126   4.942 -2.7879 -1.1451 -0.4575
  639MOL0     H88123   3.318   1.287   4.932  1.1504 -3.6625 -0.3343
  639MOL0     H88124   3.160   1.345   4.878 -1.3683 -1.5346 -1.5174
  639MOL0     H88125   3.396   1.253   4.691 -0.6963  0.0163 -1.5886
  639MOL0     H88126   3.235   1.304   4.651 -2.6076 -1.6640  2.3498
  639MOL0     H88127   3.278   1.522   4.786  0.9979 -2.1844  4.8432
  639MOL0     H88128   3.385   1.499   4.642 -2.6018  4.7575  0.4979
  639MOL0     H88129   3.481   1.610   4.826 -0.4458 -0.0846 -1.2618
  639MOL0     H88130   3.465   1.466   4.937  3.0055 -1.0635  0.2149
  639MOL0     H88131   3.572   1.251   4.880 -0.3972  1.0272 -0.4197
  639MOL0     H88132   3.671   1.072   4.652  1.3109 -0.1958 -0.9017
  639MOL0     H88133   3.754   1.082   4.804 -2.5072  0.5295  0.3346
  639MOL0     H88134   3.959   1.158   4.662  0.5477 -0.5432  1.6345
  639MOL0     H88135   3.902   0.992   4.663 -0.1814 -0.0980  0.4757
  639MOL0     H88136   3.796   1.022   4.431 -2.5641  1.3080  1.6691
  639MOL0     H88137   3.856   1.194   4.440  1.4108  0.5070  0.2846
  639MOL0     H88138   3.987   1.025   4.303 -0.4988 -1.2692 -0.0193
  639MOL0     H88139   4.079   1.099   4.430 -1.3154  1.0625  1.6923
  639MOL0     H88140   4.111   0.721   4.607  0.2392  0.3054 -0.3782
  639MOL0     H88141   4.385   0.520   4.609  3.3846  0.3358  0.0720
  639MOL0     H88142   4.262   0.591   4.712  2.1306 -2.4857  0.7621
  639MOL0     H88143   4.428   0.646   4.727 -0.2884 -0.6410  0.4815
  639MOL0     H88144   4.873   0.838   4.502 -1.9885 -2.7332  1.0671
  639MOL0     H88145   5.083   0.774   4.380 -0.2414  0.7370  0.4268
  639MOL0     H88146   5.264   0.722   4.233 -2.9944  2.6215 -1.1705
  639MOL0     H88147   5.178   0.590   4.333 -4.5419  0.5872 -1.0744
  639MOL0     H88148   5.388   0.512   4.271  0.4330 -0.6193 -1.5643
  639MOL0     H88149   5.249   0.433   4.200 -0.2543 -0.2809  2.2715
  639MOL0     H88150   5.437   0.644   4.082 -0.9912 -0.4660  2.6711
  639MOL0     H88151   5.324   0.556   3.977  4.0602 -3.8061 -2.1552
  639MOL0     H88152   5.447   0.353   4.110 -2.0758 -0.1900 -0.5933
  639MOL0     H88153   5.572   0.469   4.049  1.1755  0.1775 -0.8617
  639MOL0     H88154   5.377   0.296   3.900  1.6577 -0.4105 -0.2012
  639MOL0     H88155   5.447   0.436   3.814  0.1363  0.0731  0.8475
  639MOL0     H88156   5.589   0.185   3.910  0.5385  1.0459  0.9581
  639MOL0     H88157   5.667   0.344   3.874 -0.5970 -0.5142  1.4846
  639MOL0     H88158   5.481   0.192   3.685  0.7023 -2.6485  1.1462
  639MOL0     H88159   5.661   0.165   3.676  0.3866  0.3260  0.0851
  639MOL0     H88160   5.693   0.416   3.629 -1.9118  0.7388 -0.6270
  639MOL0     H88161   5.520   0.419   3.590 -0.6712 -1.5945 -3.2782
  639MOL0     H88162   4.845   0.620   4.053 -2.6413 -2.2043  1.4730
  639MOL0     H88163   4.650   0.688   4.168  0.7204  0.3426 -1.3492
  639MOL0     H88164   4.427   0.854   4.259 -2.0012 -1.5620 -2.1478
  639MOL0     H88165   4.196   0.964   4.278 -1.8956 -1.1258 -1.2213
  639MOL0     H88166   3.702   0.865   4.817 -0.5476  0.0625  0.9046
  639MOL0     H88167   3.899   0.743   4.698  0.6159  2.6661 -2.4243
  639MOL0     H88168   4.040   0.524   4.359 -1.4379 -1.0104  1.0116
  639MOL0     H88169   4.210   0.391   4.240 -1.1728 -0.6883 -0.5918
  639MOL0     H88170   4.505   0.283   4.460  1.8828  1.9360 -0.1813
  639MOL0     H88171   4.530   0.124   4.370 -2.5971 -0.5573 -1.2787
  639MOL0     H88172   4.672   0.325   4.323 -0.6622  2.0033 -0.4005
  639MOL0     H88173   4.546   0.420   4.268  0.0221  0.0456  1.2319
  639MOL0     H88174   4.641   0.160   4.144 -4.6544 -1.7366 -0.7285
  639MOL0     H88175   4.487   0.228   4.090  0.3371 -1.4970 -1.1606
  639MOL0     H88176   4.681   0.301   3.948 -0.1049  0.2030 -1.1263
  639MOL0     H88177   4.740   0.399   4.083  0.1698  1.5322 -2.4187
  639MOL0     H88178   4.385   0.607   3.959  0.4337 -0.0051 -0.4170
  639MOL0     H88179   4.321   0.168   4.563 -0.2505 -0.0790  0.4208
  639MOL0     H88180   4.178   0.287   4.821  0.0009 -2.0352  0.1587
  639MOL0     H88181   4.022   0.243   4.790 -0.8121  0.5638 -2.4853
  639MOL0     H88182   4.137   0.136   4.739 -0.8296 -0.9724  0.7298
  640MOL0     O88183   0.090   3.505   2.311  0.7206  0.3849 -0.0539
  640MOL0     C88184  -0.025   3.458   2.300 -0.0071  0.6330  0.3539
  640MOL0     O88185  -0.120   3.498   2.219  0.4575 -0.3783  0.0040
  640MOL0     C88186  -0.116   3.625   2.171  0.1396 -0.3876 -0.1052
  640MOL0     C88187  -0.053   3.654   2.050  0.9237  0.2625  0.3892
  640MOL0     C88188  -0.057   3.780   1.995  0.1076 -0.2260  0.6101
  640MOL0     C88189  -0.119   3.886   2.064  0.5668 -0.0795  0.4553
  640MOL0     O88190  -0.116   4.009   2.008 -1.0940 -0.6053 -0.8400
  640MOL0     C88191  -0.242   4.074   1.977  0.2426  0.1969 -0.0796
  640MOL0     C88192  -0.231   4.222   2.022  0.0619 -0.9269  0.3378
  640MOL0     C88193  -0.200   4.215   2.178 -0.0047 -0.7214 -0.1138
  640MOL0     C88194  -0.198   4.363   2.233 -0.0890  0.2546  0.5194
  640MOL0     C88195  -0.325   4.396   2.314 -0.1388 -0.2807  0.4407
  640MOL0     C88196  -0.298   4.515   2.411 -0.9257 -1.0226 -0.6368
  640MOL0     C88197  -0.244   4.644   2.333 -0.5906  1.0109 -0.6139
  640MOL0     C88198  -0.225   4.756   2.427  0.9154 -0.3668  0.4344
  640MOL0     N88199  -0.361   4.802   2.472 -0.5374  0.4196  0.1693
  640MOL0     C88200  -0.448   4.893   2.410 -0.9479 -0.1750  0.9197
  640MOL0     C88201  -0.547   4.904   2.500  0.8238  0.5862  1.0337
  640MOL0     C88202  -0.674   4.988   2.465  0.9908  0.4789 -0.3186
  640MOL0     C88203  -0.673   5.113   2.564  0.0935  1.2534 -0.7428
  640MOL0     C88204  -0.764   5.234   2.514 -0.6542 -0.5252  0.9238
  640MOL0     C88205  -0.675   5.332   2.441 -0.5627  0.6251  0.3405
  640MOL0     O88206  -0.595   5.275   2.346  0.5364  0.1255  0.2216
  640MOL0     C88207  -0.509   5.364   2.280 -0.4306  0.1535 -0.5016
  640MOL0     C88208  -0.371   5.352   2.285  0.0004  0.1481  0.5387
  640MOL0     C88209  -0.286   5.414   2.185 -0.4015  0.2929 -0.1425
  640MOL0     C88210  -0.139   5.381   2.203 -0.3176 -1.1482  0.9093
  640MOL0     C88211  -0.339   5.513   2.098 -1.1159 -0.4668  0.3683
  640MOL0     C88212  -0.267   5.601   2.004  0.8171  0.5213 -0.1255
  640MOL0     O88213  -0.330   5.620   1.888 -0.4485 -0.9790  0.2875
  640MOL0     C88214  -0.258   5.684   1.790  0.2668  0.0920 -0.0844
  640MOL0     C88215  -0.129   5.656   1.744 -0.4259 -0.9426  0.0600
  640MOL0     C88216  -0.068   5.736   1.647  0.2420  0.4630  0.1136
  640MOL0     C88217  -0.140   5.840   1.583 -0.1587 -0.0488 -0.0809
  640MOL0     O88218  -0.080   5.919   1.484  0.9137 -0.1761 -0.1309
  640MOL0     C88219   0.055   5.945   1.484 -0.6690 -0.6548 -0.1246
  640MOL0     C88220   0.099   6.054   1.389  0.4936  0.6144  0.5089
  640MOL0     C88221   0.239   6.128   1.423  0.1618  0.6430 -0.0127
  640MOL0     C88222   0.237   6.260   1.350  0.1073  0.5661 -0.1048
  640MOL0     C88223   0.365   6.312   1.302 -0.6725 -0.2210  0.3891
  640MOL0     C88224   0.345   6.422   1.198  0.0886 -0.1070  0.0747
  640MOL0     C88225   0.343   6.556   1.262 -0.9641 -0.2700 -0.1827
  640MOL0     C88226   0.327   6.672   1.166  0.0948  0.1500  0.4922
  640MOL0    Cl88227   0.182   6.634   1.051 -0.6670  0.2353 -0.6715
  640MOL0     C88228  -0.264   5.869   1.631 -0.4992  0.2209 -0.9745
  640MOL0     C88229  -0.321   5.797   1.732  0.1164 -0.4130 -0.0474
  640MOL0     O88230  -0.161   5.649   2.034  0.4713  0.9697 -0.0024
  640MOL0     C88231  -0.473   5.541   2.115  0.1736 -0.2950  0.3335
  640MOL0     C88232  -0.551   5.470   2.199 -0.0460 -0.2711 -0.2749
  640MOL0     N88233  -0.524   4.824   2.610  0.4386  0.8916  0.4183
  640MOL0     N88234  -0.419   4.759   2.588 -1.1553  0.0099 -0.5210
  640MOL0     C88235  -0.179   3.863   2.186  0.2079 -0.5652  0.4546
  640MOL0     C88236  -0.189   3.731   2.235 -0.6287  0.2572  0.8744
  640MOL0     C88237  -0.036   3.330   2.380  0.0908 -0.4005  0.4870
  640MOL0     C88238   0.045   3.312   2.496 -0.4670 -1.7093  0.6145
  640MOL0     C88239   0.033   3.203   2.578  0.9176  0.2807 -0.5562
  640MOL0     C88240  -0.066   3.107   2.561  0.4317  0.0806  0.8451
  640MOL0     O88241  -0.097   3.004   2.648 -0.1445  0.1561  0.1890
  640MOL0     C88242  -0.162   3.046   2.777 -0.5489  0.1534 -0.2233
  640MOL0     C88243  -0.255   2.939   2.843  1.0153  0.2425 -0.6253
  640MOL0     C88244  -0.367   2.884   2.755 -0.4921 -1.1007  0.9115
  640MOL0     C88245  -0.442   2.771   2.831  1.1472  0.2489 -0.0420
  640MOL0     C88246  -0.546   2.725   2.738  0.8285 -0.2224 -1.2712
  640MOL0     C88247  -0.639   2.682   2.678  0.8618 -0.7340  0.4784
  640MOL0     C88248  -0.156   3.123   2.453 -0.6598  0.6559 -0.0890
  640MOL0     C88249  -0.146   3.232   2.365 -0.2899  0.6123 -0.3142
  640MOL0     C88250  -0.266   3.250   2.266  0.4094  0.3439 -0.2293
  640MOL0     H88251  -0.010   3.572   1.993 -2.0079 -0.5736 -0.8391
  640MOL0     H88252   0.000   3.805   1.907 -0.2885  0.4059  0.5215
  640MOL0     H88253  -0.320   4.016   2.027  2.8018 -1.7172  1.9387
  640MOL0     H88254  -0.260   4.068   1.869  1.3868 -0.0269 -0.2657
  640MOL0     H88255  -0.151   4.271   1.967  2.2116 -3.1024  1.2953
  640MOL0     H88256  -0.324   4.275   2.001  0.4832  0.1596  1.1647
  640MOL0     H88257  -0.286   4.156   2.212 -2.9470  3.2927  0.1625
  640MOL0     H88258  -0.104   4.168   2.202  0.7030  1.0690  0.7186
  640MOL0     H88259  -0.114   4.384   2.300 -0.9727  0.3791  1.6153
  640MOL0     H88260  -0.173   4.437   2.157 -0.2462 -1.1194 -0.9271
  640MOL0     H88261  -0.357   4.307   2.369  2.6450 -0.5430  1.8066
  640MOL0     H88262  -0.404   4.420   2.241 -0.9510 -3.7130  0.0402
  640MOL0     H88263  -0.387   4.540   2.469 -0.3274  1.0687 -0.5544
  640MOL0     H88264  -0.221   4.501   2.487  0.2882 -0.0080 -1.6388
  640MOL0     H88265  -0.310   4.664   2.248 -2.5649  1.4412  0.9434
  640MOL0     H88266  -0.145   4.612   2.300 -0.2751  1.1321  0.1998
  640MOL0     H88267  -0.184   4.727   2.524 -1.3635  0.9188  1.8984
  640MOL0     H88268  -0.166   4.836   2.382  0.0868  0.0672  0.0904
  640MOL0     H88269  -0.433   4.949   2.318  1.0649  3.2130  3.0727
  640MOL0     H88270  -0.773   4.945   2.477  0.9141  0.8598  0.5559
  640MOL0     H88271  -0.679   5.019   2.360 -2.1508 -4.2707 -1.8647
  640MOL0     H88272  -0.695   5.070   2.662  0.0379  3.4266  0.2581
  640MOL0     H88273  -0.569   5.145   2.576 -0.0180  1.2565  0.3416
  640MOL0     H88274  -0.844   5.208   2.444  0.6944 -1.2714 -0.4188
  640MOL0     H88275  -0.802   5.288   2.600 -3.0808 -1.1141  0.2886
  640MOL0     H88276  -0.740   5.403   2.389 -1.4268  0.0311  0.5805
  640MOL0     H88277  -0.605   5.387   2.504  0.0709  0.0776  0.1360
  640MOL0     H88278  -0.320   5.274   2.339  0.1024  0.6129  1.1267
  640MOL0     H88279  -0.128   5.277   2.233  2.7197 -1.9912 -2.4940
  640MOL0     H88280  -0.089   5.453   2.269 -1.6626 -0.2179  0.9583
  640MOL0     H88281  -0.086   5.382   2.108 -1.8698  6.1856 -0.5343
  640MOL0     H88282  -0.075   5.576   1.793 -1.6324 -1.6502  0.2822
  640MOL0     H88283   0.029   5.714   1.604  0.8553 -0.8174  2.0321
  640MOL0     H88284   0.077   5.982   1.584 -1.6766  1.9223 -0.7847
  640MOL0     H88285   0.110   5.852   1.463  1.0192  0.0003  1.1658
  640MOL0     H88286   0.100   6.030   1.282  2.3307  2.7609 -0.0397
  640MOL0     H88287   0.021   6.129   1.394 -1.2470 -1.0209 -0.5975
  640MOL0     H88288   0.322   6.067   1.387  1.0046  1.0478  1.1644
  640MOL0     H88289   0.264   6.131   1.530  2.4501  1.6523 -0.5346
  640MOL0     H88290   0.183   6.335   1.408  0.4150 -0.9305  2.2559
  640MOL0     H88291   0.173   6.254   1.261 -0.2629  1.3346  0.1016
  640MOL0     H88292   0.427   6.361   1.377  0.9702  1.2342 -1.8015
  640MOL0     H88293   0.416   6.227   1.257 -0.7556  0.1010 -0.3395
  640MOL0     H88294   0.253   6.399   1.144 -1.2246 -1.4417  2.7303
  640MOL0     H88295   0.430   6.432   1.130  0.8046  0.9609  1.0887
  640MOL0     H88296   0.426   6.570   1.332 -2.3738  0.2050  1.4816
  640MOL0     H88297   0.253   6.575   1.322  0.2478  2.1481  1.0263
  640MOL0     H88298   0.416   6.683   1.104  0.4593 -3.8963  0.0319
  640MOL0     H88299   0.305   6.768   1.213 -1.6118  0.3038 -0.5298
  640MOL0     H88300  -0.316   5.955   1.589  0.8553  1.8888  0.5892
  640MOL0     H88301  -0.415   5.830   1.775  0.2196  0.0242 -0.1515
  640MOL0     H88302  -0.526   5.610   2.050 -1.9275 -0.6160  1.6237
  640MOL0     H88303  -0.658   5.487   2.207  0.3003  1.5567  0.9803
  640MOL0     H88304  -0.215   3.951   2.239  2.2438  1.3909 -1.2211
  640MOL0     H88305  -0.247   3.705   2.323 -2.1125  2.4938  0.6555
  640MOL0     H88306   0.127   3.382   2.500 -0.1357 -2.0210 -0.4519
  640MOL0     H88307   0.097   3.181   2.662  0.3561 -1.0503 -0.4512
  640MOL0     H88308  -0.088   3.079   2.850 -2.8175 -0.6619  2.6475
  640MOL0     H88309  -0.226   3.134   2.766  0.7372  1.2789  0.9672
  640MOL0     H88310  -0.315   2.986   2.922  1.5291  2.7050 -1.5948
  640MOL0     H88311  -0.193   2.860   2.885  0.5568 -1.1146 -2.4014
  640MOL0     H88312  -0.427   2.967   2.717  1.8597  0.6375  0.7745
  640MOL0     H88313  -0.323   2.842   2.665  2.3501  3.0442  0.0680
  640MOL0     H88314  -0.481   2.810   2.926  1.2197 -0.0446  0.1125
  640MOL0     H88315  -0.367   2.692   2.849  4.5545  3.0386 -0.8882
  640MOL0     H88316  -0.714   2.639   2.615  0.0132  0.4211  0.6526
  640MOL0     H88317  -0.225   3.047   2.416 -2.2871  1.7163  0.6396
  640MOL0     H88318  -0.330   3.161   2.260 -0.2221  0.3366  3.7333
  640MOL0     H88319  -0.333   3.334   2.288 -1.7756 -0.6643 -2.5102
  640MOL0     H88320  -0.214   3.276   2.173  3.3462  0.4552  1.3303
  641MOL0     O88321   7.873   4.398   5.742  0.7339  0.5182  0.3919
  641MOL0     C88322   7.813   4.293   5.719  0.7707 -0.3109  0.6387
  641MOL0     O88323   7.680   4.280   5.738  0.1283 -0.1344  0.0119
  641MOL0     C88324   7.601   4.382   5.782  0.0255  0.5829  0.3181
  641MOL0     C88325   7.545   4.473   5.688  0.4886  1.4093 -0.4763
  641MOL0     C88326   7.437   4.554   5.730  0.1759 -0.0200 -0.1302
  641MOL0     C88327   7.394   4.565   5.864 -0.0597 -0.1652 -0.5644
  641MOL0     O88328   7.281   4.637   5.908  0.3518 -0.1644 -0.2358
  641MOL0     C88329   7.246   4.751   5.828 -0.1461 -0.8458 -0.6475
  641MOL0     C88330   7.198   4.879   5.902  0.1115 -0.7134  0.1568
  641MOL0     C88331   7.218   5.011   5.824  0.2270  0.1386 -0.1291
  641MOL0     C88332   7.104   5.036   5.717 -0.5399  0.4835 -0.3316
  641MOL0     C88333   7.102   5.178   5.661 -0.1278 -0.5421  1.5228
  641MOL0     C88334   6.987   5.187   5.565 -0.2605 -0.4239 -0.4254
  641MOL0     C88335   6.974   5.327   5.520  0.2278 -0.4503 -0.3925
  641MOL0     C88336   6.873   5.411   5.601 -0.9263 -0.2236 -0.1004
  641MOL0     N88337   6.849   5.543   5.529  0.2244  0.5099 -0.6214
  641MOL0     C88338   6.941   5.623   5.465  0.5093 -1.1449 -0.4475
  641MOL0     C88339   6.875   5.732   5.419  0.0157  0.2978 -0.3552
  641MOL0     C88340   6.923   5.854   5.338  0.0126 -0.4481  0.3500
  641MOL0     C88341   6.826   5.878   5.217  0.0456  0.2906 -0.5606
  641MOL0     C88342   6.815   5.769   5.111 -0.0515 -0.0362  0.8211
  641MOL0     C88343   6.944   5.726   5.047  0.4046  0.0303 -0.1589
  641MOL0     O88344   7.009   5.631   5.130 -0.3247  0.3930  0.0110
  641MOL0     C88345   7.131   5.572   5.089 -0.2822 -0.6096 -0.5585
  641MOL0     C88346   7.170   5.476   5.179 -0.8222  0.3239 -0.1351
  641MOL0     C88347   7.271   5.387   5.158 -0.3709 -0.0363 -0.5646
  641MOL0     C88348   7.292   5.277   5.256 -0.3044  0.7665 -0.3783
  641MOL0     C88349   7.360   5.416   5.050  0.8660  0.3534 -0.1119
  641MOL0     C88350   7.480   5.341   5.024  0.0267 -0.6105 -0.9181
  641MOL0     O88351   7.582   5.414   4.972 -0.0215 -0.7470  0.4180
  641MOL0     C88352   7.682   5.337   4.915  0.7864 -0.5043  0.5511
  641MOL0     C88353   7.801   5.341   4.986  0.5440 -0.5070  0.3732
  641MOL0     C88354   7.915   5.282   4.930  0.9187  0.2691 -0.2868
  641MOL0     C88355   7.910   5.212   4.801  0.7902 -0.8246 -1.0265
  641MOL0     O88356   8.018   5.142   4.761  0.4363  0.0687  0.5094
  641MOL0     C88357   7.980   5.011   4.714  0.1107 -0.2405 -0.3936
  641MOL0     C88358   8.114   4.931   4.710  0.1338 -1.2896 -0.5743
  641MOL0     C88359   8.198   4.984   4.610 -0.3050  0.7014  0.8507
  641MOL0     C88360   8.199   4.881   4.493 -1.2138 -0.3454  0.5226
  641MOL0     C88361   8.290   4.923   4.387 -0.9990  0.8017  0.2225
  641MOL0     C88362   8.245   5.043   4.312  0.7021 -0.1526 -0.2829
  641MOL0     C88363   8.381   5.104   4.250 -0.2899  0.4108 -1.5635
  641MOL0     C88364   8.453   5.012   4.151  0.1587 -0.5113 -0.0788
  641MOL0    Cl88365   8.325   5.002   4.021  0.1622  0.1442  0.0549
  641MOL0     C88366   7.781   5.205   4.739 -0.1482 -0.4057 -0.2256
  641MOL0     C88367   7.661   5.262   4.797  0.0467 -0.2878 -0.3905
  641MOL0     O88368   7.473   5.215   5.032  0.3482 -0.5937 -0.0029
  641MOL0     C88369   7.325   5.510   4.956 -0.3199  1.1995 -0.6456
  641MOL0     C88370   7.209   5.590   4.972  0.4066  0.1093  0.9140
  641MOL0     N88371   6.743   5.701   5.459 -0.3837  0.1108  0.2472
  641MOL0     N88372   6.728   5.600   5.530  0.1906 -0.4234 -0.2859
  641MOL0     C88373   7.442   4.469   5.948  0.3194  0.5041 -1.0155
  641MOL0     C88374   7.544   4.374   5.910 -0.6903 -0.2003 -1.0462
  641MOL0     C88375   7.883   4.166   5.695 -0.1604 -0.8989 -0.6254
  641MOL0     C88376   7.992   4.137   5.774 -1.2786 -0.2195  0.3296
  641MOL0     C88377   8.066   4.014   5.766  0.2932  0.2481  0.1351
  641MOL0     C88378   8.034   3.921   5.661 -0.3346 -0.8390  0.1270
  641MOL0     O88379   8.096   3.804   5.643  0.4904 -0.7716 -0.0297
  641MOL0     C88380   8.242   3.797   5.677 -0.7121 -0.9101  0.6536
  641MOL0     C88381   8.273   3.707   5.797 -0.4594 -0.9345  0.4512
  641MOL0     C88382   8.253   3.555   5.787 -0.3613 -0.0954  0.3038
  641MOL0     C88383   8.338   3.482   5.679 -2.0403 -0.4878 -0.7877
  641MOL0     C88384   8.485   3.523   5.676  0.3210 -0.0416 -0.5899
  641MOL0     C88385   8.598   3.546   5.689  0.2611  0.3084 -0.3250
  641MOL0     C88386   7.925   3.961   5.576  0.5833 -0.1526 -0.0364
  641MOL0     C88387   7.846   4.078   5.597  0.3384 -0.3049  0.3180
  641MOL0     C88388   7.725   4.107   5.500 -0.2902 -0.3097  0.2151
  641MOL0     H88389   7.569   4.475   5.582  4.3962  0.6168  0.2331
  641MOL0     H88390   7.402   4.619   5.650  1.2228  1.2734  0.4111
  641MOL0     H88391   7.175   4.726   5.748  1.0883  0.0301 -2.0833
  641MOL0     H88392   7.333   4.784   5.771 -0.0685 -0.8509 -0.5321
  641MOL0     H88393   7.095   4.857   5.930  0.2504 -3.1095 -0.9634
  641MOL0     H88394   7.260   4.886   5.993 -0.2448 -1.8487  0.5033
  641MOL0     H88395   7.224   5.097   5.891  0.7992  1.0393 -1.3076
  641MOL0     H88396   7.314   5.004   5.772 -0.4619 -0.8193 -1.3378
  641MOL0     H88397   7.120   4.962   5.638 -2.6027 -0.0326 -0.3135
  641MOL0     H88398   7.006   5.016   5.759  0.2836 -5.4274 -0.4581
  641MOL0     H88399   7.196   5.196   5.608 -1.6810  2.2266 -0.5861
  641MOL0     H88400   7.090   5.247   5.745  0.6515  0.0854  1.1324
  641MOL0     H88401   7.014   5.138   5.471 -0.3048  1.0101 -1.2064
  641MOL0     H88402   6.896   5.137   5.600 -1.3087  0.4680 -1.7757
  641MOL0     H88403   6.946   5.333   5.414  2.1930  0.7856 -0.9056
  641MOL0     H88404   7.077   5.363   5.522  0.3275 -0.7676  0.2981
  641MOL0     H88405   6.779   5.359   5.618 -0.6843  0.0509  2.4760
  641MOL0     H88406   6.920   5.421   5.699 -2.2006  3.4958  0.2812
  641MOL0     H88407   7.047   5.609   5.446  0.7841  1.7344 -1.6724
  641MOL0     H88408   7.022   5.846   5.295 -0.1549 -0.1029 -0.1075
  641MOL0     H88409   6.916   5.945   5.399 -4.7243 -1.5848  1.9453
  641MOL0     H88410   6.728   5.898   5.260  0.2477  1.1221 -0.4755
  641MOL0     H88411   6.852   5.976   5.174  0.2853  1.0936  1.3193
  641MOL0     H88412   6.769   5.680   5.156  0.2325 -1.4281 -1.4512
  641MOL0     H88413   6.746   5.803   5.033  2.1911  2.4334 -0.2390
  641MOL0     H88414   6.920   5.681   4.951  1.2732  0.2309 -0.4768
  641MOL0     H88415   7.014   5.806   5.022  2.3100 -1.6780 -0.6100
  641MOL0     H88416   7.107   5.473   5.268  0.4707  1.5795  0.8592
  641MOL0     H88417   7.257   5.183   5.213  1.9750 -0.1552 -0.3287
  641MOL0     H88418   7.238   5.290   5.350  2.0440  2.1619  0.8805
  641MOL0     H88419   7.398   5.271   5.281 -0.7103  0.9594  1.5751
  641MOL0     H88420   7.810   5.395   5.080  0.7089 -1.9343  1.2034
  641MOL0     H88421   8.010   5.289   4.981  0.7529  2.5894 -0.1821
  641MOL0     H88422   7.913   4.964   4.787  0.4823 -0.1639 -0.0050
  641MOL0     H88423   7.944   5.007   4.610 -1.3896 -0.9359  0.1257
  641MOL0     H88424   8.152   4.950   4.811  0.8599 -0.0567 -1.0474
  641MOL0     H88425   8.109   4.822   4.704 -1.2398 -1.1584 -3.7056
  641MOL0     H88426   8.298   5.000   4.651  0.1076 -1.4364  0.7783
  641MOL0     H88427   8.171   5.087   4.585 -0.4627  1.2352  3.0829
  641MOL0     H88428   8.099   4.877   4.448 -0.1146  1.9266 -2.4688
  641MOL0     H88429   8.237   4.784   4.528  1.5176  0.0066 -1.1529
  641MOL0     H88430   8.385   4.947   4.435 -0.6242 -0.0503 -0.0667
  641MOL0     H88431   8.305   4.835   4.324 -3.3950 -0.2661  1.0062
  641MOL0     H88432   8.197   5.115   4.380  2.1210  0.5432  0.0101
  641MOL0     H88433   8.167   5.016   4.241  0.8865 -3.7117  0.6649
  641MOL0     H88434   8.453   5.128   4.329 -0.4763 -0.0817 -1.2455
  641MOL0     H88435   8.349   5.198   4.205 -2.2879  0.4255 -0.2153
  641MOL0     H88436   8.471   4.910   4.186 -1.3811 -0.2841  1.5237
  641MOL0     H88437   8.541   5.071   4.121 -0.0961  0.0817  0.3185
  641MOL0     H88438   7.776   5.140   4.652  1.0117  0.6110 -1.0840
  641MOL0     H88439   7.563   5.243   4.756  0.1471 -0.4886 -0.5392
  641MOL0     H88440   7.379   5.519   4.863 -1.5352 -0.8729 -1.6351
  641MOL0     H88441   7.174   5.655   4.893  2.5929 -0.9604 -1.0372
  641MOL0     H88442   7.421   4.463   6.054  0.7762  3.6138 -0.6762
  641MOL0     H88443   7.573   4.304   5.989  2.9439  3.5421  1.3225
  641MOL0     H88444   8.018   4.205   5.855 -0.4294 -3.9713  3.5088
  641MOL0     H88445   8.138   3.991   5.843 -1.8626 -2.4335  1.4780
  641MOL0     H88446   8.303   3.770   5.590 -0.1668 -0.1891  0.8059
  641MOL0     H88447   8.280   3.897   5.696  2.5858 -2.0745  0.8038
  641MOL0     H88448   8.214   3.749   5.879 -0.9209  0.9533 -0.7808
  641MOL0     H88449   8.380   3.717   5.820 -0.6523 -1.0874  1.4893
  641MOL0     H88450   8.285   3.527   5.888  0.8239  3.1205  0.9607
  641MOL0     H88451   8.146   3.548   5.769 -0.4859  1.4470  0.3551
  641MOL0     H88452   8.299   3.500   5.579 -0.2259 -1.8255 -1.8030
  641MOL0     H88453   8.330   3.374   5.696 -3.1932 -0.7192 -2.5766
  641MOL0     H88454   8.705   3.549   5.689  0.3291 -0.4565 -2.5638
  641MOL0     H88455   7.916   3.893   5.492 -0.7200 -3.0223  2.2603
  641MOL0     H88456   7.742   4.039   5.417  0.1907  0.1975 -0.1053
  641MOL0     H88457   7.633   4.086   5.556  0.7428  0.5898  2.3653
  641MOL0     H88458   7.720   4.212   5.469  0.2969 -0.3704 -0.0908
  642MOL0     O88459   2.887   4.645   9.996  0.6247 -0.8403  0.7583
  642MOL0     C88460   2.793   4.581   9.956  0.5993 -0.3874 -0.7979
  642MOL0     O88461   2.727   4.481  10.029  0.1402 -0.5615 -0.4300
  642MOL0     C88462   2.779   4.450  10.159 -0.2116 -1.1013  0.3776
  642MOL0     C88463   2.808   4.315  10.199  0.8403 -0.2443  0.0280
  642MOL0     C88464   2.841   4.283  10.330  0.6535 -0.0118  0.7277
  642MOL0     C88465   2.839   4.385  10.424 -0.8946  0.1185 -0.3275
  642MOL0     O88466   2.867   4.351  10.562  1.3432  0.2028 -0.6618
  642MOL0     C88467   2.853   4.217  10.606  0.3815 -0.5697  0.2375
  642MOL0     C88468   2.832   4.204  10.761  0.5436 -0.5627  0.9494
  642MOL0     C88469   2.768   4.075  10.788 -0.0534  0.5868  0.5594
  642MOL0     C88470   2.759   4.071  10.939 -0.1637 -0.7296  1.0522
  642MOL0     C88471   2.735   3.934  10.992 -0.3728  0.5164 -0.2888
  642MOL0     C88472   2.758   3.934  11.140  0.6803 -0.1369  0.2959
  642MOL0     C88473   2.754   3.804  11.212  0.5122  0.3665 -0.8225
  642MOL0     C88474   2.819   3.817  11.349  0.5280  0.1607  0.2709
  642MOL0     N88475   2.812   3.687  11.422  0.0203  0.0333  0.3005
  642MOL0     C88476   2.730   3.651  11.526 -0.0185  0.3170 -0.3738
  642MOL0     C88477   2.760   3.521  11.557  0.5781  0.0033  0.8587
  642MOL0     C88478   2.681   3.445  11.663 -1.1655 -0.5579 -0.0046
  642MOL0     C88479   2.717   3.506  11.794  0.0044  1.0779  0.3344
  642MOL0     C88480   2.619   3.460  11.900  1.0515 -0.4435 -0.0014
  642MOL0     C88481   2.627   3.317  11.939  0.8299  0.2096 -0.3978
  642MOL0     O88482   2.757   3.282  11.968 -0.1636  1.1164 -0.0450
  642MOL0     C88483   2.792   3.176  12.057  0.9121 -0.0346  0.3984
  642MOL0     C88484   2.924   3.158  12.071 -0.6205  0.3136 -0.0165
  642MOL0     C88485   2.973   3.039  12.142 -0.0026 -0.1872 -0.6967
  642MOL0     C88486   3.121   3.018  12.156  0.2581  0.1837  0.4311
  642MOL0     C88487   2.879   2.945  12.195 -1.3633  0.3022  0.2543
  642MOL0     C88488   2.920   2.812  12.258  0.0617  0.1545  0.4719
  642MOL0     O88489   2.826   2.752  12.343  0.5558 -0.6565  0.0260
  642MOL0     C88490   2.848   2.633  12.402 -0.0066 -0.1646  0.8094
  642MOL0     C88491   2.737   2.539  12.396 -0.6299 -0.9904  0.0082
  642MOL0     C88492   2.742   2.423  12.467 -0.3724  0.5988 -0.1763
  642MOL0     C88493   2.862   2.395  12.546  1.0244  0.7666 -0.1159
  642MOL0     O88494   2.863   2.271  12.609 -0.5722  0.6035  0.1988
  642MOL0     C88495   2.989   2.205  12.603  0.1468 -0.5498 -0.6843
  642MOL0     C88496   2.970   2.056  12.601 -0.5343  0.4694  0.3255
  642MOL0     C88497   2.910   1.990  12.723  0.0963 -0.2467 -1.1962
  642MOL0     C88498   2.802   1.878  12.678 -0.7041  0.3640 -0.1544
  642MOL0     C88499   2.758   1.800  12.807  0.5176  0.3236 -0.8564
  642MOL0     C88500   2.656   1.697  12.755 -0.3392  0.3163 -0.0529
  642MOL0     C88501   2.513   1.757  12.743  0.0984 -0.7180  0.0216
  642MOL0     C88502   2.416   1.667  12.659  0.3099 -0.3077  0.5326
  642MOL0    Cl88503   2.269   1.775  12.648  0.4869  0.0149  0.3249
  642MOL0     C88504   2.966   2.478  12.547  1.2723 -0.1617 -0.2881
  642MOL0     C88505   2.952   2.606  12.491 -0.5963  0.4773  0.0353
  642MOL0     O88506   3.028   2.765  12.220 -0.3893  0.3087  0.2606
  642MOL0     C88507   2.751   2.985  12.203  0.1628 -0.1654  0.3750
  642MOL0     C88508   2.703   3.086  12.120  0.4664 -1.1513  0.2413
  642MOL0     N88509   2.876   3.491  11.486 -0.2066  0.3324 -0.4293
  642MOL0     N88510   2.905   3.587  11.408 -0.0751 -0.2139 -0.5899
  642MOL0     C88511   2.824   4.520  10.387 -0.1699 -0.5786  0.0078
  642MOL0     C88512   2.793   4.551  10.255  0.3716  0.9588 -0.0676
  642MOL0     C88513   2.765   4.582   9.808 -0.3678 -1.1366 -0.8847
  642MOL0     C88514   2.732   4.469   9.732  0.0904 -0.2984  0.6603
  642MOL0     C88515   2.722   4.481   9.588  0.0460  0.4217  0.2092
  642MOL0     C88516   2.703   4.611   9.528  0.1959  0.3080  0.5358
  642MOL0     O88517   2.688   4.636   9.395 -0.7101 -0.2795  0.8901
  642MOL0     C88518   2.751   4.550   9.300  0.3218  0.3304  0.2306
  642MOL0     C88519   2.769   4.612   9.163  1.3419  0.0676 -0.1939
  642MOL0     C88520   2.819   4.507   9.049  0.0016 -0.2480  0.3416
  642MOL0     C88521   2.712   4.403   9.010 -0.2310  0.1625  0.2541
  642MOL0     C88522   2.613   4.467   8.931  0.5280 -0.1875  0.4244
  642MOL0     C88523   2.520   4.519   8.875  0.5829  0.3251  0.0757
  642MOL0     C88524   2.723   4.720   9.608 -0.1229 -0.1288 -1.1145
  642MOL0     C88525   2.743   4.715   9.749  0.4926 -0.1115 -0.2190
  642MOL0     C88526   2.735   4.845   9.821 -0.9729  0.4999  0.1142
  642MOL0     H88527   2.790   4.233  10.129  2.4391 -2.1482  1.7248
  642MOL0     H88528   2.843   4.178  10.357  0.6490 -0.1064  0.3605
  642MOL0     H88529   2.932   4.149  10.575 -1.0119 -1.5182 -1.3890
  642MOL0     H88530   2.766   4.174  10.556  0.4708 -0.9385  0.3937
  642MOL0     H88531   2.927   4.219  10.814  2.0679  3.6250 -2.3737
  642MOL0     H88532   2.762   4.280  10.797 -2.1563 -0.2698 -4.0241
  642MOL0     H88533   2.674   4.066  10.732  0.1430  0.5716  0.2278
  642MOL0     H88534   2.824   3.988  10.754 -4.6153 -2.7986  0.7877
  642MOL0     H88535   2.852   4.101  10.988  0.8683  0.6675 -1.5618
  642MOL0     H88536   2.673   4.131  10.972 -0.6638 -2.2584  2.7189
  642MOL0     H88537   2.793   3.861  10.936 -1.1434 -0.6586  0.4104
  642MOL0     H88538   2.628   3.912  10.989 -0.2392 -0.5049  1.1880
  642MOL0     H88539   2.853   3.987  11.154  0.3042  0.6250  0.0199
  642MOL0     H88540   2.681   3.995  11.188 -0.5274  0.1749 -1.9552
  642MOL0     H88541   2.811   3.729  11.156  1.1679  0.7751 -0.7094
  642MOL0     H88542   2.650   3.775  11.230  0.4801  0.3952 -0.9592
  642MOL0     H88543   2.924   3.842  11.333  0.5258 -1.1899 -2.3963
  642MOL0     H88544   2.762   3.885  11.414  1.2680  1.1862 -0.1263
  642MOL0     H88545   2.642   3.704  11.559 -0.5520  1.3211 -3.1287
  642MOL0     H88546   2.719   3.343  11.655  2.5363  0.7664 -1.3868
  642MOL0     H88547   2.573   3.455  11.645 -1.1856  1.6123  0.9643
  642MOL0     H88548   2.816   3.476  11.829 -0.8374  2.1877  4.2103
  642MOL0     H88549   2.725   3.615  11.786  0.5891  0.9522 -0.8641
  642MOL0     H88550   2.636   3.515  11.993 -2.7235  1.8851 -0.4625
  642MOL0     H88551   2.515   3.487  11.876  1.2115  0.0152 -0.1823
  642MOL0     H88552   2.566   3.306  12.030  1.5520  2.9398  0.4957
  642MOL0     H88553   2.589   3.244  11.867 -0.1085 -1.6938  1.8951
  642MOL0     H88554   2.997   3.224  12.024 -1.2467 -0.2222 -1.8050
  642MOL0     H88555   3.165   3.117  12.171  0.7243 -0.0455  0.6260
  642MOL0     H88556   3.159   2.971  12.065 -2.0719 -4.1984  1.4115
  642MOL0     H88557   3.155   2.968  12.248  1.9918 -0.8621 -0.7211
  642MOL0     H88558   2.653   2.560  12.329 -2.4582 -0.7468  2.2421
  642MOL0     H88559   2.668   2.344  12.466 -0.0506  0.2882  0.1093
  642MOL0     H88560   3.044   2.236  12.513  1.3721 -0.3290  0.1118
  642MOL0     H88561   3.051   2.245  12.684  2.6161  1.0514 -3.1489
  642MOL0     H88562   2.916   2.023  12.512  0.0808 -1.2983  0.5625
  642MOL0     H88563   3.069   2.011  12.590 -1.1490 -0.6572 -0.9445
  642MOL0     H88564   2.874   2.070  12.789 -0.3466  0.6490 -2.4843
  642MOL0     H88565   2.986   1.938  12.781 -0.8205 -1.2739 -0.8783
  642MOL0     H88566   2.838   1.802  12.609 -3.0498 -0.7758 -0.2328
  642MOL0     H88567   2.714   1.914  12.623 -0.9482 -0.5947 -0.4104
  642MOL0     H88568   2.844   1.750  12.853  0.0690 -4.3955 -4.3463
  642MOL0     H88569   2.710   1.875  12.870  0.9340  0.3680 -0.5855
  642MOL0     H88570   2.646   1.613  12.825  1.6075  1.7473  2.0740
  642MOL0     H88571   2.688   1.652  12.660  1.6647 -3.2047  2.0747
  642MOL0     H88572   2.519   1.856  12.697  0.3119 -0.4429  0.6274
  642MOL0     H88573   2.468   1.764  12.842 -0.1708  0.8379 -0.1727
  642MOL0     H88574   2.380   1.580  12.716 -0.0546  0.8744  2.1991
  642MOL0     H88575   2.460   1.643  12.563 -0.2515 -1.3932  0.5323
  642MOL0     H88576   3.055   2.448  12.602  2.3941  2.0816 -0.7447
  642MOL0     H88577   3.018   2.688  12.516  0.3934  0.6809 -2.8418
  642MOL0     H88578   2.683   2.922  12.260  0.5590  0.1471  1.2199
  642MOL0     H88579   2.596   3.103  12.114  0.8441  1.4777 -4.7373
  642MOL0     H88580   2.822   4.590  10.470 -2.3202  0.0168 -0.4701
  642MOL0     H88581   2.751   4.648  10.230 -1.5914  0.9556  2.7495
  642MOL0     H88582   2.719   4.366   9.764  3.2307 -0.5814  1.3383
  642MOL0     H88583   2.715   4.392   9.526  1.5310  2.1631 -2.6192
  642MOL0     H88584   2.851   4.518   9.330 -0.5308 -0.9059  1.8939
  642MOL0     H88585   2.690   4.460   9.289  2.0348 -0.7929 -0.5060
  642MOL0     H88586   2.831   4.702   9.171 -2.8217  3.1771  0.2396
  642MOL0     H88587   2.671   4.651   9.137  0.6517 -0.2046  1.8237
  642MOL0     H88588   2.855   4.575   8.971 -0.3311  1.3820  1.5445
  642MOL0     H88589   2.908   4.457   9.089  2.3430  1.0208 -2.8150
  642MOL0     H88590   2.672   4.353   9.098  0.8770  0.8786  1.2019
  642MOL0     H88591   2.760   4.326   8.948 -0.3459  1.2631 -1.2522
  642MOL0     H88592   2.434   4.568   8.834 -0.4001 -0.4061  1.1681
  642MOL0     H88593   2.695   4.815   9.563  2.5112  0.9599 -0.6464
  642MOL0     H88594   2.747   4.825   9.928  0.8898 -0.4567 -0.2300
  642MOL0     H88595   2.818   4.912   9.798 -2.0203  1.1924 -1.8548
  642MOL0     H88596   2.643   4.899   9.798 -0.1684  1.6605 -0.4571
  643MOL0     O88597   3.536   3.142  10.389  0.3907 -0.2362 -0.2573
  643MOL0     C88598   3.529   3.260  10.371  0.1811  0.0905 -0.0778
  643MOL0     O88599   3.427   3.322  10.308 -0.0173 -0.3934  0.0860
  643MOL0     C88600   3.333   3.260  10.231 -0.5192 -0.9309  0.1302
  643MOL0     C88601   3.207   3.324  10.235  1.3997  0.4563 -0.5495
  643MOL0     C88602   3.101   3.268  10.160 -0.9889  0.5088 -0.3997
  643MOL0     C88603   3.127   3.145  10.082 -0.7350  0.0737  0.3789
  643MOL0     O88604   3.038   3.071  10.003 -0.7556  0.6356 -0.1908
  643MOL0     C88605   2.902   3.106  10.001 -0.2040 -0.0175 -0.1300
  643MOL0     C88606   2.813   2.996  10.064  0.6039 -0.4278 -0.0987
  643MOL0     C88607   2.835   2.869   9.995  0.0843  0.2701  0.8424
  643MOL0     C88608   2.777   2.742  10.058  0.0536 -0.0512 -0.5382
  643MOL0     C88609   2.820   2.613   9.993 -0.2416 -0.1534 -0.3080
  643MOL0     C88610   2.736   2.592   9.869  0.6488 -0.2309  0.0796
  643MOL0     C88611   2.712   2.438   9.836 -0.2464 -0.4089 -0.3382
  643MOL0     C88612   2.619   2.370   9.931 -0.1243 -0.0213  0.0099
  643MOL0     N88613   2.490   2.437   9.921  0.5338 -0.4969  0.2091
  643MOL0     C88614   2.378   2.382   9.866 -0.1363  0.1438 -0.3149
  643MOL0     C88615   2.273   2.454   9.919  0.7513  0.7437  0.5138
  643MOL0     C88616   2.129   2.424   9.875 -0.4794  0.5060  0.1089
  643MOL0     C88617   2.056   2.329   9.985  0.6992 -0.1167 -0.3414
  643MOL0     C88618   2.065   2.386  10.132  0.8992  0.4532  0.9845
  643MOL0     C88619   1.992   2.284  10.218  0.2876 -0.7798  0.7387
  643MOL0     O88620   1.856   2.334  10.216 -0.2595 -0.1958  0.4181
  643MOL0     C88621   1.759   2.260  10.262  0.5787 -0.1443  0.0404
  643MOL0     C88622   1.782   2.173  10.373  0.3102 -1.0707 -0.4397
  643MOL0     C88623   1.678   2.100  10.428  0.9388 -0.5916 -0.5842
  643MOL0     C88624   1.704   2.004  10.540  0.5426 -0.0949  0.3449
  643MOL0     C88625   1.549   2.094  10.359 -0.1376 -0.7646 -0.3890
  643MOL0     C88626   1.431   2.020  10.410 -0.7398  0.4272  1.3025
  643MOL0     O88627   1.339   1.994  10.318 -0.6133  0.5641 -0.2176
  643MOL0     C88628   1.264   1.880  10.347 -0.8712 -0.8112  1.2086
  643MOL0     C88629   1.300   1.762  10.285  0.3030 -0.7017  0.3777
  643MOL0     C88630   1.219   1.649  10.304  0.8378 -0.1415  0.4774
  643MOL0     C88631   1.112   1.640  10.387 -0.1549 -0.0668 -0.4794
  643MOL0     O88632   1.073   1.513  10.417 -0.0530 -0.1986 -0.2885
  643MOL0     C88633   1.011   1.489  10.554 -0.2746  0.0205 -0.0836
  643MOL0     C88634   1.080   1.371  10.627  0.1954 -0.1657  0.4392
  643MOL0     C88635   1.041   1.235  10.571 -0.3676 -0.3261 -0.2803
  643MOL0     C88636   1.095   1.125  10.660  0.8869  0.0515 -0.2221
  643MOL0     C88637   0.999   1.005  10.643 -0.2446  1.0856 -0.1749
  643MOL0     C88638   1.038   0.883  10.729 -0.3290 -0.4142  0.4340
  643MOL0     C88639   0.940   0.776  10.703  0.0241  0.5923  0.8776
  643MOL0     C88640   0.949   0.655  10.791  0.5701 -0.3800  0.0887
  643MOL0    Cl88641   0.894   0.709  10.953  0.2920  0.5696  0.2546
  643MOL0     C88642   1.079   1.765  10.457  0.6117  0.1839  0.7947
  643MOL0     C88643   1.156   1.881  10.433 -0.4299 -1.1449 -0.5483
  643MOL0     O88644   1.422   1.997  10.530 -0.7144 -0.0411  0.1566
  643MOL0     C88645   1.535   2.176  10.248  0.1949 -0.1755 -0.6798
  643MOL0     C88646   1.640   2.251  10.199  0.1726 -0.8447 -0.5076
  643MOL0     N88647   2.314   2.546  10.006  0.6412 -0.3769  0.2866
  643MOL0     N88648   2.442   2.534  10.010  0.8085  0.6376 -0.0637
  643MOL0     C88649   3.258   3.099  10.069  0.3831  0.4133 -0.5032
  643MOL0     C88650   3.360   3.152  10.152  0.0506 -0.0261  0.6174
  643MOL0     C88651   3.615   3.355  10.453  0.2504  0.3071  0.3430
  643MOL0     C88652   3.581   3.492  10.466  0.0562 -0.3874 -0.2737
  643MOL0     C88653   3.656   3.574  10.553  0.0114  0.0837  0.4375
  643MOL0     C88654   3.770   3.534  10.612 -0.3865  0.1748 -0.3337
  643MOL0     O88655   3.835   3.632  10.687 -0.2533 -0.4563 -0.0396
  643MOL0     C88656   3.936   3.594  10.778  0.1328  0.3925 -0.1256
  643MOL0     C88657   3.935   3.689  10.897  1.3435 -0.1682  1.1036
  643MOL0     C88658   4.017   3.817  10.851 -0.3988 -0.0603 -0.4416
  643MOL0     C88659   3.938   3.950  10.892  0.3205 -0.0674 -0.7075
  643MOL0     C88660   3.948   3.969  11.034  0.3806  0.4441 -0.3673
  643MOL0     C88661   3.933   3.973  11.155 -0.1519  0.0237 -0.0496
  643MOL0     C88662   3.810   3.405  10.589 -0.5825  0.2980  0.9344
  643MOL0     C88663   3.729   3.315  10.523 -0.1218 -0.1615 -0.6709
  643MOL0     C88664   3.801   3.183  10.507 -0.8332 -0.1515 -0.9841
  643MOL0     H88665   3.198   3.419  10.286 -1.3704  0.4628 -0.9042
  643MOL0     H88666   3.009   3.325  10.168  0.6615  3.5087 -1.2415
  643MOL0     H88667   2.863   3.127   9.901 -2.2979 -2.4537  0.0783
  643MOL0     H88668   2.877   3.201  10.049 -1.4576  1.2588 -3.0293
  643MOL0     H88669   2.848   2.987  10.167  4.6691 -1.9663 -1.4228
  643MOL0     H88670   2.710   3.028  10.044  0.5475 -0.5384  0.0184
  643MOL0     H88671   2.806   2.888   9.891  3.0553 -2.3407 -0.6270
  643MOL0     H88672   2.940   2.841   9.985 -0.7433 -2.7486 -0.8717
  643MOL0     H88673   2.818   2.722  10.157 -2.2309 -1.2522  0.2341
  643MOL0     H88674   2.669   2.755  10.066  0.0910  2.3998 -2.4975
  643MOL0     H88675   2.796   2.533  10.064 -0.5882 -3.4684 -3.8443
  643MOL0     H88676   2.927   2.598   9.979 -0.2901 -1.1089  0.2543
  643MOL0     H88677   2.638   2.641   9.864  0.0176 -1.5267 -1.5823
  643MOL0     H88678   2.801   2.629   9.789  1.8501  1.1369  1.6352
  643MOL0     H88679   2.806   2.382   9.831 -0.6785 -1.2746  0.8285
  643MOL0     H88680   2.667   2.429   9.737  2.7376  0.1760 -1.8724
  643MOL0     H88681   2.607   2.276   9.876 -0.2556  1.2702 -2.3128
  643MOL0     H88682   2.658   2.370  10.033  2.2985  0.0815 -0.8557
  643MOL0     H88683   2.378   2.298   9.798  4.6602  0.3449 -0.8787
  643MOL0     H88684   2.128   2.371   9.779  0.6269  2.4927 -1.0708
  643MOL0     H88685   2.077   2.518   9.852 -0.9427  0.0700 -0.7072
  643MOL0     H88686   1.950   2.308   9.964  1.2145 -0.2639 -3.3146
  643MOL0     H88687   2.110   2.234   9.987  0.0917 -0.4624 -0.0726
  643MOL0     H88688   2.170   2.385  10.163  1.2456 -0.1030 -0.1608
  643MOL0     H88689   2.023   2.487  10.129  0.1992  0.3165  3.4639
  643MOL0     H88690   2.016   2.189  10.169 -0.4671  1.2926 -4.2951
  643MOL0     H88691   2.029   2.285  10.320  0.0866 -2.0596  0.8496
  643MOL0     H88692   1.885   2.174  10.408  0.9678 -0.4239 -2.2692
  643MOL0     H88693   1.652   2.039  10.630  0.4622  2.2710 -0.5484
  643MOL0     H88694   1.811   1.993  10.561  1.3659  0.7139 -2.9032
  643MOL0     H88695   1.659   1.906  10.520  1.0326 -0.1148 -0.7123
  643MOL0     H88696   1.386   1.743  10.223  1.4643 -0.0623  1.7309
  643MOL0     H88697   1.247   1.557  10.254  0.1911  1.1784 -2.5485
  643MOL0     H88698   1.026   1.578  10.616 -1.0358  2.9547 -3.7328
  643MOL0     H88699   0.905   1.465  10.545 -0.7095  1.8163 -0.1884
  643MOL0     H88700   1.189   1.374  10.624  0.4043 -3.9653  0.2526
  643MOL0     H88701   1.046   1.377  10.731  1.4519 -1.2371  0.9328
  643MOL0     H88702   1.086   1.216  10.473 -0.1716  1.6647 -0.6193
  643MOL0     H88703   0.932   1.235  10.568 -0.5267  4.1358 -0.9260
  643MOL0     H88704   1.096   1.149  10.767  3.8965 -2.2096  0.3966
  643MOL0     H88705   1.199   1.113  10.628  1.4163  2.7791  0.2155
  643MOL0     H88706   0.902   1.043  10.676  0.1340  1.8837  0.0355
  643MOL0     H88707   0.976   0.983  10.538  2.9183 -0.3740 -0.6717
  643MOL0     H88708   1.017   0.915  10.832 -1.9154  0.1555 -0.0294
  643MOL0     H88709   1.143   0.855  10.718 -0.0961  0.3877  0.5213
  643MOL0     H88710   0.957   0.742  10.600  2.3733 -0.2975  1.4909
  643MOL0     H88711   0.836   0.807  10.703 -0.5977 -1.3258  1.7817
  643MOL0     H88712   1.053   0.622  10.801  0.4855 -0.0572  2.8176
  643MOL0     H88713   0.896   0.568  10.752  0.9204  0.4637 -2.4009
  643MOL0     H88714   1.017   1.768  10.546 -2.4083  0.0380 -1.1387
  643MOL0     H88715   1.138   1.976  10.482  0.3106 -2.5572  2.7061
  643MOL0     H88716   1.442   2.170  10.191 -0.0971 -0.1433 -0.2130
  643MOL0     H88717   1.609   2.306  10.111  1.6538 -1.8043 -1.6716
  643MOL0     H88718   3.280   3.031   9.987 -1.8158  0.2555 -1.0156
  643MOL0     H88719   3.458   3.104  10.151 -0.8080 -2.2369 -3.8065
  643MOL0     H88720   3.495   3.531  10.412 -1.5259 -1.0594  1.6629
  643MOL0     H88721   3.643   3.682  10.557 -1.9010 -0.0465 -1.0465
  643MOL0     H88722   3.897   3.505  10.829  0.3047  1.3906  1.8721
  643MOL0     H88723   4.034   3.573  10.734 -1.0619 -0.3958 -2.5823
  643MOL0     H88724   3.981   3.649  10.988  0.3678 -2.0101  0.8354
  643MOL0     H88725   3.833   3.714  10.926 -0.3407 -1.9312 -2.6048
  643MOL0     H88726   4.118   3.812  10.893 -0.1653  1.2549 -0.7818
  643MOL0     H88727   4.017   3.830  10.743 -1.5291 -1.3276 -0.6202
  643MOL0     H88728   3.829   3.941  10.879 -0.5635 -1.3885  4.7597
  643MOL0     H88729   3.977   4.039  10.842 -0.1810  0.8137  0.4108
  643MOL0     H88730   3.926   3.966  11.261  0.7182 -2.0868 -0.0701
  643MOL0     H88731   3.908   3.376  10.627  0.4140  0.9399 -1.0086
  643MOL0     H88732   3.789   3.140  10.407  0.0444  0.1546 -1.2272
  643MOL0     H88733   3.906   3.209  10.519 -0.4454  1.1349 -5.2429
  643MOL0     H88734   3.787   3.106  10.583  1.4460 -0.9006 -1.2627
  644MOL0     O88735   9.452   2.920   1.654 -0.5841 -0.6952 -0.0849
  644MOL0     C88736   9.518   3.025   1.646  0.5246 -0.5406  0.7329
  644MOL0     O88737   9.611   3.058   1.744 -0.2585 -0.2476 -0.0957
  644MOL0     C88738   9.683   2.967   1.819 -0.2699 -0.1352 -0.0254
  644MOL0     C88739   9.693   2.820   1.797  0.8797 -0.3379 -0.5530
  644MOL0     C88740   9.763   2.745   1.891  0.0679  0.5017  0.2392
  644MOL0     C88741   9.831   2.800   1.991 -0.3404 -0.3055  0.3397
  644MOL0     O88742   9.882   2.719   2.091 -0.1291 -0.6366  1.4299
  644MOL0     C88743  10.026   2.698   2.099  0.3001  0.0793  0.6598
  644MOL0     C88744  10.071   2.608   1.984  0.0589  0.1309  0.3374
  644MOL0     C88745  10.209   2.582   2.009 -1.1226 -0.1582  0.1194
  644MOL0     C88746  10.272   2.535   1.867 -0.5443 -0.0032 -0.0082
  644MOL0     C88747  10.420   2.498   1.886  0.4973  0.6881  1.1285
  644MOL0     C88748  10.418   2.345   1.906 -0.0818 -0.0775  0.0836
  644MOL0     C88749  10.558   2.297   1.889 -0.5281  1.1585  0.9023
  644MOL0     C88750  10.586   2.140   1.889  0.2453 -0.1192  0.4798
  644MOL0     N88751  10.526   2.075   1.762 -0.4538  0.1414  0.6170
  644MOL0     C88752  10.570   2.098   1.630 -0.6114 -0.5220 -0.0622
  644MOL0     C88753  10.506   2.005   1.560 -1.2444 -0.0843  0.1684
  644MOL0     C88754  10.522   1.967   1.422  0.6623  0.1291  0.5516
  644MOL0     C88755  10.424   2.017   1.308  0.5713 -0.0464 -0.4650
  644MOL0     C88756  10.452   1.983   1.169 -0.3827  0.2189 -0.3018
  644MOL0     C88757  10.321   1.960   1.097  0.6750 -0.7154  0.0699
  644MOL0     O88758  10.236   2.075   1.102 -0.2270 -1.1356 -0.4731
  644MOL0     C88759  10.276   2.203   1.062  0.0982 -0.3129 -0.1381
  644MOL0     C88760  10.209   2.315   1.116  0.0631 -1.4355 -0.7230
  644MOL0     C88761  10.239   2.450   1.080  0.2347  0.8067 -0.2783
  644MOL0     C88762  10.161   2.545   1.164 -0.1824 -0.6060 -0.8433
  644MOL0     C88763  10.346   2.472   0.981 -0.7089 -0.1062  0.1527
  644MOL0     C88764  10.395   2.604   0.938  0.6198  0.5224 -0.0925
  644MOL0     O88765  10.445   2.613   0.816 -0.0074 -0.1309 -0.0259
  644MOL0     C88766  10.456   2.733   0.753 -0.6748  0.1225  0.5064
  644MOL0     C88767  10.582   2.789   0.755  0.7967  0.1101  0.4854
  644MOL0     C88768  10.608   2.905   0.682  0.5000 -0.8124  0.3397
  644MOL0     C88769  10.507   2.979   0.620  1.4374 -1.2195 -0.6442
  644MOL0     O88770  10.524   3.097   0.547 -0.0503 -0.0136  0.2390
  644MOL0     C88771  10.585   3.206   0.620  0.3285  0.2926 -0.3710
  644MOL0     C88772  10.584   3.320   0.516  0.0375  0.9513  0.1657
  644MOL0     C88773  10.457   3.413   0.516 -0.3514 -0.2952  0.2815
  644MOL0     C88774  10.470   3.541   0.430  0.2084  1.2047  0.6720
  644MOL0     C88775  10.343   3.570   0.347 -0.1607 -0.4331  0.1224
  644MOL0     C88776  10.235   3.593   0.445 -0.0934  0.5690 -0.2588
  644MOL0     C88777  10.111   3.684   0.386 -0.6984  0.0088 -0.2195
  644MOL0     C88778   9.993   3.667   0.486  1.1096  0.3793  0.4606
  644MOL0    Cl88779  10.034   3.731   0.642  0.0387 -0.3607 -0.1639
  644MOL0     C88780  10.374   2.924   0.628 -0.0765 -0.1185 -0.3808
  644MOL0     C88781  10.352   2.811   0.699 -0.5999  0.0628  0.2770
  644MOL0     O88782  10.379   2.699   1.011 -0.0045 -0.7768 -0.7534
  644MOL0     C88783  10.403   2.353   0.924  0.3481 -0.5987 -0.1306
  644MOL0     C88784  10.371   2.228   0.960 -0.4049  0.7554 -0.2866
  644MOL0     N88785  10.421   1.940   1.642  0.7013  0.2882 -0.1568
  644MOL0     N88786  10.442   1.969   1.761  0.0408 -0.7554 -0.2656
  644MOL0     C88787   9.827   2.942   2.001  0.0846 -0.1015  0.5394
  644MOL0     C88788   9.764   3.020   1.913 -0.2372 -0.7329  0.4701
  644MOL0     C88789   9.491   3.118   1.529 -0.3417 -0.8245  1.1927
  644MOL0     C88790   9.546   3.249   1.544  1.0194 -0.2082  0.2972
  644MOL0     C88791   9.529   3.355   1.450  0.2523 -0.9598  0.6063
  644MOL0     C88792   9.476   3.325   1.321 -0.7197  1.2458  0.2073
  644MOL0     O88793   9.460   3.428   1.235  0.8252 -0.4791  0.8267
  644MOL0     C88794   9.357   3.413   1.130  0.1539 -0.8932  0.0882
  644MOL0     C88795   9.286   3.549   1.104 -0.0853  0.5825 -0.7333
  644MOL0     C88796   9.140   3.540   1.042 -0.8882 -1.4826 -0.0851
  644MOL0     C88797   9.160   3.495   0.900  0.0574 -0.0167  0.6747
  644MOL0     C88798   9.161   3.349   0.874 -0.0639  0.1226  1.0964
  644MOL0     C88799   9.165   3.232   0.847  0.5769  0.1849  0.3179
  644MOL0     C88800   9.434   3.193   1.303 -0.3858 -0.9520  0.6234
  644MOL0     C88801   9.429   3.094   1.397  0.5956 -0.4645  0.0973
  644MOL0     C88802   9.362   2.963   1.349  0.2428  0.5333 -0.2846
  644MOL0     H88803   9.648   2.767   1.714 -0.4430  1.5664 -1.1195
  644MOL0     H88804   9.752   2.637   1.882 -0.5213  0.4290  1.6605
  644MOL0     H88805  10.050   2.653   2.197 -2.1117 -1.2935  0.7035
  644MOL0     H88806  10.068   2.799   2.100  1.1722 -0.2701  1.4214
  644MOL0     H88807  10.008   2.519   1.975 -0.1158  0.3752 -1.2873
  644MOL0     H88808  10.067   2.660   1.887 -1.5103 -1.5395 -0.5541
  644MOL0     H88809  10.262   2.677   2.022 -0.2055 -0.3935 -1.5847
  644MOL0     H88810  10.227   2.516   2.095  0.8658  0.7287  0.4587
  644MOL0     H88811  10.221   2.452   1.816  2.9814 -0.3867 -3.3277
  644MOL0     H88812  10.266   2.618   1.796  0.8334  2.1802  2.2398
  644MOL0     H88813  10.476   2.549   1.965 -1.0971  0.2919  2.5674
  644MOL0     H88814  10.468   2.527   1.791 -1.8707  1.0768 -0.0278
  644MOL0     H88815  10.394   2.319   2.010  1.2726 -2.1960 -0.0785
  644MOL0     H88816  10.347   2.293   1.841  0.9023 -1.2673 -0.0635
  644MOL0     H88817  10.621   2.332   1.971 -0.6167  0.5644  1.2276
  644MOL0     H88818  10.606   2.345   1.803 -1.3652 -0.9851 -0.8392
  644MOL0     H88819  10.693   2.115   1.896  0.0229 -0.7678  1.9252
  644MOL0     H88820  10.529   2.101   1.973 -2.0663 -2.4256 -1.9460
  644MOL0     H88821  10.649   2.166   1.600  0.4727 -1.8500 -0.3024
  644MOL0     H88822  10.511   1.859   1.434  2.8736 -0.5587 -2.4159
  644MOL0     H88823  10.621   1.986   1.379 -0.0384 -0.4582 -1.4468
  644MOL0     H88824  10.318   2.011   1.334  0.1338  3.7599 -0.7307
  644MOL0     H88825  10.426   2.126   1.317 -0.3319  0.0507 -1.2720
  644MOL0     H88826  10.518   2.059   1.126 -0.6097  0.8029  0.3646
  644MOL0     H88827  10.504   1.887   1.166 -0.8287 -0.0018 -1.4524
  644MOL0     H88828  10.358   1.931   0.998  0.2989  0.4135 -0.4212
  644MOL0     H88829  10.262   1.875   1.134 -1.3062  0.2514 -0.7150
  644MOL0     H88830  10.131   2.297   1.189 -2.2452  0.8025 -2.4348
  644MOL0     H88831  10.198   2.526   1.265 -1.5101 -0.0092 -0.2145
  644MOL0     H88832  10.052   2.534   1.172  0.0874 -3.4379 -0.0990
  644MOL0     H88833  10.182   2.651   1.150  3.7548  0.0435  5.8597
  644MOL0     H88834  10.660   2.728   0.801  0.8021  1.6289  2.6064
  644MOL0     H88835  10.705   2.952   0.673  1.3492 -2.9413 -4.4470
  644MOL0     H88836  10.521   3.229   0.705 -0.8253 -1.7693 -0.6337
  644MOL0     H88837  10.686   3.176   0.652 -0.7570 -3.9869 -0.3098
  644MOL0     H88838  10.676   3.373   0.543  2.0436 -2.5349  0.8445
  644MOL0     H88839  10.595   3.282   0.414 -0.4435 -2.2857  1.2165
  644MOL0     H88840  10.444   3.440   0.621 -1.2182 -2.7786  0.8610
  644MOL0     H88841  10.372   3.361   0.471  1.4442 -0.6106 -3.1399
  644MOL0     H88842  10.554   3.526   0.362  0.5781  0.7488  1.2230
  644MOL0     H88843  10.488   3.633   0.487 -0.8511  2.7726 -1.3640
  644MOL0     H88844  10.347   3.665   0.293 -1.1180 -0.9320 -0.8577
  644MOL0     H88845  10.325   3.484   0.283  2.2698 -0.6294 -0.3733
  644MOL0     H88846  10.268   3.645   0.536  2.4687  1.2812 -1.4836
  644MOL0     H88847  10.199   3.497   0.483 -0.9716  0.4267 -1.4012
  644MOL0     H88848  10.081   3.659   0.285  0.8926  1.6422 -1.1632
  644MOL0     H88849  10.143   3.789   0.388 -1.4674  0.2472  1.0474
  644MOL0     H88850   9.971   3.559   0.485 -1.2960  0.6192 -4.6805
  644MOL0     H88851   9.899   3.710   0.451 -0.7194 -2.0006  2.0583
  644MOL0     H88852  10.295   2.967   0.568 -1.8833 -1.6225  0.8162
  644MOL0     H88853  10.253   2.769   0.714 -0.7568  0.6611  1.0202
  644MOL0     H88854  10.467   2.355   0.837  0.4479 -0.1354 -0.0486
  644MOL0     H88855  10.417   2.140   0.915 -0.5536  0.3555  0.3373
  644MOL0     H88856   9.877   2.991   2.083  0.4781 -0.6760  0.6512
  644MOL0     H88857   9.778   3.126   1.931 -0.9897  0.7030 -5.2690
  644MOL0     H88858   9.576   3.275   1.645 -0.0517  1.0156  0.3285
  644MOL0     H88859   9.551   3.459   1.473  1.6239 -0.9517 -0.5719
  644MOL0     H88860   9.407   3.387   1.036 -1.1682  0.3902 -1.0257
  644MOL0     H88861   9.282   3.338   1.157 -0.2502 -0.4074  0.3147
  644MOL0     H88862   9.358   3.611   1.049  0.6001  0.0756 -0.4243
  644MOL0     H88863   9.265   3.606   1.195 -0.5434  0.4731 -0.7682
  644MOL0     H88864   9.082   3.463   1.094  0.5820 -3.4641 -1.2183
  644MOL0     H88865   9.101   3.642   1.051  2.5866 -0.1301  1.2214
  644MOL0     H88866   9.251   3.538   0.856  0.3084  1.2162  2.2845
  644MOL0     H88867   9.071   3.523   0.844 -1.2418  0.1287  2.7403
  644MOL0     H88868   9.151   3.130   0.817 -0.8967  1.0191 -2.0418
  644MOL0     H88869   9.387   3.172   1.208 -2.0019 -0.0947  1.2034
  644MOL0     H88870   9.254   2.969   1.334  0.0656 -3.7057 -2.2304
  644MOL0     H88871   9.412   2.933   1.256 -0.7025 -2.3808  0.0466
  644MOL0     H88872   9.374   2.874   1.412  0.3376 -0.3848 -1.5728
  645MOL0     O88873   4.977   4.374   8.732 -0.5565 -0.0956  0.1676
  645MOL0     C88874   4.915   4.264   8.725 -0.2063  0.1316  0.0220
  645MOL0     O88875   4.862   4.207   8.615 -0.7211 -0.0796 -0.4072
  645MOL0     C88876   4.803   4.300   8.538  0.0875  0.2578  0.6611
  645MOL0     C88877   4.709   4.389   8.586 -0.0788 -1.1720 -1.2011
  645MOL0     C88878   4.661   4.475   8.491  0.7653  0.2948 -0.1241
  645MOL0     C88879   4.681   4.468   8.353  1.0971  0.4872  1.2053
  645MOL0     O88880   4.620   4.566   8.278  1.0020  0.0209  0.3035
  645MOL0     C88881   4.623   4.545   8.136 -0.3691  0.5138 -0.7788
  645MOL0     C88882   4.618   4.677   8.067 -0.4109  0.3555  0.2723
  645MOL0     C88883   4.476   4.744   8.069  0.4678  0.3818 -0.0224
  645MOL0     C88884   4.449   4.799   8.202  0.9770  0.7222 -0.0599
  645MOL0     C88885   4.315   4.889   8.195  0.4037  0.2532 -0.2694
  645MOL0     C88886   4.199   4.820   8.130  0.0215 -0.3851 -0.3906
  645MOL0     C88887   4.064   4.902   8.141  0.3922  0.4041  0.7291
  645MOL0     C88888   3.978   4.844   8.034 -0.7725  0.8036  0.6537
  645MOL0     N88889   3.856   4.928   8.033 -0.1384  0.2668  0.1757
  645MOL0     C88890   3.757   4.936   8.128  0.5607 -0.5593 -0.1735
  645MOL0     C88891   3.695   5.053   8.113 -1.2802  0.0170  1.4941
  645MOL0     C88892   3.591   5.122   8.195  0.3901  0.2237 -0.0188
  645MOL0     C88893   3.455   5.137   8.127 -0.5665  0.0028  0.4387
  645MOL0     C88894   3.354   5.212   8.205  0.5436  0.3809 -0.4877
  645MOL0     C88895   3.208   5.225   8.142  0.1575 -0.2985 -0.0098
  645MOL0     O88896   3.233   5.277   8.013  0.8529 -0.6628  0.2309
  645MOL0     C88897   3.128   5.320   7.936 -0.2269  0.0916 -1.1859
  645MOL0     C88898   3.154   5.335   7.803 -0.3197 -0.4994  0.0962
  645MOL0     C88899   3.054   5.368   7.711  0.3445 -0.3880 -0.2287
  645MOL0     C88900   3.096   5.399   7.570 -0.1265 -0.6825 -0.2854
  645MOL0     C88901   2.916   5.384   7.755 -0.5336  0.5455  0.4050
  645MOL0     C88902   2.794   5.419   7.677 -0.4180  0.0382  0.2223
  645MOL0     O88903   2.686   5.483   7.757 -0.5938 -0.0979  0.2888
  645MOL0     C88904   2.562   5.452   7.715  0.0321  1.5571 -0.4502
  645MOL0     C88905   2.523   5.316   7.733  0.5729  0.5522 -0.3933
  645MOL0     C88906   2.391   5.277   7.699  0.8809  0.2772  0.4692
  645MOL0     C88907   2.290   5.364   7.650  0.5437  0.7091 -0.5659
  645MOL0     O88908   2.157   5.324   7.612  0.1249  0.3997  0.0596
  645MOL0     C88909   2.064   5.427   7.580  0.1271 -0.8720  0.2429
  645MOL0     C88910   2.020   5.524   7.689 -1.2902 -0.2574 -0.0266
  645MOL0     C88911   1.953   5.467   7.814 -0.7635  0.5235  1.0922
  645MOL0     C88912   2.031   5.365   7.896  0.1303 -0.6449  0.4889
  645MOL0     C88913   1.951   5.319   8.014  0.1185 -0.0970 -0.2480
  645MOL0     C88914   2.056   5.237   8.090  0.5412 -0.9319  0.1573
  645MOL0     C88915   1.993   5.183   8.222  0.2644 -0.8428  0.5434
  645MOL0     C88916   2.101   5.139   8.320  0.4930  1.1716  0.2168
  645MOL0    Cl88917   2.026   5.075   8.480 -0.4767  0.1204 -0.0115
  645MOL0     C88918   2.337   5.496   7.639  0.3349  0.4520 -0.1949
  645MOL0     C88919   2.464   5.536   7.669 -0.6316 -1.4249 -0.5958
  645MOL0     O88920   2.781   5.392   7.559 -0.5054 -1.0077  0.3392
  645MOL0     C88921   2.893   5.353   7.890 -0.4115 -0.1822  0.2770
  645MOL0     C88922   2.993   5.330   7.977 -0.4358  0.1196 -0.2471
  645MOL0     N88923   3.746   5.111   7.996 -0.2302 -0.1699 -0.5669
  645MOL0     N88924   3.852   5.046   7.969 -0.0405 -0.0067  0.6053
  645MOL0     C88925   4.761   4.358   8.308  0.8451  0.1632 -0.3602
  645MOL0     C88926   4.828   4.279   8.403 -0.4142 -1.2446 -0.2205
  645MOL0     C88927   4.911   4.180   8.850  0.2553  0.1122  0.4606
  645MOL0     C88928   4.996   4.219   8.955  0.0888 -0.0227 -0.2221
  645MOL0     C88929   4.998   4.141   9.074 -0.5212  0.6519 -0.8000
  645MOL0     C88930   4.926   4.027   9.089  0.4682  0.2181 -0.3603
  645MOL0     O88931   4.929   3.946   9.203  0.2923  0.4790  0.6849
  645MOL0     C88932   5.042   3.954   9.284 -1.0533  0.5495  1.0632
  645MOL0     C88933   5.057   3.809   9.366  1.4539 -1.0707  0.8180
  645MOL0     C88934   4.926   3.783   9.444 -0.4791  0.2802  0.1757
  645MOL0     C88935   4.941   3.652   9.526 -0.1815  1.1801 -0.3852
  645MOL0     C88936   4.821   3.622   9.597 -0.4936  1.3267  0.3336
  645MOL0     C88937   4.724   3.588   9.667 -0.0312  0.1175  0.2887
  645MOL0     C88938   4.833   4.003   8.983  0.5347 -0.8155  0.8771
  645MOL0     C88939   4.824   4.078   8.870 -0.2155 -0.0402 -0.0765
  645MOL0     C88940   4.710   4.040   8.777  0.4666  0.0755  0.3349
  645MOL0     H88941   4.666   4.394   8.685 -3.2314  1.5812 -2.5131
  645MOL0     H88942   4.592   4.544   8.536 -0.0247 -0.9575  0.6216
  645MOL0     H88943   4.546   4.474   8.103  1.8492 -2.4847  0.0982
  645MOL0     H88944   4.718   4.503   8.103 -0.4011 -0.2661  0.0890
  645MOL0     H88945   4.694   4.737   8.117 -1.9709  2.4552  0.2791
  645MOL0     H88946   4.647   4.662   7.963 -1.1708  0.1953  0.0778
  645MOL0     H88947   4.485   4.828   8.001 -0.6663 -0.2452 -0.9896
  645MOL0     H88948   4.402   4.672   8.033  1.7423 -1.2299  0.4335
  645MOL0     H88949   4.438   4.714   8.270  3.4727  0.9682  0.7708
  645MOL0     H88950   4.537   4.853   8.237  3.5087 -1.6262 -2.3531
  645MOL0     H88951   4.340   4.972   8.127 -1.0727 -0.4354 -1.7436
  645MOL0     H88952   4.297   4.939   8.290  2.4435  1.5621 -0.4990
  645MOL0     H88953   4.226   4.822   8.024 -1.7615  1.4942 -0.8601
  645MOL0     H88954   4.182   4.721   8.174 -0.7338  0.7252  1.9638
  645MOL0     H88955   4.089   5.004   8.110  0.5839 -0.6340 -2.9056
  645MOL0     H88956   4.019   4.887   8.240  3.1378 -3.2086  1.6239
  645MOL0     H88957   4.023   4.845   7.935 -1.5372 -0.9713  0.2571
  645MOL0     H88958   3.958   4.738   8.049 -0.4359 -0.3360 -4.9332
  645MOL0     H88959   3.740   4.868   8.211 -0.0220 -0.0026  0.1705
  645MOL0     H88960   3.622   5.225   8.212  0.2798  0.2829 -0.1755
  645MOL0     H88961   3.571   5.059   8.283  4.3344 -5.3083 -2.5198
  645MOL0     H88962   3.485   5.186   8.035  1.0663 -1.1862  0.2921
  645MOL0     H88963   3.409   5.045   8.090  0.0124 -0.9312  1.9322
  645MOL0     H88964   3.341   5.177   8.308 -3.5207  3.9594  0.5356
  645MOL0     H88965   3.383   5.317   8.211  2.3399 -0.0765 -0.6041
  645MOL0     H88966   3.175   5.121   8.137  0.7431 -0.6153  2.0375
  645MOL0     H88967   3.138   5.288   8.199 -0.1079 -0.2987 -0.3315
  645MOL0     H88968   3.255   5.317   7.767 -1.3044 -0.9202 -2.7834
  645MOL0     H88969   3.069   5.501   7.544  0.9377  0.1170  1.5945
  645MOL0     H88970   3.039   5.328   7.509 -0.0733  0.3232 -1.5440
  645MOL0     H88971   3.202   5.377   7.554 -0.5045 -3.8139  0.8619
  645MOL0     H88972   2.593   5.243   7.773 -1.5714 -2.0220 -1.1186
  645MOL0     H88973   2.360   5.173   7.701 -0.8053  0.7448  2.3109
  645MOL0     H88974   2.096   5.477   7.488  0.3847 -3.1145 -0.9713
  645MOL0     H88975   1.972   5.384   7.539 -0.7037 -0.5353  1.6969
  645MOL0     H88976   2.104   5.583   7.727 -1.0470  0.2386 -1.3018
  645MOL0     H88977   1.956   5.602   7.648  0.3785  1.6284  0.7789
  645MOL0     H88978   1.865   5.418   7.772  1.0547 -2.1561  0.1397
  645MOL0     H88979   1.918   5.544   7.884 -1.4376 -0.8013  2.2762
  645MOL0     H88980   2.123   5.418   7.923  1.5414 -3.1536  0.9213
  645MOL0     H88981   2.046   5.278   7.832 -0.8930  0.8680 -1.9165
  645MOL0     H88982   1.916   5.404   8.072 -0.5708  0.2136 -1.0917
  645MOL0     H88983   1.862   5.258   7.998  1.0231 -1.1921 -1.4016
  645MOL0     H88984   2.139   5.303   8.116  0.5701 -1.4052  1.3465
  645MOL0     H88985   2.089   5.157   8.023  1.0863 -0.0148 -0.6817
  645MOL0     H88986   1.904   5.121   8.211 -0.6362  0.4087  0.5800
  645MOL0     H88987   1.949   5.268   8.274 -0.2291 -0.7932  0.0569
  645MOL0     H88988   2.184   5.210   8.330 -0.3805  2.5933 -1.8014
  645MOL0     H88989   2.149   5.051   8.277 -2.5514  0.3474 -1.7580
  645MOL0     H88990   2.263   5.565   7.601 -0.4831  1.3580  2.7841
  645MOL0     H88991   2.488   5.641   7.649  3.1895 -1.9965  0.2768
  645MOL0     H88992   2.791   5.362   7.925 -1.5967  1.1715 -3.1408
  645MOL0     H88993   2.957   5.318   8.078  0.2822 -2.4875 -0.2544
  645MOL0     H88994   4.778   4.347   8.202 -0.9399 -0.8492 -0.5805
  645MOL0     H88995   4.902   4.204   8.380  0.9218 -0.2794  0.7279
  645MOL0     H88996   5.062   4.305   8.958 -0.7208  0.6937  4.2522
  645MOL0     H88997   5.069   4.170   9.150  0.8920 -3.4196 -0.3139
  645MOL0     H88998   5.137   3.973   9.233 -2.0572  0.4821 -0.9270
  645MOL0     H88999   5.034   4.039   9.352  3.0048  0.0363  2.4402
  645MOL0     H89000   5.138   3.811   9.439  0.4126  0.7681  1.9774
  645MOL0     H89001   5.076   3.728   9.295  0.0217  0.0921 -0.9778
  645MOL0     H89002   4.906   3.861   9.518  0.3262 -0.5992  1.3545
  645MOL0     H89003   4.834   3.776   9.386  0.1759 -0.0441 -0.8505
  645MOL0     H89004   5.025   3.661   9.596 -1.5444  1.6639  1.2551
  645MOL0     H89005   4.957   3.566   9.461 -0.1168 -0.6727  1.9625
  645MOL0     H89006   4.642   3.565   9.732 -0.5191  0.2595 -0.2625
  645MOL0     H89007   4.767   3.918   8.996 -0.8757  0.3341  1.4479
  645MOL0     H89008   4.750   4.000   8.683 -2.1506 -0.9260 -0.4398
  645MOL0     H89009   4.645   3.965   8.822  2.7258 -2.3776 -0.2135
  645MOL0     H89010   4.666   4.132   8.738  1.2124 -0.8858 -3.0922
  646MOL0     O89011   9.793   8.760   9.460 -0.8120  0.9263 -0.3503
  646MOL0     C89012   9.684   8.793   9.428  0.6906 -0.3451 -0.3280
  646MOL0     O89013   9.657   8.912   9.364  0.2577  0.6126 -0.0396
  646MOL0     C89014   9.761   8.978   9.318 -0.3930 -0.0151  0.5859
  646MOL0     C89015   9.873   8.923   9.250 -0.1839  0.4909 -0.0572
  646MOL0     C89016   9.972   9.001   9.186  0.0882 -0.1727 -0.0055
  646MOL0     C89017   9.954   9.144   9.185 -0.0392  0.1288  0.7355
  646MOL0     O89018  10.045   9.210   9.112 -1.0652  0.2132 -0.2085
  646MOL0     C89019   9.986   9.306   9.025  0.9119  0.8542  0.5575
  646MOL0     C89020  10.092   9.330   8.913  0.7241 -1.1676  0.2041
  646MOL0     C89021  10.039   9.432   8.814  0.3563  0.0291  0.8165
  646MOL0     C89022  10.146   9.452   8.712  0.5338 -0.3307  0.1715
  646MOL0     C89023  10.120   9.577   8.617 -0.1186 -0.2570  0.0672
  646MOL0     C89024  10.146   9.707   8.688 -0.0922 -0.3736  0.2154
  646MOL0     C89025  10.166   9.828   8.591 -0.2891 -0.3942  0.3074
  646MOL0     C89026  10.170   9.959   8.672 -0.0533  0.3974 -0.4824
  646MOL0     N89027  10.212  10.081   8.595 -0.2046  0.0471 -0.3981
  646MOL0     C89028  10.298  10.071   8.492 -0.7029  0.4387  0.4492
  646MOL0     C89029  10.303  10.202   8.437  0.6005 -0.3144  0.2025
  646MOL0     C89030  10.379  10.241   8.311 -0.6448  0.2777  0.2924
  646MOL0     C89031  10.489  10.352   8.341  0.2758  0.5573  0.7613
  646MOL0     C89032  10.551  10.432   8.226 -0.1495  0.4643  0.5327
  646MOL0     C89033  10.687  10.486   8.259  0.1723 -0.6867  0.2794
  646MOL0     O89034  10.667  10.600   8.342 -0.5782  0.6328 -0.5873
  646MOL0     C89035  10.760  10.700   8.353  0.3383  0.7735  0.5041
  646MOL0     C89036  10.889  10.706   8.298  0.4889 -0.0392  0.3548
  646MOL0     C89037  10.985  10.808   8.328 -0.0329  0.4145  0.2142
  646MOL0     C89038  11.117  10.795   8.254  0.0817 -0.1387 -0.1576
  646MOL0     C89039  10.943  10.917   8.405 -0.4637 -0.4492 -0.0491
  646MOL0     C89040  11.023  11.041   8.440  0.5053 -0.6068  0.3861
  646MOL0     O89041  10.970  11.151   8.498 -0.9340 -0.7129  0.3558
  646MOL0     C89042  11.047  11.267   8.518  0.9619 -1.0033 -0.5018
  646MOL0     C89043  11.016  11.346   8.630  0.2408 -0.2518  0.5647
  646MOL0     C89044  11.072  11.471   8.654  0.0413  0.1397 -0.1896
  646MOL0     C89045  11.164  11.520   8.559 -0.2696 -0.1483 -0.0401
  646MOL0     O89046  11.218  11.643   8.569  0.1930 -1.0565  1.3253
  646MOL0     C89047  11.354  11.658   8.540  0.7492 -0.3294 -0.3156
  646MOL0     C89048  11.428  11.645   8.666  0.2636  0.0991  0.1636
  646MOL0     C89049  11.575  11.640   8.657 -0.1579  1.3039  0.7409
  646MOL0     C89050  11.626  11.492   8.652  0.1492  0.0258 -0.3490
  646MOL0     C89051  11.774  11.496   8.635 -0.0036 -0.5703 -0.1437
  646MOL0     C89052  11.836  11.367   8.610  0.2479 -0.3678 -0.2762
  646MOL0     C89053  11.820  11.271   8.718  0.2932 -0.5994 -0.7145
  646MOL0     C89054  11.905  11.324   8.834  0.5741  0.5922  0.4675
  646MOL0    Cl89055  12.071  11.293   8.812  0.4423 -0.4200 -0.4949
  646MOL0     C89056  11.184  11.444   8.448  0.4520 -0.0629  0.5211
  646MOL0     C89057  11.132  11.317   8.432  0.0736 -0.3253 -0.0199
  646MOL0     O89058  11.143  11.030   8.421  0.3728  0.0318 -0.5669
  646MOL0     C89059  10.811  10.914   8.454 -0.7821  0.5759  1.0405
  646MOL0     C89060  10.725  10.802   8.437 -0.0306 -0.7364  0.0623
  646MOL0     N89061  10.215  10.281   8.524 -0.0997  0.2493 -0.0021
  646MOL0     N89062  10.154  10.204   8.601  0.3944 -0.0660 -0.6878
  646MOL0     C89063   9.839   9.196   9.247  0.1965 -0.5165  0.3018
  646MOL0     C89064   9.749   9.111   9.310 -0.0325 -0.1710  0.9815
  646MOL0     C89065   9.560   8.712   9.466 -0.5009 -0.9486  1.0002
  646MOL0     C89066   9.442   8.744   9.380 -0.7337  1.0345 -0.6451
  646MOL0     C89067   9.330   8.655   9.400  0.3719 -0.1075 -0.1265
  646MOL0     C89068   9.327   8.554   9.497  1.0867 -0.6961 -0.7029
  646MOL0     O89069   9.208   8.495   9.526 -0.3667  0.8328 -0.2547
  646MOL0     C89070   9.206   8.359   9.553 -0.0472  0.1820 -0.1792
  646MOL0     C89071   9.139   8.308   9.681 -0.3112 -0.4141  0.5939
  646MOL0     C89072   9.138   8.156   9.707 -0.1555 -0.2864 -0.1436
  646MOL0     C89073   9.018   8.119   9.791  0.1658  0.4181  0.1062
  646MOL0     C89074   8.892   8.165   9.738  0.9157  0.0233 -0.8283
  646MOL0     C89075   8.795   8.221   9.687  0.5435 -0.0039 -0.4230
  646MOL0     C89076   9.434   8.544   9.584 -0.2756  1.5968 -0.1900
  646MOL0     C89077   9.556   8.620   9.569  1.0288 -0.5873 -0.3142
  646MOL0     C89078   9.666   8.594   9.673  0.0925  0.6706 -0.1458
  646MOL0     H89079   9.894   8.817   9.249  1.4250  0.7739  0.8405
  646MOL0     H89080  10.057   8.951   9.141  0.8515  1.6909 -0.7560
  646MOL0     H89081   9.958   9.400   9.071 -1.1246  0.6787 -0.2042
  646MOL0     H89082   9.898   9.257   8.979  3.2043 -1.4923 -1.7358
  646MOL0     H89083  10.177   9.371   8.970  0.3178 -3.4516  2.6673
  646MOL0     H89084  10.126   9.242   8.857  1.9204  0.3587 -1.5958
  646MOL0     H89085   9.951   9.389   8.765  1.3700  0.3698 -1.3958
  646MOL0     H89086  10.023   9.530   8.860  1.7381  0.1196  1.1481
  646MOL0     H89087  10.245   9.452   8.759  1.4044 -1.5337 -1.5754
  646MOL0     H89088  10.149   9.367   8.644  1.4243  0.0380 -0.2657
  646MOL0     H89089  10.018   9.571   8.577 -1.4199 -1.8682  3.2826
  646MOL0     H89090  10.190   9.559   8.535 -0.6313 -1.7382 -0.0653
  646MOL0     H89091  10.065   9.733   8.757  2.7920  1.9981  3.0435
  646MOL0     H89092  10.228   9.683   8.757 -0.7217  2.7631  2.2880
  646MOL0     H89093  10.082   9.835   8.521  0.5523  1.3238 -0.5984
  646MOL0     H89094  10.257   9.796   8.539  0.0255 -1.8220  1.6644
  646MOL0     H89095  10.072   9.972   8.721 -0.3443  2.4896 -1.5014
  646MOL0     H89096  10.252   9.948   8.743 -1.6679 -1.7765  1.1756
  646MOL0     H89097  10.329   9.986   8.433 -1.9634  1.8030 -2.3455
  646MOL0     H89098  10.306  10.277   8.238  0.1396  1.5698  0.1253
  646MOL0     H89099  10.425  10.156   8.261  1.0890  1.0155  0.5780
  646MOL0     H89100  10.453  10.413   8.424 -0.0306  2.3537 -0.6453
  646MOL0     H89101  10.568  10.298   8.394 -1.0542  1.5807  4.0552
  646MOL0     H89102  10.579  10.368   8.142  4.0281  2.3872  0.2503
  646MOL0     H89103  10.473  10.499   8.188  0.6342 -1.4259 -5.5046
  646MOL0     H89104  10.746  10.413   8.315  2.4391  1.2099  0.4708
  646MOL0     H89105  10.739  10.527   8.172  0.4174  0.6308  1.0222
  646MOL0     H89106  10.921  10.628   8.228 -4.9648 -1.6905 -0.8236
  646MOL0     H89107  11.132  10.700   8.201  0.8614 -0.0825 -0.0409
  646MOL0     H89108  11.206  10.811   8.314  0.2494  1.7354 -0.8463
  646MOL0     H89109  11.120  10.876   8.181  2.9389  2.4555  2.5566
  646MOL0     H89110  10.938  11.310   8.697 -0.9919  0.7614 -0.2738
  646MOL0     H89111  11.031  11.522   8.740 -2.5475  1.1109 -1.8848
  646MOL0     H89112  11.392  11.590   8.463 -0.4145 -1.5402  0.1299
  646MOL0     H89113  11.373  11.759   8.503  0.6051  0.2955  1.2412
  646MOL0     H89114  11.402  11.736   8.721  2.1352 -0.4754  2.1563
  646MOL0     H89115  11.395  11.557   8.723  0.8277  0.4136  0.9993
  646MOL0     H89116  11.613  11.697   8.743  0.4402  3.2368 -0.7205
  646MOL0     H89117  11.606  11.698   8.569  0.3575 -0.6752 -0.4509
  646MOL0     H89118  11.570  11.440   8.574 -0.7264  1.8683 -1.0255
  646MOL0     H89119  11.595  11.450   8.748 -1.7089  0.4610 -0.7063
  646MOL0     H89120  11.806  11.553   8.547 -0.2872 -0.8998 -0.4647
  646MOL0     H89121  11.810  11.552   8.722  0.5706 -0.4435 -0.4595
  646MOL0     H89122  11.937  11.405   8.594  0.2595  0.4474  1.5191
  646MOL0     H89123  11.794  11.327   8.517 -3.2648 -0.6075  1.2473
  646MOL0     H89124  11.854  11.174   8.680 -3.4243 -1.5685 -2.0657
  646MOL0     H89125  11.717  11.267   8.755 -0.0680 -2.1332 -1.7822
  646MOL0     H89126  11.885  11.249   8.910 -1.2140 -2.0750 -2.4135
  646MOL0     H89127  11.876  11.423   8.872 -0.2659  0.7819 -0.6323
  646MOL0     H89128  11.255  11.484   8.377  0.8204  1.8209  1.8733
  646MOL0     H89129  11.149  11.264   8.339 -0.3328  1.6035 -1.2514
  646MOL0     H89130  10.785  10.993   8.522 -0.9086  2.0154 -0.6076
  646MOL0     H89131  10.633  10.791   8.493  0.1320 -2.0984  0.1118
  646MOL0     H89132   9.826   9.304   9.248  2.3170 -0.1455  3.9727
  646MOL0     H89133   9.670   9.176   9.346  1.9587  1.4435  2.7065
  646MOL0     H89134   9.425   8.813   9.297 -1.3573 -0.4175 -1.7733
  646MOL0     H89135   9.245   8.680   9.337 -0.1362  2.5827  1.4657
  646MOL0     H89136   9.146   8.303   9.480  0.1170 -2.5666  1.6461
  646MOL0     H89137   9.305   8.312   9.552  1.6305  3.4652 -0.6185
  646MOL0     H89138   9.041   8.357   9.681 -0.0156  0.6090  4.8744
  646MOL0     H89139   9.194   8.354   9.765  1.5580  0.0770 -0.8243
  646MOL0     H89140   9.148   8.086   9.623 -0.0628 -0.0433 -0.3374
  646MOL0     H89141   9.228   8.143   9.768  2.1580  0.4156 -3.1669
  646MOL0     H89142   9.037   8.162   9.890 -0.4656  0.2749  0.2923
  646MOL0     H89143   9.008   8.011   9.803 -2.1226  0.5021 -0.5766
  646MOL0     H89144   8.704   8.261   9.647 -0.5038  0.0458  1.8326
  646MOL0     H89145   9.421   8.470   9.662 -1.8018 -0.8108 -2.5611
  646MOL0     H89146   9.632   8.572   9.775  1.5444  1.4049  0.5328
  646MOL0     H89147   9.727   8.509   9.640  1.6340  1.3005  0.9530
  646MOL0     H89148   9.742   8.673   9.676 -0.3673  1.2571 -2.3666
  647MOL0     O89149   0.647   8.050   0.224 -0.1396  0.6127 -0.2434
  647MOL0     C89150   0.542   8.068   0.272 -0.0519 -0.2704  0.7822
  647MOL0     O89151   0.442   8.130   0.205  0.6471 -0.4232 -0.6601
  647MOL0     C89152   0.456   8.200   0.091  0.0337 -0.8643 -0.2518
  647MOL0     C89153   0.335   8.231   0.042  0.4116  0.7335 -0.4502
  647MOL0     C89154   0.322   8.291  -0.084 -0.7792 -0.7543 -0.0561
  647MOL0     C89155   0.429   8.336  -0.159  0.7928 -0.2285  0.1239
  647MOL0     O89156   0.409   8.401  -0.286  0.2436 -0.3074  0.1213
  647MOL0     C89157   0.499   8.376  -0.399  0.6794 -0.0989 -0.8628
  647MOL0     C89158   0.616   8.473  -0.419  0.2646  1.2321  0.2560
  647MOL0     C89159   0.569   8.618  -0.421  0.1942  0.8151 -0.6347
  647MOL0     C89160   0.573   8.686  -0.278 -0.4269  0.6432 -0.4305
  647MOL0     C89161   0.489   8.813  -0.275  0.5077  0.3487 -0.9269
  647MOL0     C89162   0.528   8.893  -0.151 -0.1641 -0.1141 -0.3874
  647MOL0     C89163   0.514   8.826  -0.007  0.4281 -0.8695  0.2882
  647MOL0     C89164   0.546   8.936   0.102 -0.1845 -0.5717 -0.8642
  647MOL0     N89165   0.687   8.991   0.104 -0.2210  0.1598 -1.1344
  647MOL0     C89166   0.787   8.948   0.182  0.3050 -0.0249 -0.0022
  647MOL0     C89167   0.868   9.045   0.196 -0.6800  0.6472 -0.0273
  647MOL0     C89168   1.002   9.032   0.268  0.5744  0.3176  0.2118
  647MOL0     C89169   1.033   9.157   0.347 -0.1198 -0.6567  0.4182
  647MOL0     C89170   0.940   9.197   0.466 -0.3569  0.6563 -0.0164
  647MOL0     C89171   1.016   9.307   0.549 -0.3626  0.8800  1.2240
  647MOL0     O89172   1.107   9.240   0.633 -0.1790 -0.1333 -0.3198
  647MOL0     C89173   1.191   9.300   0.723  0.2176 -0.8064  0.4350
  647MOL0     C89174   1.237   9.435   0.711 -1.0025  0.4568  0.4039
  647MOL0     C89175   1.325   9.485   0.804 -0.9707 -0.4153 -0.1894
  647MOL0     C89176   1.382   9.625   0.791 -0.2676 -0.4180 -0.2740
  647MOL0     C89177   1.359   9.410   0.922 -0.2604  0.2207 -0.0649
  647MOL0     C89178   1.442   9.451   1.049  0.2647  0.3246  0.0272
  647MOL0     O89179   1.508   9.568   1.057  0.6459 -0.8723  0.5385
  647MOL0     C89180   1.605   9.608   1.148  0.0536 -0.3221 -0.5242
  647MOL0     C89181   1.608   9.737   1.198 -0.1595 -0.3423  0.4535
  647MOL0     C89182   1.699   9.775   1.297  0.3597  0.6058  0.4587
  647MOL0     C89183   1.783   9.690   1.364  0.3238  0.4925 -0.2458
  647MOL0     O89184   1.878   9.733   1.452 -0.0256  0.0833 -0.1988
  647MOL0     C89185   1.917   9.644   1.554  0.7957  0.3289  0.4251
  647MOL0     C89186   1.806   9.568   1.626  1.2446 -0.1245 -0.0015
  647MOL0     C89187   1.862   9.454   1.716  0.2937  0.2116  0.3084
  647MOL0     C89188   1.894   9.514   1.854  0.8247  1.4007  0.5550
  647MOL0     C89189   1.935   9.418   1.963  0.4322  0.0969  0.6752
  647MOL0     C89190   2.002   9.474   2.083 -0.8405  0.8614 -0.8710
  647MOL0     C89191   1.920   9.559   2.179  0.2252  0.1955 -0.3038
  647MOL0     C89192   1.993   9.602   2.311 -0.2677 -0.8397 -0.3689
  647MOL0    Cl89193   2.062   9.469   2.411 -0.2175  0.4359  0.1605
  647MOL0     C89194   1.787   9.560   1.312 -0.0438  0.6349  0.3835
  647MOL0     C89195   1.703   9.519   1.209  0.2725  0.6077 -0.0200
  647MOL0     O89196   1.458   9.366   1.134  0.9751 -0.1455 -0.0470
  647MOL0     C89197   1.300   9.283   0.931 -0.6084  0.1109 -0.0758
  647MOL0     C89198   1.226   9.226   0.832  0.0707 -0.0664 -0.4494
  647MOL0     N89199   0.835   9.144   0.114  0.1810  0.0239 -0.5442
  647MOL0     N89200   0.725   9.117   0.054  0.1065 -0.4343 -0.2988
  647MOL0     C89201   0.558   8.310  -0.100 -0.0612  0.7965  0.7698
  647MOL0     C89202   0.569   8.249   0.027  0.3766 -0.5665  0.5428
  647MOL0     C89203   0.511   8.005   0.405 -0.1092 -0.4013  0.3871
  647MOL0     C89204   0.387   8.027   0.467 -0.6358 -0.8785 -0.1511
  647MOL0     C89205   0.350   7.962   0.582  0.5277  0.3462  0.1863
  647MOL0     C89206   0.442   7.878   0.646 -0.8750 -0.1524  0.7342
  647MOL0     O89207   0.393   7.812   0.752  0.0913 -0.1313 -0.3879
  647MOL0     C89208   0.482   7.794   0.865 -0.5482  0.7802 -0.1949
  647MOL0     C89209   0.421   7.849   0.997  0.3492  1.0392  0.1720
  647MOL0     C89210   0.295   7.758   1.037 -0.7503 -0.0829 -1.1391
  647MOL0     C89211   0.308   7.684   1.173 -0.0495  0.7201 -0.1693
  647MOL0     C89212   0.323   7.775   1.288 -0.4337 -0.4209  0.7977
  647MOL0     C89213   0.326   7.843   1.388  0.0378 -0.8902  0.1665
  647MOL0     C89214   0.569   7.859   0.596 -0.1340 -0.2552 -0.3694
  647MOL0     C89215   0.610   7.922   0.475 -1.1535 -0.8103 -0.2519
  647MOL0     C89216   0.745   7.872   0.433 -0.0235 -0.7128 -0.6931
  647MOL0     H89217   0.242   8.211   0.093  0.0879 -0.4530 -1.4527
  647MOL0     H89218   0.227   8.334  -0.116 -0.0052  1.4732  0.4395
  647MOL0     H89219   0.429   8.382  -0.483  0.9193 -1.5274 -1.1879
  647MOL0     H89220   0.533   8.272  -0.403 -0.1780 -0.4780  0.7407
  647MOL0     H89221   0.684   8.468  -0.334  1.1688 -1.5389 -0.5385
  647MOL0     H89222   0.661   8.445  -0.515  0.2482  2.2924 -0.0805
  647MOL0     H89223   0.631   8.679  -0.488  2.1995  1.3536  1.5758
  647MOL0     H89224   0.466   8.619  -0.458  1.0142 -2.8378 -3.5938
  647MOL0     H89225   0.536   8.614  -0.204  1.2011  0.1304 -0.0702
  647MOL0     H89226   0.671   8.710  -0.237 -1.0077  1.9757  0.2179
  647MOL0     H89227   0.386   8.777  -0.268  1.5028 -2.3530  2.3418
  647MOL0     H89228   0.512   8.869  -0.367  2.7833  2.4157  0.7749
  647MOL0     H89229   0.627   8.933  -0.178 -0.4548  1.6016  0.9047
  647MOL0     H89230   0.473   8.988  -0.150  1.1616  0.7897  3.2072
  647MOL0     H89231   0.576   8.736  -0.011  0.1898 -1.0400 -3.3237
  647MOL0     H89232   0.406   8.812  -0.003 -0.1157  1.8278 -1.6697
  647MOL0     H89233   0.482   9.025   0.094 -0.5432 -0.7690 -0.2817
  647MOL0     H89234   0.533   8.888   0.199 -3.7206  0.3183 -0.7340
  647MOL0     H89235   0.789   8.853   0.234 -1.5200  0.6795  1.4620
  647MOL0     H89236   1.078   9.010   0.193  1.3989  6.6498 -1.3812
  647MOL0     H89237   0.996   8.949   0.340 -1.9746  0.6625  0.4907
  647MOL0     H89238   1.133   9.138   0.388  1.9617  5.0309 -1.0580
  647MOL0     H89239   1.052   9.251   0.295  0.0194 -1.2354 -0.6170
  647MOL0     H89240   0.841   9.219   0.425  0.6487  1.2819 -2.2159
  647MOL0     H89241   0.931   9.104   0.523 -3.4958 -0.1671 -1.6249
  647MOL0     H89242   1.072   9.377   0.487  3.0498 -0.3143  2.7612
  647MOL0     H89243   0.940   9.363   0.604  0.1938  3.7947 -0.7512
  647MOL0     H89244   1.211   9.501   0.629  0.3190  2.4555  1.5056
  647MOL0     H89245   1.356   9.700   0.866 -0.4580  0.2610 -1.0147
  647MOL0     H89246   1.358   9.664   0.692  1.5985 -0.5160 -0.8015
  647MOL0     H89247   1.491   9.616   0.788 -0.1553  0.9174 -0.5723
  647MOL0     H89248   1.533   9.802   1.155 -0.9323 -1.6186 -0.1909
  647MOL0     H89249   1.696   9.883   1.309  0.2517  0.7644 -0.9039
  647MOL0     H89250   1.971   9.564   1.503 -2.9893 -1.2839 -1.4689
  647MOL0     H89251   1.971   9.696   1.635 -1.2162  1.3038  1.2159
  647MOL0     H89252   1.745   9.629   1.693 -0.7697 -1.2652 -0.7006
  647MOL0     H89253   1.741   9.517   1.555  0.3900  1.3589 -0.3349
  647MOL0     H89254   1.953   9.415   1.671 -0.4692 -0.6542 -0.5323
  647MOL0     H89255   1.791   9.371   1.714  1.1573 -0.5222 -1.0852
  647MOL0     H89256   1.802   9.558   1.893  0.6070  0.6444  0.9132
  647MOL0     H89257   1.978   9.584   1.849 -0.5392  3.1966  1.5622
  647MOL0     H89258   1.849   9.359   1.992 -0.6780  1.6938  0.7649
  647MOL0     H89259   2.010   9.356   1.913  1.7522  3.3167 -1.7595
  647MOL0     H89260   2.083   9.540   2.053 -0.3668  0.0691 -1.3785
  647MOL0     H89261   2.047   9.390   2.137  1.1721  1.3365 -1.7256
  647MOL0     H89262   1.844   9.483   2.199 -1.1584  1.7134  0.4749
  647MOL0     H89263   1.875   9.649   2.134  0.5850 -0.1293 -1.3523
  647MOL0     H89264   1.921   9.642   2.383 -0.2263 -3.1817  1.0992
  647MOL0     H89265   2.077   9.663   2.279  0.7687 -0.3958  2.8898
  647MOL0     H89266   1.860   9.484   1.339 -0.7818 -0.9925 -1.8687
  647MOL0     H89267   1.699   9.419   1.169  1.1823  0.6750 -0.3229
  647MOL0     H89268   1.318   9.217   1.015 -4.0280  0.4415  1.0417
  647MOL0     H89269   1.192   9.128   0.864  0.4321 -0.0836 -0.1094
  647MOL0     H89270   0.638   8.352  -0.161  1.1010 -3.1135 -0.6779
  647MOL0     H89271   0.666   8.231   0.073  0.4970  0.0027  0.5173
  647MOL0     H89272   0.313   8.088   0.415  1.3949 -0.2722 -2.5443
  647MOL0     H89273   0.251   7.976   0.624  0.5494  1.0056  0.0258
  647MOL0     H89274   0.504   7.691   0.894  1.1559  1.1710 -0.0256
  647MOL0     H89275   0.574   7.852   0.861 -0.3090  0.4410  0.2442
  647MOL0     H89276   0.387   7.953   0.985 -0.1357  1.0518  1.4997
  647MOL0     H89277   0.502   7.843   1.069  2.2917 -3.4625 -1.9958
  647MOL0     H89278   0.211   7.827   1.046 -1.9278 -1.4581 -1.3007
  647MOL0     H89279   0.261   7.690   0.958  0.2684 -0.4829 -1.2499
  647MOL0     H89280   0.392   7.615   1.162  1.2104  2.2013 -0.0808
  647MOL0     H89281   0.214   7.629   1.182 -0.2731  1.0240 -0.5784
  647MOL0     H89282   0.317   7.895   1.481 -1.0187  1.0360 -0.9440
  647MOL0     H89283   0.635   7.791   0.648  1.0969  1.4844  0.4537
  647MOL0     H89284   0.725   7.818   0.340 -0.6112  0.8625 -1.5198
  647MOL0     H89285   0.812   7.958   0.426  0.7877 -1.2964 -0.2859
  647MOL0     H89286   0.800   7.803   0.498  4.1636 -2.9258 -5.8284
  648MOL0     O89287   9.893   6.054   0.981  0.0217 -0.5420  0.8043
  648MOL0     C89288   9.891   6.076   0.857  0.5663 -0.0896 -0.7265
  648MOL0     O89289   9.996   6.053   0.772  0.3910 -0.2642 -0.1215
  648MOL0     C89290  10.124   6.077   0.821  1.0453 -0.3903 -0.6610
  648MOL0     C89291  10.226   6.004   0.760  0.0498 -0.3226 -0.1795
  648MOL0     C89292  10.359   6.000   0.809 -0.1468 -0.2361  0.6390
  648MOL0     C89293  10.397   6.097   0.905 -0.4870 -0.5822  0.0841
  648MOL0     O89294  10.526   6.128   0.943  0.0182 -1.0168 -0.2800
  648MOL0     C89295  10.633   6.054   0.893 -0.7743 -0.2632 -0.0479
  648MOL0     C89296  10.654   5.942   0.996 -0.4610 -0.6928  0.3525
  648MOL0     C89297  10.792   5.882   0.973 -1.2367  0.1270 -0.1863
  648MOL0     C89298  10.897   5.941   1.058 -0.3497  0.8748  0.1701
  648MOL0     C89299  11.036   5.879   1.035 -0.4444  0.5889  0.0218
  648MOL0     C89300  11.152   5.941   1.100  0.3512  0.2798 -0.2185
  648MOL0     C89301  11.197   6.071   1.025 -0.0174 -0.8251  0.3494
  648MOL0     C89302  11.263   6.042   0.889  0.3855  0.0126  0.0086
  648MOL0     N89303  11.355   5.926   0.886 -0.4676 -0.1337 -0.4023
  648MOL0     C89304  11.474   5.926   0.953  0.1975 -0.7846 -0.5366
  648MOL0     C89305  11.530   5.812   0.909 -0.1984 -0.5168 -0.0029
  648MOL0     C89306  11.660   5.741   0.945 -0.1522  0.4509  0.5021
  648MOL0     C89307  11.724   5.790   1.073 -0.6056 -0.7803 -0.6425
  648MOL0     C89308  11.807   5.679   1.131 -0.6876  0.2818  0.0926
  648MOL0     C89309  11.928   5.646   1.046 -0.5281  0.7678  0.2423
  648MOL0     O89310  12.007   5.764   1.007 -0.0585  0.0443  0.0142
  648MOL0     C89311  12.104   5.809   1.098 -0.3947 -0.2523  0.7705
  648MOL0     C89312  12.175   5.732   1.196 -0.1550 -0.1180  0.6664
  648MOL0     C89313  12.271   5.789   1.278  0.1102  0.5509  1.0953
  648MOL0     C89314  12.337   5.698   1.382  0.3997  0.4172 -0.6538
  648MOL0     C89315  12.319   5.917   1.254  0.2924 -1.6699 -0.5051
  648MOL0     C89316  12.434   5.974   1.331  0.1789  0.3440 -0.9402
  648MOL0     O89317  12.510   6.066   1.258 -0.8213 -0.1708  0.3728
  648MOL0     C89318  12.635   6.110   1.291  0.0441  0.5008  0.4178
  648MOL0     C89319  12.717   6.025   1.373 -1.2215 -0.1235 -0.9159
  648MOL0     C89320  12.834   6.085   1.424 -0.3534 -0.1971 -0.3671
  648MOL0     C89321  12.886   6.200   1.366  0.3204 -0.1953 -1.2570
  648MOL0     O89322  13.007   6.258   1.414 -0.2849  0.3534  0.9764
  648MOL0     C89323  13.052   6.392   1.375  0.0273  0.3710 -0.2582
  648MOL0     C89324  13.190   6.408   1.428  0.8165  0.4497 -0.1394
  648MOL0     C89325  13.300   6.323   1.376 -0.2224  0.0652 -0.1344
  648MOL0     C89326  13.369   6.379   1.248 -0.0273  0.4467 -0.2348
  648MOL0     C89327  13.468   6.284   1.181 -1.3971 -0.7106 -0.3771
  648MOL0     C89328  13.569   6.216   1.274 -0.6110  1.0518 -0.8667
  648MOL0     C89329  13.694   6.305   1.315  1.1432 -0.4729 -0.7054
  648MOL0     C89330  13.802   6.272   1.209 -0.4771 -0.9531 -0.1613
  648MOL0    Cl89331  13.935   6.399   1.219  0.1036 -0.3781  0.5901
  648MOL0     C89332  12.801   6.277   1.278 -0.7857 -0.7086 -0.4666
  648MOL0     C89333  12.673   6.227   1.247 -0.1852 -0.1389  0.3490
  648MOL0     O89334  12.444   5.948   1.449 -0.6064  0.5450  0.6851
  648MOL0     C89335  12.265   5.991   1.150  0.1635 -0.2308 -0.4142
  648MOL0     C89336  12.162   5.934   1.065  0.3226 -0.5264 -0.0775
  648MOL0     N89337  11.449   5.753   0.818 -0.2641 -0.3961 -0.5452
  648MOL0     N89338  11.348   5.830   0.792  0.7761  0.4239 -0.0946
  648MOL0     C89339  10.287   6.183   0.953 -0.1875  0.4227 -0.1176
  648MOL0     C89340  10.156   6.176   0.914 -0.5428 -0.7308  1.1883
  648MOL0     C89341   9.748   6.094   0.803 -0.6716 -0.8517 -0.3112
  648MOL0     C89342   9.669   5.981   0.801 -0.3972  0.0336 -0.0650
  648MOL0     C89343   9.546   5.996   0.741  1.0704  0.8240  0.2391
  648MOL0     C89344   9.500   6.109   0.674 -0.2983 -0.0440 -1.0727
  648MOL0     O89345   9.397   6.112   0.581 -0.1762 -0.4681  0.2309
  648MOL0     C89346   9.277   6.185   0.622 -0.7868  0.5229  1.1337
  648MOL0     C89347   9.156   6.163   0.534  0.0212  0.5773 -0.5787
  648MOL0     C89348   9.147   6.247   0.402 -0.7977  0.9095 -0.0265
  648MOL0     C89349   9.274   6.233   0.321 -0.8807 -1.0221 -0.7418
  648MOL0     C89350   9.233   6.237   0.175 -0.2499  0.7753  0.2890
  648MOL0     C89351   9.204   6.247   0.059  0.0577 -0.7771 -0.6928
  648MOL0     C89352   9.589   6.221   0.679 -0.7170 -0.0449  0.3458
  648MOL0     C89353   9.705   6.220   0.751 -0.0350 -0.4436 -0.4096
  648MOL0     C89354   9.775   6.349   0.783  0.5249  0.3118 -0.6061
  648MOL0     H89355  10.203   5.949   0.669  1.9995 -1.5254 -0.0096
  648MOL0     H89356  10.431   5.947   0.748  1.9509  1.8575  1.1132
  648MOL0     H89357  10.719   6.122   0.885 -1.5054  1.0012  2.0853
  648MOL0     H89358  10.600   6.030   0.791 -3.5447 -0.0731  0.7293
  648MOL0     H89359  10.659   5.977   1.100 -1.8112 -0.8666  0.5007
  648MOL0     H89360  10.576   5.866   0.988  0.6288 -1.8223  0.1632
  648MOL0     H89361  10.793   5.775   0.999  1.7326  0.1032 -0.0370
  648MOL0     H89362  10.811   5.881   0.865  0.0323  1.9107 -0.0113
  648MOL0     H89363  10.908   6.050   1.049 -1.1329  0.9937  0.5770
  648MOL0     H89364  10.872   5.938   1.164  1.0927 -1.5797  0.5099
  648MOL0     H89365  11.066   5.873   0.930 -1.2646  2.0937 -0.3354
  648MOL0     H89366  11.048   5.777   1.073  2.0069  0.2610 -1.4315
  648MOL0     H89367  11.136   5.960   1.207  0.0310  2.5446 -0.6107
  648MOL0     H89368  11.230   5.865   1.091 -2.2580 -2.3860 -1.8974
  648MOL0     H89369  11.279   6.105   1.089 -0.5026  0.5102  0.2894
  648MOL0     H89370  11.125   6.151   1.042  1.2913  0.7242 -1.0700
  648MOL0     H89371  11.186   6.026   0.813  0.2045 -0.4979  0.2913
  648MOL0     H89372  11.323   6.129   0.863 -0.4233  0.3244 -0.8548
  648MOL0     H89373  11.513   5.995   1.027  1.6506 -1.3436 -0.7532
  648MOL0     H89374  11.722   5.747   0.856  0.9964  2.2339  1.3799
  648MOL0     H89375  11.639   5.633   0.942  0.4789  0.3556 -1.3929
  648MOL0     H89376  11.777   5.883   1.051 -2.0874 -0.0009 -1.0542
  648MOL0     H89377  11.644   5.810   1.144  0.4437  0.6366  0.1961
  648MOL0     H89378  11.849   5.710   1.227 -2.7847  0.0517  1.1563
  648MOL0     H89379  11.750   5.586   1.142 -1.7600  0.6195 -2.0194
  648MOL0     H89380  11.994   5.572   1.093 -1.6595 -1.2234 -1.1221
  648MOL0     H89381  11.885   5.599   0.957  1.2695 -3.1972  1.2385
  648MOL0     H89382  12.143   5.630   1.215 -4.2635  0.6839 -0.9224
  648MOL0     H89383  12.298   5.596   1.375 -0.4683  0.7652 -0.9801
  648MOL0     H89384  12.334   5.739   1.484 -3.4942  0.2429 -0.5335
  648MOL0     H89385  12.443   5.682   1.361  0.5303  0.8820 -0.3722
  648MOL0     H89386  12.699   5.925   1.413  2.0050 -1.1496 -1.7372
  648MOL0     H89387  12.891   6.055   1.511 -2.6685  1.3923  1.8589
  648MOL0     H89388  13.064   6.414   1.269 -0.9352  1.3102 -0.1976
  648MOL0     H89389  12.990   6.470   1.421  0.8683  3.6495 -4.0660
  648MOL0     H89390  13.218   6.514   1.420  2.2930  0.4618  3.4882
  648MOL0     H89391  13.180   6.378   1.533 -1.3249  2.1804  0.2279
  648MOL0     H89392  13.281   6.217   1.358 -0.4561 -0.0825  0.9123
  648MOL0     H89393  13.382   6.329   1.449 -0.7859 -1.9881  0.7347
  648MOL0     H89394  13.419   6.476   1.261  0.2862  0.2948 -0.2807
  648MOL0     H89395  13.291   6.409   1.177  1.5877  0.0794 -2.2601
  648MOL0     H89396  13.427   6.201   1.124  2.2896 -2.6688 -0.4977
  648MOL0     H89397  13.524   6.346   1.110 -0.2586  1.9100  2.5788
  648MOL0     H89398  13.618   6.131   1.226 -2.1016 -0.2199 -0.2160
  648MOL0     H89399  13.513   6.177   1.359 -0.3723  0.6223 -0.9030
  648MOL0     H89400  13.737   6.273   1.411 -0.5416 -4.9794 -1.2024
  648MOL0     H89401  13.671   6.412   1.313 -0.4963 -0.7977 -0.9784
  648MOL0     H89402  13.763   6.272   1.107  2.5834 -1.1448 -1.4545
  648MOL0     H89403  13.855   6.179   1.234  0.1485 -0.2859  1.0639
  648MOL0     H89404  12.821   6.382   1.259 -0.2562  0.4473  4.7783
  648MOL0     H89405  12.600   6.290   1.197 -1.4082  0.4999  2.7595
  648MOL0     H89406  12.311   6.084   1.120  4.1052 -2.6438 -2.7226
  648MOL0     H89407  12.118   5.992   0.984 -0.4855 -1.6419 -0.4662
  648MOL0     H89408  10.323   6.262   1.019  1.1872 -1.7119  1.8420
  648MOL0     H89409  10.083   6.247   0.951 -1.5295 -1.5794  0.9053
  648MOL0     H89410   9.694   5.881   0.835 -1.3899  0.0769  0.8751
  648MOL0     H89411   9.476   5.913   0.736  2.0382  0.0797 -2.4037
  648MOL0     H89412   9.238   6.151   0.719  0.6722 -1.3183  1.1436
  648MOL0     H89413   9.294   6.293   0.616 -1.5397  0.7369  2.4994
  648MOL0     H89414   9.067   6.190   0.591  0.3284 -0.4864  0.4530
  648MOL0     H89415   9.152   6.058   0.503  2.6986 -0.0579  0.8712
  648MOL0     H89416   9.069   6.201   0.340  0.6416  1.6253 -2.4965
  648MOL0     H89417   9.128   6.353   0.424 -1.9534  1.1230 -1.8631
  648MOL0     H89418   9.318   6.135   0.341 -1.0070 -1.1632 -1.1545
  648MOL0     H89419   9.343   6.316   0.338 -2.0373 -0.1784 -0.0156
  648MOL0     H89420   9.200   6.256  -0.048  1.8340  4.2633 -0.5638
  648MOL0     H89421   9.554   6.299   0.612  1.6103  1.9076  1.2665
  648MOL0     H89422   9.882   6.327   0.782  0.3231 -0.9809  1.2253
  648MOL0     H89423   9.757   6.421   0.702 -0.8661 -1.3369 -1.8625
  648MOL0     H89424   9.756   6.383   0.885  2.1109  0.1350 -0.2339
  649MOL0     O89425   3.739   9.341   9.994 -1.0313 -0.6819  0.5606
  649MOL0     C89426   3.776   9.442  10.055  0.9077  0.1229 -0.4442
  649MOL0     O89427   3.770   9.574  10.010  0.3732 -0.3890 -0.0682
  649MOL0     C89428   3.715   9.609   9.892 -0.4181 -0.0919  0.4209
  649MOL0     C89429   3.588   9.655   9.871  0.8851  0.3228  0.0916
  649MOL0     C89430   3.546   9.678   9.741  1.0376  0.5479  0.1546
  649MOL0     C89431   3.619   9.667   9.629 -0.0827 -0.1997  1.5862
  649MOL0     O89432   3.580   9.685   9.499 -0.8522  0.1356  0.3415
  649MOL0     C89433   3.437   9.705   9.479 -0.3230  0.6325  0.2268
  649MOL0     C89434   3.403   9.749   9.342 -0.3313  0.1963  0.9291
  649MOL0     C89435   3.426   9.626   9.247 -1.0679 -0.8611  0.3029
  649MOL0     C89436   3.396   9.653   9.097 -0.7623  0.1725 -0.3879
  649MOL0     C89437   3.455   9.538   9.013  0.0249 -1.2951  0.8332
  649MOL0     C89438   3.609   9.540   9.012 -0.0474  1.3222 -0.0891
  649MOL0     C89439   3.681   9.674   8.999  0.4670  0.6695  0.0615
  649MOL0     C89440   3.674   9.720   8.857  0.9109  0.0983  0.2371
  649MOL0     N89441   3.762   9.835   8.841 -0.7207 -0.4111  0.7225
  649MOL0     C89442   3.768   9.957   8.900  0.4897 -0.3176  0.3187
  649MOL0     C89443   3.883  10.012   8.856  0.2724 -0.8148  0.6105
  649MOL0     C89444   3.943  10.141   8.907 -1.5038 -0.7376  0.9058
  649MOL0     C89445   4.084  10.106   8.968  0.5112 -0.6257 -0.1904
  649MOL0     C89446   4.078  10.010   9.087 -0.2696 -0.0121 -0.6996
  649MOL0     C89447   4.008  10.070   9.202  0.3836 -0.0378  0.1754
  649MOL0     O89448   3.886   9.991   9.199 -0.6340 -0.5593 -0.0626
  649MOL0     C89449   3.809  10.009   9.307 -0.2635 -0.2063  0.3208
  649MOL0     C89450   3.849   9.981   9.436  1.0423  0.1036 -0.8898
  649MOL0     C89451   3.761  10.004   9.544 -0.9320 -0.6961  0.2859
  649MOL0     C89452   3.824   9.983   9.679  0.0567  0.4187 -0.2737
  649MOL0     C89453   3.629  10.045   9.516 -0.6179 -0.0293  0.3518
  649MOL0     C89454   3.527  10.079   9.613  0.3238 -0.9309 -0.6592
  649MOL0     O89455   3.563  10.119   9.741  0.0886 -0.6170  1.1034
  649MOL0     C89456   3.481  10.087   9.845 -0.6359 -0.3777 -0.2049
  649MOL0     C89457   3.445  10.202   9.926 -0.0933 -0.3089 -0.5470
  649MOL0     C89458   3.358  10.184  10.040 -0.2564  0.0643  0.2944
  649MOL0     C89459   3.310  10.053  10.065  0.3284  0.1983  0.2201
  649MOL0     O89460   3.221  10.027  10.169 -0.0321 -0.6129 -0.2983
  649MOL0     C89461   3.251   9.909  10.245 -0.8247  0.4757  0.6298
  649MOL0     C89462   3.368   9.920  10.340  1.2692 -0.6588  0.5744
  649MOL0     C89463   3.358   9.823  10.444 -0.0582  0.2686 -0.2576
  649MOL0     C89464   3.480   9.746  10.483  0.3309 -0.6127  0.0138
  649MOL0     C89465   3.582   9.836  10.547 -0.2403  0.1501  0.4907
  649MOL0     C89466   3.543   9.907  10.677  0.3608  0.7965 -0.5284
  649MOL0     C89467   3.640  10.029  10.700 -0.1601  0.1091 -0.5147
  649MOL0     C89468   3.622  10.089  10.839 -0.3174 -0.2605  0.9691
  649MOL0    Cl89469   3.606   9.975  10.985 -0.2684  0.0427  0.5675
  649MOL0     C89470   3.332   9.952   9.971 -0.0209 -0.3923 -0.0572
  649MOL0     C89471   3.425   9.964   9.875  0.3923 -0.7112 -0.4478
  649MOL0     O89472   3.410  10.043   9.593  0.0149  0.7759 -0.0694
  649MOL0     C89473   3.588  10.051   9.383  0.5388  0.2320 -0.3784
  649MOL0     C89474   3.673  10.037   9.280 -0.8058 -1.1320  0.3274
  649MOL0     N89475   3.947   9.938   8.762 -0.3129 -0.5591 -1.2518
  649MOL0     N89476   3.868   9.834   8.747  0.1926  0.0289 -0.1969
  649MOL0     C89477   3.753   9.642   9.647  0.0170  0.1939 -0.5958
  649MOL0     C89478   3.799   9.606   9.781 -0.0872 -0.4382 -0.2695
  649MOL0     C89479   3.815   9.430  10.199 -0.1503 -0.4235 -0.1000
  649MOL0     C89480   3.814   9.543  10.286  0.3918  0.0364  0.6821
  649MOL0     C89481   3.854   9.534  10.421  1.4103  0.5720 -0.6877
  649MOL0     C89482   3.904   9.418  10.480  0.3472 -0.7044  0.2305
  649MOL0     O89483   3.960   9.403  10.612  0.6397  0.3369  0.1680
  649MOL0     C89484   4.036   9.510  10.678  0.1731  1.1103  0.0774
  649MOL0     C89485   4.167   9.534  10.602 -0.6772  1.4033  1.2401
  649MOL0     C89486   4.254   9.402  10.569  0.4582 -0.4179 -0.4125
  649MOL0     C89487   4.350   9.443  10.471  0.0930  0.2373  0.4067
  649MOL0     C89488   4.466   9.353  10.465 -1.0972  1.2096 -0.0842
  649MOL0     C89489   4.544   9.260  10.484 -0.4071  0.5485  0.3155
  649MOL0     C89490   3.909   9.317  10.395 -0.0030 -0.3058  0.5654
  649MOL0     C89491   3.873   9.313  10.253  0.3904  0.4817 -0.4885
  649MOL0     C89492   3.895   9.178  10.175 -0.1100 -0.5674 -0.0100
  649MOL0     H89493   3.520   9.666   9.954  3.0200 -2.6643  2.4723
  649MOL0     H89494   3.441   9.704   9.735  1.6436  2.9622 -2.1658
  649MOL0     H89495   3.396   9.777   9.550 -1.8163 -1.6158  1.7718
  649MOL0     H89496   3.386   9.615   9.515  2.3287 -0.0770  2.6331
  649MOL0     H89497   3.298   9.781   9.336 -0.2002  0.5810  0.6592
  649MOL0     H89498   3.471   9.830   9.316 -1.5047  2.3224  3.8890
  649MOL0     H89499   3.529   9.592   9.266 -1.7112 -1.0154  4.3198
  649MOL0     H89500   3.372   9.534   9.273 -0.8698 -1.9488 -2.6665
  649MOL0     H89501   3.288   9.659   9.083 -0.8805  0.2208  0.4941
  649MOL0     H89502   3.440   9.744   9.055 -1.5524  0.0542 -1.5021
  649MOL0     H89503   3.420   9.554   8.910 -1.4905 -2.5650  1.1205
  649MOL0     H89504   3.427   9.438   9.047 -0.6985 -2.1203 -1.9125
  649MOL0     H89505   3.643   9.496   9.106 -0.4368  1.6051  0.1830
  649MOL0     H89506   3.641   9.469   8.935 -1.3595 -1.2121  1.5462
  649MOL0     H89507   3.787   9.655   9.020  1.2202  0.5129 -3.3246
  649MOL0     H89508   3.657   9.752   9.071 -0.3668 -0.5627  1.1565
  649MOL0     H89509   3.713   9.633   8.803  2.1893  0.6549  0.2354
  649MOL0     H89510   3.574   9.746   8.822  2.4027  5.8283 -0.7332
  649MOL0     H89511   3.712   9.989   8.988  1.1365 -1.1183  1.0463
  649MOL0     H89512   3.877  10.188   8.980 -5.3333 -2.1717 -1.3101
  649MOL0     H89513   3.957  10.214   8.827  1.6306  0.7609  2.6358
  649MOL0     H89514   4.146  10.051   8.896 -1.1865 -0.1074 -2.1599
  649MOL0     H89515   4.136  10.199   8.989 -0.7529  0.4263 -1.4806
  649MOL0     H89516   4.040   9.913   9.053  0.4616 -0.0322 -1.4634
  649MOL0     H89517   4.177   9.986   9.127  1.3065  3.7693 -1.9551
  649MOL0     H89518   4.075  10.052   9.286  1.1376 -0.2778 -0.4652
  649MOL0     H89519   3.983  10.177   9.200  1.1991  0.1463 -0.7754
  649MOL0     H89520   3.952   9.952   9.460  0.9851  1.1668  0.8095
  649MOL0     H89521   3.891   9.897   9.680  0.1757  0.5066  0.6210
  649MOL0     H89522   3.748   9.970   9.757  1.4554  1.4035  1.3093
  649MOL0     H89523   3.871  10.077   9.709 -1.0713  0.5423  1.2175
  649MOL0     H89524   3.480  10.302   9.901  0.3644  0.0691  1.4140
  649MOL0     H89525   3.315  10.266  10.098 -1.6249  0.1775 -0.8181
  649MOL0     H89526   3.163   9.907  10.311 -0.6370  3.2331  1.0716
  649MOL0     H89527   3.262   9.819  10.184 -1.9047  1.1459 -0.6265
  649MOL0     H89528   3.467   9.921  10.295  1.2331  0.5758  0.4947
  649MOL0     H89529   3.370  10.022  10.380 -0.3181 -1.3824  2.6889
  649MOL0     H89530   3.294   9.741  10.412  0.0545 -0.8161  2.0942
  649MOL0     H89531   3.309   9.863  10.534 -1.3457  1.0893 -1.2897
  649MOL0     H89532   3.523   9.691  10.398  1.3796  0.2941 -0.0550
  649MOL0     H89533   3.445   9.670  10.554  0.7964 -0.9500 -0.1115
  649MOL0     H89534   3.663   9.763  10.562 -0.9814 -1.1861 -1.6363
  649MOL0     H89535   3.607   9.917  10.478  1.1076  0.3927  1.2271
  649MOL0     H89536   3.554   9.838  10.761  0.7576  1.2705 -0.1883
  649MOL0     H89537   3.438   9.938  10.678  1.0199  3.3278 -1.8945
  649MOL0     H89538   3.626  10.101  10.618 -0.1535 -0.0434 -0.6501
  649MOL0     H89539   3.745  10.000  10.696 -0.0023  0.7214 -2.7191
  649MOL0     H89540   3.532  10.151  10.836  0.4749  0.8635 -0.3885
  649MOL0     H89541   3.710  10.148  10.868 -1.5734  2.6638 -0.8077
  649MOL0     H89542   3.277   9.859   9.976 -0.6836 -0.0684 -1.0763
  649MOL0     H89543   3.437   9.896   9.791  0.9138  0.3324 -1.2407
  649MOL0     H89544   3.489  10.079   9.348  1.0534  0.4490 -1.7325
  649MOL0     H89545   3.646  10.060   9.178 -1.5952  2.3808  1.1870
  649MOL0     H89546   3.832   9.644   9.574  2.9688  2.7346  2.3289
  649MOL0     H89547   3.902   9.576   9.797 -0.6547 -1.8882  0.9088
  649MOL0     H89548   3.775   9.640  10.258 -2.0530 -1.5881 -2.1519
  649MOL0     H89549   3.831   9.623  10.480  1.0850  0.8280 -1.1929
  649MOL0     H89550   3.985   9.603  10.704 -2.1536 -0.4659  1.5487
  649MOL0     H89551   4.059   9.462  10.774 -1.8418 -3.7630 -1.5743
  649MOL0     H89552   4.233   9.598  10.662 -0.4228  2.4090 -0.0843
  649MOL0     H89553   4.144   9.587  10.510  1.9697 -1.0681 -1.0435
  649MOL0     H89554   4.292   9.369  10.666  0.5485 -0.9298 -0.6200
  649MOL0     H89555   4.194   9.318  10.532  1.5663 -2.2432  1.6766
  649MOL0     H89556   4.386   9.540  10.506  0.6597  0.6481 -1.2095
  649MOL0     H89557   4.298   9.456  10.376 -1.9336 -1.6835  1.1713
  649MOL0     H89558   4.628   9.194  10.491 -2.7373 -2.6832  0.1243
  649MOL0     H89559   3.960   9.229  10.432 -2.5841 -2.2604 -0.1752
  649MOL0     H89560   3.969   9.192  10.096 -0.8311  1.2450 -0.3994
  649MOL0     H89561   3.932   9.106  10.250  2.5302 -0.0209 -0.6949
  649MOL0     H89562   3.798   9.135  10.147 -2.5173  2.3815  2.9445
  650MOL0     O89563  10.165   6.246   1.430 -0.0493  0.1171  1.1576
  650MOL0     C89564  10.066   6.316   1.396 -0.2652 -0.2819  0.0677
  650MOL0     O89565   9.939   6.276   1.414 -0.3578  0.2214 -0.1662
  650MOL0     C89566   9.910   6.163   1.487 -0.6741  0.4613 -0.3443
  650MOL0     C89567   9.784   6.172   1.546  0.2944  0.2889 -0.1681
  650MOL0     C89568   9.749   6.066   1.641  0.7939 -0.3728  0.3371
  650MOL0     C89569   9.811   5.949   1.652 -1.2157  0.6277 -1.3775
  650MOL0     O89570   9.764   5.846   1.724  0.4730 -0.8840 -0.1579
  650MOL0     C89571   9.761   5.859   1.869 -0.3885 -0.2420  0.5022
  650MOL0     C89572   9.898   5.872   1.943 -0.6131 -0.4727 -0.5311
  650MOL0     C89573   9.893   5.830   2.094  1.4898  0.2621  0.0096
  650MOL0     C89574  10.025   5.879   2.173  0.0479 -0.6588 -0.3180
  650MOL0     C89575  10.014   5.848   2.326  0.2521  0.0755  0.6534
  650MOL0     C89576   9.910   5.947   2.398  0.6395  0.8534  0.6998
  650MOL0     C89577   9.902   5.928   2.550 -0.1606  0.1062  0.8014
  650MOL0     C89578   9.969   6.036   2.630  0.6830 -0.4307 -0.1696
  650MOL0     N89579  10.104   6.062   2.580 -0.4183  0.3518 -0.5191
  650MOL0     C89580  10.161   6.163   2.508  0.1185  0.0293 -0.5246
  650MOL0     C89581  10.277   6.108   2.461 -0.0618 -0.7287  0.0077
  650MOL0     C89582  10.385   6.178   2.375  0.5225  0.4645 -0.0422
  650MOL0     C89583  10.375   6.144   2.222  0.4904 -0.7688 -0.0568
  650MOL0     C89584  10.381   5.995   2.179 -0.5520 -1.1559 -0.6307
  650MOL0     C89585  10.533   5.936   2.176 -0.0119 -0.6336  0.1386
  650MOL0     O89586  10.549   5.789   2.178 -0.3463 -0.3903  0.4007
  650MOL0     C89587  10.473   5.711   2.092 -0.4289 -1.4131  0.1707
  650MOL0     C89588  10.415   5.591   2.132  0.4493 -0.7984  0.2342
  650MOL0     C89589  10.344   5.508   2.038  0.5845  0.6553  0.2107
  650MOL0     C89590  10.277   5.379   2.092  0.4926 -0.5953  0.5790
  650MOL0     C89591  10.331   5.547   1.905 -0.5329  2.0574  0.0593
  650MOL0     C89592  10.237   5.479   1.815 -0.9650 -0.0160  0.4761
  650MOL0     O89593  10.167   5.552   1.724 -0.7227 -0.4428 -0.1513
  650MOL0     C89594  10.063   5.483   1.677  0.2477 -0.1557 -0.0563
  650MOL0     C89595   9.942   5.490   1.754 -0.1005  0.3015  0.1409
  650MOL0     C89596   9.832   5.417   1.697 -0.5081 -0.1549  0.8356
  650MOL0     C89597   9.835   5.345   1.574 -0.6315 -0.1857  0.7975
  650MOL0     O89598   9.727   5.263   1.557  0.3367 -0.4116 -0.7604
  650MOL0     C89599   9.704   5.194   1.430  0.5854  0.9087 -0.3686
  650MOL0     C89600   9.675   5.300   1.323  0.5016  0.0593  1.1591
  650MOL0     C89601   9.653   5.243   1.184  0.5434  0.7863 -0.1715
  650MOL0     C89602   9.539   5.140   1.176  0.1487  0.4518 -0.2480
  650MOL0     C89603   9.560   5.017   1.099 -0.2304 -0.3617  0.9794
  650MOL0     C89604   9.557   5.043   0.953 -0.0236  0.3856  1.2485
  650MOL0     C89605   9.604   4.917   0.868  0.8921 -0.7067  0.2399
  650MOL0     C89606   9.740   4.934   0.798  0.0956  0.1412 -0.9261
  650MOL0    Cl89607   9.871   4.998   0.897  0.2026  0.0072 -0.4506
  650MOL0     C89608   9.959   5.334   1.508 -0.1350  0.3907 -0.5103
  650MOL0     C89609  10.065   5.407   1.561  0.1414  0.0859  0.3901
  650MOL0     O89610  10.252   5.352   1.811 -0.1774  0.6316  0.4312
  650MOL0     C89611  10.398   5.657   1.859  0.5617  0.7704 -0.4312
  650MOL0     C89612  10.464   5.737   1.954 -0.9398 -0.9725 -1.0326
  650MOL0     N89613  10.286   5.982   2.521  0.5519  0.9775 -0.7960
  650MOL0     N89614  10.194   5.972   2.610 -0.2556  0.0053 -0.4589
  650MOL0     C89615   9.923   5.934   1.571 -0.3750  0.1405 -0.8530
  650MOL0     C89616   9.976   6.040   1.496  0.0069 -0.5537 -0.6345
  650MOL0     C89617  10.101   6.454   1.345  0.4098  0.8104  0.3524
  650MOL0     C89618  10.202   6.527   1.405 -0.5503  0.4712 -0.2799
  650MOL0     C89619  10.243   6.659   1.364  0.1188  0.8315  0.7947
  650MOL0     C89620  10.169   6.720   1.264 -0.8290  0.6981 -0.0125
  650MOL0     O89621  10.194   6.857   1.240  0.0919  0.4363 -0.0308
  650MOL0     C89622  10.085   6.934   1.190  0.1911  0.0236 -0.0071
  650MOL0     C89623  10.111   6.999   1.056 -0.2163  0.1732 -0.7237
  650MOL0     C89624  10.148   6.896   0.945  0.3785  0.1872  0.2987
  650MOL0     C89625  10.015   6.838   0.889  0.1500  0.0555 -0.2367
  650MOL0     C89626  10.039   6.717   0.799  0.2071 -0.8039  0.2085
  650MOL0     C89627  10.061   6.619   0.737 -0.5325 -0.3025 -0.9525
  650MOL0     C89628  10.081   6.643   1.198 -0.0876 -0.1838 -0.4323
  650MOL0     C89629  10.044   6.512   1.231  0.3690  1.1123 -0.1757
  650MOL0     C89630   9.941   6.449   1.144 -0.3942  0.7960 -0.2182
  650MOL0     H89631   9.728   6.264   1.538 -2.3777 -1.1852  0.5506
  650MOL0     H89632   9.659   6.078   1.701 -1.2589 -0.3810 -2.5330
  650MOL0     H89633   9.703   5.778   1.912 -0.7895 -0.4921 -0.4937
  650MOL0     H89634   9.701   5.947   1.897  0.9591  0.5643  0.9745
  650MOL0     H89635   9.967   5.806   1.890  0.1879  0.1324 -0.2720
  650MOL0     H89636   9.921   5.979   1.946 -0.8425 -0.4140 -0.8993
  650MOL0     H89637   9.798   5.873   2.124  1.2747  0.5232 -0.9907
  650MOL0     H89638   9.877   5.722   2.099  1.2281  0.2464 -0.8758
  650MOL0     H89639  10.115   5.836   2.128 -0.0300 -1.8824  0.6335
  650MOL0     H89640  10.027   5.988   2.167  0.0550 -0.5561  1.1384
  650MOL0     H89641  10.114   5.861   2.369 -0.5795 -1.7846  3.4059
  650MOL0     H89642   9.990   5.742   2.335  0.1129 -0.2865 -2.5762
  650MOL0     H89643   9.931   6.050   2.368 -0.1878  0.6766 -0.5872
  650MOL0     H89644   9.814   5.915   2.356  0.3421 -1.7780  3.1117
  650MOL0     H89645   9.948   5.829   2.566 -1.6355 -1.4336 -3.1435
  650MOL0     H89646   9.796   5.922   2.573 -0.4515  0.3351 -0.3982
  650MOL0     H89647   9.914   6.130   2.624  1.4363 -0.0386 -1.0441
  650MOL0     H89648   9.970   6.012   2.737 -2.0289  2.0045  0.5235
  650MOL0     H89649  10.115   6.255   2.474  0.9196  0.5683 -0.1810
  650MOL0     H89650  10.485   6.154   2.411  0.5843 -0.8432 -1.0379
  650MOL0     H89651  10.377   6.287   2.382  0.0308  0.4316 -0.0810
  650MOL0     H89652  10.275   6.184   2.201  0.3026 -0.4713  1.3283
  650MOL0     H89653  10.456   6.201   2.174 -2.0689  1.6075 -1.8932
  650MOL0     H89654  10.328   5.940   2.257 -0.3376  2.3967  2.2996
  650MOL0     H89655  10.339   5.978   2.080  0.0813  0.8878 -1.2937
  650MOL0     H89656  10.585   5.983   2.092 -0.5369 -2.8989 -1.5596
  650MOL0     H89657  10.590   5.972   2.262 -1.0645 -0.1453  0.6563
  650MOL0     H89658  10.433   5.569   2.236 -0.0155 -4.2750 -0.3200
  650MOL0     H89659  10.174   5.386   2.057  1.3531 -1.5541 -2.4948
  650MOL0     H89660  10.275   5.380   2.201 -0.5408 -0.0896  0.5654
  650MOL0     H89661  10.316   5.282   2.059 -1.1993 -0.7960 -0.9885
  650MOL0     H89662   9.942   5.542   1.850  1.1776  1.7442 -0.5888
  650MOL0     H89663   9.738   5.404   1.749 -0.4261 -0.9808  0.8043
  650MOL0     H89664   9.796   5.138   1.410 -0.3499 -0.7046 -0.3603
  650MOL0     H89665   9.625   5.120   1.442  2.9744 -1.9105 -0.6287
  650MOL0     H89666   9.590   5.359   1.358 -0.2166 -2.1216  3.3629
  650MOL0     H89667   9.756   5.374   1.318  0.9070 -0.4389 -2.7928
  650MOL0     H89668   9.744   5.195   1.147  0.7237  1.9058 -1.2420
  650MOL0     H89669   9.633   5.318   1.107  3.2457 -0.5427 -2.3525
  650MOL0     H89670   9.441   5.184   1.156 -0.5232 -0.4704  0.8824
  650MOL0     H89671   9.524   5.101   1.277  3.9146 -0.7411  0.0060
  650MOL0     H89672   9.659   4.971   1.111  1.5612  2.4895 -1.4550
  650MOL0     H89673   9.477   4.950   1.118 -1.8851  0.5465 -2.3189
  650MOL0     H89674   9.614   5.134   0.932 -2.9457  2.0690  0.0013
  650MOL0     H89675   9.455   5.069   0.921  0.6769  0.6053 -0.9927
  650MOL0     H89676   9.517   4.893   0.805 -1.5442  3.2325  1.7155
  650MOL0     H89677   9.615   4.834   0.938 -1.4639  0.6654  2.4085
  650MOL0     H89678   9.725   4.986   0.703  0.2194  4.9075  1.3917
  650MOL0     H89679   9.775   4.831   0.782  1.5568  0.0564  2.1003
  650MOL0     H89680   9.967   5.279   1.415  1.6839 -0.1591 -0.0669
  650MOL0     H89681  10.159   5.413   1.508 -1.7862 -0.3380 -3.4447
  650MOL0     H89682  10.383   5.695   1.758 -1.3774  1.6660  0.1396
  650MOL0     H89683  10.506   5.834   1.931 -0.4547 -0.5205  1.4932
  650MOL0     H89684   9.964   5.833   1.566 -0.7477  0.0298 -1.9904
  650MOL0     H89685  10.068   6.024   1.440  1.5135  1.6399  1.0528
  650MOL0     H89686  10.257   6.473   1.481  0.3670 -3.3520 -3.3194
  650MOL0     H89687  10.323   6.692   1.429 -2.0499  3.7640  2.1861
  650MOL0     H89688   9.991   6.878   1.187  0.8386 -1.4090  3.0975
  650MOL0     H89689  10.076   7.017   1.260 -3.0012 -1.2707  1.3032
  650MOL0     H89690  10.194   7.069   1.072  0.5764 -1.1658  1.5741
  650MOL0     H89691  10.018   7.054   1.038 -1.2377 -1.3570 -0.2860
  650MOL0     H89692  10.205   6.949   0.868 -0.8556  1.0904 -0.0300
  650MOL0     H89693  10.218   6.821   0.982  2.6249  1.7597 -0.5525
  650MOL0     H89694   9.970   6.921   0.834  0.0981 -0.8973 -1.6829
  650MOL0     H89695   9.940   6.822   0.966  0.5483  4.2618  1.2781
  650MOL0     H89696  10.087   6.523   0.697 -3.0702 -1.5463  0.1613
  650MOL0     H89697  10.032   6.690   1.113 -0.1829 -2.9550 -2.0250
  650MOL0     H89698   9.838   6.469   1.173  0.2085 -0.1331  3.0649
  650MOL0     H89699   9.957   6.470   1.038 -1.6010 -4.6669 -1.8099
  650MOL0     H89700   9.950   6.340   1.142 -0.5861  0.7827 -0.3106
  651MOL0     O89701   6.113   7.487   8.453  1.3268 -0.2625 -0.0789
  651MOL0     C89702   6.122   7.611   8.459  0.0380 -0.2883  0.1651
  651MOL0     O89703   6.061   7.685   8.560  0.5490 -0.0115  0.0456
  651MOL0     C89704   5.979   7.621   8.640  1.2087  0.7712 -0.5023
  651MOL0     C89705   6.009   7.584   8.768  0.2749  0.0787  0.3296
  651MOL0     C89706   5.925   7.505   8.845  0.0561 -0.4486 -0.2759
  651MOL0     C89707   5.794   7.469   8.811 -0.9330  1.1937 -0.1646
  651MOL0     O89708   5.708   7.406   8.896  0.5204 -0.2517  0.1748
  651MOL0     C89709   5.708   7.435   9.033  0.4077 -0.6017  1.3475
  651MOL0     C89710   5.654   7.315   9.107  1.0821  0.2166 -0.1994
  651MOL0     C89711   5.753   7.198   9.109  0.0130  0.7503 -0.0446
  651MOL0     C89712   5.705   7.070   9.177 -0.3928  0.2862  0.3567
  651MOL0     C89713   5.827   6.978   9.188 -0.1574 -0.2064  0.0126
  651MOL0     C89714   5.797   6.837   9.242 -0.0604 -0.5705  0.4491
  651MOL0     C89715   5.671   6.761   9.187  0.4793  0.2952  0.5207
  651MOL0     C89716   5.549   6.782   9.270  0.1653  0.1691 -0.2231
  651MOL0     N89717   5.554   6.725   9.401 -0.3244 -0.0039  0.1814
  651MOL0     C89718   5.559   6.798   9.521 -0.2221  0.8942 -0.3875
  651MOL0     C89719   5.536   6.700   9.609 -0.3932 -0.4063  0.6846
  651MOL0     C89720   5.503   6.716   9.754  1.2624  0.1701  1.3398
  651MOL0     C89721   5.375   6.815   9.778 -0.0922  1.4754 -0.0165
  651MOL0     C89722   5.398   6.958   9.731 -0.4381  0.2489 -0.2961
  651MOL0     C89723   5.328   7.053   9.832  0.0957  0.3371  0.0961
  651MOL0     O89724   5.404   7.039   9.957  0.7966 -0.4018 -0.7306
  651MOL0     C89725   5.415   7.163  10.021  0.2814 -0.0304 -0.0812
  651MOL0     C89726   5.531   7.244   9.989 -1.0480  0.7575  0.5091
  651MOL0     C89727   5.561   7.362  10.054 -0.1350  0.2136  0.7439
  651MOL0     C89728   5.702   7.419  10.031  0.8549 -0.5756  0.2131
  651MOL0     C89729   5.475   7.412  10.162  0.4954  0.2550  0.2285
  651MOL0     C89730   5.486   7.542  10.229 -0.4217 -0.4376 -0.4064
  651MOL0     O89731   5.459   7.537  10.358  0.5918  0.3315 -0.2340
  651MOL0     C89732   5.448   7.654  10.437  0.1290  0.1680  0.7269
  651MOL0     C89733   5.417   7.785  10.383 -0.0681 -0.5949 -0.3801
  651MOL0     C89734   5.419   7.896  10.468  1.0639 -0.7480 -0.3346
  651MOL0     C89735   5.439   7.883  10.602  0.2466 -0.0018 -0.7309
  651MOL0     O89736   5.433   8.000  10.678 -0.1910  0.3226 -0.1984
  651MOL0     C89737   5.378   7.991  10.816 -0.0123 -0.0043  0.3744
  651MOL0     C89738   5.400   8.133  10.885  0.8069 -0.7908  0.0041
  651MOL0     C89739   5.312   8.255  10.833 -0.5061  0.2289  0.2499
  651MOL0     C89740   5.384   8.375  10.786  0.4940 -0.1053  0.3245
  651MOL0     C89741   5.467   8.444  10.897 -0.5513 -0.1790 -0.4534
  651MOL0     C89742   5.610   8.489  10.832  0.2369  0.1791 -0.3323
  651MOL0     C89743   5.681   8.575  10.932  0.0574  0.4179  0.2885
  651MOL0     C89744   5.722   8.507  11.058 -0.6090 -0.5927 -1.5430
  651MOL0    Cl89745   5.821   8.603  11.170  0.1525 -0.2653  0.3555
  651MOL0     C89746   5.464   7.754  10.654 -0.6863 -0.3621 -0.7312
  651MOL0     C89747   5.476   7.643  10.576 -0.6663 -0.5459  0.5488
  651MOL0     O89748   5.520   7.639  10.165 -0.4340  0.0675  0.8797
  651MOL0     C89749   5.369   7.329  10.192 -1.0055 -0.5882  0.1244
  651MOL0     C89750   5.341   7.207  10.125 -1.0846 -0.2334  0.3826
  651MOL0     N89751   5.527   6.582   9.550 -0.7104  0.1993 -0.1543
  651MOL0     N89752   5.530   6.595   9.419  0.1881  0.2341 -0.2300
  651MOL0     C89753   5.764   7.500   8.682  0.2163  0.0033 -0.4335
  651MOL0     C89754   5.848   7.583   8.603  0.1367 -0.9713  0.3802
  651MOL0     C89755   6.199   7.687   8.350 -0.2983 -0.3189  0.6255
  651MOL0     C89756   6.151   7.820   8.330 -0.3055  0.3075 -1.9658
  651MOL0     C89757   6.194   7.898   8.225 -1.0581 -0.7117 -0.8871
  651MOL0     C89758   6.283   7.840   8.133  0.3844  0.4194  0.1404
  651MOL0     O89759   6.318   7.915   8.021 -0.4599 -0.1637  0.0220
  651MOL0     C89760   6.391   7.866   7.907 -0.4133  0.5647 -0.0629
  651MOL0     C89761   6.383   7.956   7.786  0.8121 -0.0142  0.1410
  651MOL0     C89762   6.478   7.926   7.675  0.3337  0.2764 -0.6788
  651MOL0     C89763   6.620   7.985   7.694  0.2925  0.0350  0.3059
  651MOL0     C89764   6.691   7.923   7.805  0.0855  0.6689 -0.0122
  651MOL0     C89765   6.749   7.879   7.898  1.4331  0.2455 -0.2160
  651MOL0     C89766   6.337   7.713   8.159 -0.1350  0.1071  0.1020
  651MOL0     C89767   6.298   7.634   8.269 -0.4636 -0.0735  0.1165
  651MOL0     C89768   6.377   7.511   8.309  0.0208  0.7121  0.8065
  651MOL0     H89769   6.103   7.606   8.819  1.8203 -1.0699 -1.8656
  651MOL0     H89770   5.960   7.490   8.947 -1.1126  1.2095  0.4154
  651MOL0     H89771   5.641   7.521   9.036 -0.8963 -1.2858 -2.3638
  651MOL0     H89772   5.806   7.465   9.072  1.7645 -2.2804 -0.5330
  651MOL0     H89773   5.614   7.345   9.204 -0.7569  1.0045 -1.1351
  651MOL0     H89774   5.567   7.278   9.052  1.0323  2.8139 -2.0902
  651MOL0     H89775   5.769   7.182   9.002  4.1675  0.2652  0.4637
  651MOL0     H89776   5.848   7.240   9.144  0.1673  1.5902 -1.3856
  651MOL0     H89777   5.659   7.086   9.275 -0.4030  0.6068  0.3008
  651MOL0     H89778   5.638   7.024   9.104  0.0646  1.1625 -0.6500
  651MOL0     H89779   5.899   7.022   9.257 -1.0713 -1.0723  1.5857
  651MOL0     H89780   5.877   6.977   9.090  0.3738  1.8599  0.2172
  651MOL0     H89781   5.876   6.762   9.233 -0.1684 -0.8453  1.6872
  651MOL0     H89782   5.790   6.867   9.347  0.0646  0.5174  0.1571
  651MOL0     H89783   5.703   6.657   9.184  2.2287  0.7959 -1.2836
  651MOL0     H89784   5.647   6.802   9.088 -2.3182  3.0626  2.1572
  651MOL0     H89785   5.529   6.888   9.288  0.8792  0.2460  0.1708
  651MOL0     H89786   5.464   6.729   9.227 -1.2515 -0.8121  3.4108
  651MOL0     H89787   5.559   6.906   9.525 -0.0567  1.0342 -2.6936
  651MOL0     H89788   5.592   6.754   9.806  1.1093 -0.6244  2.2208
  651MOL0     H89789   5.475   6.623   9.805 -0.1817  1.2566  2.6254
  651MOL0     H89790   5.278   6.774   9.745  0.3842  0.9827 -0.8438
  651MOL0     H89791   5.369   6.814   9.887  0.1808  3.4343  0.0434
  651MOL0     H89792   5.505   6.979   9.733 -0.7217  1.9941 -1.5713
  651MOL0     H89793   5.360   6.974   9.630  2.2224 -0.2133 -1.4306
  651MOL0     H89794   5.333   7.156   9.796  0.6894  0.6342  0.9836
  651MOL0     H89795   5.221   7.030   9.828  0.2439 -0.1693 -1.7089
  651MOL0     H89796   5.604   7.201   9.920 -0.5499 -0.3993  1.7152
  651MOL0     H89797   5.734   7.470  10.123  1.7874 -1.0699  0.1788
  651MOL0     H89798   5.694   7.485   9.945  0.5644 -1.8977 -0.8095
  651MOL0     H89799   5.780   7.346  10.005 -0.8357 -1.6248 -2.3391
  651MOL0     H89800   5.402   7.805  10.277  0.7204 -2.6740 -0.9372
  651MOL0     H89801   5.377   7.992  10.438 -0.2046 -1.0412  0.4093
  651MOL0     H89802   5.275   7.954  10.814  0.6638 -2.1795  1.9253
  651MOL0     H89803   5.433   7.924  10.882 -1.9517  0.1123  2.2641
  651MOL0     H89804   5.379   8.113  10.990  1.6488  1.1405  0.5748
  651MOL0     H89805   5.506   8.159  10.876  0.7861 -0.1288  1.5443
  651MOL0     H89806   5.246   8.280  10.916  3.0428  3.5371  2.4086
  651MOL0     H89807   5.251   8.216  10.751 -0.2332 -2.5460  1.2638
  651MOL0     H89808   5.311   8.441  10.738  0.0847 -0.6100  0.2338
  651MOL0     H89809   5.446   8.339  10.704 -0.1923  0.6779 -0.5570
  651MOL0     H89810   5.398   8.516  10.942 -2.5154 -2.8252  1.0232
  651MOL0     H89811   5.483   8.376  10.981  2.9822 -0.6795 -1.3491
  651MOL0     H89812   5.608   8.552  10.743 -0.3907  3.4272  1.7933
  651MOL0     H89813   5.678   8.409  10.801  0.1704  0.9268 -2.5909
  651MOL0     H89814   5.611   8.655  10.954 -3.7467 -2.5888  0.2152
  651MOL0     H89815   5.771   8.619  10.887  1.9128 -2.6014  0.7551
  651MOL0     H89816   5.780   8.416  11.040 -0.1950 -1.6084  3.5602
  651MOL0     H89817   5.638   8.470  11.117 -0.2823 -0.8175 -1.2167
  651MOL0     H89818   5.489   7.742  10.759  0.2053 -0.9021 -0.9960
  651MOL0     H89819   5.509   7.548  10.618  1.9187  0.2266  0.4459
  651MOL0     H89820   5.301   7.351  10.273  1.5580  0.0110  2.2712
  651MOL0     H89821   5.259   7.146  10.162  0.8366 -1.2380  3.3605
  651MOL0     H89822   5.666   7.472   8.645 -0.5453 -0.0034  1.5017
  651MOL0     H89823   5.812   7.618   8.506  0.5509 -1.2667  0.1139
  651MOL0     H89824   6.089   7.871   8.403  1.8825 -1.9052  1.7210
  651MOL0     H89825   6.147   7.996   8.231 -1.8615 -1.1045 -0.5718
  651MOL0     H89826   6.495   7.845   7.933 -0.3468  0.7850 -0.1478
  651MOL0     H89827   6.339   7.774   7.878 -0.2492 -0.6620  3.1308
  651MOL0     H89828   6.400   8.058   7.821 -1.3536  0.9097 -1.2806
  651MOL0     H89829   6.278   7.947   7.756  1.3879 -0.0984 -2.0190
  651MOL0     H89830   6.485   7.819   7.652  0.8786  0.7156 -2.7034
  651MOL0     H89831   6.436   7.976   7.588 -2.0793 -0.2375  0.1262
  651MOL0     H89832   6.617   8.091   7.720  0.3437  0.7812 -2.4450
  651MOL0     H89833   6.685   7.970   7.608 -1.0524  1.5261 -1.0388
  651MOL0     H89834   6.807   7.846   7.982  0.6523 -0.5747  0.0259
  651MOL0     H89835   6.404   7.672   8.085  0.6345  2.7922 -0.8095
  651MOL0     H89836   6.351   7.422   8.251  1.4395 -1.4433  3.2624
  651MOL0     H89837   6.483   7.529   8.293 -0.3732  3.0166  0.4446
  651MOL0     H89838   6.356   7.482   8.412  4.3177 -2.8722  0.9461
  652MOL0     O89839  11.304   7.535   8.455  0.3295  1.2101  0.0338
  652MOL0     C89840  11.407   7.605   8.445  0.2893  0.2250  0.4223
  652MOL0     O89841  11.432   7.711   8.362  0.3786 -0.3019  0.1429
  652MOL0     C89842  11.348   7.728   8.254  0.7231 -0.3145 -0.0769
  652MOL0     C89843  11.298   7.622   8.174 -0.2374  0.5228  0.3040
  652MOL0     C89844  11.214   7.641   8.070  0.4243  0.1050 -0.2252
  652MOL0     C89845  11.195   7.776   8.031  0.7334 -0.1241 -0.2188
  652MOL0     O89846  11.102   7.809   7.935 -0.1489  0.3444 -0.5646
  652MOL0     C89847  10.966   7.779   7.960 -0.7483 -0.7554 -0.1002
  652MOL0     C89848  10.914   7.886   8.053  0.5047  0.5372 -0.8021
  652MOL0     C89849  10.766   7.840   8.089  0.5753  0.7117  0.0112
  652MOL0     C89850  10.681   7.831   7.967  0.4276  0.4280 -0.2187
  652MOL0     C89851  10.533   7.797   8.003 -0.5687  1.0143 -0.1681
  652MOL0     C89852  10.522   7.683   8.102  0.3788 -0.1476  0.2227
  652MOL0     C89853  10.393   7.613   8.075 -0.0432  0.2647  0.2559
  652MOL0     C89854  10.271   7.703   8.057  0.3571 -0.2595 -0.0532
  652MOL0     N89855  10.145   7.642   8.016  0.0836 -0.5098 -1.2610
  652MOL0     C89856  10.062   7.582   8.109 -1.0080 -0.8388 -0.7235
  652MOL0     C89857   9.944   7.578   8.060  0.3014 -0.0184 -0.4542
  652MOL0     C89858   9.820   7.522   8.127 -0.8090 -0.2955 -0.3947
  652MOL0     C89859   9.734   7.638   8.175  0.7244  0.8100  0.3833
  652MOL0     C89860   9.783   7.710   8.289  1.0560 -0.0511 -0.7035
  652MOL0     C89861   9.791   7.658   8.431  0.3110 -0.0838 -0.2381
  652MOL0     O89862   9.765   7.524   8.453  0.2950  0.3557  0.3891
  652MOL0     C89863   9.864   7.430   8.458  0.2276 -0.4111  1.0202
  652MOL0     C89864  10.003   7.450   8.448 -0.3816 -0.6946  0.5525
  652MOL0     C89865  10.081   7.334   8.443 -0.2640 -0.1143  0.4072
  652MOL0     C89866  10.234   7.351   8.405 -0.0103 -0.3647 -0.1981
  652MOL0     C89867  10.035   7.201   8.436 -0.6362  1.0649 -0.2995
  652MOL0     C89868  10.121   7.073   8.417  0.4666  0.3312 -0.6426
  652MOL0     O89869  10.252   7.078   8.399 -0.1620 -0.8016 -0.1979
  652MOL0     C89870  10.315   6.956   8.389  0.4454 -0.0514 -1.2014
  652MOL0     C89871  10.304   6.872   8.277 -0.1471 -0.7321 -0.0985
  652MOL0     C89872  10.381   6.757   8.269  0.3065 -1.1686 -0.9820
  652MOL0     C89873  10.476   6.722   8.368 -0.1345 -0.3249 -0.6528
  652MOL0     O89874  10.551   6.618   8.371  0.0861 -0.4103  0.2595
  652MOL0     C89875  10.532   6.505   8.283 -0.2987 -0.2664  0.1232
  652MOL0     C89876  10.609   6.521   8.165 -0.2980  0.0854 -1.2362
  652MOL0     C89877  10.577   6.426   8.055  0.7772  0.3262 -0.2702
  652MOL0     C89878  10.444   6.472   7.998 -0.3505  0.1626  0.7475
  652MOL0     C89879  10.384   6.352   7.910 -0.3406  0.0799  1.2449
  652MOL0     C89880  10.246   6.395   7.864  0.1367  0.2099 -0.3238
  652MOL0     C89881  10.180   6.286   7.778  0.2134  0.1654 -1.7622
  652MOL0     C89882  10.260   6.257   7.654 -0.1592  0.9047  0.0564
  652MOL0    Cl89883  10.162   6.148   7.554 -0.2360  0.2057  0.0770
  652MOL0     C89884  10.490   6.816   8.477 -0.0372  0.7260  0.4286
  652MOL0     C89885  10.411   6.929   8.490  0.3042  0.0190 -0.3261
  652MOL0     O89886  10.059   6.969   8.449 -0.5069 -0.0442  0.4554
  652MOL0     C89887   9.900   7.188   8.441 -0.6670  0.7079 -0.5577
  652MOL0     C89888   9.818   7.302   8.466 -0.2796  1.2044 -0.0980
  652MOL0     N89889   9.950   7.642   7.936  0.4609  0.0826 -0.9442
  652MOL0     N89890  10.067   7.680   7.906 -0.6799 -0.5786 -0.0174
  652MOL0     C89891  11.245   7.886   8.102  0.3988  0.8458 -0.8691
  652MOL0     C89892  11.325   7.863   8.219 -0.0433  0.2447 -0.2437
  652MOL0     C89893  11.528   7.552   8.531  0.1778 -0.4888 -0.8283
  652MOL0     C89894  11.598   7.657   8.602  1.0715 -0.4318 -0.2690
  652MOL0     C89895  11.703   7.630   8.689  0.0470 -0.1579  0.2042
  652MOL0     C89896  11.755   7.505   8.682 -0.9116  0.5464 -0.4848
  652MOL0     O89897  11.863   7.480   8.766  0.3157 -0.4577  0.0530
  652MOL0     C89898  11.957   7.384   8.725 -1.5735 -0.2851 -0.2536
  652MOL0     C89899  12.057   7.377   8.843 -1.1963 -0.0231 -0.4886
  652MOL0     C89900  12.157   7.495   8.819  0.1115 -0.2731 -0.7187
  652MOL0     C89901  12.269   7.523   8.921 -0.8232  0.1415 -0.4797
  652MOL0     C89902  12.366   7.631   8.883 -0.8543  0.2444 -0.1261
  652MOL0     C89903  12.430   7.727   8.855 -0.8562  0.2254  0.0348
  652MOL0     C89904  11.681   7.400   8.626  0.0935 -0.2518 -0.2827
  652MOL0     C89905  11.572   7.422   8.542 -0.2847  0.4454 -0.4979
  652MOL0     C89906  11.502   7.306   8.486 -0.1207 -0.0913  1.0907
  652MOL0     H89907  11.314   7.515   8.189  0.4495  0.5599 -0.1499
  652MOL0     H89908  11.168   7.556   8.021  1.7634 -0.6317 -0.2370
  652MOL0     H89909  10.959   7.683   8.012 -3.0251 -0.2735  0.6208
  652MOL0     H89910  10.920   7.777   7.861 -1.7526  1.1938  0.2748
  652MOL0     H89911  10.980   7.874   8.139 -1.0916 -0.0784  0.3973
  652MOL0     H89912  10.919   7.984   8.004  1.5277 -0.0041 -1.8068
  652MOL0     H89913  10.769   7.737   8.124  1.3891  0.9654  0.7162
  652MOL0     H89914  10.724   7.908   8.164  2.4258  1.4572  0.4225
  652MOL0     H89915  10.687   7.918   7.902 -0.9653  3.2084  3.0791
  652MOL0     H89916  10.713   7.746   7.906 -1.3075  0.2465 -0.9509
  652MOL0     H89917  10.477   7.785   7.909 -0.4277 -0.4095 -0.0959
  652MOL0     H89918  10.491   7.886   8.051  2.5471  2.3357  0.3529
  652MOL0     H89919  10.591   7.605   8.070  2.0569  2.1026 -2.0972
  652MOL0     H89920  10.534   7.713   8.206  0.5395 -0.8738  0.4157
  652MOL0     H89921  10.368   7.547   8.159 -2.5164 -0.6022 -1.0589
  652MOL0     H89922  10.398   7.538   7.995  0.6424 -1.3893  1.7737
  652MOL0     H89923  10.268   7.753   8.155  2.1042  2.7393 -1.3760
  652MOL0     H89924  10.285   7.776   7.977  0.8284 -0.5809 -0.2625
  652MOL0     H89925  10.081   7.552   8.211  0.9141  0.6447 -0.5857
  652MOL0     H89926   9.839   7.453   8.209  1.3961  1.0241  0.2826
  652MOL0     H89927   9.756   7.471   8.054 -5.3754  2.3156  1.3713
  652MOL0     H89928   9.714   7.717   8.102 -0.1616  0.8764  0.6797
  652MOL0     H89929   9.644   7.582   8.202  2.0562 -1.8782 -0.4847
  652MOL0     H89930   9.884   7.734   8.256  2.0223 -2.0439  0.5977
  652MOL0     H89931   9.739   7.810   8.284 -0.7174 -0.8315 -2.1299
  652MOL0     H89932   9.881   7.694   8.482 -0.3030 -1.1974  1.7467
  652MOL0     H89933   9.717   7.715   8.488  0.2490  1.0569 -1.4174
  652MOL0     H89934  10.044   7.549   8.433  1.1769 -1.5096 -0.8635
  652MOL0     H89935  10.266   7.453   8.380  0.9358 -0.5116  0.4023
  652MOL0     H89936  10.261   7.292   8.317 -0.1654 -1.8512  0.7198
  652MOL0     H89937  10.304   7.323   8.484  3.2960  2.5375 -1.7935
  652MOL0     H89938  10.246   6.902   8.190 -0.2868  2.8939  1.0414
  652MOL0     H89939  10.375   6.690   8.184  3.4557  0.9841 -3.1170
  652MOL0     H89940  10.560   6.416   8.341  0.7479 -0.7933 -1.1440
  652MOL0     H89941  10.428   6.484   8.259 -0.4614 -0.5164  0.9954
  652MOL0     H89942  10.611   6.625   8.130  1.1504  1.8209  3.2527
  652MOL0     H89943  10.708   6.511   8.211 -1.2997  2.5395  1.8202
  652MOL0     H89944  10.571   6.328   8.103 -0.3625 -0.2320 -1.5007
  652MOL0     H89945  10.646   6.412   7.972  0.3718 -2.0523 -0.2846
  652MOL0     H89946  10.465   6.562   7.940 -0.0359  0.2596  1.0079
  652MOL0     H89947  10.369   6.489   8.077  1.5444  4.0300  1.9338
  652MOL0     H89948  10.442   6.318   7.823 -1.3692 -0.6481  0.8287
  652MOL0     H89949  10.364   6.263   7.971 -0.2592 -2.0973 -1.6227
  652MOL0     H89950  10.266   6.489   7.811 -0.2038  1.2266  1.2807
  652MOL0     H89951  10.178   6.415   7.947 -0.7737 -2.5386 -0.3017
  652MOL0     H89952  10.097   6.341   7.732  1.4259  1.4956 -2.4123
  652MOL0     H89953  10.152   6.198   7.837  2.2659  1.6789  1.7632
  652MOL0     H89954  10.350   6.201   7.682  2.9659  1.7844 -6.2590
  652MOL0     H89955  10.293   6.348   7.602 -0.9235  0.0456 -2.0508
  652MOL0     H89956  10.559   6.785   8.554  0.7096  0.9705 -0.1290
  652MOL0     H89957  10.412   6.986   8.582 -2.7754 -0.2622 -0.0037
  652MOL0     H89958   9.848   7.093   8.433 -1.1068  0.9724 -0.9301
  652MOL0     H89959   9.711   7.283   8.476 -0.6743  1.1122 -3.3804
  652MOL0     H89960  11.234   7.990   8.074 -1.0715  1.2558  1.0362
  652MOL0     H89961  11.364   7.940   8.284 -0.6588 -0.8458  1.5202
  652MOL0     H89962  11.579   7.763   8.588  0.4446 -0.4677  0.2556
  652MOL0     H89963  11.743   7.715   8.743  1.6056  0.3801 -1.6873
  652MOL0     H89964  11.914   7.284   8.713  1.0119 -1.4212 -0.5699
  652MOL0     H89965  12.021   7.416   8.642  1.1659 -0.7972  1.5286
  652MOL0     H89966  12.112   7.285   8.820 -0.7891  0.2010 -0.4065
  652MOL0     H89967  12.012   7.372   8.943  3.9273 -1.2605  2.0707
  652MOL0     H89968  12.213   7.480   8.726  1.7917 -0.6861  0.3082
  652MOL0     H89969  12.105   7.591   8.821 -0.0215 -0.3465  0.6260
  652MOL0     H89970  12.335   7.438   8.939  2.1881  1.7028 -3.0849
  652MOL0     H89971  12.222   7.536   9.019  4.0704 -0.4797  2.2829
  652MOL0     H89972  12.497   7.807   8.831 -0.5076  0.6566  2.2793
  652MOL0     H89973  11.702   7.294   8.636 -2.4421 -0.9301 -1.2435
  652MOL0     H89974  11.414   7.283   8.547 -0.7749 -1.5587 -0.3113
  652MOL0     H89975  11.482   7.325   8.380  2.9572 -0.8329  0.2540
  652MOL0     H89976  11.564   7.216   8.472  1.2493  0.8512  0.9393
  653MOL0     O89977   6.983   5.362   2.777  0.0218 -1.1581  0.5788
  653MOL0     C89978   6.998   5.465   2.709 -0.0444  0.5162  0.9353
  653MOL0     O89979   6.970   5.467   2.570 -0.3774  0.3002  0.6650
  653MOL0     C89980   6.958   5.343   2.507  0.8370  0.0926  0.1739
  653MOL0     C89981   7.040   5.231   2.526 -0.3943 -0.6361 -0.4478
  653MOL0     C89982   7.022   5.115   2.457  0.2558  0.2566 -0.9484
  653MOL0     C89983   6.918   5.101   2.363 -0.3452  0.2904 -0.0424
  653MOL0     O89984   6.891   4.980   2.312 -0.1362 -0.1941  0.4429
  653MOL0     C89985   6.827   4.886   2.398 -0.4429  0.2226 -0.2081
  653MOL0     C89986   6.690   4.931   2.463  0.4968  0.3060 -0.3485
  653MOL0     C89987   6.574   4.902   2.366 -0.3458 -0.3391 -0.4149
  653MOL0     C89988   6.444   4.899   2.440  0.1459  0.0735  0.1256
  653MOL0     C89989   6.331   4.873   2.346 -0.3243 -0.2616  0.4294
  653MOL0     C89990   6.200   4.922   2.407 -0.6660  0.2203  0.8177
  653MOL0     C89991   6.070   4.888   2.334 -0.4332  0.3054  0.6221
  653MOL0     C89992   6.071   4.947   2.191  0.4647  0.4501 -0.2784
  653MOL0     N89993   5.943   4.949   2.125  1.5517 -0.2627 -0.5741
  653MOL0     C89994   5.895   5.064   2.059 -0.2707  1.0935  1.1533
  653MOL0     C89995   5.771   5.028   2.014  0.0322 -0.4828 -0.2474
  653MOL0     C89996   5.673   5.120   1.946  0.2550 -0.7835  0.2652
  653MOL0     C89997   5.677   5.116   1.795  0.1882 -0.6652 -0.2125
  653MOL0     C89998   5.636   4.976   1.729 -0.0039 -0.8160 -0.4350
  653MOL0     C89999   5.479   4.961   1.727 -0.5673  0.0573 -0.7939
  653MOL0     O90000   5.428   5.062   1.636  0.2621 -1.1955 -0.2548
  653MOL0     C90001   5.292   5.057   1.608 -0.0641 -0.4157  0.3568
  653MOL0     C90002   5.200   4.960   1.654 -0.4258  0.3323  0.1013
  653MOL0     C90003   5.065   4.973   1.624 -0.1206 -0.5285 -0.5426
  653MOL0     C90004   4.970   4.870   1.696  0.5277 -0.8317  1.8103
  653MOL0     C90005   5.018   5.069   1.547 -0.0828 -1.0495 -0.1892
  653MOL0     C90006   4.879   5.091   1.515 -0.1865  0.6590 -0.9015
  653MOL0     O90007   4.814   5.172   1.608  0.3004 -0.0975 -0.6251
  653MOL0     C90008   4.710   5.247   1.568 -1.0034  0.3201 -0.2567
  653MOL0     C90009   4.589   5.194   1.516 -1.1585 -0.3665 -0.0854
  653MOL0     C90010   4.490   5.281   1.484  0.3068 -0.5501 -0.0083
  653MOL0     C90011   4.496   5.413   1.510 -0.5028 -1.0094 -0.0341
  653MOL0     O90012   4.387   5.491   1.476  0.4941 -0.5554  0.7386
  653MOL0     C90013   4.339   5.562   1.590  1.5846 -0.7158  0.4840
  653MOL0     C90014   4.192   5.607   1.568 -0.1677  0.1065  0.2135
  653MOL0     C90015   4.160   5.718   1.657 -0.3284  0.0747  0.0607
  653MOL0     C90016   4.136   5.672   1.801  0.1194  0.3998 -0.4110
  653MOL0     C90017   4.130   5.785   1.899 -0.0818  0.3767 -0.2339
  653MOL0     C90018   3.993   5.846   1.887 -0.5643  0.5116 -0.0665
  653MOL0     C90019   3.956   5.961   1.986 -0.4642  0.5464  1.6164
  653MOL0     C90020   3.937   5.920   2.132 -0.7096  0.6562  0.3120
  653MOL0    Cl90021   3.854   5.763   2.141 -0.1504  0.0411 -0.0653
  653MOL0     C90022   4.621   5.463   1.570  0.1880 -0.0092  0.5433
  653MOL0     C90023   4.729   5.382   1.596  0.1708 -1.0604  0.1107
  653MOL0     O90024   4.836   5.056   1.410  0.2780 -0.2264  0.3509
  653MOL0     C90025   5.117   5.156   1.491 -0.0359  0.9526 -0.2404
  653MOL0     C90026   5.249   5.149   1.520  0.2478  0.7621  0.5145
  653MOL0     N90027   5.746   4.896   2.041 -0.5886  0.1719 -0.3154
  653MOL0     N90028   5.856   4.848   2.101  0.4902 -0.2244 -0.5615
  653MOL0     C90029   6.828   5.206   2.354  0.0631  0.7556 -0.3154
  653MOL0     C90030   6.855   5.329   2.412  0.5672  0.5337  0.0507
  653MOL0     C90031   7.070   5.581   2.765  0.6156 -0.4726  0.1659
  653MOL0     C90032   7.143   5.663   2.674  1.4065 -0.0357  0.4246
  653MOL0     C90033   7.190   5.784   2.710 -0.7304 -0.3186  0.2439
  653MOL0     C90034   7.162   5.836   2.843 -1.4550 -0.9190  0.6605
  653MOL0     O90035   7.228   5.959   2.868  0.5755 -0.9597 -0.4518
  653MOL0     C90036   7.285   5.985   2.996  0.6913  0.3920  0.4641
  653MOL0     C90037   7.330   6.130   3.020  1.1531  0.3749  0.1231
  653MOL0     C90038   7.477   6.161   2.973 -0.4533  0.5834 -1.0218
  653MOL0     C90039   7.484   6.233   2.836 -0.7334  0.1263  0.2122
  653MOL0     C90040   7.621   6.281   2.797 -0.2675  0.5954 -0.3964
  653MOL0     C90041   7.736   6.297   2.764  0.0914 -0.1271  0.0466
  653MOL0     C90042   7.094   5.753   2.927  0.1469  0.1790 -0.8036
  653MOL0     C90043   7.045   5.630   2.888  0.1475  0.3660 -0.7322
  653MOL0     C90044   6.949   5.555   2.984  0.0909 -0.0852  0.1499
  653MOL0     H90045   7.127   5.238   2.591 -2.2149 -2.8103  2.5123
  653MOL0     H90046   7.072   5.024   2.487  1.8397 -0.5908 -5.3637
  653MOL0     H90047   6.909   4.868   2.468  0.1518  0.3390 -0.8519
  653MOL0     H90048   6.818   4.787   2.352  1.1931 -0.8258  1.6085
  653MOL0     H90049   6.688   4.859   2.546  2.7699 -0.9991 -1.3091
  653MOL0     H90050   6.678   5.028   2.512 -1.5642 -0.2853  0.4065
  653MOL0     H90051   6.569   4.977   2.288  1.5517 -2.1316 -2.3886
  653MOL0     H90052   6.604   4.809   2.316  2.5453  1.2086 -1.8029
  653MOL0     H90053   6.440   4.825   2.520  0.7021 -2.0399 -1.6971
  653MOL0     H90054   6.429   4.995   2.491 -0.3936  0.1995 -0.2594
  653MOL0     H90055   6.329   4.767   2.319  0.6096 -0.0813 -0.3929
  653MOL0     H90056   6.351   4.914   2.247 -1.6195  0.4583  0.4397
  653MOL0     H90057   6.191   4.872   2.504  0.0738 -0.8962  0.3393
  653MOL0     H90058   6.207   5.029   2.427  0.2175 -0.1281  2.4861
  653MOL0     H90059   5.973   4.915   2.377 -2.5818  0.9878 -3.9847
  653MOL0     H90060   6.063   4.779   2.320  0.7845  0.3848 -0.8714
  653MOL0     H90061   6.105   5.050   2.203  0.5558  0.3191  0.6817
  653MOL0     H90062   6.127   4.887   2.119 -1.7835 -1.8382 -0.2720
  653MOL0     H90063   5.944   5.159   2.038 -0.1823  0.5739 -1.3825
  653MOL0     H90064   5.674   5.223   1.985 -0.8651 -1.1287  1.2838
  653MOL0     H90065   5.572   5.086   1.973 -0.0079 -0.8698 -0.8054
  653MOL0     H90066   5.623   5.202   1.754  1.0197  0.3174  0.6853
  653MOL0     H90067   5.779   5.145   1.771  1.3683 -3.1281  1.4368
  653MOL0     H90068   5.678   4.983   1.629 -0.1740  1.9725 -0.4026
  653MOL0     H90069   5.681   4.884   1.768  3.5004  1.3163  1.0856
  653MOL0     H90070   5.449   4.860   1.695  3.7841 -1.0776 -1.8646
  653MOL0     H90071   5.440   4.995   1.823 -1.7274 -2.0797 -0.4374
  653MOL0     H90072   5.230   4.871   1.708 -1.3416  0.2504  0.4930
  653MOL0     H90073   4.988   4.769   1.659 -0.5855  0.0047 -1.3646
  653MOL0     H90074   4.865   4.888   1.671  1.0203 -1.9304 -1.4849
  653MOL0     H90075   4.976   4.884   1.805 -1.2442 -0.3879  1.8926
  653MOL0     H90076   4.572   5.087   1.508  3.0425 -1.2849  0.5241
  653MOL0     H90077   4.402   5.246   1.432 -0.8942  0.6721  1.1339
  653MOL0     H90078   4.333   5.496   1.677 -1.7193 -2.4577 -0.8820
  653MOL0     H90079   4.403   5.650   1.595  0.5039  0.0940  0.5999
  653MOL0     H90080   4.180   5.633   1.462  1.0658  1.3523  0.3620
  653MOL0     H90081   4.116   5.531   1.589  1.5903 -1.5945  0.7372
  653MOL0     H90082   4.070   5.761   1.613  1.5744  4.0048 -0.4617
  653MOL0     H90083   4.242   5.790   1.649 -0.0353 -0.0072  1.9386
  653MOL0     H90084   4.214   5.600   1.829  1.0986  1.8539  0.7529
  653MOL0     H90085   4.048   5.608   1.808  1.4031 -1.2929  1.0445
  653MOL0     H90086   4.134   5.736   1.997  1.6211 -0.0521 -0.4801
  653MOL0     H90087   4.206   5.864   1.889 -0.1217  0.5002  0.4131
  653MOL0     H90088   3.909   5.776   1.888 -2.4818  2.6393  2.0449
  653MOL0     H90089   3.975   5.892   1.790  0.6366  1.6778  0.2328
  653MOL0     H90090   3.858   6.004   1.963  0.5888  2.1071 -0.3121
  653MOL0     H90091   4.025   6.046   1.980  2.7271 -1.8572  1.7317
  653MOL0     H90092   3.867   5.992   2.174 -2.7134 -0.9538 -0.1017
  653MOL0     H90093   4.034   5.924   2.184  1.6170 -2.2039 -3.2540
  653MOL0     H90094   4.621   5.569   1.596 -0.9767 -0.7946  4.4136
  653MOL0     H90095   4.829   5.411   1.628 -0.5917  2.5397 -0.4397
  653MOL0     H90096   5.069   5.235   1.435  0.1321  1.2029 -0.0338
  653MOL0     H90097   5.305   5.228   1.471 -0.4771 -0.9377 -3.4328
  653MOL0     H90098   6.735   5.197   2.299  0.3910  1.7563 -1.0713
  653MOL0     H90099   6.805   5.417   2.373 -0.1882  1.4035  2.7310
  653MOL0     H90100   7.166   5.642   2.570 -1.5818  0.9245 -0.5184
  653MOL0     H90101   7.243   5.850   2.642 -1.2286  1.4630  1.5133
  653MOL0     H90102   7.209   5.950   3.066 -2.8953  2.5597 -2.0165
  653MOL0     H90103   7.372   5.920   3.012 -0.5911 -2.6612 -3.5188
  653MOL0     H90104   7.324   6.151   3.127 -2.0871 -0.7274  0.2746
  653MOL0     H90105   7.252   6.188   2.969 -0.3831 -1.2416  0.5227
  653MOL0     H90106   7.531   6.221   3.047 -1.0322  0.2879 -0.3546
  653MOL0     H90107   7.539   6.070   2.978  0.5659  1.3243  0.4898
  653MOL0     H90108   7.430   6.328   2.845 -0.2084  0.2334  2.6577
  653MOL0     H90109   7.452   6.178   2.746 -3.7512  0.6861  0.8225
  653MOL0     H90110   7.828   6.329   2.718  0.3545 -0.6393  0.2131
  653MOL0     H90111   7.069   5.791   3.026 -1.5302 -0.1170 -1.0857
  653MOL0     H90112   6.990   5.464   3.026  1.0849  1.0398  1.7378
  653MOL0     H90113   6.930   5.604   3.080  3.6105 -0.3122  1.1035
  653MOL0     H90114   6.855   5.529   2.935  0.7576 -3.4312  0.4469
  654MOL0     O90115   1.971   3.705  11.010  0.8300  0.3835  0.2029
  654MOL0     C90116   1.926   3.635  10.920  0.0939  0.2549 -0.2501
  654MOL0     O90117   1.810   3.576  10.918 -0.2256  0.1425 -0.4145
  654MOL0     C90118   1.745   3.570  11.039 -0.1247  0.7420 -0.4733
  654MOL0     C90119   1.646   3.658  11.071  1.1252 -0.3900 -0.4976
  654MOL0     C90120   1.575   3.643  11.194  1.3844  0.4964  0.6495
  654MOL0     C90121   1.592   3.542  11.284 -0.3810  0.1004  0.7201
  654MOL0     O90122   1.517   3.522  11.399  0.4246  0.2030 -0.4446
  654MOL0     C90123   1.423   3.627  11.433 -1.1511  0.7963  0.4092
  654MOL0     C90124   1.480   3.730  11.522  0.0811  0.5591 -0.3283
  654MOL0     C90125   1.487   3.868  11.458 -0.7351 -0.3888  0.0891
  654MOL0     C90126   1.548   3.964  11.563  1.4486 -0.5999 -0.6011
  654MOL0     C90127   1.560   4.104  11.506  1.0069 -0.5802 -0.3569
  654MOL0     C90128   1.575   4.192  11.636  0.0983  0.4144 -0.1976
  654MOL0     C90129   1.666   4.312  11.606 -0.0519 -0.0448 -0.0196
  654MOL0     C90130   1.644   4.430  11.696  0.0802 -1.1200 -0.6199
  654MOL0     N90131   1.773   4.513  11.689  0.7059 -0.6691  0.6294
  654MOL0     C90132   1.875   4.508  11.777  0.3268 -0.8964 -0.3653
  654MOL0     C90133   1.960   4.616  11.751  0.5998 -0.2798 -0.8774
  654MOL0     C90134   2.083   4.650  11.818  0.3372 -1.3720  0.6195
  654MOL0     C90135   2.154   4.772  11.761  0.3783  0.5030  0.0563
  654MOL0     C90136   2.224   4.742  11.619 -0.0404 -0.4926 -0.6347
  654MOL0     C90137   2.277   4.872  11.550  0.2298 -1.0598  0.0528
  654MOL0     O90138   2.415   4.893  11.582  0.4436  0.1144 -0.3707
  654MOL0     C90139   2.484   5.005  11.546  0.4750  0.3125 -0.0682
  654MOL0     C90140   2.430   5.117  11.493  0.1808 -0.0083  0.3787
  654MOL0     C90141   2.510   5.233  11.484 -0.6557  0.7712  1.0437
  654MOL0     C90142   2.435   5.356  11.422  1.0414  1.1240 -0.0771
  654MOL0     C90143   2.645   5.232  11.525  0.2460  0.3405 -0.2978
  654MOL0     C90144   2.734   5.348  11.518 -0.8627  0.2338 -0.4281
  654MOL0     O90145   2.866   5.321  11.480  0.3395 -0.3257 -0.0706
  654MOL0     C90146   2.963   5.424  11.487  0.7397  0.4785  0.7003
  654MOL0     C90147   2.960   5.546  11.419 -0.1598 -0.2037  0.0094
  654MOL0     C90148   3.064   5.638  11.438 -0.7010  0.4881 -0.6438
  654MOL0     C90149   3.172   5.615  11.519  0.3488  0.0924 -0.5271
  654MOL0     O90150   3.261   5.717  11.536  0.1321  0.0615  0.0891
  654MOL0     C90151   3.342   5.709  11.654  0.5859 -0.2892  0.1485
  654MOL0     C90152   3.427   5.832  11.680 -0.1764  0.4499 -0.3503
  654MOL0     C90153   3.515   5.820  11.808 -0.7832  0.3524 -0.7271
  654MOL0     C90154   3.606   5.693  11.798  0.5833 -0.1206  1.0995
  654MOL0     C90155   3.703   5.690  11.916  0.1107  0.0364  1.2771
  654MOL0     C90156   3.825   5.591  11.879 -0.0733  0.2062  0.5857
  654MOL0     C90157   3.920   5.594  12.002  0.2672  0.9544 -0.4153
  654MOL0     C90158   4.059   5.565  11.971  0.2662  0.6857  0.0133
  654MOL0    Cl90159   4.161   5.614  12.099 -0.1447 -0.4934 -0.2996
  654MOL0     C90160   3.187   5.482  11.571 -0.1482  0.0341  0.2074
  654MOL0     C90161   3.083   5.392  11.552  0.2570  0.0452  0.5149
  654MOL0     O90162   2.688   5.459  11.547 -0.1003 -1.0246 -0.0911
  654MOL0     C90163   2.701   5.101  11.562  0.1195  0.5495 -0.6994
  654MOL0     C90164   2.616   4.991  11.580  0.3349  0.6951  0.1851
  654MOL0     N90165   1.901   4.678  11.639 -0.3688  0.5388 -0.7865
  654MOL0     N90166   1.784   4.628  11.611  0.7085 -0.0745 -0.2292
  654MOL0     C90167   1.688   3.444  11.255  0.2540 -0.4814  0.2419
  654MOL0     C90168   1.766   3.461  11.133  0.1305  0.0656  1.2799
  654MOL0     C90169   1.994   3.656  10.794 -0.4346  0.6278 -0.1190
  654MOL0     C90170   2.035   3.784  10.757  0.3311  0.2845 -0.1950
  654MOL0     C90171   2.103   3.802  10.632  0.2374 -0.7657  0.2136
  654MOL0     C90172   2.112   3.698  10.539  0.5960 -0.1395  0.3241
  654MOL0     O90173   2.175   3.727  10.422  0.6028 -0.3592  0.3300
  654MOL0     C90174   2.147   3.652  10.305  0.5367  0.0922 -0.5324
  654MOL0     C90175   2.273   3.676  10.221  0.8201  0.6946 -0.2808
  654MOL0     C90176   2.233   3.631  10.082  0.3561  0.4035  0.5894
  654MOL0     C90177   2.220   3.472  10.073 -0.4233 -0.5711 -0.1109
  654MOL0     C90178   2.145   3.448   9.952 -0.7401  0.2821  0.0169
  654MOL0     C90179   2.101   3.440   9.838  0.5176 -0.3996 -0.1989
  654MOL0     C90180   2.062   3.567  10.573 -0.3754 -1.1389  0.7529
  654MOL0     C90181   2.003   3.544  10.694  0.6929  1.1243 -0.5535
  654MOL0     C90182   1.939   3.409  10.717 -0.5417 -0.0608 -0.6108
  654MOL0     H90183   1.616   3.741  11.009 -0.0410  0.0347  0.6017
  654MOL0     H90184   1.497   3.716  11.213 -0.2220 -1.8505  4.1469
  654MOL0     H90185   1.350   3.567  11.487 -0.4912 -2.9009 -2.4070
  654MOL0     H90186   1.374   3.684  11.353 -0.0413  3.0263  1.2241
  654MOL0     H90187   1.408   3.744  11.603 -1.4117  2.6533 -1.9135
  654MOL0     H90188   1.575   3.693  11.562 -0.1480  1.5204  1.2058
  654MOL0     H90189   1.557   3.873  11.374  0.8633  2.1053  1.4329
  654MOL0     H90190   1.385   3.892  11.427 -0.0358 -0.9734 -3.0607
  654MOL0     H90191   1.479   3.981  11.646  0.2104 -3.0150 -1.0474
  654MOL0     H90192   1.647   3.928  11.589  1.3830  0.5136  1.3766
  654MOL0     H90193   1.472   4.149  11.458 -0.9073  0.8342  3.9495
  654MOL0     H90194   1.652   4.114  11.450  0.3383 -0.9104 -1.5431
  654MOL0     H90195   1.478   4.234  11.667  0.7449  1.4057  0.5640
  654MOL0     H90196   1.617   4.140  11.722 -0.8942  1.6500  1.0874
  654MOL0     H90197   1.642   4.356  11.509  1.3134  1.5599  0.3165
  654MOL0     H90198   1.769   4.276  11.609 -0.1307 -0.2829 -0.1551
  654MOL0     H90199   1.559   4.499  11.690  0.7148 -0.0722  1.4787
  654MOL0     H90200   1.647   4.398  11.800  0.2491  0.7776  0.0070
  654MOL0     H90201   1.897   4.427  11.846  1.4400  1.0473  1.6823
  654MOL0     H90202   2.148   4.562  11.811  2.9529  0.0608  4.0439
  654MOL0     H90203   2.062   4.669  11.924 -4.9285 -2.3491  0.0040
  654MOL0     H90204   2.085   4.856  11.766  0.2765  0.4946 -1.0011
  654MOL0     H90205   2.233   4.798  11.833  1.3865  3.1781 -1.8784
  654MOL0     H90206   2.316   4.684  11.624  1.7316  2.1207 -1.0547
  654MOL0     H90207   2.168   4.681  11.547 -1.6505 -1.4602  1.3544
  654MOL0     H90208   2.272   4.874  11.441  0.5937  0.0407  0.0517
  654MOL0     H90209   2.210   4.953  11.580  1.5553  3.2146 -6.3841
  654MOL0     H90210   2.335   5.127  11.442  1.4559  0.8836 -2.0015
  654MOL0     H90211   2.499   5.443  11.402 -0.5684  3.0858  2.5254
  654MOL0     H90212   2.354   5.387  11.489  0.4595  2.2613 -1.2628
  654MOL0     H90213   2.393   5.332  11.325 -1.4079  6.3703 -0.6594
  654MOL0     H90214   2.876   5.571  11.355  0.9696  0.9196 -1.1237
  654MOL0     H90215   3.043   5.738  11.400 -4.1611  0.5275  0.9234
  654MOL0     H90216   3.278   5.693  11.741 -2.4443 -0.7189 -1.9944
  654MOL0     H90217   3.407   5.623  11.636 -0.8902 -1.8296  1.7463
  654MOL0     H90218   3.494   5.840  11.593  2.1597  2.1531  1.4467
  654MOL0     H90219   3.371   5.926  11.690  0.4547  0.5640  4.0049
  654MOL0     H90220   3.461   5.823  11.903 -2.1545 -1.3893 -1.3983
  654MOL0     H90221   3.579   5.908  11.812 -0.3789  0.0244  0.7051
  654MOL0     H90222   3.656   5.701  11.701 -1.7254  0.6409 -0.0978
  654MOL0     H90223   3.554   5.599  11.781  3.0333 -1.0772 -2.2211
  654MOL0     H90224   3.738   5.792  11.931  0.5170  0.3467 -1.3216
  654MOL0     H90225   3.651   5.656  12.006 -0.9525 -0.1241  0.6189
  654MOL0     H90226   3.878   5.627  11.791 -2.4187  0.0443 -1.0013
  654MOL0     H90227   3.782   5.493  11.856  0.0712  0.1421  0.5880
  654MOL0     H90228   3.879   5.525  12.076 -0.6804  1.5200 -0.3968
  654MOL0     H90229   3.908   5.694  12.044  1.9166  1.1669 -0.3786
  654MOL0     H90230   4.105   5.622  11.890 -0.1764 -2.8254 -2.9802
  654MOL0     H90231   4.072   5.459  11.949 -2.8611  0.5011 -1.5944
  654MOL0     H90232   3.271   5.445  11.629 -0.3671  0.7167  0.9792
  654MOL0     H90233   3.087   5.291  11.593 -0.9762 -0.3001 -0.1762
  654MOL0     H90234   2.806   5.101  11.587 -0.3086  0.2420  1.2910
  654MOL0     H90235   2.643   4.900  11.633  1.3433  1.1644  0.4990
  654MOL0     H90236   1.716   3.373  11.332 -0.0818  0.5820  1.3952
  654MOL0     H90237   1.835   3.381  11.109  1.1293  1.2394  0.0551
  654MOL0     H90238   2.030   3.874  10.817  2.5017 -0.2004  0.8576
  654MOL0     H90239   2.126   3.902  10.597 -1.5205 -0.4284 -0.0491
  654MOL0     H90240   2.147   3.543  10.318  2.0524 -0.0657 -1.6191
  654MOL0     H90241   2.054   3.695  10.268  0.5391  0.7998  0.2354
  654MOL0     H90242   2.359   3.626  10.267  0.4439 -0.8592 -1.1972
  654MOL0     H90243   2.285   3.784  10.208  1.2520  0.7815  0.7729
  654MOL0     H90244   2.135   3.665  10.048  0.1586 -1.0395 -0.3984
  654MOL0     H90245   2.301   3.672  10.007  1.3171  1.0136  1.7734
  654MOL0     H90246   2.151   3.438  10.151 -0.7975 -0.2971 -0.3183
  654MOL0     H90247   2.317   3.422  10.079  0.0714  0.2358 -1.1419
  654MOL0     H90248   2.045   3.434   9.747  1.0330 -1.5626 -0.4488
  654MOL0     H90249   2.074   3.490  10.496  1.9002  0.9441 -1.1723
  654MOL0     H90250   2.005   3.340  10.663  0.0986  0.2390 -0.2276
  654MOL0     H90251   1.939   3.391  10.824  0.2923  3.1967  0.0664
  654MOL0     H90252   1.838   3.402  10.677 -1.5582 -3.0167  2.0965
  655MOL0     O90253   1.191   0.956  10.347  0.4312  0.4431  0.1358
  655MOL0     C90254   1.291   0.893  10.312 -0.4880 -0.3288  0.0523
  655MOL0     O90255   1.423   0.925  10.344  0.2223 -0.1957 -0.8402
  655MOL0     C90256   1.430   1.020  10.441  0.1848  0.2145 -0.3668
  655MOL0     C90257   1.403   1.156  10.413  0.0753  1.5422  0.2862
  655MOL0     C90258   1.411   1.241  10.522 -0.0048 -0.5050  0.5184
  655MOL0     C90259   1.458   1.201  10.648 -0.7723  0.1561 -0.0871
  655MOL0     O90260   1.469   1.303  10.739 -0.3027 -0.4272  0.4845
  655MOL0     C90261   1.539   1.277  10.856 -0.1931  0.2020  0.0204
  655MOL0     C90262   1.583   1.399  10.934 -0.3470  0.1011 -0.4923
  655MOL0     C90263   1.493   1.442  11.062  0.0295 -1.3807  0.2409
  655MOL0     C90264   1.349   1.458  11.014 -0.0298 -0.4348 -0.9861
  655MOL0     C90265   1.253   1.532  11.115 -0.1586 -0.0860 -0.0340
  655MOL0     C90266   1.239   1.457  11.250  0.5507  1.3376  0.0332
  655MOL0     C90267   1.181   1.548  11.363 -0.5260  0.3100  0.6070
  655MOL0     C90268   1.030   1.591  11.334 -0.8971  0.1203 -1.0351
  655MOL0     N90269   0.979   1.680  11.445  0.1523 -0.8362 -0.4651
  655MOL0     C90270   0.859   1.663  11.516  0.0576  0.1697  0.1105
  655MOL0     C90271   0.862   1.760  11.615  0.5148 -0.2288  0.2479
  655MOL0     C90272   0.750   1.781  11.699 -0.2471 -0.5501 -0.3616
  655MOL0     C90273   0.789   1.814  11.850  1.3014  0.0916  0.6813
  655MOL0     C90274   0.815   1.969  11.868  0.0684 -0.1371 -0.3167
  655MOL0     C90275   0.720   2.065  11.829  0.1551 -0.5516  0.6711
  655MOL0     O90276   0.761   2.202  11.849  0.1346 -0.3866 -0.4186
  655MOL0     C90277   0.667   2.286  11.916 -1.1250 -0.1527 -1.0366
  655MOL0     C90278   0.589   2.242  12.023 -0.1220 -1.5589  0.5870
  655MOL0     C90279   0.506   2.337  12.092 -0.4633 -0.1601 -0.4722
  655MOL0     C90280   0.423   2.276  12.207 -0.3313 -0.3418  0.0027
  655MOL0     C90281   0.498   2.474  12.054  0.8614 -0.3907 -0.0816
  655MOL0     C90282   0.419   2.580  12.121 -1.4011 -0.7030  0.0706
  655MOL0     O90283   0.457   2.704  12.089  0.0801 -0.9199  0.1790
  655MOL0     C90284   0.418   2.815  12.164 -0.5084 -0.2375  1.3177
  655MOL0     C90285   0.283   2.844  12.196  0.2228 -0.0310  0.1516
  655MOL0     C90286   0.253   2.957  12.279  0.1492  1.1734 -0.4335
  655MOL0     C90287   0.351   3.049  12.311  0.2573  0.3631  0.4491
  655MOL0     O90288   0.324   3.172  12.361 -0.1610 -0.4018  0.2634
  655MOL0     C90289   0.324   3.171  12.500  0.5922 -0.4617 -0.2281
  655MOL0     C90290   0.330   3.312  12.563  0.4136  0.6303 -0.4506
  655MOL0     C90291   0.190   3.381  12.561 -0.6964  0.0844  0.5020
  655MOL0     C90292   0.190   3.537  12.560  0.1756 -0.3368  0.5992
  655MOL0     C90293   0.049   3.600  12.535 -0.7837  0.2868 -0.5387
  655MOL0     C90294   0.044   3.743  12.592  0.2625 -0.1444  0.2735
  655MOL0     C90295   0.010   3.750  12.739  0.3693 -0.4726  0.6694
  655MOL0     C90296  -0.026   3.896  12.777 -0.7345  0.1860  0.2991
  655MOL0    Cl90297  -0.070   3.891  12.958 -0.3084 -0.3403 -0.4101
  655MOL0     C90298   0.485   3.018  12.278  0.2171  1.4679  0.5594
  655MOL0     C90299   0.521   2.895  12.211 -0.5582 -0.6152  0.5664
  655MOL0     O90300   0.329   2.559  12.200 -0.3791  0.7214  0.0233
  655MOL0     C90301   0.593   2.513  11.946 -0.0617  0.0647 -0.2169
  655MOL0     C90302   0.666   2.418  11.872 -0.6741  0.2241  0.1433
  655MOL0     N90303   0.985   1.829  11.602  1.4662  0.4509 -0.3024
  655MOL0     N90304   1.054   1.772  11.509 -0.1703  0.5059  0.1336
  655MOL0     C90305   1.490   1.070  10.663 -1.3133 -0.6870  0.7959
  655MOL0     C90306   1.477   0.979  10.561 -1.1988  0.1301  0.2738
  655MOL0     C90307   1.269   0.787  10.202 -0.6081  0.2365 -0.1577
  655MOL0     C90308   1.132   0.753  10.161 -1.0368  0.2768 -0.0462
  655MOL0     C90309   1.110   0.640  10.093  0.8225 -0.0146 -0.3029
  655MOL0     C90310   1.204   0.547  10.053  0.4315 -0.6663  0.4240
  655MOL0     O90311   1.189   0.422   9.998  0.2225 -0.1415 -0.0275
  655MOL0     C90312   1.066   0.391   9.932 -0.2434  0.0519 -0.2144
  655MOL0     C90313   1.084   0.248   9.875 -0.1225  0.4682  0.0607
  655MOL0     C90314   1.186   0.228   9.760 -0.5499  0.2064  0.2876
  655MOL0     C90315   1.139   0.108   9.673 -0.6645 -0.3376  0.0254
  655MOL0     C90316   1.150  -0.018   9.745  0.4089 -0.4411  1.3282
  655MOL0     C90317   1.180  -0.121   9.806  0.2143 -0.6594  0.4512
  655MOL0     C90318   1.333   0.581  10.094  0.3422 -0.7443  0.0052
  655MOL0     C90319   1.370   0.695  10.154 -0.2554 -0.9736 -0.2860
  655MOL0     C90320   1.525   0.722  10.172 -0.3368 -0.2587 -0.7550
  655MOL0     H90321   1.369   1.182  10.314  2.6339 -1.1787 -1.4857
  655MOL0     H90322   1.364   1.338  10.506 -1.0585 -0.9263  0.9497
  655MOL0     H90323   1.635   1.229  10.837  0.1568  0.8071  0.2259
  655MOL0     H90324   1.485   1.201  10.913 -1.7723  1.2057 -0.0839
  655MOL0     H90325   1.686   1.384  10.967  0.0012 -0.8079 -1.9076
  655MOL0     H90326   1.584   1.483  10.865  2.4037  2.4497  2.0824
  655MOL0     H90327   1.487   1.369  11.143 -2.3237 -2.1278 -0.5176
  655MOL0     H90328   1.540   1.533  11.100  2.4601 -2.4701  0.0794
  655MOL0     H90329   1.350   1.501  10.913  1.2611 -3.8030 -2.5600
  655MOL0     H90330   1.297   1.364  10.995 -2.0387 -0.8863  4.8877
  655MOL0     H90331   1.165   1.547  11.051  1.0115 -0.5358 -1.8493
  655MOL0     H90332   1.285   1.635  11.133 -1.1650  0.2426 -0.0357
  655MOL0     H90333   1.178   1.368  11.233  2.3407 -0.2727  1.5963
  655MOL0     H90334   1.334   1.420  11.289  0.7504  1.1985 -0.5851
  655MOL0     H90335   1.250   1.632  11.373 -0.0389 -0.0119  0.0291
  655MOL0     H90336   1.167   1.491  11.455 -0.9445 -1.1036 -0.2972
  655MOL0     H90337   1.025   1.630  11.232  2.7860 -0.3290 -1.5114
  655MOL0     H90338   0.973   1.498  11.334 -1.5151  0.4642  0.5505
  655MOL0     H90339   0.777   1.597  11.488 -1.2087  1.9212 -0.4943
  655MOL0     H90340   0.693   1.689  11.717 -0.7210 -0.0507  0.7840
  655MOL0     H90341   0.682   1.856  11.660  0.3379  1.5094  2.2644
  655MOL0     H90342   0.707   1.782  11.914  0.0251  0.2858 -0.7878
  655MOL0     H90343   0.877   1.756  11.880  2.2549  0.9757 -0.2929
  655MOL0     H90344   0.834   1.988  11.974 -1.3867 -1.2788  0.1790
  655MOL0     H90345   0.905   1.989  11.810  0.1881  1.8545  0.4935
  655MOL0     H90346   0.707   2.072  11.721 -4.3093  2.3392  1.1564
  655MOL0     H90347   0.626   2.045  11.881  1.4983  0.3546  3.6859
  655MOL0     H90348   0.602   2.145  12.070 -2.5661 -3.2913 -2.0219
  655MOL0     H90349   0.320   2.259  12.175 -0.8574  2.7270 -0.2677
  655MOL0     H90350   0.423   2.330  12.302  0.5609  0.5763 -0.4962
  655MOL0     H90351   0.469   2.180  12.233  0.5709 -0.8252 -2.9784
  655MOL0     H90352   0.193   2.783  12.192 -0.2914  0.7176  0.1063
  655MOL0     H90353   0.153   2.955  12.323 -0.1527 -1.5661 -1.0614
  655MOL0     H90354   0.250   3.112  12.556  0.6606 -4.2286 -3.6040
  655MOL0     H90355   0.418   3.133  12.539 -0.9356  0.9848  5.7767
  655MOL0     H90356   0.365   3.319  12.666 -0.5086  0.7292 -0.1376
  655MOL0     H90357   0.396   3.367  12.495 -0.7097  1.1236 -1.1737
  655MOL0     H90358   0.119   3.345  12.636 -1.5509 -2.2790 -1.3402
  655MOL0     H90359   0.141   3.357  12.467 -1.2734  1.8839  0.2986
  655MOL0     H90360   0.265   3.573  12.489  0.1614  2.0522  1.7047
  655MOL0     H90361   0.231   3.561  12.659 -1.0961 -2.9750  1.8557
  655MOL0     H90362   0.021   3.599  12.430  0.7521  2.6384 -1.0465
  655MOL0     H90363  -0.010   3.530  12.594  1.5426  0.2008  1.8947
  655MOL0     H90364  -0.027   3.794  12.526  2.9377  0.6022 -2.2334
  655MOL0     H90365   0.135   3.800  12.570 -0.3014  1.0590  0.9868
  655MOL0     H90366   0.096   3.711  12.794 -1.9602 -2.6455  3.0540
  655MOL0     H90367  -0.080   3.691  12.759 -1.2068  0.6521 -2.4535
  655MOL0     H90368  -0.105   3.938  12.715 -2.1447 -0.1332  1.8107
  655MOL0     H90369   0.067   3.952  12.765  0.2213 -1.2034  0.9812
  655MOL0     H90370   0.563   3.087  12.305  1.7544  1.8277 -3.9562
  655MOL0     H90371   0.625   2.872  12.191 -1.2195 -0.9300 -3.5110
  655MOL0     H90372   0.601   2.617  11.915 -3.5544  0.2897 -0.8205
  655MOL0     H90373   0.730   2.455  11.792  1.2354 -2.7004  0.1630
  655MOL0     H90374   1.534   1.030  10.754 -0.1674 -0.0711  0.5297
  655MOL0     H90375   1.513   0.878  10.576 -0.6397  0.2309 -0.3681
  655MOL0     H90376   1.053   0.821  10.191 -0.7216 -0.0502  1.6454
  655MOL0     H90377   1.006   0.617  10.071  0.1646  0.1914  2.2765
  655MOL0     H90378   0.985   0.384  10.004 -0.2966 -0.6470 -0.3320
  655MOL0     H90379   1.039   0.460   9.851 -1.6348 -1.1801 -0.8405
  655MOL0     H90380   0.981   0.218   9.856 -0.9150  2.1637  1.4464
  655MOL0     H90381   1.119   0.185   9.958  0.8360  2.8548  1.5610
  655MOL0     H90382   1.201   0.318   9.699  2.2432 -1.5737 -1.9150
  655MOL0     H90383   1.290   0.217   9.792  0.6094  2.3774 -2.3247
  655MOL0     H90384   1.195   0.086   9.581  0.9346  2.1016  0.3139
  655MOL0     H90385   1.035   0.130   9.646 -0.7923 -0.6751  0.2466
  655MOL0     H90386   1.204  -0.206   9.867  0.5316 -0.4516  0.6202
  655MOL0     H90387   1.418   0.516  10.076  0.4465 -0.4378 -0.6382
  655MOL0     H90388   1.543   0.724  10.280  0.8936  0.9241 -0.9498
  655MOL0     H90389   1.598   0.651  10.131  1.6670 -0.9389  3.4218
  655MOL0     H90390   1.556   0.816  10.125  0.7777 -1.1179 -1.8219
  656MOL0     O90391   7.613   0.788   6.830  0.0007  0.2716  0.3692
  656MOL0     C90392   7.537   0.709   6.887  0.3625  0.5501 -0.4314
  656MOL0     O90393   7.417   0.741   6.942  0.1976 -0.0982  0.6641
  656MOL0     C90394   7.405   0.879   6.956 -0.1681 -0.5766  0.4282
  656MOL0     C90395   7.327   0.955   6.871 -0.9020 -0.8394  0.3409
  656MOL0     C90396   7.326   1.096   6.897 -0.6533  0.1764 -0.7844
  656MOL0     C90397   7.382   1.160   7.002  0.7161 -0.8066 -0.3678
  656MOL0     O90398   7.383   1.302   7.023 -0.7753  0.2516 -0.3054
  656MOL0     C90399   7.323   1.399   6.934  0.1313 -0.0725 -0.4985
  656MOL0     C90400   7.442   1.427   6.853 -0.4646 -0.0124  0.4370
  656MOL0     C90401   7.434   1.532   6.742 -0.5628 -1.1344 -0.0006
  656MOL0     C90402   7.424   1.682   6.812  0.5065 -0.1435  0.9047
  656MOL0     C90403   7.404   1.787   6.695 -0.5346  0.5446  1.2525
  656MOL0     C90404   7.397   1.923   6.759  0.4871  0.3376 -0.9433
  656MOL0     C90405   7.397   2.042   6.652 -0.0462  0.1407 -0.7310
  656MOL0     C90406   7.363   2.185   6.700  0.2933 -0.4286  0.2183
  656MOL0     N90407   7.467   2.256   6.783  0.7653  0.5348 -0.8905
  656MOL0     C90408   7.594   2.287   6.741 -0.3705 -0.3972 -0.2532
  656MOL0     C90409   7.648   2.360   6.835  0.1867  0.1520 -0.9149
  656MOL0     C90410   7.763   2.450   6.821  0.0155  0.6215 -0.0993
  656MOL0     C90411   7.749   2.599   6.822  0.9906  0.8823 -0.2266
  656MOL0     C90412   7.691   2.647   6.956 -1.6616  0.1252  0.2979
  656MOL0     C90413   7.803   2.644   7.063  0.4095  0.8813 -0.0480
  656MOL0     O90414   7.757   2.696   7.192  0.4725  0.9554  1.2426
  656MOL0     C90415   7.686   2.613   7.283  0.7936 -0.6468 -0.3312
  656MOL0     C90416   7.639   2.669   7.401 -0.7387  0.1007  0.1718
  656MOL0     C90417   7.567   2.600   7.496 -0.4072  0.2510  0.1649
  656MOL0     C90418   7.522   2.679   7.614 -0.8100 -0.6295 -1.3193
  656MOL0     C90419   7.553   2.457   7.482 -0.4210  0.0284  1.5026
  656MOL0     C90420   7.496   2.372   7.590 -1.9050  0.2576  0.5475
  656MOL0     O90421   7.576   2.278   7.636  0.3449 -0.0244 -0.6092
  656MOL0     C90422   7.511   2.183   7.711  0.1962 -0.0541 -0.8022
  656MOL0     C90423   7.434   2.088   7.651  0.8083 -0.1357 -0.1481
  656MOL0     C90424   7.363   1.997   7.720  0.1843 -0.1370  0.5347
  656MOL0     C90425   7.366   1.984   7.867 -0.6908 -0.5740  0.1501
  656MOL0     O90426   7.320   1.889   7.953 -0.1086 -0.5408  0.7492
  656MOL0     C90427   7.241   1.780   7.907  0.2259  0.6517 -0.4590
  656MOL0     C90428   7.097   1.829   7.849  0.8751  0.3473 -0.3080
  656MOL0     C90429   7.018   1.910   7.951  0.1912 -0.3355 -0.5109
  656MOL0     C90430   6.925   2.020   7.886 -0.2636  0.5018  0.5929
  656MOL0     C90431   7.012   2.127   7.810 -0.3614  0.2409  0.0205
  656MOL0     C90432   6.978   2.132   7.656 -0.5984  0.5248 -0.0067
  656MOL0     C90433   7.051   2.235   7.573 -0.2391 -0.1102 -0.1504
  656MOL0     C90434   6.993   2.374   7.595  1.0396 -0.0065 -0.0229
  656MOL0    Cl90435   6.819   2.369   7.532  0.2259 -0.6126 -0.4214
  656MOL0     C90436   7.455   2.085   7.929  0.1028  0.4222  0.2701
  656MOL0     C90437   7.526   2.175   7.852 -0.3729  0.5552  0.3616
  656MOL0     O90438   7.382   2.393   7.626  0.7256  0.8771 -0.3735
  656MOL0     C90439   7.598   2.399   7.361 -0.2615 -0.1695 -0.3485
  656MOL0     C90440   7.654   2.478   7.265 -0.6001  0.3304  1.1653
  656MOL0     N90441   7.562   2.357   6.945 -0.8411  0.4978 -0.7456
  656MOL0     N90442   7.451   2.297   6.914 -0.2067  0.2649 -0.3858
  656MOL0     C90443   7.452   1.078   7.089  0.5157  0.0456 -0.4925
  656MOL0     C90444   7.463   0.940   7.069  0.9645 -0.3596 -0.4957
  656MOL0     C90445   7.585   0.560   6.890 -0.4901 -0.8796  0.8730
  656MOL0     C90446   7.503   0.445   6.918 -0.4834  0.0235 -1.2393
  656MOL0     C90447   7.538   0.315   6.905 -0.5604 -0.0258  0.6652
  656MOL0     C90448   7.661   0.275   6.862  0.0359  0.2799 -0.2274
  656MOL0     O90449   7.683   0.145   6.841 -0.6568 -0.2407 -0.0652
  656MOL0     C90450   7.818   0.102   6.800 -0.1245 -0.6085 -0.1984
  656MOL0     C90451   7.840  -0.045   6.808  0.6236 -0.0558  0.0342
  656MOL0     C90452   7.945  -0.091   6.907 -0.2237 -0.4134 -0.0730
  656MOL0     C90453   7.980  -0.241   6.893  0.0507 -0.2296  0.0543
  656MOL0     C90454   8.070  -0.280   6.782  0.1125 -0.2482 -0.2598
  656MOL0     C90455   8.161  -0.321   6.719 -0.4503 -0.4352  0.2063
  656MOL0     C90456   7.752   0.378   6.844 -0.5053  0.0486 -0.3699
  656MOL0     C90457   7.722   0.518   6.863  0.0034  0.2814 -0.9664
  656MOL0     C90458   7.836   0.611   6.855 -0.2696 -0.1183 -0.3667
  656MOL0     H90459   7.277   0.912   6.784  0.9832 -2.1178 -0.1719
  656MOL0     H90460   7.266   1.154   6.828 -2.2304 -0.2397  0.1764
  656MOL0     H90461   7.290   1.490   6.985 -0.5161  0.4909 -1.8696
  656MOL0     H90462   7.242   1.355   6.874 -1.2536  0.1088  1.1627
  656MOL0     H90463   7.518   1.462   6.924 -2.0355 -1.0593  2.7688
  656MOL0     H90464   7.488   1.336   6.813 -0.5236 -0.2729  0.9512
  656MOL0     H90465   7.530   1.528   6.690  2.3312 -2.5911  4.7409
  656MOL0     H90466   7.350   1.502   6.679 -0.9270 -1.6782  0.7167
  656MOL0     H90467   7.334   1.691   6.874  1.0239 -1.8227  1.9764
  656MOL0     H90468   7.512   1.723   6.862  0.2644  1.9021 -0.2512
  656MOL0     H90469   7.312   1.767   6.640  0.1030  1.1162 -0.0699
  656MOL0     H90470   7.478   1.804   6.616 -1.6310 -0.0445  0.0533
  656MOL0     H90471   7.319   1.939   6.835  0.8736 -1.3974 -0.1220
  656MOL0     H90472   7.491   1.927   6.815 -0.5810 -0.5453  1.0415
  656MOL0     H90473   7.331   2.017   6.569  0.4119  2.5471 -1.9253
  656MOL0     H90474   7.489   2.047   6.593  1.1812  1.7395  1.2011
  656MOL0     H90475   7.344   2.253   6.616  4.7074 -1.8176 -2.2252
  656MOL0     H90476   7.277   2.175   6.767 -1.5944 -1.1129 -2.1701
  656MOL0     H90477   7.629   2.266   6.640  0.4988 -2.3648  0.4091
  656MOL0     H90478   7.813   2.420   6.728  2.7485  0.0998  1.4218
  656MOL0     H90479   7.835   2.427   6.901  0.4633  1.4555 -0.2526
  656MOL0     H90480   7.845   2.647   6.802  0.8208  1.6684  0.7709
  656MOL0     H90481   7.680   2.621   6.740 -0.9621 -0.0932  1.0737
  656MOL0     H90482   7.639   2.740   6.930 -2.3898  0.1271  1.6714
  656MOL0     H90483   7.617   2.581   7.002 -0.0100 -0.0957  2.7638
  656MOL0     H90484   7.863   2.552   7.067  0.4318  0.8169 -1.6020
  656MOL0     H90485   7.882   2.711   7.028  0.2101 -0.2287 -2.8144
  656MOL0     H90486   7.649   2.776   7.411 -0.7768  0.1012  0.2048
  656MOL0     H90487   7.611   2.706   7.671 -1.1971  0.8632 -1.3685
  656MOL0     H90488   7.458   2.625   7.684 -2.3910  0.3478 -1.9433
  656MOL0     H90489   7.456   2.764   7.593 -0.6960  0.1939  1.2235
  656MOL0     H90490   7.406   2.087   7.546 -2.2293  0.3169  0.5663
  656MOL0     H90491   7.311   1.924   7.659 -2.2048  2.7420 -1.1211
  656MOL0     H90492   7.296   1.742   7.821  1.8661 -0.6615  1.1006
  656MOL0     H90493   7.223   1.713   7.993 -0.5762  0.1491 -0.9996
  656MOL0     H90494   7.119   1.887   7.758 -2.1846  1.0026 -0.7312
  656MOL0     H90495   7.042   1.739   7.821  1.9377 -0.3787 -0.1193
  656MOL0     H90496   7.093   1.951   8.020 -2.2492  2.3409  0.7554
  656MOL0     H90497   6.953   1.839   8.002 -0.4916 -0.4589 -1.5276
  656MOL0     H90498   6.859   2.055   7.966 -1.2280 -1.1764  0.5819
  656MOL0     H90499   6.848   1.977   7.823  1.3485  0.4389 -1.4396
  656MOL0     H90500   6.995   2.222   7.860 -1.7352 -0.3068  0.6574
  656MOL0     H90501   7.121   2.112   7.813 -0.1748  1.5781  0.1325
  656MOL0     H90502   6.870   2.146   7.643 -0.6265 -0.1761 -0.5530
  656MOL0     H90503   7.013   2.044   7.602  1.0430  0.8560  0.4758
  656MOL0     H90504   7.048   2.209   7.467 -0.8793 -1.2608  0.1330
  656MOL0     H90505   7.157   2.245   7.599 -0.6521  1.1242  1.1561
  656MOL0     H90506   7.060   2.433   7.533 -1.2530  1.4922 -1.2460
  656MOL0     H90507   6.993   2.406   7.700 -0.0495  1.5133 -0.4590
  656MOL0     H90508   7.464   2.097   8.036 -1.1867  0.1996  0.4230
  656MOL0     H90509   7.584   2.260   7.889 -0.3684  3.4406 -5.2180
  656MOL0     H90510   7.585   2.294   7.340  1.7420  0.0149 -3.0055
  656MOL0     H90511   7.689   2.414   7.185  0.3567 -2.1817  3.4345
  656MOL0     H90512   7.488   1.113   7.185  0.1550 -2.4716  0.6418
  656MOL0     H90513   7.526   0.888   7.140  0.6185  0.2771  0.2940
  656MOL0     H90514   7.408   0.459   6.968 -0.1498 -3.9459  0.8567
  656MOL0     H90515   7.462   0.246   6.942  0.4352 -0.0737  2.7849
  656MOL0     H90516   7.845   0.145   6.702  1.9100 -2.0632 -0.3557
  656MOL0     H90517   7.889   0.141   6.874  2.5205  1.4141 -3.4665
  656MOL0     H90518   7.875  -0.077   6.709 -0.0191 -2.7575  0.5861
  656MOL0     H90519   7.750  -0.106   6.820  1.5322 -1.7904 -1.4676
  656MOL0     H90520   8.044  -0.045   6.900 -0.4455 -0.0482 -0.9862
  656MOL0     H90521   7.913  -0.073   7.009 -2.1028  1.1075 -0.8695
  656MOL0     H90522   7.883  -0.289   6.880 -0.7656  2.0599 -3.4087
  656MOL0     H90523   8.023  -0.266   6.991 -1.6085 -1.0360  0.6162
  656MOL0     H90524   8.237  -0.350   6.649  1.8173  2.7010  1.1024
  656MOL0     H90525   7.850   0.350   6.806 -0.3399 -0.3928  0.3624
  656MOL0     H90526   7.834   0.669   6.763 -1.2595  0.5352  0.0394
  656MOL0     H90527   7.835   0.680   6.940  5.7960 -1.7916  1.5481
  656MOL0     H90528   7.928   0.552   6.863 -0.8652 -0.9338  0.8415
  657MOL0     O90529   6.678   0.878   6.638  0.6141 -0.3400  0.5551
  657MOL0     C90530   6.591   0.954   6.678  0.4577  0.4438  0.2240
  657MOL0     O90531   6.604   1.096   6.692  0.3287 -0.0282 -0.3001
  657MOL0     C90532   6.734   1.129   6.679  0.1001 -0.7215  0.7624
  657MOL0     C90533   6.816   1.148   6.788 -0.3343  0.0649 -0.1803
  657MOL0     C90534   6.949   1.178   6.769  0.5816  0.0505 -0.4041
  657MOL0     C90535   7.002   1.191   6.629 -0.3892 -0.5895  0.4945
  657MOL0     O90536   7.134   1.230   6.613 -0.5952  0.2964  0.6377
  657MOL0     C90537   7.211   1.117   6.566  1.0416 -0.0003 -0.9951
  657MOL0     C90538   7.353   1.160   6.528  0.4843  0.6803  0.0287
  657MOL0     C90539   7.451   1.041   6.506 -0.2045 -0.6666 -0.2221
  657MOL0     C90540   7.583   1.101   6.463  0.3639 -0.5436  0.3079
  657MOL0     C90541   7.712   1.026   6.487 -0.2200  0.3607 -0.0348
  657MOL0     C90542   7.755   0.913   6.388  0.1844 -0.0096  0.3979
  657MOL0     C90543   7.680   0.784   6.417  0.2782 -0.6844 -0.1112
  657MOL0     C90544   7.739   0.669   6.335 -0.6292  0.6510  0.2383
  657MOL0     N90545   7.863   0.613   6.369 -0.0262 -0.6582 -0.2233
  657MOL0     C90546   7.878   0.506   6.453  0.4132  0.3737 -0.3008
  657MOL0     C90547   8.005   0.490   6.460  0.0793  0.4268 -0.9584
  657MOL0     C90548   8.049   0.356   6.519  0.4364  0.4493  0.5926
  657MOL0     C90549   8.081   0.277   6.397  0.3396  0.1800  0.5980
  657MOL0     C90550   8.096   0.125   6.408  0.7818  0.2070 -0.3077
  657MOL0     C90551   8.173   0.066   6.526 -1.4235  0.6856 -0.1123
  657MOL0     O90552   8.302   0.126   6.528 -0.2107  0.8712  0.0803
  657MOL0     C90553   8.397   0.046   6.468 -0.7176 -0.3343  0.2471
  657MOL0     C90554   8.442   0.076   6.334  0.2910 -0.0277  0.5860
  657MOL0     C90555   8.548  -0.003   6.279  0.6870 -0.2107  0.5178
  657MOL0     C90556   8.591   0.021   6.143  0.0253 -0.1551 -0.3639
  657MOL0     C90557   8.611  -0.101   6.361 -0.0500  1.4240  0.1902
  657MOL0     C90558   8.713  -0.192   6.302 -0.1972 -0.4566 -0.4055
  657MOL0     O90559   8.829  -0.196   6.374  0.2115 -0.1402 -0.6388
  657MOL0     C90560   8.904  -0.312   6.378 -0.3053  0.8304  0.3315
  657MOL0     C90561   8.858  -0.434   6.347 -0.2788  0.3327 -0.8981
  657MOL0     C90562   8.937  -0.555   6.347  0.2273 -0.1619  1.0343
  657MOL0     C90563   9.071  -0.546   6.372 -0.4209  0.8533 -0.4927
  657MOL0     O90564   9.155  -0.652   6.363  1.2524 -0.1601 -0.1148
  657MOL0     C90565   9.096  -0.786   6.334  0.3052  0.7478  0.0893
  657MOL0     C90566   9.207  -0.897   6.338  0.5662  1.1683  0.8321
  657MOL0     C90567   9.279  -0.924   6.479  0.5560  0.1231  0.0965
  657MOL0     C90568   9.386  -1.028   6.477  0.7201 -0.2635 -0.5041
  657MOL0     C90569   9.444  -1.057   6.618 -0.1637 -0.0636  0.3227
  657MOL0     C90570   9.359  -1.159   6.707 -0.5226 -0.9388  0.2257
  657MOL0     C90571   9.367  -1.295   6.648  0.1286  0.1425  0.5823
  657MOL0     C90572   9.319  -1.399   6.744 -0.2295  0.0404 -0.2674
  657MOL0    Cl90573   9.459  -1.449   6.853  0.0862 -0.6310 -0.0310
  657MOL0     C90574   9.134  -0.418   6.397  0.2387  1.2442 -0.1466
  657MOL0     C90575   9.044  -0.311   6.395  0.1840  0.4112 -0.4067
  657MOL0     O90576   8.692  -0.248   6.196 -0.4589  0.1657 -0.2061
  657MOL0     C90577   8.558  -0.130   6.492 -0.0771  0.9617  0.3583
  657MOL0     C90578   8.461  -0.047   6.539  1.1474 -0.1933  0.5331
  657MOL0     N90579   8.074   0.586   6.382  0.7959  0.8681 -0.4754
  657MOL0     N90580   7.984   0.660   6.334 -0.4676 -0.1380 -0.0946
  657MOL0     C90581   6.923   1.159   6.522  0.5376 -0.1518  0.1546
  657MOL0     C90582   6.785   1.141   6.547 -0.2398  0.4680  0.5459
  657MOL0     C90583   6.450   0.903   6.668 -0.2237 -0.9359  0.6717
  657MOL0     C90584   6.352   0.989   6.604 -0.4283  0.1058  0.7548
  657MOL0     C90585   6.219   0.953   6.596  0.0156 -0.3084  0.3437
  657MOL0     C90586   6.176   0.829   6.653 -1.5501  0.3197 -0.4268
  657MOL0     O90587   6.042   0.796   6.652 -0.1422 -0.0755 -0.0325
  657MOL0     C90588   5.962   0.846   6.754 -0.3608  0.3645 -0.5983
  657MOL0     C90589   5.815   0.799   6.745 -0.1859 -0.2107 -0.1820
  657MOL0     C90590   5.727   0.884   6.838 -0.5290  0.4275  0.1436
  657MOL0     C90591   5.593   0.803   6.858  1.3632 -1.0634 -0.1647
  657MOL0     C90592   5.529   0.776   6.729 -0.0019  0.1344 -0.2479
  657MOL0     C90593   5.476   0.753   6.616 -0.2575  0.2235  0.3206
  657MOL0     C90594   6.273   0.747   6.711 -1.0806  0.0911 -0.0959
  657MOL0     C90595   6.410   0.782   6.732 -0.3139  0.0800 -0.5373
  657MOL0     C90596   6.500   0.694   6.819  0.4603  0.2184 -0.1870
  657MOL0     H90597   6.784   1.134   6.891  1.8969 -0.2420  0.5380
  657MOL0     H90598   7.016   1.191   6.854  1.7801 -2.7559 -0.8102
  657MOL0     H90599   7.166   1.073   6.476 -0.3261  1.8805 -1.2824
  657MOL0     H90600   7.217   1.037   6.641 -1.3512 -0.1216 -0.8554
  657MOL0     H90601   7.345   1.221   6.437 -1.5357  0.7349  0.1918
  657MOL0     H90602   7.396   1.219   6.609  1.4488  0.5873 -0.4055
  657MOL0     H90603   7.446   0.995   6.605 -4.0999  0.1479  0.1408
  657MOL0     H90604   7.416   0.972   6.428 -0.0089  1.0819 -1.9363
  657MOL0     H90605   7.586   1.128   6.357  2.2296  0.7111  0.6227
  657MOL0     H90606   7.600   1.194   6.519  1.1042  0.0641 -0.8975
  657MOL0     H90607   7.706   0.989   6.589 -1.1312  0.9150  0.1270
  657MOL0     H90608   7.796   1.095   6.483  3.1489 -3.2794  1.5955
  657MOL0     H90609   7.752   0.947   6.284  1.8616 -1.3634 -0.1406
  657MOL0     H90610   7.862   0.896   6.400  0.1647 -1.5060 -1.0979
  657MOL0     H90611   7.574   0.786   6.389  1.0589 -0.8150 -3.4420
  657MOL0     H90612   7.684   0.764   6.525 -1.5258  1.5440  0.4444
  657MOL0     H90613   7.669   0.586   6.343  0.2719 -0.0279  1.3133
  657MOL0     H90614   7.755   0.708   6.234 -1.5528  2.8458  0.8695
  657MOL0     H90615   7.803   0.431   6.478  0.8036  0.7639  2.2721
  657MOL0     H90616   7.968   0.296   6.562  1.8856 -3.7267 -1.9529
  657MOL0     H90617   8.134   0.368   6.587  1.1216  3.8380 -0.6874
  657MOL0     H90618   8.010   0.281   6.313  0.0061  0.6294  0.8964
  657MOL0     H90619   8.176   0.328   6.378 -0.3566  1.7043  1.0315
  657MOL0     H90620   7.994   0.085   6.413  2.1455 -3.7808 -0.4632
  657MOL0     H90621   8.135   0.082   6.315  1.1791 -2.3244  0.9328
  657MOL0     H90622   8.133   0.090   6.625  4.4828 -2.0253  3.5046
  657MOL0     H90623   8.172  -0.044   6.520 -1.0132  0.5775  1.3792
  657MOL0     H90624   8.401   0.162   6.283 -1.3271 -1.6315 -0.9599
  657MOL0     H90625   8.695  -0.009   6.125  0.0622 -0.0256 -0.3705
  657MOL0     H90626   8.581   0.128   6.122 -1.2588 -0.5364 -1.8849
  657MOL0     H90627   8.533  -0.027   6.064  3.3842  0.9906 -3.8721
  657MOL0     H90628   8.750  -0.449   6.344 -0.5915  2.0165  0.1056
  657MOL0     H90629   8.895  -0.650   6.317 -1.4187  1.0743 -0.8375
  657MOL0     H90630   9.030  -0.821   6.413  1.6970 -0.5420  0.7373
  657MOL0     H90631   9.043  -0.795   6.239 -0.0266 -1.1293  0.4043
  657MOL0     H90632   9.157  -0.980   6.287  0.6729  0.6530  1.5437
  657MOL0     H90633   9.290  -0.865   6.274  1.7653 -0.3131  1.5942
  657MOL0     H90634   9.204  -0.949   6.554  0.7535  0.7107  0.4950
  657MOL0     H90635   9.330  -0.830   6.499 -0.0038  1.5593 -4.0587
  657MOL0     H90636   9.470  -0.974   6.432 -0.3690  0.6553 -1.5490
  657MOL0     H90637   9.361  -1.115   6.415  2.8557 -0.6146 -0.9503
  657MOL0     H90638   9.549  -1.086   6.612  0.5769  2.5422 -0.6369
  657MOL0     H90639   9.453  -0.966   6.677  1.2972 -1.1767  1.9262
  657MOL0     H90640   9.255  -1.130   6.721  0.3709  0.9199  5.0699
  657MOL0     H90641   9.402  -1.173   6.806 -5.1948 -1.4039  2.4551
  657MOL0     H90642   9.468  -1.325   6.618 -0.1090 -1.2066  1.0501
  657MOL0     H90643   9.290  -1.299   6.570  0.2757 -0.4381  0.4649
  657MOL0     H90644   9.278  -1.492   6.704 -5.3067  2.2139 -0.8891
  657MOL0     H90645   9.231  -1.369   6.802  0.4922 -1.8061  1.9017
  657MOL0     H90646   9.241  -0.402   6.394  0.3963  0.1170 -0.8661
  657MOL0     H90647   9.077  -0.208   6.410 -2.8918  1.1916  2.0634
  657MOL0     H90648   8.596  -0.211   6.554  0.0707  0.3408 -0.5291
  657MOL0     H90649   8.425  -0.060   6.640 -1.0457  0.2829 -0.1408
  657MOL0     H90650   6.955   1.161   6.418  1.2855  1.6658  0.3823
  657MOL0     H90651   6.729   1.128   6.455  1.3379  0.2634 -0.4131
  657MOL0     H90652   6.376   1.090   6.570  0.6595  0.8311  3.4523
  657MOL0     H90653   6.145   1.013   6.545  0.2049  0.1921  0.6492
  657MOL0     H90654   6.004   0.789   6.838  3.8010  1.0490 -2.0024
  657MOL0     H90655   5.956   0.954   6.768 -1.2682  0.3234 -0.6132
  657MOL0     H90656   5.809   0.691   6.762 -1.8456 -0.1522 -0.3130
  657MOL0     H90657   5.785   0.806   6.640  0.6072 -3.6706 -0.7742
  657MOL0     H90658   5.778   0.905   6.933 -1.3946 -0.7278  0.8873
  657MOL0     H90659   5.709   0.985   6.800  4.1150  2.2819  2.0797
  657MOL0     H90660   5.529   0.870   6.917  0.2749 -1.6524 -0.6302
  657MOL0     H90661   5.607   0.708   6.911  2.5502 -1.1748 -0.6483
  657MOL0     H90662   5.436   0.732   6.520  1.7242  1.4507 -0.8555
  657MOL0     H90663   6.231   0.662   6.764 -1.5961  0.3445 -0.0914
  657MOL0     H90664   6.587   0.750   6.854  0.0473  0.8769 -0.2082
  657MOL0     H90665   6.443   0.655   6.904  0.2783 -2.2934 -1.3515
  657MOL0     H90666   6.541   0.607   6.766  3.9504  2.0464 -0.8448
  658MOL0     O90667   1.286   3.946  11.164 -0.0854  0.3915 -0.9576
  658MOL0     C90668   1.162   3.959  11.154  0.8921 -0.4400 -0.0050
  658MOL0     O90669   1.087   4.075  11.137  0.8152  0.2740  0.4666
  658MOL0     C90670   1.142   4.191  11.101  0.4845 -0.6780 -0.2231
  658MOL0     C90671   1.074   4.269  11.017 -0.8247 -1.3469  1.0954
  658MOL0     C90672   1.123   4.390  10.969  0.8738 -0.1811  0.0779
  658MOL0     C90673   1.250   4.435  10.996 -0.1026 -0.0106  0.4142
  658MOL0     O90674   1.281   4.562  10.962 -0.0477  0.5075 -0.3373
  658MOL0     C90675   1.412   4.612  10.997  0.0971 -1.4301  0.0130
  658MOL0     C90676   1.427   4.768  10.962 -0.0347  0.5736 -0.3423
  658MOL0     C90677   1.349   4.852  11.054 -0.1099 -0.2463 -0.1213
  658MOL0     C90678   1.408   5.000  11.052 -1.0018 -0.1808  0.1937
  658MOL0     C90679   1.298   5.103  11.088 -0.5706  0.7754  0.8711
  658MOL0     C90680   1.350   5.246  11.074  0.3135 -0.2990  0.0903
  658MOL0     C90681   1.386   5.319  10.945  0.2821  0.4181 -0.8301
  658MOL0     C90682   1.261   5.357  10.867 -0.5290 -0.2428 -0.5349
  658MOL0     N90683   1.287   5.389  10.721  0.5036 -0.8093 -1.0704
  658MOL0     C90684   1.404   5.403  10.647 -0.2993 -0.3711  0.5811
  658MOL0     C90685   1.359   5.417  10.521 -0.4337 -1.5249 -0.3814
  658MOL0     C90686   1.437   5.483  10.406 -0.4372  0.7810 -0.6572
  658MOL0     C90687   1.420   5.637  10.412 -0.2237 -0.6381 -0.1634
  658MOL0     C90688   1.495   5.704  10.303 -0.6596 -0.6736  0.2352
  658MOL0     C90689   1.446   5.849  10.275 -1.5237  0.3502  0.3905
  658MOL0     O90690   1.432   5.916  10.393  0.4268  0.0705  0.1002
  658MOL0     C90691   1.522   6.013  10.440  0.0986  0.3208  0.0618
  658MOL0     C90692   1.482   6.120  10.525  0.2370  0.7632 -0.2846
  658MOL0     C90693   1.579   6.202  10.586 -0.3084 -0.5333 -0.9051
  658MOL0     C90694   1.534   6.295  10.690 -1.0330 -0.1353 -0.0812
  658MOL0     C90695   1.716   6.202  10.544 -0.7833  0.9916 -1.2393
  658MOL0     C90696   1.822   6.301  10.587  0.0584 -0.7181  1.0163
  658MOL0     O90697   1.947   6.283  10.542  0.7639  0.2192  0.3137
  658MOL0     C90698   2.042   6.380  10.582 -1.0497  0.6281  0.8870
  658MOL0     C90699   2.142   6.339  10.653 -0.3728  0.1208  0.3265
  658MOL0     C90700   2.234   6.434  10.709  0.6800  0.3262 -0.5922
  658MOL0     C90701   2.226   6.572  10.679  0.2556 -0.6789  0.0547
  658MOL0     O90702   2.301   6.678  10.728 -0.1453 -0.1657 -0.1066
  658MOL0     C90703   2.398   6.660  10.827  0.1606 -0.0442 -0.4640
  658MOL0     C90704   2.338   6.668  10.973 -0.4386 -0.5098 -0.3731
  658MOL0     C90705   2.327   6.810  11.007  0.0156 -0.4312  0.4476
  658MOL0     C90706   2.446   6.862  11.076 -0.4980 -0.0404 -0.4832
  658MOL0     C90707   2.484   6.997  11.042  0.4617 -0.2169 -0.6929
  658MOL0     C90708   2.635   7.029  11.078 -0.1080 -0.8090 -0.6668
  658MOL0     C90709   2.668   7.176  11.034 -0.5782 -1.0776 -0.7704
  658MOL0     C90710   2.605   7.277  11.128  0.0907 -0.0574  0.5402
  658MOL0    Cl90711   2.676   7.280  11.291  0.0822 -0.2329 -0.1141
  658MOL0     C90712   2.123   6.607  10.593  0.4455 -0.7736  0.6569
  658MOL0     C90713   2.029   6.514  10.549  0.5776 -0.1769 -0.2153
  658MOL0     O90714   1.786   6.403  10.650 -0.3344  0.0172  0.3374
  658MOL0     C90715   1.755   6.107  10.449  0.4125  0.1005  0.7844
  658MOL0     C90716   1.658   6.006  10.406 -1.2738 -0.6862 -0.1737
  658MOL0     N90717   1.229   5.372  10.516 -0.3090 -1.0245 -0.0197
  658MOL0     N90718   1.183   5.359  10.636 -0.2337 -0.1992 -0.0695
  658MOL0     C90719   1.322   4.360  11.085 -1.2814  1.2958 -0.5542
  658MOL0     C90720   1.269   4.242  11.146 -0.1112  0.2384  0.4362
  658MOL0     C90721   1.077   3.845  11.180 -0.5430 -0.7886  0.1313
  658MOL0     C90722   0.965   3.879  11.265  0.2924  0.6618  0.5694
  658MOL0     C90723   0.876   3.779  11.302  0.3731 -1.4841  0.3614
  658MOL0     C90724   0.898   3.651  11.275  0.2242  0.7639  0.6941
  658MOL0     O90725   0.806   3.556  11.309 -0.2311 -1.3250  0.2346
  658MOL0     C90726   0.824   3.505  11.442 -1.4069 -0.1684 -0.2758
  658MOL0     C90727   0.757   3.378  11.460 -0.3138 -0.2054  0.1105
  658MOL0     C90728   0.767   3.319  11.599 -0.9685  0.6069  0.1468
  658MOL0     C90729   0.625   3.285  11.663  0.3245  0.5678  0.9523
  658MOL0     C90730   0.627   3.210  11.786 -0.5237  0.5664 -0.4056
  658MOL0     C90731   0.653   3.130  11.872 -0.3129 -0.5103 -0.2970
  658MOL0     C90732   1.005   3.612  11.191  0.1880 -0.1700  0.1865
  658MOL0     C90733   1.095   3.710  11.148 -0.0762  0.4211 -0.6763
  658MOL0     C90734   1.208   3.676  11.066 -0.1928 -0.1511 -0.0048
  658MOL0     H90735   0.975   4.233  10.991 -1.4358 -0.1784  1.7711
  658MOL0     H90736   1.056   4.440  10.899  2.3252  1.2315 -0.3680
  658MOL0     H90737   1.475   4.549  10.933  0.7472  2.5769 -3.6830
  658MOL0     H90738   1.447   4.586  11.098 -1.5757  2.7942  1.9307
  658MOL0     H90739   1.533   4.790  10.977 -0.9841  3.6191  3.4028
  658MOL0     H90740   1.398   4.795  10.860  0.3888 -2.3637 -1.3446
  658MOL0     H90741   1.252   4.864  11.005 -0.5192  2.2777  1.1584
  658MOL0     H90742   1.335   4.809  11.153  0.5373 -0.2650 -0.0352
  658MOL0     H90743   1.494   5.011  11.117 -1.7590  1.9132  0.9203
  658MOL0     H90744   1.441   5.038  10.955 -0.3436  2.0298  1.2310
  658MOL0     H90745   1.268   5.091  11.193 -3.7855 -2.4640 -0.1720
  658MOL0     H90746   1.213   5.072  11.025  1.8233 -2.0652 -1.2472
  658MOL0     H90747   1.271   5.306  11.120 -1.1165 -0.4182 -2.0789
  658MOL0     H90748   1.434   5.248  11.144 -0.9013 -2.9367  1.7509
  658MOL0     H90749   1.445   5.242  10.894  3.6076  1.3957  1.2726
  658MOL0     H90750   1.442   5.410  10.967 -0.7808  1.0260 -0.5801
  658MOL0     H90751   1.182   5.281  10.870  0.5653 -1.3745  0.6490
  658MOL0     H90752   1.216   5.449  10.907 -3.3381 -2.3652  1.6414
  658MOL0     H90753   1.500   5.434  10.685 -1.0484  4.5761 -0.8780
  658MOL0     H90754   1.405   5.439  10.311  0.0830  1.2655 -1.0615
  658MOL0     H90755   1.538   5.450  10.432 -0.8079 -1.1969 -1.5243
  658MOL0     H90756   1.314   5.663  10.411 -0.3495 -1.1686 -0.5861
  658MOL0     H90757   1.460   5.676  10.507 -1.0509 -1.8714  0.7153
  658MOL0     H90758   1.595   5.691  10.344 -1.6455 -0.0573  3.0648
  658MOL0     H90759   1.488   5.669  10.199  0.3688 -0.6082  0.1338
  658MOL0     H90760   1.516   5.900  10.207  0.7145 -0.4527  1.9721
  658MOL0     H90761   1.349   5.846  10.225 -1.3357 -2.6668  0.0020
  658MOL0     H90762   1.380   6.109  10.561  0.0642 -4.6464 -1.5926
  658MOL0     H90763   1.427   6.281  10.708 -0.3873 -3.4954  2.1068
  658MOL0     H90764   1.552   6.395  10.649 -0.8656  0.0175  0.3614
  658MOL0     H90765   1.583   6.287  10.788  2.0866  1.9913 -1.2906
  658MOL0     H90766   2.156   6.233  10.672  2.4185  0.1502 -1.1090
  658MOL0     H90767   2.308   6.401  10.781  0.2317  1.3714  0.3651
  658MOL0     H90768   2.468   6.577  10.807 -1.0912 -0.3827 -4.2218
  658MOL0     H90769   2.470   6.742  10.820 -0.6160  0.7827  0.8631
  658MOL0     H90770   2.237   6.625  10.965 -0.8981  0.2345  1.0842
  658MOL0     H90771   2.397   6.613  11.046 -0.1680  0.1053 -0.1240
  658MOL0     H90772   2.249   6.831  11.081  0.6545  0.7360  0.8129
  658MOL0     H90773   2.302   6.858  10.912 -0.1084 -0.8720  0.2548
  658MOL0     H90774   2.531   6.806  11.035 -0.9544 -2.1196  1.2541
  658MOL0     H90775   2.442   6.846  11.184  2.2052 -0.8223 -0.4196
  658MOL0     H90776   2.478   7.005  10.933 -3.8909 -2.0543 -0.7686
  658MOL0     H90777   2.423   7.075  11.088 -0.0771 -0.5614 -0.8154
  658MOL0     H90778   2.713   6.967  11.032  1.9226  1.8129 -1.0482
  658MOL0     H90779   2.661   7.010  11.182  0.3159  2.1476 -0.1429
  658MOL0     H90780   2.629   7.189  10.932  0.5006 -2.9547 -1.4756
  658MOL0     H90781   2.775   7.198  11.027 -0.8660  0.2166 -1.5497
  658MOL0     H90782   2.498   7.270  11.150 -0.6474 -2.7420 -3.0370
  658MOL0     H90783   2.609   7.372  11.075  0.6745 -1.7260 -2.6683
  658MOL0     H90784   2.105   6.710  10.564  0.2333 -0.8122  0.6489
  658MOL0     H90785   1.952   6.571  10.498  4.1565  2.2557 -3.4908
  658MOL0     H90786   1.857   6.106  10.412 -0.0845 -2.0868 -0.6988
  658MOL0     H90787   1.703   5.934  10.338  1.6798 -0.3066  1.2293
  658MOL0     H90788   1.428   4.380  11.102 -1.6667  4.1721 -1.0290
  658MOL0     H90789   1.327   4.187  11.220 -3.3869 -0.5926  2.5818
  658MOL0     H90790   0.966   3.975  11.315  1.0341  0.3543  1.1603
  658MOL0     H90791   0.788   3.817  11.355 -0.5481 -0.8432 -1.5414
  658MOL0     H90792   0.929   3.488  11.467 -0.5396  1.5685 -2.3686
  658MOL0     H90793   0.783   3.580  11.510 -0.3098  1.0496 -0.9143
  658MOL0     H90794   0.799   3.310  11.385  2.1690 -1.4493  2.4802
  658MOL0     H90795   0.653   3.398  11.430 -1.0603 -0.5228  2.3288
  658MOL0     H90796   0.827   3.227  11.599  2.1426  2.4820 -0.4199
  658MOL0     H90797   0.805   3.399  11.664 -2.0972 -0.6388  2.4650
  658MOL0     H90798   0.562   3.229  11.594 -0.4201  2.2263  0.2421
  658MOL0     H90799   0.573   3.377  11.693 -2.3881 -0.4612 -0.3372
  658MOL0     H90800   0.676   3.064  11.953  0.0245 -0.4364 -0.3319
  658MOL0     H90801   1.015   3.507  11.162  1.8046 -0.4234  1.5119
  658MOL0     H90802   1.303   3.727  11.082 -0.4865  0.1284  0.9044
  658MOL0     H90803   1.244   3.573  11.073  0.9890  0.1880 -0.8112
  658MOL0     H90804   1.184   3.693  10.961  2.8157  0.1216 -0.7558
  659MOL0     O90805   9.619   4.837   0.425  0.2588 -1.1151  0.7103
  659MOL0     C90806   9.654   4.814   0.303  0.8815  0.0465 -0.3939
  659MOL0     O90807   9.553   4.823   0.207  0.7730  0.0586  0.9776
  659MOL0     C90808   9.465   4.928   0.198  0.3912  0.5517 -0.5087
  659MOL0     C90809   9.480   5.053   0.246  0.2243 -0.2243  0.5221
  659MOL0     C90810   9.386   5.160   0.229 -0.0494  0.0137  0.1209
  659MOL0     C90811   9.280   5.141   0.147 -0.2115 -0.5412 -0.2518
  659MOL0     O90812   9.194   5.244   0.131 -0.1221  0.3604 -0.1479
  659MOL0     C90813   9.074   5.221   0.047 -0.1220 -0.3209 -0.3632
  659MOL0     C90814   9.011   5.358   0.049 -0.1768  0.2062  0.3697
  659MOL0     C90815   8.879   5.367  -0.030 -0.7199 -0.9271  0.9577
  659MOL0     C90816   8.769   5.346   0.067  0.0134 -0.3588 -0.6589
  659MOL0     C90817   8.631   5.302   0.021 -1.3233 -0.4238  0.1295
  659MOL0     C90818   8.636   5.155  -0.024 -0.3051 -0.1532  0.0172
  659MOL0     C90819   8.514   5.116  -0.109  0.3371 -0.0875  0.4050
  659MOL0     C90820   8.390   5.134  -0.025 -0.6551 -1.0905  0.9757
  659MOL0     N90821   8.270   5.104  -0.115  0.8981  0.5496  0.0968
  659MOL0     C90822   8.221   5.190  -0.211  0.5295  0.4816 -0.2792
  659MOL0     C90823   8.126   5.120  -0.267  0.3958 -0.2379  0.7185
  659MOL0     C90824   8.057   5.166  -0.389 -0.1446 -0.1545 -0.8626
  659MOL0     C90825   8.085   5.069  -0.502  0.0867 -0.4722  0.1126
  659MOL0     C90826   8.242   5.071  -0.530  0.2373  0.1178 -0.4284
  659MOL0     C90827   8.269   5.011  -0.666 -0.0816 -0.8465 -0.2854
  659MOL0     O90828   8.237   5.115  -0.760 -0.3462 -0.1282 -0.5898
  659MOL0     C90829   8.347   5.165  -0.829 -0.6610 -0.3689 -0.6859
  659MOL0     C90830   8.423   5.086  -0.911  1.2256 -0.3881  0.0662
  659MOL0     C90831   8.547   5.126  -0.973  0.6722 -0.8449  0.1050
  659MOL0     C90832   8.620   5.022  -1.056 -0.5662 -0.1604  1.2557
  659MOL0     C90833   8.586   5.259  -0.946  0.4401 -0.6982  0.5393
  659MOL0     C90834   8.729   5.312  -0.981 -0.3666 -1.2679 -0.8013
  659MOL0     O90835   8.753   5.453  -0.954 -0.0631  0.5409 -0.1811
  659MOL0     C90836   8.880   5.492  -0.937  0.0582 -0.1610  0.4844
  659MOL0     C90837   9.003   5.427  -0.909  0.1172 -0.2278 -0.1016
  659MOL0     C90838   9.123   5.506  -0.887 -0.1562 -0.0291  0.0834
  659MOL0     C90839   9.120   5.645  -0.892 -0.0102 -0.2856  0.0625
  659MOL0     O90840   9.233   5.724  -0.867  0.0344 -0.0242  0.1497
  659MOL0     C90841   9.351   5.685  -0.934 -0.3022 -0.1456  0.3271
  659MOL0     C90842   9.465   5.652  -0.834 -0.2511  0.7164 -0.4908
  659MOL0     C90843   9.445   5.523  -0.758  0.2250  0.4771  0.8000
  659MOL0     C90844   9.573   5.500  -0.665 -0.3756  0.5532  0.2347
  659MOL0     C90845   9.597   5.619  -0.574 -0.5588 -1.4609  0.2888
  659MOL0     C90846   9.698   5.586  -0.471  0.1717  0.1871 -0.3192
  659MOL0     C90847   9.727   5.704  -0.372 -0.2364 -0.1766  0.1057
  659MOL0     C90848   9.852   5.689  -0.293 -0.4602  1.1145 -0.0784
  659MOL0    Cl90849   9.994   5.669  -0.395  0.3425  0.6080  0.2511
  659MOL0     C90850   8.998   5.712  -0.920 -0.1333  0.1390  0.6338
  659MOL0     C90851   8.888   5.635  -0.941 -0.4163  0.7158  0.6172
  659MOL0     O90852   8.803   5.232  -1.034 -0.1004  0.1947  0.6115
  659MOL0     C90853   8.504   5.342  -0.870  0.4383 -0.5637 -0.8486
  659MOL0     C90854   8.390   5.297  -0.819  0.6602 -0.3991  0.3679
  659MOL0     N90855   8.101   5.004  -0.194 -0.0995  0.4239 -0.0767
  659MOL0     N90856   8.195   4.988  -0.106 -0.2002 -0.1996  0.4151
  659MOL0     C90857   9.272   5.021   0.073  0.1046  0.2232  0.1127
  659MOL0     C90858   9.351   4.913   0.110 -1.1985 -0.4958  0.7730
  659MOL0     C90859   9.773   4.741   0.263 -0.0440 -0.6517  0.0297
  659MOL0     C90860   9.860   4.697   0.366  0.1442 -0.6726  0.3721
  659MOL0     C90861   9.985   4.633   0.341  0.8733 -0.5078 -0.4888
  659MOL0     C90862  10.019   4.586   0.221  0.7471  0.2279 -0.0929
  659MOL0     O90863  10.124   4.502   0.199 -0.4825  0.1896  0.3410
  659MOL0     C90864  10.229   4.461   0.287 -0.5279  0.8644  0.1773
  659MOL0     C90865  10.360   4.459   0.214  0.5076  0.3778 -0.4164
  659MOL0     C90866  10.346   4.342   0.109 -0.8692 -0.7638  0.9317
  659MOL0     C90867  10.483   4.282   0.077  0.3968 -0.6137 -0.2852
  659MOL0     C90868  10.580   4.384   0.033 -0.2949  0.5262 -0.2673
  659MOL0     C90869  10.653   4.477   0.021  0.0187 -0.1306 -0.5394
  659MOL0     C90870   9.932   4.621   0.112  0.4681  0.4959 -0.0834
  659MOL0     C90871   9.810   4.694   0.132 -0.7338  0.5292 -0.5201
  659MOL0     C90872   9.729   4.713   0.007 -0.2609  0.1089  0.9691
  659MOL0     H90873   9.566   5.069   0.309 -1.0943  1.5514  1.9908
  659MOL0     H90874   9.393   5.257   0.278 -0.8889 -0.5509  1.4013
  659MOL0     H90875   9.006   5.149   0.093  0.7092  1.0607  3.3564
  659MOL0     H90876   9.089   5.193  -0.058  0.3957  0.6569 -0.5555
  659MOL0     H90877   8.988   5.380   0.154 -1.5108 -3.3409  0.9530
  659MOL0     H90878   9.084   5.429   0.008  0.8181 -0.3669  1.1127
  659MOL0     H90879   8.872   5.465  -0.078  1.9453 -0.0866  2.0706
  659MOL0     H90880   8.874   5.288  -0.105  1.8465  1.8100 -2.4673
  659MOL0     H90881   8.808   5.273   0.139  2.0271  0.9150 -0.3787
  659MOL0     H90882   8.760   5.437   0.126 -0.2626 -1.7541  1.5850
  659MOL0     H90883   8.585   5.363  -0.058 -0.5902 -1.3812 -1.0620
  659MOL0     H90884   8.563   5.309   0.107 -1.9251  0.4260 -0.4021
  659MOL0     H90885   8.728   5.141  -0.081  1.5997 -1.7067  3.1852
  659MOL0     H90886   8.649   5.101   0.070 -0.8250  3.6288  2.4545
  659MOL0     H90887   8.517   5.016  -0.155 -0.0647 -0.5250  1.2997
  659MOL0     H90888   8.504   5.189  -0.189 -1.0124 -2.3333 -1.6155
  659MOL0     H90889   8.388   5.065   0.059 -0.3572 -1.2649  0.8429
  659MOL0     H90890   8.381   5.230   0.026  1.9794  0.3682 -1.0131
  659MOL0     H90891   8.258   5.285  -0.250 -3.3125  3.1843  1.9816
  659MOL0     H90892   8.100   5.263  -0.416  1.3928  0.7137  3.8427
  659MOL0     H90893   7.949   5.181  -0.380 -0.0496 -0.0408  0.1721
  659MOL0     H90894   8.062   4.964  -0.480  2.0696 -0.9458  0.1182
  659MOL0     H90895   8.019   5.085  -0.588 -1.3823 -3.5666  0.5275
  659MOL0     H90896   8.288   5.170  -0.524 -0.8339  0.6114 -0.1516
  659MOL0     H90897   8.291   5.010  -0.453  1.1001  1.9003  0.5036
  659MOL0     H90898   8.368   4.971  -0.689  1.3337  2.4285 -0.5164
  659MOL0     H90899   8.200   4.927  -0.675  1.2763 -2.0532  0.2131
  659MOL0     H90900   8.396   4.982  -0.925  4.4427 -1.0859 -1.9443
  659MOL0     H90901   8.717   4.993  -1.014  0.0259 -0.3877 -0.2089
  659MOL0     H90902   8.633   5.062  -1.157 -3.0503 -0.2808  0.8399
  659MOL0     H90903   8.557   4.933  -1.059  1.6531 -1.7990 -0.6408
  659MOL0     H90904   9.003   5.318  -0.908 -0.6729 -0.2391  0.9701
  659MOL0     H90905   9.214   5.451  -0.870  0.2204  0.5425 -0.0651
  659MOL0     H90906   9.337   5.608  -1.011  4.9937 -0.9873 -0.1409
  659MOL0     H90907   9.371   5.779  -0.985 -4.0774  0.7012  0.0875
  659MOL0     H90908   9.561   5.654  -0.887  0.9032  0.5908  1.4787
  659MOL0     H90909   9.469   5.741  -0.770  1.4673  1.4266 -1.5083
  659MOL0     H90910   9.438   5.440  -0.829 -0.3655  1.1960  0.0140
  659MOL0     H90911   9.361   5.528  -0.689 -1.1696 -1.1554 -0.6900
  659MOL0     H90912   9.659   5.493  -0.732 -0.1748 -0.3395  0.5656
  659MOL0     H90913   9.550   5.405  -0.616  3.6748 -1.6553 -1.6743
  659MOL0     H90914   9.632   5.706  -0.630 -0.3177  0.0717  2.6461
  659MOL0     H90915   9.502   5.660  -0.539 -0.2957  0.1685 -0.7989
  659MOL0     H90916   9.786   5.551  -0.527  0.9687  0.0809  0.9654
  659MOL0     H90917   9.674   5.496  -0.415  0.7433  0.4840  0.4121
  659MOL0     H90918   9.649   5.706  -0.296 -0.9255 -0.2697 -0.5815
  659MOL0     H90919   9.732   5.800  -0.424 -2.5869  1.0657  1.9718
  659MOL0     H90920   9.838   5.609  -0.220  2.6566  0.7040  0.2031
  659MOL0     H90921   9.873   5.777  -0.232  0.3428  0.6152  0.3865
  659MOL0     H90922   9.003   5.819  -0.932 -4.6749  0.3331 -1.9175
  659MOL0     H90923   8.802   5.699  -0.959  0.4935  0.9603 -3.9848
  659MOL0     H90924   8.524   5.443  -0.836 -2.3220 -0.5485  1.0874
  659MOL0     H90925   8.325   5.365  -0.765 -0.8305 -1.6230  0.1964
  659MOL0     H90926   9.204   5.009  -0.010 -0.7090  3.7259  0.1208
  659MOL0     H90927   9.341   4.812   0.072 -1.1927 -1.0730  2.2498
  659MOL0     H90928   9.847   4.736   0.467 -2.9420  0.9879 -0.5422
  659MOL0     H90929  10.048   4.606   0.425  0.1552 -0.9084 -0.0757
  659MOL0     H90930  10.250   4.536   0.364 -2.2459 -2.4323  4.2609
  659MOL0     H90931  10.207   4.362   0.328 -2.1307  1.5253  0.9953
  659MOL0     H90932  10.435   4.436   0.290  2.3194 -0.1064 -2.2525
  659MOL0     H90933  10.393   4.557   0.179  3.2485 -0.7052 -1.1468
  659MOL0     H90934  10.284   4.264   0.153 -2.7228  1.8435  3.2864
  659MOL0     H90935  10.290   4.380   0.023 -0.1120  0.6578  1.0346
  659MOL0     H90936  10.476   4.215  -0.009  3.3080 -1.6057  0.1033
  659MOL0     H90937  10.522   4.229   0.164  2.2427  2.0596  0.6844
  659MOL0     H90938  10.721   4.561   0.020 -0.4226  0.2691 -2.6452
  659MOL0     H90939   9.949   4.595   0.008  1.0436  2.5676 -0.5609
  659MOL0     H90940   9.725   4.821  -0.008  0.0063  0.2047  1.5314
  659MOL0     H90941   9.765   4.663  -0.083 -0.5727 -0.5736  1.2158
  659MOL0     H90942   9.632   4.664   0.019 -0.5878  0.0567 -1.5526
  660MOL0     O90943  10.871   2.058   4.690  0.4120  0.0096 -0.3929
  660MOL0     C90944  10.891   2.171   4.741 -0.1865  0.6899  1.1448
  660MOL0     O90945  10.806   2.273   4.748  0.7997 -0.3137  0.8941
  660MOL0     C90946  10.678   2.260   4.714  0.0980  0.6004  0.2441
  660MOL0     C90947  10.645   2.216   4.589 -0.4303 -0.7286  0.1386
  660MOL0     C90948  10.519   2.216   4.550 -0.7782 -0.7824 -0.1630
  660MOL0     C90949  10.415   2.244   4.633  0.8339 -0.0966 -1.0059
  660MOL0     O90950  10.282   2.230   4.593 -0.0253 -0.2639  0.1067
  660MOL0     C90951  10.189   2.204   4.699 -0.3533  0.0503 -0.2322
  660MOL0     C90952  10.067   2.133   4.658  0.5886 -0.1820 -0.9159
  660MOL0     C90953  10.093   1.991   4.611 -0.0723  0.2630 -0.0609
  660MOL0     C90954   9.963   1.930   4.564 -0.0516  0.9368  0.3777
  660MOL0     C90955   9.989   1.791   4.499 -0.2511  0.2771 -0.2692
  660MOL0     C90956   9.867   1.727   4.427 -0.2252  0.0582  0.2847
  660MOL0     C90957   9.888   1.585   4.376 -0.3909  0.4010 -0.1790
  660MOL0     C90958  10.021   1.557   4.325 -0.2558 -1.3434  0.1239
  660MOL0     N90959  10.011   1.433   4.252 -1.1702  0.8446 -0.1899
  660MOL0     C90960   9.944   1.420   4.134  0.1237 -0.5618  0.8875
  660MOL0     C90961   9.986   1.296   4.088  0.0205 -0.8401 -0.0877
  660MOL0     C90962   9.953   1.237   3.957 -0.5748 -0.0300 -0.2903
  660MOL0     C90963  10.065   1.272   3.849 -0.3194  0.1611 -0.5225
  660MOL0     C90964  10.077   1.421   3.829 -0.8299 -0.6792  0.6860
  660MOL0     C90965  10.169   1.454   3.715  0.1615  0.1392  0.5845
  660MOL0     O90966  10.181   1.597   3.714  0.2879  0.4469  0.0586
  660MOL0     C90967  10.281   1.644   3.627 -0.2892  0.7771  0.3161
  660MOL0     C90968  10.409   1.592   3.616  0.0895 -1.3451 -0.3033
  660MOL0     C90969  10.507   1.640   3.527 -0.0918 -0.2837  0.4807
  660MOL0     C90970  10.650   1.588   3.534  0.0790  0.3160 -0.5373
  660MOL0     C90971  10.476   1.744   3.447 -0.2588 -0.3228  0.0862
  660MOL0     C90972  10.562   1.814   3.351  0.0711  0.1763 -0.6557
  660MOL0     O90973  10.504   1.840   3.225 -1.0067 -0.0581  0.4438
  660MOL0     C90974  10.571   1.871   3.115 -0.4767  0.3713 -0.0365
  660MOL0     C90975  10.708   1.866   3.090 -0.0530 -0.1289  0.4308
  660MOL0     C90976  10.768   1.913   2.977  0.3495 -0.7270  0.0735
  660MOL0     C90977  10.683   1.975   2.885  0.1296 -0.6464  0.3537
  660MOL0     O90978  10.754   2.033   2.782 -0.0070 -0.7178 -0.2819
  660MOL0     C90979  10.697   2.132   2.706  0.5959  0.1132  0.9404
  660MOL0     C90980  10.690   2.267   2.775 -0.5765  0.4871  0.6377
  660MOL0     C90981  10.615   2.377   2.697 -0.3547  0.1661  0.0685
  660MOL0     C90982  10.567   2.490   2.800  0.0144  0.9856 -0.1037
  660MOL0     C90983  10.529   2.619   2.736 -1.1946  0.6027  0.1627
  660MOL0     C90984  10.506   2.727   2.844 -0.3850  0.6596 -0.4613
  660MOL0     C90985  10.459   2.850   2.772 -0.9177  0.6265 -0.1758
  660MOL0     C90986  10.420   2.961   2.868  0.7691  0.1855  0.5999
  660MOL0    Cl90987  10.446   2.951   3.045 -0.4090 -0.1775 -0.1986
  660MOL0     C90988  10.545   1.979   2.900  0.3191  0.7006 -0.0872
  660MOL0     C90989  10.481   1.912   3.006  0.5123 -0.5624 -1.7058
  660MOL0     O90990  10.673   1.847   3.387 -0.3256  0.4521  0.5651
  660MOL0     C90991  10.345   1.792   3.452 -0.2242 -0.1984  1.0242
  660MOL0     C90992  10.257   1.752   3.550  0.2913 -0.2064  0.0200
  660MOL0     N90993  10.069   1.242   4.187 -0.4140 -0.2545 -0.4025
  660MOL0     N90994  10.093   1.326   4.284  0.1122  0.8152  0.5631
  660MOL0     C90995  10.446   2.296   4.763  0.0681 -0.0966  0.1944
  660MOL0     C90996  10.580   2.308   4.800 -0.2474  0.4550  0.1255
  660MOL0     C90997  11.034   2.197   4.789  1.0904  0.1827 -0.0948
  660MOL0     C90998  11.057   2.318   4.848 -0.4442 -0.4142  0.6196
  660MOL0     C90999  11.173   2.357   4.910 -0.5354  0.7625  0.6727
  660MOL0     C91000  11.284   2.276   4.899 -0.7863 -1.5995 -1.2039
  660MOL0     O91001  11.388   2.318   4.975 -0.2099  0.2197  0.0271
  660MOL0     C91002  11.479   2.215   5.019 -0.8681  0.0101 -0.2441
  660MOL0     C91003  11.445   2.101   5.122  0.1656  0.0529 -0.2159
  660MOL0     C91004  11.546   1.987   5.133 -0.2153 -0.2289  0.1929
  660MOL0     C91005  11.665   2.025   5.227  0.2834 -0.7388  0.2737
  660MOL0     C91006  11.769   1.931   5.245 -0.9283  0.6688  0.3398
  660MOL0     C91007  11.865   1.864   5.268 -0.4496  1.2411  0.2255
  660MOL0     C91008  11.272   2.158   4.826 -0.2320  0.7804 -0.4694
  660MOL0     C91009  11.150   2.116   4.764  0.2434  0.3492 -0.5001
  660MOL0     C91010  11.140   1.982   4.704  0.7805 -0.7380  0.1643
  660MOL0     H91011  10.725   2.187   4.521  0.1046  2.6518 -0.8679
  660MOL0     H91012  10.500   2.178   4.450  1.7039 -5.2365  0.7500
  660MOL0     H91013  10.167   2.297   4.751  3.4023  1.1630 -0.3217
  660MOL0     H91014  10.228   2.132   4.773  0.3895  0.3277 -0.3415
  660MOL0     H91015   9.998   2.128   4.743  1.9597  0.1851  0.2513
  660MOL0     H91016  10.018   2.193   4.580  2.7966  2.4507 -0.4321
  660MOL0     H91017  10.177   1.982   4.541  1.7216 -2.0952  2.2397
  660MOL0     H91018  10.129   1.928   4.692  1.9053 -0.4793 -1.4264
  660MOL0     H91019   9.888   1.916   4.643 -0.7353  0.2820 -0.3685
  660MOL0     H91020   9.917   1.987   4.483  2.2180  2.6179  0.1701
  660MOL0     H91021  10.013   1.721   4.580 -0.2334 -2.1894 -2.2551
  660MOL0     H91022  10.072   1.788   4.427 -1.2195  0.3832 -1.4084
  660MOL0     H91023   9.779   1.724   4.492 -0.3943  0.9138  0.1040
  660MOL0     H91024   9.834   1.795   4.348 -2.0328  0.5940  1.4351
  660MOL0     H91025   9.816   1.564   4.297  2.2679  2.2250 -3.3606
  660MOL0     H91026   9.870   1.508   4.452 -0.8631 -0.3857 -1.0690
  660MOL0     H91027  10.056   1.632   4.253  3.8164 -1.8739  1.2954
  660MOL0     H91028  10.089   1.555   4.411 -1.4059  2.9511  1.3725
  660MOL0     H91029   9.877   1.481   4.076 -1.3400 -2.5046  0.4412
  660MOL0     H91030   9.857   1.275   3.923 -0.6891 -0.2621 -0.2290
  660MOL0     H91031   9.960   1.128   3.950 -0.1072 -0.0357  0.1985
  660MOL0     H91032  10.164   1.237   3.882 -0.7241 -2.3583 -1.6796
  660MOL0     H91033  10.044   1.223   3.753 -2.3568  2.0630 -1.1248
  660MOL0     H91034   9.977   1.458   3.806 -1.6882 -0.4527  4.2553
  660MOL0     H91035  10.128   1.462   3.917 -0.8994 -0.7039  0.7372
  660MOL0     H91036  10.270   1.413   3.723  0.6891  1.6395  1.9725
  660MOL0     H91037  10.123   1.424   3.620 -1.3003  0.1058  1.2709
  660MOL0     H91038  10.446   1.511   3.679  2.4526 -0.4789 -0.4455
  660MOL0     H91039  10.690   1.617   3.632 -2.8970 -0.2979  0.9654
  660MOL0     H91040  10.724   1.614   3.457  1.3393 -1.1636  0.1212
  660MOL0     H91041  10.643   1.481   3.552 -0.9064  0.6859  1.6195
  660MOL0     H91042  10.770   1.825   3.169 -0.8651  1.9011  2.2154
  660MOL0     H91043  10.876   1.905   2.965  0.0789 -0.5080 -4.9479
  660MOL0     H91044  10.771   2.145   2.627 -1.2335  1.4618 -0.6403
  660MOL0     H91045  10.603   2.095   2.665  1.4958 -1.7355  0.4368
  660MOL0     H91046  10.641   2.263   2.872 -2.7304 -0.6927 -0.4246
  660MOL0     H91047  10.795   2.291   2.796 -0.5249  0.8205  0.0484
  660MOL0     H91048  10.527   2.336   2.647 -0.9015 -0.3840  1.4324
  660MOL0     H91049  10.673   2.419   2.614  1.7478 -1.8731  0.4242
  660MOL0     H91050  10.649   2.506   2.871  0.5742 -1.4103 -0.1199
  660MOL0     H91051  10.490   2.444   2.864  0.5564 -1.7959 -1.2822
  660MOL0     H91052  10.610   2.651   2.670 -1.6671  0.3007 -0.5805
  660MOL0     H91053  10.443   2.606   2.670  0.9562  1.7857 -3.0974
  660MOL0     H91054  10.595   2.732   2.907 -0.1273 -5.1443  0.1736
  660MOL0     H91055  10.427   2.695   2.912  1.4794  0.0802  1.5734
  660MOL0     H91056  10.377   2.827   2.704  1.6835  0.7913 -3.6373
  660MOL0     H91057  10.547   2.885   2.716  1.3897  0.1161  2.8371
  660MOL0     H91058  10.312   2.958   2.850  0.7013  0.7160  0.8881
  660MOL0     H91059  10.459   3.056   2.830  1.3139  0.3469  1.5342
  660MOL0     H91060  10.482   2.024   2.824 -0.2340  0.1592  0.0388
  660MOL0     H91061  10.373   1.904   3.000  0.5534 -1.1351 -1.8042
  660MOL0     H91062  10.317   1.882   3.399 -2.5477 -1.7601 -0.6077
  660MOL0     H91063  10.160   1.800   3.555  1.0279  1.7478 -2.4661
  660MOL0     H91064  10.372   2.320   4.839 -0.7752 -1.6162 -0.0853
  660MOL0     H91065  10.601   2.332   4.904 -1.0939 -0.3653  0.4973
  660MOL0     H91066  10.973   2.386   4.855 -2.0766 -2.4036  1.4836
  660MOL0     H91067  11.184   2.446   4.970  0.0193 -0.0536  1.8105
  660MOL0     H91068  11.522   2.172   4.928  0.1774  0.3340  0.0908
  660MOL0     H91069  11.556   2.273   5.069  0.0480  1.3033 -2.9266
  660MOL0     H91070  11.353   2.049   5.094 -0.2590  0.6084  0.1205
  660MOL0     H91071  11.426   2.139   5.223 -0.1749 -3.0567  0.9831
  660MOL0     H91072  11.504   1.891   5.164  0.4667 -0.5177  0.2632
  660MOL0     H91073  11.574   1.977   5.028 -1.5067  1.4012 -0.3333
  660MOL0     H91074  11.626   2.055   5.325  3.4562  0.8709  1.1662
  660MOL0     H91075  11.711   2.110   5.176 -1.3002  0.0955  0.1624
  660MOL0     H91076  11.947   1.802   5.298 -1.9435  0.6411  3.5179
  660MOL0     H91077  11.359   2.094   4.823 -1.1264 -1.5768  6.3150
  660MOL0     H91078  11.083   1.922   4.776  1.6434  0.0741  1.5679
  660MOL0     H91079  11.096   1.985   4.603 -1.0702 -0.1485  0.9486
  660MOL0     H91080  11.241   1.940   4.701 -0.3897 -3.7549 -1.5122
  661MOL0     O91081   8.438   6.172   9.406 -0.1141  0.3862 -0.0410
  661MOL0     C91082   8.328   6.164   9.457  0.8362 -0.3145  0.1084
  661MOL0     O91083   8.230   6.096   9.402  0.8596 -0.0149  0.6436
  661MOL0     C91084   8.260   6.012   9.299 -0.0759  0.7761 -0.4108
  661MOL0     C91085   8.338   5.905   9.312 -1.1220  0.8476  1.3445
  661MOL0     C91086   8.371   5.826   9.201 -1.2096  0.5127  0.4910
  661MOL0     C91087   8.339   5.875   9.077 -0.2759 -0.0874  0.3728
  661MOL0     O91088   8.401   5.814   8.962 -0.1264 -0.1513 -0.5868
  661MOL0     C91089   8.499   5.904   8.901 -0.7342 -0.1377 -0.0299
  661MOL0     C91090   8.532   5.840   8.757 -0.1451  0.5146 -0.0583
  661MOL0     C91091   8.428   5.868   8.646 -1.1256  0.0136  0.0925
  661MOL0     C91092   8.302   5.794   8.674  0.4656  0.0957 -0.7617
  661MOL0     C91093   8.211   5.812   8.556  0.8050 -1.1466 -0.6485
  661MOL0     C91094   8.064   5.781   8.584  0.1448 -0.1824 -0.3737
  661MOL0     C91095   8.003   5.872   8.696  0.0478 -1.1460  0.7885
  661MOL0     C91096   8.012   6.025   8.671 -0.4261 -0.6135 -0.3452
  661MOL0     N91097   7.926   6.078   8.561 -0.6151 -0.4733 -0.2243
  661MOL0     C91098   7.957   6.053   8.426 -0.3863  0.0798 -1.2915
  661MOL0     C91099   7.837   6.091   8.365  0.6242  1.1369  0.2166
  661MOL0     C91100   7.827   6.076   8.213  0.0061 -0.2449  0.0817
  661MOL0     C91101   7.692   6.011   8.182 -0.1052 -0.3194 -0.4677
  661MOL0     C91102   7.708   5.980   8.027 -0.0009 -0.3449 -0.1464
  661MOL0     C91103   7.593   5.927   7.946 -0.3916 -0.1542  0.7016
  661MOL0     O91104   7.498   6.030   7.918  0.6546  0.5366 -0.7514
  661MOL0     C91105   7.369   5.988   7.876 -0.0724  0.1305  0.6475
  661MOL0     C91106   7.330   5.865   7.809 -0.3802 -0.2504 -0.6823
  661MOL0     C91107   7.204   5.837   7.761  0.6602  0.0924  0.6129
  661MOL0     C91108   7.174   5.719   7.672  0.0201 -0.1381  0.0913
  661MOL0     C91109   7.102   5.937   7.784  0.7639  0.4482  0.5688
  661MOL0     C91110   6.968   5.933   7.734  0.0677  0.9942 -0.3554
  661MOL0     O91111   6.897   6.048   7.723 -0.4095 -0.5003  0.2940
  661MOL0     C91112   6.768   6.050   7.681  0.1763  0.5521 -0.0910
  661MOL0     C91113   6.734   6.090   7.552  0.4297 -0.2206 -0.3891
  661MOL0     C91114   6.602   6.079   7.509 -0.0956 -0.2027 -0.0111
  661MOL0     C91115   6.514   6.012   7.591 -0.8213 -0.3465 -0.1031
  661MOL0     O91116   6.382   5.987   7.552 -0.4011 -0.0909  0.1700
  661MOL0     C91117   6.330   6.037   7.425  0.7224  0.0242  0.0761
  661MOL0     C91118   6.276   6.184   7.426  0.0532 -0.0946  0.2014
  661MOL0     C91119   6.362   6.283   7.494 -0.1878  0.0837  0.4872
  661MOL0     C91120   6.295   6.418   7.497 -0.6393 -0.2900 -0.5051
  661MOL0     C91121   6.385   6.521   7.570 -0.6574  0.2884 -0.8163
  661MOL0     C91122   6.409   6.513   7.716 -0.2112  0.5153 -0.1880
  661MOL0     C91123   6.285   6.559   7.795  0.4613  0.0401  0.3019
  661MOL0     C91124   6.331   6.564   7.939 -0.6433 -0.2273  0.5220
  661MOL0    Cl91125   6.184   6.581   8.027  0.0836  0.3646  0.4836
  661MOL0     C91126   6.548   5.968   7.725  0.1355 -0.8686  0.9155
  661MOL0     C91127   6.681   5.987   7.762  0.0899  0.7404  0.5159
  661MOL0     O91128   6.907   5.819   7.741  0.7663 -0.3638  0.5200
  661MOL0     C91129   7.141   6.056   7.845  0.0238  0.3071  0.3857
  661MOL0     C91130   7.268   6.074   7.890 -0.6168 -0.3271 -0.0655
  661MOL0     N91131   7.744   6.122   8.463 -0.5200 -0.7569  0.3168
  661MOL0     N91132   7.798   6.109   8.577  0.0552  0.5051  0.4091
  661MOL0     C91133   8.265   5.997   9.057 -0.6979  0.7800 -0.2008
  661MOL0     C91134   8.224   6.057   9.178 -0.4344  0.4541 -0.6202
  661MOL0     C91135   8.281   6.258   9.564 -0.9158 -0.3347  0.9178
  661MOL0     C91136   8.140   6.281   9.583  0.1499  0.6142 -0.1174
  661MOL0     C91137   8.091   6.378   9.674 -0.0564  0.8129 -0.2378
  661MOL0     C91138   8.184   6.445   9.760 -0.4207 -0.5451  0.0160
  661MOL0     O91139   8.149   6.539   9.853 -0.1157  0.5323 -0.0602
  661MOL0     C91140   8.012   6.589   9.864  1.3345 -0.2014  0.4466
  661MOL0     C91141   8.020   6.706   9.959 -0.4235  0.5789  0.6873
  661MOL0     C91142   7.886   6.726  10.029 -0.1096  0.4358  0.3095
  661MOL0     C91143   7.887   6.856  10.117 -0.0893 -0.0728  0.0715
  661MOL0     C91144   7.788   6.834  10.224  0.1134 -0.0847  0.9015
  661MOL0     C91145   7.707   6.807  10.312  0.2833 -1.1627  0.0542
  661MOL0     C91146   8.320   6.427   9.743  0.1796  0.1018  0.5493
  661MOL0     C91147   8.373   6.342   9.640 -0.4933 -0.2685  0.3004
  661MOL0     C91148   8.529   6.331   9.648  0.6779 -0.4740 -0.3782
  661MOL0     H91149   8.391   5.879   9.402 -1.0764 -1.0326  0.8026
  661MOL0     H91150   8.448   5.751   9.192 -1.8279  0.0853 -2.1560
  661MOL0     H91151   8.598   5.907   8.949 -0.2311  2.1626 -1.0664
  661MOL0     H91152   8.454   6.003   8.887 -1.5425 -0.7442 -2.1026
  661MOL0     H91153   8.630   5.873   8.721 -1.0445  0.1786 -3.1172
  661MOL0     H91154   8.529   5.731   8.767 -0.6312  0.6528  1.5004
  661MOL0     H91155   8.406   5.974   8.638  0.5664  0.2624 -2.2001
  661MOL0     H91156   8.472   5.834   8.551 -1.2929 -1.8278  0.6412
  661MOL0     H91157   8.317   5.686   8.675  1.0702  0.0402 -4.3710
  661MOL0     H91158   8.253   5.822   8.768 -1.1296 -0.0222 -1.5156
  661MOL0     H91159   8.246   5.751   8.472 -3.6145  0.3995 -3.9952
  661MOL0     H91160   8.212   5.918   8.527 -0.2415  0.1399  3.4085
  661MOL0     H91161   8.004   5.790   8.493 -1.4433 -1.8746  0.4214
  661MOL0     H91162   8.052   5.675   8.610  3.0609 -0.4073  0.3225
  661MOL0     H91163   8.045   5.851   8.795  0.8584 -3.7288 -0.0356
  661MOL0     H91164   7.895   5.857   8.691  0.0153 -0.5151 -1.5185
  661MOL0     H91165   7.973   6.073   8.761 -0.6814  0.6795 -1.1104
  661MOL0     H91166   8.118   6.051   8.657 -1.0887  1.4421 -2.1091
  661MOL0     H91167   8.054   6.018   8.392 -0.5020 -1.0641 -0.4997
  661MOL0     H91168   7.906   6.018   8.165 -1.5201 -4.0833  1.7882
  661MOL0     H91169   7.833   6.178   8.173  2.3389  0.2877  1.5984
  661MOL0     H91170   7.675   5.923   8.245  0.8733  0.2666  0.6596
  661MOL0     H91171   7.614   6.086   8.196  1.9353  1.5258  2.2737
  661MOL0     H91172   7.732   6.072   7.974 -0.2443  0.4766  1.1421
  661MOL0     H91173   7.794   5.913   8.013  0.4842  0.5846 -1.8798
  661MOL0     H91174   7.623   5.885   7.850 -3.7082 -2.6087  0.5710
  661MOL0     H91175   7.550   5.840   7.996 -0.1559 -0.3869  0.4946
  661MOL0     H91176   7.411   5.794   7.795  1.4098  0.2781  4.7495
  661MOL0     H91177   7.099   5.648   7.708 -0.3941  0.9374  1.4410
  661MOL0     H91178   7.258   5.651   7.659  0.2110 -0.5564  2.9216
  661MOL0     H91179   7.143   5.748   7.571 -0.0228  2.9115  0.8796
  661MOL0     H91180   6.811   6.129   7.486  1.2448  0.6404  0.9949
  661MOL0     H91181   6.578   6.115   7.409 -1.0679 -1.7105 -0.3409
  661MOL0     H91182   6.417   6.012   7.364  1.8346 -1.9904  2.3312
  661MOL0     H91183   6.250   5.970   7.393 -0.9298  2.4381 -1.1361
  661MOL0     H91184   6.252   6.213   7.323  0.3214 -1.1672 -0.1774
  661MOL0     H91185   6.181   6.166   7.478  0.3813 -1.4894  0.3719
  661MOL0     H91186   6.459   6.289   7.443 -0.3557  0.0295  0.1573
  661MOL0     H91187   6.385   6.244   7.593 -0.1681  1.6874  1.1532
  661MOL0     H91188   6.204   6.402   7.557 -0.0151  1.1325  0.8820
  661MOL0     H91189   6.265   6.444   7.395 -1.5801 -2.7038 -0.9088
  661MOL0     H91190   6.484   6.504   7.527 -1.8070 -0.3476 -3.4066
  661MOL0     H91191   6.351   6.624   7.555  1.2953  0.9574 -0.8525
  661MOL0     H91192   6.491   6.581   7.739  2.5807 -1.8612 -2.2684
  661MOL0     H91193   6.430   6.411   7.749 -2.8784  0.2389  0.9181
  661MOL0     H91194   6.205   6.487   7.776 -0.2558  0.1447  2.6014
  661MOL0     H91195   6.256   6.655   7.752 -0.9383  0.1442  1.4304
  661MOL0     H91196   6.397   6.650   7.957 -0.8335  0.6608 -2.5657
  661MOL0     H91197   6.382   6.475   7.977  2.9840  0.9768 -1.0214
  661MOL0     H91198   6.484   5.928   7.803  0.5593 -3.7952 -0.1274
  661MOL0     H91199   6.709   5.974   7.866 -0.1148 -0.8424  0.4021
  661MOL0     H91200   7.075   6.142   7.855 -0.9705 -0.1963 -1.3025
  661MOL0     H91201   7.308   6.171   7.917  3.1410 -2.1529  1.7504
  661MOL0     H91202   8.244   6.034   8.957  1.5729  2.8576 -0.0221
  661MOL0     H91203   8.157   6.142   9.168 -4.1684 -1.8452  2.0129
  661MOL0     H91204   8.071   6.222   9.522  1.7002 -0.1220 -1.2208
  661MOL0     H91205   7.987   6.395   9.700 -0.2368  0.3901 -0.6744
  661MOL0     H91206   7.975   6.609   9.763 -0.2942  2.6911  1.5005
  661MOL0     H91207   7.944   6.510   9.897  0.6188 -1.3186 -3.2361
  661MOL0     H91208   8.043   6.794   9.898  0.7353 -1.2932 -1.7559
  661MOL0     H91209   8.104   6.682  10.025 -1.1354  1.2610  1.8756
  661MOL0     H91210   7.805   6.749   9.959  0.0410  0.9588  0.3076
  661MOL0     H91211   7.856   6.636  10.083 -0.3531  0.4303  0.1668
  661MOL0     H91212   7.867   6.948  10.061  4.0495  0.9055 -0.1080
  661MOL0     H91213   7.991   6.864  10.151  0.6160  0.6433 -2.1252
  661MOL0     H91214   7.633   6.789  10.387  0.5298  0.8417  0.8178
  661MOL0     H91215   8.392   6.471   9.812  2.4539  1.3243 -2.3808
  661MOL0     H91216   8.576   6.364   9.555  0.3719 -0.7379 -0.6303
  661MOL0     H91217   8.571   6.400   9.721 -1.7705 -1.1883  1.8714
  661MOL0     H91218   8.564   6.229   9.669  1.6092 -1.2256 -4.5424
  662MOL0     O91219   1.916   9.324   2.745  0.0684 -0.8981  0.2078
  662MOL0     C91220   1.860   9.412   2.814 -0.2687  0.2377  1.0390
  662MOL0     O91221   1.785   9.516   2.767  0.4571 -0.3686 -0.6247
  662MOL0     C91222   1.752   9.525   2.631  0.4387  0.4766  0.5065
  662MOL0     C91223   1.690   9.414   2.556 -0.3463 -0.0128  0.3593
  662MOL0     C91224   1.641   9.425   2.426  0.6000 -0.5611 -0.2658
  662MOL0     C91225   1.626   9.552   2.361 -0.4317  0.3088 -0.4619
  662MOL0     O91226   1.555   9.565   2.245  0.0545  0.9528  0.1483
  662MOL0     C91227   1.448   9.479   2.218  0.4674 -0.7883  0.0473
  662MOL0     C91228   1.342   9.541   2.116 -0.6912  0.2912 -0.4333
  662MOL0     C91229   1.229   9.597   2.194 -0.5411 -0.2526  0.0792
  662MOL0     C91230   1.125   9.636   2.095 -0.3825 -1.5452  1.0528
  662MOL0     C91231   1.014   9.720   2.166  0.0009 -0.4272 -0.4788
  662MOL0     C91232   0.903   9.768   2.071  0.4776 -0.4951  0.1013
  662MOL0     C91233   0.951   9.881   1.968 -0.0267 -0.3116 -0.3715
  662MOL0     C91234   0.845   9.905   1.858  0.0458  0.3183  0.0820
  662MOL0     N91235   0.880  10.013   1.756 -0.2080  0.1184 -0.2421
  662MOL0     C91236   0.997  10.010   1.682  0.3478  0.0415 -0.9537
  662MOL0     C91237   0.992  10.134   1.612 -0.4700  0.0436  0.4488
  662MOL0     C91238   1.085  10.190   1.503 -0.2797 -0.0752 -0.7237
  662MOL0     C91239   1.016  10.257   1.386 -0.7488 -0.0013  0.3323
  662MOL0     C91240   1.111  10.302   1.270 -0.9054  0.4332  0.4159
  662MOL0     C91241   1.039  10.364   1.150  0.0002 -0.0858 -0.0588
  662MOL0     O91242   0.985  10.254   1.087  0.5115 -0.3281 -0.9309
  662MOL0     C91243   1.007  10.273   0.954 -0.1545  0.9001  0.2510
  662MOL0     C91244   1.083  10.174   0.890 -0.2533  0.2110  0.6051
  662MOL0     C91245   1.094  10.178   0.749 -0.4531 -0.4661  1.1950
  662MOL0     C91246   1.169  10.063   0.684 -0.0294 -0.1770 -1.3464
  662MOL0     C91247   1.030  10.273   0.671  0.7135 -0.6758 -0.6378
  662MOL0     C91248   1.018  10.267   0.526  0.9147  0.4354  1.2176
  662MOL0     O91249   1.129  10.252   0.451 -0.0534  0.2092 -0.7752
  662MOL0     C91250   1.129  10.216   0.314  0.4436 -0.4502 -0.9519
  662MOL0     C91251   1.203  10.109   0.278  0.0698  0.3452  0.2332
  662MOL0     C91252   1.210  10.068   0.150  0.2702  0.0345  0.5540
  662MOL0     C91253   1.146  10.142   0.045  0.2820  0.3360 -0.0820
  662MOL0     O91254   1.145  10.109  -0.084  0.4908 -0.6364  0.2033
  662MOL0     C91255   1.209   9.993  -0.132 -0.0923 -0.4434 -0.4492
  662MOL0     C91256   1.150   9.975  -0.265 -0.4772 -0.1358  0.7518
  662MOL0     C91257   1.199   9.844  -0.337  0.5807 -0.0774  0.8422
  662MOL0     C91258   1.085   9.765  -0.395 -0.8246  0.4773 -0.3231
  662MOL0     C91259   1.125   9.626  -0.442 -0.0423 -0.0753 -0.7042
  662MOL0     C91260   1.214   9.631  -0.558  0.0133 -0.1091 -0.5960
  662MOL0     C91261   1.203   9.496  -0.637  0.8588 -0.7126  0.1996
  662MOL0     C91262   1.291   9.391  -0.574 -0.1303  0.1440  0.1397
  662MOL0    Cl91263   1.237   9.226  -0.632 -0.2926  0.1158 -0.2670
  662MOL0     C91264   1.073  10.252   0.084  0.3620 -0.3615  0.5819
  662MOL0     C91265   1.053  10.289   0.215 -0.1588  0.0188 -1.4299
  662MOL0     O91266   0.906  10.275   0.475  0.8799 -1.3117 -0.4380
  662MOL0     C91267   0.947  10.364   0.740 -0.0860  0.6846  0.3430
  662MOL0     C91268   0.937  10.367   0.875  0.0302  0.2437 -0.0797
  662MOL0     N91269   0.881  10.207   1.652 -0.8858 -0.2874 -0.2086
  662MOL0     N91270   0.815  10.131   1.743  0.8715  0.1110 -0.1548
  662MOL0     C91271   1.688   9.660   2.434 -0.1160  0.3805  0.3014
  662MOL0     C91272   1.735   9.646   2.562 -0.5812  0.2211  0.6149
  662MOL0     C91273   1.872   9.402   2.964 -0.9126  0.6775  0.2997
  662MOL0     C91274   1.761   9.450   3.047  0.2130  0.5391  0.9291
  662MOL0     C91275   1.772   9.458   3.190 -0.0313  0.0045 -0.4466
  662MOL0     C91276   1.895   9.427   3.256  0.5338 -0.3302 -1.1870
  662MOL0     O91277   1.906   9.443   3.394 -0.0449 -0.7651 -0.0533
  662MOL0     C91278   1.791   9.427   3.472  1.3220  0.1195  0.0336
  662MOL0     C91279   1.825   9.368   3.608  0.7746  0.1197 -0.0302
  662MOL0     C91280   1.860   9.211   3.614  0.3034 -1.1583  0.1250
  662MOL0     C91281   1.835   9.153   3.754  0.0196 -0.1857 -0.1663
  662MOL0     C91282   1.898   9.229   3.863  0.3568  1.0664  0.4261
  662MOL0     C91283   1.953   9.289   3.952  0.3363  0.8904  0.6503
  662MOL0     C91284   2.002   9.386   3.172 -0.9485 -0.2020  0.8776
  662MOL0     C91285   1.990   9.370   3.032 -1.2597 -0.7376  0.3375
  662MOL0     C91286   2.112   9.311   2.954  0.3755  0.3971  0.6739
  662MOL0     H91287   1.701   9.317   2.604 -2.7142  0.5987  2.3003
  662MOL0     H91288   1.600   9.336   2.379  1.3576 -0.4556 -1.1415
  662MOL0     H91289   1.401   9.461   2.315 -2.3057 -1.2984 -1.3043
  662MOL0     H91290   1.487   9.387   2.174 -0.5275 -0.0165 -2.6316
  662MOL0     H91291   1.395   9.608   2.047  2.7913 -0.9903  0.7790
  662MOL0     H91292   1.291   9.464   2.057 -0.7895 -1.1643  1.4430
  662MOL0     H91293   1.191   9.520   2.262 -2.2605  2.8897  2.9904
  662MOL0     H91294   1.271   9.679   2.253  0.1802 -1.3979  1.2020
  662MOL0     H91295   1.176   9.697   2.020  0.7845 -3.4544  0.2116
  662MOL0     H91296   1.079   9.552   2.042  1.1591 -1.8646  0.1488
  662MOL0     H91297   1.059   9.805   2.219  1.7993 -0.3112 -2.0944
  662MOL0     H91298   0.966   9.658   2.242  0.5711  0.0366  0.2754
  662MOL0     H91299   0.862   9.687   2.011 -0.8474  1.3731 -1.6374
  662MOL0     H91300   0.818   9.813   2.123  2.5740  2.3567  1.3268
  662MOL0     H91301   1.043   9.847   1.919 -1.0357 -1.1510 -1.7967
  662MOL0     H91302   0.965   9.974   2.022 -0.6622  0.9979 -2.3434
  662MOL0     H91303   0.821   9.810   1.810 -1.1809  1.2797 -1.2831
  662MOL0     H91304   0.758   9.934   1.918  0.8075  0.3971  1.1928
  662MOL0     H91305   1.078   9.938   1.677 -0.5185 -0.9714 -0.8291
  662MOL0     H91306   1.158  10.111   1.479  1.8410  1.5576 -0.0080
  662MOL0     H91307   1.151  10.265   1.547 -2.6460  0.6678  1.8537
  662MOL0     H91308   0.938  10.198   1.337 -0.0483  0.4411 -1.3646
  662MOL0     H91309   0.969  10.346   1.429 -1.8946 -0.3283 -0.2034
  662MOL0     H91310   1.180  10.379   1.305 -0.8193 -0.2905  1.8980
  662MOL0     H91311   1.168  10.217   1.230 -3.1268  0.4033 -3.1732
  662MOL0     H91312   0.963  10.436   1.182  2.6141  1.6992  2.7760
  662MOL0     H91313   1.117  10.417   1.094  0.1667 -0.1823  0.0808
  662MOL0     H91314   1.129  10.092   0.944  0.2815 -0.3237 -0.6366
  662MOL0     H91315   1.214   9.996   0.757 -0.5917 -0.6963 -1.4751
  662MOL0     H91316   1.254  10.116   0.640  1.0965  2.5188  3.3877
  662MOL0     H91317   1.113  10.001   0.613  0.7344 -1.6611 -0.6771
  662MOL0     H91318   1.261  10.050   0.349  0.0520  1.3919  1.1420
  662MOL0     H91319   1.274   9.983   0.127  0.3918  0.5171 -1.0559
  662MOL0     H91320   1.317  10.011  -0.142 -0.0849 -1.4177 -2.4576
  662MOL0     H91321   1.195   9.902  -0.073  0.4383 -0.6582 -0.6401
  662MOL0     H91322   1.041   9.980  -0.265 -0.4326  2.3880 -0.1758
  662MOL0     H91323   1.183  10.056  -0.331  3.5001 -2.3881 -0.3858
  662MOL0     H91324   1.259   9.785  -0.267  1.9346 -0.1046 -0.3009
  662MOL0     H91325   1.267   9.867  -0.419 -1.7430  0.7299 -0.9758
  662MOL0     H91326   1.048   9.841  -0.465 -2.1634  0.5110  0.3880
  662MOL0     H91327   1.017   9.759  -0.310  0.3238  0.8581  0.6366
  662MOL0     H91328   1.172   9.560  -0.368 -3.0596  0.5143  1.9695
  662MOL0     H91329   1.037   9.562  -0.460 -1.7210  0.8888  3.1494
  662MOL0     H91330   1.308   9.672  -0.522  0.3265 -1.1322 -0.2029
  662MOL0     H91331   1.182   9.714  -0.622  2.2164  0.9053 -0.4565
  662MOL0     H91332   1.238   9.490  -0.741 -0.4611 -1.1309 -0.2332
  662MOL0     H91333   1.099   9.469  -0.655 -0.1188  2.7628  0.1075
  662MOL0     H91334   1.293   9.395  -0.464  0.9803  2.6727  0.0706
  662MOL0     H91335   1.395   9.414  -0.595 -0.4058  1.4858  0.1436
  662MOL0     H91336   1.029  10.300  -0.002 -1.3533  0.4217  1.8318
  662MOL0     H91337   0.992  10.378   0.227 -0.6036 -0.3278 -1.0552
  662MOL0     H91338   0.887  10.435   0.684 -1.3924 -0.5471  0.1061
  662MOL0     H91339   0.871  10.437   0.925  0.4897  1.0095 -0.5298
  662MOL0     H91340   1.688   9.756   2.382 -0.7434 -0.2535 -0.9039
  662MOL0     H91341   1.769   9.740   2.604 -0.3799 -0.0218  0.9967
  662MOL0     H91342   1.666   9.490   3.014  0.0147  2.0504  3.1496
  662MOL0     H91343   1.691   9.498   3.250  0.5332 -0.5614  0.7183
  662MOL0     H91344   1.742   9.525   3.484 -1.2345 -1.0470 -0.2119
  662MOL0     H91345   1.720   9.356   3.428  2.4696 -2.5684  2.2455
  662MOL0     H91346   1.736   9.382   3.670  1.5430 -0.7982  1.3444
  662MOL0     H91347   1.905   9.431   3.647 -0.0112  0.8507  0.4171
  662MOL0     H91348   1.785   9.171   3.545 -0.9949 -0.5397  1.1340
  662MOL0     H91349   1.961   9.189   3.578  0.4729 -1.0667  0.5363
  662MOL0     H91350   1.862   9.047   3.755 -3.1916 -1.0975 -0.1013
  662MOL0     H91351   1.730   9.145   3.782  0.6162 -0.0544  2.3376
  662MOL0     H91352   2.017   9.347   4.016  0.4696  0.5797  0.8012
  662MOL0     H91353   2.085   9.344   3.226 -0.5650 -3.2886 -1.7923
  662MOL0     H91354   2.093   9.225   2.888 -1.6678  1.4394 -0.1957
  662MOL0     H91355   2.157   9.389   2.892  0.5161  0.8575  1.3523
  662MOL0     H91356   2.186   9.293   3.032  2.8986 -0.9123 -1.8176
  663MOL0     O91357  10.083  11.060   1.400 -0.0261 -0.3866  0.5052
  663MOL0     C91358   9.981  11.015   1.347 -0.5270  1.1806  0.2745
  663MOL0     O91359   9.932  10.886   1.372 -1.1825  0.2756  0.2892
  663MOL0     C91360  10.010  10.788   1.418 -0.3506 -0.3070 -0.2039
  663MOL0     C91361  10.151  10.771   1.384  0.1946 -0.5328 -1.3920
  663MOL0     C91362  10.223  10.662   1.435  0.5063  0.3146 -1.4282
  663MOL0     C91363  10.160  10.566   1.519 -0.6941  0.4908 -0.0500
  663MOL0     O91364  10.232  10.464   1.581 -0.1069 -0.1589  0.3104
  663MOL0     C91365  10.347  10.406   1.517 -0.4401 -1.0695 -0.2201
  663MOL0     C91366  10.481  10.456   1.581 -0.1990  0.7004  0.4034
  663MOL0     C91367  10.502  10.604   1.595  0.3041 -0.4428 -0.8385
  663MOL0     C91368  10.627  10.635   1.682  0.2020  0.1738  0.1355
  663MOL0     C91369  10.659  10.782   1.686 -1.0570  0.4053 -0.4917
  663MOL0     C91370  10.763  10.817   1.792  0.4868  0.3319  0.0598
  663MOL0     C91371  10.897  10.732   1.800  0.2170 -0.2909 -0.7163
  663MOL0     C91372  10.977  10.737   1.665 -0.3376  0.4227 -0.4533
  663MOL0     N91373  11.073  10.627   1.660 -0.2672  0.3896  0.1844
  663MOL0     C91374  11.188  10.611   1.728 -0.0123  0.3799  0.7231
  663MOL0     C91375  11.236  10.487   1.704 -1.0716 -0.5619  0.4367
  663MOL0     C91376  11.363  10.425   1.750 -0.4751 -0.1709  0.0492
  663MOL0     C91377  11.378  10.447   1.902  0.1558 -0.0725 -0.0690
  663MOL0     C91378  11.264  10.392   1.988 -0.0845  0.6276  0.2892
  663MOL0     C91379  11.262  10.238   1.995  0.7108  0.0288 -0.2081
  663MOL0     O91380  11.393  10.206   2.044 -0.1553 -0.3912 -0.1232
  663MOL0     C91381  11.430  10.076   2.041  0.8805  0.1171  0.9184
  663MOL0     C91382  11.332   9.972   2.048 -0.2685 -0.5703  0.1116
  663MOL0     C91383  11.375   9.838   2.069 -0.1358 -0.2066  0.1767
  663MOL0     C91384  11.279   9.724   2.091  0.5867 -0.5775  0.3588
  663MOL0     C91385  11.512   9.811   2.051 -0.4298 -0.1452 -0.2757
  663MOL0     C91386  11.560   9.669   2.044  0.4382 -0.4146 -0.3367
  663MOL0     O91387  11.662   9.643   2.126  0.1501  0.4471  0.7766
  663MOL0     C91388  11.724   9.517   2.117  0.1506  0.1467 -0.0551
  663MOL0     C91389  11.855   9.496   2.072  0.6197 -0.2147  0.0391
  663MOL0     C91390  11.905   9.368   2.052 -0.5728 -0.0633  0.4932
  663MOL0     C91391  11.832   9.261   2.080 -0.8538 -0.1292 -0.6157
  663MOL0     O91392  11.896   9.140   2.063 -0.4483  0.0356 -1.0156
  663MOL0     C91393  11.918   9.071   2.193 -0.8537 -0.9763 -0.1749
  663MOL0     C91394  11.969   8.926   2.183  0.3255 -0.0756  0.3590
  663MOL0     C91395  12.020   8.875   2.326 -0.4190  0.3006 -0.1122
  663MOL0     C91396  12.008   8.722   2.348 -0.4562  0.2458  0.8698
  663MOL0     C91397  12.051   8.693   2.487 -0.8157 -0.2131  0.5752
  663MOL0     C91398  12.060   8.540   2.510  0.3021 -0.6124  0.9221
  663MOL0     C91399  11.917   8.482   2.539  0.0388 -0.6941 -0.6558
  663MOL0     C91400  11.934   8.352   2.606  0.0042 -0.4640  0.1792
  663MOL0    Cl91401  11.769   8.292   2.628 -0.5121 -0.0929  0.0951
  663MOL0     C91402  11.702   9.274   2.125 -0.4306  0.4004  0.3703
  663MOL0     C91403  11.650   9.407   2.140 -0.1094  0.4719 -0.6641
  663MOL0     O91404  11.511   9.587   1.963 -0.2285  0.3207 -0.3734
  663MOL0     C91405  11.607   9.904   2.033  0.5132 -0.0233  0.2463
  663MOL0     C91406  11.563  10.038   2.030 -0.5941 -0.3339 -0.2604
  663MOL0     N91407  11.141  10.428   1.634  0.7304 -1.1078  0.7843
  663MOL0     N91408  11.040  10.509   1.611 -0.0124  0.2847 -0.4146
  663MOL0     C91409  10.030  10.591   1.562 -0.0968  0.0422 -0.1946
  663MOL0     C91410   9.957  10.696   1.510  0.0023 -0.6249  0.5031
  663MOL0     C91411   9.892  11.092   1.258 -0.6648  0.0889  0.2838
  663MOL0     C91412   9.753  11.065   1.262 -0.1828 -0.8479 -0.8052
  663MOL0     C91413   9.662  11.148   1.193 -0.7150  0.1904 -0.4367
  663MOL0     C91414   9.711  11.260   1.123 -0.2291 -0.1040 -0.6114
  663MOL0     O91415   9.613  11.341   1.072  0.1683 -0.0064 -0.4344
  663MOL0     C91416   9.656  11.450   0.993  0.5284  0.1844 -0.6174
  663MOL0     C91417   9.539  11.543   0.979 -1.0554 -0.2191  0.5151
  663MOL0     C91418   9.582  11.670   0.894 -0.0172  0.8979  0.1766
  663MOL0     C91419   9.470  11.766   0.850  0.3375  0.3135 -0.6912
  663MOL0     C91420   9.373  11.689   0.760 -0.3533 -0.2691  0.5199
  663MOL0     C91421   9.299  11.643   0.673  0.2129  0.7442  0.1198
  663MOL0     C91422   9.856  11.276   1.115 -0.1054  0.7401  0.3384
  663MOL0     C91423   9.947  11.197   1.179 -0.2539 -0.5145  0.2489
  663MOL0     C91424  10.091  11.228   1.178  0.7437 -0.0943  0.2214
  663MOL0     H91425  10.202  10.855   1.338  1.1961 -0.4316 -0.1494
  663MOL0     H91426  10.330  10.661   1.415  0.6022  1.2358 -1.0199
  663MOL0     H91427  10.351  10.425   1.410  2.9623  2.6093  0.3353
  663MOL0     H91428  10.337  10.298   1.537 -0.0061 -1.2584 -0.9946
  663MOL0     H91429  10.471  10.423   1.685  0.1421 -1.7458 -0.2962
  663MOL0     H91430  10.563  10.410   1.526 -0.0887  0.9373  0.3671
  663MOL0     H91431  10.531  10.651   1.501  3.6130 -3.0553 -1.3160
  663MOL0     H91432  10.413  10.647   1.642  1.6418 -0.2672  1.7314
  663MOL0     H91433  10.611  10.608   1.787 -0.9570 -0.3629 -0.1649
  663MOL0     H91434  10.709  10.584   1.631 -0.1479  1.6689 -2.0945
  663MOL0     H91435  10.573  10.846   1.709 -0.2540  0.5972  2.3247
  663MOL0     H91436  10.701  10.816   1.591  1.8607  0.2295  0.6286
  663MOL0     H91437  10.794  10.920   1.772  6.3156 -1.2564 -1.1481
  663MOL0     H91438  10.717  10.806   1.890  2.7852 -1.1998  1.0673
  663MOL0     H91439  10.879  10.634   1.844 -1.6289 -0.7774 -2.3639
  663MOL0     H91440  10.961  10.787   1.869 -1.8649  0.1026  1.0097
  663MOL0     H91441  10.905  10.735   1.582  1.3166 -0.3211 -1.9491
  663MOL0     H91442  11.027  10.832   1.644 -3.7014  2.1532 -1.3220
  663MOL0     H91443  11.251  10.688   1.771 -0.2538  2.2190 -1.9953
  663MOL0     H91444  11.442  10.467   1.687 -0.0154  1.1887  1.4770
  663MOL0     H91445  11.353  10.317   1.735 -1.1422 -0.2350  0.8539
  663MOL0     H91446  11.475  10.408   1.934 -0.8962 -2.2502  0.6872
  663MOL0     H91447  11.378  10.551   1.935  0.7655 -1.0064  3.1755
  663MOL0     H91448  11.282  10.419   2.092  0.0440 -0.6997  0.6200
  663MOL0     H91449  11.166  10.431   1.956  1.5898  3.4065 -2.0475
  663MOL0     H91450  11.182  10.203   2.061 -1.3809  0.3952 -2.4124
  663MOL0     H91451  11.239  10.215   1.891 -1.2580  2.6385 -0.4657
  663MOL0     H91452  11.229  10.006   2.052 -0.4580 -0.7753 -1.7780
  663MOL0     H91453  11.245   9.680   1.997  1.4191 -0.3936 -0.0492
  663MOL0     H91454  11.193   9.770   2.141  1.5001  3.1821 -1.1121
  663MOL0     H91455  11.322   9.638   2.142 -0.0112 -0.4852  1.0174
  663MOL0     H91456  11.901   9.587   2.035  0.7768  0.5921  2.0825
  663MOL0     H91457  12.002   9.348   2.009  0.4438  3.7760  0.6399
  663MOL0     H91458  11.998   9.128   2.242 -0.6582 -0.1070 -1.4636
  663MOL0     H91459  11.831   9.075   2.259 -0.3170  1.8554  0.4896
  663MOL0     H91460  11.889   8.863   2.143  0.0887 -3.3421  5.1205
  663MOL0     H91461  12.049   8.908   2.111 -0.6243  0.5561 -0.8867
  663MOL0     H91462  11.958   8.915   2.407 -0.8537 -0.2331 -0.1696
  663MOL0     H91463  12.120   8.914   2.344  0.2541 -2.6496  4.3886
  663MOL0     H91464  12.083   8.671   2.287  1.5223 -2.3448  5.0174
  663MOL0     H91465  11.908   8.685   2.325  1.0388 -1.7216 -3.6383
  663MOL0     H91466  12.149   8.739   2.502 -1.3347  1.4572 -0.8088
  663MOL0     H91467  11.976   8.738   2.554 -0.5234 -0.8028  1.3105
  663MOL0     H91468  12.119   8.528   2.602 -2.4934 -2.2970  2.6383
  663MOL0     H91469  12.106   8.490   2.425  1.3761 -1.5150  1.9887
  663MOL0     H91470  11.860   8.478   2.446 -0.4329 -1.3732 -0.3402
  663MOL0     H91471  11.865   8.540   2.615  1.8925  0.6331 -0.3119
  663MOL0     H91472  11.967   8.373   2.708 -1.7547  0.6630  0.5647
  663MOL0     H91473  12.008   8.292   2.553  1.0739  0.3895  0.6619
  663MOL0     H91474  11.647   9.181   2.133  1.0528 -0.4400  1.2376
  663MOL0     H91475  11.546   9.428   2.162  0.3403  2.4521 -0.2591
  663MOL0     H91476  11.710   9.873   2.015  0.9188  1.7347 -0.7317
  663MOL0     H91477  11.636  10.118   2.033 -2.3824  1.3457  1.9568
  663MOL0     H91478   9.994  10.529   1.643  1.3165  0.4343  0.7773
  663MOL0     H91479   9.854  10.712   1.542  0.3515  2.9282  0.2148
  663MOL0     H91480   9.721  10.975   1.313 -0.4269  0.5996  1.7782
  663MOL0     H91481   9.556  11.126   1.192 -0.8081 -0.1712 -5.2000
  663MOL0     H91482   9.745  11.504   1.028 -0.3938  1.6137 -0.3537
  663MOL0     H91483   9.689  11.414   0.896 -0.4886 -0.6513 -0.6802
  663MOL0     H91484   9.496  11.571   1.076 -3.6125  0.1981 -0.6605
  663MOL0     H91485   9.457  11.487   0.934 -0.9419  0.4077 -0.4875
  663MOL0     H91486   9.641  11.725   0.968 -1.0569 -1.7847  3.2681
  663MOL0     H91487   9.638  11.639   0.806  0.3980  0.7361  0.4996
  663MOL0     H91488   9.502  11.856   0.795 -2.3894  1.2511 -0.8911
  663MOL0     H91489   9.427  11.794   0.946  1.4217 -0.4246  0.0240
  663MOL0     H91490   9.213  11.591   0.637  1.7424 -1.5058 -0.5306
  663MOL0     H91491   9.899  11.356   1.057 -2.9577  2.6992  0.7221
  663MOL0     H91492  10.114  11.268   1.277  1.3464  2.5063 -0.9019
  663MOL0     H91493  10.159  11.146   1.155 -1.5947 -1.8244 -0.9040
  663MOL0     H91494  10.113  11.300   1.099  2.1532 -2.2779 -1.4771
  664MOL0     O91495   2.786   3.550   9.894 -0.0265 -0.0895 -0.7850
  664MOL0     C91496   2.786   3.671   9.875  0.3588  0.0645 -0.3292
  664MOL0     O91497   2.903   3.750   9.859  0.3603 -0.3496  0.3023
  664MOL0     C91498   3.029   3.705   9.900 -0.0001 -0.6140 -0.0182
  664MOL0     C91499   3.066   3.568   9.926  0.2712  0.3936 -0.0399
  664MOL0     C91500   3.204   3.546   9.930  0.3170  1.2984 -0.1327
  664MOL0     C91501   3.296   3.639   9.926 -0.1909 -0.5969  0.5279
  664MOL0     O91502   3.434   3.617   9.937  0.2456 -0.7467  0.4822
  664MOL0     C91503   3.467   3.487   9.982  0.5212  0.4919 -0.7458
  664MOL0     C91504   3.610   3.482  10.016 -0.8962  0.1736  0.1256
  664MOL0     C91505   3.665   3.600  10.093 -0.3886  0.4687  0.6333
  664MOL0     C91506   3.789   3.546  10.163  0.3114  0.8609 -0.6905
  664MOL0     C91507   3.862   3.661  10.231 -0.5321  0.5401 -0.0050
  664MOL0     C91508   3.988   3.630  10.316 -0.2349 -0.5344  0.6283
  664MOL0     C91509   4.109   3.576  10.233  0.5741 -0.1700 -0.0289
  664MOL0     C91510   4.112   3.417  10.227 -0.2187  0.1418  0.5438
  664MOL0     N91511   4.178   3.356  10.337  0.4913 -0.0097 -0.3475
  664MOL0     C91512   4.300   3.385  10.370 -0.1990  0.7378 -0.6166
  664MOL0     C91513   4.314   3.333  10.494  0.1166  0.3713 -0.4513
  664MOL0     C91514   4.447   3.330  10.570  0.6863  0.1830 -0.3816
  664MOL0     C91515   4.440   3.441  10.666  0.6177 -0.5623  0.5349
  664MOL0     C91516   4.584   3.449  10.725  0.3329 -0.0944 -0.6687
  664MOL0     C91517   4.600   3.594  10.779 -1.3812 -0.0329  0.0419
  664MOL0     O91518   4.694   3.658  10.698  0.2058  0.6199 -0.2441
  664MOL0     C91519   4.691   3.797  10.718 -0.6228 -0.0766 -0.0080
  664MOL0     C91520   4.696   3.855  10.841 -0.1244 -0.3138  0.2767
  664MOL0     C91521   4.679   3.999  10.869 -0.1933  0.0584 -0.0419
  664MOL0     C91522   4.711   4.042  11.009 -0.4771 -0.1105  0.1103
  664MOL0     C91523   4.684   4.084  10.754  0.8573  0.5270 -0.1273
  664MOL0     C91524   4.700   4.225  10.760 -0.9327 -1.0781 -0.4458
  664MOL0     O91525   4.617   4.297  10.687 -0.4802 -0.4723 -0.0618
  664MOL0     C91526   4.609   4.432  10.704 -0.0467 -0.2537  1.7815
  664MOL0     C91527   4.587   4.503  10.820 -0.1013 -0.0331  0.1097
  664MOL0     C91528   4.608   4.642  10.817  0.2022  0.5319 -0.4261
  664MOL0     C91529   4.637   4.709  10.695 -0.8159 -0.2025 -1.0467
  664MOL0     O91530   4.641   4.844  10.677  0.4334 -0.2107  0.1895
  664MOL0     C91531   4.556   4.917  10.765 -0.2109  0.4100  0.2259
  664MOL0     C91532   4.563   5.063  10.737  0.0274 -0.3850  0.4712
  664MOL0     C91533   4.490   5.149  10.842  0.0834  0.8236  0.3451
  664MOL0     C91534   4.453   5.289  10.809 -0.0787 -0.7310 -0.6671
  664MOL0     C91535   4.402   5.371  10.932 -0.2112  0.2685  0.1258
  664MOL0     C91536   4.306   5.482  10.880  0.4972  0.4742  0.2294
  664MOL0     C91537   4.370   5.606  10.818 -0.7866 -0.7281  0.1651
  664MOL0     C91538   4.285   5.711  10.758  0.8266  0.7288 -0.1748
  664MOL0    Cl91539   4.185   5.627  10.631  0.3992 -0.5097  0.1224
  664MOL0     C91540   4.641   4.637  10.580 -0.6429  0.0965 -0.9724
  664MOL0     C91541   4.627   4.502  10.580 -0.2750  1.6381 -0.1567
  664MOL0     O91542   4.780   4.271  10.842 -0.2582 -0.0332 -0.0881
  664MOL0     C91543   4.672   4.019  10.627  0.2991  0.6215 -0.3753
  664MOL0     C91544   4.671   3.883  10.610 -0.0417 -1.3016  0.1301
  664MOL0     N91545   4.201   3.269  10.540 -0.0511  0.3961  0.5331
  664MOL0     N91546   4.116   3.297  10.444 -0.4093  0.1719 -0.4862
  664MOL0     C91547   3.268   3.775   9.903  0.6828 -0.8404 -0.1850
  664MOL0     C91548   3.129   3.802   9.886  0.4073 -0.8761 -0.2186
  664MOL0     C91549   2.652   3.737   9.846 -0.0654  0.1905  0.1958
  664MOL0     C91550   2.654   3.877   9.825  0.2756 -0.2829 -1.0365
  664MOL0     C91551   2.537   3.957   9.805  0.2817  0.6036  0.6748
  664MOL0     C91552   2.414   3.899   9.789 -0.2473 -0.0340 -0.1206
  664MOL0     O91553   2.312   3.982   9.770  0.1800 -0.7706  0.1759
  664MOL0     C91554   2.191   3.913   9.766  0.1731  0.0807  0.1040
  664MOL0     C91555   2.062   4.001   9.729 -0.3992 -0.1687 -0.6616
  664MOL0     C91556   2.061   4.129   9.812  0.4654 -0.1903 -0.0762
  664MOL0     C91557   2.024   4.121   9.955  0.1363 -0.0286 -0.1780
  664MOL0     C91558   2.149   4.095  10.033  0.0307  0.1649  0.5734
  664MOL0     C91559   2.241   4.049  10.096 -0.0107  1.1137  0.5868
  664MOL0     C91560   2.410   3.751   9.798  0.0288 -0.2414 -0.7752
  664MOL0     C91561   2.520   3.669   9.831  0.1101  0.7516 -0.4706
  664MOL0     C91562   2.501   3.512   9.847 -0.4389  0.0689 -0.1822
  664MOL0     H91563   3.001   3.482   9.938 -0.4977  0.7434 -1.4616
  664MOL0     H91564   3.232   3.444   9.957 -0.9141  1.1084  0.4726
  664MOL0     H91565   3.428   3.410   9.914 -0.0874 -1.1268  1.3386
  664MOL0     H91566   3.412   3.472  10.075 -1.1181 -2.9687 -2.1074
  664MOL0     H91567   3.614   3.395  10.083  0.8189  1.6808  2.0945
  664MOL0     H91568   3.673   3.460   9.929 -1.0979 -5.4095  1.0448
  664MOL0     H91569   3.703   3.678  10.027  0.6734 -0.8878 -0.4313
  664MOL0     H91570   3.594   3.640  10.166 -2.9296 -0.0469 -1.4032
  664MOL0     H91571   3.761   3.475  10.241 -1.7168  1.9336 -0.3727
  664MOL0     H91572   3.851   3.508  10.082  0.6032 -0.1789 -0.0042
  664MOL0     H91573   3.783   3.710  10.288 -1.5665  1.3816 -2.0914
  664MOL0     H91574   3.898   3.720  10.146  0.9190  0.0259  0.2174
  664MOL0     H91575   4.017   3.711  10.385 -0.8460 -1.8251  2.4738
  664MOL0     H91576   3.979   3.544  10.382  1.4012  0.3104  2.0382
  664MOL0     H91577   4.205   3.602  10.277  0.3225 -1.8279  1.6053
  664MOL0     H91578   4.096   3.628  10.137 -0.1246  2.3886  1.3576
  664MOL0     H91579   4.007   3.388  10.237  0.2235 -1.0485  2.1415
  664MOL0     H91580   4.156   3.382  10.133 -2.0045  2.9997 -1.5152
  664MOL0     H91581   4.380   3.442  10.323 -0.3534  1.6369  0.1648
  664MOL0     H91582   4.528   3.334  10.496  0.9134 -2.4284 -0.3886
  664MOL0     H91583   4.465   3.239  10.628 -1.7802  1.3855  2.5674
  664MOL0     H91584   4.403   3.526  10.608 -0.9057 -2.3820 -1.3068
  664MOL0     H91585   4.366   3.423  10.745 -0.8730 -0.3159 -0.7646
  664MOL0     H91586   4.589   3.373  10.803 -0.0354  0.2931 -0.2667
  664MOL0     H91587   4.668   3.430  10.656 -0.2707 -0.3704 -1.3364
  664MOL0     H91588   4.508   3.653  10.769 -2.0611 -0.8743  1.0751
  664MOL0     H91589   4.635   3.594  10.883 -1.2895 -0.8960  0.0156
  664MOL0     H91590   4.703   3.798  10.933  1.0953  2.7357  2.2534
  664MOL0     H91591   4.660   3.977  11.081 -1.4236  1.5244  0.9900
  664MOL0     H91592   4.677   4.145  11.020 -0.9709 -0.2970  0.3742
  664MOL0     H91593   4.820   4.036  11.016 -0.5567 -0.2196  1.7196
  664MOL0     H91594   4.554   4.453  10.911 -1.4052 -3.2194 -1.9582
  664MOL0     H91595   4.600   4.697  10.910 -1.6973  0.5258 -0.5538
  664MOL0     H91596   4.453   4.885  10.750 -0.5637  1.7287 -0.2556
  664MOL0     H91597   4.582   4.901  10.870  0.4341 -2.0483 -0.2334
  664MOL0     H91598   4.662   5.108  10.727 -0.4116  0.8976  1.5710
  664MOL0     H91599   4.521   5.077  10.637  2.2178  0.4057 -0.4051
  664MOL0     H91600   4.551   5.136  10.932 -0.6024 -0.2964  0.6572
  664MOL0     H91601   4.403   5.091  10.874 -0.4612  0.4646 -1.6329
  664MOL0     H91602   4.380   5.292  10.728 -0.3798  1.7358 -0.3979
  664MOL0     H91603   4.541   5.342  10.772  0.3406 -0.7440  0.2661
  664MOL0     H91604   4.359   5.300  11.002  0.4040  2.9622  3.5260
  664MOL0     H91605   4.485   5.422  10.982 -0.2576 -0.6575  1.1866
  664MOL0     H91606   4.230   5.508  10.954 -1.6353 -3.6139 -0.2691
  664MOL0     H91607   4.240   5.437  10.806  0.8166  2.4553 -1.3466
  664MOL0     H91608   4.446   5.573  10.747 -1.2867  1.6781 -1.6432
  664MOL0     H91609   4.427   5.650  10.900 -0.2794 -1.1579  0.0445
  664MOL0     H91610   4.342   5.784  10.699  2.6628 -1.5041 -1.2875
  664MOL0     H91611   4.225   5.759  10.836 -1.2549  1.2631 -1.9777
  664MOL0     H91612   4.656   4.696  10.490 -1.5030  0.6435 -0.7681
  664MOL0     H91613   4.651   4.463  10.481  0.2620 -1.6737  1.1612
  664MOL0     H91614   4.681   4.093  10.549  5.4087  2.6677  1.7078
  664MOL0     H91615   4.675   3.832  10.514  1.0566  1.0897 -1.2109
  664MOL0     H91616   3.346   3.849   9.893 -0.1802  0.0058 -0.8046
  664MOL0     H91617   3.111   3.909   9.880  1.8340 -0.6443 -0.7464
  664MOL0     H91618   2.738   3.944   9.815 -0.0375  0.5667  1.3731
  664MOL0     H91619   2.540   4.061   9.773 -0.0826  0.8054  1.2746
  664MOL0     H91620   2.191   3.837   9.687 -1.5540 -0.8038  0.8905
  664MOL0     H91621   2.169   3.863   9.862 -0.2116  0.5647  0.2692
  664MOL0     H91622   1.965   3.953   9.743 -0.4757  0.6264  2.0471
  664MOL0     H91623   2.073   4.022   9.622 -2.7724  1.3319 -0.6877
  664MOL0     H91624   2.155   4.180   9.789  2.5180 -3.8246 -0.6755
  664MOL0     H91625   1.975   4.170   9.759 -0.4729 -2.5504 -0.5040
  664MOL0     H91626   1.946   4.049   9.979  0.2336 -0.3824 -0.9189
  664MOL0     H91627   1.974   4.210   9.996 -0.5272 -0.5405  0.1354
  664MOL0     H91628   2.332   4.028  10.150  0.9216 -0.2190 -1.3628
  664MOL0     H91629   2.312   3.708   9.789 -1.3366  2.6779 -1.1787
  664MOL0     H91630   2.571   3.444   9.798  0.3512 -2.3006  3.8441
  664MOL0     H91631   2.511   3.493   9.954  3.1036 -0.1097 -0.4147
  664MOL0     H91632   2.416   3.459   9.804 -0.4834 -1.2964  1.4740
  665MOL0     O91633  10.716   7.278   4.239  0.5158  0.1873 -1.0512
  665MOL0     C91634  10.604   7.261   4.199  0.3882 -0.4122  0.2385
  665MOL0     O91635  10.503   7.201   4.261 -0.0013  0.2799 -0.8112
  665MOL0     C91636  10.525   7.185   4.396  0.1388 -0.3685  0.5367
  665MOL0     C91637  10.565   7.061   4.456  0.9715 -0.7288 -0.4684
  665MOL0     C91638  10.603   7.058   4.593  0.1202  0.1180  0.1798
  665MOL0     C91639  10.605   7.175   4.674  0.2771 -0.9199 -0.6415
  665MOL0     O91640  10.649   7.171   4.804 -0.3128 -0.0267  0.8148
  665MOL0     C91641  10.547   7.172   4.902 -0.4442  0.0634 -0.1135
  665MOL0     C91642  10.512   7.027   4.960 -0.2793 -0.3155  1.4239
  665MOL0     C91643  10.621   6.979   5.054 -1.0854  0.0608  0.1159
  665MOL0     C91644  10.760   6.944   4.993  0.6562  0.3109  0.5803
  665MOL0     C91645  10.852   6.907   5.103  0.1978  0.0725 -0.2091
  665MOL0     C91646  11.001   6.902   5.050  0.8656 -0.2165 -0.2737
  665MOL0     C91647  11.094   6.920   5.177 -0.0561 -0.3435 -0.7033
  665MOL0     C91648  11.229   6.872   5.145 -0.3343  0.3991  0.7638
  665MOL0     N91649  11.305   6.869   5.271 -0.9309  0.2032  0.5527
  665MOL0     C91650  11.322   6.761   5.347 -1.3034 -0.7069 -1.0396
  665MOL0     C91651  11.412   6.807   5.448  0.2209 -0.7960 -0.1042
  665MOL0     C91652  11.437   6.731   5.582 -0.7884 -0.6059 -0.4365
  665MOL0     C91653  11.588   6.713   5.609  0.6417  0.4572 -0.6883
  665MOL0     C91654  11.659   6.661   5.483 -0.3708 -0.6246  0.3544
  665MOL0     C91655  11.797   6.714   5.477  0.2625  0.8495 -0.5814
  665MOL0     O91656  11.901   6.656   5.570 -0.2173 -1.0627 -0.1895
  665MOL0     C91657  11.928   6.523   5.585 -1.0106 -0.6086  0.3054
  665MOL0     C91658  11.978   6.481   5.708  0.2488 -0.0569  0.7399
  665MOL0     C91659  11.995   6.345   5.728  0.3846  0.0768 -0.4792
  665MOL0     C91660  12.047   6.313   5.865 -0.3798 -0.1830  0.7881
  665MOL0     C91661  11.973   6.238   5.630 -1.1357 -0.4672 -0.2069
  665MOL0     C91662  12.026   6.096   5.639  0.2028 -0.6578 -0.5628
  665MOL0     O91663  12.101   6.065   5.745 -0.9203 -0.0443 -0.4965
  665MOL0     C91664  12.181   5.953   5.742 -1.3770 -0.0446 -0.5310
  665MOL0     C91665  12.187   5.870   5.851 -0.2660 -0.3362  0.2008
  665MOL0     C91666  12.261   5.757   5.864 -1.4247  0.0264 -0.5253
  665MOL0     C91667  12.331   5.706   5.751  0.4615 -1.1585  0.2096
  665MOL0     O91668  12.386   5.581   5.759  0.0012 -0.1696 -0.0048
  665MOL0     C91669  12.303   5.476   5.766 -0.0475 -0.0788  0.4785
  665MOL0     C91670  12.182   5.484   5.663 -0.0390  0.2951  0.4203
  665MOL0     C91671  12.112   5.343   5.654 -0.4005  0.7512  0.3275
  665MOL0     C91672  12.090   5.268   5.784  0.3192  0.0346  0.3501
  665MOL0     C91673  11.984   5.325   5.874  0.4162  0.0375  0.0147
  665MOL0     C91674  11.965   5.229   5.998 -0.1274  0.3850 -0.4490
  665MOL0     C91675  12.087   5.238   6.087 -0.5033  0.5812  0.2737
  665MOL0     C91676  12.071   5.156   6.213  0.8995  1.0957 -0.0188
  665MOL0    Cl91677  12.211   5.189   6.329  0.0747  0.4062  0.1483
  665MOL0     C91678  12.329   5.789   5.629  0.3031 -0.3905 -0.3907
  665MOL0     C91679  12.262   5.916   5.631  0.8177  0.2797 -0.3503
  665MOL0     O91680  11.986   6.019   5.555  0.6243  0.5530  0.3172
  665MOL0     C91681  11.916   6.290   5.504 -0.7797  0.3526 -0.0654
  665MOL0     C91682  11.904   6.426   5.487 -0.3081 -0.6007  0.2990
  665MOL0     N91683  11.447   6.935   5.420 -0.0640  0.3887 -0.6327
  665MOL0     N91684  11.386   6.971   5.314 -0.2106  0.2345 -0.7351
  665MOL0     C91685  10.579   7.295   4.607  0.2562  0.0657 -0.1269
  665MOL0     C91686  10.535   7.303   4.477 -0.4013 -0.2677  0.0005
  665MOL0     C91687  10.582   7.314   4.062  1.3180  0.3687  0.4196
  665MOL0     C91688  10.505   7.432   4.047  0.7838 -0.0179  0.4545
  665MOL0     C91689  10.473   7.485   3.931  0.5251 -0.1117  1.0095
  665MOL0     C91690  10.517   7.425   3.806 -0.8945  0.2640 -0.1602
  665MOL0     O91691  10.480   7.501   3.695  0.9363 -0.0266 -0.2739
  665MOL0     C91692  10.470   7.455   3.567  0.4925 -1.1731 -0.3355
  665MOL0     C91693  10.601   7.464   3.486  0.4477 -0.3391 -0.7037
  665MOL0     C91694  10.573   7.440   3.336 -0.5017  0.4769  0.5022
  665MOL0     C91695  10.695   7.460   3.245 -0.7034 -0.1248  0.2948
  665MOL0     C91696  10.795   7.568   3.270  0.6641 -0.3580  0.2502
  665MOL0     C91697  10.884   7.646   3.276  1.1365 -0.8649 -1.0884
  665MOL0     C91698  10.605   7.306   3.822 -0.0099 -0.4819 -0.0663
  665MOL0     C91699  10.627   7.241   3.948 -0.2350 -0.2986  0.2771
  665MOL0     C91700  10.701   7.106   3.962 -0.3858 -0.6680 -0.0229
  665MOL0     H91701  10.577   6.978   4.388  2.2406  0.4525 -1.7745
  665MOL0     H91702  10.653   6.969   4.629  1.9620 -0.5942 -3.5957
  665MOL0     H91703  10.460   7.218   4.853  0.8473 -0.2798 -2.8611
  665MOL0     H91704  10.582   7.227   4.990  5.6080 -0.6428 -1.6239
  665MOL0     H91705  10.419   7.024   5.016  0.4019  1.0394  2.7004
  665MOL0     H91706  10.522   6.949   4.883 -0.8260  2.3841 -1.6226
  665MOL0     H91707  10.641   7.061   5.123 -3.5700 -0.3328  1.4065
  665MOL0     H91708  10.581   6.895   5.113 -4.0143  1.9042  0.9475
  665MOL0     H91709  10.736   6.862   4.925  1.5280 -0.1678  0.8364
  665MOL0     H91710  10.804   7.028   4.938 -2.3563 -0.0236 -2.7082
  665MOL0     H91711  10.814   6.820   5.157  0.1551  0.5082  0.4758
  665MOL0     H91712  10.859   6.992   5.172 -1.2117  0.0262  0.0067
  665MOL0     H91713  11.024   6.806   5.004 -0.2375 -0.4424 -0.3771
  665MOL0     H91714  11.018   6.989   4.986  2.8186  0.3865  0.9792
  665MOL0     H91715  11.060   6.855   5.258  3.5657 -0.5243  0.8404
  665MOL0     H91716  11.114   7.022   5.213  0.0882 -1.0180  1.2431
  665MOL0     H91717  11.215   6.777   5.094 -0.5785  0.7356  0.1869
  665MOL0     H91718  11.274   6.936   5.068 -1.3779  1.5010  1.0369
  665MOL0     H91719  11.269   6.666   5.352 -1.1549 -0.7334  0.6573
  665MOL0     H91720  11.386   6.636   5.572  0.8513 -1.4196 -1.5657
  665MOL0     H91721  11.399   6.786   5.668 -1.8015 -2.6603  0.4708
  665MOL0     H91722  11.631   6.797   5.664 -0.7394  0.7632 -0.0164
  665MOL0     H91723  11.592   6.628   5.679 -3.2394  0.2927 -0.4259
  665MOL0     H91724  11.658   6.551   5.476  0.6939 -0.5279 -2.5202
  665MOL0     H91725  11.612   6.693   5.389  2.9708  1.7430 -0.6636
  665MOL0     H91726  11.835   6.720   5.375  2.6175  0.4945  0.2095
  665MOL0     H91727  11.806   6.816   5.518  0.8663 -0.2004  2.1018
  665MOL0     H91728  11.987   6.549   5.793 -0.2674  2.5831 -1.1788
  665MOL0     H91729  12.040   6.405   5.924  0.0425  0.3748 -0.0073
  665MOL0     H91730  12.149   6.278   5.845 -0.7879 -0.2340 -1.4232
  665MOL0     H91731  11.989   6.236   5.917 -1.7147 -0.7351 -1.3794
  665MOL0     H91732  12.136   5.899   5.942 -1.9503  0.0646 -0.8183
  665MOL0     H91733  12.264   5.690   5.949  1.2071 -0.5959 -1.0453
  665MOL0     H91734  12.356   5.385   5.737 -1.9349 -1.5295  1.4007
  665MOL0     H91735  12.265   5.464   5.868 -1.6960 -1.4936 -0.2689
  665MOL0     H91736  12.107   5.552   5.703 -2.8845 -2.1197 -0.3771
  665MOL0     H91737  12.218   5.520   5.566 -0.2100  1.0952  0.6500
  665MOL0     H91738  12.170   5.269   5.596 -2.4399 -1.2436  0.6668
  665MOL0     H91739  12.019   5.351   5.596 -2.1557 -2.0739  2.4646
  665MOL0     H91740  12.188   5.253   5.830  0.6647  0.7398 -0.1422
  665MOL0     H91741  12.036   5.180   5.747 -1.9660  1.7879 -0.7108
  665MOL0     H91742  12.020   5.422   5.909  2.0435 -0.6640  0.3655
  665MOL0     H91743  11.889   5.320   5.821  2.5334  1.6782 -4.4310
  665MOL0     H91744  11.928   5.126   5.990  0.6743  0.0606 -0.0340
  665MOL0     H91745  11.885   5.285   6.047  0.6468  1.8537 -0.8301
  665MOL0     H91746  12.109   5.337   6.127  3.0463 -1.0244  2.8498
  665MOL0     H91747  12.181   5.211   6.038 -0.9097 -0.1004 -0.1502
  665MOL0     H91748  12.054   5.049   6.199  1.2247  0.9050  1.0343
  665MOL0     H91749  11.981   5.194   6.262 -0.1136 -0.3884 -0.6500
  665MOL0     H91750  12.397   5.761   5.550  1.8536  2.6876 -0.2758
  665MOL0     H91751  12.281   5.992   5.556 -0.9931 -0.1973 -1.3381
  665MOL0     H91752  11.906   6.222   5.420 -1.6792 -1.7091  1.6246
  665MOL0     H91753  11.859   6.441   5.389 -0.1114  0.2849  0.3323
  665MOL0     H91754  10.592   7.385   4.666 -1.4676 -1.9967  3.6750
  665MOL0     H91755  10.526   7.401   4.433 -2.3983 -1.0076 -1.3871
  665MOL0     H91756  10.468   7.483   4.135 -0.9555 -0.0204 -0.2223
  665MOL0     H91757  10.413   7.575   3.929  2.3815  1.2370 -2.3612
  665MOL0     H91758  10.439   7.350   3.570  0.0891 -1.1405 -2.1115
  665MOL0     H91759  10.392   7.505   3.510  2.5162 -0.6233 -2.8468
  665MOL0     H91760  10.673   7.393   3.526  0.4612  0.9460  1.7681
  665MOL0     H91761  10.647   7.563   3.500 -0.6327  0.7089 -3.6805
  665MOL0     H91762  10.528   7.342   3.320  1.6653 -0.5056  0.0582
  665MOL0     H91763  10.501   7.517   3.306  1.4344  2.3555  0.4103
  665MOL0     H91764  10.650   7.458   3.146 -0.3625 -2.0575  0.1378
  665MOL0     H91765  10.744   7.362   3.238 -2.7026 -1.0812 -1.0044
  665MOL0     H91766  10.950   7.725   3.307 -1.4458  1.2975 -0.6808
  665MOL0     H91767  10.642   7.267   3.728  2.6828 -0.6297  0.9678
  665MOL0     H91768  10.795   7.131   4.010 -1.1455 -0.3836  1.3752
  665MOL0     H91769  10.633   7.034   4.009 -2.5014  0.2891 -1.4218
  665MOL0     H91770  10.719   7.061   3.863 -0.7778 -2.0800  0.5237
  666MOL0     O91771   0.545   7.494  10.023 -0.0384 -0.5978 -0.2474
  666MOL0     C91772   0.424   7.497   9.992 -1.9169  0.0840 -0.0507
  666MOL0     O91773   0.362   7.604   9.935  0.1057  1.0034  0.4941
  666MOL0     C91774   0.441   7.701   9.881 -0.3599  0.1648  0.2770
  666MOL0     C91775   0.534   7.777   9.952 -0.6151  0.7902  0.1421
  666MOL0     C91776   0.614   7.871   9.894  0.1384 -0.7752  0.5615
  666MOL0     C91777   0.595   7.903   9.757 -0.7412  0.1630  0.0362
  666MOL0     O91778   0.680   8.002   9.703  0.1160  0.2056 -0.4547
  666MOL0     C91779   0.679   8.033   9.562  0.6265 -0.1400 -0.3026
  666MOL0     C91780   0.582   8.149   9.538  0.3632  0.1226 -0.3010
  666MOL0     C91781   0.627   8.286   9.593  0.4672 -0.2123  0.6754
  666MOL0     C91782   0.498   8.383   9.593 -0.7599  1.2188 -0.3119
  666MOL0     C91783   0.528   8.527   9.631 -0.0356 -0.7716  0.1622
  666MOL0     C91784   0.636   8.553   9.739 -0.0762 -0.2581 -0.9427
  666MOL0     C91785   0.633   8.699   9.795  0.0420  0.1712  0.5316
  666MOL0     C91786   0.671   8.804   9.694  0.0348  0.3589 -0.0968
  666MOL0     N91787   0.700   8.917   9.778  0.1535  0.3498 -0.2826
  666MOL0     C91788   0.824   8.928   9.837  0.3664 -0.8580  0.8179
  666MOL0     C91789   0.799   8.990   9.952 -0.4244  0.2558 -0.1671
  666MOL0     C91790   0.890   8.990  10.063  0.5561 -0.6824  0.1299
  666MOL0     C91791   0.918   8.847  10.119  0.5105  0.2413 -0.3819
  666MOL0     C91792   0.791   8.787  10.172 -0.2733 -0.7562 -0.0642
  666MOL0     C91793   0.821   8.652  10.236  0.0481 -0.2756 -0.0309
  666MOL0     O91794   0.841   8.560  10.126 -0.7250 -0.0674  0.6718
  666MOL0     C91795   0.830   8.421  10.148 -0.2946  0.1930 -0.1889
  666MOL0     C91796   0.785   8.368  10.267  0.1410  1.1705 -0.0260
  666MOL0     C91797   0.774   8.226  10.294 -0.2516 -0.3418  0.8810
  666MOL0     C91798   0.724   8.189  10.419 -1.0673 -0.5383  0.3494
  666MOL0     C91799   0.829   8.134  10.193 -0.1554  0.0397 -0.7953
  666MOL0     C91800   0.810   7.979  10.205 -0.8042  0.3357  0.2439
  666MOL0     O91801   0.911   7.913  10.134 -0.4106 -0.1222  0.3712
  666MOL0     C91802   0.931   7.775  10.110  0.2707  0.1415  0.4701
  666MOL0     C91803   1.058   7.736  10.066  0.4144  0.1020  0.1207
  666MOL0     C91804   1.099   7.609  10.057  0.4465  0.2430  1.0488
  666MOL0     C91805   1.011   7.504  10.072  1.4465 -0.9790  0.8373
  666MOL0     O91806   1.063   7.380  10.051 -1.0785 -0.5050  0.5953
  666MOL0     C91807   1.142   7.318  10.165 -0.4946 -0.2415  0.6381
  666MOL0     C91808   1.272   7.242  10.122  0.2482  0.5163 -0.6510
  666MOL0     C91809   1.370   7.327  10.039  0.0759  0.4040 -0.5400
  666MOL0     C91810   1.460   7.408  10.135 -0.0857  0.0081 -1.2433
  666MOL0     C91811   1.551   7.500  10.044  0.7544  0.9799 -0.6922
  666MOL0     C91812   1.617   7.614  10.127  0.2841  0.1296 -0.0898
  666MOL0     C91813   1.727   7.572  10.228  0.0382  0.5629 -0.6880
  666MOL0     C91814   1.760   7.689  10.333  0.2230 -0.3715 -1.0697
  666MOL0    Cl91815   1.621   7.709  10.453  0.1982 -0.0000  0.2643
  666MOL0     C91816   0.877   7.540  10.111  0.0049  0.5765 -0.6753
  666MOL0     C91817   0.843   7.674  10.131 -0.5932 -0.3834 -0.5739
  666MOL0     O91818   0.713   7.926  10.249 -0.1160 -0.5593 -0.7697
  666MOL0     C91819   0.887   8.194  10.077  0.2574  0.2667  0.8845
  666MOL0     C91820   0.890   8.336  10.058 -0.1468  0.7652  0.2175
  666MOL0     N91821   0.670   9.040   9.953  0.2456  0.6874 -0.3667
  666MOL0     N91822   0.614   8.991   9.849 -0.3073 -0.2338  0.4736
  666MOL0     C91823   0.488   7.846   9.687 -1.1439  0.2226  0.9894
  666MOL0     C91824   0.424   7.743   9.750  0.7041  0.2832 -1.0077
  666MOL0     C91825   0.344   7.387  10.044  1.1314  0.2347 -1.6400
  666MOL0     C91826   0.403   7.264  10.050 -0.6422  0.5464  0.1436
  666MOL0     C91827   0.342   7.149  10.096  0.9579  1.0137  0.1315
  666MOL0     C91828   0.214   7.160  10.159 -0.2596 -0.1570 -0.4378
  666MOL0     O91829   0.147   7.053  10.217 -0.0936  0.2513  0.0029
  666MOL0     C91830   0.175   6.913  10.174  0.1553 -0.4534 -0.0259
  666MOL0     C91831   0.083   6.804  10.248 -0.4722  0.4131  0.1827
  666MOL0     C91832  -0.054   6.818  10.182  0.9969 -0.2421  0.0658
  666MOL0     C91833  -0.119   6.689  10.185  0.5253 -0.6229 -0.7000
  666MOL0     C91834  -0.075   6.611  10.068 -0.3417 -0.0657 -0.1732
  666MOL0     C91835  -0.034   6.536   9.988  0.4100 -0.2413 -0.4939
  666MOL0     C91836   0.162   7.282  10.174  0.1053 -0.1057 -0.0301
  666MOL0     C91837   0.220   7.400  10.113 -0.2202  0.7207 -0.0920
  666MOL0     C91838   0.133   7.521  10.110  0.1343 -0.8399  0.1461
  666MOL0     H91839   0.560   7.766  10.057  2.2790 -0.0475 -0.5633
  666MOL0     H91840   0.690   7.932   9.942 -1.2997  0.7419  1.0239
  666MOL0     H91841   0.640   7.947   9.506 -0.1187 -2.3995  3.3318
  666MOL0     H91842   0.781   8.057   9.532  2.5229 -2.7759  3.3231
  666MOL0     H91843   0.582   8.167   9.430  0.6314  0.4004 -0.2565
  666MOL0     H91844   0.486   8.122   9.583 -0.3813  2.0175 -0.6255
  666MOL0     H91845   0.678   8.278   9.689  2.5757 -0.9893 -0.4319
  666MOL0     H91846   0.702   8.323   9.522  0.0198  1.3150  0.9667
  666MOL0     H91847   0.436   8.383   9.503 -5.8200 -2.4513  2.6145
  666MOL0     H91848   0.435   8.328   9.665  0.0649  0.6849  0.0227
  666MOL0     H91849   0.439   8.586   9.657 -0.1913 -1.0895  0.3584
  666MOL0     H91850   0.557   8.583   9.542 -0.8614  2.7104  1.8792
  666MOL0     H91851   0.626   8.487   9.826  0.3775 -2.6163 -2.5786
  666MOL0     H91852   0.736   8.539   9.698  1.0216  0.7474  1.2181
  666MOL0     H91853   0.693   8.693   9.887  0.5759  1.9582  0.3359
  666MOL0     H91854   0.532   8.732   9.822 -0.3647  1.4426 -2.2361
  666MOL0     H91855   0.759   8.774   9.637  1.4237  1.1041  1.5624
  666MOL0     H91856   0.595   8.819   9.617 -0.1255 -2.8966 -0.6823
  666MOL0     H91857   0.921   8.883   9.816 -0.8637 -2.8187 -1.0151
  666MOL0     H91858   0.848   9.057  10.139  0.8580 -1.0311  0.6133
  666MOL0     H91859   0.989   9.027  10.039 -0.7204  2.6902 -0.4117
  666MOL0     H91860   0.959   8.781  10.042 -0.3728 -1.0806  0.2588
  666MOL0     H91861   0.999   8.852  10.192  0.1213 -0.9015  0.1584
  666MOL0     H91862   0.731   8.849  10.239 -0.4013 -2.2638  1.2903
  666MOL0     H91863   0.736   8.762  10.080  0.6334  1.8589 -1.4068
  666MOL0     H91864   0.909   8.649  10.301  0.5470  2.7544 -0.4238
  666MOL0     H91865   0.730   8.636  10.294  0.7178  4.0385  2.5917
  666MOL0     H91866   0.757   8.429  10.352 -0.3190 -1.0054  1.4632
  666MOL0     H91867   0.803   8.160  10.488 -1.8308 -1.7658  0.7454
  666MOL0     H91868   0.674   8.092  10.416  1.2282 -1.7519 -1.3488
  666MOL0     H91869   0.654   8.263  10.461 -0.3235  0.3683  0.0301
  666MOL0     H91870   1.131   7.813  10.045  1.9489 -0.6980  2.1319
  666MOL0     H91871   1.205   7.586  10.057 -0.2330 -3.5339  0.5159
  666MOL0     H91872   1.167   7.387  10.247  0.1941  1.5817 -1.0247
  666MOL0     H91873   1.076   7.238  10.197 -0.8998  0.0655  0.5746
  666MOL0     H91874   1.333   7.217  10.209 -1.4659 -0.4985  0.3114
  666MOL0     H91875   1.239   7.157  10.062 -1.8809  2.8713 -3.1621
  666MOL0     H91876   1.327   7.379   9.953  0.1103  0.6814 -0.3929
  666MOL0     H91877   1.433   7.251   9.991 -2.2802 -2.0095 -0.0281
  666MOL0     H91878   1.514   7.337  10.199 -2.1219 -0.3362  0.1808
  666MOL0     H91879   1.393   7.457  10.206 -2.6837 -1.0914 -2.8043
  666MOL0     H91880   1.634   7.437  10.010  0.6752 -0.6883  1.8616
  666MOL0     H91881   1.505   7.539   9.953 -3.7000 -1.2771  0.3244
  666MOL0     H91882   1.538   7.676  10.171  0.0227 -0.1068 -0.2186
  666MOL0     H91883   1.664   7.674  10.049 -2.0621 -0.4469 -2.0786
  666MOL0     H91884   1.810   7.543  10.163 -1.4314 -1.3667 -1.8299
  666MOL0     H91885   1.693   7.489  10.291 -1.1026 -0.0410 -2.0267
  666MOL0     H91886   1.773   7.782  10.276 -0.2416  0.4240  0.0807
  666MOL0     H91887   1.851   7.669  10.390 -0.7925 -0.2470  0.6724
  666MOL0     H91888   0.809   7.457  10.129 -0.3280  0.6853 -1.3885
  666MOL0     H91889   0.747   7.690  10.178 -0.4647 -1.1548 -0.0414
  666MOL0     H91890   0.958   8.138  10.017  0.4434 -0.2605  1.5739
  666MOL0     H91891   0.915   8.384   9.964 -0.4281 -0.4545 -0.5117
  666MOL0     H91892   0.468   7.880   9.586  0.2096 -0.4676  0.4648
  666MOL0     H91893   0.343   7.688   9.703  0.5431 -0.3406 -0.0283
  666MOL0     H91894   0.507   7.254  10.022 -0.5354 -1.4311  1.0837
  666MOL0     H91895   0.398   7.058  10.111 -0.5448 -0.0186 -0.3656
  666MOL0     H91896   0.157   6.892  10.068 -0.2630 -0.2092 -0.0032
  666MOL0     H91897   0.276   6.877  10.196  0.3109 -2.3177 -3.2098
  666MOL0     H91898   0.077   6.812  10.357  0.5847  1.2919  0.1962
  666MOL0     H91899   0.140   6.715  10.217  1.0953  2.8278 -4.9482
  666MOL0     H91900  -0.122   6.894  10.222  2.9782  1.9455 -0.4910
  666MOL0     H91901  -0.047   6.846  10.076 -0.3291 -1.5649 -0.4120
  666MOL0     H91902  -0.227   6.705  10.178  0.2979 -0.4674  2.0146
  666MOL0     H91903  -0.099   6.646  10.284  0.8366 -1.1302 -0.9800
  666MOL0     H91904  -0.012   6.456   9.920 -0.1255 -0.7425 -0.0923
  666MOL0     H91905   0.075   7.284  10.238 -0.4363  1.4331 -0.7545
  666MOL0     H91906   0.028   7.508  10.139 -0.3765  0.7766 -0.8297
  666MOL0     H91907   0.172   7.604  10.170 -1.6173  0.8434 -0.9135
  666MOL0     H91908   0.133   7.565  10.010  5.2103  2.1673  1.1052
  667MOL0     O91909   1.395   7.619   7.622 -0.4276 -0.0585  0.4781
  667MOL0     C91910   1.284   7.566   7.644  0.3999  0.3441 -0.7288
  667MOL0     O91911   1.157   7.616   7.608 -0.5844  0.1670  0.6090
  667MOL0     C91912   1.150   7.744   7.578 -0.1093 -0.5692 -0.2316
  667MOL0     C91913   1.159   7.843   7.673  0.4636 -0.6153  0.1068
  667MOL0     C91914   1.142   7.980   7.644  0.9194 -0.1141  0.8226
  667MOL0     C91915   1.145   8.022   7.500 -0.2374  0.8520 -0.7788
  667MOL0     O91916   1.146   8.161   7.473  0.1030  0.0218  0.1611
  667MOL0     C91917   1.133   8.198   7.334 -0.1280 -0.0591 -0.1857
  667MOL0     C91918   0.981   8.213   7.310 -0.3101 -0.4259  0.5212
  667MOL0     C91919   0.934   8.358   7.357 -0.4526 -0.4823  0.0012
  667MOL0     C91920   0.814   8.339   7.446  1.0173 -0.4516 -0.5883
  667MOL0     C91921   0.780   8.467   7.526 -0.0961  0.0705 -0.5442
  667MOL0     C91922   0.846   8.477   7.662 -0.3481 -1.0234 -0.3733
  667MOL0     C91923   0.799   8.588   7.762  0.3784  0.1062  0.4328
  667MOL0     C91924   0.810   8.720   7.696 -0.6032 -0.0059 -0.1403
  667MOL0     N91925   0.782   8.830   7.790 -0.1653 -0.6257 -0.2998
  667MOL0     C91926   0.861   8.930   7.819  0.1259 -0.7417 -0.4608
  667MOL0     C91927   0.838   8.964   7.947 -0.4468  0.2546 -0.3077
  667MOL0     C91928   0.893   9.091   8.012  0.3366  1.3664  0.2020
  667MOL0     C91929   0.906   9.082   8.168  0.4468 -0.8110  0.1710
  667MOL0     C91930   0.774   9.104   8.231  0.3413 -0.8351  0.6776
  667MOL0     C91931   0.785   9.114   8.382 -0.1832  0.7800 -0.7557
  667MOL0     O91932   0.658   9.128   8.451 -0.4904 -0.3164 -0.0451
  667MOL0     C91933   0.580   9.244   8.443 -0.1592 -0.5354  0.5269
  667MOL0     C91934   0.601   9.352   8.365  0.0359  0.7916  1.2797
  667MOL0     C91935   0.505   9.452   8.346 -0.1090  1.1036 -0.3947
  667MOL0     C91936   0.542   9.575   8.260  0.5906  1.4952  0.0314
  667MOL0     C91937   0.401   9.445   8.443  1.1646 -0.4985 -0.6185
  667MOL0     C91938   0.294   9.541   8.441  0.0374 -1.1237  0.0150
  667MOL0     O91939   0.167   9.494   8.467 -0.0902 -0.3363 -0.4320
  667MOL0     C91940   0.056   9.578   8.466 -0.1461  0.5146  0.1204
  667MOL0     C91941  -0.034   9.590   8.571 -0.6035 -0.5245 -0.3605
  667MOL0     C91942  -0.139   9.678   8.556  0.3361 -0.4757  0.0699
  667MOL0     C91943  -0.159   9.754   8.439  0.3055  0.3131 -0.2558
  667MOL0     O91944  -0.269   9.838   8.425 -0.3547  0.2507  0.1929
  667MOL0     C91945  -0.280   9.921   8.312  0.2919 -0.1651 -0.5738
  667MOL0     C91946  -0.380  10.033   8.336 -1.4917 -0.3230 -0.8260
  667MOL0     C91947  -0.328  10.133   8.432  1.1068 -0.2481 -0.2649
  667MOL0     C91948  -0.423  10.263   8.421 -0.3158 -0.8046  0.1316
  667MOL0     C91949  -0.354  10.379   8.507 -1.2902  0.1574 -0.9150
  667MOL0     C91950  -0.425  10.507   8.510 -0.4904 -0.3885 -0.5305
  667MOL0     C91951  -0.359  10.590   8.619  0.4200  0.5128  0.7179
  667MOL0     C91952  -0.448  10.714   8.656 -0.4818  0.2311  0.1020
  667MOL0    Cl91953  -0.607  10.690   8.748 -0.2517  0.1719  0.2862
  667MOL0     C91954  -0.074   9.729   8.327  0.2448  0.6101  0.5192
  667MOL0     C91955   0.033   9.641   8.347 -0.4222  0.4483  0.1425
  667MOL0     O91956   0.323   9.663   8.443 -0.3634  0.1620 -0.5625
  667MOL0     C91957   0.373   9.332   8.514 -0.0929 -1.1786  0.4288
  667MOL0     C91958   0.467   9.238   8.520 -0.0707 -0.3001  0.5604
  667MOL0     N91959   0.739   8.884   7.986  0.1650 -0.6620 -0.0082
  667MOL0     N91960   0.696   8.820   7.890  0.6721  1.2759  0.3594
  667MOL0     C91961   1.151   7.913   7.405 -0.5547  0.3108 -1.0099
  667MOL0     C91962   1.149   7.782   7.443 -0.2465 -0.5702 -0.5377
  667MOL0     C91963   1.297   7.450   7.741  0.7611  0.8707 -0.4073
  667MOL0     C91964   1.176   7.424   7.821  0.0942 -0.0228 -0.2895
  667MOL0     C91965   1.179   7.314   7.906 -0.0872  0.3774  0.0873
  667MOL0     C91966   1.285   7.219   7.912 -0.0386  0.2441  0.9779
  667MOL0     O91967   1.297   7.120   8.002 -0.9817 -0.3085  0.4817
  667MOL0     C91968   1.206   7.014   7.964 -0.1750  0.7804 -0.9880
  667MOL0     C91969   1.234   6.885   8.043  0.5687 -0.5325 -0.2094
  667MOL0     C91970   1.385   6.862   8.081  0.1108  0.2043  1.0645
  667MOL0     C91971   1.486   6.861   7.966 -0.6930  0.2576 -0.1575
  667MOL0     C91972   1.469   6.743   7.884  0.2197 -0.2677  0.4248
  667MOL0     C91973   1.456   6.658   7.804  0.3565 -0.9347 -1.2244
  667MOL0     C91974   1.395   7.248   7.831  0.9146  0.4387  0.3086
  667MOL0     C91975   1.410   7.358   7.748  0.3093 -0.2444 -0.2655
  667MOL0     C91976   1.529   7.364   7.662  0.5125 -0.4863  0.3936
  667MOL0     H91977   1.158   7.804   7.775  7.5777 -1.9275  0.1926
  667MOL0     H91978   1.155   8.055   7.721 -2.1698  2.2643 -0.7058
  667MOL0     H91979   1.193   8.127   7.276  2.6273  1.7542  0.2814
  667MOL0     H91980   1.183   8.294   7.320  0.3224 -0.3810 -0.8070
  667MOL0     H91981   0.951   8.189   7.207 -1.5483 -0.7548  0.9436
  667MOL0     H91982   0.922   8.137   7.362 -0.4891 -0.3024  0.5013
  667MOL0     H91983   1.003   8.413   7.423 -4.0145  2.3286  1.8089
  667MOL0     H91984   0.898   8.428   7.282 -1.3027  0.3675  1.1556
  667MOL0     H91985   0.728   8.314   7.383  1.1679 -2.1345 -0.1652
  667MOL0     H91986   0.835   8.259   7.517  0.8060 -1.2239 -1.3830
  667MOL0     H91987   0.672   8.472   7.544 -0.3558 -3.5733 -0.4050
  667MOL0     H91988   0.822   8.554   7.474  1.4212  0.9856  2.0258
  667MOL0     H91989   0.832   8.381   7.713  0.2579  0.4377  2.7822
  667MOL0     H91990   0.952   8.484   7.638 -0.8553  2.4177 -2.2525
  667MOL0     H91991   0.853   8.586   7.857  1.4025 -3.8747 -0.0691
  667MOL0     H91992   0.699   8.569   7.803  0.6167 -1.0624  0.4968
  667MOL0     H91993   0.914   8.732   7.665 -0.1585 -0.3961  1.1703
  667MOL0     H91994   0.742   8.717   7.610  0.3054 -0.1771 -0.8684
  667MOL0     H91995   0.927   8.977   7.747 -1.7058 -0.4051 -2.0221
  667MOL0     H91996   0.830   9.176   7.983  1.1628  1.7345 -0.5140
  667MOL0     H91997   0.991   9.096   7.964  0.7573  0.5934  0.9501
  667MOL0     H91998   0.945   8.985   8.199  0.4577 -0.6104  0.7811
  667MOL0     H91999   0.974   9.164   8.193 -1.8755  0.9758  1.0011
  667MOL0     H92000   0.734   9.190   8.176  1.1436 -1.9342 -1.7952
  667MOL0     H92001   0.702   9.026   8.204  0.5797 -1.0803  0.7467
  667MOL0     H92002   0.833   9.019   8.404 -0.8395 -0.1732 -3.0846
  667MOL0     H92003   0.851   9.195   8.414 -1.7230  2.3013 -1.2468
  667MOL0     H92004   0.699   9.371   8.322  0.0628  1.4705  1.6252
  667MOL0     H92005   0.586   9.542   8.166 -6.1247  1.0432 -3.5746
  667MOL0     H92006   0.597   9.640   8.329  0.5281  2.6907 -1.0320
  667MOL0     H92007   0.453   9.624   8.220 -0.6571 -0.7161 -0.1142
  667MOL0     H92008  -0.015   9.533   8.661 -2.6182 -0.5073  0.1113
  667MOL0     H92009  -0.198   9.704   8.644 -2.2786  0.4546 -1.8413
  667MOL0     H92010  -0.185   9.958   8.272  0.2874  1.7570  1.0351
  667MOL0     H92011  -0.316   9.841   8.247  3.5329 -3.4865  1.2811
  667MOL0     H92012  -0.399  10.077   8.238 -0.0273  0.7987 -0.6316
  667MOL0     H92013  -0.471   9.988   8.378  0.0153 -0.0993  3.0631
  667MOL0     H92014  -0.226  10.166   8.410  0.8811  0.0596 -0.8890
  667MOL0     H92015  -0.344  10.098   8.534 -0.0348 -1.0267 -0.6898
  667MOL0     H92016  -0.521  10.227   8.453  0.1727 -3.8602 -1.4259
  667MOL0     H92017  -0.440  10.298   8.319 -4.6020 -0.3222  0.8329
  667MOL0     H92018  -0.333  10.340   8.608 -1.1025  0.9081 -0.6582
  667MOL0     H92019  -0.254  10.399   8.468 -1.4662 -1.1394 -2.0866
  667MOL0     H92020  -0.531  10.496   8.536 -0.5539  2.3375  0.6947
  667MOL0     H92021  -0.416  10.550   8.410  0.9501 -1.4926 -0.9023
  667MOL0     H92022  -0.261  10.619   8.578 -0.1195  0.4521 -0.6725
  667MOL0     H92023  -0.339  10.519   8.699  0.2331 -2.3783 -1.6375
  667MOL0     H92024  -0.448  10.788   8.575 -1.5823  1.0214  0.7920
  667MOL0     H92025  -0.389  10.776   8.724 -0.7289  1.1652 -0.5036
  667MOL0     H92026  -0.089   9.773   8.229 -1.0622 -0.4814  0.1972
  667MOL0     H92027   0.104   9.638   8.264  0.0864  1.5350  0.5076
  667MOL0     H92028   0.292   9.327   8.587  2.3197 -0.4014  3.3698
  667MOL0     H92029   0.439   9.147   8.573 -0.8797 -0.9814 -0.9639
  667MOL0     H92030   1.144   7.937   7.300  2.1370  0.0199 -1.3392
  667MOL0     H92031   1.151   7.710   7.361  3.7109  0.4410 -1.5332
  667MOL0     H92032   1.097   7.499   7.817 -0.2938 -0.3027  1.4097
  667MOL0     H92033   1.099   7.292   7.976  1.0635 -2.8466  0.5951
  667MOL0     H92034   1.101   7.043   7.977 -0.4015  0.0235 -1.1001
  667MOL0     H92035   1.213   6.987   7.858  1.1625 -0.0293 -0.7230
  667MOL0     H92036   1.205   6.790   7.998  2.4467 -1.2400  0.0001
  667MOL0     H92037   1.171   6.890   8.132  1.6279 -0.9161  0.5697
  667MOL0     H92038   1.421   6.924   8.164 -2.5972 -1.4859  3.7230
  667MOL0     H92039   1.393   6.765   8.132 -1.8660 -0.2274  0.6615
  667MOL0     H92040   1.593   6.867   7.989 -0.4772  0.0535 -1.0744
  667MOL0     H92041   1.470   6.950   7.905 -0.6304  0.1039 -0.4021
  667MOL0     H92042   1.463   6.572   7.741  0.2934 -1.8402 -0.0382
  667MOL0     H92043   1.472   7.171   7.833  0.1811 -0.3227  2.6716
  667MOL0     H92044   1.505   7.384   7.558 -1.8513  0.3604  1.0230
  667MOL0     H92045   1.570   7.455   7.708 -1.9676 -0.0980  2.0623
  667MOL0     H92046   1.597   7.279   7.667  1.7493  0.1693 -3.0197
  668MOL0     O92047   7.431   8.622   3.493  0.0238 -0.5889  0.5663
  668MOL0     C92048   7.471   8.558   3.590  0.2383 -0.0121  0.9790
  668MOL0     O92049   7.595   8.562   3.644  0.3743  0.1081 -0.4822
  668MOL0     C92050   7.687   8.637   3.580  0.4537 -0.5326  0.4877
  668MOL0     C92051   7.706   8.771   3.605 -1.1062 -0.3288 -0.7184
  668MOL0     C92052   7.803   8.849   3.537 -0.1252  0.3381  0.7396
  668MOL0     C92053   7.888   8.784   3.435  0.3197  0.4810 -0.3478
  668MOL0     O92054   7.991   8.864   3.382 -0.0094  0.7854  0.2686
  668MOL0     C92055   8.013   8.833   3.245 -0.5399  0.3895 -0.5264
  668MOL0     C92056   8.118   8.917   3.179  0.2276 -1.1530 -0.2973
  668MOL0     C92057   8.264   8.876   3.219  0.5099 -0.2671 -0.7924
  668MOL0     C92058   8.363   8.930   3.120  1.6584 -0.1388  0.1121
  668MOL0     C92059   8.499   8.933   3.170  1.2403  0.0316  0.0913
  668MOL0     C92060   8.517   9.047   3.272  0.2878 -0.2379 -0.9773
  668MOL0     C92061   8.669   9.083   3.289  0.7488  0.5779  0.0998
  668MOL0     C92062   8.692   9.211   3.372 -0.4707  0.0786  0.4622
  668MOL0     N92063   8.826   9.264   3.373 -0.3937  0.8459 -0.1091
  668MOL0     C92064   8.889   9.318   3.265  1.1300  0.1976 -0.1219
  668MOL0     C92065   9.021   9.335   3.301  0.0324  0.0587 -0.4704
  668MOL0     C92066   9.130   9.397   3.223 -0.2166  0.4937  0.3801
  668MOL0     C92067   9.254   9.313   3.224  0.2186 -0.3706 -0.3422
  668MOL0     C92068   9.338   9.349   3.099  0.0591  1.0822 -0.4821
  668MOL0     C92069   9.402   9.479   3.112  0.0230 -0.6491  0.3867
  668MOL0     O92070   9.510   9.483   3.012  0.6416 -0.2159 -0.6212
  668MOL0     C92071   9.633   9.542   3.035 -0.1865 -0.5094  0.2836
  668MOL0     C92072   9.747   9.505   2.948  0.1811  0.6620 -0.6472
  668MOL0     C92073   9.875   9.550   2.973 -0.6902 -0.4926  0.2848
  668MOL0     C92074   9.981   9.498   2.877 -0.0646 -0.1527 -0.0932
  668MOL0     C92075   9.895   9.633   3.091 -0.6649 -0.0901  0.0561
  668MOL0     C92076  10.032   9.647   3.155 -0.7641 -0.7317  0.6497
  668MOL0     O92077  10.069   9.765   3.224  0.0283 -0.4132 -0.0676
  668MOL0     C92078  10.199   9.770   3.263  0.7785  0.9353  0.0919
  668MOL0     C92079  10.248   9.689   3.374 -0.3299  0.8443  0.8089
  668MOL0     C92080  10.382   9.677   3.417  0.1515  0.4860  0.7756
  668MOL0     C92081  10.475   9.749   3.353 -0.0088 -0.8831  0.5400
  668MOL0     O92082  10.595   9.754   3.412 -1.1004  0.0041 -0.3261
  668MOL0     C92083  10.650   9.888   3.427  0.7442 -0.7632 -0.1250
  668MOL0     C92084  10.752   9.884   3.547  0.2098 -0.2156 -0.4130
  668MOL0     C92085  10.819  10.020   3.579 -0.7039 -0.3598 -0.3545
  668MOL0     C92086  10.901  10.076   3.468 -0.1399 -1.0208  0.6669
  668MOL0     C92087  10.877  10.223   3.456 -0.8384  0.0018  0.4543
  668MOL0     C92088  10.938  10.294   3.338 -0.6084  0.4534 -0.1383
  668MOL0     C92089  10.891  10.440   3.336 -0.1447 -0.0395 -1.3002
  668MOL0     C92090  10.923  10.511   3.207  0.4374 -0.0352  0.2017
  668MOL0    Cl92091  10.852  10.428   3.067  0.2313 -0.4940  0.0353
  668MOL0     C92092  10.438   9.825   3.237 -0.2894  0.7659 -0.2587
  668MOL0     C92093  10.300   9.836   3.192  0.2297 -0.3956 -0.1589
  668MOL0     O92094  10.107   9.554   3.144 -0.1197  1.2273 -0.5061
  668MOL0     C92095   9.783   9.685   3.158 -0.0286 -0.1274  0.0883
  668MOL0     C92096   9.651   9.638   3.128 -0.1784 -0.0846 -0.1357
  668MOL0     N92097   9.032   9.284   3.437  0.2352  0.3348  1.1371
  668MOL0     N92098   8.916   9.238   3.471 -0.4076 -0.3421 -0.8510
  668MOL0     C92099   7.862   8.645   3.412 -0.6714  0.0880 -0.2660
  668MOL0     C92100   7.754   8.570   3.469 -0.3030 -0.3849 -1.0009
  668MOL0     C92101   7.372   8.458   3.636  0.7479  0.4917  0.3538
  668MOL0     C92102   7.234   8.493   3.657 -0.2824  0.5356 -0.4760
  668MOL0     C92103   7.146   8.401   3.705  0.2224 -0.4672 -0.2270
  668MOL0     C92104   7.181   8.265   3.716 -0.7842  0.0719  0.6892
  668MOL0     O92105   7.081   8.187   3.738  0.0473  0.3377  0.0412
  668MOL0     C92106   7.080   8.059   3.667  0.6842 -0.2943  0.2812
  668MOL0     C92107   6.946   7.977   3.701  0.2498 -0.3083 -0.3732
  668MOL0     C92108   6.948   7.840   3.640  0.8703  0.7805 -0.1529
  668MOL0     C92109   6.805   7.783   3.619  0.7054  0.8391 -0.2613
  668MOL0     C92110   6.800   7.689   3.505  1.2616 -1.1658 -0.4396
  668MOL0     C92111   6.791   7.620   3.407 -1.0015  0.2972  0.4145
  668MOL0     C92112   7.314   8.224   3.686 -0.1337 -0.7212 -1.1917
  668MOL0     C92113   7.410   8.321   3.656  0.1650  0.3204  0.3704
  668MOL0     C92114   7.557   8.267   3.647  0.2862  0.6690  0.4109
  668MOL0     H92115   7.653   8.815   3.690  1.2317 -0.0598  0.6896
  668MOL0     H92116   7.803   8.956   3.552  2.5125  0.4964  0.1316
  668MOL0     H92117   7.919   8.850   3.191 -1.0619 -2.1807 -0.5216
  668MOL0     H92118   8.037   8.728   3.228  0.8065  0.7312 -0.9407
  668MOL0     H92119   8.094   8.909   3.073 -1.2079  0.1550 -0.1093
  668MOL0     H92120   8.097   9.018   3.218  0.0689 -1.5009  0.5456
  668MOL0     H92121   8.284   8.923   3.316 -0.6210 -0.1734 -0.5956
  668MOL0     H92122   8.279   8.768   3.227 -0.3076 -0.3026  0.3995
  668MOL0     H92123   8.352   8.884   3.022  0.1688  1.1276 -0.3590
  668MOL0     H92124   8.341   9.036   3.101  0.5060 -0.4513 -0.3949
  668MOL0     H92125   8.561   8.946   3.082  1.4989 -1.7036 -0.0124
  668MOL0     H92126   8.526   8.835   3.209 -1.3074  0.7931  4.6223
  668MOL0     H92127   8.468   9.137   3.233 -0.1289  0.9440  2.0361
  668MOL0     H92128   8.482   9.020   3.372 -3.7580  6.4236  0.0269
  668MOL0     H92129   8.715   9.080   3.190 -1.2850 -1.9566 -0.9012
  668MOL0     H92130   8.721   9.001   3.339  0.1862  1.5901  2.5172
  668MOL0     H92131   8.636   9.298   3.336  0.2256  1.5733  2.8144
  668MOL0     H92132   8.673   9.197   3.478  1.3898  0.8861  0.9268
  668MOL0     H92133   8.855   9.334   3.163 -3.5572  0.7155  1.3018
  668MOL0     H92134   9.147   9.501   3.253 -1.4100 -0.0366  3.2451
  668MOL0     H92135   9.096   9.409   3.120  0.9459  3.7610  0.2808
  668MOL0     H92136   9.322   9.328   3.308  1.6619 -2.2359 -1.1041
  668MOL0     H92137   9.228   9.207   3.226  3.1845 -1.2029 -0.8621
  668MOL0     H92138   9.415   9.273   3.113 -2.5197 -1.6745 -0.2079
  668MOL0     H92139   9.297   9.335   2.998  0.8104 -0.4130 -0.6049
  668MOL0     H92140   9.320   9.550   3.097  2.8985  2.4745 -2.3597
  668MOL0     H92141   9.440   9.497   3.214 -0.2549 -0.9677  0.5475
  668MOL0     H92142   9.731   9.426   2.875 -0.1744 -0.5503  0.7209
  668MOL0     H92143  10.086   9.512   2.906  0.7550 -0.3019 -2.7138
  668MOL0     H92144   9.964   9.538   2.777  0.3795  2.1274  0.6861
  668MOL0     H92145   9.965   9.390   2.870 -1.1507 -0.2117  2.2937
  668MOL0     H92146  10.184   9.622   3.429 -1.4052  1.1474 -0.0364
  668MOL0     H92147  10.406   9.627   3.511  0.9899  0.1229  0.3814
  668MOL0     H92148  10.705   9.919   3.338  1.9226 -1.8351  0.2038
  668MOL0     H92149  10.561   9.949   3.448  1.0570  0.1455 -1.3528
  668MOL0     H92150  10.682   9.860   3.628  1.7842  1.9163  1.7221
  668MOL0     H92151  10.825   9.805   3.530  0.8366 -0.4486  2.8574
  668MOL0     H92152  10.889  10.011   3.662  2.4694  2.4805 -2.4767
  668MOL0     H92153  10.740  10.090   3.609  1.5587  2.3780 -0.4079
  668MOL0     H92154  10.857  10.045   3.373 -3.7311  3.7185  0.4092
  668MOL0     H92155  11.007  10.065   3.493 -0.0548 -0.9744  0.3305
  668MOL0     H92156  10.769  10.234   3.471 -1.0355 -1.2077  0.0327
  668MOL0     H92157  10.928  10.263   3.544  0.0624 -2.0844  0.9386
  668MOL0     H92158  10.908  10.243   3.246  1.9788  0.8069 -1.2419
  668MOL0     H92159  11.046  10.295   3.352 -0.5770  0.1005 -0.3424
  668MOL0     H92160  10.943  10.503   3.409 -0.0256  1.0509 -2.3059
  668MOL0     H92161  10.785  10.443   3.364  0.3615  0.4713  0.7104
  668MOL0     H92162  11.032  10.521   3.196  0.4619 -0.2351  0.2525
  668MOL0     H92163  10.882  10.612   3.210  2.8281  1.0186  3.1036
  668MOL0     H92164  10.512   9.867   3.168 -1.1101  2.9828  0.1126
  668MOL0     H92165  10.265   9.895   3.108  0.5547 -0.1257 -0.1082
  668MOL0     H92166   9.786   9.736   3.254 -0.2093 -3.3437  1.9570
  668MOL0     H92167   9.569   9.675   3.188  0.5995  0.6959  0.4746
  668MOL0     H92168   7.916   8.596   3.331  2.8262  0.9020  1.3459
  668MOL0     H92169   7.729   8.467   3.446 -1.3763 -0.2222 -0.6057
  668MOL0     H92170   7.201   8.597   3.661  2.6375  1.5560  2.2292
  668MOL0     H92171   7.043   8.434   3.707  0.5549  0.6650 -0.7876
  668MOL0     H92172   7.084   8.086   3.561 -1.8522  0.8689  0.4181
  668MOL0     H92173   7.165   7.999   3.702 -0.1278 -2.1081 -0.7049
  668MOL0     H92174   6.869   8.039   3.654 -0.2443  1.4262  2.4405
  668MOL0     H92175   6.942   7.963   3.809 -1.0056  0.5772 -0.2845
  668MOL0     H92176   7.001   7.853   3.545  1.8666  0.3946  0.3366
  668MOL0     H92177   7.009   7.776   3.705  0.2984  1.1310  0.7545
  668MOL0     H92178   6.732   7.863   3.606 -1.9883 -1.5950 -0.8933
  668MOL0     H92179   6.786   7.721   3.706  3.7764 -1.5191 -1.0731
  668MOL0     H92180   6.814   7.556   3.324 -0.7313  0.6511  0.2131
  668MOL0     H92181   7.328   8.116   3.681 -4.5947 -1.5211 -0.0406
  668MOL0     H92182   7.613   8.321   3.724  0.7356  4.0677 -2.0450
  668MOL0     H92183   7.560   8.160   3.667  2.8599  0.2877 -1.5014
  668MOL0     H92184   7.607   8.293   3.553  2.1111 -1.6627  0.6582
  669MOL0     O92185   7.110   7.648  11.111  0.1875 -0.5596  0.0884
  669MOL0     C92186   7.062   7.760  11.152  0.1000  0.3952  0.0753
  669MOL0     O92187   7.115   7.844  11.243  0.4471  0.2413 -0.5710
  669MOL0     C92188   7.233   7.812  11.308 -0.1003 -0.7394  0.0043
  669MOL0     C92189   7.310   7.920  11.335 -0.0257 -0.6336 -0.1634
  669MOL0     C92190   7.425   7.897  11.399 -0.0856  0.9332 -0.1943
  669MOL0     C92191   7.473   7.770  11.432 -0.0822 -0.1828 -0.8139
  669MOL0     O92192   7.585   7.757  11.506 -0.8631 -0.7167  0.4129
  669MOL0     C92193   7.700   7.806  11.439  0.0762  0.5058  0.0745
  669MOL0     C92194   7.812   7.699  11.463  0.0141  0.5644 -0.3095
  669MOL0     C92195   7.895   7.726  11.584 -1.3858 -0.2966  0.1954
  669MOL0     C92196   8.002   7.611  11.603  0.6562  0.5571  0.8095
  669MOL0     C92197   8.056   7.616  11.746  0.2994 -0.0519  0.4551
  669MOL0     C92198   8.155   7.739  11.783  1.0707 -0.7993  0.1604
  669MOL0     C92199   8.171   7.735  11.931 -0.0292 -0.0162 -0.1566
  669MOL0     C92200   8.252   7.854  11.982  0.1263 -0.7652 -0.6117
  669MOL0     N92201   8.395   7.844  11.955 -0.2475 -0.0499 -0.6868
  669MOL0     C92202   8.478   7.767  12.035  0.8642 -0.2741  1.2654
  669MOL0     C92203   8.585   7.741  11.955 -0.0544  0.0054  0.1282
  669MOL0     C92204   8.701   7.657  11.987  0.3455 -0.7844  0.1052
  669MOL0     C92205   8.803   7.661  11.872  0.5074  1.3320 -0.0900
  669MOL0     C92206   8.935   7.586  11.917  0.1302 -0.4381 -0.1109
  669MOL0     C92207   8.922   7.424  11.905  0.2107  0.1009 -1.0782
  669MOL0     O92208   9.045   7.368  11.971  0.2033  0.7950  0.5279
  669MOL0     C92209   9.023   7.304  12.095 -1.0540  0.3801  0.6623
  669MOL0     C92210   8.958   7.184  12.107  0.0471 -0.5524 -0.0723
  669MOL0     C92211   8.937   7.124  12.239  0.2355  0.5809  1.1632
  669MOL0     C92212   8.858   6.998  12.244  0.3910  0.3670  0.0910
  669MOL0     C92213   8.995   7.185  12.352 -0.2249 -0.7430 -0.4304
  669MOL0     C92214   8.975   7.136  12.497  0.6721 -0.6030 -0.3491
  669MOL0     O92215   9.064   7.185  12.585 -0.1163 -0.4619  0.2046
  669MOL0     C92216   9.089   7.123  12.712 -0.6580 -0.1743 -0.4120
  669MOL0     C92217   9.142   6.993  12.724 -0.5475 -0.0801 -0.2211
  669MOL0     C92218   9.141   6.932  12.848  0.2174  0.2024 -0.1187
  669MOL0     C92219   9.110   7.001  12.964  0.2727 -0.2908 -0.6418
  669MOL0     O92220   9.157   6.960  13.090 -0.0764  0.0554 -0.1759
  669MOL0     C92221   9.210   7.063  13.178  0.7559 -0.1882  0.8257
  669MOL0     C92222   9.248   6.990  13.310 -0.4448 -0.9257  0.4371
  669MOL0     C92223   9.382   6.914  13.287 -0.3203 -0.7337  0.2355
  669MOL0     C92224   9.442   6.875  13.423 -0.6333  0.1194 -0.0331
  669MOL0     C92225   9.569   6.795  13.388  1.1384 -0.6360 -0.1160
  669MOL0     C92226   9.644   6.768  13.508 -0.2580  0.2301  0.1173
  669MOL0     C92227   9.565   6.661  13.591 -0.7036  0.3109  0.3683
  669MOL0     C92228   9.494   6.712  13.709  0.2413 -0.0595 -1.1600
  669MOL0    Cl92229   9.599   6.736  13.859 -0.1530 -0.0910 -0.3819
  669MOL0     C92230   9.044   7.121  12.948 -0.2389  0.3675 -0.3462
  669MOL0     C92231   9.050   7.187  12.825 -0.0531 -0.2303 -0.5123
  669MOL0     O92232   8.887   7.063  12.534  0.3198 -1.0841  0.6832
  669MOL0     C92233   9.073   7.299  12.332 -0.1063 -0.1198  0.0357
  669MOL0     C92234   9.092   7.357  12.206  0.5008  0.3428  0.4928
  669MOL0     N92235   8.574   7.827  11.843  0.5266  0.0314 -1.1792
  669MOL0     N92236   8.470   7.888  11.850  0.7276 -0.4410  0.4331
  669MOL0     C92237   7.394   7.659  11.404 -0.1978 -0.8964  0.1030
  669MOL0     C92238   7.272   7.676  11.337  0.5725 -0.3505  0.1285
  669MOL0     C92239   6.942   7.807  11.071  0.1155  0.0674  0.8544
  669MOL0     C92240   6.943   7.932  11.017 -0.0286 -0.6769 -0.5615
  669MOL0     C92241   6.856   7.977  10.918 -0.9509 -0.7289  0.2303
  669MOL0     C92242   6.749   7.904  10.866 -0.1694  0.4405  0.4512
  669MOL0     O92243   6.672   7.964  10.760 -0.1529 -0.4619 -0.5411
  669MOL0     C92244   6.562   7.887  10.725  0.1609  0.6075 -0.1495
  669MOL0     C92245   6.470   7.964  10.634  0.2480  0.5984 -0.6171
  669MOL0     C92246   6.414   8.084  10.723 -0.1652  0.2133  0.4780
  669MOL0     C92247   6.292   8.137  10.654 -0.4030 -0.4384  1.1294
  669MOL0     C92248   6.318   8.176  10.519  0.1203 -0.1724 -0.3424
  669MOL0     C92249   6.353   8.167  10.404  0.6384 -0.5387  0.6505
  669MOL0     C92250   6.738   7.781  10.933 -0.7048  0.3963 -0.4192
  669MOL0     C92251   6.831   7.727  11.033 -0.3541 -0.7358  0.0859
  669MOL0     C92252   6.799   7.593  11.098  0.2855  0.0624  0.7371
  669MOL0     H92253   7.278   8.018  11.305 -0.4668 -1.3597 -2.1975
  669MOL0     H92254   7.497   7.972  11.429  0.9256 -0.9549  2.6322
  669MOL0     H92255   7.726   7.900  11.487 -2.3664 -0.7217  4.3630
  669MOL0     H92256   7.692   7.823  11.331  0.2567  0.5319  0.0641
  669MOL0     H92257   7.774   7.602  11.495 -0.5327  0.4698 -1.1993
  669MOL0     H92258   7.877   7.682  11.376 -2.4829 -1.3997 -1.9438
  669MOL0     H92259   7.935   7.827  11.573 -1.2662 -0.3833 -0.1737
  669MOL0     H92260   7.837   7.716  11.677 -0.0046 -2.8645  0.8912
  669MOL0     H92261   7.962   7.512  11.581 -0.2775  1.2234 -0.6270
  669MOL0     H92262   8.084   7.628  11.532 -0.3980 -0.0146 -0.5792
  669MOL0     H92263   8.096   7.516  11.762 -0.2038 -0.1252  1.3139
  669MOL0     H92264   7.973   7.619  11.817 -1.1607 -0.7109 -1.1578
  669MOL0     H92265   8.249   7.727  11.728  1.8641  1.7469  0.8239
  669MOL0     H92266   8.111   7.830  11.740 -0.7684 -1.7117  0.0301
  669MOL0     H92267   8.210   7.638  11.963 -2.8643 -0.6233  1.8592
  669MOL0     H92268   8.069   7.741  11.969  0.2927  0.4798  0.6556
  669MOL0     H92269   8.209   7.951  11.955 -1.3477 -1.1453  0.1914
  669MOL0     H92270   8.236   7.852  12.091  3.0493 -0.6678 -0.1061
  669MOL0     H92271   8.455   7.703  12.120 -1.0989  0.8109  1.6119
  669MOL0     H92272   8.665   7.554  11.982  1.9707 -1.3505 -0.7416
  669MOL0     H92273   8.744   7.691  12.082 -0.6486 -5.6552  2.6229
  669MOL0     H92274   8.764   7.598  11.792  0.2631 -1.5908  2.1585
  669MOL0     H92275   8.822   7.764  11.840 -0.6847  1.5559 -0.1017
  669MOL0     H92276   9.018   7.609  11.849  2.4165  0.1973  2.6991
  669MOL0     H92277   8.971   7.620  12.014  0.0672  1.3113 -0.6549
  669MOL0     H92278   8.833   7.396  11.962 -0.5145  1.8530 -1.2843
  669MOL0     H92279   8.913   7.379  11.806 -3.2495 -0.0296 -0.8052
  669MOL0     H92280   8.913   7.138  12.019  1.7771  0.1985 -1.4053
  669MOL0     H92281   8.756   7.017  12.280  0.1518 -1.2149  0.3058
  669MOL0     H92282   8.914   6.927  12.306  0.6218 -0.8895 -1.5019
  669MOL0     H92283   8.839   6.958  12.144 -0.3511  0.9482 -0.0149
  669MOL0     H92284   9.168   6.944  12.631 -1.1732 -0.2414 -0.3120
  669MOL0     H92285   9.194   6.838  12.863  1.0589  0.9830  2.4026
  669MOL0     H92286   9.291   7.119  13.131 -1.0005  2.2580  0.4779
  669MOL0     H92287   9.131   7.137  13.197  0.7000  0.1378 -0.5528
  669MOL0     H92288   9.258   7.075  13.379 -0.3443  1.2194 -2.0660
  669MOL0     H92289   9.184   6.923  13.368 -0.2401 -0.7731  0.8491
  669MOL0     H92290   9.445   6.981  13.228 -3.9874  0.1772 -3.1017
  669MOL0     H92291   9.363   6.821  13.234 -1.2065 -1.0879  1.1333
  669MOL0     H92292   9.369   6.826  13.488 -0.0186 -0.2833  0.3654
  669MOL0     H92293   9.473   6.966  13.475 -0.4092 -0.7345  1.3942
  669MOL0     H92294   9.542   6.702  13.337 -2.1601  1.6917 -3.0905
  669MOL0     H92295   9.637   6.855  13.327 -0.9912  0.8551 -1.1596
  669MOL0     H92296   9.662   6.861  13.563  2.3430 -0.1928  0.0771
  669MOL0     H92297   9.731   6.713  13.471 -1.7704 -2.3579  0.2161
  669MOL0     H92298   9.646   6.600  13.632  0.6666  1.8287  0.0418
  669MOL0     H92299   9.503   6.594  13.531  1.1362  0.0173 -1.2862
  669MOL0     H92300   9.417   6.644  13.747  0.0802  0.2197 -0.9779
  669MOL0     H92301   9.449   6.808  13.683  3.3863  2.6608  2.3311
  669MOL0     H92302   9.000   7.159  13.040  2.4650 -2.1270  2.2007
  669MOL0     H92303   8.994   7.279  12.810 -1.1711 -1.0862 -1.9185
  669MOL0     H92304   9.132   7.332  12.417  2.4849 -3.9104 -0.0699
  669MOL0     H92305   9.152   7.446  12.191  2.4622 -1.2962 -2.4911
  669MOL0     H92306   7.438   7.560  11.408  1.3401 -0.3217 -1.2721
  669MOL0     H92307   7.226   7.580  11.315  0.9926 -0.7609  0.9831
  669MOL0     H92308   7.013   8.011  11.041 -1.8947  0.6544  0.7641
  669MOL0     H92309   6.861   8.076  10.874  0.5637 -0.2365  1.4165
  669MOL0     H92310   6.590   7.794  10.675 -1.7147 -0.2481  0.2896
  669MOL0     H92311   6.504   7.851  10.811  0.3001  0.4814 -0.1082
  669MOL0     H92312   6.385   7.910  10.592 -2.4953  2.8387  1.6077
  669MOL0     H92313   6.538   7.992  10.553 -0.8210  2.3464 -0.9769
  669MOL0     H92314   6.367   8.045  10.814 -0.8261  1.3312  0.6284
  669MOL0     H92315   6.489   8.162  10.738 -3.1462  3.0147  2.0783
  669MOL0     H92316   6.263   8.227  10.708  2.1660  0.0232  1.8681
  669MOL0     H92317   6.211   8.063  10.659  0.9587 -1.9495  1.5328
  669MOL0     H92318   6.371   8.164  10.299  0.8193  2.7433  0.5006
  669MOL0     H92319   6.659   7.721  10.888  0.7048 -0.6809 -1.5314
  669MOL0     H92320   6.867   7.518  11.056  1.1238  0.8060  0.7279
  669MOL0     H92321   6.829   7.604  11.203  1.8090  1.0230  0.2392
  669MOL0     H92322   6.694   7.567  11.087 -0.2706  2.6055 -0.5303
  670MOL0     O92323   2.131   7.758   1.426  1.0134 -0.6473  0.1016
  670MOL0     C92324   2.178   7.873   1.431  1.1557 -0.1425 -0.1317
  670MOL0     O92325   2.097   7.991   1.414  0.1831  0.1759 -0.0954
  670MOL0     C92326   1.965   7.991   1.439 -0.2441  0.6304  0.1076
  670MOL0     C92327   1.926   8.066   1.552  0.5099 -0.2417 -0.0863
  670MOL0     C92328   1.786   8.082   1.576 -0.4210  0.2211 -0.2909
  670MOL0     C92329   1.695   8.022   1.485 -0.8573  0.6246 -0.0684
  670MOL0     O92330   1.565   8.017   1.506 -0.2209  0.3118  0.3660
  670MOL0     C92331   1.486   8.141   1.500  0.3589  0.0274  0.1390
  670MOL0     C92332   1.334   8.112   1.530 -0.1826  0.5871 -0.1890
  670MOL0     C92333   1.252   8.238   1.552 -0.0325  0.8873  0.6214
  670MOL0     C92334   1.109   8.186   1.592  0.2184 -0.8501  0.1304
  670MOL0     C92335   1.011   8.304   1.643 -0.2059  0.7136  0.0934
  670MOL0     C92336   1.049   8.345   1.781  0.7797  0.1900 -0.6374
  670MOL0     C92337   0.922   8.366   1.874  0.0333  1.1947  0.3079
  670MOL0     C92338   0.836   8.474   1.810 -0.3819 -0.0824 -0.0516
  670MOL0     N92339   0.714   8.488   1.895 -0.1652  0.4293 -0.8368
  670MOL0     C92340   0.604   8.403   1.873  0.7099  0.0404 -1.0134
  670MOL0     C92341   0.519   8.447   1.963 -0.3038 -0.2308  0.9954
  670MOL0     C92342   0.384   8.402   1.988 -0.8612 -0.1204  0.2003
  670MOL0     C92343   0.300   8.437   2.110 -0.1971 -0.6565 -0.1189
  670MOL0     C92344   0.235   8.568   2.089  0.1915 -0.1852 -0.4494
  670MOL0     C92345   0.120   8.603   2.189  0.2948 -0.4268 -1.1791
  670MOL0     O92346   0.080   8.742   2.189  0.4176  0.0827 -0.3314
  670MOL0     C92347  -0.036   8.778   2.243  0.0407  0.1872 -0.1059
  670MOL0     C92348  -0.042   8.911   2.259 -0.4275 -0.7758  0.2784
  670MOL0     C92349  -0.156   8.977   2.320 -0.0058 -1.1253 -0.3618
  670MOL0     C92350  -0.166   9.133   2.346 -0.3979 -0.4890 -1.1607
  670MOL0     C92351  -0.258   8.898   2.371 -0.0396  0.3489 -0.1614
  670MOL0     C92352  -0.379   8.965   2.420  0.4775  0.1408  0.1680
  670MOL0     O92353  -0.505   8.924   2.367  0.5370  0.4224 -0.3531
  670MOL0     C92354  -0.615   8.986   2.422  0.6242  0.2971 -0.4448
  670MOL0     C92355  -0.634   9.128   2.398  0.2025 -0.0880 -0.3465
  670MOL0     C92356  -0.739   9.188   2.463 -0.0943 -0.2520  0.3112
  670MOL0     C92357  -0.828   9.114   2.546  0.0181 -0.1161  0.3715
  670MOL0     O92358  -0.933   9.179   2.604  0.3595  0.3424  0.5647
  670MOL0     C92359  -1.045   9.170   2.521  0.3514 -0.3280 -1.0554
  670MOL0     C92360  -1.146   9.274   2.585  0.3415  0.2115 -1.0575
  670MOL0     C92361  -1.254   9.224   2.681  0.1976  0.3246 -0.0594
  670MOL0     C92362  -1.208   9.169   2.819 -0.7031  1.2087 -0.1098
  670MOL0     C92363  -1.203   9.012   2.816 -0.4530 -0.7133 -0.2763
  670MOL0     C92364  -1.164   8.941   2.944  0.0750  0.3020  0.0953
  670MOL0     C92365  -1.175   8.789   2.943  0.4997 -0.6822  0.3641
  670MOL0     C92366  -1.181   8.727   3.081  0.3206  0.2233 -0.4545
  670MOL0    Cl92367  -1.356   8.715   3.122 -0.0114  0.2760  0.1955
  670MOL0     C92368  -0.804   8.975   2.570  0.3442 -0.8948  0.0757
  670MOL0     C92369  -0.693   8.920   2.510  0.0590  0.6555  0.0118
  670MOL0     O92370  -0.372   9.026   2.527 -0.2242 -0.1216 -0.0159
  670MOL0     C92371  -0.256   8.756   2.357 -0.6269  0.4135 -0.3840
  670MOL0     C92372  -0.146   8.699   2.300 -0.4942 -0.3220  0.6620
  670MOL0     N92373   0.578   8.550   2.039  0.1833 -0.5074 -0.3437
  670MOL0     N92374   0.698   8.570   2.003 -0.0576  0.5112 -0.1482
  670MOL0     C92375   1.737   7.955   1.375  0.4463 -0.7482  0.2524
  670MOL0     C92376   1.872   7.937   1.351  0.1672 -1.0604  0.5172
  670MOL0     C92377   2.325   7.897   1.452  0.3308 -0.2006  0.6159
  670MOL0     C92378   2.397   7.779   1.483 -0.5273  0.0800 -0.2616
  670MOL0     C92379   2.536   7.779   1.501  0.1270 -0.2281 -0.1736
  670MOL0     C92380   2.603   7.898   1.482 -0.5368 -0.4337  0.2512
  670MOL0     O92381   2.742   7.908   1.482  0.6027  0.8657  0.1311
  670MOL0     C92382   2.778   8.005   1.579  0.0534 -0.5607  0.5693
  670MOL0     C92383   2.925   7.986   1.604  0.3819 -0.4125 -0.0644
  670MOL0     C92384   2.933   7.873   1.707 -0.3651 -0.6029  0.7625
  670MOL0     C92385   2.957   7.916   1.847 -0.3516  0.3406 -0.1615
  670MOL0     C92386   2.901   7.813   1.937 -0.2724  0.6038 -0.6246
  670MOL0     C92387   2.861   7.710   1.990 -0.2855 -0.6431 -0.7540
  670MOL0     C92388   2.531   8.008   1.438  0.2688 -0.2693  0.3082
  670MOL0     C92389   2.395   8.017   1.421 -0.8421  0.1356  0.0021
  670MOL0     C92390   2.344   8.144   1.358 -0.2437 -0.6659 -0.2095
  670MOL0     H92391   1.999   8.110   1.619  0.8108  1.5686 -1.5332
  670MOL0     H92392   1.747   8.125   1.667 -2.0514 -2.3510  0.3499
  670MOL0     H92393   1.497   8.192   1.403  1.8670  0.3061  0.4359
  670MOL0     H92394   1.522   8.204   1.581 -0.0723 -1.4406  1.5376
  670MOL0     H92395   1.293   8.051   1.449  0.5826  1.5646 -1.3516
  670MOL0     H92396   1.326   8.058   1.624  1.3692  0.2754 -0.2046
  670MOL0     H92397   1.291   8.308   1.627  0.3528 -0.1509  1.4207
  670MOL0     H92398   1.252   8.296   1.460 -1.6415 -0.1931 -0.1004
  670MOL0     H92399   1.069   8.123   1.513 -1.7244  0.8560 -0.3367
  670MOL0     H92400   1.113   8.114   1.674 -0.8343 -1.0727 -0.0010
  670MOL0     H92401   0.920   8.243   1.645 -1.1674  2.0920  2.4355
  670MOL0     H92402   1.001   8.386   1.571  0.5129 -0.3495 -1.2670
  670MOL0     H92403   1.108   8.266   1.829 -0.9276  1.4775  4.0731
  670MOL0     H92404   1.107   8.437   1.773  1.1434  0.1703  1.3526
  670MOL0     H92405   0.954   8.389   1.976  0.3651 -0.6581  0.6573
  670MOL0     H92406   0.850   8.284   1.888 -2.7985  3.2345 -1.3312
  670MOL0     H92407   0.879   8.574   1.797 -0.4853  0.3510  2.3884
  670MOL0     H92408   0.807   8.440   1.711  1.4333 -0.7112 -0.3977
  670MOL0     H92409   0.583   8.323   1.802  3.6915  0.2199 -2.2732
  670MOL0     H92410   0.399   8.294   1.995 -0.7754 -0.1938 -0.9013
  670MOL0     H92411   0.325   8.422   1.898 -0.5104  0.2767  0.0509
  670MOL0     H92412   0.228   8.355   2.097  2.0318 -2.7966  0.2151
  670MOL0     H92413   0.355   8.417   2.203 -2.7856 -1.9884  1.2346
  670MOL0     H92414   0.308   8.649   2.090  0.8813 -0.7817  1.6591
  670MOL0     H92415   0.182   8.571   1.993  0.0224 -1.6953 -0.4385
  670MOL0     H92416   0.034   8.537   2.175  0.2134 -0.2152 -1.6820
  670MOL0     H92417   0.147   8.589   2.295 -0.3489  3.4054 -0.3758
  670MOL0     H92418   0.046   8.966   2.229 -2.1858  1.4176 -1.2118
  670MOL0     H92419  -0.244   9.196   2.303  0.7545  1.4232 -0.5627
  670MOL0     H92420  -0.070   9.169   2.309 -0.4081 -2.2839 -3.0778
  670MOL0     H92421  -0.157   9.165   2.451  2.0553  2.5470 -2.1465
  670MOL0     H92422  -0.577   9.181   2.322  0.6482  2.5324  1.6789
  670MOL0     H92423  -0.756   9.294   2.449  0.4461  0.2841  3.1560
  670MOL0     H92424  -1.021   9.190   2.417  0.5251  0.2776 -0.8997
  670MOL0     H92425  -1.087   9.070   2.535 -1.7109  0.7817  1.5304
  670MOL0     H92426  -1.093   9.355   2.636 -2.0620 -0.0964  2.2768
  670MOL0     H92427  -1.192   9.324   2.499  1.0037  0.5420 -1.2207
  670MOL0     H92428  -1.321   9.160   2.625 -0.8381 -0.1896  1.6916
  670MOL0     H92429  -1.309   9.315   2.707 -0.4033 -0.3455  1.0650
  670MOL0     H92430  -1.279   9.211   2.892 -2.6811  0.9099 -1.7587
  670MOL0     H92431  -1.110   9.203   2.852  1.3503 -1.9890 -2.3454
  670MOL0     H92432  -1.307   8.978   2.806 -0.3171 -1.5223  0.7587
  670MOL0     H92433  -1.133   8.974   2.741  0.5592  0.4644  0.0430
  670MOL0     H92434  -1.235   8.985   3.014 -1.1903 -1.7161  0.1687
  670MOL0     H92435  -1.058   8.950   2.971  0.3909 -2.4635  0.0839
  670MOL0     H92436  -1.096   8.748   2.878  1.8031  0.4540  1.1728
  670MOL0     H92437  -1.265   8.766   2.885  1.7737 -2.3723 -1.0770
  670MOL0     H92438  -1.128   8.784   3.158  2.3581 -0.1319 -1.5389
  670MOL0     H92439  -1.134   8.628   3.079 -0.9563 -0.4017 -2.6645
  670MOL0     H92440  -0.881   8.919   2.621 -0.0853  0.8070  1.3786
  670MOL0     H92441  -0.673   8.815   2.523 -2.4293 -0.0419 -1.2038
  670MOL0     H92442  -0.333   8.682   2.376 -0.0848 -0.1232 -0.2134
  670MOL0     H92443  -0.151   8.594   2.275  2.7440 -1.0921  2.7475
  670MOL0     H92444   1.666   7.919   1.301 -0.2522 -0.8654  0.9635
  670MOL0     H92445   1.912   7.893   1.260  1.0287  1.5846 -0.4819
  670MOL0     H92446   2.354   7.681   1.501  0.5985 -0.1832  1.1616
  670MOL0     H92447   2.581   7.688   1.540  0.1358  0.1662  0.7681
  670MOL0     H92448   2.762   8.108   1.547 -3.1793 -1.0908  0.1913
  670MOL0     H92449   2.715   7.994   1.668 -3.1431 -3.2788 -1.7957
  670MOL0     H92450   2.959   8.080   1.649  1.1001 -0.5837 -0.2487
  670MOL0     H92451   2.986   7.974   1.514  0.2203  2.8881 -0.7658
  670MOL0     H92452   2.848   7.804   1.703  0.4561 -1.6018 -0.9591
  670MOL0     H92453   3.024   7.824   1.672 -0.2110  0.8376 -0.9710
  670MOL0     H92454   2.919   8.014   1.876 -2.2772 -0.8939  1.6985
  670MOL0     H92455   3.063   7.938   1.865 -0.4635  1.7342 -1.0238
  670MOL0     H92456   2.834   7.617   2.037 -0.6365  0.2925  0.9967
  670MOL0     H92457   2.579   8.101   1.408 -1.2240  0.2475 -0.6106
  670MOL0     H92458   2.264   8.142   1.283 -1.2632  3.3182  0.5453
  670MOL0     H92459   2.320   8.215   1.438 -0.6187  0.1102 -0.9935
  670MOL0     H92460   2.431   8.188   1.309  0.1864  1.9668  2.6170
  671MOL0     O92461   3.649   6.493   2.872  0.3511 -0.3108 -0.2255
  671MOL0     C92462   3.771   6.505   2.861 -0.6093 -0.0784 -0.0500
  671MOL0     O92463   3.858   6.409   2.893 -0.7185  0.6721  0.1057
  671MOL0     C92464   3.803   6.288   2.932 -1.1314  0.1567  0.8076
  671MOL0     C92465   3.729   6.265   3.048  0.1891 -0.3046  0.8257
  671MOL0     C92466   3.673   6.138   3.064 -0.0265  0.2480 -0.7875
  671MOL0     C92467   3.670   6.047   2.967 -0.3630 -0.6009 -0.3194
  671MOL0     O92468   3.609   5.924   3.002  0.1749 -0.7647 -0.3996
  671MOL0     C92469   3.622   5.810   2.923  0.4644 -0.2747  0.5184
  671MOL0     C92470   3.760   5.742   2.913  0.1310 -0.4470 -0.7980
  671MOL0     C92471   3.796   5.652   3.041  1.2910  0.1766  0.5927
  671MOL0     C92472   3.715   5.523   3.055 -0.0995  1.2537  0.6966
  671MOL0     C92473   3.678   5.499   3.197 -0.4428  0.2521  0.1302
  671MOL0     C92474   3.800   5.480   3.290  0.4330 -0.0057  0.9142
  671MOL0     C92475   3.898   5.367   3.244 -0.3481 -0.5269  0.2189
  671MOL0     C92476   3.835   5.234   3.233  0.5359 -0.6102  0.3140
  671MOL0     N92477   3.934   5.146   3.171 -0.1671  0.1893 -0.1035
  671MOL0     C92478   3.913   5.098   3.048 -0.6889  0.3069  0.2538
  671MOL0     C92479   4.033   5.036   3.020 -0.3500  0.9995  0.0229
  671MOL0     C92480   4.063   4.973   2.889  0.4999  0.3813 -0.4881
  671MOL0     C92481   4.050   4.822   2.893  0.1001 -1.0327  0.7749
  671MOL0     C92482   4.100   4.764   2.767  0.1382  0.3251  0.3938
  671MOL0     C92483   4.020   4.632   2.735 -0.2845 -0.4575  0.1585
  671MOL0     O92484   4.029   4.540   2.854  0.5603 -0.0079  1.2974
  671MOL0     C92485   4.023   4.410   2.819  0.8721  0.3998  0.3499
  671MOL0     C92486   3.914   4.330   2.851 -0.7220 -0.4472  0.7217
  671MOL0     C92487   3.918   4.195   2.838  0.1388  1.0626  0.1422
  671MOL0     C92488   3.800   4.121   2.888 -0.6469  0.1995  0.2320
  671MOL0     C92489   4.025   4.134   2.768 -0.1788  0.4017 -0.7426
  671MOL0     C92490   4.031   3.991   2.743  0.5159  1.8181  0.4538
  671MOL0     O92491   4.133   3.947   2.659  0.0746 -1.2649 -0.1170
  671MOL0     C92492   4.144   3.820   2.597 -0.0941 -0.6445 -0.1350
  671MOL0     C92493   4.028   3.761   2.549  0.3279  0.2266 -0.3224
  671MOL0     C92494   4.034   3.647   2.460  0.7793 -0.4055 -0.3717
  671MOL0     C92495   4.165   3.597   2.444  0.7181 -0.6312 -0.7134
  671MOL0     O92496   4.167   3.485   2.370  0.8045  0.1683  0.1514
  671MOL0     C92497   4.183   3.513   2.233  0.2075  0.3690 -0.2959
  671MOL0     C92498   4.241   3.384   2.193  0.3220  0.2147 -0.8097
  671MOL0     C92499   4.389   3.364   2.244  0.8143  0.3005 -0.2636
  671MOL0     C92500   4.448   3.216   2.240  0.8617 -0.4797 -1.1998
  671MOL0     C92501   4.590   3.217   2.285  0.9186 -0.1329 -0.0484
  671MOL0     C92502   4.664   3.090   2.284  0.6303  0.4229 -0.0732
  671MOL0     C92503   4.818   3.129   2.319  0.0926  0.7423 -0.4940
  671MOL0     C92504   4.903   3.000   2.305 -0.1064 -0.7177  0.3873
  671MOL0    Cl92505   4.869   2.870   2.422  0.2501  0.1952 -0.3487
  671MOL0     C92506   4.280   3.650   2.505 -0.7971 -0.1742  0.4441
  671MOL0     C92507   4.274   3.772   2.574  0.2014 -0.3572  0.7898
  671MOL0     O92508   3.972   3.910   2.819 -0.0836 -0.3757 -0.0941
  671MOL0     C92509   4.129   4.209   2.730 -0.2788 -0.8961 -1.0375
  671MOL0     C92510   4.131   4.350   2.750  0.8700  0.6309 -0.4079
  671MOL0     N92511   4.108   5.024   3.136 -0.3684  0.3220  0.6611
  671MOL0     N92512   4.046   5.096   3.229 -0.1102 -0.9671 -0.1100
  671MOL0     C92513   3.750   6.067   2.857 -0.4975  0.5044  0.0367
  671MOL0     C92514   3.809   6.190   2.835  0.2832 -0.5805  1.1505
  671MOL0     C92515   3.828   6.634   2.827  0.2400  0.5399  0.0220
  671MOL0     C92516   3.766   6.712   2.728  0.4433  0.0230 -0.2644
  671MOL0     C92517   3.808   6.845   2.699  0.4687  1.9790  0.2353
  671MOL0     C92518   3.919   6.896   2.775  0.7569  0.4916  0.0289
  671MOL0     O92519   3.956   7.026   2.748 -0.4857 -0.4130  0.4970
  671MOL0     C92520   3.984   7.103   2.865 -0.2818  0.0543  0.0907
  671MOL0     C92521   4.054   7.235   2.835  0.0688 -0.3552  0.0419
  671MOL0     C92522   3.973   7.344   2.769  0.2987 -0.5433 -0.5288
  671MOL0     C92523   3.928   7.448   2.871 -0.1320 -0.2828  0.2407
  671MOL0     C92524   3.861   7.376   2.980 -0.2380 -0.2122  1.2955
  671MOL0     C92525   3.818   7.304   3.070 -0.0077  0.3905  0.2430
  671MOL0     C92526   3.986   6.815   2.868  0.6003  0.7371 -0.4779
  671MOL0     C92527   3.946   6.688   2.895  0.1117 -0.4612 -0.9462
  671MOL0     C92528   3.992   6.627   3.021 -0.6565 -0.2542  0.2462
  671MOL0     H92529   3.725   6.350   3.115 -1.1720 -1.2541  2.0154
  671MOL0     H92530   3.641   6.125   3.167  0.5683 -0.8518 -0.7299
  671MOL0     H92531   3.591   5.843   2.824  0.9722  0.9470  0.7516
  671MOL0     H92532   3.549   5.739   2.962 -1.6678  1.1842 -0.6062
  671MOL0     H92533   3.757   5.678   2.825 -2.2120 -1.8987  0.2446
  671MOL0     H92534   3.842   5.814   2.902 -1.4712  1.3208 -1.9589
  671MOL0     H92535   3.900   5.619   3.030  0.9736 -0.3509 -1.0244
  671MOL0     H92536   3.788   5.720   3.127  2.2225  0.1057  0.7498
  671MOL0     H92537   3.622   5.532   2.997 -0.6911 -1.4431  1.0995
  671MOL0     H92538   3.776   5.440   3.020 -2.4842 -0.6947  0.9333
  671MOL0     H92539   3.614   5.411   3.211 -1.3400  1.1575  2.1035
  671MOL0     H92540   3.622   5.576   3.250  1.3891 -0.9187  4.2240
  671MOL0     H92541   3.857   5.573   3.302 -0.8061  1.2286 -1.9929
  671MOL0     H92542   3.752   5.470   3.388 -1.0444 -1.5502  0.0850
  671MOL0     H92543   3.973   5.364   3.323  0.2905  0.1364 -0.3474
  671MOL0     H92544   3.953   5.394   3.154 -1.5020  1.5877  0.0845
  671MOL0     H92545   3.795   5.209   3.332 -0.4895  1.3392  0.4416
  671MOL0     H92546   3.754   5.250   3.162  0.9235 -1.7837 -0.4185
  671MOL0     H92547   3.827   5.128   2.991 -1.7482  0.7232  1.9981
  671MOL0     H92548   4.165   4.993   2.854 -0.0291  0.1095 -2.3082
  671MOL0     H92549   3.992   5.019   2.819 -1.5900 -0.0092  1.2646
  671MOL0     H92550   4.107   4.779   2.976  1.7352 -0.6223 -0.0939
  671MOL0     H92551   3.945   4.791   2.903 -0.3607 -1.3504 -3.2889
  671MOL0     H92552   4.070   4.838   2.693  1.8166  1.2359  0.5778
  671MOL0     H92553   4.208   4.749   2.760  0.4587  3.0919 -2.9414
  671MOL0     H92554   3.916   4.656   2.708 -0.2692 -1.5891 -0.9961
  671MOL0     H92555   4.076   4.594   2.649  2.9003  0.8553  1.5047
  671MOL0     H92556   3.833   4.394   2.884  0.5044  2.3163 -1.2389
  671MOL0     H92557   3.763   4.060   2.805  0.5213  1.2610 -1.1199
  671MOL0     H92558   3.715   4.185   2.917 -0.8366  1.1344 -2.1282
  671MOL0     H92559   3.833   4.054   2.968  0.2952  0.2263 -0.1217
  671MOL0     H92560   3.935   3.802   2.587  0.4171 -0.3785  0.6000
  671MOL0     H92561   3.957   3.589   2.411  0.7614 -0.1615 -0.6369
  671MOL0     H92562   4.086   3.532   2.186  0.8220 -0.4694 -1.9865
  671MOL0     H92563   4.253   3.592   2.206 -0.0865  0.6325 -0.3043
  671MOL0     H92564   4.177   3.305   2.233  0.8498 -0.3571 -1.0688
  671MOL0     H92565   4.238   3.366   2.085 -0.2297 -1.4467 -0.5496
  671MOL0     H92566   4.395   3.377   2.353 -0.4838 -0.3018 -0.1054
  671MOL0     H92567   4.451   3.442   2.200 -3.5372  3.4825 -1.4739
  671MOL0     H92568   4.440   3.172   2.140  2.1934 -1.4966 -0.8974
  671MOL0     H92569   4.393   3.146   2.304 -0.6517 -0.4860 -2.4467
  671MOL0     H92570   4.638   3.279   2.209  2.2517  0.7269  1.4507
  671MOL0     H92571   4.596   3.259   2.386  1.8936  0.4567 -0.3409
  671MOL0     H92572   4.652   3.056   2.180  1.2853  0.2049 -0.0858
  671MOL0     H92573   4.617   3.021   2.354  2.5371 -0.5384  0.3516
  671MOL0     H92574   4.837   3.170   2.419  0.8829  3.3173 -1.6154
  671MOL0     H92575   4.844   3.196   2.237 -3.4515 -2.5272 -4.8606
  671MOL0     H92576   5.001   3.047   2.307 -1.6388  2.9787  4.2682
  671MOL0     H92577   4.883   2.960   2.205 -0.3601 -1.4658  0.7235
  671MOL0     H92578   4.377   3.606   2.484 -0.5443  0.7743 -0.4635
  671MOL0     H92579   4.358   3.829   2.613  1.2964 -0.3665 -1.3704
  671MOL0     H92580   4.207   4.154   2.678  2.6501  0.4523  1.5626
  671MOL0     H92581   4.225   4.405   2.738  1.0061  0.6311  0.5745
  671MOL0     H92582   3.763   5.987   2.785 -1.2609  1.5886 -1.3710
  671MOL0     H92583   3.846   6.207   2.734  0.6157  0.8363  1.4834
  671MOL0     H92584   3.683   6.677   2.668  0.4579 -1.0215  0.3136
  671MOL0     H92585   3.747   6.895   2.624  1.4088  1.0637 -1.2062
  671MOL0     H92586   3.887   7.118   2.914 -1.2978  0.1452 -1.8281
  671MOL0     H92587   4.056   7.055   2.932  0.5265 -1.8875 -2.0376
  671MOL0     H92588   4.138   7.212   2.769 -0.6835 -2.6694 -0.1765
  671MOL0     H92589   4.094   7.288   2.922  0.5321  3.7761 -2.3753
  671MOL0     H92590   4.033   7.398   2.695  0.5994 -1.7771 -1.2095
  671MOL0     H92591   3.884   7.310   2.715 -2.1176  4.0802 -0.0422
  671MOL0     H92592   3.877   7.527   2.816  1.0099  0.3726  0.0777
  671MOL0     H92593   4.012   7.504   2.915 -1.8607  3.1595 -0.4774
  671MOL0     H92594   3.801   7.241   3.155 -0.4727  1.8132  1.2484
  671MOL0     H92595   4.075   6.853   2.918 -0.6269  2.4106  0.5778
  671MOL0     H92596   4.061   6.544   3.004 -1.8864 -1.6292  1.6647
  671MOL0     H92597   4.037   6.701   3.087 -2.2203 -0.5424  1.7069
  671MOL0     H92598   3.902   6.595   3.075  1.0146  0.0495  3.4243
  672MOL0     O92599  10.142   0.296   3.309 -0.0409  0.4621 -0.1755
  672MOL0     C92600  10.227   0.217   3.272 -0.1951  0.6173 -0.6938
  672MOL0     O92601  10.323   0.241   3.171 -0.2666 -0.2844  0.0051
  672MOL0     C92602  10.344   0.360   3.116  0.4060 -0.1709  0.8631
  672MOL0     C92603  10.321   0.492   3.172  0.0661  0.6356 -1.1323
  672MOL0     C92604  10.363   0.610   3.116  0.2668 -0.0187  0.1840
  672MOL0     C92605  10.432   0.602   2.995 -0.8054 -1.2182 -1.0210
  672MOL0     O92606  10.491   0.710   2.942  0.4840 -0.4830  0.8394
  672MOL0     C92607  10.460   0.841   2.975 -0.0247  0.2247  0.3721
  672MOL0     C92608  10.521   0.894   3.099 -0.1726 -0.0468  0.0394
  672MOL0     C92609  10.663   0.821   3.114 -0.0563 -0.2570 -1.3032
  672MOL0     C92610  10.767   0.918   3.167 -0.1396 -0.1484 -0.8862
  672MOL0     C92611  10.750   0.937   3.320  0.1716 -0.2369  0.5406
  672MOL0     C92612  10.651   1.055   3.359 -0.4972  0.3072  0.5637
  672MOL0     C92613  10.668   1.097   3.506  0.6206 -0.3449 -0.0145
  672MOL0     C92614  10.633   0.981   3.595  0.0225  0.3834  0.6155
  672MOL0     N92615  10.644   1.013   3.739  0.0353 -0.1371 -0.7930
  672MOL0     C92616  10.581   1.114   3.807 -0.5675  0.8085 -0.2708
  672MOL0     C92617  10.577   1.070   3.937 -0.2280  0.5399 -0.1489
  672MOL0     C92618  10.505   1.150   4.042 -0.6109  0.4744 -0.3176
  672MOL0     C92619  10.509   1.085   4.186  0.9416  0.6756  0.0946
  672MOL0     C92620  10.415   1.150   4.288  0.2561  0.5024 -0.0643
  672MOL0     C92621  10.415   1.305   4.288  0.7416 -0.0589  0.2648
  672MOL0     O92622  10.548   1.352   4.336  0.9711  0.8307  0.8209
  672MOL0     C92623  10.566   1.340   4.469  0.2998 -0.5055  0.3847
  672MOL0     C92624  10.518   1.430   4.560 -1.1378  0.3144  0.4712
  672MOL0     C92625  10.541   1.410   4.695  0.2975 -0.8001 -0.1740
  672MOL0     C92626  10.479   1.509   4.796 -0.1230  0.5080 -0.4060
  672MOL0     C92627  10.612   1.290   4.746 -0.8230  0.7530  0.4987
  672MOL0     C92628  10.634   1.261   4.890 -0.0984 -0.2110 -1.5794
  672MOL0     O92629  10.644   1.358   4.980  0.4681 -0.8996  0.4488
  672MOL0     C92630  10.626   1.357   5.110 -0.6622  0.4376 -0.3619
  672MOL0     C92631  10.518   1.291   5.184  0.0015 -0.3796 -0.2516
  672MOL0     C92632  10.485   1.328   5.312 -1.0663 -0.0971 -0.3328
  672MOL0     C92633  10.560   1.439   5.373  0.1199  0.5170 -0.4252
  672MOL0     O92634  10.550   1.482   5.507  0.9802  0.1820  0.2862
  672MOL0     C92635  10.471   1.404   5.581 -0.2642  0.0407  0.2566
  672MOL0     C92636  10.474   1.473   5.720  0.7961  0.9348  0.2966
  672MOL0     C92637  10.600   1.526   5.772  0.1282  0.5880 -0.1038
  672MOL0     C92638  10.599   1.593   5.914 -1.0201 -0.1157 -1.0868
  672MOL0     C92639  10.744   1.622   5.956 -0.7366  0.1680 -1.1165
  672MOL0     C92640  10.846   1.684   5.859  0.6400 -0.2487  0.3154
  672MOL0     C92641  10.818   1.839   5.849  0.4729  0.5695  0.5893
  672MOL0     C92642  10.874   1.915   5.728  0.1786  0.3251  0.4486
  672MOL0    Cl92643  10.806   1.862   5.583  0.5420  0.4038 -0.0188
  672MOL0     C92644  10.661   1.501   5.309  0.5902  0.0060 -0.6557
  672MOL0     C92645  10.694   1.457   5.177 -0.0723 -0.0698 -1.3918
  672MOL0     O92646  10.648   1.138   4.921 -0.7747  0.5721  0.2584
  672MOL0     C92647  10.658   1.194   4.646  0.4559  0.6384 -0.1268
  672MOL0     C92648  10.630   1.223   4.512  0.5445 -0.0922 -0.3139
  672MOL0     N92649  10.630   0.945   3.947 -0.6561  0.1657 -0.0181
  672MOL0     N92650  10.662   0.908   3.825 -0.4820  0.1269 -0.0828
  672MOL0     C92651  10.454   0.483   2.937 -0.1315  0.3928 -0.3833
  672MOL0     C92652  10.399   0.363   2.983 -0.5102 -0.2307 -0.8577
  672MOL0     C92653  10.247   0.093   3.342  1.0296 -0.4235 -1.0274
  672MOL0     C92654  10.220  -0.024   3.271 -0.1378  0.5677  0.0864
  672MOL0     C92655  10.244  -0.147   3.331 -0.5598 -1.0820  0.4566
  672MOL0     C92656  10.300  -0.151   3.457  0.7183 -0.6477 -0.9776
  672MOL0     O92657  10.306  -0.265   3.536  0.1900  1.2059 -0.8865
  672MOL0     C92658  10.278  -0.399   3.486  0.2643 -0.7106 -0.3715
  672MOL0     C92659  10.396  -0.461   3.414 -0.2468 -0.3030 -0.0919
  672MOL0     C92660  10.372  -0.599   3.361 -0.3515  0.6355  0.2512
  672MOL0     C92661  10.369  -0.588   3.212  0.0661 -0.2602  1.2483
  672MOL0     C92662  10.227  -0.548   3.175 -1.2044 -0.1033 -0.6717
  672MOL0     C92663  10.115  -0.520   3.157  0.2196  0.2243  0.4670
  672MOL0     C92664  10.326  -0.037   3.522 -0.6341  0.0535 -0.3379
  672MOL0     C92665  10.312   0.085   3.459  1.2993  0.2974  0.2240
  672MOL0     C92666  10.356   0.215   3.526 -0.6435 -0.8038  0.4912
  672MOL0     H92667  10.272   0.486   3.268 -1.4229  0.4551 -1.8665
  672MOL0     H92668  10.355   0.706   3.167  2.0899 -0.3923  1.2695
  672MOL0     H92669  10.352   0.860   2.977  0.0220  1.4874 -2.8315
  672MOL0     H92670  10.496   0.911   2.898  5.2660  0.4111  2.6173
  672MOL0     H92671  10.537   1.002   3.094 -0.9987  0.0150 -2.1926
  672MOL0     H92672  10.460   0.874   3.188 -1.1918  2.6049  0.0165
  672MOL0     H92673  10.666   0.727   3.170  2.2433  0.8978  0.7145
  672MOL0     H92674  10.706   0.820   3.014  3.7036  4.3539 -0.0988
  672MOL0     H92675  10.860   0.860   3.161  0.0527  0.1543 -0.8794
  672MOL0     H92676  10.770   1.020   3.126  1.6554  1.0743  1.9171
  672MOL0     H92677  10.849   0.966   3.357  1.9402 -0.1025 -3.7542
  672MOL0     H92678  10.720   0.842   3.366 -2.2933  0.3608  0.3188
  672MOL0     H92679  10.674   1.130   3.282  1.1824  0.5124  1.2026
  672MOL0     H92680  10.551   1.020   3.335 -0.4061  0.4740 -0.0854
  672MOL0     H92681  10.594   1.176   3.524 -0.7976 -1.2268 -1.6096
  672MOL0     H92682  10.769   1.127   3.536  0.8075 -1.2020  0.2475
  672MOL0     H92683  10.531   0.951   3.570  0.1812  2.4462 -3.2738
  672MOL0     H92684  10.696   0.892   3.587 -0.3341  0.1803  0.0350
  672MOL0     H92685  10.540   1.210   3.778 -0.9396  1.2454  1.5487
  672MOL0     H92686  10.402   1.151   4.005 -0.5507 -1.6374 -0.6879
  672MOL0     H92687  10.539   1.254   4.042 -0.4273  0.4158  0.1711
  672MOL0     H92688  10.484   0.978   4.185  1.1669  0.5781  2.0132
  672MOL0     H92689  10.609   1.088   4.229  0.1627  2.5915  1.9350
  672MOL0     H92690  10.315   1.114   4.260  1.6452 -3.3337 -0.6356
  672MOL0     H92691  10.442   1.106   4.384  2.7452  1.6261 -0.1816
  672MOL0     H92692  10.369   1.338   4.195  3.2625 -0.7184 -1.3084
  672MOL0     H92693  10.341   1.327   4.365 -0.0503  0.7903 -0.7106
  672MOL0     H92694  10.472   1.520   4.520 -3.1459 -0.1872  1.5046
  672MOL0     H92695  10.421   1.587   4.747  0.0188  0.3071 -0.8968
  672MOL0     H92696  10.562   1.558   4.848 -0.7058  0.3966  0.6629
  672MOL0     H92697  10.417   1.460   4.872 -1.5702  0.6946 -1.4259
  672MOL0     H92698  10.461   1.215   5.131  1.2748 -2.1020  0.7634
  672MOL0     H92699  10.408   1.265   5.354  1.4309 -1.8878  1.9606
  672MOL0     H92700  10.365   1.404   5.555  0.3717  0.2088 -2.5823
  672MOL0     H92701  10.513   1.303   5.577  1.1114  0.5887  0.2622
  672MOL0     H92702  10.410   1.561   5.716 -3.1410 -1.6772  0.2410
  672MOL0     H92703  10.423   1.407   5.791 -1.0941  2.0315  0.0195
  672MOL0     H92704  10.642   1.589   5.693 -0.1635 -1.3004 -1.8450
  672MOL0     H92705  10.664   1.439   5.790  0.4854  1.2682  2.2092
  672MOL0     H92706  10.552   1.530   5.991 -0.9178  1.3530  0.2356
  672MOL0     H92707  10.536   1.682   5.908 -0.1611  0.5481 -0.3335
  672MOL0     H92708  10.726   1.682   6.045 -0.6428 -1.7016  0.2108
  672MOL0     H92709  10.788   1.531   5.997 -1.8943  0.5340  1.1002
  672MOL0     H92710  10.846   1.639   5.759  0.2545  3.5065 -1.5596
  672MOL0     H92711  10.939   1.672   5.916  0.6726 -0.0836  0.2972
  672MOL0     H92712  10.861   1.884   5.939 -0.2516  6.9420 -1.7223
  672MOL0     H92713  10.710   1.857   5.841  0.5848  2.0078  1.8544
  672MOL0     H92714  10.982   1.900   5.719  0.3095  1.6119 -0.3227
  672MOL0     H92715  10.868   2.024   5.720  2.7491  0.4662 -0.4327
  672MOL0     H92716  10.721   1.583   5.348  1.7035 -0.6942 -0.8611
  672MOL0     H92717  10.781   1.505   5.134  1.2985  0.3823  1.6541
  672MOL0     H92718  10.722   1.112   4.676 -0.2505  0.6471  1.5054
  672MOL0     H92719  10.684   1.172   4.432 -2.1491  0.4165 -2.6610
  672MOL0     H92720  10.505   0.493   2.842  1.8868 -0.6684  0.5379
  672MOL0     H92721  10.402   0.277   2.917  3.9959  0.4621 -1.8911
  672MOL0     H92722  10.188  -0.010   3.168 -0.7136 -0.6973  0.0782
  672MOL0     H92723  10.231  -0.232   3.265  1.5294 -0.2074 -1.1917
  672MOL0     H92724  10.249  -0.470   3.564  1.6739  0.0003  0.8596
  672MOL0     H92725  10.187  -0.397   3.426 -0.6988 -2.4256  0.9152
  672MOL0     H92726  10.482  -0.476   3.479 -1.0119 -2.4685  0.5161
  672MOL0     H92727  10.434  -0.393   3.337 -2.3423  2.5497  1.1906
  672MOL0     H92728  10.440  -0.677   3.397 -1.6657  0.2088  1.9863
  672MOL0     H92729  10.270  -0.628   3.391 -1.4091  1.2215 -2.5105
  672MOL0     H92730  10.385  -0.688   3.172  0.2053  0.6761 -1.2019
  672MOL0     H92731  10.439  -0.515   3.172  0.1299 -0.1318  1.5946
  672MOL0     H92732  10.017  -0.486   3.131  0.5480  2.4342  1.8784
  672MOL0     H92733  10.365  -0.044   3.624  2.4618 -0.7623 -1.4702
  672MOL0     H92734  10.280   0.294   3.524  0.8784  0.7205  0.6435
  672MOL0     H92735  10.388   0.190   3.628 -2.2419 -0.4087  1.1202
  672MOL0     H92736  10.442   0.263   3.478 -1.2190 -1.3925 -1.2245
  673MOL0     O92737   4.594  11.166   2.009 -0.5951 -0.6220  0.0146
  673MOL0     C92738   4.610  11.175   2.130  1.4836  0.6822  0.1791
  673MOL0     O92739   4.521  11.242   2.219 -0.3722 -0.6169  0.1873
  673MOL0     C92740   4.393  11.255   2.176  0.2704 -0.6881  0.9048
  673MOL0     C92741   4.322  11.147   2.136  0.6877  0.2213 -0.6392
  673MOL0     C92742   4.189  11.157   2.094 -0.4997 -0.3354  0.1724
  673MOL0     C92743   4.120  11.276   2.114  0.5814 -0.3986  0.2029
  673MOL0     O92744   3.985  11.287   2.089  0.5824 -0.1189  0.4777
  673MOL0     C92745   3.928  11.212   1.975 -0.5427 -0.6280  0.0226
  673MOL0     C92746   3.773  11.234   1.951 -0.1529  0.3278  0.2679
  673MOL0     C92747   3.751  11.365   1.874 -0.6191  0.1071 -0.8757
  673MOL0     C92748   3.605  11.412   1.880  1.1838 -0.0281 -0.2053
  673MOL0     C92749   3.594  11.560   1.841  0.2531 -0.0063 -0.1443
  673MOL0     C92750   3.461  11.600   1.782 -0.4737 -0.0164  0.3347
  673MOL0     C92751   3.463  11.748   1.742  0.5564  0.1028 -0.0528
  673MOL0     C92752   3.347  11.788   1.647 -1.2020  0.2357  0.8262
  673MOL0     N92753   3.313  11.931   1.652 -0.3035 -0.0800 -0.1841
  673MOL0     C92754   3.202  11.985   1.713 -0.4491  0.6015 -1.4535
  673MOL0     C92755   3.211  12.116   1.689  0.5785  0.5441 -0.6376
  673MOL0     C92756   3.116  12.217   1.757 -0.5207 -0.3649 -0.9604
  673MOL0     C92757   3.185  12.340   1.821 -0.3358  0.6833  0.7526
  673MOL0     C92758   3.147  12.359   1.964 -0.0981 -0.2080  0.0846
  673MOL0     C92759   3.003  12.394   1.980 -0.5945 -0.0348  0.1445
  673MOL0     O92760   2.986  12.413   2.123 -0.2740  0.3008 -0.2046
  673MOL0     C92761   2.863  12.456   2.185 -0.1833 -0.3156  0.2291
  673MOL0     C92762   2.747  12.508   2.120 -1.0464  0.9366  0.2405
  673MOL0     C92763   2.631  12.526   2.196  0.4344 -0.9260  0.3256
  673MOL0     C92764   2.507  12.576   2.120 -0.3238 -0.8886 -0.4514
  673MOL0     C92765   2.631  12.507   2.336  0.1194  0.3203  0.0830
  673MOL0     C92766   2.515  12.545   2.425 -0.6758 -1.0848  0.4358
  673MOL0     O92767   2.408  12.594   2.369  0.8863 -0.0464 -0.1914
  673MOL0     C92768   2.298  12.604   2.455 -1.0025 -0.1767 -0.4805
  673MOL0     C92769   2.213  12.495   2.460  0.2581 -0.0412  0.1391
  673MOL0     C92770   2.102  12.504   2.547  0.4554  0.1856 -0.9046
  673MOL0     C92771   2.069  12.621   2.623 -0.4863  0.5448  0.1941
  673MOL0     O92772   1.967  12.636   2.715 -0.0314  0.2688  0.0360
  673MOL0     C92773   1.878  12.529   2.732 -0.2143 -0.3749 -0.4756
  673MOL0     C92774   1.745  12.581   2.786  0.0597 -0.2489  0.1503
  673MOL0     C92775   1.681  12.697   2.709 -1.4851 -0.8737 -0.8475
  673MOL0     C92776   1.646  12.665   2.567 -0.4393 -0.4649 -0.0666
  673MOL0     C92777   1.571  12.782   2.507 -0.2794 -0.0058 -0.1265
  673MOL0     C92778   1.430  12.754   2.501 -0.4440  1.3498 -0.3157
  673MOL0     C92779   1.359  12.868   2.429 -1.5301  0.4606  0.3372
  673MOL0     C92780   1.217  12.838   2.443  1.6267  0.8548  0.1913
  673MOL0    Cl92781   1.153  12.730   2.316  0.0373 -0.1287  0.5791
  673MOL0     C92782   2.153  12.730   2.608  0.0269 -0.3972 -0.4605
  673MOL0     C92783   2.275  12.720   2.533 -0.1951 -0.2552 -0.5788
  673MOL0     O92784   2.531  12.515   2.545 -0.6850  0.0887 -0.3509
  673MOL0     C92785   2.748  12.456   2.394  0.0827 -0.2006  0.1213
  673MOL0     C92786   2.860  12.436   2.319  0.1639 -0.1079 -0.4046
  673MOL0     N92787   3.333  12.147   1.646 -0.2119  1.0022 -0.7064
  673MOL0     N92788   3.389  12.035   1.607 -0.8303  0.6199 -0.1445
  673MOL0     C92789   4.192  11.391   2.158 -0.1006 -0.4477 -0.2297
  673MOL0     C92790   4.329  11.376   2.189  0.3003 -0.5232 -0.6176
  673MOL0     C92791   4.743  11.125   2.183  0.2786  0.3094 -0.4040
  673MOL0     C92792   4.768  11.150   2.319 -0.7627 -0.4220 -0.7398
  673MOL0     C92793   4.892  11.113   2.375 -0.0459  0.2588  0.0797
  673MOL0     C92794   4.978  11.029   2.311 -1.2367 -0.3804  0.1985
  673MOL0     O92795   5.108  11.005   2.354 -0.7147 -0.1113 -0.6395
  673MOL0     C92796   5.134  11.009   2.498  0.8179  0.7103  0.7815
  673MOL0     C92797   5.264  10.926   2.513  0.4953 -0.3174 -0.4598
  673MOL0     C92798   5.284  10.893   2.669 -0.5173  0.1397 -0.5061
  673MOL0     C92799   5.421  10.817   2.700  0.1515 -0.6504  0.5358
  673MOL0     C92800   5.414  10.670   2.695 -0.3527  0.6052 -0.3797
  673MOL0     C92801   5.418  10.551   2.665  0.5205 -1.4818 -0.2513
  673MOL0     C92802   4.953  11.004   2.182 -0.4901 -0.3192  0.7475
  673MOL0     C92803   4.842  11.048   2.106  0.1688 -0.7962  0.1409
  673MOL0     C92804   4.842  11.002   1.970 -0.1671 -0.4098  0.2796
  673MOL0     H92805   4.366  11.048   2.133 -0.3265 -0.2206 -1.2043
  673MOL0     H92806   4.137  11.065   2.069  0.6687 -0.7264 -0.9343
  673MOL0     H92807   3.954  11.109   1.997 -0.6023 -1.0834 -1.8860
  673MOL0     H92808   3.972  11.244   1.880 -1.0198  2.3938  0.6962
  673MOL0     H92809   3.719  11.153   1.902 -3.3068  0.3862  3.2926
  673MOL0     H92810   3.726  11.243   2.049  2.0871  0.3823  1.4096
  673MOL0     H92811   3.814  11.442   1.919 -2.0446  1.0926 -0.5084
  673MOL0     H92812   3.783  11.360   1.769 -0.7732  2.3966 -1.0743
  673MOL0     H92813   3.536  11.350   1.822 -0.2855  2.4415 -1.2692
  673MOL0     H92814   3.566  11.411   1.983  1.2181  1.6867 -0.1434
  673MOL0     H92815   3.663  11.589   1.762 -1.4051  2.6623 -0.7679
  673MOL0     H92816   3.624  11.626   1.924  0.6719  1.4205 -1.3902
  673MOL0     H92817   3.434  11.538   1.696 -2.6122  0.9614  0.2373
  673MOL0     H92818   3.390  11.580   1.863 -0.4455  0.4870  0.4837
  673MOL0     H92819   3.556  11.787   1.699  0.0507 -0.3220 -1.6087
  673MOL0     H92820   3.448  11.800   1.837  1.2889 -0.7585  0.5606
  673MOL0     H92821   3.374  11.762   1.544 -0.9786 -0.3232  1.0212
  673MOL0     H92822   3.268  11.724   1.687  0.1365  0.3375  3.8837
  673MOL0     H92823   3.127  11.924   1.763  2.0214 -4.4934 -3.3243
  673MOL0     H92824   3.066  12.163   1.838  0.5451  1.1708  0.7779
  673MOL0     H92825   3.039  12.245   1.684 -2.1129 -0.3807  0.6414
  673MOL0     H92826   3.292  12.336   1.799 -0.4008 -1.9581  0.5527
  673MOL0     H92827   3.154  12.430   1.767  2.9123 -0.4852 -3.6538
  673MOL0     H92828   3.170  12.265   2.017 -1.8529 -0.1578  1.0085
  673MOL0     H92829   3.209  12.440   2.003  0.2082 -0.5182  0.2562
  673MOL0     H92830   2.980  12.484   1.922  3.0647  0.3760 -0.8932
  673MOL0     H92831   2.936  12.310   1.956 -0.6119 -0.3654  1.2764
  673MOL0     H92832   2.745  12.532   2.014 -0.4330  1.3497  0.3142
  673MOL0     H92833   2.421  12.510   2.134 -2.1427  1.3058 -0.6867
  673MOL0     H92834   2.522  12.580   2.012 -0.1126 -0.9314 -0.4247
  673MOL0     H92835   2.477  12.673   2.160  1.3816 -0.1956 -0.7629
  673MOL0     H92836   2.240  12.411   2.397  0.1830  1.1293 -1.5148
  673MOL0     H92837   2.039  12.416   2.554  2.4077 -1.3764 -1.9424
  673MOL0     H92838   1.855  12.477   2.639 -1.1066  0.3029 -0.6490
  673MOL0     H92839   1.924  12.458   2.801 -2.4493 -1.1552  0.2823
  673MOL0     H92840   1.668  12.503   2.782 -2.3718  1.9028  1.9364
  673MOL0     H92841   1.768  12.606   2.890  0.9360 -0.4601  0.0226
  673MOL0     H92842   1.752  12.781   2.707 -1.0181 -1.1694  1.2720
  673MOL0     H92843   1.591  12.736   2.758 -3.2386 -0.1141 -4.3510
  673MOL0     H92844   1.583  12.576   2.571 -1.3266  0.1872  2.0388
  673MOL0     H92845   1.733  12.629   2.510 -1.4951 -0.3791 -1.8008
  673MOL0     H92846   1.586  12.872   2.568  1.5981 -0.2650 -0.1259
  673MOL0     H92847   1.606  12.793   2.404  0.0929 -1.8482 -0.2284
  673MOL0     H92848   1.399  12.760   2.606 -0.2970 -1.4124 -0.0621
  673MOL0     H92849   1.409  12.656   2.458 -0.3525  0.8686  0.7024
  673MOL0     H92850   1.380  12.880   2.323  0.0110  2.2976  0.7890
  673MOL0     H92851   1.377  12.966   2.476 -0.0804  2.5148 -4.0136
  673MOL0     H92852   1.164  12.933   2.435  0.6885  0.6120  2.6457
  673MOL0     H92853   1.188  12.795   2.539 -1.1718  0.9681 -0.5065
  673MOL0     H92854   2.143  12.819   2.670  0.5432  0.7155 -1.9257
  673MOL0     H92855   2.350  12.798   2.538 -0.0417 -0.4886  1.6927
  673MOL0     H92856   2.743  12.412   2.494 -0.2971 -0.5128 -0.0331
  673MOL0     H92857   2.944  12.390   2.369 -1.0054 -2.4916 -0.5275
  673MOL0     H92858   4.141  11.486   2.156  0.5619 -0.0678 -2.8783
  673MOL0     H92859   4.379  11.465   2.228 -2.7510  1.9681 -2.0200
  673MOL0     H92860   4.701  11.222   2.366  0.9895  0.5132  0.4504
  673MOL0     H92861   4.910  11.152   2.475 -2.5287  4.8175 -1.0048
  673MOL0     H92862   5.141  11.112   2.533  1.9118  0.5539  1.0574
  673MOL0     H92863   5.056  10.963   2.558  1.4706 -0.5308  0.7268
  673MOL0     H92864   5.349  10.968   2.459  1.6654 -1.6168  0.2967
  673MOL0     H92865   5.235  10.839   2.454 -0.6188  0.5639 -1.2532
  673MOL0     H92866   5.288  10.984   2.729  2.3446 -0.5466  0.5223
  673MOL0     H92867   5.197  10.836   2.703 -0.4087  0.4675  0.3271
  673MOL0     H92868   5.472  10.852   2.790  0.6712 -2.1285  0.8455
  673MOL0     H92869   5.485  10.835   2.613 -2.9187  2.5053 -1.3409
  673MOL0     H92870   5.413  10.446   2.640 -3.5089 -1.2184 -1.4066
  673MOL0     H92871   5.027  10.943   2.132 -0.5683  0.0851  0.1350
  673MOL0     H92872   4.943  10.979   1.934  0.4503 -0.2156  1.8233
  673MOL0     H92873   4.778  10.915   1.953 -0.8235 -0.4359  2.5572
  673MOL0     H92874   4.810  11.087   1.910 -0.6406  0.7680  2.1215
  674MOL0     O92875   2.943   3.164  11.469  0.5186 -0.2498 -0.0402
  674MOL0     C92876   2.890   3.056  11.429  0.1978 -1.6924 -0.6296
  674MOL0     O92877   2.826   3.026  11.316  0.2336 -0.3882  0.9280
  674MOL0     C92878   2.762   3.123  11.241  0.5865  0.1885  0.4647
  674MOL0     C92879   2.735   3.082  11.109  0.2046  0.6344 -0.1398
  674MOL0     C92880   2.667   3.172  11.028 -0.3431  0.0968 -0.1664
  674MOL0     C92881   2.650   3.304  11.053  0.7578  0.6580 -0.9422
  674MOL0     O92882   2.601   3.386  10.956  0.4354  0.6427  0.9549
  674MOL0     C92883   2.705   3.462  10.889  0.8163 -0.2069 -0.1986
  674MOL0     C92884   2.624   3.589  10.847 -0.3233  1.3354 -0.7180
  674MOL0     C92885   2.699   3.653  10.730  0.7299  0.1927 -0.3031
  674MOL0     C92886   2.621   3.742  10.634  0.2296 -0.7791  0.3377
  674MOL0     C92887   2.686   3.808  10.509  0.3504 -0.2074 -0.1576
  674MOL0     C92888   2.583   3.848  10.402  0.1652 -0.2065 -0.1799
  674MOL0     C92889   2.634   3.932  10.274 -0.0350 -0.5389 -0.4469
  674MOL0     C92890   2.729   3.885  10.166 -0.2400 -0.0467 -0.6604
  674MOL0     N92891   2.866   3.862  10.216 -0.0659 -0.3324 -0.2271
  674MOL0     C92892   2.931   3.748  10.236  0.2078  0.2403  0.5544
  674MOL0     C92893   3.062   3.792  10.269 -0.5088 -0.8410  0.3013
  674MOL0     C92894   3.184   3.716  10.283 -1.8256 -0.6362 -0.2835
  674MOL0     C92895   3.315   3.793  10.265  1.1803  0.3765 -0.1780
  674MOL0     C92896   3.374   3.815  10.397  0.2687 -0.0411  0.0139
  674MOL0     C92897   3.477   3.926  10.392  0.4202  0.3724 -0.1091
  674MOL0     O92898   3.569   3.904  10.288 -0.3564 -0.6139  0.1481
  674MOL0     C92899   3.665   4.000  10.269  0.1776 -0.3523 -0.9275
  674MOL0     C92900   3.713   3.987  10.144  0.3223 -0.3489  0.3812
  674MOL0     C92901   3.811   4.064  10.091 -0.3657 -0.2434 -0.0254
  674MOL0     C92902   3.870   4.035   9.956 -0.2405  0.3750  0.7723
  674MOL0     C92903   3.864   4.169  10.175  0.2239  0.1690  0.9272
  674MOL0     C92904   3.961   4.273  10.124  0.0937  0.7007  0.3671
  674MOL0     O92905   3.952   4.327   9.998  0.2816 -0.5559  1.1331
  674MOL0     C92906   4.036   4.425   9.952 -0.7834  0.5390 -0.1660
  674MOL0     C92907   4.180   4.432   9.968  0.1094  0.5517 -0.4652
  674MOL0     C92908   4.256   4.530   9.892  0.3592  0.5635  0.0919
  674MOL0     C92909   4.195   4.636   9.829  0.9532 -0.1205  0.3007
  674MOL0     O92910   4.258   4.752   9.795 -0.3227  0.3571 -0.0963
  674MOL0     C92911   4.386   4.737   9.736  0.7542  0.1201  0.7926
  674MOL0     C92912   4.393   4.853   9.625  0.1925  0.0089 -0.0730
  674MOL0     C92913   4.512   4.833   9.537 -0.8034  0.4786 -0.1948
  674MOL0     C92914   4.543   4.949   9.439 -0.5384  0.5682 -0.0143
  674MOL0     C92915   4.689   4.958   9.391  1.1177  0.9704 -0.1100
  674MOL0     C92916   4.699   4.980   9.241 -0.1969 -0.1417 -0.0161
  674MOL0     C92917   4.650   5.127   9.212 -0.2632  0.3492  0.3609
  674MOL0     C92918   4.624   5.141   9.063 -0.7584  0.0911  0.2744
  674MOL0    Cl92919   4.771   5.120   8.963  0.1685 -0.5610 -0.0410
  674MOL0     C92920   4.062   4.631   9.810 -0.2622  0.0577  0.2479
  674MOL0     C92921   3.987   4.519   9.869 -0.2303 -0.9225  0.5948
  674MOL0     O92922   4.042   4.303  10.207  0.4212  0.7154 -0.4423
  674MOL0     C92923   3.811   4.188  10.306 -0.5114  0.2064  0.3133
  674MOL0     C92924   3.720   4.094  10.354 -0.1880 -0.4891 -1.2700
  674MOL0     N92925   3.063   3.935  10.266  0.7894 -0.3337  0.1628
  674MOL0     N92926   2.947   3.966  10.230 -1.0756 -0.4064 -0.6493
  674MOL0     C92927   2.678   3.347  11.189  0.2786  0.4201  0.6250
  674MOL0     C92928   2.731   3.260  11.281 -0.9150  0.0762 -0.3159
  674MOL0     C92929   2.926   2.936  11.517  0.6032  0.5057  0.5286
  674MOL0     C92930   2.974   2.817  11.452 -0.0419 -0.4721 -0.1096
  674MOL0     C92931   3.006   2.714  11.534 -0.7593  0.1957 -0.9461
  674MOL0     C92932   2.987   2.714  11.674 -0.5748  0.1684 -0.7535
  674MOL0     O92933   3.017   2.599  11.739  1.2567 -0.2961  0.6347
  674MOL0     C92934   3.047   2.611  11.885  0.3170  0.1920  0.5745
  674MOL0     C92935   3.101   2.481  11.952  0.1937  0.3267 -0.1865
  674MOL0     C92936   3.001   2.376  11.986 -0.2254 -0.2351 -0.0679
  674MOL0     C92937   2.894   2.412  12.099 -0.0018  0.3988  0.8546
  674MOL0     C92938   2.825   2.285  12.122  0.2025 -0.0678  0.5990
  674MOL0     C92939   2.759   2.186  12.115  0.2113 -0.2293 -0.3259
  674MOL0     C92940   2.931   2.830  11.729 -0.7261 -0.0257 -0.8824
  674MOL0     C92941   2.895   2.943  11.648 -1.1173  0.4318 -0.4254
  674MOL0     C92942   2.834   3.069  11.711 -0.1805 -0.2233  0.2557
  674MOL0     H92943   2.741   2.977  11.084  0.9694  0.7004 -0.2667
  674MOL0     H92944   2.633   3.130  10.933  0.2305 -1.7038  0.3754
  674MOL0     H92945   2.751   3.408  10.806 -0.2376  1.9091 -2.2660
  674MOL0     H92946   2.788   3.494  10.953  1.6877 -0.4046 -1.2258
  674MOL0     H92947   2.530   3.553  10.804  1.4110 -3.9031 -0.8555
  674MOL0     H92948   2.593   3.651  10.931 -0.4695 -3.5593  3.3022
  674MOL0     H92949   2.781   3.708  10.777 -0.2706  0.8594  0.7039
  674MOL0     H92950   2.742   3.579  10.661 -0.0719 -1.1418  0.5768
  674MOL0     H92951   2.536   3.683  10.599 -2.5237  2.8779  0.2473
  674MOL0     H92952   2.581   3.829  10.686 -0.4379 -0.6337 -0.4062
  674MOL0     H92953   2.755   3.738  10.462  0.1179 -1.2324  0.9823
  674MOL0     H92954   2.740   3.896  10.546 -1.6965  0.1939  2.1384
  674MOL0     H92955   2.537   3.756  10.365 -3.1882  0.8833  0.9042
  674MOL0     H92956   2.501   3.904  10.448  1.3562  1.2720  0.2090
  674MOL0     H92957   2.682   4.016  10.324 -0.6031 -1.0787  1.0946
  674MOL0     H92958   2.542   3.960  10.221  0.9870 -1.2174 -2.7033
  674MOL0     H92959   2.686   3.791  10.131 -2.8300  0.2179  1.4839
  674MOL0     H92960   2.725   3.962  10.089 -3.2118 -1.0653 -1.6459
  674MOL0     H92961   2.897   3.645  10.235 -1.9473  0.9181  0.8264
  674MOL0     H92962   3.187   3.642  10.203  1.8120  0.5671 -1.4731
  674MOL0     H92963   3.189   3.675  10.385  0.9849  1.3524  0.5128
  674MOL0     H92964   3.386   3.732  10.207 -0.2379 -1.8577  0.3047
  674MOL0     H92965   3.300   3.887  10.212 -0.5209 -0.6258 -1.5869
  674MOL0     H92966   3.308   3.849  10.478  1.8114  4.5274 -0.3473
  674MOL0     H92967   3.425   3.724  10.429 -1.5381 -1.0940 -0.0268
  674MOL0     H92968   3.437   4.026  10.375  0.1500  0.8152  2.6721
  674MOL0     H92969   3.528   3.939  10.488 -0.8745  1.7976  0.4232
  674MOL0     H92970   3.676   3.916  10.071  0.9292  0.9378 -1.2495
  674MOL0     H92971   3.882   3.929   9.930  1.5087  1.2504 -2.5444
  674MOL0     H92972   3.975   4.066   9.957  0.5214 -1.9600  2.0337
  674MOL0     H92973   3.808   4.086   9.882 -2.1566  1.9431  3.2880
  674MOL0     H92974   4.232   4.361  10.032  0.7650  0.6278 -0.9016
  674MOL0     H92975   4.363   4.535   9.913  0.5002 -0.5243 -0.3282
  674MOL0     H92976   4.459   4.753   9.816 -1.5004  1.1475  2.7589
  674MOL0     H92977   4.399   4.642   9.683  0.1631  1.4734 -1.9600
  674MOL0     H92978   4.296   4.847   9.574 -0.1401 -1.7598  0.6776
  674MOL0     H92979   4.396   4.950   9.674 -1.2236 -0.9151  2.0196
  674MOL0     H92980   4.518   4.734   9.490 -0.6875 -0.6858  2.1152
  674MOL0     H92981   4.593   4.838   9.611  0.1954  1.4976 -1.3188
  674MOL0     H92982   4.523   5.048   9.481 -2.3038  0.1033  0.2938
  674MOL0     H92983   4.472   4.947   9.355  1.0833 -2.1754 -1.4750
  674MOL0     H92984   4.747   5.025   9.454  0.8589 -0.1361  1.3390
  674MOL0     H92985   4.736   4.861   9.407 -1.2110 -0.6567 -2.3059
  674MOL0     H92986   4.638   4.909   9.185  1.9563 -0.7632 -1.6873
  674MOL0     H92987   4.801   4.979   9.201  0.7530 -0.3804  2.2346
  674MOL0     H92988   4.716   5.200   9.259  2.7264 -1.0529 -1.3446
  674MOL0     H92989   4.560   5.135   9.273 -0.0088 -1.3472  1.0013
  674MOL0     H92990   4.576   5.238   9.044  0.6824  1.1467  1.7612
  674MOL0     H92991   4.551   5.065   9.030 -0.8337  1.0469 -1.9713
  674MOL0     H92992   4.016   4.711   9.753 -0.5867 -0.3831 -0.1226
  674MOL0     H92993   3.882   4.532   9.843  0.6049  3.0405 -1.7606
  674MOL0     H92994   3.847   4.272  10.364 -1.7091  2.6588 -2.2378
  674MOL0     H92995   3.711   4.083  10.461  1.1196 -1.3398 -1.2127
  674MOL0     H92996   2.655   3.450  11.214 -0.8034  0.8238 -1.7458
  674MOL0     H92997   2.736   3.313  11.376 -0.1068  1.5064 -1.1207
  674MOL0     H92998   2.990   2.815  11.344  1.4641  5.2908 -0.3023
  674MOL0     H92999   3.055   2.623  11.503 -0.4740  0.1145 -0.2793
  674MOL0     H93000   3.115   2.695  11.905 -3.5241  3.4535  1.1140
  674MOL0     H93001   2.954   2.640  11.935 -1.5422  0.1329 -2.6254
  674MOL0     H93002   3.155   2.494  12.046  0.1679 -1.4051  0.0953
  674MOL0     H93003   3.177   2.436  11.887 -2.4214 -2.7414 -1.4206
  674MOL0     H93004   2.949   2.361  11.890 -0.0813  2.2491 -0.5799
  674MOL0     H93005   3.071   2.292  11.994  1.2437  0.9604  0.0595
  674MOL0     H93006   2.825   2.487  12.060 -0.3169 -0.8014 -0.9901
  674MOL0     H93007   2.945   2.440  12.192 -0.2820 -0.6207  1.3263
  674MOL0     H93008   2.706   2.095  12.096 -1.3731  0.5985 -0.0363
  674MOL0     H93009   2.914   2.844  11.835 -1.5582  0.5042 -1.0709
  674MOL0     H93010   2.802   3.042  11.812  2.2297 -0.5874  0.9803
  674MOL0     H93011   2.915   3.142  11.718 -1.1393  1.0548 -1.2157
  674MOL0     H93012   2.752   3.104  11.648 -0.9418 -1.2141  0.6722
  675MOL0     O93013   8.754   9.835   8.197 -0.2680  0.1135  0.1909
  675MOL0     C93014   8.812   9.728   8.160 -0.2615 -1.4577 -0.4467
  675MOL0     O93015   8.788   9.609   8.213  0.0902 -0.3012 -0.1391
  675MOL0     C93016   8.677   9.584   8.294 -0.0339  0.3480  0.4883
  675MOL0     C93017   8.695   9.519   8.419  0.6592 -0.5059  0.1257
  675MOL0     C93018   8.587   9.477   8.495 -0.8243 -0.3930 -0.0462
  675MOL0     C93019   8.454   9.519   8.465  0.2021 -1.2155  0.0471
  675MOL0     O93020   8.336   9.496   8.531  0.3268 -0.2033  0.3203
  675MOL0     C93021   8.327   9.436   8.658 -1.0321 -1.0798 -0.7576
  675MOL0     C93022   8.201   9.373   8.706 -0.2618  0.7336  0.4504
  675MOL0     C93023   8.076   9.476   8.711  0.4882 -0.1947 -0.0569
  675MOL0     C93024   7.955   9.373   8.711  0.7008  0.0551 -0.1429
  675MOL0     C93025   7.822   9.426   8.755  0.3701  0.0626  0.3626
  675MOL0     C93026   7.810   9.398   8.907 -0.0271  0.3681  0.7917
  675MOL0     C93027   7.765   9.251   8.927 -0.4564  0.1491 -0.4928
  675MOL0     C93028   7.779   9.212   9.080  0.6598 -0.7243 -0.0820
  675MOL0     N93029   7.913   9.166   9.135  0.2335 -0.7740  0.6427
  675MOL0     C93030   7.994   9.076   9.073  0.4173  0.1175  0.6963
  675MOL0     C93031   8.114   9.083   9.143 -0.2088  0.6697  0.6482
  675MOL0     C93032   8.247   9.011   9.125  0.2893 -0.3678 -0.3789
  675MOL0     C93033   8.346   9.085   9.041 -0.1941  1.0423  0.1001
  675MOL0     C93034   8.340   9.032   8.895  0.3315 -0.3477 -0.6783
  675MOL0     C93035   8.453   9.093   8.810 -0.9492 -0.0297 -0.6732
  675MOL0     O93036   8.443   9.045   8.677 -0.4539 -0.3667 -0.5188
  675MOL0     C93037   8.537   9.079   8.588  0.4376  0.7528 -0.0677
  675MOL0     C93038   8.520   9.045   8.456  0.2598  0.0978 -0.1290
  675MOL0     C93039   8.614   9.086   8.352 -0.2533  0.0299  0.1929
  675MOL0     C93040   8.571   9.060   8.210  0.2834  0.3078 -0.8685
  675MOL0     C93041   8.730   9.166   8.384 -0.5289 -0.3376 -0.8731
  675MOL0     C93042   8.837   9.191   8.286 -0.0959  0.3732 -1.0685
  675MOL0     O93043   8.932   9.283   8.333 -0.2080  0.3902  1.0182
  675MOL0     C93044   9.064   9.297   8.274  0.6079 -0.1318  0.7353
  675MOL0     C93045   9.073   9.310   8.133 -0.2305  0.8284 -0.0048
  675MOL0     C93046   9.199   9.337   8.077  0.5622 -0.1811  0.7631
  675MOL0     C93047   9.314   9.350   8.161 -1.0832 -0.7587  0.6713
  675MOL0     O93048   9.436   9.360   8.097 -0.5685  0.1441 -0.9287
  675MOL0     C93049   9.451   9.490   8.046 -0.9254 -0.8149  0.4012
  675MOL0     C93050   9.569   9.493   7.932 -0.1360 -0.0733 -0.0790
  675MOL0     C93051   9.696   9.572   7.961 -0.6579 -0.0281 -0.2052
  675MOL0     C93052   9.803   9.574   7.848  0.5319  0.5618 -0.8213
  675MOL0     C93053   9.948   9.574   7.898 -0.6897 -0.6382 -0.0050
  675MOL0     C93054  10.039   9.634   7.778  0.8096  0.3736  0.5780
  675MOL0     C93055  10.187   9.593   7.779 -0.4546  0.0545 -0.1238
  675MOL0     C93056  10.265   9.668   7.670  0.1781 -0.0733 -0.1221
  675MOL0    Cl93057  10.417   9.730   7.734 -0.2116  0.2492 -0.1228
  675MOL0     C93058   9.302   9.345   8.299 -1.2067  0.8936  0.1648
  675MOL0     C93059   9.172   9.333   8.353 -0.3670 -0.4401  0.5770
  675MOL0     O93060   8.839   9.125   8.180 -0.0579 -0.1943 -0.8866
  675MOL0     C93061   8.754   9.196   8.520  1.0530 -0.6295 -0.4375
  675MOL0     C93062   8.652   9.162   8.614 -0.3710  0.4994 -1.0323
  675MOL0     N93063   8.092   9.176   9.247 -0.0278 -1.0660  0.2245
  675MOL0     N93064   7.973   9.230   9.241 -0.6172 -0.4169 -0.8691
  675MOL0     C93065   8.439   9.590   8.344 -0.2280 -0.7456 -0.1948
  675MOL0     C93066   8.544   9.606   8.254  0.3460  0.2512  0.1265
  675MOL0     C93067   8.909   9.734   8.042 -0.5552 -0.8049  0.4356
  675MOL0     C93068   8.960   9.607   7.994  0.2546  0.0428 -0.0290
  675MOL0     C93069   9.058   9.604   7.889 -0.1095  0.1199 -0.8124
  675MOL0     C93070   9.098   9.726   7.830  0.4194  0.0876  0.7899
  675MOL0     O93071   9.186   9.716   7.719  0.6923 -0.3742 -0.1743
  675MOL0     C93072   9.184   9.828   7.623  0.3458  0.4088 -0.0664
  675MOL0     C93073   9.272   9.787   7.499  0.2200 -0.8847  0.3173
  675MOL0     C93074   9.215   9.689   7.399  1.0254 -0.4541  0.5206
  675MOL0     C93075   9.150   9.570   7.467  0.5130  0.8665  0.0483
  675MOL0     C93076   9.096   9.473   7.374  0.5130  0.2681  0.2106
  675MOL0     C93077   9.057   9.379   7.299  0.1350  0.1014  0.1484
  675MOL0     C93078   9.056   9.842   7.879 -0.2297  0.1143  0.1867
  675MOL0     C93079   8.949   9.852   7.974 -0.5834 -0.0257 -0.2729
  675MOL0     C93080   8.890   9.991   7.990  0.5479  0.0435  0.1552
  675MOL0     H93081   8.797   9.509   8.455  0.8302  2.4923  0.7205
  675MOL0     H93082   8.598   9.412   8.582 -0.9266 -0.5428 -0.1430
  675MOL0     H93083   8.365   9.514   8.725  2.2006 -0.9182 -2.5872
  675MOL0     H93084   8.401   9.355   8.650 -0.3210 -0.5833  0.4822
  675MOL0     H93085   8.193   9.286   8.639  0.4222 -0.1627  1.4865
  675MOL0     H93086   8.222   9.347   8.810  2.1557  1.8442  0.2995
  675MOL0     H93087   8.071   9.537   8.801  2.6575  1.2698 -0.8437
  675MOL0     H93088   8.067   9.541   8.623 -0.1174  0.3314  0.3846
  675MOL0     H93089   7.951   9.346   8.605 -0.7093 -0.7319  0.0782
  675MOL0     H93090   7.976   9.282   8.768  2.4270  2.6980  3.9305
  675MOL0     H93091   7.729   9.393   8.707 -2.5719  4.5571  2.3015
  675MOL0     H93092   7.820   9.533   8.730 -2.1008 -0.3848 -1.7807
  675MOL0     H93093   7.906   9.413   8.956 -0.0960  1.7523  0.5584
  675MOL0     H93094   7.743   9.474   8.950 -0.3544  2.4127 -2.9255
  675MOL0     H93095   7.831   9.192   8.863 -0.3280  0.8025 -0.9721
  675MOL0     H93096   7.662   9.229   8.898 -0.1512 -0.8271 -0.8816
  675MOL0     H93097   7.749   9.301   9.136  2.8381 -1.1395  1.9166
  675MOL0     H93098   7.708   9.132   9.106  0.7349 -0.6325  0.4060
  675MOL0     H93099   7.984   9.015   8.984 -1.4651 -2.8851  2.7703
  675MOL0     H93100   8.233   8.908   9.091 -1.4263  0.1086 -1.2371
  675MOL0     H93101   8.286   9.002   9.226  2.8637 -0.4452 -1.3246
  675MOL0     H93102   8.329   9.193   9.039 -1.8651  0.8074  0.1318
  675MOL0     H93103   8.450   9.076   9.072  1.2236  2.1796 -3.7261
  675MOL0     H93104   8.352   8.924   8.890 -3.1278 -0.8116 -0.8441
  675MOL0     H93105   8.245   9.050   8.845  0.2308  1.1767  0.0036
  675MOL0     H93106   8.456   9.203   8.805 -1.1777 -0.0903 -2.9239
  675MOL0     H93107   8.548   9.058   8.850  0.5606  2.3855 -1.8899
  675MOL0     H93108   8.430   8.986   8.437  0.1061 -0.2942  1.5890
  675MOL0     H93109   8.468   9.026   8.202  0.0560  0.7287  0.1315
  675MOL0     H93110   8.630   8.975   8.173 -0.6506  0.2584 -2.3353
  675MOL0     H93111   8.595   9.146   8.146 -2.6108  1.7441 -0.1867
  675MOL0     H93112   8.976   9.298   8.086 -0.7840  0.7744  1.1140
  675MOL0     H93113   9.211   9.351   7.970  0.1699 -0.1257  0.7240
  675MOL0     H93114   9.355   9.523   8.005 -0.4995 -0.7487 -0.5626
  675MOL0     H93115   9.475   9.564   8.123  0.9412 -0.5565 -0.3686
  675MOL0     H93116   9.590   9.390   7.902 -3.2359 -1.7149  2.6942
  675MOL0     H93117   9.524   9.549   7.849  0.0701  0.4615  0.1670
  675MOL0     H93118   9.741   9.509   8.039  0.4878 -1.0478 -1.6102
  675MOL0     H93119   9.675   9.676   7.985 -1.8779  0.1478 -1.8545
  675MOL0     H93120   9.797   9.673   7.802  1.4005  3.9008  5.1313
  675MOL0     H93121   9.796   9.495   7.773  0.9443  0.8498 -1.1637
  675MOL0     H93122   9.951   9.628   7.993 -2.1425 -0.5152 -0.0042
  675MOL0     H93123   9.972   9.467   7.909 -1.7007 -1.1040 -1.9644
  675MOL0     H93124  10.021   9.741   7.767  3.3100  0.7071 -1.2713
  675MOL0     H93125  10.011   9.586   7.684  1.8368 -1.4791  1.1518
  675MOL0     H93126  10.196   9.486   7.762 -2.3214 -0.5645  2.2905
  675MOL0     H93127  10.217   9.613   7.882 -0.1788  0.4957 -0.2868
  675MOL0     H93128  10.200   9.746   7.630  1.2477 -0.9291 -3.8939
  675MOL0     H93129  10.271   9.600   7.585 -1.4297  0.4606 -0.7001
  675MOL0     H93130   9.386   9.360   8.366 -1.6350  1.2937  0.6228
  675MOL0     H93131   9.166   9.329   8.462  2.0463  0.0784  0.7793
  675MOL0     H93132   8.836   9.258   8.553 -1.7944  2.3972  1.5572
  675MOL0     H93133   8.668   9.207   8.712  0.2698 -2.0680  0.1167
  675MOL0     H93134   8.347   9.631   8.304  0.4261 -1.4446 -2.5933
  675MOL0     H93135   8.527   9.653   8.158  0.7282  1.3982  0.5972
  675MOL0     H93136   8.918   9.516   8.037  1.6469  0.2426  1.9013
  675MOL0     H93137   9.085   9.509   7.843 -0.6462 -0.5834  0.2951
  675MOL0     H93138   9.084   9.861   7.595  1.5638  5.2685  0.3585
  675MOL0     H93139   9.229   9.915   7.673 -3.3612  2.4924 -0.0603
  675MOL0     H93140   9.362   9.746   7.544  2.7108  4.1083  0.5926
  675MOL0     H93141   9.305   9.879   7.448 -1.6068  0.3231  1.2136
  675MOL0     H93142   9.137   9.739   7.342  2.2584 -0.6374 -1.3998
  675MOL0     H93143   9.289   9.656   7.325  0.0132  0.1119 -0.7807
  675MOL0     H93144   9.060   9.588   7.525 -0.1685 -1.2671 -0.2545
  675MOL0     H93145   9.222   9.524   7.535  0.7914  2.2047  0.6946
  675MOL0     H93146   9.018   9.301   7.236  1.1524 -1.9750  1.9292
  675MOL0     H93147   9.097   9.925   7.822  2.8471 -3.0629 -2.7097
  675MOL0     H93148   8.964  10.049   8.046  1.4735  0.3949 -1.3459
  675MOL0     H93149   8.867  10.031   7.890  2.5906  1.5649  0.2220
  675MOL0     H93150   8.791   9.992   8.035  0.5905  1.0732  0.2547
  676MOL0     O93151   4.431   7.977   0.010 -0.1825  0.1729  0.3743
  676MOL0     C93152   4.512   8.058  -0.030 -0.4341  0.0191 -0.3961
  676MOL0     O93153   4.645   8.049  -0.015 -0.0597 -0.1722  0.1523
  676MOL0     C93154   4.702   7.967   0.078  0.4740 -0.8535  0.8364
  676MOL0     C93155   4.788   7.859   0.045  0.1942  0.2148 -0.4365
  676MOL0     C93156   4.848   7.786   0.138  0.2420 -0.1603 -0.4546
  676MOL0     C93157   4.812   7.801   0.277  0.0881 -0.2160  0.3786
  676MOL0     O93158   4.873   7.726   0.374 -0.8602 -0.0440 -0.0597
  676MOL0     C93159   4.905   7.786   0.500 -0.8064  0.5395  0.5475
  676MOL0     C93160   4.802   7.730   0.601 -0.5676 -0.0924 -0.7787
  676MOL0     C93161   4.860   7.747   0.742 -0.1565  0.2724 -0.8969
  676MOL0     C93162   4.765   7.704   0.856  0.5922 -0.2672 -0.3017
  676MOL0     C93163   4.824   7.680   0.999  0.0100 -0.8177 -0.5757
  676MOL0     C93164   4.865   7.810   1.071  0.5797  1.1417 -0.0743
  676MOL0     C93165   4.887   7.783   1.224  0.7559 -0.2394  0.6458
  676MOL0     C93166   4.952   7.910   1.289 -0.5834 -0.1946 -0.0275
  676MOL0     N93167   4.999   7.873   1.429  0.1587 -0.5553  0.0199
  676MOL0     C93168   4.935   7.932   1.534 -0.2552 -0.1301  0.2524
  676MOL0     C93169   5.024   7.920   1.637 -0.3427 -0.1189 -0.7698
  676MOL0     C93170   5.027   7.983   1.778  0.1446 -0.6648 -1.3908
  676MOL0     C93171   5.085   7.899   1.901 -0.0018  0.1396  0.3169
  676MOL0     C93172   5.031   7.753   1.905  0.4021 -0.0571  0.4823
  676MOL0     C93173   5.066   7.673   2.027 -0.6151  0.4494  0.1301
  676MOL0     O93174   5.200   7.690   2.062 -0.0996 -1.4379 -0.3840
  676MOL0     C93175   5.259   7.585   2.118 -0.0734  0.1207 -0.4808
  676MOL0     C93176   5.199   7.496   2.214 -0.4724 -0.2284  0.2982
  676MOL0     C93177   5.264   7.380   2.255  0.3953  0.2262 -0.0424
  676MOL0     C93178   5.179   7.297   2.352  0.1034  0.1986  0.2692
  676MOL0     C93179   5.395   7.346   2.216  0.8390  0.3658  1.3238
  676MOL0     C93180   5.461   7.222   2.254 -0.5952  0.8162 -1.0149
  676MOL0     O93181   5.390   7.117   2.314  0.4086 -0.7313 -0.4813
  676MOL0     C93182   5.401   6.983   2.310 -0.7975 -0.4510  1.0384
  676MOL0     C93183   5.487   6.912   2.214 -0.7411 -0.4057 -0.5450
  676MOL0     C93184   5.482   6.770   2.207 -0.2623 -0.7660 -0.2865
  676MOL0     C93185   5.388   6.701   2.278 -1.2484 -0.8330  0.7666
  676MOL0     O93186   5.369   6.565   2.270  0.3791 -0.4039 -0.3425
  676MOL0     C93187   5.457   6.480   2.193 -0.5634 -0.2088  0.1355
  676MOL0     C93188   5.416   6.342   2.209  0.0182  0.1857 -0.5082
  676MOL0     C93189   5.293   6.317   2.119  0.0340 -0.5389  0.5083
  676MOL0     C93190   5.259   6.171   2.142  0.2415  0.2538 -0.3787
  676MOL0     C93191   5.156   6.116   2.047 -0.5608  0.0128 -0.1501
  676MOL0     C93192   5.140   5.964   2.074 -0.3787 -0.6186  0.2226
  676MOL0     C93193   5.051   5.899   1.970 -0.6403  0.6933 -0.1629
  676MOL0     C93194   5.056   5.746   1.963  0.0559 -0.0828  0.0238
  676MOL0    Cl93195   4.992   5.666   2.108 -0.1486 -0.6985  0.0838
  676MOL0     C93196   5.307   6.776   2.365  0.0046  0.4448  0.3577
  676MOL0     C93197   5.311   6.914   2.379 -1.1116  0.6678 -0.4479
  676MOL0     O93198   5.580   7.219   2.235  0.5179  0.3164  0.5060
  676MOL0     C93199   5.452   7.444   2.128  0.1215 -0.7020 -0.5983
  676MOL0     C93200   5.392   7.565   2.094 -0.6931  0.4184  0.2143
  676MOL0     N93201   5.131   7.850   1.585 -0.8123 -0.1974  0.8404
  676MOL0     N93202   5.121   7.820   1.455  0.2039  0.0852  0.2348
  676MOL0     C93203   4.719   7.905   0.309 -0.1330  1.3351  0.5913
  676MOL0     C93204   4.667   7.990   0.212 -0.2916  0.0156 -0.5750
  676MOL0     C93205   4.459   8.170  -0.122 -0.2225 -1.0188 -0.8132
  676MOL0     C93206   4.544   8.220  -0.212  0.2540 -1.4616  0.3758
  676MOL0     C93207   4.501   8.330  -0.294  1.1275 -0.6264  0.6808
  676MOL0     C93208   4.370   8.379  -0.291  0.7685  0.9512  0.3670
  676MOL0     O93209   4.328   8.479  -0.370  0.1766 -0.5828 -0.0630
  676MOL0     C93210   4.410   8.600  -0.364  0.3814 -0.5775  0.1479
  676MOL0     C93211   4.349   8.683  -0.254 -0.1272 -0.1947  0.6002
  676MOL0     C93212   4.211   8.755  -0.279  0.4974 -0.0272 -0.3326
  676MOL0     C93213   4.187   8.822  -0.417 -0.2135 -0.6052  0.6980
  676MOL0     C93214   4.147   8.717  -0.510 -0.6385 -0.7923  0.0125
  676MOL0     C93215   4.125   8.635  -0.593 -1.6184  0.6128  0.8998
  676MOL0     C93216   4.284   8.310  -0.202  0.1877  0.0703 -0.2791
  676MOL0     C93217   4.328   8.209  -0.109 -0.0200  0.3465  0.1843
  676MOL0     C93218   4.207   8.150  -0.033 -0.2723  0.3625  0.4134
  676MOL0     H93219   4.834   7.835  -0.050 -0.2006  4.0350 -1.7946
  676MOL0     H93220   4.915   7.708   0.101  0.7995  0.7880 -1.4868
  676MOL0     H93221   4.897   7.895   0.501 -1.4893  0.5465  3.5834
  676MOL0     H93222   5.007   7.760   0.530 -0.7944  0.1635  0.2033
  676MOL0     H93223   4.707   7.784   0.593 -0.6964 -0.5822 -3.5327
  676MOL0     H93224   4.791   7.623   0.585 -0.0027 -0.0971 -1.1901
  676MOL0     H93225   4.941   7.676   0.764 -1.7261 -1.5979 -0.9521
  676MOL0     H93226   4.895   7.845   0.776 -0.9073  0.4597 -0.6497
  676MOL0     H93227   4.678   7.769   0.871  0.3568  0.0172 -2.5313
  676MOL0     H93228   4.710   7.617   0.817  1.1037 -1.0844  0.7354
  676MOL0     H93229   4.913   7.617   0.996  3.1649  3.2081 -1.0900
  676MOL0     H93230   4.743   7.634   1.056 -0.7055 -2.4331 -2.7522
  676MOL0     H93231   4.960   7.856   1.039  1.6756  0.3738  1.9408
  676MOL0     H93232   4.776   7.873   1.064  0.3143  0.8358  0.5729
  676MOL0     H93233   4.953   7.700   1.248  1.7328  0.4924  0.5309
  676MOL0     H93234   4.793   7.763   1.277  0.0833 -0.6512 -0.6541
  676MOL0     H93235   5.030   7.946   1.221  0.1464  1.0192  1.3708
  676MOL0     H93236   4.890   8.000   1.284 -0.2467  0.2195  2.0758
  676MOL0     H93237   4.848   7.997   1.532 -1.8782 -2.2075 -1.1293
  676MOL0     H93238   4.922   7.991   1.807  0.4887 -0.9096  0.0083
  676MOL0     H93239   5.082   8.077   1.780  0.6146 -0.9453 -0.9918
  676MOL0     H93240   5.190   7.886   1.875 -0.5413 -0.9864 -1.4527
  676MOL0     H93241   5.080   7.961   1.991  0.6564  0.7817 -0.0720
  676MOL0     H93242   4.922   7.743   1.902  0.3793  0.3386 -0.0879
  676MOL0     H93243   5.061   7.693   1.819 -3.2142  0.9446 -1.6841
  676MOL0     H93244   4.996   7.693   2.109 -2.0728  4.0231 -1.7506
  676MOL0     H93245   5.073   7.573   1.982  2.3175  1.5865 -2.3273
  676MOL0     H93246   5.092   7.502   2.230 -0.8528 -0.4428 -1.8588
  676MOL0     H93247   5.099   7.355   2.399  1.1565  0.5063  1.7461
  676MOL0     H93248   5.247   7.271   2.434 -2.7043  0.7329  2.9727
  676MOL0     H93249   5.148   7.211   2.291  2.2150  1.9271 -3.6413
  676MOL0     H93250   5.542   6.971   2.142 -0.4790  1.3473  1.0166
  676MOL0     H93251   5.541   6.732   2.124  0.2499 -0.9157  0.1400
  676MOL0     H93252   5.445   6.513   2.089 -0.9664 -1.2991 -0.1787
  676MOL0     H93253   5.560   6.498   2.223 -0.8444 -3.6142  4.0116
  676MOL0     H93254   5.497   6.277   2.174  1.8449  1.2976  1.4241
  676MOL0     H93255   5.405   6.332   2.317  1.9507 -0.2478 -0.3081
  676MOL0     H93256   5.313   6.335   2.013  0.2016  0.7514  0.7426
  676MOL0     H93257   5.212   6.382   2.154  1.2003  0.3012  1.7583
  676MOL0     H93258   5.226   6.142   2.242  0.2939 -1.8284 -0.9173
  676MOL0     H93259   5.351   6.112   2.132 -0.9194 -1.6452 -0.4639
  676MOL0     H93260   5.062   6.169   2.062 -0.0702  1.0531 -0.6824
  676MOL0     H93261   5.187   6.136   1.944 -1.8119  0.1628 -0.5128
  676MOL0     H93262   5.099   5.954   2.174  0.6159 -4.0453  0.4130
  676MOL0     H93263   5.241   5.922   2.062  0.3996  1.2230 -0.1496
  676MOL0     H93264   5.085   5.935   1.872  1.3801 -2.2029 -0.6583
  676MOL0     H93265   4.947   5.923   1.993 -0.5342 -0.9339  2.3715
  676MOL0     H93266   5.160   5.715   1.948 -0.2460 -1.0187 -0.1828
  676MOL0     H93267   4.995   5.712   1.879  1.9293  0.9658 -1.8547
  676MOL0     H93268   5.244   6.721   2.434  0.3752  0.0238  0.3665
  676MOL0     H93269   5.240   6.957   2.450 -1.0977 -0.9126  0.5597
  676MOL0     H93270   5.559   7.435   2.111  0.7883  2.0158  1.4866
  676MOL0     H93271   5.456   7.640   2.048  1.1335  0.1940  2.2175
  676MOL0     H93272   4.695   7.925   0.413  1.3136 -2.0829  1.7572
  676MOL0     H93273   4.600   8.073   0.234  1.0157  1.2063 -0.9617
  676MOL0     H93274   4.643   8.188  -0.243 -0.7263 -1.1684 -3.6866
  676MOL0     H93275   4.575   8.347  -0.372  1.8739 -0.0794  1.4926
  676MOL0     H93276   4.515   8.578  -0.340 -0.2447 -2.9028  1.0645
  676MOL0     H93277   4.410   8.644  -0.464 -2.2102  1.3637  0.8897
  676MOL0     H93278   4.429   8.755  -0.235 -0.5900  0.4889  0.0251
  676MOL0     H93279   4.337   8.634  -0.157  2.7641 -0.7956  0.7436
  676MOL0     H93280   4.132   8.681  -0.266  0.1925  0.3844  0.1414
  676MOL0     H93281   4.188   8.832  -0.205  1.7428 -1.5873  1.7937
  676MOL0     H93282   4.279   8.871  -0.451  0.9418 -2.9936  0.1542
  676MOL0     H93283   4.105   8.895  -0.408 -0.6320 -1.1217  1.1567
  676MOL0     H93284   4.115   8.560  -0.669 -0.4046  3.1863 -1.9932
  676MOL0     H93285   4.182   8.347  -0.198 -0.5794 -1.9386 -0.0452
  676MOL0     H93286   4.183   8.047  -0.063  2.1774  0.3120 -1.6991
  676MOL0     H93287   4.237   8.147   0.072  1.5338  0.9328 -0.0545
  676MOL0     H93288   4.121   8.216  -0.050 -1.1804 -0.8788  0.0019
  677MOL0     O93289   7.019   1.339  11.291 -0.6213  0.5646  0.6885
  677MOL0     C93290   7.083   1.370  11.384  0.0578 -0.8904 -0.4231
  677MOL0     O93291   7.208   1.432  11.372  0.3393  0.1891  0.4554
  677MOL0     C93292   7.243   1.458  11.235 -0.1106 -0.0717  0.6322
  677MOL0     C93293   7.219   1.583  11.172 -0.4689  0.0244  0.6869
  677MOL0     C93294   7.235   1.597  11.034 -0.8053 -0.1646  0.7951
  677MOL0     C93295   7.297   1.489  10.967  0.0518  0.1354  0.4811
  677MOL0     O93296   7.329   1.520  10.838 -0.2555  0.2369  0.1643
  677MOL0     C93297   7.404   1.425  10.764 -0.9085 -0.1856  0.8287
  677MOL0     C93298   7.547   1.440  10.776 -0.5925 -0.2130 -0.0027
  677MOL0     C93299   7.620   1.325  10.712 -0.1057  0.1389  0.1591
  677MOL0     C93300   7.581   1.187  10.767  0.3254 -0.5904  0.3810
  677MOL0     C93301   7.704   1.098  10.748  0.4229 -0.3380  0.1180
  677MOL0     C93302   7.681   0.953  10.781 -0.3812  0.0355  0.2257
  677MOL0     C93303   7.812   0.873  10.795 -0.6295  0.0318  0.1871
  677MOL0     C93304   7.869   0.904  10.935 -0.0884  0.8101 -0.8038
  677MOL0     N93305   7.801   0.816  11.032  0.8585 -0.3691  0.4137
  677MOL0     C93306   7.827   0.681  11.063  0.6533 -0.5574  0.3311
  677MOL0     C93307   7.729   0.654  11.152 -0.3428 -0.3241 -0.0849
  677MOL0     C93308   7.708   0.523  11.219 -0.5956  0.5223  1.0544
  677MOL0     C93309   7.577   0.510  11.290  0.9322  0.3544  0.0963
  677MOL0     C93310   7.585   0.590  11.420 -0.2710  0.5203 -0.3367
  677MOL0     C93311   7.458   0.631  11.484 -0.7502 -0.5176  0.4882
  677MOL0     O93312   7.352   0.539  11.496 -0.4078 -0.4823 -0.0052
  677MOL0     C93313   7.340   0.472  11.621 -0.6906 -0.3196  0.2101
  677MOL0     C93314   7.294   0.526  11.747 -0.8356 -0.0225  0.2104
  677MOL0     C93315   7.273   0.444  11.860  0.3488 -0.2562  0.4818
  677MOL0     C93316   7.226   0.516  11.978 -0.3767 -0.2502  0.1486
  677MOL0     C93317   7.297   0.308  11.858 -0.1407  0.6545  0.1673
  677MOL0     C93318   7.288   0.213  11.980  0.1778  0.0096  1.1810
  677MOL0     O93319   7.307   0.088  11.951  0.2959  0.5879  0.4877
  677MOL0     C93320   7.298  -0.007  12.046 -0.1036 -0.4703  0.3386
  677MOL0     C93321   7.179  -0.023  12.121  0.1391 -0.0074 -0.6483
  677MOL0     C93322   7.181  -0.121  12.220  1.0672  0.7013  0.0612
  677MOL0     C93323   7.291  -0.197  12.247  0.4655  0.5331  0.7575
  677MOL0     O93324   7.289  -0.297  12.335  0.2133 -0.3338  0.1698
  677MOL0     C93325   7.337  -0.263  12.471  0.0841 -0.2797  0.9263
  677MOL0     C93326   7.388  -0.387  12.548  0.4562 -0.1645 -0.4308
  677MOL0     C93327   7.280  -0.482  12.609  0.0060 -0.0773 -0.2329
  677MOL0     C93328   7.347  -0.612  12.659 -0.7404 -0.7089  0.3109
  677MOL0     C93329   7.248  -0.728  12.682  0.6077 -0.1430  0.8144
  677MOL0     C93330   7.125  -0.690  12.759 -0.2857 -0.0882  1.3090
  677MOL0     C93331   7.155  -0.634  12.901  0.2264 -0.4521  0.3368
  677MOL0     C93332   7.095  -0.724  13.001 -0.0022  0.1843  0.0913
  677MOL0    Cl93333   7.170  -0.663  13.144  0.8429 -0.7299  0.0706
  677MOL0     C93334   7.402  -0.183  12.174 -0.9402  0.1485  0.5361
  677MOL0     C93335   7.408  -0.094  12.068  0.5389 -0.0500  0.1187
  677MOL0     O93336   7.292   0.254  12.094  0.4067 -0.3028 -0.6649
  677MOL0     C93337   7.349   0.257  11.739 -0.2189 -0.2662  0.1968
  677MOL0     C93338   7.364   0.334  11.624  0.1867 -0.7671  0.4391
  677MOL0     N93339   7.647   0.766  11.175  0.8581  0.3888  0.5984
  677MOL0     N93340   7.688   0.863  11.101  0.5757 -0.7574 -0.2314
  677MOL0     C93341   7.341   1.372  11.034 -0.4421 -0.8441  0.0726
  677MOL0     C93342   7.302   1.350  11.160  0.6658 -0.3281  0.2313
  677MOL0     C93343   7.017   1.360  11.521  0.9264  0.2658  0.3737
  677MOL0     C93344   7.096   1.349  11.628 -0.2896 -0.5114 -0.3219
  677MOL0     C93345   7.043   1.339  11.757 -0.6324 -0.2858  0.5568
  677MOL0     C93346   6.907   1.336  11.780 -1.7591  0.3526 -0.0203
  677MOL0     O93347   6.870   1.339  11.909 -0.9108  0.0682 -0.4375
  677MOL0     C93348   6.735   1.333  11.947 -0.1581  1.4817  0.0086
  677MOL0     C93349   6.716   1.405  12.081  0.0931 -0.6020 -0.4762
  677MOL0     C93350   6.577   1.378  12.144 -0.0538  0.4662 -0.2931
  677MOL0     C93351   6.595   1.417  12.289 -0.7911 -0.1596 -1.3966
  677MOL0     C93352   6.633   1.548  12.319 -0.3984 -0.8064 -0.1185
  677MOL0     C93353   6.659   1.667  12.331  0.1969  0.0811 -0.6216
  677MOL0     C93354   6.827   1.335  11.674  0.2960 -0.0199  1.3540
  677MOL0     C93355   6.880   1.347  11.538 -0.1770 -0.2963 -0.3716
  677MOL0     C93356   6.780   1.360  11.436  0.1491  0.4400 -0.8518
  677MOL0     H93357   7.176   1.669  11.223  0.3659  0.7492  0.2081
  677MOL0     H93358   7.223   1.691  10.981  0.2754 -0.5722 -0.1956
  677MOL0     H93359   7.378   1.440  10.658 -0.6993 -1.8939  0.4995
  677MOL0     H93360   7.365   1.325  10.787 -0.6921 -0.5273 -0.2052
  677MOL0     H93361   7.582   1.537  10.738 -2.6679 -0.2498 -2.2429
  677MOL0     H93362   7.574   1.442  10.882 -0.2983 -0.4258 -0.0732
  677MOL0     H93363   7.615   1.330  10.602 -0.3850 -2.4411 -0.0068
  677MOL0     H93364   7.727   1.338  10.730 -0.1214 -0.9580  1.0799
  677MOL0     H93365   7.556   1.179  10.874  0.5472 -4.1219  0.2882
  677MOL0     H93366   7.490   1.150  10.718  0.5827  0.4802 -0.9666
  677MOL0     H93367   7.776   1.144  10.816  3.3991 -0.1239 -2.8947
  677MOL0     H93368   7.751   1.110  10.650  3.7177 -1.3515  1.4159
  677MOL0     H93369   7.618   0.960  10.870 -1.8500 -2.1095 -0.5608
  677MOL0     H93370   7.623   0.904  10.702 -1.4439 -0.1801  1.1152
  677MOL0     H93371   7.884   0.899  10.717 -1.7842 -1.0892 -1.2970
  677MOL0     H93372   7.803   0.768  10.768  1.1872 -0.2889  0.7201
  677MOL0     H93373   7.975   0.875  10.931  0.5241  2.7754  0.0718
  677MOL0     H93374   7.863   1.009  10.964  0.6923  0.8112 -0.6183
  677MOL0     H93375   7.912   0.618  11.039  2.1098  0.8977  1.4250
  677MOL0     H93376   7.790   0.495  11.285  0.7954 -1.5793 -1.3642
  677MOL0     H93377   7.707   0.454  11.134 -5.0500  2.0462 -0.4304
  677MOL0     H93378   7.501   0.535  11.215 -0.0646  1.0465  1.3174
  677MOL0     H93379   7.560   0.403  11.307  0.6458  0.5527  1.1036
  677MOL0     H93380   7.646   0.540  11.496 -0.2938  1.1895  0.1323
  677MOL0     H93381   7.638   0.683  11.401 -1.6379  1.1299 -1.3611
  677MOL0     H93382   7.481   0.671  11.583 -2.4066 -0.1700  0.7693
  677MOL0     H93383   7.425   0.712  11.418 -1.3798  0.2141  1.6667
  677MOL0     H93384   7.267   0.631  11.741 -1.0706 -0.1153 -0.4221
  677MOL0     H93385   7.243   0.623  11.966  3.1002 -0.6874 -0.0270
  677MOL0     H93386   7.282   0.481  12.065 -2.5156 -1.2455  1.1988
  677MOL0     H93387   7.120   0.490  11.983 -0.7244  1.2632  3.2357
  677MOL0     H93388   7.098   0.048  12.108 -0.4100 -0.4251  0.3656
  677MOL0     H93389   7.102  -0.134  12.294  2.6545 -0.7934  1.5956
  677MOL0     H93390   7.411  -0.183  12.466  1.7429 -1.7440  1.0845
  677MOL0     H93391   7.242  -0.227  12.512 -0.2618 -1.0881  0.8509
  677MOL0     H93392   7.451  -0.435  12.472  0.5434 -0.2366 -0.3137
  677MOL0     H93393   7.464  -0.357  12.620  1.7300  4.0698 -3.1913
  677MOL0     H93394   7.202  -0.503  12.535 -1.8186 -0.0301  1.5811
  677MOL0     H93395   7.226  -0.444  12.696  1.4941 -1.8584  1.5440
  677MOL0     H93396   7.403  -0.597  12.751 -0.7047  1.1011  0.0173
  677MOL0     H93397   7.422  -0.637  12.582 -0.3620  2.1547 -0.3487
  677MOL0     H93398   7.205  -0.767  12.589 -1.0936 -0.6501  1.7641
  677MOL0     H93399   7.300  -0.799  12.747 -2.3837 -0.0349  3.6482
  677MOL0     H93400   7.057  -0.774  12.773  0.0499 -0.5729  0.1619
  677MOL0     H93401   7.065  -0.618  12.703 -0.4640  2.7327  4.7517
  677MOL0     H93402   7.107  -0.536  12.909  1.0037  0.1110 -1.3203
  677MOL0     H93403   7.260  -0.623  12.929  0.5384  0.7202 -1.1457
  677MOL0     H93404   7.127  -0.828  12.990  1.2106  0.6834 -1.3796
  677MOL0     H93405   6.986  -0.715  13.003  0.0832  2.3400 -1.3855
  677MOL0     H93406   7.486  -0.246  12.200 -0.4702  0.4980 -0.0969
  677MOL0     H93407   7.498  -0.102  12.009  0.1104 -4.0516 -0.3134
  677MOL0     H93408   7.391   0.157  11.737 -0.1097 -0.2073 -0.7594
  677MOL0     H93409   7.394   0.290  11.530  0.8223 -0.2566  0.3990
  677MOL0     H93410   7.402   1.298  10.983  1.2124  0.2356  0.4451
  677MOL0     H93411   7.319   1.250  11.197 -0.3437 -0.0010  1.6767
  677MOL0     H93412   7.202   1.367  11.612 -0.0459 -0.4731  1.1896
  677MOL0     H93413   7.104   1.353  11.845 -1.4158  4.4279  0.6142
  677MOL0     H93414   6.667   1.371  11.871 -0.5719 -1.7667 -1.3716
  677MOL0     H93415   6.713   1.227  11.954  0.7582  1.2353 -0.6375
  677MOL0     H93416   6.719   1.511  12.054  3.6909 -1.0657 -2.4986
  677MOL0     H93417   6.796   1.380  12.151 -2.5805 -1.0900  2.6391
  677MOL0     H93418   6.492   1.439  12.113 -0.6265  1.0792  2.2609
  677MOL0     H93419   6.558   1.270  12.138 -0.8929  0.3330  2.9942
  677MOL0     H93420   6.664   1.355  12.346  0.0434  0.7512 -1.3958
  677MOL0     H93421   6.494   1.408  12.332 -0.9134  1.9496 -1.1144
  677MOL0     H93422   6.679   1.771  12.343  2.4242 -0.3204 -0.3848
  677MOL0     H93423   6.719   1.339  11.674  0.3203  0.7709  0.9404
  677MOL0     H93424   6.791   1.451  11.376 -2.5852  0.2133 -1.8399
  677MOL0     H93425   6.771   1.273  11.371 -0.9473  0.7788 -1.1764
  677MOL0     H93426   6.679   1.380  11.474 -0.6293 -2.5296 -1.1350
  678MOL0     O93427   8.273   3.041   1.607 -0.1763  0.0281  0.0745
  678MOL0     C93428   8.347   2.940   1.605 -0.1600  0.2648 -0.2992
  678MOL0     O93429   8.465   2.925   1.664  0.5484  0.0219  0.4294
  678MOL0     C93430   8.509   3.043   1.711  0.4168 -0.6653 -0.9000
  678MOL0     C93431   8.489   3.098   1.845 -0.1097  1.0716 -0.4500
  678MOL0     C93432   8.537   3.212   1.897 -0.3911  0.0160 -0.0652
  678MOL0     C93433   8.617   3.302   1.820 -0.0735 -0.4866 -0.1442
  678MOL0     O93434   8.665   3.408   1.886 -0.6624 -1.0238 -0.0005
  678MOL0     C93435   8.780   3.475   1.830 -0.7901  0.8887 -0.7640
  678MOL0     C93436   8.817   3.598   1.914  0.0024 -0.3711  0.5233
  678MOL0     C93437   8.852   3.555   2.059  0.7193  0.0662  0.5494
  678MOL0     C93438   8.931   3.662   2.127 -0.4197 -0.1278 -0.5009
  678MOL0     C93439   9.063   3.713   2.054  0.4503 -0.1327  0.1320
  678MOL0     C93440   9.183   3.612   2.026  0.7704 -0.3500 -0.2279
  678MOL0     C93441   9.302   3.677   1.950 -0.0627  0.1256  0.2412
  678MOL0     C93442   9.389   3.584   1.876 -0.2698 -0.4199  0.2165
  678MOL0     N93443   9.478   3.492   1.958  0.2606 -0.4080  0.0076
  678MOL0     C93444   9.476   3.359   1.972 -0.6253  0.3039 -0.5362
  678MOL0     C93445   9.573   3.341   2.063 -0.2456 -0.5117  0.5072
  678MOL0     C93446   9.601   3.212   2.137 -0.0671  0.0514  1.1464
  678MOL0     C93447   9.528   3.196   2.261 -0.5110 -0.5441 -1.1181
  678MOL0     C93448   9.585   3.289   2.374  0.5114  0.5760  0.3623
  678MOL0     C93449   9.544   3.237   2.513 -0.4103  0.9169 -0.3201
  678MOL0     O93450   9.559   3.093   2.521 -0.1277 -0.3440  0.3363
  678MOL0     C93451   9.682   3.027   2.530  0.6922  0.5942 -0.4227
  678MOL0     C93452   9.793   3.094   2.576 -0.0545 -1.0976 -0.5277
  678MOL0     C93453   9.912   3.024   2.608  0.8013  0.2620 -0.3873
  678MOL0     C93454  10.006   3.069   2.718  0.9352  0.1772 -0.5882
  678MOL0     C93455   9.930   2.903   2.541 -0.3476  0.0052 -0.1838
  678MOL0     C93456  10.069   2.845   2.518  0.9021 -0.0774  0.6365
  678MOL0     O93457  10.079   2.711   2.467 -0.5889  0.2022  0.0430
  678MOL0     C93458  10.201   2.659   2.421  0.9551 -0.0785  0.6284
  678MOL0     C93459  10.293   2.719   2.337 -0.4419  0.6038  0.6537
  678MOL0     C93460  10.400   2.659   2.278  0.2267 -0.7993  0.0875
  678MOL0     C93461  10.418   2.522   2.318 -0.0024 -0.1767  0.1277
  678MOL0     O93462  10.524   2.444   2.284 -0.2987 -0.9196 -0.1368
  678MOL0     C93463  10.645   2.505   2.238 -0.1165 -0.8268 -0.5070
  678MOL0     C93464  10.769   2.449   2.312 -0.1561  0.4700 -1.4521
  678MOL0     C93465  10.778   2.291   2.302  0.2000  0.6573 -0.1140
  678MOL0     C93466  10.904   2.236   2.371  0.2764 -0.8467 -0.7619
  678MOL0     C93467  10.919   2.099   2.320 -0.5059  0.1212  0.4526
  678MOL0     C93468  10.831   1.983   2.391 -0.4297 -0.8852  0.5181
  678MOL0     C93469  10.861   1.849   2.327 -0.3764  0.7761  0.6467
  678MOL0     C93470  10.808   1.845   2.187 -0.8640  0.3936  0.0263
  678MOL0    Cl93471  10.887   1.707   2.088 -0.3887  0.5378  0.1518
  678MOL0     C93472  10.325   2.455   2.396 -0.4399 -0.7265 -0.4265
  678MOL0     C93473  10.218   2.524   2.448 -0.3251  0.8460  1.3903
  678MOL0     O93474  10.162   2.926   2.516  0.1076  0.3933 -0.7111
  678MOL0     C93475   9.822   2.840   2.482  0.3326 -0.1916 -0.6601
  678MOL0     C93476   9.693   2.900   2.482  0.0384  0.5676  0.8492
  678MOL0     N93477   9.630   3.469   2.100 -0.4238 -0.5692  0.3589
  678MOL0     N93478   9.571   3.551   2.035 -0.5649 -0.4843  0.3367
  678MOL0     C93479   8.636   3.247   1.685  0.5972 -1.0300  0.3439
  678MOL0     C93480   8.575   3.131   1.636 -0.6518 -0.0713 -0.2574
  678MOL0     C93481   8.280   2.808   1.586  0.4093 -0.1508  0.3377
  678MOL0     C93482   8.263   2.725   1.693 -0.3038  0.4533  0.2748
  678MOL0     C93483   8.184   2.612   1.681  0.2832 -0.4641 -1.0104
  678MOL0     C93484   8.127   2.578   1.560  0.3920  1.0303  0.4332
  678MOL0     O93485   8.065   2.456   1.569 -0.5912  0.6244  0.5808
  678MOL0     C93486   7.965   2.434   1.468  0.1916  0.1085  0.0227
  678MOL0     C93487   7.918   2.292   1.474 -0.0815  0.8094  0.0485
  678MOL0     C93488   8.029   2.191   1.460 -0.5466 -0.6137  0.3725
  678MOL0     C93489   8.004   2.048   1.511  0.2364  0.3722  0.1726
  678MOL0     C93490   7.890   1.979   1.447  0.0681  0.2140  0.6717
  678MOL0     C93491   7.788   1.934   1.396  0.3992 -0.6686 -0.5087
  678MOL0     C93492   8.139   2.663   1.453 -0.7828  0.0909  1.1255
  678MOL0     C93493   8.212   2.781   1.465 -0.1931  0.7095 -0.4456
  678MOL0     C93494   8.215   2.884   1.348  0.3638  0.3844  0.3909
  678MOL0     H93495   8.440   3.033   1.917 -0.1462  0.1118 -1.3178
  678MOL0     H93496   8.509   3.240   1.998 -1.0671 -3.6156  0.8982
  678MOL0     H93497   8.758   3.507   1.727  1.0242  0.7431 -1.2441
  678MOL0     H93498   8.861   3.401   1.829 -3.0063 -1.6935 -0.8038
  678MOL0     H93499   8.893   3.650   1.855 -0.2094 -0.3024  0.3067
  678MOL0     H93500   8.720   3.649   1.911 -0.4500 -1.1793 -2.2233
  678MOL0     H93501   8.755   3.535   2.105  0.2700 -0.9538 -0.7565
  678MOL0     H93502   8.922   3.472   2.051  1.0360  0.5156 -3.7202
  678MOL0     H93503   8.863   3.746   2.140 -3.1284 -2.5693  3.1195
  678MOL0     H93504   8.948   3.623   2.228 -2.9062 -0.6970 -0.2388
  678MOL0     H93505   9.111   3.793   2.111 -0.5305 -0.4344  1.4252
  678MOL0     H93506   9.043   3.745   1.951  0.3704 -0.6161 -0.0026
  678MOL0     H93507   9.219   3.563   2.116  1.6219  1.1906  0.3018
  678MOL0     H93508   9.144   3.534   1.959  1.4879 -0.6712 -0.2816
  678MOL0     H93509   9.368   3.739   2.011  0.9246 -1.7845  1.2171
  678MOL0     H93510   9.246   3.743   1.883 -1.7803  0.9336  2.3893
  678MOL0     H93511   9.332   3.525   1.804 -2.0689  1.6671 -0.1605
  678MOL0     H93512   9.463   3.639   1.818  0.9386 -1.9991  0.1655
  678MOL0     H93513   9.410   3.288   1.923 -0.0262 -0.0955 -0.7717
  678MOL0     H93514   9.707   3.204   2.162 -0.1029 -0.8612  1.0246
  678MOL0     H93515   9.562   3.137   2.068  0.1424  1.8338 -1.0618
  678MOL0     H93516   9.420   3.210   2.248 -1.1860 -1.2611  2.7227
  678MOL0     H93517   9.533   3.090   2.287 -3.5165 -0.6053 -0.4547
  678MOL0     H93518   9.693   3.286   2.361  0.3384 -0.5380 -1.1636
  678MOL0     H93519   9.545   3.390   2.357 -1.3288  0.0468  1.2717
  678MOL0     H93520   9.596   3.295   2.590 -3.9851  1.8127  1.6446
  678MOL0     H93521   9.436   3.255   2.515 -0.7036 -0.6840  1.2164
  678MOL0     H93522   9.781   3.195   2.615 -0.3799 -1.0041 -0.8672
  678MOL0     H93523   9.952   3.109   2.805 -2.0693 -3.6719 -0.3966
  678MOL0     H93524  10.079   3.141   2.679  2.0521 -0.1598  0.7919
  678MOL0     H93525  10.059   2.982   2.760 -2.1237 -1.3850  0.3187
  678MOL0     H93526  10.282   2.825   2.317  2.4416  0.9819  0.5578
  678MOL0     H93527  10.464   2.719   2.213 -2.8929 -0.6719 -3.2052
  678MOL0     H93528  10.651   2.485   2.131  0.9982 -1.2308 -0.3778
  678MOL0     H93529  10.648   2.614   2.251  0.8989 -1.0430  1.5259
  678MOL0     H93530  10.860   2.495   2.271 -1.3835  3.7405 -0.8486
  678MOL0     H93531  10.766   2.482   2.416  0.7774 -1.6998 -0.6834
  678MOL0     H93532  10.777   2.263   2.196 -0.7811 -0.8800  0.2810
  678MOL0     H93533  10.688   2.251   2.348 -0.5125  0.3861 -1.6704
  678MOL0     H93534  10.892   2.245   2.479 -2.4555  2.5006 -1.1782
  678MOL0     H93535  10.992   2.292   2.335 -0.7654  1.1244 -0.3821
  678MOL0     H93536  10.891   2.105   2.214 -2.8676  0.7308  1.0499
  678MOL0     H93537  11.026   2.079   2.335  0.4197  2.6437 -1.8581
  678MOL0     H93538  10.726   1.997   2.365  0.5286 -0.2431 -3.7009
  678MOL0     H93539  10.850   1.988   2.499  1.9700 -0.0882  0.1291
  678MOL0     H93540  10.811   1.770   2.384 -0.3436  0.6962  0.5667
  678MOL0     H93541  10.970   1.837   2.328 -0.5382 -0.9597  1.7183
  678MOL0     H93542  10.859   1.924   2.131 -1.3042  0.3512 -0.4329
  678MOL0     H93543  10.700   1.853   2.177 -0.8914  2.9045  1.5270
  678MOL0     H93544  10.333   2.352   2.428 -0.8380 -1.3136 -2.1099
  678MOL0     H93545  10.140   2.478   2.507  1.1354 -2.0425  1.3053
  678MOL0     H93546   9.843   2.749   2.427  0.0720 -1.0933  0.6738
  678MOL0     H93547   9.615   2.836   2.442  1.8533 -0.6343 -0.9846
  678MOL0     H93548   8.676   3.310   1.606  0.6156 -0.3188  0.9218
  678MOL0     H93549   8.571   3.117   1.528 -1.0814 -0.4667 -0.1927
  678MOL0     H93550   8.311   2.724   1.790 -0.6697 -3.8061  0.5989
  678MOL0     H93551   8.178   2.551   1.771 -0.6750  0.1312 -0.6489
  678MOL0     H93552   7.874   2.494   1.477 -0.7529 -1.4657  1.8194
  678MOL0     H93553   8.004   2.438   1.366  1.2643  1.0790  0.4468
  678MOL0     H93554   7.845   2.282   1.394 -2.3760  0.0048  2.0964
  678MOL0     H93555   7.863   2.272   1.567 -0.4169 -0.5083 -0.4108
  678MOL0     H93556   8.054   2.199   1.353 -0.5957  2.6870  0.5081
  678MOL0     H93557   8.106   2.225   1.529 -1.1107 -0.0075  0.7082
  678MOL0     H93558   7.995   2.046   1.620  4.5712  0.1598  0.6891
  678MOL0     H93559   8.080   1.973   1.487 -1.8451 -2.9736  2.9969
  678MOL0     H93560   7.703   1.883   1.356 -0.0095  0.5535 -1.2665
  678MOL0     H93561   8.081   2.645   1.362  3.4733  1.6360 -2.2374
  678MOL0     H93562   8.309   2.921   1.305  0.4956  0.1925  0.5133
  678MOL0     H93563   8.162   2.842   1.262  0.2752 -0.9358  1.0617
  678MOL0     H93564   8.172   2.980   1.377 -0.7458 -0.0094  0.0768
  679MOL0     O93565   9.156   1.250  10.834 -0.4890 -1.0386  0.6173
  679MOL0     C93566   9.277   1.270  10.847 -0.4482  0.3283 -1.0057
  679MOL0     O93567   9.337   1.374  10.907 -0.0256  0.0377 -0.1323
  679MOL0     C93568   9.266   1.475  10.970  0.1742 -0.0230 -0.6723
  679MOL0     C93569   9.305   1.608  10.942 -0.1105  0.5288  0.7573
  679MOL0     C93570   9.235   1.724  10.988  0.1491 -0.2408 -0.3521
  679MOL0     C93571   9.114   1.705  11.051  0.3482  0.4126 -0.9572
  679MOL0     O93572   9.071   1.819  11.109  0.0741 -1.2029  0.3898
  679MOL0     C93573   8.941   1.831  11.161 -0.6364 -0.0182  0.4322
  679MOL0     C93574   8.937   1.980  11.204  1.0054 -0.5139  0.5726
  679MOL0     C93575   8.817   2.023  11.280  0.9669 -0.7306  0.5479
  679MOL0     C93576   8.821   1.986  11.428 -0.0515 -0.3995 -0.8243
  679MOL0     C93577   8.709   2.058  11.507 -0.0735  0.0750 -0.0584
  679MOL0     C93578   8.567   2.035  11.439  0.2872 -0.0999  0.0605
  679MOL0     C93579   8.446   2.078  11.539 -0.3947 -0.0285  1.2111
  679MOL0     C93580   8.326   2.008  11.492 -0.2568 -0.6080 -0.1806
  679MOL0     N93581   8.284   2.021  11.352 -0.0069  0.2236  0.4318
  679MOL0     C93582   8.251   2.133  11.273  0.9472  0.0840 -0.2286
  679MOL0     C93583   8.215   2.068  11.153 -0.5802 -0.1510  0.6430
  679MOL0     C93584   8.157   2.153  11.043 -0.4478 -0.3390  0.7544
  679MOL0     C93585   8.029   2.085  10.968  0.4886 -0.2039 -1.0458
  679MOL0     C93586   7.940   2.189  10.899  0.4025  0.5348  0.0774
  679MOL0     C93587   7.832   2.111  10.812  1.2482  0.3480  1.0997
  679MOL0     O93588   7.707   2.094  10.873  0.2286 -0.1648 -0.4753
  679MOL0     C93589   7.629   2.205  10.899 -0.1360 -0.0797 -0.2424
  679MOL0     C93590   7.648   2.288  11.005 -0.9870  0.0512  0.5953
  679MOL0     C93591   7.582   2.410  11.018 -0.1338 -0.5502 -0.6248
  679MOL0     C93592   7.620   2.498  11.142  0.1621  0.3383  0.2878
  679MOL0     C93593   7.475   2.444  10.931 -0.9618 -0.1081 -0.2092
  679MOL0     C93594   7.386   2.563  10.946  0.6562 -0.2213 -0.3031
  679MOL0     O93595   7.418   2.660  11.035  0.4828  0.4648 -0.4501
  679MOL0     C93596   7.342   2.774  11.055  0.2458  0.7722  0.4544
  679MOL0     C93597   7.259   2.833  10.959  0.5382  0.1170  0.7282
  679MOL0     C93598   7.160   2.934  10.983  0.2183 -0.1006 -0.0356
  679MOL0     C93599   7.155   2.978  11.115 -0.7022  0.1581 -0.7376
  679MOL0     O93600   7.074   3.085  11.152 -0.3136  0.7452  0.1230
  679MOL0     C93601   6.936   3.064  11.130  0.0380  0.1596  0.0335
  679MOL0     C93602   6.858   3.185  11.179 -0.9652  0.0662  0.3958
  679MOL0     C93603   6.868   3.299  11.074 -0.4636  0.2359  0.3173
  679MOL0     C93604   6.820   3.432  11.141  0.0261  1.0754 -0.4790
  679MOL0     C93605   6.796   3.541  11.033 -0.0146 -0.6898 -0.0200
  679MOL0     C93606   6.783   3.677  11.096  0.0738 -0.1282 -0.4364
  679MOL0     C93607   6.712   3.781  11.001  0.5828 -0.1468 -0.1551
  679MOL0     C93608   6.778   3.808  10.858  0.5372  0.0088 -0.6318
  679MOL0    Cl93609   6.671   3.730  10.736  0.4134  0.1573 -0.0186
  679MOL0     C93610   7.239   2.923  11.215 -0.1947 -0.0192  0.4532
  679MOL0     C93611   7.330   2.817  11.187 -0.1727 -0.1938 -0.6037
  679MOL0     O93612   7.282   2.566  10.880 -0.3649 -0.3141 -0.1247
  679MOL0     C93613   7.446   2.352  10.826 -1.0826 -0.2536 -0.5663
  679MOL0     C93614   7.527   2.239  10.813  0.2416 -0.0544 -0.0214
  679MOL0     N93615   8.251   1.933  11.149  0.6372  0.7003  0.5567
  679MOL0     N93616   8.300   1.909  11.275  1.1612 -0.0156  0.2355
  679MOL0     C93617   9.067   1.573  11.070 -1.0857  0.1491 -0.2488
  679MOL0     C93618   9.138   1.452  11.030  0.2639 -0.4174 -0.1315
  679MOL0     C93619   9.369   1.185  10.768 -0.4667  0.1426 -0.1553
  679MOL0     C93620   9.487   1.247  10.733  1.1916 -0.4899 -0.3291
  679MOL0     C93621   9.583   1.184  10.646  0.5747 -0.6168 -0.2288
  679MOL0     C93622   9.548   1.067  10.592  0.0071  0.5083  0.3525
  679MOL0     O93623   9.629   0.992  10.503 -0.3017 -0.7256  0.1800
  679MOL0     C93624   9.585   0.954  10.373  0.4556  0.2527  0.5691
  679MOL0     C93625   9.697   0.952  10.259  0.1589 -0.0640 -0.2976
  679MOL0     C93626   9.757   1.089  10.228 -0.0355  0.4056 -0.5764
  679MOL0     C93627   9.863   1.118  10.336  0.2047  0.0770  0.1134
  679MOL0     C93628   9.961   1.209  10.279 -0.3381 -0.2074  0.6245
  679MOL0     C93629  10.044   1.276  10.222  0.3804 -0.4528 -0.3377
  679MOL0     C93630   9.437   1.002  10.637  0.0662  0.9257 -0.1636
  679MOL0     C93631   9.348   1.063  10.721 -0.2842 -0.4967  1.4398
  679MOL0     C93632   9.244   0.966  10.765 -0.1180 -0.1395 -0.7263
  679MOL0     H93633   9.402   1.634  10.901 -0.6514  4.1015  1.4626
  679MOL0     H93634   9.272   1.826  10.985  3.3063 -1.2568  0.4998
  679MOL0     H93635   8.922   1.765  11.246 -0.5192  2.1160  2.2062
  679MOL0     H93636   8.881   1.822  11.069 -1.5499  2.5577  0.7115
  679MOL0     H93637   9.026   1.998  11.266  2.2245  0.6592 -1.3883
  679MOL0     H93638   8.954   2.040  11.114  1.8211 -0.8965  0.4608
  679MOL0     H93639   8.805   2.131  11.275  1.5586 -0.3639  4.2423
  679MOL0     H93640   8.730   1.971  11.240  1.5276 -0.8236 -0.6066
  679MOL0     H93641   8.824   1.882  11.463 -1.7728  0.2446  1.4505
  679MOL0     H93642   8.911   2.033  11.467  0.6695 -0.8432 -1.9075
  679MOL0     H93643   8.719   2.166  11.513 -2.8455  0.3801  0.4585
  679MOL0     H93644   8.715   2.021  11.609  0.7678  2.0451  0.6443
  679MOL0     H93645   8.561   2.091  11.345 -1.8641  0.1251  0.2782
  679MOL0     H93646   8.559   1.929  11.415  1.9789 -0.2483  0.0395
  679MOL0     H93647   8.432   2.186  11.539 -0.7097  0.1310 -3.4941
  679MOL0     H93648   8.470   2.034  11.637 -0.7020 -1.4948  0.6627
  679MOL0     H93649   8.341   1.902  11.514  0.9143 -0.7422 -1.4669
  679MOL0     H93650   8.240   2.033  11.554 -0.4710 -2.6960  0.4074
  679MOL0     H93651   8.233   2.237  11.299 -1.9700 -0.3416 -0.2660
  679MOL0     H93652   8.237   2.166  10.969 -0.4788 -0.4100  0.7075
  679MOL0     H93653   8.133   2.257  11.067  2.3381  0.9237 -1.3682
  679MOL0     H93654   8.053   1.996  10.910  1.1283  0.3823 -1.7067
  679MOL0     H93655   7.961   2.059  11.050 -1.4418  3.3178 -1.2966
  679MOL0     H93656   7.900   2.253  10.978 -0.3930  2.0551 -1.4843
  679MOL0     H93657   7.993   2.258  10.833  1.2039 -1.2520 -1.2389
  679MOL0     H93658   7.810   2.172  10.724 -0.8293 -0.5662  0.9331
  679MOL0     H93659   7.871   2.018  10.771 -1.9690 -1.7392  2.3820
  679MOL0     H93660   7.718   2.256  11.082  0.0824  4.1992  1.5891
  679MOL0     H93661   7.626   2.606  11.126 -0.2127  0.5552  1.5003
  679MOL0     H93662   7.712   2.448  11.174  0.0715 -1.6778 -2.3364
  679MOL0     H93663   7.544   2.479  11.219 -0.4218  0.8073 -0.1635
  679MOL0     H93664   7.273   2.800  10.856 -2.6926  1.1748 -0.1761
  679MOL0     H93665   7.108   2.987  10.904 -1.9608  0.5601  1.7282
  679MOL0     H93666   6.934   3.062  11.020  3.8638  0.2591 -0.1743
  679MOL0     H93667   6.909   2.976  11.188 -3.6317  0.9886 -0.1218
  679MOL0     H93668   6.757   3.148  11.199 -1.5522  0.5545 -1.4978
  679MOL0     H93669   6.897   3.216  11.276  3.1803 -2.0569 -0.4029
  679MOL0     H93670   6.804   3.293  10.985  0.4027  0.4026 -0.3310
  679MOL0     H93671   6.972   3.311  11.043  0.3075 -2.3738  1.6085
  679MOL0     H93672   6.904   3.456  11.206 -0.6161  2.8907 -0.2707
  679MOL0     H93673   6.732   3.414  11.203 -0.4957  1.8842 -0.9622
  679MOL0     H93674   6.875   3.534  10.956 -0.0457  2.4076 -0.4418
  679MOL0     H93675   6.698   3.514  10.992 -0.7460 -1.5847  2.1930
  679MOL0     H93676   6.883   3.714  11.120  0.1950 -0.6970 -0.0385
  679MOL0     H93677   6.730   3.662  11.190 -1.3536  1.2675 -0.9709
  679MOL0     H93678   6.714   3.877  11.055  1.3512  0.1331 -0.6697
  679MOL0     H93679   6.608   3.749  10.989 -0.5761  1.8436  3.1475
  679MOL0     H93680   6.876   3.762  10.875  0.0099 -1.8163 -2.2287
  679MOL0     H93681   6.799   3.915  10.844 -0.2624  0.6183  2.1351
  679MOL0     H93682   7.226   2.954  11.318 -3.8729  0.7463 -0.1128
  679MOL0     H93683   7.372   2.755  11.266 -4.6748 -1.7435  0.8585
  679MOL0     H93684   7.369   2.371  10.752 -0.8018  5.5219  0.1972
  679MOL0     H93685   7.499   2.181  10.725 -0.2717 -0.7138  0.5636
  679MOL0     H93686   8.975   1.562  11.126 -0.7948 -0.4576  0.1229
  679MOL0     H93687   9.097   1.357  11.064  2.1260 -0.8551  1.0478
  679MOL0     H93688   9.509   1.345  10.774  0.5272 -1.6383  3.0161
  679MOL0     H93689   9.677   1.240  10.642  0.0484  0.6146  2.4128
  679MOL0     H93690   9.552   0.850  10.365  3.0658 -0.5036 -2.1122
  679MOL0     H93691   9.506   1.027  10.353  1.3395  0.8686 -0.8208
  679MOL0     H93692   9.645   0.933  10.164 -0.1498 -0.4682 -0.0503
  679MOL0     H93693   9.764   0.875  10.299 -1.4420 -0.8142  1.0499
  679MOL0     H93694   9.808   1.074  10.132  1.1816 -0.0693  0.1269
  679MOL0     H93695   9.685   1.168  10.204  0.7694  1.8190  1.3356
  679MOL0     H93696   9.924   1.031  10.358  0.2168 -1.3629 -4.4876
  679MOL0     H93697   9.803   1.158  10.418 -1.5670  0.2643 -1.2045
  679MOL0     H93698  10.092   1.344  10.155 -0.5883  0.0554 -0.5427
  679MOL0     H93699   9.411   0.903  10.603  1.3095  0.4767  0.1563
  679MOL0     H93700   9.174   0.942  10.685 -0.8620 -0.7821  0.0828
  679MOL0     H93701   9.291   0.874  10.803 -1.9313  0.2206  2.8096
  679MOL0     H93702   9.198   1.000  10.858 -1.0981 -1.3711 -0.7258
  680MOL0     O93703  11.246   4.485   1.153  0.1920 -0.2249  0.1115
  680MOL0     C93704  11.302   4.453   1.262 -0.0867  0.5556 -0.0461
  680MOL0     O93705  11.396   4.530   1.324  0.6695  0.4690 -0.7214
  680MOL0     C93706  11.412   4.654   1.262 -1.0510 -0.4681  0.3347
  680MOL0     C93707  11.325   4.762   1.279  0.1687  0.6446 -0.4925
  680MOL0     C93708  11.362   4.892   1.245  0.6114  0.0376  0.9342
  680MOL0     C93709  11.479   4.922   1.170 -0.1192 -0.2711 -0.4353
  680MOL0     O93710  11.514   5.052   1.123 -0.8634 -0.5095 -0.2301
  680MOL0     C93711  11.487   5.168   1.208 -0.4152  0.9038 -0.7128
  680MOL0     C93712  11.620   5.221   1.250 -0.4969  0.6999 -0.0463
  680MOL0     C93713  11.598   5.360   1.317 -0.1243 -0.4613  0.1524
  680MOL0     C93714  11.713   5.404   1.398  0.1598 -0.1175  0.3552
  680MOL0     C93715  11.744   5.319   1.523  0.2190 -0.0872  1.7967
  680MOL0     C93716  11.836   5.393   1.613  0.0125 -0.4000 -1.1220
  680MOL0     C93717  11.972   5.425   1.546  0.4412 -0.6543 -0.3313
  680MOL0     C93718  12.053   5.310   1.490  0.5931  1.2143  0.5291
  680MOL0     N93719  12.030   5.287   1.351 -0.0278  0.1460 -0.0571
  680MOL0     C93720  11.977   5.171   1.306  0.2688 -0.3180 -0.8208
  680MOL0     C93721  11.986   5.181   1.167  0.2127 -0.2277 -0.7733
  680MOL0     C93722  11.981   5.076   1.064 -0.2854 -0.3977 -0.1323
  680MOL0     C93723  11.859   5.072   0.962 -0.6675  0.7869  1.1883
  680MOL0     C93724  11.869   4.929   0.898 -0.1595 -0.8210  0.2880
  680MOL0     C93725  11.745   4.917   0.810  0.3939 -0.2359 -0.4733
  680MOL0     O93726  11.772   4.795   0.736  0.4238 -0.1578 -0.3684
  680MOL0     C93727  11.707   4.688   0.801 -0.7946 -0.8235 -0.2450
  680MOL0     C93728  11.785   4.604   0.877 -0.7822  0.5329  0.4979
  680MOL0     C93729  11.739   4.475   0.926  0.8813 -0.3938  0.1117
  680MOL0     C93730  11.833   4.405   1.016  0.6072  0.1592  1.0628
  680MOL0     C93731  11.603   4.434   0.894  0.0086  0.0587 -0.6891
  680MOL0     C93732  11.535   4.308   0.941  0.3420 -1.1194 -0.8488
  680MOL0     O93733  11.422   4.274   0.867 -0.1793 -0.2741 -0.5035
  680MOL0     C93734  11.372   4.159   0.906  0.8594  0.0959 -0.2786
  680MOL0     C93735  11.397   4.045   0.828 -0.8599  0.0313  0.5558
  680MOL0     C93736  11.335   3.923   0.852  1.1078  0.0460  0.7096
  680MOL0     C93737  11.265   3.904   0.972  1.1381 -0.5651 -0.1194
  680MOL0     O93738  11.229   3.779   1.007  0.1424 -0.6577 -0.7821
  680MOL0     C93739  11.110   3.749   1.091 -0.2581  0.5712  0.3925
  680MOL0     C93740  11.086   3.600   1.084  0.0281  0.7790 -0.3453
  680MOL0     C93741  11.174   3.509   1.174 -0.2696 -0.4754  0.9947
  680MOL0     C93742  11.130   3.514   1.318 -0.4230  0.0060 -0.4219
  680MOL0     C93743  11.220   3.435   1.420 -0.3381  0.1217 -0.5461
  680MOL0     C93744  11.369   3.493   1.424  0.8204 -0.7013 -1.9618
  680MOL0     C93745  11.471   3.413   1.508  0.1237  0.0027 -0.5660
  680MOL0     C93746  11.562   3.507   1.586  0.0642 -0.0016  0.8888
  680MOL0    Cl93747  11.489   3.615   1.709 -0.1900  0.0969  0.0896
  680MOL0     C93748  11.230   4.018   1.048  0.1625  0.3029  1.1213
  680MOL0     C93749  11.284   4.144   1.010  0.1429  0.8725 -0.1607
  680MOL0     O93750  11.595   4.243   1.028  0.7498  0.2161 -0.6658
  680MOL0     C93751  11.525   4.523   0.812 -0.3243  0.8912  0.2653
  680MOL0     C93752  11.580   4.649   0.768  0.2850 -0.4607 -0.5916
  680MOL0     N93753  12.038   5.307   1.138 -0.6659 -0.0312  0.3880
  680MOL0     N93754  12.070   5.369   1.248  1.2988 -0.7045 -0.6376
  680MOL0     C93755  11.555   4.810   1.129 -0.0190 -0.6696  0.8560
  680MOL0     C93756  11.522   4.682   1.180 -0.4090  0.7255  0.4720
  680MOL0     C93757  11.248   4.343   1.339  0.4818  1.0251  0.6047
  680MOL0     C93758  11.111   4.314   1.345 -0.2886  0.7483 -0.2032
  680MOL0     C93759  11.065   4.197   1.410 -0.6327  0.9535  0.2862
  680MOL0     C93760  11.151   4.108   1.478 -0.2805 -0.2729  0.1638
  680MOL0     O93761  11.106   3.993   1.540  0.5149 -0.1181  0.4504
  680MOL0     C93762  11.193   3.913   1.621  0.0683  0.2240 -0.4095
  680MOL0     C93763  11.135   3.770   1.623  0.8965 -0.3866 -0.2967
  680MOL0     C93764  11.038   3.768   1.735 -0.5028  0.5472  0.1614
  680MOL0     C93765  11.011   3.628   1.785  1.0454  0.3685 -0.7835
  680MOL0     C93766  11.119   3.567   1.858  0.0773 -0.0930  0.0090
  680MOL0     C93767  11.212   3.512   1.907 -0.3609 -0.6555  0.9877
  680MOL0     C93768  11.292   4.141   1.468 -0.8739  0.2904 -0.1434
  680MOL0     C93769  11.334   4.253   1.400  0.3246 -0.7730  0.7110
  680MOL0     C93770  11.478   4.270   1.393  0.6110 -0.1848  0.9410
  680MOL0     H93771  11.237   4.748   1.341  1.6940  2.6088  2.3612
  680MOL0     H93772  11.293   4.974   1.262  1.1833  0.9742 -0.9389
  680MOL0     H93773  11.440   5.135   1.301  1.8482  1.3731  0.6649
  680MOL0     H93774  11.429   5.249   1.162  1.2631  2.8488  0.4298
  680MOL0     H93775  11.663   5.155   1.326  1.4722  2.9725  0.9206
  680MOL0     H93776  11.690   5.231   1.167 -1.4649 -0.8284 -1.1087
  680MOL0     H93777  11.593   5.420   1.226 -1.5902 -0.7033  0.0540
  680MOL0     H93778  11.501   5.372   1.366  1.4543  4.3172  2.7595
  680MOL0     H93779  11.796   5.400   1.327 -2.6709 -2.1279 -3.2069
  680MOL0     H93780  11.694   5.510   1.420  1.2629  0.0368  0.5954
  680MOL0     H93781  11.801   5.231   1.491 -2.4917 -0.6175 -2.1396
  680MOL0     H93782  11.653   5.284   1.572 -1.1493 -3.0290 -2.3400
  680MOL0     H93783  11.794   5.493   1.628  2.7891  0.8050 -0.7973
  680MOL0     H93784  11.840   5.348   1.712 -0.5767 -1.4371 -1.5539
  680MOL0     H93785  12.021   5.474   1.630  1.2408  2.2021 -2.2978
  680MOL0     H93786  11.958   5.499   1.466 -2.2949 -1.5548 -0.8035
  680MOL0     H93787  12.158   5.332   1.514  2.5218 -1.9742 -3.6307
  680MOL0     H93788  12.035   5.219   1.547  0.6877  0.2247 -0.9540
  680MOL0     H93789  11.950   5.087   1.369 -0.7868  0.9845  0.5672
  680MOL0     H93790  11.998   4.988   1.127  3.2732  0.6387  0.6076
  680MOL0     H93791  12.076   5.097   1.013  0.9991 -0.8507  1.9575
  680MOL0     H93792  11.764   5.095   1.012 -1.9181  2.4945 -1.7019
  680MOL0     H93793  11.872   5.139   0.876 -4.8199 -1.6426 -1.6772
  680MOL0     H93794  11.955   4.910   0.834 -2.0676 -2.5939 -1.9387
  680MOL0     H93795  11.887   4.861   0.982  1.1005 -0.1893  0.5659
  680MOL0     H93796  11.651   4.926   0.866  0.9095  1.3696  0.1911
  680MOL0     H93797  11.741   4.998   0.736 -1.2385  3.9486  3.6717
  680MOL0     H93798  11.886   4.639   0.895 -1.3422  1.5568  1.8785
  680MOL0     H93799  11.843   4.297   1.005  2.3626  0.3818  0.1916
  680MOL0     H93800  11.794   4.434   1.114 -0.9436 -2.7126  1.3818
  680MOL0     H93801  11.934   4.441   0.992  0.0208  0.5488 -1.0229
  680MOL0     H93802  11.465   4.056   0.744 -2.0240 -2.6267 -0.8705
  680MOL0     H93803  11.367   3.836   0.795  1.2924  0.4780  0.1463
  680MOL0     H93804  11.136   3.777   1.194  0.7960 -1.1522  0.6352
  680MOL0     H93805  11.019   3.800   1.057 -1.3268 -0.8112  1.1029
  680MOL0     H93806  10.981   3.588   1.113 -0.0374  4.2567  1.3630
  680MOL0     H93807  11.107   3.570   0.981  0.1545 -0.6892  0.0873
  680MOL0     H93808  11.282   3.519   1.164 -0.3801 -1.7236 -3.9126
  680MOL0     H93809  11.166   3.407   1.136 -0.4338 -0.4214  0.8830
  680MOL0     H93810  11.034   3.464   1.332  0.8724 -1.9865  2.4004
  680MOL0     H93811  11.112   3.618   1.345 -0.7728  0.1290 -1.1026
  680MOL0     H93812  11.169   3.428   1.516 -2.8895 -0.3423 -1.8545
  680MOL0     H93813  11.228   3.330   1.390  1.5985  0.4497 -1.3040
  680MOL0     H93814  11.356   3.593   1.467  1.7503 -1.2336 -0.3568
  680MOL0     H93815  11.405   3.490   1.321  0.5274  1.0510 -2.1390
  680MOL0     H93816  11.523   3.352   1.433 -0.9420 -0.6850 -0.7730
  680MOL0     H93817  11.424   3.345   1.581 -0.9378 -0.1923 -1.3969
  680MOL0     H93818  11.609   3.580   1.520 -1.3608  2.9968  2.9311
  680MOL0     H93819  11.637   3.442   1.631 -1.9582  0.0593  4.9003
  680MOL0     H93820  11.172   4.009   1.139  0.1079 -1.1452  0.9603
  680MOL0     H93821  11.266   4.230   1.073 -1.4939  0.6138 -0.2260
  680MOL0     H93822  11.429   4.504   0.767  0.2076  2.5049 -1.7289
  680MOL0     H93823  11.532   4.725   0.708 -3.5178 -2.2204 -0.0479
  680MOL0     H93824  11.632   4.830   1.056 -0.1973 -2.7571  0.0230
  680MOL0     H93825  11.579   4.596   1.147 -2.7975 -0.4922 -0.7378
  680MOL0     H93826  11.033   4.369   1.292  2.3824  3.7070 -1.4083
  680MOL0     H93827  10.962   4.164   1.409  0.1967 -1.9378  1.2204
  680MOL0     H93828  11.290   3.883   1.580  0.2425  0.2605 -0.0296
  680MOL0     H93829  11.213   3.956   1.719 -1.4010  2.5406 -1.0612
  680MOL0     H93830  11.209   3.693   1.646 -0.7138 -1.7301  0.6255
  680MOL0     H93831  11.081   3.749   1.530  0.5009 -3.0341  0.4495
  680MOL0     H93832  11.072   3.823   1.823  0.9904  2.3877 -1.4800
  680MOL0     H93833  10.944   3.809   1.697 -1.0496  1.4118  2.2622
  680MOL0     H93834  10.970   3.564   1.706  0.0079 -3.4036  2.4369
  680MOL0     H93835  10.919   3.629   1.845 -2.9130 -2.5875 -5.8964
  680MOL0     H93836  11.298   3.469   1.954 -1.0068 -3.8576 -0.5523
  680MOL0     H93837  11.350   4.062   1.516 -3.4726 -1.7633 -0.1195
  680MOL0     H93838  11.498   4.299   1.289 -0.6620  0.6072  0.8862
  680MOL0     H93839  11.510   4.349   1.462  2.1978  0.8011 -0.8228
  680MOL0     H93840  11.540   4.181   1.408  3.7673  0.8238 -3.7962
  681MOL0     O93841   0.214  11.074   3.955 -0.3284 -0.1424 -0.0296
  681MOL0     C93842   0.118  11.051   4.019  0.3626  0.1237  0.3042
  681MOL0     O93843   0.034  11.146   4.074 -0.0579  0.1253 -0.2959
  681MOL0     C93844   0.063  11.275   4.056  0.2557  0.6225 -0.5050
  681MOL0     C93845  -0.012  11.364   3.972 -0.5712  0.3634 -0.4148
  681MOL0     C93846   0.020  11.502   3.965 -0.2829  0.1468  1.3727
  681MOL0     C93847   0.124  11.553   4.041  0.8557  0.4486 -0.5921
  681MOL0     O93848   0.142  11.691   4.027  0.0949 -0.1897 -0.3059
  681MOL0     C93849   0.111  11.768   4.142 -1.3260  0.0500 -0.0358
  681MOL0     C93850   0.069  11.916   4.105 -0.9987 -0.8592  0.5983
  681MOL0     C93851  -0.059  11.924   4.041 -0.2431 -0.2409  0.8210
  681MOL0     C93852  -0.100  12.055   3.972  0.3032 -0.2455  0.1185
  681MOL0     C93853  -0.243  12.049   3.919 -0.2551  0.0686  0.5692
  681MOL0     C93854  -0.315  12.189   3.893  0.2451  0.2215  0.2496
  681MOL0     C93855  -0.468  12.163   3.890 -0.7344  0.1720  0.0062
  681MOL0     C93856  -0.559  12.289   3.893 -0.0843 -0.3143 -0.1089
  681MOL0     N93857  -0.587  12.342   4.024 -0.0609  0.0407 -0.4552
  681MOL0     C93858  -0.693  12.324   4.102  0.9527  0.1131 -0.2818
  681MOL0     C93859  -0.676  12.411   4.210  0.0128 -0.3502  0.6458
  681MOL0     C93860  -0.787  12.441   4.310  0.8184 -0.5511 -0.0616
  681MOL0     C93861  -0.813  12.338   4.415 -0.5978  0.4187 -0.3992
  681MOL0     C93862  -0.687  12.303   4.503 -1.1753  0.0134  0.0537
  681MOL0     C93863  -0.731  12.210   4.614  0.2335  0.4924 -0.2779
  681MOL0     O93864  -0.785  12.281   4.729 -0.5991 -0.2608  0.5110
  681MOL0     C93865  -0.707  12.349   4.818 -0.3528 -0.3373  0.2654
  681MOL0     C93866  -0.571  12.363   4.817 -0.3143  0.4569 -0.0163
  681MOL0     C93867  -0.498  12.437   4.922  0.6644  0.9124  0.2864
  681MOL0     C93868  -0.352  12.456   4.906  0.9510 -0.7011 -0.7036
  681MOL0     C93869  -0.578  12.500   5.024 -0.8854  1.0388  0.5238
  681MOL0     C93870  -0.518  12.569   5.142 -0.7664  0.4558 -0.3590
  681MOL0     O93871  -0.603  12.640   5.229 -0.2219  0.1108 -0.4051
  681MOL0     C93872  -0.564  12.717   5.343 -0.6550  0.4290  1.0296
  681MOL0     C93873  -0.453  12.691   5.417  0.2341 -0.5776 -0.5398
  681MOL0     C93874  -0.418  12.780   5.514 -0.1666 -0.1273 -0.8095
  681MOL0     C93875  -0.502  12.886   5.549 -0.7860  0.0625  0.1011
  681MOL0     O93876  -0.475  12.977   5.649 -0.5353  1.1571 -0.2113
  681MOL0     C93877  -0.344  13.012   5.670 -0.5607 -0.2476  0.6720
  681MOL0     C93878  -0.336  13.141   5.746 -0.1963  0.4560  0.3249
  681MOL0     C93879  -0.206  13.211   5.756 -0.5013  0.4659  0.4610
  681MOL0     C93880  -0.196  13.302   5.634  1.0468  0.2902  0.7897
  681MOL0     C93881  -0.060  13.369   5.629  0.2649  0.7203 -0.6975
  681MOL0     C93882   0.066  13.289   5.634  0.0033  0.0788 -0.2751
  681MOL0     C93883   0.196  13.366   5.615 -0.5688 -0.6439 -0.5002
  681MOL0     C93884   0.311  13.266   5.595  0.0010 -0.0819  0.0218
  681MOL0    Cl93885   0.339  13.201   5.754  0.1485 -0.2518  0.0488
  681MOL0     C93886  -0.621  12.897   5.483  0.4572  0.8466  0.4461
  681MOL0     C93887  -0.650  12.825   5.373  0.8000  0.7079  0.5042
  681MOL0     O93888  -0.403  12.576   5.153  0.7065 -0.4920  0.3015
  681MOL0     C93889  -0.724  12.506   5.015 -1.3132  0.6097 -0.2214
  681MOL0     C93890  -0.773  12.421   4.919  0.2785  1.3308 -0.3541
  681MOL0     N93891  -0.557  12.476   4.208 -0.0744 -0.4056 -0.3812
  681MOL0     N93892  -0.508  12.437   4.092 -0.2904  0.1246 -0.1380
  681MOL0     C93893   0.195  11.471   4.123 -1.3438 -0.2049  0.6485
  681MOL0     C93894   0.168  11.335   4.131  0.3157  0.0592  0.5969
  681MOL0     C93895   0.069  10.905   4.048  0.0492  0.2363 -0.7154
  681MOL0     C93896  -0.053  10.899   4.111  0.6398  0.1257  0.2488
  681MOL0     C93897  -0.115  10.772   4.128  0.9151  0.3266 -0.6861
  681MOL0     C93898  -0.060  10.651   4.103  0.3736  0.0159  0.4580
  681MOL0     O93899  -0.141  10.535   4.129 -0.1081 -0.5454  0.7517
  681MOL0     C93900  -0.108  10.420   4.051 -1.0775  0.7348  0.2728
  681MOL0     C93901  -0.113  10.433   3.897  0.2217  0.2368  0.3990
  681MOL0     C93902  -0.041  10.305   3.839 -0.0931  0.1334  0.3957
  681MOL0     C93903  -0.092  10.169   3.884  1.0095  0.7097  0.2637
  681MOL0     C93904  -0.229  10.155   3.838  0.6256  0.3219  1.0014
  681MOL0     C93905  -0.342  10.120   3.813  0.7823  0.6611 -0.1865
  681MOL0     C93906   0.069  10.656   4.050 -0.7890  0.2878  0.3960
  681MOL0     C93907   0.135  10.783   4.027 -0.9589 -0.0447 -0.6754
  681MOL0     C93908   0.274  10.777   3.966  0.8362  0.0942 -0.3560
  681MOL0     H93909  -0.098  11.323   3.921 -1.1759 -0.7371  1.4055
  681MOL0     H93910  -0.037  11.573   3.906 -0.4468  0.2720  1.6815
  681MOL0     H93911   0.182  11.765   4.225 -1.5417 -2.4336  0.1294
  681MOL0     H93912   0.025  11.719   4.189 -1.3292  0.7176  0.6740
  681MOL0     H93913   0.073  11.982   4.192  0.2527 -0.9865  0.6484
  681MOL0     H93914   0.146  11.954   4.038 -0.1533  0.3022  2.1555
  681MOL0     H93915  -0.059  11.836   3.976  3.0285 -2.3244  3.2630
  681MOL0     H93916  -0.141  11.896   4.109  0.4041 -0.1213  1.6749
  681MOL0     H93917  -0.091  12.130   4.051 -0.1040  0.2528 -0.2941
  681MOL0     H93918  -0.034  12.087   3.890 -0.2126  0.7464  0.0769
  681MOL0     H93919  -0.311  11.998   3.988 -1.9282 -0.9355 -1.6988
  681MOL0     H93920  -0.245  11.990   3.827 -0.5187  2.2451 -0.8863
  681MOL0     H93921  -0.299  12.266   3.968  2.1543  0.1132  0.0071
  681MOL0     H93922  -0.281  12.219   3.793  0.1149  1.0016  0.4354
  681MOL0     H93923  -0.496  12.109   3.980  0.2437  2.4241  1.7665
  681MOL0     H93924  -0.496  12.106   3.801 -3.7487  0.6280  0.5375
  681MOL0     H93925  -0.516  12.376   3.841  0.0654 -1.1182 -1.3879
  681MOL0     H93926  -0.654  12.275   3.840 -0.9964  1.6544  0.8867
  681MOL0     H93927  -0.783  12.264   4.087  0.9382  0.3111 -1.0297
  681MOL0     H93928  -0.879  12.443   4.251 -1.6353  3.2181  3.3845
  681MOL0     H93929  -0.787  12.538   4.360  0.8754  1.2046 -3.1985
  681MOL0     H93930  -0.894  12.372   4.480 -1.2583  1.2476 -1.6100
  681MOL0     H93931  -0.862  12.260   4.356 -1.1446  2.5672 -3.0619
  681MOL0     H93932  -0.612  12.255   4.439 -2.3378  1.1066 -2.2456
  681MOL0     H93933  -0.632  12.387   4.547  0.9556 -1.2385 -0.0561
  681MOL0     H93934  -0.804  12.133   4.589  2.6248 -1.9152 -0.2761
  681MOL0     H93935  -0.642  12.151   4.638  0.0149 -1.1253 -2.9797
  681MOL0     H93936  -0.503  12.318   4.745  1.0994 -0.8112  1.9982
  681MOL0     H93937  -0.311  12.389   4.830 -1.6281 -0.9004 -2.0206
  681MOL0     H93938  -0.299  12.429   4.998 -2.3223  1.6204  2.1243
  681MOL0     H93939  -0.325  12.559   4.881  2.1750  0.0247  2.9946
  681MOL0     H93940  -0.402  12.601   5.382  2.0836  0.1268  0.2265
  681MOL0     H93941  -0.328  12.762   5.571 -0.8091  0.7968  0.5717
  681MOL0     H93942  -0.282  12.931   5.708  0.8090 -0.6726 -2.1724
  681MOL0     H93943  -0.302  13.031   5.570  3.8644  1.2279  2.5670
  681MOL0     H93944  -0.414  13.202   5.699 -0.7373 -0.9258 -0.6079
  681MOL0     H93945  -0.368  13.114   5.847  0.2402 -4.1683 -0.5918
  681MOL0     H93946  -0.138  13.126   5.758  1.4183  1.7837 -2.6781
  681MOL0     H93947  -0.207  13.257   5.856 -1.4555 -0.3034  0.8202
  681MOL0     H93948  -0.276  13.377   5.628  0.4482 -0.1668  2.4333
  681MOL0     H93949  -0.201  13.242   5.543 -0.1795 -0.7502  1.5148
  681MOL0     H93950  -0.072  13.427   5.537 -1.8473  1.4224 -0.0406
  681MOL0     H93951  -0.063  13.443   5.709 -0.0391  1.7376 -1.6134
  681MOL0     H93952   0.047  13.223   5.549 -1.5515 -0.1764  0.2396
  681MOL0     H93953   0.065  13.226   5.723 -1.5825  1.0650  0.4492
  681MOL0     H93954   0.228  13.436   5.693 -2.4286  1.2171 -1.3015
  681MOL0     H93955   0.195  13.425   5.523  2.3758  2.7815  1.4061
  681MOL0     H93956   0.398  13.315   5.552  1.0118 -2.4945 -0.8548
  681MOL0     H93957   0.287  13.181   5.530  1.2261 -0.4968  0.0819
  681MOL0     H93958  -0.678  12.983   5.519 -0.5928 -0.1502  1.2608
  681MOL0     H93959  -0.746  12.836   5.324  0.8657 -0.5218  0.0715
  681MOL0     H93960  -0.789  12.550   5.090 -0.7709 -0.8446  1.1661
  681MOL0     H93961  -0.881  12.413   4.909  0.5604 -2.2129 -2.2676
  681MOL0     H93962   0.281  11.517   4.171 -2.2830  3.0815 -0.5058
  681MOL0     H93963   0.239  11.276   4.187 -0.3438 -1.2253  0.1136
  681MOL0     H93964  -0.112  10.981   4.150 -0.0795 -0.4458  0.3911
  681MOL0     H93965  -0.218  10.779   4.162  0.8162  0.8646 -1.0863
  681MOL0     H93966  -0.003  10.396   4.069 -0.7161  1.0003 -1.3559
  681MOL0     H93967  -0.169  10.341   4.095  1.5562 -0.3492  2.2155
  681MOL0     H93968  -0.071  10.523   3.852  2.1327  0.1852  1.9368
  681MOL0     H93969  -0.215  10.444   3.861  0.4857  3.5200  0.3942
  681MOL0     H93970  -0.055  10.317   3.731  0.3344  1.7078  0.4808
  681MOL0     H93971   0.064  10.324   3.863 -0.2989  2.4381 -0.2430
  681MOL0     H93972  -0.073  10.160   3.991 -0.0560  1.6015  0.5439
  681MOL0     H93973  -0.041  10.081   3.844  0.4606  0.0905  0.9094
  681MOL0     H93974  -0.442  10.087   3.793  0.4054  1.5375  0.2287
  681MOL0     H93975   0.137  10.574   4.029 -0.3185  0.4124  1.3614
  681MOL0     H93976   0.252  10.788   3.859 -3.9727  1.6047  0.5188
  681MOL0     H93977   0.336  10.863   3.993 -1.4892  2.6651 -2.4768
  681MOL0     H93978   0.326  10.682   3.978 -2.5162 -2.0578 -1.2544
  682MOL0     O93979   5.672   0.654   3.596  0.0201 -0.7790  0.9083
  682MOL0     C93980   5.720   0.764   3.566 -0.0137  0.7817  0.5958
  682MOL0     O93981   5.810   0.786   3.464  1.0823 -0.3232 -0.5009
  682MOL0     C93982   5.823   0.681   3.379  0.1200  0.8971  0.6546
  682MOL0     C93983   5.766   0.682   3.247  1.2723 -0.8510  0.3181
  682MOL0     C93984   5.791   0.586   3.152  0.0058 -0.0425  0.0961
  682MOL0     C93985   5.886   0.490   3.181  0.2328 -0.7548 -0.2505
  682MOL0     O93986   5.930   0.425   3.070 -0.5165 -0.2453  0.3746
  682MOL0     C93987   5.980   0.291   3.085  0.9522  0.4651 -0.3777
  682MOL0     C93988   6.031   0.227   2.951 -0.5819  0.1760 -0.1859
  682MOL0     C93989   5.908   0.227   2.855 -0.5969  0.2861 -0.3250
  682MOL0     C93990   5.857   0.085   2.812  1.0392 -0.2325  0.1857
  682MOL0     C93991   5.951   0.009   2.706 -0.7600 -0.8144 -1.0378
  682MOL0     C93992   6.103   0.009   2.735 -0.3303  0.7938  0.4619
  682MOL0     C93993   6.185  -0.033   2.617  0.2495  0.2378  0.2344
  682MOL0     C93994   6.186   0.057   2.493  0.8805  0.5119 -0.1960
  682MOL0     N93995   6.278   0.009   2.387  0.0233 -0.5845 -0.5446
  682MOL0     C93996   6.248  -0.010   2.251 -0.0222 -0.5172  0.0953
  682MOL0     C93997   6.367  -0.042   2.191 -0.3224 -0.2404 -0.4492
  682MOL0     C93998   6.396  -0.077   2.049 -0.2037  0.9500  1.0087
  682MOL0     C93999   6.308  -0.186   1.984  0.4035 -0.6303  1.2112
  682MOL0     C94000   6.290  -0.315   2.066  0.3122 -0.1192 -0.1097
  682MOL0     C94001   6.406  -0.415   2.050 -0.6751 -0.1380 -0.0997
  682MOL0     O94002   6.370  -0.540   2.110 -0.3397 -0.2492  0.9116
  682MOL0     C94003   6.357  -0.547   2.250  0.3715 -0.3159  0.3994
  682MOL0     C94004   6.291  -0.648   2.312 -1.0510  0.4831 -1.1193
  682MOL0     C94005   6.266  -0.662   2.450 -0.1323 -0.6492  0.4078
  682MOL0     C94006   6.175  -0.776   2.497 -1.1028  0.3953 -0.7743
  682MOL0     C94007   6.305  -0.553   2.529 -0.0657 -0.5399 -0.0733
  682MOL0     C94008   6.305  -0.555   2.677  0.8242  0.3963 -1.1879
  682MOL0     O94009   6.280  -0.434   2.739  0.9683 -0.3298  0.4930
  682MOL0     C94010   6.320  -0.398   2.870 -0.5874 -0.1696 -0.3306
  682MOL0     C94011   6.450  -0.427   2.916  0.7145  0.2416 -0.8596
  682MOL0     C94012   6.471  -0.397   3.050  0.1748 -0.2424  0.3530
  682MOL0     C94013   6.368  -0.344   3.143  0.2163  0.1444  0.0375
  682MOL0     O94014   6.387  -0.341   3.280  0.2033  0.0696 -0.3108
  682MOL0     C94015   6.510  -0.375   3.337  0.2896  0.0484 -0.2403
  682MOL0     C94016   6.510  -0.321   3.478  0.0527  0.0139  0.3330
  682MOL0     C94017   6.648  -0.322   3.555  0.5448 -0.0583 -0.3172
  682MOL0     C94018   6.639  -0.268   3.700 -0.0272 -0.2677  0.3547
  682MOL0     C94019   6.787  -0.241   3.752 -0.4644  0.1808 -0.9978
  682MOL0     C94020   6.883  -0.366   3.748 -0.3156  0.1832  0.3301
  682MOL0     C94021   6.969  -0.379   3.622 -0.7693  0.6619  0.9701
  682MOL0     C94022   7.092  -0.472   3.651 -0.0028 -0.5158 -0.3087
  682MOL0    Cl94023   7.192  -0.516   3.501  0.1385 -0.3513 -0.1422
  682MOL0     C94024   6.241  -0.332   3.088  0.7852  0.0179 -0.1428
  682MOL0     C94025   6.220  -0.352   2.946  0.1204 -0.1256  0.9866
  682MOL0     O94026   6.331  -0.656   2.745 -0.2655  0.1663 -0.1035
  682MOL0     C94027   6.376  -0.443   2.477  0.6511  0.6294  0.2891
  682MOL0     C94028   6.399  -0.446   2.338 -0.2599 -0.5643  0.4350
  682MOL0     N94029   6.461  -0.046   2.292 -0.3027 -0.1923  0.0449
  682MOL0     N94030   6.410  -0.010   2.406  0.0253 -0.0413  0.8865
  682MOL0     C94031   5.949   0.485   3.304  0.2693  0.2039  0.4377
  682MOL0     C94032   5.911   0.571   3.401 -0.1908 -0.2563 -0.5101
  682MOL0     C94033   5.696   0.888   3.646  0.3680  0.7844 -0.3606
  682MOL0     C94034   5.721   1.006   3.569 -0.0090 -0.6218 -0.3619
  682MOL0     C94035   5.705   1.129   3.634 -0.5206 -0.5621 -0.3310
  682MOL0     C94036   5.666   1.140   3.765 -1.2150 -0.1674  0.2281
  682MOL0     O94037   5.656   1.253   3.837  0.3885  0.2913 -0.5549
  682MOL0     C94038   5.696   1.370   3.783 -0.3883 -0.1141 -0.2721
  682MOL0     C94039   5.641   1.494   3.863 -1.2631 -0.6050  1.1671
  682MOL0     C94040   5.670   1.630   3.781  0.0488 -1.2835 -0.3548
  682MOL0     C94041   5.562   1.660   3.683  0.5188  1.1274  0.0624
  682MOL0     C94042   5.454   1.737   3.757  1.2442 -0.4275  0.1511
  682MOL0     C94043   5.360   1.792   3.812  0.2591  0.0943  0.0470
  682MOL0     C94044   5.640   1.019   3.833 -0.2476 -0.3987  0.0555
  682MOL0     C94045   5.649   0.890   3.783 -0.9260 -0.8175 -0.5617
  682MOL0     C94046   5.631   0.766   3.866 -0.5558 -0.7485 -0.6931
  682MOL0     H94047   5.683   0.747   3.221  1.5292 -1.1760 -1.4295
  682MOL0     H94048   5.746   0.591   3.053 -1.4987  0.8306  0.7893
  682MOL0     H94049   5.896   0.228   3.115 -0.3622  0.5695 -3.4073
  682MOL0     H94050   6.070   0.283   3.147  0.3814  1.5321  0.6255
  682MOL0     H94051   6.115   0.289   2.920 -0.1638 -0.6225 -0.6823
  682MOL0     H94052   6.064   0.129   2.988  0.2048  1.5478  3.1434
  682MOL0     H94053   5.823   0.284   2.895  0.6090  0.1794  2.6754
  682MOL0     H94054   5.948   0.283   2.770  0.9257 -0.4853 -0.1580
  682MOL0     H94055   5.840   0.023   2.901 -1.5117 -0.2465 -0.2257
  682MOL0     H94056   5.763   0.088   2.756  1.3343 -2.1007 -0.4902
  682MOL0     H94057   5.942   0.074   2.618  3.7938 -0.5967 -1.5507
  682MOL0     H94058   5.931  -0.097   2.692  4.5420 -2.2276 -0.0832
  682MOL0     H94059   6.148   0.105   2.760  2.0486 -0.0124 -0.4772
  682MOL0     H94060   6.125  -0.063   2.814 -3.4371  1.9083  2.5285
  682MOL0     H94061   6.158  -0.133   2.580 -0.9954 -0.2886  2.3706
  682MOL0     H94062   6.289  -0.050   2.647  0.7545 -1.4061 -2.1442
  682MOL0     H94063   6.085   0.049   2.453  0.6773  1.9829 -0.0422
  682MOL0     H94064   6.193   0.164   2.515 -0.6245  0.7014 -0.5083
  682MOL0     H94065   6.153   0.006   2.202  0.2250 -0.8302 -0.4955
  682MOL0     H94066   6.488  -0.134   2.033 -1.0788  0.0443 -1.2676
  682MOL0     H94067   6.396   0.013   1.986 -0.5582  2.4278  3.0009
  682MOL0     H94068   6.210  -0.137   1.973  0.0629 -1.0093  2.3473
  682MOL0     H94069   6.347  -0.227   1.891 -0.5306 -0.3441  0.6729
  682MOL0     H94070   6.270  -0.286   2.170 -1.6355  0.2399 -0.5542
  682MOL0     H94071   6.207  -0.372   2.023  2.4101 -3.5229 -0.0485
  682MOL0     H94072   6.416  -0.438   1.944 -2.4121 -0.4205 -0.2208
  682MOL0     H94073   6.501  -0.381   2.093 -1.0671 -0.4189  1.0348
  682MOL0     H94074   6.262  -0.732   2.250  0.0531  0.1787 -1.2402
  682MOL0     H94075   6.105  -0.737   2.572 -2.1469 -0.7609 -1.1212
  682MOL0     H94076   6.240  -0.839   2.557 -2.9721  1.9775  3.2943
  682MOL0     H94077   6.120  -0.833   2.422  0.5023 -0.2032 -1.5462
  682MOL0     H94078   6.522  -0.472   2.849  0.3975 -0.9508 -0.4378
  682MOL0     H94079   6.568  -0.429   3.086  1.0145 -3.2873 -3.8538
  682MOL0     H94080   6.531  -0.482   3.349  0.2902  0.2703  2.3568
  682MOL0     H94081   6.595  -0.327   3.288  1.5999 -2.0284 -0.1352
  682MOL0     H94082   6.500  -0.212   3.472  3.1402  0.2949 -1.6610
  682MOL0     H94083   6.429  -0.358   3.541 -0.9066  1.6851  0.1426
  682MOL0     H94084   6.717  -0.257   3.500 -0.1368  2.7352  1.8934
  682MOL0     H94085   6.683  -0.426   3.556 -1.3718 -0.7536 -0.4101
  682MOL0     H94086   6.598  -0.350   3.759  0.0004 -1.1157 -0.7648
  682MOL0     H94087   6.574  -0.180   3.698  0.9188  0.5125 -3.4702
  682MOL0     H94088   6.835  -0.161   3.697 -5.0529  4.4466  0.4882
  682MOL0     H94089   6.784  -0.206   3.856 -0.0272 -0.4617 -0.7560
  682MOL0     H94090   6.835  -0.462   3.768  1.9515 -1.2607 -0.7736
  682MOL0     H94091   6.956  -0.348   3.827  1.3405  2.1747 -1.5376
  682MOL0     H94092   7.005  -0.281   3.588 -0.6528  0.4401  0.4427
  682MOL0     H94093   6.911  -0.420   3.538  1.7380 -1.9277  0.3544
  682MOL0     H94094   7.053  -0.561   3.702 -3.1089  1.2795  0.7450
  682MOL0     H94095   7.164  -0.428   3.721 -2.7645  0.2191  2.2763
  682MOL0     H94096   6.163  -0.298   3.155  1.1578 -0.6462  0.6523
  682MOL0     H94097   6.122  -0.344   2.900  1.0653  2.2292 -0.7899
  682MOL0     H94098   6.415  -0.370   2.547 -0.0756  1.2958  0.0152
  682MOL0     H94099   6.450  -0.364   2.289 -1.3322 -0.3318 -0.3201
  682MOL0     H94100   6.036   0.422   3.323  0.3947  0.8435  2.2160
  682MOL0     H94101   5.947   0.578   3.503 -0.4897  2.1781 -0.5123
  682MOL0     H94102   5.773   1.013   3.474 -1.3180  0.5176 -1.0355
  682MOL0     H94103   5.730   1.219   3.579 -1.8399 -0.6297 -1.0973
  682MOL0     H94104   5.804   1.374   3.799 -0.2232  1.9102 -1.6123
  682MOL0     H94105   5.663   1.398   3.683 -3.8896  1.9121  1.2548
  682MOL0     H94106   5.700   1.503   3.954 -0.0638 -1.3946  0.4954
  682MOL0     H94107   5.534   1.489   3.882 -1.6677 -0.3116 -0.8427
  682MOL0     H94108   5.672   1.718   3.845 -0.4770 -0.8221 -0.9664
  682MOL0     H94109   5.770   1.629   3.736  0.9063  1.3752  1.2748
  682MOL0     H94110   5.531   1.562   3.645 -0.8345  1.5101  0.1420
  682MOL0     H94111   5.600   1.715   3.596 -2.2325  0.0946 -1.9184
  682MOL0     H94112   5.285   1.843   3.869  1.2663 -1.5835  3.1139
  682MOL0     H94113   5.605   1.018   3.935 -1.4658  1.5899 -0.2805
  682MOL0     H94114   5.533   0.718   3.851 -2.3908  2.7643 -0.8558
  682MOL0     H94115   5.715   0.697   3.854  1.0475  0.7326  1.3034
  682MOL0     H94116   5.635   0.786   3.974  0.6473 -1.6247 -0.5523
  683MOL0     O94117   6.517   5.411   2.247  0.2277 -0.5343 -0.4864
  683MOL0     C94118   6.477   5.506   2.179 -0.8172 -0.4355 -0.5675
  683MOL0     O94119   6.354   5.564   2.177  0.2655 -0.1592 -0.3788
  683MOL0     C94120   6.265   5.516   2.267 -0.5506  0.1526  0.1250
  683MOL0     C94121   6.236   5.595   2.381  1.3954  0.1711  0.0042
  683MOL0     C94122   6.144   5.536   2.473 -1.0817 -0.0400  0.1466
  683MOL0     C94123   6.086   5.412   2.448 -0.2420 -0.4713 -1.1550
  683MOL0     O94124   6.018   5.353   2.552  0.2806 -0.3404  0.2050
  683MOL0     C94125   5.954   5.227   2.527  0.2503  1.1242 -0.6302
  683MOL0     C94126   5.814   5.240   2.461  0.8023 -0.3870 -0.5129
  683MOL0     C94127   5.727   5.351   2.505  0.2071  0.4502  0.1930
  683MOL0     C94128   5.586   5.337   2.459  0.5532 -0.4448  0.3203
  683MOL0     C94129   5.493   5.441   2.521 -0.2866 -0.5370  0.0079
  683MOL0     C94130   5.348   5.388   2.536  0.4857  0.0441 -0.7652
  683MOL0     C94131   5.325   5.277   2.642 -0.8200  0.4673  0.6062
  683MOL0     C94132   5.342   5.308   2.785  0.6532  0.0589 -0.7884
  683MOL0     N94133   5.269   5.430   2.823 -0.0840 -0.1824 -0.1120
  683MOL0     C94134   5.333   5.538   2.880 -0.1891 -0.9381 -0.3358
  683MOL0     C94135   5.236   5.619   2.910  0.3789 -0.8417  0.3429
  683MOL0     C94136   5.241   5.753   2.979 -0.2046  0.0228 -0.1871
  683MOL0     C94137   5.191   5.745   3.132 -0.9993 -0.0423  0.3646
  683MOL0     C94138   5.255   5.631   3.210 -0.1842  0.2425  0.0418
  683MOL0     C94139   5.214   5.624   3.362 -0.1912  0.0651 -0.0134
  683MOL0     O94140   5.279   5.737   3.444  0.6959  0.3998 -0.6362
  683MOL0     C94141   5.315   5.712   3.577 -0.5202  0.2712  0.1812
  683MOL0     C94142   5.356   5.831   3.649 -0.0208  0.3319 -0.1943
  683MOL0     C94143   5.382   5.826   3.778  0.9344 -0.2543  0.2442
  683MOL0     C94144   5.427   5.949   3.845  0.2059 -1.3869 -0.6159
  683MOL0     C94145   5.348   5.710   3.859  0.4027 -1.0960  0.7682
  683MOL0     C94146   5.368   5.686   4.007 -0.4647  0.0808  0.0284
  683MOL0     O94147   5.260   5.639   4.072 -0.4239  0.1941 -0.3313
  683MOL0     C94148   5.270   5.585   4.198 -0.5777 -0.4371  0.3565
  683MOL0     C94149   5.165   5.614   4.291 -0.5846  0.4417  0.1865
  683MOL0     C94150   5.161   5.559   4.409  0.9688 -0.1173 -0.2686
  683MOL0     C94151   5.262   5.470   4.447  0.0632 -0.2798 -0.3212
  683MOL0     O94152   5.275   5.414   4.579 -0.0799 -0.2685  0.7103
  683MOL0     C94153   5.187   5.463   4.685  0.4821 -0.4828 -0.4696
  683MOL0     C94154   5.053   5.386   4.710 -0.3590  0.0894  0.5941
  683MOL0     C94155   5.036   5.241   4.677  0.3085  0.4348 -0.1098
  683MOL0     C94156   4.937   5.170   4.762 -0.3984  0.4234 -0.2745
  683MOL0     C94157   4.898   5.039   4.702  0.5416  0.2153  0.4993
  683MOL0     C94158   4.821   4.937   4.794 -0.3204  0.0773  0.9648
  683MOL0     C94159   4.772   4.819   4.701  0.5287 -0.7690 -0.4165
  683MOL0     C94160   4.701   4.703   4.778 -1.1200 -0.2147 -0.9386
  683MOL0    Cl94161   4.526   4.695   4.727 -0.4545  0.7624  0.4531
  683MOL0     C94162   5.365   5.438   4.359 -0.3121  0.3237  0.5099
  683MOL0     C94163   5.375   5.499   4.236 -0.2754 -0.5890  0.5764
  683MOL0     O94164   5.483   5.709   4.061 -0.0166  0.3211  0.0118
  683MOL0     C94165   5.299   5.596   3.793  0.2104 -0.7569  0.2244
  683MOL0     C94166   5.285   5.603   3.654  0.0936 -0.6263  0.1034
  683MOL0     N94167   5.116   5.567   2.872  1.1316 -0.6264  0.1041
  683MOL0     N94168   5.138   5.459   2.811 -0.3031 -0.8893  0.4263
  683MOL0     C94169   6.117   5.339   2.325  0.0694 -0.1291 -1.1057
  683MOL0     C94170   6.197   5.400   2.237  0.0313  0.1791  0.6652
  683MOL0     C94171   6.576   5.561   2.076  0.7313 -0.3750 -0.3538
  683MOL0     C94172   6.707   5.602   2.119  1.5002  0.4350 -0.4395
  683MOL0     C94173   6.794   5.657   2.027 -0.4305 -0.2026  0.4646
  683MOL0     C94174   6.765   5.655   1.887 -0.2046  0.1123  0.4474
  683MOL0     O94175   6.858   5.720   1.806 -0.2558  0.1081  0.5193
  683MOL0     C94176   6.828   5.732   1.668  0.6623 -0.7072 -0.4802
  683MOL0     C94177   6.933   5.816   1.596  0.2418  0.2387  0.5776
  683MOL0     C94178   6.911   5.960   1.646  0.9412 -0.7553 -0.2126
  683MOL0     C94179   7.003   6.063   1.575 -0.2802  0.7682  0.2763
  683MOL0     C94180   6.973   6.198   1.626  0.0581  0.3169  0.1823
  683MOL0     C94181   6.954   6.309   1.672 -0.5680  0.9251  0.2197
  683MOL0     C94182   6.644   5.599   1.848 -0.5478  0.0221  0.8265
  683MOL0     C94183   6.547   5.556   1.945  0.4370 -0.9973  0.9355
  683MOL0     C94184   6.408   5.507   1.893 -0.1601  1.7058  0.2614
  683MOL0     H94185   6.278   5.691   2.409  2.1067 -0.7678  2.3430
  683MOL0     H94186   6.148   5.595   2.564  0.9234  1.4538 -0.8208
  683MOL0     H94187   5.943   5.183   2.627  1.7592  2.7405  0.2984
  683MOL0     H94188   6.015   5.157   2.469 -1.0900  0.0279 -0.7860
  683MOL0     H94189   5.816   5.250   2.353  0.5371  2.7198 -0.3131
  683MOL0     H94190   5.760   5.146   2.474 -0.8073  0.3573 -1.5050
  683MOL0     H94191   5.737   5.343   2.613  3.2565 -0.1119 -0.0401
  683MOL0     H94192   5.772   5.449   2.487 -0.9242  1.0007  0.2696
  683MOL0     H94193   5.566   5.326   2.352 -0.3334 -4.1295  0.7380
  683MOL0     H94194   5.563   5.237   2.495  0.7859 -1.0882 -1.2313
  683MOL0     H94195   5.482   5.527   2.454 -2.6601  0.1139  1.1169
  683MOL0     H94196   5.526   5.477   2.619  0.8774  1.4778 -1.0698
  683MOL0     H94197   5.268   5.459   2.557  0.1282 -1.0250  1.7802
  683MOL0     H94198   5.326   5.349   2.436 -1.0630 -0.0994 -0.3804
  683MOL0     H94199   5.377   5.183   2.620  1.4241  1.9433 -0.7435
  683MOL0     H94200   5.223   5.241   2.623 -0.5159  1.0090 -2.7514
  683MOL0     H94201   5.312   5.219   2.841  1.9422 -0.3955 -0.7887
  683MOL0     H94202   5.448   5.329   2.803  1.1154 -0.6534 -2.4157
  683MOL0     H94203   5.438   5.551   2.902 -1.0059  3.5622  2.0136
  683MOL0     H94204   5.198   5.834   2.919  3.4900  0.9468 -1.8639
  683MOL0     H94205   5.346   5.783   2.993 -1.0076  2.3300  1.6065
  683MOL0     H94206   5.217   5.838   3.185 -0.4630  2.2129 -3.4759
  683MOL0     H94207   5.084   5.723   3.131 -1.1475  0.6288 -1.4088
  683MOL0     H94208   5.218   5.536   3.169  0.1191  0.1080  0.0786
  683MOL0     H94209   5.363   5.629   3.198 -0.3116  2.6286 -2.1009
  683MOL0     H94210   5.106   5.644   3.365  0.0282  1.4226 -0.5067
  683MOL0     H94211   5.253   5.533   3.410 -0.3305  0.9967  1.9624
  683MOL0     H94212   5.359   5.927   3.599  1.3702  0.6829  0.5252
  683MOL0     H94213   5.533   5.928   3.859  0.7873 -0.1185 -2.6833
  683MOL0     H94214   5.379   5.979   3.939  1.4243 -1.7739  0.1499
  683MOL0     H94215   5.426   6.034   3.776 -2.2853 -0.9878 -0.2020
  683MOL0     H94216   5.102   5.693   4.253 -1.7338 -1.0205 -1.0527
  683MOL0     H94217   5.080   5.572   4.479  2.3729 -2.2349  1.9158
  683MOL0     H94218   5.234   5.442   4.782  2.1827 -0.9686 -1.3643
  683MOL0     H94219   5.182   5.572   4.671 -0.6449 -0.2482  1.4446
  683MOL0     H94220   5.022   5.409   4.812 -1.1628  1.3826  0.0880
  683MOL0     H94221   4.976   5.433   4.649  0.1618 -0.5664 -0.6099
  683MOL0     H94222   5.128   5.182   4.687  0.1074  0.4237  2.2102
  683MOL0     H94223   5.012   5.230   4.571 -0.6429 -1.8980  0.2726
  683MOL0     H94224   4.843   5.224   4.775 -1.6418 -1.4407 -1.0281
  683MOL0     H94225   4.989   5.150   4.857  1.5126  3.4728 -0.5383
  683MOL0     H94226   4.831   5.068   4.621  1.5652 -1.2264 -0.9206
  683MOL0     H94227   4.984   4.994   4.652 -0.2645 -1.3257  0.4682
  683MOL0     H94228   4.740   4.998   4.835 -0.6909  2.1732 -2.5271
  683MOL0     H94229   4.887   4.904   4.875 -1.9287 -1.6850  1.6221
  683MOL0     H94230   4.864   4.777   4.659  0.1440  1.8054 -4.4820
  683MOL0     H94231   4.715   4.849   4.612  1.4236 -1.0749 -1.1222
  683MOL0     H94232   4.698   4.722   4.886 -0.1949  4.3158 -1.5250
  683MOL0     H94233   4.763   4.614   4.763 -0.1685  0.5207 -1.4861
  683MOL0     H94234   5.433   5.360   4.392 -1.5197 -1.8597 -1.7879
  683MOL0     H94235   5.456   5.474   4.168  1.8895 -0.4330  2.9218
  683MOL0     H94236   5.279   5.503   3.846  2.3426 -0.0332  2.5130
  683MOL0     H94237   5.241   5.517   3.605  0.0841 -0.4239 -0.2400
  683MOL0     H94238   6.043   5.268   2.290 -3.5875  2.1462  1.3175
  683MOL0     H94239   6.213   5.355   2.140 -4.2104  1.9545 -1.0940
  683MOL0     H94240   6.728   5.595   2.225 -1.7458 -0.6177  0.2751
  683MOL0     H94241   6.888   5.703   2.055  0.5110  1.1573 -4.0933
  683MOL0     H94242   6.840   5.633   1.623  0.9366 -1.8319  1.9110
  683MOL0     H94243   6.726   5.767   1.650 -0.1488 -2.3936  0.5155
  683MOL0     H94244   6.929   5.812   1.487  1.8816 -2.4511  0.5218
  683MOL0     H94245   7.035   5.787   1.626  0.0010  1.6261  2.9854
  683MOL0     H94246   6.808   5.987   1.619  1.7636  1.7362 -1.1502
  683MOL0     H94247   6.920   5.971   1.754  3.0686  4.4878 -0.6488
  683MOL0     H94248   6.990   6.071   1.466  0.6152 -1.5570 -0.0411
  683MOL0     H94249   7.106   6.035   1.596  0.4548  0.4610 -3.1141
  683MOL0     H94250   6.952   6.406   1.716  3.2436  2.0491 -1.6221
  683MOL0     H94251   6.614   5.609   1.744  0.9441  4.0097  0.5976
  683MOL0     H94252   6.384   5.402   1.912  0.2745  1.4058 -0.7879
  683MOL0     H94253   6.330   5.563   1.944  0.7295  0.2550  3.5268
  683MOL0     H94254   6.382   5.533   1.790 -1.6164  0.6944  0.3487
  684MOL0     O94255   7.841   7.860   6.656 -0.0352 -0.0397 -0.5002
  684MOL0     C94256   7.724   7.832   6.625 -0.3720  0.0835 -0.3038
  684MOL0     O94257   7.681   7.796   6.497 -0.8883 -0.1946 -0.4939
  684MOL0     C94258   7.764   7.752   6.396 -0.0738  0.1622 -0.6801
  684MOL0     C94259   7.873   7.666   6.411 -0.6366 -0.1113 -0.2118
  684MOL0     C94260   7.944   7.623   6.299  0.3041 -0.0774 -0.5332
  684MOL0     C94261   7.899   7.652   6.164 -0.7307 -0.6532 -0.5792
  684MOL0     O94262   7.953   7.600   6.059 -0.0919 -1.2197  0.0094
  684MOL0     C94263   7.976   7.459   6.055 -0.7737 -0.0591  0.2097
  684MOL0     C94264   8.109   7.435   5.982 -0.0479 -0.2411  0.1010
  684MOL0     C94265   8.238   7.503   6.040  1.3336 -0.9003  0.4173
  684MOL0     C94266   8.356   7.452   5.958 -0.2633  0.1026  0.8287
  684MOL0     C94267   8.492   7.493   6.013 -0.2974  0.7834 -0.4302
  684MOL0     C94268   8.519   7.639   6.025 -0.5788  0.0666 -1.1458
  684MOL0     C94269   8.651   7.668   6.105  0.5515 -0.1385  0.2642
  684MOL0     C94270   8.646   7.667   6.247  0.0607  0.9908 -0.9202
  684MOL0     N94271   8.770   7.705   6.318  0.0549  0.0684 -0.3036
  684MOL0     C94272   8.894   7.653   6.296  0.3976  0.5583 -0.0694
  684MOL0     C94273   8.974   7.704   6.396  0.5200 -0.5194 -0.0189
  684MOL0     C94274   9.115   7.686   6.425  0.4477  0.3435  0.8256
  684MOL0     C94275   9.130   7.543   6.478 -0.4850  0.0333  0.6575
  684MOL0     C94276   9.095   7.522   6.631  0.7290  0.8260  0.5273
  684MOL0     C94277   9.150   7.387   6.662  0.4969  0.1222 -0.3997
  684MOL0     O94278   9.285   7.365   6.627 -0.9025 -0.3565 -0.2383
  684MOL0     C94279   9.358   7.262   6.690  0.3987 -0.1583 -0.5323
  684MOL0     C94280   9.459   7.285   6.777 -0.7244  0.7481 -0.0026
  684MOL0     C94281   9.530   7.189   6.843 -0.1557  0.0362  0.3406
  684MOL0     C94282   9.631   7.238   6.942 -0.3007 -0.6189  0.1147
  684MOL0     C94283   9.494   7.055   6.829 -0.1368 -0.3657  0.4470
  684MOL0     C94284   9.565   6.944   6.897 -0.2015 -0.3287  0.2964
  684MOL0     O94285   9.490   6.824   6.909 -0.1259  0.1079  0.7025
  684MOL0     C94286   9.559   6.721   6.952 -0.4245 -0.0116 -0.2208
  684MOL0     C94287   9.577   6.714   7.091 -0.6041 -0.0815 -0.3852
  684MOL0     C94288   9.670   6.613   7.140 -0.1163  0.3322 -0.0453
  684MOL0     C94289   9.737   6.530   7.050  0.7469  0.6681  0.4701
  684MOL0     O94290   9.812   6.422   7.081  0.2300  0.2853 -0.2202
  684MOL0     C94291   9.806   6.376   7.212  0.9578  0.1658 -0.5454
  684MOL0     C94292   9.898   6.251   7.206  0.3141  0.9871 -0.2481
  684MOL0     C94293   9.870   6.132   7.118 -0.2652 -0.2874  0.1479
  684MOL0     C94294   9.717   6.119   7.089  0.7033 -0.0966  0.5379
  684MOL0     C94295   9.691   5.987   7.020 -1.1673 -0.2095  0.7755
  684MOL0     C94296   9.550   5.946   6.983  0.6704  1.0757  0.6509
  684MOL0     C94297   9.438   5.962   7.084  0.6979  0.0533 -0.5087
  684MOL0     C94298   9.455   5.864   7.205  0.9532 -0.3734  0.1945
  684MOL0    Cl94299   9.491   5.688   7.196 -0.4119  0.1922 -0.6090
  684MOL0     C94300   9.700   6.529   6.915  0.5070  0.7003  0.3323
  684MOL0     C94301   9.629   6.634   6.868  0.1726 -0.4132 -0.2225
  684MOL0     O94302   9.677   6.962   6.940  0.3322  0.2060  0.4040
  684MOL0     C94303   9.395   7.028   6.737  1.0805 -0.0890 -0.3316
  684MOL0     C94304   9.321   7.125   6.666 -0.5238 -0.4062  0.3301
  684MOL0     N94305   8.900   7.795   6.467  0.1433 -0.2258 -0.2853
  684MOL0     N94306   8.781   7.786   6.423  0.6286  0.5968 -0.5526
  684MOL0     C94307   7.789   7.742   6.152 -0.0632  0.7098 -0.1695
  684MOL0     C94308   7.718   7.782   6.263  0.6071  0.1707  1.1805
  684MOL0     C94309   7.619   7.819   6.734  0.1308 -0.6819 -0.6319
  684MOL0     C94310   7.650   7.867   6.862  0.0470  0.1283  0.2934
  684MOL0     C94311   7.573   7.836   6.973  0.0305  0.1085  0.2850
  684MOL0     C94312   7.468   7.747   6.962 -0.2778  0.3070 -0.3752
  684MOL0     O94313   7.396   7.720   7.066 -0.1591  0.4341  0.4250
  684MOL0     C94314   7.292   7.808   7.100 -0.7188  0.1123  0.2837
  684MOL0     C94315   7.210   7.744   7.205  0.6747  0.3620 -0.1958
  684MOL0     C94316   7.066   7.784   7.212 -0.2061 -0.7373 -0.3826
  684MOL0     C94317   6.994   7.678   7.306 -0.1106 -0.1043 -0.9012
  684MOL0     C94318   7.031   7.685   7.446 -0.6570 -0.3899  0.0254
  684MOL0     C94319   7.074   7.696   7.560 -0.0458  0.2290 -0.1945
  684MOL0     C94320   7.427   7.713   6.836 -0.5799  0.1869  0.0480
  684MOL0     C94321   7.502   7.741   6.724 -0.1466  0.6078  0.1116
  684MOL0     C94322   7.447   7.680   6.591 -0.2262 -0.0870 -0.0448
  684MOL0     H94323   7.904   7.640   6.512 -0.0522  0.4723 -0.2273
  684MOL0     H94324   8.029   7.557   6.313 -0.5003 -1.5365 -2.1680
  684MOL0     H94325   7.901   7.408   5.994 -0.6951 -0.2019  0.2317
  684MOL0     H94326   7.979   7.411   6.154  3.7236  1.3488  0.9791
  684MOL0     H94327   8.125   7.327   5.976  3.1282  0.1134  0.6355
  684MOL0     H94328   8.111   7.468   5.878 -2.7922 -0.1667 -0.0052
  684MOL0     H94329   8.246   7.611   6.022 -1.1156 -0.6501  0.4818
  684MOL0     H94330   8.240   7.481   6.147 -1.4794  1.4417  1.0613
  684MOL0     H94331   8.364   7.345   5.941 -0.0890  0.5901 -3.3063
  684MOL0     H94332   8.343   7.488   5.855  4.0881  1.1718  0.4620
  684MOL0     H94333   8.566   7.452   5.944 -0.9876  0.8384 -1.2246
  684MOL0     H94334   8.503   7.443   6.110 -0.2330  0.5566 -0.5540
  684MOL0     H94335   8.511   7.699   5.934 -1.5480  1.5248 -0.1552
  684MOL0     H94336   8.440   7.680   6.089  1.8204 -1.8798  3.6022
  684MOL0     H94337   8.687   7.767   6.077  0.5757  0.7867  3.2525
  684MOL0     H94338   8.719   7.589   6.071  1.6599  0.9143  0.0000
  684MOL0     H94339   8.552   7.708   6.286 -1.6906 -2.6919 -0.8672
  684MOL0     H94340   8.627   7.564   6.278 -2.1946  1.0956 -1.7071
  684MOL0     H94341   8.913   7.587   6.212  0.6818  2.5236 -1.6337
  684MOL0     H94342   9.148   7.756   6.502  2.5640  1.6392 -1.1301
  684MOL0     H94343   9.168   7.688   6.329  0.6220  0.6536  0.9256
  684MOL0     H94344   9.056   7.489   6.418 -4.2887  3.8046  1.4121
  684MOL0     H94345   9.228   7.501   6.456  0.0775 -0.4900  3.7777
  684MOL0     H94346   9.143   7.606   6.683 -1.9743  1.3574  2.4100
  684MOL0     H94347   8.988   7.532   6.652 -0.5067 -2.2463 -3.1646
  684MOL0     H94348   9.129   7.368   6.767 -3.5697  2.2847 -0.6008
  684MOL0     H94349   9.089   7.309   6.616  1.0868  0.5752 -2.0335
  684MOL0     H94350   9.494   7.387   6.789 -1.3811  0.7831  2.0344
  684MOL0     H94351   9.637   7.344   6.919  3.1169 -0.5479  0.7352
  684MOL0     H94352   9.728   7.189   6.930 -0.4140 -1.8238  3.3071
  684MOL0     H94353   9.591   7.242   7.044 -1.0168 -1.5061 -0.1210
  684MOL0     H94354   9.515   6.781   7.149  1.1989  1.3427 -0.0203
  684MOL0     H94355   9.687   6.610   7.247  0.3968  3.1547  0.0107
  684MOL0     H94356   9.825   6.453   7.287 -1.8737  2.8252 -2.3119
  684MOL0     H94357   9.700   6.353   7.224  0.2538  3.8760  1.8109
  684MOL0     H94358  10.002   6.278   7.186  1.1127 -2.9013 -2.2372
  684MOL0     H94359   9.890   6.223   7.311 -1.0121  1.4615 -0.2055
  684MOL0     H94360   9.903   6.036   7.160 -2.5546 -1.1190  0.2072
  684MOL0     H94361   9.930   6.156   7.030  1.1295 -1.8624  0.6213
  684MOL0     H94362   9.682   6.200   7.024 -0.8155  1.2191  2.8929
  684MOL0     H94363   9.666   6.104   7.184  2.4629 -0.9047  1.4056
  684MOL0     H94364   9.754   5.988   6.930 -0.9702  0.3191  0.9117
  684MOL0     H94365   9.715   5.912   7.095  0.4827  0.6092  1.1224
  684MOL0     H94366   9.561   5.838   6.965  0.1968  0.9205  1.2698
  684MOL0     H94367   9.499   5.991   6.897 -1.5257 -0.8445  0.8585
  684MOL0     H94368   9.334   5.949   7.055 -1.8116  2.7392  5.5994
  684MOL0     H94369   9.428   6.061   7.129 -1.8382 -0.4456  0.1570
  684MOL0     H94370   9.368   5.877   7.271 -0.2261  0.5899 -1.4451
  684MOL0     H94371   9.539   5.909   7.259  0.2917  0.4509  0.5656
  684MOL0     H94372   9.739   6.457   6.843 -0.5715 -0.3700  0.7902
  684MOL0     H94373   9.613   6.641   6.761 -0.9172 -1.3687 -0.1472
  684MOL0     H94374   9.366   6.926   6.717 -2.0060  0.7069 -0.4046
  684MOL0     H94375   9.236   7.091   6.608 -0.9769  2.1557 -0.6780
  684MOL0     H94376   7.744   7.753   6.054  1.9772  1.8787 -1.0274
  684MOL0     H94377   7.624   7.834   6.255  1.0273  1.0610  1.8628
  684MOL0     H94378   7.730   7.939   6.877 -0.6580  1.3808 -1.5678
  684MOL0     H94379   7.607   7.869   7.071  4.1335 -0.8500 -0.6066
  684MOL0     H94380   7.333   7.906   7.127 -1.6849  0.5016  0.3824
  684MOL0     H94381   7.228   7.816   7.011  1.8724 -1.7869 -1.9025
  684MOL0     H94382   7.249   7.753   7.307 -0.0083  1.5624 -0.0138
  684MOL0     H94383   7.217   7.637   7.184  0.8818  0.2739  0.3222
  684MOL0     H94384   7.041   7.877   7.263 -0.7586  0.0543 -2.0302
  684MOL0     H94385   7.016   7.785   7.115  1.1383 -0.3854 -1.1014
  684MOL0     H94386   7.025   7.579   7.271  0.6994  0.4842 -1.9198
  684MOL0     H94387   6.886   7.693   7.306  0.0084  1.1202  0.9185
  684MOL0     H94388   7.106   7.709   7.662  0.0307 -0.2097 -0.1604
  684MOL0     H94389   7.342   7.650   6.813  1.1356 -1.1716 -3.3162
  684MOL0     H94390   7.369   7.605   6.610 -0.1964 -0.5149 -1.4477
  684MOL0     H94391   7.412   7.758   6.523  1.6066  1.6806  0.9316
  684MOL0     H94392   7.527   7.620   6.546 -0.7621 -2.6709  2.1150
  685MOL0     O94393   9.435   6.601   0.488  0.3423  0.0144  0.8167
  685MOL0     C94394   9.414   6.629   0.369 -0.7254  0.3927  0.1805
  685MOL0     O94395   9.502   6.615   0.265  0.2130 -0.2838 -0.5526
  685MOL0     C94396   9.619   6.543   0.284  0.1438  1.0413 -0.3733
  685MOL0     C94397   9.723   6.582   0.371  0.0092 -0.0093  0.0580
  685MOL0     C94398   9.834   6.506   0.390 -0.7450  0.5746 -0.4013
  685MOL0     C94399   9.837   6.380   0.327 -0.3521  0.4065  0.1810
  685MOL0     O94400   9.957   6.300   0.332  0.7796  0.7291  0.0873
  685MOL0     C94401   9.977   6.233   0.458  0.0481  1.0908 -0.2083
  685MOL0     C94402  10.058   6.104   0.456  0.1139 -0.2760  0.2579
  685MOL0     C94403   9.991   5.998   0.357 -0.6802  0.5708  0.3123
  685MOL0     C94404   9.896   5.901   0.423  0.2308 -0.2978  0.4268
  685MOL0     C94405   9.893   5.757   0.369 -0.6063  0.2587  0.6811
  685MOL0     C94406  10.025   5.676   0.348 -0.1164 -0.3799  0.1091
  685MOL0     C94407  10.109   5.663   0.478  1.1643 -0.2305 -0.3344
  685MOL0     C94408  10.218   5.562   0.453 -0.5188 -0.3790 -0.4694
  685MOL0     N94409  10.341   5.607   0.522  0.4032  0.0735 -0.3280
  685MOL0     C94410  10.451   5.663   0.461 -0.1716 -0.4723 -0.0870
  685MOL0     C94411  10.513   5.735   0.551 -0.6425 -0.7674  0.1977
  685MOL0     C94412  10.598   5.856   0.517  0.1994  0.3337 -0.0132
  685MOL0     C94413  10.739   5.805   0.530 -0.0344 -0.4792 -0.2652
  685MOL0     C94414  10.829   5.875   0.435 -0.9496  0.3181 -0.1669
  685MOL0     C94415  10.972   5.824   0.437  0.3699  0.5377 -0.1106
  685MOL0     O94416  10.973   5.714   0.340 -0.2531 -0.3152 -0.4915
  685MOL0     C94417  11.098   5.664   0.323  0.7283  0.0490  0.6441
  685MOL0     C94418  11.210   5.692   0.400 -0.0009  0.4984 -0.0311
  685MOL0     C94419  11.330   5.625   0.378  0.1445 -0.2720  0.6939
  685MOL0     C94420  11.435   5.649   0.482 -0.4150  0.2524 -0.5868
  685MOL0     C94421  11.344   5.539   0.256  0.9016 -0.0623 -0.2541
  685MOL0     C94422  11.474   5.484   0.213 -0.1386  0.2484  1.1819
  685MOL0     O94423  11.478   5.430   0.085  0.2384  0.3943  0.2248
  685MOL0     C94424  11.588   5.369   0.038 -0.0059 -0.3362  0.3065
  685MOL0     C94425  11.707   5.457   0.023 -0.2392  0.4973  0.1232
  685MOL0     C94426  11.822   5.402  -0.039 -0.3305 -0.3865 -0.2298
  685MOL0     C94427  11.832   5.267  -0.077  0.4010 -0.6944  0.1366
  685MOL0     O94428  11.931   5.214  -0.156 -0.1135 -0.2262 -0.2171
  685MOL0     C94429  12.050   5.290  -0.192 -0.0907 -0.1190 -1.0346
  685MOL0     C94430  12.138   5.184  -0.260 -1.6957 -0.1500 -1.4497
  685MOL0     C94431  12.083   5.114  -0.379  0.2843 -0.6313 -0.0471
  685MOL0     C94432  12.172   5.013  -0.442 -0.2725 -0.4033  0.7543
  685MOL0     C94433  12.117   4.950  -0.573  0.0953 -0.2916 -0.8653
  685MOL0     C94434  11.980   4.882  -0.541 -0.2458  0.1176 -0.0241
  685MOL0     C94435  11.942   4.802  -0.663  0.1331 -0.3167  0.1752
  685MOL0     C94436  11.795   4.763  -0.671  0.4628  1.0732  0.4862
  685MOL0    Cl94437  11.737   4.751  -0.839  0.3484 -0.0636  0.3940
  685MOL0     C94438  11.718   5.193  -0.052 -0.1811 -0.3907 -0.2168
  685MOL0     C94439  11.601   5.237   0.006  0.0190  0.4386 -0.4685
  685MOL0     O94440  11.571   5.491   0.285 -0.2936 -0.0444  0.5370
  685MOL0     C94441  11.230   5.519   0.180  0.9524  0.6738 -0.1838
  685MOL0     C94442  11.112   5.576   0.218  0.4592 -0.0762  0.4989
  685MOL0     N94443  10.468   5.691   0.672  0.6021 -0.2418 -0.2391
  685MOL0     N94444  10.370   5.610   0.657  0.2800 -0.6068  0.3761
  685MOL0     C94445   9.739   6.341   0.232 -0.6289 -1.2618 -0.3903
  685MOL0     C94446   9.632   6.423   0.218 -0.5191 -0.2731  0.4849
  685MOL0     C94447   9.300   6.710   0.337 -0.5813  0.3193 -0.9485
  685MOL0     C94448   9.181   6.684   0.413  0.1667 -0.2740  0.5989
  685MOL0     C94449   9.071   6.758   0.386  0.3583 -1.0698  0.4771
  685MOL0     C94450   9.072   6.869   0.306 -0.3988  0.5116 -1.0281
  685MOL0     O94451   8.955   6.931   0.285  0.1643  0.2783  0.3794
  685MOL0     C94452   8.946   7.035   0.187 -0.1513  0.1711  0.7711
  685MOL0     C94453   8.821   7.104   0.170 -0.2159  0.2716 -0.0611
  685MOL0     C94454   8.716   6.999   0.121  0.1776 -0.3629  0.3143
  685MOL0     C94455   8.594   7.078   0.078 -0.2922  1.1277  0.5352
  685MOL0     C94456   8.484   6.988   0.055  0.4319 -0.4345 -0.8569
  685MOL0     C94457   8.388   6.916   0.056 -0.7185 -0.5481  0.7516
  685MOL0     C94458   9.191   6.904   0.242 -0.2474  1.0203 -0.3063
  685MOL0     C94459   9.308   6.831   0.262 -0.6253 -0.0046  0.6383
  685MOL0     C94460   9.443   6.876   0.209 -0.1761 -0.0752 -0.0294
  685MOL0     H94461   9.712   6.682   0.411  2.9178 -0.1927  1.5511
  685MOL0     H94462   9.918   6.537   0.452  0.3287  0.7305 -1.8953
  685MOL0     H94463   9.873   6.221   0.491 -1.5914  3.6447 -3.8701
  685MOL0     H94464  10.032   6.302   0.523  3.0457 -1.6056  0.4123
  685MOL0     H94465  10.158   6.126   0.417 -0.3456  0.9012 -0.3102
  685MOL0     H94466  10.070   6.056   0.554 -0.5757  0.1820  0.5774
  685MOL0     H94467   9.946   6.053   0.274 -0.5531 -0.5893 -0.5529
  685MOL0     H94468  10.080   5.943   0.323 -1.1493  1.0656 -1.8807
  685MOL0     H94469   9.929   5.901   0.527 -0.6857  1.9195  0.7904
  685MOL0     H94470   9.796   5.946   0.424  0.4701  0.3828 -1.5382
  685MOL0     H94471   9.833   5.748   0.278  0.0719 -2.9504  0.4519
  685MOL0     H94472   9.828   5.717   0.447  0.8675  0.1855  1.9193
  685MOL0     H94473  10.004   5.578   0.305 -0.1977 -1.1439  1.8128
  685MOL0     H94474  10.081   5.730   0.270  1.4568  1.1766  2.1922
  685MOL0     H94475  10.046   5.606   0.547  0.7365 -0.1456 -0.6573
  685MOL0     H94476  10.156   5.752   0.522  0.4828 -1.7684  4.0297
  685MOL0     H94477  10.193   5.460   0.485 -1.3282  0.1470  0.6422
  685MOL0     H94478  10.241   5.559   0.346  1.0418  2.8724 -0.3273
  685MOL0     H94479  10.465   5.679   0.354  0.2238 -0.8276 -0.0898
  685MOL0     H94480  10.575   5.929   0.596  1.1859 -2.7719  3.4190
  685MOL0     H94481  10.567   5.890   0.417  1.1818 -1.2610 -0.8918
  685MOL0     H94482  10.784   5.809   0.630 -0.2466  2.0847 -0.2200
  685MOL0     H94483  10.733   5.704   0.488  1.8035  0.9002 -4.2876
  685MOL0     H94484  10.781   5.857   0.339  0.9348 -0.6744 -0.9620
  685MOL0     H94485  10.840   5.982   0.458 -2.2187  1.0566 -2.6666
  685MOL0     H94486  11.025   5.914   0.406  1.2632 -0.3677 -1.3130
  685MOL0     H94487  10.997   5.783   0.535  1.3076  0.2742 -0.4476
  685MOL0     H94488  11.208   5.762   0.483  0.9123 -4.0160  4.2787
  685MOL0     H94489  11.528   5.681   0.435 -0.0906 -0.3908 -0.4058
  685MOL0     H94490  11.457   5.546   0.514  0.4001 -0.2532 -2.6296
  685MOL0     H94491  11.419   5.715   0.567  0.9932 -1.4457  1.0912
  685MOL0     H94492  11.695   5.561   0.051 -1.0078  0.5250 -0.2657
  685MOL0     H94493  11.899   5.470  -0.071 -2.1028  1.8226 -0.0475
  685MOL0     H94494  12.021   5.366  -0.265 -0.4769 -1.4240 -2.2903
  685MOL0     H94495  12.094   5.335  -0.102 -1.8169  0.3607 -0.3889
  685MOL0     H94496  12.229   5.230  -0.300  0.3518 -0.2093  2.6360
  685MOL0     H94497  12.163   5.103  -0.190  2.8062 -0.5820 -3.1698
  685MOL0     H94498  12.050   5.199  -0.440  1.3077 -0.1047  0.1142
  685MOL0     H94499  11.995   5.058  -0.347  0.7028 -0.8693  0.6964
  685MOL0     H94500  12.187   4.940  -0.362  0.2387  0.4065  1.4112
  685MOL0     H94501  12.273   5.053  -0.459 -0.2140 -0.7620  0.2457
  685MOL0     H94502  12.110   5.027  -0.651  2.5382  2.1015  1.0756
  685MOL0     H94503  12.187   4.874  -0.608 -0.4975 -0.1094 -2.5330
  685MOL0     H94504  11.913   4.958  -0.499  1.8761  0.3155  3.3939
  685MOL0     H94505  11.990   4.797  -0.471  1.3753 -0.9275 -1.4535
  685MOL0     H94506  12.004   4.713  -0.676  1.4583 -0.0121  3.4061
  685MOL0     H94507  11.969   4.859  -0.753  1.1713 -2.5396 -0.9987
  685MOL0     H94508  11.727   4.829  -0.616 -2.8975 -1.2798 -0.5431
  685MOL0     H94509  11.776   4.665  -0.625  1.1461  0.3125 -0.7964
  685MOL0     H94510  11.715   5.087  -0.077 -1.0188 -0.0412 -1.7407
  685MOL0     H94511  11.511   5.177   0.015  0.4378 -0.0292  0.8879
  685MOL0     H94512  11.222   5.456   0.092 -2.3471  1.8318 -0.8379
  685MOL0     H94513  11.021   5.565   0.160  2.5568  0.3681 -3.2096
  685MOL0     H94514   9.751   6.240   0.193 -0.7079 -1.4111 -0.0395
  685MOL0     H94515   9.560   6.393   0.142 -0.7138 -2.1196  1.3373
  685MOL0     H94516   9.171   6.595   0.475 -0.3695 -1.0952 -0.6334
  685MOL0     H94517   8.973   6.725   0.420  0.3741 -2.0828 -0.3904
  685MOL0     H94518   9.014   7.115   0.218 -0.7230  1.3496 -0.8685
  685MOL0     H94519   8.968   6.995   0.088  0.9732  0.7821  0.7511
  685MOL0     H94520   8.841   7.189   0.105 -2.2623 -0.3521 -1.6108
  685MOL0     H94521   8.788   7.134   0.270  0.5963 -2.4908  1.1247
  685MOL0     H94522   8.763   6.948   0.036 -0.0699 -0.3686  0.1791
  685MOL0     H94523   8.710   6.928   0.204  0.4736 -0.1382  0.5296
  685MOL0     H94524   8.613   7.133  -0.015  2.8424 -1.0903 -0.3231
  685MOL0     H94525   8.555   7.141   0.157 -2.7897  1.8610 -1.1671
  685MOL0     H94526   8.309   6.845   0.048  0.6908 -2.1919  0.9908
  685MOL0     H94527   9.190   6.996   0.185 -0.7417  1.4808  0.4290
  685MOL0     H94528   9.435   6.967   0.148  2.6018 -0.6066 -1.3393
  685MOL0     H94529   9.510   6.888   0.294 -0.9842 -1.9354  0.9114
  685MOL0     H94530   9.486   6.803   0.140 -2.7678 -0.2554 -1.6048
  686MOL0     O94531  10.864   3.218   0.193 -1.0495 -0.1523  0.3451
  686MOL0     C94532  10.921   3.225   0.306  0.0865  0.2188  0.3664
  686MOL0     O94533  10.959   3.345   0.361  0.4437  0.0466 -0.0388
  686MOL0     C94534  10.966   3.460   0.283  1.1773 -0.2230 -0.4155
  686MOL0     C94535  11.026   3.484   0.163  0.5997 -0.5887  0.2016
  686MOL0     C94536  11.014   3.605   0.095  0.4550 -0.7915 -0.1758
  686MOL0     C94537  10.936   3.720   0.143 -1.0468  0.7163 -0.1421
  686MOL0     O94538  10.947   3.841   0.079  0.1455  0.3125 -0.0298
  686MOL0     C94539  10.861   3.947   0.132 -0.3200  0.5316 -0.5311
  686MOL0     C94540  10.889   4.093   0.084 -0.2230  0.7427 -0.0573
  686MOL0     C94541  10.878   4.109  -0.065 -0.4920 -0.1787  0.1326
  686MOL0     C94542  10.964   4.220  -0.115 -0.1169  0.8192 -0.2129
  686MOL0     C94543  10.937   4.249  -0.266 -0.1450  0.1469 -0.3054
  686MOL0     C94544  10.809   4.334  -0.285  0.2941 -0.6292  0.8253
  686MOL0     C94545  10.774   4.362  -0.438  0.4695  0.4454 -0.6518
  686MOL0     C94546  10.623   4.391  -0.441 -0.0778  0.3270  0.3148
  686MOL0     N94547  10.547   4.278  -0.378 -0.3441  0.1506 -0.5494
  686MOL0     C94548  10.571   4.142  -0.369 -0.3078  0.1960  0.1067
  686MOL0     C94549  10.448   4.092  -0.348 -0.1586 -0.2101 -0.6678
  686MOL0     C94550  10.433   3.942  -0.328  0.0032 -0.2529  0.4114
  686MOL0     C94551  10.549   3.871  -0.246  0.1488 -0.9166 -0.1587
  686MOL0     C94552  10.560   3.925  -0.098 -0.5439 -0.7405  0.4134
  686MOL0     C94553  10.430   3.903  -0.017 -0.5327 -0.1035 -0.5989
  686MOL0     O94554  10.459   3.925   0.124  0.0793 -0.1118 -0.3205
  686MOL0     C94555  10.356   3.981   0.198  0.1537  0.4173  0.7738
  686MOL0     C94556  10.229   3.980   0.156 -0.1246 -0.6568 -0.5117
  686MOL0     C94557  10.133   4.045   0.245 -0.6176  0.9842  0.1155
  686MOL0     C94558  10.002   4.069   0.171 -0.4585 -0.3248 -0.7243
  686MOL0     C94559  10.168   4.090   0.374 -0.5336 -0.2423 -0.0613
  686MOL0     C94560  10.068   4.155   0.465  0.6368 -0.5228  0.2698
  686MOL0     O94561   9.953   4.084   0.493 -0.2150  0.5504  0.1364
  686MOL0     C94562   9.846   4.147   0.542  0.1899  0.3345  0.6696
  686MOL0     C94563   9.813   4.275   0.493 -0.2027  0.2323  0.5952
  686MOL0     C94564   9.725   4.361   0.561  0.9385  0.4233 -0.4565
  686MOL0     C94565   9.656   4.309   0.670 -0.0403  0.5286  1.4174
  686MOL0     O94566   9.572   4.393   0.736 -0.5025 -0.2408 -0.4462
  686MOL0     C94567   9.526   4.381   0.869 -0.5515 -0.8029  0.8631
  686MOL0     C94568   9.461   4.521   0.908  0.0774 -0.0327 -0.3083
  686MOL0     C94569   9.371   4.518   1.033 -1.3770  0.1124 -1.8296
  686MOL0     C94570   9.414   4.433   1.151  0.5350 -0.5455 -0.2673
  686MOL0     C94571   9.532   4.504   1.219 -0.0651  0.5476  0.1724
  686MOL0     C94572   9.498   4.648   1.271  0.0684  0.4611 -0.7414
  686MOL0     C94573   9.540   4.650   1.425  0.6868  0.1792 -0.0725
  686MOL0     C94574   9.569   4.791   1.472 -0.5545 -0.2706 -0.2446
  686MOL0    Cl94575   9.745   4.831   1.449  0.2005  0.2291  0.0257
  686MOL0     C94576   9.690   4.173   0.709 -0.1393 -0.2948 -0.4414
  686MOL0     C94577   9.779   4.093   0.649  0.3929  0.2197  0.5671
  686MOL0     O94578  10.094   4.268   0.509  0.2228  0.1327 -0.4212
  686MOL0     C94579  10.305   4.097   0.408  1.3388 -0.5020  0.5553
  686MOL0     C94580  10.392   4.046   0.318 -0.4093  0.0623 -0.3503
  686MOL0     N94581  10.351   4.187  -0.333 -1.1016  0.2808  1.3458
  686MOL0     N94582  10.414   4.299  -0.354  0.0647  0.0945 -0.0863
  686MOL0     C94583  10.864   3.691   0.265 -0.3504  1.2717 -0.2414
  686MOL0     C94584  10.880   3.563   0.326 -0.4027 -0.0575 -1.0313
  686MOL0     C94585  10.946   3.104   0.382  0.4635  0.3580  0.8235
  686MOL0     C94586  11.037   3.106   0.488 -0.2178  0.2653 -0.0372
  686MOL0     C94587  11.097   2.991   0.548  0.4956  1.2022 -0.2197
  686MOL0     C94588  11.034   2.866   0.531  0.2730  0.8789  0.9646
  686MOL0     O94589  11.072   2.771   0.616 -0.7176 -0.3756 -0.0431
  686MOL0     C94590  11.040   2.627   0.596  0.5624 -0.2984  0.5668
  686MOL0     C94591  10.901   2.592   0.655 -0.2610 -0.2170  0.1318
  686MOL0     C94592  10.894   2.438   0.672 -0.4043 -0.3906 -0.6286
  686MOL0     C94593  10.772   2.408   0.768 -0.8029 -0.0586  0.6744
  686MOL0     C94594  10.785   2.273   0.819 -0.6472 -0.2969  1.2718
  686MOL0     C94595  10.804   2.165   0.869 -1.3341 -0.4257 -0.3492
  686MOL0     C94596  10.941   2.864   0.427 -0.0146  0.4056  0.6055
  686MOL0     C94597  10.898   2.974   0.352  0.3303 -0.9577 -0.3009
  686MOL0     C94598  10.792   2.952   0.251  0.4029  0.3701  0.1593
  686MOL0     H94599  11.087   3.401   0.127 -0.1603 -0.9902 -0.1879
  686MOL0     H94600  11.056   3.645   0.004 -2.9157  1.8400 -0.7698
  686MOL0     H94601  10.872   3.950   0.241 -0.1222 -1.9532 -0.4284
  686MOL0     H94602  10.759   3.926   0.100 -0.8980  0.2971  1.3736
  686MOL0     H94603  10.816   4.163   0.125  0.1136  1.5054 -0.7238
  686MOL0     H94604  10.993   4.116   0.108 -0.3350  1.1273  0.0595
  686MOL0     H94605  10.910   4.016  -0.112 -5.5722 -2.2865  0.1912
  686MOL0     H94606  10.773   4.136  -0.083 -1.0794 -1.1116  1.9474
  686MOL0     H94607  10.936   4.311  -0.061 -2.7050  0.9018 -1.5445
  686MOL0     H94608  11.068   4.191  -0.094 -0.9920 -2.6098 -0.0647
  686MOL0     H94609  10.926   4.154  -0.321  1.4023  0.0299 -0.4684
  686MOL0     H94610  11.026   4.293  -0.313 -0.6857  1.3148 -0.2486
  686MOL0     H94611  10.722   4.305  -0.225 -0.8909  0.9762 -0.0238
  686MOL0     H94612  10.828   4.438  -0.255 -0.6139 -0.0903 -0.3671
  686MOL0     H94613  10.790   4.279  -0.508 -1.9279 -1.5832  1.0227
  686MOL0     H94614  10.831   4.443  -0.483 -0.8203  0.1279 -3.0207
  686MOL0     H94615  10.583   4.485  -0.401 -1.1574 -0.1155  0.3307
  686MOL0     H94616  10.603   4.392  -0.549  3.6998  0.1084 -0.4991
  686MOL0     H94617  10.664   4.089  -0.385 -1.3967 -2.2303  1.3326
  686MOL0     H94618  10.433   3.893  -0.426  0.5856 -0.5694  0.5657
  686MOL0     H94619  10.342   3.913  -0.276  0.1502 -0.5915  0.4840
  686MOL0     H94620  10.524   3.764  -0.250 -2.1935 -0.5237  1.9214
  686MOL0     H94621  10.645   3.883  -0.297  0.4355  0.1392  0.6000
  686MOL0     H94622  10.645   3.862  -0.070 -2.2298 -3.6328 -0.5392
  686MOL0     H94623  10.588   4.031  -0.089 -2.4806 -0.3814  3.3387
  686MOL0     H94624  10.357   3.979  -0.048 -0.0992  0.2288 -0.8058
  686MOL0     H94625  10.394   3.800  -0.024  0.7697 -0.7669  1.5041
  686MOL0     H94626  10.189   3.948   0.060 -1.3113  0.3908 -0.3945
  686MOL0     H94627   9.929   4.098   0.247  1.7939  1.4856  0.8854
  686MOL0     H94628   9.970   3.980   0.116 -1.6137 -2.5330  3.1137
  686MOL0     H94629  10.015   4.155   0.104 -0.9557 -0.5546 -1.1215
  686MOL0     H94630   9.861   4.295   0.397 -1.7261  0.1501 -0.2086
  686MOL0     H94631   9.710   4.465   0.535  0.8981 -0.0577 -2.5259
  686MOL0     H94632   9.442   4.312   0.872 -0.3752 -1.0144  3.5022
  686MOL0     H94633   9.605   4.348   0.937  2.1996  2.1244 -0.6276
  686MOL0     H94634   9.546   4.588   0.918 -1.3643  2.2655 -2.4459
  686MOL0     H94635   9.409   4.568   0.824  0.4570 -0.4176 -0.7653
  686MOL0     H94636   9.275   4.474   1.005 -0.9367 -1.7470 -0.5395
  686MOL0     H94637   9.347   4.622   1.058  1.9111  1.1561 -2.5882
  686MOL0     H94638   9.446   4.331   1.129  1.9024 -0.2542  0.2447
  686MOL0     H94639   9.333   4.413   1.220  2.3629 -0.7010  1.9429
  686MOL0     H94640   9.556   4.437   1.303  0.8070  2.4328  1.5077
  686MOL0     H94641   9.621   4.513   1.157  1.7033 -0.0513  2.4629
  686MOL0     H94642   9.391   4.672   1.271 -0.5189 -1.8656 -0.1129
  686MOL0     H94643   9.543   4.725   1.208 -2.9987  2.1861 -1.0294
  686MOL0     H94644   9.635   4.597   1.435  1.0820  0.9515  0.3252
  686MOL0     H94645   9.458   4.601   1.479 -1.6762  0.0951 -3.4135
  686MOL0     H94646   9.530   4.808   1.572  1.7864 -1.8597  1.0354
  686MOL0     H94647   9.526   4.855   1.394 -5.3754 -0.3191  2.0514
  686MOL0     H94648   9.647   4.145   0.805 -2.5399  4.8796  0.3478
  686MOL0     H94649   9.810   4.003   0.701  0.8676  1.0931  1.8578
  686MOL0     H94650  10.355   4.152   0.487 -1.0807 -0.3894  2.1053
  686MOL0     H94651  10.495   4.042   0.351 -0.6034  1.8318  0.6206
  686MOL0     H94652  10.805   3.764   0.320 -1.1195  2.0441 -1.9975
  686MOL0     H94653  10.826   3.549   0.420  1.8011  5.7576  1.5660
  686MOL0     H94654  11.071   3.202   0.526 -1.0275  0.4690  0.1892
  686MOL0     H94655  11.177   2.999   0.622 -0.5256  0.8048  0.9680
  686MOL0     H94656  11.037   2.589   0.494  2.4714  0.0080  0.3567
  686MOL0     H94657  11.108   2.563   0.653 -0.9317 -2.8517 -0.3301
  686MOL0     H94658  10.823   2.626   0.586  1.7038  0.8051 -1.7259
  686MOL0     H94659  10.897   2.636   0.754 -1.3222 -3.8508  1.8921
  686MOL0     H94660  10.870   2.392   0.576 -0.8914 -4.4791  1.2144
  686MOL0     H94661  10.987   2.394   0.710 -1.0360 -0.7281  0.5936
  686MOL0     H94662  10.680   2.407   0.709  0.7628 -2.7172 -2.0446
  686MOL0     H94663  10.761   2.476   0.852 -2.2199  0.8638 -0.2068
  686MOL0     H94664  10.815   2.066   0.907 -1.3531 -0.0628  0.6314
  686MOL0     H94665  10.904   2.771   0.385  3.7263 -1.7060  1.5732
  686MOL0     H94666  10.833   2.960   0.150  1.6666 -2.7571  0.3045
  686MOL0     H94667  10.750   2.851   0.248 -3.3246  1.8040 -1.7380
  686MOL0     H94668  10.705   3.017   0.256 -0.7817 -1.2606  2.6535
  687MOL0     O94669  10.937   8.911   9.315 -0.2440 -0.0776 -0.0926
  687MOL0     C94670  10.898   8.807   9.371  0.8902  1.1199 -0.7920
  687MOL0     O94671  10.931   8.765   9.498  0.2815 -0.3002 -0.3447
  687MOL0     C94672  10.993   8.858   9.574  0.2656 -0.2039 -0.3381
  687MOL0     C94673  11.119   8.844   9.623 -0.3581  0.9383 -0.4493
  687MOL0     C94674  11.188   8.943   9.687 -0.9081 -0.1468 -0.1499
  687MOL0     C94675  11.139   9.074   9.704  1.3149  0.4590 -0.1396
  687MOL0     O94676  11.212   9.172   9.747 -0.0099 -0.3466 -0.3106
  687MOL0     C94677  11.161   9.299   9.773 -0.6691  0.3170 -0.1319
  687MOL0     C94678  11.278   9.396   9.809  0.3596 -0.9866 -1.1241
  687MOL0     C94679  11.348   9.330   9.935  1.1734  0.1558  0.4571
  687MOL0     C94680  11.435   9.433  10.017 -1.1087 -0.1453 -0.0681
  687MOL0     C94681  11.523   9.355  10.123  0.2968 -0.1253 -0.6339
  687MOL0     C94682  11.629   9.448  10.192  0.0665  0.3257  0.0991
  687MOL0     C94683  11.660   9.403  10.336  0.6999 -0.0278 -0.0494
  687MOL0     C94684  11.751   9.501  10.413 -0.0287  0.5121  0.1567
  687MOL0     N94685  11.683   9.621  10.475  1.1925  0.1318 -0.8449
  687MOL0     C94686  11.648   9.739  10.413  0.1942  0.3140 -0.3942
  687MOL0     C94687  11.602   9.813  10.516 -0.2397 -0.1006 -0.6957
  687MOL0     C94688  11.530   9.945  10.508 -0.5297 -0.0844 -0.7221
  687MOL0     C94689  11.394   9.909  10.447  0.1887 -1.1965 -0.2572
  687MOL0     C94690  11.283   9.958  10.530  0.3092 -1.0675  0.5182
  687MOL0     C94691  11.278  10.110  10.521  1.1442  0.0678  0.5006
  687MOL0     O94692  11.395  10.182  10.485 -0.5616  0.1424  0.4362
  687MOL0     C94693  11.379  10.314  10.454  0.2825  0.7433 -0.7004
  687MOL0     C94694  11.497  10.368  10.417 -0.3011 -0.7363  0.1145
  687MOL0     C94695  11.509  10.505  10.388  0.1378 -0.3656  0.2264
  687MOL0     C94696  11.644  10.563  10.369  0.1461 -0.0452  0.1955
  687MOL0     C94697  11.386  10.584  10.414 -1.1315 -0.8559 -0.2820
  687MOL0     C94698  11.359  10.738  10.380 -0.0734  1.5003  0.1566
  687MOL0     O94699  11.448  10.786  10.298  0.1238  0.6704 -0.7754
  687MOL0     C94700  11.453  10.917  10.243 -0.3063 -0.8095 -0.4723
  687MOL0     C94701  11.568  10.954  10.176  0.8289  0.8035  0.0922
  687MOL0     C94702  11.580  11.065  10.094  0.4584 -0.0981  0.6651
  687MOL0     C94703  11.475  11.159  10.091 -0.1668  0.8815  0.5035
  687MOL0     O94704  11.495  11.265  10.005  0.4951  0.9853 -0.7375
  687MOL0     C94705  11.435  11.389  10.046  0.0206  0.4214  1.5442
  687MOL0     C94706  11.485  11.494   9.940 -0.6802 -0.1890  0.3994
  687MOL0     C94707  11.411  11.477   9.809 -0.7373  0.0454  0.0128
  687MOL0     C94708  11.262  11.525   9.811 -0.2188 -0.5239  0.5022
  687MOL0     C94709  11.208  11.539   9.669  0.7040 -0.4680  0.1649
  687MOL0     C94710  11.208  11.410   9.584  0.1727  0.5063 -0.4733
  687MOL0     C94711  11.110  11.423   9.462 -0.7902 -0.7744  0.2928
  687MOL0     C94712  11.159  11.335   9.343 -0.0169 -0.4302  0.0874
  687MOL0    Cl94713  11.165  11.167   9.391 -0.0971  0.6083  0.5120
  687MOL0     C94714  11.359  11.135  10.168 -0.4339  1.5775 -0.5307
  687MOL0     C94715  11.357  11.017  10.242  0.0572 -0.1121 -0.0320
  687MOL0     O94716  11.264  10.800  10.427 -0.1081  1.0012 -0.2177
  687MOL0     C94717  11.268  10.522  10.448 -0.1533  0.3327  0.9419
  687MOL0     C94718  11.263  10.388  10.478  0.9485  0.5303  0.9509
  687MOL0     N94719  11.634   9.759  10.635 -0.6698  0.8929 -0.2558
  687MOL0     N94720  11.688   9.641  10.612 -0.0085  0.2384  0.8159
  687MOL0     C94721  10.998   9.083   9.678 -1.3607 -0.0740 -0.5193
  687MOL0     C94722  10.923   8.975   9.615 -0.3181  0.0181 -0.4745
  687MOL0     C94723  10.837   8.700   9.290  0.5156  0.1595  0.4762
  687MOL0     C94724  10.700   8.671   9.298  0.3489  0.0778 -0.1384
  687MOL0     C94725  10.643   8.583   9.211 -0.3986 -0.4706  0.4471
  687MOL0     C94726  10.721   8.497   9.126 -0.8284 -0.4247  0.6244
  687MOL0     O94727  10.677   8.399   9.044 -0.8181 -0.2918  0.2470
  687MOL0     C94728  10.532   8.370   9.026 -0.1991 -0.1404  0.2590
  687MOL0     C94729  10.522   8.233   9.098 -0.2978 -0.6880 -1.2949
  687MOL0     C94730  10.395   8.173   9.040  0.1512  0.1893  0.7560
  687MOL0     C94731  10.372   8.039   9.123 -0.7702 -0.0163  0.3381
  687MOL0     C94732  10.485   7.948   9.125 -0.6528  0.7898 -0.6828
  687MOL0     C94733  10.588   7.878   9.107 -0.0285 -1.0351 -0.7399
  687MOL0     C94734  10.854   8.527   9.125 -0.7625 -0.3828 -0.3217
  687MOL0     C94735  10.920   8.628   9.196  0.3146 -0.6507  0.1849
  687MOL0     C94736  11.065   8.643   9.175  0.6538 -0.5929 -0.2546
  687MOL0     H94737  11.167   8.750   9.599  0.3025  1.8227 -2.8494
  687MOL0     H94738  11.285   8.937   9.736 -2.0684 -0.0097  2.3337
  687MOL0     H94739  11.087   9.303   9.853 -0.7434 -0.8307 -0.1217
  687MOL0     H94740  11.130   9.344   9.678  3.0360  2.0889 -0.6813
  687MOL0     H94741  11.346   9.406   9.724 -1.3183 -1.5110 -2.5904
  687MOL0     H94742  11.228   9.488   9.838 -1.9072 -2.5651  0.3764
  687MOL0     H94743  11.270   9.273   9.987 -2.4487  3.0322 -1.3938
  687MOL0     H94744  11.415   9.247   9.910 -3.2126 -4.9470  3.3532
  687MOL0     H94745  11.493   9.491   9.945  1.1749 -4.1814 -1.8042
  687MOL0     H94746  11.374   9.503  10.076  0.3725 -1.3691  3.0973
  687MOL0     H94747  11.575   9.271  10.076  1.3570  0.2375 -0.1412
  687MOL0     H94748  11.451   9.313  10.194  0.5670 -0.4032 -0.5161
  687MOL0     H94749  11.724   9.462  10.138  0.9164 -0.4153  1.3445
  687MOL0     H94750  11.582   9.546  10.205 -0.7009  0.5964 -3.6286
  687MOL0     H94751  11.696   9.300  10.348  0.4214 -0.1784 -0.4731
  687MOL0     H94752  11.562   9.394  10.383 -0.6599  0.7751 -2.5444
  687MOL0     H94753  11.792   9.456  10.504  2.1787  2.7493  0.3799
  687MOL0     H94754  11.838   9.518  10.349 -2.5740  0.3137 -3.6731
  687MOL0     H94755  11.650   9.773  10.310 -0.4931  2.8998  0.3770
  687MOL0     H94756  11.592  10.013  10.450  2.3559 -0.9134  1.1544
  687MOL0     H94757  11.527   9.994  10.606 -2.0608  1.5663 -1.5541
  687MOL0     H94758  11.389   9.958  10.349 -0.9267  1.1092  0.8727
  687MOL0     H94759  11.392   9.802  10.424 -2.1706 -1.3462  0.4471
  687MOL0     H94760  11.188   9.910  10.506 -1.0662  0.9093  1.6808
  687MOL0     H94761  11.307   9.930  10.633  0.2296 -0.4284  0.7146
  687MOL0     H94762  11.202  10.137  10.447 -1.0509 -1.0671  2.2415
  687MOL0     H94763  11.232  10.141  10.615  1.2638 -4.1765  2.1483
  687MOL0     H94764  11.580  10.299  10.407 -0.5319 -1.1575  1.0504
  687MOL0     H94765  11.721  10.487  10.353 -2.7003 -3.7591  2.3306
  687MOL0     H94766  11.673  10.617  10.460  1.6264 -2.4468  1.2404
  687MOL0     H94767  11.646  10.634  10.286  2.8075  1.1846  1.1753
  687MOL0     H94768  11.651  10.884  10.179  1.2731  1.3036 -0.4239
  687MOL0     H94769  11.671  11.089  10.042 -0.3414  0.7914 -0.3640
  687MOL0     H94770  11.326  11.377  10.046  0.1345 -1.5975 -1.1011
  687MOL0     H94771  11.476  11.418  10.144  4.6493  1.2744 -0.3793
  687MOL0     H94772  11.471  11.595   9.979  1.9730 -0.0307  1.1162
  687MOL0     H94773  11.593  11.487   9.925 -1.0796 -1.0735 -2.8444
  687MOL0     H94774  11.415  11.368   9.798  2.6378 -0.5250  4.1540
  687MOL0     H94775  11.469  11.518   9.727  3.5721 -1.4142  2.0253
  687MOL0     H94776  11.254  11.625   9.854  1.8017 -0.7608  1.5408
  687MOL0     H94777  11.202  11.454   9.868  1.2526 -0.9967  1.5309
  687MOL0     H94778  11.106  11.578   9.674  0.4048 -1.0860 -0.8259
  687MOL0     H94779  11.263  11.616   9.615  0.6679 -0.2768  0.4020
  687MOL0     H94780  11.164  11.332   9.647  0.5558  0.1518 -0.6396
  687MOL0     H94781  11.313  11.394   9.558  0.8279  2.9826  0.3866
  687MOL0     H94782  11.108  11.527   9.428  1.0923  0.1602  2.7158
  687MOL0     H94783  11.004  11.407   9.482 -1.4381 -0.2274 -2.3383
  687MOL0     H94784  11.266  11.351   9.325  0.2851 -4.2915 -2.7677
  687MOL0     H94785  11.100  11.361   9.255 -0.4001  1.1031  0.7740
  687MOL0     H94786  11.272  11.199  10.155 -0.1236  1.7904 -1.6772
  687MOL0     H94787  11.263  10.997  10.293  0.5399 -0.8353  0.5868
  687MOL0     H94788  11.172  10.573  10.442 -1.3508 -1.9401 -1.6085
  687MOL0     H94789  11.172  10.346  10.521  0.5664  1.0296  0.6512
  687MOL0     H94790  10.945   9.172   9.712 -0.0737  0.0194  1.3870
  687MOL0     H94791  10.818   8.971   9.587 -0.0150 -0.8606 -1.5550
  687MOL0     H94792  10.628   8.730   9.353 -0.2570 -2.3567  1.8477
  687MOL0     H94793  10.536   8.570   9.206 -0.3959 -0.4232 -3.3584
  687MOL0     H94794  10.468   8.447   9.070 -0.9198 -1.4123  1.5441
  687MOL0     H94795  10.508   8.361   8.920 -0.7905 -1.0189  0.4595
  687MOL0     H94796  10.523   8.246   9.207 -2.9535  0.7713 -1.3844
  687MOL0     H94797  10.605   8.165   9.074 -0.9746 -2.0528  0.0204
  687MOL0     H94798  10.310   8.237   9.064 -1.4570 -0.8430 -1.7342
  687MOL0     H94799  10.398   8.168   8.931  3.2601  0.6413  0.7258
  687MOL0     H94800  10.293   7.985   9.069 -1.0269 -0.8344  1.5011
  687MOL0     H94801  10.345   8.049   9.229 -1.9118  0.6567 -0.0006
  687MOL0     H94802  10.674   7.818   9.085  1.9043  1.7174 -1.1221
  687MOL0     H94803  10.917   8.473   9.056  0.1531 -1.7515  1.4980
  687MOL0     H94804  11.068   8.737   9.119 -1.3320 -1.0578 -1.2372
  687MOL0     H94805  11.124   8.641   9.267  0.1409 -0.3974  0.0858
  687MOL0     H94806  11.097   8.557   9.115  3.6743  0.0538  0.2647
  688MOL0     O94807   3.910   5.994   7.939  0.5219 -0.5555  0.2430
  688MOL0     C94808   3.984   5.953   8.025  0.0521  0.2303  1.1152
  688MOL0     O94809   3.954   5.957   8.162 -0.3551 -0.8436  0.7880
  688MOL0     C94810   3.871   6.059   8.208  0.3387  0.1588  0.3324
  688MOL0     C94811   3.814   6.015   8.327 -0.1084  0.1492  0.4529
  688MOL0     C94812   3.720   6.091   8.392  0.2075  0.5304  1.0228
  688MOL0     C94813   3.689   6.223   8.345 -0.4678 -0.8664 -0.2123
  688MOL0     O94814   3.588   6.284   8.413  0.6574 -0.2470 -0.6038
  688MOL0     C94815   3.460   6.257   8.356  0.1264  0.3808  0.2755
  688MOL0     C94816   3.345   6.288   8.456  0.1745 -0.0122 -0.0955
  688MOL0     C94817   3.368   6.189   8.566 -0.1729 -0.2983  0.5048
  688MOL0     C94818   3.243   6.196   8.663  0.4031  0.1377  0.5705
  688MOL0     C94819   3.270   6.109   8.789 -0.5753 -0.3027  0.2483
  688MOL0     C94820   3.161   5.999   8.801  0.2212  0.0531  1.0261
  688MOL0     C94821   3.131   5.905   8.691  0.6861  0.6142  0.3941
  688MOL0     C94822   2.996   5.839   8.704 -0.3413  0.0011 -0.6560
  688MOL0     N94823   2.875   5.917   8.696  0.2053 -0.3472  0.1833
  688MOL0     C94824   2.796   5.974   8.793  0.8324  0.7641 -0.2455
  688MOL0     C94825   2.720   6.063   8.724  0.1042 -0.1082 -0.3491
  688MOL0     C94826   2.611   6.135   8.781 -1.2672 -0.2481  0.1099
  688MOL0     C94827   2.486   6.054   8.772  0.4733  0.0880  0.9759
  688MOL0     C94828   2.363   6.123   8.830  0.0718 -0.2234  0.1761
  688MOL0     C94829   2.238   6.027   8.827 -0.1858 -0.3780  0.0919
  688MOL0     O94830   2.202   6.024   8.684  0.1470 -0.0888  0.1847
  688MOL0     C94831   2.083   5.954   8.649 -0.1175 -0.1764 -0.7437
  688MOL0     C94832   1.987   5.919   8.739  0.4904 -0.4869 -1.1695
  688MOL0     C94833   1.872   5.846   8.689  0.5198 -0.0568 -0.4934
  688MOL0     C94834   1.769   5.794   8.782  0.1452 -0.5359 -0.1334
  688MOL0     C94835   1.861   5.808   8.553  0.4600 -0.4576  0.0280
  688MOL0     C94836   1.750   5.723   8.497 -0.2549 -0.0730 -0.3362
  688MOL0     O94837   1.630   5.763   8.541 -0.2100 -0.1604 -0.4403
  688MOL0     C94838   1.506   5.705   8.500 -1.2429 -0.3448  0.4095
  688MOL0     C94839   1.392   5.695   8.588 -0.0823  0.6538 -0.4345
  688MOL0     C94840   1.272   5.639   8.551  0.1366  0.4012 -0.3238
  688MOL0     C94841   1.259   5.591   8.424  1.3708  1.1894  0.8333
  688MOL0     O94842   1.142   5.518   8.395  1.2781 -0.8699  0.7091
  688MOL0     C94843   1.152   5.378   8.411 -0.0727  0.5596  0.7163
  688MOL0     C94844   1.099   5.317   8.281  1.0025  0.6622  0.6853
  688MOL0     C94845   1.121   5.168   8.251  0.1165 -0.5219 -0.0779
  688MOL0     C94846   1.047   5.137   8.131  1.0214  0.0419 -0.5262
  688MOL0     C94847   1.053   4.990   8.106  0.0676  0.6368 -0.1790
  688MOL0     C94848   1.195   4.936   8.048 -0.0956 -0.2658  1.2195
  688MOL0     C94849   1.177   4.797   7.974 -0.2861 -0.0225 -0.2757
  688MOL0     C94850   1.305   4.774   7.893  0.3656 -0.1343 -0.2248
  688MOL0    Cl94851   1.315   4.890   7.746 -0.1148  0.2143 -0.2515
  688MOL0     C94852   1.358   5.611   8.328 -0.0774  0.4269  0.0463
  688MOL0     C94853   1.484   5.669   8.366 -0.5877 -0.6815 -0.0276
  688MOL0     O94854   1.779   5.620   8.440 -0.0655 -0.2771  0.4066
  688MOL0     C94855   1.967   5.840   8.465 -0.2041  0.0912  0.1393
  688MOL0     C94856   2.080   5.904   8.518 -0.8014  0.0759  0.3257
  688MOL0     N94857   2.738   6.057   8.589 -0.2819 -0.3080  0.1575
  688MOL0     N94858   2.837   5.975   8.575 -0.2185  0.3336 -0.5718
  688MOL0     C94859   3.755   6.268   8.237 -0.0165  0.7117  0.7321
  688MOL0     C94860   3.842   6.185   8.160  0.0047 -0.2886  0.2913
  688MOL0     C94861   4.103   5.874   7.985 -0.0415  0.0134 -0.7673
  688MOL0     C94862   4.230   5.920   8.013  0.5659  0.5668 -0.1671
  688MOL0     C94863   4.345   5.851   7.977 -0.4672  0.0512  0.2168
  688MOL0     C94864   4.338   5.723   7.914 -0.3457 -0.2046  0.3408
  688MOL0     O94865   4.439   5.646   7.866 -0.3573 -0.0241  0.3176
  688MOL0     C94866   4.569   5.709   7.851  0.0871 -0.0643 -0.5209
  688MOL0     C94867   4.688   5.623   7.832  0.4186  0.1821 -1.1614
  688MOL0     C94868   4.814   5.707   7.810  1.1592  1.1443  0.0929
  688MOL0     C94869   4.857   5.793   7.925 -0.7844 -0.3294  0.0236
  688MOL0     C94870   4.979   5.857   7.890 -0.4471 -0.0624 -0.5805
  688MOL0     C94871   5.091   5.906   7.859  0.1890  0.0358  0.2760
  688MOL0     C94872   4.207   5.667   7.900 -0.4348  0.5416  0.2662
  688MOL0     C94873   4.096   5.744   7.933 -0.9585  0.1915 -0.0938
  688MOL0     C94874   3.959   5.676   7.910 -0.2511 -0.2628 -0.2702
  688MOL0     H94875   3.832   5.919   8.374 -0.0954  1.2591  2.8517
  688MOL0     H94876   3.657   6.051   8.471 -2.0347  2.1907  0.1783
  688MOL0     H94877   3.448   6.160   8.307 -1.3549  0.0206  1.3011
  688MOL0     H94878   3.448   6.325   8.271 -1.0614  1.4891  1.2904
  688MOL0     H94879   3.361   6.387   8.501  1.5579 -0.0454 -0.4667
  688MOL0     H94880   3.249   6.283   8.403  1.3186  1.1073 -2.4322
  688MOL0     H94881   3.359   6.085   8.533 -1.5951  1.0901 -4.3236
  688MOL0     H94882   3.464   6.211   8.613  0.5710  0.6122 -1.3483
  688MOL0     H94883   3.223   6.300   8.692  0.2545  0.4758 -0.6594
  688MOL0     H94884   3.147   6.172   8.615  1.0160 -2.6585  0.6207
  688MOL0     H94885   3.256   6.180   8.871 -1.1876  0.5953 -0.6274
  688MOL0     H94886   3.367   6.059   8.787  0.1546  0.8262  3.0019
  688MOL0     H94887   3.186   5.946   8.893  2.6161 -0.8609 -0.0840
  688MOL0     H94888   3.064   6.044   8.822 -0.2479 -1.2697  1.7713
  688MOL0     H94889   3.213   5.832   8.698 -0.9191 -1.2724  0.4040
  688MOL0     H94890   3.139   5.950   8.592 -0.4614  0.7890  0.3705
  688MOL0     H94891   2.983   5.779   8.614  1.7773 -1.6940  0.0710
  688MOL0     H94892   2.992   5.774   8.792  0.0899  1.1515  0.2411
  688MOL0     H94893   2.798   5.954   8.900 -0.6019 -2.6369 -0.7296
  688MOL0     H94894   2.602   6.223   8.717 -1.1617  0.0525  0.5074
  688MOL0     H94895   2.631   6.159   8.886 -0.8820 -4.2593  1.1252
  688MOL0     H94896   2.461   6.015   8.673  1.6688 -1.2892  1.1719
  688MOL0     H94897   2.509   5.965   8.832  2.4199  0.3176  0.6345
  688MOL0     H94898   2.395   6.134   8.934  1.4467 -2.0042  0.0005
  688MOL0     H94899   2.347   6.221   8.786  1.3983  1.5887  3.3771
  688MOL0     H94900   2.266   5.929   8.867 -1.3208 -0.1818  1.4845
  688MOL0     H94901   2.164   6.064   8.900  0.7441  0.0286  0.8580
  688MOL0     H94902   1.980   5.963   8.838 -0.4605  2.8140 -2.5629
  688MOL0     H94903   1.730   5.692   8.766  0.3861 -1.0278  2.0636
  688MOL0     H94904   1.680   5.857   8.789  0.0474 -0.6610 -0.2536
  688MOL0     H94905   1.819   5.777   8.878 -0.1331  0.2112  0.1496
  688MOL0     H94906   1.410   5.725   8.691  3.1269  0.0729 -0.7104
  688MOL0     H94907   1.198   5.612   8.626 -2.0554  1.2290 -2.0904
  688MOL0     H94908   1.255   5.344   8.422 -0.0074  0.9210  1.2199
  688MOL0     H94909   1.101   5.352   8.504 -3.3660  0.7663 -0.8927
  688MOL0     H94910   0.994   5.346   8.279  0.6799 -0.4789 -0.2439
  688MOL0     H94911   1.135   5.378   8.197 -1.3819 -0.2865 -1.1281
  688MOL0     H94912   1.071   5.102   8.323 -0.5508 -0.2748 -0.3074
  688MOL0     H94913   1.228   5.159   8.231 -0.2496 -0.4093 -2.3360
  688MOL0     H94914   1.090   5.191   8.045  0.7827  1.9317  0.4955
  688MOL0     H94915   0.946   5.178   8.140  0.8626 -0.2687 -0.8496
  688MOL0     H94916   1.028   4.936   8.197  0.7405 -0.7883 -0.8081
  688MOL0     H94917   0.981   4.959   8.029  0.6715  0.0337 -0.5128
  688MOL0     H94918   1.258   4.911   8.134 -2.1495 -1.0033  2.5716
  688MOL0     H94919   1.252   5.010   7.989  1.7422 -2.0803  0.5760
  688MOL0     H94920   1.090   4.811   7.909  1.1212  2.1152 -1.8276
  688MOL0     H94921   1.170   4.713   8.044  1.4885 -2.0800 -2.3951
  688MOL0     H94922   1.308   4.671   7.856 -0.7688 -0.7605  1.3136
  688MOL0     H94923   1.396   4.797   7.950 -0.2511  0.0067  0.7183
  688MOL0     H94924   1.342   5.581   8.225 -0.0331  0.7524 -0.0552
  688MOL0     H94925   1.561   5.679   8.290 -1.4084 -2.0579 -1.0867
  688MOL0     H94926   1.966   5.803   8.363  1.7544  0.6104 -0.1047
  688MOL0     H94927   2.162   5.923   8.449 -0.6550 -0.0384  0.4679
  688MOL0     H94928   3.726   6.366   8.200  0.1638 -0.1563 -1.9452
  688MOL0     H94929   3.900   6.217   8.073  0.9652 -3.7380 -0.4952
  688MOL0     H94930   4.229   6.010   8.074 -1.9428 -0.4341  1.4226
  688MOL0     H94931   4.445   5.882   8.006  0.2459 -1.7950 -0.1364
  688MOL0     H94932   4.555   5.783   7.771 -2.1556  0.6136  0.4084
  688MOL0     H94933   4.584   5.757   7.948 -0.1114 -0.1916 -0.4264
  688MOL0     H94934   4.673   5.565   7.740  0.8785 -1.8095 -0.0332
  688MOL0     H94935   4.709   5.545   7.906 -3.0434 -0.3838 -0.6230
  688MOL0     H94936   4.900   5.641   7.798  0.0700 -0.6017  1.4096
  688MOL0     H94937   4.803   5.771   7.722  0.5028  1.4828  0.4153
  688MOL0     H94938   4.870   5.732   8.015 -0.9987 -6.8593 -3.7714
  688MOL0     H94939   4.783   5.873   7.938 -0.0734  0.1224  1.5080
  688MOL0     H94940   5.188   5.942   7.834 -0.1770 -0.3586 -1.8481
  688MOL0     H94941   4.206   5.565   7.863  3.7038 -0.4207  2.2388
  688MOL0     H94942   3.965   5.571   7.881  0.5507  0.5404 -3.4444
  688MOL0     H94943   3.899   5.692   8.000 -0.4677  2.6339 -0.8199
  688MOL0     H94944   3.902   5.713   7.824 -0.8691 -1.2982 -0.3127
  689MOL0     O94945   5.151   6.843   0.580  0.7957  0.4499 -0.6593
  689MOL0     C94946   5.107   6.919   0.667  0.7926 -0.1728  0.4216
  689MOL0     O94947   5.112   6.905   0.806  0.2553  0.5318 -0.2210
  689MOL0     C94948   5.174   6.788   0.856 -0.5986  0.6232  0.5969
  689MOL0     C94949   5.100   6.692   0.923 -0.0752 -0.1091  0.8638
  689MOL0     C94950   5.161   6.569   0.971 -0.4756  1.3113 -0.8863
  689MOL0     C94951   5.301   6.543   0.945  0.3753 -0.4235 -0.4562
  689MOL0     O94952   5.350   6.429   0.990 -0.2718  0.6962 -1.1040
  689MOL0     C94953   5.459   6.360   0.929 -0.1888 -0.2531  0.2336
  689MOL0     C94954   5.442   6.205   0.910 -0.4702  0.0054  0.8537
  689MOL0     C94955   5.542   6.128   0.829  0.3059 -0.0714  0.2012
  689MOL0     C94956   5.535   6.172   0.684  0.0594 -0.0240  0.4583
  689MOL0     C94957   5.413   6.101   0.609  0.3183  0.5273 -1.1409
  689MOL0     C94958   5.295   6.191   0.582 -1.6929 -0.5517  0.8746
  689MOL0     C94959   5.179   6.124   0.507 -0.3732  0.2019 -1.0393
  689MOL0     C94960   5.056   6.217   0.476  0.6354 -0.3972 -0.3039
  689MOL0     N94961   4.962   6.157   0.381 -0.0170  0.5860 -1.1871
  689MOL0     C94962   4.955   6.163   0.247 -1.0153  0.0092  0.3505
  689MOL0     C94963   4.850   6.090   0.211  1.6866 -0.5312 -0.2695
  689MOL0     C94964   4.773   6.067   0.082  0.0222  0.9190  0.1210
  689MOL0     C94965   4.786   6.166  -0.025  0.1855 -0.1079 -0.2500
  689MOL0     C94966   4.726   6.301   0.012  0.6885 -0.3009 -0.5513
  689MOL0     C94967   4.578   6.310  -0.017 -0.0687  0.6333 -0.3088
  689MOL0     O94968   4.517   6.427   0.034  0.1531  0.0632 -0.0983
  689MOL0     C94969   4.379   6.438   0.029  0.0050 -0.4087  0.9679
  689MOL0     C94970   4.315   6.569   0.046  0.4792 -0.1532 -1.1930
  689MOL0     C94971   4.180   6.582   0.055 -0.1153  0.7817 -0.1540
  689MOL0     C94972   4.110   6.711   0.089 -0.0637  0.4767  0.8126
  689MOL0     C94973   4.106   6.467   0.053  0.0782 -0.0393 -0.5004
  689MOL0     C94974   3.954   6.481   0.066  0.7314 -0.4745  0.4976
  689MOL0     O94975   3.890   6.444  -0.053 -0.0904 -0.3638  0.2566
  689MOL0     C94976   3.755   6.410  -0.073 -0.8714 -0.1524 -0.3793
  689MOL0     C94977   3.658   6.394   0.030 -0.2695  0.5833  0.4635
  689MOL0     C94978   3.532   6.351   0.002  0.8655 -0.1162  0.0657
  689MOL0     C94979   3.486   6.333  -0.134 -0.3572  0.3194 -0.5651
  689MOL0     O94980   3.357   6.312  -0.159 -0.0911  0.4687  0.4333
  689MOL0     C94981   3.301   6.393  -0.267  0.3579 -0.5825 -0.4231
  689MOL0     C94982   3.152   6.359  -0.273 -1.1958  0.2121 -0.0687
  689MOL0     C94983   3.089   6.405  -0.132  0.2906  0.6216  0.3871
  689MOL0     C94984   2.942   6.438  -0.126  1.0701 -0.6822  0.4320
  689MOL0     C94985   2.902   6.441   0.016  0.4015  0.5718 -0.3088
  689MOL0     C94986   2.759   6.475   0.027 -0.1730 -0.1490  1.0441
  689MOL0     C94987   2.710   6.455   0.169  0.0460 -0.5280 -0.1508
  689MOL0     C94988   2.704   6.325   0.242  0.2552  0.8604  0.5685
  689MOL0    Cl94989   2.623   6.211   0.136 -0.1697 -0.0312 -0.1915
  689MOL0     C94990   3.583   6.349  -0.231 -0.2749  0.1998 -0.9767
  689MOL0     C94991   3.717   6.393  -0.205 -0.1733  0.3988  0.0001
  689MOL0     O94992   3.900   6.502   0.174  0.2275 -0.0158 -0.7718
  689MOL0     C94993   4.162   6.347   0.024 -0.6635  0.8887  0.5732
  689MOL0     C94994   4.301   6.331   0.010  0.1350  1.2353  0.3299
  689MOL0     N94995   4.817   6.008   0.316  0.2400  0.8260  0.0213
  689MOL0     N94996   4.867   6.064   0.422 -0.5537  0.4558 -0.2438
  689MOL0     C94997   5.379   6.648   0.881 -0.5472  0.1228 -0.1911
  689MOL0     C94998   5.312   6.771   0.839 -0.3425  0.0495  0.0820
  689MOL0     C94999   5.043   7.043   0.611 -0.7007  0.1577  1.6211
  689MOL0     C95000   4.992   7.026   0.482 -0.0623  0.5295 -0.2269
  689MOL0     C95001   4.940   7.141   0.421  0.9757  0.3284 -0.2668
  689MOL0     C95002   4.924   7.269   0.488  0.5939  0.3773  0.1255
  689MOL0     O95003   4.882   7.383   0.425 -0.6459 -0.7816 -0.4665
  689MOL0     C95004   4.847   7.396   0.285  1.0107  0.0563 -0.4655
  689MOL0     C95005   4.965   7.400   0.180  1.2219  0.2502 -1.0328
  689MOL0     C95006   4.899   7.393   0.037 -0.5960  0.5504 -0.7214
  689MOL0     C95007   5.011   7.385  -0.074 -0.1294 -0.4638 -0.0623
  689MOL0     C95008   4.983   7.303  -0.191 -0.1721 -0.8144 -0.4772
  689MOL0     C95009   4.947   7.245  -0.291  1.1027 -0.6177  0.3450
  689MOL0     C95010   4.974   7.277   0.611  0.2904 -0.1631 -1.0566
  689MOL0     C95011   5.036   7.166   0.679  1.4237  0.1702  0.8078
  689MOL0     C95012   5.075   7.191   0.825  0.7940 -0.3607 -1.1960
  689MOL0     H95013   4.991   6.693   0.929 -0.1480 -1.4560  0.1583
  689MOL0     H95014   5.103   6.492   1.020  0.1345  1.5986  0.3288
  689MOL0     H95015   5.544   6.367   0.997 -0.7723  0.3388  0.9211
  689MOL0     H95016   5.484   6.397   0.829 -0.2760 -2.2415 -0.5741
  689MOL0     H95017   5.446   6.175   1.015  1.1596  2.7019  1.6526
  689MOL0     H95018   5.340   6.192   0.872 -0.9222  1.5181  1.5045
  689MOL0     H95019   5.638   6.156   0.874 -0.1438 -1.1428  1.9286
  689MOL0     H95020   5.529   6.020   0.830 -0.3690  0.0114  1.2412
  689MOL0     H95021   5.535   6.279   0.664 -0.1642 -0.0423  0.3570
  689MOL0     H95022   5.627   6.141   0.633 -0.4163 -0.1061 -0.3765
  689MOL0     H95023   5.377   6.019   0.672  0.3840  1.5004  0.2236
  689MOL0     H95024   5.447   6.062   0.513  0.8607  2.3826 -1.7490
  689MOL0     H95025   5.245   6.233   0.669 -0.2825  0.3316  1.2803
  689MOL0     H95026   5.329   6.269   0.513 -1.2957 -0.6655  0.9387
  689MOL0     H95027   5.146   6.034   0.560  1.0004  1.8633  2.9875
  689MOL0     H95028   5.223   6.095   0.411 -0.2018  1.3275 -1.3153
  689MOL0     H95029   5.007   6.228   0.573  0.7824  1.9041 -0.4441
  689MOL0     H95030   5.074   6.319   0.441 -1.0620 -0.3598 -1.1676
  689MOL0     H95031   5.007   6.230   0.179  3.1625  0.0927  3.2488
  689MOL0     H95032   4.670   6.055   0.118 -0.2483  0.3767 -0.7912
  689MOL0     H95033   4.796   5.969   0.038  0.4300  0.8559  0.4726
  689MOL0     H95034   4.893   6.192  -0.023 -0.1679  1.4168  1.0519
  689MOL0     H95035   4.763   6.120  -0.121  3.2780 -2.1040 -0.1787
  689MOL0     H95036   4.738   6.318   0.120 -2.5797  0.7971 -0.2448
  689MOL0     H95037   4.785   6.378  -0.038  1.0182 -1.1723 -1.5374
  689MOL0     H95038   4.572   6.305  -0.126  3.1747  0.1045 -0.5565
  689MOL0     H95039   4.553   6.213   0.029  3.5593 -1.5426 -2.4170
  689MOL0     H95040   4.372   6.661   0.046 -0.2573  0.3626  0.7925
  689MOL0     H95041   4.021   6.725   0.026 -1.2432  0.3532  2.3688
  689MOL0     H95042   4.173   6.799   0.077  2.2859 -1.2525 -0.4554
  689MOL0     H95043   4.082   6.720   0.194  2.7847  0.9521  1.6167
  689MOL0     H95044   3.691   6.411   0.132 -0.6542  0.9259  0.5311
  689MOL0     H95045   3.458   6.333   0.079 -0.7583  3.0855 -0.6305
  689MOL0     H95046   3.314   6.500  -0.250 -1.8007 -0.5820  1.6723
  689MOL0     H95047   3.337   6.374  -0.369  0.3174  0.4184 -0.6323
  689MOL0     H95048   3.094   6.409  -0.351  0.8383  2.0362 -0.4987
  689MOL0     H95049   3.141   6.251  -0.285 -0.8833 -0.1026  2.0133
  689MOL0     H95050   3.151   6.491  -0.106  2.3429 -0.2464 -1.3350
  689MOL0     H95051   3.108   6.326  -0.058 -0.4373 -1.9478 -2.0068
  689MOL0     H95052   2.879   6.362  -0.174 -1.7512  2.4714 -1.2890
  689MOL0     H95053   2.927   6.535  -0.173  1.6686 -0.5695  0.4675
  689MOL0     H95054   2.921   6.351   0.075  1.6087  2.1746  1.9034
  689MOL0     H95055   2.962   6.525   0.054 -2.1726  1.9749  0.9410
  689MOL0     H95056   2.690   6.423  -0.040  0.3072  0.7318 -0.1760
  689MOL0     H95057   2.773   6.575  -0.015 -0.8129  0.3357  1.9728
  689MOL0     H95058   2.616   6.510   0.175  2.0622  3.0944  2.1290
  689MOL0     H95059   2.780   6.521   0.221 -0.9292  2.6364 -2.5134
  689MOL0     H95060   2.643   6.339   0.332 -2.2514 -0.7174 -0.7731
  689MOL0     H95061   2.801   6.286   0.272  0.3335  2.2334  2.2581
  689MOL0     H95062   3.558   6.347  -0.336 -0.5151  0.3062 -0.9231
  689MOL0     H95063   3.798   6.411  -0.275  0.9608 -0.6183  1.0169
  689MOL0     H95064   4.106   6.253   0.025 -1.6071  1.2347 -3.4617
  689MOL0     H95065   4.331   6.228   0.001 -2.6152  0.1215  2.4229
  689MOL0     H95066   5.483   6.642   0.854 -0.7395  0.4558 -1.0414
  689MOL0     H95067   5.353   6.856   0.784 -4.0530  0.5686 -2.2246
  689MOL0     H95068   4.981   6.932   0.429  0.0178  0.9592 -1.0350
  689MOL0     H95069   4.909   7.137   0.318  0.7728  1.8099 -0.2869
  689MOL0     H95070   4.790   7.306   0.261  1.7409  0.2638 -3.4777
  689MOL0     H95071   4.785   7.484   0.268 -1.3539 -1.5505 -0.5331
  689MOL0     H95072   5.036   7.320   0.203  2.1546  1.4978  0.7194
  689MOL0     H95073   5.018   7.495   0.195 -1.7500  1.6661  2.0170
  689MOL0     H95074   4.833   7.308   0.021 -1.9508  1.1773  1.1589
  689MOL0     H95075   4.843   7.486   0.025  1.9880  3.0716  3.8979
  689MOL0     H95076   5.099   7.355  -0.017 -0.1597 -0.5118 -0.0405
  689MOL0     H95077   5.042   7.482  -0.114  2.1569  0.2973  3.1705
  689MOL0     H95078   4.919   7.188  -0.378 -4.2076 -0.4496  1.6020
  689MOL0     H95079   4.983   7.371   0.666 -2.0177  0.9649 -2.4634
  689MOL0     H95080   5.071   7.294   0.863 -2.4971 -0.6948 -0.3025
  689MOL0     H95081   4.998   7.130   0.874  2.3317 -1.1318  0.3320
  689MOL0     H95082   5.177   7.154   0.833  0.7335 -0.4121 -0.6734
  690MOL0     O95083   9.477   1.008   2.543 -1.5689 -0.4099 -0.5436
  690MOL0     C95084   9.594   1.036   2.519 -0.5980 -0.1518 -0.0082
  690MOL0     O95085   9.682   0.948   2.476 -0.4651  0.7385  0.5450
  690MOL0     C95086   9.652   0.839   2.394 -0.4192  0.5245  0.7356
  690MOL0     C95087   9.746   0.724   2.406  0.0653  1.1008  0.3856
  690MOL0     C95088   9.721   0.610   2.331 -0.4119 -0.4167  0.1910
  690MOL0     C95089   9.618   0.594   2.239 -0.0575 -0.2032  0.1551
  690MOL0     O95090   9.612   0.477   2.172  0.0067  0.0523 -0.3548
  690MOL0     C95091   9.585   0.510   2.032  0.3245 -1.2032  0.0322
  690MOL0     C95092   9.605   0.382   1.948  0.3753  0.1966 -0.6033
  690MOL0     C95093   9.545   0.387   1.807 -0.1505 -0.0833 -0.5366
  690MOL0     C95094   9.514   0.250   1.764  0.4366 -0.9785  0.4326
  690MOL0     C95095   9.446   0.235   1.631 -0.5511 -0.7860 -0.1300
  690MOL0     C95096   9.532   0.275   1.512 -0.1734 -0.0916 -0.6196
  690MOL0     C95097   9.479   0.243   1.383  0.2913 -0.0546  0.1595
  690MOL0     C95098   9.589   0.253   1.280 -0.3690 -0.3454  0.4159
  690MOL0     N95099   9.649   0.388   1.253 -0.2522 -0.1202  0.5471
  690MOL0     C95100   9.589   0.508   1.272 -0.2167  0.7152  1.1365
  690MOL0     C95101   9.686   0.604   1.262  1.3765  0.1451  0.1179
  690MOL0     C95102   9.656   0.751   1.291 -0.0021  0.0895 -0.4038
  690MOL0     C95103   9.773   0.825   1.352 -0.4371 -0.9207  0.5162
  690MOL0     C95104   9.884   0.860   1.239  0.5547 -1.1717  0.2544
  690MOL0     C95105   9.857   0.973   1.141 -0.9615  0.2365  0.5574
  690MOL0     O95106   9.764   0.940   1.043 -0.1572 -0.0714  0.4334
  690MOL0     C95107   9.691   1.041   0.992 -1.3453  0.2792 -0.5382
  690MOL0     C95108   9.758   1.144   0.937  0.5638 -0.3290  0.2145
  690MOL0     C95109   9.687   1.254   0.891 -0.4145  0.3539 -0.4928
  690MOL0     C95110   9.772   1.369   0.842  0.3963  0.2210 -0.4218
  690MOL0     C95111   9.544   1.253   0.890 -0.5815  0.4344 -0.9359
  690MOL0     C95112   9.463   1.357   0.825  0.5664  0.0618  0.5078
  690MOL0     O95113   9.346   1.315   0.782  0.1593  0.2127 -0.2874
  690MOL0     C95114   9.271   1.395   0.696  0.3062 -0.9038 -0.3617
  690MOL0     C95115   9.176   1.489   0.749  0.2170 -0.8675 -0.2394
  690MOL0     C95116   9.102   1.573   0.669 -1.0535 -0.7461  0.8010
  690MOL0     C95117   9.120   1.571   0.528  0.4963  0.1684  0.4805
  690MOL0     O95118   9.059   1.659   0.447 -0.7375  0.4270 -0.1601
  690MOL0     C95119   9.068   1.791   0.476  0.0293 -0.1834 -0.3067
  690MOL0     C95120   9.213   1.847   0.505  0.2758 -0.1325 -0.4663
  690MOL0     C95121   9.283   1.871   0.375  0.1697  0.7514 -0.0369
  690MOL0     C95122   9.362   1.758   0.317 -0.5924 -0.0550 -0.2037
  690MOL0     C95123   9.490   1.799   0.238  0.4969  0.5629  0.0523
  690MOL0     C95124   9.568   1.681   0.173 -0.3158  0.4502  0.0430
  690MOL0     C95125   9.606   1.562   0.254  0.4690 -0.0039  0.9447
  690MOL0     C95126   9.715   1.482   0.183  1.2818  0.1305  0.2980
  690MOL0    Cl95127   9.712   1.495   0.008 -0.0902  0.6489 -0.4518
  690MOL0     C95128   9.198   1.471   0.473 -0.0080 -1.7783 -0.4239
  690MOL0     C95129   9.282   1.391   0.554 -0.1818  0.4045 -0.1613
  690MOL0     O95130   9.508   1.474   0.817 -0.3565  0.6337  0.6904
  690MOL0     C95131   9.477   1.137   0.948 -0.7144 -0.2680 -0.5642
  690MOL0     C95132   9.555   1.036   1.011 -0.4345 -0.2711  0.5873
  690MOL0     N95133   9.810   0.539   1.246  0.3318 -0.0479 -0.5174
  690MOL0     N95134   9.780   0.414   1.246  0.5542  0.1070  0.5934
  690MOL0     C95135   9.522   0.701   2.231 -0.3020 -0.2248 -0.1650
  690MOL0     C95136   9.536   0.822   2.306 -0.1942 -0.7862 -0.3856
  690MOL0     C95137   9.633   1.180   2.543 -0.2701  0.4501  0.0679
  690MOL0     C95138   9.745   1.235   2.465 -0.2177 -0.1909  0.4155
  690MOL0     C95139   9.786   1.367   2.484  0.4161  0.2474 -0.6617
  690MOL0     C95140   9.724   1.436   2.581 -1.1377  0.2319 -0.3890
  690MOL0     O95141   9.765   1.563   2.609  0.1266  0.8563 -0.3907
  690MOL0     C95142   9.688   1.656   2.529  0.8386  0.5970  0.1025
  690MOL0     C95143   9.664   1.788   2.610 -0.4336  1.4143  0.8207
  690MOL0     C95144   9.567   1.756   2.724 -0.1749  0.3481 -0.2756
  690MOL0     C95145   9.661   1.756   2.847  0.3725 -0.2892  0.2129
  690MOL0     C95146   9.596   1.808   2.969  0.1123  0.3444  0.0466
  690MOL0     C95147   9.538   1.856   3.064 -0.7294 -0.2681  0.6703
  690MOL0     C95148   9.619   1.391   2.656 -0.1226 -0.1788 -0.3208
  690MOL0     C95149   9.579   1.265   2.647  0.2253  0.1818  0.4266
  690MOL0     C95150   9.470   1.221   2.749 -0.1374 -0.2854  0.0165
  690MOL0     H95151   9.826   0.734   2.479 -0.2391  1.6574  0.6507
  690MOL0     H95152   9.789   0.526   2.343 -0.7158 -0.7119 -0.1418
  690MOL0     H95153   9.642   0.593   1.989 -1.2176  0.2063  0.5809
  690MOL0     H95154   9.482   0.545   2.024  0.1666 -1.2716  1.5013
  690MOL0     H95155   9.708   0.356   1.922  0.7353  1.9937 -1.1079
  690MOL0     H95156   9.550   0.309   2.009 -0.1263  1.7700  0.9092
  690MOL0     H95157   9.455   0.448   1.803 -0.7675 -0.7810  1.4301
  690MOL0     H95158   9.612   0.438   1.737 -2.6126  1.5330 -1.8270
  690MOL0     H95159   9.604   0.188   1.772  1.3706  0.2246 -0.4483
  690MOL0     H95160   9.454   0.198   1.840  0.3604 -1.2498  0.1886
  690MOL0     H95161   9.352   0.290   1.631 -1.0827 -1.4780 -3.3185
  690MOL0     H95162   9.431   0.132   1.595 -0.2009 -0.4998 -1.1477
  690MOL0     H95163   9.547   0.383   1.511  4.1263 -0.5068 -1.2260
  690MOL0     H95164   9.632   0.232   1.524 -0.4192 -0.4015  0.4346
  690MOL0     H95165   9.401   0.314   1.355  1.6881  2.3137  1.9710
  690MOL0     H95166   9.426   0.148   1.392 -2.8910  1.5846 -0.0359
  690MOL0     H95167   9.669   0.181   1.299  2.2423  1.9750 -1.0152
  690MOL0     H95168   9.527   0.234   1.191  0.3033  1.4811 -0.4960
  690MOL0     H95169   9.483   0.524   1.290 -1.1202 -1.1533 -1.8649
  690MOL0     H95170   9.573   0.758   1.361  0.3815 -0.9781  0.1838
  690MOL0     H95171   9.619   0.798   1.199 -0.2858 -0.3675 -0.5293
  690MOL0     H95172   9.739   0.921   1.392  0.6976 -0.7315  1.0567
  690MOL0     H95173   9.822   0.780   1.439 -1.2294 -1.5239  0.6674
  690MOL0     H95174   9.976   0.879   1.294 -0.1943 -1.3343  1.6055
  690MOL0     H95175   9.899   0.768   1.181  1.8978 -1.0807  0.4232
  690MOL0     H95176   9.828   1.071   1.183  0.0771  2.3297 -3.1662
  690MOL0     H95177   9.948   0.983   1.081 -2.8352  2.0793 -2.2297
  690MOL0     H95178   9.864   1.126   0.929  1.1911  3.2199 -1.7274
  690MOL0     H95179   9.760   1.444   0.920 -0.9595 -2.4500  2.1505
  690MOL0     H95180   9.736   1.418   0.751 -1.5285  0.4352  0.4149
  690MOL0     H95181   9.880   1.350   0.832  0.6006  1.6550 -1.1624
  690MOL0     H95182   9.160   1.486   0.857  0.7016 -2.1889 -0.1759
  690MOL0     H95183   9.029   1.641   0.709 -0.6714 -0.0681  0.3675
  690MOL0     H95184   9.036   1.844   0.386  0.0930 -1.9389 -1.4127
  690MOL0     H95185   8.997   1.809   0.558 -3.3397 -3.2985 -2.2471
  690MOL0     H95186   9.201   1.936   0.567  1.1561 -1.9336  2.5285
  690MOL0     H95187   9.270   1.769   0.556  0.8024 -0.9099 -2.1670
  690MOL0     H95188   9.342   1.963   0.383  1.5536  0.2156 -2.7302
  690MOL0     H95189   9.214   1.905   0.297 -0.3913 -0.2395  0.0141
  690MOL0     H95190   9.294   1.695   0.258 -0.8188 -0.6476  0.6784
  690MOL0     H95191   9.392   1.695   0.401 -0.9334 -1.7805 -1.3173
  690MOL0     H95192   9.458   1.861   0.154  3.4403  0.4752 -1.2788
  690MOL0     H95193   9.556   1.852   0.307 -1.2798  2.4695  0.3606
  690MOL0     H95194   9.667   1.716   0.142 -0.9287  3.1871  0.8502
  690MOL0     H95195   9.512   1.652   0.084  0.5123 -0.9376 -0.0534
  690MOL0     H95196   9.525   1.490   0.268  0.2478  0.1436  0.4320
  690MOL0     H95197   9.640   1.581   0.357  1.8391 -2.9135  1.1470
  690MOL0     H95198   9.715   1.375   0.205  0.3827  0.3994  1.7554
  690MOL0     H95199   9.813   1.518   0.216  0.9005  1.7474 -0.2052
  690MOL0     H95200   9.208   1.470   0.365  1.9525 -1.0002 -0.2952
  690MOL0     H95201   9.358   1.337   0.499  1.4788  2.3687  0.0793
  690MOL0     H95202   9.372   1.146   0.972 -0.3753 -0.0312  0.9331
  690MOL0     H95203   9.513   0.957   1.071  1.0724 -1.5172  0.0827
  690MOL0     H95204   9.441   0.694   2.159  0.2882 -2.5203 -0.6725
  690MOL0     H95205   9.462   0.899   2.284  1.2057  1.0891  1.0993
  690MOL0     H95206   9.784   1.186   2.376 -0.9541  1.2433 -0.7531
  690MOL0     H95207   9.862   1.411   2.420  0.2808  1.1395 -0.2174
  690MOL0     H95208   9.752   1.672   2.442  2.6436  1.2542  1.4826
  690MOL0     H95209   9.596   1.617   2.484  1.5331  1.2102 -1.9595
  690MOL0     H95210   9.612   1.861   2.547  1.3604  1.9762 -0.0791
  690MOL0     H95211   9.759   1.838   2.633  0.7345  0.0740 -0.8374
  690MOL0     H95212   9.489   1.832   2.736  0.7255  1.1537  0.7195
  690MOL0     H95213   9.510   1.663   2.716 -5.0854  2.9629  0.4979
  690MOL0     H95214   9.747   1.824   2.847  1.6300 -1.8152  0.3054
  690MOL0     H95215   9.694   1.653   2.868  1.0984  0.4460  3.1282
  690MOL0     H95216   9.489   1.886   3.154 -1.4563  0.5663  0.0026
  690MOL0     H95217   9.587   1.445   2.745 -1.5390 -1.7614  0.1791
  690MOL0     H95218   9.372   1.205   2.704 -0.8969 -0.8553  1.8176
  690MOL0     H95219   9.494   1.119   2.779  0.4070 -0.5078 -1.0774
  690MOL0     H95220   9.466   1.294   2.830  2.9140  1.0185 -0.8405
  691MOL0     O95221   7.349  11.076  11.200 -0.5364 -0.4238  0.3005
  691MOL0     C95222   7.398  11.120  11.303  0.0710 -0.5745  1.0222
  691MOL0     O95223   7.340  11.102  11.423 -1.1434  0.3642 -0.8485
  691MOL0     C95224   7.231  11.029  11.427  0.4767 -0.3793  0.3671
  691MOL0     C95225   7.225  10.901  11.392  0.1227  0.1169 -0.4127
  691MOL0     C95226   7.107  10.819  11.397 -0.4004  0.2983 -0.0892
  691MOL0     C95227   6.995  10.879  11.452  0.2800 -0.1629  0.2759
  691MOL0     O95228   6.882  10.815  11.480  0.5745 -0.0431 -0.2437
  691MOL0     C95229   6.876  10.750  11.608 -0.2345  0.5878  0.2338
  691MOL0     C95230   6.793  10.825  11.719  0.5314 -0.5613  0.4789
  691MOL0     C95231   6.642  10.824  11.693 -0.5171  0.3248  0.3202
  691MOL0     C95232   6.568  10.703  11.752 -1.1660  0.2101  0.6829
  691MOL0     C95233   6.418  10.682  11.717 -0.8452 -0.4809 -0.3457
  691MOL0     C95234   6.365  10.548  11.771  0.1497  0.0493  0.7081
  691MOL0     C95235   6.210  10.542  11.741 -0.1045 -0.1605  0.2009
  691MOL0     C95236   6.143  10.414  11.777 -0.7028  0.5935 -0.3740
  691MOL0     N95237   5.998  10.415  11.783  0.3066 -0.3819 -0.2755
  691MOL0     C95238   5.935  10.513  11.863  0.4164  0.2448 -0.0795
  691MOL0     C95239   5.819  10.537  11.799 -0.1209  0.1057  0.0350
  691MOL0     C95240   5.706  10.634  11.835  0.3604  0.3419  0.9200
  691MOL0     C95241   5.643  10.604  11.979  0.8247  0.2991 -0.0108
  691MOL0     C95242   5.727  10.662  12.091  0.2627 -0.7258  0.2178
  691MOL0     C95243   5.649  10.653  12.221  0.0809 -0.3473  0.2554
  691MOL0     O95244   5.536  10.740  12.227  0.2023  0.0552  0.2360
  691MOL0     C95245   5.452  10.727  12.335  0.4882  0.1448 -0.4572
  691MOL0     C95246   5.488  10.669  12.457  0.3789 -0.6094  0.9168
  691MOL0     C95247   5.415  10.675  12.570  0.5287  0.5218  0.4151
  691MOL0     C95248   5.471  10.628  12.699  0.4204  1.2219 -0.0663
  691MOL0     C95249   5.274  10.715  12.559 -0.1191  0.4361  0.3586
  691MOL0     C95250   5.176  10.701  12.669 -0.1312  0.9087 -0.2712
  691MOL0     O95251   5.062  10.775  12.660 -0.0516 -0.4545 -0.0107
  691MOL0     C95252   4.960  10.760  12.745  0.1229 -0.1375 -0.6182
  691MOL0     C95253   4.923  10.866  12.818  0.4392  1.0327 -0.0898
  691MOL0     C95254   4.819  10.871  12.915  0.8397  0.2246  0.3647
  691MOL0     C95255   4.758  10.739  12.936 -0.4451 -0.3879 -0.7921
  691MOL0     O95256   4.648  10.723  13.021  0.1028  0.5221  0.1523
  691MOL0     C95257   4.638  10.812  13.133  0.1485  1.0561 -0.4112
  691MOL0     C95258   4.531  10.750  13.237 -0.2320 -0.9222 -0.3703
  691MOL0     C95259   4.546  10.813  13.382 -0.1636  0.5956 -0.0031
  691MOL0     C95260   4.434  10.773  13.483  0.4910  0.1889 -0.0904
  691MOL0     C95261   4.302  10.825  13.451  0.4790 -1.0379 -0.6308
  691MOL0     C95262   4.208  10.795  13.567 -0.3188  0.1033  0.5929
  691MOL0     C95263   4.063  10.802  13.513 -0.3543  0.1503  0.6711
  691MOL0     C95264   3.960  10.818  13.626  0.4051  0.5751  0.1451
  691MOL0    Cl95265   3.790  10.817  13.551  0.1840  0.3748  0.0564
  691MOL0     C95266   4.792  10.626  12.862  0.5475  0.7025  0.7400
  691MOL0     C95267   4.893  10.640  12.766 -0.0945  0.2667  0.9624
  691MOL0     O95268   5.196  10.610  12.753 -0.3756 -0.6097  0.5076
  691MOL0     C95269   5.240  10.780  12.438  0.6687  0.3345 -0.5919
  691MOL0     C95270   5.327  10.792  12.326  0.4451 -0.2815  0.1130
  691MOL0     N95271   5.806  10.448  11.699 -0.2446  0.7195  1.2504
  691MOL0     N95272   5.914  10.382  11.686  1.1910 -0.2118 -0.0480
  691MOL0     C95273   6.994  11.014  11.485 -0.7873 -1.4713  0.5037
  691MOL0     C95274   7.112  11.091  11.460 -0.3497  0.8175  0.0173
  691MOL0     C95275   7.533  11.182  11.296 -0.2845 -0.2323  0.0910
  691MOL0     C95276   7.641  11.138  11.379  0.0833  0.2292 -0.4911
  691MOL0     C95277   7.781  11.176  11.364  0.7149  0.5723 -0.5858
  691MOL0     C95278   7.815  11.260  11.263 -0.7930 -0.0071  0.4102
  691MOL0     O95279   7.942  11.299  11.271  0.1874  0.3333 -0.3139
  691MOL0     C95280   7.987  11.405  11.188  0.5849 -0.4261  0.5675
  691MOL0     C95281   8.136  11.421  11.217  0.0958 -0.6901 -0.1924
  691MOL0     C95282   8.227  11.312  11.173 -0.6932  0.3588 -0.1363
  691MOL0     C95283   8.252  11.296  11.030 -0.1811 -1.0667 -0.0398
  691MOL0     C95284   8.333  11.179  10.991  0.0331  0.1918 -0.0725
  691MOL0     C95285   8.418  11.097  10.956 -0.2881 -0.2325 -0.2254
  691MOL0     C95286   7.715  11.317  11.186  1.1522 -0.2788  0.3054
  691MOL0     C95287   7.577  11.278  11.195  0.2475 -0.1936 -0.8557
  691MOL0     C95288   7.472  11.334  11.103 -0.5545 -1.0820  0.4883
  691MOL0     H95289   7.317  10.860  11.352  1.2715  0.9301  1.2969
  691MOL0     H95290   7.110  10.715  11.368 -1.1279  0.4052 -0.6024
  691MOL0     H95291   6.980  10.735  11.638  1.4601  1.2842 -4.4362
  691MOL0     H95292   6.839  10.647  11.612  1.8220 -0.2632 -0.8767
  691MOL0     H95293   6.817  10.770  11.811  0.9860  0.5102  1.0229
  691MOL0     H95294   6.833  10.923  11.744 -2.5065  0.2192  2.9084
  691MOL0     H95295   6.594  10.912  11.736  0.0668 -0.5260  2.8991
  691MOL0     H95296   6.628  10.838  11.585  0.6691  3.0688  0.4426
  691MOL0     H95297   6.625  10.619  11.710 -0.9200  1.9642 -2.8732
  691MOL0     H95298   6.595  10.706  11.858 -2.1437 -1.6770  1.0319
  691MOL0     H95299   6.397  10.682  11.609 -1.3763 -4.8655 -0.4091
  691MOL0     H95300   6.367  10.769  11.760  0.1050  0.8369 -1.7314
  691MOL0     H95301   6.411  10.461  11.724  0.4635  1.0152 -0.8636
  691MOL0     H95302   6.366  10.533  11.880 -1.5632  0.2077  0.7668
  691MOL0     H95303   6.189  10.551  11.634 -0.2142 -3.0743 -0.1061
  691MOL0     H95304   6.160  10.624  11.794 -1.5349  0.3585 -1.8454
  691MOL0     H95305   6.168  10.343  11.698 -0.8569  0.0584  0.0534
  691MOL0     H95306   6.182  10.377  11.872  0.6727 -2.4617 -2.0126
  691MOL0     H95307   5.980  10.558  11.952  0.5487  2.4044 -1.1591
  691MOL0     H95308   5.632  10.631  11.755  0.2163 -0.0012  1.0663
  691MOL0     H95309   5.755  10.732  11.831  2.7157 -0.8110 -0.6663
  691MOL0     H95310   5.547  10.657  11.973  0.5150 -0.3113 -0.5631
  691MOL0     H95311   5.613  10.500  11.989 -2.3489  0.9414 -1.5142
  691MOL0     H95312   5.815  10.597  12.097  0.4058 -0.4953  0.6938
  691MOL0     H95313   5.754  10.765  12.067 -2.2241  0.4297  1.9312
  691MOL0     H95314   5.611  10.551  12.237 -0.3333 -0.7789 -2.8174
  691MOL0     H95315   5.727  10.687  12.290 -1.5129  2.3307  0.8594
  691MOL0     H95316   5.579  10.611  12.471  0.0130 -0.8509  2.5416
  691MOL0     H95317   5.426  10.697  12.770 -3.2943 -0.5092 -0.5083
  691MOL0     H95318   5.579  10.645  12.703  0.5783  0.0070  1.5916
  691MOL0     H95319   5.441  10.528  12.732 -0.4706  2.0415  1.7412
  691MOL0     H95320   4.983  10.957  12.821  2.1350  0.0116  4.6697
  691MOL0     H95321   4.791  10.964  12.963  1.8999 -0.3625  2.2388
  691MOL0     H95322   4.732  10.813  13.189 -0.2776 -0.6418  0.4005
  691MOL0     H95323   4.612  10.914  13.105  2.3750  1.7649 -0.0797
  691MOL0     H95324   4.435  10.777  13.193  1.2251  2.2356 -1.9453
  691MOL0     H95325   4.550  10.643  13.250  1.9807 -0.6643 -1.0147
  691MOL0     H95326   4.548  10.922  13.376 -0.8757  0.7538  1.9325
  691MOL0     H95327   4.644  10.777  13.414 -1.2026 -1.7145  0.8312
  691MOL0     H95328   4.454  10.825  13.576  0.8696 -0.0567 -0.0348
  691MOL0     H95329   4.411  10.667  13.501 -0.2367  0.8783  3.8100
  691MOL0     H95330   4.304  10.928  13.414  1.1885  0.0671  2.2259
  691MOL0     H95331   4.267  10.766  13.365  2.2846  0.8487 -2.7867
  691MOL0     H95332   4.236  10.860  13.650  0.3510 -0.1930  0.6012
  691MOL0     H95333   4.225  10.694  13.604  1.1145  0.5101  1.1093
  691MOL0     H95334   4.052  10.704  13.464 -0.8725  0.7980 -0.5336
  691MOL0     H95335   4.063  10.886  13.443 -0.0702 -0.2251  0.2109
  691MOL0     H95336   3.971  10.907  13.689 -2.8791  2.0756 -1.1420
  691MOL0     H95337   3.972  10.724  13.681  0.4503  0.7767  0.4847
  691MOL0     H95338   4.740  10.531  12.875  0.6075  0.5918  0.2069
  691MOL0     H95339   4.917  10.554  12.705  1.5282  1.2762  0.1224
  691MOL0     H95340   5.139  10.815  12.423  0.8706  0.0169 -3.3407
  691MOL0     H95341   5.299  10.836  12.231  0.6023  0.0246  0.2062
  691MOL0     H95342   6.903  11.067  11.513  0.8341  1.5654  0.4196
  691MOL0     H95343   7.122  11.193  11.497  1.7710  0.3382  0.8713
  691MOL0     H95344   7.609  11.073  11.461 -0.6049  0.7287 -0.3601
  691MOL0     H95345   7.863  11.137  11.423 -0.4234 -2.5055 -0.8127
  691MOL0     H95346   7.978  11.384  11.081  3.5857 -1.7134  0.4552
  691MOL0     H95347   7.941  11.501  11.215  2.9821  0.4937  1.7225
  691MOL0     H95348   8.137  11.434  11.325  1.5010  3.2852 -0.5308
  691MOL0     H95349   8.164  11.511  11.161 -3.2455  0.3727 -0.3435
  691MOL0     H95350   8.323  11.318  11.226 -0.3158  2.8989 -0.9711
  691MOL0     H95351   8.182  11.219  11.211 -1.6075  0.4046 -1.0640
  691MOL0     H95352   8.312  11.383  11.000 -2.1112  1.1187  1.9835
  691MOL0     H95353   8.160  11.290  10.972  1.1560 -1.2740 -2.2381
  691MOL0     H95354   8.488  11.026  10.918  1.8924  1.9788 -0.6125
  691MOL0     H95355   7.735  11.372  11.095  0.1811  1.7519  1.2628
  691MOL0     H95356   7.390  11.383  11.157 -0.5825 -2.4267  1.7248
  691MOL0     H95357   7.515  11.405  11.031  1.2513 -0.9748  1.6180
  691MOL0     H95358   7.439  11.254  11.037  0.9664  0.4500 -2.3336
  692MOL0     O95359   4.711   2.131   8.581 -0.1603  0.7239  0.6565
  692MOL0     C95360   4.738   2.172   8.466 -0.5301 -0.5541 -0.1227
  692MOL0     O95361   4.731   2.096   8.352 -0.5908 -0.0250 -0.5300
  692MOL0     C95362   4.716   1.959   8.363 -0.3685  0.0690  0.2341
  692MOL0     C95363   4.827   1.874   8.369 -0.4652 -0.1403  0.2394
  692MOL0     C95364   4.818   1.734   8.393  0.4891 -0.0137 -0.1276
  692MOL0     C95365   4.693   1.674   8.420 -0.5539 -0.2179  0.0788
  692MOL0     O95366   4.666   1.545   8.436  0.2574  1.0643  0.5257
  692MOL0     C95367   4.757   1.451   8.496 -0.4689  0.8331 -0.3811
  692MOL0     C95368   4.705   1.350   8.607 -0.0736 -0.1620 -0.6449
  692MOL0     C95369   4.643   1.426   8.716 -1.1121 -0.5466 -0.6069
  692MOL0     C95370   4.755   1.493   8.810  0.4585 -0.1734  0.8300
  692MOL0     C95371   4.691   1.615   8.878 -1.0223  0.2890  0.4844
  692MOL0     C95372   4.777   1.656   8.997 -0.7147 -1.2683 -0.8632
  692MOL0     C95373   4.750   1.802   9.041  0.3001 -0.4665  0.5728
  692MOL0     C95374   4.810   1.813   9.185  0.5219  0.1298  0.2058
  692MOL0     N95375   4.703   1.798   9.288 -0.3362 -0.6181  0.0044
  692MOL0     C95376   4.642   1.906   9.339  0.2944  0.1585  1.2155
  692MOL0     C95377   4.558   1.866   9.433 -0.1388  0.2707  0.9145
  692MOL0     C95378   4.462   1.960   9.503  0.2137 -0.0574 -0.0549
  692MOL0     C95379   4.325   1.953   9.448  0.2980 -0.6331 -0.3795
  692MOL0     C95380   4.218   2.037   9.521 -0.6852  0.7360 -0.1313
  692MOL0     C95381   4.083   2.027   9.455 -0.1284  0.1164  0.0201
  692MOL0     O95382   4.081   2.116   9.336 -0.3562  0.2853  0.8362
  692MOL0     C95383   3.968   2.125   9.257 -0.4190  0.1629 -0.9465
  692MOL0     C95384   3.856   2.037   9.262 -0.0167 -0.1732 -0.2627
  692MOL0     C95385   3.736   2.067   9.192 -0.1471 -0.3641 -0.0621
  692MOL0     C95386   3.610   1.977   9.208  0.7350 -0.0631 -0.6569
  692MOL0     C95387   3.731   2.178   9.099  0.1163  0.6946  0.1144
  692MOL0     C95388   3.632   2.203   8.995  0.4670  0.2250 -0.2465
  692MOL0     O95389   3.654   2.314   8.917  0.0567 -0.3671  0.1517
  692MOL0     C95390   3.560   2.377   8.843 -1.3694 -0.2961  0.0223
  692MOL0     C95391   3.540   2.317   8.717  0.4995 -0.1987  0.7122
  692MOL0     C95392   3.450   2.368   8.628  0.7830 -0.0586 -0.5381
  692MOL0     C95393   3.377   2.483   8.672 -0.0163  0.5208  0.1909
  692MOL0     O95394   3.281   2.521   8.592 -0.5628  0.3739 -0.0503
  692MOL0     C95395   3.188   2.631   8.617 -0.5525 -0.2811  0.4174
  692MOL0     C95396   3.130   2.684   8.493 -0.1698 -0.1997  1.3753
  692MOL0     C95397   3.244   2.747   8.407 -0.3805 -0.7958 -0.0898
  692MOL0     C95398   3.175   2.877   8.338 -0.1042 -0.0194 -0.6210
  692MOL0     C95399   3.279   2.946   8.248  0.6020  0.7648 -0.1799
  692MOL0     C95400   3.312   2.861   8.122  0.7734  0.0007 -1.1278
  692MOL0     C95401   3.355   2.951   8.011 -0.4814 -1.3616  0.5528
  692MOL0     C95402   3.370   2.883   7.874 -0.4452  0.6872  0.3883
  692MOL0    Cl95403   3.215   2.813   7.818  0.0539 -0.1382 -0.1152
  692MOL0     C95404   3.403   2.554   8.793 -1.6319 -0.0344  0.9976
  692MOL0     C95405   3.509   2.503   8.871 -0.1507 -0.7474 -0.9453
  692MOL0     O95406   3.532   2.137   9.005 -0.6274  0.9366 -0.2432
  692MOL0     C95407   3.844   2.265   9.097  0.0922  0.2253 -0.4742
  692MOL0     C95408   3.955   2.238   9.175  0.6169 -0.2729 -0.9008
  692MOL0     N95409   4.569   1.726   9.443 -1.0944 -0.9014  0.1194
  692MOL0     N95410   4.665   1.689   9.362  0.1387 -0.4651 -0.7647
  692MOL0     C95411   4.583   1.767   8.419 -0.3055  0.3419  0.2141
  692MOL0     C95412   4.589   1.902   8.399 -0.3075  0.0433 -0.2551
  692MOL0     C95413   4.779   2.321   8.447 -0.8857 -0.3815 -0.2152
  692MOL0     C95414   4.801   2.356   8.314  0.6234 -0.2233  0.1765
  692MOL0     C95415   4.838   2.480   8.269  0.4914  0.0844  0.3602
  692MOL0     C95416   4.867   2.573   8.373 -0.3806 -0.2840 -0.7510
  692MOL0     O95417   4.924   2.692   8.347 -0.5002 -0.2117 -0.1080
  692MOL0     C95418   4.817   2.788   8.308  0.1275  0.0152 -1.1195
  692MOL0     C95419   4.879   2.923   8.290 -0.6334  0.3570 -0.8789
  692MOL0     C95420   4.926   2.987   8.420 -0.0555  0.4572  0.2542
  692MOL0     C95421   4.801   3.007   8.518  0.0588 -0.0378  0.4952
  692MOL0     C95422   4.787   2.905   8.625 -0.0043 -0.0306 -0.0871
  692MOL0     C95423   4.779   2.826   8.715 -0.1508 -0.4991 -0.7131
  692MOL0     C95424   4.873   2.532   8.504  0.0790  0.2733  0.3084
  692MOL0     C95425   4.821   2.409   8.551 -0.9622 -0.3156  0.2888
  692MOL0     C95426   4.798   2.378   8.697  0.2043  0.3636  0.0189
  692MOL0     H95427   4.928   1.915   8.368  0.4345 -2.1848  0.8212
  692MOL0     H95428   4.903   1.667   8.379  2.2802  2.6404 -3.5613
  692MOL0     H95429   4.843   1.503   8.539 -1.4848  0.4000  2.3699
  692MOL0     H95430   4.810   1.390   8.422 -0.0337 -1.7472  1.8910
  692MOL0     H95431   4.630   1.287   8.558 -0.8802 -0.9538  1.5003
  692MOL0     H95432   4.794   1.294   8.637  0.7534  2.5764  2.4748
  692MOL0     H95433   4.577   1.498   8.666 -1.0775  0.0471  0.1839
  692MOL0     H95434   4.591   1.351   8.776 -4.4091  2.2893  0.4361
  692MOL0     H95435   4.778   1.417   8.885 -1.8786 -0.7930  1.0132
  692MOL0     H95436   4.848   1.526   8.761  2.1741 -1.3158  3.1498
  692MOL0     H95437   4.593   1.587   8.918 -1.5703  1.8622  0.3322
  692MOL0     H95438   4.667   1.695   8.807  0.4589  0.8421  0.5718
  692MOL0     H95439   4.730   1.604   9.081  0.8020 -0.2401  0.7000
  692MOL0     H95440   4.886   1.645   8.996 -0.1758  1.6568  2.9813
  692MOL0     H95441   4.643   1.825   9.040  0.5278  0.6805 -1.2510
  692MOL0     H95442   4.804   1.873   8.977 -1.5391  1.2232  0.7994
  692MOL0     H95443   4.888   1.736   9.192  0.3489 -0.1295 -0.6168
  692MOL0     H95444   4.863   1.906   9.207 -0.8116  0.5980  1.6431
  692MOL0     H95445   4.655   2.010   9.311 -0.4668  0.6678  2.6126
  692MOL0     H95446   4.495   2.065   9.500 -0.7188  0.2255 -2.6307
  692MOL0     H95447   4.448   1.937   9.609 -0.5187  1.6429  0.2594
  692MOL0     H95448   4.337   1.990   9.346 -1.8671  1.7997  0.1073
  692MOL0     H95449   4.293   1.849   9.440  3.2544 -1.7222  0.6242
  692MOL0     H95450   4.218   1.990   9.621  0.7416 -1.6862 -1.1764
  692MOL0     H95451   4.247   2.142   9.526  1.4770  0.1576  2.8002
  692MOL0     H95452   4.072   1.925   9.417  3.5246 -1.5876  2.8659
  692MOL0     H95453   4.003   2.057   9.522 -1.7607  2.2429 -2.7041
  692MOL0     H95454   3.860   1.969   9.347  0.2457  1.1022  0.7743
  692MOL0     H95455   3.592   1.924   9.114  3.4360  0.7246 -1.7325
  692MOL0     H95456   3.523   2.037   9.238 -0.5252 -2.2542  0.2868
  692MOL0     H95457   3.631   1.902   9.284  0.7568  1.3432  0.7855
  692MOL0     H95458   3.590   2.223   8.699 -0.8365 -0.8600  0.4051
  692MOL0     H95459   3.420   2.306   8.544  1.9956 -0.4710 -0.6877
  692MOL0     H95460   3.116   2.604   8.694  2.8814 -2.0869  3.3216
  692MOL0     H95461   3.240   2.715   8.664 -3.5358  0.2487  3.0608
  692MOL0     H95462   3.092   2.613   8.418 -0.9185  4.0679 -2.7710
  692MOL0     H95463   3.037   2.739   8.511 -2.5844 -2.0622 -3.5442
  692MOL0     H95464   3.270   2.671   8.333 -2.9034 -1.4920 -0.3707
  692MOL0     H95465   3.328   2.781   8.467 -0.4400 -1.2817  0.2808
  692MOL0     H95466   3.149   2.947   8.419  0.9298 -1.1898  0.7709
  692MOL0     H95467   3.089   2.843   8.280  0.8106  3.7109 -4.6443
  692MOL0     H95468   3.234   3.042   8.220 -0.8822  0.8783  2.2510
  692MOL0     H95469   3.366   2.979   8.305  0.4506  2.2989 -0.7815
  692MOL0     H95470   3.216   2.811   8.103 -0.5712  2.2743 -0.6490
  692MOL0     H95471   3.385   2.784   8.150 -1.4556 -2.7574 -2.4752
  692MOL0     H95472   3.451   3.000   8.033 -1.9493  0.5558  3.4074
  692MOL0     H95473   3.280   3.028   7.991 -0.5869 -1.8012 -0.8140
  692MOL0     H95474   3.448   2.809   7.895  0.7369  1.5271 -0.8735
  692MOL0     H95475   3.411   2.957   7.804  0.9997 -0.6332 -0.2051
  692MOL0     H95476   3.354   2.648   8.816 -4.6209 -0.9938 -0.8144
  692MOL0     H95477   3.544   2.556   8.959  0.7879 -1.3294 -0.9650
  692MOL0     H95478   3.853   2.354   9.036  2.0418  1.1424  1.0654
  692MOL0     H95479   4.035   2.307   9.151 -0.6100  1.1579 -1.0044
  692MOL0     H95480   4.487   1.716   8.427 -1.1960  1.9580  0.2202
  692MOL0     H95481   4.502   1.966   8.408  1.0987  2.4344 -2.0791
  692MOL0     H95482   4.785   2.288   8.231 -0.6449  4.0891 -3.4985
  692MOL0     H95483   4.860   2.518   8.169  1.8825 -2.2844 -0.3058
  692MOL0     H95484   4.767   2.762   8.214  0.9297  1.7242 -2.0606
  692MOL0     H95485   4.733   2.783   8.377  1.3881 -2.6511  0.3451
  692MOL0     H95486   4.830   3.007   8.240  2.4990  1.6325 -2.1260
  692MOL0     H95487   4.966   2.903   8.226 -1.0228  0.0707 -1.3211
  692MOL0     H95488   4.993   2.919   8.473 -2.8559 -1.8316  1.1277
  692MOL0     H95489   4.981   3.079   8.398 -1.2617  0.3615 -4.2562
  692MOL0     H95490   4.711   2.998   8.457 -0.6212  1.1809  1.2826
  692MOL0     H95491   4.814   3.111   8.550  0.1699  1.0574 -2.6761
  692MOL0     H95492   4.771   2.749   8.789 -0.8379  1.8694  1.8413
  692MOL0     H95493   4.909   2.600   8.580  0.9097 -0.3333  0.4720
  692MOL0     H95494   4.692   2.366   8.721 -0.1190  0.0190 -1.4763
  692MOL0     H95495   4.846   2.283   8.723  3.8183  1.3498 -2.2615
  692MOL0     H95496   4.844   2.455   8.761  0.7265 -0.7342  1.0169
  693MOL0     O95497   2.762   4.328   3.163 -0.0376 -0.1263  0.2520
  693MOL0     C95498   2.709   4.438   3.125  0.0964 -0.1901  0.3107
  693MOL0     O95499   2.596   4.494   3.189 -0.2782 -0.5391  0.3792
  693MOL0     C95500   2.573   4.452   3.315  0.7955 -0.3262 -0.7301
  693MOL0     C95501   2.487   4.349   3.343 -0.8944 -0.7397  0.3524
  693MOL0     C95502   2.464   4.302   3.470  1.3556 -1.0980 -0.6870
  693MOL0     C95503   2.522   4.362   3.584 -0.2125  0.3573  1.5791
  693MOL0     O95504   2.531   4.324   3.713 -0.4421  0.2825  0.0092
  693MOL0     C95505   2.510   4.188   3.737 -0.2941  1.1945 -0.1596
  693MOL0     C95506   2.581   4.143   3.868  0.3627  0.7973 -0.1627
  693MOL0     C95507   2.738   4.132   3.845  0.1288  0.4430 -0.4854
  693MOL0     C95508   2.791   4.050   3.727 -0.0005 -0.8128  0.5107
  693MOL0     C95509   2.930   4.093   3.695 -0.4970  0.1122  0.4567
  693MOL0     C95510   2.988   4.021   3.567 -0.1833  0.3029  0.3058
  693MOL0     C95511   3.132   4.060   3.536 -0.8016 -0.0690  0.2080
  693MOL0     C95512   3.161   4.058   3.385 -0.0139  0.4552 -0.7074
  693MOL0     N95513   3.305   4.057   3.348 -0.0841  0.3623 -0.5628
  693MOL0     C95514   3.384   4.167   3.305 -0.3023 -0.2321  0.5949
  693MOL0     C95515   3.513   4.117   3.301 -0.5101  0.9711 -0.2707
  693MOL0     C95516   3.641   4.179   3.250  0.4187 -0.7167  0.4478
  693MOL0     C95517   3.623   4.316   3.178  0.5022  0.1992 -0.1996
  693MOL0     C95518   3.743   4.408   3.180 -1.0001  1.0313  0.3423
  693MOL0     C95519   3.731   4.540   3.085  0.6512  0.4496  0.3063
  693MOL0     O95520   3.624   4.620   3.141  0.1450  0.0149 -0.5217
  693MOL0     C95521   3.586   4.734   3.066 -0.0352  0.2040  0.4946
  693MOL0     C95522   3.638   4.779   2.947  0.1046  1.0435 -0.0222
  693MOL0     C95523   3.611   4.907   2.903  0.1020  0.9647  0.2370
  693MOL0     C95524   3.682   4.950   2.781 -0.0281  0.8835  0.8714
  693MOL0     C95525   3.517   4.989   2.977  0.1805 -0.6434 -0.2717
  693MOL0     C95526   3.483   5.131   2.942  0.5488  0.1468  0.2281
  693MOL0     O95527   3.353   5.169   2.938 -0.0680 -0.1918 -0.0329
  693MOL0     C95528   3.345   5.297   2.877  0.7562 -0.4031 -0.9704
  693MOL0     C95529   3.322   5.330   2.743 -0.3286 -0.1683 -0.0381
  693MOL0     C95530   3.325   5.461   2.702  0.8897 -0.5540 -0.1071
  693MOL0     C95531   3.348   5.568   2.792  0.6313  0.9764 -0.7839
  693MOL0     O95532   3.345   5.697   2.749 -0.1486 -0.3232  0.2236
  693MOL0     C95533   3.216   5.755   2.720 -0.7130 -0.8270 -0.7363
  693MOL0     C95534   3.226   5.838   2.598 -0.3435 -0.1935  0.9464
  693MOL0     C95535   3.328   5.955   2.615 -0.4541 -0.0300  0.0051
  693MOL0     C95536   3.317   6.038   2.487  1.0971  0.0152 -0.3486
  693MOL0     C95537   3.405   6.165   2.487 -0.2931  0.7906  0.3117
  693MOL0     C95538   3.554   6.124   2.472 -0.0698 -0.1492  0.2087
  693MOL0     C95539   3.660   6.242   2.472  0.0538  0.1264 -0.8317
  693MOL0     C95540   3.769   6.218   2.372 -0.5290 -0.3309  0.6625
  693MOL0    Cl95541   3.701   6.217   2.201 -0.0646  0.7159 -0.3767
  693MOL0     C95542   3.345   5.535   2.931 -0.1904  0.2421 -0.1732
  693MOL0     C95543   3.345   5.404   2.975 -0.7647 -0.1637 -0.4165
  693MOL0     O95544   3.581   5.198   2.917 -0.0050  0.0181  0.2382
  693MOL0     C95545   3.443   4.926   3.085 -1.1037 -0.6650 -1.2897
  693MOL0     C95546   3.484   4.802   3.133 -0.2968  0.5612 -0.0795
  693MOL0     N95547   3.505   3.987   3.353 -0.6839  0.0912 -0.5949
  693MOL0     N95548   3.386   3.946   3.371  0.4954  0.5130 -0.5346
  693MOL0     C95549   2.605   4.471   3.557  0.1551 -0.4967  0.1761
  693MOL0     C95550   2.622   4.515   3.427 -0.6323 -0.1678  0.3311
  693MOL0     C95551   2.777   4.514   3.007  0.4966 -0.3795 -0.4444
  693MOL0     C95552   2.890   4.449   2.941  0.2693 -0.6742  0.6137
  693MOL0     C95553   2.952   4.503   2.822  0.1499 -0.2033  0.4198
  693MOL0     C95554   2.890   4.610   2.759  0.4330 -1.1524 -0.1976
  693MOL0     O95555   2.943   4.641   2.633 -0.1929 -0.6117 -0.7840
  693MOL0     C95556   2.866   4.720   2.546  0.4694 -0.6363  0.3586
  693MOL0     C95557   2.784   4.631   2.458  0.3610  0.4556  0.5149
  693MOL0     C95558   2.647   4.586   2.523 -1.0613 -0.4281  0.2457
  693MOL0     C95559   2.535   4.533   2.430 -0.1493  0.0917 -1.0206
  693MOL0     C95560   2.575   4.420   2.348  0.6202  0.7658  0.0835
  693MOL0     C95561   2.600   4.315   2.296  0.5272 -0.1488  0.0287
  693MOL0     C95562   2.786   4.674   2.819 -0.6761  0.3904 -0.7119
  693MOL0     C95563   2.720   4.633   2.940 -0.6165 -0.0132 -0.4969
  693MOL0     C95564   2.595   4.717   2.986  0.9520 -0.5257 -0.7241
  693MOL0     H95565   2.446   4.296   3.258 -1.7397 -1.2552  1.0659
  693MOL0     H95566   2.405   4.211   3.478  1.9572 -1.8083 -3.3620
  693MOL0     H95567   2.547   4.126   3.655  2.2089  2.2794  0.0540
  693MOL0     H95568   2.405   4.165   3.756 -0.4912  1.7472 -0.5362
  693MOL0     H95569   2.556   4.189   3.963 -1.4648 -1.5937  0.6110
  693MOL0     H95570   2.552   4.038   3.876 -1.4288  1.3115  0.3851
  693MOL0     H95571   2.770   4.235   3.827  1.7446  0.1992  0.7459
  693MOL0     H95572   2.786   4.091   3.934  2.2384  2.4951 -0.5752
  693MOL0     H95573   2.786   3.941   3.741  0.9707 -1.3958 -2.8426
  693MOL0     H95574   2.732   4.073   3.638  2.3182  0.6185 -0.7316
  693MOL0     H95575   2.992   4.059   3.779 -0.6391 -0.6703  0.2547
  693MOL0     H95576   2.935   4.202   3.682  2.6328 -0.1885 -2.8102
  693MOL0     H95577   2.982   3.914   3.591  3.4716 -0.6311 -2.2172
  693MOL0     H95578   2.925   4.056   3.485 -2.9609  1.3391  2.6673
  693MOL0     H95579   3.204   3.993   3.582  1.2763  1.5549 -0.5178
  693MOL0     H95580   3.152   4.162   3.570  1.4796 -0.7855  1.1804
  693MOL0     H95581   3.118   3.961   3.361 -0.7703  0.4407  0.6227
  693MOL0     H95582   3.109   4.141   3.336 -3.1484 -0.2424  1.1671
  693MOL0     H95583   3.355   4.271   3.296  4.7369  1.4305  0.1095
  693MOL0     H95584   3.701   4.123   3.179  1.1800 -0.7415  1.0950
  693MOL0     H95585   3.710   4.209   3.329  0.5046  2.8359 -0.7846
  693MOL0     H95586   3.600   4.284   3.076  0.2229 -0.7794  0.1536
  693MOL0     H95587   3.539   4.369   3.224 -1.2356 -1.3401 -1.4544
  693MOL0     H95588   3.762   4.431   3.285 -1.6230 -3.6152  1.6856
  693MOL0     H95589   3.831   4.355   3.142  1.1709  3.1283  2.1008
  693MOL0     H95590   3.818   4.606   3.076 -2.0959  4.5195  0.7703
  693MOL0     H95591   3.710   4.516   2.981  0.7422 -0.2518  0.4458
  693MOL0     H95592   3.707   4.711   2.897 -1.3474 -1.1402  0.8258
  693MOL0     H95593   3.700   4.867   2.712  0.3312  1.2353  0.5370
  693MOL0     H95594   3.778   4.982   2.823 -0.7104 -0.3195  3.5560
  693MOL0     H95595   3.636   5.035   2.729  0.1057  0.6084  0.2952
  693MOL0     H95596   3.339   5.257   2.666 -0.0936  0.2240 -0.3660
  693MOL0     H95597   3.334   5.484   2.596 -3.2075  0.8991 -0.3194
  693MOL0     H95598   3.144   5.673   2.715 -1.5300 -0.3337  1.5278
  693MOL0     H95599   3.195   5.818   2.807  1.0803  0.1126 -0.9346
  693MOL0     H95600   3.251   5.771   2.516 -0.2395 -0.4539  1.1900
  693MOL0     H95601   3.123   5.863   2.570 -0.2494 -0.1683  0.6244
  693MOL0     H95602   3.428   5.914   2.628 -0.3796  0.6159  1.6754
  693MOL0     H95603   3.299   6.018   2.700  2.2423 -0.5842  1.4649
  693MOL0     H95604   3.214   6.073   2.482  0.4846 -1.7577 -1.0723
  693MOL0     H95605   3.337   5.976   2.399  3.7909  2.1057 -1.3615
  693MOL0     H95606   3.368   6.224   2.403  0.1188  0.2614 -0.2475
  693MOL0     H95607   3.387   6.223   2.578  1.0370  2.1188 -0.2289
  693MOL0     H95608   3.558   6.071   2.377 -1.0953  0.6504 -0.2945
  693MOL0     H95609   3.583   6.058   2.554 -0.9026 -2.0374 -0.9581
  693MOL0     H95610   3.684   6.270   2.575  2.3685 -1.4133 -0.8806
  693MOL0     H95611   3.608   6.328   2.428 -0.5794  0.7980  1.1222
  693MOL0     H95612   3.822   6.123   2.384 -1.5841 -1.0365 -0.0503
  693MOL0     H95613   3.830   6.309   2.375 -2.1169  0.9340 -2.2192
  693MOL0     H95614   3.351   5.613   3.006 -0.9264 -1.7772  2.1001
  693MOL0     H95615   3.351   5.380   3.081 -1.8262  2.8724  0.4132
  693MOL0     H95616   3.364   4.984   3.132  1.4379  3.9311 -2.0645
  693MOL0     H95617   3.440   4.745   3.214 -0.1917  2.9665  1.7888
  693MOL0     H95618   2.669   4.510   3.636  0.1022 -0.5908  0.2657
  693MOL0     H95619   2.683   4.602   3.407 -1.3819  0.1109 -0.8791
  693MOL0     H95620   2.930   4.354   2.975  2.8254 -0.3936 -1.3504
  693MOL0     H95621   3.040   4.456   2.780 -0.1051 -1.0261  0.7952
  693MOL0     H95622   2.801   4.793   2.594 -0.9222 -2.8316  2.0151
  693MOL0     H95623   2.938   4.785   2.496 -1.5518  1.1865 -0.2983
  693MOL0     H95624   2.842   4.541   2.433  2.2286  1.6539  0.3255
  693MOL0     H95625   2.784   4.682   2.361  2.4677  0.1022  0.2759
  693MOL0     H95626   2.669   4.507   2.595  1.1512 -0.8375 -0.8101
  693MOL0     H95627   2.607   4.670   2.581  0.7229  1.8399 -1.5936
  693MOL0     H95628   2.511   4.604   2.350 -0.5914  0.7783 -0.2902
  693MOL0     H95629   2.440   4.508   2.480 -0.7276 -1.0875 -2.6014
  693MOL0     H95630   2.587   4.216   2.259 -0.0584 -0.0924  0.0778
  693MOL0     H95631   2.731   4.758   2.778  0.4436  1.1697 -0.6599
  693MOL0     H95632   2.507   4.653   2.975  1.7986 -1.7155 -0.7431
  693MOL0     H95633   2.609   4.764   3.084 -2.3460  0.0736 -0.4285
  693MOL0     H95634   2.581   4.803   2.921 -1.4313  0.3641  0.8184
  694MOL0     O95635   7.811   8.398  11.235  0.4972 -0.3351  0.5489
  694MOL0     C95636   7.729   8.364  11.147  0.2023  1.6697 -0.5896
  694MOL0     O95637   7.623   8.441  11.099  0.0435  0.6665 -0.1479
  694MOL0     C95638   7.647   8.578  11.085 -0.2080  0.1916  0.4716
  694MOL0     C95639   7.624   8.660  11.194 -0.0979  0.4084  0.1908
  694MOL0     C95640   7.642   8.795  11.182  0.1112 -0.7217  0.4381
  694MOL0     C95641   7.686   8.856  11.053 -0.1773  0.1956  0.7069
  694MOL0     O95642   7.696   8.991  11.029  0.3330  0.1230 -0.7808
  694MOL0     C95643   7.723   9.080  11.137  0.0818 -0.3449 -0.0224
  694MOL0     C95644   7.793   9.208  11.082  0.9759  0.2447  1.3582
  694MOL0     C95645   7.828   9.291  11.195  0.6806 -0.2037  0.3557
  694MOL0     C95646   7.713   9.369  11.255 -0.1611 -1.6592 -0.3672
  694MOL0     C95647   7.756   9.498  11.323  0.7681  0.6472  0.3198
  694MOL0     C95648   7.851   9.483  11.441 -0.3196 -0.2832  0.0737
  694MOL0     C95649   7.774   9.445  11.570  0.5490  0.2781 -0.0556
  694MOL0     C95650   7.833   9.514  11.695  0.0630  0.2594 -0.5831
  694MOL0     N95651   7.765   9.456  11.811 -0.3491 -0.2283  0.3452
  694MOL0     C95652   7.813   9.373  11.910 -0.5602 -0.1421  0.1957
  694MOL0     C95653   7.712   9.357  11.996  1.1544  0.6940  0.7517
  694MOL0     C95654   7.699   9.250  12.107 -0.0030  0.1220  0.3176
  694MOL0     C95655   7.781   9.279  12.242 -0.7885  0.2484 -0.0659
  694MOL0     C95656   7.931   9.294  12.216 -0.3037 -0.3458 -0.5269
  694MOL0     C95657   8.023   9.262  12.337  0.7177  0.0255 -0.4237
  694MOL0     O95658   7.976   9.349  12.443  0.4176 -0.4992 -0.2603
  694MOL0     C95659   8.012   9.479  12.451 -0.0868 -0.0292  0.0445
  694MOL0     C95660   8.147   9.516  12.431  0.7336 -0.8226  0.1546
  694MOL0     C95661   8.193   9.649  12.430 -0.3457 -1.1536  1.1577
  694MOL0     C95662   8.340   9.682  12.405  0.1158 -0.4475 -0.2570
  694MOL0     C95663   8.098   9.748  12.481  0.6464 -0.2282  0.3335
  694MOL0     C95664   8.127   9.900  12.494 -0.1456  1.3791 -0.2165
  694MOL0     O95665   8.026   9.979  12.545  0.1302  0.4239 -0.2006
  694MOL0     C95666   8.043  10.100  12.600  0.5253 -1.6452 -0.2263
  694MOL0     C95667   7.955  10.199  12.562  0.1900  0.0880  0.8974
  694MOL0     C95668   7.980  10.334  12.596 -0.2102 -0.6781 -0.0064
  694MOL0     C95669   8.087  10.369  12.681  0.3228  0.0878 -0.0368
  694MOL0     O95670   8.117  10.499  12.705 -0.1612  0.1552  0.5218
  694MOL0     C95671   8.255  10.548  12.715 -0.0899 -0.0614 -0.8799
  694MOL0     C95672   8.324  10.566  12.584  1.1452 -0.8825 -0.1309
  694MOL0     C95673   8.238  10.670  12.502 -0.8949  0.4839 -0.1516
  694MOL0     C95674   8.229  10.818  12.560  0.5901  0.2715  0.5140
  694MOL0     C95675   8.186  10.923  12.455  0.3944 -0.2417  0.4563
  694MOL0     C95676   8.035  10.950  12.432  0.2095  0.3868 -0.4237
  694MOL0     C95677   8.015  11.030  12.304  0.3600 -0.8681  0.2277
  694MOL0     C95678   8.061  10.976  12.170 -0.7040  0.2560 -0.0562
  694MOL0    Cl95679   8.027  10.799  12.166  0.3435 -0.1622 -0.0327
  694MOL0     C95680   8.161  10.259  12.733  0.2476 -0.8581 -0.3664
  694MOL0     C95681   8.140  10.129  12.685  0.0082  0.0691  0.2070
  694MOL0     O95682   8.243   9.935  12.480 -0.3640  0.2850  0.8141
  694MOL0     C95683   7.966   9.707  12.482  0.3450 -0.1031  0.7345
  694MOL0     C95684   7.924   9.574  12.473 -0.1569  0.4483  0.4480
  694MOL0     N95685   7.601   9.424  11.944  0.1565 -0.4207 -0.6030
  694MOL0     N95686   7.632   9.465  11.827 -0.5787 -0.9193 -1.0840
  694MOL0     C95687   7.716   8.766  10.949 -0.3567  0.3150 -0.0544
  694MOL0     C95688   7.687   8.633  10.964  0.1473 -0.0562 -0.0583
  694MOL0     C95689   7.728   8.213  11.113 -0.3469  0.7926 -1.4448
  694MOL0     C95690   7.607   8.160  11.066  0.6694  0.4918 -0.8403
  694MOL0     C95691   7.594   8.027  11.044  0.2249  0.1612  0.5833
  694MOL0     C95692   7.701   7.935  11.061  0.4541 -0.8205  0.1654
  694MOL0     O95693   7.688   7.803  11.045  0.6335  0.0040 -0.2208
  694MOL0     C95694   7.555   7.750  11.063 -0.1762  0.1309 -0.1377
  694MOL0     C95695   7.561   7.597  11.036 -0.0327 -0.0355 -0.5102
  694MOL0     C95696   7.630   7.523  11.160 -0.0627  0.8636  0.3017
  694MOL0     C95697   7.631   7.373  11.122  0.2463  0.3509 -0.0092
  694MOL0     C95698   7.697   7.306  11.228 -0.1972  0.2015 -0.1167
  694MOL0     C95699   7.755   7.248  11.321  0.7910  0.3387  0.0622
  694MOL0     C95700   7.822   7.985  11.101  0.4422 -0.0134  1.0166
  694MOL0     C95701   7.841   8.126  11.125 -0.0162  0.2781 -0.7521
  694MOL0     C95702   7.977   8.163  11.179 -0.0772  0.1883 -0.3271
  694MOL0     H95703   7.594   8.617  11.289  1.4330 -0.0852  0.4734
  694MOL0     H95704   7.621   8.870  11.257  1.5912  0.3037 -0.1329
  694MOL0     H95705   7.788   9.041  11.217  0.6704 -1.2786 -0.9274
  694MOL0     H95706   7.627   9.106  11.182  0.7561 -0.4750  1.5611
  694MOL0     H95707   7.876   9.179  11.017 -0.5771  0.1695 -0.6929
  694MOL0     H95708   7.719   9.255  11.016  1.8450  0.7767  0.7416
  694MOL0     H95709   7.874   9.228  11.272  2.3590 -1.8760 -1.9126
  694MOL0     H95710   7.905   9.362  11.162  2.9144 -0.4242  4.3223
  694MOL0     H95711   7.656   9.394  11.165 -1.8252 -1.4879  0.6896
  694MOL0     H95712   7.644   9.311  11.317  1.0104 -1.8299  0.7943
  694MOL0     H95713   7.670   9.565  11.334  1.7211  2.1657 -0.9421
  694MOL0     H95714   7.818   9.546  11.247  0.3622  0.3603 -0.1959
  694MOL0     H95715   7.934   9.415  11.423 -0.4173 -0.0214 -1.4724
  694MOL0     H95716   7.904   9.578  11.449  1.4493 -1.1666 -0.8016
  694MOL0     H95717   7.769   9.338  11.591 -1.7100  0.8221  2.8604
  694MOL0     H95718   7.670   9.474  11.557  0.0680 -0.7848  1.2030
  694MOL0     H95719   7.939   9.498  11.718 -0.1126  0.6574  0.5788
  694MOL0     H95720   7.810   9.621  11.690 -2.9102 -0.3271 -1.0296
  694MOL0     H95721   7.914   9.331  11.910 -1.0315 -1.4560  2.6934
  694MOL0     H95722   7.720   9.149  12.070 -0.1438  0.2600 -0.1442
  694MOL0     H95723   7.593   9.245  12.133 -0.0640  0.3051  0.1091
  694MOL0     H95724   7.741   9.373  12.282 -0.6183  1.5545 -2.6935
  694MOL0     H95725   7.783   9.207  12.324 -1.5729  0.7244  0.3821
  694MOL0     H95726   7.953   9.218  12.140 -0.1583 -1.9970  1.0933
  694MOL0     H95727   7.949   9.392  12.171 -1.4886 -0.2308 -0.7700
  694MOL0     H95728   8.004   9.157  12.357 -1.8569  0.5260  0.0290
  694MOL0     H95729   8.129   9.271  12.307  0.2386  0.1842 -2.2154
  694MOL0     H95730   8.220   9.446  12.393 -1.5361 -4.7618  2.3633
  694MOL0     H95731   8.352   9.765  12.334 -1.3567  1.8572  2.0281
  694MOL0     H95732   8.392   9.591  12.373 -2.1340 -2.4307  1.4234
  694MOL0     H95733   8.394   9.710  12.496  0.0526 -0.6856 -0.1455
  694MOL0     H95734   7.889  10.163  12.484 -1.2155  2.8969  0.6626
  694MOL0     H95735   7.931  10.420  12.552 -1.0705 -1.5434 -0.7909
  694MOL0     H95736   8.252  10.644  12.769  0.5077 -1.5765  2.0599
  694MOL0     H95737   8.311  10.476  12.776 -1.3464 -1.2388 -1.0836
  694MOL0     H95738   8.422  10.614  12.596 -1.1283  3.8348  2.2505
  694MOL0     H95739   8.340  10.475  12.525  3.0070 -0.2469 -0.6846
  694MOL0     H95740   8.137  10.630  12.489 -0.0624 -1.1865 -2.0729
  694MOL0     H95741   8.264  10.664  12.396  0.9154  2.7896  0.0963
  694MOL0     H95742   8.332  10.842  12.590  0.9364  0.2582 -0.5936
  694MOL0     H95743   8.156  10.829  12.640 -1.3480  1.0349 -1.2582
  694MOL0     H95744   8.229  11.022  12.472 -1.5257  0.6927  0.2083
  694MOL0     H95745   8.231  10.872  12.370  2.3288 -2.6523  2.7491
  694MOL0     H95746   8.003  10.999  12.524  0.5664  1.4183 -0.8250
  694MOL0     H95747   7.970  10.863  12.428  0.1084  0.3960  0.7847
  694MOL0     H95748   8.047  11.134  12.313 -2.7386  0.4441 -1.8313
  694MOL0     H95749   7.908  11.042  12.282  0.4218 -2.7824 -1.4039
  694MOL0     H95750   8.168  10.992  12.162 -1.1493  5.3426  0.8404
  694MOL0     H95751   8.026  11.041  12.089  0.5635  2.3925  1.0182
  694MOL0     H95752   8.217  10.282  12.823 -0.8486 -0.4933  0.2343
  694MOL0     H95753   8.211  10.056  12.723  2.4177  1.4914 -1.2735
  694MOL0     H95754   7.887   9.777  12.507 -1.0450 -1.3496  0.0081
  694MOL0     H95755   7.817   9.561  12.485 -0.7239  0.8943 -2.9851
  694MOL0     H95756   7.730   8.811  10.851 -2.7672  1.3585  0.0140
  694MOL0     H95757   7.707   8.570  10.878  0.3316 -0.6719  0.4308
  694MOL0     H95758   7.515   8.218  11.060 -0.2933 -1.0426 -1.6320
  694MOL0     H95759   7.498   8.004  11.000 -0.2891  0.8794  1.3078
  694MOL0     H95760   7.518   7.782  11.161 -1.3525  2.9354 -1.3872
  694MOL0     H95761   7.473   7.780  10.996 -1.0608  0.5009  1.0691
  694MOL0     H95762   7.598   7.583  10.934  1.1763 -0.8891  0.0256
  694MOL0     H95763   7.456   7.567  11.041 -0.6540  1.9964 -0.1007
  694MOL0     H95764   7.728   7.569  11.175  0.2535  0.3057 -0.0027
  694MOL0     H95765   7.563   7.545  11.244 -0.0560  3.0026 -0.1938
  694MOL0     H95766   7.694   7.351  11.035 -0.6871 -0.6087 -0.4703
  694MOL0     H95767   7.526   7.344  11.111  0.4606  0.5301 -3.7741
  694MOL0     H95768   7.791   7.210  11.414 -0.6300  3.3505  1.9893
  694MOL0     H95769   7.899   7.910  11.117 -0.0329 -0.9343 -0.7978
  694MOL0     H95770   7.981   8.154  11.288 -2.1834 -1.0366 -0.3013
  694MOL0     H95771   8.061   8.110  11.134  0.3638  1.0802 -0.5817
  694MOL0     H95772   8.000   8.266  11.152 -4.3242  1.0941 -1.2474
  695MOL0     O95773  10.364   2.762   1.562  0.5030  0.2240 -0.3007
  695MOL0     C95774  10.464   2.744   1.631  0.3912 -0.0279 -0.1505
  695MOL0     O95775  10.485   2.812   1.751  0.8528 -0.3418 -0.2702
  695MOL0     C95776  10.394   2.880   1.828  0.5312 -0.2010  0.0031
  695MOL0     C95777  10.452   2.930   1.946  0.5974 -0.0039 -0.2929
  695MOL0     C95778  10.377   3.010   2.035 -0.6496  0.1716 -0.2414
  695MOL0     C95779  10.237   3.045   2.009  0.0552  0.4157 -0.6517
  695MOL0     O95780  10.160   3.125   2.085  1.2042 -0.1277 -0.8060
  695MOL0     C95781  10.206   3.154   2.217  0.9164 -0.4414  0.1523
  695MOL0     C95782  10.098   3.228   2.299 -0.0360  0.0748  0.6028
  695MOL0     C95783  10.060   3.367   2.237 -0.4228 -0.4901  0.0341
  695MOL0     C95784  10.001   3.468   2.344  0.4027  0.4033  0.9529
  695MOL0     C95785   9.951   3.596   2.273  0.2907 -0.3247  0.6462
  695MOL0     C95786   9.900   3.702   2.374 -0.5133 -0.3701  0.5253
  695MOL0     C95787   9.878   3.839   2.307  0.4531  0.2213  0.5695
  695MOL0     C95788   9.767   3.859   2.201 -0.2844  1.0648 -0.3563
  695MOL0     N95789   9.636   3.864   2.258 -0.0611  0.0247 -0.3423
  695MOL0     C95790   9.559   3.749   2.292  0.2753 -0.4763  0.8395
  695MOL0     C95791   9.448   3.796   2.343  0.2973 -0.3950  0.6037
  695MOL0     C95792   9.341   3.701   2.382 -0.0723 -0.1428  0.3193
  695MOL0     C95793   9.346   3.673   2.531  1.1942  0.5087 -0.3394
  695MOL0     C95794   9.476   3.612   2.584  0.7512  0.7293 -0.6250
  695MOL0     C95795   9.468   3.599   2.737 -0.3231  1.3477 -0.3828
  695MOL0     O95796   9.474   3.738   2.795  0.2787  0.4561  0.6841
  695MOL0     C95797   9.536   3.744   2.911 -0.1091  0.5627 -0.6036
  695MOL0     C95798   9.462   3.733   3.024 -0.4925 -0.3526 -0.4947
  695MOL0     C95799   9.523   3.730   3.152  0.0572  0.7695 -0.8386
  695MOL0     C95800   9.435   3.711   3.270 -0.7473 -0.1051  0.0769
  695MOL0     C95801   9.666   3.747   3.159 -0.7706  0.1934  0.0803
  695MOL0     C95802   9.756   3.758   3.288 -0.5548 -1.2274  0.4086
  695MOL0     O95803   9.886   3.763   3.262 -0.4500  0.0918  0.2449
  695MOL0     C95804   9.976   3.785   3.362  0.1755  0.7107  0.3848
  695MOL0     C95805   9.963   3.874   3.462 -0.8067 -0.3572  0.1311
  695MOL0     C95806  10.064   3.870   3.559  0.0520 -0.3520  0.4339
  695MOL0     C95807  10.176   3.797   3.549 -0.5670 -0.2177 -0.3535
  695MOL0     O95808  10.281   3.818   3.634  0.3090  0.0118 -0.2369
  695MOL0     C95809  10.419   3.807   3.588  0.3151  0.4715 -0.1066
  695MOL0     C95810  10.511   3.885   3.682  0.7524 -0.9287 -0.0235
  695MOL0     C95811  10.481   4.034   3.693 -0.3925  0.3964 -0.7606
  695MOL0     C95812  10.607   4.129   3.713  0.1482  0.5125  0.8613
  695MOL0     C95813  10.677   4.090   3.848  0.2154  0.0421  0.8546
  695MOL0     C95814  10.766   4.206   3.886 -0.2396  0.4451 -0.0388
  695MOL0     C95815  10.844   4.166   4.007 -0.7728  0.5275  1.0567
  695MOL0     C95816  10.921   4.292   4.064 -1.6652 -0.5031 -0.2369
  695MOL0    Cl95817  10.801   4.426   4.102 -0.2507 -0.3870 -0.3836
  695MOL0     C95818  10.188   3.701   3.447  0.2213  0.1675  1.3950
  695MOL0     C95819  10.089   3.701   3.348  0.1400 -0.0432 -0.1309
  695MOL0     O95820   9.702   3.772   3.393  0.3397  0.2762 -0.9242
  695MOL0     C95821   9.740   3.755   3.037 -0.5728  0.0546  0.3976
  695MOL0     C95822   9.672   3.758   2.913  0.5238  0.5217 -0.5652
  695MOL0     N95823   9.470   3.934   2.368  0.1847  0.0506  0.1361
  695MOL0     N95824   9.584   3.975   2.327 -0.5115 -0.6240 -0.4869
  695MOL0     C95825  10.181   2.991   1.886  0.0857 -0.6968 -0.6350
  695MOL0     C95826  10.260   2.909   1.796 -0.5325 -0.2139 -0.3959
  695MOL0     C95827  10.557   2.634   1.590  0.2421  0.0690 -0.6635
  695MOL0     C95828  10.678   2.626   1.665  1.0325  1.1627  0.3726
  695MOL0     C95829  10.770   2.533   1.642 -0.3229  0.1046 -0.0938
  695MOL0     C95830  10.759   2.440   1.540  0.6497 -0.3555  1.0545
  695MOL0     O95831  10.842   2.341   1.503 -0.5134 -0.6991 -0.5537
  695MOL0     C95832  10.955   2.294   1.584 -0.5992 -0.2022  0.5957
  695MOL0     C95833  10.916   2.184   1.678 -0.0771  0.2308 -0.5827
  695MOL0     C95834  11.039   2.094   1.720  0.2765 -0.3468 -0.1498
  695MOL0     C95835  10.995   1.998   1.830  0.2726  0.1101 -0.5466
  695MOL0     C95836  10.886   1.906   1.796 -0.5141  0.3668 -0.6142
  695MOL0     C95837  10.787   1.843   1.764 -0.6393 -0.7921 -0.0140
  695MOL0     C95838  10.640   2.441   1.468 -0.7695 -0.1633 -0.2571
  695MOL0     C95839  10.545   2.540   1.487  0.1253 -0.0713 -0.2784
  695MOL0     C95840  10.434   2.535   1.394  0.3192 -0.7585  0.5279
  695MOL0     H95841  10.557   2.907   1.960  1.5467  1.8561 -3.3568
  695MOL0     H95842  10.421   3.043   2.129 -1.1954 -1.1866  0.5067
  695MOL0     H95843  10.289   3.224   2.207 -1.8570  2.8140 -4.6163
  695MOL0     H95844  10.231   3.059   2.266 -0.2046 -0.1153  1.3989
  695MOL0     H95845  10.007   3.168   2.298 -0.9267  1.3020  2.2334
  695MOL0     H95846  10.126   3.241   2.404 -0.5992 -0.7057  0.8554
  695MOL0     H95847  10.136   3.414   2.174 -0.7227  1.6365  1.1876
  695MOL0     H95848   9.980   3.347   2.165 -2.4561  1.3360  1.6392
  695MOL0     H95849   9.909   3.423   2.382 -0.1093 -0.5965 -1.2689
  695MOL0     H95850  10.071   3.503   2.421 -1.0567  5.2209  0.4153
  695MOL0     H95851   9.862   3.569   2.215  0.2169  0.7954  0.2171
  695MOL0     H95852  10.030   3.639   2.210 -0.8464  2.1980  0.8266
  695MOL0     H95853   9.807   3.668   2.421 -0.8489 -2.0447 -1.2261
  695MOL0     H95854   9.977   3.707   2.451  0.5564 -0.8001 -0.4886
  695MOL0     H95855   9.970   3.863   2.253 -0.0560  0.2576 -0.3080
  695MOL0     H95856   9.882   3.909   2.390  2.8761  1.1168 -0.2255
  695MOL0     H95857   9.786   3.949   2.142  0.1674  0.8103 -0.6121
  695MOL0     H95858   9.776   3.775   2.131 -3.2161  2.3965 -2.5036
  695MOL0     H95859   9.580   3.647   2.260  2.3391  0.1207  0.1013
  695MOL0     H95860   9.347   3.608   2.325  0.1997  2.0477 -3.5421
  695MOL0     H95861   9.246   3.751   2.360  1.3680  2.3276 -0.6526
  695MOL0     H95862   9.338   3.769   2.582 -0.1521  0.3161 -0.1372
  695MOL0     H95863   9.256   3.614   2.550  0.9972  0.0243 -2.4923
  695MOL0     H95864   9.483   3.508   2.548 -3.1833  0.4263 -0.9677
  695MOL0     H95865   9.567   3.662   2.551  0.5504  0.9481 -0.8504
  695MOL0     H95866   9.379   3.540   2.762  1.1239 -1.3028 -1.0695
  695MOL0     H95867   9.549   3.536   2.776 -2.7160  0.5181  3.7987
  695MOL0     H95868   9.353   3.729   3.025 -0.5719  0.0519  2.5825
  695MOL0     H95869   9.435   3.802   3.331  0.4197  0.7678 -1.1771
  695MOL0     H95870   9.472   3.624   3.326  1.1212 -0.3006 -1.3856
  695MOL0     H95871   9.333   3.685   3.239  0.6486 -2.2883 -3.1425
  695MOL0     H95872   9.888   3.952   3.470  1.2420  1.9218 -1.3853
  695MOL0     H95873  10.072   3.952   3.629  3.1242  2.8378 -3.2043
  695MOL0     H95874  10.452   3.705   3.566  3.3261  1.1620  0.7529
  695MOL0     H95875  10.422   3.856   3.491  1.0450  0.8236  0.0900
  695MOL0     H95876  10.520   3.844   3.783  2.0610 -2.6688 -0.7925
  695MOL0     H95877  10.611   3.882   3.638 -0.3450 -0.0678 -2.8267
  695MOL0     H95878  10.419   4.046   3.783 -1.0361 -3.7044 -0.5040
  695MOL0     H95879  10.412   4.061   3.613 -4.1559  0.0348  2.0722
  695MOL0     H95880  10.568   4.229   3.732 -0.7624  0.6540 -1.4720
  695MOL0     H95881  10.687   4.135   3.638  0.1901  0.4910  0.9042
  695MOL0     H95882  10.604   4.067   3.927 -0.9852  0.4553 -0.0910
  695MOL0     H95883  10.738   4.000   3.837  2.7954  1.8904 -1.2321
  695MOL0     H95884  10.718   4.302   3.908  0.8335  0.8533  0.5545
  695MOL0     H95885  10.822   4.232   3.796 -0.0189 -0.1327 -0.0676
  695MOL0     H95886  10.912   4.086   3.977 -3.0909 -1.6723  1.3855
  695MOL0     H95887  10.770   4.142   4.083 -1.9951  1.0082  0.0500
  695MOL0     H95888  10.997   4.338   4.000  2.7725  2.7703  6.3090
  695MOL0     H95889  10.981   4.266   4.151  0.1276 -1.8331 -1.7745
  695MOL0     H95890  10.280   3.645   3.432  0.4298  1.1381 -1.6524
  695MOL0     H95891  10.104   3.640   3.259  2.0761  2.2511 -1.5143
  695MOL0     H95892   9.847   3.768   3.028 -0.0936 -3.6398 -1.3982
  695MOL0     H95893   9.726   3.772   2.820 -0.0575 -1.1125 -1.1850
  695MOL0     H95894  10.076   3.004   1.864 -0.3587  0.9904  1.9608
  695MOL0     H95895  10.203   2.878   1.709  1.3676  2.0601 -2.6085
  695MOL0     H95896  10.689   2.695   1.748 -1.1372  0.5304  1.2426
  695MOL0     H95897  10.861   2.525   1.700  1.1065  0.0995 -2.1972
  695MOL0     H95898  11.041   2.272   1.521  0.8353  0.9908  2.0667
  695MOL0     H95899  11.000   2.373   1.645 -1.0244  0.6213 -0.1296
  695MOL0     H95900  10.849   2.129   1.611  0.4623 -0.7911 -0.2987
  695MOL0     H95901  10.859   2.230   1.759 -2.1489 -2.0502 -0.6318
  695MOL0     H95902  11.081   2.036   1.638 -1.5401 -2.0523  0.0770
  695MOL0     H95903  11.126   2.154   1.749 -0.5110  1.7725 -1.9012
  695MOL0     H95904  10.972   2.049   1.923  3.8717 -1.1669  1.2484
  695MOL0     H95905  11.082   1.940   1.861  0.6003  1.0568  0.3523
  695MOL0     H95906  10.719   1.774   1.718  0.5234 -2.3178  0.4982
  695MOL0     H95907  10.606   2.368   1.395 -2.8851 -0.8137  1.2484
  695MOL0     H95908  10.447   2.463   1.312 -0.1584 -0.3159  0.0541
  695MOL0     H95909  10.341   2.516   1.449 -1.4970  1.3404 -1.6263
  695MOL0     H95910  10.406   2.630   1.349  2.9745 -0.5426 -0.8475
  696MOL0     O95911   4.446   6.101   8.908 -0.0919  0.5472  0.5767
  696MOL0     C95912   4.349   6.087   8.827 -0.6488 -0.2968  0.7243
  696MOL0     O95913   4.222   6.131   8.854 -0.4574 -0.2857 -0.2648
  696MOL0     C95914   4.191   6.211   8.963 -0.0993 -0.5352 -0.5383
  696MOL0     C95915   4.112   6.328   8.957 -0.4866 -0.7851 -0.6150
  696MOL0     C95916   4.095   6.409   9.064 -0.5038 -0.5761 -0.4402
  696MOL0     C95917   4.129   6.374   9.193  0.7456  0.4869 -0.4900
  696MOL0     O95918   4.120   6.465   9.293  0.5186 -0.2807 -0.4629
  696MOL0     C95919   4.109   6.425   9.429 -0.1211  0.0295  0.6885
  696MOL0     C95920   4.034   6.532   9.502 -0.2976  0.8635 -0.8349
  696MOL0     C95921   4.118   6.652   9.544  0.3114 -0.4794 -0.1493
  696MOL0     C95922   4.126   6.764   9.440  0.9755  1.3038  0.4619
  696MOL0     C95923   3.986   6.839   9.421 -0.6192  0.0982  0.2408
  696MOL0     C95924   3.961   6.933   9.543 -0.2010  1.0981 -0.2750
  696MOL0     C95925   3.832   7.006   9.528 -0.8067  0.5204  0.5387
  696MOL0     C95926   3.702   6.932   9.538  1.5554 -0.1608  0.5820
  696MOL0     N95927   3.580   7.012   9.554  0.0367 -0.0948  0.3955
  696MOL0     C95928   3.563   7.103   9.656 -0.1230  0.2164  0.4538
  696MOL0     C95929   3.457   7.179   9.618  0.8572 -1.2065 -0.1098
  696MOL0     C95930   3.375   7.289   9.693  0.1858  0.3761 -0.2899
  696MOL0     C95931   3.302   7.229   9.819  1.0600 -0.1727 -0.3225
  696MOL0     C95932   3.213   7.324   9.892 -0.2930 -0.3555 -0.2994
  696MOL0     C95933   3.174   7.282  10.036  0.2463 -0.3084 -0.4363
  696MOL0     O95934   3.138   7.144  10.042  1.0432  0.5517 -0.6667
  696MOL0     C95935   3.004   7.117  10.074 -0.6548  0.4455  0.7672
  696MOL0     C95936   2.965   7.091  10.203 -0.6746  1.0993 -0.8672
  696MOL0     C95937   2.832   7.056  10.234 -0.4060  0.2639 -0.5731
  696MOL0     C95938   2.797   6.983  10.353 -0.4795  0.2042 -0.0990
  696MOL0     C95939   2.731   7.075  10.134  0.1241 -0.3787 -0.4601
  696MOL0     C95940   2.591   7.036  10.156 -1.0807  0.0580 -0.2261
  696MOL0     O95941   2.556   6.912  10.108  0.8690 -0.3948 -0.3385
  696MOL0     C95942   2.442   6.840  10.150 -0.0145 -0.8493 -0.4340
  696MOL0     C95943   2.421   6.724  10.074 -0.6183 -0.1974 -0.5710
  696MOL0     C95944   2.308   6.655  10.106 -0.0124  0.2674  0.7265
  696MOL0     C95945   2.222   6.695  10.209  0.1879  0.4230  0.1851
  696MOL0     O95946   2.112   6.624  10.204 -0.0802  0.0603  0.1586
  696MOL0     C95947   1.989   6.703  10.222  0.5165  0.3825 -0.3835
  696MOL0     C95948   1.876   6.604  10.222 -0.3979  1.1731  0.9411
  696MOL0     C95949   1.835   6.558  10.080  0.4646 -0.2693  0.9346
  696MOL0     C95950   1.714   6.472  10.105  0.9266 -0.2317  0.7277
  696MOL0     C95951   1.582   6.541  10.142 -0.5255  0.1223 -0.2655
  696MOL0     C95952   1.465   6.446  10.170  0.8227  0.7826  0.2591
  696MOL0     C95953   1.452   6.433  10.321 -1.1848  0.2231 -0.7354
  696MOL0     C95954   1.359   6.532  10.376 -0.3625  0.1837 -0.3873
  696MOL0    Cl95955   1.389   6.576  10.543 -0.2961  0.1711  0.0193
  696MOL0     C95956   2.250   6.810  10.284 -0.1340  0.0802  0.7322
  696MOL0     C95957   2.362   6.887  10.253 -0.5687 -0.4415  0.0584
  696MOL0     O95958   2.528   7.117  10.220  0.4844  0.3041  0.8640
  696MOL0     C95959   2.772   7.125  10.007 -0.2430 -0.3753 -0.0474
  696MOL0     C95960   2.904   7.137   9.975  0.3966 -0.3777  0.2534
  696MOL0     N95961   3.414   7.132   9.499 -0.3817 -0.1459 -0.4301
  696MOL0     N95962   3.492   7.036   9.455  0.9373  0.4648  0.3655
  696MOL0     C95963   4.186   6.251   9.208  0.1037  0.5356  0.1791
  696MOL0     C95964   4.223   6.174   9.096 -0.0152 -0.1450  0.1899
  696MOL0     C95965   4.385   6.071   8.682  0.2497  0.1315 -0.3625
  696MOL0     C95966   4.487   5.991   8.653  0.5474 -0.2089  0.2464
  696MOL0     C95967   4.525   5.969   8.523  0.7894 -0.0112  0.9631
  696MOL0     C95968   4.452   6.017   8.408  0.6743 -0.1162 -0.8606
  696MOL0     O95969   4.480   5.992   8.276  0.2284 -0.1744  0.0752
  696MOL0     C95970   4.615   6.031   8.235 -0.9664  1.2168 -0.1063
  696MOL0     C95971   4.664   6.167   8.273 -0.0128 -0.0683  0.0205
  696MOL0     C95972   4.806   6.197   8.224  0.5555 -0.8449 -0.4229
  696MOL0     C95973   4.867   6.304   8.322 -0.1740 -0.1410  0.3470
  696MOL0     C95974   5.008   6.341   8.289 -0.7386 -0.3698  0.4830
  696MOL0     C95975   5.122   6.365   8.266 -0.1357 -0.9647  0.6428
  696MOL0     C95976   4.337   6.092   8.444 -0.5434  0.1452 -0.3544
  696MOL0     C95977   4.322   6.134   8.574  0.6850 -0.0604 -0.4297
  696MOL0     C95978   4.211   6.245   8.584 -0.2652 -0.1310  0.6591
  696MOL0     H95979   4.082   6.369   8.861 -2.2701 -0.9931 -0.1834
  696MOL0     H95980   4.036   6.499   9.048  1.1785  1.6542  4.3295
  696MOL0     H95981   4.203   6.401   9.480 -1.3341  0.1566  3.1706
  696MOL0     H95982   4.050   6.334   9.435 -0.9671 -0.1674 -5.2425
  696MOL0     H95983   3.943   6.564   9.451  0.1693  0.1820 -2.1497
  696MOL0     H95984   4.014   6.477   9.594 -0.1839  0.5224 -1.0105
  696MOL0     H95985   4.073   6.691   9.636 -1.6041  0.7352 -1.5172
  696MOL0     H95986   4.219   6.616   9.565 -0.3907 -2.0923  0.5866
  696MOL0     H95987   4.195   6.838   9.482  2.4311 -0.0312  0.5228
  696MOL0     H95988   4.153   6.720   9.344 -5.9034 -0.6123 -1.1195
  696MOL0     H95989   3.906   6.766   9.404 -2.8703  2.2142  1.1661
  696MOL0     H95990   3.992   6.898   9.329 -0.2944  0.3620  0.4321
  696MOL0     H95991   3.949   6.874   9.634  1.9130 -0.2114 -0.7917
  696MOL0     H95992   4.040   7.008   9.553  1.2090 -0.5814  2.3077
  696MOL0     H95993   3.844   7.067   9.438 -2.9244  1.2253  0.6595
  696MOL0     H95994   3.841   7.065   9.620  0.8003  0.0989  0.6730
  696MOL0     H95995   3.696   6.884   9.439  3.5841  2.3025 -0.8813
  696MOL0     H95996   3.705   6.856   9.616 -0.7586 -3.3651 -2.1433
  696MOL0     H95997   3.606   7.101   9.755 -0.2201  2.4769  0.5820
  696MOL0     H95998   3.293   7.329   9.631  0.6431  1.2972 -0.3148
  696MOL0     H95999   3.450   7.366   9.710  1.5577 -0.5788 -1.7109
  696MOL0     H96000   3.248   7.143   9.777  1.7939  0.1665 -2.0417
  696MOL0     H96001   3.371   7.202   9.899 -1.3863  1.5852  2.5736
  696MOL0     H96002   3.265   7.420   9.886 -2.6227  0.8656 -3.4275
  696MOL0     H96003   3.123   7.334   9.831 -1.8781 -1.1587  1.7616
  696MOL0     H96004   3.262   7.303  10.097  0.2180 -0.8076 -0.2232
  696MOL0     H96005   3.090   7.346  10.064 -1.8303 -2.8632 -0.4695
  696MOL0     H96006   3.047   7.095  10.274  0.4967 -2.2868 -1.8682
  696MOL0     H96007   2.862   6.896  10.363  0.5543  0.4844 -3.2260
  696MOL0     H96008   2.697   6.938  10.349 -0.9460  1.2326 -0.5302
  696MOL0     H96009   2.806   7.048  10.441  1.5330  1.7426 -1.3431
  696MOL0     H96010   2.489   6.696   9.994 -1.0642  3.5908 -2.4580
  696MOL0     H96011   2.281   6.566  10.049  1.0706  0.6768 -0.4813
  696MOL0     H96012   1.989   6.756  10.318  2.8234  0.6609 -0.4834
  696MOL0     H96013   1.993   6.777  10.141  1.5181 -2.8046 -3.5172
  696MOL0     H96014   1.890   6.514  10.282 -0.6888 -1.8076 -3.0533
  696MOL0     H96015   1.793   6.668  10.254  0.3961  3.6632 -1.5376
  696MOL0     H96016   1.918   6.510  10.028  0.4193  0.0736  0.5416
  696MOL0     H96017   1.799   6.647  10.028  3.5369  1.1745  1.0330
  696MOL0     H96018   1.725   6.397  10.184 -0.2209 -1.0926  0.0899
  696MOL0     H96019   1.697   6.419  10.011  0.8478 -0.4850  0.8856
  696MOL0     H96020   1.596   6.621  10.216  2.5614  0.2640 -0.8785
  696MOL0     H96021   1.541   6.591  10.054  2.2615  1.4996 -0.8800
  696MOL0     H96022   1.465   6.354  10.111 -0.6043  2.0894 -1.9076
  696MOL0     H96023   1.370   6.491  10.140  1.3592  0.2763 -2.5055
  696MOL0     H96024   1.548   6.454  10.369 -2.5801  3.4726  0.9928
  696MOL0     H96025   1.427   6.329  10.345 -0.1697 -0.7410 -3.4647
  696MOL0     H96026   1.258   6.491  10.369 -0.5217  0.5205 -0.0754
  696MOL0     H96027   1.355   6.626  10.321  0.0749  0.6181  0.3055
  696MOL0     H96028   2.188   6.829  10.371 -0.1016 -1.2097  1.0699
  696MOL0     H96029   2.379   6.971  10.319  2.6336 -0.7106 -0.2592
  696MOL0     H96030   2.693   7.142   9.935  1.0128 -1.1104 -1.6604
  696MOL0     H96031   2.932   7.178   9.878 -2.0577  2.0737  0.4752
  696MOL0     H96032   4.215   6.212   9.305  0.8591  1.6441  0.4144
  696MOL0     H96033   4.271   6.080   9.123 -1.7387 -0.3760  2.8439
  696MOL0     H96034   4.546   5.948   8.733  0.5042 -1.8891 -0.5759
  696MOL0     H96035   4.607   5.903   8.496  0.0987  0.7547 -3.8812
  696MOL0     H96036   4.678   5.954   8.281  0.2273  2.1861 -0.0682
  696MOL0     H96037   4.610   6.014   8.127 -0.0931 -1.3763  0.1822
  696MOL0     H96038   4.670   6.170   8.383  0.3570 -0.8476  0.0275
  696MOL0     H96039   4.590   6.240   8.239  2.2224 -0.0363 -5.7989
  696MOL0     H96040   4.857   6.101   8.230 -1.3617 -1.9151 -0.4461
  696MOL0     H96041   4.798   6.222   8.118 -1.9472 -3.0672 -0.8635
  696MOL0     H96042   4.855   6.266   8.424 -0.8511 -2.1048 -0.4137
  696MOL0     H96043   4.819   6.402   8.314  1.9602  0.8803 -0.7029
  696MOL0     H96044   5.223   6.400   8.262  0.3663 -2.4568 -0.0485
  696MOL0     H96045   4.272   6.133   8.368 -0.4668  1.5313  0.3069
  696MOL0     H96046   4.194   6.295   8.489 -0.5342 -2.2844 -0.4891
  696MOL0     H96047   4.124   6.182   8.605 -1.0415 -0.1093 -2.1141
  696MOL0     H96048   4.218   6.325   8.658 -0.0974 -1.2114  1.8613
  697MOL0     O96049   7.171   4.097   7.862  0.2436 -0.4592 -0.1585
  697MOL0     C96050   7.248   4.187   7.867  0.2326  0.7175  0.4410
  697MOL0     O96051   7.383   4.180   7.890 -0.7756  0.0214 -0.4714
  697MOL0     C96052   7.443   4.056   7.918 -0.4147  0.1634 -1.1228
  697MOL0     C96053   7.550   4.004   7.848  0.0503 -0.5569 -0.1530
  697MOL0     C96054   7.600   3.883   7.872  0.4836 -0.4087  0.7653
  697MOL0     C96055   7.558   3.809   7.986 -0.0393  0.3236 -0.3721
  697MOL0     O96056   7.622   3.693   8.032  0.0578  0.8125 -0.4365
  697MOL0     C96057   7.763   3.716   8.055 -0.2765 -1.0564  0.7031
  697MOL0     C96058   7.791   3.828   8.168 -0.8775  0.1562 -0.5152
  697MOL0     C96059   7.943   3.856   8.171 -0.4499 -0.7599  0.2782
  697MOL0     C96060   8.000   3.927   8.046 -0.0931 -0.9824  0.3451
  697MOL0     C96061   8.150   3.973   8.059  0.0109 -0.0418 -0.3618
  697MOL0     C96062   8.186   4.051   8.182 -0.2749  1.0133  1.5783
  697MOL0     C96063   8.336   4.081   8.199  0.8395  0.2988 -0.1019
  697MOL0     C96064   8.408   4.161   8.082  0.6493 -0.5144 -0.8639
  697MOL0     N96065   8.366   4.300   8.101 -0.4321  0.8128  0.2922
  697MOL0     C96066   8.291   4.369   8.012  0.5357 -1.2284  0.3181
  697MOL0     C96067   8.295   4.501   8.041  0.1101  0.1007  0.5873
  697MOL0     C96068   8.215   4.615   7.972 -0.5228  0.9195  0.8980
  697MOL0     C96069   8.265   4.634   7.815 -0.2794 -0.3159 -0.5833
  697MOL0     C96070   8.237   4.513   7.726 -0.5609  1.1717 -0.1413
  697MOL0     C96071   8.223   4.550   7.578 -0.7450  0.6316 -0.0917
  697MOL0     O96072   8.174   4.446   7.492  0.2889  0.1592  0.3917
  697MOL0     C96073   8.138   4.473   7.370  0.3554 -0.7476 -0.5653
  697MOL0     C96074   8.105   4.368   7.295  0.1471  0.1311 -0.2147
  697MOL0     C96075   8.057   4.381   7.169  0.2897  0.4986 -0.2638
  697MOL0     C96076   7.998   4.254   7.097 -0.1108  0.0812  0.3927
  697MOL0     C96077   8.059   4.503   7.105 -1.0995  0.7541 -0.5732
  697MOL0     C96078   8.019   4.534   6.967  0.5381 -0.4259 -0.6191
  697MOL0     O96079   7.941   4.638   6.955  0.0150 -0.3713 -0.5041
  697MOL0     C96080   7.914   4.673   6.824 -0.6268 -0.1981 -0.4367
  697MOL0     C96081   7.967   4.796   6.778  0.6233 -0.9785 -0.7439
  697MOL0     C96082   7.923   4.847   6.663  0.1261  0.1862  0.8398
  697MOL0     C96083   7.827   4.782   6.584  0.4953 -0.4449 -0.1579
  697MOL0     O96084   7.783   4.834   6.464 -0.4565 -0.5233 -0.5537
  697MOL0     C96085   7.818   4.971   6.437  0.4351  0.4506 -0.5721
  697MOL0     C96086   7.778   5.008   6.292  0.1644 -0.0689  0.5620
  697MOL0     C96087   7.848   5.143   6.266 -0.2010 -0.0507 -1.3407
  697MOL0     C96088   7.828   5.216   6.131 -0.2693 -0.3721  0.3216
  697MOL0     C96089   7.696   5.283   6.114  1.2239 -0.8233 -0.3350
  697MOL0     C96090   7.724   5.439   6.133  0.2219 -0.9704  0.1108
  697MOL0     C96091   7.603   5.525   6.077 -0.1932 -0.5196  1.0900
  697MOL0     C96092   7.653   5.663   6.105  0.9178  0.0930  0.5381
  697MOL0    Cl96093   7.547   5.762   5.997  0.4211  0.0014  0.2630
  697MOL0     C96094   7.782   4.658   6.622 -0.0162  0.0223 -0.7319
  697MOL0     C96095   7.822   4.605   6.748  0.6719  0.7212  1.0314
  697MOL0     O96096   8.079   4.481   6.878  0.2557  0.3274 -0.1624
  697MOL0     C96097   8.118   4.610   7.176 -0.1372 -0.2009  0.5233
  697MOL0     C96098   8.145   4.600   7.311 -0.2948 -0.1955  0.1408
  697MOL0     N96099   8.377   4.513   8.152 -0.1690  0.3553 -0.1916
  697MOL0     N96100   8.415   4.388   8.191  0.4149 -0.8041  0.6428
  697MOL0     C96101   7.452   3.865   8.061 -0.3383  0.3900  0.9306
  697MOL0     C96102   7.384   3.986   8.029 -0.3196 -0.0245  0.6714
  697MOL0     C96103   7.195   4.322   7.857 -0.4151  0.3498  0.1405
  697MOL0     C96104   7.288   4.416   7.822  0.5096 -0.4295 -0.1199
  697MOL0     C96105   7.250   4.542   7.809 -0.3617  0.8959 -0.0590
  697MOL0     C96106   7.113   4.586   7.820  0.1718 -0.4037  0.2227
  697MOL0     O96107   7.063   4.709   7.793 -0.0240 -0.8488  0.2350
  697MOL0     C96108   7.150   4.806   7.741  1.1854  0.1625  0.4683
  697MOL0     C96109   7.090   4.922   7.665 -0.0706  0.0899  0.3929
  697MOL0     C96110   6.990   4.869   7.570  0.0209 -0.6336  0.1676
  697MOL0     C96111   6.944   4.992   7.483  0.1063 -0.8421 -0.2266
  697MOL0     C96112   6.855   4.957   7.367 -0.1826  0.3784  0.1996
  697MOL0     C96113   6.783   4.920   7.277  0.7023 -0.3391 -0.1200
  697MOL0     C96114   7.015   4.490   7.854  0.7621 -0.2147 -0.2482
  697MOL0     C96115   7.055   4.359   7.872 -0.8837  0.9163  0.1818
  697MOL0     C96116   6.946   4.268   7.919 -0.3589 -0.2187 -0.0903
  697MOL0     H96117   7.598   4.067   7.773 -1.5369  1.0737  0.1259
  697MOL0     H96118   7.680   3.844   7.809  0.8386  0.6630  0.5328
  697MOL0     H96119   7.818   3.731   7.962 -0.8078  0.0378  0.5437
  697MOL0     H96120   7.813   3.624   8.086  0.1920 -1.1451 -0.2643
  697MOL0     H96121   7.730   3.915   8.138 -2.6482 -1.1602 -0.8987
  697MOL0     H96122   7.762   3.787   8.265 -0.4310 -0.9908 -0.8472
  697MOL0     H96123   7.971   3.920   8.256 -4.2200 -0.0289  1.1744
  697MOL0     H96124   7.993   3.759   8.167  1.6352  0.2694 -3.6524
  697MOL0     H96125   8.016   3.859   7.963 -1.6528  0.0457 -0.8469
  697MOL0     H96126   7.943   4.016   8.019  0.4498 -0.0983  1.9678
  697MOL0     H96127   8.181   4.025   7.968  0.4334  0.0823 -0.1510
  697MOL0     H96128   8.222   3.891   8.066 -0.3279 -0.2029  2.7204
  697MOL0     H96129   8.135   4.148   8.188  0.3100  1.4705 -0.2116
  697MOL0     H96130   8.166   4.004   8.279  0.5241  0.6556  1.5774
  697MOL0     H96131   8.382   3.985   8.224 -2.8583 -1.1553  1.9403
  697MOL0     H96132   8.355   4.138   8.291  3.1003 -0.7853  0.1563
  697MOL0     H96133   8.516   4.144   8.084  0.4889 -1.6259  0.9284
  697MOL0     H96134   8.364   4.126   7.989 -1.0819  3.6816 -1.8520
  697MOL0     H96135   8.224   4.332   7.935 -1.3907 -0.4199  1.5288
  697MOL0     H96136   8.230   4.710   8.023 -2.1600  1.3216  0.6792
  697MOL0     H96137   8.109   4.595   7.987 -0.2506 -0.3199  1.3639
  697MOL0     H96138   8.205   4.714   7.771  0.7752  0.5990 -0.3997
  697MOL0     H96139   8.363   4.681   7.805  0.1250 -0.4993  1.9456
  697MOL0     H96140   8.314   4.437   7.735 -0.4190  1.4110  0.7999
  697MOL0     H96141   8.137   4.481   7.759  0.1415 -2.2791 -1.0834
  697MOL0     H96142   8.170   4.643   7.558 -0.1719  0.2516 -4.3051
  697MOL0     H96143   8.326   4.572   7.549 -0.1385 -0.7835  0.8617
  697MOL0     H96144   8.106   4.270   7.341 -1.7145  0.8570  1.5556
  697MOL0     H96145   7.893   4.277   7.080 -0.0018  0.2101 -0.1302
  697MOL0     H96146   8.015   4.156   7.143 -0.2394 -0.4267 -0.5953
  697MOL0     H96147   8.046   4.244   6.999 -0.7458 -2.0670  0.2385
  697MOL0     H96148   8.036   4.851   6.842  2.0538 -1.4389 -1.8351
  697MOL0     H96149   7.966   4.939   6.626  0.7851  0.1564  1.5012
  697MOL0     H96150   7.772   5.037   6.511 -2.6936 -1.0087 -1.0422
  697MOL0     H96151   7.926   4.976   6.453  0.0794 -0.9909  3.3425
  697MOL0     H96152   7.815   4.936   6.218  2.2950  3.4624 -2.0882
  697MOL0     H96153   7.669   5.011   6.286  0.2593  0.6687 -2.6969
  697MOL0     H96154   7.950   5.106   6.278 -1.0578 -1.6124  2.4799
  697MOL0     H96155   7.829   5.221   6.340 -4.7597  0.0484 -2.3197
  697MOL0     H96156   7.841   5.137   6.055  2.5209  1.2997 -1.1215
  697MOL0     H96157   7.908   5.290   6.119  1.8958 -2.3260  1.8439
  697MOL0     H96158   7.650   5.275   6.015 -0.2084  2.5296 -0.0788
  697MOL0     H96159   7.614   5.254   6.181  1.0821 -0.3905 -0.3175
  697MOL0     H96160   7.809   5.467   6.070  0.4457  3.5415  2.0580
  697MOL0     H96161   7.737   5.451   6.241  0.5770 -2.2134  0.2175
  697MOL0     H96162   7.511   5.488   6.122  0.4496 -1.8662  1.3464
  697MOL0     H96163   7.598   5.514   5.968  3.5038 -2.1049  0.9020
  697MOL0     H96164   7.757   5.676   6.074  0.2929  0.8288 -1.4022
  697MOL0     H96165   7.644   5.693   6.210  0.0697  1.7898  0.0173
  697MOL0     H96166   7.707   4.607   6.563 -2.5389  2.3721  0.2093
  697MOL0     H96167   7.782   4.508   6.778 -1.9811  1.5725  0.4886
  697MOL0     H96168   8.130   4.708   7.131 -0.6917  0.0521  0.9054
  697MOL0     H96169   8.163   4.693   7.364  1.1966 -0.1557 -0.3825
  697MOL0     H96170   7.418   3.804   8.145  0.4342  0.1272  1.0648
  697MOL0     H96171   7.301   4.036   8.078 -0.3731  0.4894  0.0785
  697MOL0     H96172   7.394   4.396   7.806  0.4744 -0.2149 -0.6381
  697MOL0     H96173   7.328   4.608   7.772  3.8559 -3.6598 -0.3924
  697MOL0     H96174   7.200   4.845   7.830  0.4803  2.4394 -0.0832
  697MOL0     H96175   7.223   4.770   7.668  1.4915  2.6138 -0.5216
  697MOL0     H96176   7.171   4.976   7.614 -0.9086  3.0829  1.9928
  697MOL0     H96177   7.048   4.996   7.734 -0.7388 -1.7443  2.0585
  697MOL0     H96178   7.035   4.800   7.498 -1.7221  1.8098 -3.6359
  697MOL0     H96179   6.904   4.814   7.610 -1.0074 -0.5724 -1.8212
  697MOL0     H96180   7.029   5.036   7.429  1.0350 -1.0528  0.9943
  697MOL0     H96181   6.897   5.068   7.546 -0.4653  0.5104 -2.2155
  697MOL0     H96182   6.702   4.896   7.211  0.9966  1.1992 -1.1048
  697MOL0     H96183   6.916   4.533   7.860  1.5068  1.4103  1.7942
  697MOL0     H96184   6.858   4.324   7.949 -1.4219 -1.5484 -0.6215
  697MOL0     H96185   6.901   4.210   7.838  0.7395  0.2839 -1.0769
  697MOL0     H96186   6.979   4.195   7.995 -0.1896  0.6743  0.7114
  698MOL0     O96187   6.602   5.603  11.279  0.2148  0.6918 -0.3983
  698MOL0     C96188   6.694   5.677  11.255  0.3582  0.3727  1.0889
  698MOL0     O96189   6.701   5.811  11.288 -0.1824  0.0711  0.1150
  698MOL0     C96190   6.617   5.855  11.388  0.5364 -0.8435  0.3592
  698MOL0     C96191   6.669   5.940  11.481  0.2518  0.1876 -0.0827
  698MOL0     C96192   6.586   5.997  11.578 -1.4634  0.5854 -0.2665
  698MOL0     C96193   6.449   5.982  11.578  0.5833  0.2604 -0.8238
  698MOL0     O96194   6.362   6.015  11.681  0.8528 -0.4935 -0.1286
  698MOL0     C96195   6.406   5.999  11.816 -0.4102 -0.4258  0.5280
  698MOL0     C96196   6.432   6.133  11.881  1.5831 -0.6248  0.3758
  698MOL0     C96197   6.556   6.136  11.985  0.2878  0.5238 -0.1429
  698MOL0     C96198   6.706   6.131  11.918  0.0319 -0.2766 -0.1558
  698MOL0     C96199   6.811   6.183  12.019  0.1002 -0.0176 -0.3354
  698MOL0     C96200   6.959   6.147  11.996 -0.0017 -0.0430 -0.4584
  698MOL0     C96201   7.042   6.168  12.127  0.3171 -0.7857 -0.3152
  698MOL0     C96202   7.064   6.318  12.165  0.0572  0.2933 -0.0008
  698MOL0     N96203   7.133   6.337  12.299 -0.4199  0.4869 -0.0012
  698MOL0     C96204   7.087   6.292  12.416 -0.1222 -0.1070  0.1680
  698MOL0     C96205   7.161   6.345  12.511  0.1862 -0.5654  0.5200
  698MOL0     C96206   7.158   6.333  12.661 -0.7460 -0.3228 -0.3030
  698MOL0     C96207   7.264   6.240  12.726 -0.5449 -0.9910  0.5597
  698MOL0     C96208   7.249   6.091  12.687  0.0205 -0.2170  0.2790
  698MOL0     C96209   7.126   6.031  12.738 -0.4210 -0.4766 -0.0567
  698MOL0     O96210   7.014   6.067  12.655 -0.4362 -0.8319 -0.5980
  698MOL0     C96211   6.894   6.018  12.707  0.1898  0.1338 -0.5548
  698MOL0     C96212   6.881   5.887  12.748  0.4195 -0.1162 -1.2756
  698MOL0     C96213   6.761   5.836  12.806  0.5289 -0.3958 -0.6516
  698MOL0     C96214   6.752   5.694  12.869 -0.0996 -0.1968 -0.3803
  698MOL0     C96215   6.645   5.918  12.802  0.1720  0.4838 -0.1822
  698MOL0     C96216   6.508   5.878  12.844 -0.4355  1.2791  0.4040
  698MOL0     O96217   6.495   5.847  12.978  0.3608  0.5658  1.0264
  698MOL0     C96218   6.375   5.808  13.025  0.0583  0.6718  0.7892
  698MOL0     C96219   6.258   5.877  13.007  0.6799 -0.4206 -0.2187
  698MOL0     C96220   6.130   5.824  13.036 -0.1455 -0.0889 -0.2419
  698MOL0     C96221   6.121   5.697  13.103 -0.6296 -0.7040  0.6996
  698MOL0     O96222   6.005   5.629  13.137  0.0491 -0.6516 -0.3813
  698MOL0     C96223   5.873   5.675  13.094  0.5078  0.1693  0.1353
  698MOL0     C96224   5.831   5.612  12.951  0.5436 -0.5323 -0.7027
  698MOL0     C96225   5.681   5.646  12.909 -0.7313  0.2812  0.2979
  698MOL0     C96226   5.584   5.619  13.014 -0.4746  0.5045 -0.2591
  698MOL0     C96227   5.438   5.650  12.963  0.3330  0.5959  0.0306
  698MOL0     C96228   5.324   5.607  13.057  0.1595  0.4278 -0.2367
  698MOL0     C96229   5.189   5.598  12.987 -0.3917  0.0000  0.6908
  698MOL0     C96230   5.065   5.616  13.069  0.3441 -0.3320  1.1127
  698MOL0    Cl96231   5.072   5.775  13.158  0.0339  0.3479  0.0169
  698MOL0     C96232   6.243   5.628  13.120  1.3869 -0.7488  0.0631
  698MOL0     C96233   6.363   5.681  13.083  0.7683 -0.4137  0.9116
  698MOL0     O96234   6.420   5.854  12.755 -0.3676 -0.6102  0.2193
  698MOL0     C96235   6.662   6.047  12.739  0.5037  0.4246  0.3523
  698MOL0     C96236   6.784   6.098  12.692  0.9628  0.2121 -0.9763
  698MOL0     N96237   7.268   6.406  12.440  0.2366 -0.6310  0.0723
  698MOL0     N96238   7.255   6.389  12.311  0.1350  0.4086  0.5945
  698MOL0     C96239   6.398   5.902  11.473 -0.7110 -1.5176 -0.0809
  698MOL0     C96240   6.475   5.834  11.386  0.5423  0.1010 -0.4972
  698MOL0     C96241   6.794   5.625  11.162  0.3469 -0.4448 -0.1081
  698MOL0     C96242   6.746   5.538  11.054 -0.2358 -0.0639 -0.0628
  698MOL0     C96243   6.839   5.491  10.969 -0.2560  0.4772  0.8384
  698MOL0     C96244   6.976   5.515  10.984 -0.6934  0.8934  0.7290
  698MOL0     O96245   7.040   5.472  10.873 -0.3600 -0.1810  0.6037
  698MOL0     C96246   7.186   5.452  10.880  0.0046  0.4375  0.6527
  698MOL0     C96247   7.234   5.340  10.791  0.2239  0.3683 -0.5525
  698MOL0     C96248   7.231   5.379  10.645 -0.2432 -0.2288 -0.2083
  698MOL0     C96249   7.284   5.257  10.568 -0.0007  0.1022  0.0694
  698MOL0     C96250   7.224   5.277  10.434 -0.6224  1.1342  0.8084
  698MOL0     C96251   7.171   5.303  10.326  0.2651  0.2162 -0.2055
  698MOL0     C96252   7.018   5.591  11.087 -0.8754 -1.0237 -0.9326
  698MOL0     C96253   6.935   5.643  11.184  0.5092 -0.5799 -0.1932
  698MOL0     C96254   6.993   5.714  11.305 -0.6654 -0.2865 -1.7022
  698MOL0     H96255   6.777   5.951  11.479  0.6912 -2.9922 -3.0108
  698MOL0     H96256   6.629   6.057  11.657 -2.7217  1.7583 -0.4234
  698MOL0     H96257   6.497   5.940  11.832  0.0498  0.5733  1.7580
  698MOL0     H96258   6.327   5.945  11.867  1.3642 -1.4538  2.3521
  698MOL0     H96259   6.458   6.212  11.811  2.6685  0.1071  1.5600
  698MOL0     H96260   6.343   6.162  11.939  0.2856  1.9163 -2.6159
  698MOL0     H96261   6.539   6.226  12.045 -4.2979 -1.4903  2.1071
  698MOL0     H96262   6.539   6.042  12.040 -0.6593  0.0859 -1.1601
  698MOL0     H96263   6.723   6.026  11.893  1.1501 -0.4856  1.3395
  698MOL0     H96264   6.723   6.176  11.820  2.5007  1.5054  0.9587
  698MOL0     H96265   6.787   6.154  12.121  4.2388  3.2694  1.8824
  698MOL0     H96266   6.793   6.290  12.028  1.2764  0.3295 -1.8088
  698MOL0     H96267   6.964   6.047  11.951 -2.7055 -0.6525  0.4197
  698MOL0     H96268   6.991   6.223  11.924 -1.7402  1.0413 -0.1355
  698MOL0     H96269   7.131   6.106  12.116 -0.2085 -1.5683 -0.2320
  698MOL0     H96270   6.988   6.112  12.204 -0.0991  1.4408  1.0967
  698MOL0     H96271   7.127   6.356  12.085  0.5478 -0.8017 -0.1479
  698MOL0     H96272   6.971   6.375  12.158 -0.2119 -0.3351 -3.2285
  698MOL0     H96273   7.007   6.219  12.420  0.3223 -0.8174 -2.1692
  698MOL0     H96274   7.057   6.304  12.691 -0.8841  1.1448  0.7413
  698MOL0     H96275   7.179   6.435  12.693  3.5711 -1.8364  2.5381
  698MOL0     H96276   7.365   6.276  12.703 -1.4439 -0.9635 -4.4045
  698MOL0     H96277   7.240   6.242  12.833  0.4738  1.3581  0.8065
  698MOL0     H96278   7.251   6.083  12.578 -0.2180 -1.0946  0.3326
  698MOL0     H96279   7.338   6.040  12.725  0.8896  0.1849 -1.1294
  698MOL0     H96280   7.144   5.924  12.726 -4.9407 -1.5551  1.0598
  698MOL0     H96281   7.111   6.068  12.840 -1.7114  0.8274 -0.6845
  698MOL0     H96282   6.962   5.819  12.772 -0.0532  0.3998  2.2633
  698MOL0     H96283   6.745   5.725  12.974 -0.7872  1.9870 -1.0055
  698MOL0     H96284   6.838   5.629  12.851 -2.1135 -3.0102 -0.4222
  698MOL0     H96285   6.658   5.643  12.846 -2.3219  2.0941  2.8695
  698MOL0     H96286   6.250   5.970  12.950  0.5071 -0.0035  0.4750
  698MOL0     H96287   6.036   5.864  12.999  1.5377  2.4006 -2.1318
  698MOL0     H96288   5.796   5.648  13.167 -0.2985  0.8023 -0.4553
  698MOL0     H96289   5.875   5.784  13.097 -2.3067  0.2949  0.3003
  698MOL0     H96290   5.892   5.665  12.877  0.9318 -1.0828 -0.7810
  698MOL0     H96291   5.845   5.503  12.949  1.4207 -0.5805  2.4150
  698MOL0     H96292   5.650   5.582  12.826 -0.4982 -2.4600  2.2050
  698MOL0     H96293   5.676   5.750  12.875  2.1216  2.0112  4.3804
  698MOL0     H96294   5.599   5.681  13.103  1.3958  1.1037 -0.9415
  698MOL0     H96295   5.598   5.513  13.037  0.5686 -0.0715 -3.1095
  698MOL0     H96296   5.435   5.754  12.928  2.1056  0.6150 -0.1648
  698MOL0     H96297   5.421   5.590  12.873 -1.4696 -2.4278  2.1870
  698MOL0     H96298   5.326   5.670  13.146 -1.2568 -1.7611  1.4411
  698MOL0     H96299   5.342   5.509  13.103  1.3732  1.2080  1.0052
  698MOL0     H96300   5.186   5.499  12.942 -0.9116 -0.4849  1.7619
  698MOL0     H96301   5.193   5.675  12.910 -0.5694  1.1073  1.7418
  698MOL0     H96302   5.059   5.534  13.141 -0.2988  0.3389  1.8479
  698MOL0     H96303   4.982   5.606  12.999  2.1193  0.8852 -1.2927
  698MOL0     H96304   6.244   5.529  13.164  3.9672 -0.8879 -0.1513
  698MOL0     H96305   6.447   5.613  13.076 -1.2329 -2.9279  0.0672
  698MOL0     H96306   6.578   6.116  12.744  0.9264  0.9268  0.6637
  698MOL0     H96307   6.789   6.204  12.669 -0.7188  0.4745 -0.2698
  698MOL0     H96308   6.293   5.874  11.465 -0.3854 -2.6789 -0.5075
  698MOL0     H96309   6.422   5.766  11.320  0.8855 -0.3031 -0.3573
  698MOL0     H96310   6.639   5.521  11.044 -0.0947 -0.5826 -0.7134
  698MOL0     H96311   6.806   5.435  10.883  3.0837  1.4989 -1.2972
  698MOL0     H96312   7.234   5.545  10.849  0.2214 -0.4225 -1.7638
  698MOL0     H96313   7.214   5.436  10.985  0.7437 -1.9854  0.1473
  698MOL0     H96314   7.177   5.248  10.808  0.0085  0.7515  0.9173
  698MOL0     H96315   7.335   5.316  10.824  0.5916 -0.5061 -2.1881
  698MOL0     H96316   7.128   5.405  10.619 -0.2188  1.5002  1.2341
  698MOL0     H96317   7.295   5.467  10.642 -1.5187  0.8249  1.3438
  698MOL0     H96318   7.263   5.158  10.609  0.1239 -1.1607 -2.6592
  698MOL0     H96319   7.392   5.274  10.558  0.3078 -1.2119  0.8403
  698MOL0     H96320   7.115   5.346  10.245 -1.1446  1.1161  1.2031
  698MOL0     H96321   7.124   5.610  11.103 -1.2142 -0.4931  0.9083
  698MOL0     H96322   7.035   5.813  11.285 -1.4827  1.0351  2.2062
  698MOL0     H96323   6.919   5.715  11.385  0.3569 -1.6794 -0.6755
  698MOL0     H96324   7.079   5.658  11.345 -2.0132 -0.7178  0.7917
  699MOL0     O96325  10.706   7.881   9.738  0.1243 -0.9767  0.5508
  699MOL0     C96326  10.711   7.951   9.636 -0.0990 -0.0032  1.3992
  699MOL0     O96327  10.660   7.914   9.517 -0.0066 -0.4386  1.0233
  699MOL0     C96328  10.661   7.788   9.474  0.6299 -0.3984  0.8950
  699MOL0     C96329  10.559   7.737   9.393 -0.4713  0.3027  0.4513
  699MOL0     C96330  10.553   7.603   9.350  0.4309 -1.1031 -0.9246
  699MOL0     C96331  10.656   7.520   9.377 -0.3978 -0.8600  0.1058
  699MOL0     O96332  10.649   7.388   9.336  0.1566 -0.0474  0.2694
  699MOL0     C96333  10.740   7.296   9.399 -0.5958 -0.3483  0.3653
  699MOL0     C96334  10.720   7.148   9.350  0.3493  0.3009  0.2363
  699MOL0     C96335  10.784   7.125   9.213  0.5974 -0.3617 -0.4458
  699MOL0     C96336  10.780   6.981   9.172  1.3023  0.2077 -0.6139
  699MOL0     C96337  10.811   6.962   9.024 -0.4053 -0.5237  0.9367
  699MOL0     C96338  10.940   7.035   8.971  0.4104 -0.8827 -0.3670
  699MOL0     C96339  10.951   7.008   8.826 -0.0217 -0.6074  1.3059
  699MOL0     C96340  11.067   7.086   8.762 -0.5565 -0.1013  0.0136
  699MOL0     N96341  11.200   7.044   8.812 -0.0333  0.6762  0.1902
  699MOL0     C96342  11.253   7.120   8.897 -0.4720  0.0482 -0.0630
  699MOL0     C96343  11.367   7.054   8.932  0.7721  0.4674 -0.1421
  699MOL0     C96344  11.468   7.114   9.027 -1.1545  0.0864 -0.6619
  699MOL0     C96345  11.484   7.022   9.147  0.4769  0.6357 -0.2290
  699MOL0     C96346  11.555   7.094   9.264 -1.0987 -0.4449  0.8290
  699MOL0     C96347  11.587   6.987   9.370 -0.8970  0.4547 -1.2673
  699MOL0     O96348  11.682   6.874   9.336 -0.4023  0.1082  0.8262
  699MOL0     C96349  11.814   6.914   9.340 -0.3359  0.3625  0.0116
  699MOL0     C96350  11.896   6.923   9.455 -0.2860 -0.4938  0.2068
  699MOL0     C96351  12.031   6.970   9.441 -0.3552  0.2715  0.9345
  699MOL0     C96352  12.105   6.980   9.575 -0.2535 -0.2987  0.4172
  699MOL0     C96353  12.089   7.001   9.315  1.0409  0.0854  0.6918
  699MOL0     C96354  12.231   7.032   9.295 -0.1927  0.1618  0.2376
  699MOL0     O96355  12.256   7.097   9.183  0.0062  0.1916 -0.1259
  699MOL0     C96356  12.386   7.136   9.165  0.3158 -1.3717 -0.6392
  699MOL0     C96357  12.411   7.269   9.198 -0.8717  0.6508 -0.6924
  699MOL0     C96358  12.542   7.318   9.188  0.1735 -0.9686 -0.3378
  699MOL0     C96359  12.651   7.240   9.151  1.1819  0.1052  0.7088
  699MOL0     O96360  12.769   7.297   9.135 -0.0521 -0.3415 -0.7496
  699MOL0     C96361  12.775   7.382   9.025 -0.1621  0.2612 -0.5448
  699MOL0     C96362  12.886   7.491   9.047  0.4690  1.1454  0.2232
  699MOL0     C96363  12.842   7.586   9.162 -1.3480  0.6549 -0.5244
  699MOL0     C96364  12.939   7.700   9.192 -0.0556  0.0292 -0.5616
  699MOL0     C96365  12.972   7.780   9.063 -0.6300 -0.2477 -0.1625
  699MOL0     C96366  13.031   7.923   9.093  0.6292  0.4507 -1.4683
  699MOL0     C96367  13.058   7.991   8.966 -0.1940 -0.4109 -0.0415
  699MOL0     C96368  13.039   8.140   8.982 -0.2388  0.4021 -0.0146
  699MOL0    Cl96369  13.151   8.210   9.094  0.0908  0.1471 -0.0069
  699MOL0     C96370  12.627   7.109   9.111  0.1586  0.3093  0.9453
  699MOL0     C96371  12.495   7.058   9.118  0.2071 -0.8659 -0.5715
  699MOL0     O96372  12.321   6.985   9.361 -0.0854 -0.1380 -0.9332
  699MOL0     C96373  12.000   6.994   9.197 -0.2648  0.0965 -0.1788
  699MOL0     C96374  11.866   6.944   9.215  0.4539 -0.5156  0.7388
  699MOL0     N96375  11.377   6.936   8.866 -0.3819  0.4412  0.3416
  699MOL0     N96376  11.284   6.939   8.784  0.2008  0.0841  0.2365
  699MOL0     C96377  10.765   7.569   9.454  0.4597 -0.3299  0.9439
  699MOL0     C96378  10.760   7.703   9.494  0.6368 -0.4498 -0.6285
  699MOL0     C96379  10.782   8.075   9.644 -0.2619  0.2480 -0.8706
  699MOL0     C96380  10.882   8.088   9.825 -1.0084  0.1132 -0.9582
  699MOL0     C96381  11.021   8.248   9.861 -0.0287 -0.0688  0.2215
  699MOL0     C96382  11.060   8.391   9.707  0.6875  1.3721 -0.1867
  699MOL0     O96383  11.123   8.509   9.723  0.3693 -0.0149 -0.2551
  699MOL0     C96384  11.223   8.513   9.831  0.5353  0.0655  0.2742
  699MOL0     C96385  11.229   8.653   9.897  0.3014  1.0540  0.4558
  699MOL0     C96386  11.319   8.670  10.020  0.5849 -0.4661 -0.5710
  699MOL0     C96387  11.466   8.715   9.986 -0.8734  0.5686 -0.2007
  699MOL0     C96388  11.540   8.614   9.918 -0.2554  0.0585 -0.8164
  699MOL0     C96389  11.603   8.516   9.875  0.8202  0.6194  0.9536
  699MOL0     C96390  10.967   8.371   9.522  0.4694  0.6615  1.0692
  699MOL0     C96391  10.828   8.216   9.485 -0.0390  0.4280  0.1134
  699MOL0     C96392  10.774   8.198   9.345 -0.4705 -0.5094  0.4186
  699MOL0     H96393  10.479   7.798   9.353 -1.5756 -0.8301  0.8674
  699MOL0     H96394  10.463   7.566   9.300 -0.9271 -0.9042  1.2314
  699MOL0     H96395  10.738   7.304   9.509  2.5289  0.0798  0.4834
  699MOL0     H96396  10.842   7.327   9.374 -0.8430 -0.2004 -0.4796
  699MOL0     H96397  10.759   7.075   9.422 -1.8544  0.1822  1.4127
  699MOL0     H96398  10.614   7.126   9.332  0.3367 -1.7065  2.2644
  699MOL0     H96399  10.741   7.196   9.143 -0.5091  1.2713  1.7479
  699MOL0     H96400  10.889   7.155   9.216  0.1584  1.2667 -0.5970
  699MOL0     H96401  10.860   6.938   9.233  2.0090  3.0596  0.6648
  699MOL0     H96402  10.684   6.935   9.195  0.9126  1.1531 -0.3350
  699MOL0     H96403  10.725   6.988   8.961 -0.8455 -1.2632  1.2219
  699MOL0     H96404  10.835   6.858   9.002  0.4934  0.1601 -1.6466
  699MOL0     H96405  10.937   7.142   8.998  1.2503 -1.1132  0.7289
  699MOL0     H96406  11.037   7.003   9.012  1.5382  1.2614 -1.1813
  699MOL0     H96407  10.855   7.028   8.777 -0.2590 -0.7433  1.7067
  699MOL0     H96408  10.958   6.900   8.820  0.4994 -0.6296  2.1783
  699MOL0     H96409  11.071   7.070   8.654 -1.8562  0.4622 -0.1436
  699MOL0     H96410  11.056   7.192   8.786  1.0991 -0.1387  1.1052
  699MOL0     H96411  11.218   7.216   8.933 -0.1951  1.5906 -3.5128
  699MOL0     H96412  11.449   7.220   9.044  0.6812  0.3762 -0.2248
  699MOL0     H96413  11.556   7.101   8.965 -2.5888 -1.7848 -2.4458
  699MOL0     H96414  11.387   6.982   9.178  1.2921 -1.2532 -0.0011
  699MOL0     H96415  11.541   6.942   9.100 -2.8087 -0.9376 -1.8912
  699MOL0     H96416  11.655   7.126   9.233 -0.4427 -1.1826  2.1027
  699MOL0     H96417  11.509   7.183   9.308  1.7642  1.7364 -0.2315
  699MOL0     H96418  11.636   7.045   9.449 -0.5077  0.3653 -1.4419
  699MOL0     H96419  11.498   6.943   9.415  1.3309 -1.3952  1.7482
  699MOL0     H96420  11.860   6.879   9.547  1.5362 -2.4813  0.0536
  699MOL0     H96421  12.086   6.892   9.638  2.1451 -1.4352 -0.3317
  699MOL0     H96422  12.076   7.078   9.614  0.7126  1.1744 -2.3082
  699MOL0     H96423  12.214   6.981   9.571 -0.0985  1.2099  2.7498
  699MOL0     H96424  12.327   7.331   9.228 -1.7804  0.5803 -2.8845
  699MOL0     H96425  12.553   7.425   9.201 -0.6140 -0.5394 -2.8148
  699MOL0     H96426  12.802   7.323   8.936  1.7080  0.2864 -0.0332
  699MOL0     H96427  12.674   7.423   9.017 -0.8704 -0.5916  2.5912
  699MOL0     H96428  12.987   7.454   9.070 -0.3031 -1.1929  0.0377
  699MOL0     H96429  12.897   7.535   8.947 -1.4960 -1.4073 -1.2276
  699MOL0     H96430  12.840   7.528   9.255  2.5817  1.8882  0.5115
  699MOL0     H96431  12.747   7.638   9.147 -0.3964  2.3695 -0.8913
  699MOL0     H96432  13.035   7.672   9.236 -0.4939 -2.2864 -0.9461
  699MOL0     H96433  12.891   7.762   9.268 -0.3849 -1.1418  0.2128
  699MOL0     H96434  13.047   7.728   9.004 -0.8798 -1.1170  0.2744
  699MOL0     H96435  12.885   7.781   8.997  1.5422 -0.7051 -3.2401
  699MOL0     H96436  13.122   7.921   9.154  1.7910  2.2501 -3.0370
  699MOL0     H96437  12.967   7.982   9.160 -0.4956 -0.6569 -1.5140
  699MOL0     H96438  12.991   7.961   8.885  0.1397  2.3830 -1.4881
  699MOL0     H96439  13.158   7.973   8.925 -1.1663  0.4701 -3.1164
  699MOL0     H96440  12.935   8.157   9.012 -0.3556  1.4120 -0.9262
  699MOL0     H96441  13.058   8.192   8.887 -2.7078  2.0002  0.2661
  699MOL0     H96442  12.704   7.048   9.065 -0.7740 -2.3753  2.6759
  699MOL0     H96443  12.479   6.956   9.087  2.5543 -1.5853  0.3646
  699MOL0     H96444  12.033   7.009   9.095 -3.3140 -0.6778 -1.4017
  699MOL0     H96445  11.811   6.932   9.122  0.9291 -2.2580  0.6413
  699MOL0     H96446  10.853   7.513   9.485  2.9877  0.4708 -3.9230
  699MOL0     H96447  10.849   7.748   9.539 -0.9613  0.4435  1.8531
  699MOL0     H96448  10.855   8.016   9.902  1.5637  1.0098  0.9053
  699MOL0     H96449  11.071   8.248   9.957  1.1555 -1.6885 -0.3522
  699MOL0     H96450  11.196   8.450   9.917 -2.0017  0.8026  0.1164
  699MOL0     H96451  11.319   8.491   9.785 -0.4634  0.8749 -2.3399
  699MOL0     H96452  11.130   8.688   9.927 -0.1779  3.0019 -2.9025
  699MOL0     H96453  11.258   8.728   9.823 -5.0672 -0.4749 -3.8951
  699MOL0     H96454  11.273   8.739  10.091  1.3724 -1.5847  1.0924
  699MOL0     H96455  11.311   8.576  10.076 -1.0888  0.1116  0.2267
  699MOL0     H96456  11.516   8.738  10.080 -1.4185 -0.7608  0.4377
  699MOL0     H96457  11.463   8.806   9.924 -3.0821 -0.4460 -1.7037
  699MOL0     H96458  11.650   8.420   9.863 -1.5714 -0.3708 -1.9340
  699MOL0     H96459  10.969   8.451   9.449 -2.1422 -1.9110 -2.1351
  699MOL0     H96460  10.720   8.106   9.320 -0.7712 -0.1570 -0.2551
  699MOL0     H96461  10.715   8.290   9.337 -1.7610 -1.1362  2.1382
  699MOL0     H96462  10.864   8.202   9.282 -0.2559 -1.4790  0.6461
  700MOL0     O96463   0.820  10.270   5.066  0.6652 -0.4341  0.5438
  700MOL0     C96464   0.757  10.162   5.090  0.4759  0.2766 -0.5057
  700MOL0     O96465   0.675  10.137   5.193  0.0159 -0.3253  0.4797
  700MOL0     C96466   0.676  10.238   5.282  0.2067 -0.1502 -0.0340
  700MOL0     C96467   0.606  10.356   5.272  0.2029  0.0508 -0.2589
  700MOL0     C96468   0.630  10.461   5.360  0.1712  0.6937  0.7198
  700MOL0     C96469   0.708  10.444   5.474 -0.2183 -0.7664 -0.4547
  700MOL0     O96470   0.729  10.562   5.555 -0.3831  0.0564 -0.1507
  700MOL0     C96471   0.789  10.560   5.688  0.1576  0.0611  0.2796
  700MOL0     C96472   0.818  10.706   5.716  0.2411 -0.0872  0.1743
  700MOL0     C96473   0.890  10.800   5.614  0.2054 -0.2812  0.1213
  700MOL0     C96474   0.889  10.940   5.672  0.5598 -0.4954 -0.0375
  700MOL0     C96475   0.926  11.039   5.560 -0.1501  0.2831  0.0848
  700MOL0     C96476   0.950  11.178   5.614 -0.6136  0.4486  0.7383
  700MOL0     C96477   0.974  11.268   5.496  0.9223  0.3884 -1.2703
  700MOL0     C96478   0.986  11.408   5.551  0.2924 -0.1841  0.1101
  700MOL0     N96479   0.933  11.501   5.451 -0.0439  0.2857 -0.0817
  700MOL0     C96480   0.804  11.537   5.427 -0.4179 -0.1179  0.4227
  700MOL0     C96481   0.820  11.623   5.314 -0.4501  0.3486  0.0208
  700MOL0     C96482   0.715  11.711   5.251 -0.4853  0.4897  0.6485
  700MOL0     C96483   0.715  11.718   5.096 -0.2138  0.8543 -0.9388
  700MOL0     C96484   0.604  11.792   5.026 -0.5699  0.3366 -0.7602
  700MOL0     C96485   0.485  11.715   4.968 -0.3093  0.4092 -0.6247
  700MOL0     O96486   0.405  11.655   5.076 -0.0195  0.0891  0.3481
  700MOL0     C96487   0.316  11.551   5.055  0.4592 -0.9524  0.1886
  700MOL0     C96488   0.265  11.513   4.929  0.6017 -0.4589  0.6388
  700MOL0     C96489   0.170  11.422   4.910  0.4130 -0.5481 -0.0024
  700MOL0     C96490   0.120  11.398   4.759 -0.1863  0.1696  0.2753
  700MOL0     C96491   0.142  11.338   5.025  0.0404 -0.3282  0.1051
  700MOL0     C96492   0.052  11.220   5.016  0.4053 -0.6151 -0.7498
  700MOL0     O96493   0.033  11.161   4.895  0.5339  0.9984  0.1662
  700MOL0     C96494  -0.029  11.041   4.874  0.7466 -0.6830  0.0021
  700MOL0     C96495  -0.133  11.032   4.787  0.2937  0.0724  0.1780
  700MOL0     C96496  -0.179  10.904   4.745 -0.0812  1.0318 -0.2995
  700MOL0     C96497  -0.138  10.785   4.816  1.2442 -0.5963  0.5970
  700MOL0     O96498  -0.209  10.663   4.800  0.2802 -0.0429  0.5103
  700MOL0     C96499  -0.186  10.594   4.675  0.5189 -0.8003 -0.3312
  700MOL0     C96500  -0.311  10.509   4.631 -0.1461 -0.1310 -0.6275
  700MOL0     C96501  -0.419  10.605   4.564 -0.4545  0.4941 -0.9540
  700MOL0     C96502  -0.476  10.562   4.442  0.1245  0.4482  1.2475
  700MOL0     C96503  -0.530  10.678   4.367 -0.2093 -0.5369  0.0658
  700MOL0     C96504  -0.632  10.646   4.258 -0.2987  0.5196  1.0672
  700MOL0     C96505  -0.733  10.762   4.227 -0.8987  0.3346 -0.9457
  700MOL0     C96506  -0.687  10.886   4.152 -0.4086  0.6413  1.3281
  700MOL0    Cl96507  -0.567  10.865   4.016 -0.1177  0.1021 -0.2075
  700MOL0     C96508  -0.044  10.797   4.911 -0.1533  1.0043 -0.3036
  700MOL0     C96509   0.019  10.914   4.933  0.3593  0.2635 -0.0442
  700MOL0     O96510   0.015  11.168   5.121 -0.2025 -0.7072 -0.2116
  700MOL0     C96511   0.192  11.377   5.157 -0.2983 -0.0882  0.7630
  700MOL0     C96512   0.278  11.488   5.165 -1.2508  0.6249 -0.0064
  700MOL0     N96513   0.954  11.625   5.282 -0.4403 -0.2029  1.2127
  700MOL0     N96514   1.021  11.543   5.356  0.1546  0.1646 -0.5484
  700MOL0     C96515   0.760  10.322   5.503 -0.8742  0.4247 -0.1951
  700MOL0     C96516   0.746  10.216   5.404 -0.8858 -1.0189 -0.0135
  700MOL0     C96517   0.779  10.050   4.992  0.6363 -0.0871 -0.3977
  700MOL0     C96518   0.808   9.924   5.050 -0.5697 -0.4428  0.0435
  700MOL0     C96519   0.820   9.809   4.963  0.5241 -0.3892 -0.1813
  700MOL0     C96520   0.810   9.826   4.831 -0.6823  0.1213  0.0745
  700MOL0     O96521   0.828   9.710   4.762 -0.1351  0.5086  0.1235
  700MOL0     C96522   0.833   9.713   4.617  0.9459  0.6967 -0.3190
  700MOL0     C96523   0.845   9.571   4.561  0.4073  0.2878  0.1755
  700MOL0     C96524   0.850   9.552   4.409 -0.2395 -0.0131 -0.2730
  700MOL0     C96525   0.849   9.396   4.382  1.6308  0.1267  0.8488
  700MOL0     C96526   0.841   9.363   4.240  0.3513 -0.3566 -0.0771
  700MOL0     C96527   0.850   9.336   4.121  0.4077  0.2743  0.1064
  700MOL0     C96528   0.786   9.950   4.774 -0.1345 -0.4050  0.4132
  700MOL0     C96529   0.756  10.062   4.852 -1.0260 -0.1882 -1.2889
  700MOL0     C96530   0.712  10.186   4.771  0.1232  0.2554 -0.4902
  700MOL0     H96531   0.540  10.368   5.187  0.7432  0.0573 -0.6783
  700MOL0     H96532   0.574  10.552   5.340  0.6246  0.6628 -0.8675
  700MOL0     H96533   0.877  10.496   5.694 -0.7370 -1.3196 -0.6309
  700MOL0     H96534   0.721  10.504   5.753  0.2490 -1.2573 -0.7231
  700MOL0     H96535   0.717  10.745   5.732  1.4554  2.3212  2.7170
  700MOL0     H96536   0.869  10.721   5.812 -0.2745  2.3573  0.1302
  700MOL0     H96537   0.997  10.780   5.623  0.1052  0.0795  3.2929
  700MOL0     H96538   0.840  10.803   5.517 -2.7564 -0.7403  1.4972
  700MOL0     H96539   0.793  10.971   5.714  1.4738  4.0892 -0.7173
  700MOL0     H96540   0.967  10.952   5.748 -1.6696 -2.7621  2.8453
  700MOL0     H96541   0.845  11.037   5.487 -0.4253 -1.3228  0.3994
  700MOL0     H96542   1.024  11.012   5.519 -0.5348  0.0865 -0.7222
  700MOL0     H96543   0.860  11.212   5.666 -2.1696  1.1603 -2.1591
  700MOL0     H96544   1.037  11.174   5.680  0.0313  2.8300  0.1099
  700MOL0     H96545   0.895  11.253   5.421 -1.0020  0.1577  0.6853
  700MOL0     H96546   1.068  11.238   5.449  0.7213 -0.1902 -1.3053
  700MOL0     H96547   0.932  11.425   5.644  3.1088  3.4876  1.3322
  700MOL0     H96548   1.091  11.438   5.563 -0.2382  2.2542 -0.8544
  700MOL0     H96549   0.710  11.510   5.475 -1.4055 -0.3665 -1.5334
  700MOL0     H96550   0.710  11.806   5.306 -2.4168 -0.6386  2.6227
  700MOL0     H96551   0.622  11.657   5.274  0.9678 -1.4861  2.2891
  700MOL0     H96552   0.818  11.745   5.072  0.5313 -0.9291  0.0521
  700MOL0     H96553   0.699  11.613   5.071 -1.8166  0.9814 -0.5542
  700MOL0     H96554   0.558  11.869   5.088  1.3655  1.0098 -0.1053
  700MOL0     H96555   0.648  11.853   4.946  0.4819  1.6273  0.7580
  700MOL0     H96556   0.413  11.779   4.917 -3.3203  1.5352  4.3586
  700MOL0     H96557   0.528  11.637   4.903 -0.6641  1.4832 -2.2135
  700MOL0     H96558   0.304  11.563   4.841  1.6311  2.0464  2.4079
  700MOL0     H96559   0.112  11.492   4.702 -1.2338 -0.7321 -1.1399
  700MOL0     H96560   0.017  11.360   4.760 -0.9968  2.2191  1.0052
  700MOL0     H96561   0.190  11.330   4.711  1.0548  0.4116  1.6745
  700MOL0     H96562  -0.168  11.121   4.736  1.2404 -0.0616 -0.7282
  700MOL0     H96563  -0.257  10.895   4.670 -0.8543 -1.8175  0.7339
  700MOL0     H96564  -0.164  10.672   4.602 -1.8933  1.2078  0.9049
  700MOL0     H96565  -0.097  10.532   4.685 -1.9878 -4.5949  0.7477
  700MOL0     H96566  -0.268  10.438   4.559 -1.7447 -3.4908  1.4824
  700MOL0     H96567  -0.352  10.456   4.717  1.7150 -1.5804 -0.5520
  700MOL0     H96568  -0.396  10.712   4.556 -3.9964  1.2727 -2.5227
  700MOL0     H96569  -0.506  10.593   4.629 -1.6794  0.0837 -2.6096
  700MOL0     H96570  -0.549  10.481   4.456 -0.8812  0.7934 -1.4522
  700MOL0     H96571  -0.404  10.519   4.372 -1.7547  0.6680 -0.9283
  700MOL0     H96572  -0.588  10.736   4.439  0.7226 -0.2829  0.6274
  700MOL0     H96573  -0.452  10.746   4.333  0.5738  0.2777  3.2020
  700MOL0     H96574  -0.694  10.565   4.298  2.1539 -0.8555  2.2659
  700MOL0     H96575  -0.570  10.610   4.176  0.6056  0.3012  1.8331
  700MOL0     H96576  -0.786  10.805   4.312 -3.1246 -1.1857 -1.4644
  700MOL0     H96577  -0.810  10.714   4.167 -0.7923  0.4039 -1.1395
  700MOL0     H96578  -0.649  10.943   4.237 -1.4432 -1.8349  3.5953
  700MOL0     H96579  -0.777  10.933   4.112  0.6803 -1.3089 -4.4661
  700MOL0     H96580  -0.017  10.711   4.971 -5.0980  0.3830  1.5279
  700MOL0     H96581   0.101  10.919   5.004 -1.4133  1.0742  2.0519
  700MOL0     H96582   0.174  11.312   5.243  1.1160  0.7854  1.7676
  700MOL0     H96583   0.310  11.503   5.267 -3.1824 -1.4649  0.9959
  700MOL0     H96584   0.812  10.304   5.596  0.8482 -1.6826 -1.4677
  700MOL0     H96585   0.771  10.113   5.429 -0.6717 -0.6271  1.4646
  700MOL0     H96586   0.834   9.919   5.155  0.3611  1.1130 -0.0810
  700MOL0     H96587   0.857   9.716   5.006 -1.4042 -1.9327 -1.6351
  700MOL0     H96588   0.747   9.765   4.574 -1.7866 -2.0369  1.4131
  700MOL0     H96589   0.921   9.775   4.596  1.4432 -0.1537 -0.8332
  700MOL0     H96590   0.764   9.515   4.610  1.2906 -0.7423  0.5139
  700MOL0     H96591   0.930   9.513   4.597  0.2671 -1.3759 -1.9968
  700MOL0     H96592   0.773   9.609   4.357  0.7189 -1.4021 -3.5152
  700MOL0     H96593   0.944   9.598   4.376 -0.5832 -0.1095 -1.4306
  700MOL0     H96594   0.752   9.369   4.426 -0.1684  0.2473 -2.7313
  700MOL0     H96595   0.932   9.341   4.428  2.2153 -0.1540 -0.5116
  700MOL0     H96596   0.878   9.342   4.018  0.8543 -1.3985  0.1039
  700MOL0     H96597   0.772   9.954   4.667 -0.9260 -1.9845  0.4279
  700MOL0     H96598   0.769  10.177   4.678  2.4432  0.4793  0.8161
  700MOL0     H96599   0.608  10.168   4.744 -0.1568  0.3035  0.5160
  700MOL0     H96600   0.722  10.281   4.824  1.1083 -0.1944  0.1734
  701MOL0     O96601   6.143   0.192   4.684  0.0140 -0.2712  0.2799
  701MOL0     C96602   6.111   0.133   4.584 -0.4190  0.1985  0.2218
  701MOL0     O96603   6.111   0.198   4.458  0.1789  0.2461 -0.5042
  701MOL0     C96604   6.164   0.322   4.442  1.1337 -0.9586  0.3345
  701MOL0     C96605   6.286   0.342   4.375  0.2247 -0.1642 -0.5863
  701MOL0     C96606   6.328   0.468   4.344  0.5580 -0.1871 -0.2524
  701MOL0     C96607   6.275   0.584   4.399  0.4800  0.7839 -0.4565
  701MOL0     O96608   6.329   0.709   4.398 -0.3673 -0.0255 -0.3663
  701MOL0     C96609   6.234   0.810   4.345  0.9221 -0.1869 -0.0103
  701MOL0     C96610   6.309   0.926   4.277  0.0940  0.5513 -0.9562
  701MOL0     C96611   6.351   0.868   4.140  0.3206  1.0650  0.1259
  701MOL0     C96612   6.480   0.786   4.149 -0.0149  0.0931  0.8523
  701MOL0     C96613   6.518   0.743   4.008  0.1535  0.2790  0.9881
  701MOL0     C96614   6.667   0.708   3.991  0.2302 -0.0829 -1.2626
  701MOL0     C96615   6.756   0.828   4.024 -0.9744  0.3090 -0.7890
  701MOL0     C96616   6.905   0.802   3.983 -0.3261 -0.8408 -0.5102
  701MOL0     N96617   6.978   0.936   3.969  0.5877 -0.7869  0.1881
  701MOL0     C96618   6.994   0.991   3.844  0.2708 -0.2719 -0.0301
  701MOL0     C96619   7.023   1.121   3.869  0.5700 -0.8942  0.1588
  701MOL0     C96620   7.010   1.250   3.782  0.4798  0.1467 -0.2861
  701MOL0     C96621   6.880   1.322   3.789  0.4443 -0.4603  0.5883
  701MOL0     C96622   6.844   1.392   3.659  0.0055 -0.4449  0.4454
  701MOL0     C96623   6.952   1.486   3.604 -0.7685  0.3897  0.0997
  701MOL0     O96624   6.984   1.597   3.696  0.6256 -0.0789  0.7105
  701MOL0     C96625   7.083   1.689   3.657  0.4278 -0.5934  0.2782
  701MOL0     C96626   7.170   1.662   3.549  0.0381  0.7230  0.3503
  701MOL0     C96627   7.270   1.759   3.509  0.3666  0.2734  0.5853
  701MOL0     C96628   7.385   1.707   3.426 -0.1711  0.0719 -0.9776
  701MOL0     C96629   7.273   1.882   3.585 -0.2820 -0.2897  0.7824
  701MOL0     C96630   7.353   1.999   3.537 -0.3247 -0.5121 -1.1088
  701MOL0     O96631   7.337   2.124   3.602 -0.6266 -0.1566  0.3752
  701MOL0     C96632   7.401   2.232   3.546  0.0582 -0.2431  0.2021
  701MOL0     C96633   7.356   2.297   3.426 -0.1693 -0.1960 -0.5284
  701MOL0     C96634   7.437   2.388   3.362  0.2607 -0.2708 -0.1252
  701MOL0     C96635   7.565   2.422   3.409  0.3662 -0.2369 -0.2531
  701MOL0     O96636   7.631   2.523   3.349 -0.4678 -0.0219 -0.5143
  701MOL0     C96637   7.775   2.551   3.373  0.6695  0.0813 -0.2045
  701MOL0     C96638   7.810   2.697   3.348  0.0347 -0.6011  0.9021
  701MOL0     C96639   7.804   2.721   3.200  0.4682 -0.8370  0.8972
  701MOL0     C96640   7.832   2.874   3.169  0.1489  0.4120  0.1371
  701MOL0     C96641   7.983   2.914   3.160  0.5899  1.0230  0.0091
  701MOL0     C96642   7.990   3.051   3.088  0.6838 -0.5418  0.1706
  701MOL0     C96643   8.134   3.101   3.074  0.0984 -0.0293  0.3388
  701MOL0     C96644   8.150   3.245   3.030  0.6761 -0.2791  0.2569
  701MOL0    Cl96645   8.324   3.293   3.048 -0.2095  0.1598  0.2688
  701MOL0     C96646   7.618   2.353   3.524  0.4885  0.0866 -1.8067
  701MOL0     C96647   7.527   2.263   3.587  0.1000  0.1291  0.1115
  701MOL0     O96648   7.414   1.992   3.434 -0.6686 -0.1196 -0.3759
  701MOL0     C96649   7.190   1.901   3.697  0.2623 -0.5017 -0.6851
  701MOL0     C96650   7.099   1.799   3.737 -0.8862  0.3251 -0.3011
  701MOL0     N96651   7.041   1.130   4.006  0.2707 -0.4489 -0.5710
  701MOL0     N96652   7.015   1.021   4.068  0.8153 -2.0372  0.3208
  701MOL0     C96653   6.151   0.561   4.474  0.3986  0.1425  0.1884
  701MOL0     C96654   6.092   0.436   4.495  0.3738 -0.1889 -0.3120
  701MOL0     C96655   6.074  -0.011   4.589 -0.0783 -0.2469  0.8964
  701MOL0     C96656   6.022  -0.067   4.468  0.5958  0.7476  0.5965
  701MOL0     C96657   5.988  -0.206   4.461  0.0426 -0.5364 -0.2227
  701MOL0     C96658   6.021  -0.291   4.566  0.4652 -0.2885 -0.5351
  701MOL0     O96659   6.027  -0.428   4.541 -0.3612 -0.0906  0.4414
  701MOL0     C96660   6.170  -0.468   4.556  1.0783  0.4334 -0.4631
  701MOL0     C96661   6.249  -0.460   4.430  0.5461  0.7971  0.0924
  701MOL0     C96662   6.180  -0.524   4.304  0.0067  0.2115  0.4189
  701MOL0     C96663   6.206  -0.677   4.286 -0.8333  0.5560  0.0474
  701MOL0     C96664   6.156  -0.721   4.155 -0.0663  0.0039 -0.1613
  701MOL0     C96665   6.122  -0.742   4.047 -0.5455  0.2398 -0.0862
  701MOL0     C96666   6.058  -0.231   4.683  0.4398 -0.5562  0.1464
  701MOL0     C96667   6.094  -0.094   4.699  0.1676 -0.3242 -0.8280
  701MOL0     C96668   6.134  -0.047   4.842  0.4554 -0.5784  0.2973
  701MOL0     H96669   6.329   0.246   4.346  0.7983 -0.3346  0.7381
  701MOL0     H96670   6.411   0.485   4.277 -0.7439 -1.5420 -2.3391
  701MOL0     H96671   6.175   0.859   4.423 -0.3514 -0.6110 -0.6844
  701MOL0     H96672   6.164   0.762   4.276 -2.1530  2.2367  1.1814
  701MOL0     H96673   6.245   1.013   4.265 -2.6810 -1.3353 -0.6232
  701MOL0     H96674   6.396   0.956   4.337  1.6606 -3.0126 -1.1854
  701MOL0     H96675   6.262   0.817   4.102 -0.5704  0.8110  2.4490
  701MOL0     H96676   6.365   0.950   4.068 -1.0796  1.6156  0.4534
  701MOL0     H96677   6.566   0.840   4.189 -0.6625  0.9328  1.1588
  701MOL0     H96678   6.458   0.701   4.214 -1.6933 -0.8122 -0.7897
  701MOL0     H96679   6.496   0.826   3.940 -2.1461 -1.0495 -0.0356
  701MOL0     H96680   6.464   0.656   3.968  1.6271  0.3542 -1.3801
  701MOL0     H96681   6.700   0.624   4.052  2.7259  1.7020  0.0096
  701MOL0     H96682   6.695   0.692   3.887 -0.9917  0.9304 -1.7805
  701MOL0     H96683   6.766   0.857   4.129  0.0496 -0.3263 -0.6964
  701MOL0     H96684   6.719   0.915   3.968 -1.1814  0.3593 -0.5788
  701MOL0     H96685   6.960   0.746   4.058  0.9652  3.3155  1.9573
  701MOL0     H96686   6.904   0.741   3.892 -3.9153 -2.0015  0.1393
  701MOL0     H96687   6.974   0.940   3.750  1.5332  1.8724 -1.5531
  701MOL0     H96688   7.027   1.214   3.680  4.0273 -1.2661  0.6610
  701MOL0     H96689   7.089   1.323   3.801  1.3870 -0.5527 -1.2839
  701MOL0     H96690   6.798   1.256   3.820 -0.4011 -0.2981 -1.1507
  701MOL0     H96691   6.880   1.394   3.871  4.0736  1.6377 -0.9787
  701MOL0     H96692   6.828   1.324   3.575  0.9878 -0.5790  0.3607
  701MOL0     H96693   6.756   1.457   3.671 -1.4183 -1.8342 -1.8222
  701MOL0     H96694   7.039   1.423   3.585 -1.4183 -1.9920  4.0199
  701MOL0     H96695   6.917   1.531   3.510 -0.0968 -1.9591 -1.3408
  701MOL0     H96696   7.167   1.568   3.495  2.7220  1.4607 -1.2880
  701MOL0     H96697   7.360   1.609   3.384  0.5595 -0.9927  0.9268
  701MOL0     H96698   7.472   1.700   3.492 -1.6026  2.5138  1.4309
  701MOL0     H96699   7.412   1.775   3.345 -3.8239  0.4369 -2.0668
  701MOL0     H96700   7.267   2.268   3.371 -1.8038  0.7231  1.4950
  701MOL0     H96701   7.395   2.448   3.282  2.5759 -0.1294 -1.3223
  701MOL0     H96702   7.801   2.546   3.479  1.6325  0.5394 -0.4079
  701MOL0     H96703   7.833   2.482   3.312 -1.1146 -1.5143 -0.1974
  701MOL0     H96704   7.752   2.772   3.403 -0.3019  0.6264 -1.0019
  701MOL0     H96705   7.912   2.714   3.383  0.0230  1.0463  0.2227
  701MOL0     H96706   7.711   2.680   3.159  0.8075 -2.2743  1.4917
  701MOL0     H96707   7.882   2.663   3.148 -0.7813 -3.8568  2.1719
  701MOL0     H96708   7.770   2.944   3.226 -0.3930 -0.8001  1.0901
  701MOL0     H96709   7.792   2.888   3.068 -0.5195 -1.1422  0.1525
  701MOL0     H96710   8.038   2.902   3.254  0.4831 -1.2595 -0.1647
  701MOL0     H96711   8.026   2.849   3.083  0.2377 -1.2108  1.5961
  701MOL0     H96712   7.936   3.117   3.156  3.3093 -1.0326  2.9652
  701MOL0     H96713   7.939   3.052   2.991  1.7685  1.9884 -0.4465
  701MOL0     H96714   8.187   3.026   3.015 -1.5429 -2.1802  1.4518
  701MOL0     H96715   8.168   3.095   3.178  2.4252  0.5568 -0.3440
  701MOL0     H96716   8.090   3.314   3.089 -3.9043 -1.8409 -2.0976
  701MOL0     H96717   8.112   3.262   2.929  0.2038 -1.1491  0.2802
  701MOL0     H96718   7.717   2.364   3.567  0.7815 -1.6138 -1.9513
  701MOL0     H96719   7.569   2.214   3.674  0.2977 -0.1942 -0.1640
  701MOL0     H96720   7.192   1.993   3.754 -3.7365 -1.7681  1.9022
  701MOL0     H96721   7.037   1.804   3.825  0.7766  0.0332  0.9391
  701MOL0     H96722   6.118   0.644   4.536  0.6440 -1.9307  3.3079
  701MOL0     H96723   6.010   0.436   4.567  0.8414  2.0769  0.2769
  701MOL0     H96724   6.008  -0.001   4.383  3.9934  0.9806  0.0803
  701MOL0     H96725   5.951  -0.241   4.365 -3.7350 -1.5797  1.4359
  701MOL0     H96726   6.218  -0.410   4.636  0.5832  1.5737 -0.9642
  701MOL0     H96727   6.176  -0.569   4.598 -1.8419  1.2885  2.4426
  701MOL0     H96728   6.347  -0.501   4.453 -0.3221 -0.5621  1.4793
  701MOL0     H96729   6.258  -0.353   4.407 -3.6450  1.1528 -0.7567
  701MOL0     H96730   6.071  -0.512   4.313 -0.0924 -1.6448  2.3579
  701MOL0     H96731   6.209  -0.462   4.219 -0.7701  0.2177  0.1444
  701MOL0     H96732   6.148  -0.732   4.361  0.2910 -0.3423  0.2886
  701MOL0     H96733   6.311  -0.693   4.313 -1.4024  1.2421  3.0293
  701MOL0     H96734   6.081  -0.758   3.950 -2.1883  1.4194  0.3798
  701MOL0     H96735   6.070  -0.294   4.771  1.2729 -0.8157 -0.1354
  701MOL0     H96736   6.116  -0.122   4.920 -2.2643  1.1708  1.4865
  701MOL0     H96737   6.241  -0.022   4.834  0.2610  0.7945  1.7441
  701MOL0     H96738   6.091   0.048   4.875  3.5068  0.4353  1.8059
  702MOL0     O96739   1.199   7.910  10.668 -0.7758 -0.2315 -0.1699
  702MOL0     C96740   1.102   7.867  10.607 -0.0519 -0.4654 -0.1992
  702MOL0     O96741   1.039   7.931  10.495 -0.1929  0.0376 -0.6318
  702MOL0     C96742   1.107   8.029  10.434 -0.7035 -0.1702  0.5185
  702MOL0     C96743   1.175   8.016  10.314  0.5934  0.5899 -0.5027
  702MOL0     C96744   1.212   8.128  10.244  0.2551 -0.3233 -0.1643
  702MOL0     C96745   1.213   8.261  10.299 -0.1531  0.6765  0.8860
  702MOL0     O96746   1.254   8.377  10.219 -0.8336  0.1768  0.0525
  702MOL0     C96747   1.224   8.505  10.264 -0.4011 -0.2309 -0.5693
  702MOL0     C96748   1.305   8.597  10.178 -0.0330  0.0464 -0.3555
  702MOL0     C96749   1.282   8.599  10.031  0.0298  0.3493  0.2299
  702MOL0     C96750   1.406   8.642   9.957 -1.0904 -0.1038 -1.0357
  702MOL0     C96751   1.390   8.692   9.809  0.5637 -0.2742  0.1265
  702MOL0     C96752   1.514   8.753   9.753 -1.0883 -0.4706  0.5899
  702MOL0     C96753   1.503   8.911   9.764  0.7520 -0.2154  0.5376
  702MOL0     C96754   1.567   8.976   9.886 -0.3455  0.7079 -0.2837
  702MOL0     N96755   1.716   8.979   9.867  0.8526 -0.6014  0.5246
  702MOL0     C96756   1.796   9.076   9.810  0.0477  0.1738 -0.6653
  702MOL0     C96757   1.928   9.048   9.834 -0.2817 -0.5682  0.2037
  702MOL0     C96758   2.037   9.143   9.793 -0.6546 -0.0938 -0.2679
  702MOL0     C96759   2.043   9.279   9.870 -0.5308 -1.1149  0.0389
  702MOL0     C96760   2.137   9.370   9.769  0.3709  0.2840 -0.1592
  702MOL0     C96761   2.159   9.521   9.807  0.2249 -0.2385 -0.1759
  702MOL0     O96762   2.239   9.559   9.917 -0.4859  0.5978  0.2352
  702MOL0     C96763   2.212   9.498  10.032 -0.0669 -0.1916  0.6191
  702MOL0     C96764   2.091   9.499  10.102  0.9013 -0.3937  0.2647
  702MOL0     C96765   2.078   9.440  10.231 -0.2568  0.0714 -0.1478
  702MOL0     C96766   1.946   9.452  10.301  0.2190  0.1706  0.2861
  702MOL0     C96767   2.191   9.369  10.281 -0.4162 -0.6286  0.5381
  702MOL0     C96768   2.200   9.319  10.425  0.6594  0.0312  0.5555
  702MOL0     O96769   2.299   9.219  10.426  0.7651 -0.2841 -0.2588
  702MOL0     C96770   2.330   9.143  10.540 -0.0294 -0.5111 -0.0776
  702MOL0     C96771   2.422   9.038  10.509  0.7755  0.0240 -0.6078
  702MOL0     C96772   2.468   8.948  10.610 -0.3335 -0.9554 -1.5243
  702MOL0     C96773   2.411   8.960  10.739 -0.0014  0.4167  0.9688
  702MOL0     O96774   2.441   8.878  10.847  1.1243 -0.4448  1.0694
  702MOL0     C96775   2.486   8.934  10.975 -0.0810  0.3161  0.4653
  702MOL0     C96776   2.640   8.956  10.980  0.1310  0.7658 -0.0128
  702MOL0     C96777   2.734   8.843  10.958  0.5402  0.0810 -0.6087
  702MOL0     C96778   2.879   8.897  10.978 -0.4725  0.5248  1.0629
  702MOL0     C96779   2.985   8.800  10.919 -1.0510 -0.1877 -0.4492
  702MOL0     C96780   3.135   8.843  10.968 -0.8166 -0.1162 -0.0432
  702MOL0     C96781   3.188   8.927  10.855  0.3702 -0.3193  0.2515
  702MOL0     C96782   3.269   8.853  10.753  0.3202  0.4767  0.0710
  702MOL0    Cl96783   3.281   8.924  10.594  0.6648 -0.2108  0.2230
  702MOL0     C96784   2.321   9.060  10.762  0.6447  0.2255 -0.3101
  702MOL0     C96785   2.279   9.153  10.671  0.8075  0.0501 -0.4387
  702MOL0     O96786   2.127   9.358  10.518  0.0329  0.0191  0.7638
  702MOL0     C96787   2.309   9.366  10.207  0.7377  1.1741 -0.3864
  702MOL0     C96788   2.319   9.434  10.088 -0.4554  1.0805 -0.2016
  702MOL0     N96789   1.925   8.926   9.901  1.0716 -0.5904 -0.0940
  702MOL0     N96790   1.800   8.884   9.914 -0.5554 -0.1027  0.0684
  702MOL0     C96791   1.142   8.271  10.419  0.6105  0.6817  0.1753
  702MOL0     C96792   1.095   8.156  10.487 -0.2492  0.1359 -0.6748
  702MOL0     C96793   1.046   7.736  10.652  0.3661  0.2497  1.0682
  702MOL0     C96794   1.123   7.648  10.724 -0.4710  0.0695  0.2658
  702MOL0     C96795   1.075   7.525  10.774  0.7059  0.0260  0.3216
  702MOL0     C96796   0.936   7.499  10.760 -1.1937 -0.2372 -0.1075
  702MOL0     O96797   0.867   7.393  10.827 -0.7120 -0.3366  0.1806
  702MOL0     C96798   0.933   7.323  10.926  0.8130  0.3488 -0.7370
  702MOL0     C96799   0.855   7.218  10.985  0.5503  1.0134 -1.2041
  702MOL0     C96800   0.818   7.112  10.880  0.3015  0.3652  1.1516
  702MOL0     C96801   0.726   7.016  10.945 -0.3839  0.0190 -0.1420
  702MOL0     C96802   0.658   6.933  10.847 -0.8547  0.4399 -0.4330
  702MOL0     C96803   0.607   6.874  10.757  0.2808 -0.9392  0.2246
  702MOL0     C96804   0.862   7.591  10.693  0.8259 -0.0124  0.1691
  702MOL0     C96805   0.908   7.704  10.631 -0.4523 -0.4669 -0.1461
  702MOL0     C96806   0.811   7.780  10.539  0.7238  0.5060 -0.5418
  702MOL0     H96807   1.192   7.916  10.274  2.1936  0.6817 -0.1119
  702MOL0     H96808   1.257   8.110  10.147 -0.1370 -0.4034 -0.3344
  702MOL0     H96809   1.278   8.519  10.358  0.7280  0.4229 -1.2953
  702MOL0     H96810   1.116   8.525  10.272 -0.4202  0.1751 -1.6848
  702MOL0     H96811   1.277   8.696  10.218  1.8141 -0.0538  1.3334
  702MOL0     H96812   1.413   8.584  10.191  0.0891  2.5360  2.2074
  702MOL0     H96813   1.257   8.497   9.999  3.4093 -0.1691 -1.2108
  702MOL0     H96814   1.203   8.673  10.022  0.7038  1.1162  0.4941
  702MOL0     H96815   1.463   8.719  10.009 -1.4594 -1.5022  1.5691
  702MOL0     H96816   1.475   8.557   9.953 -0.4744  0.1570  1.9444
  702MOL0     H96817   1.301   8.750   9.783  0.7724 -0.1782 -0.3844
  702MOL0     H96818   1.378   8.606   9.742  1.8509  0.4345 -1.0553
  702MOL0     H96819   1.600   8.713   9.808 -0.9294  0.8633  1.3399
  702MOL0     H96820   1.533   8.730   9.647  0.1830 -0.6945  0.8463
  702MOL0     H96821   1.403   8.954   9.751  0.3584 -0.4183  2.6484
  702MOL0     H96822   1.567   8.940   9.680 -0.0083 -1.8420 -0.6676
  702MOL0     H96823   1.533   9.079   9.901 -3.4204 -0.2536  0.0926
  702MOL0     H96824   1.542   8.918   9.976  2.2148 -0.7386 -0.3931
  702MOL0     H96825   1.759   9.161   9.753  1.2582 -2.1310 -5.3541
  702MOL0     H96826   2.019   9.160   9.687 -2.0622  0.3986  0.0271
  702MOL0     H96827   2.136   9.097   9.806 -0.7964 -0.6883 -1.1716
  702MOL0     H96828   1.945   9.328   9.881  1.1787  2.1390  2.5509
  702MOL0     H96829   2.090   9.256   9.965 -0.9821 -3.8867 -0.3391
  702MOL0     H96830   2.230   9.313   9.756 -0.0046 -1.7882  4.2634
  702MOL0     H96831   2.073   9.361   9.681  1.1639  2.0899 -0.9835
  702MOL0     H96832   2.221   9.558   9.725  0.7772  1.6080  1.0082
  702MOL0     H96833   2.067   9.580   9.813  0.6545  0.3148  1.5230
  702MOL0     H96834   2.013   9.562  10.061  0.0382 -0.6151  1.4829
  702MOL0     H96835   1.895   9.361  10.334 -1.6696  1.7023  1.8371
  702MOL0     H96836   1.870   9.488  10.231  0.5610 -1.9398 -1.2709
  702MOL0     H96837   1.950   9.525  10.382  0.4702  2.5836 -1.7806
  702MOL0     H96838   2.452   9.015  10.408  2.6167  0.5738 -0.2133
  702MOL0     H96839   2.549   8.879  10.588  0.3677 -0.7938  0.3487
  702MOL0     H96840   2.436   9.030  10.994  1.4139  1.3404 -0.5538
  702MOL0     H96841   2.460   8.858  11.049 -0.8115 -0.2538 -0.3507
  702MOL0     H96842   2.665   9.029  10.902 -0.0512  1.3205  0.4403
  702MOL0     H96843   2.662   8.992  11.081  2.1934 -0.4005  0.0122
  702MOL0     H96844   2.726   8.809  10.854  0.8849 -1.5082 -0.1520
  702MOL0     H96845   2.715   8.764  11.032  1.6432 -1.3660 -1.7987
  702MOL0     H96846   2.898   8.913  11.084 -0.5995  0.2662  1.1244
  702MOL0     H96847   2.895   8.993  10.927  0.7099 -0.3732 -0.3380
  702MOL0     H96848   2.959   8.701  10.958 -3.9306  1.4638  2.3559
  702MOL0     H96849   2.982   8.815  10.811 -0.4967  3.9464 -0.0842
  702MOL0     H96850   3.202   8.757  10.978  2.9426  2.1792 -2.9141
  702MOL0     H96851   3.122   8.896  11.063  0.3418 -0.7927  0.5171
  702MOL0     H96852   3.257   8.998  10.903 -1.3860 -0.6133  3.4477
  702MOL0     H96853   3.104   8.980  10.810 -0.6735  0.2837  2.7588
  702MOL0     H96854   3.243   8.748  10.738  1.9159 -0.6155  3.7301
  702MOL0     H96855   3.374   8.871  10.779  0.4492  1.7172 -1.2199
  702MOL0     H96856   2.276   9.086  10.857 -0.1985 -0.7531 -0.4318
  702MOL0     H96857   2.222   9.241  10.700  2.3167  0.3991  1.7092
  702MOL0     H96858   2.398   9.319  10.247  1.8711  2.3070 -1.5015
  702MOL0     H96859   2.408   9.435  10.024 -0.3855 -0.0632 -0.1455
  702MOL0     H96860   1.126   8.367  10.466 -3.6858 -0.1178  0.7728
  702MOL0     H96861   1.043   8.167  10.582 -1.2209 -2.3210 -0.8655
  702MOL0     H96862   1.227   7.666  10.750  0.2160 -2.0190 -0.7841
  702MOL0     H96863   1.141   7.454  10.822 -0.7117 -2.1690 -0.8189
  702MOL0     H96864   1.025   7.274  10.895 -0.0845 -2.1467  0.2656
  702MOL0     H96865   0.960   7.385  11.012  0.7649 -0.7283  0.0842
  702MOL0     H96866   0.765   7.261  11.032  0.9792 -0.2822  0.9366
  702MOL0     H96867   0.909   7.177  11.071 -1.5080 -2.1648 -1.2559
  702MOL0     H96868   0.776   7.160  10.792 -0.7512  1.9298  2.4582
  702MOL0     H96869   0.907   7.063  10.838 -0.4137  1.6297 -2.1368
  702MOL0     H96870   0.651   7.058  11.012 -0.6993 -0.6241 -0.0898
  702MOL0     H96871   0.780   6.944  11.006 -1.6673  0.1203  1.1683
  702MOL0     H96872   0.559   6.830  10.672 -1.0590  0.0936  0.4062
  702MOL0     H96873   0.760   7.555  10.686  1.4798 -2.5762  2.2737
  702MOL0     H96874   0.797   7.878  10.586 -2.1632 -0.6078  1.1280
  702MOL0     H96875   0.856   7.806  10.443  0.8452 -0.3682 -0.7265
  702MOL0     H96876   0.721   7.720  10.527  1.7042 -1.2167  0.1960
  703MOL0     O96877   4.719   2.949   7.305  0.0615  0.1026  0.3561
  703MOL0     C96878   4.727   2.830   7.268  0.0241 -0.0571 -0.3837
  703MOL0     O96879   4.650   2.764   7.183 -0.1128 -0.9158 -0.5762
  703MOL0     C96880   4.532   2.821   7.161  1.2395  0.1121  0.2512
  703MOL0     C96881   4.486   2.822   7.030 -0.1270  0.0595  0.1013
  703MOL0     C96882   4.355   2.845   6.989 -0.2787 -0.3789  0.2676
  703MOL0     C96883   4.265   2.868   7.099 -0.6817 -0.1720  0.7182
  703MOL0     O96884   4.136   2.905   7.071  0.3632 -0.3999  0.2826
  703MOL0     C96885   4.062   2.826   6.975 -0.2592  0.6532  0.1643
  703MOL0     C96886   3.915   2.813   6.998 -0.2930  0.9386  0.3472
  703MOL0     C96887   3.886   2.793   7.151 -0.0744 -0.7139  0.5538
  703MOL0     C96888   3.744   2.816   7.184  1.2528  0.0042 -0.3046
  703MOL0     C96889   3.710   2.813   7.336  0.2018 -1.0813  0.5865
  703MOL0     C96890   3.782   2.919   7.416  0.5417 -0.1412  0.0653
  703MOL0     C96891   3.715   2.928   7.554 -0.5848 -0.1978 -0.7662
  703MOL0     C96892   3.803   3.034   7.632  0.9386 -0.5159  0.3611
  703MOL0     N96893   3.745   3.080   7.754 -0.7395 -0.8696 -0.2967
  703MOL0     C96894   3.674   3.202   7.765 -0.5434 -0.0747  0.6954
  703MOL0     C96895   3.629   3.210   7.891  0.3331 -0.2943  0.2374
  703MOL0     C96896   3.568   3.330   7.955 -1.1519  0.3394  1.0728
  703MOL0     C96897   3.419   3.329   7.927 -0.6732 -0.4465  0.4913
  703MOL0     C96898   3.357   3.449   7.995  0.4822 -0.4896 -0.7830
  703MOL0     C96899   3.212   3.463   7.946 -0.6657  1.3859 -0.1132
  703MOL0     O96900   3.170   3.577   8.016  0.0385 -0.6944 -0.6859
  703MOL0     C96901   3.072   3.668   7.976 -0.5451 -0.2395 -0.2795
  703MOL0     C96902   2.974   3.635   7.887  0.3266 -0.7560  0.7352
  703MOL0     C96903   2.877   3.725   7.843 -0.3217 -0.2539 -0.3232
  703MOL0     C96904   2.779   3.659   7.760 -0.2458 -0.9875 -0.7271
  703MOL0     C96905   2.880   3.853   7.893 -0.4419 -0.2857  0.6417
  703MOL0     C96906   2.785   3.955   7.848  1.2716  0.5459 -0.0400
  703MOL0     O96907   2.750   4.054   7.941  0.1337 -0.0329 -0.4198
  703MOL0     C96908   2.647   4.153   7.910 -0.3914 -0.0012  0.6673
  703MOL0     C96909   2.563   4.158   7.789  0.1503  0.0087  0.5619
  703MOL0     C96910   2.491   4.269   7.776  0.2359 -0.9315 -0.3278
  703MOL0     C96911   2.488   4.376   7.868  0.6341  0.2881  0.6049
  703MOL0     O96912   2.394   4.466   7.841 -0.4736 -0.0096 -0.0359
  703MOL0     C96913   2.355   4.567   7.934  0.0326 -0.4521  0.0875
  703MOL0     C96914   2.217   4.614   7.893  0.0216  0.7017  0.4988
  703MOL0     C96915   2.157   4.707   7.998  0.5296  0.7877  0.3507
  703MOL0     C96916   2.024   4.770   7.952 -0.5624 -0.1756  0.1967
  703MOL0     C96917   2.041   4.835   7.808  0.9985  0.3748 -0.1505
  703MOL0     C96918   1.936   4.949   7.790  0.0344  0.5571  0.4863
  703MOL0     C96919   1.910   4.981   7.645 -0.6425 -0.5675  0.0348
  703MOL0     C96920   1.770   5.050   7.615 -1.5719 -0.5429 -0.5938
  703MOL0    Cl96921   1.735   5.171   7.748 -0.0348  0.4792 -0.3118
  703MOL0     C96922   2.567   4.366   7.983  0.0757 -0.7817  0.5313
  703MOL0     C96923   2.640   4.252   8.009 -0.5858  0.7740 -0.3083
  703MOL0     O96924   2.733   3.945   7.732  0.1542  0.1366 -0.7890
  703MOL0     C96925   2.982   3.890   7.977  0.4899 -1.2650  0.5348
  703MOL0     C96926   3.075   3.805   8.021  0.0682  0.6599 -0.5607
  703MOL0     N96927   3.660   3.084   7.951 -0.0917 -0.0329 -0.3894
  703MOL0     N96928   3.738   3.015   7.871  0.7253  0.3436  0.4304
  703MOL0     C96929   4.309   2.880   7.232 -0.0552  0.5077  1.1805
  703MOL0     C96930   4.437   2.853   7.265 -0.1177 -0.3269 -0.5800
  703MOL0     C96931   4.840   2.753   7.341 -0.6121  0.7461 -0.8987
  703MOL0     C96932   4.875   2.788   7.479  0.7307  0.5690  0.4245
  703MOL0     C96933   4.986   2.733   7.536  0.4317  0.8365 -0.0581
  703MOL0     C96934   5.058   2.641   7.466 -0.4886  0.7797  0.1880
  703MOL0     O96935   5.161   2.561   7.519  0.5114 -0.1005  0.5694
  703MOL0     C96936   5.272   2.628   7.567 -0.8970 -0.0187  0.4305
  703MOL0     C96937   5.376   2.533   7.606 -0.8320  1.0617 -0.7425
  703MOL0     C96938   5.424   2.464   7.476  0.1824 -0.1712  0.1987
  703MOL0     C96939   5.533   2.361   7.518 -0.4177  0.0536  0.2037
  703MOL0     C96940   5.534   2.246   7.424 -0.4323 -0.1412  0.6939
  703MOL0     C96941   5.547   2.157   7.336 -0.3600  0.3747  0.2863
  703MOL0     C96942   5.036   2.620   7.330 -0.0676  1.5561 -0.1929
  703MOL0     C96943   4.919   2.661   7.268  0.0947 -0.0290 -0.0228
  703MOL0     C96944   4.904   2.627   7.123 -0.2717 -0.1497 -0.2807
  703MOL0     H96945   4.525   2.793   6.933 -0.7880 -0.0901 -0.1289
  703MOL0     H96946   4.330   2.823   6.886  0.9894  0.7100 -0.3051
  703MOL0     H96947   4.109   2.727   6.977  0.2019  0.8725  1.9643
  703MOL0     H96948   4.076   2.865   6.874  2.5594 -0.9063 -0.1331
  703MOL0     H96949   3.859   2.905   6.979  0.6413  1.2509 -1.0862
  703MOL0     H96950   3.874   2.736   6.931  3.0687  1.0278 -2.0915
  703MOL0     H96951   3.909   2.689   7.178 -0.5070 -0.4232  2.1260
  703MOL0     H96952   3.954   2.857   7.208  3.0092 -2.9435 -0.3452
  703MOL0     H96953   3.705   2.908   7.140 -3.0542 -0.7780  1.3890
  703MOL0     H96954   3.688   2.730   7.144  1.0016 -1.1449  2.3315
  703MOL0     H96955   3.738   2.716   7.379  0.9105 -1.5109 -0.7937
  703MOL0     H96956   3.604   2.836   7.347 -0.1606 -1.3108 -1.9300
  703MOL0     H96957   3.888   2.898   7.432  0.1714 -1.6199  0.7044
  703MOL0     H96958   3.761   3.015   7.367 -3.7358 -1.0524 -0.2992
  703MOL0     H96959   3.720   2.829   7.601  2.6154 -0.2562 -1.0225
  703MOL0     H96960   3.614   2.969   7.546  0.1659  1.8724 -0.2686
  703MOL0     H96961   3.906   3.007   7.655  0.8558 -0.9213  0.2583
  703MOL0     H96962   3.811   3.123   7.569  1.4334 -0.5236  0.4047
  703MOL0     H96963   3.654   3.283   7.695 -2.3108 -0.5139  0.6537
  703MOL0     H96964   3.618   3.416   7.911 -0.6355 -0.6404 -0.3341
  703MOL0     H96965   3.586   3.321   8.063 -1.1009 -2.6375  0.8981
  703MOL0     H96966   3.401   3.330   7.819  3.2603 -0.8983 -0.3462
  703MOL0     H96967   3.378   3.232   7.955 -3.3311 -0.3997 -2.6382
  703MOL0     H96968   3.349   3.419   8.100  0.6016 -0.9443 -0.9010
  703MOL0     H96969   3.417   3.540   7.990 -1.5854  1.1787  1.9545
  703MOL0     H96970   3.209   3.476   7.837  0.4890  1.9716 -0.0905
  703MOL0     H96971   3.159   3.371   7.972 -0.1498  0.7299 -1.2911
  703MOL0     H96972   2.967   3.535   7.846  0.0872 -0.4263 -0.0392
  703MOL0     H96973   2.684   3.713   7.772  1.1845  1.4788  0.1907
  703MOL0     H96974   2.759   3.553   7.779 -2.7384 -1.5456 -5.0363
  703MOL0     H96975   2.802   3.665   7.653  1.4988 -2.9843 -0.5334
  703MOL0     H96976   2.554   4.090   7.705 -1.8363  1.1352 -0.1942
  703MOL0     H96977   2.429   4.289   7.689  1.8791 -0.3790 -1.4237
  703MOL0     H96978   2.354   4.529   8.036 -3.6054 -1.7790 -0.2789
  703MOL0     H96979   2.424   4.651   7.925  0.2964 -0.5576  1.0623
  703MOL0     H96980   2.234   4.673   7.803 -1.9188  0.0434 -0.3629
  703MOL0     H96981   2.155   4.528   7.864  1.9150 -0.5913  0.1087
  703MOL0     H96982   2.225   4.793   8.008 -0.7262  2.0103 -1.1335
  703MOL0     H96983   2.155   4.653   8.094  0.0853  0.2582  0.0470
  703MOL0     H96984   1.999   4.838   8.034  1.6742  0.2975  0.5514
  703MOL0     H96985   1.953   4.687   7.950 -0.4792 -0.2391 -0.1235
  703MOL0     H96986   2.141   4.878   7.797  2.8393 -3.7419 -1.2288
  703MOL0     H96987   2.035   4.752   7.737  1.7457  0.5396 -0.4098
  703MOL0     H96988   1.979   5.032   7.846 -1.6914  1.0436  1.1470
  703MOL0     H96989   1.837   4.921   7.828 -1.3928  3.4667 -0.7644
  703MOL0     H96990   1.903   4.882   7.600 -1.9971 -0.8854  0.8681
  703MOL0     H96991   1.994   5.038   7.604 -1.1746 -0.2727 -0.6749
  703MOL0     H96992   1.695   4.971   7.625 -0.6716 -1.1519  2.3643
  703MOL0     H96993   1.757   5.091   7.515 -2.7215 -2.8394 -1.4626
  703MOL0     H96994   2.576   4.444   8.057  1.8420 -1.0097  0.6028
  703MOL0     H96995   2.705   4.242   8.096  0.5537  3.1044 -0.8086
  703MOL0     H96996   2.983   3.994   8.009 -0.5254 -1.4288  1.1341
  703MOL0     H96997   3.148   3.830   8.097  2.5125  1.5544 -3.0649
  703MOL0     H96998   4.235   2.897   7.310  0.0760 -0.5533  1.5583
  703MOL0     H96999   4.464   2.873   7.368 -3.1499  1.1659  0.0309
  703MOL0     H97000   4.808   2.857   7.530  0.1774  1.9614 -2.0366
  703MOL0     H97001   4.988   2.747   7.644  0.4539  3.0544 -0.3055
  703MOL0     H97002   5.311   2.701   7.495  0.1424 -0.4259  0.5643
  703MOL0     H97003   5.250   2.678   7.662  0.5338 -1.3638  1.5253
  703MOL0     H97004   5.336   2.460   7.677  2.6565 -0.7462 -0.4627
  703MOL0     H97005   5.459   2.582   7.658 -0.5188 -1.8005  1.7133
  703MOL0     H97006   5.336   2.420   7.426  0.8568  1.6746 -2.8779
  703MOL0     H97007   5.457   2.532   7.398 -2.4178  1.1108  0.0940
  703MOL0     H97008   5.502   2.321   7.615 -0.4825 -1.3781 -0.3833
  703MOL0     H97009   5.631   2.410   7.525 -0.8353  1.0436 -0.5876
  703MOL0     H97010   5.561   2.070   7.275  0.4325 -1.5079  2.9829
  703MOL0     H97011   5.107   2.569   7.265  1.2207 -0.4215  2.5433
  703MOL0     H97012   4.927   2.717   7.065  1.7035  0.7033  1.7010
  703MOL0     H97013   4.979   2.552   7.096 -0.2997 -0.5054  0.5956
  703MOL0     H97014   4.799   2.598   7.108 -0.2011 -0.3724 -0.3465
  704MOL0     O97015   0.291   3.068  10.241 -0.6174 -0.1866 -0.2900
  704MOL0     C97016   0.228   3.041  10.134  0.2291  0.3681 -0.2918
  704MOL0     O97017   0.217   3.115  10.024 -0.4261  0.1691 -0.1106
  704MOL0     C97018   0.279   3.237  10.007  0.2251 -0.5093 -0.3642
  704MOL0     C97019   0.282   3.289   9.880  0.0182  0.3064 -0.7731
  704MOL0     C97020   0.335   3.417   9.851  0.0244 -0.3850 -1.0241
  704MOL0     C97021   0.388   3.492   9.956 -0.5055  0.6872 -0.0120
  704MOL0     O97022   0.437   3.610   9.916  0.4041  0.4643  0.8771
  704MOL0     C97023   0.482   3.701  10.022  0.7141 -0.3142  0.0616
  704MOL0     C97024   0.487   3.840   9.956 -0.2566  1.4736  0.4241
  704MOL0     C97025   0.359   3.911   9.945  0.7785  0.8152 -0.9668
  704MOL0     C97026   0.359   4.017   9.833 -0.2201 -0.2307 -0.0066
  704MOL0     C97027   0.238   4.102   9.812 -0.8587  0.9322  1.5123
  704MOL0     C97028   0.274   4.200   9.690  0.8463 -0.5204  0.6766
  704MOL0     C97029   0.135   4.271   9.660  0.5222 -0.4582 -0.2399
  704MOL0     C97030   0.032   4.191   9.578 -0.8184 -0.9604 -0.1142
  704MOL0     N97031   0.073   4.152   9.442 -0.0428  0.6216 -0.1354
  704MOL0     C97032   0.103   4.018   9.412  0.2570 -0.4684 -0.5571
  704MOL0     C97033   0.109   4.013   9.283 -0.3662 -1.1551  0.4236
  704MOL0     C97034   0.120   3.883   9.207  0.2732  0.4229  0.0587
  704MOL0     C97035   0.051   3.753   9.267 -0.0279 -0.1559 -0.2705
  704MOL0     C97036   0.041   3.648   9.155  0.5171  0.0518  1.0821
  704MOL0     C97037  -0.027   3.522   9.206 -0.8707 -0.6059  0.9197
  704MOL0     O97038  -0.045   3.426   9.111  0.3898  0.1964  0.2186
  704MOL0     C97039  -0.171   3.420   9.050  0.1083 -0.5100  1.0374
  704MOL0     C97040  -0.225   3.296   9.031  0.0148 -1.2443  0.1213
  704MOL0     C97041  -0.359   3.277   8.975 -0.0299  0.0573  0.3266
  704MOL0     C97042  -0.404   3.134   8.953 -0.1717 -0.1120  0.0707
  704MOL0     C97043  -0.437   3.390   8.946  1.1790 -0.1032  0.4990
  704MOL0     C97044  -0.576   3.384   8.899 -0.0430 -0.5348  0.3612
  704MOL0     O97045  -0.619   3.257   8.838 -0.3616 -0.5153 -0.8105
  704MOL0     C97046  -0.757   3.226   8.824 -0.4931  0.1570  0.0028
  704MOL0     C97047  -0.838   3.280   8.715 -0.4658  1.1277  0.3480
  704MOL0     C97048  -0.972   3.262   8.715  0.6693 -0.0264  0.8527
  704MOL0     C97049  -1.037   3.190   8.817  0.7293  0.0034 -0.4527
  704MOL0     O97050  -1.183   3.177   8.811 -0.3376  0.5895  0.0399
  704MOL0     C97051  -1.253   3.096   8.902  0.0333  0.6719  0.2110
  704MOL0     C97052  -1.390   3.052   8.855  0.2389 -0.5471  0.3191
  704MOL0     C97053  -1.499   3.151   8.893 -0.5072 -0.1996 -0.5394
  704MOL0     C97054  -1.480   3.282   8.821  0.9231  0.3997  0.0308
  704MOL0     C97055  -1.603   3.379   8.843  0.2240  0.1445 -0.6557
  704MOL0     C97056  -1.625   3.443   8.981  0.2242  0.5463  0.2464
  704MOL0     C97057  -1.745   3.541   8.968  0.2424 -0.3897 -0.5590
  704MOL0     C97058  -1.877   3.488   8.916  0.0878  0.7269  0.3427
  704MOL0    Cl97059  -2.006   3.568   8.996  0.1590  0.4667 -0.1692
  704MOL0     C97060  -0.960   3.135   8.918  0.9249 -0.4644 -0.1462
  704MOL0     C97061  -0.821   3.152   8.929  0.9664  0.3159 -0.0976
  704MOL0     O97062  -0.638   3.489   8.908  0.4881  0.4248 -0.3566
  704MOL0     C97063  -0.387   3.515   8.978  0.0649 -0.3079 -0.9667
  704MOL0     C97064  -0.253   3.537   9.019 -0.4737  0.1761  0.6137
  704MOL0     N97065   0.087   4.133   9.225 -0.1256 -0.3384 -0.1082
  704MOL0     N97066   0.048   4.214   9.321 -0.1715 -0.4246 -0.2120
  704MOL0     C97067   0.394   3.435  10.080  0.2467  0.0322 -1.0454
  704MOL0     C97068   0.342   3.312  10.113 -0.5908 -0.5435  0.0977
  704MOL0     C97069   0.170   2.903  10.135  0.8204  0.1179 -0.3565
  704MOL0     C97070   0.229   2.808  10.223 -0.2122 -0.7257  0.5328
  704MOL0     C97071   0.185   2.675  10.213 -0.3198 -0.3810  0.1056
  704MOL0     C97072   0.090   2.632  10.130 -0.8986 -0.1454 -0.4903
  704MOL0     O97073   0.076   2.500  10.142 -0.5126  0.5983  0.8454
  704MOL0     C97074  -0.027   2.441  10.065  0.1274 -0.1044 -0.9740
  704MOL0     C97075  -0.050   2.293  10.102  0.8840 -0.2112 -0.3218
  704MOL0     C97076   0.049   2.198  10.041 -0.0197  0.5260  0.2516
  704MOL0     C97077  -0.008   2.062  10.069 -1.2083 -0.1019 -0.1235
  704MOL0     C97078   0.056   1.965   9.983 -0.1473  0.4796 -1.0214
  704MOL0     C97079   0.117   1.901   9.909 -0.2337  0.4589 -0.2198
  704MOL0     C97080   0.024   2.723  10.036 -0.6345  0.1880 -0.7943
  704MOL0     C97081   0.069   2.858  10.038  0.8192  0.0480  0.4565
  704MOL0     C97082  -0.008   2.951   9.948  0.4198 -0.6715 -0.7406
  704MOL0     H97083   0.248   3.227   9.798 -1.1142 -2.1227  1.3981
  704MOL0     H97084   0.328   3.457   9.750 -1.0365 -2.1304 -1.6787
  704MOL0     H97085   0.582   3.664  10.045  0.7437 -1.4557 -1.7012
  704MOL0     H97086   0.426   3.696  10.116  4.0147 -4.7964  2.1447
  704MOL0     H97087   0.554   3.909  10.009  0.4530  1.2132 -0.1207
  704MOL0     H97088   0.534   3.802   9.865 -1.3493  0.2797  0.3403
  704MOL0     H97089   0.281   3.837   9.923  0.5423 -0.7324  3.8799
  704MOL0     H97090   0.341   3.963  10.040 -0.7974 -2.3189  0.6001
  704MOL0     H97091   0.448   4.077   9.853 -0.8235  0.3109  1.1948
  704MOL0     H97092   0.390   3.978   9.736  3.4946  1.0636  0.4992
  704MOL0     H97093   0.211   4.155   9.904 -1.4324  1.7429  0.8885
  704MOL0     H97094   0.158   4.035   9.779 -1.0158  2.4793 -1.5577
  704MOL0     H97095   0.338   4.282   9.723 -3.0504  4.5981 -2.8562
  704MOL0     H97096   0.309   4.145   9.602 -2.5272 -1.3202 -0.3056
  704MOL0     H97097   0.143   4.364   9.602  1.0378 -1.0544 -1.1536
  704MOL0     H97098   0.098   4.299   9.759  1.7829  1.6554 -0.2995
  704MOL0     H97099  -0.008   4.107   9.636 -0.2439 -2.6203 -1.9806
  704MOL0     H97100  -0.050   4.264   9.577 -1.7204 -1.9251  0.7135
  704MOL0     H97101   0.099   3.933   9.478  0.6366  0.2403  0.3932
  704MOL0     H97102   0.222   3.857   9.178 -0.1254 -0.2404 -0.7924
  704MOL0     H97103   0.070   3.903   9.111 -1.1617  1.7851  1.0412
  704MOL0     H97104   0.120   3.716   9.344  2.3107 -1.5268 -2.8808
  704MOL0     H97105  -0.039   3.770   9.327  3.5382  1.8532  5.4170
  704MOL0     H97106  -0.019   3.693   9.076  0.8816  0.8620  1.2502
  704MOL0     H97107   0.141   3.629   9.115  0.6031  3.0203 -0.3786
  704MOL0     H97108   0.042   3.484   9.282  1.1817  2.2170  0.6557
  704MOL0     H97109  -0.120   3.561   9.250  1.0946 -0.5977  5.7506
  704MOL0     H97110  -0.163   3.211   9.061  0.5268 -0.3478  1.7423
  704MOL0     H97111  -0.498   3.118   9.008 -0.1934  0.5065  0.2205
  704MOL0     H97112  -0.319   3.071   8.981 -1.2737 -1.6288  0.1775
  704MOL0     H97113  -0.419   3.106   8.848  0.4471  0.0325 -0.0554
  704MOL0     H97114  -0.783   3.336   8.640 -0.5875 -0.5432 -1.0690
  704MOL0     H97115  -1.036   3.299   8.636 -0.0167  1.8156  2.2183
  704MOL0     H97116  -1.199   3.003   8.924 -0.9439  0.1849  0.5956
  704MOL0     H97117  -1.265   3.147   8.998  0.4870 -0.6798  1.0047
  704MOL0     H97118  -1.380   3.042   8.746 -1.6713 -3.1885  0.2879
  704MOL0     H97119  -1.425   2.960   8.901 -3.1394  0.3459 -0.1771
  704MOL0     H97120  -1.501   3.163   9.002  1.8699 -0.6791 -0.4049
  704MOL0     H97121  -1.596   3.109   8.865  0.2507 -1.1538 -1.8139
  704MOL0     H97122  -1.468   3.265   8.714 -1.5720 -1.9355  0.0045
  704MOL0     H97123  -1.391   3.335   8.858 -0.7205  4.5822 -1.4310
  704MOL0     H97124  -1.599   3.459   8.769 -0.8894  2.5866  1.7367
  704MOL0     H97125  -1.692   3.324   8.809  1.4981 -0.7822 -2.6583
  704MOL0     H97126  -1.536   3.504   9.001 -0.9007  2.2573  0.2515
  704MOL0     H97127  -1.630   3.360   9.052  2.5332 -0.7880 -1.0223
  704MOL0     H97128  -1.719   3.628   8.907  2.0088  0.1732  0.9307
  704MOL0     H97129  -1.764   3.585   9.066  1.3947 -1.2889  0.0940
  704MOL0     H97130  -1.882   3.382   8.942 -1.0291  1.0049  1.2925
  704MOL0     H97131  -1.871   3.503   8.808 -1.6551  0.5996  0.2039
  704MOL0     H97132  -1.006   3.088   9.003  1.1494  0.5411  0.5510
  704MOL0     H97133  -0.770   3.113   9.017 -1.0822 -2.9906 -0.1923
  704MOL0     H97134  -0.450   3.603   8.981  0.1629 -0.2675  0.4469
  704MOL0     H97135  -0.227   3.637   9.050 -2.3420  0.9588 -0.1700
  704MOL0     H97136   0.418   3.503  10.161 -2.0956 -3.6568  3.1559
  704MOL0     H97137   0.323   3.283  10.216 -0.0167 -1.1595  0.0399
  704MOL0     H97138   0.317   2.837  10.278  2.2546  1.4288 -4.0318
  704MOL0     H97139   0.235   2.613  10.287  2.1274  1.2807 -0.0641
  704MOL0     H97140  -0.120   2.488  10.098 -0.8228 -1.5832 -1.4300
  704MOL0     H97141  -0.013   2.449   9.956 -1.3585 -0.7214 -1.2360
  704MOL0     H97142  -0.154   2.274  10.074  0.0657  4.7068 -1.7258
  704MOL0     H97143  -0.050   2.273  10.209 -1.1907 -2.6185 -0.6796
  704MOL0     H97144   0.058   2.219   9.934  3.1349 -0.5309  0.1964
  704MOL0     H97145   0.146   2.209  10.090 -0.0083 -0.2197  0.4002
  704MOL0     H97146  -0.116   2.065  10.053 -1.4017 -3.2127  0.1081
  704MOL0     H97147   0.000   2.027  10.172 -0.1519 -0.9775 -0.4867
  704MOL0     H97148   0.178   1.847   9.839 -0.9911 -0.9205  0.1392
  704MOL0     H97149  -0.059   2.684   9.978 -0.1451  1.9386 -2.7762
  704MOL0     H97150  -0.070   3.023  10.002  0.4851 -0.7312 -0.5831
  704MOL0     H97151   0.060   3.005   9.881  0.6751  0.3701  0.3129
  704MOL0     H97152  -0.076   2.888   9.892  2.0758 -2.9570 -0.3285
  705MOL0     O97153   8.086   0.300   4.666 -0.2310 -0.6223  0.0628
  705MOL0     C97154   8.011   0.254   4.747  0.1289  1.5482 -0.2050
  705MOL0     O97155   7.960   0.318   4.857 -0.4086 -0.0734  0.2924
  705MOL0     C97156   8.005   0.448   4.890 -0.0420  0.3574  0.7210
  705MOL0     C97157   8.014   0.547   4.794  0.9476 -0.2654  0.4954
  705MOL0     C97158   8.053   0.675   4.818 -0.7178 -0.0705  0.4039
  705MOL0     C97159   8.102   0.708   4.948  0.6336  0.1722 -0.3714
  705MOL0     O97160   8.147   0.832   4.975  0.3759  0.5980  1.0213
  705MOL0     C97161   8.292   0.827   4.966 -0.3706  0.3745  0.1771
  705MOL0     C97162   8.339   0.959   5.007  0.1061  0.6320 -0.1648
  705MOL0     C97163   8.490   0.963   5.020  0.0779  0.6052  0.4905
  705MOL0     C97164   8.539   1.110   5.028  0.0274 -0.1520 -0.5136
  705MOL0     C97165   8.546   1.184   4.896  0.4901  0.3971 -0.7582
  705MOL0     C97166   8.580   1.335   4.932  0.7489 -0.5235 -0.7818
  705MOL0     C97167   8.571   1.427   4.807  1.2828 -0.5129  0.8318
  705MOL0     C97168   8.410   1.460   4.779 -0.2211  0.7585 -0.0488
  705MOL0     N97169   8.398   1.567   4.676 -0.6633 -0.0430 -0.2926
  705MOL0     C97170   8.306   1.674   4.684  0.2596  0.2526  0.9409
  705MOL0     C97171   8.338   1.755   4.583 -0.1924  0.2266  0.4337
  705MOL0     C97172   8.268   1.890   4.558  0.0215 -0.3056  0.8992
  705MOL0     C97173   8.354   1.974   4.446 -0.1191  0.2714 -0.7093
  705MOL0     C97174   8.491   2.026   4.508  0.5141  0.2913  0.0537
  705MOL0     C97175   8.561   2.119   4.413 -1.5536 -0.2234 -0.2116
  705MOL0     O97176   8.704   2.105   4.424  0.3674  0.4115  0.2831
  705MOL0     C97177   8.774   2.135   4.532 -1.3417 -0.3241 -0.0452
  705MOL0     C97178   8.897   2.081   4.561  0.9478  0.1990 -0.4890
  705MOL0     C97179   8.965   2.119   4.678 -0.1355  0.3269 -0.4346
  705MOL0     C97180   9.101   2.058   4.687 -0.2512  0.6580  0.4569
  705MOL0     C97181   8.912   2.209   4.769 -0.8952 -0.2081  0.0167
  705MOL0     C97182   8.961   2.229   4.908  0.5124 -0.5301  0.1455
  705MOL0     O97183   8.914   2.335   4.990 -0.5962 -0.7909 -0.1005
  705MOL0     C97184   8.942   2.329   5.126 -0.2856 -0.2832  0.6859
  705MOL0     C97185   9.076   2.315   5.172  0.4202 -0.0737  0.3256
  705MOL0     C97186   9.093   2.285   5.306 -0.3873 -0.5194  0.0900
  705MOL0     C97187   8.982   2.298   5.395  0.3879  0.5616 -0.1940
  705MOL0     O97188   9.008   2.293   5.531  0.3186 -0.0716 -0.1504
  705MOL0     C97189   8.912   2.280   5.636  1.0485  0.2904  0.8634
  705MOL0     C97190   8.958   2.238   5.768  0.1684 -0.1574 -0.2490
  705MOL0     C97191   9.030   2.108   5.773 -0.1713  0.8497  0.4385
  705MOL0     C97192   8.937   1.977   5.763 -0.7304  0.7561  0.3402
  705MOL0     C97193   8.905   1.930   5.619  0.8305  0.5354  0.5757
  705MOL0     C97194   8.819   1.805   5.626 -0.0071  0.0863 -0.6730
  705MOL0     C97195   8.886   1.680   5.690 -0.2196  1.5063 -0.0768
  705MOL0     C97196   8.797   1.616   5.794 -0.0737  0.1392 -0.3425
  705MOL0    Cl97197   8.779   1.720   5.937  0.0019 -0.1393 -0.5010
  705MOL0     C97198   8.853   2.339   5.346 -0.5971 -0.2988 -0.3069
  705MOL0     C97199   8.832   2.342   5.206 -0.0378 -0.2560 -0.2666
  705MOL0     O97200   9.021   2.130   4.954  0.8619  0.4458  0.5164
  705MOL0     C97201   8.778   2.257   4.754  0.6389 -0.0142  0.2718
  705MOL0     C97202   8.712   2.226   4.627 -0.4438 -0.0974  0.1416
  705MOL0     N97203   8.439   1.696   4.507 -0.6652  0.4231 -0.2675
  705MOL0     N97204   8.485   1.585   4.566  0.3886 -0.3115 -0.1742
  705MOL0     C97205   8.093   0.612   5.051  0.1072  0.2175  0.6816
  705MOL0     C97206   8.041   0.483   5.017 -0.5499  0.1918 -0.6825
  705MOL0     C97207   7.967   0.115   4.718  1.0926  1.1071 -0.2562
  705MOL0     C97208   7.835   0.071   4.740 -1.1841  0.0083 -0.4056
  705MOL0     C97209   7.794  -0.051   4.719 -0.0369  0.0878 -0.1723
  705MOL0     C97210   7.879  -0.152   4.674 -0.0991  0.9594 -1.2414
  705MOL0     O97211   7.835  -0.286   4.648 -0.2686 -0.1971  0.3152
  705MOL0     C97212   7.912  -0.401   4.685 -0.1933  0.1289 -0.0911
  705MOL0     C97213   8.005  -0.466   4.577  0.1283  0.4926  0.4674
  705MOL0     C97214   7.945  -0.457   4.436 -0.1980 -0.1947  0.0594
  705MOL0     C97215   8.039  -0.460   4.319 -0.3517 -0.8343 -0.4324
  705MOL0     C97216   8.117  -0.586   4.315  0.5011 -0.1418  0.3320
  705MOL0     C97217   8.181  -0.692   4.325 -0.1202 -0.4001  0.8794
  705MOL0     C97218   7.999  -0.115   4.630 -0.7735  0.2338  0.8697
  705MOL0     C97219   8.043   0.017   4.656  0.5046 -0.2860  0.7512
  705MOL0     C97220   8.195   0.044   4.627  0.7170  0.4232 -0.2148
  705MOL0     H97221   7.988   0.525   4.690  1.3513  0.4122  0.2422
  705MOL0     H97222   8.064   0.749   4.739  1.6904  1.6776  2.2200
  705MOL0     H97223   8.313   0.815   4.859 -3.0231 -2.3458 -0.1661
  705MOL0     H97224   8.348   0.753   5.023 -0.7840  0.1642  0.3130
  705MOL0     H97225   8.301   1.028   4.931 -0.0463  0.2252 -0.4597
  705MOL0     H97226   8.286   0.977   5.101  3.2462  2.1078  1.4796
  705MOL0     H97227   8.512   0.909   5.112 -1.1228 -1.8989 -0.5934
  705MOL0     H97228   8.538   0.911   4.936  1.6000  0.7883  1.2164
  705MOL0     H97229   8.473   1.164   5.096  3.0331  0.3900  2.1735
  705MOL0     H97230   8.631   1.105   5.088 -1.7078  0.7165  2.4382
  705MOL0     H97231   8.449   1.183   4.847  0.3636  2.1756 -0.5988
  705MOL0     H97232   8.621   1.139   4.830  1.1153  3.7984 -2.5635
  705MOL0     H97233   8.508   1.364   5.009  2.6417  0.9015  0.5805
  705MOL0     H97234   8.678   1.343   4.981 -0.4417  2.6981  1.4007
  705MOL0     H97235   8.625   1.392   4.719  0.9304 -1.5919  1.0223
  705MOL0     H97236   8.603   1.529   4.833 -0.5640  0.3078  0.0532
  705MOL0     H97237   8.351   1.371   4.756 -1.3211  0.8790  2.0541
  705MOL0     H97238   8.369   1.496   4.874  3.1868  1.2024  1.3801
  705MOL0     H97239   8.227   1.698   4.754  0.2051  3.8452 -0.1509
  705MOL0     H97240   8.271   1.949   4.651  0.3362 -0.8571  1.2422
  705MOL0     H97241   8.165   1.870   4.528  1.4986 -4.0988 -2.4331
  705MOL0     H97242   8.379   1.908   4.363  5.1348 -0.9774  1.4858
  705MOL0     H97243   8.299   2.059   4.403  0.8901 -1.1512 -5.3821
  705MOL0     H97244   8.463   2.075   4.602 -0.2796  1.0637 -0.5661
  705MOL0     H97245   8.552   1.938   4.530  0.1070  0.4555  2.0684
  705MOL0     H97246   8.545   2.088   4.310  2.3792 -1.0876 -0.7152
  705MOL0     H97247   8.538   2.225   4.427  1.1752  0.2215  1.6309
  705MOL0     H97248   8.928   2.016   4.480 -0.4755 -0.3919 -0.5958
  705MOL0     H97249   9.169   2.129   4.735  1.6050 -2.5236  2.9802
  705MOL0     H97250   9.147   2.028   4.592 -1.8321 -0.1931 -0.0901
  705MOL0     H97251   9.104   1.975   4.759 -0.7075 -0.4887 -0.7964
  705MOL0     H97252   9.151   2.294   5.097  1.6859 -1.2651  1.8617
  705MOL0     H97253   9.194   2.256   5.331  0.4938  0.8230 -1.6601
  705MOL0     H97254   8.864   2.378   5.641  0.9924  0.2597  0.9295
  705MOL0     H97255   8.825   2.220   5.605  1.7644 -0.5801  0.5027
  705MOL0     H97256   9.025   2.322   5.787 -1.0247  0.6616  0.3954
  705MOL0     H97257   8.883   2.234   5.847  0.1619 -5.2286 -0.1905
  705MOL0     H97258   9.076   2.111   5.872  0.3263 -0.2119  0.2529
  705MOL0     H97259   9.116   2.105   5.706 -0.8861 -1.7542 -0.5052
  705MOL0     H97260   8.856   1.974   5.836  0.4196  0.7887  1.6534
  705MOL0     H97261   9.010   1.908   5.806  0.2036  1.6470  0.2496
  705MOL0     H97262   8.842   2.008   5.575  1.7084 -0.2543 -2.3406
  705MOL0     H97263   8.982   1.911   5.543  0.0997  0.0710 -0.0619
  705MOL0     H97264   8.788   1.784   5.523 -3.8244  0.3946  0.2567
  705MOL0     H97265   8.738   1.828   5.697  2.7071 -0.9335  3.0335
  705MOL0     H97266   8.985   1.704   5.730  0.1976 -0.4849  0.1986
  705MOL0     H97267   8.892   1.609   5.606  0.4946 -1.2892  2.1828
  705MOL0     H97268   8.843   1.522   5.828 -0.3629  0.9091  2.4500
  705MOL0     H97269   8.698   1.587   5.760 -0.6339 -0.1441  1.4029
  705MOL0     H97270   8.767   2.356   5.409 -1.2921  2.3902 -1.8461
  705MOL0     H97271   8.726   2.347   5.179  0.1047  0.4929 -0.7174
  705MOL0     H97272   8.727   2.313   4.831  3.0100  2.0629  0.4612
  705MOL0     H97273   8.615   2.268   4.600 -0.3398 -2.9177 -6.3066
  705MOL0     H97274   8.099   0.628   5.158 -1.6685 -2.3048  1.2721
  705MOL0     H97275   8.023   0.408   5.093 -1.5889  0.3099 -0.8051
  705MOL0     H97276   7.754   0.138   4.768 -0.9886  1.8830 -3.7610
  705MOL0     H97277   7.695  -0.080   4.752 -1.0095  3.3593  0.2116
  705MOL0     H97278   7.964  -0.371   4.777  0.7037  2.1880 -1.1912
  705MOL0     H97279   7.833  -0.473   4.705 -0.6889  0.5117 -0.6430
  705MOL0     H97280   8.024  -0.571   4.600  0.2265  0.5508  0.6509
  705MOL0     H97281   8.102  -0.415   4.581 -0.3014  1.2559  1.6587
  705MOL0     H97282   7.858  -0.522   4.421 -1.1692  0.8624  0.9502
  705MOL0     H97283   7.896  -0.359   4.427 -4.6028 -2.0853  0.9581
  705MOL0     H97284   8.114  -0.381   4.318 -0.8785 -0.2959  0.8953
  705MOL0     H97285   7.988  -0.447   4.223  0.9953  0.0546 -1.0483
  705MOL0     H97286   8.236  -0.783   4.314  4.3644  2.1673 -0.9686
  705MOL0     H97287   8.061  -0.182   4.571  0.0768  2.1396 -0.4761
  705MOL0     H97288   8.247  -0.045   4.589 -2.0046 -0.4192 -2.2308
  705MOL0     H97289   8.218   0.113   4.545  3.7520  0.1638  0.3049
  705MOL0     H97290   8.237   0.081   4.721  0.9449  1.5490 -0.7505
  706MOL0     O97291   2.919   7.164   0.996  0.0960  0.4821 -0.3567
  706MOL0     C97292   2.999   7.154   1.092 -0.4458 -0.4533  0.6302
  706MOL0     O97293   3.117   7.219   1.104  0.6077 -0.4045 -0.2716
  706MOL0     C97294   3.167   7.318   1.020 -0.4031  0.1695 -1.0076
  706MOL0     C97295   3.261   7.413   1.072  0.1534 -0.2969 -0.4285
  706MOL0     C97296   3.320   7.503   0.988 -0.5309 -0.4272  0.8736
  706MOL0     C97297   3.312   7.493   0.846 -1.3280 -0.4246  1.2230
  706MOL0     O97298   3.390   7.554   0.747 -0.2827  0.7455  0.0345
  706MOL0     C97299   3.520   7.587   0.764 -0.7609 -0.6223  0.3882
  706MOL0     C97300   3.570   7.638   0.626 -0.0194 -0.2052  0.3402
  706MOL0     C97301   3.722   7.654   0.626 -0.2616 -0.2097 -1.2523
  706MOL0     C97302   3.763   7.723   0.490  0.4344  0.7725  0.3207
  706MOL0     C97303   3.916   7.745   0.486 -0.2955 -0.1737 -0.3672
  706MOL0     C97304   3.962   7.824   0.369  0.4547  0.0010 -0.0867
  706MOL0     C97305   4.107   7.865   0.382 -1.2608  0.2073  0.5065
  706MOL0     C97306   4.157   7.947   0.506  0.2882 -0.4900 -0.3396
  706MOL0     N97307   4.290   8.024   0.477  0.5478  0.5803 -0.1820
  706MOL0     C97308   4.308   8.135   0.398 -0.1206  0.6915  0.6298
  706MOL0     C97309   4.434   8.187   0.420 -0.1277  0.2412 -0.2402
  706MOL0     C97310   4.500   8.304   0.348  0.1025 -0.4475 -1.5151
  706MOL0     C97311   4.530   8.409   0.454  0.1909  0.8113 -0.8677
  706MOL0     C97312   4.566   8.541   0.390 -0.0041 -0.2046 -0.7469
  706MOL0     C97313   4.637   8.638   0.484 -0.5082 -0.3442 -0.5337
  706MOL0     O97314   4.750   8.576   0.543 -0.9314 -0.1036  0.5014
  706MOL0     C97315   4.823   8.636   0.646  0.1301 -0.8413  0.2274
  706MOL0     C97316   4.780   8.742   0.715  0.0096  0.5896 -0.9264
  706MOL0     C97317   4.856   8.791   0.826 -0.0597  0.0531 -0.2122
  706MOL0     C97318   4.813   8.914   0.892  0.9458  0.2755 -1.0431
  706MOL0     C97319   4.980   8.727   0.870  0.3567 -0.3065 -0.5371
  706MOL0     C97320   5.084   8.775   0.965  0.4628  0.0512  0.6505
  706MOL0     O97321   5.173   8.677   0.991 -0.6541  0.5129 -0.7104
  706MOL0     C97322   5.270   8.671   1.092  0.5072  0.1344 -0.6373
  706MOL0     C97323   5.342   8.548   1.113 -0.3181 -0.0173  0.1165
  706MOL0     C97324   5.448   8.542   1.206  0.6519 -0.4296  1.0008
  706MOL0     C97325   5.479   8.649   1.283 -0.7199 -0.8421 -0.0252
  706MOL0     O97326   5.580   8.662   1.374 -0.3962  0.1128 -0.2066
  706MOL0     C97327   5.688   8.565   1.365  0.0459  0.4866 -0.2121
  706MOL0     C97328   5.666   8.463   1.472  0.5585  0.0989 -0.0154
  706MOL0     C97329   5.793   8.439   1.552  0.2227  0.0778  0.6734
  706MOL0     C97330   5.813   8.282   1.583 -0.4966 -0.1233  0.1681
  706MOL0     C97331   5.898   8.269   1.711  0.5416 -0.5588 -0.2774
  706MOL0     C97332   5.982   8.143   1.718 -0.1971 -0.2846 -0.1621
  706MOL0     C97333   6.054   8.099   1.599 -0.1147 -0.0775 -0.1583
  706MOL0     C97334   6.174   8.008   1.618  0.2314  0.9900 -0.8304
  706MOL0    Cl97335   6.314   8.112   1.665 -0.0802  0.0065 -0.3857
  706MOL0     C97336   5.406   8.764   1.273 -0.0872 -0.0748 -0.4889
  706MOL0     C97337   5.306   8.775   1.179  0.1002  0.6915 -0.2401
  706MOL0     O97338   5.084   8.891   1.007  0.3341  0.6971 -0.1357
  706MOL0     C97339   5.004   8.608   0.796  1.0859 -0.2564  0.9255
  706MOL0     C97340   4.928   8.562   0.686 -0.1731 -0.1759 -0.3367
  706MOL0     N97341   4.494   8.107   0.521  0.0970  0.2797 -0.2810
  706MOL0     N97342   4.407   8.016   0.558 -0.4575  0.0237 -0.6416
  706MOL0     C97343   3.224   7.394   0.796 -1.7816 -0.2135 -0.3528
  706MOL0     C97344   3.160   7.310   0.878  1.0877  0.0473 -0.3686
  706MOL0     C97345   2.954   7.078   1.213 -0.2649  0.2521 -1.3103
  706MOL0     C97346   3.015   7.102   1.332  0.0501 -0.8086  0.9003
  706MOL0     C97347   2.972   7.049   1.453 -0.1603 -0.2480 -0.5143
  706MOL0     C97348   2.860   6.961   1.456  0.1662 -0.0829  0.3680
  706MOL0     O97349   2.806   6.889   1.560  0.5920 -0.8458 -0.8369
  706MOL0     C97350   2.901   6.871   1.676 -0.5064  0.3077  0.2580
  706MOL0     C97351   2.829   6.795   1.792  0.4047  0.3000  0.7035
  706MOL0     C97352   2.821   6.645   1.756  0.1248 -0.5661 -0.1432
  706MOL0     C97353   2.754   6.567   1.866  1.0588  1.0390  0.9545
  706MOL0     C97354   2.618   6.628   1.898  0.2927  0.1864  0.2524
  706MOL0     C97355   2.524   6.711   1.918  0.2676  0.0531 -1.0101
  706MOL0     C97356   2.797   6.930   1.327 -0.4439  0.1677 -0.0792
  706MOL0     C97357   2.849   6.977   1.208 -0.4447 -0.1442 -0.3297
  706MOL0     C97358   2.780   6.940   1.083 -0.6073  0.6085  0.3245
  706MOL0     H97359   3.280   7.398   1.178  4.1328 -1.0622 -1.0867
  706MOL0     H97360   3.398   7.572   1.017 -0.1762 -0.5250  0.1871
  706MOL0     H97361   3.584   7.502   0.786  0.8325 -0.3633 -2.7047
  706MOL0     H97362   3.538   7.654   0.849  3.1196  0.1774 -0.8567
  706MOL0     H97363   3.542   7.561   0.553 -1.5222 -0.3175  0.9835
  706MOL0     H97364   3.519   7.733   0.609  2.5188  1.5315  1.7587
  706MOL0     H97365   3.756   7.710   0.714 -0.4382 -1.1413 -0.5774
  706MOL0     H97366   3.778   7.561   0.629 -2.4305 -1.5611  0.3803
  706MOL0     H97367   3.736   7.678   0.395  0.6434 -0.3380  0.7737
  706MOL0     H97368   3.716   7.822   0.497 -2.5656 -0.2188 -2.9264
  706MOL0     H97369   3.959   7.644   0.479 -1.3278 -0.9406  2.7015
  706MOL0     H97370   3.955   7.788   0.579 -1.2225  1.0342 -0.5110
  706MOL0     H97371   3.953   7.758   0.282  1.2856 -0.0464 -0.1423
  706MOL0     H97372   3.892   7.909   0.366  0.3509 -0.0624  0.4866
  706MOL0     H97373   4.101   7.937   0.300 -1.0710 -0.7095 -0.3321
  706MOL0     H97374   4.182   7.786   0.371  0.1575  0.7671  4.4688
  706MOL0     H97375   4.089   8.021   0.549 -0.9981 -0.3989 -2.3971
  706MOL0     H97376   4.161   7.874   0.587 -2.1457 -2.9316 -2.2475
  706MOL0     H97377   4.242   8.166   0.318 -0.7367 -2.1169 -0.0336
  706MOL0     H97378   4.439   8.325   0.260 -2.1041 -1.3774 -0.2691
  706MOL0     H97379   4.600   8.274   0.313 -0.7217 -3.6214 -1.4184
  706MOL0     H97380   4.435   8.424   0.505 -0.2828  0.2377 -1.5663
  706MOL0     H97381   4.613   8.367   0.514  1.8088 -1.3694 -4.2942
  706MOL0     H97382   4.634   8.526   0.306 -0.9521 -0.4260 -1.4915
  706MOL0     H97383   4.476   8.591   0.353 -0.1116 -0.8539 -1.3783
  706MOL0     H97384   4.670   8.722   0.422 -0.2409  1.7759  2.3354
  706MOL0     H97385   4.562   8.668   0.558  0.3884  0.6659 -0.0078
  706MOL0     H97386   4.692   8.795   0.679 -0.0169  0.3513 -1.2146
  706MOL0     H97387   4.812   8.888   0.998 -0.5238  1.9191 -0.6075
  706MOL0     H97388   4.711   8.945   0.870  0.1352 -2.5483 -1.6438
  706MOL0     H97389   4.885   8.997   0.898 -2.1057  3.0035  1.5722
  706MOL0     H97390   5.311   8.461   1.057  0.8821  0.2781 -1.0539
  706MOL0     H97391   5.483   8.442   1.232 -0.7956 -1.0816  0.5600
  706MOL0     H97392   5.692   8.516   1.267 -0.3092  1.5815 -0.7826
  706MOL0     H97393   5.782   8.620   1.374 -0.8544  2.7382 -3.1209
  706MOL0     H97394   5.587   8.497   1.540  0.7773 -1.7201  1.2038
  706MOL0     H97395   5.633   8.365   1.436 -0.9284 -0.1517  1.8667
  706MOL0     H97396   5.785   8.482   1.652  0.9253  0.6400  0.4928
  706MOL0     H97397   5.882   8.485   1.509 -0.7307  0.8971 -0.4566
  706MOL0     H97398   5.853   8.231   1.494 -2.9569 -1.5971 -0.1804
  706MOL0     H97399   5.720   8.235   1.615 -0.2930 -1.9039 -1.6329
  706MOL0     H97400   5.969   8.352   1.712  0.3863 -0.4303  0.4642
  706MOL0     H97401   5.841   8.278   1.804  0.8967  1.1759 -0.2099
  706MOL0     H97402   5.922   8.054   1.743  1.7144 -2.1716 -1.9123
  706MOL0     H97403   6.047   8.153   1.805 -2.9742 -1.7921  2.2576
  706MOL0     H97404   6.082   8.187   1.539 -2.2951  1.6890  1.2620
  706MOL0     H97405   5.977   8.038   1.552 -1.7505  1.9172 -0.2122
  706MOL0     H97406   6.188   7.944   1.530 -1.9980 -0.5041 -0.1803
  706MOL0     H97407   6.153   7.945   1.704  3.6735  2.4240  1.2833
  706MOL0     H97408   5.424   8.851   1.334 -5.1377  0.3171  0.8770
  706MOL0     H97409   5.260   8.872   1.165 -0.2888  0.3408 -1.6078
  706MOL0     H97410   5.103   8.566   0.813  0.9933 -1.3137 -0.9154
  706MOL0     H97411   4.956   8.469   0.639  0.9836 -0.9577  1.8106
  706MOL0     H97412   3.220   7.400   0.687 -0.6793 -1.1125 -0.4562
  706MOL0     H97413   3.086   7.240   0.841 -1.3280  1.9984  0.4464
  706MOL0     H97414   3.086   7.184   1.338 -1.1638  0.2760  0.9017
  706MOL0     H97415   3.020   7.075   1.547 -3.3467  5.2612  0.0461
  706MOL0     H97416   2.986   6.812   1.642 -1.6306 -0.7564 -0.8347
  706MOL0     H97417   2.940   6.967   1.711  0.5712 -1.1076  3.2359
  706MOL0     H97418   2.734   6.846   1.811 -0.3348 -1.1137  0.9531
  706MOL0     H97419   2.876   6.809   1.890  1.2083  0.4019  0.3098
  706MOL0     H97420   2.776   6.641   1.657  3.3093  2.6346 -1.9588
  706MOL0     H97421   2.923   6.612   1.734  0.2223  0.9220 -2.2259
  706MOL0     H97422   2.818   6.551   1.953 -0.7130  0.6619  2.2350
  706MOL0     H97423   2.720   6.473   1.822 -3.4749  1.7894  2.3925
  706MOL0     H97424   2.434   6.770   1.924 -0.1792 -0.7338  0.6906
  706MOL0     H97425   2.711   6.864   1.322 -3.1226  3.4457 -0.6236
  706MOL0     H97426   2.731   6.843   1.094 -0.5606  0.7245  1.8272
  706MOL0     H97427   2.706   7.015   1.056 -1.0024  0.3034  0.5473
  706MOL0     H97428   2.853   6.932   1.002  1.2705 -4.2144  2.0765
  707MOL0     O97429   4.744   4.712  11.123  0.0500 -1.0811  0.2733
  707MOL0     C97430   4.812   4.651  11.211  0.5017 -0.4414 -0.1960
  707MOL0     O97431   4.946   4.623  11.202 -0.7240  0.6325  0.3918
  707MOL0     C97432   5.014   4.666  11.090  0.3317  0.5482  0.3784
  707MOL0     C97433   4.980   4.609  10.968  0.9726 -0.3754 -1.1214
  707MOL0     C97434   5.029   4.652  10.849 -0.8491  0.1468  1.1682
  707MOL0     C97435   5.111   4.762  10.845  0.8190 -1.0484  0.0400
  707MOL0     O97436   5.151   4.819  10.722  0.3885 -0.7841 -0.3328
  707MOL0     C97437   5.037   4.848  10.626 -0.6954  0.9387 -0.0080
  707MOL0     C97438   5.055   4.968  10.535  0.3409  0.3487  0.4715
  707MOL0     C97439   5.102   5.101  10.607  1.0523 -0.1057 -0.6712
  707MOL0     C97440   5.143   5.202  10.497  0.0797  0.5696  0.5507
  707MOL0     C97441   5.186   5.340  10.562 -0.5979  0.1503 -0.6099
  707MOL0     C97442   5.241   5.447  10.471  0.0390  0.9760 -0.0839
  707MOL0     C97443   5.304   5.561  10.566 -0.2807 -0.5954  0.4148
  707MOL0     C97444   5.451   5.543  10.609  1.6250 -0.2019  1.4135
  707MOL0     N97445   5.504   5.675  10.653 -0.4259  0.0476  0.4906
  707MOL0     C97446   5.621   5.686  10.724  0.2064 -0.4884 -0.2937
  707MOL0     C97447   5.621   5.810  10.771  0.1499  0.6877 -0.0321
  707MOL0     C97448   5.728   5.879  10.861 -0.2598 -0.5086  0.6080
  707MOL0     C97449   5.865   5.845  10.791 -0.9596 -0.8861 -0.6752
  707MOL0     C97450   5.972   5.937  10.859 -0.1747 -0.4663 -0.2648
  707MOL0     C97451   6.101   5.908  10.785  0.0430 -0.3530  1.3671
  707MOL0     O97452   6.100   5.956  10.641  0.8218  0.2425 -0.3391
  707MOL0     C97453   6.161   6.074  10.608 -0.1054  0.2171 -0.6751
  707MOL0     C97454   6.131   6.110  10.474 -0.1097 -0.2237  0.2173
  707MOL0     C97455   6.180   6.229  10.428  0.3575 -0.4763 -0.1380
  707MOL0     C97456   6.128   6.270  10.293  0.2363  0.4161  0.0920
  707MOL0     C97457   6.271   6.313  10.508 -1.5801 -0.4247 -0.9627
  707MOL0     C97458   6.330   6.444  10.475 -0.6905 -0.8341 -0.4212
  707MOL0     O97459   6.365   6.531  10.575  0.1097  0.1858  0.1312
  707MOL0     C97460   6.378   6.666  10.541 -0.2470  0.0607  1.1907
  707MOL0     C97461   6.484   6.740  10.590 -0.7554  0.3219  1.3072
  707MOL0     C97462   6.507   6.878  10.552  0.6227  0.3887 -0.5332
  707MOL0     C97463   6.403   6.939  10.470 -0.1414 -0.2339 -0.1415
  707MOL0     O97464   6.412   7.069  10.445 -0.5762  0.4318 -0.4300
  707MOL0     C97465   6.348   7.124  10.337  0.9194  0.4984 -0.2507
  707MOL0     C97466   6.393   7.267  10.305 -0.0827 -0.3856 -0.3080
  707MOL0     C97467   6.318   7.357  10.395  0.6159 -0.2021  0.0854
  707MOL0     C97468   6.407   7.471  10.462 -0.2700 -0.1426  0.8636
  707MOL0     C97469   6.315   7.580  10.527  0.4975  0.3121  0.4640
  707MOL0     C97470   6.214   7.650  10.441  0.2994  0.1773 -0.2368
  707MOL0     C97471   6.268   7.748  10.342 -0.3324  0.8313  0.1354
  707MOL0     C97472   6.166   7.807  10.259 -0.3806  0.2551 -0.5649
  707MOL0    Cl97473   6.245   7.916  10.143 -0.3724 -0.3311 -0.3784
  707MOL0     C97474   6.307   6.858  10.426  0.3713 -0.0958 -0.6932
  707MOL0     C97475   6.284   6.724  10.462  0.8729 -0.6385  0.4367
  707MOL0     O97476   6.351   6.455  10.354  0.1959  1.1141  0.4089
  707MOL0     C97477   6.303   6.264  10.635 -1.0883 -0.4291  0.2270
  707MOL0     C97478   6.245   6.153  10.688 -0.8351 -0.1275  0.7846
  707MOL0     N97479   5.494   5.867  10.742  0.0938  0.6038 -0.4647
  707MOL0     N97480   5.429   5.785  10.668 -0.3227  0.3034 -0.2430
  707MOL0     C97481   5.149   4.827  10.970  0.5181  0.7585  0.4466
  707MOL0     C97482   5.094   4.783  11.095  0.9286  0.2131 -0.2954
  707MOL0     C97483   4.729   4.599  11.320  0.1003 -0.1986  0.1485
  707MOL0     C97484   4.782   4.639  11.441 -0.3636 -0.6045 -0.6891
  707MOL0     C97485   4.736   4.594  11.567  0.1224 -0.4037  0.8254
  707MOL0     C97486   4.626   4.512  11.570 -0.4831  0.7684 -1.1805
  707MOL0     O97487   4.576   4.471  11.692  0.8599  0.2251 -1.3814
  707MOL0     C97488   4.519   4.569  11.782 -0.6099 -0.0065 -0.1605
  707MOL0     C97489   4.369   4.595  11.764 -0.4925  0.0043  0.2193
  707MOL0     C97490   4.284   4.464  11.754 -0.1531  0.0933 -0.0256
  707MOL0     C97491   4.150   4.473  11.824  0.3027  0.1737 -0.3494
  707MOL0     C97492   4.081   4.349  11.812 -0.3650 -0.0521 -0.8261
  707MOL0     C97493   4.023   4.242  11.799 -0.8067 -0.3250 -1.3342
  707MOL0     C97494   4.564   4.470  11.452 -0.5454  0.0048 -0.9527
  707MOL0     C97495   4.611   4.511  11.329  0.0862 -0.1487  0.5781
  707MOL0     C97496   4.551   4.446  11.199 -0.4253 -0.3942 -0.4424
  707MOL0     H97497   4.899   4.537  10.964 -0.5532  0.4708  5.0029
  707MOL0     H97498   4.999   4.592  10.764 -2.9442  1.7862  0.6743
  707MOL0     H97499   4.938   4.833  10.670 -0.3724 -2.4980 -0.1623
  707MOL0     H97500   5.039   4.769  10.551 -3.8772  0.1691  0.5947
  707MOL0     H97501   5.142   4.940  10.475  0.1079 -0.3983  0.4644
  707MOL0     H97502   4.966   4.984  10.473  0.7424  0.0980 -0.1762
  707MOL0     H97503   5.019   5.137  10.669  0.4608 -1.1267 -0.8452
  707MOL0     H97504   5.181   5.080  10.680  0.9155 -1.0883 -0.7904
  707MOL0     H97505   5.227   5.160  10.441 -2.5693 -0.6183 -2.8830
  707MOL0     H97506   5.061   5.228  10.429 -0.0777  0.7913  0.8243
  707MOL0     H97507   5.267   5.329  10.635 -3.1997  0.5238  2.5673
  707MOL0     H97508   5.093   5.376  10.608 -0.9406  0.1320 -1.2811
  707MOL0     H97509   5.320   5.387  10.427 -0.1172 -1.4116  2.5862
  707MOL0     H97510   5.169   5.483  10.397  0.9181 -0.9588 -1.9527
  707MOL0     H97511   5.234   5.586  10.646 -0.9110 -3.3779  0.8157
  707MOL0     H97512   5.301   5.645  10.496 -4.6182  0.4772  1.5961
  707MOL0     H97513   5.448   5.478  10.697  0.8257 -1.1993  0.6774
  707MOL0     H97514   5.505   5.506  10.521  0.9274  0.8786  0.5202
  707MOL0     H97515   5.705   5.618  10.740 -0.2368 -0.8240  0.6692
  707MOL0     H97516   5.718   5.836  10.961  3.2860  2.7754  2.6639
  707MOL0     H97517   5.709   5.986  10.871  0.0991 -0.3878  0.0365
  707MOL0     H97518   5.890   5.740  10.808  0.1736 -0.2936  1.6328
  707MOL0     H97519   5.880   5.859  10.683  4.6685  0.6055  0.0009
  707MOL0     H97520   5.954   6.044  10.844 -0.5042 -0.7041 -1.6314
  707MOL0     H97521   5.980   5.914  10.966 -0.0590  1.4615  0.1961
  707MOL0     H97522   6.179   5.954  10.846  1.3625 -1.9458  0.9611
  707MOL0     H97523   6.118   5.800  10.781 -0.3435 -0.3934  0.4204
  707MOL0     H97524   6.072   6.045  10.410  1.2787 -3.3905  1.9081
  707MOL0     H97525   6.213   6.296  10.229  1.9752 -3.5775  0.4802
  707MOL0     H97526   6.052   6.348  10.306  0.8898  1.3040 -1.2068
  707MOL0     H97527   6.072   6.191  10.244  1.6294 -1.3081  1.1666
  707MOL0     H97528   6.569   6.699  10.644  0.7842 -1.0182 -1.8835
  707MOL0     H97529   6.598   6.912  10.598  1.5871 -1.0552 -1.2897
  707MOL0     H97530   6.371   7.067  10.246 -2.5400  3.7820 -3.5247
  707MOL0     H97531   6.239   7.121  10.342  0.5879  3.6580 -2.7045
  707MOL0     H97532   6.502   7.283  10.308 -0.0106  0.1776 -3.1156
  707MOL0     H97533   6.360   7.294  10.204 -0.7372 -0.2679 -0.0648
  707MOL0     H97534   6.266   7.306  10.477  2.3106  0.7581  1.8457
  707MOL0     H97535   6.243   7.400  10.328  0.8870  1.3052  0.7117
  707MOL0     H97536   6.471   7.517  10.386 -0.2792 -0.2356  0.8010
  707MOL0     H97537   6.479   7.430  10.534 -0.0244  0.4650  0.9682
  707MOL0     H97538   6.257   7.529  10.604  1.2995 -0.2435  0.7097
  707MOL0     H97539   6.376   7.663  10.565 -1.2049  2.6985 -1.6689
  707MOL0     H97540   6.144   7.694  10.513 -0.0438 -0.5729 -0.1004
  707MOL0     H97541   6.154   7.575  10.387 -0.7430  0.5682  0.3403
  707MOL0     H97542   6.348   7.708  10.279 -0.7608  0.0838  0.0567
  707MOL0     H97543   6.319   7.835  10.385 -1.0593 -0.0854  3.1146
  707MOL0     H97544   6.108   7.877  10.320  1.3835  0.5281  0.8780
  707MOL0     H97545   6.106   7.738  10.199 -3.3840  2.3890 -0.2535
  707MOL0     H97546   6.235   6.891  10.352 -1.7891 -1.7092  0.5729
  707MOL0     H97547   6.189   6.676  10.441  1.4698 -0.8156 -2.1200
  707MOL0     H97548   6.375   6.315  10.699  0.0704 -1.3354 -0.3189
  707MOL0     H97549   6.299   6.123  10.777  2.4493 -0.5800 -1.2098
  707MOL0     H97550   5.220   4.909  10.979  3.1687 -1.4620  1.3428
  707MOL0     H97551   5.116   4.834  11.188 -0.5183  1.5866 -0.6534
  707MOL0     H97552   4.873   4.698  11.450  0.9792 -2.5522 -0.8192
  707MOL0     H97553   4.795   4.617  11.655  0.1688  0.4471  0.5828
  707MOL0     H97554   4.533   4.540  11.887 -2.2772 -1.1497 -0.2245
  707MOL0     H97555   4.568   4.666  11.771 -0.3798 -0.0267  0.6271
  707MOL0     H97556   4.354   4.646  11.668  1.5155 -2.4667 -1.5247
  707MOL0     H97557   4.329   4.662  11.841  0.6574  1.5268 -0.4576
  707MOL0     H97558   4.254   4.444  11.651 -3.0651  0.1255  0.7173
  707MOL0     H97559   4.350   4.384  11.788  1.5711  2.7006  3.3593
  707MOL0     H97560   4.092   4.546  11.767  2.3294  1.6749 -0.6097
  707MOL0     H97561   4.163   4.496  11.930 -0.8006 -0.3376 -0.0878
  707MOL0     H97562   3.965   4.152  11.792 -1.2358 -0.2523  0.7007
  707MOL0     H97563   4.476   4.406  11.454  0.1240 -0.9587 -1.5140
  707MOL0     H97564   4.543   4.337  11.205 -2.0848 -0.3402 -1.0402
  707MOL0     H97565   4.452   4.491  11.184 -0.2652  0.7400  1.5782
  707MOL0     H97566   4.620   4.458  11.114  0.7029 -0.9236  0.3798
  708MOL0     O97567   3.125   7.882   6.498 -0.4207  0.5206  0.1788
  708MOL0     C97568   3.170   7.939   6.400  0.6860 -0.0832 -0.0943
  708MOL0     O97569   3.202   7.878   6.280 -0.3251 -0.4213  1.2360
  708MOL0     C97570   3.227   7.743   6.265  0.2473 -0.1456  0.9091
  708MOL0     C97571   3.123   7.654   6.225  0.2158  0.9854 -0.3249
  708MOL0     C97572   3.152   7.518   6.209  0.3334  1.1067  0.0560
  708MOL0     C97573   3.280   7.464   6.237 -1.1127  0.4570 -0.2446
  708MOL0     O97574   3.301   7.325   6.228 -0.2524 -0.7867  0.2599
  708MOL0     C97575   3.355   7.267   6.340 -0.1798  0.9330  0.7208
  708MOL0     C97576   3.325   7.111   6.326 -0.6440  0.8497  0.5098
  708MOL0     C97577   3.176   7.082   6.336  0.6487 -0.1211 -0.1030
  708MOL0     C97578   3.169   6.946   6.400  0.3487 -0.1788  1.0515
  708MOL0     C97579   3.025   6.914   6.446 -0.6849 -0.5865  0.2645
  708MOL0     C97580   2.917   6.909   6.339 -0.2590  0.1283 -0.8079
  708MOL0     C97581   2.924   6.787   6.246  0.1323 -0.6683  0.7285
  708MOL0     C97582   2.840   6.808   6.127  0.2563  0.9709 -0.0199
  708MOL0     N97583   2.907   6.899   6.034 -0.2444  0.3372  0.0267
  708MOL0     C97584   2.887   7.037   6.017  0.2149  0.2586  0.6523
  708MOL0     C97585   2.981   7.077   5.926 -0.3400 -0.3693  0.5465
  708MOL0     C97586   2.979   7.221   5.850  0.1184 -0.1663 -0.3847
  708MOL0     C97587   3.113   7.269   5.790  0.4637 -0.0202 -0.6706
  708MOL0     C97588   3.219   7.292   5.902  0.3042 -0.6440 -0.6190
  708MOL0     C97589   3.322   7.406   5.856 -0.5837 -0.0702  0.5011
  708MOL0     O97590   3.443   7.425   5.918 -0.5299 -0.2011  0.8724
  708MOL0     C97591   3.545   7.524   5.893  1.3915 -0.1816 -0.2875
  708MOL0     C97592   3.523   7.623   5.798 -0.2575  0.0509 -0.5528
  708MOL0     C97593   3.638   7.681   5.733  0.1925 -0.7163 -0.4181
  708MOL0     C97594   3.614   7.776   5.618  0.2187 -0.5792  0.9081
  708MOL0     C97595   3.764   7.675   5.792 -0.8142  0.0081  0.2021
  708MOL0     C97596   3.885   7.742   5.746  0.0494 -0.1700 -1.0761
  708MOL0     O97597   3.867   7.852   5.656 -0.5589 -0.8358  0.0637
  708MOL0     C97598   3.983   7.912   5.610 -0.9747 -0.1462 -0.7689
  708MOL0     C97599   4.041   7.869   5.490  0.3461  0.2084 -0.6289
  708MOL0     C97600   4.155   7.932   5.446  1.4844  0.3293 -0.1338
  708MOL0     C97601   4.222   8.026   5.515  0.4227  0.8395 -0.3229
  708MOL0     O97602   4.351   8.060   5.467 -0.0886  0.3276 -1.1283
  708MOL0     C97603   4.437   8.152   5.529  0.7418 -0.6449 -0.2885
  708MOL0     C97604   4.392   8.294   5.539 -0.3312  0.6394  0.0497
  708MOL0     C97605   4.388   8.344   5.398  0.3237  0.7565  0.8665
  708MOL0     C97606   4.257   8.435   5.370 -0.7400 -0.0388 -0.1841
  708MOL0     C97607   4.183   8.406   5.234  0.8725 -0.6499  0.0727
  708MOL0     C97608   4.115   8.271   5.227 -0.2011 -1.3067  0.3483
  708MOL0     C97609   4.007   8.267   5.110  0.1684 -0.5301  0.4020
  708MOL0     C97610   3.997   8.124   5.056 -0.2428  0.0838  0.4451
  708MOL0    Cl97611   3.884   8.134   4.906 -0.0681  0.2728 -0.4260
  708MOL0     C97612   4.158   8.072   5.638 -0.4237 -0.4169  0.6433
  708MOL0     C97613   4.050   8.008   5.681  0.6169 -0.0575  0.0101
  708MOL0     O97614   3.993   7.686   5.765 -0.0943  0.7635 -0.0100
  708MOL0     C97615   3.777   7.590   5.902 -0.0831 -0.8004 -0.7582
  708MOL0     C97616   3.671   7.516   5.953  0.2151 -0.5739  1.1392
  708MOL0     N97617   3.063   6.965   5.903 -0.4914  0.1758  0.3357
  708MOL0     N97618   3.013   6.863   5.966  0.5830 -0.2256  0.3054
  708MOL0     C97619   3.377   7.564   6.276  0.8544  0.3261 -0.6025
  708MOL0     C97620   3.353   7.702   6.291  0.2313  0.2647 -0.0379
  708MOL0     C97621   3.190   8.089   6.410 -0.4582  0.4819 -0.2703
  708MOL0     C97622   3.159   8.148   6.532 -0.0976  0.1744 -0.0648
  708MOL0     C97623   3.145   8.290   6.548  0.2014  0.5856  0.6055
  708MOL0     C97624   3.155   8.368   6.434  0.2122 -0.4691 -0.9511
  708MOL0     O97625   3.138   8.507   6.444  0.5057  0.5518 -0.0794
  708MOL0     C97626   3.097   8.575   6.557 -0.2374 -0.2336  0.2176
  708MOL0     C97627   3.074   8.724   6.514 -0.2364 -0.3391 -0.4318
  708MOL0     C97628   3.212   8.797   6.477 -0.0860  0.5896 -0.1908
  708MOL0     C97629   3.236   8.818   6.326  0.2229 -1.1327  0.1518
  708MOL0     C97630   3.115   8.847   6.242 -0.4324 -0.5970  0.5219
  708MOL0     C97631   3.018   8.869   6.173  0.2700 -0.0809 -0.1973
  708MOL0     C97632   3.205   8.314   6.317  0.0134 -1.0013  0.2350
  708MOL0     C97633   3.223   8.179   6.305 -0.4925 -0.0121  0.7578
  708MOL0     C97634   3.246   8.123   6.170 -0.1554  0.2256 -0.4544
  708MOL0     H97635   3.025   7.698   6.208  0.9721  1.2610 -5.1596
  708MOL0     H97636   3.087   7.435   6.184 -0.2251  1.8803 -1.1202
  708MOL0     H97637   3.292   7.305   6.421 -1.3854  2.2996 -0.7708
  708MOL0     H97638   3.462   7.282   6.359  0.1426  2.1444 -1.5586
  708MOL0     H97639   3.367   7.068   6.235  0.7006  0.0429  1.4847
  708MOL0     H97640   3.381   7.068   6.410 -2.0034 -4.0388 -0.7665
  708MOL0     H97641   3.121   7.139   6.411  0.1088 -1.7802  0.8200
  708MOL0     H97642   3.120   7.082   6.241 -0.1554  0.3078  0.3631
  708MOL0     H97643   3.195   6.869   6.326  0.6886  1.2773 -0.3979
  708MOL0     H97644   3.216   6.938   6.498  0.3110 -2.3637  0.9412
  708MOL0     H97645   3.002   6.992   6.519 -1.1022  0.5240 -1.0131
  708MOL0     H97646   3.024   6.819   6.500  1.9042  0.1539  1.8023
  708MOL0     H97647   2.819   6.896   6.387  0.2663 -1.5275 -0.1009
  708MOL0     H97648   2.922   7.003   6.284 -1.4815 -0.4638 -1.9926
  708MOL0     H97649   2.896   6.703   6.311 -1.4221  0.2697  1.3119
  708MOL0     H97650   3.018   6.761   6.197 -0.1282 -2.0832  0.9410
  708MOL0     H97651   2.818   6.713   6.076 -0.0216 -0.0670  1.9500
  708MOL0     H97652   2.747   6.852   6.166  0.0282 -0.7415  1.4829
  708MOL0     H97653   2.799   7.096   6.041 -0.5587 -0.6430  0.1087
  708MOL0     H97654   2.951   7.305   5.914  1.2050 -0.6295  0.7244
  708MOL0     H97655   2.918   7.221   5.759  2.7182  0.7716 -2.2322
  708MOL0     H97656   3.149   7.189   5.725  0.3432  0.1752 -0.9739
  708MOL0     H97657   3.091   7.360   5.734 -1.0476 -0.6904 -1.2071
  708MOL0     H97658   3.164   7.327   5.990  2.2178 -1.4177  0.9677
  708MOL0     H97659   3.282   7.204   5.921  1.6947  0.4059 -0.2671
  708MOL0     H97660   3.339   7.392   5.749 -2.1805 -0.5758  0.2890
  708MOL0     H97661   3.275   7.505   5.865  0.8795  1.0018 -2.5691
  708MOL0     H97662   3.435   7.639   5.736  0.8295  1.7844 -1.7171
  708MOL0     H97663   3.673   7.756   5.527  0.8892  4.3027 -0.0231
  708MOL0     H97664   3.615   7.880   5.651 -0.8912 -0.1988 -0.1700
  708MOL0     H97665   3.510   7.764   5.588  0.0149  0.2052  1.2799
  708MOL0     H97666   3.990   7.787   5.440 -1.3876  0.4465  0.6287
  708MOL0     H97667   4.202   7.898   5.354  2.2146 -2.4231  1.1551
  708MOL0     H97668   4.466   8.117   5.628  0.2436 -1.5592 -0.4507
  708MOL0     H97669   4.531   8.145   5.473  2.5617 -1.7908  2.6649
  708MOL0     H97670   4.305   8.310   5.602  0.8141  0.8401  1.6479
  708MOL0     H97671   4.468   8.350   5.595  0.5554 -0.3853 -0.0992
  708MOL0     H97672   4.380   8.263   5.326  1.3945  1.3799  0.0165
  708MOL0     H97673   4.474   8.403   5.364 -0.2700 -0.8010 -4.1872
  708MOL0     H97674   4.275   8.543   5.376 -0.3030 -0.0783 -0.7131
  708MOL0     H97675   4.181   8.408   5.444  0.2252 -0.0246  0.8527
  708MOL0     H97676   4.110   8.486   5.219  1.0883 -0.3501  0.6036
  708MOL0     H97677   4.260   8.416   5.157  0.2954  1.3882 -0.3040
  708MOL0     H97678   4.061   8.247   5.320 -4.0842 -0.1284 -1.3928
  708MOL0     H97679   4.192   8.197   5.203  0.2823 -0.6213 -0.2264
  708MOL0     H97680   4.048   8.332   5.033 -1.6927 -0.0059 -0.1978
  708MOL0     H97681   3.912   8.313   5.138  0.2390  1.7971 -2.7298
  708MOL0     H97682   3.972   8.043   5.125  1.4757 -0.6277  0.2903
  708MOL0     H97683   4.100   8.096   5.030  0.7817  2.7932  1.2941
  708MOL0     H97684   4.208   8.154   5.689  0.2860 -0.4348 -0.0109
  708MOL0     H97685   4.015   8.056   5.772  1.9534  1.5889 -0.2965
  708MOL0     H97686   3.868   7.579   5.960 -1.5262 -0.6473  1.7067
  708MOL0     H97687   3.688   7.440   6.029 -1.5337 -1.3696  0.7766
  708MOL0     H97688   3.476   7.531   6.307  0.4125 -0.1656  0.3275
  708MOL0     H97689   3.422   7.772   6.337 -0.1629  0.3612  0.4115
  708MOL0     H97690   3.138   8.085   6.618  0.7632 -0.2712 -0.1667
  708MOL0     H97691   3.130   8.335   6.645  0.9218  1.1755  0.4507
  708MOL0     H97692   2.999   8.533   6.582 -0.9322  0.2977 -1.4827
  708MOL0     H97693   3.164   8.562   6.643  0.1019  1.5480  0.2517
  708MOL0     H97694   3.024   8.773   6.598  2.5811  2.5148 -0.2477
  708MOL0     H97695   3.003   8.702   6.433 -0.4441 -0.0696 -0.3247
  708MOL0     H97696   3.183   8.890   6.526 -0.7231 -1.1596  3.0574
  708MOL0     H97697   3.303   8.759   6.524  1.5689  4.5505  0.2168
  708MOL0     H97698   3.290   8.732   6.286  2.2639 -0.9978  2.4275
  708MOL0     H97699   3.308   8.900   6.320 -2.4590  1.4823  0.8361
  708MOL0     H97700   2.928   8.905   6.127  2.5856  6.2356 -0.8858
  708MOL0     H97701   3.228   8.385   6.238  3.8548  0.3129  2.3066
  708MOL0     H97702   3.318   8.043   6.154  0.7728  1.0097 -0.2606
  708MOL0     H97703   3.145   8.101   6.133 -0.2020  0.4341 -0.4531
  708MOL0     H97704   3.284   8.207   6.111 -2.2222  0.4529 -1.5746
  709MOL0     O97705  10.990  11.187   2.728  0.2889  0.3361  0.2082
  709MOL0     C97706  11.029  11.133   2.624 -0.3630 -0.2624  0.0563
  709MOL0     O97707  10.951  11.065   2.538 -0.7778 -0.1950 -0.6794
  709MOL0     C97708  10.826  11.034   2.582 -0.7783 -0.2594  0.2714
  709MOL0     C97709  10.727  11.102   2.516 -0.0652 -0.9691 -0.8006
  709MOL0     C97710  10.593  11.071   2.538 -0.5112 -0.7394 -0.1807
  709MOL0     C97711  10.563  10.971   2.637  0.1657 -0.0547  0.0230
  709MOL0     O97712  10.428  10.945   2.648 -0.2684  0.6525  0.2948
  709MOL0     C97713  10.373  10.826   2.590 -0.9056  0.7172 -0.6033
  709MOL0     C97714  10.290  10.879   2.471 -0.4011  0.1614 -1.1979
  709MOL0     C97715  10.163  10.952   2.494 -0.4834  0.3577  0.8475
  709MOL0     C97716  10.111  11.011   2.361  0.6357  0.1813  0.5182
  709MOL0     C97717   9.981  11.084   2.384 -1.0810  0.1234 -1.2281
  709MOL0     C97718   9.934  11.138   2.252  0.0345  0.3712 -0.4070
  709MOL0     C97719   9.800  11.203   2.261  0.1328  0.3646  0.4855
  709MOL0     C97720   9.791  11.284   2.135  0.6141 -0.2012 -0.5450
  709MOL0     N97721   9.699  11.398   2.150  0.5432  0.6055  0.3383
  709MOL0     C97722   9.574  11.388   2.199 -0.5823 -0.4785 -0.1997
  709MOL0     C97723   9.529  11.513   2.195  0.3084 -0.1016  0.9322
  709MOL0     C97724   9.394  11.563   2.238 -0.6607 -0.2479 -0.5535
  709MOL0     C97725   9.382  11.709   2.240 -0.2930  0.1127 -0.1081
  709MOL0     C97726   9.261  11.756   2.320  0.3003 -1.1161 -0.1024
  709MOL0     C97727   9.253  11.913   2.341 -0.1748 -0.5683 -0.8866
  709MOL0     O97728   9.222  11.988   2.224  0.0593 -0.3152 -0.0496
  709MOL0     C97729   9.197  12.125   2.233  0.0541  0.2358 -0.1907
  709MOL0     C97730   9.197  12.186   2.108 -0.0910  0.5740  0.7733
  709MOL0     C97731   9.180  12.325   2.096 -0.3814 -0.6852 -1.1978
  709MOL0     C97732   9.185  12.388   1.962  0.5515 -0.0242 -0.7102
  709MOL0     C97733   9.172  12.402   2.215  1.2984  0.0449 -0.9434
  709MOL0     C97734   9.185  12.548   2.214  0.4471 -0.0014  0.6430
  709MOL0     O97735   9.274  12.615   2.135  0.1225  0.3146  0.1544
  709MOL0     C97736   9.346  12.725   2.157 -0.2095 -0.1894  0.9245
  709MOL0     C97737   9.372  12.790   2.279  0.0478 -0.3451 -0.0178
  709MOL0     C97738   9.461  12.901   2.284 -0.4895  0.1227  0.6643
  709MOL0     C97739   9.518  12.953   2.166  0.1311  0.0875  0.6366
  709MOL0     O97740   9.602  13.065   2.165  0.0504  0.2363 -0.0566
  709MOL0     C97741   9.579  13.169   2.069 -0.1181  0.3684  0.2928
  709MOL0     C97742   9.450  13.238   2.087 -0.5775  0.4796  0.4949
  709MOL0     C97743   9.434  13.284   2.234 -0.2859  0.8187  0.3755
  709MOL0     C97744   9.341  13.400   2.252  0.9659 -0.0827 -0.2933
  709MOL0     C97745   9.301  13.413   2.400 -0.1056 -0.5811 -1.2940
  709MOL0     C97746   9.179  13.501   2.411 -0.1106  0.1860 -0.0681
  709MOL0     C97747   9.208  13.647   2.369  0.4060 -0.7892  0.4895
  709MOL0     C97748   9.248  13.739   2.483  1.0047  0.6963  0.6668
  709MOL0    Cl97749   9.299  13.889   2.416 -0.2433 -0.2920 -0.2858
  709MOL0     C97750   9.485  12.895   2.041  0.7559  1.1021 -1.1233
  709MOL0     C97751   9.401  12.783   2.040  0.7018  0.0907  0.6302
  709MOL0     O97752   9.122  12.605   2.301 -0.4921  0.4386 -0.0334
  709MOL0     C97753   9.172  12.334   2.347 -0.5362  0.0635  0.7042
  709MOL0     C97754   9.180  12.198   2.353 -0.5690 -0.2431  0.1217
  709MOL0     N97755   9.636  11.603   2.140  0.6990  1.2100 -0.1446
  709MOL0     N97756   9.736  11.526   2.121  0.4835  0.4622  0.5043
  709MOL0     C97757  10.663  10.902   2.707 -0.5287 -0.2610 -0.5407
  709MOL0     C97758  10.799  10.938   2.681 -0.0137 -0.0214 -0.2942
  709MOL0     C97759  11.169  11.158   2.586 -0.5315 -0.0626  0.3085
  709MOL0     C97760  11.192  11.206   2.453  0.5100  1.5161  0.4205
  709MOL0     C97761  11.316  11.234   2.411  0.8786 -0.5859 -0.4137
  709MOL0     C97762  11.428  11.211   2.497 -0.4726 -0.8181 -0.2947
  709MOL0     O97763  11.544  11.249   2.431  0.0022 -0.2315 -0.6607
  709MOL0     C97764  11.667  11.193   2.477 -1.4219  0.3292 -0.3960
  709MOL0     C97765  11.779  11.246   2.394  0.8640 -1.0597  0.5443
  709MOL0     C97766  11.803  11.149   2.277 -0.3307  1.5177 -0.4564
  709MOL0     C97767  11.688  11.117   2.178  0.4539  0.3111  0.6907
  709MOL0     C97768  11.635  10.984   2.202  0.7439  0.5768 -1.0926
  709MOL0     C97769  11.605  10.860   2.214  1.1087 -0.8802  0.1567
  709MOL0     C97770  11.410  11.158   2.629  0.0675 -0.0663  0.1797
  709MOL0     C97771  11.283  11.138   2.672  0.5974  0.1025 -0.1841
  709MOL0     C97772  11.262  11.115   2.821 -0.1192  0.4166  0.0742
  709MOL0     H97773  10.756  11.186   2.454 -0.6663 -0.5446 -0.5126
  709MOL0     H97774  10.523  11.136   2.488  1.0280  2.2774  1.2659
  709MOL0     H97775  10.307  10.789   2.669 -1.0240  0.1783 -0.9474
  709MOL0     H97776  10.439  10.744   2.559 -0.0849  1.1421 -0.0052
  709MOL0     H97777  10.346  10.940   2.399  0.2518  0.9137 -0.0779
  709MOL0     H97778  10.259  10.790   2.415 -1.4366 -0.1534 -0.1659
  709MOL0     H97779  10.081  10.894   2.537  0.8226 -1.6248  0.7957
  709MOL0     H97780  10.184  11.023   2.574 -1.7726 -1.9870  3.4370
  709MOL0     H97781  10.187  11.077   2.318  0.6542  0.3065  0.7441
  709MOL0     H97782  10.089  10.932   2.288  1.1522  0.3830  0.1378
  709MOL0     H97783   9.996  11.153   2.468 -0.9860 -1.0144 -0.2929
  709MOL0     H97784   9.906  11.008   2.411 -1.9837 -0.1382 -4.1657
  709MOL0     H97785  10.011  11.212   2.226 -0.8015  1.6583  0.6303
  709MOL0     H97786   9.915  11.054   2.185  0.6543 -1.3521  1.4930
  709MOL0     H97787   9.786  11.270   2.346 -0.9096 -0.0153  0.6282
  709MOL0     H97788   9.721  11.127   2.267 -0.3926  0.8239 -0.3484
  709MOL0     H97789   9.889  11.326   2.108  1.1243 -0.3400  1.0006
  709MOL0     H97790   9.749  11.228   2.051  0.6475  0.2541 -0.8749
  709MOL0     H97791   9.514  11.301   2.225  0.8791 -0.8534  2.1900
  709MOL0     H97792   9.374  11.534   2.341 -1.1666 -0.4021 -0.6944
  709MOL0     H97793   9.322  11.528   2.164 -0.4043  0.5101 -1.1794
  709MOL0     H97794   9.467  11.752   2.292 -0.0824 -1.5140  0.9681
  709MOL0     H97795   9.365  11.752   2.141  0.2216  0.7633  0.0826
  709MOL0     H97796   9.182  11.725   2.250 -1.2389 -0.9530  1.5099
  709MOL0     H97797   9.250  11.701   2.413  1.2442 -3.1136 -1.1051
  709MOL0     H97798   9.175  11.933   2.415  0.3966  0.1600 -0.4645
  709MOL0     H97799   9.344  11.953   2.387 -0.8434 -1.5930  1.4866
  709MOL0     H97800   9.202  12.129   2.016  0.3128 -0.1841  1.2626
  709MOL0     H97801   9.118  12.474   1.960 -1.9653 -1.8008  0.8924
  709MOL0     H97802   9.143  12.319   1.888 -0.0702  0.3644 -0.7288
  709MOL0     H97803   9.286  12.416   1.933  1.5743 -0.8335  1.8023
  709MOL0     H97804   9.339  12.744   2.372  0.9415 -0.4625  0.2566
  709MOL0     H97805   9.489  12.946   2.378  3.8619 -1.1129  0.1849
  709MOL0     H97806   9.664  13.237   2.082  1.8962 -2.3731  2.8800
  709MOL0     H97807   9.593  13.142   1.964 -1.1228  1.4694 -0.1477
  709MOL0     H97808   9.430  13.322   2.019 -0.1356  0.0551 -0.1673
  709MOL0     H97809   9.368  13.170   2.061  1.2087 -0.5586 -3.0416
  709MOL0     H97810   9.532  13.326   2.261  0.4078 -0.8443  0.5557
  709MOL0     H97811   9.411  13.198   2.296 -1.3085 -0.5561 -1.8078
  709MOL0     H97812   9.253  13.384   2.189 -3.8224  0.1438  5.4597
  709MOL0     H97813   9.385  13.496   2.223  0.9519  0.1228  0.3653
  709MOL0     H97814   9.285  13.312   2.439  0.1394 -0.6658 -1.4100
  709MOL0     H97815   9.389  13.455   2.448 -1.0230 -1.4365  1.2905
  709MOL0     H97816   9.140  13.497   2.513  2.3421  1.8365  1.0239
  709MOL0     H97817   9.099  13.460   2.348  0.1622  1.8148 -1.5342
  709MOL0     H97818   9.119  13.693   2.325  0.5809 -4.1217 -4.0805
  709MOL0     H97819   9.291  13.655   2.299  1.5845  0.0220  1.9085
  709MOL0     H97820   9.327  13.695   2.544  0.0822 -0.6342  0.9484
  709MOL0     H97821   9.162  13.755   2.548 -0.9058 -2.2800 -0.8925
  709MOL0     H97822   9.513  12.936   1.944 -0.0194  3.5651 -0.3637
  709MOL0     H97823   9.370  12.730   1.951  1.3698 -0.6610  0.8272
  709MOL0     H97824   9.165  12.377   2.446  1.3270  0.0419  0.8783
  709MOL0     H97825   9.176  12.150   2.450 -1.1392 -1.3776 -0.4466
  709MOL0     H97826  10.644  10.826   2.782  1.1446  0.4524  0.6732
  709MOL0     H97827  10.880  10.884   2.729  0.6383  0.0098 -1.3158
  709MOL0     H97828  11.125  11.214   2.368  3.1024 -0.0395 -1.9817
  709MOL0     H97829  11.336  11.269   2.310 -0.5664  2.6298  0.2994
  709MOL0     H97830  11.684  11.230   2.578 -1.5468 -2.3840  0.6856
  709MOL0     H97831  11.680  11.085   2.475 -0.7627  0.3428  1.3105
  709MOL0     H97832  11.871  11.251   2.453  1.4133  3.1288 -0.3349
  709MOL0     H97833  11.750  11.343   2.353 -1.1395 -1.6606  0.4518
  709MOL0     H97834  11.886  11.195   2.223 -0.6790  1.2694 -1.2353
  709MOL0     H97835  11.838  11.057   2.325 -1.9155  2.0356  1.8452
  709MOL0     H97836  11.728  11.120   2.077 -1.4513 -1.4950 -0.2098
  709MOL0     H97837  11.608  11.192   2.185  0.7623  0.5081  3.9147
  709MOL0     H97838  11.575  10.758   2.225 -0.2370 -0.4198  1.0768
  709MOL0     H97839  11.489  11.121   2.693  1.5982  0.2308 -1.4325
  709MOL0     H97840  11.210  11.202   2.862  1.6939  3.0923 -2.8253
  709MOL0     H97841  11.204  11.022   2.827 -0.1561  0.4617  0.4106
  709MOL0     H97842  11.357  11.090   2.870  1.6445 -3.7586 -4.6164
  710MOL0     O97843   1.366   2.514   2.815 -0.3836  0.2231  0.4152
  710MOL0     C97844   1.462   2.452   2.856 -0.0320 -0.5572  0.7941
  710MOL0     O97845   1.501   2.335   2.811  0.3548 -0.2712 -0.8012
  710MOL0     C97846   1.416   2.271   2.722 -1.7564 -0.1100  0.6623
  710MOL0     C97847   1.374   2.330   2.601  0.1874 -0.3820 -0.4732
  710MOL0     C97848   1.300   2.264   2.506 -0.1418 -0.2343 -0.3884
  710MOL0     C97849   1.258   2.133   2.541  0.2224 -1.0693 -0.0388
  710MOL0     O97850   1.181   2.058   2.461  0.8794 -0.7701 -0.5452
  710MOL0     C97851   1.203   2.078   2.321  0.0559 -0.0134  0.2937
  710MOL0     C97852   1.104   1.990   2.242 -0.0923  0.0640 -0.5386
  710MOL0     C97853   0.965   2.056   2.242 -0.1887 -0.2753 -1.0885
  710MOL0     C97854   0.844   1.967   2.207  0.3327  0.4449 -0.0265
  710MOL0     C97855   0.706   2.035   2.251  0.0035  1.4606 -0.2532
  710MOL0     C97856   0.591   1.934   2.236 -0.1307  0.5511  0.6959
  710MOL0     C97857   0.461   1.997   2.282  0.1554  1.2908  0.1129
  710MOL0     C97858   0.399   2.059   2.154 -0.5551 -0.2817  0.0763
  710MOL0     N97859   0.404   2.204   2.154 -0.0076 -0.0008  0.1442
  710MOL0     C97860   0.297   2.280   2.189 -0.3011 -0.1324  0.1130
  710MOL0     C97861   0.332   2.415   2.153 -0.2115  0.1245  0.6949
  710MOL0     C97862   0.260   2.546   2.185  0.6710  0.5308 -0.5702
  710MOL0     C97863   0.145   2.540   2.278 -0.7959  0.1559  1.2549
  710MOL0     C97864   0.017   2.505   2.199  0.4229 -0.8943  0.3230
  710MOL0     C97865  -0.108   2.528   2.285  0.0689 -0.7608  0.2074
  710MOL0     O97866  -0.223   2.523   2.194 -0.2121  0.4496 -0.0548
  710MOL0     C97867  -0.338   2.595   2.204 -0.6057  0.2964  0.5032
  710MOL0     C97868  -0.435   2.579   2.100  0.4358  0.5450  1.0520
  710MOL0     C97869  -0.553   2.645   2.096  0.8450  0.4820  0.0579
  710MOL0     C97870  -0.643   2.616   1.975  0.6897 -0.2216 -0.2594
  710MOL0     C97871  -0.587   2.738   2.197 -0.1695 -0.0483 -0.3045
  710MOL0     C97872  -0.711   2.819   2.204 -0.2468  0.9910 -0.2817
  710MOL0     O97873  -0.756   2.843   2.326 -0.2743 -0.4684  0.8329
  710MOL0     C97874  -0.844   2.947   2.335  0.5974  0.6722  0.3847
  710MOL0     C97875  -0.965   2.924   2.396  0.2246  0.3926 -1.0532
  710MOL0     C97876  -1.058   3.033   2.420 -0.1241  1.4263  0.1168
  710MOL0     C97877  -1.029   3.166   2.373 -0.7466 -0.6613 -1.9386
  710MOL0     O97878  -1.110   3.271   2.417 -0.1169 -1.0786 -0.1439
  710MOL0     C97879  -1.048   3.399   2.434  0.3116 -0.0952 -0.7256
  710MOL0     C97880  -1.152   3.492   2.508  0.0589 -0.5617 -0.1735
  710MOL0     C97881  -1.189   3.433   2.646  0.9619 -0.1049 -0.2647
  710MOL0     C97882  -1.229   3.535   2.753 -0.2629  0.2652  1.0630
  710MOL0     C97883  -1.293   3.464   2.870  0.8325  0.5027 -0.1672
  710MOL0     C97884  -1.442   3.509   2.873  0.2663  0.2308 -1.2311
  710MOL0     C97885  -1.525   3.456   2.749 -1.6013  0.8874 -0.7680
  710MOL0     C97886  -1.667   3.509   2.762 -0.1795 -0.2133 -0.8787
  710MOL0    Cl97887  -1.768   3.438   2.634  0.7370 -0.1859 -0.5877
  710MOL0     C97888  -0.901   3.189   2.308  0.8460 -0.7785  0.5104
  710MOL0     C97889  -0.816   3.076   2.293  0.1529 -0.0085 -0.0501
  710MOL0     O97890  -0.763   2.865   2.098 -0.6350  0.3398 -0.1622
  710MOL0     C97891  -0.498   2.746   2.310 -0.3339  0.1554 -0.3791
  710MOL0     C97892  -0.375   2.676   2.310  0.2567 -0.2298  0.1252
  710MOL0     N97893   0.463   2.407   2.110 -0.3889 -0.3728 -0.1364
  710MOL0     N97894   0.507   2.292   2.108  1.4700  0.2605 -0.3684
  710MOL0     C97895   1.291   2.082   2.668  0.8985 -0.1845 -0.3803
  710MOL0     C97896   1.371   2.146   2.752 -0.2749 -0.0420  0.8473
  710MOL0     C97897   1.547   2.507   2.966  0.6650 -0.9131  0.4280
  710MOL0     C97898   1.526   2.637   3.008  0.3304 -0.4983  0.1780
  710MOL0     C97899   1.598   2.701   3.108  0.3256  1.2321  0.1240
  710MOL0     C97900   1.709   2.634   3.159 -0.0885 -0.0939 -0.2779
  710MOL0     O97901   1.786   2.680   3.264  0.2721 -0.5393 -0.4821
  710MOL0     C97902   1.793   2.819   3.296 -0.7446 -0.3407  0.1670
  710MOL0     C97903   1.901   2.826   3.408  0.5755 -0.8063  0.3068
  710MOL0     C97904   1.875   2.939   3.517 -0.1668 -0.2148  0.7260
  710MOL0     C97905   1.988   2.972   3.614 -0.0683  0.5627 -0.2924
  710MOL0     C97906   2.062   3.082   3.568 -0.2875  0.1607  0.0226
  710MOL0     C97907   2.125   3.187   3.545 -0.6216  0.2058 -0.0324
  710MOL0     C97908   1.738   2.496   3.119 -0.2802  0.6114  0.2555
  710MOL0     C97909   1.647   2.440   3.027 -0.5372 -0.1740 -0.0691
  710MOL0     C97910   1.655   2.279   3.023 -0.5354  0.3535 -0.5649
  710MOL0     H97911   1.416   2.429   2.585  0.6244 -0.9792 -3.8895
  710MOL0     H97912   1.277   2.308   2.410 -3.1483  0.0683  0.3424
  710MOL0     H97913   1.302   2.040   2.294 -1.5414 -2.4465 -2.8744
  710MOL0     H97914   1.189   2.180   2.283  1.0032 -0.0104 -0.0695
  710MOL0     H97915   1.140   1.981   2.139  1.1827  1.6596 -0.2903
  710MOL0     H97916   1.094   1.890   2.284  1.0320  0.4137  0.6536
  710MOL0     H97917   0.940   2.097   2.340 -3.4571 -2.1328 -1.0060
  710MOL0     H97918   0.964   2.140   2.173  1.3183  1.6568  1.0986
  710MOL0     H97919   0.853   1.944   2.101 -0.1816 -2.0974  0.4027
  710MOL0     H97920   0.861   1.867   2.250  5.4813 -0.4416 -3.3648
  710MOL0     H97921   0.686   2.128   2.198 -1.3823  1.4217  0.1780
  710MOL0     H97922   0.711   2.059   2.357  0.6814  2.1227 -0.4278
  710MOL0     H97923   0.587   1.903   2.131  0.0956 -1.7646  1.3149
  710MOL0     H97924   0.609   1.847   2.300 -1.8551  0.2385  0.8039
  710MOL0     H97925   0.476   2.071   2.361  1.8235  0.3602  0.7163
  710MOL0     H97926   0.398   1.917   2.324  0.4025  0.2899 -1.3388
  710MOL0     H97927   0.434   2.026   2.055 -0.3261  0.4475 -0.0909
  710MOL0     H97928   0.292   2.038   2.144 -1.4869  3.7333 -0.0564
  710MOL0     H97929   0.203   2.266   2.242 -0.9402  3.4497  0.1807
  710MOL0     H97930   0.231   2.585   2.087 -0.1221 -0.0828 -0.5859
  710MOL0     H97931   0.346   2.597   2.229  2.6289 -2.7788 -0.1778
  710MOL0     H97932   0.174   2.455   2.341 -0.0704 -3.1375 -3.0621
  710MOL0     H97933   0.128   2.632   2.334 -0.6500  0.0059  1.5500
  710MOL0     H97934   0.001   2.567   2.110  1.1330  2.2252  2.1997
  710MOL0     H97935   0.019   2.400   2.171  0.8938 -0.3151 -2.0335
  710MOL0     H97936  -0.119   2.450   2.362 -1.1040 -0.1818  0.6580
  710MOL0     H97937  -0.093   2.619   2.344  0.4491 -2.1236  2.3336
  710MOL0     H97938  -0.421   2.516   2.013 -1.1575 -0.4241  1.4400
  710MOL0     H97939  -0.668   2.713   1.931  2.3758  0.6648  0.6532
  710MOL0     H97940  -0.737   2.576   2.015 -0.8669  3.1807 -0.0844
  710MOL0     H97941  -0.603   2.552   1.897 -0.6189 -1.2054 -0.1507
  710MOL0     H97942  -0.995   2.825   2.432  1.4630  0.2515 -0.3512
  710MOL0     H97943  -1.157   3.008   2.456 -0.0814 -3.2970 -2.2057
  710MOL0     H97944  -0.961   3.384   2.498 -2.0369  1.5859  3.2373
  710MOL0     H97945  -1.017   3.448   2.341  1.7139  0.8862  0.2115
  710MOL0     H97946  -1.102   3.588   2.522  1.4191 -1.1096 -1.1066
  710MOL0     H97947  -1.237   3.514   2.443  1.0320  3.9153 -0.2883
  710MOL0     H97948  -1.101   3.382   2.685 -0.5019 -2.1573  0.5205
  710MOL0     H97949  -1.268   3.358   2.639  1.1815 -0.1988 -2.8035
  710MOL0     H97950  -1.298   3.607   2.709 -1.1965 -1.8890 -1.2615
  710MOL0     H97951  -1.133   3.583   2.776 -0.1703 -1.0545  3.8234
  710MOL0     H97952  -1.281   3.355   2.866 -2.7576 -0.0818  1.5486
  710MOL0     H97953  -1.248   3.499   2.963 -0.5298 -3.0192  2.0104
  710MOL0     H97954  -1.447   3.616   2.895 -0.4836 -0.3657  2.0085
  710MOL0     H97955  -1.485   3.452   2.956  0.6775  1.2406 -0.3125
  710MOL0     H97956  -1.527   3.348   2.765 -0.9175  1.3135  3.1948
  710MOL0     H97957  -1.475   3.481   2.655  2.1922 -1.1865  0.5005
  710MOL0     H97958  -1.656   3.617   2.746 -0.3887 -0.0970 -0.2549
  710MOL0     H97959  -1.701   3.490   2.864  0.6653  0.7904 -0.3899
  710MOL0     H97960  -0.862   3.280   2.264  1.2940 -0.6961  1.0864
  710MOL0     H97961  -0.719   3.100   2.252 -0.4481  1.7356 -0.5514
  710MOL0     H97962  -0.523   2.798   2.402 -0.6189 -0.3209 -0.1809
  710MOL0     H97963  -0.315   2.690   2.400 -0.0083  3.1629 -0.0820
  710MOL0     H97964   1.254   1.985   2.699  1.7949  0.4415  3.0761
  710MOL0     H97965   1.389   2.106   2.851 -0.5139  1.8377  1.6929
  710MOL0     H97966   1.442   2.699   2.978  0.0301 -1.2421 -0.5402
  710MOL0     H97967   1.579   2.807   3.126  0.6353  1.5825 -1.4666
  710MOL0     H97968   1.835   2.870   3.209  0.3561  2.6964  2.3111
  710MOL0     H97969   1.692   2.858   3.317 -0.2089  1.6572 -0.6960
  710MOL0     H97970   2.003   2.829   3.368  1.2219 -2.9412  1.6330
  710MOL0     H97971   1.890   2.737   3.469 -1.7016 -0.4355  0.5081
  710MOL0     H97972   1.843   3.029   3.464 -2.1107 -1.6375 -0.6481
  710MOL0     H97973   1.798   2.902   3.584 -0.1327  0.2640  1.0350
  710MOL0     H97974   2.058   2.889   3.627 -0.8535  0.2339  2.5268
  710MOL0     H97975   1.958   3.009   3.712  2.9542 -1.2947  1.5052
  710MOL0     H97976   2.182   3.277   3.536  0.4200 -0.5693 -1.6488
  710MOL0     H97977   1.801   2.427   3.175  2.3449  1.7979 -1.0499
  710MOL0     H97978   1.716   2.229   3.098 -0.9356 -3.0525 -2.2842
  710MOL0     H97979   1.556   2.240   3.050  0.3613 -0.8018  1.2795
  710MOL0     H97980   1.678   2.236   2.925 -1.5533 -2.7584  0.4280
  711MOL0     O97981   5.341   4.128   8.261  0.1509 -0.3530 -0.4793
  711MOL0     C97982   5.289   4.113   8.376 -0.7058  0.4382  0.0150
  711MOL0     O97983   5.340   4.165   8.485 -0.5372 -0.0144 -0.5938
  711MOL0     C97984   5.440   4.264   8.492  0.2540  1.0817 -0.1976
  711MOL0     C97985   5.549   4.265   8.578  0.1757 -0.5189 -0.3739
  711MOL0     C97986   5.643   4.377   8.585  0.5701  1.0164  0.0945
  711MOL0     C97987   5.644   4.467   8.491 -0.2681 -1.0384  0.4733
  711MOL0     O97988   5.738   4.566   8.491  0.9314 -0.3417 -0.8558
  711MOL0     C97989   5.835   4.558   8.386 -0.6854 -0.3558 -0.3067
  711MOL0     C97990   5.971   4.582   8.428  0.3124  0.5786 -0.0073
  711MOL0     C97991   5.995   4.709   8.497  0.0222  0.6595 -0.4504
  711MOL0     C97992   6.128   4.706   8.574 -0.3258  0.0836  0.0770
  711MOL0     C97993   6.170   4.848   8.635  0.1527  0.2037 -0.6633
  711MOL0     C97994   6.271   4.930   8.557  0.3448  0.2984  0.8442
  711MOL0     C97995   6.282   5.069   8.611 -0.3909  0.4020  0.1603
  711MOL0     C97996   6.179   5.170   8.583  0.1036 -0.7660  0.0866
  711MOL0     N97997   6.180   5.209   8.441  0.5794  0.3284 -0.4860
  711MOL0     C97998   6.090   5.164   8.340  0.1850  0.0873  0.0141
  711MOL0     C97999   6.142   5.226   8.230 -0.0939  0.5602  0.1937
  711MOL0     C98000   6.090   5.227   8.088  0.6833 -0.1636 -0.6731
  711MOL0     C98001   6.017   5.095   8.048  0.3469 -0.4519 -0.0269
  711MOL0     C98002   6.097   4.964   8.067 -0.6223  0.2646  0.4471
  711MOL0     C98003   6.041   4.857   7.967 -0.0022 -1.2227 -1.1642
  711MOL0     O98004   5.902   4.824   8.002  0.4226  0.1303 -0.1308
  711MOL0     C98005   5.792   4.854   7.923 -0.2859  0.3162  0.8250
  711MOL0     C98006   5.672   4.799   7.962 -0.2465  0.7744 -0.2013
  711MOL0     C98007   5.560   4.786   7.881 -0.9591 -0.6052 -0.0821
  711MOL0     C98008   5.437   4.730   7.943  0.2442 -0.1506  0.5381
  711MOL0     C98009   5.558   4.864   7.765 -0.1399 -0.1810 -0.5037
  711MOL0     C98010   5.440   4.898   7.685  0.1494  1.2435  0.7232
  711MOL0     O98011   5.455   4.994   7.589  0.3320  0.4367 -0.7971
  711MOL0     C98012   5.351   5.044   7.516  0.8573 -0.3694  0.6236
  711MOL0     C98013   5.347   5.177   7.483 -0.2374  0.8920 -0.4074
  711MOL0     C98014   5.238   5.241   7.424  0.5761 -0.2915  0.1926
  711MOL0     C98015   5.134   5.171   7.373  0.4540 -0.0230 -0.6715
  711MOL0     O98016   5.022   5.227   7.303 -0.1185  0.7050  0.3200
  711MOL0     C98017   4.903   5.241   7.391 -0.0559  0.4936 -0.3970
  711MOL0     C98018   4.902   5.355   7.488  0.0891 -0.5384  0.5909
  711MOL0     C98019   4.812   5.316   7.609 -0.2308 -0.5889 -0.4849
  711MOL0     C98020   4.654   5.301   7.575 -0.5179  0.3231 -0.0888
  711MOL0     C98021   4.583   5.261   7.705  0.6000  0.8919 -0.2821
  711MOL0     C98022   4.437   5.230   7.671 -0.4936 -0.2261  0.7449
  711MOL0     C98023   4.366   5.185   7.795  0.5016 -0.3186  0.0326
  711MOL0     C98024   4.224   5.140   7.783 -0.1953 -0.4290  1.1035
  711MOL0    Cl98025   4.246   4.997   7.666  0.5124  0.3234 -0.1556
  711MOL0     C98026   5.145   5.032   7.388  0.1463  0.0529  0.3830
  711MOL0     C98027   5.242   4.968   7.468 -0.1279 -0.4239 -0.1446
  711MOL0     O98028   5.340   4.838   7.708  0.4182 -0.8006  0.2975
  711MOL0     C98029   5.681   4.910   7.717  0.0996  0.4728 -0.0167
  711MOL0     C98030   5.793   4.913   7.799  0.0952 -0.2773  0.1723
  711MOL0     N98031   6.253   5.299   8.263 -0.1091 -0.3651  0.2247
  711MOL0     N98032   6.268   5.288   8.388  0.6152  0.2235 -0.0509
  711MOL0     C98033   5.547   4.467   8.391 -0.4390  0.3773 -0.1098
  711MOL0     C98034   5.444   4.371   8.401 -0.7306 -0.0732 -0.3163
  711MOL0     C98035   5.174   4.008   8.387 -0.2063  0.7872  0.3552
  711MOL0     C98036   5.131   3.954   8.269 -0.6637 -0.0361  0.0413
  711MOL0     C98037   5.043   3.852   8.261 -0.6708  0.5686  0.4075
  711MOL0     C98038   4.986   3.809   8.382  0.0314  0.5115  0.7367
  711MOL0     O98039   4.909   3.705   8.366  0.7156 -0.1333 -0.0327
  711MOL0     C98040   4.860   3.630   8.477  0.3605 -0.4311  0.2124
  711MOL0     C98041   4.786   3.520   8.395  0.1727 -0.6097 -1.6696
  711MOL0     C98042   4.716   3.433   8.498 -0.8313  0.7744  0.0197
  711MOL0     C98043   4.580   3.383   8.445 -0.7273 -0.1538  0.6916
  711MOL0     C98044   4.593   3.292   8.330  0.1155 -0.4847  0.3654
  711MOL0     C98045   4.609   3.207   8.252 -0.0013  0.4459  0.1733
  711MOL0     C98046   5.014   3.871   8.508 -0.5509 -0.7437  0.6602
  711MOL0     C98047   5.105   3.969   8.504 -0.5474  0.5758 -0.0633
  711MOL0     C98048   5.153   4.027   8.640  0.7955  0.4123  0.7080
  711MOL0     H98049   5.556   4.188   8.654 -0.6460  1.0434  1.3607
  711MOL0     H98050   5.708   4.362   8.671  0.0107  0.9304  0.5063
  711MOL0     H98051   5.805   4.636   8.314 -1.2369  3.8222  3.9633
  711MOL0     H98052   5.825   4.470   8.322 -2.6994  1.0406 -2.0847
  711MOL0     H98053   6.001   4.496   8.488  0.1688  2.4869  2.9784
  711MOL0     H98054   6.022   4.584   8.331  0.4436  4.7512 -0.0103
  711MOL0     H98055   6.001   4.796   8.430  1.0334  2.2615  1.5956
  711MOL0     H98056   5.923   4.732   8.575 -0.3616 -1.3557 -0.1470
  711MOL0     H98057   6.117   4.637   8.659  0.8973 -2.1523 -1.4889
  711MOL0     H98058   6.214   4.671   8.517 -0.3536  0.5549 -0.2572
  711MOL0     H98059   6.225   4.831   8.728  0.4313  0.7239 -0.7309
  711MOL0     H98060   6.079   4.906   8.649  0.1864  0.2995 -0.8317
  711MOL0     H98061   6.366   4.880   8.577  0.3337  0.7484  2.0848
  711MOL0     H98062   6.252   4.932   8.449 -0.6195 -2.2602  0.8958
  711MOL0     H98063   6.379   5.112   8.586 -1.0118  3.5093  2.4575
  711MOL0     H98064   6.299   5.050   8.718  0.1171 -3.5136 -0.4662
  711MOL0     H98065   6.083   5.122   8.608 -0.1650 -1.7563 -2.5039
  711MOL0     H98066   6.197   5.258   8.645  1.2124 -0.2979 -0.8660
  711MOL0     H98067   5.997   5.110   8.351  0.4513 -0.9151 -2.1604
  711MOL0     H98068   6.171   5.238   8.015 -2.3389  2.5924 -4.0181
  711MOL0     H98069   6.012   5.302   8.074  0.3008 -0.4718 -0.1963
  711MOL0     H98070   5.917   5.083   8.091 -0.9386 -2.7607 -3.2718
  711MOL0     H98071   5.984   5.116   7.946 -2.1850  1.8498  1.1551
  711MOL0     H98072   6.203   4.978   8.043 -0.4443  0.9826  1.5612
  711MOL0     H98073   6.102   4.922   8.167  3.0773  0.7929  0.6120
  711MOL0     H98074   6.054   4.888   7.863  1.9498 -2.0674 -1.2103
  711MOL0     H98075   6.108   4.772   7.984  1.2343  0.1743  1.8689
  711MOL0     H98076   5.679   4.749   8.058  1.5069 -1.4187 -1.3780
  711MOL0     H98077   5.470   4.681   8.035  1.8865 -3.5755 -1.6792
  711MOL0     H98078   5.393   4.659   7.873 -0.9711  0.2955  0.8326
  711MOL0     H98079   5.355   4.796   7.971 -1.2698 -0.9154 -1.8404
  711MOL0     H98080   5.423   5.240   7.529  0.3087  0.4494 -0.6985
  711MOL0     H98081   5.229   5.349   7.417 -1.0939 -0.4818 -1.0399
  711MOL0     H98082   4.815   5.249   7.326 -0.1168 -1.7019 -0.6788
  711MOL0     H98083   4.897   5.149   7.450  1.8766  1.8541  2.1144
  711MOL0     H98084   5.004   5.361   7.527 -0.7236 -0.2514  2.8348
  711MOL0     H98085   4.856   5.441   7.438  0.2586 -0.0262  1.3047
  711MOL0     H98086   4.814   5.397   7.683  3.3128 -0.4453 -0.5721
  711MOL0     H98087   4.836   5.233   7.676  3.3618  2.4992  2.5164
  711MOL0     H98088   4.644   5.220   7.502  4.1784 -0.2198 -0.4046
  711MOL0     H98089   4.619   5.397   7.534  0.1125 -0.0248 -1.5126
  711MOL0     H98090   4.629   5.174   7.753 -1.0119  0.5968  0.8437
  711MOL0     H98091   4.584   5.345   7.775 -1.3373  2.7138 -2.2628
  711MOL0     H98092   4.409   5.150   7.601 -0.9257  0.5779 -0.0283
  711MOL0     H98093   4.387   5.325   7.645 -3.5486 -0.9798  3.2061
  711MOL0     H98094   4.373   5.268   7.866 -1.1631 -1.2042  1.2903
  711MOL0     H98095   4.423   5.109   7.849 -0.2518 -1.3870 -0.6288
  711MOL0     H98096   4.168   5.225   7.742  0.5604  0.2331  1.3976
  711MOL0     H98097   4.189   5.106   7.881  1.7036 -3.7296  0.7869
  711MOL0     H98098   5.068   4.973   7.340 -0.9232  1.1522  0.6849
  711MOL0     H98099   5.244   4.860   7.465 -2.8052 -0.6433  2.2284
  711MOL0     H98100   5.682   4.943   7.613 -1.6690  0.8231  0.0366
  711MOL0     H98101   5.874   4.978   7.766 -1.9221  1.8607 -0.8801
  711MOL0     H98102   5.549   4.535   8.307  2.1589 -1.1609 -1.4333
  711MOL0     H98103   5.358   4.376   8.337 -0.1499  2.1727 -1.0376
  711MOL0     H98104   5.169   3.980   8.171 -2.2345  0.0629 -0.5592
  711MOL0     H98105   5.029   3.794   8.171  2.9413 -4.2450  2.4718
  711MOL0     H98106   4.926   3.577   8.547 -0.3879 -0.8226  0.6307
  711MOL0     H98107   4.798   3.698   8.535  3.6300  1.3925  1.8581
  711MOL0     H98108   4.863   3.455   8.352  1.2131 -0.6768  0.1607
  711MOL0     H98109   4.715   3.558   8.321  0.6941 -0.9764 -2.3626
  711MOL0     H98110   4.776   3.345   8.523  1.9252  1.8277 -2.4178
  711MOL0     H98111   4.705   3.498   8.586  0.4221  0.9013  0.0958
  711MOL0     H98112   4.515   3.468   8.423 -1.4918 -0.1253  2.8200
  711MOL0     H98113   4.538   3.328   8.530  0.5539 -0.0047  1.4506
  711MOL0     H98114   4.630   3.125   8.185  4.5638  2.2662 -1.0327
  711MOL0     H98115   4.974   3.834   8.601  0.3589 -1.4764  0.7747
  711MOL0     H98116   5.091   3.980   8.718  0.3599 -1.1372 -0.5180
  711MOL0     H98117   5.259   4.001   8.649  0.4789 -1.7028 -0.8147
  711MOL0     H98118   5.144   4.135   8.653 -2.5505  0.5718 -1.6321
  712MOL0     O98119   2.701   3.640   5.443  0.9219 -0.2928 -0.1406
  712MOL0     C98120   2.642   3.532   5.460  0.3608 -0.7349 -0.2635
  712MOL0     O98121   2.575   3.491   5.571  0.1204 -0.4213 -0.1625
  712MOL0     C98122   2.601   3.556   5.692  0.1248 -0.7014 -1.0642
  712MOL0     C98123   2.660   3.508   5.808  0.0324  1.1134  0.4972
  712MOL0     C98124   2.685   3.594   5.912  0.4303 -0.2645 -0.5967
  712MOL0     C98125   2.651   3.730   5.917  0.3238  0.2054  0.3080
  712MOL0     O98126   2.664   3.822   6.021 -0.4980  0.1464 -0.0349
  712MOL0     C98127   2.730   3.778   6.138  0.7110 -0.6289  0.4047
  712MOL0     C98128   2.873   3.831   6.140 -0.7353  0.4114  0.6787
  712MOL0     C98129   2.957   3.766   6.244 -0.8298 -0.8840 -0.6112
  712MOL0     C98130   3.093   3.825   6.217  0.3981 -0.5562  0.8084
  712MOL0     C98131   3.169   3.822   6.341 -0.5412  0.5820  0.3414
  712MOL0     C98132   3.317   3.872   6.319  0.5943  0.3292 -0.9752
  712MOL0     C98133   3.393   3.861   6.456 -0.5004  0.0540  0.0191
  712MOL0     C98134   3.363   3.980   6.539  0.2821  0.1881  0.0934
  712MOL0     N98135   3.467   4.000   6.634 -0.9205  0.4787 -0.6583
  712MOL0     C98136   3.449   4.029   6.767  0.8548 -0.6781 -0.9063
  712MOL0     C98137   3.564   4.059   6.819 -0.0402  0.6942  0.3150
  712MOL0     C98138   3.592   4.101   6.967 -0.7112  0.0920  0.6195
  712MOL0     C98139   3.526   4.234   7.009 -0.2684 -1.2829 -0.2552
  712MOL0     C98140   3.583   4.352   6.917 -0.1872 -0.5955 -0.3326
  712MOL0     C98141   3.735   4.355   6.902  0.5138 -0.3693 -0.1119
  712MOL0     O98142   3.795   4.391   7.026 -0.4925  0.2049 -0.3719
  712MOL0     C98143   3.921   4.440   7.009  0.0146 -0.1213 -0.2261
  712MOL0     C98144   3.949   4.576   7.010  1.2680 -0.0772 -0.1623
  712MOL0     C98145   4.078   4.632   7.009 -0.0659 -0.3216 -0.0808
  712MOL0     C98146   4.079   4.780   7.002 -0.3800 -0.6854  0.0226
  712MOL0     C98147   4.186   4.549   6.999  0.0574  0.3728  0.2456
  712MOL0     C98148   4.331   4.591   6.996  0.6597  0.1139 -0.7135
  712MOL0     O98149   4.427   4.501   6.979  0.3881  0.3040  0.5369
  712MOL0     C98150   4.550   4.518   7.043  0.5337  0.1409 -0.7175
  712MOL0     C98151   4.655   4.592   6.978  0.0374 -0.2500  0.0609
  712MOL0     C98152   4.775   4.619   7.047 -0.3069  0.2120  0.6583
  712MOL0     C98153   4.789   4.583   7.178  0.2338 -0.1663  0.0157
  712MOL0     O98154   4.901   4.633   7.245  0.2827  0.2291  0.1057
  712MOL0     C98155   4.873   4.659   7.386  0.6355 -0.5743  0.7739
  712MOL0     C98156   4.989   4.703   7.471  0.6769  1.3407 -0.2041
  712MOL0     C98157   5.096   4.588   7.476  0.1172 -0.6393 -0.5317
  712MOL0     C98158   5.062   4.461   7.565  0.3621 -0.6031 -0.9217
  712MOL0     C98159   5.070   4.485   7.716 -0.7821 -0.2215 -0.1629
  712MOL0     C98160   5.070   4.351   7.782 -0.2683  0.5048  0.0818
  712MOL0     C98161   5.061   4.375   7.931  0.4770 -0.2300 -0.0010
  712MOL0     C98162   5.095   4.245   8.008  0.4661 -0.1968  0.5138
  712MOL0    Cl98163   4.992   4.105   7.963 -0.0628  0.2935 -0.0406
  712MOL0     C98164   4.682   4.503   7.238 -0.1305  0.0705  0.2748
  712MOL0     C98165   4.564   4.471   7.177 -0.3144 -0.5345 -0.1916
  712MOL0     O98166   4.355   4.705   7.031 -0.2414 -0.3684  0.1455
  712MOL0     C98167   4.158   4.408   6.989  0.4814 -0.2054 -0.0601
  712MOL0     C98168   4.028   4.355   6.998 -0.3723 -0.9133 -0.3052
  712MOL0     N98169   3.657   4.049   6.715 -0.6409 -0.4953  0.4857
  712MOL0     N98170   3.600   4.012   6.603  0.0252  0.5056 -0.2620
  712MOL0     C98171   2.583   3.783   5.802  1.4233 -0.1067 -0.2137
  712MOL0     C98172   2.556   3.698   5.696  0.3604  0.1687  0.4515
  712MOL0     C98173   2.643   3.436   5.351 -0.5416  0.3492  0.0683
  712MOL0     C98174   2.640   3.489   5.219 -0.0245  0.2287  0.1451
  712MOL0     C98175   2.647   3.400   5.112  0.0064 -0.0272  0.5382
  712MOL0     C98176   2.659   3.272   5.130  0.3237  0.3755 -0.1927
  712MOL0     O98177   2.663   3.182   5.025  0.5803  0.2600 -1.1673
  712MOL0     C98178   2.641   3.228   4.892  0.3095 -0.2425 -0.6441
  712MOL0     C98179   2.650   3.112   4.794 -0.5073  0.5752 -0.1433
  712MOL0     C98180   2.602   3.136   4.659 -0.0446  0.1293 -0.5092
  712MOL0     C98181   2.632   3.020   4.569 -0.4278 -0.1163 -0.4586
  712MOL0     C98182   2.596   3.048   4.427 -0.1885  0.2192 -1.0760
  712MOL0     C98183   2.580   3.069   4.310 -0.4244 -0.5151  0.3966
  712MOL0     C98184   2.664   3.218   5.255  0.5055  0.7267 -0.8667
  712MOL0     C98185   2.659   3.298   5.372  0.7072 -0.6850  0.2666
  712MOL0     C98186   2.655   3.230   5.503  0.7845  0.2094 -0.1388
  712MOL0     H98187   2.679   3.401   5.816  2.3449  1.2828 -1.5119
  712MOL0     H98188   2.737   3.554   5.998 -1.5571  0.4984  1.0376
  712MOL0     H98189   2.732   3.672   6.166  1.8186 -0.4211  1.1672
  712MOL0     H98190   2.668   3.822   6.216 -1.1369  0.9530 -1.8211
  712MOL0     H98191   2.918   3.806   6.043  2.9589 -0.3614  2.4321
  712MOL0     H98192   2.873   3.940   6.139  0.7925  0.4270 -0.5329
  712MOL0     H98193   2.920   3.804   6.340 -0.6998 -0.3595 -0.7691
  712MOL0     H98194   2.958   3.657   6.234 -0.6266 -1.0040  0.5271
  712MOL0     H98195   3.141   3.761   6.143 -1.8501  0.7735 -2.0026
  712MOL0     H98196   3.084   3.929   6.183  2.4205 -0.0449  1.6269
  712MOL0     H98197   3.184   3.718   6.373 -0.8910  0.6981  0.9009
  712MOL0     H98198   3.122   3.867   6.429  2.7178  1.8378  1.5905
  712MOL0     H98199   3.365   3.803   6.249  1.4043  2.8386 -3.0512
  712MOL0     H98200   3.325   3.967   6.264  0.4557  2.7419  2.7735
  712MOL0     H98201   3.499   3.848   6.433  0.4877  1.6891  3.1170
  712MOL0     H98202   3.363   3.763   6.495 -0.8671 -0.4753 -1.5317
  712MOL0     H98203   3.364   4.070   6.478 -0.4557 -0.8167 -1.4573
  712MOL0     H98204   3.267   3.970   6.590  0.9320  0.0457  1.3420
  712MOL0     H98205   3.357   4.036   6.823  1.5086  0.6511  0.0479
  712MOL0     H98206   3.699   4.103   6.987 -0.3167  1.6359 -1.3256
  712MOL0     H98207   3.553   4.026   7.036  1.3837 -0.1783  1.5830
  712MOL0     H98208   3.418   4.233   6.998 -0.2026  0.1608 -1.2701
  712MOL0     H98209   3.550   4.256   7.114  0.4669  0.5702 -0.7839
  712MOL0     H98210   3.540   4.348   6.817 -2.1664 -2.0168  0.5116
  712MOL0     H98211   3.548   4.440   6.970 -2.7090 -0.6454 -1.7881
  712MOL0     H98212   3.775   4.266   6.852  1.3589  0.1167 -0.3139
  712MOL0     H98213   3.755   4.428   6.823 -1.9886 -0.9751 -1.4089
  712MOL0     H98214   3.861   4.640   7.008  0.1069 -1.5439  1.5133
  712MOL0     H98215   4.068   4.832   7.098 -0.3418 -2.1054  0.8243
  712MOL0     H98216   3.999   4.813   6.934  0.7911 -0.2687 -1.2035
  712MOL0     H98217   4.173   4.826   6.969 -0.4602  1.4039  2.3566
  712MOL0     H98218   4.630   4.630   6.880  0.2845  0.9519  0.4390
  712MOL0     H98219   4.855   4.673   6.998  0.2940 -1.9833 -0.9240
  712MOL0     H98220   4.800   4.741   7.380  0.9292 -0.3777 -0.3325
  712MOL0     H98221   4.835   4.570   7.438  2.0982 -2.0699 -0.6056
  712MOL0     H98222   5.025   4.791   7.417 -3.1185  2.9349 -0.4367
  712MOL0     H98223   4.955   4.734   7.570  2.0561  1.9835  0.0887
  712MOL0     H98224   5.187   4.635   7.512  0.3347  0.4344 -2.3637
  712MOL0     H98225   5.115   4.552   7.374  2.8070  0.2948 -0.4393
  712MOL0     H98226   5.132   4.381   7.541  0.7015  0.1884 -2.6437
  712MOL0     H98227   4.968   4.419   7.529 -0.6729  0.1141  0.8017
  712MOL0     H98228   5.161   4.540   7.739 -0.3430 -0.7011 -0.7209
  712MOL0     H98229   4.985   4.547   7.747  0.8649  1.3840  1.3377
  712MOL0     H98230   5.165   4.301   7.761  0.9560  2.7765 -0.0683
  712MOL0     H98231   4.985   4.289   7.752  1.1624 -1.8536  0.6382
  712MOL0     H98232   4.961   4.415   7.954  1.1059  1.7768 -0.5666
  712MOL0     H98233   5.137   4.449   7.955 -0.5906  0.9479 -0.1422
  712MOL0     H98234   5.091   4.272   8.114  3.1511  0.2443  0.5741
  712MOL0     H98235   5.197   4.209   7.993 -0.5284 -3.6124  1.2108
  712MOL0     H98236   4.688   4.471   7.342 -0.1030  0.1556  0.2995
  712MOL0     H98237   4.484   4.429   7.237  1.6990 -2.7893  1.1204
  712MOL0     H98238   4.246   4.345   6.982  2.2016  1.9699  0.6290
  712MOL0     H98239   4.012   4.249   6.989  3.8696 -1.7680 -0.1941
  712MOL0     H98240   2.570   3.891   5.807  0.9368 -0.1762  0.0142
  712MOL0     H98241   2.478   3.723   5.624 -0.3400 -2.6296  0.1110
  712MOL0     H98242   2.625   3.594   5.199 -1.7880  0.1965  1.1221
  712MOL0     H98243   2.645   3.442   5.012 -0.0964  0.6172  0.8067
  712MOL0     H98244   2.539   3.264   4.881  0.2536 -0.6118 -1.3574
  712MOL0     H98245   2.706   3.314   4.873 -0.9093  1.1385  1.1107
  712MOL0     H98246   2.587   3.036   4.840  0.3413  1.4859  2.7268
  712MOL0     H98247   2.756   3.086   4.800 -0.9156 -0.8486  2.5420
  712MOL0     H98248   2.493   3.137   4.659 -0.0531 -0.3981 -0.8634
  712MOL0     H98249   2.639   3.235   4.630 -1.0273  0.3906 -0.9108
  712MOL0     H98250   2.567   2.939   4.604 -0.4972  0.5551  1.0262
  712MOL0     H98251   2.738   2.996   4.578 -0.2594  0.1074 -1.6454
  712MOL0     H98252   2.571   3.108   4.211 -0.1795  1.1948  1.0187
  712MOL0     H98253   2.669   3.110   5.266  1.3859  0.9133  0.8669
  712MOL0     H98254   2.681   3.124   5.492  0.9419  0.5266 -4.6159
  712MOL0     H98255   2.713   3.284   5.578 -0.9704  0.6233  0.9918
  712MOL0     H98256   2.553   3.238   5.543  1.1518 -2.4321  1.6220
  713MOL0     O98257   1.251   2.358   3.138 -0.4268  0.0332 -0.0262
  713MOL0     C98258   1.171   2.430   3.078 -0.3161  0.4540 -0.4604
  713MOL0     O98259   1.063   2.387   3.012  0.1043  0.5570  0.4565
  713MOL0     C98260   1.021   2.261   3.031 -0.3939  0.3527  0.4864
  713MOL0     C98261   0.891   2.243   3.070  0.6487  0.3823  0.2769
  713MOL0     C98262   0.843   2.108   3.103  0.0131 -0.4682  0.0161
  713MOL0     C98263   0.921   2.002   3.072 -0.3213  0.0728 -0.0229
  713MOL0     O98264   0.863   1.884   3.099  0.5395 -0.9049 -0.1104
  713MOL0     C98265   0.953   1.771   3.112  0.8831 -0.0422 -0.3990
  713MOL0     C98266   1.016   1.767   3.246  0.2281  1.0463  0.2917
  713MOL0     C98267   0.913   1.721   3.348  0.5279  0.6230  0.2389
  713MOL0     C98268   0.989   1.718   3.482  0.8699 -0.0786 -0.9370
  713MOL0     C98269   0.888   1.721   3.602  0.1615  0.1063  0.0623
  713MOL0     C98270   0.959   1.730   3.734  0.1831 -0.4986  0.6388
  713MOL0     C98271   0.864   1.759   3.850 -0.8476  0.2475  0.1618
  713MOL0     C98272   0.869   1.903   3.897 -0.6531  0.0796  0.1239
  713MOL0     N98273   0.774   1.912   4.012 -0.6851  0.3556  0.1501
  713MOL0     C98274   0.637   1.937   4.007 -0.4319 -0.5509 -0.2317
  713MOL0     C98275   0.601   1.941   4.141 -0.6102 -1.2049 -1.0049
  713MOL0     C98276   0.466   1.980   4.192 -0.7361 -0.2167 -0.2018
  713MOL0     C98277   0.457   1.930   4.337 -0.3956  0.6108  0.2369
  713MOL0     C98278   0.314   1.932   4.395 -0.4338  0.1701  0.9756
  713MOL0     C98279   0.311   1.875   4.542  0.3651 -0.2350  0.0651
  713MOL0     O98280   0.347   1.739   4.559  0.5113 -0.2089 -0.1705
  713MOL0     C98281   0.374   1.693   4.685 -0.3422  0.0473 -0.7939
  713MOL0     C98282   0.476   1.608   4.696 -0.0291  0.1610  0.6672
  713MOL0     C98283   0.515   1.552   4.823 -0.1664 -0.5788  0.1476
  713MOL0     C98284   0.631   1.448   4.819  0.5391 -0.8889 -0.2497
  713MOL0     C98285   0.450   1.586   4.941 -0.4380 -0.4053  0.1247
  713MOL0     C98286   0.502   1.526   5.073  0.4929  0.9450  0.3048
  713MOL0     O98287   0.410   1.538   5.177 -0.2920 -1.1049 -0.3560
  713MOL0     C98288   0.447   1.501   5.310  0.2314 -1.0080  0.2610
  713MOL0     C98289   0.547   1.572   5.376 -0.6128 -0.2627 -0.3220
  713MOL0     C98290   0.571   1.535   5.513  0.0591  0.0715  0.4202
  713MOL0     C98291   0.497   1.434   5.577  0.0257 -0.4385  0.1788
  713MOL0     O98292   0.505   1.411   5.706 -0.0359 -0.2220 -0.3870
  713MOL0     C98293   0.602   1.304   5.738  0.6405 -1.1744  0.1972
  713MOL0     C98294   0.580   1.281   5.887 -0.8257 -0.4077  0.1701
  713MOL0     C98295   0.591   1.419   5.965  0.1161  0.5260 -0.2385
  713MOL0     C98296   0.613   1.376   6.120  0.3633  0.2513  0.9991
  713MOL0     C98297   0.613   1.490   6.228  0.2210 -0.2144  0.9671
  713MOL0     C98298   0.742   1.577   6.193  0.7091 -0.5495 -1.7861
  713MOL0     C98299   0.767   1.681   6.303  0.3285 -0.6606  0.3477
  713MOL0     C98300   0.906   1.742   6.293  0.2504 -0.3225 -0.9544
  713MOL0    Cl98301   0.955   1.862   6.427 -0.5353 -0.0042  0.0231
  713MOL0     C98302   0.413   1.357   5.497 -0.4313  0.4447 -0.5307
  713MOL0     C98303   0.385   1.381   5.367  0.7536 -0.2189  0.0056
  713MOL0     O98304   0.607   1.469   5.079 -0.0511 -0.2241 -0.1179
  713MOL0     C98305   0.359   1.696   4.927 -0.5251  0.3839  0.0486
  713MOL0     C98306   0.321   1.745   4.809  0.3916  0.1631 -0.2036
  713MOL0     N98307   0.715   1.914   4.223 -0.1505  0.2434  0.4076
  713MOL0     N98308   0.819   1.896   4.143  0.7590  0.3290  0.1058
  713MOL0     C98309   1.048   2.021   3.014 -0.3517 -0.9284  0.4491
  713MOL0     C98310   1.101   2.151   2.995 -0.3097 -0.7571  0.3773
  713MOL0     C98311   1.194   2.581   3.086  0.3780  0.5748  0.3628
  713MOL0     C98312   1.130   2.664   2.985 -0.2590 -0.6959  0.2054
  713MOL0     C98313   1.163   2.797   2.983  0.0045  0.2816 -0.0503
  713MOL0     C98314   1.235   2.859   3.084  1.2342 -0.3696  0.7799
  713MOL0     O98315   1.253   2.999   3.088 -0.0206  0.5810  0.0337
  713MOL0     C98316   1.151   3.074   3.016  0.3876 -0.1727  0.0735
  713MOL0     C98317   1.169   3.226   3.046  0.4657  0.7440 -0.3159
  713MOL0     C98318   1.117   3.256   3.188 -0.7597 -0.1813  0.6430
  713MOL0     C98319   1.146   3.406   3.228 -0.1063  0.8416 -0.5683
  713MOL0     C98320   1.291   3.440   3.236 -0.6452 -0.9944 -0.6274
  713MOL0     C98321   1.408   3.466   3.258  0.1908 -0.6616  0.1754
  713MOL0     C98322   1.275   2.780   3.190 -0.4656  0.9718 -1.0872
  713MOL0     C98323   1.262   2.643   3.196  0.4848 -1.1111  0.6041
  713MOL0     C98324   1.322   2.568   3.303  0.1147 -0.5494  0.4090
  713MOL0     H98325   0.827   2.328   3.092  0.3110  1.1426 -3.1161
  713MOL0     H98326   0.739   2.103   3.133  0.2555  0.1819  1.0246
  713MOL0     H98327   1.027   1.769   3.031  1.1265 -0.6088 -0.1628
  713MOL0     H98328   0.893   1.680   3.101  1.7306 -0.5938 -0.5301
  713MOL0     H98329   1.085   1.683   3.230 -1.5867 -0.5767  0.5657
  713MOL0     H98330   1.075   1.855   3.273  4.0440 -1.7270  1.9802
  713MOL0     H98331   0.830   1.791   3.359 -0.2067  0.1661 -2.0425
  713MOL0     H98332   0.870   1.623   3.322  1.0878 -0.5898  3.4231
  713MOL0     H98333   1.036   1.620   3.496  1.2378  0.1087 -0.8664
  713MOL0     H98334   1.061   1.795   3.509 -0.2493  0.0141  2.0789
  713MOL0     H98335   0.817   1.638   3.608 -0.0641  0.3838  1.8673
  713MOL0     H98336   0.819   1.806   3.597 -0.5981 -0.5615 -1.2968
  713MOL0     H98337   1.033   1.650   3.744  1.1148 -0.3271 -3.1617
  713MOL0     H98338   1.028   1.815   3.726  0.1386 -0.5145  0.0018
  713MOL0     H98339   0.890   1.679   3.920  1.2935 -2.2272 -3.1678
  713MOL0     H98340   0.758   1.747   3.824 -0.5679 -2.7761  0.1258
  713MOL0     H98341   0.965   1.932   3.940 -0.5583 -3.3864  2.7494
  713MOL0     H98342   0.837   1.959   3.809  0.0024  2.1382  1.1447
  713MOL0     H98343   0.573   1.951   3.920 -0.3620  2.2439  0.0887
  713MOL0     H98344   0.385   1.929   4.139 -0.5544 -0.0995 -0.5893
  713MOL0     H98345   0.464   2.089   4.191  1.6897 -0.0522  2.0757
  713MOL0     H98346   0.485   1.824   4.331 -2.0352  0.1829 -0.6514
  713MOL0     H98347   0.517   1.988   4.407 -0.8505  0.9892  0.3193
  713MOL0     H98348   0.282   2.035   4.410 -0.9208 -0.0491  1.4628
  713MOL0     H98349   0.239   1.876   4.339 -2.8094  2.1321  2.0459
  713MOL0     H98350   0.384   1.935   4.598 -1.8158  4.4038 -1.5083
  713MOL0     H98351   0.213   1.897   4.586  1.0748  0.9216  1.1560
  713MOL0     H98352   0.545   1.597   4.614  0.2693  0.2102  0.9091
  713MOL0     H98353   0.639   1.421   4.713  0.6086  2.5553 -1.2489
  713MOL0     H98354   0.608   1.360   4.879 -0.9251  0.7240  1.6693
  713MOL0     H98355   0.729   1.490   4.844  0.6947 -0.5458 -1.3909
  713MOL0     H98356   0.611   1.648   5.332 -1.5735  1.5378  1.2504
  713MOL0     H98357   0.637   1.608   5.558  0.1114 -0.7581  1.7152
  713MOL0     H98358   0.588   1.206   5.692  2.2548 -2.2482  1.8238
  713MOL0     H98359   0.705   1.329   5.711  1.3994 -3.0095  1.1688
  713MOL0     H98360   0.483   1.237   5.913 -0.3224 -0.6351  1.7541
  713MOL0     H98361   0.657   1.215   5.929  0.5035  1.8721  1.5121
  713MOL0     H98362   0.499   1.478   5.963 -0.1389  0.4125  3.0107
  713MOL0     H98363   0.669   1.491   5.937  0.5076  0.4741  0.6829
  713MOL0     H98364   0.704   1.316   6.130 -0.6265 -1.6684 -0.7598
  713MOL0     H98365   0.539   1.303   6.154  1.8528 -1.0318  1.5870
  713MOL0     H98366   0.525   1.552   6.208  1.8054  1.3990 -1.6488
  713MOL0     H98367   0.624   1.447   6.328  1.1258  3.5204  2.6500
  713MOL0     H98368   0.710   1.624   6.099 -1.7091 -0.5155 -1.0195
  713MOL0     H98369   0.839   1.530   6.177  1.6614  0.5009  0.4928
  713MOL0     H98370   0.748   1.636   6.401  0.6608 -3.2312 -0.6908
  713MOL0     H98371   0.694   1.762   6.292 -1.0735 -1.9784 -0.2653
  713MOL0     H98372   0.909   1.799   6.199 -2.7710 -2.0372 -2.2229
  713MOL0     H98373   0.984   1.666   6.288  0.7989  0.0861  0.6301
  713MOL0     H98374   0.352   1.275   5.533 -0.8600  1.0116  0.0469
  713MOL0     H98375   0.323   1.316   5.307  2.4669 -2.4942  0.5542
  713MOL0     H98376   0.316   1.750   5.011  0.4152  0.9358  0.1862
  713MOL0     H98377   0.244   1.822   4.802  0.0347 -0.1280  0.4462
  713MOL0     H98378   1.100   1.942   2.961  0.4662  0.0566 -0.2513
  713MOL0     H98379   1.200   2.158   2.950  0.1314 -2.1203  1.0732
  713MOL0     H98380   1.069   2.617   2.909  1.5572  2.2983 -3.4122
  713MOL0     H98381   1.116   2.854   2.903  1.2433  1.6045  0.1149
  713MOL0     H98382   1.161   3.057   2.908  2.3594  1.3583 -0.0264
  713MOL0     H98383   1.051   3.038   3.042 -0.1327  0.6972 -0.6518
  713MOL0     H98384   1.099   3.279   2.981 -1.1316 -0.5602  0.2571
  713MOL0     H98385   1.275   3.252   3.039  0.3517  2.5829  3.0551
  713MOL0     H98386   1.008   3.246   3.195 -0.7699  0.8367  2.3328
  713MOL0     H98387   1.166   3.193   3.262 -0.6579  0.0854  0.8050
  713MOL0     H98388   1.110   3.417   3.331  0.2785 -1.3035 -0.1567
  713MOL0     H98389   1.097   3.475   3.160 -2.2195 -1.3333 -1.4029
  713MOL0     H98390   1.509   3.489   3.286  0.1874 -1.5523  0.9961
  713MOL0     H98391   1.313   2.833   3.277  1.5038  1.2559 -2.0750
  713MOL0     H98392   1.248   2.501   3.349  1.5399 -2.2416  0.3542
  713MOL0     H98393   1.407   2.513   3.263  0.5650 -1.3929  2.3661
  713MOL0     H98394   1.372   2.639   3.370 -2.4578  0.6418  1.1963
  714MOL0     O98395   9.456   9.826   8.780 -0.4555  0.1002 -0.1895
  714MOL0     C98396   9.547   9.880   8.719 -0.6727 -0.1828 -0.3471
  714MOL0     O98397   9.672   9.869   8.753  0.5074  0.6358  0.3721
  714MOL0     C98398   9.704   9.799   8.865  0.3104  0.2936  0.2518
  714MOL0     C98399   9.715   9.662   8.844 -0.2893 -0.0202 -0.5229
  714MOL0     C98400   9.754   9.581   8.954  0.2603  0.0064  0.1750
  714MOL0     C98401   9.785   9.641   9.078 -0.2833  0.4730  0.8994
  714MOL0     O98402   9.834   9.564   9.178  0.1075  0.0913  0.0708
  714MOL0     C98403   9.797   9.585   9.314  0.3444 -0.1709  0.5869
  714MOL0     C98404   9.905   9.524   9.404 -0.2692  0.2617 -0.8393
  714MOL0     C98405   9.865   9.498   9.551  0.2739  0.1360  0.2106
  714MOL0     C98406   9.817   9.356   9.569 -0.1963 -0.5000  0.7947
  714MOL0     C98407   9.817   9.319   9.713  0.8313 -0.2577  0.1780
  714MOL0     C98408   9.824   9.167   9.757 -0.3559  0.0940  0.3015
  714MOL0     C98409   9.691   9.094   9.754 -0.4419 -0.1553 -0.3258
  714MOL0     C98410   9.693   8.960   9.842  0.0000 -0.0480 -0.2507
  714MOL0     N98411   9.684   8.980   9.983 -0.8683  0.4704 -0.0734
  714MOL0     C98412   9.686   9.105  10.044 -0.0284 -0.2354  0.2186
  714MOL0     C98413   9.736   9.091  10.170  0.1556 -0.3400  1.0908
  714MOL0     C98414   9.784   9.193  10.262  0.1756  0.5200 -0.2530
  714MOL0     C98415   9.692   9.189  10.394 -0.0927 -0.3844  0.5559
  714MOL0     C98416   9.740   9.300  10.491  0.0158 -0.1855  0.2031
  714MOL0     C98417   9.665   9.286  10.625  0.3558  0.5198  0.1773
  714MOL0     O98418   9.528   9.238  10.601 -0.0446  0.4102  0.0197
  714MOL0     C98419   9.437   9.217  10.704 -0.7001  0.2960  0.4411
  714MOL0     C98420   9.459   9.256  10.834 -1.1547  0.0892 -0.0531
  714MOL0     C98421   9.368   9.226  10.944  0.5609  0.0154 -0.0446
  714MOL0     C98422   9.404   9.292  11.076  0.1521 -0.7256 -0.7520
  714MOL0     C98423   9.252   9.162  10.916 -0.5595 -0.1118 -1.1463
  714MOL0     C98424   9.143   9.118  11.006 -0.6044 -0.0000 -0.5910
  714MOL0     O98425   9.060   9.005  10.988  0.9930  0.4919  0.3224
  714MOL0     C98426   8.952   8.986  11.075  0.3706  0.1047  0.7429
  714MOL0     C98427   8.947   8.855  11.128  0.2643 -1.6317  1.5848
  714MOL0     C98428   8.844   8.813  11.204 -0.0019  0.1896  0.3982
  714MOL0     C98429   8.741   8.893  11.236 -0.4788 -0.8156 -0.3495
  714MOL0     O98430   8.625   8.838  11.282 -0.0159  0.3098  0.0344
  714MOL0     C98431   8.524   8.909  11.361 -1.1565  1.1130 -0.8626
  714MOL0     C98432   8.391   8.834  11.408  0.3664  0.2148  0.2876
  714MOL0     C98433   8.294   8.796  11.296 -0.5813 -1.4866 -1.1380
  714MOL0     C98434   8.356   8.692  11.199  0.2051 -0.2888 -0.5847
  714MOL0     C98435   8.240   8.633  11.110  0.3111  0.5328 -0.7309
  714MOL0     C98436   8.173   8.725  11.023  0.3622 -0.3459  0.8308
  714MOL0     C98437   8.049   8.670  10.964 -0.6500 -1.0178 -0.0179
  714MOL0     C98438   8.080   8.564  10.861 -0.4807 -0.6227 -0.0861
  714MOL0    Cl98439   7.951   8.441  10.857 -0.1756 -0.0186  0.0802
  714MOL0     C98440   8.740   9.024  11.194 -0.6472 -0.6079 -0.2594
  714MOL0     C98441   8.848   9.064  11.113 -0.7190 -0.1324 -0.2732
  714MOL0     O98442   9.128   9.188  11.105 -0.0744 -0.3914  0.0377
  714MOL0     C98443   9.234   9.116  10.781  0.5364 -0.2188 -0.3673
  714MOL0     C98444   9.323   9.142  10.682  0.7855  1.1010  0.3760
  714MOL0     N98445   9.757   8.956  10.185  0.3406 -0.3325 -0.1461
  714MOL0     N98446   9.715   8.893  10.083  0.0999 -0.7677 -0.7864
  714MOL0     C98447   9.791   9.778   9.094  0.7957  0.0622  0.8144
  714MOL0     C98448   9.747   9.863   8.986  0.2257  0.1208  0.2300
  714MOL0     C98449   9.503   9.948   8.598  0.5567  0.2562  0.2506
  714MOL0     C98450   9.376   9.993   8.596  0.1506 -0.4744  0.3284
  714MOL0     C98451   9.334  10.068   8.484  0.8732  0.3347  0.5271
  714MOL0     C98452   9.416  10.097   8.369  0.9990 -0.0566  0.1884
  714MOL0     O98453   9.372  10.159   8.252  0.1830  0.1845 -0.5796
  714MOL0     C98454   9.231  10.201   8.244 -0.6105 -0.2018  0.5440
  714MOL0     C98455   9.249  10.335   8.160 -0.2812 -0.2313  0.6566
  714MOL0     C98456   9.248  10.290   8.010  0.1076 -0.5415 -0.2891
  714MOL0     C98457   9.267  10.401   7.907 -0.4626 -0.1411  0.0146
  714MOL0     C98458   9.237  10.344   7.777  0.4832  0.0031  0.1125
  714MOL0     C98459   9.204  10.287   7.673 -0.5044 -0.1341  0.4406
  714MOL0     C98460   9.546  10.047   8.376  0.0951 -0.7774 -0.7884
  714MOL0     C98461   9.586   9.965   8.485 -0.3488  0.0662  0.1760
  714MOL0     C98462   9.736   9.925   8.483 -0.0503  0.1901 -0.2151
  714MOL0     H98463   9.684   9.628   8.745  1.4930 -1.4001 -0.6573
  714MOL0     H98464   9.745   9.473   8.945 -1.1059  0.0404  0.9034
  714MOL0     H98465   9.707   9.527   9.337 -0.4528  0.3400 -1.1103
  714MOL0     H98466   9.780   9.691   9.336  1.5985 -0.5515  4.1238
  714MOL0     H98467   9.947   9.430   9.368 -2.5478 -1.7948  1.5136
  714MOL0     H98468   9.981   9.602   9.396 -0.1510  0.0149 -2.4894
  714MOL0     H98469   9.956   9.509   9.611  1.2235 -2.4381 -0.6126
  714MOL0     H98470   9.791   9.566   9.594  0.3581  0.6454 -0.4358
  714MOL0     H98471   9.718   9.347   9.524  0.7613  0.2773 -1.6103
  714MOL0     H98472   9.884   9.289   9.514  0.8751  1.5708 -0.5787
  714MOL0     H98473   9.725   9.358   9.759  0.5389 -1.2281  0.4625
  714MOL0     H98474   9.901   9.368   9.763  0.0313 -0.1540  1.4779
  714MOL0     H98475   9.883   9.105   9.689 -0.5648  0.6603 -0.4153
  714MOL0     H98476   9.865   9.155   9.857  2.8498  2.8000 -0.5025
  714MOL0     H98477   9.667   9.059   9.653  0.2637  4.8680 -2.4988
  714MOL0     H98478   9.605   9.152   9.787 -0.5759 -0.6298  0.1822
  714MOL0     H98479   9.609   8.896   9.816 -1.6435  0.4364  3.3127
  714MOL0     H98480   9.786   8.911   9.811  0.5943  0.4738  0.6596
  714MOL0     H98481   9.674   9.202   9.996  2.2107 -0.0782 -0.1145
  714MOL0     H98482   9.775   9.291  10.214  0.5836  0.4653 -0.4420
  714MOL0     H98483   9.891   9.179  10.280  0.5407  1.5441 -1.4745
  714MOL0     H98484   9.597   9.228  10.357 -0.0652  0.8482  1.6992
  714MOL0     H98485   9.680   9.090  10.439 -2.4006 -0.5121 -0.2397
  714MOL0     H98486   9.848   9.304  10.510 -0.2799  0.0234  2.0086
  714MOL0     H98487   9.713   9.399  10.451  2.2764  0.5710  0.4124
  714MOL0     H98488   9.713   9.212  10.691  0.7526  0.0982 -0.5709
  714MOL0     H98489   9.665   9.379  10.683  1.6167  1.4605 -1.2526
  714MOL0     H98490   9.548   9.313  10.857 -0.7049  0.6215 -2.7367
  714MOL0     H98491   9.399   9.212  11.151  0.6062 -2.0345 -2.0741
  714MOL0     H98492   9.332   9.370  11.102 -0.1088 -0.8539 -1.0753
  714MOL0     H98493   9.505   9.333  11.082  0.1138 -0.6886 -0.3195
  714MOL0     H98494   9.037   8.803  11.098  4.1386  4.4606  0.9403
  714MOL0     H98495   8.835   8.713  11.246 -2.1565  0.5772  0.9873
  714MOL0     H98496   8.573   8.913  11.458  0.2492 -2.3928 -1.2846
  714MOL0     H98497   8.490   9.003  11.318  0.8078  1.2340 -2.2765
  714MOL0     H98498   8.415   8.746  11.468 -4.2678 -1.4515  0.0865
  714MOL0     H98499   8.346   8.896  11.485  1.9157  0.6395  0.8720
  714MOL0     H98500   8.274   8.894  11.251  4.2282  0.4607  0.3629
  714MOL0     H98501   8.198   8.764  11.338 -1.2274  4.0581  2.6242
  714MOL0     H98502   8.381   8.605  11.261 -2.7769 -0.6929  0.2284
  714MOL0     H98503   8.433   8.728  11.131 -0.5620  1.2322 -0.6943
  714MOL0     H98504   8.286   8.547  11.061  0.3290 -0.6842  1.2971
  714MOL0     H98505   8.159   8.591  11.170  1.4873 -0.2318  0.3838
  714MOL0     H98506   8.237   8.765  10.944  0.2730 -0.0794  0.8922
  714MOL0     H98507   8.138   8.812  11.080 -0.6182 -0.2571  0.1198
  714MOL0     H98508   7.985   8.742  10.912  4.7798  3.1129 -2.0360
  714MOL0     H98509   7.992   8.627  11.046 -0.1780  0.9528  1.4032
  714MOL0     H98510   8.168   8.506  10.892  1.1159  1.0333 -1.3253
  714MOL0     H98511   8.097   8.598  10.759 -2.6984 -1.9702 -0.9873
  714MOL0     H98512   8.652   9.084  11.216 -1.7512 -1.8245 -1.2229
  714MOL0     H98513   8.843   9.161  11.066  1.5311 -0.1269 -0.6230
  714MOL0     H98514   9.137   9.076  10.753 -0.2398  2.1629 -1.3644
  714MOL0     H98515   9.307   9.099  10.584  1.5402 -0.7104  1.0026
  714MOL0     H98516   9.815   9.833   9.185 -1.9942  3.6980 -0.3945
  714MOL0     H98517   9.743   9.971   8.991 -0.3290  0.1929 -1.3243
  714MOL0     H98518   9.303   9.971   8.673 -2.8623 -1.0824 -2.4845
  714MOL0     H98519   9.228  10.088   8.472  0.4135 -2.8118 -1.9851
  714MOL0     H98520   9.161  10.129   8.201 -0.2914  1.2416 -2.7248
  714MOL0     H98521   9.193  10.238   8.340 -1.8767 -0.1340  0.0300
  714MOL0     H98522   9.332  10.403   8.175 -1.0420  1.5281 -2.2235
  714MOL0     H98523   9.171  10.408   8.183  0.8669  2.5975 -3.4208
  714MOL0     H98524   9.329  10.218   7.996 -0.3174 -0.9848 -0.5140
  714MOL0     H98525   9.154  10.236   7.990  0.7625 -3.1876  2.8781
  714MOL0     H98526   9.374  10.426   7.914 -0.1551 -1.1770 -0.7792
  714MOL0     H98527   9.207  10.488   7.936  1.3227  0.7411  1.3391
  714MOL0     H98528   9.160  10.260   7.579 -1.2802 -0.1847  0.8052
  714MOL0     H98529   9.618  10.076   8.301 -1.8585 -0.2524 -2.5667
  714MOL0     H98530   9.792   9.974   8.564 -2.1429  3.4734 -0.5666
  714MOL0     H98531   9.745   9.816   8.494  0.3281  0.1862 -0.5635
  714MOL0     H98532   9.789   9.958   8.394  1.2298  1.8074  1.0930
  715MOL0     O98533   0.158   6.102   9.516 -0.2014  0.9645 -1.2616
  715MOL0     C98534   0.111   5.985   9.538 -0.0858 -0.8248 -0.4576
  715MOL0     O98535   0.017   5.953   9.630 -0.0069 -0.2682 -0.4939
  715MOL0     C98536  -0.072   6.046   9.677  0.1152  0.3620  0.6609
  715MOL0     C98537  -0.165   6.099   9.591  0.7868 -0.0873 -0.0791
  715MOL0     C98538  -0.229   6.220   9.630 -1.2572  0.4002 -0.4201
  715MOL0     C98539  -0.209   6.279   9.755 -0.1301  0.3976 -0.2207
  715MOL0     O98540  -0.269   6.384   9.815 -0.1175  0.3820  0.5868
  715MOL0     C98541  -0.341   6.472   9.725  0.4827  0.6549  0.1857
  715MOL0     C98542  -0.392   6.587   9.810  0.4016  0.0085 -0.9534
  715MOL0     C98543  -0.326   6.727   9.792 -0.6641 -0.1450 -0.1365
  715MOL0     C98544  -0.397   6.808   9.903 -0.0904  0.2582 -0.0135
  715MOL0     C98545  -0.334   6.940   9.913 -0.2457 -0.7391  0.5451
  715MOL0     C98546  -0.373   6.998  10.042 -0.4398  0.1287 -0.8190
  715MOL0     C98547  -0.279   7.116  10.087  0.2355  1.0660 -0.5971
  715MOL0     C98548  -0.319   7.178  10.216 -0.4758 -0.2621 -0.5741
  715MOL0     N98549  -0.404   7.290  10.198  0.3353  0.4115 -0.1006
  715MOL0     C98550  -0.534   7.289  10.148 -0.2041  0.3754  0.4733
  715MOL0     C98551  -0.573   7.419  10.166  0.6858  0.6736  0.0688
  715MOL0     C98552  -0.706   7.477  10.128 -0.0910 -0.4817 -0.1658
  715MOL0     C98553  -0.801   7.472  10.255  0.5922 -0.2643  0.0529
  715MOL0     C98554  -0.789   7.335  10.328 -0.3623 -0.7015  0.7421
  715MOL0     C98555  -0.916   7.307  10.411 -0.1538  0.5027  0.1695
  715MOL0     O98556  -1.029   7.278  10.333 -0.0430 -0.6709 -1.3175
  715MOL0     C98557  -1.051   7.146  10.302 -0.1481 -0.0128  0.5311
  715MOL0     C98558  -1.125   7.069  10.389  1.0883 -0.7480  0.2834
  715MOL0     C98559  -1.141   6.937  10.374 -0.5304 -0.5474 -0.1672
  715MOL0     C98560  -1.252   6.871  10.458 -0.2326  0.0339 -0.6910
  715MOL0     C98561  -1.078   6.867  10.262  0.6508 -0.5218 -0.4011
  715MOL0     C98562  -1.082   6.718  10.233  0.6984 -0.3467  0.0455
  715MOL0     O98563  -1.018   6.679  10.117  0.2209  0.1840  0.3773
  715MOL0     C98564  -1.023   6.562  10.052  0.0750  0.2671 -0.8111
  715MOL0     C98565  -1.111   6.565   9.941  0.0819  0.3528  0.1136
  715MOL0     C98566  -1.125   6.439   9.873 -0.4759 -0.4564  0.1157
  715MOL0     C98567  -1.053   6.326   9.916  0.3793 -0.6920 -0.3045
  715MOL0     O98568  -1.070   6.223   9.827  0.4530  0.2591 -0.2607
  715MOL0     C98569  -0.999   6.102   9.873 -0.2915 -0.1263  0.0480
  715MOL0     C98570  -1.048   5.995   9.783  0.0534 -0.0407 -1.0259
  715MOL0     C98571  -1.023   5.853   9.846  0.2725 -0.1539 -0.1894
  715MOL0     C98572  -1.148   5.767   9.821 -0.4780  0.5399 -0.5038
  715MOL0     C98573  -1.212   5.774   9.683 -0.3681 -0.2677  0.6907
  715MOL0     C98574  -1.275   5.641   9.622 -0.1674 -0.0932  0.1394
  715MOL0     C98575  -1.404   5.662   9.533  0.0338  1.0204 -0.8490
  715MOL0     C98576  -1.360   5.724   9.407  0.0472 -0.3636 -0.8952
  715MOL0    Cl98577  -1.494   5.818   9.333 -0.0926 -0.2468 -0.2101
  715MOL0     C98578  -0.973   6.329  10.033 -0.4506 -0.2997 -0.1184
  715MOL0     C98579  -0.959   6.447  10.093  0.0985  0.0060 -0.1127
  715MOL0     O98580  -1.119   6.638  10.319 -0.0562  0.2801 -0.3709
  715MOL0     C98581  -1.020   6.955  10.166 -0.8981 -0.1329 -0.1276
  715MOL0     C98582  -0.996   7.095  10.188  0.5304 -0.3008  0.2709
  715MOL0     N98583  -0.466   7.497  10.215 -0.3608  0.4275  0.4197
  715MOL0     N98584  -0.367   7.418  10.230 -0.5660  0.3334 -0.1886
  715MOL0     C98585  -0.132   6.204   9.845 -0.4324  0.6261  0.3263
  715MOL0     C98586  -0.050   6.095   9.804 -0.2555 -0.6444  0.4037
  715MOL0     C98587   0.191   5.869   9.488 -0.8985 -0.3022 -0.6024
  715MOL0     C98588   0.127   5.743   9.509 -0.0520  0.4328  0.0054
  715MOL0     C98589   0.184   5.627   9.481  0.5091 -0.4194 -0.4363
  715MOL0     C98590   0.309   5.623   9.432  0.3311  0.5366 -1.1702
  715MOL0     O98591   0.348   5.491   9.409 -0.4598  0.7540 -0.4177
  715MOL0     C98592   0.487   5.469   9.388 -0.3479  0.5426  0.6696
  715MOL0     C98593   0.508   5.497   9.233 -0.1997  0.9308 -0.8359
  715MOL0     C98594   0.455   5.380   9.153  0.2731 -0.8777 -0.2567
  715MOL0     C98595   0.507   5.386   9.014  0.1136 -0.6338 -0.8144
  715MOL0     C98596   0.448   5.262   8.962  0.7108 -0.6768  1.0535
  715MOL0     C98597   0.385   5.163   8.928 -0.6485 -0.9242 -1.1221
  715MOL0     C98598   0.376   5.740   9.406 -0.4286 -0.2475  1.4641
  715MOL0     C98599   0.320   5.870   9.424  0.0615 -0.7892 -0.0979
  715MOL0     C98600   0.391   6.008   9.380  0.7420  0.1446  0.2608
  715MOL0     H98601  -0.183   6.061   9.490  1.9988 -0.9814  0.0156
  715MOL0     H98602  -0.314   6.249   9.569 -1.1992 -2.4882 -2.0287
  715MOL0     H98603  -0.424   6.417   9.680  1.4930  1.2682 -2.5944
  715MOL0     H98604  -0.277   6.506   9.644  0.2593  1.9565  0.5211
  715MOL0     H98605  -0.498   6.585   9.785 -0.7223 -2.1312  3.0967
  715MOL0     H98606  -0.384   6.549   9.912  2.8485 -0.3794 -1.2154
  715MOL0     H98607  -0.219   6.723   9.815 -1.0090  0.9580  1.8871
  715MOL0     H98608  -0.341   6.758   9.688  3.1574 -0.0409 -0.8090
  715MOL0     H98609  -0.501   6.814   9.869 -0.8946  0.7918  2.3352
  715MOL0     H98610  -0.396   6.757  10.000 -2.3196  1.7624  0.8774
  715MOL0     H98611  -0.376   7.013   9.843 -1.6703 -0.0654  2.0454
  715MOL0     H98612  -0.226   6.940   9.900 -0.4409 -0.4472 -1.4073
  715MOL0     H98613  -0.471   7.046  10.028  1.4574  3.8211 -2.7849
  715MOL0     H98614  -0.359   6.927  10.124 -1.6973  2.6278  1.7290
  715MOL0     H98615  -0.287   7.194  10.010  1.8938  3.4430  1.4826
  715MOL0     H98616  -0.179   7.073  10.090 -0.4957 -1.0228 -3.0611
  715MOL0     H98617  -0.366   7.113  10.290 -0.5119 -0.1744 -0.5202
  715MOL0     H98618  -0.230   7.209  10.271 -1.0571 -0.6893  0.6393
  715MOL0     H98619  -0.594   7.207  10.112 -4.0557  2.7039  1.0678
  715MOL0     H98620  -0.741   7.399  10.060  2.6589 -3.2396  1.3529
  715MOL0     H98621  -0.699   7.578  10.086  1.0384 -0.8831 -0.9969
  715MOL0     H98622  -0.776   7.546  10.331  1.3879  0.0995 -0.5505
  715MOL0     H98623  -0.901   7.497  10.221  1.2831 -0.6274 -2.4139
  715MOL0     H98624  -0.771   7.256  10.255  1.0245  1.4011 -1.3460
  715MOL0     H98625  -0.710   7.336  10.404  0.9551 -3.8227 -0.4275
  715MOL0     H98626  -0.893   7.220  10.472 -1.1666 -0.4752 -0.7980
  715MOL0     H98627  -0.931   7.392  10.479  0.9027  1.3560 -0.6241
  715MOL0     H98628  -1.176   7.110  10.475  0.5970  0.4417 -0.5519
  715MOL0     H98629  -1.224   6.777  10.507  3.3399  1.6926  0.7775
  715MOL0     H98630  -1.346   6.850  10.406 -0.2999 -2.8180  0.4229
  715MOL0     H98631  -1.279   6.941  10.537 -1.0762 -1.0198 -0.0283
  715MOL0     H98632  -1.179   6.644   9.912 -1.4860 -0.0279  2.4654
  715MOL0     H98633  -1.195   6.434   9.790  0.5187 -1.4374 -0.6870
  715MOL0     H98634  -0.891   6.101   9.863 -0.3242  0.2547 -0.3753
  715MOL0     H98635  -1.027   6.083   9.977  1.6142  0.1032  0.6395
  715MOL0     H98636  -1.157   5.999   9.775  0.0263  0.6675 -0.4795
  715MOL0     H98637  -0.998   6.007   9.687 -0.5504 -0.6347 -1.4230
  715MOL0     H98638  -0.999   5.861   9.952 -0.3775  0.3549 -0.0696
  715MOL0     H98639  -0.933   5.823   9.792  0.8917  0.4310  0.5023
  715MOL0     H98640  -1.231   5.789   9.889 -0.4914  0.9180 -0.6431
  715MOL0     H98641  -1.118   5.661   9.823 -1.4187  0.2561  2.0113
  715MOL0     H98642  -1.283   5.854   9.662 -0.5465 -0.6796 -0.3380
  715MOL0     H98643  -1.132   5.786   9.608 -0.6390 -0.4505  0.3689
  715MOL0     H98644  -1.299   5.569   9.700  0.2908  0.5849  0.9151
  715MOL0     H98645  -1.193   5.595   9.566  0.4250  1.8466 -0.6496
  715MOL0     H98646  -1.482   5.710   9.592  0.6253 -0.6742  1.4864
  715MOL0     H98647  -1.438   5.562   9.506 -0.3880  0.5895  1.1232
  715MOL0     H98648  -1.314   5.653   9.338  2.1726 -2.3632  2.3335
  715MOL0     H98649  -1.282   5.798   9.426 -0.6635  0.0591  0.5267
  715MOL0     H98650  -0.916   6.247  10.074  3.0298  3.2479  3.0185
  715MOL0     H98651  -0.879   6.459  10.166  1.2231 -0.0251 -1.3052
  715MOL0     H98652  -0.979   6.915  10.074  1.0061 -3.2160  1.8534
  715MOL0     H98653  -0.950   7.150  10.106 -1.3407 -0.6875 -1.1140
  715MOL0     H98654  -0.133   6.225   9.951 -2.1210 -0.2793  0.5266
  715MOL0     H98655   0.025   6.047   9.866  1.6408  2.4581  0.7071
  715MOL0     H98656   0.034   5.734   9.564  0.8526 -2.8285  1.2080
  715MOL0     H98657   0.131   5.533   9.493 -3.5131  1.7861  0.8626
  715MOL0     H98658   0.556   5.534   9.443 -0.0448  0.8024 -0.0043
  715MOL0     H98659   0.506   5.363   9.411  0.4275 -0.0272 -2.1723
  715MOL0     H98660   0.614   5.494   9.205 -0.2794  0.9161 -1.1412
  715MOL0     H98661   0.468   5.596   9.206  1.4940  1.1472 -2.8558
  715MOL0     H98662   0.485   5.284   9.198 -1.1514 -1.9904 -1.5741
  715MOL0     H98663   0.346   5.389   9.150  0.4367  1.0453 -1.6389
  715MOL0     H98664   0.616   5.394   9.012 -0.0164  5.0477 -1.3622
  715MOL0     H98665   0.461   5.470   8.961 -0.9541 -1.4371 -1.1877
  715MOL0     H98666   0.341   5.069   8.900 -0.8797 -0.6096 -1.8404
  715MOL0     H98667   0.466   5.752   9.346 -0.6927 -2.3215  0.5626
  715MOL0     H98668   0.450   5.979   9.292 -3.1559 -2.1598 -1.8752
  715MOL0     H98669   0.323   6.080   9.333  2.6212  2.0867  0.3444
  715MOL0     H98670   0.453   6.043   9.463  1.4572  3.3446 -1.4739
  716MOL0     O98671   9.084   1.567   9.886 -0.7038  0.0218 -0.4334
  716MOL0     C98672   9.096   1.644   9.794  0.8867 -0.9563  0.8785
  716MOL0     O98673   8.995   1.683   9.711  1.5289  0.2924  0.1633
  716MOL0     C98674   8.873   1.625   9.725 -0.3040 -0.2967 -0.0191
  716MOL0     C98675   8.830   1.544   9.620  0.2769 -0.1808  0.6284
  716MOL0     C98676   8.707   1.472   9.636  0.6486 -0.2724  0.5028
  716MOL0     C98677   8.628   1.482   9.749 -0.6321  0.7253 -0.0610
  716MOL0     O98678   8.517   1.396   9.764 -0.2577 -0.4780 -0.5515
  716MOL0     C98679   8.464   1.392   9.904 -1.7762 -0.0083  1.7079
  716MOL0     C98680   8.397   1.257   9.920 -0.2366 -0.0401 -0.8714
  716MOL0     C98681   8.479   1.134   9.947 -0.2112  0.2224 -0.6445
  716MOL0     C98682   8.394   1.000   9.968  0.2229  0.8100 -0.6100
  716MOL0     C98683   8.495   0.881   9.983  0.6043 -0.9746  0.5052
  716MOL0     C98684   8.576   0.848   9.848 -0.5468 -0.6533 -1.1791
  716MOL0     C98685   8.685   0.735   9.855  0.7798  0.7710 -0.3465
  716MOL0     C98686   8.618   0.595   9.867  0.1518 -0.4393  1.3653
  716MOL0     N98687   8.524   0.569   9.757  0.1727 -0.9780  0.1906
  716MOL0     C98688   8.534   0.591   9.626  0.3085  1.6121 -0.5322
  716MOL0     C98689   8.448   0.508   9.563 -0.7354 -0.1909 -1.1241
  716MOL0     C98690   8.422   0.494   9.419 -1.0068 -0.3659 -0.0571
  716MOL0     C98691   8.334   0.598   9.342  0.7277  0.2960 -1.4673
  716MOL0     C98692   8.246   0.534   9.225  0.0149 -0.5362 -0.9056
  716MOL0     C98693   8.325   0.439   9.133  0.6168 -0.8472 -0.3680
  716MOL0     O98694   8.257   0.435   9.013  0.1054  0.1485 -0.1043
  716MOL0     C98695   8.324   0.358   8.924 -0.0450 -0.1232  0.0644
  716MOL0     C98696   8.261   0.354   8.803  0.8502  0.1550 -0.8558
  716MOL0     C98697   8.303   0.271   8.699  0.8416 -0.0985 -0.7854
  716MOL0     C98698   8.210   0.251   8.586  0.8512 -0.6275  1.2089
  716MOL0     C98699   8.428   0.213   8.703  0.9042 -0.5699  0.3728
  716MOL0     C98700   8.482   0.109   8.608  0.6284  0.4879  0.2662
  716MOL0     O98701   8.447   0.106   8.478 -0.3419 -0.2141 -0.4529
  716MOL0     C98702   8.476  -0.003   8.400 -0.4638 -0.2097 -0.8137
  716MOL0     C98703   8.500   0.031   8.265 -1.2120  0.7452 -0.2398
  716MOL0     C98704   8.523  -0.078   8.174 -0.0062 -0.9642  0.7833
  716MOL0     C98705   8.520  -0.214   8.220 -0.6696  0.7947  0.3115
  716MOL0     O98706   8.525  -0.322   8.138 -0.0490  0.0841 -0.0995
  716MOL0     C98707   8.600  -0.319   8.008  1.4608 -0.1275  0.6487
  716MOL0     C98708   8.751  -0.289   8.015 -0.2687  0.1338 -1.2130
  716MOL0     C98709   8.819  -0.406   8.098 -0.7581 -0.2494  1.3543
  716MOL0     C98710   8.962  -0.376   8.132  0.5347  0.3244 -0.2074
  716MOL0     C98711   9.044  -0.488   8.182  0.1227 -1.0626 -0.1425
  716MOL0     C98712   9.185  -0.458   8.226  0.1582  0.3340  0.6064
  716MOL0     C98713   9.307  -0.520   8.143  0.9204 -0.3697  0.6019
  716MOL0     C98714   9.325  -0.671   8.148  0.2997  0.3894 -0.5445
  716MOL0    Cl98715   9.491  -0.722   8.106 -0.1316  0.4533  0.0693
  716MOL0     C98716   8.489  -0.242   8.357  0.3355 -0.7511 -0.2317
  716MOL0     C98717   8.465  -0.139   8.449 -0.4757  0.5885  0.6452
  716MOL0     O98718   8.565   0.032   8.653  0.9206 -0.0854 -0.0563
  716MOL0     C98719   8.498   0.230   8.824 -0.6043 -0.3522  0.4771
  716MOL0     C98720   8.446   0.292   8.937  0.3229 -0.0942  0.8006
  716MOL0     N98721   8.372   0.455   9.669  0.0126  0.1363  0.2469
  716MOL0     N98722   8.426   0.486   9.778  0.3094  0.3902 -0.1030
  716MOL0     C98723   8.677   1.572   9.847  1.2188  0.4976  0.1270
  716MOL0     C98724   8.795   1.637   9.841  0.1040  0.5099 -0.7943
  716MOL0     C98725   9.226   1.675   9.732  0.3952 -0.5149  0.5185
  716MOL0     C98726   9.233   1.716   9.600  0.6313 -0.7789 -0.1619
  716MOL0     C98727   9.348   1.721   9.529  0.3049 -0.9833  1.5593
  716MOL0     C98728   9.467   1.664   9.571  0.1707 -0.9649  0.8410
  716MOL0     O98729   9.584   1.679   9.503 -0.2772  0.5297  0.3979
  716MOL0     C98730   9.587   1.723   9.363 -0.0682  0.0409 -0.2448
  716MOL0     C98731   9.729   1.729   9.305 -0.5510 -0.4942 -0.5234
  716MOL0     C98732   9.802   1.853   9.350 -0.0181 -0.1407 -0.2943
  716MOL0     C98733   9.933   1.881   9.270  0.8472  0.0593  0.6807
  716MOL0     C98734  10.039   1.795   9.320 -0.3000  0.3250 -0.2772
  716MOL0     C98735  10.117   1.719   9.378  0.3256 -0.1105 -0.4084
  716MOL0     C98736   9.457   1.610   9.704  0.2684  0.1203 -0.0951
  716MOL0     C98737   9.344   1.622   9.788  0.3521  0.3504  0.7111
  716MOL0     C98738   9.367   1.555   9.923 -0.1312 -1.1541 -0.3237
  716MOL0     H98739   8.897   1.545   9.535 -2.0853 -0.3558 -1.3583
  716MOL0     H98740   8.679   1.412   9.549  2.2990  0.1495 -0.3719
  716MOL0     H98741   8.393   1.474   9.921 -3.3055 -0.4586 -1.6281
  716MOL0     H98742   8.546   1.395   9.976  1.9792 -0.0774 -2.1562
  716MOL0     H98743   8.335   1.268  10.009  1.7221  0.5652  0.4874
  716MOL0     H98744   8.343   1.232   9.829 -2.7810  0.7637  0.3321
  716MOL0     H98745   8.552   1.126   9.866  0.5935 -0.0882  0.1065
  716MOL0     H98746   8.540   1.150  10.036 -1.2568 -3.7391  0.9890
  716MOL0     H98747   8.330   1.011  10.056 -1.8608  0.0163 -1.9258
  716MOL0     H98748   8.338   0.974   9.877 -2.1654  1.8023  0.4748
  716MOL0     H98749   8.448   0.787  10.014 -0.9223 -0.7018 -0.8062
  716MOL0     H98750   8.569   0.909  10.058 -0.6620  2.6799  0.5562
  716MOL0     H98751   8.515   0.821   9.762 -1.8329 -0.2445 -0.4311
  716MOL0     H98752   8.632   0.938   9.820 -1.7756  1.2769  1.9507
  716MOL0     H98753   8.766   0.750   9.927  4.7848 -1.5004 -3.9070
  716MOL0     H98754   8.735   0.727   9.758 -1.0511 -1.5448 -1.1927
  716MOL0     H98755   8.685   0.509   9.875  0.6088 -0.3511 -0.8396
  716MOL0     H98756   8.566   0.598   9.963 -0.2941 -1.9184  1.1911
  716MOL0     H98757   8.608   0.655   9.579  1.1527  0.9899 -0.0615
  716MOL0     H98758   8.373   0.397   9.407  1.3549 -1.3008 -3.1382
  716MOL0     H98759   8.515   0.484   9.364 -0.6214 -0.3115  0.5773
  716MOL0     H98760   8.256   0.632   9.411 -0.8779 -0.2457 -2.9217
  716MOL0     H98761   8.386   0.682   9.296 -0.1163 -0.4262 -3.8950
  716MOL0     H98762   8.150   0.495   9.260 -0.8530  1.5365 -0.8570
  716MOL0     H98763   8.207   0.614   9.162 -3.5395  0.8226  2.6078
  716MOL0     H98764   8.422   0.488   9.125  0.0325  0.5348  0.6322
  716MOL0     H98765   8.336   0.337   9.172 -1.2793 -1.7454 -1.9854
  716MOL0     H98766   8.171   0.414   8.794 -0.1097 -1.1595 -0.3156
  716MOL0     H98767   8.113   0.301   8.589  0.6476 -0.7159 -1.5960
  716MOL0     H98768   8.181   0.150   8.555  2.2143 -0.8299  0.5283
  716MOL0     H98769   8.260   0.305   8.506  0.9276 -1.0301  0.9803
  716MOL0     H98770   8.508   0.136   8.241 -0.5262  0.8217  0.2803
  716MOL0     H98771   8.555  -0.053   8.073  0.5199  0.7911  1.3501
  716MOL0     H98772   8.594  -0.418   7.961  0.7812  0.2261 -0.0316
  716MOL0     H98773   8.550  -0.247   7.943 -1.1993 -3.5851 -1.5405
  716MOL0     H98774   8.791  -0.286   7.914 -1.2452 -0.1161 -1.6238
  716MOL0     H98775   8.760  -0.191   8.061 -1.7843  0.3762 -1.3751
  716MOL0     H98776   8.824  -0.495   8.034  1.8277  1.9621 -1.8581
  716MOL0     H98777   8.761  -0.424   8.189 -0.9885 -0.7620  1.1119
  716MOL0     H98778   8.957  -0.292   8.202  2.2646  0.6637 -0.4274
  716MOL0     H98779   9.013  -0.335   8.044  2.2030 -1.5942 -0.2163
  716MOL0     H98780   8.980  -0.523   8.264  1.7339 -2.4604  0.5611
  716MOL0     H98781   9.044  -0.567   8.108 -1.3166 -1.5617  0.3501
  716MOL0     H98782   9.198  -0.508   8.323  1.2762 -3.7147 -1.4110
  716MOL0     H98783   9.201  -0.350   8.232 -0.2633  0.3344  2.5241
  716MOL0     H98784   9.396  -0.477   8.190  2.7171 -1.3657 -1.6983
  716MOL0     H98785   9.317  -0.497   8.037  3.4938  0.1734  0.9113
  716MOL0     H98786   9.252  -0.705   8.074 -1.8061  1.1288  1.1138
  716MOL0     H98787   9.298  -0.729   8.236 -1.1905 -0.9439 -1.8044
  716MOL0     H98788   8.463  -0.341   8.394 -2.7426  0.1444  0.3325
  716MOL0     H98789   8.430  -0.161   8.549 -1.9240  0.6925  0.1832
  716MOL0     H98790   8.593   0.184   8.851  0.2993 -0.0481 -1.9097
  716MOL0     H98791   8.516   0.292   9.020  0.9061 -1.4730  0.3457
  716MOL0     H98792   8.613   1.603   9.929  0.7466  2.7452 -1.0219
  716MOL0     H98793   8.822   1.707   9.920  1.0883  1.2058 -1.7347
  716MOL0     H98794   9.146   1.752   9.545 -0.1589 -1.2147  0.7756
  716MOL0     H98795   9.347   1.757   9.427  2.2170 -1.5395  1.3140
  716MOL0     H98796   9.535   1.655   9.295  2.5177 -0.6300 -1.7114
  716MOL0     H98797   9.547   1.824   9.353 -1.7234 -0.6455 -0.9173
  716MOL0     H98798   9.728   1.739   9.196 -0.4586 -0.3456 -0.5098
  716MOL0     H98799   9.793   1.645   9.334  3.2155  2.7925  1.5971
  716MOL0     H98800   9.741   1.942   9.330  4.0182  3.2152  0.9900
  716MOL0     H98801   9.810   1.848   9.459  0.8122  0.7280 -0.3045
  716MOL0     H98802   9.954   1.986   9.293  0.1278 -0.2203  2.7674
  716MOL0     H98803   9.916   1.861   9.164  2.1321 -1.6709  0.7589
  716MOL0     H98804  10.173   1.637   9.418  0.1988 -0.1746 -0.3595
  716MOL0     H98805   9.544   1.553   9.735  0.9884  0.3721 -1.5516
  716MOL0     H98806   9.445   1.602   9.985 -2.4768  1.3251  0.9487
  716MOL0     H98807   9.289   1.569   9.998 -1.3354 -2.9022 -1.1742
  716MOL0     H98808   9.364   1.447   9.904 -0.6952 -1.4911  1.5197
  717MOL0     O98809  10.611   7.116   9.828 -1.1720  1.0302  0.6978
  717MOL0     C98810  10.538   7.157   9.740  0.4817 -0.7854 -0.0913
  717MOL0     O98811  10.476   7.284   9.733 -0.4561 -0.0345 -0.2589
  717MOL0     C98812  10.487   7.370   9.844 -0.2112 -0.2821 -0.5542
  717MOL0     C98813  10.517   7.508   9.821 -0.8370  0.3239  0.3808
  717MOL0     C98814  10.510   7.600   9.923  0.5142 -0.8300 -0.6144
  717MOL0     C98815  10.459   7.570  10.049  0.2088 -0.1000  0.1739
  717MOL0     O98816  10.421   7.645  10.157 -0.1685 -0.3538  0.3271
  717MOL0     C98817  10.412   7.788  10.140 -0.0286  0.5933  0.5160
  717MOL0     C98818  10.532   7.863  10.193  0.4017  0.5653 -0.5470
  717MOL0     C98819  10.651   7.843  10.111  1.1537 -0.2980  0.5605
  717MOL0     C98820  10.778   7.879  10.181 -0.6833 -0.6602  0.4163
  717MOL0     C98821  10.770   8.031  10.206  0.0641  0.8097 -0.0758
  717MOL0     C98822  10.905   8.075  10.265 -1.2892 -0.7469  0.4104
  717MOL0     C98823  10.917   8.220  10.315  0.2316  0.7052 -0.4517
  717MOL0     C98824  11.056   8.231  10.381 -0.5050 -0.8728 -0.2184
  717MOL0     N98825  11.088   8.366  10.412 -0.2965  0.5598 -0.1180
  717MOL0     C98826  11.077   8.415  10.539 -0.2677 -1.2975 -0.2440
  717MOL0     C98827  11.112   8.548  10.537 -0.1787 -1.7910 -0.0415
  717MOL0     C98828  11.103   8.643  10.654  0.1464 -0.0804 -0.3046
  717MOL0     C98829  10.964   8.662  10.714  0.1413 -0.1992 -0.6625
  717MOL0     C98830  10.853   8.708  10.616  0.0895  0.0343  0.8516
  717MOL0     C98831  10.889   8.811  10.514 -1.3899  0.5847 -0.0431
  717MOL0     O98832  10.774   8.853  10.439  0.4715  0.1224  0.6359
  717MOL0     C98833  10.722   8.752  10.357 -0.4336 -0.1383 -0.2647
  717MOL0     C98834  10.582   8.742  10.370 -0.3374  1.5775 -0.7041
  717MOL0     C98835  10.511   8.632  10.318 -0.3601  0.0983  0.3751
  717MOL0     C98836  10.371   8.611  10.372  0.7716  0.3699  0.8512
  717MOL0     C98837  10.584   8.530  10.243 -0.1421 -1.4849  0.1979
  717MOL0     C98838  10.526   8.402  10.200 -0.5186  0.0021  0.4917
  717MOL0     O98839  10.561   8.355  10.087 -0.3916  0.2782 -0.0289
  717MOL0     C98840  10.475   8.285  10.006 -0.9536 -0.4024 -0.3822
  717MOL0     C98841  10.533   8.174   9.941  0.4493  0.0068 -0.2989
  717MOL0     C98842  10.448   8.084   9.880  1.0347 -0.1385  0.7695
  717MOL0     C98843  10.309   8.111   9.861  0.4213 -0.1668  0.1558
  717MOL0     O98844  10.221   8.024   9.793  0.9283 -0.4317 -0.7782
  717MOL0     C98845  10.266   7.919   9.719  0.5532  0.2663  1.0495
  717MOL0     C98846  10.334   7.967   9.594  0.5544  0.5982  0.3500
  717MOL0     C98847  10.238   8.043   9.498 -0.3813  1.1924 -0.2258
  717MOL0     C98848  10.156   7.938   9.421 -0.2122  0.1104  0.5559
  717MOL0     C98849  10.068   8.008   9.316 -0.8514  0.1234  0.1450
  717MOL0     C98850  10.003   7.906   9.228  0.2096 -0.8718  0.7554
  717MOL0     C98851   9.885   7.848   9.299 -0.2577  0.5506 -0.8305
  717MOL0     C98852   9.814   7.750   9.211 -1.2055 -0.0764  0.3383
  717MOL0    Cl98853   9.663   7.672   9.281 -0.3540 -0.0382  0.1133
  717MOL0     C98854  10.253   8.229   9.917  0.4821 -0.2874 -0.2423
  717MOL0     C98855  10.338   8.314   9.990 -1.3477  0.0494 -0.8763
  717MOL0     O98856  10.438   8.348  10.265  0.3728 -0.4393  0.3614
  717MOL0     C98857  10.726   8.544  10.222 -0.1141 -0.7619  0.5213
  717MOL0     C98858  10.789   8.650  10.280 -0.8491  0.5692  0.0367
  717MOL0     N98859  11.160   8.570  10.407  0.9435 -0.2010  0.1424
  717MOL0     N98860  11.144   8.465  10.335 -0.6965 -0.7252  0.1868
  717MOL0     C98861  10.436   7.434  10.078 -0.5871 -0.8657  0.8565
  717MOL0     C98862  10.452   7.332   9.976 -0.3153 -0.7655 -0.2093
  717MOL0     C98863  10.497   7.058   9.633  0.1036 -0.7047  0.1376
  717MOL0     C98864  10.529   6.923   9.652  0.0469  0.2519  0.1921
  717MOL0     C98865  10.485   6.828   9.566 -0.2040  0.2443  0.4045
  717MOL0     C98866  10.389   6.846   9.468 -0.3515  0.7947  0.9644
  717MOL0     O98867  10.340   6.749   9.397  0.1282  0.3800 -0.2261
  717MOL0     C98868  10.191   6.760   9.374  0.4519 -0.0284 -0.3276
  717MOL0     C98869  10.134   6.627   9.359 -0.0008  0.5072  0.1790
  717MOL0     C98870  10.184   6.549   9.237  0.1727  0.0616 -0.3704
  717MOL0     C98871  10.327   6.492   9.234 -0.5086  0.0159  0.7088
  717MOL0     C98872  10.356   6.402   9.346 -0.4685  0.5829 -0.5203
  717MOL0     C98873  10.393   6.348   9.446  0.6717  0.0913 -0.7672
  717MOL0     C98874  10.358   6.982   9.452  0.0238 -0.3933  1.9278
  717MOL0     C98875  10.417   7.089   9.513  0.4139 -0.6618  0.3131
  717MOL0     C98876  10.371   7.229   9.476  0.2214 -0.2718 -0.3986
  717MOL0     H98877  10.533   7.543   9.719 -2.3936  0.4194  0.1368
  717MOL0     H98878  10.542   7.695   9.881 -2.5221 -0.2137 -1.7759
  717MOL0     H98879  10.332   7.819  10.207  1.1293  0.8343  1.8448
  717MOL0     H98880  10.372   7.817  10.042  2.3243  0.3330 -0.5966
  717MOL0     H98881  10.494   7.965  10.201 -0.6674  0.0621  1.4354
  717MOL0     H98882  10.568   7.831  10.291  1.7158 -1.5650 -1.6493
  717MOL0     H98883  10.669   7.741  10.075  0.8910 -0.8919  2.0269
  717MOL0     H98884  10.626   7.908  10.027  0.6801  1.4042  1.9636
  717MOL0     H98885  10.789   7.826  10.276 -1.4557  1.5937  1.8317
  717MOL0     H98886  10.861   7.852  10.115 -1.4310  0.2100 -0.9275
  717MOL0     H98887  10.704   8.064  10.287  0.6323  1.2427  0.2235
  717MOL0     H98888  10.744   8.092  10.119 -1.8133 -1.7425 -1.4180
  717MOL0     H98889  10.934   8.004  10.344 -1.2539  0.4383  1.4888
  717MOL0     H98890  10.977   8.052  10.186 -2.8133 -1.3788 -0.8639
  717MOL0     H98891  10.831   8.248  10.377 -0.0990 -0.3088 -0.4309
  717MOL0     H98892  10.913   8.284  10.226  2.0305  2.5282  0.7071
  717MOL0     H98893  11.059   8.179  10.478  1.0175 -1.4347 -0.5372
  717MOL0     H98894  11.136   8.190  10.319 -0.2491 -0.6571 -0.0357
  717MOL0     H98895  11.029   8.377  10.629  3.0965 -0.8240  1.9195
  717MOL0     H98896  11.134   8.741  10.617 -2.4787  1.3078  0.8872
  717MOL0     H98897  11.162   8.609  10.740  0.5897  0.0113 -0.5702
  717MOL0     H98898  10.932   8.565  10.756 -0.0037 -0.2034 -0.7845
  717MOL0     H98899  10.978   8.729  10.799  0.2103  1.3109 -1.8360
  717MOL0     H98900  10.808   8.623  10.563 -1.1287  0.4115  1.2519
  717MOL0     H98901  10.765   8.737  10.674  1.9133  0.9249  3.3862
  717MOL0     H98902  10.944   8.895  10.558 -3.1077  0.3210  2.8814
  717MOL0     H98903  10.964   8.766  10.448  1.7064 -1.1225  4.1816
  717MOL0     H98904  10.525   8.799  10.443  1.6123 -0.2710  2.4872
  717MOL0     H98905  10.309   8.571  10.291  2.4308 -1.2872  0.3164
  717MOL0     H98906  10.331   8.706  10.410 -1.1562 -0.8867  2.1523
  717MOL0     H98907  10.363   8.526  10.440  1.7784 -2.1862 -2.0132
  717MOL0     H98908  10.641   8.158   9.942  0.6545  1.2774  0.8912
  717MOL0     H98909  10.498   7.997   9.837  0.6795  1.2151 -2.7506
  717MOL0     H98910  10.336   7.848   9.764  0.6936 -0.0436  0.3648
  717MOL0     H98911  10.182   7.853   9.693  0.8539  1.0931 -2.6153
  717MOL0     H98912  10.415   8.036   9.618  1.5959 -0.1851 -0.7610
  717MOL0     H98913  10.383   7.883   9.543 -0.2188 -2.0818  3.6032
  717MOL0     H98914  10.312   8.090   9.434  1.1588  0.4645  0.9333
  717MOL0     H98915  10.167   8.113   9.542 -0.8279  1.1349 -0.8542
  717MOL0     H98916  10.099   7.879   9.494  1.3659 -0.4510  1.3717
  717MOL0     H98917  10.214   7.861   9.370  0.2886 -1.3122  3.1014
  717MOL0     H98918  10.006   8.086   9.362 -2.8208 -0.7554 -0.9235
  717MOL0     H98919  10.141   8.057   9.251 -0.1616 -1.5796 -0.4059
  717MOL0     H98920  10.071   7.829   9.190  2.0342  0.0981  1.9157
  717MOL0     H98921   9.955   7.960   9.146  0.4481 -1.5308  0.1731
  717MOL0     H98922   9.824   7.934   9.329 -0.5987 -0.4281  1.4578
  717MOL0     H98923   9.913   7.798   9.392 -0.9226  0.0505 -0.8916
  717MOL0     H98924   9.887   7.672   9.187 -1.6534 -1.8809  4.1073
  717MOL0     H98925   9.786   7.802   9.118 -0.8060  1.3560  0.9930
  717MOL0     H98926  10.145   8.241   9.912  0.6553  1.6583 -0.0537
  717MOL0     H98927  10.306   8.406  10.038 -0.0303 -0.9109  2.0661
  717MOL0     H98928  10.770   8.463  10.164 -2.8430 -2.6428  0.8664
  717MOL0     H98929  10.897   8.651  10.274 -0.6106 -1.0076  2.8142
  717MOL0     H98930  10.391   7.403  10.171 -1.2803 -1.7765  0.2349
  717MOL0     H98931  10.431   7.226   9.989  1.6496 -1.5744 -2.7287
  717MOL0     H98932  10.579   6.887   9.741 -1.1893 -1.1804  0.3400
  717MOL0     H98933  10.504   6.726   9.599  0.3494  0.1043 -0.3161
  717MOL0     H98934  10.137   6.822   9.447  0.6710  0.7140 -0.7817
  717MOL0     H98935  10.189   6.812   9.278 -1.0767 -4.0429 -2.6919
  717MOL0     H98936  10.027   6.647   9.349 -0.0500  1.6193  2.2406
  717MOL0     H98937  10.143   6.571   9.453 -3.3489 -1.2135 -0.3742
  717MOL0     H98938  10.115   6.465   9.223  1.1442 -0.5381 -1.8285
  717MOL0     H98939  10.175   6.613   9.149  1.9604 -0.0484 -0.6584
  717MOL0     H98940  10.403   6.570   9.237 -1.1663  0.6495  1.3157
  717MOL0     H98941  10.346   6.442   9.139 -0.2748  0.5709  0.4593
  717MOL0     H98942  10.424   6.303   9.538 -0.6248  0.8683  0.0626
  717MOL0     H98943  10.284   7.003   9.375 -0.1817  0.3457  2.3200
  717MOL0     H98944  10.448   7.306   9.493  0.4689 -0.8723  1.4146
  717MOL0     H98945  10.337   7.230   9.372  0.6948  0.5635 -0.5583
  717MOL0     H98946  10.280   7.262   9.527 -0.5249  1.1190 -2.4793
  718MOL0     O98947   9.664   3.417   7.793  0.8744 -0.2281 -0.0311
  718MOL0     C98948   9.726   3.399   7.892  0.5022 -0.1867 -0.6740
  718MOL0     O98949   9.739   3.277   7.959 -0.6189  0.4926 -0.3248
  718MOL0     C98950   9.658   3.169   7.944  0.7492  0.0908 -0.8654
  718MOL0     C98951   9.535   3.162   7.873 -0.1701  0.5388 -0.8495
  718MOL0     C98952   9.460   3.039   7.869  0.2277 -0.3672  0.8300
  718MOL0     C98953   9.510   2.921   7.901  0.4121  0.1196 -0.7496
  718MOL0     O98954   9.440   2.806   7.873 -0.3728  0.3056 -0.6750
  718MOL0     C98955   9.514   2.680   7.881  0.2108 -0.2679 -0.2404
  718MOL0     C98956   9.432   2.575   7.801 -0.0869 -0.0997  0.2819
  718MOL0     C98957   9.422   2.611   7.653  0.7001  0.0588  0.7472
  718MOL0     C98958   9.548   2.609   7.570  0.2550  0.3835  0.0968
  718MOL0     C98959   9.517   2.618   7.419  0.2033  0.4213 -0.3326
  718MOL0     C98960   9.631   2.634   7.332  0.0532  0.5716  0.8312
  718MOL0     C98961   9.600   2.637   7.181  0.1365 -0.4545 -0.0260
  718MOL0     C98962   9.731   2.619   7.097 -1.0648 -0.7432  0.2246
  718MOL0     N98963   9.754   2.479   7.063  0.1213 -0.4537  0.3196
  718MOL0     C98964   9.723   2.410   6.944 -0.2553 -0.0831 -1.5142
  718MOL0     C98965   9.782   2.288   6.961  0.7058 -0.1090  0.6089
  718MOL0     C98966   9.794   2.183   6.853 -0.1886  0.4228 -0.2020
  718MOL0     C98967   9.911   2.211   6.754  0.3977  0.3717  0.4530
  718MOL0     C98968   9.957   2.362   6.750  0.7657 -0.3059  0.2329
  718MOL0     C98969  10.081   2.378   6.658 -1.4049  0.6675 -0.4375
  718MOL0     O98970  10.184   2.291   6.689 -0.1697 -0.2925 -0.5948
  718MOL0     C98971  10.303   2.300   6.616 -0.2846  0.2959 -0.5483
  718MOL0     C98972  10.387   2.189   6.596 -1.3908  0.5189  1.0265
  718MOL0     C98973  10.502   2.199   6.521  0.2600 -0.2079  0.5106
  718MOL0     C98974  10.591   2.078   6.531 -0.3522 -0.3355  0.5741
  718MOL0     C98975  10.538   2.320   6.461  0.1179 -1.1694 -0.0368
  718MOL0     C98976  10.658   2.330   6.374 -0.9037 -0.6988  0.8376
  718MOL0     O98977  10.682   2.226   6.293 -0.0411 -0.4876 -0.6913
  718MOL0     C98978  10.799   2.194   6.227  0.1281  0.0913  0.1760
  718MOL0     C98979  10.893   2.284   6.192  0.1424  0.7797 -1.2193
  718MOL0     C98980  11.003   2.238   6.113  0.0828  1.0538 -1.4578
  718MOL0     C98981  11.034   2.100   6.093  0.2431  0.3510 -0.1418
  718MOL0     O98982  11.156   2.069   6.034 -0.0683  0.2085  0.4676
  718MOL0     C98983  11.148   2.066   5.895  0.6553 -0.2493 -1.1694
  718MOL0     C98984  11.243   2.167   5.836  0.4918 -0.0006  0.2049
  718MOL0     C98985  11.178   2.233   5.713  0.4167  0.8497 -0.5581
  718MOL0     C98986  11.281   2.329   5.647 -0.3606 -0.3982 -0.5428
  718MOL0     C98987  11.233   2.415   5.538  0.7287 -1.1873  0.0749
  718MOL0     C98988  11.193   2.347   5.408  0.3415  1.1250 -0.8240
  718MOL0     C98989  11.149   2.428   5.285  0.1654 -0.0534 -0.9307
  718MOL0     C98990  11.003   2.419   5.243 -0.9057 -0.1210 -0.4048
  718MOL0    Cl98991  10.979   2.528   5.099  0.2791  0.3105 -0.2825
  718MOL0     C98992  10.946   2.013   6.152 -0.3590 -0.1351  0.4890
  718MOL0     C98993  10.826   2.055   6.210  0.0444 -1.0728 -0.0083
  718MOL0     O98994  10.720   2.435   6.383 -0.4208 -0.2176 -0.1029
  718MOL0     C98995  10.461   2.433   6.489 -0.4393  0.4726  0.7020
  718MOL0     C98996  10.344   2.422   6.552 -0.1507 -0.0334 -0.4848
  718MOL0     N98997   9.827   2.276   7.094 -0.0088  0.4658  0.4158
  718MOL0     N98998   9.811   2.392   7.149 -0.0568  0.3399  0.5400
  718MOL0     C98999   9.627   2.927   7.979  0.2015 -0.2194  0.6275
  718MOL0     C99000   9.705   3.050   8.002  0.3873  0.5822 -0.1761
  718MOL0     C99001   9.837   3.487   7.932 -0.0398  0.0960 -0.5088
  718MOL0     C99002   9.916   3.468   8.055  0.2240  0.8120 -0.5185
  718MOL0     C99003  10.022   3.550   8.093 -0.0464 -0.2992 -0.0083
  718MOL0     C99004  10.051   3.663   8.023 -0.2331  1.0190  0.1731
  718MOL0     O99005  10.157   3.747   8.033  0.1233 -0.3207 -0.0705
  718MOL0     C99006  10.270   3.700   8.103 -0.7527  0.4266 -0.9147
  718MOL0     C99007  10.397   3.779   8.051  0.6996 -0.5197  0.0143
  718MOL0     C99008  10.434   3.912   8.130 -0.0599  0.3434 -0.2679
  718MOL0     C99009  10.474   3.899   8.280 -0.5746  0.0716  0.2986
  718MOL0     C99010  10.579   4.015   8.304  0.0904 -0.4613 -0.3502
  718MOL0     C99011  10.635   4.124   8.323 -0.0631  0.4654 -0.4945
  718MOL0     C99012   9.965   3.688   7.914 -0.5713  0.3821  0.3508
  718MOL0     C99013   9.861   3.614   7.871  0.3928  0.3177  0.1767
  718MOL0     C99014   9.790   3.670   7.750 -1.0266 -0.2201  0.2085
  718MOL0     H99015   9.492   3.249   7.824 -0.0839  2.4177  2.1431
  718MOL0     H99016   9.365   3.029   7.819 -1.0670 -0.5592  3.2158
  718MOL0     H99017   9.538   2.655   7.985  1.4382 -0.8339 -0.6480
  718MOL0     H99018   9.607   2.682   7.824 -1.7188 -2.1287 -3.8041
  718MOL0     H99019   9.493   2.486   7.817  1.5616  0.6679 -1.4008
  718MOL0     H99020   9.337   2.552   7.851 -0.2035 -3.0071 -1.1140
  718MOL0     H99021   9.349   2.541   7.612 -1.3364  1.2408  2.1840
  718MOL0     H99022   9.379   2.711   7.651 -0.8991 -0.5581  2.1786
  718MOL0     H99023   9.612   2.687   7.612 -1.5457  2.4117 -0.6974
  718MOL0     H99024   9.593   2.509   7.573 -0.7151 -0.2264 -2.4762
  718MOL0     H99025   9.445   2.700   7.407  2.1965  2.1899 -0.7794
  718MOL0     H99026   9.462   2.528   7.389  0.1521  0.5491 -0.6183
  718MOL0     H99027   9.688   2.721   7.367  0.5401  0.3505  0.5980
  718MOL0     H99028   9.698   2.552   7.356  2.3612  2.1426  0.1001
  718MOL0     H99029   9.563   2.735   7.146  1.0266 -0.7130 -1.8466
  718MOL0     H99030   9.516   2.570   7.158  0.7074 -0.9898 -0.5798
  718MOL0     H99031   9.710   2.674   7.005 -0.2410 -2.0154 -0.7597
  718MOL0     H99032   9.819   2.664   7.142 -0.5398 -0.7214 -0.7993
  718MOL0     H99033   9.672   2.445   6.854 -1.0372 -0.5623 -1.2649
  718MOL0     H99034   9.699   2.175   6.801 -2.2065 -3.6109  3.4989
  718MOL0     H99035   9.818   2.089   6.905 -0.4107  1.2135  1.3840
  718MOL0     H99036   9.998   2.155   6.790  1.5259 -0.5115 -3.1336
  718MOL0     H99037   9.899   2.166   6.655  1.1529 -1.4332  1.1278
  718MOL0     H99038   9.870   2.423   6.724  0.5987 -0.5271  0.2670
  718MOL0     H99039   9.975   2.388   6.855 -2.4379  1.9185  0.3519
  718MOL0     H99040  10.050   2.368   6.553 -1.1226 -0.4348 -0.4219
  718MOL0     H99041  10.107   2.481   6.685 -4.2897  0.8114  2.4528
  718MOL0     H99042  10.363   2.090   6.634 -1.3646  0.3692  0.6550
  718MOL0     H99043  10.694   2.114   6.521 -0.2838 -0.8004 -0.5108
  718MOL0     H99044  10.577   2.014   6.444  5.8428 -3.7960  1.5991
  718MOL0     H99045  10.583   2.025   6.627 -1.5321 -2.1930 -0.4819
  718MOL0     H99046  10.872   2.390   6.207  0.8244  0.8312 -0.5584
  718MOL0     H99047  11.067   2.315   6.073 -0.2756  1.7906 -0.6413
  718MOL0     H99048  11.177   1.967   5.859 -1.8256 -1.7934  0.7827
  718MOL0     H99049  11.047   2.082   5.855  0.1020  2.4414  1.0145
  718MOL0     H99050  11.260   2.254   5.900 -0.6552  0.9153 -0.6828
  718MOL0     H99051  11.336   2.115   5.812 -1.4222 -3.4667 -0.3872
  718MOL0     H99052  11.098   2.293   5.756  0.4021  1.1322 -0.9682
  718MOL0     H99053  11.143   2.165   5.635  4.2536  2.9234 -4.5422
  718MOL0     H99054  11.375   2.283   5.617  0.0625  0.4117 -0.4641
  718MOL0     H99055  11.318   2.393   5.727  1.8766 -1.2183 -0.8603
  718MOL0     H99056  11.145   2.466   5.577  0.5672 -1.9484  0.7326
  718MOL0     H99057  11.315   2.482   5.509 -1.6508  1.3470 -1.3148
  718MOL0     H99058  11.113   2.277   5.432  1.6937 -0.4111 -0.5836
  718MOL0     H99059  11.279   2.284   5.382 -0.0592  0.7810 -1.3430
  718MOL0     H99060  11.217   2.407   5.203  1.9244  2.2866 -0.1864
  718MOL0     H99061  11.175   2.528   5.321  1.7571 -1.3100  1.7936
  718MOL0     H99062  10.941   2.459   5.323  0.5579 -0.8377  1.1488
  718MOL0     H99063  10.979   2.317   5.210  0.1051  0.4476 -3.1138
  718MOL0     H99064  10.940   1.907   6.131  1.3261  0.1177 -1.6026
  718MOL0     H99065  10.757   1.978   6.241 -0.7692 -0.8225 -1.0958
  718MOL0     H99066  10.485   2.521   6.431  0.6148  0.0906  0.5457
  718MOL0     H99067  10.282   2.507   6.578  1.5468  1.3553 -0.7505
  718MOL0     H99068   9.663   2.832   8.015 -1.1686 -0.6253  0.9721
  718MOL0     H99069   9.802   3.045   8.051 -0.4937 -2.6229  1.5122
  718MOL0     H99070   9.872   3.405   8.131  2.8510  1.2820  1.5371
  718MOL0     H99071  10.072   3.528   8.187 -4.6645 -0.4102  2.6868
  718MOL0     H99072  10.272   3.715   8.211  5.7900 -4.9173  0.3835
  718MOL0     H99073  10.283   3.592   8.094 -0.6318 -0.1703  3.8436
  718MOL0     H99074  10.393   3.788   7.942 -0.1516  0.3143  0.1066
  718MOL0     H99075  10.484   3.714   8.063  1.5115  0.3087 -1.1034
  718MOL0     H99076  10.509   3.961   8.068 -0.7410  1.5886 -0.1444
  718MOL0     H99077  10.354   3.987   8.131  0.8164  1.3075  1.6933
  718MOL0     H99078  10.519   3.803   8.309 -1.5575 -0.5577 -0.2252
  718MOL0     H99079  10.383   3.909   8.339 -0.5202  0.6215  0.2922
  718MOL0     H99080  10.698   4.210   8.334 -1.4855  1.1865  3.7315
  718MOL0     H99081   9.991   3.772   7.851  1.4551 -0.1758  0.4008
  718MOL0     H99082   9.830   3.647   7.651 -3.8422  0.6891 -1.2425
  718MOL0     H99083   9.687   3.633   7.744 -1.9972  2.4305 -1.2249
  718MOL0     H99084   9.787   3.779   7.756  1.3555 -0.0763 -0.1897
  719MOL0     O99085   4.743   8.127   7.735  0.1895  0.4360 -0.2283
  719MOL0     C99086   4.772   8.016   7.780 -0.4180  1.0839  0.5666
  719MOL0     O99087   4.719   7.971   7.903  0.7903 -0.3178 -0.9217
  719MOL0     C99088   4.679   8.077   7.983  0.5319  0.6095  0.1233
  719MOL0     C99089   4.757   8.118   8.084  0.2647  0.5235  0.0030
  719MOL0     C99090   4.705   8.203   8.189 -0.7814 -0.1626 -0.2770
  719MOL0     C99091   4.590   8.270   8.173 -0.8939 -0.3868  1.2953
  719MOL0     O99092   4.536   8.364   8.261  0.3498  0.1706 -0.6957
  719MOL0     C99093   4.624   8.456   8.333  0.4207  0.1190  0.6874
  719MOL0     C99094   4.536   8.523   8.437 -1.0195  1.0646 -0.4658
  719MOL0     C99095   4.616   8.641   8.490  0.5528  0.1291  0.0915
  719MOL0     C99096   4.756   8.601   8.545  0.7126 -1.0046  0.0725
  719MOL0     C99097   4.827   8.729   8.576 -0.6014  0.4331 -0.0179
  719MOL0     C99098   4.953   8.701   8.655  0.2367 -0.7861 -0.7617
  719MOL0     C99099   4.996   8.835   8.731  0.9270  0.0392  0.1776
  719MOL0     C99100   5.143   8.827   8.783 -0.3251 -0.8190  0.1113
  719MOL0     N99101   5.245   8.788   8.685  0.1374 -0.6218  0.2850
  719MOL0     C99102   5.336   8.684   8.700  0.5983  0.2926  0.4245
  719MOL0     C99103   5.422   8.702   8.600 -0.3737 -0.6157 -0.5202
  719MOL0     C99104   5.530   8.609   8.573  0.2043  0.8912  0.0176
  719MOL0     C99105   5.645   8.682   8.499  0.1181 -0.3176  0.2412
  719MOL0     C99106   5.774   8.579   8.493  0.1946  0.3639  0.0954
  719MOL0     C99107   5.904   8.651   8.456  0.6239  0.9256 -0.5390
  719MOL0     O99108   5.927   8.755   8.547 -0.1837 -0.3252 -0.3824
  719MOL0     C99109   6.019   8.854   8.511  0.0019 -0.3210 -0.1049
  719MOL0     C99110   6.106   8.907   8.615 -0.0912 -0.2682  0.5422
  719MOL0     C99111   6.192   9.013   8.589 -0.5625 -0.1295 -0.5922
  719MOL0     C99112   6.286   9.039   8.711 -0.8306 -0.3879  0.2797
  719MOL0     C99113   6.187   9.085   8.470  0.9646 -0.1663  0.1070
  719MOL0     C99114   6.272   9.205   8.437  0.3858 -0.3494 -0.2881
  719MOL0     O99115   6.253   9.253   8.315 -0.3135 -0.3426  0.7574
  719MOL0     C99116   6.328   9.364   8.274 -0.5510 -0.8525  1.0975
  719MOL0     C99117   6.472   9.358   8.274 -0.2893  0.4174 -0.1592
  719MOL0     C99118   6.536   9.469   8.219 -0.7814  0.0321  0.7172
  719MOL0     C99119   6.471   9.580   8.156  0.1154 -0.8663 -0.4787
  719MOL0     O99120   6.533   9.689   8.113 -0.4106 -0.0446 -0.3491
  719MOL0     C99121   6.467   9.783   8.039  0.4686 -0.4651  1.0568
  719MOL0     C99122   6.459   9.738   7.887  0.3267  0.0966  0.2582
  719MOL0     C99123   6.420   9.855   7.793  0.5098  0.0865  0.2181
  719MOL0     C99124   6.271   9.889   7.775 -0.5205 -0.3126 -0.5052
  719MOL0     C99125   6.263  10.005   7.688  0.2778 -0.4079 -0.0485
  719MOL0     C99126   6.120  10.071   7.684  0.7287 -0.2041 -0.0675
  719MOL0     C99127   6.000   9.970   7.664 -0.5485 -0.3782  0.0660
  719MOL0     C99128   5.905   9.982   7.781 -0.0080  0.0241 -0.6766
  719MOL0    Cl99129   5.748   9.881   7.747 -0.4181 -0.0668  0.2390
  719MOL0     C99130   6.329   9.574   8.152  0.1435 -0.1583 -0.0619
  719MOL0     C99131   6.255   9.473   8.212  0.7549 -1.0633 -0.2745
  719MOL0     O99132   6.348   9.260   8.521 -0.0017  0.4026  0.9346
  719MOL0     C99133   6.095   9.042   8.373 -0.5382  0.9112 -0.4494
  719MOL0     C99134   6.013   8.926   8.401  0.1781  0.1772  0.3037
  719MOL0     N99135   5.385   8.806   8.524  0.6758 -0.1817  0.3270
  719MOL0     N99136   5.286   8.860   8.580  0.8680 -1.1215  0.7325
  719MOL0     C99137   4.506   8.238   8.065 -0.4685 -0.2060  0.7270
  719MOL0     C99138   4.550   8.138   7.979 -0.3914 -0.0851  0.3198
  719MOL0     C99139   4.858   7.910   7.711  0.7980 -0.4313 -0.0117
  719MOL0     C99140   4.895   7.783   7.770  0.3729  0.1021 -0.1969
  719MOL0     C99141   4.981   7.693   7.715 -0.7721  0.3050 -0.3734
  719MOL0     C99142   5.038   7.731   7.591 -0.4248  0.4268 -1.0243
  719MOL0     O99143   5.110   7.650   7.515 -0.4571 -0.6160  0.2396
  719MOL0     C99144   5.090   7.507   7.538 -0.2557  0.1010 -0.2956
  719MOL0     C99145   5.104   7.425   7.411 -0.0088  0.1928  0.8699
  719MOL0     C99146   5.239   7.432   7.339 -0.4609  0.6677 -0.9843
  719MOL0     C99147   5.233   7.355   7.207  0.1813  0.3511  0.0041
  719MOL0     C99148   5.152   7.417   7.096 -0.6545 -0.1971  0.6482
  719MOL0     C99149   5.100   7.452   6.993 -0.5240 -0.3706  0.4673
  719MOL0     C99150   5.007   7.853   7.523 -0.4432 -0.6101  0.3163
  719MOL0     C99151   4.924   7.945   7.588 -0.9226  1.0126 -0.5436
  719MOL0     C99152   4.918   8.076   7.520 -0.1897 -0.4568  0.3137
  719MOL0     H99153   4.851   8.063   8.081 -0.6202 -1.1860  1.3817
  719MOL0     H99154   4.772   8.200   8.274 -0.8684 -2.2720 -0.2192
  719MOL0     H99155   4.663   8.526   8.258  0.4668  1.4767  1.9333
  719MOL0     H99156   4.702   8.396   8.381 -1.6727 -2.5915  0.9402
  719MOL0     H99157   4.433   8.543   8.406 -1.1725 -1.0600 -1.5423
  719MOL0     H99158   4.524   8.441   8.508  0.3796  2.0710  0.9836
  719MOL0     H99159   4.627   8.713   8.409 -1.1854 -0.4026 -0.6763
  719MOL0     H99160   4.551   8.690   8.563 -0.2940  0.9374 -1.1763
  719MOL0     H99161   4.735   8.537   8.631 -1.3815  0.5259  0.7900
  719MOL0     H99162   4.809   8.556   8.461 -0.1686  0.1801 -1.1567
  719MOL0     H99163   4.765   8.795   8.638  2.8650  5.1894 -1.0813
  719MOL0     H99164   4.839   8.788   8.485 -5.0642 -2.0960 -2.6021
  719MOL0     H99165   4.938   8.629   8.736  1.1473 -0.4627 -0.2865
  719MOL0     H99166   5.041   8.673   8.596  1.3057 -1.5982  1.1100
  719MOL0     H99167   4.928   8.866   8.811 -1.4243 -0.6006 -1.4550
  719MOL0     H99168   5.004   8.915   8.657 -0.4938 -0.1301 -0.1956
  719MOL0     H99169   5.183   8.917   8.830 -0.5722 -0.6617  0.0194
  719MOL0     H99170   5.148   8.738   8.846 -0.2729 -1.1948 -0.4115
  719MOL0     H99171   5.354   8.623   8.787 -1.7032  1.4783  1.8318
  719MOL0     H99172   5.490   8.529   8.510  3.0002  0.3267 -1.2078
  719MOL0     H99173   5.556   8.565   8.670 -0.1787  3.4731  1.4036
  719MOL0     H99174   5.603   8.677   8.398 -0.3340 -1.4780  0.4715
  719MOL0     H99175   5.669   8.778   8.545  1.1410 -1.0426  1.2858
  719MOL0     H99176   5.789   8.527   8.588 -1.9707  1.5927  1.1736
  719MOL0     H99177   5.751   8.514   8.408  3.2915 -2.7731  1.4082
  719MOL0     H99178   5.991   8.585   8.452 -2.1660 -3.1474 -1.1100
  719MOL0     H99179   5.888   8.696   8.358  2.1348  1.2528 -0.6493
  719MOL0     H99180   6.106   8.858   8.712  0.7450  0.5552  0.9722
  719MOL0     H99181   6.381   8.986   8.702  1.4890  3.6255 -1.8606
  719MOL0     H99182   6.230   8.999   8.796 -1.7112  0.2017 -0.0014
  719MOL0     H99183   6.302   9.146   8.726 -0.6254 -0.4376  0.4126
  719MOL0     H99184   6.533   9.274   8.306  2.5392  2.4257  0.0471
  719MOL0     H99185   6.645   9.472   8.221 -0.5918 -2.9034 -0.3548
  719MOL0     H99186   6.372   9.820   8.077 -1.1840 -0.3744 -2.7388
  719MOL0     H99187   6.531   9.872   8.035 -0.8796  0.6276 -4.5026
  719MOL0     H99188   6.562   9.707   7.863 -0.0284 -1.2198  0.3757
  719MOL0     H99189   6.402   9.646   7.872 -0.9142  1.2971 -3.6789
  719MOL0     H99190   6.458   9.826   7.695  1.9177 -2.9332  1.5105
  719MOL0     H99191   6.462   9.947   7.834 -0.9887  0.7047  0.4382
  719MOL0     H99192   6.220   9.907   7.871 -1.9051  0.7178 -1.3965
  719MOL0     H99193   6.223   9.797   7.739  0.5766 -0.4827 -1.5692
  719MOL0     H99194   6.342  10.080   7.699 -0.3501  0.7588 -2.5359
  719MOL0     H99195   6.278   9.962   7.588  2.2059 -1.0306  0.4710
  719MOL0     H99196   6.123  10.157   7.615  0.7208 -0.0990  0.0616
  719MOL0     H99197   6.103  10.132   7.773 -0.6355 -1.0952  0.3117
  719MOL0     H99198   6.032   9.866   7.653 -2.2487 -0.8378 -0.9207
  719MOL0     H99199   5.955  10.001   7.569  0.1229 -3.1143 -1.2368
  719MOL0     H99200   5.877  10.086   7.795 -1.9373 -0.3647 -1.3669
  719MOL0     H99201   5.941   9.950   7.880 -0.5071  0.8907 -0.2048
  719MOL0     H99202   6.270   9.662   8.126  3.3303  2.4603  0.9458
  719MOL0     H99203   6.148   9.489   8.210  1.1930  2.8933 -3.5784
  719MOL0     H99204   6.079   9.095   8.279  0.4428 -0.7956 -1.6396
  719MOL0     H99205   5.933   8.898   8.332  3.7487 -3.3485 -2.9544
  719MOL0     H99206   4.419   8.296   8.033 -0.3777 -0.4625 -0.0175
  719MOL0     H99207   4.480   8.111   7.900 -0.4001  1.1672 -0.1277
  719MOL0     H99208   4.849   7.750   7.863  1.1880  0.2359  0.2646
  719MOL0     H99209   5.025   7.616   7.777  2.4740  0.0492 -2.7637
  719MOL0     H99210   5.170   7.463   7.598  2.0514  1.0451 -2.4319
  719MOL0     H99211   4.992   7.489   7.582  0.3447 -0.3708  0.8647
  719MOL0     H99212   5.025   7.459   7.342 -0.7473 -0.3181  1.4452
  719MOL0     H99213   5.083   7.326   7.451  1.7342  0.2913  2.1327
  719MOL0     H99214   5.269   7.537   7.326  2.4195  0.0505 -0.0597
  719MOL0     H99215   5.315   7.380   7.399 -0.1815  1.8793 -0.2483
  719MOL0     H99216   5.211   7.249   7.225 -0.2530  0.2267 -1.1294
  719MOL0     H99217   5.333   7.352   7.163 -0.7200 -1.7803 -2.1248
  719MOL0     H99218   5.047   7.465   6.901  1.3964  0.4574 -0.5939
  719MOL0     H99219   5.053   7.873   7.426  1.7840  1.6670  1.7339
  719MOL0     H99220   4.967   8.155   7.577 -1.1098 -0.9873  1.9001
  719MOL0     H99221   4.971   8.062   7.426  3.8717  1.4517  2.1084
  719MOL0     H99222   4.813   8.101   7.502 -0.1807 -1.4811 -1.3817
  720MOL0     O99223   4.443   7.266  10.449 -1.0319 -0.0927  0.5643
  720MOL0     C99224   4.415   7.364  10.514  0.3718 -0.5726  0.3764
  720MOL0     O99225   4.330   7.368  10.607  0.3416 -0.0692  0.3154
  720MOL0     C99226   4.277   7.257  10.673 -0.0143 -0.2357  0.1305
  720MOL0     C99227   4.170   7.284  10.757 -0.5523 -1.0774  0.1223
  720MOL0     C99228   4.106   7.187  10.841  0.5310  0.0529  0.3057
  720MOL0     C99229   4.165   7.061  10.838 -0.2153  0.6341 -0.2729
  720MOL0     O99230   4.125   6.954  10.919 -0.3974 -1.3801  0.4983
  720MOL0     C99231   3.995   6.982  10.973  0.9954  0.4124 -0.1352
  720MOL0     C99232   3.930   6.841  11.006 -0.3930 -0.4505 -0.9758
  720MOL0     C99233   4.030   6.761  11.095 -0.2310 -0.2950 -0.5340
  720MOL0     C99234   3.985   6.618  11.140  0.5151  0.9382  0.0754
  720MOL0     C99235   4.102   6.537  11.200 -0.4362  0.1262  0.6848
  720MOL0     C99236   4.173   6.462  11.079  0.0820  0.9707  0.0527
  720MOL0     C99237   4.272   6.356  11.124 -0.8138  0.2040 -1.2017
  720MOL0     C99238   4.381   6.425  11.217  0.0112 -0.3572  0.9261
  720MOL0     N99239   4.445   6.533  11.143 -0.4290  0.1121 -0.0299
  720MOL0     C99240   4.539   6.518  11.043 -0.9355 -0.8583 -0.7948
  720MOL0     C99241   4.587   6.646  11.028 -0.5265  0.9458  0.2234
  720MOL0     C99242   4.710   6.698  10.952  0.3273 -0.3871  0.3510
  720MOL0     C99243   4.676   6.729  10.806  0.8280 -0.5120  0.2548
  720MOL0     C99244   4.766   6.838  10.733 -0.2740  0.3641  0.0858
  720MOL0     C99245   4.729   6.846  10.579  0.3661  0.3396  0.3908
  720MOL0     O99246   4.745   6.716  10.501 -0.3999  0.4172  0.1021
  720MOL0     C99247   4.706   6.699  10.365  0.8578 -0.8195  0.5996
  720MOL0     C99248   4.615   6.785  10.299  0.0205  0.1228  1.0019
  720MOL0     C99249   4.577   6.761  10.162 -0.5397  0.0478  0.2686
  720MOL0     C99250   4.488   6.866  10.096  0.3931  0.0289 -1.2897
  720MOL0     C99251   4.626   6.646  10.096  0.0181 -0.1105 -0.7788
  720MOL0     C99252   4.575   6.614   9.962  0.3061  0.6417  0.3179
  720MOL0     O99253   4.627   6.693   9.863 -0.1595  0.3102 -0.1319
  720MOL0     C99254   4.599   6.659   9.737  0.1143  0.4736 -0.5587
  720MOL0     C99255   4.483   6.697   9.665 -0.1495 -0.6200 -0.9001
  720MOL0     C99256   4.472   6.678   9.527 -0.1652  0.2559  0.8284
  720MOL0     C99257   4.573   6.597   9.454  0.6092 -0.7579 -0.4206
  720MOL0     O99258   4.569   6.564   9.319 -1.1462  0.7590 -0.6202
  720MOL0     C99259   4.444   6.520   9.264 -0.1892 -0.5639  0.1428
  720MOL0     C99260   4.465   6.490   9.112  0.5005  0.5096  0.0043
  720MOL0     C99261   4.537   6.581   9.020 -0.2536  0.6569 -0.3385
  720MOL0     C99262   4.438   6.671   8.942  0.3358 -0.1932 -0.2677
  720MOL0     C99263   4.355   6.777   9.026  0.6563  0.1296  0.7283
  720MOL0     C99264   4.453   6.878   9.097  0.5972  0.3126 -0.2718
  720MOL0     C99265   4.380   6.937   9.223 -0.0681 -0.2636  1.0203
  720MOL0     C99266   4.444   7.074   9.251  0.1756  0.4138  1.1273
  720MOL0    Cl99267   4.354   7.172   9.372  0.5331  0.4754  0.1813
  720MOL0     C99268   4.689   6.572   9.530 -0.2206 -0.5995  0.5942
  720MOL0     C99269   4.695   6.602   9.663 -0.6832 -0.4290  0.4356
  720MOL0     O99270   4.497   6.515   9.938  0.3296 -0.2817  0.7629
  720MOL0     C99271   4.722   6.570  10.156 -0.2467 -0.0613 -0.6088
  720MOL0     C99272   4.757   6.597  10.290 -0.5855  0.5611  0.9940
  720MOL0     N99273   4.522   6.734  11.112  0.9042 -0.6513  0.0673
  720MOL0     N99274   4.435   6.662  11.179  0.3630  0.7285  0.2357
  720MOL0     C99275   4.279   7.032  10.768 -1.0002 -0.8255  0.2952
  720MOL0     C99276   4.326   7.125  10.668 -0.0208 -0.5690  0.7667
  720MOL0     C99277   4.504   7.486  10.476 -0.0961 -0.5061 -0.2859
  720MOL0     C99278   4.526   7.570  10.587  0.1728  0.3330 -0.5810
  720MOL0     C99279   4.600   7.689  10.568  0.3324  0.4841 -0.2707
  720MOL0     C99280   4.657   7.722  10.447  0.2123 -0.5190 -0.9234
  720MOL0     O99281   4.696   7.852  10.427 -0.1214 -0.3656 -0.5888
  720MOL0     C99282   4.839   7.872  10.422 -1.4409  0.3843 -0.5836
  720MOL0     C99283   4.859   8.021  10.406 -0.4208 -0.4239 -0.0398
  720MOL0     C99284   5.004   8.047  10.409 -0.2393 -0.0169  0.4574
  720MOL0     C99285   5.029   8.188  10.356  0.5738 -0.0436  0.5042
  720MOL0     C99286   5.170   8.235  10.394  0.2865 -0.9988 -0.1756
  720MOL0     C99287   5.279   8.295  10.404  0.1629  0.1339 -0.2637
  720MOL0     C99288   4.646   7.631  10.346 -0.2071 -0.0477  0.4839
  720MOL0     C99289   4.577   7.509  10.349 -0.6196 -0.4572 -0.6386
  720MOL0     C99290   4.583   7.417  10.232  0.7375 -0.2000  0.4604
  720MOL0     H99291   4.145   7.389  10.772 -0.2740 -0.9858 -0.0464
  720MOL0     H99292   4.021   7.217  10.900  0.8371 -0.9708  1.3062
  720MOL0     H99293   3.927   7.034  10.905  1.7561  1.6048 -0.0059
  720MOL0     H99294   4.011   7.036  11.066  2.1410 -1.1944  0.6533
  720MOL0     H99295   3.834   6.850  11.057  1.3576  0.4425  2.5538
  720MOL0     H99296   3.916   6.803  10.905 -0.3551  1.9704 -1.9558
  720MOL0     H99297   4.121   6.738  11.039  2.5165 -1.4197  3.9022
  720MOL0     H99298   4.061   6.820  11.181 -3.4968 -0.7795  1.1346
  720MOL0     H99299   3.903   6.631  11.212 -0.0476 -2.7659  0.3364
  720MOL0     H99300   3.933   6.565  11.060 -0.8954  2.0985  0.1864
  720MOL0     H99301   4.066   6.465  11.274  0.0107  2.0825  2.8995
  720MOL0     H99302   4.169   6.608  11.248 -1.4637  2.3149 -0.9308
  720MOL0     H99303   4.108   6.413  11.006  1.7169  0.3295 -1.0364
  720MOL0     H99304   4.229   6.532  11.016 -0.6440  0.5699 -1.0658
  720MOL0     H99305   4.331   6.312  11.043  1.7537 -0.9501  1.1551
  720MOL0     H99306   4.213   6.282  11.179 -0.4867  1.0611  0.3702
  720MOL0     H99307   4.334   6.462  11.308 -2.9429  1.8732 -1.2754
  720MOL0     H99308   4.463   6.356  11.238  1.3992  0.6451 -0.8677
  720MOL0     H99309   4.570   6.422  11.002 -0.6999 -0.4560 -1.5746
  720MOL0     H99310   4.790   6.624  10.949  0.0420 -0.7457 -4.0834
  720MOL0     H99311   4.757   6.789  10.991 -2.1976  2.2215 -2.2196
  720MOL0     H99312   4.691   6.631  10.760  1.7900 -0.4557  0.4245
  720MOL0     H99313   4.572   6.762  10.798  0.9113 -0.4030 -0.5223
  720MOL0     H99314   4.757   6.937  10.778 -1.9359 -0.4013  1.5379
  720MOL0     H99315   4.870   6.804  10.734 -0.8932 -1.6795  0.6067
  720MOL0     H99316   4.623   6.863  10.557  0.5569  2.3191  0.7765
  720MOL0     H99317   4.794   6.924  10.537 -0.0555  1.0327  1.0162
  720MOL0     H99318   4.573   6.871  10.349  2.6490  1.5326  0.9449
  720MOL0     H99319   4.514   6.877   9.991 -1.2708  0.9767 -1.6506
  720MOL0     H99320   4.483   6.964  10.144 -2.2066  0.1221 -1.6017
  720MOL0     H99321   4.386   6.825  10.090  0.7201 -0.5995 -2.9841
  720MOL0     H99322   4.404   6.749   9.718 -0.7182 -2.1190 -0.2482
  720MOL0     H99323   4.391   6.706   9.462 -2.0941  0.1715  3.0547
  720MOL0     H99324   4.410   6.436   9.325  0.7861 -1.8014 -0.9562
  720MOL0     H99325   4.375   6.605   9.273  2.9570  2.1051  1.3839
  720MOL0     H99326   4.518   6.395   9.096 -0.4553  0.0832 -0.8190
  720MOL0     H99327   4.364   6.461   9.080 -0.5560  1.6076  2.1068
  720MOL0     H99328   4.607   6.530   8.952  0.5338  0.7534  0.3852
  720MOL0     H99329   4.605   6.634   9.088 -0.0714 -1.0482  0.8749
  720MOL0     H99330   4.371   6.604   8.888  1.1682 -1.7823  0.6010
  720MOL0     H99331   4.499   6.726   8.870  1.1866 -0.4579  0.2376
  720MOL0     H99332   4.273   6.822   8.968  1.1865 -0.6422 -0.6723
  720MOL0     H99333   4.306   6.715   9.102 -0.5330  1.8449  1.4247
  720MOL0     H99334   4.466   6.960   9.026  0.5128  1.3817  0.9111
  720MOL0     H99335   4.551   6.834   9.116  1.1482 -0.0840 -3.4518
  720MOL0     H99336   4.392   6.861   9.301  0.5171 -0.0768  1.1187
  720MOL0     H99337   4.274   6.958   9.203  0.2292  2.0150  1.5876
  720MOL0     H99338   4.469   7.125   9.157 -1.5577 -0.2637  0.2633
  720MOL0     H99339   4.537   7.045   9.301  0.1974  1.3656  1.6837
  720MOL0     H99340   4.773   6.528   9.476 -0.3288 -0.1478  0.0478
  720MOL0     H99341   4.787   6.584   9.718 -1.5742 -2.2478  1.4075
  720MOL0     H99342   4.766   6.503  10.082 -0.2481 -0.1992 -0.4843
  720MOL0     H99343   4.833   6.539  10.342 -0.6571 -0.5622 -0.1079
  720MOL0     H99344   4.326   6.939  10.799 -1.2662 -1.1871 -0.3753
  720MOL0     H99345   4.413   7.094  10.610  0.4028  0.2131  0.9626
  720MOL0     H99346   4.495   7.532  10.684  0.6073  2.3137  0.3923
  720MOL0     H99347   4.639   7.744  10.654  1.3785 -1.9848  0.9408
  720MOL0     H99348   4.889   7.834  10.512  0.6485 -0.5104 -2.0408
  720MOL0     H99349   4.875   7.809  10.340  0.7148 -0.8579  1.1846
  720MOL0     H99350   4.808   8.072  10.488  0.9685 -1.4406  1.5016
  720MOL0     H99351   4.817   8.031  10.305 -1.8312 -0.9251  0.4846
  720MOL0     H99352   5.052   8.031  10.506  2.2985  1.3401 -0.4964
  720MOL0     H99353   5.052   7.986  10.332  0.1859  3.0496 -1.9220
  720MOL0     H99354   4.964   8.259  10.408 -0.9139  0.4199 -1.8609
  720MOL0     H99355   5.015   8.195  10.248  0.7324 -0.5309  0.4519
  720MOL0     H99356   5.356   8.368  10.419  2.3586 -2.3222  1.4276
  720MOL0     H99357   4.681   7.657  10.247  2.0889 -1.5165  0.8360
  720MOL0     H99358   4.678   7.373  10.202  0.3956  0.8229 -2.4188
  720MOL0     H99359   4.508   7.337  10.236 -0.0243  0.5419  1.3806
  720MOL0     H99360   4.548   7.486  10.155  3.0703  3.6894  2.5743
  721MOL0     O99361   4.199   5.403   6.995  0.2168 -0.1222 -0.0090
  721MOL0     C99362   4.246   5.307   6.933  0.5596 -0.3714 -0.1478
  721MOL0     O99363   4.238   5.178   6.974  0.8347 -0.4972  0.8254
  721MOL0     C99364   4.145   5.155   7.076  0.1579 -0.0568  0.5211
  721MOL0     C99365   4.193   5.131   7.201  0.3414 -0.3237  0.1163
  721MOL0     C99366   4.101   5.095   7.300  0.5147 -0.1815 -0.6926
  721MOL0     C99367   3.964   5.081   7.276  0.4168 -1.2443  0.4737
  721MOL0     O99368   3.865   5.067   7.374  0.4222 -0.3037 -0.9730
  721MOL0     C99369   3.907   5.046   7.512  0.9768  0.3377 -0.5714
  721MOL0     C99370   3.918   4.897   7.549  1.3888 -0.0908 -0.4528
  721MOL0     C99371   3.777   4.830   7.545  0.6603  0.0290 -0.4114
  721MOL0     C99372   3.788   4.686   7.499 -0.5938 -0.8519 -0.4962
  721MOL0     C99373   3.812   4.655   7.345 -0.4522 -0.0734  0.2478
  721MOL0     C99374   3.691   4.685   7.260 -0.1514  0.2515 -0.0055
  721MOL0     C99375   3.552   4.633   7.304 -0.7085  0.4494 -0.2737
  721MOL0     C99376   3.547   4.478   7.299 -0.0387  0.1364 -0.2609
  721MOL0     N99377   3.535   4.416   7.434 -0.2941 -0.4051  0.2200
  721MOL0     C99378   3.639   4.397   7.527 -0.7768  1.6010  0.1363
  721MOL0     C99379   3.579   4.378   7.642 -0.4837  0.4930 -0.3940
  721MOL0     C99380   3.646   4.366   7.770  0.1309 -0.0219 -0.1077
  721MOL0     C99381   3.709   4.232   7.804 -0.1624  0.6767  0.2984
  721MOL0     C99382   3.587   4.136   7.838 -0.6973  0.0893  0.1592
  721MOL0     C99383   3.639   3.993   7.818  0.9403 -0.0101 -0.4998
  721MOL0     O99384   3.523   3.900   7.828 -1.1720  0.2185 -0.2649
  721MOL0     C99385   3.425   3.899   7.733  0.0356  0.0213 -1.0485
  721MOL0     C99386   3.416   3.992   7.625  0.4597 -0.4676  0.3384
  721MOL0     C99387   3.298   3.996   7.548  0.2262 -0.7950 -0.1565
  721MOL0     C99388   3.312   4.092   7.424  0.0568  0.2831 -0.3619
  721MOL0     C99389   3.191   3.902   7.566 -0.3755 -0.4653 -0.2953
  721MOL0     C99390   3.073   3.919   7.481 -0.6894  0.2913  0.3450
  721MOL0     O99391   3.074   3.965   7.348  0.0413  0.2237 -0.5552
  721MOL0     C99392   2.958   4.005   7.286  0.8416 -0.6871 -0.7996
  721MOL0     C99393   2.960   4.009   7.143  0.1353  0.4113 -0.0352
  721MOL0     C99394   2.852   4.045   7.068  0.5867  0.4062  0.3114
  721MOL0     C99395   2.742   4.098   7.126 -0.2612 -0.3374 -0.1118
  721MOL0     O99396   2.627   4.144   7.060 -0.4008  0.1501  0.7317
  721MOL0     C99397   2.654   4.203   6.933 -0.4876  0.0044 -0.0897
  721MOL0     C99398   2.548   4.312   6.914 -0.3016 -0.8803 -0.4642
  721MOL0     C99399   2.408   4.274   6.954 -0.4808  0.0785 -0.0063
  721MOL0     C99400   2.345   4.178   6.850 -0.5374 -0.4432  0.3267
  721MOL0     C99401   2.202   4.130   6.873  0.0263  0.5974 -1.4454
  721MOL0     C99402   2.111   4.187   6.768 -0.6074  1.0586  0.2722
  721MOL0     C99403   2.072   4.335   6.771 -0.7771  0.1873 -0.4954
  721MOL0     C99404   2.051   4.398   6.905 -0.5757  0.4905 -0.7476
  721MOL0    Cl99405   1.950   4.542   6.890  0.3742 -0.2797 -0.0966
  721MOL0     C99406   2.737   4.097   7.265  0.8809  0.5234  1.2152
  721MOL0     C99407   2.839   4.054   7.348  0.6380  1.0353  0.0082
  721MOL0     O99408   2.983   3.851   7.524  0.0762 -0.6214  0.6998
  721MOL0     C99409   3.201   3.824   7.677  0.4910  1.3314  0.2838
  721MOL0     C99410   3.314   3.815   7.762  0.5070 -0.1062 -0.1710
  721MOL0     N99411   3.446   4.384   7.621  0.3183 -0.0369  0.0262
  721MOL0     N99412   3.422   4.407   7.501  0.7956 -0.0831  0.3261
  721MOL0     C99413   3.916   5.097   7.142  0.0985 -0.2963  1.2821
  721MOL0     C99414   4.015   5.125   7.038  0.5141  0.0938 -0.4075
  721MOL0     C99415   4.312   5.339   6.806 -0.1123  0.3312 -0.1078
  721MOL0     C99416   4.454   5.374   6.809 -0.5814  0.0283  0.3689
  721MOL0     C99417   4.516   5.394   6.689 -0.9785 -1.1391  0.9824
  721MOL0     C99418   4.448   5.394   6.570  0.5654 -0.1742  1.3770
  721MOL0     O99419   4.503   5.421   6.447  0.1724 -0.0567  0.2513
  721MOL0     C99420   4.616   5.501   6.451 -0.0131  0.1998 -0.1276
  721MOL0     C99421   4.647   5.566   6.318 -1.4034 -0.0013 -0.2232
  721MOL0     C99422   4.670   5.451   6.208  1.2428  0.3848 -0.0058
  721MOL0     C99423   4.730   5.504   6.081 -0.2718  0.4807 -1.8695
  721MOL0     C99424   4.664   5.624   6.029  0.4998  0.4140  0.7196
  721MOL0     C99425   4.614   5.727   5.990  0.0872  0.5027 -0.4281
  721MOL0     C99426   4.314   5.360   6.577 -0.7434 -0.2517  0.7270
  721MOL0     C99427   4.237   5.342   6.688  0.1589  0.6487  0.2119
  721MOL0     C99428   4.086   5.336   6.683  0.7821 -0.7439 -0.0445
  721MOL0     H99429   4.299   5.139   7.224 -0.2132 -0.3575  3.2083
  721MOL0     H99430   4.155   5.083   7.394  0.5949  3.3586 -0.1405
  721MOL0     H99431   3.826   5.092   7.569  0.9465 -1.2706  0.7987
  721MOL0     H99432   4.000   5.100   7.533  2.1802 -1.7901 -0.1115
  721MOL0     H99433   3.983   4.846   7.478  1.5903 -1.7005  0.8337
  721MOL0     H99434   3.965   4.883   7.647 -0.9072 -1.1631  0.5880
  721MOL0     H99435   3.718   4.822   7.636  1.1355 -0.6584 -0.1573
  721MOL0     H99436   3.719   4.874   7.463  0.0469 -3.0670 -1.7631
  721MOL0     H99437   3.864   4.638   7.561  0.7274  0.2584 -1.2021
  721MOL0     H99438   3.698   4.635   7.535 -0.2943 -1.1400 -0.1394
  721MOL0     H99439   3.829   4.550   7.322  1.0890  0.6869 -2.5324
  721MOL0     H99440   3.899   4.709   7.307  0.3409 -2.2092 -1.1258
  721MOL0     H99441   3.662   4.791   7.259  0.2734  0.3646 -0.4396
  721MOL0     H99442   3.723   4.661   7.158  0.4138  3.2485 -0.6330
  721MOL0     H99443   3.473   4.679   7.244  0.4703  2.7176 -0.2275
  721MOL0     H99444   3.528   4.664   7.406  0.9264  2.3651 -0.4033
  721MOL0     H99445   3.459   4.445   7.243  1.1272  1.2942 -2.9361
  721MOL0     H99446   3.636   4.431   7.257  2.1318  0.8126  3.2584
  721MOL0     H99447   3.746   4.388   7.509 -1.2445  1.9105 -3.3513
  721MOL0     H99448   3.585   4.388   7.858 -2.0114 -1.2336 -1.1983
  721MOL0     H99449   3.732   4.434   7.765 -0.7492  1.3473  2.0450
  721MOL0     H99450   3.764   4.190   7.719 -0.7246  0.6666 -0.0666
  721MOL0     H99451   3.779   4.222   7.887  0.6218 -1.6848 -0.5749
  721MOL0     H99452   3.565   4.152   7.944 -2.4256 -0.0032 -0.1688
  721MOL0     H99453   3.507   4.163   7.769  0.1079  0.6710 -0.5667
  721MOL0     H99454   3.687   3.990   7.720  0.7334  0.2121 -0.6082
  721MOL0     H99455   3.708   3.975   7.901 -0.6057 -1.6422  0.5039
  721MOL0     H99456   3.494   4.061   7.592 -2.8258  2.5513 -1.8584
  721MOL0     H99457   3.419   4.106   7.407  0.7848 -3.0783  0.7610
  721MOL0     H99458   3.279   4.196   7.438  0.4901  0.6401 -1.7960
  721MOL0     H99459   3.276   4.057   7.327  3.5595 -0.5654 -1.4989
  721MOL0     H99460   3.048   3.970   7.093  0.0030 -0.5742  0.4753
  721MOL0     H99461   2.850   4.039   6.959  0.0298  0.9288  0.2861
  721MOL0     H99462   2.755   4.243   6.923  0.6159 -2.3676  0.7971
  721MOL0     H99463   2.646   4.124   6.857  3.1037 -1.5135  0.9244
  721MOL0     H99464   2.568   4.404   6.970  0.4252 -1.3044 -0.0037
  721MOL0     H99465   2.536   4.349   6.812  3.0388 -1.2025 -1.0857
  721MOL0     H99466   2.352   4.367   6.946  0.7501  0.8701  0.2456
  721MOL0     H99467   2.417   4.234   7.055  0.5320 -1.7718 -0.7825
  721MOL0     H99468   2.408   4.089   6.837  1.6590  1.4155 -3.5520
  721MOL0     H99469   2.350   4.229   6.754  0.4025  2.5921  1.8569
  721MOL0     H99470   2.200   4.022   6.857  1.0936  0.7003 -2.4258
  721MOL0     H99471   2.163   4.157   6.972 -1.4443 -0.8172 -1.6092
  721MOL0     H99472   2.015   4.135   6.766  1.0755 -2.4282  1.6563
  721MOL0     H99473   2.161   4.162   6.674  0.5656 -2.2772  1.6403
  721MOL0     H99474   1.984   4.348   6.706 -2.0708 -0.4433  1.0618
  721MOL0     H99475   2.158   4.387   6.729 -0.0238 -1.0502 -0.5285
  721MOL0     H99476   2.151   4.419   6.944 -2.1612  1.2902  3.3793
  721MOL0     H99477   2.002   4.324   6.970  1.3820 -1.1689 -1.0789
  721MOL0     H99478   2.648   4.141   7.309  2.1040  1.1882  3.1430
  721MOL0     H99479   2.827   4.054   7.456  0.9435  2.7119  0.0781
  721MOL0     H99480   3.120   3.752   7.682  0.0339  1.5916 -2.2811
  721MOL0     H99481   3.331   3.741   7.839 -0.9131  0.8350  1.1042
  721MOL0     H99482   3.809   5.097   7.126 -0.0345 -2.1246  2.0002
  721MOL0     H99483   3.983   5.135   6.935  0.0385 -3.9329 -0.8223
  721MOL0     H99484   4.510   5.370   6.902 -0.8054 -0.9021  0.4693
  721MOL0     H99485   4.623   5.408   6.697 -1.1970  0.6301  1.2896
  721MOL0     H99486   4.603   5.580   6.525  2.6950 -0.8614  1.6244
  721MOL0     H99487   4.703   5.443   6.483  3.2008  3.1218 -2.7945
  721MOL0     H99488   4.735   5.630   6.325 -2.5116  1.3780  2.6404
  721MOL0     H99489   4.561   5.629   6.294 -0.9796 -0.3739 -3.1278
  721MOL0     H99490   4.732   5.371   6.248  0.0599  0.3916  2.0241
  721MOL0     H99491   4.576   5.397   6.190  0.0114  3.0035 -2.1935
  721MOL0     H99492   4.733   5.421   6.010 -2.6953 -1.7055  0.3789
  721MOL0     H99493   4.822   5.551   6.115 -1.3170  0.1449  1.8464
  721MOL0     H99494   4.576   5.821   5.955 -3.2811 -0.8167 -0.6103
  721MOL0     H99495   4.272   5.338   6.480  0.3165  0.7398  0.0143
  721MOL0     H99496   4.061   5.348   6.578  3.4430  1.1559 -0.5835
  721MOL0     H99497   4.051   5.245   6.732  1.7677 -0.7793  0.6310
  721MOL0     H99498   4.049   5.430   6.726 -0.5447 -0.1572 -2.2912
  722MOL0     O99499  10.171   0.755  10.970 -0.0138  0.4978 -0.3169
  722MOL0     C99500  10.071   0.722  10.907 -0.0516 -0.3564  0.1280
  722MOL0     O99501   9.946   0.767  10.933  0.0039  0.3728  0.5202
  722MOL0     C99502   9.942   0.894  10.993  0.9390  0.8944  0.4406
  722MOL0     C99503   9.818   0.921  11.067 -1.5684  0.6518  0.5825
  722MOL0     C99504   9.801   1.038  11.131  0.6309 -0.7153  0.7574
  722MOL0     C99505   9.890   1.140  11.133  0.2465  0.2439  0.2672
  722MOL0     O99506   9.874   1.264  11.199  0.9140  0.1828  1.5018
  722MOL0     C99507   9.800   1.277  11.314 -0.1195  0.8376 -0.9974
  722MOL0     C99508   9.821   1.178  11.433 -0.6190 -0.0832  0.0896
  722MOL0     C99509   9.975   1.169  11.478  0.1262 -0.8119 -0.0045
  722MOL0     C99510   9.981   1.135  11.628  0.7617 -1.1169  0.2116
  722MOL0     C99511  10.124   1.125  11.694  0.5580  0.4864  0.3969
  722MOL0     C99512  10.214   1.023  11.623 -0.4977  0.5220 -0.0937
  722MOL0     C99513  10.313   0.971  11.729 -0.6981  0.2856  0.6322
  722MOL0     C99514  10.441   0.924  11.664  1.0651 -0.0268 -0.3315
  722MOL0     N99515  10.535   0.869  11.755  0.3774  0.0771  0.3399
  722MOL0     C99516  10.517   0.772  11.845  0.1829  0.4235  0.8000
  722MOL0     C99517  10.638   0.748  11.903  0.7052 -0.0036  0.2807
  722MOL0     C99518  10.668   0.651  12.014 -0.3798 -0.2623 -0.2362
  722MOL0     C99519  10.592   0.518  11.992  0.1826 -0.5227  0.0739
  722MOL0     C99520  10.455   0.530  12.073 -0.1452  0.0037 -0.1763
  722MOL0     C99521  10.365   0.422  12.024  0.4920 -0.6046 -0.2739
  722MOL0     O99522  10.234   0.438  12.092 -0.3390  0.3326 -0.0113
  722MOL0     C99523  10.171   0.327  12.132 -0.2593  0.3488  0.2600
  722MOL0     C99524  10.054   0.339  12.204  0.8177 -0.1072 -0.7990
  722MOL0     C99525   9.976   0.226  12.247  0.4199 -0.5583 -0.0388
  722MOL0     C99526   9.839   0.256  12.308  0.7028 -0.5151  0.5115
  722MOL0     C99527  10.028   0.097  12.229 -0.0139 -0.2467  0.8617
  722MOL0     C99528   9.970  -0.026  12.277 -0.2943 -0.8863 -0.0440
  722MOL0     O99529  10.006  -0.147  12.216 -0.4332  0.1450  0.0771
  722MOL0     C99530   9.955  -0.259  12.269 -0.9266  0.0840 -0.3040
  722MOL0     C99531  10.039  -0.346  12.331 -0.2735 -0.2333 -0.6474
  722MOL0     C99532   9.989  -0.470  12.386 -0.4353 -0.2378  0.9008
  722MOL0     C99533   9.851  -0.486  12.393  0.3973 -0.0588  0.2166
  722MOL0     O99534   9.794  -0.587  12.471  0.1849  0.4497 -1.2115
  722MOL0     C99535   9.865  -0.711  12.480 -0.3734 -0.5749 -0.8516
  722MOL0     C99536   9.762  -0.833  12.525 -0.7361 -0.5136  0.4322
  722MOL0     C99537   9.807  -0.970  12.543 -0.5176  0.0835 -0.2321
  722MOL0     C99538   9.906  -0.991  12.658  0.9891 -0.1167 -0.2913
  722MOL0     C99539   9.919  -1.136  12.677  0.6057  0.6067  0.3278
  722MOL0     C99540  10.015  -1.168  12.795  0.2363  0.4231  0.0861
  722MOL0     C99541  10.060  -1.312  12.788 -0.5503  0.8719  0.3510
  722MOL0     C99542   9.938  -1.410  12.789  0.4119 -0.7698  0.7921
  722MOL0    Cl99543   9.984  -1.579  12.788 -0.0523 -0.2336  0.5550
  722MOL0     C99544   9.767  -0.392  12.335 -0.8922 -0.3935  0.5035
  722MOL0     C99545   9.815  -0.283  12.259 -0.5789 -0.6700 -0.2157
  722MOL0     O99546   9.901  -0.013  12.381  0.5784 -0.3632  0.0128
  722MOL0     C99547  10.148   0.076  12.154 -0.2304  0.3648  1.0009
  722MOL0     C99548  10.207   0.191  12.099  0.4456  0.4956  0.4279
  722MOL0     N99549  10.724   0.837  11.850 -0.7789  0.2740  0.7916
  722MOL0     N99550  10.664   0.909  11.759 -0.7337  0.6614 -0.1811
  722MOL0     C99551  10.013   1.114  11.054 -0.2883  0.7509 -0.3701
  722MOL0     C99552  10.034   0.997  10.980  0.7036  1.3085  0.5616
  722MOL0     C99553  10.085   0.616  10.810 -0.9920 -0.1140 -0.2495
  722MOL0     C99554   9.990   0.524  10.778  0.6694  0.2156  0.5954
  722MOL0     C99555   9.996   0.433  10.674  0.3510  0.0563 -0.3473
  722MOL0     C99556  10.111   0.402  10.604  0.6418  0.5964 -0.7134
  722MOL0     O99557  10.119   0.296  10.513  0.4462  0.2076 -0.3543
  722MOL0     C99558  10.220   0.193  10.535 -1.2162 -0.1465 -0.5020
  722MOL0     C99559  10.247   0.120  10.403 -0.3696  0.1464  0.0808
  722MOL0     C99560  10.124   0.065  10.334  1.0030  0.5728  0.2729
  722MOL0     C99561  10.131  -0.088  10.343  0.3045  0.1254  0.3524
  722MOL0     C99562  10.254  -0.142  10.277  0.3376 -1.0591 -0.0044
  722MOL0     C99563  10.353  -0.184  10.223 -0.3345  0.1497  0.2357
  722MOL0     C99564  10.212   0.496  10.621  0.3493 -0.8331  0.3912
  722MOL0     C99565  10.203   0.604  10.721  0.2133  0.2545  0.4823
  722MOL0     C99566  10.319   0.695  10.733  0.3444  0.2009  1.3275
  722MOL0     H99567   9.750   0.838  11.086  2.3619 -2.0505  4.9555
  722MOL0     H99568   9.715   1.050  11.197  0.5146 -4.7610  1.5987
  722MOL0     H99569   9.694   1.282  11.289 -0.9505 -5.7986 -0.4455
  722MOL0     H99570   9.836   1.374  11.351  0.3702  0.4045 -0.2953
  722MOL0     H99571   9.750   1.208  11.511 -0.5020 -1.2171  0.6563
  722MOL0     H99572   9.797   1.077  11.397  0.3168  0.3831 -1.9915
  722MOL0     H99573  10.024   1.085  11.427  0.5987 -1.5433  1.5876
  722MOL0     H99574  10.031   1.261  11.459  1.7882 -2.0543 -1.5539
  722MOL0     H99575   9.929   1.217  11.680 -1.3824 -0.4093 -2.7834
  722MOL0     H99576   9.919   1.047  11.649 -2.9299  1.5695  1.8413
  722MOL0     H99577  10.123   1.097  11.800  3.6124  1.3799  0.7748
  722MOL0     H99578  10.173   1.222  11.682  2.8818 -0.8682 -2.4313
  722MOL0     H99579  10.161   0.938  11.579  1.8869 -1.3121  0.3523
  722MOL0     H99580  10.278   1.074  11.552 -1.4492  4.6348  1.7333
  722MOL0     H99581  10.261   0.888  11.778 -0.3553 -0.6042 -0.4664
  722MOL0     H99582  10.339   1.055  11.795  0.3764 -0.4212  1.1380
  722MOL0     H99583  10.420   0.856  11.581  1.7909  1.7722 -2.0496
  722MOL0     H99584  10.499   0.999  11.611  1.9283  0.2753  1.0049
  722MOL0     H99585  10.426   0.722  11.874 -0.3790 -0.2981 -1.9681
  722MOL0     H99586  10.647   0.698  12.111  3.6366 -0.6357  1.0052
  722MOL0     H99587  10.774   0.624  12.015  0.5324  2.8596 -0.9905
  722MOL0     H99588  10.577   0.492  11.887  4.2734  0.9600 -1.0529
  722MOL0     H99589  10.655   0.438  12.030  0.6539 -0.0388  0.3176
  722MOL0     H99590  10.476   0.511  12.178  1.7349  1.3091 -0.2611
  722MOL0     H99591  10.424   0.633  12.054  1.0280  0.1339 -1.5686
  722MOL0     H99592  10.353   0.431  11.916 -0.1117 -1.4766 -0.2872
  722MOL0     H99593  10.411   0.328  12.056 -1.3331 -1.8943 -1.2445
  722MOL0     H99594  10.023   0.436  12.241  2.1556 -1.0031  3.1407
  722MOL0     H99595   9.818   0.363  12.312  0.7926 -0.5412  3.9930
  722MOL0     H99596   9.829   0.224  12.412  0.6105  2.2066  1.4034
  722MOL0     H99597   9.761   0.205  12.250  1.8898 -3.1651  1.0667
  722MOL0     H99598  10.141  -0.316  12.352 -0.7305 -0.4706  2.2685
  722MOL0     H99599  10.069  -0.525  12.434  0.4277  1.8505  2.0116
  722MOL0     H99600   9.900  -0.732  12.379  2.7238  0.3471 -0.0893
  722MOL0     H99601   9.944  -0.706  12.555 -1.1175  0.8955 -0.1136
  722MOL0     H99602   9.707  -0.797  12.612 -1.8409 -1.8871  0.3568
  722MOL0     H99603   9.690  -0.837  12.443 -1.4304  0.5498  0.9697
  722MOL0     H99604   9.871  -0.988  12.456  0.0966  2.5203 -0.3585
  722MOL0     H99605   9.713  -1.024  12.551 -0.0857 -0.3581  4.5189
  722MOL0     H99606   9.875  -0.930  12.743  0.5425  1.1479 -1.3342
  722MOL0     H99607  10.006  -0.958  12.630  2.6622 -2.3133  2.4998
  722MOL0     H99608   9.822  -1.184  12.691  1.4319 -2.6375 -3.3110
  722MOL0     H99609   9.952  -1.185  12.585 -2.8134  0.1111 -0.7567
  722MOL0     H99610   9.958  -1.154  12.887 -1.8010 -2.3404 -0.6412
  722MOL0     H99611  10.103  -1.102  12.795  1.4085 -1.0527  1.2343
  722MOL0     H99612  10.129  -1.338  12.868 -2.0049  0.0887  1.3990
  722MOL0     H99613  10.114  -1.322  12.693  0.6711  0.6066  1.0516
  722MOL0     H99614   9.886  -1.396  12.694 -0.7852 -4.9014  0.6331
  722MOL0     H99615   9.874  -1.394  12.877  1.6171 -2.0278  1.9492
  722MOL0     H99616   9.659  -0.388  12.344 -1.1558 -0.2148 -2.0344
  722MOL0     H99617   9.739  -0.226  12.207 -0.2098 -0.9573 -1.0981
  722MOL0     H99618  10.188  -0.024  12.140 -1.9178 -0.1144 -1.0912
  722MOL0     H99619  10.292   0.176  12.032 -0.7621 -0.6376 -0.8934
  722MOL0     H99620  10.075   1.203  11.046  2.4990 -1.1724 -1.9923
  722MOL0     H99621  10.119   0.999  10.913  2.9133  1.6563  3.1943
  722MOL0     H99622   9.897   0.517  10.834 -0.2238 -2.8604 -1.0131
  722MOL0     H99623   9.910   0.371  10.648  0.6554 -0.6253  0.2181
  722MOL0     H99624  10.318   0.233  10.564 -0.9754 -1.5759  0.7801
  722MOL0     H99625  10.185   0.128  10.616 -2.4729  1.2461  0.1012
  722MOL0     H99626  10.322   0.043  10.423  1.7370  2.1373  0.2089
  722MOL0     H99627  10.290   0.184  10.325  1.5801 -1.4616 -0.2432
  722MOL0     H99628  10.034   0.108  10.377 -1.1645 -2.9232 -0.3979
  722MOL0     H99629  10.120   0.094  10.229 -3.5987  1.3502  0.4596
  722MOL0     H99630  10.043  -0.141  10.305  0.0281  1.0159 -0.2721
  722MOL0     H99631  10.138  -0.114  10.449  1.0813 -1.1165  0.0239
  722MOL0     H99632  10.450  -0.223  10.197  0.1784  0.7876  1.1171
  722MOL0     H99633  10.305   0.486  10.566 -1.3624 -0.2970 -2.9066
  722MOL0     H99634  10.395   0.699  10.654 -1.0961  3.8627 -0.1053
  722MOL0     H99635  10.291   0.799  10.755  1.2005  0.3812  1.5951
  722MOL0     H99636  10.377   0.672  10.823  2.5438  3.2106  0.8592
  723MOL0     O99637   2.706  10.049  10.063 -0.8301  0.0721 -0.0439
  723MOL0     C99638   2.635  10.146  10.057  0.1306 -1.2927 -1.3701
  723MOL0     O99639   2.581  10.198  10.175 -0.2689 -0.2752  0.2380
  723MOL0     C99640   2.589  10.129  10.289 -1.3853 -0.0064 -0.0995
  723MOL0     C99641   2.509  10.027  10.338 -0.3432  0.2941  1.1120
  723MOL0     C99642   2.518   9.977  10.473  0.2929 -0.0966  0.0316
  723MOL0     C99643   2.621  10.016  10.554 -1.5454 -0.2685 -0.1683
  723MOL0     O99644   2.620   9.963  10.684 -0.1540 -0.1594 -0.7332
  723MOL0     C99645   2.738   9.985  10.766 -0.1305  0.3898  0.7759
  723MOL0     C99646   2.724   9.926  10.908 -0.4705  1.5965 -0.8587
  723MOL0     C99647   2.632   9.999  11.006  0.9843  0.7597  0.8488
  723MOL0     C99648   2.660  10.150  11.034  0.2232 -0.0157 -0.7323
  723MOL0     C99649   2.559  10.217  11.119  0.2888 -0.8878 -0.7478
  723MOL0     C99650   2.547  10.142  11.251 -0.3429 -0.3701 -0.0435
  723MOL0     C99651   2.476  10.231  11.351  0.3930 -0.7473 -0.1090
  723MOL0     C99652   2.555  10.351  11.407  0.0016  0.9950  0.1685
  723MOL0     N99653   2.681  10.327  11.477  1.3657  0.2208  0.4692
  723MOL0     C99654   2.698  10.323  11.614 -0.6810  0.0621 -0.2192
  723MOL0     C99655   2.829  10.332  11.631  0.4630 -0.1297 -0.7921
  723MOL0     C99656   2.891  10.337  11.762  0.1167 -0.3159  0.0063
  723MOL0     C99657   2.864  10.201  11.823  0.6978  0.2846  0.4942
  723MOL0     C99658   2.914  10.081  11.754 -0.0586  0.0923  0.3200
  723MOL0     C99659   3.067  10.091  11.740 -0.4039 -0.5973 -0.3316
  723MOL0     O99660   3.125   9.959  11.693 -0.8521 -0.4750 -1.4015
  723MOL0     C99661   3.136   9.921  11.562  0.3232  0.6010 -0.5241
  723MOL0     C99662   3.084   9.993  11.450 -0.2246 -0.2791 -0.8446
  723MOL0     C99663   3.098   9.947  11.320  0.3214 -0.1579 -0.2867
  723MOL0     C99664   3.051  10.040  11.214  1.4819 -0.0079 -0.4210
  723MOL0     C99665   3.180   9.834  11.297 -0.6709  0.2512 -0.9472
  723MOL0     C99666   3.235   9.802  11.167 -0.4768 -0.6274 -0.0378
  723MOL0     O99667   3.262   9.667  11.137  0.7456 -0.3365 -0.2541
  723MOL0     C99668   3.313   9.629  11.019 -1.3475 -1.6543 -0.4816
  723MOL0     C99669   3.442   9.666  10.980 -0.9839 -0.6566  0.5485
  723MOL0     C99670   3.508   9.599  10.880 -1.0405 -0.1772 -0.8219
  723MOL0     C99671   3.444   9.499  10.807 -0.0154 -0.2386  0.8099
  723MOL0     O99672   3.534   9.426  10.731 -0.3042  0.2868  0.3191
  723MOL0     C99673   3.559   9.291  10.771  0.7994  0.0802 -0.2721
  723MOL0     C99674   3.652   9.230  10.669  0.3010 -0.2234 -0.1997
  723MOL0     C99675   3.580   9.164  10.548 -0.2448 -0.1492 -0.1650
  723MOL0     C99676   3.506   9.253  10.453 -1.1805 -0.0875  0.2311
  723MOL0     C99677   3.431   9.185  10.350 -0.1046 -0.4416 -0.6211
  723MOL0     C99678   3.360   9.273  10.241 -0.1534 -0.1808 -0.5744
  723MOL0     C99679   3.468   9.317  10.139 -0.4756  0.0643 -0.0656
  723MOL0     C99680   3.416   9.389  10.012  0.2102  0.9574 -0.4472
  723MOL0    Cl99681   3.332   9.548  10.060  0.3962 -0.0914 -0.3394
  723MOL0     C99682   3.312   9.475  10.827  0.0231 -0.0621  0.7480
  723MOL0     C99683   3.247   9.538  10.933  0.4506  0.5022  0.2759
  723MOL0     O99684   3.278   9.894  11.098  0.0488 -0.7428 -0.5749
  723MOL0     C99685   3.229   9.768  11.409  0.5645 -0.8808  0.9511
  723MOL0     C99686   3.207   9.810  11.534  0.1005  0.7949  0.0935
  723MOL0     N99687   2.895  10.337  11.514  0.5543 -0.2095  0.2618
  723MOL0     N99688   2.804  10.344  11.426 -0.2686 -0.1161  0.6010
  723MOL0     C99689   2.713  10.110  10.501 -0.4122 -0.9464 -0.6910
  723MOL0     C99690   2.699  10.163  10.369 -0.0131 -0.7003  0.1486
  723MOL0     C99691   2.629  10.235   9.939  1.1305  1.0111  0.3010
  723MOL0     C99692   2.604  10.375   9.962  0.4403  0.5430  0.0352
  723MOL0     C99693   2.599  10.466   9.854  0.7341  0.6218  0.2971
  723MOL0     C99694   2.610  10.416   9.718  0.7703  0.1939 -0.8832
  723MOL0     O99695   2.615  10.500   9.612  0.1056 -0.7148  0.2625
  723MOL0     C99696   2.609  10.644   9.638  0.0863 -1.3832  0.8130
  723MOL0     C99697   2.617  10.724   9.504 -0.6024  0.3978 -0.6884
  723MOL0     C99698   2.720  10.674   9.404 -0.2440  0.1624  1.2633
  723MOL0     C99699   2.865  10.657   9.451 -0.2521  0.9970 -0.0573
  723MOL0     C99700   2.914  10.782   9.510  0.0391 -0.2589  0.7953
  723MOL0     C99701   2.951  10.886   9.560 -0.8729 -0.6146  0.1196
  723MOL0     C99702   2.635  10.281   9.693 -0.5898 -0.0489  0.6241
  723MOL0     C99703   2.636  10.190   9.802 -0.4141  0.5697  1.0187
  723MOL0     C99704   2.657  10.045   9.764  0.4715  0.0454 -0.0310
  723MOL0     H99705   2.419  10.003  10.283  0.7984 -1.2041 -0.1726
  723MOL0     H99706   2.439   9.920  10.520 -1.2564  1.7786 -0.1512
  723MOL0     H99707   2.764  10.091  10.777  1.5345  0.0533  0.4020
  723MOL0     H99708   2.824   9.944  10.714  0.0761 -0.8222  2.0030
  723MOL0     H99709   2.695   9.821  10.895  1.9462  0.5384  1.4166
  723MOL0     H99710   2.821   9.922  10.958 -1.8711  0.1881  1.9598
  723MOL0     H99711   2.528   9.994  10.974  1.2719  1.8538 -0.3481
  723MOL0     H99712   2.645   9.945  11.100  0.1148  0.4001  0.7725
  723MOL0     H99713   2.753  10.165  11.090  0.4459  1.1221 -1.3769
  723MOL0     H99714   2.668  10.207  10.941  1.7618  1.9235  0.4908
  723MOL0     H99715   2.463  10.257  11.084  0.0323  1.7548  2.4408
  723MOL0     H99716   2.606  10.314  11.141 -1.7996  0.2295 -0.9192
  723MOL0     H99717   2.498  10.046  11.266  2.1472 -1.5603  0.8527
  723MOL0     H99718   2.649  10.117  11.280  0.2643 -0.3960 -2.0067
  723MOL0     H99719   2.446  10.166  11.434  0.5794  0.8356  1.2569
  723MOL0     H99720   2.380  10.269  11.314  1.2745  1.6256 -0.0842
  723MOL0     H99721   2.582  10.420  11.327  1.7341  0.6403  0.4080
  723MOL0     H99722   2.490  10.400  11.480  0.8412  4.1444 -1.0305
  723MOL0     H99723   2.621  10.320  11.690  1.0451 -3.3048  1.7006
  723MOL0     H99724   2.845  10.418  11.820  3.5373  1.3966  0.5307
  723MOL0     H99725   2.998  10.356  11.751 -0.5121  2.4321 -2.7584
  723MOL0     H99726   2.907  10.208  11.924  3.8341  0.2969 -0.7428
  723MOL0     H99727   2.755  10.194  11.833  0.5229  1.7420 -0.0689
  723MOL0     H99728   2.897   9.993  11.817  2.3760  0.8110  2.1373
  723MOL0     H99729   2.853  10.078  11.663 -2.3982 -0.1109  1.8247
  723MOL0     H99730   3.087  10.165  11.662 -2.2982  0.0979 -0.2231
  723MOL0     H99731   3.116  10.106  11.837  0.2220 -1.2141 -0.5448
  723MOL0     H99732   3.019  10.079  11.463 -1.2598 -0.8927 -1.7114
  723MOL0     H99733   3.018   9.988  11.123 -0.7432 -3.0135  1.8481
  723MOL0     H99734   3.135  10.108  11.200  0.5452  0.8043 -2.4193
  723MOL0     H99735   2.966  10.102  11.241 -0.3719 -1.2767 -2.8876
  723MOL0     H99736   3.493   9.740  11.041 -0.5227  1.2045 -1.9356
  723MOL0     H99737   3.616   9.612  10.876 -0.8828  0.4905  2.7408
  723MOL0     H99738   3.611   9.289  10.867 -1.4623  0.6919  1.0388
  723MOL0     H99739   3.461   9.244  10.789 -0.0743  1.0107 -2.3104
  723MOL0     H99740   3.715   9.308  10.624  0.0431  1.7199  2.4888
  723MOL0     H99741   3.703   9.143  10.712  0.1516 -0.9951 -1.5479
  723MOL0     H99742   3.522   9.078  10.582 -0.4781  0.4475  0.9957
  723MOL0     H99743   3.662   9.123  10.489 -0.1590  2.0148 -1.6906
  723MOL0     H99744   3.581   9.315  10.402  0.7057 -1.4559  1.2424
  723MOL0     H99745   3.438   9.315  10.512 -3.3893 -2.0240 -0.1503
  723MOL0     H99746   3.494   9.108  10.304  2.9753  2.1837 -1.1521
  723MOL0     H99747   3.348   9.138  10.404  2.7389 -3.0061  1.8647
  723MOL0     H99748   3.299   9.358  10.276  2.9465  0.1831  5.3690
  723MOL0     H99749   3.292   9.205  10.190  0.2531  0.0542 -1.4394
  723MOL0     H99750   3.527   9.241  10.087 -2.7087  0.4159 -3.4290
  723MOL0     H99751   3.544   9.382  10.184  2.7611 -2.0763 -2.0360
  723MOL0     H99752   3.362   9.308   9.962  0.8001 -1.8070  3.0064
  723MOL0     H99753   3.499   9.406   9.943  2.1348 -0.9319  1.2521
  723MOL0     H99754   3.264   9.395  10.773 -0.5475 -0.0179  1.1821
  723MOL0     H99755   3.147   9.511  10.963  0.0494  3.1381  1.6328
  723MOL0     H99756   3.296   9.682  11.405  0.6479 -0.8442  1.4762
  723MOL0     H99757   3.250   9.755  11.617  0.2329  1.1958  0.2920
  723MOL0     H99758   2.802  10.138  10.555 -0.9317 -0.8060  0.1063
  723MOL0     H99759   2.783  10.228  10.345  2.0688 -2.1847  2.7625
  723MOL0     H99760   2.594  10.422  10.060  0.9825 -0.6741  0.6887
  723MOL0     H99761   2.591  10.570   9.882 -1.9699  0.3319  0.9528
  723MOL0     H99762   2.514  10.669   9.687 -1.0252 -3.1294 -0.3455
  723MOL0     H99763   2.689  10.677   9.705 -0.7274 -1.7929  2.0108
  723MOL0     H99764   2.642  10.826   9.534 -0.4741 -0.1956  1.4178
  723MOL0     H99765   2.521  10.726   9.453 -1.6505  1.0454  1.2128
  723MOL0     H99766   2.685  10.581   9.358 -4.2385  2.6375 -1.3740
  723MOL0     H99767   2.712  10.749   9.325 -3.8917 -0.9685  0.3659
  723MOL0     H99768   2.926  10.616   9.370  0.4580  0.6850  0.6262
  723MOL0     H99769   2.867  10.580   9.528 -0.3603  1.3801  0.3342
  723MOL0     H99770   2.999  10.974   9.598 -2.5966  0.1031  0.7433
  723MOL0     H99771   2.648  10.258   9.588 -1.4409 -2.6360  1.0322
  723MOL0     H99772   2.762  10.026   9.741 -0.0361 -0.9226 -1.7018
  723MOL0     H99773   2.627   9.978   9.846  1.6135  1.2675  1.4491
  723MOL0     H99774   2.603  10.013   9.675 -1.0820  0.0086  0.8720
  724MOL0     O99775   1.978   2.810   3.874 -0.4541  0.4104  0.8404
  724MOL0     C99776   2.096   2.766   3.862  0.6101 -0.1549 -0.3803
  724MOL0     O99777   2.139   2.657   3.797 -0.7333  0.1757 -0.2562
  724MOL0     C99778   2.038   2.582   3.749 -0.7262 -0.5847 -1.0978
  724MOL0     C99779   2.045   2.582   3.615  0.6602 -0.0419  0.8901
  724MOL0     C99780   1.951   2.496   3.549  0.2661  0.3428 -1.6562
  724MOL0     C99781   1.849   2.419   3.620 -0.1088 -1.1661  0.0662
  724MOL0     O99782   1.772   2.321   3.560 -0.3524 -0.1664 -0.4844
  724MOL0     C99783   1.721   2.329   3.425  0.7782  0.7322 -0.4494
  724MOL0     C99784   1.601   2.235   3.409 -0.5544  0.0701 -0.0668
  724MOL0     C99785   1.485   2.257   3.500  0.1872 -0.2199  0.4206
  724MOL0     C99786   1.353   2.193   3.445  0.2944  1.0278  0.3076
  724MOL0     C99787   1.222   2.219   3.528 -0.2168  0.2470  0.3590
  724MOL0     C99788   1.095   2.195   3.447 -0.1124  1.1657  0.3979
  724MOL0     C99789   0.983   2.231   3.544  0.4405 -0.5866 -0.8198
  724MOL0     C99790   0.855   2.206   3.457 -0.4053  0.5404 -0.3286
  724MOL0     N99791   0.735   2.181   3.536  0.1031 -1.0705  0.3582
  724MOL0     C99792   0.683   2.262   3.632 -0.2397 -0.0787  0.3831
  724MOL0     C99793   0.591   2.195   3.697 -0.0150 -0.2995  0.7387
  724MOL0     C99794   0.523   2.240   3.826  0.5241 -0.5680  0.5228
  724MOL0     C99795   0.398   2.167   3.848 -0.1666  0.1316  0.5610
  724MOL0     C99796   0.277   2.239   3.778 -0.2329 -0.0152 -0.8750
  724MOL0     C99797   0.225   2.362   3.864 -0.9789 -0.0770 -0.1399
  724MOL0     O99798   0.140   2.440   3.773  1.0205  0.0011 -0.8495
  724MOL0     C99799   0.182   2.506   3.670 -0.2923 -0.6587  1.0473
  724MOL0     C99800   0.083   2.534   3.565 -1.2735 -1.2007 -0.8236
  724MOL0     C99801   0.114   2.621   3.456  0.0961  0.3053  0.9262
  724MOL0     C99802   0.006   2.645   3.361  0.9559  0.0367 -0.2373
  724MOL0     C99803   0.254   2.669   3.443  0.6350 -0.8830  1.1186
  724MOL0     C99804   0.306   2.756   3.336 -0.4431 -0.6929 -0.4689
  724MOL0     O99805   0.435   2.807   3.369  0.8690  0.6747  0.9340
  724MOL0     C99806   0.498   2.899   3.291  1.0857 -0.3723 -0.3176
  724MOL0     C99807   0.607   2.960   3.339 -0.0751  0.7771  0.3117
  724MOL0     C99808   0.694   3.050   3.270  0.8126 -0.5660  0.2878
  724MOL0     C99809   0.654   3.093   3.146 -0.0468 -0.4744 -0.1242
  724MOL0     O99810   0.743   3.181   3.081 -0.1850 -0.6107  0.2721
  724MOL0     C99811   0.678   3.273   2.992 -0.2495 -1.2197 -0.4137
  724MOL0     C99812   0.787   3.352   2.921  0.1951  0.8864 -0.4271
  724MOL0     C99813   0.744   3.477   2.841 -0.3859  0.9762  0.7928
  724MOL0     C99814   0.690   3.426   2.702  0.4453  1.3191  0.8186
  724MOL0     C99815   0.617   3.529   2.628  0.5042 -0.5261 -0.4210
  724MOL0     C99816   0.496   3.572   2.710 -0.7365 -0.6143 -0.4758
  724MOL0     C99817   0.384   3.464   2.724 -0.2608 -0.3299 -0.4731
  724MOL0     C99818   0.273   3.516   2.805  0.1865 -0.1942  0.3885
  724MOL0    Cl99819   0.340   3.559   2.971 -0.1439  0.4249 -0.3245
  724MOL0     C99820   0.536   3.035   3.093 -0.5767  0.0132 -0.2932
  724MOL0     C99821   0.463   2.938   3.163  0.0882 -0.7834 -0.0727
  724MOL0     O99822   0.245   2.762   3.232 -0.3222 -0.0493  0.0167
  724MOL0     C99823   0.345   2.637   3.547  0.1431 -0.7489  0.8738
  724MOL0     C99824   0.312   2.558   3.649  0.7892 -0.7062  0.4118
  724MOL0     N99825   0.586   2.063   3.653 -0.4663  0.5302 -0.2312
  724MOL0     N99826   0.666   2.061   3.552 -0.2671 -0.2900 -0.0158
  724MOL0     C99827   1.852   2.421   3.759  0.2839 -0.2514  0.5211
  724MOL0     C99828   1.954   2.490   3.824  0.2387 -0.4432 -1.3057
  724MOL0     C99829   2.195   2.864   3.906  0.1850  0.4953  0.8561
  724MOL0     C99830   2.151   2.956   3.998  0.3828  0.2954  0.1161
  724MOL0     C99831   2.228   3.073   4.017 -0.9861 -0.5772 -0.3366
  724MOL0     C99832   2.354   3.099   3.968  0.1408  0.5240  0.0393
  724MOL0     O99833   2.444   3.202   4.010 -0.1943 -0.4564 -0.1318
  724MOL0     C99834   2.391   3.332   4.059  0.3414  0.7563  0.7611
  724MOL0     C99835   2.505   3.430   4.050  0.6091  0.5463  0.2714
  724MOL0     C99836   2.477   3.566   4.115  0.5502  0.2150  0.0472
  724MOL0     C99837   2.555   3.683   4.055 -0.9889 -0.6926 -1.1448
  724MOL0     C99838   2.523   3.710   3.918 -1.0243 -0.4572  1.0021
  724MOL0     C99839   2.505   3.729   3.798 -0.1365  0.2898  1.0698
  724MOL0     C99840   2.405   2.995   3.888  1.1776 -0.1236  1.4101
  724MOL0     C99841   2.320   2.889   3.842  0.0448  0.2281 -0.7918
  724MOL0     C99842   2.381   2.787   3.737 -0.2770 -0.7433 -0.4413
  724MOL0     H99843   2.112   2.634   3.547 -0.6145 -0.4089 -0.6838
  724MOL0     H99844   1.944   2.494   3.441  1.5976 -1.3684 -1.7576
  724MOL0     H99845   1.802   2.288   3.364  1.3607 -1.9144  1.9330
  724MOL0     H99846   1.695   2.433   3.403  1.8145  1.3349  0.9820
  724MOL0     H99847   1.560   2.247   3.308 -0.6286 -1.6212 -0.2706
  724MOL0     H99848   1.633   2.130   3.414 -0.1582  0.0608 -1.8767
  724MOL0     H99849   1.502   2.220   3.602  0.4195 -0.9868  0.1094
  724MOL0     H99850   1.468   2.365   3.506 -0.5243 -0.3141  0.1735
  724MOL0     H99851   1.338   2.232   3.344  1.1524  1.0642  0.1832
  724MOL0     H99852   1.368   2.088   3.418  1.5314  1.4463 -0.7710
  724MOL0     H99853   1.222   2.323   3.562  1.7929  0.4306 -0.0644
  724MOL0     H99854   1.220   2.148   3.611 -0.2045  0.3962  0.4865
  724MOL0     H99855   1.102   2.256   3.356  2.0518 -0.3622 -0.5804
  724MOL0     H99856   1.099   2.088   3.422 -1.3772  0.3332  3.3305
  724MOL0     H99857   0.982   2.335   3.577  0.1217 -1.1113  0.9756
  724MOL0     H99858   0.983   2.151   3.619  1.5414 -2.2869 -2.5476
  724MOL0     H99859   0.826   2.266   3.370  0.3078 -2.3591 -2.7417
  724MOL0     H99860   0.871   2.108   3.411 -0.3616  0.9756 -1.2650
  724MOL0     H99861   0.712   2.365   3.649  1.3250 -0.6288  1.2636
  724MOL0     H99862   0.518   2.347   3.844  1.3615  0.0449 -2.4005
  724MOL0     H99863   0.577   2.219   3.919 -1.7168 -0.9870  1.7897
  724MOL0     H99864   0.399   2.060   3.822 -2.0295  0.0110  0.8353
  724MOL0     H99865   0.376   2.160   3.954  2.7498 -2.5309  1.1653
  724MOL0     H99866   0.312   2.266   3.678  1.0172  2.0955  0.0668
  724MOL0     H99867   0.203   2.158   3.779  1.5988 -1.8069  1.1723
  724MOL0     H99868   0.176   2.319   3.951  0.4630 -1.2885  0.1230
  724MOL0     H99869   0.314   2.422   3.885 -0.8675  0.5040 -2.0244
  724MOL0     H99870  -0.014   2.495   3.591 -1.1303 -0.1777  1.4395
  724MOL0     H99871  -0.091   2.630   3.409 -0.5264  4.1025 -1.5694
  724MOL0     H99872   0.001   2.582   3.271  0.0658 -1.2130  0.6532
  724MOL0     H99873   0.028   2.744   3.320  3.3826 -0.3010  0.0676
  724MOL0     H99874   0.631   2.929   3.440  0.7884 -0.8830 -0.3531
  724MOL0     H99875   0.787   3.069   3.322  1.6364  0.8346 -1.5679
  724MOL0     H99876   0.609   3.220   2.925 -2.3289  2.5907 -1.6051
  724MOL0     H99877   0.623   3.337   3.061  2.4909 -2.5889  3.3320
  724MOL0     H99878   0.869   3.382   2.987  2.2655 -0.5709 -2.2050
  724MOL0     H99879   0.837   3.277   2.859  1.9371  1.4205  0.2624
  724MOL0     H99880   0.834   3.529   2.807  0.8511 -3.7890 -4.7555
  724MOL0     H99881   0.671   3.535   2.899  1.7018  1.8410  2.6915
  724MOL0     H99882   0.630   3.335   2.713  4.0784 -2.1299 -3.7257
  724MOL0     H99883   0.782   3.390   2.655  0.7693 -1.0190  2.9865
  724MOL0     H99884   0.686   3.610   2.603 -1.3686  3.1985  4.6178
  724MOL0     H99885   0.584   3.477   2.538 -0.0634 -0.9155  0.0025
  724MOL0     H99886   0.459   3.657   2.652 -2.1795  0.5921  2.0264
  724MOL0     H99887   0.514   3.625   2.804 -0.3446 -2.4605  0.5365
  724MOL0     H99888   0.434   3.377   2.768  1.6910  0.7935 -0.3168
  724MOL0     H99889   0.349   3.436   2.625 -1.1315  0.2665 -0.3405
  724MOL0     H99890   0.202   3.436   2.825  0.2922 -1.7084 -4.2594
  724MOL0     H99891   0.211   3.596   2.764 -0.7689 -2.4894 -3.0843
  724MOL0     H99892   0.497   3.048   2.993 -0.5234 -0.3438 -0.3611
  724MOL0     H99893   0.375   2.897   3.114 -1.1408 -1.7625  2.7794
  724MOL0     H99894   0.452   2.658   3.547 -0.1797  1.1699  0.0402
  724MOL0     H99895   0.383   2.530   3.726 -0.1611  0.1980  1.6679
  724MOL0     H99896   1.791   2.349   3.811  3.1320 -1.2205  2.7694
  724MOL0     H99897   1.952   2.499   3.932  0.2002  2.0992 -1.4474
  724MOL0     H99898   2.064   2.939   4.061  1.1143 -1.4627  0.7080
  724MOL0     H99899   2.193   3.156   4.077  3.0405  0.7142  0.5027
  724MOL0     H99900   2.305   3.361   3.998  0.9014 -0.3454 -0.6005
  724MOL0     H99901   2.355   3.312   4.160 -2.0022 -1.6865 -0.4466
  724MOL0     H99902   2.553   3.440   3.953  3.6128 -5.0110  0.7831
  724MOL0     H99903   2.588   3.387   4.106 -0.8745 -0.6980  1.6168
  724MOL0     H99904   2.372   3.595   4.104  0.7268  0.3060 -1.8536
  724MOL0     H99905   2.497   3.562   4.222 -0.1119  0.1149  0.1732
  724MOL0     H99906   2.663   3.667   4.065 -0.8697  1.2581  2.8301
  724MOL0     H99907   2.528   3.768   4.118 -1.7220 -1.0257 -1.0025
  724MOL0     H99908   2.475   3.743   3.696 -1.2307 -0.1330  1.3218
  724MOL0     H99909   2.503   3.017   3.849  1.3006  0.1732  1.8795
  724MOL0     H99910   2.306   2.786   3.657 -0.1442 -0.1311 -0.5795
  724MOL0     H99911   2.481   2.816   3.703 -0.2061 -3.2071 -2.6213
  724MOL0     H99912   2.384   2.687   3.781 -1.6642 -0.4344  0.4134
  725MOL0     O99913   2.434  10.720   4.373 -0.2461 -0.7583  0.7787
  725MOL0     C99914   2.532  10.727   4.443 -0.2874  0.4080 -0.0502
  725MOL0     O99915   2.562  10.826   4.536  0.1428  0.5685 -0.1317
  725MOL0     C99916   2.464  10.892   4.602 -0.3138  1.3176  0.3325
  725MOL0     C99917   2.516  10.992   4.677 -0.3706 -0.4353  0.5942
  725MOL0     C99918   2.442  11.078   4.749  0.4602  1.2767 -0.2716
  725MOL0     C99919   2.301  11.084   4.723 -0.4768  0.4192 -0.0027
  725MOL0     O99920   2.222  11.179   4.765 -0.0298  0.0819  0.0968
  725MOL0     C99921   2.262  11.263   4.871  0.4884  0.2580 -0.4305
  725MOL0     C99922   2.151  11.372   4.879 -0.5262  0.4938 -0.4588
  725MOL0     C99923   2.004  11.323   4.900 -0.3634 -0.3772 -0.5033
  725MOL0     C99924   1.967  11.321   5.055 -0.5783 -0.3567 -0.5415
  725MOL0     C99925   2.007  11.189   5.135  0.1144 -0.3639  0.0769
  725MOL0     C99926   1.920  11.076   5.089 -0.5613  0.0064  1.2551
  725MOL0     C99927   1.948  10.961   5.187 -0.1273  0.3761  0.3029
  725MOL0     C99928   1.856  10.848   5.168 -0.6279  0.1101 -0.1560
  725MOL0     N99929   1.880  10.803   5.027 -0.5205  0.2322  0.3004
  725MOL0     C99930   1.997  10.743   4.977 -0.4411 -0.3447  0.8955
  725MOL0     C99931   1.965  10.730   4.842  0.1302 -0.0486 -0.6371
  725MOL0     C99932   2.045  10.682   4.726  0.1274  0.2591 -0.1804
  725MOL0     C99933   2.034  10.528   4.709  0.4299  0.7537 -0.2825
  725MOL0     C99934   1.895  10.464   4.710  0.1636 -0.1162 -0.3332
  725MOL0     C99935   1.809  10.497   4.587 -0.0132 -0.7415 -0.9302
  725MOL0     O99936   1.876  10.455   4.470 -0.6588  0.0388 -0.2327
  725MOL0     C99937   1.791  10.432   4.365  0.3095 -0.1776 -0.2441
  725MOL0     C99938   1.753  10.541   4.280  0.2513 -0.4747  0.4280
  725MOL0     C99939   1.705  10.506   4.148  0.6998 -0.1331  0.3172
  725MOL0     C99940   1.699  10.618   4.052  0.6664 -0.5040  0.0371
  725MOL0     C99941   1.657  10.371   4.116  0.5034 -0.0536  0.0104
  725MOL0     C99942   1.579  10.341   3.994 -1.1108 -0.3654  0.6124
  725MOL0     O99943   1.523  10.214   4.000 -0.0554 -1.1149  0.2475
  725MOL0     C99944   1.454  10.169   3.890  0.5050  0.2701 -0.5812
  725MOL0     C99945   1.476  10.203   3.753  0.8124 -0.2001  0.4380
  725MOL0     C99946   1.412  10.146   3.646  0.6709  0.0004 -0.1753
  725MOL0     C99947   1.317  10.045   3.673 -0.1917 -1.1070 -0.1782
  725MOL0     O99948   1.243   9.991   3.567 -0.0069 -0.3503 -0.3795
  725MOL0     C99949   1.146   9.893   3.595  0.2568 -0.1027 -0.7708
  725MOL0     C99950   1.053   9.878   3.471 -1.4168 -0.1643 -0.4180
  725MOL0     C99951   0.918   9.807   3.510 -0.7213  0.0176  0.3870
  725MOL0     C99952   0.814   9.775   3.398  0.1301 -0.2627  0.2514
  725MOL0     C99953   0.693   9.692   3.441  0.6470 -0.6311 -0.7084
  725MOL0     C99954   0.602   9.641   3.323  0.4255 -0.1535  0.2616
  725MOL0     C99955   0.502   9.541   3.369  0.4907 -0.0634  0.6774
  725MOL0     C99956   0.401   9.501   3.254  0.1499  0.5538  0.4113
  725MOL0    Cl99957   0.318   9.624   3.157  0.4998 -0.2600  0.0341
  725MOL0     C99958   1.303   9.995   3.806 -0.5835  0.1698  0.3490
  725MOL0     C99959   1.364  10.061   3.915  0.8810 -0.1808 -1.0614
  725MOL0     O99960   1.565  10.429   3.910 -0.1798  0.0776  0.1310
  725MOL0     C99961   1.675  10.278   4.216 -0.5027  0.5850  1.1481
  725MOL0     C99962   1.753  10.309   4.329 -0.3883  0.6675  0.3268
  725MOL0     N99963   1.833  10.773   4.818  0.1326 -0.3386  0.0099
  725MOL0     N99964   1.778  10.811   4.930 -0.7247 -0.4787  1.0422
  725MOL0     C99965   2.244  10.990   4.640  0.4772 -0.3047  0.2173
  725MOL0     C99966   2.324  10.896   4.576 -0.3898  0.8024 -0.7619
  725MOL0     C99967   2.637  10.619   4.418  0.6298  0.0339 -0.2135
  725MOL0     C99968   2.764  10.638   4.474  1.3276 -0.0682 -0.1390
  725MOL0     C99969   2.855  10.541   4.463 -0.7546  0.0526 -0.6313
  725MOL0     C99970   2.828  10.422   4.399  0.8242 -0.0765  0.5476
  725MOL0     O99971   2.932  10.334   4.388  0.2264  1.2686 -0.5682
  725MOL0     C99972   2.886  10.193   4.392 -0.3398 -0.1834  1.0552
  725MOL0     C99973   2.988  10.118   4.465  0.9396 -0.7688  0.5336
  725MOL0     C99974   3.111  10.093   4.376 -0.2732 -0.6596 -0.5053
  725MOL0     C99975   3.103  10.007   4.250  0.1962  0.3686  0.0696
  725MOL0     C99976   3.236   9.999   4.190 -0.3834  0.2259 -0.5617
  725MOL0     C99977   3.340   9.989   4.145 -0.0067 -0.6017  0.2304
  725MOL0     C99978   2.703  10.400   4.342  0.1397 -0.2494 -0.3688
  725MOL0     C99979   2.609  10.494   4.361  0.7322 -0.1195  0.5788
  725MOL0     C99980   2.478  10.465   4.293  0.2146 -0.0546  0.2453
  725MOL0     H99981   2.624  11.000   4.681 -0.1500 -1.5472 -1.4695
  725MOL0     H99982   2.479  11.153   4.818 -2.3004  2.8581 -0.4035
  725MOL0     H99983   2.354  11.319   4.851 -0.6249  2.5092  0.4551
  725MOL0     H99984   2.271  11.202   4.961  0.0177  1.0535  0.1667
  725MOL0     H99985   2.169  11.446   4.957 -1.3171 -3.0501  3.4523
  725MOL0     H99986   2.161  11.423   4.783  1.7178 -0.5887 -0.8669
  725MOL0     H99987   1.942  11.394   4.844 -0.7828  0.2692  0.7557
  725MOL0     H99988   2.001  11.222   4.857  0.9964 -1.0333  0.8553
  725MOL0     H99989   2.021  11.400   5.108  0.3689 -0.9353 -0.6192
  725MOL0     H99990   1.861  11.333   5.080 -0.1009  1.7346  0.7006
  725MOL0     H99991   1.984  11.209   5.240 -0.1536  1.3192 -0.2791
  725MOL0     H99992   2.114  11.176   5.116  0.2189 -0.9035  0.9725
  725MOL0     H99993   1.813  11.098   5.091 -0.1191  2.4651  1.5177
  725MOL0     H99994   1.943  11.052   4.985 -1.6747 -1.7709  1.3892
  725MOL0     H99995   1.928  11.002   5.287  0.6248  1.5242 -0.0034
  725MOL0     H99996   2.048  10.918   5.174 -1.0485 -1.2906 -1.9141
  725MOL0     H99997   1.881  10.770   5.241 -1.4811  0.7035  0.7973
  725MOL0     H99998   1.754  10.887   5.173 -0.5137  0.2890  1.1129
  725MOL0     H99999   2.090  10.718   5.028 -0.2730 -0.5249  0.5036
  725MOL0     H    0   2.144  10.729   4.727 -0.3614  1.6372 -3.2651
  725MOL0     H    1   1.992  10.720   4.638  0.0836 -1.0655 -0.7432
  725MOL0     H    2   2.081  10.500   4.614  1.1150 -1.5264  0.6609
  725MOL0     H    3   2.104  10.478   4.777  1.5907  1.4229 -0.9337
  725MOL0     H    4   1.901  10.356   4.724 -4.5022 -0.4546  0.4467
  725MOL0     H    5   1.852  10.493   4.806  2.4857 -0.7230  0.9840
  725MOL0     H    6   1.717  10.439   4.592 -0.6665  0.3792  1.8864
  725MOL0     H    7   1.777  10.602   4.584 -0.0768 -0.6950  0.6095
  725MOL0     H    8   1.782  10.644   4.294 -1.3444  0.5375 -2.8295
  725MOL0     H    9   1.758  10.703   4.086  0.2128 -1.0606  2.3567
  725MOL0     H   10   1.601  10.650   4.014  0.5688 -0.9922 -0.1336
  725MOL0     H   11   1.757  10.594   3.962  0.4087  1.6725 -0.7756
  725MOL0     H   12   1.550  10.279   3.733 -1.1573  1.5333 -0.6951
  725MOL0     H   13   1.430  10.170   3.542 -0.7809 -2.5214 -1.1199
  725MOL0     H   14   1.198   9.801   3.624 -0.7378  0.2603  2.6203
  725MOL0     H   15   1.077   9.918   3.676 -0.7506  0.8189 -1.8697
  725MOL0     H   16   1.029   9.972   3.421  1.2566  1.9986  2.0628
  725MOL0     H   17   1.096   9.825   3.386  2.2546  5.5811 -2.7155
  725MOL0     H   18   0.869   9.878   3.577  0.2257 -0.2481  1.4045
  725MOL0     H   19   0.940   9.724   3.577 -4.0382  0.2557  1.9816
  725MOL0     H   20   0.868   9.719   3.321 -1.0931 -0.3451 -0.5657
  725MOL0     H   21   0.779   9.872   3.359  0.5344  0.0319  0.6098
  725MOL0     H   22   0.725   9.605   3.499 -0.1907  1.5705  3.4694
  725MOL0     H   23   0.636   9.747   3.516  1.7691 -0.6913  0.2244
  725MOL0     H   24   0.657   9.596   3.240 -1.7866 -0.3060 -1.1918
  725MOL0     H   25   0.550   9.732   3.290  1.9603  1.5713  2.3073
  725MOL0     H   26   0.446   9.590   3.449  0.5220  1.2402 -0.0791
  725MOL0     H   27   0.553   9.452   3.406  2.3517  0.6849  0.0107
  725MOL0     H   28   0.320   9.434   3.282 -2.8589  3.1228 -1.4487
  725MOL0     H   29   0.469   9.446   3.188 -0.8473 -1.3212  0.8823
  725MOL0     H   30   1.264   9.895   3.824  0.9055 -0.3672  0.7566
  725MOL0     H   31   1.364  10.020   4.015 -0.8226  0.1350 -0.9020
  725MOL0     H   32   1.654  10.171   4.216  0.1963  0.4381  1.6480
  725MOL0     H   33   1.777  10.227   4.395 -1.0528  0.4530  0.3079
  725MOL0     H   34   2.141  10.996   4.607  1.9778 -3.7893 -7.5179
  725MOL0     H   35   2.281  10.826   4.505  3.3927 -2.1535 -0.4613
  725MOL0     H   36   2.800  10.728   4.522  5.1461 -1.2170 -0.4392
  725MOL0     H   37   2.959  10.545   4.491 -0.0318  1.7287 -3.1602
  725MOL0     H   38   2.790  10.185   4.444 -0.8555 -2.6621 -0.0934
  725MOL0     H   39   2.864  10.150   4.293  1.1155  1.5786 -0.1044
  725MOL0     H   40   2.961  10.016   4.491 -2.7223 -0.7784 -2.5633
  725MOL0     H   41   3.005  10.175   4.557  0.8008  0.6226 -0.2570
  725MOL0     H   42   3.156  10.191   4.355  0.8462 -0.6510  1.7165
  725MOL0     H   43   3.184  10.039   4.436 -0.9295 -2.2145 -1.0743
  725MOL0     H   44   3.039  10.046   4.170  0.7727 -1.3044 -1.2753
  725MOL0     H   45   3.075   9.902   4.262  1.9137 -0.2304 -0.8054
  725MOL0     H   46   3.434   9.980   4.094  0.1391  0.3285  0.3263
  725MOL0     H   47   2.680  10.306   4.293  4.8295 -1.1714 -1.2735
  725MOL0     H   48   2.458  10.521   4.201  0.4976 -1.2213 -0.5477
  725MOL0     H   49   2.469  10.359   4.267  2.2082 -0.0509 -0.6509
  725MOL0     H   50   2.384  10.478   4.348 -1.1037  0.2777 -1.9764
  726MOL0     O   51   7.564  10.576   2.513  0.4021 -0.4896  0.0536
  726MOL0     C   52   7.550  10.561   2.391  0.0365 -0.3752 -0.8518
  726MOL0     O   53   7.486  10.649   2.310 -0.1082  0.5890 -0.0596
  726MOL0     C   54   7.399  10.739   2.370  0.4331  0.9040  0.8981
  726MOL0     C   55   7.305  10.704   2.470 -0.2419  0.7149  0.4131
  726MOL0     C   56   7.230  10.804   2.535  0.6172 -0.7104  0.0540
  726MOL0     C   57   7.237  10.941   2.484  0.9024  0.4013  0.8228
  726MOL0     O   58   7.147  11.036   2.544 -0.0039  0.6122 -0.5163
  726MOL0     C   59   7.138  11.167   2.494 -0.3760 -0.2090  0.5061
  726MOL0     C   60   7.083  11.272   2.601 -1.3410 -0.1759  0.3319
  726MOL0     C   61   6.933  11.271   2.610  0.9999  0.7680  0.1391
  726MOL0     C   62   6.881  11.354   2.727 -0.4113 -0.1114  0.0796
  726MOL0     C   63   6.737  11.389   2.700  1.1000  0.2172 -0.4552
  726MOL0     C   64   6.666  11.436   2.833 -0.1111  0.3259  0.9423
  726MOL0     C   65   6.524  11.489   2.798  1.1968  0.8775 -1.8028
  726MOL0     C   66   6.452  11.531   2.923 -0.4188 -0.3788 -0.9737
  726MOL0     N   67   6.461  11.677   2.957  0.1629 -0.2672 -0.1899
  726MOL0     C   68   6.570  11.755   3.007 -0.1057  0.5571  0.8642
  726MOL0     C   69   6.512  11.876   3.046  0.5065  0.5864 -0.0910
  726MOL0     C   70   6.573  12.001   3.105 -0.0965 -0.4915  0.4936
  726MOL0     C   71   6.714  12.034   3.051  1.3234 -0.1720 -0.0931
  726MOL0     C   72   6.760  12.158   3.129 -0.6259 -0.3104 -0.3630
  726MOL0     C   73   6.691  12.290   3.094 -1.5925 -0.2329 -0.3674
  726MOL0     O   74   6.736  12.405   3.163  0.0490 -0.0736 -0.5133
  726MOL0     C   75   6.818  12.496   3.099  0.0740  0.1150  0.3657
  726MOL0     C   76   6.937  12.456   3.063 -0.7620  1.2311  0.3968
  726MOL0     C   77   7.017  12.539   2.975  0.0065  0.1316  0.2264
  726MOL0     C   78   7.146  12.491   2.933  0.1366 -0.0794 -0.1054
  726MOL0     C   79   6.966  12.668   2.941  0.4201 -0.2916 -0.1242
  726MOL0     C   80   7.020  12.767   2.841  0.2071  0.5119 -1.3994
  726MOL0     O   81   6.962  12.886   2.833 -0.0864  0.0056  0.1180
  726MOL0     C   82   7.035  12.988   2.759 -0.0906 -0.0593 -0.1212
  726MOL0     C   83   6.983  13.058   2.651  0.1414 -0.7555  0.4763
  726MOL0     C   84   7.063  13.148   2.576  0.0786 -0.8121  0.1365
  726MOL0     C   85   7.198  13.173   2.608 -0.4229  0.0630  0.7761
  726MOL0     O   86   7.289  13.250   2.534 -0.0520  0.4303  0.2587
  726MOL0     C   87   7.235  13.390   2.528 -0.0806  0.5404 -0.3467
  726MOL0     C   88   7.314  13.495   2.615  0.3727 -0.0301 -0.0925
  726MOL0     C   89   7.466  13.500   2.569 -0.4430 -0.0391 -0.5904
  726MOL0     C   90   7.527  13.617   2.646 -0.7607 -0.2531  0.5137
  726MOL0     C   91   7.671  13.645   2.589 -0.4014  0.5294 -0.4641
  726MOL0     C   92   7.740  13.748   2.669 -1.6486 -0.2215  0.4309
  726MOL0     C   93   7.688  13.894   2.664  1.3481 -0.1036  0.3769
  726MOL0     C   94   7.781  13.991   2.749  0.1040 -0.9735  0.4228
  726MOL0    Cl   95   7.712  14.153   2.761  0.2236  0.2755  0.1372
  726MOL0     C   96   7.250  13.107   2.718 -0.4875 -0.9935  0.7777
  726MOL0     C   97   7.168  13.025   2.798 -0.2945  0.1401 -0.6157
  726MOL0     O   98   7.094  12.724   2.752  0.1232  0.6024 -0.0489
  726MOL0     C   99   6.853  12.713   3.014 -0.1200  0.4182  1.2319
  726MOL0     C  100   6.776  12.631   3.092 -0.0888  0.3192 -0.0803
  726MOL0     N  101   6.377  11.868   3.027  0.5675  0.7531  1.0248
  726MOL0     N  102   6.349  11.750   2.974  0.9342 -0.0663 -1.0555
  726MOL0     C  103   7.310  10.964   2.370  0.2391 -0.1735  0.3220
  726MOL0     C  104   7.393  10.868   2.313  0.4405  1.3023  1.4474
  726MOL0     C  105   7.620  10.451   2.321  0.0914  0.4813 -0.5596
  726MOL0     C  106   7.640  10.465   2.178 -0.1464 -0.8128 -0.0525
  726MOL0     C  107   7.700  10.362   2.108 -0.0241 -0.0556  0.0140
  726MOL0     C  108   7.755  10.254   2.172 -0.5148 -0.4311  0.3911
  726MOL0     O  109   7.830  10.171   2.095 -0.4008  1.0145  0.0679
  726MOL0     C  110   7.948  10.108   2.155  0.6411 -0.3806 -1.4848
  726MOL0     C  111   8.067  10.110   2.056  1.6390  0.3969 -0.0958
  726MOL0     C  112   8.200  10.135   2.118  0.2619  0.3428 -0.0524
  726MOL0     C  113   8.313  10.093   2.018  0.5943 -0.2108  0.4520
  726MOL0     C  114   8.450  10.136   2.053 -0.0949 -0.5209 -0.4382
  726MOL0     C  115   8.562  10.161   2.087 -0.1104 -1.3650 -0.6802
  726MOL0     C  116   7.729  10.229   2.311  0.4618 -0.5811  0.5388
  726MOL0     C  117   7.668  10.325   2.382 -0.2086 -0.5645 -0.4822
  726MOL0     C  118   7.671  10.303   2.531 -0.3429  0.7277 -0.3341
  726MOL0     H  119   7.294  10.606   2.515  1.2055  2.4238  5.1362
  726MOL0     H  120   7.151  10.799   2.610  1.7061 -0.3573  1.2671
  726MOL0     H  121   7.083  11.182   2.401  0.9318 -0.4117 -0.3233
  726MOL0     H  122   7.233  11.218   2.477 -1.1108  0.4447 -1.9789
  726MOL0     H  123   7.126  11.245   2.698 -2.3791  2.0554  1.4691
  726MOL0     H  124   7.117  11.372   2.575 -3.2365  0.5882  0.5758
  726MOL0     H  125   6.890  11.304   2.515  0.5683 -0.7909 -0.2338
  726MOL0     H  126   6.895  11.168   2.618 -0.7731  1.4448  0.8583
  726MOL0     H  127   6.890  11.291   2.816  1.3102  0.2654  0.2220
  726MOL0     H  128   6.938  11.445   2.750 -1.0421  0.1704  0.5269
  726MOL0     H  129   6.682  11.305   2.655 -0.2694 -0.8148  2.8405
  726MOL0     H  130   6.724  11.467   2.624  1.3301  1.9388  1.1910
  726MOL0     H  131   6.660  11.358   2.910  0.3313 -0.2528  0.3980
  726MOL0     H  132   6.719  11.517   2.884  1.6068  0.4016 -0.8234
  726MOL0     H  133   6.462  11.410   2.755  0.6911  1.0791 -1.4557
  726MOL0     H  134   6.533  11.565   2.719  3.1944  0.3709 -2.1243
  726MOL0     H  135   6.347  11.501   2.910 -0.7442 -0.8482  1.9341
  726MOL0     H  136   6.494  11.471   3.005 -0.0127 -0.4835 -1.2591
  726MOL0     H  137   6.676  11.737   3.017 -0.1083  1.5501  3.2771
  726MOL0     H  138   6.563  11.979   3.211  0.0485 -3.0702  0.0177
  726MOL0     H  139   6.512  12.090   3.084 -0.1040 -0.8470 -1.1781
  726MOL0     H  140   6.776  11.947   3.077 -1.1657 -2.5501 -1.5438
  726MOL0     H  141   6.720  12.048   2.942  0.1968 -0.6489 -0.2263
  726MOL0     H  142   6.739  12.144   3.235  0.9152  0.5494  0.0756
  726MOL0     H  143   6.868  12.166   3.113 -0.6813  1.3027 -0.0627
  726MOL0     H  144   6.686  12.309   2.986 -0.0184 -1.3456 -0.6834
  726MOL0     H  145   6.589  12.275   3.128 -1.3318  0.5104  0.7929
  726MOL0     H  146   6.962  12.353   3.086 -0.1220  1.4939  0.9421
  726MOL0     H  147   7.154  12.466   2.827  0.3129  0.8975 -0.3386
  726MOL0     H  148   7.190  12.403   2.981  1.1143 -0.5362 -1.7573
  726MOL0     H  149   7.216  12.572   2.960 -2.7394  1.6119  3.0193
  726MOL0     H  150   6.887  13.038   2.604  0.2355 -0.4511  0.1483
  726MOL0     H  151   7.040  13.189   2.479 -0.0789 -0.3785  0.3529
  726MOL0     H  152   7.241  13.414   2.422  0.1571 -0.1833 -0.4991
  726MOL0     H  153   7.133  13.400   2.569  2.1137  2.2950  5.8641
  726MOL0     H  154   7.253  13.584   2.597  2.6287  1.6173  0.0039
  726MOL0     H  155   7.299  13.448   2.713 -0.5529 -0.4317 -0.4185
  726MOL0     H  156   7.476  13.504   2.460  0.0019  0.8403 -0.5237
  726MOL0     H  157   7.519  13.413   2.609  0.4803  1.4141  1.4962
  726MOL0     H  158   7.537  13.585   2.750  2.1149 -0.9170  0.1372
  726MOL0     H  159   7.471  13.710   2.632  2.7204  2.0800  0.6978
  726MOL0     H  160   7.723  13.549   2.603  0.6337  1.3689  2.0006
  726MOL0     H  161   7.685  13.662   2.482  1.5525  0.7921 -0.2069
  726MOL0     H  162   7.847  13.760   2.648 -1.5199 -1.5765  0.2001
  726MOL0     H  163   7.737  13.724   2.775  0.2984  0.5153  0.6920
  726MOL0     H  164   7.596  13.907   2.721 -0.2755  0.1505 -2.1307
  726MOL0     H  165   7.683  13.923   2.558  0.4696  2.5235  1.0465
  726MOL0     H  166   7.878  13.991   2.698 -1.9223 -0.7878 -3.8536
  726MOL0     H  167   7.797  13.980   2.856 -0.4992  2.3265  0.9649
  726MOL0     H  168   7.357  13.111   2.736 -0.8117  1.1940  2.5410
  726MOL0     H  169   7.216  12.970   2.878  1.6549  1.4408 -0.8357
  726MOL0     H  170   6.815  12.815   3.019 -2.4360 -0.2347 -0.7848
  726MOL0     H  171   6.686  12.671   3.137 -1.7485  1.3820 -3.9604
  726MOL0     H  172   7.298  11.065   2.331  1.8980  0.9021  2.3617
  726MOL0     H  173   7.462  10.898   2.234  0.4457  1.0642  1.3625
  726MOL0     H  174   7.608  10.557   2.130 -1.7639 -1.8214 -0.9994
  726MOL0     H  175   7.733  10.369   2.004  1.4678 -0.8746  0.3978
  726MOL0     H  176   7.978  10.165   2.244 -3.9932 -3.3702  2.5112
  726MOL0     H  177   7.920  10.008   2.190 -0.8020  0.5109  0.1155
  726MOL0     H  178   8.046  10.181   1.976  4.5019 -2.5296 -3.8333
  726MOL0     H  179   8.047  10.013   2.010  1.7974  0.9564 -1.3936
  726MOL0     H  180   8.216  10.242   2.137  0.0776  0.6082 -1.2940
  726MOL0     H  181   8.220  10.079   2.209 -0.9050  1.1414  0.7309
  726MOL0     H  182   8.294  10.128   1.916 -0.4625  1.2458  1.1049
  726MOL0     H  183   8.304   9.986   1.998 -0.5175  0.3816 -2.9411
  726MOL0     H  184   8.661  10.178   2.126 -1.2414 -1.9544  2.7596
  726MOL0     H  185   7.780  10.150   2.364  0.2683  0.8465  3.0001
  726MOL0     H  186   7.654  10.387   2.600  1.4999 -0.0300  1.1377
  726MOL0     H  187   7.619  10.211   2.560  1.6224 -0.8907 -1.6869
  726MOL0     H  188   7.768  10.267   2.564 -3.0937 -3.6602  4.5483
  727MOL0     O  189   5.718   4.002   0.421  0.5547 -0.0554  0.2413
  727MOL0     C  190   5.775   4.111   0.438  0.0301 -0.4535 -0.4342
  727MOL0     O  191   5.732   4.204   0.523  0.3400 -0.1311 -0.4077
  727MOL0     C  192   5.599   4.189   0.570  0.7407  0.1347 -0.1502
  727MOL0     C  193   5.483   4.210   0.481  0.4209 -0.1974  0.2448
  727MOL0     C  194   5.350   4.198   0.515 -0.0335  0.6209 -0.0116
  727MOL0     C  195   5.323   4.166   0.646 -0.8544  0.1103 -0.5066
  727MOL0     O  196   5.195   4.146   0.705  0.6698  0.6135  0.1734
  727MOL0     C  197   5.087   4.145   0.611  0.0255  1.7783  0.2024
  727MOL0     C  198   4.960   4.138   0.680  0.2967  1.0517 -0.9081
  727MOL0     C  199   4.935   4.258   0.759  0.9296  0.2273 -0.0813
  727MOL0     C  200   4.810   4.238   0.837  0.9414 -1.0320 -0.6108
  727MOL0     C  201   4.774   4.368   0.908 -0.1381 -0.3750 -0.4787
  727MOL0     C  202   4.620   4.383   0.916 -0.6309 -0.4662  0.6031
  727MOL0     C  203   4.551   4.276   0.998 -0.0928  0.8303 -0.0906
  727MOL0     C  204   4.403   4.258   0.980 -0.1000 -1.3005 -0.6173
  727MOL0     N  205   4.360   4.251   0.841 -0.4001  0.3507 -0.7318
  727MOL0     C  206   4.354   4.125   0.786 -0.3107 -0.2579  0.2971
  727MOL0     C  207   4.343   4.156   0.657  0.5478 -0.1354  0.2452
  727MOL0     C  208   4.335   4.067   0.536  0.6278  0.5757 -0.4260
  727MOL0     C  209   4.467   4.047   0.478  0.0724 -1.2130 -0.5316
  727MOL0     C  210   4.497   4.153   0.368  0.0793 -0.1385 -1.0343
  727MOL0     C  211   4.643   4.208   0.381 -0.3984 -0.5806 -0.1582
  727MOL0     O  212   4.721   4.096   0.350 -0.7142 -0.0647 -0.3319
  727MOL0     C  213   4.857   4.118   0.318 -0.2765  0.1415 -0.3958
  727MOL0     C  214   4.945   4.010   0.319  0.1723 -0.4489  0.5325
  727MOL0     C  215   5.072   4.021   0.263  0.3225  0.1510 -0.7192
  727MOL0     C  216   5.141   3.893   0.245 -0.4273  0.7270 -0.2623
  727MOL0     C  217   5.121   4.143   0.230 -0.7192 -0.1459  0.3874
  727MOL0     C  218   5.259   4.168   0.162  0.9602 -0.1409 -0.1367
  727MOL0     O  219   5.320   4.059   0.107 -0.4322 -0.1608  0.0088
  727MOL0     C  220   5.429   4.101   0.040 -1.4306  0.0363  0.3755
  727MOL0     C  221   5.428   4.158  -0.086 -0.1970 -0.3784 -0.2053
  727MOL0     C  222   5.545   4.215  -0.138 -0.3865 -0.8421  0.4195
  727MOL0     C  223   5.664   4.216  -0.062 -0.5841 -0.2214 -0.4625
  727MOL0     O  224   5.769   4.278  -0.118 -0.7499 -0.4010 -0.0138
  727MOL0     C  225   5.905   4.255  -0.073 -0.4696  0.6015 -0.1978
  727MOL0     C  226   5.994   4.379  -0.074 -0.5111 -0.7260  0.0031
  727MOL0     C  227   6.050   4.398  -0.214 -0.0238  0.7867 -0.5884
  727MOL0     C  228   6.102   4.545  -0.222  0.2270  0.8621 -0.1469
  727MOL0     C  229   6.168   4.580  -0.358 -0.0270 -0.1674 -0.6483
  727MOL0     C  230   6.251   4.704  -0.349 -0.7830 -0.0732  0.2798
  727MOL0     C  231   6.317   4.746  -0.488 -0.0158  0.0047  0.7636
  727MOL0     C  232   6.442   4.820  -0.472 -0.1953 -0.4935 -0.1451
  727MOL0    Cl  233   6.565   4.695  -0.464 -0.2126 -0.3284  0.5172
  727MOL0     C  234   5.658   4.153   0.061  0.2538 -0.4649  0.3582
  727MOL0     C  235   5.549   4.085   0.111  0.8875  0.1086  0.0187
  727MOL0     O  236   5.299   4.289   0.161 -1.1468  0.9404  0.2226
  727MOL0     C  237   5.040   4.251   0.226  0.1679  0.3876 -0.2444
  727MOL0     C  238   4.910   4.237   0.263 -0.6461 -0.4490  0.0100
  727MOL0     N  239   4.341   4.293   0.637 -0.4300 -0.0325 -0.0161
  727MOL0     N  240   4.334   4.348   0.751  0.1782  0.3535 -0.4854
  727MOL0     C  241   5.435   4.149   0.738 -1.5815 -0.0278  0.0903
  727MOL0     C  242   5.574   4.161   0.699  0.1386  0.3524  0.3998
  727MOL0     C  243   5.899   4.140   0.359  0.0535  0.5366 -0.7650
  727MOL0     C  244   5.961   4.264   0.379  1.1340  0.0466  0.3431
  727MOL0     C  245   6.075   4.308   0.314  0.2660  0.0354  0.2255
  727MOL0     C  246   6.141   4.216   0.233  0.0912  0.1258 -0.1567
  727MOL0     O  247   6.253   4.251   0.163 -0.5820 -0.2501  0.7551
  727MOL0     C  248   6.384   4.232   0.211  0.2887 -0.2435  0.7245
  727MOL0     C  249   6.397   4.266   0.362  0.0712 -0.5253 -0.2198
  727MOL0     C  250   6.545   4.284   0.407 -0.0718  0.7512  0.5417
  727MOL0     C  251   6.556   4.331   0.549  0.1716 -0.2302  0.0886
  727MOL0     C  252   6.691   4.375   0.581 -0.2919 -0.4311  0.3942
  727MOL0     C  253   6.801   4.421   0.618 -0.1577  1.0753  0.4913
  727MOL0     C  254   6.084   4.090   0.202  0.5670  0.2070 -1.0755
  727MOL0     C  255   5.957   4.052   0.262  0.4346  0.2315 -0.3267
  727MOL0     C  256   5.908   3.907   0.230 -0.2741 -0.2665 -0.6399
  727MOL0     H  257   5.492   4.250   0.380  0.9118 -1.8099 -0.3693
  727MOL0     H  258   5.265   4.223   0.452 -1.9858  0.0783  2.2147
  727MOL0     H  259   5.091   4.051   0.556 -2.0362  2.2081 -0.7879
  727MOL0     H  260   5.085   4.223   0.534  2.0423 -0.8740 -2.7984
  727MOL0     H  261   4.880   4.120   0.608 -0.9315  0.0699  0.6396
  727MOL0     H  262   4.969   4.054   0.750 -0.6824  3.9140  2.9417
  727MOL0     H  263   5.019   4.259   0.829  0.2495  1.8660  0.7670
  727MOL0     H  264   4.932   4.346   0.694 -0.5328  1.5656  1.7027
  727MOL0     H  265   4.734   4.200   0.769  1.7265 -0.1051 -2.0626
  727MOL0     H  266   4.818   4.160   0.913  0.7773  0.6794  1.2343
  727MOL0     H  267   4.813   4.459   0.863 -1.3219  0.9248  1.0094
  727MOL0     H  268   4.821   4.369   1.007  0.2433  0.6268 -0.6644
  727MOL0     H  269   4.603   4.478   0.967 -0.3141 -0.3369  0.4704
  727MOL0     H  270   4.585   4.396   0.813  4.0342  1.2919 -1.0238
  727MOL0     H  271   4.577   4.298   1.101  1.1378  1.3509 -0.4953
  727MOL0     H  272   4.604   4.184   0.970  2.0811  2.2185 -0.7996
  727MOL0     H  273   4.387   4.161   1.027 -2.5218 -0.5338  0.2885
  727MOL0     H  274   4.342   4.328   1.038  1.8186  1.0395 -1.2362
  727MOL0     H  275   4.362   4.030   0.838  1.2290  0.0924  0.7379
  727MOL0     H  276   4.277   4.101   0.450  1.7240  3.4014 -0.1457
  727MOL0     H  277   4.303   3.970   0.577 -0.5761  1.0085 -0.3040
  727MOL0     H  278   4.540   4.058   0.559  0.2237  0.8278 -0.9094
  727MOL0     H  279   4.480   3.947   0.435  2.8889 -0.3078 -2.0694
  727MOL0     H  280   4.497   4.099   0.273 -1.8091  0.2357 -1.2978
  727MOL0     H  281   4.412   4.222   0.369 -0.5098 -0.8388 -1.6110
  727MOL0     H  282   4.645   4.297   0.317  0.4604 -0.5260 -0.0673
  727MOL0     H  283   4.679   4.243   0.478 -3.9776  1.2029  0.7225
  727MOL0     H  284   4.906   3.914   0.353 -1.6740  0.5249  1.2985
  727MOL0     H  285   5.176   3.883   0.142  4.1471 -1.0618  1.1878
  727MOL0     H  286   5.082   3.807   0.277  1.6680  0.0604  2.2096
  727MOL0     H  287   5.224   3.884   0.316 -0.3418  3.3470  0.0752
  727MOL0     H  288   5.339   4.150  -0.147 -0.5551 -4.6857  0.5715
  727MOL0     H  289   5.557   4.255  -0.238  0.4615 -1.5571  0.2255
  727MOL0     H  290   5.902   4.218   0.029  2.7100 -3.7680 -1.4067
  727MOL0     H  291   5.949   4.176  -0.135  0.8548  0.5049  0.8335
  727MOL0     H  292   5.936   4.465  -0.040 -1.8100 -1.4380 -0.3501
  727MOL0     H  293   6.073   4.364   0.000 -0.3471  3.5314  0.9454
  727MOL0     H  294   5.976   4.395  -0.295  1.1425  0.1579 -1.6609
  727MOL0     H  295   6.135   4.332  -0.233  0.0345  0.9200 -0.7937
  727MOL0     H  296   6.184   4.561  -0.151 -0.1795  2.6062 -0.0433
  727MOL0     H  297   6.021   4.616  -0.207 -0.0829  1.0447 -2.3826
  727MOL0     H  298   6.237   4.501  -0.392  0.0378 -0.0901 -0.6979
  727MOL0     H  299   6.099   4.588  -0.442  1.9114  0.8757 -2.2590
  727MOL0     H  300   6.331   4.693  -0.275  1.0056 -4.5992 -1.9267
  727MOL0     H  301   6.188   4.788  -0.318  1.0288  0.3963  3.0485
  727MOL0     H  302   6.247   4.816  -0.534 -2.0247 -1.1215  1.9453
  727MOL0     H  303   6.332   4.664  -0.558  2.4776  0.1546  1.0296
  727MOL0     H  304   6.444   4.891  -0.389  0.7175 -1.4466  0.6945
  727MOL0     H  305   6.474   4.870  -0.564  0.2588 -1.7297 -0.6803
  727MOL0     H  306   5.748   4.148   0.122 -0.0409 -3.4603  0.7213
  727MOL0     H  307   5.556   4.032   0.206  1.9661 -0.8149 -0.5511
  727MOL0     H  308   5.063   4.351   0.190  3.1249  0.1102  0.5767
  727MOL0     H  309   4.838   4.313   0.235 -1.5064 -0.7932  1.2027
  727MOL0     H  310   5.413   4.120   0.840 -0.6936 -1.6972 -0.1468
  727MOL0     H  311   5.647   4.139   0.776  0.2403  4.7070  1.8448
  727MOL0     H  312   5.925   4.335   0.453 -2.0023 -2.4907  1.5076
  727MOL0     H  313   6.122   4.403   0.336  0.1344  0.3204 -0.6623
  727MOL0     H  314   6.413   4.128   0.195 -4.2279 -1.9949  2.1215
  727MOL0     H  315   6.455   4.295   0.158  2.2412 -2.0585  1.0625
  727MOL0     H  316   6.341   4.192   0.420 -0.3198  0.6454  0.9486
  727MOL0     H  317   6.347   4.361   0.384 -1.5953 -0.9100 -2.0098
  727MOL0     H  318   6.588   4.185   0.390  1.8451  1.9457 -2.3275
  727MOL0     H  319   6.601   4.355   0.345 -1.6421 -1.8019 -4.3878
  727MOL0     H  320   6.543   4.252   0.624  0.4387 -0.6749 -0.3327
  727MOL0     H  321   6.489   4.417   0.564  0.0912 -0.3508  0.4248
  727MOL0     H  322   6.887   4.459   0.669  2.8058 -1.1384 -2.4472
  727MOL0     H  323   6.151   4.030   0.140  1.1046  0.8175 -1.0976
  727MOL0     H  324   5.988   3.848   0.185  0.8918  0.0027  0.9888
  727MOL0     H  325   5.880   3.850   0.319  2.8096 -0.9823 -0.0247
  727MOL0     H  326   5.824   3.906   0.161 -0.9712  0.6904  0.1664
  728MOL0     O  327   3.084   3.545  10.583  0.5983 -0.9312 -0.0706
  728MOL0     C  328   3.148   3.535  10.687  0.0371  0.9428 -0.7737
  728MOL0     O  329   3.182   3.420  10.756  0.9654  0.2309  0.3070
  728MOL0     C  330   3.149   3.298  10.689 -0.1171 -1.0752 -0.1892
  728MOL0     C  331   3.026   3.233  10.701 -0.0600 -0.4179 -0.3258
  728MOL0     C  332   3.002   3.104  10.666  0.5441  0.6656  1.0021
  728MOL0     C  333   3.092   3.031  10.584 -0.3878 -0.0974 -0.2611
  728MOL0     O  334   3.052   2.919  10.522  0.0153  0.3712  0.4855
  728MOL0     C  335   3.103   2.902  10.388  0.5200  0.0484  0.5645
  728MOL0     C  336   3.030   2.779  10.343 -0.9273  0.6175  0.7569
  728MOL0     C  337   3.123   2.656  10.355  0.1213  0.7316 -0.1015
  728MOL0     C  338   3.183   2.619  10.217 -0.3852  0.7540  0.6837
  728MOL0     C  339   3.239   2.482  10.228  0.3193 -0.1878  0.6385
  728MOL0     C  340   3.306   2.430  10.109  1.3327  0.6341  0.2591
  728MOL0     C  341   3.306   2.275  10.086  0.1272 -0.3988 -0.9251
  728MOL0     C  342   3.405   2.217   9.982  0.5192 -0.6620  0.9004
  728MOL0     N  343   3.540   2.194  10.029 -1.2468  0.1096 -0.1332
  728MOL0     C  344   3.637   2.286  10.059  0.1349  0.7557 -0.3063
  728MOL0     C  345   3.728   2.209  10.133 -0.0723 -0.0748  0.7058
  728MOL0     C  346   3.849   2.256  10.207 -0.7264 -1.2153  0.5707
  728MOL0     C  347   3.913   2.393  10.163  0.2265 -0.1369  0.7303
  728MOL0     C  348   3.955   2.392  10.009 -0.4885 -1.4156 -0.3175
  728MOL0     C  349   4.011   2.530   9.968  0.3607  0.4793 -0.4392
  728MOL0     O  350   4.038   2.540   9.832  0.5977 -0.0262 -0.4079
  728MOL0     C  351   3.989   2.630   9.748  0.1451 -1.4763  0.0152
  728MOL0     C  352   4.038   2.756   9.721  1.0462 -0.7890  0.4640
  728MOL0     C  353   3.981   2.846   9.622 -0.4291  0.3185  0.2667
  728MOL0     C  354   4.057   2.969   9.581  0.7154 -0.4471  0.2796
  728MOL0     C  355   3.847   2.813   9.581 -0.5674 -0.6087  0.5998
  728MOL0     C  356   3.750   2.895   9.495 -0.0044  0.0202  0.4239
  728MOL0     O  357   3.619   2.862   9.494  0.4992  1.0950 -0.4890
  728MOL0     C  358   3.523   2.937   9.425  0.0140  0.6146 -0.1505
  728MOL0     C  359   3.388   2.939   9.481 -0.3705 -0.8268  0.7124
  728MOL0     C  360   3.285   2.985   9.406  0.4582  0.4860 -0.3991
  728MOL0     C  361   3.317   3.046   9.276 -0.1924 -1.1644  0.6757
  728MOL0     O  362   3.230   3.121   9.193  0.6347 -0.3874 -0.0011
  728MOL0     C  363   3.094   3.131   9.235  0.2844  0.9283 -0.8512
  728MOL0     C  364   3.011   3.196   9.126 -0.7693 -0.2161  0.9593
  728MOL0     C  365   2.868   3.207   9.191 -0.1291  0.1248  0.6481
  728MOL0     C  366   2.765   3.227   9.086 -0.4069 -0.1142 -0.1333
  728MOL0     C  367   2.636   3.287   9.156 -0.3857 -0.3120  0.1101
  728MOL0     C  368   2.513   3.224   9.095  0.2192  0.3373 -1.1757
  728MOL0     C  369   2.399   3.250   9.196 -0.0032 -0.4886 -0.2875
  728MOL0     C  370   2.348   3.390   9.188 -0.0720  0.1695  1.6365
  728MOL0    Cl  371   2.269   3.423   9.020 -0.4197  0.1987  0.4006
  728MOL0     C  372   3.443   3.030   9.219  1.2375  0.2281  0.0641
  728MOL0     C  373   3.548   2.983   9.302 -0.3655 -1.1149  0.1447
  728MOL0     O  374   3.796   2.996   9.434 -0.6692 -0.8330 -0.8481
  728MOL0     C  375   3.791   2.690   9.624 -0.1184 -0.6505 -0.2432
  728MOL0     C  376   3.867   2.604   9.702 -0.5671  0.3639 -0.4918
  728MOL0     N  377   3.692   2.080  10.138  1.0237 -0.0501  0.2702
  728MOL0     N  378   3.580   2.069  10.069 -0.0593 -0.2271 -0.2188
  728MOL0     C  379   3.221   3.097  10.568  0.3677  1.1006  0.4747
  728MOL0     C  380   3.247   3.224  10.623 -0.2680 -0.3908 -0.7427
  728MOL0     C  381   3.209   3.670  10.728  0.9680 -0.7976 -0.0489
  728MOL0     C  382   3.139   3.790  10.683 -0.4738 -0.1085  0.0555
  728MOL0     C  383   3.176   3.919  10.733 -0.2817 -0.0508  0.6197
  728MOL0     C  384   3.287   3.945  10.813 -0.6390  0.0788  0.6148
  728MOL0     O  385   3.313   4.064  10.869 -0.4671  0.1350  0.4041
  728MOL0     C  386   3.320   4.174  10.780 -0.0965 -0.0508 -0.3783
  728MOL0     C  387   3.411   4.151  10.661 -0.0905 -0.0684  0.0498
  728MOL0     C  388   3.481   4.285  10.616  0.1974 -0.4595 -0.3072
  728MOL0     C  389   3.390   4.410  10.598 -0.6512  0.1240 -0.2608
  728MOL0     C  390   3.278   4.373  10.520 -0.1528 -0.5072  0.3994
  728MOL0     C  391   3.176   4.378  10.452  0.6707 -0.8565  0.3403
  728MOL0     C  392   3.363   3.830  10.845  0.6319 -0.7991 -0.1364
  728MOL0     C  393   3.329   3.697  10.801 -0.6853 -0.0520  0.9866
  728MOL0     C  394   3.417   3.581  10.850  0.5661  0.3483 -0.4788
  728MOL0     H  395   2.951   3.294  10.750  1.9408 -0.4885  3.1277
  728MOL0     H  396   2.902   3.065  10.682  1.4535 -1.6551  1.5331
  728MOL0     H  397   3.212   2.905  10.372  0.1095  2.7224 -2.8304
  728MOL0     H  398   3.068   2.988  10.331 -2.2430 -1.7158 -0.5823
  728MOL0     H  399   2.941   2.764  10.405 -0.3405 -1.8255  1.0807
  728MOL0     H  400   3.001   2.802  10.240  2.3028 -3.1804 -1.2579
  728MOL0     H  401   3.199   2.655  10.433 -1.3806  0.3916  1.4025
  728MOL0     H  402   3.053   2.574  10.375  1.2941  0.0942  1.5505
  728MOL0     H  403   3.104   2.624  10.141  2.0973  2.8120 -1.9794
  728MOL0     H  404   3.260   2.686  10.177  2.1319 -2.2451  0.1100
  728MOL0     H  405   3.147   2.422  10.235  1.3959 -2.0187 -0.1423
  728MOL0     H  406   3.312   2.460  10.306 -0.0823 -1.6436  0.6484
  728MOL0     H  407   3.264   2.485  10.025 -0.3576  0.1016  0.7155
  728MOL0     H  408   3.412   2.456  10.109  1.4991  0.0186  0.9651
  728MOL0     H  409   3.203   2.243  10.067  0.6278 -4.4171  1.9644
  728MOL0     H  410   3.331   2.225  10.180 -1.6076  1.0580  0.4067
  728MOL0     H  411   3.352   2.124   9.963 -3.0908  1.5549 -0.9302
  728MOL0     H  412   3.403   2.273   9.888  2.0972  2.4334  2.5496
  728MOL0     H  413   3.639   2.387  10.019  5.2058  0.3627 -1.8371
  728MOL0     H  414   3.926   2.179  10.193  0.4246  0.1038 -0.6715
  728MOL0     H  415   3.832   2.258  10.315 -0.4503  0.8477  0.6151
  728MOL0     H  416   3.846   2.474  10.193 -0.8262 -1.3886  1.9357
  728MOL0     H  417   4.003   2.407  10.224  0.1387  0.3622  0.7474
  728MOL0     H  418   4.038   2.322   9.993  2.0686  0.3689  3.5866
  728MOL0     H  419   3.866   2.378   9.947 -3.4130  2.4132  2.4973
  728MOL0     H  420   3.936   2.607   9.989  1.3423  0.8328  2.2709
  728MOL0     H  421   4.092   2.569  10.031 -2.3265 -0.0849  3.7328
  728MOL0     H  422   4.126   2.796   9.772  2.3193  0.9917 -2.8407
  728MOL0     H  423   4.023   3.009   9.486 -1.6996  2.2565  2.1008
  728MOL0     H  424   4.162   2.942   9.575  1.0078  0.8713 -1.0966
  728MOL0     H  425   4.046   3.051   9.654  4.6678  1.1312 -0.6756
  728MOL0     H  426   3.369   2.891   9.576  2.7727 -2.3161  0.7321
  728MOL0     H  427   3.183   2.972   9.441  1.3061 -1.5217  1.5731
  728MOL0     H  428   3.058   3.029   9.253  1.5105  0.8402  1.4004
  728MOL0     H  429   3.093   3.187   9.328 -0.0513 -1.3670  0.6146
  728MOL0     H  430   3.054   3.294   9.104 -2.7581  0.0849 -2.1671
  728MOL0     H  431   2.997   3.133   9.038 -2.1281  2.2533 -0.7496
  728MOL0     H  432   2.858   3.287   9.265 -0.0501 -1.3763  2.3553
  728MOL0     H  433   2.848   3.111   9.240  6.5374 -0.8958  2.2933
  728MOL0     H  434   2.734   3.137   9.032  0.1868  0.2023 -1.0239
  728MOL0     H  435   2.803   3.299   9.013  1.6446 -0.8701  0.1087
  728MOL0     H  436   2.641   3.265   9.263  0.0184  4.8803  1.4250
  728MOL0     H  437   2.636   3.396   9.141 -0.4885 -0.5691 -2.2290
  728MOL0     H  438   2.524   3.115   9.090 -1.5541 -0.0433  1.4129
  728MOL0     H  439   2.497   3.250   8.990 -1.7643 -0.6647 -1.1669
  728MOL0     H  440   2.420   3.226   9.301 -2.3362  0.0844  0.3723
  728MOL0     H  441   2.315   3.187   9.166 -0.3580  0.3401 -1.0910
  728MOL0     H  442   2.420   3.467   9.218 -1.4799  1.4353  1.9010
  728MOL0     H  443   2.268   3.408   9.260 -1.9957  0.6187 -0.5092
  728MOL0     H  444   3.443   3.067   9.116  4.3140  1.3554  0.3409
  728MOL0     H  445   3.646   2.976   9.256 -1.0076 -1.6156 -1.2128
  728MOL0     H  446   3.692   2.660   9.593  0.3477 -0.1879 -2.3830
  728MOL0     H  447   3.824   2.507   9.721  2.3712 -1.1939 -1.2150
  728MOL0     H  448   3.301   3.037  10.523 -0.2857  0.4767  0.1250
  728MOL0     H  449   3.348   3.264  10.617 -1.0694  1.9354  0.2444
  728MOL0     H  450   3.056   3.798  10.613  0.7195  1.3781 -1.2666
  728MOL0     H  451   3.109   3.999  10.703 -0.0806 -0.2254 -0.3208
  728MOL0     H  452   3.222   4.205  10.743  0.3354  1.9432  0.0310
  728MOL0     H  453   3.358   4.253  10.845 -3.0461 -0.0991  1.6316
  728MOL0     H  454   3.355   4.118  10.573  0.0580 -0.3614  0.0659
  728MOL0     H  455   3.479   4.068  10.683  0.8214  1.9633  8.3295
  728MOL0     H  456   3.550   4.319  10.694  2.2457 -1.6952 -1.4842
  728MOL0     H  457   3.548   4.273  10.531 -0.8473 -1.0890 -1.0670
  728MOL0     H  458   3.432   4.497  10.546 -2.1485  0.8962 -0.2089
  728MOL0     H  459   3.357   4.444  10.696 -1.5809 -0.0713 -0.5007
  728MOL0     H  460   3.093   4.383  10.384  1.2989 -0.4925 -0.4149
  728MOL0     H  461   3.435   3.841  10.925  1.1055  0.7795 -0.7471
  728MOL0     H  462   3.378   3.521  10.933  2.7245  2.5621  2.3505
  728MOL0     H  463   3.430   3.521  10.760 -3.4195 -0.1493 -0.8845
  728MOL0     H  464   3.511   3.628  10.881  0.2038 -0.3313  1.8435
  729MOL0     O  465  10.914   4.628   8.139  0.4786  0.4452 -0.1798
  729MOL0     C  466  10.964   4.701   8.223 -0.2520  0.5660  0.1911
  729MOL0     O  467  10.898   4.802   8.285  0.7676  0.5832 -0.0172
  729MOL0     C  468  10.757   4.821   8.261  0.3651  0.9339 -0.6778
  729MOL0     C  469  10.703   4.951   8.283  0.3779  0.1031  0.3587
  729MOL0     C  470  10.569   4.983   8.253  0.1944 -0.1310  0.2411
  729MOL0     C  471  10.483   4.890   8.208  0.4077 -0.2255 -0.6369
  729MOL0     O  472  10.352   4.907   8.183  0.4016  0.0611  0.5296
  729MOL0     C  473  10.299   5.033   8.230 -0.2944  0.6170  0.5753
  729MOL0     C  474  10.151   5.016   8.219 -0.0131 -0.7093  0.3495
  729MOL0     C  475  10.068   5.022   8.082  0.9482 -0.3360  0.6636
  729MOL0     C  476   9.919   5.066   8.106 -0.5512 -0.3366 -0.6639
  729MOL0     C  477   9.858   4.973   8.212  0.3856 -0.2192 -0.0016
  729MOL0     C  478   9.718   5.015   8.237 -0.1458  0.1909  0.5107
  729MOL0     C  479   9.654   4.937   8.355 -0.0472 -0.2714 -0.1501
  729MOL0     C  480   9.622   4.795   8.309 -0.4669 -0.4132 -0.3763
  729MOL0     N  481   9.565   4.723   8.427  0.8069 -0.4405  0.7993
  729MOL0     C  482   9.617   4.701   8.547 -0.6079  0.1102 -0.0892
  729MOL0     C  483   9.532   4.617   8.614  0.7702 -0.4231 -0.6834
  729MOL0     C  484   9.541   4.561   8.761  0.3629 -0.3334  1.0683
  729MOL0     C  485   9.465   4.642   8.866  0.3931 -0.0501 -0.2829
  729MOL0     C  486   9.504   4.601   9.000 -0.3241  0.2895 -0.5961
  729MOL0     C  487   9.441   4.688   9.114  0.4801 -0.4742 -0.3636
  729MOL0     O  488   9.292   4.688   9.117 -1.4698  0.6005  0.1138
  729MOL0     C  489   9.223   4.627   9.219  0.0484 -1.1111  0.5962
  729MOL0     C  490   9.259   4.526   9.302 -0.8930 -0.3969 -0.6556
  729MOL0     C  491   9.170   4.483   9.400 -1.1549  0.2818 -0.8065
  729MOL0     C  492   9.222   4.376   9.491 -0.0783 -0.2280 -1.8958
  729MOL0     C  493   9.043   4.542   9.424  0.1437 -1.3494  0.4270
  729MOL0     C  494   8.946   4.509   9.528  0.3981  0.1729  0.2201
  729MOL0     O  495   8.832   4.596   9.539 -0.3038  0.0647  0.1146
  729MOL0     C  496   8.725   4.553   9.620 -0.6894  0.0387 -0.7088
  729MOL0     C  497   8.693   4.605   9.748  0.2444  0.1948  0.0736
  729MOL0     C  498   8.584   4.542   9.817 -0.0401 -0.0107  0.0487
  729MOL0     C  499   8.522   4.423   9.771  0.1544  0.0820  0.4928
  729MOL0     O  500   8.449   4.333   9.851  0.4761 -0.0018 -0.0200
  729MOL0     C  501   8.446   4.353   9.996  0.1109  0.3072  0.0797
  729MOL0     C  502   8.385   4.237  10.086  0.3084 -0.2792 -0.5448
  729MOL0     C  503   8.241   4.239  10.057 -0.5255  1.2617 -0.4778
  729MOL0     C  504   8.204   4.117   9.974  1.3393 -1.6430 -0.7749
  729MOL0     C  505   8.051   4.111   9.982  0.9114 -0.6641 -0.2901
  729MOL0     C  506   7.984   3.995   9.901 -0.2048 -0.2760 -0.7022
  729MOL0     C  507   8.049   3.852   9.925 -0.1917 -0.3368  0.1406
  729MOL0     C  508   7.980   3.734   9.853 -0.7136 -0.5123  0.0269
  729MOL0    Cl  509   7.821   3.710   9.928 -0.1005 -0.1037 -0.1877
  729MOL0     C  510   8.555   4.376   9.644 -0.0183  0.3235  0.4708
  729MOL0     C  511   8.656   4.438   9.572 -0.3807  0.1769 -1.2259
  729MOL0     O  512   8.959   4.401   9.588  0.2260 -0.6350 -1.1073
  729MOL0     C  513   9.005   4.640   9.331 -0.1461 -0.0496 -0.6342
  729MOL0     C  514   9.095   4.687   9.228  0.0398  0.2628 -0.4882
  729MOL0     N  515   9.423   4.594   8.543 -0.0345 -0.6804  0.1571
  729MOL0     N  516   9.441   4.665   8.429 -0.2197  1.3514 -0.9459
  729MOL0     C  517  10.526   4.761   8.189 -0.0606 -0.6579  0.0398
  729MOL0     C  518  10.657   4.728   8.225  0.4622 -0.4161  0.8988
  729MOL0     C  519  11.109   4.669   8.252  0.0494 -0.2159 -0.2402
  729MOL0     C  520  11.163   4.538   8.225  0.0143  0.7295  0.7950
  729MOL0     C  521  11.293   4.503   8.269  0.6575 -0.6300 -0.3141
  729MOL0     C  522  11.370   4.588   8.339  0.0029  0.3988 -0.4100
  729MOL0     O  523  11.487   4.535   8.382 -0.1666  0.5960 -0.9863
  729MOL0     C  524  11.573   4.622   8.445  0.4964 -0.6153 -0.4342
  729MOL0     C  525  11.701   4.552   8.450 -1.0373  1.5772  0.3965
  729MOL0     C  526  11.763   4.535   8.307 -0.2993 -0.4004  0.2329
  729MOL0     C  527  11.901   4.488   8.324 -0.0358  0.6643  0.0147
  729MOL0     C  528  11.991   4.526   8.215 -1.1423 -0.9137 -0.0849
  729MOL0     C  529  12.033   4.543   8.099 -0.2360  0.4677  0.0469
  729MOL0     C  530  11.315   4.717   8.367 -0.9820  1.6659  0.9768
  729MOL0     C  531  11.193   4.754   8.314  0.3392  0.9837 -0.8496
  729MOL0     C  532  11.158   4.898   8.344  0.6298  1.1724  0.3742
  729MOL0     H  533  10.770   5.031   8.314 -0.9162  0.6371  1.8816
  729MOL0     H  534  10.531   5.084   8.265 -1.4534 -0.4117 -2.0028
  729MOL0     H  535  10.340   5.117   8.173  0.1769  1.7166  2.4423
  729MOL0     H  536  10.327   5.043   8.335 -1.3011  3.0906  0.6799
  729MOL0     H  537  10.126   4.919   8.264 -0.5182 -1.2873 -1.1123
  729MOL0     H  538  10.114   5.103   8.274  0.6601  2.2365 -3.4373
  729MOL0     H  539  10.100   5.097   8.009  0.3325 -0.3089  0.4184
  729MOL0     H  540  10.067   4.923   8.036  0.2916  1.3170 -3.1968
  729MOL0     H  541   9.916   5.173   8.127  2.3051 -0.8252  3.4365
  729MOL0     H  542   9.866   5.060   8.011  0.4577  0.5965 -1.3114
  729MOL0     H  543   9.915   4.989   8.304  1.3034  2.2177 -0.9017
  729MOL0     H  544   9.867   4.870   8.178  3.3144 -0.0305 -0.0882
  729MOL0     H  545   9.736   5.121   8.257  2.6952  0.1417 -1.1746
  729MOL0     H  546   9.652   5.021   8.151  0.5516 -0.3003 -0.0707
  729MOL0     H  547   9.578   4.994   8.409  1.7832  0.3260  1.9924
  729MOL0     H  548   9.735   4.927   8.428  0.7184  0.3580 -0.8837
  729MOL0     H  549   9.565   4.788   8.216 -0.5782  1.4472 -0.4784
  729MOL0     H  550   9.715   4.745   8.280 -0.2188 -0.4916  0.5190
  729MOL0     H  551   9.714   4.743   8.572  0.5087 -1.5402 -1.3568
  729MOL0     H  552   9.648   4.568   8.782  0.2057  4.5903  1.3427
  729MOL0     H  553   9.493   4.463   8.758 -3.0748  1.2334 -1.8411
  729MOL0     H  554   9.491   4.747   8.853 -0.5233  0.4446  1.5518
  729MOL0     H  555   9.359   4.623   8.850  0.8883 -1.0699 -2.8003
  729MOL0     H  556   9.466   4.501   9.021  1.6274  0.0940  2.7341
  729MOL0     H  557   9.613   4.603   9.011 -0.4630 -2.5017  3.3174
  729MOL0     H  558   9.485   4.653   9.208  1.3580  0.9125 -0.2315
  729MOL0     H  559   9.482   4.788   9.104  2.8340 -1.1389  1.6238
  729MOL0     H  560   9.354   4.475   9.298 -1.3156 -1.3952  0.8647
  729MOL0     H  561   9.155   4.290   9.483 -2.1197  0.5892  3.0604
  729MOL0     H  562   9.232   4.399   9.597  1.8028 -3.3228 -1.2794
  729MOL0     H  563   9.319   4.339   9.457  1.3454  2.3502 -0.9523
  729MOL0     H  564   8.750   4.679   9.802 -3.3401  1.6943  2.1791
  729MOL0     H  565   8.572   4.580   9.918  1.6280  0.8397 -0.0311
  729MOL0     H  566   8.550   4.332  10.026  0.2495  1.3572  0.3707
  729MOL0     H  567   8.409   4.450  10.030  1.9450  0.6786  1.1874
  729MOL0     H  568   8.426   4.137  10.068 -3.2675 -1.8797 -0.7842
  729MOL0     H  569   8.394   4.257  10.193 -2.8016 -1.5501  0.0720
  729MOL0     H  570   8.202   4.329  10.007 -3.2014 -0.2257 -1.2967
  729MOL0     H  571   8.200   4.219  10.156  2.0819  0.6870  0.5714
  729MOL0     H  572   8.234   4.031  10.034  2.7102  1.6823  3.9274
  729MOL0     H  573   8.237   4.124   9.870 -1.8702 -0.6936 -1.8503
  729MOL0     H  574   8.010   4.108  10.083  0.4116  0.2421 -0.4495
  729MOL0     H  575   8.007   4.207   9.952 -0.5603 -1.3535 -0.4005
  729MOL0     H  576   7.999   4.016   9.795  3.9731  1.7918  0.1120
  729MOL0     H  577   7.881   4.003   9.937  1.2856 -0.2175  4.3486
  729MOL0     H  578   8.051   3.824  10.031 -1.2240  0.4894  0.3974
  729MOL0     H  579   8.150   3.853   9.884 -0.3031  1.0688 -0.1536
  729MOL0     H  580   8.040   3.647   9.878  0.8292 -0.5370 -3.2437
  729MOL0     H  581   7.980   3.742   9.744 -1.6139 -1.2163 -0.0276
  729MOL0     H  582   8.504   4.290   9.603 -1.6924  1.3558  0.2837
  729MOL0     H  583   8.695   4.407   9.476  1.0292 -1.3689 -0.2101
  729MOL0     H  584   8.907   4.686   9.325 -1.2483 -1.7871  2.0815
  729MOL0     H  585   9.072   4.760   9.151 -0.8552 -0.1669 -0.6441
  729MOL0     H  586  10.450   4.692   8.153 -0.8093 -0.3754  1.0169
  729MOL0     H  587  10.690   4.625   8.218  4.0784  0.4857  2.2063
  729MOL0     H  588  11.107   4.463   8.170  0.1840  1.8571 -0.9939
  729MOL0     H  589  11.333   4.403   8.252  0.7619 -0.7792  0.7673
  729MOL0     H  590  11.576   4.716   8.390  1.3169 -0.1376  0.4029
  729MOL0     H  591  11.535   4.644   8.546 -1.6845 -4.2032 -0.2863
  729MOL0     H  592  11.674   4.456   8.494 -0.7817  0.6281 -1.4265
  729MOL0     H  593  11.763   4.598   8.528 -2.4087  0.1647  2.4283
  729MOL0     H  594  11.698   4.481   8.238  0.6104  2.5967 -3.3302
  729MOL0     H  595  11.774   4.636   8.267  0.5047 -0.0697  1.2473
  729MOL0     H  596  11.913   4.380   8.329 -1.7887  0.4969  3.8667
  729MOL0     H  597  11.940   4.514   8.423  1.5893  0.8679 -0.6450
  729MOL0     H  598  12.074   4.566   8.003  1.1179 -2.3271 -0.1560
  729MOL0     H  599  11.368   4.795   8.421  1.1360  0.4168  0.8065
  729MOL0     H  600  11.246   4.949   8.385  1.5481 -1.3785  1.8825
  729MOL0     H  601  11.120   4.953   8.258 -0.5521  1.3066  0.9692
  729MOL0     H  602  11.086   4.898   8.426  0.2307 -2.3456  0.1812
  730MOL0     O  603  10.074   1.160   5.573 -1.0721  0.1928  0.9682
  730MOL0     C  604  10.014   1.108   5.476  0.3621 -0.0989  0.9483
  730MOL0     O  605  10.019   0.982   5.432 -0.2299 -0.2635  0.7975
  730MOL0     C  606  10.133   0.910   5.449  0.3685  0.2042 -0.5175
  730MOL0     C  607  10.115   0.778   5.504 -0.5910 -0.4201 -0.4548
  730MOL0     C  608  10.230   0.692   5.490  0.3661  0.5394 -0.8310
  730MOL0     C  609  10.354   0.732   5.433  0.1109 -0.5263 -0.4068
  730MOL0     O  610  10.454   0.641   5.436 -0.0573 -0.1791  0.4026
  730MOL0     C  611  10.586   0.694   5.449 -0.1480  0.4488  0.1223
  730MOL0     C  612  10.673   0.578   5.420 -0.1175  0.0821 -0.5258
  730MOL0     C  613  10.823   0.622   5.417 -0.3490  0.4877  0.4615
  730MOL0     C  614  10.928   0.539   5.476 -0.3226  0.1141 -0.6142
  730MOL0     C  615  11.063   0.603   5.457 -0.2131  0.1443 -0.1131
  730MOL0     C  616  11.183   0.500   5.448  0.0532  0.1678 -0.2033
  730MOL0     C  617  11.321   0.553   5.458 -0.1388 -0.0474 -0.3009
  730MOL0     C  618  11.373   0.625   5.329 -0.0628  1.0580 -0.2636
  730MOL0     N  619  11.469   0.729   5.373 -0.4752  0.3933 -0.6278
  730MOL0     C  620  11.448   0.847   5.434 -0.8528  0.1980  0.6627
  730MOL0     C  621  11.572   0.872   5.475 -0.1463 -0.2677 -0.0182
  730MOL0     C  622  11.609   0.997   5.532  0.0399 -0.1735 -0.6726
  730MOL0     C  623  11.588   1.130   5.458 -0.7668 -0.8524 -0.1730
  730MOL0     C  624  11.652   1.247   5.536  1.0836  0.9398 -0.8662
  730MOL0     C  625  11.560   1.296   5.645  0.2888  0.6933  0.2890
  730MOL0     O  626  11.629   1.383   5.730  0.0139 -0.2567  0.2452
  730MOL0     C  627  11.617   1.367   5.867 -0.5245 -0.7199  0.6835
  730MOL0     C  628  11.505   1.331   5.941  0.3106 -0.7407 -0.2208
  730MOL0     C  629  11.505   1.320   6.079  0.1404 -0.4284 -0.1666
  730MOL0     C  630  11.375   1.272   6.133  0.2742 -0.2919 -1.2573
  730MOL0     C  631  11.615   1.361   6.160 -0.7671  1.1908 -0.4381
  730MOL0     C  632  11.624   1.376   6.303 -0.5666 -0.1034  0.2562
  730MOL0     O  633  11.750   1.404   6.359  0.3184 -0.7544  0.2861
  730MOL0     C  634  11.771   1.347   6.476 -0.1084 -0.6926 -0.4659
  730MOL0     C  635  11.756   1.421   6.590  0.3686 -0.5979  0.8115
  730MOL0     C  636  11.793   1.368   6.710 -0.8112 -0.1342 -0.4239
  730MOL0     C  637  11.831   1.231   6.724 -0.1959  0.0216 -0.6003
  730MOL0     O  638  11.852   1.188   6.857  0.3529  0.4789 -0.7814
  730MOL0     C  639  11.946   1.081   6.868  0.2241  0.4481 -0.2293
  730MOL0     C  640  11.982   1.062   7.017 -0.2921 -0.1435 -0.1636
  730MOL0     C  641  12.043   0.921   7.029  0.1471 -0.3086  0.6977
  730MOL0     C  642  12.016   0.854   7.169 -0.4154  0.1792  0.3180
  730MOL0     C  643  11.873   0.798   7.196  0.1036  1.0081  0.1435
  730MOL0     C  644  11.880   0.643   7.176  0.2151 -0.1586 -0.0187
  730MOL0     C  645  11.742   0.583   7.209  0.3865  0.4470  0.2489
  730MOL0     C  646  11.729   0.447   7.285 -0.1007 -0.0654  0.0428
  730MOL0    Cl  647  11.563   0.391   7.290  0.0663 -0.7901 -0.3670
  730MOL0     C  648  11.849   1.158   6.601  0.2900 -0.6873 -0.4703
  730MOL0     C  649  11.821   1.215   6.476  0.7288  0.0485  0.9189
  730MOL0     O  650  11.516   1.378   6.368 -0.5562  0.8042 -0.9236
  730MOL0     C  651  11.730   1.403   6.087 -1.1412 -0.0667  0.9487
  730MOL0     C  652  11.728   1.406   5.945 -0.5884  0.2432 -0.4291
  730MOL0     N  653  11.667   0.772   5.455 -0.1372 -0.2117  0.0443
  730MOL0     N  654  11.603   0.693   5.380  0.2276  0.3441  0.4098
  730MOL0     C  655  10.362   0.866   5.384 -0.6935  0.5212 -0.3225
  730MOL0     C  656  10.248   0.944   5.372 -1.2104  0.3906  0.4822
  730MOL0     C  657   9.939   1.202   5.392 -0.3068 -0.7867 -0.8805
  730MOL0     C  658   9.816   1.163   5.346 -0.3812  0.2340 -0.1323
  730MOL0     C  659   9.732   1.251   5.283 -0.1188  0.2867  0.3615
  730MOL0     C  660   9.775   1.385   5.279  0.0549 -0.4250  0.3579
  730MOL0     O  661   9.675   1.468   5.240 -0.8598  0.1574  0.5366
  730MOL0     C  662   9.697   1.606   5.218  0.4953  0.3451  0.1216
  730MOL0     C  663   9.708   1.677   5.353  0.1652 -0.2062  0.0734
  730MOL0     C  664   9.695   1.830   5.346 -0.0907  0.3446  0.7336
  730MOL0     C  665   9.821   1.887   5.277  0.1850  0.9535  0.4402
  730MOL0     C  666   9.948   1.866   5.346 -0.0520 -0.0193  1.1134
  730MOL0     C  667  10.046   1.845   5.414 -0.8878 -0.1722  0.4628
  730MOL0     C  668   9.901   1.424   5.303 -1.0841 -0.7621 -0.1362
  730MOL0     C  669   9.993   1.323   5.353 -0.1598  0.3669  0.6323
  730MOL0     C  670  10.134   1.371   5.364  0.0736  0.4923 -0.0850
  730MOL0     H  671  10.024   0.751   5.557 -0.2327  1.3427  1.1939
  730MOL0     H  672  10.230   0.593   5.534  1.4569  0.6851 -0.4701
  730MOL0     H  673  10.602   0.741   5.547  0.0902  1.6992 -0.4893
  730MOL0     H  674  10.614   0.770   5.376 -2.9894  1.3568 -0.1210
  730MOL0     H  675  10.659   0.503   5.498  2.7012  2.4950  2.6436
  730MOL0     H  676  10.639   0.526   5.330  1.3440 -3.0486  0.5688
  730MOL0     H  677  10.852   0.639   5.314 -1.3721 -1.8948 -0.2965
  730MOL0     H  678  10.820   0.722   5.462 -0.5656  0.7035 -0.0253
  730MOL0     H  679  10.907   0.518   5.581  1.5635 -2.5456 -0.6718
  730MOL0     H  680  10.932   0.443   5.424  0.3564 -1.1216  1.6103
  730MOL0     H  681  11.075   0.685   5.529  1.3091  1.0847 -1.3804
  730MOL0     H  682  11.074   0.647   5.358  1.2724 -2.7991 -1.3990
  730MOL0     H  683  11.179   0.437   5.537 -0.8379 -2.0277 -1.7142
  730MOL0     H  684  11.169   0.438   5.359  0.0786  0.5508 -0.4739
  730MOL0     H  685  11.401   0.487   5.494 -2.1492 -3.2474 -1.2897
  730MOL0     H  686  11.313   0.632   5.532 -1.2617  3.0427 -3.4412
  730MOL0     H  687  11.421   0.553   5.262 -0.8655 -0.0962  0.3532
  730MOL0     H  688  11.283   0.674   5.292 -0.9483  1.8124  2.6264
  730MOL0     H  689  11.354   0.900   5.420 -2.3701 -2.3771  0.4805
  730MOL0     H  690  11.711   0.973   5.562  0.4493 -2.1395 -3.2575
  730MOL0     H  691  11.563   1.008   5.630  0.7061  2.1160 -0.5694
  730MOL0     H  692  11.643   1.114   5.364 -0.2507  2.4808 -0.5622
  730MOL0     H  693  11.481   1.140   5.439 -0.6115 -0.3119 -0.8046
  730MOL0     H  694  11.741   1.213   5.591 -1.1991  0.2785  2.7413
  730MOL0     H  695  11.676   1.333   5.472  2.0739 -0.5736 -2.6025
  730MOL0     H  696  11.468   1.339   5.604 -0.0840  0.6432  1.0598
  730MOL0     H  697  11.526   1.205   5.696  1.5749 -0.9171 -1.5408
  730MOL0     H  698  11.419   1.312   5.877  1.0564 -1.2507 -1.0855
  730MOL0     H  699  11.320   1.352   6.184  1.9899  0.5863 -0.7052
  730MOL0     H  700  11.391   1.186   6.199  1.9781 -2.9059 -4.7414
  730MOL0     H  701  11.315   1.230   6.051  1.1302  0.1761 -2.1512
  730MOL0     H  702  11.716   1.521   6.583  1.1420 -0.3960 -2.2659
  730MOL0     H  703  11.785   1.428   6.800  3.2154 -3.5242  2.5703
  730MOL0     H  704  11.898   1.000   6.812 -2.4446  2.1898 -0.6593
  730MOL0     H  705  12.042   1.101   6.820 -0.3106 -0.0651 -1.5623
  730MOL0     H  706  12.055   1.142   7.032 -0.1331  0.4546 -3.3110
  730MOL0     H  707  11.890   1.058   7.077 -0.5221 -0.0942 -0.5073
  730MOL0     H  708  12.152   0.927   7.023  0.4583 -4.2884 -0.2468
  730MOL0     H  709  12.020   0.851   6.949  0.5632 -0.4670  0.7138
  730MOL0     H  710  12.038   0.927   7.247 -1.5701  1.2620 -0.3345
  730MOL0     H  711  12.088   0.772   7.180 -0.0681  0.5907  1.1906
  730MOL0     H  712  11.837   0.825   7.296 -0.4356  1.7584 -0.2453
  730MOL0     H  713  11.805   0.842   7.123  1.8736  0.1645 -2.1185
  730MOL0     H  714  11.952   0.591   7.240  1.6901 -3.9047 -4.1703
  730MOL0     H  715  11.899   0.608   7.074 -3.2658  0.5785 -1.0488
  730MOL0     H  716  11.691   0.571   7.113 -1.7217  2.4761  1.0128
  730MOL0     H  717  11.675   0.657   7.255  0.6779  0.0614  1.3151
  730MOL0     H  718  11.773   0.448   7.385  0.3052 -1.5275 -0.0901
  730MOL0     H  719  11.777   0.365   7.230  1.9502  0.6989  0.6153
  730MOL0     H  720  11.881   1.054   6.595 -1.8522 -1.3118 -2.8048
  730MOL0     H  721  11.828   1.167   6.379 -0.2109  3.4298 -0.9710
  730MOL0     H  722  11.827   1.427   6.130 -0.7387 -0.2057  0.1386
  730MOL0     H  723  11.817   1.432   5.888 -0.9864  1.1445 -0.6520
  730MOL0     H  724  10.447   0.909   5.332 -0.0263 -0.0098  0.3151
  730MOL0     H  725  10.248   1.028   5.303  1.8576 -1.1659 -1.6445
  730MOL0     H  726   9.775   1.064   5.360  0.4757  0.0262  1.0364
  730MOL0     H  727   9.635   1.210   5.254 -0.0666 -2.1953  3.1864
  730MOL0     H  728   9.779   1.619   5.146 -3.0955 -1.4048 -4.9140
  730MOL0     H  729   9.610   1.647   5.166  2.9452  3.0837 -2.1793
  730MOL0     H  730   9.798   1.653   5.412  0.6735 -0.5460 -0.8221
  730MOL0     H  731   9.622   1.647   5.414 -0.2665 -0.5120 -0.6700
  730MOL0     H  732   9.601   1.857   5.296  0.8811 -0.0642 -1.4252
  730MOL0     H  733   9.696   1.877   5.445  0.6294 -0.1702  0.9750
  730MOL0     H  734   9.827   1.997   5.272  3.5897  0.9286  1.5010
  730MOL0     H  735   9.836   1.846   5.177  3.5926  1.5340  0.5787
  730MOL0     H  736  10.128   1.825   5.479  1.2111  0.0628 -1.9595
  730MOL0     H  737   9.934   1.523   5.273  3.5407 -1.0445  2.9531
  730MOL0     H  738  10.192   1.292   5.413 -1.9582  0.8300  3.1322
  730MOL0     H  739  10.163   1.394   5.261 -0.9253  1.2319 -0.2163
  730MOL0     H  740  10.127   1.459   5.428 -3.2987  1.4513 -1.5397
  731MOL0     O  741   4.408   3.820   0.225  0.0977 -0.4543 -0.0679
  731MOL0     C  742   4.419   3.704   0.205 -0.1384  0.5270 -0.4183
  731MOL0     O  743   4.325   3.610   0.245  0.2955 -0.0935 -0.9585
  731MOL0     C  744   4.251   3.653   0.346 -0.2544 -1.1700 -0.0412
  731MOL0     C  745   4.165   3.767   0.344 -0.7453 -0.0378 -0.2585
  731MOL0     C  746   4.097   3.794   0.460 -0.1400 -0.6989 -0.7855
  731MOL0     C  747   4.126   3.723   0.581 -0.2829 -0.3880  0.2987
  731MOL0     O  748   4.072   3.778   0.692  0.5382 -0.6299  0.3780
  731MOL0     C  749   3.948   3.741   0.734  0.6067 -1.0377  0.3272
  731MOL0     C  750   3.866   3.841   0.827 -0.7881  0.2220  0.2597
  731MOL0     C  751   3.822   3.972   0.765  0.3035  0.2064 -0.5102
  731MOL0     C  752   3.942   4.068   0.760 -0.1730  0.9318  1.2042
  731MOL0     C  753   3.897   4.209   0.699  2.1236 -1.0144  0.2633
  731MOL0     C  754   4.007   4.299   0.665 -0.8050 -0.2584  0.6714
  731MOL0     C  755   3.970   4.438   0.620  0.3799 -0.1665  1.1741
  731MOL0     C  756   4.102   4.524   0.616  0.5658 -0.2196 -0.0424
  731MOL0     N  757   4.098   4.659   0.554 -0.4418 -0.4948 -0.2999
  731MOL0     C  758   4.222   4.719   0.543 -0.4102 -0.6740  1.0334
  731MOL0     C  759   4.193   4.850   0.521  0.6989  0.4507  0.1232
  731MOL0     C  760   4.298   4.972   0.517  0.2995 -0.5056 -0.4721
  731MOL0     C  761   4.381   4.958   0.392  0.8468  0.2801  0.8695
  731MOL0     C  762   4.468   5.078   0.383 -0.6531  0.6940  0.0852
  731MOL0     C  763   4.549   5.079   0.252 -0.0091 -0.4506 -0.3096
  731MOL0     O  764   4.666   5.155   0.268 -0.7299  0.0129  0.0925
  731MOL0     C  765   4.759   5.135   0.171 -0.2563 -0.1152  1.1214
  731MOL0     C  766   4.891   5.194   0.205  0.8500 -0.0932  1.4307
  731MOL0     C  767   5.001   5.165   0.116 -0.2585  0.4287 -0.3822
  731MOL0     C  768   5.124   5.246   0.173  0.5473 -0.1060  0.8324
  731MOL0     C  769   4.983   5.100  -0.001  0.7124  0.4153 -0.1577
  731MOL0     C  770   5.085   5.092  -0.109 -0.2330 -0.1734  0.0321
  731MOL0     O  771   5.212   5.109  -0.078  0.1283  0.6458 -0.0836
  731MOL0     C  772   5.308   5.112  -0.178  1.0369 -0.5843  0.1366
  731MOL0     C  773   5.404   5.211  -0.195 -0.0753 -0.0912  0.9566
  731MOL0     C  774   5.488   5.223  -0.305 -0.3681  0.0090 -0.1555
  731MOL0     C  775   5.486   5.129  -0.401 -0.5542  0.7383 -0.5274
  731MOL0     O  776   5.580   5.140  -0.500 -0.0082 -0.5438 -0.6741
  731MOL0     C  777   5.596   5.057  -0.611 -0.1420  1.2233 -0.1408
  731MOL0     C  778   5.679   5.110  -0.725  0.5842  0.1092  1.4099
  731MOL0     C  779   5.660   5.264  -0.748 -0.5419 -0.5034  0.2653
  731MOL0     C  780   5.734   5.330  -0.874  0.4061 -0.1597 -0.6725
  731MOL0     C  781   5.880   5.300  -0.863  0.2840  0.1703 -0.5365
  731MOL0     C  782   5.944   5.347  -0.994  0.2752  0.0275  0.1661
  731MOL0     C  783   5.957   5.494  -1.007  0.0839  0.1900  0.5372
  731MOL0     C  784   6.072   5.541  -1.112  0.3103 -0.5842  1.4000
  731MOL0    Cl  785   6.026   5.464  -1.264 -0.1929  0.3847  0.3494
  731MOL0     C  786   5.399   5.019  -0.389 -1.1713 -0.3137 -0.0086
  731MOL0     C  787   5.316   5.013  -0.276 -0.6105 -0.2608  0.4368
  731MOL0     O  788   5.041   5.072  -0.224 -0.1453  0.0902 -0.8323
  731MOL0     C  789   4.847   5.060  -0.039  1.1631  0.4192  0.4289
  731MOL0     C  790   4.740   5.070   0.045  0.0341 -0.1583 -0.1055
  731MOL0     N  791   4.053   4.872   0.530 -0.0678  0.2417 -0.3773
  731MOL0     N  792   3.991   4.755   0.551 -0.0164 -0.1096 -0.3626
  731MOL0     C  793   4.219   3.619   0.584  0.5608  0.2772  1.0128
  731MOL0     C  794   4.293   3.591   0.461  0.1196 -0.1362  0.2845
  731MOL0     C  795   4.511   3.656   0.107  0.0925 -0.7980  0.0903
  731MOL0     C  796   4.506   3.456   0.048  0.5251  0.2515  0.5601
  731MOL0     C  797   4.641   3.388  -0.109  0.7097 -0.6504 -0.6528
  731MOL0     C  798   4.771   3.524  -0.204 -0.4890  0.0193 -0.5796
  731MOL0     O  799   4.865   3.472  -0.289  0.8183 -0.0759  0.0605
  731MOL0     C  800   4.962   3.558  -0.333  0.0691 -0.3371  0.3194
  731MOL0     C  801   4.903   3.645  -0.451 -0.7506 -0.1762 -0.7973
  731MOL0     C  802   4.988   3.764  -0.485 -0.6503  0.4401  0.3034
  731MOL0     C  803   5.129   3.723  -0.553  0.5249 -0.0865 -0.2353
  731MOL0     C  804   5.116   3.658  -0.684 -0.8796 -0.4900 -0.3472
  731MOL0     C  805   5.073   3.643  -0.799 -0.1234  0.0029 -0.1599
  731MOL0     C  806   4.768   3.727  -0.147  0.3898  0.6912 -0.1874
  731MOL0     C  807   4.641   3.794   0.005  0.2076 -0.0683 -0.6068
  731MOL0     C  808   4.637   3.943   0.042 -0.7791  0.4022  0.1498
  731MOL0     H  809   4.156   3.827   0.254 -0.6769 -0.9811 -0.9107
  731MOL0     H  810   4.049   3.891   0.463  0.3703 -0.4083 -1.7889
  731MOL0     H  811   3.940   3.642   0.780  0.4328 -1.4065 -0.4730
  731MOL0     H  812   3.887   3.728   0.644  0.5762  0.0435  0.1727
  731MOL0     H  813   3.775   3.786   0.854 -1.5540  1.8648  1.1326
  731MOL0     H  814   3.926   3.859   0.917  1.4284 -0.8572 -0.9035
  731MOL0     H  815   3.781   3.966   0.663 -2.7882  0.2636  0.6267
  731MOL0     H  816   3.737   4.011   0.822 -2.4860 -1.4451 -3.2065
  731MOL0     H  817   3.993   4.062   0.857  2.0517 -7.0473  0.2185
  731MOL0     H  818   4.025   4.038   0.696 -0.1582 -0.6108  1.8860
  731MOL0     H  819   3.831   4.256   0.773 -1.0400 -3.2474 -0.9074
  731MOL0     H  820   3.823   4.197   0.619 -1.3640  0.8367  2.8643
  731MOL0     H  821   4.068   4.296   0.756 -1.3794  0.1134  1.0766
  731MOL0     H  822   4.062   4.256   0.581  0.3561 -0.0188  1.2971
  731MOL0     H  823   3.890   4.491   0.671  0.8034  0.5396  1.1250
  731MOL0     H  824   3.938   4.426   0.516  0.1947 -2.5877  1.4520
  731MOL0     H  825   4.131   4.534   0.721  0.8511  0.4385 -0.1788
  731MOL0     H  826   4.176   4.472   0.554 -0.5323 -1.8340 -0.0677
  731MOL0     H  827   4.320   4.674   0.544  0.3564  0.9431  1.2815
  731MOL0     H  828   4.363   4.971   0.604  0.7145  2.2050 -0.6646
  731MOL0     H  829   4.243   5.067   0.512 -2.9617 -2.1946  0.0062
  731MOL0     H  830   4.435   4.865   0.407 -1.5090 -0.9863  2.2180
  731MOL0     H  831   4.323   4.946   0.300  2.0955  0.2998  0.0667
  731MOL0     H  832   4.409   5.169   0.396 -0.9678  0.7365 -1.4735
  731MOL0     H  833   4.536   5.077   0.469 -2.4029  2.0423  1.5693
  731MOL0     H  834   4.561   4.977   0.213 -2.8504  0.4221 -4.1241
  731MOL0     H  835   4.496   5.135   0.174  1.0118  1.9784  0.6406
  731MOL0     H  836   4.897   5.252   0.296 -2.7024 -0.6951  2.1714
  731MOL0     H  837   5.145   5.330   0.107  2.0356 -1.1528 -0.0841
  731MOL0     H  838   5.210   5.181   0.190  1.1693  0.6365  0.5713
  731MOL0     H  839   5.098   5.301   0.264  1.2169  4.1412 -1.2803
  731MOL0     H  840   5.400   5.283  -0.114 -0.6590  3.7345 -2.1760
  731MOL0     H  841   5.571   5.292  -0.319  2.4591 -3.3118 -1.2703
  731MOL0     H  842   5.630   4.960  -0.576  2.1992  0.8350 -3.0905
  731MOL0     H  843   5.491   5.048  -0.640 -0.3951  2.2529  0.4041
  731MOL0     H  844   5.783   5.089  -0.699  1.5779  2.0770 -0.5519
  731MOL0     H  845   5.652   5.054  -0.815  3.0039  2.2234 -0.8058
  731MOL0     H  846   5.700   5.321  -0.664 -0.5965  1.1603 -0.7894
  731MOL0     H  847   5.552   5.278  -0.759 -0.7920 -1.4821  1.1975
  731MOL0     H  848   5.719   5.438  -0.880 -2.3704 -0.3478  0.9273
  731MOL0     H  849   5.688   5.285  -0.963  0.3026 -0.5223 -0.4386
  731MOL0     H  850   5.940   5.348  -0.785  0.9515 -1.0199 -0.2905
  731MOL0     H  851   5.892   5.192  -0.851  0.6108  0.3547  1.0851
  731MOL0     H  852   5.887   5.311  -1.080 -0.2407  2.4755 -0.5926
  731MOL0     H  853   6.050   5.318  -0.995  0.6272  1.2073  0.6900
  731MOL0     H  854   5.974   5.541  -0.910 -1.7762 -0.3414  1.1573
  731MOL0     H  855   5.863   5.533  -1.046  0.5564  1.4680  0.6490
  731MOL0     H  856   6.173   5.507  -1.088  3.2466  2.7706 -4.1459
  731MOL0     H  857   6.084   5.649  -1.116  0.9777 -0.6650 -2.7796
  731MOL0     H  858   5.413   4.949  -0.471  0.6437 -0.6656  0.5472
  731MOL0     H  859   5.251   4.928  -0.260  1.4367 -1.4720  3.0280
  731MOL0     H  860   4.821   5.027  -0.139 -1.9763  2.2908  0.4891
  731MOL0     H  861   4.642   5.034   0.016  0.1069 -0.3393 -0.1302
  731MOL0     H  862   4.246   3.556   0.669  1.8055 -2.2281 -1.1123
  731MOL0     H  863   4.374   3.519   0.459  3.0623  2.9208 -0.6265
  731MOL0     H  864   4.435   3.386   0.091  2.0916 -0.8828  1.3839
  731MOL0     H  865   4.643   3.283  -0.135  0.1611 -1.2685  1.5328
  731MOL0     H  866   5.003   3.609  -0.246 -2.5563  2.9539 -0.1598
  731MOL0     H  867   5.039   3.504  -0.390 -2.9257 -1.2234 -3.3283
  731MOL0     H  868   4.811   3.687  -0.410 -0.3266 -1.5302  1.8009
  731MOL0     H  869   4.898   3.585  -0.542  2.1374 -1.6316 -0.1265
  731MOL0     H  870   4.931   3.836  -0.544  0.7146 -0.3376 -2.0950
  731MOL0     H  871   5.002   3.823  -0.394 -2.5468 -0.4426  1.2197
  731MOL0     H  872   5.179   3.669  -0.472 -1.1527 -1.0825  0.1876
  731MOL0     H  873   5.189   3.810  -0.579  0.4345 -0.1697 -0.7439
  731MOL0     H  874   5.025   3.632  -0.894  2.4406 -1.1826 -1.4309
  731MOL0     H  875   4.832   3.805  -0.188 -0.0160  2.4347  2.2492
  731MOL0     H  876   4.717   3.994  -0.012  0.6355 -0.9070  0.9290
  731MOL0     H  877   4.540   3.985   0.016 -0.3142  0.9514 -0.7434
  731MOL0     H  878   4.662   3.962   0.147  0.2637  2.3818 -0.4041
  732MOL0     O  879   6.292   2.497   4.538  0.1946 -0.1177 -0.3136
  732MOL0     C  880   6.263   2.542   4.429 -0.2083 -0.1116  0.0586
  732MOL0     O  881   6.166   2.625   4.404 -0.1768  0.2409 -0.6502
  732MOL0     C  882   6.081   2.663   4.506  0.3169 -1.2978 -0.2415
  732MOL0     C  883   5.934   2.649   4.496 -0.1586 -0.0176  0.4371
  732MOL0     C  884   5.853   2.707   4.599 -0.1219  0.7830  0.5677
  732MOL0     C  885   5.905   2.772   4.708 -0.9874 -0.9574  0.0628
  732MOL0     O  886   5.822   2.831   4.799 -0.2759 -0.1833  0.3773
  732MOL0     C  887   5.878   2.870   4.926  0.3049 -0.6419  0.1988
  732MOL0     C  888   5.762   2.890   5.016 -0.2301 -0.5382 -0.0074
  732MOL0     C  889   5.691   3.016   4.975 -0.3169  0.6555 -0.8416
  732MOL0     C  890   5.543   3.012   5.017  0.4462 -0.1832 -0.1341
  732MOL0     C  891   5.479   3.150   4.961  0.5672  0.2056 -0.2934
  732MOL0     C  892   5.509   3.284   5.032  0.6266  0.3236 -0.7238
  732MOL0     C  893   5.519   3.270   5.194 -0.6950 -0.5182 -0.2698
  732MOL0     C  894   5.507   3.416   5.252 -0.1846  1.3366  0.0126
  732MOL0     N  895   5.371   3.464   5.238  0.3867 -0.3289 -1.0581
  732MOL0     C  896   5.338   3.572   5.165  0.5587 -0.9938  0.8309
  732MOL0     C  897   5.206   3.577   5.170 -1.1630  0.7354 -0.1960
  732MOL0     C  898   5.119   3.668   5.097  0.8048  0.0773 -0.6987
  732MOL0     C  899   5.147   3.823   5.117 -0.0968 -0.2917 -0.2247
  732MOL0     C  900   5.113   3.881   5.262 -0.1348 -0.1646  0.1895
  732MOL0     C  901   4.962   3.920   5.267  1.0988  0.1266 -0.4792
  732MOL0     O  902   4.865   3.806   5.245 -0.8041  0.3332  0.1397
  732MOL0     C  903   4.734   3.829   5.278 -0.6766 -0.0617 -0.1227
  732MOL0     C  904   4.649   3.714   5.279 -0.2488 -1.0154  1.1283
  732MOL0     C  905   4.509   3.741   5.302  0.2836  1.0707 -0.7647
  732MOL0     C  906   4.432   3.622   5.275  1.3709 -0.5503 -0.6214
  732MOL0     C  907   4.451   3.868   5.333  1.1130 -0.0274 -0.0426
  732MOL0     C  908   4.305   3.894   5.367 -0.7961 -0.5085  0.4860
  732MOL0     O  909   4.263   4.025   5.365 -0.4932 -0.2348  0.2739
  732MOL0     C  910   4.151   4.048   5.295 -0.1549 -0.3737 -0.7165
  732MOL0     C  911   4.027   3.995   5.329 -0.4173  0.1876  0.3646
  732MOL0     C  912   3.917   4.038   5.265  0.0189  0.4863 -0.0358
  732MOL0     C  913   3.922   4.124   5.160  0.3071 -0.3325  0.1579
  732MOL0     O  914   3.801   4.167   5.099  0.0581 -0.6514  0.0639
  732MOL0     C  915   3.674   4.165   5.165  0.5236  0.1908 -0.3681
  732MOL0     C  916   3.576   4.258   5.095  0.3157 -0.0422 -0.2799
  732MOL0     C  917   3.487   4.192   4.995  0.1353 -0.3854  0.8924
  732MOL0     C  918   3.459   4.289   4.886  0.1028 -0.1583  1.3170
  732MOL0     C  919   3.336   4.250   4.806  0.3856  1.3815 -0.4325
  732MOL0     C  920   3.320   4.330   4.683  1.1241  0.6716  0.6720
  732MOL0     C  921   3.206   4.273   4.598 -0.1744  0.2310 -0.3106
  732MOL0     C  922   3.147   4.370   4.490  0.0607 -0.2554 -0.4256
  732MOL0    Cl  923   3.263   4.363   4.359 -0.2345  0.6670  0.7927
  732MOL0     C  924   4.047   4.181   5.125 -0.0267 -0.6393  0.3567
  732MOL0     C  925   4.159   4.155   5.205 -0.2793  0.9783  0.0175
  732MOL0     O  926   4.239   3.802   5.403 -0.5835  0.0310 -0.6250
  732MOL0     C  927   4.536   3.977   5.330 -0.6853  0.8837 -0.5000
  732MOL0     C  928   4.677   3.955   5.295 -0.7590  0.2302 -0.3569
  732MOL0     N  929   5.154   3.483   5.254  0.5597  0.6248  0.3506
  732MOL0     N  930   5.258   3.412   5.292  1.0180  0.1186 -0.5985
  732MOL0     C  931   6.043   2.789   4.721  0.4415  0.2907  0.3369
  732MOL0     C  932   6.134   2.740   4.620  0.0270  0.1009  1.3316
  732MOL0     C  933   6.334   2.471   4.321  0.1642 -0.4295  0.1563
  732MOL0     C  934   6.465   2.419   4.349 -1.4825 -0.5083  0.2998
  732MOL0     C  935   6.541   2.349   4.251  0.0355  0.2270 -0.0049
  732MOL0     C  936   6.498   2.340   4.125  0.8436 -0.6713  0.9347
  732MOL0     O  937   6.561   2.280   4.025 -0.5130 -0.3227  0.8406
  732MOL0     C  938   6.550   2.140   4.005 -0.6250 -0.8216  0.5026
  732MOL0     C  939   6.412   2.100   3.957 -0.0232  0.5917  0.9852
  732MOL0     C  940   6.398   2.164   3.811 -0.1855 -0.0500  0.2982
  732MOL0     C  941   6.291   2.088   3.730 -0.0506 -0.3469 -0.1746
  732MOL0     C  942   6.323   1.955   3.681  0.2024  0.5573 -0.5437
  732MOL0     C  943   6.333   1.841   3.636  0.3604 -0.9816  0.0179
  732MOL0     C  944   6.380   2.396   4.091  0.3804  0.9561  0.5921
  732MOL0     C  945   6.298   2.465   4.185  0.5104 -0.1967  0.2772
  732MOL0     C  946   6.167   2.534   4.137  0.0051 -0.3077  0.2052
  732MOL0     H  947   5.886   2.593   4.417  0.6637 -0.8930  0.5464
  732MOL0     H  948   5.746   2.695   4.592  0.1942 -1.3345 -2.1877
  732MOL0     H  949   5.931   2.965   4.921  1.6940 -1.4426 -1.5858
  732MOL0     H  950   5.937   2.787   4.966 -4.3148 -3.4664  2.0612
  732MOL0     H  951   5.688   2.810   5.020  0.5273 -1.2461  0.1037
  732MOL0     H  952   5.796   2.913   5.118  0.6163  1.6008 -0.7180
  732MOL0     H  953   5.733   3.105   5.024 -0.0613  0.3327 -0.4752
  732MOL0     H  954   5.697   3.034   4.867  1.6944  1.8525 -0.5787
  732MOL0     H  955   5.502   2.915   4.985  0.6594  0.3380 -2.1774
  732MOL0     H  956   5.529   3.012   5.125 -1.0325  5.5495 -0.0269
  732MOL0     H  957   5.371   3.132   4.967  0.7747 -1.2429 -0.6149
  732MOL0     H  958   5.516   3.156   4.858  0.3041 -1.0718 -0.4796
  732MOL0     H  959   5.601   3.330   4.993  0.0374 -0.0908 -2.7448
  732MOL0     H  960   5.419   3.344   5.014  0.0940  0.2343  1.3600
  732MOL0     H  961   5.613   3.224   5.225 -0.8310 -0.0011  1.0085
  732MOL0     H  962   5.454   3.188   5.227  1.4576 -1.0481  3.1650
  732MOL0     H  963   5.525   3.401   5.359 -1.9924 -2.3866 -0.0614
  732MOL0     H  964   5.582   3.480   5.205  0.9932  1.5337  2.0310
  732MOL0     H  965   5.403   3.633   5.103 -0.7022 -0.3405  0.1213
  732MOL0     H  966   5.016   3.651   5.127  0.6619  1.1420 -0.5486
  732MOL0     H  967   5.126   3.646   4.990  0.1177  1.0669 -0.9556
  732MOL0     H  968   5.253   3.845   5.105 -0.4155  2.4903  1.1856
  732MOL0     H  969   5.102   3.871   5.029 -0.4022  0.4222  0.3069
  732MOL0     H  970   5.126   3.802   5.337 -0.6043  0.4123  0.8955
  732MOL0     H  971   5.187   3.959   5.279 -1.3675  1.3410 -0.9793
  732MOL0     H  972   4.934   3.955   5.367  0.6935  1.9159 -1.1776
  732MOL0     H  973   4.948   4.002   5.196  3.0895 -0.0299 -1.1115
  732MOL0     H  974   4.679   3.612   5.257 -1.2205 -1.4437  1.7293
  732MOL0     H  975   4.478   3.551   5.206  1.9674 -0.8500  0.0788
  732MOL0     H  976   4.338   3.657   5.231 -0.8134 -1.3184  3.0286
  732MOL0     H  977   4.403   3.581   5.372 -1.1354 -4.8554 -2.8415
  732MOL0     H  978   4.019   3.923   5.410 -1.1923 -0.7184 -0.4924
  732MOL0     H  979   3.824   4.002   5.307  0.6350 -1.7025 -0.4243
  732MOL0     H  980   3.632   4.064   5.167 -1.8589  1.1234  0.1468
  732MOL0     H  981   3.676   4.198   5.269  0.3052 -1.6751  0.2634
  732MOL0     H  982   3.518   4.312   5.171  1.5012 -1.8224  2.0353
  732MOL0     H  983   3.635   4.330   5.037  0.7581 -0.2635 -0.1159
  732MOL0     H  984   3.397   4.143   5.034 -0.9797 -0.1833 -1.2710
  732MOL0     H  985   3.543   4.106   4.959 -0.7378 -0.8745  0.6629
  732MOL0     H  986   3.540   4.298   4.813 -0.5388  0.3937  0.6485
  732MOL0     H  987   3.446   4.389   4.928  0.4405  0.7155 -0.5618
  732MOL0     H  988   3.353   4.145   4.783 -1.7201  1.0279 -0.5789
  732MOL0     H  989   3.245   4.267   4.866  0.5733 -0.2311  0.3617
  732MOL0     H  990   3.411   4.321   4.622 -0.2299 -0.9830 -1.2039
  732MOL0     H  991   3.291   4.433   4.706 -1.9732 -0.4077  2.1719
  732MOL0     H  992   3.122   4.243   4.661 -0.6845  0.3085 -0.9463
  732MOL0     H  993   3.243   4.176   4.564  0.2426 -0.1514  1.1687
  732MOL0     H  994   3.122   4.471   4.523  0.7370 -0.5178  0.9670
  732MOL0     H  995   3.053   4.325   4.456  0.2654  0.6786 -2.3389
  732MOL0     H  996   4.053   4.246   5.038  1.8949  3.1003  3.0023
  732MOL0     H  997   4.259   4.197   5.194  1.2394 -2.6640 -1.6993
  732MOL0     H  998   4.496   4.077   5.337 -5.4611 -0.8794  3.1075
  732MOL0     H  999   4.737   4.042   5.271  1.3804 -0.8561  0.7468
  732MOL0     H 1000   6.087   2.830   4.812  0.3930 -0.8334  0.8794
  732MOL0     H 1001   6.240   2.762   4.621  0.8536 -3.2229 -0.3982
  732MOL0     H 1002   6.513   2.416   4.446  2.6045  1.2251 -1.4254
  732MOL0     H 1003   6.634   2.298   4.276 -0.9859 -0.8046  1.9626
  732MOL0     H 1004   6.628   2.106   3.936  2.8019  0.8016  3.2611
  732MOL0     H 1005   6.575   2.090   4.099  0.1212 -1.3458  0.0382
  732MOL0     H 1006   6.330   2.128   4.024 -0.7569  0.2263  0.2579
  732MOL0     H 1007   6.409   1.992   3.943 -0.0229  0.7445 -0.3205
  732MOL0     H 1008   6.378   2.271   3.822 -0.9118  0.1206 -2.1062
  732MOL0     H 1009   6.491   2.158   3.755  0.2283  0.6561  0.8977
  732MOL0     H 1010   6.270   2.154   3.646  2.6127  1.0885  0.1565
  732MOL0     H 1011   6.202   2.086   3.793  0.5035  0.3600  0.6597
  732MOL0     H 1012   6.350   1.742   3.598 -2.5825 -1.1539 -1.0785
  732MOL0     H 1013   6.343   2.383   3.990 -0.0511 -0.2004  0.8826
  732MOL0     H 1014   6.194   2.635   4.104  0.3135 -0.4298  0.0814
  732MOL0     H 1015   6.126   2.492   4.044  1.7059  1.3127 -1.3634
  732MOL0     H 1016   6.081   2.535   4.205  0.2857 -1.9759  0.6315
  733MOL0     O 1017  10.930   1.243   6.492 -0.1433 -0.0109  1.1717
  733MOL0     C 1018  11.002   1.160   6.436  0.1377 -0.0342  0.7886
  733MOL0     O 1019  11.133   1.126   6.457  0.0015  0.3961  0.5553
  733MOL0     C 1020  11.190   1.150   6.577 -0.9421  0.2234 -0.9298
  733MOL0     C 1021  11.129   1.110   6.698  0.4191 -0.0971  1.4040
  733MOL0     C 1022  11.200   1.117   6.817  0.0171  0.7990 -0.3249
  733MOL0     C 1023  11.337   1.168   6.816 -0.7835  0.5700 -0.5150
  733MOL0     O 1024  11.405   1.151   6.931 -0.0935 -0.6554  0.0083
  733MOL0     C 1025  11.524   1.074   6.939  0.1087 -1.1784  0.0058
  733MOL0     C 1026  11.564   1.060   7.087  0.6341 -0.2862  0.3151
  733MOL0     C 1027  11.464   0.998   7.178 -0.0825  0.7459  0.9489
  733MOL0     C 1028  11.414   0.850   7.150  0.2511  0.0412 -0.1836
  733MOL0     C 1029  11.292   0.828   7.247 -0.0637 -1.1955  0.4221
  733MOL0     C 1030  11.213   0.702   7.193 -0.3131  0.0622 -0.3795
  733MOL0     C 1031  11.259   0.584   7.281 -0.5078 -0.1831  1.0062
  733MOL0     C 1032  11.184   0.454   7.219  0.6676 -0.0871  0.2871
  733MOL0     N 1033  11.040   0.459   7.217  0.1201  0.5786 -0.3071
  733MOL0     C 1034  10.959   0.529   7.134  0.0246  0.1685 -0.6512
  733MOL0     C 1035  10.828   0.498   7.173 -0.0600 -0.3195  0.2052
  733MOL0     C 1036  10.697   0.523   7.100  0.0852 -0.0529  0.9959
  733MOL0     C 1037  10.598   0.608   7.179  0.2156  0.2203  0.2440
  733MOL0     C 1038  10.526   0.540   7.290  0.4039 -0.0791  0.6921
  733MOL0     C 1039  10.429   0.633   7.364  0.1714 -0.3433 -0.1425
  733MOL0     O 1040  10.375   0.557   7.468  0.9531  0.3199  0.0736
  733MOL0     C 1041  10.320   0.635   7.573 -0.4385  0.5873  0.2892
  733MOL0     C 1042  10.392   0.643   7.693 -0.6488 -0.1639  0.7073
  733MOL0     C 1043  10.334   0.703   7.810 -0.9132 -1.0075 -0.1900
  733MOL0     C 1044  10.412   0.680   7.931  0.2950  0.1427  0.6135
  733MOL0     C 1045  10.221   0.791   7.798 -0.0942 -0.1251 -0.2731
  733MOL0     C 1046  10.158   0.864   7.916  0.5850 -0.7261  0.0320
  733MOL0     O 1047  10.054   0.944   7.884 -0.4092  0.0337 -0.1683
  733MOL0     C 1048  10.002   1.035   7.976  0.9176 -0.0490 -0.4585
  733MOL0     C 1049   9.977   1.001   8.108 -0.1297 -0.8443  0.1439
  733MOL0     C 1050   9.913   1.087   8.197  0.2202  1.0215  0.6428
  733MOL0     C 1051   9.869   1.214   8.156  0.0561 -0.6501 -0.0290
  733MOL0     O 1052   9.825   1.307   8.253 -0.7812  0.4126 -0.0186
  733MOL0     C 1053   9.723   1.393   8.212 -0.0421 -0.9514  0.8990
  733MOL0     C 1054   9.663   1.442   8.342  0.0410 -0.1086  0.1497
  733MOL0     C 1055   9.564   1.324   8.384 -0.5057 -0.4463 -1.1244
  733MOL0     C 1056   9.495   1.376   8.508  0.3606 -0.6270  0.2029
  733MOL0     C 1057   9.411   1.502   8.478 -0.1052  0.3518 -0.3954
  733MOL0     C 1058   9.292   1.507   8.371 -0.2567  0.6730  0.3114
  733MOL0     C 1059   9.175   1.418   8.407 -0.2125 -0.3901  0.0670
  733MOL0     C 1060   9.072   1.396   8.289  0.5223  0.0203 -0.6141
  733MOL0    Cl 1061   9.138   1.270   8.200  0.0886 -0.2712 -0.2033
  733MOL0     C 1062   9.871   1.238   8.019  0.8544  0.1916  0.1396
  733MOL0     C 1063   9.940   1.153   7.934  0.0890 -0.7841  1.1768
  733MOL0     O 1064  10.194   0.844   8.028  0.4332  0.1581 -0.0830
  733MOL0     C 1065  10.154   0.787   7.675  0.3654 -0.0411  1.2549
  733MOL0     C 1066  10.203   0.704   7.567  0.0839  0.2753  0.3547
  733MOL0     N 1067  10.837   0.413   7.283  0.2467  0.8200  0.3876
  733MOL0     N 1068  10.964   0.391   7.304 -0.4535  0.2957  0.1241
  733MOL0     C 1069  11.399   1.192   6.691  0.0612  0.0282 -0.0313
  733MOL0     C 1070  11.324   1.186   6.571  0.5337 -0.2778 -0.5436
  733MOL0     C 1071  10.929   1.056   6.355  0.5006 -0.4445  0.7192
  733MOL0     C 1072  11.001   0.953   6.292  0.8056 -0.2152 -0.5924
  733MOL0     C 1073  10.943   0.847   6.224 -0.7134 -0.1545  0.5534
  733MOL0     C 1074  10.806   0.830   6.244  1.0558  0.2351  0.8878
  733MOL0     O 1075  10.740   0.709   6.214 -0.2432 -0.1109 -0.8819
  733MOL0     C 1076  10.725   0.684   6.073 -0.2161 -1.0247  0.5729
  733MOL0     C 1077  10.663   0.802   5.995  0.4612  0.2730  0.7421
  733MOL0     C 1078  10.626   0.778   5.838 -0.6210  0.0854 -0.8535
  733MOL0     C 1079  10.559   0.634   5.816  0.5347  0.2974 -0.6591
  733MOL0     C 1080  10.655   0.525   5.792  0.2293 -0.1118  0.1277
  733MOL0     C 1081  10.721   0.424   5.771  0.1198  0.2928  0.5726
  733MOL0     C 1082  10.731   0.925   6.318  0.2587  0.3104  1.0431
  733MOL0     C 1083  10.789   1.038   6.369  1.0292  0.3269  0.6989
  733MOL0     C 1084  10.691   1.138   6.432 -0.7129  0.4618 -0.8366
  733MOL0     H 1085  11.031   1.063   6.699  0.9772 -1.3692 -0.3406
  733MOL0     H 1086  11.153   1.088   6.910  0.8300  1.4912  0.3145
  733MOL0     H 1087  11.601   1.127   6.882 -0.2699 -0.9622 -0.3157
  733MOL0     H 1088  11.493   0.977   6.897 -1.5296  0.9364 -4.3543
  733MOL0     H 1089  11.657   1.001   7.088 -0.1252 -1.6226 -1.8218
  733MOL0     H 1090  11.585   1.163   7.120  0.7372  0.0194 -0.6837
  733MOL0     H 1091  11.499   1.012   7.281  1.3119  3.4780  0.1889
  733MOL0     H 1092  11.369   1.051   7.168 -1.3880 -1.7653 -1.6615
  733MOL0     H 1093  11.390   0.851   7.043  3.1576 -0.2119 -0.9101
  733MOL0     H 1094  11.498   0.782   7.167  0.4105 -0.0750 -1.3653
  733MOL0     H 1095  11.224   0.914   7.246 -0.9086 -1.7960  2.0901
  733MOL0     H 1096  11.312   0.819   7.354 -3.2255  1.5321  1.4073
  733MOL0     H 1097  11.105   0.723   7.193 -0.2474  0.9788  2.6067
  733MOL0     H 1098  11.251   0.694   7.091 -0.5094  3.3613 -0.8322
  733MOL0     H 1099  11.240   0.602   7.387 -1.0451  2.7754  0.4997
  733MOL0     H 1100  11.366   0.566   7.263  0.5644  6.6513 -3.2695
  733MOL0     H 1101  11.211   0.435   7.115  0.9891 -2.2039  0.7229
  733MOL0     H 1102  11.217   0.365   7.274 -0.7086  0.5249  2.2154
  733MOL0     H 1103  11.001   0.583   7.050  4.1074 -3.2213 -1.1092
  733MOL0     H 1104  10.653   0.424   7.081  1.5612 -0.8126  1.3161
  733MOL0     H 1105  10.720   0.570   7.004  0.9259 -2.2227  0.0628
  733MOL0     H 1106  10.655   0.694   7.216  1.4791 -0.8520  0.8551
  733MOL0     H 1107  10.524   0.650   7.111 -1.0024  0.0751  1.4318
  733MOL0     H 1108  10.459   0.467   7.245 -2.7800  3.7408 -1.4844
  733MOL0     H 1109  10.582   0.488   7.368  0.1445 -0.1526  0.8329
  733MOL0     H 1110  10.470   0.728   7.399 -0.1206 -0.8350  1.6235
  733MOL0     H 1111  10.356   0.673   7.294  1.8141 -0.1820 -1.8489
  733MOL0     H 1112  10.490   0.597   7.695 -1.4652 -2.3059 -2.2560
  733MOL0     H 1113  10.459   0.773   7.965  0.8845  0.7026 -1.5771
  733MOL0     H 1114  10.476   0.594   7.910  0.4132  0.6069 -1.0299
  733MOL0     H 1115  10.344   0.652   8.012 -0.9755 -2.1435 -1.1504
  733MOL0     H 1116  10.011   0.905   8.145 -0.9442  0.3346  4.5570
  733MOL0     H 1117   9.899   1.062   8.301 -1.1717  1.8959  0.6902
  733MOL0     H 1118   9.753   1.485   8.160  0.2109 -0.8807  1.1641
  733MOL0     H 1119   9.649   1.334   8.158  1.1263 -1.1966 -0.5158
  733MOL0     H 1120   9.743   1.448   8.417  3.0557  0.9079 -2.8446
  733MOL0     H 1121   9.618   1.539   8.321  0.7666  1.0768  3.3761
  733MOL0     H 1122   9.629   1.237   8.395  0.8679  0.6014 -0.5934
  733MOL0     H 1123   9.491   1.307   8.304 -1.0291  2.1170 -1.2841
  733MOL0     H 1124   9.569   1.413   8.580  1.8209  2.8317 -2.7401
  733MOL0     H 1125   9.422   1.305   8.548  0.6607 -0.2301  1.4868
  733MOL0     H 1126   9.357   1.518   8.572  0.0550  1.7806 -0.5247
  733MOL0     H 1127   9.467   1.595   8.468 -3.9188  2.7579 -1.9559
  733MOL0     H 1128   9.339   1.487   8.274  2.1800  1.7183  1.1985
  733MOL0     H 1129   9.253   1.609   8.360  1.1876  1.1111 -1.0376
  733MOL0     H 1130   9.132   1.467   8.495  0.5381  0.9265 -0.2703
  733MOL0     H 1131   9.209   1.318   8.437  2.3504  0.4275  0.0859
  733MOL0     H 1132   9.058   1.491   8.236  1.3517  2.1145  2.6099
  733MOL0     H 1133   8.983   1.355   8.337  0.1898 -0.4001 -1.5722
  733MOL0     H 1134   9.829   1.330   7.979  1.0288 -0.3642 -1.4092
  733MOL0     H 1135   9.945   1.181   7.829  1.8764 -1.8832  0.9259
  733MOL0     H 1136  10.060   0.837   7.654  0.4873  0.4290  1.8081
  733MOL0     H 1137  10.140   0.701   7.478 -2.4527  2.5643  1.9154
  733MOL0     H 1138  11.499   1.230   6.673 -0.6934  0.3587 -4.7539
  733MOL0     H 1139  11.376   1.202   6.477 -2.9057  0.8008 -2.4572
  733MOL0     H 1140  11.109   0.958   6.283  0.8518  3.6695  0.5358
  733MOL0     H 1141  11.005   0.765   6.190  0.6677  0.6056  1.1627
  733MOL0     H 1142  10.824   0.662   6.031  1.2655  0.4837  3.0483
  733MOL0     H 1143  10.663   0.594   6.061 -1.6211 -0.0522  0.3220
  733MOL0     H 1144  10.729   0.889   5.994 -0.9859  1.4544 -1.6873
  733MOL0     H 1145  10.570   0.834   6.042 -1.6271 -1.9108 -1.5839
  733MOL0     H 1146  10.552   0.854   5.813 -1.7119 -0.8316 -0.4945
  733MOL0     H 1147  10.714   0.780   5.773 -1.2047  1.3714 -1.6401
  733MOL0     H 1148  10.501   0.638   5.723 -0.0988  1.5166 -0.2340
  733MOL0     H 1149  10.486   0.605   5.893 -0.5822  1.4979 -1.2316
  733MOL0     H 1150  10.782   0.337   5.757  0.8707  1.0346 -1.0869
  733MOL0     H 1151  10.627   0.905   6.340  0.0366  0.7367  0.3893
  733MOL0     H 1152  10.706   1.138   6.541  2.7007  0.9379 -1.1810
  733MOL0     H 1153  10.703   1.235   6.383 -2.8242  0.1170 -2.1325
  733MOL0     H 1154  10.588   1.105   6.423 -0.3517 -1.0005 -0.0276
  734MOL0     O 1155   1.983   8.314   7.948  0.7008  0.7394  0.2301
  734MOL0     C 1156   1.934   8.204   7.949  0.2733  1.0316 -0.4989
  734MOL0     O 1157   1.895   8.132   7.840  0.2387 -0.1086  0.4939
  734MOL0     C 1158   1.893   8.195   7.727  0.0828 -0.4330 -0.5727
  734MOL0     C 1159   1.972   8.155   7.614 -0.6907  0.0514 -0.0486
  734MOL0     C 1160   1.992   8.239   7.507 -0.4408 -0.4480 -0.4594
  734MOL0     C 1161   1.911   8.352   7.497 -1.5695 -0.0884  0.3415
  734MOL0     O 1162   1.928   8.423   7.379  0.3249  0.3842  0.7490
  734MOL0     C 1163   1.837   8.525   7.345  0.6962 -0.2944 -0.5524
  734MOL0     C 1164   1.878   8.602   7.216  0.0042 -0.1458  0.3194
  734MOL0     C 1165   1.887   8.504   7.100 -0.5333  0.2733 -0.2943
  734MOL0     C 1166   1.755   8.509   7.022  0.1682 -0.7593  0.1861
  734MOL0     C 1167   1.733   8.403   6.922  0.3420 -0.1569 -0.1644
  734MOL0     C 1168   1.608   8.439   6.832  0.3469  1.6352 -1.0574
  734MOL0     C 1169   1.561   8.322   6.733  1.4872 -0.0462  0.2426
  734MOL0     C 1170   1.509   8.195   6.799  0.1645 -0.1012 -0.2322
  734MOL0     N 1171   1.382   8.224   6.857  0.0690  1.1620  0.2726
  734MOL0     C 1172   1.263   8.232   6.795 -0.6208  0.0351  0.2155
  734MOL0     C 1173   1.173   8.225   6.888  0.1314 -0.6263 -1.3822
  734MOL0     C 1174   1.031   8.215   6.867  0.5864 -0.5588  0.5109
  734MOL0     C 1175   0.989   8.091   6.776  0.6735  0.3247 -0.3514
  734MOL0     C 1176   1.023   7.964   6.842 -0.0147  0.0606 -1.2702
  734MOL0     C 1177   0.979   7.852   6.743 -0.5005  0.6810 -0.6864
  734MOL0     O 1178   0.835   7.841   6.741 -0.3777 -0.4798  0.0603
  734MOL0     C 1179   0.807   7.732   6.671 -1.3965 -0.9981 -0.1237
  734MOL0     C 1180   0.756   7.629   6.739 -0.2823  1.2225  0.4240
  734MOL0     C 1181   0.730   7.502   6.681  0.4146 -0.4448 -0.0928
  734MOL0     C 1182   0.670   7.398   6.771 -0.1635 -0.1836  0.5014
  734MOL0     C 1183   0.773   7.481   6.549  0.6311 -0.7982  0.4749
  734MOL0     C 1184   0.736   7.365   6.466  0.0992 -0.5564  0.7064
  734MOL0     O 1185   0.772   7.388   6.331  0.1818  0.2195  0.3158
  734MOL0     C 1186   0.771   7.275   6.251 -0.4450 -0.0971 -0.4766
  734MOL0     C 1187   0.683   7.283   6.137  0.4126  0.1215 -0.9489
  734MOL0     C 1188   0.660   7.172   6.063  0.6974 -0.2880  0.4426
  734MOL0     C 1189   0.725   7.053   6.089 -1.0868 -0.0223  0.3860
  734MOL0     O 1190   0.713   6.950   6.014  0.5390 -0.0319 -0.7841
  734MOL0     C 1191   0.661   6.822   6.064 -0.0167 -0.0561 -0.0892
  734MOL0     C 1192   0.724   6.709   5.977  0.1163  0.3830  0.4552
  734MOL0     C 1193   0.874   6.691   6.013 -0.3163  0.0065  0.6410
  734MOL0     C 1194   0.902   6.630   6.149 -0.5050  0.2148  0.4862
  734MOL0     C 1195   1.042   6.620   6.195 -0.8371  0.2151  0.1853
  734MOL0     C 1196   1.118   6.542   6.082 -1.1041  0.3511 -0.0678
  734MOL0     C 1197   1.251   6.497   6.147 -0.0634  0.4944  0.9604
  734MOL0     C 1198   1.351   6.415   6.055  0.7302  0.2435  0.9050
  734MOL0    Cl 1199   1.267   6.316   5.938 -0.5319  0.1070 -0.1405
  734MOL0     C 1200   0.813   7.042   6.199  0.3115 -0.0631  0.1498
  734MOL0     C 1201   0.838   7.152   6.285 -0.3955 -0.6012 -1.6063
  734MOL0     O 1202   0.683   7.270   6.511  0.2037 -0.1388 -0.0539
  734MOL0     C 1203   0.810   7.599   6.478  0.4241 -0.3084  0.2554
  734MOL0     C 1204   0.817   7.728   6.536  0.0117  0.6197  0.3628
  734MOL0     N 1205   1.235   8.232   7.015  0.7664 -0.3556 -0.5924
  734MOL0     N 1206   1.357   8.228   6.986 -0.7738 -0.0593  0.0483
  734MOL0     C 1207   1.820   8.390   7.595 -0.7386 -0.2385 -1.2039
  734MOL0     C 1208   1.813   8.310   7.713 -0.1915 -0.7927 -0.8439
  734MOL0     C 1209   1.906   8.141   8.084  0.0449 -0.4611 -1.1091
  734MOL0     C 1210   1.880   8.007   8.083  0.7473  0.5449 -0.6551
  734MOL0     C 1211   1.835   7.938   8.198  0.1884  0.9396  0.3868
  734MOL0     C 1212   1.830   7.998   8.317  0.0068 -0.6039  0.5091
  734MOL0     O 1213   1.776   7.954   8.431 -0.1039  0.9611  0.7241
  734MOL0     C 1214   1.777   7.818   8.450 -0.2766  0.6103  0.4808
  734MOL0     C 1215   1.631   7.775   8.434  0.1093 -0.4708 -0.3052
  734MOL0     C 1216   1.610   7.617   8.459 -0.1443 -0.3900  0.2260
  734MOL0     C 1217   1.550   7.583   8.600  0.2095 -0.8769 -0.7571
  734MOL0     C 1218   1.651   7.616   8.703  0.8423  0.2602  0.3974
  734MOL0     C 1219   1.723   7.658   8.800  0.7081 -0.0336  1.5548
  734MOL0     C 1220   1.868   8.131   8.318  0.3742  0.6639  0.7585
  734MOL0     C 1221   1.903   8.214   8.205 -0.0681  0.2647 -0.8068
  734MOL0     C 1222   1.946   8.360   8.233  0.5984  0.3703 -0.4365
  734MOL0     H 1223   2.025   8.060   7.610  0.0573  0.4475  0.1762
  734MOL0     H 1224   2.076   8.236   7.438 -1.6614 -0.7747 -2.0053
  734MOL0     H 1225   1.826   8.589   7.433  2.4615 -2.3305  1.2914
  734MOL0     H 1226   1.747   8.468   7.321 -1.6952  2.6586  0.7393
  734MOL0     H 1227   1.799   8.675   7.194 -3.1937 -4.0352 -2.6886
  734MOL0     H 1228   1.966   8.660   7.245  0.1741 -1.0417  1.7047
  734MOL0     H 1229   1.961   8.546   7.031 -1.5665  1.3184 -0.8012
  734MOL0     H 1230   1.917   8.401   7.124  0.7982  0.8808  0.7555
  734MOL0     H 1231   1.671   8.483   7.087  1.5088 -2.1510  1.4591
  734MOL0     H 1232   1.750   8.611   6.985  1.8231 -0.2605  1.2396
  734MOL0     H 1233   1.730   8.307   6.975  0.1855 -0.2711 -0.3754
  734MOL0     H 1234   1.823   8.393   6.862  0.2749  2.9927 -0.9549
  734MOL0     H 1235   1.532   8.474   6.902 -0.2057 -0.3181 -0.6235
  734MOL0     H 1236   1.623   8.528   6.771  0.1681  1.0273 -2.0158
  734MOL0     H 1237   1.642   8.302   6.662 -1.6488 -1.4391 -3.3359
  734MOL0     H 1238   1.481   8.364   6.671  0.5025 -3.1488 -0.7931
  734MOL0     H 1239   1.492   8.120   6.721  0.1476 -0.1547 -0.1764
  734MOL0     H 1240   1.576   8.151   6.874  0.1907  1.0504  0.4310
  734MOL0     H 1241   1.253   8.228   6.687 -1.9698  1.1682  0.2786
  734MOL0     H 1242   0.990   8.298   6.809  1.1082 -1.0314 -0.5693
  734MOL0     H 1243   0.984   8.218   6.965  0.6243  1.3410  0.5110
  734MOL0     H 1244   0.881   8.086   6.758  0.1423 -0.2734  2.4823
  734MOL0     H 1245   1.055   8.101   6.690  2.7057 -2.5216  0.7441
  734MOL0     H 1246   1.132   7.966   6.853 -0.1000  1.7684 -0.4789
  734MOL0     H 1247   0.977   7.957   6.941  0.8654  0.6533 -0.8084
  734MOL0     H 1248   1.025   7.880   6.648  1.1051  1.7357  0.3445
  734MOL0     H 1249   1.017   7.753   6.768  1.4003  0.8215 -2.7274
  734MOL0     H 1250   0.734   7.635   6.845  0.6218  0.8305  0.6408
  734MOL0     H 1251   0.714   7.404   6.870  0.4698 -0.7369  0.2621
  734MOL0     H 1252   0.718   7.305   6.739 -0.6955  0.2080 -1.6148
  734MOL0     H 1253   0.561   7.388   6.773 -0.1129 -1.5148 -1.1097
  734MOL0     H 1254   0.626   7.371   6.109  1.0709  0.5138 -1.0832
  734MOL0     H 1255   0.596   7.180   5.976 -0.5712  0.2219  1.4001
  734MOL0     H 1256   0.670   6.811   6.173 -0.6535  1.7134  0.1752
  734MOL0     H 1257   0.552   6.818   6.058 -0.2772  2.9609  1.0020
  734MOL0     H 1258   0.678   6.614   6.010 -2.3040  1.2408 -0.2006
  734MOL0     H 1259   0.705   6.725   5.871  1.7314 -0.8562 -0.0557
  734MOL0     H 1260   0.929   6.784   6.001  1.0368 -1.0553 -2.5008
  734MOL0     H 1261   0.921   6.626   5.938 -0.5699  1.4690 -0.8349
  734MOL0     H 1262   0.860   6.530   6.151 -1.9610  0.7838 -0.0924
  734MOL0     H 1263   0.854   6.688   6.228 -1.9153  3.0641 -2.2256
  734MOL0     H 1264   1.079   6.722   6.209 -0.7134 -0.1951  3.9069
  734MOL0     H 1265   1.048   6.568   6.291  2.5556  0.0130 -0.0212
  734MOL0     H 1266   1.138   6.595   5.989 -1.3872 -2.1731 -1.6308
  734MOL0     H 1267   1.069   6.448   6.057  0.1765 -0.6441  1.0247
  734MOL0     H 1268   1.230   6.440   6.238  0.6503  0.5856  1.1879
  734MOL0     H 1269   1.295   6.594   6.172 -0.9341  1.9660 -2.5355
  734MOL0     H 1270   1.407   6.353   6.125  0.1571  0.9356  1.9967
  734MOL0     H 1271   1.411   6.485   5.996 -0.5536 -0.8548 -1.8845
  734MOL0     H 1272   0.867   6.950   6.217  1.1179  0.6124  1.3046
  734MOL0     H 1273   0.911   7.136   6.363  0.5345 -0.6418 -2.4606
  734MOL0     H 1274   0.844   7.596   6.375 -1.3700  0.3463 -0.3810
  734MOL0     H 1275   0.842   7.814   6.475 -0.7275  1.4360  1.1842
  734MOL0     H 1276   1.754   8.476   7.589 -0.3505  0.1078 -0.6039
  734MOL0     H 1277   1.760   8.355   7.797  2.3746  2.8040 -0.8867
  734MOL0     H 1278   1.893   7.933   8.005  0.8031  0.6325 -0.7290
  734MOL0     H 1279   1.784   7.847   8.168  1.1374  0.9706 -1.4218
  734MOL0     H 1280   1.838   7.760   8.381  0.5083  0.6660  1.1090
  734MOL0     H 1281   1.817   7.798   8.550 -1.8600 -2.7529  0.5822
  734MOL0     H 1282   1.591   7.803   8.337 -2.6894  0.1523  0.9232
  734MOL0     H 1283   1.571   7.831   8.507  0.5253  1.3654 -1.3065
  734MOL0     H 1284   1.535   7.590   8.383 -2.1791 -0.8812  2.2953
  734MOL0     H 1285   1.709   7.573   8.439  1.3260  2.1081  1.5754
  734MOL0     H 1286   1.517   7.479   8.600 -2.3651 -0.2159 -3.5887
  734MOL0     H 1287   1.454   7.635   8.609 -0.1590 -1.3162 -1.8925
  734MOL0     H 1288   1.775   7.702   8.883  2.7773 -0.8569  0.7754
  734MOL0     H 1289   1.856   8.189   8.410 -0.2076 -2.6849  2.9857
  734MOL0     H 1290   2.009   8.411   8.160  1.2037  1.7854  1.0152
  734MOL0     H 1291   1.853   8.411   8.261  0.6671  0.1713  0.1650
  734MOL0     H 1292   2.002   8.363   8.326  0.0048  1.3168 -0.0891
  735MOL0     O 1293   6.979   0.225   1.652 -0.5867  0.8690 -0.4046
  735MOL0     C 1294   7.024   0.322   1.596 -0.3407  0.4661  0.4522
  735MOL0     O 1295   6.947   0.402   1.509 -0.0664  0.1443 -1.1805
  735MOL0     C 1296   7.005   0.462   1.407 -0.0338  0.0646  0.2696
  735MOL0     C 1297   7.106   0.405   1.331  0.6997  0.6640  0.4204
  735MOL0     C 1298   7.168   0.475   1.230 -0.5797 -0.7632  0.1891
  735MOL0     C 1299   7.115   0.600   1.196 -0.8099 -0.2325 -0.1194
  735MOL0     O 1300   7.170   0.681   1.093 -0.3358  0.1293  0.4773
  735MOL0     C 1301   7.306   0.666   1.051 -0.4034 -0.6050  0.6353
  735MOL0     C 1302   7.350   0.776   0.952  0.0302  0.2884 -0.0735
  735MOL0     C 1303   7.260   0.781   0.837 -0.7316 -0.3045  0.8198
  735MOL0     C 1304   7.308   0.892   0.745 -0.5686 -1.2546 -1.3373
  735MOL0     C 1305   7.401   0.844   0.632  0.9653  0.5180  0.1123
  735MOL0     C 1306   7.439   0.953   0.530 -0.2943 -0.5790 -0.1827
  735MOL0     C 1307   7.473   0.889   0.397 -1.2777 -0.4891 -0.4549
  735MOL0     C 1308   7.611   0.814   0.401 -1.4947 -0.5136  0.1414
  735MOL0     N 1309   7.665   0.790   0.262 -0.2023  0.2485  0.0253
  735MOL0     C 1310   7.757   0.874   0.207 -0.8430  0.7410 -0.6840
  735MOL0     C 1311   7.817   0.808   0.102 -0.7714 -0.2001  0.0316
  735MOL0     C 1312   7.913   0.877   0.008 -0.1521 -0.1496 -0.3534
  735MOL0     C 1313   7.939   0.780  -0.116 -0.5057  0.5640  0.2065
  735MOL0     C 1314   8.059   0.823  -0.205 -1.7494 -0.8633  0.3023
  735MOL0     C 1315   8.040   0.958  -0.273  0.3828  0.2059 -0.5504
  735MOL0     O 1316   8.169   0.965  -0.329 -0.2367  0.5485 -0.1630
  735MOL0     C 1317   8.189   1.018  -0.449  1.5469  0.6476 -0.2749
  735MOL0     C 1318   8.118   1.121  -0.506 -0.7070  0.3142 -0.4995
  735MOL0     C 1319   8.151   1.182  -0.630 -0.6771 -0.1728  0.8411
  735MOL0     C 1320   8.061   1.284  -0.690 -0.4422 -0.1703  0.2930
  735MOL0     C 1321   8.267   1.134  -0.699  0.2908 -0.6414  0.1079
  735MOL0     C 1322   8.323   1.187  -0.834  0.7726  0.6089 -1.0107
  735MOL0     O 1323   8.405   1.100  -0.896 -0.5084  0.2417  0.4248
  735MOL0     C 1324   8.478   1.122  -1.011  0.6167  0.3019 -0.3185
  735MOL0     C 1325   8.590   1.044  -1.029  0.1302 -0.0437 -0.1071
  735MOL0     C 1326   8.658   1.050  -1.149  0.0554 -0.0784 -0.4993
  735MOL0     C 1327   8.635   1.148  -1.243 -0.0449  0.1844 -0.1427
  735MOL0     O 1328   8.715   1.179  -1.348 -0.2236 -0.2796 -0.6712
  735MOL0     C 1329   8.854   1.187  -1.331 -0.0459  1.5664 -0.7779
  735MOL0     C 1330   8.918   1.199  -1.476  0.1399  0.1430 -1.0700
  735MOL0     C 1331   8.874   1.084  -1.569  0.2536 -0.9277 -0.5607
  735MOL0     C 1332   8.969   1.044  -1.679  0.1951 -0.0152 -0.1390
  735MOL0     C 1333   9.008   1.170  -1.764  0.1142  0.0519  0.0214
  735MOL0     C 1334   9.106   1.135  -1.874  0.2060  0.1231  0.2219
  735MOL0     C 1335   9.195   1.251  -1.909 -0.3577  0.1834  0.5915
  735MOL0     C 1336   9.271   1.237  -2.045 -0.3966 -0.3119  0.9679
  735MOL0    Cl 1337   9.163   1.296  -2.174  0.3285  0.1734 -0.1120
  735MOL0     C 1338   8.518   1.217  -1.233 -0.5155 -0.7169  0.1551
  735MOL0     C 1339   8.434   1.205  -1.120  0.2647 -0.1101  0.8870
  735MOL0     O 1340   8.293   1.300  -0.874  0.1278  0.8297 -0.6340
  735MOL0     C 1341   8.339   1.026  -0.640  0.5814 -0.2703 -0.5583
  735MOL0     C 1342   8.287   0.965  -0.532  0.4527  1.1140  0.5073
  735MOL0     N 1343   7.783   0.673   0.116 -0.1916 -0.6414  0.1449
  735MOL0     N 1344   7.701   0.665   0.225 -0.3836 -0.5981 -0.0444
  735MOL0     C 1345   7.006   0.646   1.257  0.5871 -0.3388 -1.0687
  735MOL0     C 1346   6.948   0.588   1.372 -0.2815 -0.2290  0.2709
  735MOL0     C 1347   7.180   0.333   1.616  0.0477  0.1468  0.2724
  735MOL0     C 1348   7.230   0.454   1.664  0.6847  0.5726  0.9766
  735MOL0     C 1349   7.356   0.463   1.717  0.2297 -0.4439 -0.4684
  735MOL0     C 1350   7.443   0.356   1.694 -0.5289 -0.2443 -0.8543
  735MOL0     O 1351   7.570   0.393   1.721  0.1028 -0.0398  0.3649
  735MOL0     C 1352   7.674   0.325   1.658 -0.3516 -0.0791 -0.4175
  735MOL0     C 1353   7.665   0.289   1.508  0.6202 -0.2911 -0.2363
  735MOL0     C 1354   7.812   0.254   1.464  0.4456  0.4875  0.6235
  735MOL0     C 1355   7.830   0.286   1.314 -0.0351 -0.1712 -0.2966
  735MOL0     C 1356   7.775   0.170   1.230  0.7382  0.3934 -1.0500
  735MOL0     C 1357   7.736   0.088   1.156  0.3450 -0.9978 -0.1283
  735MOL0     C 1358   7.389   0.228   1.649  0.4398 -0.0870 -0.5384
  735MOL0     C 1359   7.259   0.221   1.604  0.0403  0.4454 -0.2314
  735MOL0     C 1360   7.211   0.093   1.534  0.1520 -0.7500  1.3053
  735MOL0     H 1361   7.134   0.300   1.339 -2.9585 -0.5155 -0.4247
  735MOL0     H 1362   7.242   0.437   1.160 -1.3910  0.1097 -1.1714
  735MOL0     H 1363   7.290   0.569   1.003 -3.8677 -0.3921  1.1443
  735MOL0     H 1364   7.372   0.660   1.138  0.9333 -2.0948 -0.4290
  735MOL0     H 1365   7.361   0.871   1.005  0.6868  2.0504 -3.1399
  735MOL0     H 1366   7.450   0.747   0.918 -0.1069 -0.6069  0.2581
  735MOL0     H 1367   7.256   0.695   0.769 -0.0745  0.2913  0.0056
  735MOL0     H 1368   7.155   0.797   0.863 -1.1277 -2.5450  0.7520
  735MOL0     H 1369   7.221   0.939   0.698 -1.2058  2.5418  2.9487
  735MOL0     H 1370   7.347   0.981   0.795 -2.1331 -1.6796  0.7832
  735MOL0     H 1371   7.354   0.758   0.585 -2.2118  2.3220 -0.3102
  735MOL0     H 1372   7.495   0.813   0.678  0.7801  0.7702  0.6739
  735MOL0     H 1373   7.351   1.018   0.526  1.0522  1.2806 -2.4750
  735MOL0     H 1374   7.521   1.013   0.571 -0.2351  0.5319 -1.8493
  735MOL0     H 1375   7.468   0.972   0.326  0.6371 -0.1227 -0.1959
  735MOL0     H 1376   7.385   0.827   0.374  0.8509 -3.2509 -1.7461
  735MOL0     H 1377   7.689   0.870   0.453 -1.1149  0.6301 -1.5844
  735MOL0     H 1378   7.605   0.718   0.453 -0.8611 -0.7755 -0.2489
  735MOL0     H 1379   7.755   0.981   0.223 -3.0995  0.5821  0.4293
  735MOL0     H 1380   8.002   0.887   0.071 -0.5469  2.1567 -0.0765
  735MOL0     H 1381   7.868   0.974  -0.012 -0.9342 -0.2913  0.6273
  735MOL0     H 1382   7.960   0.679  -0.081 -1.1432  1.1560  2.4869
  735MOL0     H 1383   7.847   0.780  -0.176 -0.0839 -1.9578 -0.5479
  735MOL0     H 1384   8.140   0.830  -0.132 -2.0632  2.4101  0.4921
  735MOL0     H 1385   8.078   0.746  -0.281  2.1227  0.6479 -0.4996
  735MOL0     H 1386   7.957   0.951  -0.344 -0.2234 -3.6546  0.3250
  735MOL0     H 1387   8.016   1.035  -0.200 -1.5902 -3.0537  2.6041
  735MOL0     H 1388   8.041   1.157  -0.438  0.1961 -2.1157  2.0146
  735MOL0     H 1389   8.027   1.255  -0.790 -0.3737 -1.1078  0.5249
  735MOL0     H 1390   8.111   1.381  -0.697 -0.5982 -0.0399  0.9010
  735MOL0     H 1391   7.965   1.302  -0.640 -1.7367  3.2104 -2.9805
  735MOL0     H 1392   8.631   0.980  -0.951 -0.5971 -1.6440 -0.9954
  735MOL0     H 1393   8.746   0.988  -1.140  0.2774  0.3696  0.5267
  735MOL0     H 1394   8.900   1.269  -1.274  1.4992 -0.9352  1.8129
  735MOL0     H 1395   8.897   1.100  -1.282  0.4134  2.6043  0.7480
  735MOL0     H 1396   8.895   1.300  -1.512  1.3705  0.1788 -1.8386
  735MOL0     H 1397   9.026   1.190  -1.460  0.3955  2.0946 -1.4400
  735MOL0     H 1398   8.781   1.116  -1.616  0.0609  0.7283  0.8696
  735MOL0     H 1399   8.841   0.995  -1.515 -0.5573 -1.0821 -1.2812
  735MOL0     H 1400   8.931   0.956  -1.732 -0.3162  1.0551 -1.6409
  735MOL0     H 1401   9.065   1.015  -1.635  0.7537  1.1616 -0.5494
  735MOL0     H 1402   8.922   1.220  -1.809  1.0129  1.0683 -0.6175
  735MOL0     H 1403   9.066   1.240  -1.703 -1.0353  1.2216 -0.2028
  735MOL0     H 1404   9.042   1.114  -1.961 -1.4762  2.5777  0.7551
  735MOL0     H 1405   9.170   1.047  -1.863  0.4635  0.0935 -1.2622
  735MOL0     H 1406   9.275   1.253  -1.834  0.4114  2.2794 -0.1939
  735MOL0     H 1407   9.155   1.353  -1.904 -0.0498  0.2664  4.0297
  735MOL0     H 1408   9.307   1.134  -2.057  2.4527  0.5935  0.8025
  735MOL0     H 1409   9.361   1.299  -2.033  0.4200 -1.0580 -0.8624
  735MOL0     H 1410   8.494   1.294  -1.306 -0.2665 -0.2631  0.5472
  735MOL0     H 1411   8.339   1.254  -1.131  1.0795  1.1894 -0.7269
  735MOL0     H 1412   8.431   0.983  -0.678  1.3906  0.3992  0.5681
  735MOL0     H 1413   8.338   0.872  -0.508  1.1599  1.4520  0.3506
  735MOL0     H 1414   6.972   0.746   1.229 -0.3550 -0.7961 -1.5985
  735MOL0     H 1415   6.865   0.635   1.422  0.5181  2.1576 -0.5276
  735MOL0     H 1416   7.157   0.535   1.653 -2.6186 -2.4721 -2.1287
  735MOL0     H 1417   7.379   0.561   1.758  0.8545 -0.6220 -0.3849
  735MOL0     H 1418   7.760   0.390   1.673 -0.7139  0.1299  0.8584
  735MOL0     H 1419   7.686   0.245   1.732 -1.5530  2.9735  3.3876
  735MOL0     H 1420   7.610   0.370   1.459 -0.9162  0.4897  2.5022
  735MOL0     H 1421   7.605   0.200   1.488  2.0241 -0.9058 -1.9445
  735MOL0     H 1422   7.889   0.311   1.516 -0.6870  1.5628  1.1841
  735MOL0     H 1423   7.836   0.148   1.474  3.9052  1.2499  1.7411
  735MOL0     H 1424   7.938   0.298   1.302 -0.2585  0.5143 -1.7671
  735MOL0     H 1425   7.776   0.379   1.294 -0.0707  0.5436  2.6660
  735MOL0     H 1426   7.723   0.029   1.067  3.6743 -3.2256  0.6437
  735MOL0     H 1427   7.444   0.136   1.669 -1.3349 -0.8316  1.3848
  735MOL0     H 1428   7.175   0.127   1.436  0.1599  0.9421  1.8574
  735MOL0     H 1429   7.296   0.026   1.519  1.3108  1.1414 -1.1920
  735MOL0     H 1430   7.128   0.034   1.576 -0.8935 -0.1627  0.1456
  736MOL0     O 1431   4.936   0.123   4.903  0.2615 -0.0460  0.1730
  736MOL0     C 1432   4.829   0.056   4.893  1.0071  1.1235 -0.1888
  736MOL0     O 1433   4.713   0.113   4.872 -0.1290 -0.3339  0.7135
  736MOL0     C 1434   4.689   0.239   4.916 -0.6821  0.8015 -0.0381
  736MOL0     C 1435   4.597   0.309   4.838 -0.1969  0.1866  0.0015
  736MOL0     C 1436   4.559   0.438   4.886  0.5624  0.6543  0.7803
  736MOL0     C 1437   4.615   0.494   4.996 -0.1938 -0.0495 -0.5924
  736MOL0     O 1438   4.565   0.620   5.020  0.1573 -0.3042 -0.0053
  736MOL0     C 1439   4.659   0.718   4.976 -0.6621 -0.7061  0.3959
  736MOL0     C 1440   4.605   0.853   5.018  0.2623  0.6992 -0.5030
  736MOL0     C 1441   4.704   0.961   5.000 -0.3663 -0.0981 -0.0606
  736MOL0     C 1442   4.722   0.995   4.851  0.9052  0.5828  0.2128
  736MOL0     C 1443   4.600   1.065   4.784 -0.2497 -0.1682 -0.1215
  736MOL0     C 1444   4.641   1.105   4.637 -0.6580  0.2521  0.5904
  736MOL0     C 1445   4.549   1.228   4.595 -0.2765  0.1954  0.0289
  736MOL0     C 1446   4.416   1.156   4.568  0.6537  0.3441  0.4558
  736MOL0     N 1447   4.331   1.252   4.488 -0.3120 -0.3199  0.1227
  736MOL0     C 1448   4.273   1.364   4.546  0.0121 -0.0610 -0.0333
  736MOL0     C 1449   4.184   1.412   4.451  0.0058 -0.1089  0.3250
  736MOL0     C 1450   4.077   1.519   4.474  1.0282  1.1106 -0.0070
  736MOL0     C 1451   4.124   1.649   4.525  0.2698 -0.9793 -1.0728
  736MOL0     C 1452   4.010   1.736   4.582 -0.5989 -0.6130  1.7133
  736MOL0     C 1453   3.916   1.785   4.468  0.5937 -0.3539  0.3818
  736MOL0     O 1454   3.970   1.886   4.385  0.2514 -0.0407  0.3833
  736MOL0     C 1455   3.975   2.009   4.448  0.7534  0.5492  0.7765
  736MOL0     C 1456   3.888   2.053   4.551  0.0638  0.5412  0.3318
  736MOL0     C 1457   3.910   2.177   4.622 -0.0364  1.3781  0.6308
  736MOL0     C 1458   3.813   2.220   4.737  0.0291 -0.6452 -0.2635
  736MOL0     C 1459   4.022   2.256   4.575 -0.0530  0.0360 -0.1453
  736MOL0     C 1460   4.062   2.382   4.639 -0.2920 -0.8974  0.6410
  736MOL0     O 1461   4.134   2.471   4.565  0.0950  0.3390 -0.6588
  736MOL0     C 1462   4.192   2.573   4.629 -0.5792 -0.3135  0.2756
  736MOL0     C 1463   4.166   2.693   4.562  0.4460 -0.4040 -0.4509
  736MOL0     C 1464   4.226   2.810   4.597 -0.6358 -0.0090  0.6978
  736MOL0     C 1465   4.323   2.810   4.704  0.7165 -0.4669  0.5185
  736MOL0     O 1466   4.388   2.922   4.740  0.6953 -0.6574 -0.3366
  736MOL0     C 1467   4.531   2.908   4.726 -0.9737 -0.3547 -0.0055
  736MOL0     C 1468   4.589   2.999   4.624 -0.9596  0.8001 -0.4539
  736MOL0     C 1469   4.527   2.997   4.480 -0.2074  1.3986  0.0224
  736MOL0     C 1470   4.541   2.857   4.423 -0.0068 -0.4288  0.8625
  736MOL0     C 1471   4.475   2.842   4.283  0.2348 -0.2911 -1.4254
  736MOL0     C 1472   4.507   2.717   4.214 -0.2296 -0.0088  0.3699
  736MOL0     C 1473   4.452   2.595   4.280  0.0586  0.0549  0.6189
  736MOL0     C 1474   4.465   2.463   4.204 -0.2242  0.7912 -0.1187
  736MOL0    Cl 1475   4.419   2.334   4.310 -0.6322 -0.3078 -0.1086
  736MOL0     C 1476   4.336   2.695   4.785  0.9249  0.1834  0.2706
  736MOL0     C 1477   4.269   2.575   4.744  0.0799 -0.3985 -0.2101
  736MOL0     O 1478   4.041   2.392   4.760 -0.4985  0.3306  0.5940
  736MOL0     C 1479   4.106   2.200   4.469  0.7393 -0.2260 -0.7810
  736MOL0     C 1480   4.085   2.079   4.408 -0.0399  0.3163 -0.2876
  736MOL0     N 1481   4.206   1.329   4.335  0.4014 -0.1479 -0.2619
  736MOL0     N 1482   4.300   1.243   4.347 -0.4936 -0.6146 -0.1006
  736MOL0     C 1483   4.705   0.426   5.072 -0.7520  0.1557 -0.1363
  736MOL0     C 1484   4.744   0.297   5.033  0.1558 -1.3623  0.9941
  736MOL0     C 1485   4.851  -0.088   4.864  1.6691 -0.1629 -0.6814
  736MOL0     C 1486   4.766  -0.151   4.769  0.0154 -0.7877  0.0476
  736MOL0     C 1487   4.773  -0.285   4.742  0.0012 -0.1009 -0.7324
  736MOL0     C 1488   4.876  -0.362   4.799 -0.8346 -0.5397 -0.0343
  736MOL0     O 1489   4.870  -0.488   4.765  0.0535  0.4695  0.4133
  736MOL0     C 1490   4.947  -0.588   4.832  0.6841 -0.3643 -0.4633
  736MOL0     C 1491   4.944  -0.716   4.757 -0.1279 -0.4164  0.1577
  736MOL0     C 1492   4.801  -0.773   4.759 -0.3342 -0.6444  0.3659
  736MOL0     C 1493   4.783  -0.917   4.702  1.3205  0.1431 -0.4704
  736MOL0     C 1494   4.794  -0.922   4.560  0.6151  0.1787  0.4161
  736MOL0     C 1495   4.811  -0.929   4.439  0.2651  0.2645 -0.6942
  736MOL0     C 1496   4.966  -0.301   4.889  0.6059 -0.3763 -0.4514
  736MOL0     C 1497   4.942  -0.168   4.932  0.1555 -0.4142  0.4446
  736MOL0     C 1498   5.022  -0.116   5.044 -0.2287 -0.8182  0.2549
  736MOL0     H 1499   4.563   0.256   4.750 -0.0343 -0.1466  0.1354
  736MOL0     H 1500   4.483   0.488   4.827  2.3961  2.2345 -0.3893
  736MOL0     H 1501   4.674   0.719   4.868  3.2091 -0.5279  0.7910
  736MOL0     H 1502   4.752   0.699   5.030  0.3273  0.2724 -0.9036
  736MOL0     H 1503   4.511   0.873   4.966  0.6064 -1.0934 -1.9172
  736MOL0     H 1504   4.581   0.839   5.124 -0.7786 -1.4622 -0.9593
  736MOL0     H 1505   4.669   1.050   5.053 -1.4720  0.1408 -1.1578
  736MOL0     H 1506   4.799   0.932   5.046 -1.2562 -0.6683  1.5199
  736MOL0     H 1507   4.802   1.069   4.843  1.2914 -0.0132 -2.4341
  736MOL0     H 1508   4.740   0.907   4.789  1.6178  0.9144 -0.0574
  736MOL0     H 1509   4.572   1.156   4.837 -1.4924  0.5383 -1.9025
  736MOL0     H 1510   4.520   0.991   4.791  2.9246 -3.8569  0.9689
  736MOL0     H 1511   4.747   1.127   4.625 -0.4509 -1.9601 -3.3396
  736MOL0     H 1512   4.623   1.021   4.569  2.0678  0.6246 -0.7119
  736MOL0     H 1513   4.587   1.282   4.508 -1.6069 -0.6932 -1.1488
  736MOL0     H 1514   4.539   1.315   4.661  2.1241  0.0079  0.7746
  736MOL0     H 1515   4.426   1.064   4.509  0.1769 -0.4411  1.5542
  736MOL0     H 1516   4.361   1.127   4.658 -0.4467 -0.8287 -0.5327
  736MOL0     H 1517   4.279   1.388   4.651 -0.1187  1.2892 -0.3075
  736MOL0     H 1518   3.994   1.485   4.537 -1.1138  1.9586 -2.2154
  736MOL0     H 1519   4.036   1.543   4.375  0.0047  2.8007  0.7751
  736MOL0     H 1520   4.182   1.638   4.618 -3.9226  1.2828  2.1437
  736MOL0     H 1521   4.175   1.712   4.452  0.0328  0.8456  0.2636
  736MOL0     H 1522   3.962   1.687   4.668 -2.4624 -0.7077  0.6772
  736MOL0     H 1523   4.056   1.825   4.626  1.9972 -1.4998  0.9471
  736MOL0     H 1524   3.894   1.702   4.400 -2.7655 -1.6366  2.7412
  736MOL0     H 1525   3.815   1.817   4.497  1.3437  1.4875  1.0936
  736MOL0     H 1526   3.799   1.996   4.578  0.8089 -0.2733  1.1184
  736MOL0     H 1527   3.707   2.201   4.719 -0.9507  1.8208  2.2470
  736MOL0     H 1528   3.808   2.329   4.745 -1.0837 -0.6823 -0.2708
  736MOL0     H 1529   3.848   2.167   4.826 -2.1435  0.7857  1.5504
  736MOL0     H 1530   4.092   2.690   4.482  1.1989 -1.2481 -1.1350
  736MOL0     H 1531   4.202   2.898   4.539 -1.2113 -0.9691 -0.5752
  736MOL0     H 1532   4.581   2.930   4.821  0.7318 -1.3308 -0.6475
  736MOL0     H 1533   4.564   2.807   4.702  1.5429  0.4949 -0.3859
  736MOL0     H 1534   4.577   3.096   4.673 -1.0608  0.3593  0.4282
  736MOL0     H 1535   4.696   2.985   4.609 -1.1575 -5.3574  1.0364
  736MOL0     H 1536   4.571   3.074   4.415 -2.4593  2.5885 -0.1762
  736MOL0     H 1537   4.422   3.027   4.478 -0.0634  1.9274  0.4780
  736MOL0     H 1538   4.503   2.778   4.489 -2.4594 -0.0237  0.0311
  736MOL0     H 1539   4.647   2.834   4.412  0.3200  2.1010 -4.1225
  736MOL0     H 1540   4.368   2.846   4.303  0.1703  2.4226 -1.9567
  736MOL0     H 1541   4.506   2.935   4.233  0.7366  1.9670  2.6550
  736MOL0     H 1542   4.613   2.712   4.191 -0.1778 -0.2648  0.6562
  736MOL0     H 1543   4.456   2.720   4.117  2.4478  1.2233 -1.1214
  736MOL0     H 1544   4.350   2.615   4.315  0.7412  1.1946  2.1172
  736MOL0     H 1545   4.514   2.586   4.370  0.1515  2.7173  0.9162
  736MOL0     H 1546   4.572   2.444   4.187  0.2471 -0.0582  3.1136
  736MOL0     H 1547   4.411   2.468   4.109  0.9285 -0.3483 -0.8611
  736MOL0     H 1548   4.396   2.694   4.876  0.9493  2.1306  0.3174
  736MOL0     H 1549   4.271   2.494   4.816 -1.1507 -0.5846 -0.3572
  736MOL0     H 1550   4.187   2.263   4.434  2.3760 -1.7545  0.0899
  736MOL0     H 1551   4.160   2.056   4.333  1.5292 -0.6323  1.4821
  736MOL0     H 1552   4.724   0.457   5.174  0.1096 -2.2363  0.5118
  736MOL0     H 1553   4.810   0.240   5.097 -0.1997 -3.3439 -0.3127
  736MOL0     H 1554   4.696  -0.100   4.704 -1.6777  0.3496  2.5828
  736MOL0     H 1555   4.726  -0.334   4.658  1.1975  0.8964 -2.0361
  736MOL0     H 1556   5.053  -0.561   4.831  0.4133  0.7709 -0.3937
  736MOL0     H 1557   4.899  -0.592   4.930  1.3082  3.2460  0.1370
  736MOL0     H 1558   5.018  -0.781   4.805 -0.0399 -0.6108 -0.2431
  736MOL0     H 1559   4.968  -0.707   4.651 -1.0943 -1.9622 -0.2289
  736MOL0     H 1560   4.777  -0.779   4.866  2.5966 -1.4662  1.0565
  736MOL0     H 1561   4.735  -0.696   4.717  1.2253  0.9204  0.6458
  736MOL0     H 1562   4.691  -0.951   4.750  0.6031  5.5088  2.7529
  736MOL0     H 1563   4.856  -0.977   4.758 -1.6758  1.2762  5.4381
  736MOL0     H 1564   4.830  -0.946   4.335  3.8505  0.3087 -0.1871
  736MOL0     H 1565   5.056  -0.356   4.912  1.9593  2.4673  1.5957
  736MOL0     H 1566   5.079  -0.197   5.090 -0.9725 -2.3638 -1.3885
  736MOL0     H 1567   5.093  -0.042   5.007 -2.0524  1.7331  1.5811
  736MOL0     H 1568   4.950  -0.064   5.108  3.0738  1.1722  2.6144
  737MOL0     O 1569   3.755   5.949   1.534 -0.9323  0.0350  0.5991
  737MOL0     C 1570   3.730   6.066   1.558 -0.4653 -0.6231 -0.7403
  737MOL0     O 1571   3.819   6.163   1.570 -0.5035 -0.3329  0.1202
  737MOL0     C 1572   3.955   6.133   1.579  0.1991  0.2847 -0.6065
  737MOL0     C 1573   4.029   6.065   1.482 -0.0474 -0.3816  0.4723
  737MOL0     C 1574   4.162   6.034   1.499 -0.4051 -0.2935 -0.4136
  737MOL0     C 1575   4.224   6.081   1.614 -0.3483 -0.5764  0.2901
  737MOL0     O 1576   4.368   6.055   1.627 -0.3050 -0.5364 -0.3710
  737MOL0     C 1577   4.446   6.021   1.511  0.4694  0.2779  0.4341
  737MOL0     C 1578   4.594   6.053   1.545 -0.7750  0.3513  0.8617
  737MOL0     C 1579   4.644   5.968   1.661  0.2205  0.5886 -0.0394
  737MOL0     C 1580   4.798   5.965   1.673  0.4511 -0.2880 -0.3885
  737MOL0     C 1581   4.871   6.104   1.655  0.4740  0.6055  0.5762
  737MOL0     C 1582   4.854   6.200   1.770  0.0006 -0.1306 -0.6217
  737MOL0     C 1583   4.931   6.326   1.737 -0.3375 -0.0356 -0.5197
  737MOL0     C 1584   4.858   6.445   1.793  1.2354 -0.5751  0.4302
  737MOL0     N 1585   4.930   6.573   1.786 -0.2973 -0.6244 -0.7311
  737MOL0     C 1586   4.866   6.699   1.782 -0.0754  0.1205 -0.2539
  737MOL0     C 1587   4.965   6.787   1.771  0.0384  1.1911  0.1407
  737MOL0     C 1588   4.958   6.933   1.779  0.4093 -0.1644  0.8999
  737MOL0     C 1589   4.940   6.987   1.922 -0.0544  0.5291  0.1938
  737MOL0     C 1590   4.959   7.132   1.933  0.0636  0.1559 -0.2649
  737MOL0     C 1591   4.845   7.218   1.880  0.0819  0.2980  0.0684
  737MOL0     O 1592   4.735   7.209   1.967 -0.1330  0.1107 -0.7357
  737MOL0     C 1593   4.608   7.252   1.935 -0.0633 -0.0354 -0.1682
  737MOL0     C 1594   4.592   7.331   1.816 -0.2691  0.0462  0.2991
  737MOL0     C 1595   4.469   7.386   1.793  0.1577 -0.2604  1.2150
  737MOL0     C 1596   4.468   7.485   1.673 -0.9362  1.5668  0.5283
  737MOL0     C 1597   4.358   7.361   1.873  0.1586 -0.2619  0.2243
  737MOL0     C 1598   4.225   7.417   1.829 -1.0121 -0.5421 -0.6577
  737MOL0     O 1599   4.217   7.549   1.787  0.3361  0.4325  0.6023
  737MOL0     C 1600   4.100   7.624   1.792  0.7767  0.6142  0.8854
  737MOL0     C 1601   3.976   7.579   1.839  0.3031 -0.5908  0.1020
  737MOL0     C 1602   3.858   7.661   1.835 -0.5760  0.1093 -0.3736
  737MOL0     C 1603   3.863   7.785   1.778 -0.7408 -0.1738 -0.5389
  737MOL0     O 1604   3.747   7.854   1.763  0.2936  0.1275 -0.6189
  737MOL0     C 1605   3.757   7.996   1.748  0.8134 -0.0646 -0.8073
  737MOL0     C 1606   3.620   8.065   1.763 -0.1201  0.7151 -0.0134
  737MOL0     C 1607   3.641   8.213   1.766 -0.0223 -0.6563  0.5816
  737MOL0     C 1608   3.667   8.270   1.624 -0.3888  0.0439  0.4569
  737MOL0     C 1609   3.674   8.426   1.639 -0.4722 -0.2617  0.4502
  737MOL0     C 1610   3.688   8.495   1.501 -0.3490 -0.0378 -0.2067
  737MOL0     C 1611   3.741   8.642   1.517  0.4674 -0.6615 -0.3396
  737MOL0     C 1612   3.784   8.698   1.382 -0.3751 -0.7845 -0.2178
  737MOL0    Cl 1613   3.640   8.761   1.295  0.4371 -0.0394 -0.7534
  737MOL0     C 1614   3.986   7.830   1.707  0.7497 -0.3922 -0.1978
  737MOL0     C 1615   4.100   7.745   1.723  0.1935  0.1496  0.1413
  737MOL0     O 1616   4.131   7.338   1.826 -0.2273  0.5430 -0.9648
  737MOL0     C 1617   4.369   7.280   1.989 -0.0596 -1.1492 -1.3762
  737MOL0     C 1618   4.495   7.234   2.023 -0.7217 -0.1039  0.1310
  737MOL0     N 1619   5.085   6.720   1.776  0.6491 -0.1430 -0.2323
  737MOL0     N 1620   5.066   6.589   1.782 -1.3662  0.1256 -1.0705
  737MOL0     C 1621   4.150   6.145   1.712  0.4743 -0.4716 -0.1209
  737MOL0     C 1622   4.015   6.179   1.694  0.2162  0.1065 -0.4281
  737MOL0     C 1623   3.589   6.105   1.593 -0.0173  0.3870  0.7511
  737MOL0     C 1624   3.563   6.204   1.685 -0.5888  0.7776 -0.3430
  737MOL0     C 1625   3.433   6.235   1.732 -0.6502 -0.1498 -0.7269
  737MOL0     C 1626   3.324   6.165   1.682 -0.3620  0.2385 -0.4712
  737MOL0     O 1627   3.200   6.194   1.728  0.1200 -0.1479  0.0190
  737MOL0     C 1628   3.119   6.282   1.645  0.0377  0.6858  0.2933
  737MOL0     C 1629   2.974   6.264   1.677  0.6400  0.5377  0.6465
  737MOL0     C 1630   2.939   6.109   1.685 -0.4296  1.0072  0.8837
  737MOL0     C 1631   2.804   6.071   1.740  0.4315  0.5943 -0.2008
  737MOL0     C 1632   2.788   6.108   1.883  0.3253  0.5747 -0.1072
  737MOL0     C 1633   2.771   6.130   1.998  0.4093  0.1854 -0.7510
  737MOL0     C 1634   3.352   6.066   1.580  0.2780 -0.4915 -1.8451
  737MOL0     C 1635   3.479   6.034   1.531 -0.5173  0.4060 -0.5257
  737MOL0     C 1636   3.482   5.923   1.426 -0.7311  0.2026  0.1894
  737MOL0     H 1637   3.985   6.037   1.387  1.2183  1.2601 -0.6602
  737MOL0     H 1638   4.206   5.975   1.419  0.4880 -0.0374 -0.1263
  737MOL0     H 1639   4.410   6.071   1.421 -1.1066 -1.8849 -0.2253
  737MOL0     H 1640   4.443   5.913   1.494 -2.9786  0.3429 -0.0224
  737MOL0     H 1641   4.662   6.036   1.461 -2.1216 -0.2054 -0.1616
  737MOL0     H 1642   4.586   6.161   1.563 -0.4962  0.9003 -1.9169
  737MOL0     H 1643   4.605   6.010   1.755 -0.8015  0.0082 -0.1809
  737MOL0     H 1644   4.603   5.867   1.645  0.7613  0.6282 -1.8920
  737MOL0     H 1645   4.826   5.911   1.764 -2.0251  0.9769  1.2295
  737MOL0     H 1646   4.827   5.907   1.585  0.6064  2.5660 -2.3399
  737MOL0     H 1647   4.836   6.155   1.565  2.1906  0.6574 -0.0991
  737MOL0     H 1648   4.979   6.088   1.647  0.6167  2.1364 -1.1708
  737MOL0     H 1649   4.747   6.223   1.774 -0.4269 -2.1547  1.2531
  737MOL0     H 1650   4.882   6.167   1.870  2.1844 -0.8987 -1.4113
  737MOL0     H 1651   4.929   6.348   1.630 -2.0761  0.6323 -0.3872
  737MOL0     H 1652   5.033   6.322   1.776 -0.4002 -0.3528 -0.3840
  737MOL0     H 1653   4.767   6.458   1.732  0.6439  2.3366  1.7562
  737MOL0     H 1654   4.821   6.421   1.893 -1.1676 -3.4272 -0.9761
  737MOL0     H 1655   4.761   6.720   1.798 -0.2837 -1.1391  0.2088
  737MOL0     H 1656   4.869   6.954   1.718 -0.2587  1.9770  2.5239
  737MOL0     H 1657   5.040   6.984   1.728 -1.5446  1.0014 -1.3042
  737MOL0     H 1658   4.841   6.964   1.963  0.4631 -0.9507  0.6723
  737MOL0     H 1659   5.017   6.939   1.983 -0.1384 -0.5770 -0.5383
  737MOL0     H 1660   4.967   7.154   2.040  0.9363  0.4820 -0.3836
  737MOL0     H 1661   5.050   7.168   1.884 -0.7663  4.2455  0.7697
  737MOL0     H 1662   4.874   7.324   1.871  0.2614  0.1718 -0.9560
  737MOL0     H 1663   4.818   7.175   1.783  0.1288  1.6855 -0.5861
  737MOL0     H 1664   4.677   7.354   1.753 -0.3763 -3.1226 -1.1855
  737MOL0     H 1665   4.428   7.582   1.704 -2.6170  2.2716 -3.3695
  737MOL0     H 1666   4.394   7.468   1.595 -0.0213  0.9561 -0.2330
  737MOL0     H 1667   4.564   7.501   1.623 -0.7261  1.8046  0.9926
  737MOL0     H 1668   3.965   7.483   1.889 -1.7428 -0.4455  0.0330
  737MOL0     H 1669   3.766   7.622   1.879 -0.5653 -1.6642 -1.8196
  737MOL0     H 1670   3.827   8.029   1.825  2.4093 -0.5011 -2.0114
  737MOL0     H 1671   3.791   8.030   1.649 -0.9140  2.0622 -0.7392
  737MOL0     H 1672   3.565   8.046   1.670 -1.5626  0.9252  0.7699
  737MOL0     H 1673   3.568   8.037   1.855  0.8372 -0.7416  0.1065
  737MOL0     H 1674   3.706   8.242   1.849 -1.3515  2.4958  0.6444
  737MOL0     H 1675   3.555   8.271   1.800  0.0591  1.5534 -2.6272
  737MOL0     H 1676   3.592   8.236   1.552  0.5758  1.2697 -1.1993
  737MOL0     H 1677   3.757   8.224   1.582 -2.7046 -0.5186 -4.5481
  737MOL0     H 1678   3.582   8.465   1.684 -1.3764  0.1464 -1.6231
  737MOL0     H 1679   3.757   8.451   1.706 -0.8118 -0.1540  0.8400
  737MOL0     H 1680   3.586   8.502   1.464 -0.5353 -0.0976  0.2927
  737MOL0     H 1681   3.750   8.440   1.429 -0.7743  1.0183 -1.4288
  737MOL0     H 1682   3.827   8.636   1.585  0.6953 -1.4173 -0.6833
  737MOL0     H 1683   3.668   8.706   1.567 -1.6125 -4.1425  1.4411
  737MOL0     H 1684   3.833   8.624   1.318 -2.2430 -2.1739 -0.1305
  737MOL0     H 1685   3.855   8.781   1.394 -2.1467  0.8074 -0.3032
  737MOL0     H 1686   3.993   7.924   1.653  1.3081  0.8953  2.0141
  737MOL0     H 1687   4.189   7.777   1.670  0.0078  0.5381  0.0602
  737MOL0     H 1688   4.287   7.257   2.056  0.0029 -1.0713 -1.2730
  737MOL0     H 1689   4.512   7.177   2.114 -2.0529  0.6362  0.8753
  737MOL0     H 1690   4.205   6.171   1.803  2.9499 -1.3877 -1.2567
  737MOL0     H 1691   3.958   6.247   1.755  0.4927  2.1447 -2.3163
  737MOL0     H 1692   3.650   6.254   1.725 -0.3697  0.9765 -1.0488
  737MOL0     H 1693   3.405   6.310   1.805  0.3758 -2.8674  2.7562
  737MOL0     H 1694   3.151   6.385   1.658  1.4542  0.0214  2.5483
  737MOL0     H 1695   3.127   6.250   1.540 -2.6030  1.6416 -0.2975
  737MOL0     H 1696   2.901   6.310   1.610  0.7526  0.4737  0.4779
  737MOL0     H 1697   2.943   6.304   1.774 -1.2696 -1.6689  1.0523
  737MOL0     H 1698   2.951   6.063   1.586  0.2551 -1.0549  1.8725
  737MOL0     H 1699   3.008   6.055   1.751 -0.6994  0.7665  0.9719
  737MOL0     H 1700   2.788   5.963   1.738 -0.6811  0.6168  2.6297
  737MOL0     H 1701   2.725   6.118   1.680  0.4414  2.9192  1.4737
  737MOL0     H 1702   2.757   6.156   2.101 -1.2407  3.3961 -1.6609
  737MOL0     H 1703   3.263   6.014   1.544 -3.2393  3.1107  0.7852
  737MOL0     H 1704   3.556   5.937   1.348 -1.9100 -2.8591 -1.6782
  737MOL0     H 1705   3.501   5.827   1.475 -0.1264  0.7465  1.0542
  737MOL0     H 1706   3.385   5.913   1.376 -1.7053 -1.1733  2.1959
  738MOL0     O 1707   0.739   1.246  10.039  0.2768 -0.5382 -0.0606
  738MOL0     C 1708   0.862   1.230  10.047  1.0426  0.5118  0.6682
  738MOL0     O 1709   0.924   1.114  10.087  0.0167  0.8190  0.0439
  738MOL0     C 1710   0.854   1.006  10.133 -0.4934  0.0141 -0.9200
  738MOL0     C 1711   0.799   0.914  10.039  0.2035 -0.0249 -0.0322
  738MOL0     C 1712   0.736   0.796  10.083  0.6003 -1.2860 -0.2992
  738MOL0     C 1713   0.740   0.765  10.223 -0.0068  0.2929  0.5206
  738MOL0     O 1714   0.717   0.636  10.258  0.8394  0.8705  0.1621
  738MOL0     C 1715   0.692   0.599  10.389  0.0994 -0.1662 -0.0009
  738MOL0     C 1716   0.563   0.645  10.448 -0.0718  0.4341 -0.1801
  738MOL0     C 1717   0.574   0.613  10.598  0.2752 -0.4121 -0.6263
  738MOL0     C 1718   0.461   0.688  10.672  0.2598 -0.0222  0.2093
  738MOL0     C 1719   0.491   0.693  10.823  0.6436  0.1648  0.8382
  738MOL0     C 1720   0.510   0.573  10.902 -0.3049  0.2698  0.2568
  738MOL0     C 1721   0.528   0.607  11.053  0.0149  0.6287 -0.5789
  738MOL0     C 1722   0.482   0.501  11.154  0.6884 -0.6260 -1.5268
  738MOL0     N 1723   0.514   0.539  11.294  1.1801  0.3020 -0.8387
  738MOL0     C 1724   0.618   0.480  11.368 -0.7803 -0.4590  0.7037
  738MOL0     C 1725   0.610   0.543  11.484 -0.0418 -0.0005 -0.0672
  738MOL0     C 1726   0.693   0.521  11.605  0.3059 -0.5222  0.6304
  738MOL0     C 1727   0.827   0.591  11.587 -0.8490 -0.6896 -0.1810
  738MOL0     C 1728   0.918   0.512  11.500 -0.5060  0.1568  0.2605
  738MOL0     C 1729   1.055   0.584  11.486  0.5803  0.0421 -0.3854
  738MOL0     O 1730   1.040   0.670  11.372  0.5063  0.1264 -1.0205
  738MOL0     C 1731   1.148   0.749  11.366  0.1973 -0.7394  1.6259
  738MOL0     C 1732   1.113   0.880  11.332 -0.8996  0.3301 -0.6973
  738MOL0     C 1733   1.213   0.959  11.280 -0.0813  0.4393  0.0713
  738MOL0     C 1734   1.184   1.105  11.248  0.2702 -0.0552  0.1722
  738MOL0     C 1735   1.349   0.911  11.263  0.1959  0.3002  0.6104
  738MOL0     C 1736   1.462   0.985  11.211  0.6806  0.4510 -1.1243
  738MOL0     O 1737   1.584   0.972  11.282  0.5301 -0.3202  0.5151
  738MOL0     C 1738   1.704   1.025  11.236  0.7195 -1.0368  0.2569
  738MOL0     C 1739   1.744   1.162  11.259  0.0912  0.0166  1.0597
  738MOL0     C 1740   1.864   1.208  11.192 -0.0321 -0.4475 -0.1091
  738MOL0     C 1741   1.961   1.119  11.140  1.3292  0.8524  0.6787
  738MOL0     O 1742   2.078   1.156  11.072  0.1231  0.7437 -0.7556
  738MOL0     C 1743   2.120   1.289  11.034  0.6459 -0.9187  0.2632
  738MOL0     C 1744   2.013   1.342  10.930  0.5925  0.7550 -0.1199
  738MOL0     C 1745   2.032   1.285  10.791 -0.0096  0.1739  1.1091
  738MOL0     C 1746   1.984   1.380  10.675  0.5773  0.0061 -0.2561
  738MOL0     C 1747   2.091   1.483  10.622  0.4713  0.3626  0.6945
  738MOL0     C 1748   2.204   1.414  10.544  0.8477 -0.0955  0.1132
  738MOL0     C 1749   2.283   1.489  10.436  0.3742  0.0669 -0.3722
  738MOL0     C 1750   2.203   1.545  10.325 -1.2163  0.4826  0.0776
  738MOL0    Cl 1751   2.311   1.625  10.197 -0.2141 -0.1915  0.2144
  738MOL0     C 1752   1.924   0.986  11.137  0.1329 -0.0975 -0.6085
  738MOL0     C 1753   1.797   0.941  11.186 -0.5932 -0.1037 -0.7558
  738MOL0     O 1754   1.450   1.040  11.109  0.1262  0.6041 -0.5454
  738MOL0     C 1755   1.377   0.781  11.293  0.5247 -0.5136 -0.9288
  738MOL0     C 1756   1.276   0.704  11.339  0.2110  0.7140  0.1321
  738MOL0     N 1757   0.503   0.622  11.486  1.0288 -0.7699  0.2761
  738MOL0     N 1758   0.446   0.631  11.371 -0.2414  0.1862  0.6666
  738MOL0     C 1759   0.794   0.859  10.317  0.0870  0.6689  0.7796
  738MOL0     C 1760   0.854   0.979  10.269  0.7834 -0.4518  0.1293
  738MOL0     C 1761   0.942   1.354  10.013  0.1207  0.4665 -0.2079
  738MOL0     C 1762   0.910   1.479  10.068 -0.2836 -0.4612 -0.3842
  738MOL0     C 1763   1.004   1.581  10.053 -0.1794  0.4171  0.7285
  738MOL0     C 1764   1.126   1.566   9.983 -0.0801  0.0369  0.0305
  738MOL0     O 1765   1.204   1.676   9.979 -0.9259  0.4185  0.0280
  738MOL0     C 1766   1.180   1.747   9.858  0.2033 -0.0147  0.2674
  738MOL0     C 1767   1.306   1.732   9.770 -1.0821  0.3821 -0.3573
  738MOL0     C 1768   1.288   1.801   9.631  0.5162 -0.2851  0.3529
  738MOL0     C 1769   1.218   1.696   9.533  0.1165 -0.5223  0.1627
  738MOL0     C 1770   1.072   1.680   9.552 -0.1253 -0.3466  0.0661
  738MOL0     C 1771   0.950   1.654   9.560 -0.4452 -1.1605  0.4178
  738MOL0     C 1772   1.156   1.441   9.939 -0.6161  1.0524 -0.2995
  738MOL0     C 1773   1.066   1.331   9.938 -0.0840  0.1428 -0.1566
  738MOL0     C 1774   1.107   1.201   9.862 -0.5453  0.3618  1.2394
  738MOL0     H 1775   0.804   0.937   9.933 -2.5341  1.0018  0.0013
  738MOL0     H 1776   0.682   0.733  10.013  0.5732  0.7535 -2.2433
  738MOL0     H 1777   0.779   0.615  10.454  1.4180 -3.2566 -0.8326
  738MOL0     H 1778   0.687   0.490  10.383 -0.1657 -0.1359 -0.3965
  738MOL0     H 1779   0.553   0.752  10.428 -0.7140  0.0049 -2.4874
  738MOL0     H 1780   0.466   0.601  10.423 -1.0042  2.2980 -0.0704
  738MOL0     H 1781   0.580   0.507  10.621  2.0983 -0.3195 -0.5271
  738MOL0     H 1782   0.676   0.641  10.625 -0.5984 -0.2938  3.0622
  738MOL0     H 1783   0.450   0.789  10.631  0.5898  0.7336  1.8885
  738MOL0     H 1784   0.370   0.635  10.644  0.3109 -1.0829  1.8905
  738MOL0     H 1785   0.411   0.750  10.871  0.5085  0.7921 -0.1041
  738MOL0     H 1786   0.585   0.749  10.826  0.2645  0.7733  1.6271
  738MOL0     H 1787   0.434   0.494  10.896  1.2707 -1.2670 -0.2966
  738MOL0     H 1788   0.599   0.521  10.865  0.3860 -0.0634  2.2656
  738MOL0     H 1789   0.464   0.691  11.083 -2.9246 -1.7675  0.3559
  738MOL0     H 1790   0.634   0.632  11.065  0.1360 -0.4598  0.8223
  738MOL0     H 1791   0.374   0.491  11.160  0.8780 -2.1166 -0.1945
  738MOL0     H 1792   0.532   0.406  11.131  1.7286 -0.4756 -0.0182
  738MOL0     H 1793   0.683   0.401  11.330 -1.2683 -0.4369 -0.2190
  738MOL0     H 1794   0.688   0.413  11.622  0.1805 -1.2683 -3.1768
  738MOL0     H 1795   0.652   0.576  11.689 -0.0340  0.3071 -0.0686
  738MOL0     H 1796   0.830   0.695  11.551  0.7531 -1.1024 -1.4085
  738MOL0     H 1797   0.877   0.591  11.684 -1.5867 -0.2388  0.2020
  738MOL0     H 1798   0.946   0.414  11.542  0.5310  0.2101 -0.2742
  738MOL0     H 1799   0.874   0.509  11.400 -3.2295  0.9950  1.3462
  738MOL0     H 1800   1.084   0.636  11.578  0.0626 -0.8450  0.3025
  738MOL0     H 1801   1.122   0.501  11.462  0.3513 -0.5403  0.8512
  738MOL0     H 1802   1.011   0.907  11.360 -0.2816  1.4260  0.6201
  738MOL0     H 1803   1.214   1.131  11.146 -3.6490  2.2404 -0.6076
  738MOL0     H 1804   1.242   1.172  11.312  1.4757 -0.1960 -0.7198
  738MOL0     H 1805   1.080   1.134  11.264  0.7033  2.2144 -0.6702
  738MOL0     H 1806   1.677   1.228  11.314 -1.9004 -1.3704  0.4410
  738MOL0     H 1807   1.894   1.311  11.202 -0.3307 -0.3415 -0.3015
  738MOL0     H 1808   2.111   1.344  11.128 -2.2198 -0.5579 -0.1208
  738MOL0     H 1809   2.223   1.289  10.996  0.7693  0.1631  0.5670
  738MOL0     H 1810   1.910   1.317  10.955  1.5757 -1.3522  2.3466
  738MOL0     H 1811   2.034   1.450  10.924 -2.1402  1.4241  0.7608
  738MOL0     H 1812   1.967   1.198  10.779  1.6166 -0.7212 -2.5982
  738MOL0     H 1813   2.135   1.254  10.774  0.0069  1.3871 -1.4775
  738MOL0     H 1814   1.907   1.446  10.716 -0.1571 -0.4706 -0.8541
  738MOL0     H 1815   1.945   1.330  10.586  0.7647 -0.8691  0.1366
  738MOL0     H 1816   2.033   1.543  10.551  1.6208  0.0687 -0.5290
  738MOL0     H 1817   2.140   1.546  10.696 -0.0333  0.4555  0.9521
  738MOL0     H 1818   2.164   1.329  10.489 -0.2001  1.2093 -1.2331
  738MOL0     H 1819   2.269   1.377  10.623 -2.1429  1.5552  3.6882
  738MOL0     H 1820   2.369   1.431  10.401 -2.5003 -2.7898 -3.4410
  738MOL0     H 1821   2.323   1.579  10.483  2.3375 -1.4917  1.0824
  738MOL0     H 1822   2.119   1.608  10.359 -0.7699  0.8037  0.6200
  738MOL0     H 1823   2.151   1.462  10.277 -1.4024  0.0700  0.9610
  738MOL0     H 1824   1.989   0.905  11.104  1.0522  0.6002 -0.5285
  738MOL0     H 1825   1.792   0.834  11.199  3.2089 -0.3091  0.1870
  738MOL0     H 1826   1.474   0.734  11.282 -0.1788 -3.1008  2.3443
  738MOL0     H 1827   1.306   0.600  11.343  4.5444  1.7602  0.2709
  738MOL0     H 1828   0.801   0.837  10.423 -0.8966 -0.9715  0.5449
  738MOL0     H 1829   0.881   1.059  10.337 -0.4800  0.1298 -0.0165
  738MOL0     H 1830   0.820   1.487  10.128 -0.5286  0.9863 -0.9088
  738MOL0     H 1831   0.980   1.676  10.100 -0.3349  0.2817  0.9199
  738MOL0     H 1832   1.090   1.704   9.813  0.5147 -1.8852  1.3605
  738MOL0     H 1833   1.176   1.852   9.889  1.6295 -0.7528  3.3481
  738MOL0     H 1834   1.319   1.624   9.764  1.7848  0.3448  3.1869
  738MOL0     H 1835   1.389   1.782   9.822 -0.3448 -1.8841  0.7367
  738MOL0     H 1836   1.218   1.884   9.642 -0.1484 -0.2033 -3.2960
  738MOL0     H 1837   1.391   1.828   9.607  1.1472 -3.6640 -1.4442
  738MOL0     H 1838   1.259   1.595   9.532  1.1694 -0.1117 -1.9215
  738MOL0     H 1839   1.238   1.726   9.430  0.9897 -0.5737  0.3079
  738MOL0     H 1840   0.848   1.622   9.561 -0.5974 -0.8478 -1.6147
  738MOL0     H 1841   1.255   1.425   9.898 -0.4387  0.5993  0.2842
  738MOL0     H 1842   1.192   1.226   9.798  1.3785 -0.7578  3.2135
  738MOL0     H 1843   1.140   1.113   9.918  4.4798  2.4061  2.0311
  738MOL0     H 1844   1.026   1.177   9.793 -0.6317  0.7383  1.2094
  739MOL0     O 1845   4.666  10.530   7.749  0.8109  0.6713  0.0546
  739MOL0     C 1846   4.639  10.452   7.655 -0.3643 -0.5372  0.6977
  739MOL0     O 1847   4.663  10.477   7.522 -0.4975 -0.5492  0.1761
  739MOL0     C 1848   4.726  10.600   7.494 -0.5140  0.1825 -0.4923
  739MOL0     C 1849   4.649  10.719   7.498  0.1775 -0.5608 -0.2284
  739MOL0     C 1850   4.707  10.852   7.475 -0.1920 -0.7189  0.2669
  739MOL0     C 1851   4.839  10.867   7.456 -0.1996  0.4976 -0.3212
  739MOL0     O 1852   4.894  10.994   7.451  0.3162 -0.2320  0.2905
  739MOL0     C 1853   5.005  11.015   7.351 -0.4735  0.0328 -0.1069
  739MOL0     C 1854   5.048  11.159   7.335  0.2142 -0.6977  0.7742
  739MOL0     C 1855   5.102  11.214   7.463 -0.5714  0.2615  0.6192
  739MOL0     C 1856   5.031  11.194   7.598 -0.4431 -0.4451  0.4412
  739MOL0     C 1857   5.101  11.264   7.713 -0.8956  0.0705 -0.2701
  739MOL0     C 1858   5.038  11.246   7.851 -0.2756 -0.2703  0.7033
  739MOL0     C 1859   5.087  11.335   7.962  0.0820  0.2364 -0.7050
  739MOL0     C 1860   5.010  11.320   8.089  0.6296 -0.5921 -0.3641
  739MOL0     N 1861   5.000  11.180   8.142  0.3699  0.2173  0.7272
  739MOL0     C 1862   5.108  11.090   8.146  1.0671  0.4889  0.0517
  739MOL0     C 1863   5.085  11.010   8.243 -0.2899 -0.6463  0.1528
  739MOL0     C 1864   5.159  10.883   8.273 -0.4296  0.0932 -0.4487
  739MOL0     C 1865   5.054  10.772   8.273  0.2589  0.1834 -0.2630
  739MOL0     C 1866   5.109  10.637   8.319  0.5439  0.1219 -0.3824
  739MOL0     C 1867   4.998  10.531   8.335 -0.2271 -0.1334 -0.4468
  739MOL0     O 1868   4.910  10.539   8.218 -0.3314  0.5694  0.0271
  739MOL0     C 1869   4.816  10.434   8.205 -0.9507  0.7161  0.1279
  739MOL0     C 1870   4.858  10.300   8.190 -0.6337 -0.3228 -0.2195
  739MOL0     C 1871   4.764  10.199   8.203 -0.2614 -1.0929  0.2132
  739MOL0     C 1872   4.831  10.061   8.206 -0.0863  0.6177 -0.4987
  739MOL0     C 1873   4.626  10.235   8.234 -1.4151  0.1515  0.4207
  739MOL0     C 1874   4.532  10.120   8.252 -1.0308 -1.0449  0.3549
  739MOL0     O 1875   4.412  10.128   8.194  0.5680  0.1267  0.5503
  739MOL0     C 1876   4.328  10.023   8.179  0.6293 -1.1902 -0.5879
  739MOL0     C 1877   4.358   9.886   8.183 -0.0019 -0.4579 -0.2125
  739MOL0     C 1878   4.267   9.786   8.151 -0.3685 -0.3747  0.2369
  739MOL0     C 1879   4.141   9.819   8.126  0.3353 -0.6846 -0.3097
  739MOL0     O 1880   4.055   9.727   8.072  0.2992  0.2761 -0.3960
  739MOL0     C 1881   3.983   9.636   8.167  0.5237 -0.6353 -0.9281
  739MOL0     C 1882   3.985   9.687   8.320 -0.1594 -0.1135 -0.5271
  739MOL0     C 1883   3.889   9.601   8.408  0.0622 -0.4074  0.4007
  739MOL0     C 1884   3.744   9.640   8.381 -0.2143 -0.1499  0.7017
  739MOL0     C 1885   3.651   9.554   8.458  0.5512  0.8015  0.7700
  739MOL0     C 1886   3.646   9.408   8.395  0.1691 -0.4772 -0.4406
  739MOL0     C 1887   3.551   9.322   8.479  0.1087 -0.8489 -0.0669
  739MOL0     C 1888   3.563   9.169   8.436  0.5372 -0.1350 -0.5231
  739MOL0    Cl 1889   3.396   9.107   8.472  0.1913 -0.0986 -0.6228
  739MOL0     C 1890   4.105   9.954   8.115 -0.4121 -0.0223  0.6371
  739MOL0     C 1891   4.199  10.054   8.135  0.3966  0.0033 -0.3664
  739MOL0     O 1892   4.555  10.041   8.344  0.0804 -0.1113  0.5979
  739MOL0     C 1893   4.587  10.368   8.234 -1.3624  0.2033  0.1981
  739MOL0     C 1894   4.683  10.470   8.220 -0.0478 -0.2326  0.5459
  739MOL0     N 1895   4.965  11.036   8.306  0.9022  0.6275 -0.0172
  739MOL0     N 1896   4.921  11.144   8.243 -0.0422 -0.1150 -0.2732
  739MOL0     C 1897   4.925  10.756   7.460  0.0441 -0.3036  0.4697
  739MOL0     C 1898   4.867  10.624   7.480  0.7743 -0.2302  0.3628
  739MOL0     C 1899   4.578  10.318   7.687 -0.0601  0.3081 -0.6950
  739MOL0     C 1900   4.627  10.213   7.616 -0.7816  0.1101 -1.0567
  739MOL0     C 1901   4.566  10.092   7.631  0.3351 -0.2201 -0.5013
  739MOL0     C 1902   4.458  10.065   7.718  0.7456 -0.5372 -0.2334
  739MOL0     O 1903   4.411   9.930   7.719 -0.1355 -0.0268  0.0357
  739MOL0     C 1904   4.318   9.894   7.815  0.3715  0.2546 -0.4545
  739MOL0     C 1905   4.291   9.753   7.781 -0.3470  0.5240  0.0874
  739MOL0     C 1906   4.221   9.735   7.643  0.2697  0.0121 -0.3207
  739MOL0     C 1907   4.174   9.595   7.615  0.3114  0.6062 -0.6733
  739MOL0     C 1908   4.133   9.580   7.476  0.3021 -0.7769  0.0733
  739MOL0     C 1909   4.090   9.571   7.361  0.2807 -0.3332  0.7319
  739MOL0     C 1910   4.414  10.167   7.793 -0.3479  0.1374 -0.0212
  739MOL0     C 1911   4.465  10.299   7.775 -0.4489 -0.2374 -0.3044
  739MOL0     C 1912   4.396  10.411   7.841  0.9009  0.7458  0.5984
  739MOL0     H 1913   4.544  10.727   7.523  0.5613  1.0904  1.0410
  739MOL0     H 1914   4.640  10.937   7.478 -1.0760 -1.3465 -0.8277
  739MOL0     H 1915   4.975  10.988   7.249 -1.0570 -3.4434  0.8265
  739MOL0     H 1916   5.085  10.942   7.367 -2.7046 -3.2040 -2.4298
  739MOL0     H 1917   5.117  11.170   7.251  2.8841 -4.7914  2.1573
  739MOL0     H 1918   4.955  11.214   7.313  0.3283 -1.2213 -1.1737
  739MOL0     H 1919   5.205  11.178   7.470 -0.2799  0.6599 -1.1083
  739MOL0     H 1920   5.106  11.321   7.442  2.5424 -0.2544 -2.3523
  739MOL0     H 1921   4.927  11.230   7.598 -0.4599 -0.3252  2.8032
  739MOL0     H 1922   5.043  11.089   7.626  2.0383 -0.2049  0.4443
  739MOL0     H 1923   5.093  11.372   7.701 -3.8256  0.3725  2.9672
  739MOL0     H 1924   5.204  11.225   7.714 -0.4583  1.1927 -0.6983
  739MOL0     H 1925   4.931  11.264   7.836 -0.0137  0.9041  0.1497
  739MOL0     H 1926   5.057  11.143   7.882 -2.3616 -1.5894 -2.0346
  739MOL0     H 1927   5.085  11.435   7.920 -2.9438  0.9971  0.9543
  739MOL0     H 1928   5.193  11.315   7.980 -0.0656 -0.5112 -0.6131
  739MOL0     H 1929   5.076  11.376   8.155  2.7679 -2.5124 -0.7609
  739MOL0     H 1930   4.910  11.364   8.086  0.5899 -0.1940  2.9265
  739MOL0     H 1931   5.193  11.097   8.078  0.8203  0.2700 -0.2808
  739MOL0     H 1932   5.195  10.900   8.375 -3.9972  3.0307  0.5564
  739MOL0     H 1933   5.236  10.858   8.200  0.7313 -2.2601  1.4251
  739MOL0     H 1934   4.973  10.801   8.340  0.3593  0.7896 -0.3990
  739MOL0     H 1935   5.012  10.764   8.172  1.4021 -0.2605 -0.7220
  739MOL0     H 1936   5.178  10.595   8.244  1.9789 -3.4583  2.6392
  739MOL0     H 1937   5.175  10.634   8.406  1.1401 -1.5979 -0.8473
  739MOL0     H 1938   5.043  10.431   8.339  1.3285  0.3944 -3.0191
  739MOL0     H 1939   4.941  10.544   8.428  0.0592  0.8699 -0.3998
  739MOL0     H 1940   4.964  10.285   8.174 -0.8105 -2.7945  0.5253
  739MOL0     H 1941   4.884  10.052   8.301  3.1134  1.0008 -2.1049
  739MOL0     H 1942   4.911  10.064   8.132  1.7299  1.6954  1.3965
  739MOL0     H 1943   4.764   9.977   8.185 -3.1286  2.8619 -0.5560
  739MOL0     H 1944   4.458   9.845   8.199 -1.5382 -4.4307  0.3333
  739MOL0     H 1945   4.306   9.688   8.124 -0.0624  1.0870 -6.3838
  739MOL0     H 1946   3.882   9.635   8.127 -0.0180 -0.7748  0.3792
  739MOL0     H 1947   4.016   9.531   8.166  1.0775 -0.7494  3.7701
  739MOL0     H 1948   4.084   9.677   8.364  0.7655 -0.8395 -2.6583
  739MOL0     H 1949   3.955   9.792   8.317 -1.7365 -0.5195 -0.1499
  739MOL0     H 1950   3.906   9.611   8.516  3.1763 -0.9179  0.0562
  739MOL0     H 1951   3.901   9.498   8.375  2.0346 -0.2049  0.3955
  739MOL0     H 1952   3.713   9.630   8.276 -1.2017  1.5609  0.7964
  739MOL0     H 1953   3.732   9.745   8.406 -2.3783 -0.4278  1.0482
  739MOL0     H 1954   3.696   9.539   8.557  1.7585 -0.7603  0.0231
  739MOL0     H 1955   3.550   9.594   8.475  0.0556 -0.6562  1.4658
  739MOL0     H 1956   3.746   9.365   8.386  1.4835  2.5716 -1.9524
  739MOL0     H 1957   3.605   9.407   8.294 -2.5745 -2.2355  0.6059
  739MOL0     H 1958   3.451   9.362   8.461  0.0208 -0.3797  1.3262
  739MOL0     H 1959   3.577   9.337   8.584  0.9112 -3.9024  0.2712
  739MOL0     H 1960   3.638   9.116   8.496  0.1729  0.6396  0.6550
  739MOL0     H 1961   3.574   9.157   8.328  3.2021 -0.0527 -0.3267
  739MOL0     H 1962   4.004   9.979   8.083 -0.3765  2.0542  1.9500
  739MOL0     H 1963   4.175  10.159   8.126  3.1439  0.6953 -0.6905
  739MOL0     H 1964   4.484  10.401   8.248 -2.3070 -2.3969 -0.1024
  739MOL0     H 1965   4.648  10.571   8.239 -0.7841 -0.4163  0.1973
  739MOL0     H 1966   5.032  10.774   7.458 -0.3485  2.4608 -1.2584
  739MOL0     H 1967   4.944  10.547   7.469 -1.1066 -1.8761 -3.0094
  739MOL0     H 1968   4.710  10.231   7.548  1.9069  1.5383  2.3137
  739MOL0     H 1969   4.614  10.008   7.582  2.8391  0.3204  0.9027
  739MOL0     H 1970   4.359   9.907   7.916  0.5424 -1.5782 -0.2613
  739MOL0     H 1971   4.227   9.955   7.815  0.1247 -0.1101  0.1504
  739MOL0     H 1972   4.236   9.707   7.864  1.4147 -3.2368 -0.5919
  739MOL0     H 1973   4.383   9.694   7.769 -0.4145  0.4887 -0.2515
  739MOL0     H 1974   4.134   9.801   7.654  0.7701  0.6301 -0.0363
  739MOL0     H 1975   4.283   9.770   7.560  2.7438 -1.7160  0.6900
  739MOL0     H 1976   4.098   9.565   7.688  1.1625  1.1022  0.4469
  739MOL0     H 1977   4.258   9.528   7.639 -1.5670 -1.7461 -0.2528
  739MOL0     H 1978   4.074   9.573   7.255 -0.2414 -1.2752  0.7798
  739MOL0     H 1979   4.318  10.148   7.841 -0.5249 -1.9445 -1.0943
  739MOL0     H 1980   4.288  10.398   7.830  1.1194 -0.8163 -0.0687
  739MOL0     H 1981   4.431  10.420   7.944  0.2355  1.2466  0.7917
  739MOL0     H 1982   4.412  10.504   7.786  1.7371  0.0109 -0.4386
  740MOL0     O 1983   9.997   3.807  10.495  1.0293 -0.0977 -1.0631
  740MOL0     C 1984   9.913   3.845  10.581 -0.2498 -0.2199 -0.0710
  740MOL0     O 1985   9.900   3.975  10.622  0.2514 -0.1622  0.6731
  740MOL0     C 1986   9.933   4.093  10.561 -0.3908 -0.4712 -0.0216
  740MOL0     C 1987   9.947   4.105  10.423 -0.2244  0.3805 -0.1110
  740MOL0     C 1988   9.977   4.230  10.374 -0.1705  0.4711  0.6500
  740MOL0     C 1989   9.982   4.342  10.454  0.3070 -0.0442  0.5176
  740MOL0     O 1990   9.990   4.467  10.397  0.3196  0.5958 -0.0410
  740MOL0     C 1991  10.053   4.571  10.478 -0.5062  0.2630 -0.4851
  740MOL0     C 1992  10.088   4.689  10.391  0.2486 -0.1790  1.0222
  740MOL0     C 1993  10.112   4.809  10.487 -0.5446  0.1162  0.6560
  740MOL0     C 1994  10.126   4.935  10.403 -0.9185  0.2421 -0.7477
  740MOL0     C 1995  10.191   5.042  10.485 -0.5231 -0.2181 -0.0919
  740MOL0     C 1996  10.180   5.180  10.418  0.0213  0.2953 -0.5054
  740MOL0     C 1997  10.198   5.304  10.516  0.0369  0.5649 -0.2330
  740MOL0     C 1998  10.319   5.306  10.615 -0.2388  0.1056 -0.6869
  740MOL0     N 1999  10.448   5.313  10.547 -0.1278  0.0694  0.6471
  740MOL0     C 2000  10.531   5.205  10.523  0.4615 -0.5781  0.5814
  740MOL0     C 2001  10.634   5.254  10.454 -1.1239  0.3575  1.0382
  740MOL0     C 2002  10.736   5.171  10.382 -1.1647  0.4145  0.1876
  740MOL0     C 2003  10.856   5.125  10.478  0.1779 -0.2789 -0.4341
  740MOL0     C 2004  10.988   5.201  10.471  0.8567 -0.5093  0.1741
  740MOL0     C 2005  10.975   5.347  10.428  0.7747 -0.8129 -0.8409
  740MOL0     O 2006  11.096   5.415  10.446 -0.7528 -0.3899 -1.3063
  740MOL0     C 2007  11.194   5.385  10.355 -1.0918 -0.8289  0.0075
  740MOL0     C 2008  11.326   5.397  10.401 -0.9769 -0.2918  0.4033
  740MOL0     C 2009  11.440   5.369  10.319 -0.5105 -0.1111 -0.2526
  740MOL0     C 2010  11.571   5.414  10.376  2.1879  1.2238 -0.2727
  740MOL0     C 2011  11.419   5.312  10.190 -0.3940  1.1892  0.4321
  740MOL0     C 2012  11.523   5.259  10.092 -0.7789 -0.9075 -0.2849
  740MOL0     O 2013  11.480   5.180   9.990 -0.3423  0.8022  0.0946
  740MOL0     C 2014  11.565   5.101   9.915 -0.7539 -0.5914  0.1617
  740MOL0     C 2015  11.531   4.963   9.913 -0.8083 -0.2686 -0.0671
  740MOL0     C 2016  11.618   4.871   9.859  0.4496 -0.7440  0.2063
  740MOL0     C 2017  11.736   4.911   9.798 -0.4572  0.7081 -0.8012
  740MOL0     O 2018  11.814   4.827   9.730  0.3381  0.0042 -0.5565
  740MOL0     C 2019  11.811   4.693   9.779  0.8262  1.0151 -0.4030
  740MOL0     C 2020  11.870   4.673   9.915 -2.0254  1.0125 -0.2513
  740MOL0     C 2021  12.024   4.708   9.934  0.1714 -0.6718  0.1590
  740MOL0     C 2022  12.123   4.621   9.871 -0.5425 -0.2599  0.3440
  740MOL0     C 2023  12.252   4.697   9.875  0.6227 -0.3778  1.1573
  740MOL0     C 2024  12.334   4.706  10.006 -0.3735  0.2664  0.1577
  740MOL0     C 2025  12.321   4.588  10.114  0.3529  0.1719 -0.6302
  740MOL0     C 2026  12.346   4.636  10.256  1.0827  0.2689  0.1937
  740MOL0    Cl 2027  12.199   4.715  10.320  0.1423  0.1972 -0.2130
  740MOL0     C 2028  11.767   5.048   9.790  0.2173 -0.5918  0.6654
  740MOL0     C 2029  11.680   5.147   9.848 -0.1918  0.7645  0.0804
  740MOL0     O 2030  11.638   5.268  10.121  0.2001  0.9261 -0.4817
  740MOL0     C 2031  11.287   5.295  10.146  0.1255 -0.0533 -0.5071
  740MOL0     C 2032  11.180   5.336  10.232  0.1413 -0.0943  0.6105
  740MOL0     N 2033  10.617   5.385  10.439  0.3876  0.9921  0.2542
  740MOL0     N 2034  10.517   5.426  10.504  0.1305  0.4243  1.0904
  740MOL0     C 2035   9.963   4.324  10.593 -0.7313 -0.7994  0.1634
  740MOL0     C 2036   9.946   4.197  10.644 -0.0446  0.0534 -1.1075
  740MOL0     C 2037   9.824   3.745  10.639  0.7206 -0.2903 -0.0804
  740MOL0     C 2038   9.876   3.607  10.631 -0.5370 -0.4573  0.2188
  740MOL0     C 2039   9.809   3.506  10.701 -0.1171 -0.4273  0.4973
  740MOL0     C 2040   9.693   3.532  10.771 -0.5366 -0.2777  0.4904
  740MOL0     O 2041   9.641   3.428  10.843 -0.3974 -0.0758 -0.4365
  740MOL0     C 2042   9.636   3.449  10.982  0.5414 -0.1598  0.2532
  740MOL0     C 2043   9.782   3.447  11.029  0.0340 -0.2551 -0.6239
  740MOL0     C 2044   9.806   3.483  11.179 -1.1332  0.1598 -0.3400
  740MOL0     C 2045   9.735   3.404  11.285  0.4589 -0.0098 -0.0974
  740MOL0     C 2046   9.748   3.254  11.257 -0.2520 -0.0691 -0.0728
  740MOL0     C 2047   9.769   3.145  11.213  0.1847  0.5269  0.1915
  740MOL0     C 2048   9.631   3.654  10.757  0.7829  0.0331  1.0954
  740MOL0     C 2049   9.693   3.765  10.700  0.6398  0.8183 -0.3031
  740MOL0     C 2050   9.626   3.901  10.725 -0.7387  0.0430  0.4950
  740MOL0     H 2051   9.933   4.015  10.364 -1.5531 -1.2502  2.5040
  740MOL0     H 2052   9.971   4.243  10.266 -0.4183 -1.4561  0.3930
  740MOL0     H 2053  10.141   4.543  10.537 -1.4450 -0.4042  0.6370
  740MOL0     H 2054   9.982   4.611  10.550  1.0359  1.1772  0.5631
  740MOL0     H 2055  10.177   4.662  10.334  1.1193  0.8042  1.8673
  740MOL0     H 2056  10.014   4.720  10.316  0.7494 -0.0180  0.5860
  740MOL0     H 2057  10.034   4.816  10.563  0.1652  1.3098  1.3036
  740MOL0     H 2058  10.211   4.789  10.530  1.2561  2.7565 -1.8426
  740MOL0     H 2059  10.183   4.916  10.311  0.3123  0.3114 -0.0150
  740MOL0     H 2060  10.024   4.969  10.385 -0.9417 -0.1734 -1.4814
  740MOL0     H 2061  10.299   5.028  10.490 -0.2800  1.1643 -0.9085
  740MOL0     H 2062  10.161   5.053  10.589 -0.5960  0.5883 -0.1949
  740MOL0     H 2063  10.261   5.173  10.344 -1.7279 -1.4155 -2.3524
  740MOL0     H 2064  10.089   5.192  10.359 -1.6395 -0.7824  1.7077
  740MOL0     H 2065  10.103   5.311  10.570  0.3826  3.5975  0.1897
  740MOL0     H 2066  10.184   5.395  10.457 -0.3786  1.5740  1.3668
  740MOL0     H 2067  10.313   5.385  10.691  1.0144  1.2363 -1.6955
  740MOL0     H 2068  10.323   5.214  10.673  2.4054 -0.3642 -1.5037
  740MOL0     H 2069  10.520   5.100  10.548  0.8584 -0.5556  0.8607
  740MOL0     H 2070  10.766   5.220  10.288 -3.5146  2.5362  0.4424
  740MOL0     H 2071  10.695   5.076  10.346  0.2754 -0.6700  1.2945
  740MOL0     H 2072  10.836   5.131  10.585  3.6586  5.0600  0.3422
  740MOL0     H 2073  10.886   5.022  10.456 -2.5788 -1.8832  2.4167
  740MOL0     H 2074  11.043   5.201  10.566  0.9397  0.2210  0.1315
  740MOL0     H 2075  11.059   5.149  10.407 -0.0444  0.5169 -1.7448
  740MOL0     H 2076  10.930   5.356  10.329 -2.2516 -0.7179  0.4045
  740MOL0     H 2077  10.898   5.385  10.496  2.2105 -1.9425  1.5432
  740MOL0     H 2078  11.340   5.443  10.499 -4.7800 -1.2234  1.5490
  740MOL0     H 2079  11.620   5.496  10.323  0.4881  1.2154 -1.9560
  740MOL0     H 2080  11.638   5.327  10.370 -1.1233 -1.4084 -4.0794
  740MOL0     H 2081  11.545   5.442  10.479 -3.2470 -0.0132 -1.0512
  740MOL0     H 2082  11.433   4.931   9.949  0.8539 -0.6158  4.8708
  740MOL0     H 2083  11.573   4.773   9.847 -0.2282 -0.6175  1.4818
  740MOL0     H 2084  11.713   4.647   9.761  1.1177  0.1992  0.0200
  740MOL0     H 2085  11.865   4.640   9.699  0.0840 -0.4979  0.0476
  740MOL0     H 2086  11.814   4.723   9.995  1.4849 -2.3155  4.8779
  740MOL0     H 2087  11.862   4.566   9.937 -3.3416  1.0845 -0.2701
  740MOL0     H 2088  12.047   4.727  10.039  1.9878 -0.5174 -0.2352
  740MOL0     H 2089  12.033   4.809   9.891 -1.7264 -1.1405 -1.4818
  740MOL0     H 2090  12.098   4.600   9.766  2.4717  2.9238 -1.2444
  740MOL0     H 2091  12.130   4.526   9.923 -4.4858 -1.4163 -0.9056
  740MOL0     H 2092  12.315   4.655   9.796 -0.9066  0.1000 -0.3702
  740MOL0     H 2093  12.237   4.796   9.833  2.0565  0.1412  1.8348
  740MOL0     H 2094  12.311   4.802  10.052  0.0290 -0.6297  2.3060
  740MOL0     H 2095  12.436   4.693   9.970 -0.8839 -2.5473 -0.4868
  740MOL0     H 2096  12.402   4.516  10.097  0.9834  0.9005 -0.7853
  740MOL0     H 2097  12.231   4.527  10.107  2.2365 -2.7698 -1.1734
  740MOL0     H 2098  12.429   4.708  10.259  0.8959  0.5242 -0.5628
  740MOL0     H 2099  12.377   4.551  10.318  2.6071  0.1217 -0.7233
  740MOL0     H 2100  11.854   5.072   9.729  0.4686 -3.7753 -0.4344
  740MOL0     H 2101  11.697   5.253   9.835  0.3280  0.8160  1.0783
  740MOL0     H 2102  11.255   5.260  10.048 -0.5407  2.3928 -1.2452
  740MOL0     H 2103  11.082   5.317  10.191 -0.2138  2.4806  0.0469
  740MOL0     H 2104   9.951   4.413  10.654  0.6265  2.0871 -3.4217
  740MOL0     H 2105   9.932   4.182  10.751  2.9500 -2.8084 -0.9604
  740MOL0     H 2106   9.972   3.581  10.587 -1.3226 -1.2158 -1.1421
  740MOL0     H 2107   9.848   3.405  10.699 -3.2172 -1.7545  0.2881
  740MOL0     H 2108   9.590   3.549  10.986  0.1307  0.0078 -4.1169
  740MOL0     H 2109   9.561   3.384  11.028  2.0629 -0.5508  2.3237
  740MOL0     H 2110   9.839   3.525  10.978 -1.7686  1.2122 -0.4907
  740MOL0     H 2111   9.823   3.346  11.017 -1.6763 -1.1302  0.5397
  740MOL0     H 2112   9.914   3.471  11.189 -1.2332 -0.2725  0.2757
  740MOL0     H 2113   9.763   3.584  11.185 -1.2931  0.0751 -0.0752
  740MOL0     H 2114   9.630   3.433  11.279  0.6896  1.1033  0.8344
  740MOL0     H 2115   9.780   3.428  11.382  2.0083 -1.5877 -0.3838
  740MOL0     H 2116   9.776   3.050  11.164  0.1412  1.8371 -2.5583
  740MOL0     H 2117   9.534   3.654  10.806 -0.1178  3.2121 -0.4308
  740MOL0     H 2118   9.637   3.958  10.632  1.9385  1.6933  1.7027
  740MOL0     H 2119   9.519   3.877  10.725 -0.2695 -2.7015 -2.1772
  740MOL0     H 2120   9.649   3.962  10.812 -2.5713  2.7153 -0.7522
  741MOL0     O 2121   8.359   8.713   2.575 -0.2337  0.1616 -0.3310
  741MOL0     C 2122   8.464   8.710   2.515  0.0180 -0.6236 -0.0630
  741MOL0     O 2123   8.486   8.662   2.389  0.2156 -0.4429  0.2238
  741MOL0     C 2124   8.370   8.636   2.312  0.8876  0.3560 -0.4459
  741MOL0     C 2125   8.311   8.747   2.251  1.0492 -0.2872  0.0924
  741MOL0     C 2126   8.197   8.738   2.170  0.0732 -0.4070 -0.5206
  741MOL0     C 2127   8.141   8.614   2.146  0.4031 -0.1668 -0.2271
  741MOL0     O 2128   8.027   8.603   2.065  0.9183 -0.0879  0.2752
  741MOL0     C 2129   7.968   8.711   1.997 -0.1936  0.0142 -0.3235
  741MOL0     C 2130   7.853   8.675   1.901 -0.0923  0.1828 -0.4722
  741MOL0     C 2131   7.786   8.799   1.870 -1.2566  0.6652  0.4093
  741MOL0     C 2132   7.654   8.774   1.801  0.7589 -0.1043 -0.4667
  741MOL0     C 2133   7.584   8.913   1.792 -0.1869 -0.8144  0.4932
  741MOL0     C 2134   7.522   8.917   1.651 -0.5143 -0.8105  0.6016
  741MOL0     C 2135   7.448   9.049   1.620  0.3455 -0.3143  0.9254
  741MOL0     C 2136   7.446   9.090   1.468 -0.6134 -0.2357  0.4924
  741MOL0     N 2137   7.402   9.227   1.453  0.8116 -0.3179  0.9466
  741MOL0     C 2138   7.272   9.262   1.437 -1.1223 -0.3246  0.2330
  741MOL0     C 2139   7.274   9.394   1.435  0.0470  0.3290 -0.2767
  741MOL0     C 2140   7.153   9.487   1.418 -1.2576 -0.9507  0.8667
  741MOL0     C 2141   7.102   9.509   1.563  0.2334 -0.2256  0.1699
  741MOL0     C 2142   7.019   9.640   1.581  0.0784  0.0954  0.5181
  741MOL0     C 2143   6.872   9.628   1.537 -0.1105 -0.0232  0.0369
  741MOL0     O 2144   6.859   9.605   1.397 -0.7698  0.7173  0.1067
  741MOL0     C 2145   6.852   9.691   1.297 -1.2365  0.1642  0.2889
  741MOL0     C 2146   6.768   9.803   1.321 -0.5823 -0.0289  0.2747
  741MOL0     C 2147   6.763   9.902   1.217 -0.1068 -0.8790  0.1303
  741MOL0     C 2148   6.665  10.011   1.252 -0.6098 -0.5424  0.2747
  741MOL0     C 2149   6.840   9.894   1.099  0.2129  0.1318  0.1136
  741MOL0     C 2150   6.838   9.991   0.979 -0.5778  0.1998  0.7378
  741MOL0     O 2151   6.952   9.991   0.906  0.1798 -0.4217 -0.5455
  741MOL0     C 2152   6.970  10.069   0.794 -0.3258 -0.2575 -0.2066
  741MOL0     C 2153   7.090  10.034   0.738 -0.0000  0.0225  0.6222
  741MOL0     C 2154   7.137  10.099   0.623 -0.9988 -0.8345  0.1178
  741MOL0     C 2155   7.070  10.206   0.570  0.0210  0.1521  0.5207
  741MOL0     O 2156   7.103  10.292   0.462  0.1516  0.5962  0.1976
  741MOL0     C 2157   7.230  10.294   0.398  0.2992  0.4555 -0.9818
  741MOL0     C 2158   7.219  10.408   0.301  0.0185 -0.6086  0.1416
  741MOL0     C 2159   7.182  10.540   0.376 -0.4885  0.0658 -0.4062
  741MOL0     C 2160   7.213  10.670   0.297  0.4061 -0.2017  0.7419
  741MOL0     C 2161   7.142  10.801   0.348 -0.2066 -0.3700 -0.4576
  741MOL0     C 2162   7.175  10.932   0.270  0.4170  1.3773  0.1334
  741MOL0     C 2163   7.097  11.055   0.325 -0.0708 -0.7360  0.0640
  741MOL0     C 2164   7.172  11.133   0.433 -0.7015 -0.6197  0.5751
  741MOL0    Cl 2165   7.131  11.074   0.597  0.0549  0.3874  0.0238
  741MOL0     C 2166   6.950  10.244   0.628 -0.1863 -0.1238  0.0793
  741MOL0     C 2167   6.904  10.174   0.740 -0.9655  0.2150  0.6150
  741MOL0     O 2168   6.749  10.070   0.965  0.3502 -0.3993  0.6655
  741MOL0     C 2169   6.932   9.781   1.080 -1.3101  0.2130  0.7989
  741MOL0     C 2170   6.932   9.681   1.181 -0.4388  0.3939 -0.4067
  741MOL0     N 2171   7.404   9.441   1.435 -0.1425 -0.4732 -0.6962
  741MOL0     N 2172   7.475   9.338   1.453  0.3360 -0.4285 -0.0103
  741MOL0     C 2173   8.185   8.499   2.215 -0.0096  0.4952  0.1440
  741MOL0     C 2174   8.309   8.510   2.290  0.2654 -0.3655  1.4616
  741MOL0     C 2175   8.571   8.776   2.592  0.3899  0.6357 -0.3571
  741MOL0     C 2176   8.603   8.910   2.575  0.5296 -0.5743 -0.4259
  741MOL0     C 2177   8.699   8.972   2.649 -0.4123  0.3169 -0.7801
  741MOL0     C 2178   8.774   8.899   2.744  0.5938 -0.6883  0.0378
  741MOL0     O 2179   8.865   8.958   2.816 -0.2388 -0.5911  0.0715
  741MOL0     C 2180   8.888   9.102   2.828  1.6775  0.8780 -0.3596
  741MOL0     C 2181   9.014   9.145   2.903  1.6914 -0.2445 -0.4779
  741MOL0     C 2182   9.147   9.104   2.825  1.7322  0.7072  0.7200
  741MOL0     C 2183   9.201   9.228   2.730 -0.0879  0.3675 -0.6554
  741MOL0     C 2184   9.331   9.194   2.679  0.3083  0.0295 -0.5263
  741MOL0     C 2185   9.434   9.164   2.631 -0.9173 -1.4230 -0.5376
  741MOL0     C 2186   8.750   8.767   2.757 -1.0428 -0.1904 -0.4061
  741MOL0     C 2187   8.641   8.708   2.693  0.8548 -0.1178 -0.5985
  741MOL0     C 2188   8.600   8.569   2.755 -0.5817  0.0660 -0.0700
  741MOL0     H 2189   8.338   8.848   2.278 -4.1126  1.5237 -0.4903
  741MOL0     H 2190   8.154   8.838   2.163  0.0051 -0.1244  2.4086
  741MOL0     H 2191   8.042   8.776   1.948  0.1793  0.0130  0.2341
  741MOL0     H 2192   7.937   8.773   2.081 -0.1927 -3.2147  2.2019
  741MOL0     H 2193   7.887   8.637   1.803  0.9188 -1.4263  0.4418
  741MOL0     H 2194   7.796   8.603   1.960  0.3991  1.5223  1.7055
  741MOL0     H 2195   7.761   8.852   1.962 -1.6958 -4.0674  3.3767
  741MOL0     H 2196   7.844   8.862   1.801  2.3244 -0.6001  2.0172
  741MOL0     H 2197   7.659   8.727   1.703 -0.7298 -1.0414 -0.1172
  741MOL0     H 2198   7.584   8.711   1.856 -1.7881  0.9596 -2.2814
  741MOL0     H 2199   7.653   8.998   1.778 -0.7647 -0.3509  0.4289
  741MOL0     H 2200   7.510   8.945   1.866 -0.9274 -1.2580 -0.0487
  741MOL0     H 2201   7.600   8.912   1.574 -0.4347  4.3958  0.0225
  741MOL0     H 2202   7.444   8.841   1.653 -3.2466  1.8346  1.6532
  741MOL0     H 2203   7.501   9.125   1.678  0.1839  0.8075 -0.3557
  741MOL0     H 2204   7.349   9.040   1.666 -0.4770 -2.0558 -1.0206
  741MOL0     H 2205   7.546   9.085   1.423 -1.4348 -0.4472 -1.3776
  741MOL0     H 2206   7.381   9.021   1.413 -2.7873  1.5781  0.6334
  741MOL0     H 2207   7.188   9.194   1.440  0.6108 -2.5769  0.2598
  741MOL0     H 2208   7.082   9.441   1.349 -0.6165 -0.1247 -0.3743
  741MOL0     H 2209   7.193   9.582   1.381 -4.2206  0.2948  0.5362
  741MOL0     H 2210   7.026   9.432   1.582 -2.5805  2.1166 -0.7237
  741MOL0     H 2211   7.187   9.498   1.631  0.6624 -1.9880 -0.5984
  741MOL0     H 2212   7.017   9.670   1.686 -2.1128  0.3275  0.4580
  741MOL0     H 2213   7.063   9.729   1.535 -3.4625 -0.0940 -3.9452
  741MOL0     H 2214   6.823   9.551   1.598  1.5099  0.6417  2.2987
  741MOL0     H 2215   6.815   9.718   1.565  0.7740  0.9580 -1.2241
  741MOL0     H 2216   6.715   9.810   1.415 -0.8172 -1.1473  0.2397
  741MOL0     H 2217   6.582  10.026   1.182 -1.4556  2.3483  1.7338
  741MOL0     H 2218   6.720  10.106   1.257 -1.7142  0.1123  0.3500
  741MOL0     H 2219   6.601   9.995   1.339 -2.6530  2.4249 -0.5298
  741MOL0     H 2220   7.142   9.945   0.771  0.1927 -0.7254 -1.5425
  741MOL0     H 2221   7.231  10.062   0.583 -0.1083 -0.5069  1.8235
  741MOL0     H 2222   7.304  10.309   0.477 -3.9992  2.8373  3.0818
  741MOL0     H 2223   7.259  10.199   0.352  0.3385  0.2598 -0.5535
  741MOL0     H 2224   7.314  10.420   0.250  0.4166 -0.2368  0.9437
  741MOL0     H 2225   7.154  10.381   0.217 -2.8116  0.5827  1.7955
  741MOL0     H 2226   7.235  10.538   0.472 -2.6055  2.2841  0.9450
  741MOL0     H 2227   7.076  10.539   0.404 -0.5262  0.0854 -0.5441
  741MOL0     H 2228   7.177  10.653   0.195 -0.4880 -0.2615  1.0597
  741MOL0     H 2229   7.321  10.683   0.289  0.1490  1.9910  0.0776
  741MOL0     H 2230   7.034  10.783   0.343 -0.4241  0.1521  1.3851
  741MOL0     H 2231   7.179  10.810   0.450 -1.1565 -1.4216 -0.0106
  741MOL0     H 2232   7.131  10.914   0.171  2.0555  0.0141 -0.4073
  741MOL0     H 2233   7.283  10.949   0.265  0.5373  0.4757 -1.1606
  741MOL0     H 2234   6.996  11.038   0.363 -0.0406 -1.1720 -0.0546
  741MOL0     H 2235   7.092  11.121   0.237  2.3407 -0.5591 -0.0051
  741MOL0     H 2236   7.143  11.238   0.421  1.2067 -0.1337 -0.0840
  741MOL0     H 2237   7.281  11.123   0.429 -0.7140 -0.7723  0.6040
  741MOL0     H 2238   6.891  10.327   0.593 -1.2690 -0.2640  1.5184
  741MOL0     H 2239   6.806  10.205   0.776 -1.3212 -0.2162  0.0299
  741MOL0     H 2240   7.001   9.759   0.998 -0.8668  0.6602  1.0510
  741MOL0     H 2241   6.990   9.591   1.163  1.1509  0.8088  2.1459
  741MOL0     H 2242   8.139   8.402   2.200 -2.7371  1.4043  1.9877
  741MOL0     H 2243   8.335   8.429   2.357 -0.3909  2.1370  5.0439
  741MOL0     H 2244   8.549   8.962   2.497 -0.1016 -0.3664  0.1425
  741MOL0     H 2245   8.719   9.078   2.634 -2.0779  0.9550  1.1468
  741MOL0     H 2246   8.903   9.148   2.730  1.2945  0.4229 -0.6375
  741MOL0     H 2247   8.795   9.150   2.860 -0.3054 -1.4941 -2.0637
  741MOL0     H 2248   9.024   9.112   3.007  2.7024  0.3116 -0.3872
  741MOL0     H 2249   9.007   9.254   2.906 -2.5341 -0.3302  1.8881
  741MOL0     H 2250   9.222   9.088   2.903  1.0406  3.1430  2.0039
  741MOL0     H 2251   9.126   9.021   2.758 -1.2939 -1.7603  4.3135
  741MOL0     H 2252   9.198   9.315   2.796  2.1362  1.5713 -2.0310
  741MOL0     H 2253   9.131   9.240   2.646 -1.7703  0.2073  0.6635
  741MOL0     H 2254   9.529   9.131   2.594 -0.3922  1.9692 -2.6441
  741MOL0     H 2255   8.809   8.725   2.838 -0.8477  0.9277  0.0508
  741MOL0     H 2256   8.516   8.527   2.699 -1.5429  2.3622 -0.4369
  741MOL0     H 2257   8.678   8.492   2.764 -0.9274 -0.5713 -2.0125
  741MOL0     H 2258   8.566   8.580   2.858  0.6264  2.5088  0.1274
  742MOL0     O 2259   6.092   5.133   0.146  0.3844 -0.2372 -0.0156
  742MOL0     C 2260   6.164   5.031   0.148 -0.1501  0.1011  0.2622
  742MOL0     O 2261   6.133   4.908   0.100 -0.0161  0.2218 -0.1347
  742MOL0     C 2262   6.040   4.834   0.173 -0.5784  0.3319 -0.2843
  742MOL0     C 2263   6.034   4.699   0.130 -0.4346  0.6818  0.1742
  742MOL0     C 2264   5.936   4.618   0.192 -0.5937 -0.1625 -0.0692
  742MOL0     C 2265   5.871   4.667   0.305  0.1268  1.1127  0.3460
  742MOL0     O 2266   5.770   4.586   0.361 -0.5596  0.1268  0.3309
  742MOL0     C 2267   5.683   4.515   0.283 -0.2493 -0.7245 -0.9496
  742MOL0     C 2268   5.544   4.547   0.332 -0.4809 -0.4242 -0.4030
  742MOL0     C 2269   5.526   4.550   0.480 -0.0340  0.4374  0.2531
  742MOL0     C 2270   5.379   4.576   0.525  0.1345 -0.9191 -0.0597
  742MOL0     C 2271   5.354   4.551   0.676  0.1009 -0.6665 -0.4516
  742MOL0     C 2272   5.215   4.545   0.732  0.0295 -0.3151 -0.0209
  742MOL0     C 2273   5.143   4.678   0.706 -0.6335  0.7740  0.4434
  742MOL0     C 2274   5.183   4.802   0.801  0.2828 -0.5856  0.1389
  742MOL0     N 2275   5.174   4.926   0.718  0.2288 -0.5635  0.1616
  742MOL0     C 2276   5.284   4.975   0.645  0.7187  0.4655 -0.3340
  742MOL0     C 2277   5.231   5.084   0.584 -0.1135  1.5454  0.8810
  742MOL0     C 2278   5.319   5.166   0.495  0.3353 -0.4052 -0.6594
  742MOL0     C 2279   5.403   5.085   0.394 -0.1293 -0.4097 -0.0160
  742MOL0     C 2280   5.496   5.181   0.313 -0.0277 -0.1709  0.4599
  742MOL0     C 2281   5.558   5.106   0.193  0.7383  0.2800 -0.4159
  742MOL0     O 2282   5.689   5.156   0.161 -0.0033 -0.3495 -0.3708
  742MOL0     C 2283   5.706   5.292   0.134  0.2930  0.9245  0.0119
  742MOL0     C 2284   5.834   5.339   0.130 -0.2028 -0.3449  0.8636
  742MOL0     C 2285   5.873   5.472   0.099 -0.1363  0.3271 -0.1820
  742MOL0     C 2286   6.013   5.522   0.132  0.6551 -0.0768 -0.2644
  742MOL0     C 2287   5.772   5.556   0.052 -0.0411  0.0087  0.5848
  742MOL0     C 2288   5.785   5.704   0.024  0.2162 -0.5252 -0.7806
  742MOL0     O 2289   5.680   5.756  -0.043 -0.5766  1.1812 -0.0096
  742MOL0     C 2290   5.683   5.887  -0.082  0.5682  0.6171 -0.5208
  742MOL0     C 2291   5.786   5.920  -0.161  0.0965 -0.6704  0.1718
  742MOL0     C 2292   5.788   6.047  -0.215  0.2903  0.2592 -0.5741
  742MOL0     C 2293   5.687   6.141  -0.171  0.4089  0.3611  0.7419
  742MOL0     O 2294   5.673   6.268  -0.217  0.0466 -0.2455 -0.6596
  742MOL0     C 2295   5.732   6.328  -0.338 -0.1346 -0.4175 -0.7278
  742MOL0     C 2296   5.656   6.277  -0.469 -0.0799 -0.2609  0.3075
  742MOL0     C 2297   5.699   6.342  -0.604  0.1882 -0.3391 -0.2546
  742MOL0     C 2298   5.852   6.342  -0.642 -0.2599  0.1037  0.0173
  742MOL0     C 2299   5.869   6.422  -0.779 -0.3528  0.5852  0.7938
  742MOL0     C 2300   5.784   6.385  -0.899 -0.2564 -0.1776  0.7479
  742MOL0     C 2301   5.776   6.240  -0.928  0.0339 -0.0112  0.5453
  742MOL0     C 2302   5.770   6.215  -1.082 -0.3297 -0.8990 -0.0349
  742MOL0    Cl 2303   5.769   6.048  -1.112  0.3238 -0.1133 -0.0787
  742MOL0     C 2304   5.587   6.107  -0.087 -0.0576  0.4094 -0.5827
  742MOL0     C 2305   5.583   5.975  -0.043  0.0693  0.0537 -0.2823
  742MOL0     O 2306   5.880   5.765   0.068  0.5137 -0.8038 -0.5590
  742MOL0     C 2307   5.640   5.493   0.033 -0.6486  0.1461  1.3188
  742MOL0     C 2308   5.602   5.370   0.083  0.4246  1.0787 -0.0401
  742MOL0     N 2309   5.102   5.110   0.619 -0.1208  0.1909 -0.1225
  742MOL0     N 2310   5.062   5.012   0.699 -0.3136 -0.7303  0.3297
  742MOL0     C 2311   5.886   4.796   0.350  0.3809 -0.4239  0.2884
  742MOL0     C 2312   5.969   4.877   0.281  0.4000  0.2013 -0.0887
  742MOL0     C 2313   6.306   5.054   0.164 -0.5355 -0.7652  0.7491
  742MOL0     C 2314   6.384   5.093   0.055 -0.0374  0.2314 -0.3264
  742MOL0     C 2315   6.523   5.122   0.075 -0.2874  0.0081 -0.6021
  742MOL0     C 2316   6.582   5.125   0.205  0.5970  0.3299 -0.5915
  742MOL0     O 2317   6.713   5.144   0.241  0.6736  0.0368 -0.0267
  742MOL0     C 2318   6.809   5.147   0.140  0.4962  0.7429 -0.0657
  742MOL0     C 2319   6.939   5.154   0.210 -0.6506  0.8762  0.5880
  742MOL0     C 2320   6.955   5.275   0.301 -0.1877 -0.0672 -0.5987
  742MOL0     C 2321   6.901   5.244   0.443 -0.3724 -0.7041 -0.0413
  742MOL0     C 2322   6.925   5.343   0.543  0.1152 -0.5082  0.1494
  742MOL0     C 2323   6.937   5.445   0.610  0.1880  0.8410  0.0784
  742MOL0     C 2324   6.495   5.091   0.309 -0.3697 -0.2454 -0.0814
  742MOL0     C 2325   6.359   5.053   0.294  0.2590 -0.2021 -0.3803
  742MOL0     C 2326   6.275   5.014   0.418  0.3122  0.5170 -0.3000
  742MOL0     H 2327   6.090   4.675   0.040 -1.1702  1.3758 -0.4853
  742MOL0     H 2328   5.912   4.519   0.155 -0.3987 -0.9589  1.7979
  742MOL0     H 2329   5.704   4.408   0.297 -1.5498 -0.8447  0.2057
  742MOL0     H 2330   5.697   4.546   0.179  2.3842 -1.6216 -0.9591
  742MOL0     H 2331   5.514   4.646   0.296  1.0579  2.2521  4.7649
  742MOL0     H 2332   5.471   4.477   0.289  1.0572 -3.3777  1.4232
  742MOL0     H 2333   5.561   4.456   0.524 -0.0715  1.7744  3.4348
  742MOL0     H 2334   5.581   4.624   0.539 -2.2143  1.5704  0.9575
  742MOL0     H 2335   5.357   4.679   0.497 -3.2524 -1.6560 -0.5836
  742MOL0     H 2336   5.310   4.511   0.470 -1.5644 -0.1475  1.0824
  742MOL0     H 2337   5.408   4.626   0.735 -4.4837  3.2924 -0.6581
  742MOL0     H 2338   5.394   4.451   0.694  0.1377 -0.6123 -0.2320
  742MOL0     H 2339   5.165   4.463   0.680  0.5464 -1.7152  1.6104
  742MOL0     H 2340   5.222   4.518   0.838  0.4820  1.1315  0.3438
  742MOL0     H 2341   5.037   4.663   0.728  0.0660  1.3847  5.7725
  742MOL0     H 2342   5.164   4.701   0.602  1.7576  0.5959  0.8256
  742MOL0     H 2343   5.117   4.795   0.888 -0.1613 -1.0838 -0.2282
  742MOL0     H 2344   5.285   4.794   0.839  0.5916  0.2071 -0.4929
  742MOL0     H 2345   5.390   4.957   0.631  0.9126  0.9819  0.4790
  742MOL0     H 2346   5.378   5.224   0.566  0.8196  0.6083 -1.8378
  742MOL0     H 2347   5.267   5.238   0.431 -0.0271  0.5934  0.7369
  742MOL0     H 2348   5.466   5.013   0.446 -0.0202  0.0439  0.4891
  742MOL0     H 2349   5.338   5.031   0.325 -1.8514 -1.3412  2.2174
  742MOL0     H 2350   5.430   5.254   0.266 -1.5634 -2.0638 -0.4898
  742MOL0     H 2351   5.572   5.217   0.383 -0.7147 -0.0282  1.1521
  742MOL0     H 2352   5.562   4.997   0.205  5.3404  0.3485  0.4997
  742MOL0     H 2353   5.484   5.117   0.113 -2.1511  2.1225  2.2730
  742MOL0     H 2354   5.906   5.266   0.166 -1.0116 -0.7311  1.7300
  742MOL0     H 2355   6.008   5.569   0.231  1.7081 -0.4016 -0.0472
  742MOL0     H 2356   6.037   5.585   0.045 -0.1284 -0.2018 -0.5737
  742MOL0     H 2357   6.089   5.443   0.136 -0.0703 -0.7189  1.2879
  742MOL0     H 2358   5.848   5.835  -0.190 -0.1015 -0.6878 -0.2000
  742MOL0     H 2359   5.866   6.080  -0.284  1.6925 -0.9526  0.3664
  742MOL0     H 2360   5.732   6.437  -0.326 -0.4533 -0.6165  1.5319
  742MOL0     H 2361   5.838   6.304  -0.343 -0.3492 -1.3339 -1.0587
  742MOL0     H 2362   5.682   6.173  -0.487 -3.9504 -1.5585  1.4351
  742MOL0     H 2363   5.548   6.294  -0.463 -0.2457 -0.7802 -0.9642
  742MOL0     H 2364   5.664   6.446  -0.610  0.5103 -0.2243 -0.1786
  742MOL0     H 2365   5.648   6.284  -0.681  3.0293 -3.3951 -0.0339
  742MOL0     H 2366   5.891   6.240  -0.641 -2.0307 -0.6373  1.9765
  742MOL0     H 2367   5.912   6.396  -0.569 -1.7479 -0.7749  1.9806
  742MOL0     H 2368   5.855   6.529  -0.759 -0.1297  1.0016 -1.0798
  742MOL0     H 2369   5.973   6.407  -0.812 -1.4641 -2.7527 -1.6962
  742MOL0     H 2370   5.831   6.437  -0.982  0.5393  1.4691  2.1613
  742MOL0     H 2371   5.685   6.430  -0.889 -0.6931 -1.3613  2.1639
  742MOL0     H 2372   5.686   6.201  -0.880 -1.1285  2.0183  0.1619
  742MOL0     H 2373   5.855   6.177  -0.887 -0.4657 -2.5171 -2.0293
  742MOL0     H 2374   5.857   6.256  -1.133 -1.2987 -1.6363 -2.4345
  742MOL0     H 2375   5.685   6.265  -1.129 -0.4433 -0.6154  0.4647
  742MOL0     H 2376   5.508   6.180  -0.073 -0.2222  0.4592 -1.6931
  742MOL0     H 2377   5.500   5.961   0.026  1.6887 -0.3586  1.6976
  742MOL0     H 2378   5.558   5.556   0.000  0.1176  0.5373  0.0647
  742MOL0     H 2379   5.496   5.345   0.085  0.1452  1.9602 -1.9469
  742MOL0     H 2380   5.830   4.820   0.440 -1.7114  0.5952 -1.2131
  742MOL0     H 2381   5.974   4.982   0.310  2.1473  0.8886 -2.5231
  742MOL0     H 2382   6.344   5.093  -0.045  0.2874 -3.6026 -0.5897
  742MOL0     H 2383   6.583   5.148  -0.012  0.1039  0.8760 -0.0874
  742MOL0     H 2384   6.806   5.068   0.064  0.7525 -0.9007  1.5705
  742MOL0     H 2385   6.801   5.243   0.088 -1.5668 -0.8777 -3.0399
  742MOL0     H 2386   7.020   5.155   0.137 -2.0911  0.4686 -1.0636
  742MOL0     H 2387   6.955   5.059   0.263  2.7335 -0.2614 -2.0960
  742MOL0     H 2388   7.057   5.314   0.290  0.0018  0.4775  2.1864
  742MOL0     H 2389   6.887   5.351   0.261  0.4645 -0.7282 -3.1644
  742MOL0     H 2390   6.945   5.149   0.475  0.3803 -0.4907 -0.4250
  742MOL0     H 2391   6.792   5.236   0.448 -0.2508 -1.6289  2.2804
  742MOL0     H 2392   6.940   5.542   0.655  1.5140  1.4615 -1.2637
  742MOL0     H 2393   6.546   5.087   0.405 -0.0363  3.0164 -0.0106
  742MOL0     H 2394   6.250   4.909   0.405 -0.5653  1.0163 -3.2791
  742MOL0     H 2395   6.329   5.016   0.513 -0.6583  0.0384  0.2834
  742MOL0     H 2396   6.179   5.067   0.427  0.3966  0.3831  2.2973
  743MOL0     O 2397   8.292   4.041   0.480 -0.7456  0.5545 -1.1230
  743MOL0     C 2398   8.311   3.921   0.510  0.7157  0.5064  0.6273
  743MOL0     O 2399   8.358   3.835   0.420 -0.4151 -0.2116  0.0286
  743MOL0     C 2400   8.308   3.835   0.287 -0.3648  0.3119 -1.2813
  743MOL0     C 2401   8.388   3.758   0.199 -0.2270  1.0393  0.0957
  743MOL0     C 2402   8.355   3.742   0.062  0.1677 -0.5811 -1.3372
  743MOL0     C 2403   8.226   3.781   0.017  0.3307  0.0371  0.6498
  743MOL0     O 2404   8.164   3.762  -0.107 -0.5620 -0.4698  1.2870
  743MOL0     C 2405   8.232   3.712  -0.219 -0.1821  0.1733 -0.1748
  743MOL0     C 2406   8.336   3.801  -0.276  0.3106  0.7138  0.1753
  743MOL0     C 2407   8.281   3.937  -0.302  0.2337 -0.1424 -0.6410
  743MOL0     C 2408   8.374   4.049  -0.345 -0.1149 -0.4399 -0.6303
  743MOL0     C 2409   8.427   4.061  -0.489 -0.9181 -0.4398  1.2591
  743MOL0     C 2410   8.554   3.975  -0.513 -0.5952  0.4397  1.1185
  743MOL0     C 2411   8.584   3.945  -0.659 -0.3902 -0.8496 -0.0283
  743MOL0     C 2412   8.614   4.067  -0.759  0.3216  0.7214 -0.3095
  743MOL0     N 2413   8.692   4.179  -0.696  0.0160  0.5904  0.2579
  743MOL0     C 2414   8.651   4.298  -0.631 -0.1330 -0.3722 -0.6317
  743MOL0     C 2415   8.767   4.356  -0.591 -0.4697 -0.1149  0.2755
  743MOL0     C 2416   8.795   4.477  -0.501 -0.2150  0.3671  0.0896
  743MOL0     C 2417   8.789   4.438  -0.348 -0.0401  1.0477 -0.1335
  743MOL0     C 2418   8.864   4.312  -0.321  0.8992 -0.4478 -0.6786
  743MOL0     C 2419   8.848   4.263  -0.175 -0.7973 -0.3988 -0.9540
  743MOL0     O 2420   8.911   4.357  -0.083 -0.4225 -0.5237  0.2484
  743MOL0     C 2421   8.967   4.292   0.015  0.0681 -0.9830 -0.6939
  743MOL0     C 2422   8.920   4.312   0.149  0.3363 -0.1638  0.9519
  743MOL0     C 2423   8.966   4.229   0.252  0.6231  0.0284 -0.1795
  743MOL0     C 2424   8.896   4.230   0.376  0.0775 -0.2650  0.3576
  743MOL0     C 2425   9.080   4.147   0.224 -0.0115  0.0589  0.5723
  743MOL0     C 2426   9.149   4.075   0.332  0.5442  0.4887  1.0243
  743MOL0     O 2427   9.163   4.115   0.458 -0.2229  0.5144 -0.8800
  743MOL0     C 2428   9.221   4.025   0.546 -0.5538 -0.4090 -0.3917
  743MOL0     C 2429   9.152   3.955   0.649  0.0208  0.5752 -0.6907
  743MOL0     C 2430   9.223   3.871   0.739 -0.3315 -0.0141 -0.1384
  743MOL0     C 2431   9.362   3.851   0.730 -0.1726  0.2184 -0.6887
  743MOL0     O 2432   9.416   3.761   0.811 -0.2671  0.6207  0.2243
  743MOL0     C 2433   9.530   3.691   0.761  0.3550 -0.9290  0.7554
  743MOL0     C 2434   9.578   3.583   0.850 -0.8575 -0.2139  0.3166
  743MOL0     C 2435   9.716   3.520   0.811 -0.5337 -1.2099 -0.2407
  743MOL0     C 2436   9.790   3.452   0.923  0.2846 -0.0577 -0.1508
  743MOL0     C 2437   9.945   3.432   0.898  0.2647  0.0356 -0.1522
  743MOL0     C 2438   9.963   3.333   0.777  0.1439 -0.4471 -0.9715
  743MOL0     C 2439  10.110   3.292   0.744  0.9839 -0.2026  0.3649
  743MOL0     C 2440  10.184   3.212   0.857 -0.1411  0.5725 -0.0909
  743MOL0    Cl 2441  10.248   3.328   0.990  0.4311 -0.4994 -0.2001
  743MOL0     C 2442   9.429   3.925   0.632 -0.8095  0.6119  0.4973
  743MOL0     C 2443   9.359   4.001   0.536 -0.2297  0.5466  0.1282
  743MOL0     O 2444   9.182   3.961   0.291  0.4792 -1.1529 -0.1114
  743MOL0     C 2445   9.129   4.133   0.094 -0.0676 -0.3025 -0.9983
  743MOL0     C 2446   9.075   4.205  -0.014  0.0347 -0.5200 -0.2822
  743MOL0     N 2447   8.870   4.281  -0.639 -0.2563  0.0088 -0.0095
  743MOL0     N 2448   8.829   4.174  -0.693  0.8641  0.0589 -0.6166
  743MOL0     C 2449   8.151   3.851   0.115 -0.5576 -0.4649  0.5785
  743MOL0     C 2450   8.184   3.875   0.243 -0.0249 -0.4611 -0.1615
  743MOL0     C 2451   8.304   3.876   0.649 -0.4236 -0.8190  0.1481
  743MOL0     C 2452   8.365   3.755   0.689 -0.4061  0.2690 -0.3513
  743MOL0     C 2453   8.374   3.707   0.817 -0.1417 -0.7882  1.2335
  743MOL0     C 2454   8.296   3.770   0.909 -0.5219  0.0034  0.6069
  743MOL0     O 2455   8.288   3.693   1.025 -0.4137 -0.4483  1.0666
  743MOL0     C 2456   8.197   3.734   1.123 -0.5339 -0.2917  0.5493
  743MOL0     C 2457   8.208   3.654   1.251 -0.4021 -0.7874  0.9909
  743MOL0     C 2458   8.339   3.677   1.322  0.2873 -0.1125  0.1659
  743MOL0     C 2459   8.340   3.624   1.463  0.7109  0.5851  0.1243
  743MOL0     C 2460   8.341   3.480   1.474 -0.6912  0.1712 -0.3503
  743MOL0     C 2461   8.324   3.367   1.504  0.2691 -0.1106  0.9177
  743MOL0     C 2462   8.226   3.886   0.879 -0.0814  0.7013 -1.0723
  743MOL0     C 2463   8.230   3.944   0.750  0.1775 -0.0598  0.3449
  743MOL0     C 2464   8.134   4.070   0.723 -0.1118  1.1159  0.7802
  743MOL0     H 2465   8.482   3.715   0.232 -1.8312 -2.5337  0.6015
  743MOL0     H 2466   8.425   3.686   0.001  2.1229  0.6204 -0.2945
  743MOL0     H 2467   8.172   3.679  -0.305  1.2130  1.5320 -1.7436
  743MOL0     H 2468   8.275   3.620  -0.179 -2.7264 -0.0544  2.3578
  743MOL0     H 2469   8.422   3.814  -0.209  0.2758 -0.3789  0.4524
  743MOL0     H 2470   8.359   3.759  -0.374  0.5854  1.3137 -0.0215
  743MOL0     H 2471   8.189   3.927  -0.360 -2.2799 -1.6515  3.2298
  743MOL0     H 2472   8.249   3.980  -0.207 -1.6216 -1.1255 -0.7731
  743MOL0     H 2473   8.327   4.144  -0.318  2.9300  1.1477 -0.4977
  743MOL0     H 2474   8.455   4.052  -0.272 -0.7197  1.5798  0.0285
  743MOL0     H 2475   8.453   4.164  -0.516  0.8902 -0.8836  1.1848
  743MOL0     H 2476   8.338   4.035  -0.548 -1.6193  1.6351  1.2955
  743MOL0     H 2477   8.648   4.007  -0.468  0.1563 -1.5440  1.0457
  743MOL0     H 2478   8.541   3.873  -0.475  3.4119 -0.7427 -0.1428
  743MOL0     H 2479   8.511   3.888  -0.717  0.3235  1.3727 -3.3993
  743MOL0     H 2480   8.676   3.884  -0.654  0.1502 -0.1345 -1.0326
  743MOL0     H 2481   8.665   4.021  -0.844 -0.3741  0.1740 -0.4414
  743MOL0     H 2482   8.515   4.094  -0.798 -0.3908 -0.0963  0.8913
  743MOL0     H 2483   8.556   4.347  -0.612  1.8614  3.0555  1.4546
  743MOL0     H 2484   8.713   4.545  -0.526  0.6126  1.9439  1.4882
  743MOL0     H 2485   8.894   4.518  -0.522 -0.7153  2.3004  1.2393
  743MOL0     H 2486   8.818   4.513  -0.275  1.1827  1.1986 -0.7390
  743MOL0     H 2487   8.683   4.420  -0.329 -0.5138  2.4750 -1.2866
  743MOL0     H 2488   8.841   4.233  -0.393 -2.2277  1.7799 -2.3791
  743MOL0     H 2489   8.969   4.341  -0.320  1.0389 -0.8670 -2.0765
  743MOL0     H 2490   8.742   4.245  -0.156 -0.8814  0.8024 -0.2308
  743MOL0     H 2491   8.902   4.168  -0.164 -0.1952 -0.0836 -1.1177
  743MOL0     H 2492   8.848   4.391   0.167  0.8463 -0.1813  3.4809
  743MOL0     H 2493   8.970   4.264   0.450 -0.5294  1.8356  0.0826
  743MOL0     H 2494   8.852   4.130   0.381 -2.0158  0.2700 -3.5404
  743MOL0     H 2495   8.811   4.299   0.371 -0.4844 -0.9168  0.7476
  743MOL0     H 2496   9.046   3.976   0.659  0.3646  2.0009  0.3354
  743MOL0     H 2497   9.175   3.814   0.818 -2.4713  0.6301 -0.9113
  743MOL0     H 2498   9.500   3.649   0.664  2.1504 -2.0404  0.6325
  743MOL0     H 2499   9.607   3.768   0.748 -2.7809  2.5037  0.8934
  743MOL0     H 2500   9.566   3.621   0.951 -4.2949 -1.0217  0.3414
  743MOL0     H 2501   9.505   3.501   0.851 -1.1096 -0.0313 -1.1113
  743MOL0     H 2502   9.780   3.598   0.768  1.0203 -1.8396  0.8604
  743MOL0     H 2503   9.708   3.444   0.732 -0.4342 -1.9331  0.4383
  743MOL0     H 2504   9.733   3.363   0.952  0.6125  0.3187  1.7730
  743MOL0     H 2505   9.799   3.515   1.012  0.7741 -0.3432  0.0066
  743MOL0     H 2506   9.990   3.529   0.875  0.5960  0.5495  2.3624
  743MOL0     H 2507   9.995   3.386   0.984  1.4294  0.5752 -0.5253
  743MOL0     H 2508   9.928   3.383   0.686  1.0877  0.3374 -0.9205
  743MOL0     H 2509   9.900   3.249   0.807 -3.9528  3.4397  2.7180
  743MOL0     H 2510  10.175   3.377   0.724  1.7854 -0.3775  2.0311
  743MOL0     H 2511  10.104   3.242   0.647  0.4956 -0.5326  0.5586
  743MOL0     H 2512  10.267   3.155   0.814 -0.8928 -2.4033  2.0354
  743MOL0     H 2513  10.121   3.134   0.901  1.5273 -0.8734 -0.1380
  743MOL0     H 2514   9.537   3.926   0.627 -0.8788  0.9967 -1.7294
  743MOL0     H 2515   9.419   4.049   0.459 -0.0066 -0.6186 -0.4506
  743MOL0     H 2516   9.213   4.064   0.089  0.6810  0.5529 -0.5675
  743MOL0     H 2517   9.103   4.182  -0.117 -3.0287 -2.1172 -0.8902
  743MOL0     H 2518   8.065   3.900   0.069  0.9310  1.0411 -0.7510
  743MOL0     H 2519   8.113   3.927   0.307 -0.1295 -0.2520 -0.4479
  743MOL0     H 2520   8.420   3.696   0.616  0.1641  0.9848 -0.5019
  743MOL0     H 2521   8.433   3.618   0.834  3.4984  0.8496 -1.5617
  743MOL0     H 2522   8.215   3.838   1.153  3.0599 -0.2690 -1.2024
  743MOL0     H 2523   8.102   3.707   1.075  0.9536  0.4864 -3.1466
  743MOL0     H 2524   8.183   3.551   1.226 -2.5855 -0.5401  1.9386
  743MOL0     H 2525   8.137   3.706   1.316 -1.4320  3.3691 -2.9257
  743MOL0     H 2526   8.429   3.652   1.266  0.5220  2.5940 -0.8284
  743MOL0     H 2527   8.363   3.783   1.331 -0.2595  0.2282 -1.9479
  743MOL0     H 2528   8.250   3.661   1.512  2.4862 -0.9394  5.1326
  743MOL0     H 2529   8.432   3.657   1.512  1.4253 -1.9341  0.6051
  743MOL0     H 2530   8.321   3.263   1.529 -1.4403 -0.0165  1.2476
  743MOL0     H 2531   8.161   3.931   0.954 -0.9980  0.4851 -1.7225
  743MOL0     H 2532   8.068   4.054   0.637  0.4936 -3.9833  0.9539
  743MOL0     H 2533   8.081   4.080   0.817  1.0114 -2.0124  1.8459
  743MOL0     H 2534   8.197   4.156   0.697  1.3146  0.2325  1.2252
  744MOL0     O 2535   5.952   7.246   4.072  0.0601 -0.1613 -0.4526
  744MOL0     C 2536   5.923   7.134   4.107  1.2722 -0.0098 -0.6610
  744MOL0     O 2537   5.963   7.068   4.223  0.1453 -0.2584 -0.1248
  744MOL0     C 2538   6.035   7.123   4.321 -1.0967 -0.2092  0.1681
  744MOL0     C 2539   6.096   7.252   4.322  1.1082 -1.1416  0.1996
  744MOL0     C 2540   6.164   7.300   4.437  0.7687 -0.1372  0.4697
  744MOL0     C 2541   6.180   7.227   4.552  0.7156 -0.0915  0.1991
  744MOL0     O 2542   6.254   7.271   4.653 -0.2374 -0.5037  0.1678
  744MOL0     C 2543   6.353   7.182   4.703  0.5232  0.4853  0.0896
  744MOL0     C 2544   6.481   7.274   4.704 -1.0103  0.9298 -0.5130
  744MOL0     C 2545   6.610   7.189   4.717 -0.9086  0.3162 -0.7277
  744MOL0     C 2546   6.689   7.162   4.587  0.0523 -0.3653  0.0212
  744MOL0     C 2547   6.759   7.292   4.527 -0.4396 -0.2789 -0.3378
  744MOL0     C 2548   6.902   7.233   4.485 -0.1890  0.1118 -0.7037
  744MOL0     C 2549   6.981   7.321   4.387  0.2241  0.6527 -0.6758
  744MOL0     C 2550   6.911   7.342   4.254 -0.1625 -0.4641 -0.8931
  744MOL0     N 2551   6.833   7.225   4.198  0.2856 -0.2624 -0.1712
  744MOL0     C 2552   6.699   7.228   4.186 -0.1665  0.6537 -0.1551
  744MOL0     C 2553   6.663   7.113   4.120 -0.9755  0.5205 -0.3665
  744MOL0     C 2554   6.520   7.070   4.092 -0.2869  0.0102 -0.3776
  744MOL0     C 2555   6.456   7.018   4.227  0.2806 -0.8838 -0.6772
  744MOL0     C 2556   6.496   6.872   4.254 -1.0441  0.1011 -0.0582
  744MOL0     C 2557   6.400   6.803   4.351 -0.1222  0.0376 -0.6144
  744MOL0     O 2558   6.266   6.826   4.311 -0.2646  0.0483  0.0135
  744MOL0     C 2559   6.179   6.737   4.373  1.0152 -0.5921 -1.1558
  744MOL0     C 2560   6.061   6.727   4.304 -0.1260  0.4929  0.5020
  744MOL0     C 2561   5.963   6.632   4.339  0.6228 -0.8047  0.1006
  744MOL0     C 2562   5.834   6.641   4.256  0.5818 -0.1940 -0.2419
  744MOL0     C 2563   5.988   6.543   4.446  0.6009  0.2728  0.2404
  744MOL0     C 2564   5.901   6.425   4.484 -0.4198  0.6394 -0.1268
  744MOL0     O 2565   5.896   6.395   4.615  0.3960  0.1777 -0.6416
  744MOL0     C 2566   5.829   6.282   4.657 -1.0160  0.1483 -0.1635
  744MOL0     C 2567   5.750   6.290   4.776 -0.8382 -0.5053 -0.5725
  744MOL0     C 2568   5.688   6.178   4.834  0.4610 -0.1330  0.7813
  744MOL0     C 2569   5.688   6.068   4.748 -0.0466 -0.0702 -0.5944
  744MOL0     O 2570   5.591   5.972   4.780 -0.1133  0.0473 -0.0071
  744MOL0     C 2571   5.583   5.843   4.721 -0.0115  0.0779  0.2145
  744MOL0     C 2572   5.476   5.760   4.797  1.5205  0.5077  0.1326
  744MOL0     C 2573   5.494   5.741   4.943 -0.0264  0.7760  0.5854
  744MOL0     C 2574   5.389   5.650   5.019  0.2747 -0.4427 -1.4464
  744MOL0     C 2575   5.263   5.727   5.044  0.3580  0.7528  0.5594
  744MOL0     C 2576   5.158   5.624   5.079 -0.1319 -0.0040 -0.8283
  744MOL0     C 2577   5.198   5.554   5.207 -0.2139 -0.2923 -0.1340
  744MOL0     C 2578   5.093   5.459   5.267  0.0343  0.3520 -0.4081
  744MOL0    Cl 2579   5.027   5.334   5.166 -0.0438  0.6209 -0.0942
  744MOL0     C 2580   5.768   6.054   4.635 -0.1483 -1.7698 -0.6498
  744MOL0     C 2581   5.839   6.162   4.591 -0.7853  0.0690 -0.3557
  744MOL0     O 2582   5.854   6.360   4.393  0.0634 -0.1094 -0.3072
  744MOL0     C 2583   6.096   6.570   4.532  0.2795 -0.2421  0.7213
  744MOL0     C 2584   6.188   6.672   4.494 -0.2430 -0.2683 -0.5585
  744MOL0     N 2585   6.782   7.042   4.103  0.4928  0.7509 -0.6541
  744MOL0     N 2586   6.884   7.112   4.144  0.2243 -0.1637 -0.3312
  744MOL0     C 2587   6.117   7.099   4.549  0.2912 -0.2796  0.4732
  744MOL0     C 2588   6.053   7.047   4.435 -0.6287 -0.0910 -0.4377
  744MOL0     C 2589   5.839   7.064   4.011  0.3097  0.6923  0.5207
  744MOL0     C 2590   5.753   6.963   4.076  0.1147 -0.1851  0.4197
  744MOL0     C 2591   5.659   6.886   4.018  0.5972  0.7852  0.4422
  744MOL0     C 2592   5.642   6.897   3.881 -0.6678  0.3348 -0.3067
  744MOL0     O 2593   5.537   6.825   3.836  0.3994 -0.9905 -0.3260
  744MOL0     C 2594   5.467   6.873   3.714 -0.5990  0.2644 -0.1998
  744MOL0     C 2595   5.300   6.865   3.715 -0.0305  0.4880 -0.6311
  744MOL0     C 2596   5.252   6.723   3.739 -0.3664 -0.0956 -0.3614
  744MOL0     C 2597   5.106   6.721   3.764  0.5206 -0.3727  0.0283
  744MOL0     C 2598   5.042   6.585   3.766  0.5693 -0.2960 -0.1681
  744MOL0     C 2599   4.971   6.487   3.786  0.2468  0.6218  0.0122
  744MOL0     C 2600   5.725   6.985   3.806 -0.2138 -0.2703 -0.8065
  744MOL0     C 2601   5.824   7.066   3.872  0.0446  0.2438 -0.0219
  744MOL0     C 2602   5.910   7.154   3.782 -0.4331 -1.1491  0.0233
  744MOL0     H 2603   6.115   7.315   4.236  1.3175 -1.7538 -0.2149
  744MOL0     H 2604   6.215   7.394   4.417 -0.6443  0.5251 -0.2097
  744MOL0     H 2605   6.376   7.096   4.640  1.3335  0.4708  0.3920
  744MOL0     H 2606   6.321   7.153   4.803 -0.8486 -4.0992 -1.4449
  744MOL0     H 2607   6.468   7.317   4.604 -0.2757  0.1808 -0.9385
  744MOL0     H 2608   6.476   7.350   4.783 -1.4352 -0.5601  0.9393
  744MOL0     H 2609   6.681   7.239   4.783 -0.0048  2.2565 -2.9922
  744MOL0     H 2610   6.596   7.095   4.771  1.8908 -0.9359 -1.9133
  744MOL0     H 2611   6.768   7.092   4.616  0.3110 -1.0734 -2.2171
  744MOL0     H 2612   6.628   7.128   4.504  1.5378  0.8867 -1.6586
  744MOL0     H 2613   6.763   7.365   4.609 -1.3254 -0.6005  0.0020
  744MOL0     H 2614   6.705   7.342   4.446 -0.6558 -0.8273 -0.5335
  744MOL0     H 2615   6.961   7.213   4.574 -0.9325  2.4636  0.4166
  744MOL0     H 2616   6.890   7.135   4.439  2.1305 -0.6941  0.2713
  744MOL0     H 2617   7.066   7.253   4.372 -1.3988 -1.7045  0.1142
  744MOL0     H 2618   7.012   7.411   4.440 -0.5288  0.2148  0.5398
  744MOL0     H 2619   6.837   7.417   4.286 -0.8399 -2.0426  1.5576
  744MOL0     H 2620   6.978   7.366   4.172 -0.2534 -0.8480 -1.0813
  744MOL0     H 2621   6.636   7.312   4.212 -0.6092  0.0550  0.7687
  744MOL0     H 2622   6.515   6.999   4.008  1.8556  2.6817 -2.9478
  744MOL0     H 2623   6.469   7.157   4.049 -0.6096 -0.6457 -1.3634
  744MOL0     H 2624   6.486   7.082   4.311  0.8583 -1.3436 -0.5248
  744MOL0     H 2625   6.349   7.029   4.207  0.5338  0.1140 -1.5593
  744MOL0     H 2626   6.489   6.816   4.160 -2.2456 -0.5533  0.3930
  744MOL0     H 2627   6.601   6.870   4.282  0.7134 -0.5612 -5.4416
  744MOL0     H 2628   6.420   6.696   4.341 -1.3656 -0.0737 -2.5851
  744MOL0     H 2629   6.416   6.830   4.455 -3.8256 -1.7302  0.5969
  744MOL0     H 2630   6.049   6.787   4.214 -1.2813  0.5598  0.6819
  744MOL0     H 2631   5.753   6.578   4.296  0.1842 -1.3017 -2.6283
  744MOL0     H 2632   5.851   6.605   4.155 -3.3414 -1.0179 -0.7935
  744MOL0     H 2633   5.794   6.743   4.251 -1.1854 -0.6469  2.3556
  744MOL0     H 2634   5.741   6.382   4.832 -1.6377 -0.8069 -0.1783
  744MOL0     H 2635   5.625   6.191   4.921 -0.4755  2.3007 -0.1789
  744MOL0     H 2636   5.548   5.845   4.618  0.6161 -1.8241 -0.0678
  744MOL0     H 2637   5.686   5.806   4.727  0.3227  1.2080  3.2615
  744MOL0     H 2638   5.374   5.795   4.783  1.5309  0.2908 -0.5340
  744MOL0     H 2639   5.464   5.656   4.765 -0.2556  0.6471  0.2427
  744MOL0     H 2640   5.512   5.839   4.989 -3.3140  1.7033  0.1733
  744MOL0     H 2641   5.589   5.688   4.940 -0.0659  0.5953  1.8553
  744MOL0     H 2642   5.434   5.610   5.110 -0.4005  0.3873 -0.7357
  744MOL0     H 2643   5.369   5.557   4.964 -0.8190 -1.0886 -0.0042
  744MOL0     H 2644   5.267   5.797   5.129 -2.9204  0.9731  0.6627
  744MOL0     H 2645   5.229   5.781   4.955 -2.5499  2.2220  2.3723
  744MOL0     H 2646   5.134   5.557   4.996 -2.3133  2.9058 -2.7642
  744MOL0     H 2647   5.060   5.666   5.104  0.0782 -0.5867  1.1013
  744MOL0     H 2648   5.231   5.639   5.267 -1.8839  1.4526 -1.5553
  744MOL0     H 2649   5.277   5.480   5.192  2.0865  2.4720 -2.8540
  744MOL0     H 2650   5.008   5.515   5.307 -0.9563 -1.8684  0.7843
  744MOL0     H 2651   5.150   5.408   5.345  1.5094  0.8159 -1.1530
  744MOL0     H 2652   5.762   5.962   4.577 -0.0265  0.2496 -4.2017
  744MOL0     H 2653   5.898   6.160   4.500  0.8984 -0.1263  0.6932
  744MOL0     H 2654   6.118   6.507   4.618  1.5345  1.7676  1.9654
  744MOL0     H 2655   6.280   6.664   4.551  0.3004  1.9397 -1.0345
  744MOL0     H 2656   6.103   7.040   4.639  0.3184  0.4954  0.9996
  744MOL0     H 2657   6.023   6.942   4.443 -0.0468 -0.1295  2.2345
  744MOL0     H 2658   5.757   6.958   4.184  0.1530  0.8329  0.4827
  744MOL0     H 2659   5.602   6.819   4.082 -2.1198 -0.0533 -2.5923
  744MOL0     H 2660   5.507   6.968   3.678 -2.9100  0.2932 -3.0549
  744MOL0     H 2661   5.502   6.815   3.628  1.4006  0.1233  0.6621
  744MOL0     H 2662   5.261   6.902   3.620  1.6327  2.2469 -0.7004
  744MOL0     H 2663   5.265   6.934   3.793  5.0456 -1.2361  3.8323
  744MOL0     H 2664   5.272   6.662   3.650  2.4578  0.2019 -0.0189
  744MOL0     H 2665   5.300   6.688   3.831 -0.9414  0.8911  0.3327
  744MOL0     H 2666   5.058   6.772   3.680  1.4181 -0.9908 -0.8909
  744MOL0     H 2667   5.076   6.783   3.849 -1.8008 -3.0065  1.2973
  744MOL0     H 2668   4.891   6.417   3.785  0.0451  0.8476 -1.1328
  744MOL0     H 2669   5.715   7.005   3.700  1.8821  2.4491 -0.6042
  744MOL0     H 2670   5.918   7.109   3.683 -1.3890  0.8553 -1.0175
  744MOL0     H 2671   5.854   7.244   3.758  1.4266  0.4675  1.4013
  744MOL0     H 2672   6.014   7.177   3.809 -0.7141  1.4988 -0.9391
  745MOL0     O 2673   6.311   4.502   1.342  0.3741  0.3317  0.1976
  745MOL0     C 2674   6.400   4.444   1.283 -0.0845 -0.3324 -0.5220
  745MOL0     O 2675   6.474   4.347   1.326 -0.6425  0.0249 -0.0980
  745MOL0     C 2676   6.472   4.313   1.458 -0.6434 -0.3229 -0.6894
  745MOL0     C 2677   6.372   4.240   1.522  0.3830 -0.0545 -0.5076
  745MOL0     C 2678   6.376   4.213   1.658 -0.5402 -0.4085 -0.0450
  745MOL0     C 2679   6.487   4.252   1.732  0.2128 -0.2772 -0.5092
  745MOL0     O 2680   6.496   4.199   1.856  0.4492 -0.7011 -0.2478
  745MOL0     C 2681   6.626   4.203   1.927  0.1201 -0.0380  0.1334
  745MOL0     C 2682   6.625   4.106   2.049 -0.1812 -0.1610 -1.0356
  745MOL0     C 2683   6.591   3.965   2.013 -0.2735  0.2653 -0.1517
  745MOL0     C 2684   6.677   3.919   1.890 -0.6984 -0.2372 -0.1741
  745MOL0     C 2685   6.698   3.770   1.888 -1.1155 -0.5981 -0.7838
  745MOL0     C 2686   6.829   3.737   1.815 -0.2974  0.6108  0.9790
  745MOL0     C 2687   6.824   3.804   1.668 -0.6219 -0.5889  0.9443
  745MOL0     C 2688   6.883   3.706   1.557  1.9046  0.5651  0.0041
  745MOL0     N 2689   7.026   3.668   1.571  0.2783  1.0272  0.1578
  745MOL0     C 2690   7.116   3.689   1.470  0.0556 -0.0564  0.3265
  745MOL0     C 2691   7.224   3.620   1.505 -0.3457  0.9426 -0.0159
  745MOL0     C 2692   7.355   3.613   1.426 -0.6156 -0.0382  0.8077
  745MOL0     C 2693   7.377   3.497   1.335  0.1656  0.4432  1.1033
  745MOL0     C 2694   7.429   3.386   1.425 -0.3163 -0.2247  0.6545
  745MOL0     C 2695   7.437   3.248   1.358  0.2137  0.4532  0.4850
  745MOL0     O 2696   7.512   3.238   1.235 -0.0758 -0.9796 -0.6289
  745MOL0     C 2697   7.518   3.115   1.181  0.0361 -0.6163  0.1317
  745MOL0     C 2698   7.572   3.107   1.050 -0.5055 -1.4152  0.9520
  745MOL0     C 2699   7.561   2.991   0.969  0.4904  0.5697 -0.5436
  745MOL0     C 2700   7.611   2.979   0.833  0.0924 -0.0139  1.6812
  745MOL0     C 2701   7.495   2.878   1.032  0.3665  0.3122 -1.0709
  745MOL0     C 2702   7.454   2.755   0.958  0.1836  0.2717  0.3810
  745MOL0     O 2703   7.455   2.634   1.015 -0.4277  0.2966 -0.2314
  745MOL0     C 2704   7.386   2.525   0.967  0.2963 -0.0696  0.4642
  745MOL0     C 2705   7.250   2.505   0.994  0.6518 -0.0867  0.0544
  745MOL0     C 2706   7.175   2.393   0.944  0.4960  0.2624  0.0888
  745MOL0     C 2707   7.243   2.290   0.872  0.5601  0.3510  0.5804
  745MOL0     O 2708   7.169   2.188   0.830 -0.3523  0.4143  0.2147
  745MOL0     C 2709   7.210   2.052   0.871  0.5687  0.3477 -0.4408
  745MOL0     C 2710   7.211   2.047   1.021 -0.5023  0.3046 -0.2166
  745MOL0     C 2711   7.068   2.031   1.073 -0.5745 -0.8462 -0.2011
  745MOL0     C 2712   7.018   1.884   1.080 -0.4236  0.3345  0.8550
  745MOL0     C 2713   6.872   1.872   1.108 -1.0141  0.1511 -0.8504
  745MOL0     C 2714   6.826   1.960   1.233  0.6637  0.4117 -0.5305
  745MOL0     C 2715   6.682   1.942   1.307 -0.0221 -0.2708  0.2324
  745MOL0     C 2716   6.665   1.802   1.351  0.1248 -0.7438  0.2098
  745MOL0    Cl 2717   6.509   1.780   1.435  0.5990 -0.6006 -0.4490
  745MOL0     C 2718   7.380   2.299   0.859 -0.7434  0.6182  0.5674
  745MOL0     C 2719   7.455   2.407   0.922 -0.5482  0.4975 -0.1752
  745MOL0     O 2720   7.405   2.780   0.845 -0.1910 -0.0846 -0.3427
  745MOL0     C 2721   7.435   2.884   1.161 -0.0184  0.2524  0.0185
  745MOL0     C 2722   7.454   3.006   1.234  0.0741  0.2916  0.0199
  745MOL0     N 2723   7.198   3.564   1.630  0.3503  0.5620 -0.0643
  745MOL0     N 2724   7.074   3.589   1.662 -0.1520  0.0100  0.0324
  745MOL0     C 2725   6.591   4.331   1.668 -0.4709  0.0905  0.2380
  745MOL0     C 2726   6.579   4.371   1.536  0.2811  0.0809  0.2948
  745MOL0     C 2727   6.417   4.474   1.136 -0.7855 -0.0341 -0.1067
  745MOL0     C 2728   6.553   4.460   1.087  0.2046 -0.4279  0.3058
  745MOL0     C 2729   6.588   4.495   0.962  0.3852  0.0270  0.3408
  745MOL0     C 2730   6.495   4.561   0.884 -0.0762 -0.5375 -0.3132
  745MOL0     O 2731   6.535   4.604   0.759  0.9939  0.8911 -0.3203
  745MOL0     C 2732   6.557   4.746   0.768  0.3161  1.3041  0.6038
  745MOL0     C 2733   6.595   4.793   0.627 -0.0723  0.1008 -0.0696
  745MOL0     C 2734   6.502   4.740   0.505 -0.6332 -0.1346 -0.4852
  745MOL0     C 2735   6.568   4.725   0.374  0.8929  1.1342 -0.2042
  745MOL0     C 2736   6.467   4.659   0.287  0.0924 -0.1826  0.4649
  745MOL0     C 2737   6.386   4.615   0.201 -0.3313  1.0961  1.2639
  745MOL0     C 2738   6.362   4.574   0.933 -0.5676  0.3041 -0.5310
  745MOL0     C 2739   6.319   4.528   1.054 -1.0355 -0.9207  0.3505
  745MOL0     C 2740   6.179   4.553   1.095  1.0238 -0.1853 -0.5066
  745MOL0     H 2741   6.290   4.206   1.459  1.5063 -1.2126 -1.4079
  745MOL0     H 2742   6.289   4.172   1.710 -0.2478  0.8454  1.5107
  745MOL0     H 2743   6.648   4.308   1.951  1.4674  0.2948 -2.2210
  745MOL0     H 2744   6.707   4.175   1.859  0.4197  0.0384  0.4604
  745MOL0     H 2745   6.728   4.109   2.085 -0.8004  0.8590  0.7931
  745MOL0     H 2746   6.569   4.147   2.134  1.8654  0.5921  0.0226
  745MOL0     H 2747   6.596   3.901   2.102 -0.4159  2.1920  1.3373
  745MOL0     H 2748   6.485   3.966   1.985  0.9220  1.8693 -5.7169
  745MOL0     H 2749   6.638   3.959   1.796 -0.3871  1.9249  0.5431
  745MOL0     H 2750   6.777   3.962   1.903 -0.7382 -0.6558  1.7169
  745MOL0     H 2751   6.611   3.724   1.840  0.4615 -3.9947 -0.7045
  745MOL0     H 2752   6.696   3.731   1.990 -5.4496 -2.4331 -1.3704
  745MOL0     H 2753   6.914   3.759   1.880  0.2591  1.0850  0.1047
  745MOL0     H 2754   6.831   3.629   1.801  0.1042  0.7871 -0.4179
  745MOL0     H 2755   6.885   3.895   1.673 -2.1635  0.3915  2.9741
  745MOL0     H 2756   6.726   3.833   1.628  1.3510  3.5383 -1.5825
  745MOL0     H 2757   6.834   3.610   1.578 -0.5572  1.8886  0.6153
  745MOL0     H 2758   6.857   3.739   1.456 -1.3854  0.0370  0.5662
  745MOL0     H 2759   7.122   3.745   1.377 -0.0439  0.0788  0.4014
  745MOL0     H 2760   7.438   3.629   1.495 -0.3745 -2.1396  1.0863
  745MOL0     H 2761   7.350   3.693   1.352 -0.4089  2.3859  3.2576
  745MOL0     H 2762   7.288   3.486   1.272  1.7695 -0.1742 -1.1331
  745MOL0     H 2763   7.451   3.505   1.255  0.0420  2.3641  1.1240
  745MOL0     H 2764   7.528   3.415   1.463  0.0736  2.1935 -1.8659
  745MOL0     H 2765   7.352   3.378   1.502 -0.9848 -1.0756 -0.0866
  745MOL0     H 2766   7.475   3.180   1.436  2.0719 -1.5659 -2.0234
  745MOL0     H 2767   7.335   3.230   1.324  0.2779 -1.8627  1.3514
  745MOL0     H 2768   7.629   3.185   1.000 -2.1386 -1.7719 -1.6201
  745MOL0     H 2769   7.539   3.015   0.758  1.0385 -0.6439  0.4368
  745MOL0     H 2770   7.629   2.876   0.801  0.0720  0.9137 -1.6327
  745MOL0     H 2771   7.706   3.034   0.830  1.0811 -1.7121 -0.5307
  745MOL0     H 2772   7.197   2.584   1.048  1.1136 -0.1577  0.6175
  745MOL0     H 2773   7.069   2.388   0.966  0.9806 -0.6295  2.4854
  745MOL0     H 2774   7.153   1.970   0.825 -0.3439  0.4603  0.4525
  745MOL0     H 2775   7.314   2.028   0.848  1.4809  1.2660  2.3384
  745MOL0     H 2776   7.273   1.962   1.052  0.5089  0.8900 -0.6056
  745MOL0     H 2777   7.259   2.133   1.068 -1.0835  2.1952 -2.8567
  745MOL0     H 2778   7.011   2.092   1.001  2.1850  1.1847 -0.8585
  745MOL0     H 2779   7.061   2.073   1.174  2.7755 -1.2830  0.3302
  745MOL0     H 2780   7.086   1.833   1.148 -1.0695 -0.3939  0.9704
  745MOL0     H 2781   7.032   1.841   0.980 -3.1533 -1.2437  1.0377
  745MOL0     H 2782   6.814   1.912   1.024  1.5929  3.2097 -1.3982
  745MOL0     H 2783   6.848   1.766   1.120  1.9380 -0.4629  0.6951
  745MOL0     H 2784   6.822   2.064   1.200  1.0872  0.1194 -1.5684
  745MOL0     H 2785   6.913   1.960   1.299 -1.5288 -2.9897  2.7546
  745MOL0     H 2786   6.604   1.974   1.237 -1.4965 -0.3112  1.8087
  745MOL0     H 2787   6.664   2.013   1.388 -0.3874  0.6404 -0.6192
  745MOL0     H 2788   6.751   1.765   1.407 -0.9141  0.7730  3.0362
  745MOL0     H 2789   6.667   1.743   1.259  2.5363 -2.6895  1.3806
  745MOL0     H 2790   7.436   2.213   0.826  2.0417  2.5094 -0.0019
  745MOL0     H 2791   7.563   2.409   0.927 -0.5268 -1.3029  2.1736
  745MOL0     H 2792   7.382   2.800   1.203 -0.6920  0.6441 -0.0391
  745MOL0     H 2793   7.410   3.001   1.333  0.6035 -1.2622  0.2046
  745MOL0     H 2794   6.675   4.374   1.722 -0.3786  2.4860 -1.6505
  745MOL0     H 2795   6.656   4.430   1.487  0.6752 -1.3200 -0.8166
  745MOL0     H 2796   6.623   4.410   1.152 -0.4364  1.9161  2.9926
  745MOL0     H 2797   6.684   4.466   0.919 -1.2435 -3.0224 -1.6305
  745MOL0     H 2798   6.463   4.795   0.795  0.3732  0.4112  2.6281
  745MOL0     H 2799   6.638   4.770   0.838  1.0606 -2.9639  1.5230
  745MOL0     H 2800   6.703   4.775   0.620  0.5248  1.8241  2.7570
  745MOL0     H 2801   6.581   4.901   0.637 -0.7384 -0.0774  1.2370
  745MOL0     H 2802   6.470   4.640   0.536 -0.9845  0.8279  2.6362
  745MOL0     H 2803   6.412   4.802   0.498 -0.5350  0.2711  1.3751
  745MOL0     H 2804   6.654   4.659   0.388 -2.0119 -3.7985 -2.9043
  745MOL0     H 2805   6.593   4.818   0.323  1.2921 -0.4383 -3.1135
  745MOL0     H 2806   6.333   4.583   0.114 -0.3107  0.7935  1.3605
  745MOL0     H 2807   6.282   4.623   0.879 -1.4940 -0.7157 -0.1234
  745MOL0     H 2808   6.182   4.625   1.177  1.1545 -1.3445  0.5328
  745MOL0     H 2809   6.109   4.598   1.023 -0.3013  3.6318  2.7568
  745MOL0     H 2810   6.141   4.457   1.131  0.7261  0.1286  0.0410
  746MOL0     O 2811  10.906   9.768   9.525  0.5846  0.3298  0.3168
  746MOL0     C 2812  10.909   9.737   9.401 -0.0268  0.2659 -0.2658
  746MOL0     O 2813  10.830   9.792   9.306  0.0742  0.7865  0.5385
  746MOL0     C 2814  10.803   9.924   9.331  1.1235 -1.0612  0.1127
  746MOL0     C 2815  10.668   9.968   9.363 -0.3310 -0.0427 -0.7646
  746MOL0     C 2816  10.635  10.104   9.361  0.9444  0.6689  0.4226
  746MOL0     C 2817  10.731  10.194   9.317  0.2802  0.4342 -0.2392
  746MOL0     O 2818  10.714  10.327   9.281 -0.0945  0.1585 -0.7079
  746MOL0     C 2819  10.601  10.352   9.188  0.4138  0.3301 -0.0584
  746MOL0     C 2820  10.648  10.453   9.083  0.1436  0.4788 -0.6986
  746MOL0     C 2821  10.694  10.593   9.144  0.0068 -0.0152 -0.4742
  746MOL0     C 2822  10.592  10.663   9.240  0.6082 -0.5091  0.2510
  746MOL0     C 2823  10.458  10.684   9.172 -0.3261 -0.1948  0.4896
  746MOL0     C 2824  10.385  10.790   9.245 -0.1397 -0.3930 -0.4022
  746MOL0     C 2825  10.243  10.814   9.193  0.6627 -0.0428 -0.7436
  746MOL0     C 2826  10.201  10.960   9.224  0.8088  0.2003  0.4275
  746MOL0     N 2827  10.294  11.061   9.173 -0.2356 -0.6719  0.1474
  746MOL0     C 2828  10.355  11.058   9.046 -0.0545 -0.4602 -0.5671
  746MOL0     C 2829  10.450  11.149   9.042  0.1421  0.5729 -1.1201
  746MOL0     C 2830  10.521  11.195   8.922  0.5978 -0.1164  0.0361
  746MOL0     C 2831  10.676  11.183   8.921  0.9776 -0.3940 -1.3755
  746MOL0     C 2832  10.701  11.045   8.862  0.0943  0.1381  0.0599
  746MOL0     C 2833  10.849  11.007   8.899 -0.0426 -0.3720 -0.4888
  746MOL0     O 2834  10.923  11.117   8.850 -1.0147 -0.2436  0.4625
  746MOL0     C 2835  11.054  11.131   8.874 -0.1501  1.0510  0.4083
  746MOL0     C 2836  11.145  11.063   8.792  0.2972 -0.9682 -1.0078
  746MOL0     C 2837  11.284  11.080   8.818 -0.3614 -0.0230  0.4054
  746MOL0     C 2838  11.379  11.022   8.715  0.4832 -0.2378 -0.1604
  746MOL0     C 2839  11.321  11.165   8.934 -0.8848 -0.5804  0.5686
  746MOL0     C 2840  11.456  11.203   8.982 -0.6308 -0.8214  0.6854
  746MOL0     O 2841  11.470  11.300   9.071  0.5002 -0.4212  0.7729
  746MOL0     C 2842  11.598  11.333   9.103  0.2304 -0.7298  0.8835
  746MOL0     C 2843  11.676  11.244   9.168  0.0374  0.4088 -0.4027
  746MOL0     C 2844  11.804  11.267   9.213 -0.4519 -0.0862  0.4119
  746MOL0     C 2845  11.861  11.391   9.186 -0.2160 -0.8725  0.8171
  746MOL0     O 2846  11.985  11.430   9.221  0.2058 -0.7246 -0.5940
  746MOL0     C 2847  12.098  11.341   9.192  0.3463  0.6059 -1.1457
  746MOL0     C 2848  12.210  11.423   9.115  0.0007 -0.1892  0.6830
  746MOL0     C 2849  12.336  11.350   9.073 -0.1361 -0.0435 -0.0314
  746MOL0     C 2850  12.426  11.438   8.979  0.1351  0.3429  0.6011
  746MOL0     C 2851  12.558  11.391   8.985 -0.3707 -0.4142  0.0945
  746MOL0     C 2852  12.654  11.495   8.928 -0.0639  0.1751 -0.2913
  746MOL0     C 2853  12.609  11.557   8.793  0.2608 -0.4752 -0.3124
  746MOL0     C 2854  12.721  11.656   8.742  0.2269  0.9375  0.6412
  746MOL0    Cl 2855  12.680  11.814   8.819  0.0724 -0.0142  0.0102
  746MOL0     C 2856  11.776  11.487   9.122 -0.0008 -0.7188 -0.7506
  746MOL0     C 2857  11.653  11.457   9.070  0.9550  0.6052  0.0511
  746MOL0     O 2858  11.548  11.139   8.926  0.3704  0.5162  0.0739
  746MOL0     C 2859  11.217  11.231   8.999  0.1000  0.2604  0.5371
  746MOL0     C 2860  11.086  11.217   8.969  0.0110 -0.9260 -0.3711
  746MOL0     N 2861  10.454  11.210   9.173  0.1044 -0.1412  0.2488
  746MOL0     N 2862  10.356  11.165   9.241  0.9964 -0.0158 -0.8181
  746MOL0     C 2863  10.865  10.154   9.301 -0.0744  0.0532 -0.4009
  746MOL0     C 2864  10.904  10.018   9.303  0.2409 -0.7381 -0.4895
  746MOL0     C 2865  10.995   9.625   9.362 -1.2517 -0.2649 -0.1496
  746MOL0     C 2866  11.100   9.593   9.457  0.9584 -0.2698  0.3818
  746MOL0     C 2867  11.200   9.504   9.413  0.2508  0.6320  0.2174
  746MOL0     C 2868  11.183   9.430   9.297 -0.6317 -1.2081  0.8855
  746MOL0     O 2869  11.293   9.356   9.274  0.5076 -0.0380  0.0472
  746MOL0     C 2870  11.251   9.223   9.239 -0.3573 -0.0227 -0.3276
  746MOL0     C 2871  11.359   9.131   9.282  0.4901  0.0459  0.4712
  746MOL0     C 2872  11.288   8.994   9.305 -0.2965 -0.2222 -0.8883
  746MOL0     C 2873  11.373   8.868   9.282  0.9352  0.2114  0.2095
  746MOL0     C 2874  11.390   8.824   9.137 -0.1100 -0.6032  0.0065
  746MOL0     C 2875  11.402   8.785   9.024  0.1059  0.0957  0.9414
  746MOL0     C 2876  11.077   9.450   9.211 -0.4013  0.1015  0.0651
  746MOL0     C 2877  10.982   9.537   9.252  0.7675  1.1359 -0.2919
  746MOL0     C 2878  10.864   9.539   9.156  0.3049  0.3261 -0.0223
  746MOL0     H 2879  10.595   9.891   9.386  0.1516 -0.2089  0.2761
  746MOL0     H 2880  10.532  10.135   9.375  1.0794  1.3025  0.0639
  746MOL0     H 2881  10.517  10.386   9.250  2.7665  2.7685  2.0554
  746MOL0     H 2882  10.579  10.258   9.138  2.1061  0.1687 -0.5444
  746MOL0     H 2883  10.723  10.399   9.024 -1.4457 -1.3427 -1.1309
  746MOL0     H 2884  10.561  10.465   9.018 -1.6484 -0.7136  1.3755
  746MOL0     H 2885  10.794  10.583   9.189 -1.0514 -0.2508  1.9666
  746MOL0     H 2886  10.712  10.652   9.054 -3.6551  1.5915 -0.3075
  746MOL0     H 2887  10.571  10.591   9.319 -1.6612 -0.7058 -0.4577
  746MOL0     H 2888  10.641  10.752   9.280  1.1608  0.2864 -2.0449
  746MOL0     H 2889  10.404  10.589   9.174  1.5923 -1.3707 -0.7659
  746MOL0     H 2890  10.469  10.711   9.067 -0.8669 -1.9987 -0.0675
  746MOL0     H 2891  10.388  10.747   9.346 -0.3072  0.7895  0.1243
  746MOL0     H 2892  10.443  10.883   9.247 -0.1371 -0.4004  1.0149
  746MOL0     H 2893  10.170  10.739   9.224 -0.5443  0.9317 -1.1420
  746MOL0     H 2894  10.241  10.814   9.084 -2.3044  0.2252 -0.7575
  746MOL0     H 2895  10.111  10.983   9.167  1.9261  1.8329 -0.7746
  746MOL0     H 2896  10.183  10.967   9.331  3.1477  0.5555  0.8587
  746MOL0     H 2897  10.349  10.977   8.974 -0.2067 -1.8799  0.9951
  746MOL0     H 2898  10.483  11.295   8.896 -0.6419 -0.6016 -0.1125
  746MOL0     H 2899  10.481  11.136   8.839 -0.3958  2.5503 -1.5091
  746MOL0     H 2900  10.716  11.268   8.864  0.8895  1.3487  1.0177
  746MOL0     H 2901  10.709  11.176   9.025 -0.5967  0.8010 -0.7578
  746MOL0     H 2902  10.643  10.967   8.912  1.2963 -0.2364  0.8823
  746MOL0     H 2903  10.677  11.040   8.755 -1.2060  4.1873  0.0032
  746MOL0     H 2904  10.860  10.985   9.006 -2.9128 -0.3649 -0.1141
  746MOL0     H 2905  10.874  10.910   8.854  0.3008 -0.5964  0.1555
  746MOL0     H 2906  11.101  11.004   8.712  0.4547 -1.1048 -0.9928
  746MOL0     H 2907  11.449  10.964   8.776  0.5936 -0.3526 -0.3971
  746MOL0     H 2908  11.440  11.100   8.669  0.4636 -0.0618  0.1097
  746MOL0     H 2909  11.334  10.950   8.646  2.0271 -1.1164 -0.3009
  746MOL0     H 2910  11.631  11.148   9.188  1.9016 -0.1362  1.5102
  746MOL0     H 2911  11.872  11.200   9.266 -0.3961 -1.8111 -1.7000
  746MOL0     H 2912  12.126  11.298   9.288 -4.1665  0.3586  0.2606
  746MOL0     H 2913  12.060  11.257   9.132 -3.3866  0.9837  0.4266
  746MOL0     H 2914  12.156  11.470   9.033  0.6573  0.6470  0.7169
  746MOL0     H 2915  12.232  11.507   9.181  1.1023  0.1828 -0.1197
  746MOL0     H 2916  12.309  11.261   9.015  0.9625 -0.3743 -0.0656
  746MOL0     H 2917  12.379  11.311   9.166 -0.3727 -0.8517 -0.2507
  746MOL0     H 2918  12.424  11.540   9.019 -1.8845  1.3126 -1.7059
  746MOL0     H 2919  12.385  11.443   8.878  1.3323 -0.6471  0.0476
  746MOL0     H 2920  12.584  11.370   9.089 -1.3295 -2.4802 -0.0282
  746MOL0     H 2921  12.562  11.294   8.934  3.8725  1.2533 -3.3726
  746MOL0     H 2922  12.751  11.447   8.912 -0.1837  0.1779 -1.0732
  746MOL0     H 2923  12.673  11.565   9.010 -1.6396  1.3882 -0.9176
  746MOL0     H 2924  12.512  11.607   8.798  1.2718  1.5118  0.4508
  746MOL0     H 2925  12.603  11.474   8.722  0.0427 -0.4642 -0.3078
  746MOL0     H 2926  12.721  11.654   8.632 -0.6114 -1.4575  0.6225
  746MOL0     H 2927  12.814  11.607   8.772 -1.2301 -1.7804  1.0733
  746MOL0     H 2928  11.823  11.580   9.092 -0.5520 -0.4731 -0.8466
  746MOL0     H 2929  11.599  11.540   9.026  2.2140  1.8121  0.7106
  746MOL0     H 2930  11.244  11.294   9.083  3.2022 -4.1765  3.3422
  746MOL0     H 2931  11.006  11.280   9.006 -1.2649 -2.2939 -0.7248
  746MOL0     H 2932  10.931  10.235   9.272  1.0667 -0.0688  1.6817
  746MOL0     H 2933  10.996   9.963   9.284  1.4041 -1.2687  4.9866
  746MOL0     H 2934  11.100   9.636   9.557 -1.4641 -1.8629  1.1897
  746MOL0     H 2935  11.277   9.467   9.480  0.7301  0.3361 -0.4900
  746MOL0     H 2936  11.167   9.198   9.304  0.1995 -1.5803 -0.1726
  746MOL0     H 2937  11.210   9.220   9.137 -0.5984  1.7739 -0.3243
  746MOL0     H 2938  11.404   9.168   9.375 -1.8275  3.4355  0.4076
  746MOL0     H 2939  11.432   9.125   9.201  0.5853  2.0658  0.3604
  746MOL0     H 2940  11.252   8.983   9.408 -1.9510 -2.7424 -1.6418
  746MOL0     H 2941  11.199   8.985   9.243 -0.4442  0.1358 -0.7322
  746MOL0     H 2942  11.322   8.795   9.346  0.0406 -1.1695 -1.9572
  746MOL0     H 2943  11.466   8.871   9.339  0.5870 -1.5296  0.9213
  746MOL0     H 2944  11.387   8.733   8.932 -1.4000 -0.4982  1.4855
  746MOL0     H 2945  11.065   9.375   9.132 -2.5418 -2.2596  2.4443
  746MOL0     H 2946  10.775   9.571   9.211  0.0907  1.1971 -0.8519
  746MOL0     H 2947  10.895   9.610   9.079  0.4887 -2.3152 -2.5632
  746MOL0     H 2948  10.845   9.439   9.115  0.6069  0.3920 -0.3231
  747MOL0     O 2949   8.569   7.541   1.732 -0.3976 -0.1516  0.0513
  747MOL0     C 2950   8.677   7.604   1.729  0.1656 -0.3289  0.4153
  747MOL0     O 2951   8.778   7.582   1.638  0.7893 -0.2371  0.3123
  747MOL0     C 2952   8.757   7.488   1.539 -0.0391  0.1890  0.1605
  747MOL0     C 2953   8.794   7.530   1.409  1.5345  0.5273  0.6551
  747MOL0     C 2954   8.791   7.445   1.300 -0.3636  0.1816 -0.1987
  747MOL0     C 2955   8.732   7.316   1.313  0.1170  0.1085 -0.6849
  747MOL0     O 2956   8.717   7.225   1.208  0.4942 -0.1142  0.6304
  747MOL0     C 2957   8.616   7.129   1.197 -0.4764  0.3250  0.5484
  747MOL0     C 2958   8.535   7.173   1.084  0.9283  0.0453  0.8559
  747MOL0     C 2959   8.477   7.049   1.002  0.8491  0.3377 -0.1811
  747MOL0     C 2960   8.357   7.085   0.910 -0.4178 -0.3994  0.0031
  747MOL0     C 2961   8.259   6.970   0.884 -1.1048  0.1163  0.1962
  747MOL0     C 2962   8.327   6.855   0.820  0.2576  0.6126  0.0743
  747MOL0     C 2963   8.241   6.778   0.719  0.0975  1.1332 -0.3768
  747MOL0     C 2964   8.148   6.682   0.787 -0.1234  0.7067 -0.5487
  747MOL0     N 2965   8.218   6.573   0.856  0.4125 -0.2484 -0.2460
  747MOL0     C 2966   8.279   6.577   0.979  0.5626  0.3696 -0.5496
  747MOL0     C 2967   8.321   6.453   1.009  0.0049 -0.2319  1.2598
  747MOL0     C 2968   8.387   6.426   1.136  1.0048  0.6405 -0.5041
  747MOL0     C 2969   8.537   6.452   1.144 -0.4663 -0.2683  0.1144
  747MOL0     C 2970   8.573   6.606   1.154 -1.1151 -0.1123  1.0405
  747MOL0     C 2971   8.533   6.649   1.293  0.0877 -0.7276 -0.0069
  747MOL0     O 2972   8.576   6.783   1.321  0.0324 -0.3779  0.4737
  747MOL0     C 2973   8.615   6.818   1.446 -0.6476  0.9297 -0.2630
  747MOL0     C 2974   8.560   6.773   1.574 -0.0609  0.9626  0.0585
  747MOL0     C 2975   8.618   6.807   1.691 -0.9192  0.5668  0.0741
  747MOL0     C 2976   8.577   6.724   1.810  0.2774  0.0499 -0.1954
  747MOL0     C 2977   8.736   6.891   1.689  1.2818  0.3635  1.0667
  747MOL0     C 2978   8.808   6.929   1.811 -0.5243  0.2181 -0.1597
  747MOL0     O 2979   8.729   6.955   1.930 -0.7783  0.2762 -0.8696
  747MOL0     C 2980   8.773   7.017   2.045 -0.2577  0.3693 -0.5596
  747MOL0     C 2981   8.680   7.036   2.148 -0.1731  0.8051  0.6388
  747MOL0     C 2982   8.697   7.125   2.255 -0.0835  0.2362 -0.2510
  747MOL0     C 2983   8.820   7.187   2.275 -0.3373 -1.4181 -0.0162
  747MOL0     O 2984   8.838   7.276   2.384  0.1600 -0.1630 -0.3439
  747MOL0     C 2985   8.885   7.226   2.516 -0.6437  0.2579  0.5141
  747MOL0     C 2986   9.018   7.142   2.487 -0.3000 -0.8699 -0.6587
  747MOL0     C 2987   9.065   7.077   2.614  1.0746 -0.2030 -0.8119
  747MOL0     C 2988   9.002   6.936   2.645  0.2297  0.0184  0.2741
  747MOL0     C 2989   9.068   6.871   2.754  1.2473  0.4432  0.0672
  747MOL0     C 2990   9.030   6.723   2.763  1.2085 -0.8538  0.5488
  747MOL0     C 2991   9.081   6.634   2.885  0.4898 -0.5404  0.5448
  747MOL0     C 2992   9.231   6.657   2.913 -0.4843 -0.5207  1.2457
  747MOL0    Cl 2993   9.320   6.592   2.779 -0.0043 -0.4148 -0.1424
  747MOL0     C 2994   8.922   7.164   2.176  0.1510 -0.1290  0.7904
  747MOL0     C 2995   8.895   7.081   2.064  0.2947 -0.2704 -0.6350
  747MOL0     O 2996   8.928   6.941   1.801  0.7337  0.0634 -0.8987
  747MOL0     C 2997   8.781   6.941   1.567  0.1046  0.4302 -0.2398
  747MOL0     C 2998   8.726   6.903   1.448 -1.0639  1.0615 -0.0955
  747MOL0     N 2999   8.289   6.378   0.896  0.3672 -0.0841 -0.9249
  747MOL0     N 3000   8.239   6.451   0.806  1.2889 -0.3819  0.0490
  747MOL0     C 3001   8.699   7.278   1.437 -0.2179 -0.8325  0.4960
  747MOL0     C 3002   8.719   7.353   1.550 -0.5246 -0.5046  0.2500
  747MOL0     C 3003   8.690   7.724   1.813  0.3329 -0.2585 -0.4326
  747MOL0     C 3004   8.610   7.730   1.938 -0.4018  0.7415  1.1336
  747MOL0     C 3005   8.624   7.841   2.020  0.8683 -0.7041 -0.0664
  747MOL0     C 3006   8.704   7.948   1.979  0.7188  0.3529 -0.1764
  747MOL0     O 3007   8.709   8.061   2.059 -0.1668  0.9631  0.7319
  747MOL0     C 3008   8.823   8.150   2.047 -0.3520 -0.3202  0.5578
  747MOL0     C 3009   8.822   8.250   2.159 -0.8064  1.4981  0.6792
  747MOL0     C 3010   8.704   8.344   2.159 -0.6023  0.2069 -0.1222
  747MOL0     C 3011   8.719   8.443   2.280 -0.0478  0.2410  0.0644
  747MOL0     C 3012   8.753   8.385   2.415 -0.6842 -1.1583 -0.6255
  747MOL0     C 3013   8.775   8.322   2.520 -0.1392 -0.1183  0.6806
  747MOL0     C 3014   8.777   7.943   1.865 -1.0373  1.0689 -0.6007
  747MOL0     C 3015   8.788   7.831   1.789 -0.0991 -0.3659  0.5893
  747MOL0     C 3016   8.892   7.843   1.672 -0.2083  0.2143  0.0139
  747MOL0     H 3017   8.806   7.636   1.388 -1.1869  0.8954  0.6198
  747MOL0     H 3018   8.821   7.487   1.204  1.8620 -1.4315 -0.3056
  747MOL0     H 3019   8.549   7.125   1.284 -2.3254  0.5314 -0.8129
  747MOL0     H 3020   8.667   7.032   1.190 -0.3352  0.4788 -0.7281
  747MOL0     H 3021   8.453   7.230   1.127 -0.6721  0.6153 -2.6200
  747MOL0     H 3022   8.588   7.229   1.007  0.8173  0.3300  0.9863
  747MOL0     H 3023   8.557   6.995   0.950  1.5400 -0.2408  1.4214
  747MOL0     H 3024   8.450   6.971   1.073 -0.0176  0.8877  0.1101
  747MOL0     H 3025   8.290   7.155   0.961 -0.7548  0.8359 -1.9874
  747MOL0     H 3026   8.398   7.135   0.821 -0.2161  0.8586  0.7758
  747MOL0     H 3027   8.177   7.012   0.825 -1.8459 -0.8788  0.4964
  747MOL0     H 3028   8.209   6.946   0.978 -0.5450 -0.2752  0.4009
  747MOL0     H 3029   8.415   6.884   0.761 -0.6687  2.3499 -0.5337
  747MOL0     H 3030   8.376   6.798   0.900  0.7462  4.2643  2.6472
  747MOL0     H 3031   8.306   6.732   0.644 -1.9055 -0.5695 -1.1842
  747MOL0     H 3032   8.175   6.846   0.664 -5.4831 -3.6189 -0.5138
  747MOL0     H 3033   8.077   6.732   0.852  0.6331  4.2459 -2.2210
  747MOL0     H 3034   8.092   6.628   0.709  2.5050 -0.4730 -1.7755
  747MOL0     H 3035   8.267   6.652   1.056 -2.1109  0.0353 -0.5653
  747MOL0     H 3036   8.367   6.320   1.155 -0.5414  0.6093 -2.0405
  747MOL0     H 3037   8.346   6.490   1.215  0.8917  2.4064 -1.9156
  747MOL0     H 3038   8.579   6.385   1.220 -1.6705 -0.9891  0.1632
  747MOL0     H 3039   8.570   6.420   1.044  0.4156  0.0291  0.2982
  747MOL0     H 3040   8.681   6.621   1.150 -1.1551  0.1984  1.1170
  747MOL0     H 3041   8.532   6.652   1.063 -1.0984 -0.4733  0.8498
  747MOL0     H 3042   8.424   6.657   1.304  0.1292  4.3962 -0.7268
  747MOL0     H 3043   8.569   6.582   1.372 -2.1604 -2.7993 -0.6284
  747MOL0     H 3044   8.477   6.703   1.570 -0.1451  0.6388  3.7794
  747MOL0     H 3045   8.647   6.725   1.894 -2.8253  0.2026  2.6023
  747MOL0     H 3046   8.550   6.623   1.777  0.9377 -0.0646 -0.4018
  747MOL0     H 3047   8.478   6.765   1.834  1.1446  1.9441  0.2931
  747MOL0     H 3048   8.585   6.984   2.144  1.6781 -3.4124  3.5506
  747MOL0     H 3049   8.619   7.125   2.330  0.2670 -2.0049  0.1902
  747MOL0     H 3050   8.908   7.313   2.578 -0.1436  0.1733  0.4580
  747MOL0     H 3051   8.817   7.159   2.569  1.4667 -1.0201  1.7539
  747MOL0     H 3052   9.001   7.063   2.413  2.0290 -1.3125 -0.7937
  747MOL0     H 3053   9.090   7.220   2.465 -1.2643 -0.3597 -2.1351
  747MOL0     H 3054   9.050   7.148   2.695  1.6232  0.5156 -1.3250
  747MOL0     H 3055   9.172   7.063   2.594  0.7461 -0.5449 -2.4651
  747MOL0     H 3056   9.002   6.877   2.553  1.1496  2.4482 -1.3888
  747MOL0     H 3057   8.899   6.964   2.667  0.3818  1.4246 -0.6677
  747MOL0     H 3058   9.176   6.862   2.739  1.2212 -4.4760  1.2753
  747MOL0     H 3059   9.058   6.926   2.848 -0.3949 -1.3479  1.0019
  747MOL0     H 3060   9.075   6.677   2.674  0.8078  0.4686 -0.3652
  747MOL0     H 3061   8.922   6.715   2.778  1.0347 -1.2686 -0.8356
  747MOL0     H 3062   9.067   6.528   2.861 -2.8939  0.0630 -0.6850
  747MOL0     H 3063   9.021   6.642   2.976  0.6107 -0.3705  0.6106
  747MOL0     H 3064   9.276   6.621   3.006  0.6381  1.4174  1.5115
  747MOL0     H 3065   9.253   6.763   2.926 -1.8993  0.0605 -0.6980
  747MOL0     H 3066   9.028   7.187   2.186 -0.0060  0.0017  2.3962
  747MOL0     H 3067   8.980   7.069   1.998  2.2827  1.4623  1.4201
  747MOL0     H 3068   8.876   6.994   1.560 -0.8381  2.0204 -1.6833
  747MOL0     H 3069   8.783   6.947   1.367  0.6397 -1.6455 -0.5149
  747MOL0     H 3070   8.674   7.174   1.453 -1.0564 -0.4875  1.5709
  747MOL0     H 3071   8.705   7.295   1.641  0.4167  2.5881  2.5416
  747MOL0     H 3072   8.539   7.651   1.959  0.8796 -0.5386  0.7962
  747MOL0     H 3073   8.572   7.854   2.114 -2.0747  0.2980 -1.7273
  747MOL0     H 3074   8.911   8.088   2.067 -0.5108 -0.3024  1.3359
  747MOL0     H 3075   8.826   8.210   1.955  2.4080 -0.3450  0.5359
  747MOL0     H 3076   8.917   8.305   2.151 -0.2535  0.5732  0.7511
  747MOL0     H 3077   8.833   8.194   2.253  1.8814  1.4441  0.4212
  747MOL0     H 3078   8.700   8.412   2.073 -0.1035 -1.5336 -1.5842
  747MOL0     H 3079   8.617   8.278   2.168  0.2012 -0.5839  2.9081
  747MOL0     H 3080   8.627   8.502   2.280 -0.8100 -0.9215 -0.3906
  747MOL0     H 3081   8.797   8.509   2.240  0.1100 -1.6768 -3.1220
  747MOL0     H 3082   8.797   8.276   2.615  2.1560  3.3034  1.9765
  747MOL0     H 3083   8.827   8.030   1.823 -2.7072  1.3643 -2.1380
  747MOL0     H 3084   8.967   7.764   1.678 -0.1470  0.1835 -0.9812
  747MOL0     H 3085   8.831   7.848   1.581 -1.1926  2.2201  0.7194
  747MOL0     H 3086   8.946   7.939   1.670  0.0510  0.0676  0.0171
  748MOL0     O 3087   5.995   6.414   0.762  0.0748 -0.3721  0.0516
  748MOL0     C 3088   6.014   6.528   0.717 -0.4188  1.1498 -0.2395
  748MOL0     O 3089   5.992   6.652   0.789  0.4985  0.8613 -0.1839
  748MOL0     C 3090   5.930   6.627   0.906 -0.3653  0.1479 -0.6552
  748MOL0     C 3091   6.005   6.609   1.022 -0.4478  0.2084 -0.7981
  748MOL0     C 3092   5.937   6.591   1.147  1.0734 -0.5661  0.6825
  748MOL0     C 3093   5.797   6.583   1.144  0.5571  0.2022 -0.5259
  748MOL0     O 3094   5.748   6.564   1.266  0.2144  0.2331 -0.1403
  748MOL0     C 3095   5.664   6.677   1.301  0.4616  0.6606 -0.1520
  748MOL0     C 3096   5.745   6.790   1.369  0.6613 -0.1963 -0.3482
  748MOL0     C 3097   5.856   6.744   1.466  0.2812  0.8604  0.4148
  748MOL0     C 3098   5.918   6.872   1.520  0.9999 -0.5889 -0.3497
  748MOL0     C 3099   6.033   6.839   1.605 -0.1531 -0.1999 -0.5247
  748MOL0     C 3100   6.054   6.936   1.718 -0.2211 -0.2992  0.5581
  748MOL0     C 3101   6.177   6.907   1.804 -0.7822 -0.2559  0.8722
  748MOL0     C 3102   6.135   6.827   1.924  0.5807 -0.1649 -0.1765
  748MOL0     N 3103   6.231   6.714   1.947  0.3375 -0.5253  0.4394
  748MOL0     C 3104   6.208   6.613   2.036  0.1450  0.2531 -0.6974
  748MOL0     C 3105   6.310   6.527   2.008  0.5688  0.0317 -0.4572
  748MOL0     C 3106   6.328   6.392   2.054 -0.2050 -1.3473 -0.3197
  748MOL0     C 3107   6.221   6.344   2.149  0.8144  0.2807 -0.0031
  748MOL0     C 3108   6.255   6.192   2.189  0.0450 -0.6563 -0.0796
  748MOL0     C 3109   6.150   6.124   2.275 -0.6945 -0.8438 -0.1542
  748MOL0     O 3110   6.178   5.985   2.305 -0.2254  0.3205  0.2608
  748MOL0     C 3111   6.096   5.900   2.235  0.6364  0.0483 -1.3856
  748MOL0     C 3112   6.129   5.850   2.106 -0.7003  0.4080  0.6399
  748MOL0     C 3113   6.041   5.754   2.041  0.9786 -0.3401 -1.5286
  748MOL0     C 3114   6.072   5.711   1.905 -0.8963  0.2064 -0.1220
  748MOL0     C 3115   5.920   5.714   2.101 -0.5707  0.3015 -0.4552
  748MOL0     C 3116   5.822   5.627   2.030 -0.6417  0.3501 -0.4302
  748MOL0     O 3117   5.697   5.646   2.073 -0.7469  0.3267 -0.7860
  748MOL0     C 3118   5.589   5.576   2.037  0.2625 -0.2665 -0.3532
  748MOL0     C 3119   5.473   5.607   2.118 -0.2743  0.2071  0.9834
  748MOL0     C 3120   5.349   5.543   2.110 -0.8128  0.0845 -0.1239
  748MOL0     C 3121   5.343   5.436   2.019 -0.3168 -0.4957  0.9221
  748MOL0     O 3122   5.214   5.379   2.010  0.0422  0.5005  0.2104
  748MOL0     C 3123   5.176   5.333   1.875 -1.0266  0.2934 -0.0454
  748MOL0     C 3124   5.028   5.329   1.870  0.7142 -1.2212 -0.7466
  748MOL0     C 3125   4.960   5.232   1.974 -0.6152  0.2332  0.3487
  748MOL0     C 3126   4.812   5.235   1.969 -0.4099 -0.0204 -0.0137
  748MOL0     C 3127   4.769   5.379   2.004 -0.6446  0.5938  0.5007
  748MOL0     C 3128   4.629   5.373   2.055  0.3469 -0.3778 -0.2254
  748MOL0     C 3129   4.583   5.523   2.054  0.1893 -0.2376  0.3341
  748MOL0     C 3130   4.558   5.579   1.910 -0.5773  0.6905 -0.0791
  748MOL0    Cl 3131   4.471   5.732   1.928  0.0176 -0.0875 -0.3662
  748MOL0     C 3132   5.445   5.398   1.933 -0.2238  0.1588 -0.4150
  748MOL0     C 3133   5.570   5.471   1.941  0.2530 -0.4041 -0.6121
  748MOL0     O 3134   5.854   5.533   1.958 -0.2090 -0.1620 -0.9799
  748MOL0     C 3135   5.900   5.770   2.223  1.0498  0.7039 -0.5014
  748MOL0     C 3136   5.985   5.852   2.301 -0.6178  0.2259  0.1606
  748MOL0     N 3137   6.384   6.566   1.899 -0.4826  0.2635  1.4380
  748MOL0     N 3138   6.337   6.677   1.866  0.4104  0.2520 -0.1251
  748MOL0     C 3139   5.717   6.597   1.024 -0.8644  0.5698  0.3058
  748MOL0     C 3140   5.788   6.620   0.903 -0.4483 -0.9646 -0.2145
  748MOL0     C 3141   6.075   6.537   0.578  1.1638 -0.4895 -0.9299
  748MOL0     C 3142   6.061   6.658   0.510  0.8835 -0.1682 -0.4862
  748MOL0     C 3143   6.119   6.682   0.390 -1.3673 -0.3548 -0.6315
  748MOL0     C 3144   6.197   6.579   0.332  0.1916  0.3517 -0.0684
  748MOL0     O 3145   6.283   6.598   0.232  0.0558 -0.3334  0.4215
  748MOL0     C 3146   6.286   6.718   0.150  0.4439 -0.2508  0.5365
  748MOL0     C 3147   6.389   6.818   0.199  0.6676 -0.5824 -0.4482
  748MOL0     C 3148   6.529   6.777   0.161 -0.2553  0.2502  0.9805
  748MOL0     C 3149   6.637   6.875   0.208 -0.0051 -0.2536  0.5960
  748MOL0     C 3150   6.627   7.017   0.167 -0.7661 -0.0046 -0.9467
  748MOL0     C 3151   6.624   7.134   0.129 -0.5198  0.2369  0.0495
  748MOL0     C 3152   6.202   6.453   0.384  0.2543 -0.2125 -0.8681
  748MOL0     C 3153   6.140   6.432   0.509 -0.2813 -0.0652 -0.3549
  748MOL0     C 3154   6.167   6.297   0.564 -0.3653  0.1818 -0.0692
  748MOL0     H 3155   6.113   6.622   1.024 -0.3798  0.7674  4.6688
  748MOL0     H 3156   5.992   6.579   1.240 -3.5468  2.2769  4.2322
  748MOL0     H 3157   5.587   6.651   1.374 -0.8030  0.0410 -1.6619
  748MOL0     H 3158   5.607   6.729   1.223  0.1159  4.1166  2.1565
  748MOL0     H 3159   5.795   6.858   1.300 -0.4538 -0.3040 -1.2902
  748MOL0     H 3160   5.669   6.848   1.423 -0.2170  2.0792 -3.7237
  748MOL0     H 3161   5.813   6.688   1.549 -5.1426  0.8124 -1.9856
  748MOL0     H 3162   5.928   6.679   1.415 -0.4990 -0.3119  0.7788
  748MOL0     H 3163   5.954   6.926   1.431 -0.3602  2.2946  0.7334
  748MOL0     H 3164   5.846   6.931   1.578  0.0125  0.1949 -2.2652
  748MOL0     H 3165   6.124   6.853   1.546 -2.0739 -1.0129 -3.9366
  748MOL0     H 3166   6.044   6.740   1.650  5.7727  0.3545 -0.0556
  748MOL0     H 3167   6.072   7.023   1.654  2.0227  0.2270  1.7849
  748MOL0     H 3168   5.964   6.969   1.773 -1.2520 -0.0708 -1.1986
  748MOL0     H 3169   6.228   7.000   1.832 -0.8482 -0.6468  2.4019
  748MOL0     H 3170   6.259   6.865   1.745 -0.5839 -0.4984  1.3105
  748MOL0     H 3171   6.131   6.886   2.016 -1.4456 -0.0103 -0.3143
  748MOL0     H 3172   6.032   6.793   1.908 -0.3486  0.7970  3.0298
  748MOL0     H 3173   6.135   6.608   2.116  3.5290 -1.0413  2.6043
  748MOL0     H 3174   6.419   6.380   2.113 -1.2107  0.5898  1.7394
  748MOL0     H 3175   6.344   6.333   1.963  2.8196 -0.9603 -0.1312
  748MOL0     H 3176   6.226   6.406   2.240 -0.4389 -0.0550  0.3035
  748MOL0     H 3177   6.120   6.350   2.109  0.4345  0.2015  0.9131
  748MOL0     H 3178   6.250   6.135   2.096  1.4489  0.6364 -1.0106
  748MOL0     H 3179   6.355   6.178   2.232 -0.2867  0.7848  1.2450
  748MOL0     H 3180   6.148   6.174   2.372 -2.1134  1.3054 -1.2137
  748MOL0     H 3181   6.055   6.142   2.224 -1.1343 -1.5666  0.3999
  748MOL0     H 3182   6.216   5.892   2.057 -2.1357  0.2653 -2.2499
  748MOL0     H 3183   5.997   5.751   1.836  0.1108  1.3907 -0.5830
  748MOL0     H 3184   6.081   5.602   1.900 -2.9580  0.0544 -2.6692
  748MOL0     H 3185   6.167   5.755   1.872 -1.7690  2.4928  0.1987
  748MOL0     H 3186   5.477   5.682   2.196 -0.9160  1.6626 -0.3414
  748MOL0     H 3187   5.272   5.568   2.182 -0.5878  1.5451 -0.3683
  748MOL0     H 3188   5.199   5.406   1.798 -1.3024 -0.9413 -1.3348
  748MOL0     H 3189   5.217   5.235   1.848 -0.9423  0.5434 -0.8265
  748MOL0     H 3190   4.986   5.429   1.888  0.4941 -1.0724 -2.0270
  748MOL0     H 3191   4.987   5.298   1.774 -2.7367 -0.1153  0.1982
  748MOL0     H 3192   4.983   5.263   2.076 -0.6919  0.6984  0.2245
  748MOL0     H 3193   4.992   5.128   1.957 -0.1904  0.2327  1.1261
  748MOL0     H 3194   4.767   5.166   2.042 -1.9750  1.0342  0.0773
  748MOL0     H 3195   4.769   5.210   1.871  0.0311  1.8208 -0.7156
  748MOL0     H 3196   4.828   5.441   2.072 -1.2912  2.1328 -0.3007
  748MOL0     H 3197   4.776   5.441   1.914 -2.6122 -0.2692 -0.3125
  748MOL0     H 3198   4.631   5.328   2.155 -2.1717 -2.6047 -1.0777
  748MOL0     H 3199   4.561   5.315   1.993 -1.3013  2.3460 -1.1584
  748MOL0     H 3200   4.662   5.588   2.092  0.9769  0.3548 -2.0965
  748MOL0     H 3201   4.496   5.535   2.120  1.5814 -1.4349  2.5097
  748MOL0     H 3202   4.496   5.507   1.856  1.0005 -0.6240 -0.2025
  748MOL0     H 3203   4.645   5.591   1.845 -2.3607 -0.7971 -2.9423
  748MOL0     H 3204   5.440   5.319   1.858  1.0841 -1.4146  1.0984
  748MOL0     H 3205   5.652   5.456   1.871 -0.2852 -1.5328 -1.0252
  748MOL0     H 3206   5.811   5.742   2.278  1.8998  1.8681  1.5514
  748MOL0     H 3207   5.955   5.886   2.399 -1.0417 -4.0648  1.7059
  748MOL0     H 3208   5.609   6.584   1.029 -0.7255 -1.0638 -0.4147
  748MOL0     H 3209   5.744   6.623   0.803  2.7150 -0.7011 -1.7103
  748MOL0     H 3210   6.026   6.748   0.560 -1.4536  0.1619 -2.5464
  748MOL0     H 3211   6.114   6.785   0.356  0.4297  0.3566  1.0778
  748MOL0     H 3212   6.304   6.689   0.046 -4.3883 -1.0670 -0.2844
  748MOL0     H 3213   6.190   6.771   0.148  0.3116 -0.3684  2.5608
  748MOL0     H 3214   6.388   6.811   0.308  2.8984 -1.7478 -0.4616
  748MOL0     H 3215   6.364   6.919   0.163 -2.9635 -0.9233  0.6773
  748MOL0     H 3216   6.560   6.680   0.201  1.4632  0.9439  1.4396
  748MOL0     H 3217   6.524   6.747   0.056 -4.3266 -3.6172  1.9937
  748MOL0     H 3218   6.736   6.837   0.183  1.4771  2.6660  1.5981
  748MOL0     H 3219   6.641   6.867   0.317 -1.7302  3.0995  1.0542
  748MOL0     H 3220   6.614   7.236   0.097 -1.1415 -0.1545 -1.0413
  748MOL0     H 3221   6.260   6.378   0.332  2.3626  1.2770 -0.7733
  748MOL0     H 3222   6.080   6.241   0.597  0.0264 -0.5850 -0.3157
  748MOL0     H 3223   6.208   6.232   0.486 -1.5001  1.0371 -1.4425
  748MOL0     H 3224   6.240   6.283   0.644 -3.5626 -2.7536  2.6649
  749MOL0     O 3225   3.970   8.886   9.286  0.2129 -0.7405 -0.3556
  749MOL0     C 3226   4.066   8.835   9.226 -0.7165 -0.8857  0.3357
  749MOL0     O 3227   4.184   8.893   9.200 -0.1477 -0.0902  0.2114
  749MOL0     C 3228   4.218   8.996   9.280 -1.6573 -0.7985  0.5310
  749MOL0     C 3229   4.263   9.117   9.218  1.1472  1.2023 -0.2283
  749MOL0     C 3230   4.339   9.211   9.293 -0.2958  0.2580  0.3188
  749MOL0     C 3231   4.336   9.206   9.428  0.0917 -0.0496 -0.7107
  749MOL0     O 3232   4.393   9.306   9.506 -0.1315  0.9246 -0.4058
  749MOL0     C 3233   4.527   9.283   9.534  1.0985  0.0442  0.2221
  749MOL0     C 3234   4.544   9.381   9.649 -1.2517 -0.1643 -0.7188
  749MOL0     C 3235   4.687   9.416   9.685 -0.2343 -0.4029 -0.1904
  749MOL0     C 3236   4.769   9.291   9.697 -0.5539  0.7643 -0.7668
  749MOL0     C 3237   4.908   9.331   9.763 -0.7342 -0.3197 -1.4889
  749MOL0     C 3238   5.004   9.224   9.778 -0.3252 -0.0139 -0.8518
  749MOL0     C 3239   4.969   9.108   9.865 -0.3108 -0.0971 -0.3076
  749MOL0     C 3240   5.091   9.023   9.889  0.1750 -0.0391  0.1500
  749MOL0     N 3241   5.055   8.903   9.958  0.0543  0.0290 -0.4051
  749MOL0     C 3242   4.994   8.795   9.896  0.4913 -0.5116 -0.1057
  749MOL0     C 3243   5.019   8.691   9.980 -0.2797 -1.0810  0.0883
  749MOL0     C 3244   4.963   8.555   9.954 -1.0456  0.0471  0.9804
  749MOL0     C 3245   5.001   8.502   9.817 -0.1495 -0.4918 -0.9955
  749MOL0     C 3246   5.137   8.424   9.833 -0.8710  0.7766 -0.5969
  749MOL0     C 3247   5.213   8.415   9.699 -0.1760 -0.6406  0.3171
  749MOL0     O 3248   5.128   8.354   9.599  0.2471  0.5830  0.1791
  749MOL0     C 3249   5.173   8.345   9.467  0.8077  0.5128 -0.0307
  749MOL0     C 3250   5.298   8.381   9.424  0.4606 -0.9383 -0.6261
  749MOL0     C 3251   5.330   8.385   9.289 -0.6471 -0.5379  0.1031
  749MOL0     C 3252   5.473   8.430   9.256 -0.4109  0.0861  0.6668
  749MOL0     C 3253   5.231   8.362   9.190  0.0006  0.2686  0.5582
  749MOL0     C 3254   5.260   8.375   9.045 -0.4287  0.1397  0.4427
  749MOL0     O 3255   5.206   8.286   8.964 -0.8077  0.1510  0.1693
  749MOL0     C 3256   5.228   8.290   8.832 -1.1049 -1.4576 -0.3495
  749MOL0     C 3257   5.133   8.348   8.745 -0.9520  0.8757  0.0517
  749MOL0     C 3258   5.166   8.355   8.607  0.6714  0.8396  0.5585
  749MOL0     C 3259   5.287   8.313   8.556  0.9022  0.7457 -0.2562
  749MOL0     O 3260   5.328   8.316   8.429 -0.0585 -0.2906  0.1277
  749MOL0     C 3261   5.238   8.377   8.335  0.0289  0.2612  0.5184
  749MOL0     C 3262   5.308   8.387   8.196  1.0262  0.1149 -0.3073
  749MOL0     C 3263   5.300   8.259   8.115  1.1009  0.2494 -0.5984
  749MOL0     C 3264   5.238   8.283   7.976  0.5940  0.0788 -0.2823
  749MOL0     C 3265   5.219   8.155   7.901  0.2470 -0.5106  0.0522
  749MOL0     C 3266   5.347   8.070   7.878  0.3227  0.7349 -0.1295
  749MOL0     C 3267   5.303   7.947   7.799  0.6337  0.1192 -1.8408
  749MOL0     C 3268   5.388   7.822   7.834  0.3093 -0.1646 -0.6487
  749MOL0    Cl 3269   5.306   7.670   7.778  0.4610 -0.4791  0.2150
  749MOL0     C 3270   5.376   8.244   8.646 -0.1754 -1.0856  0.7635
  749MOL0     C 3271   5.351   8.251   8.779  0.2177 -0.5276 -1.0849
  749MOL0     O 3272   5.327   8.471   9.003  0.3878 -1.0238 -0.3991
  749MOL0     C 3273   5.102   8.317   9.228 -0.5096  0.6376 -0.2580
  749MOL0     C 3274   5.069   8.315   9.365  0.0002 -0.0395  0.0016
  749MOL0     N 3275   5.098   8.737  10.088  0.4104  0.0278  0.3251
  749MOL0     N 3276   5.114   8.865  10.079  0.0257  0.4171 -0.0485
  749MOL0     C 3277   4.286   9.090   9.494  0.2901 -0.2795 -0.3783
  749MOL0     C 3278   4.230   8.983   9.419 -0.0226 -0.3280  0.2820
  749MOL0     C 3279   4.026   8.737   9.133 -0.4678  0.0810 -0.6769
  749MOL0     C 3280   3.921   8.771   9.044 -0.7353  1.4282  0.5822
  749MOL0     C 3281   3.884   8.686   8.943 -0.1272 -0.5402 -0.0543
  749MOL0     C 3282   3.939   8.561   8.927 -0.4055 -0.3247  0.7013
  749MOL0     O 3283   3.880   8.498   8.821 -0.0850  0.2822 -0.3664
  749MOL0     C 3284   3.892   8.354   8.808  0.4136 -0.3039  0.3232
  749MOL0     C 3285   3.827   8.296   8.680  0.5297 -0.5834 -0.0464
  749MOL0     C 3286   3.815   8.144   8.684 -1.2710 -1.0330 -0.7220
  749MOL0     C 3287   3.686   8.095   8.623  0.5054 -0.0512 -0.3475
  749MOL0     C 3288   3.573   8.087   8.720 -0.4750 -0.6953 -0.8991
  749MOL0     C 3289   3.473   8.078   8.784  0.7491 -1.0824  0.3187
  749MOL0     C 3290   4.036   8.522   9.018 -0.0325 -0.0361  0.4852
  749MOL0     C 3291   4.084   8.602   9.125  0.0241  0.6470  0.7750
  749MOL0     C 3292   4.196   8.558   9.217 -0.0056 -0.2494 -0.4680
  749MOL0     H 3293   4.237   9.128   9.113 -3.9652  0.4944  0.7139
  749MOL0     H 3294   4.377   9.292   9.232  0.9292 -0.7117 -0.2619
  749MOL0     H 3295   4.592   9.289   9.446  1.7015  3.1940  0.7691
  749MOL0     H 3296   4.543   9.179   9.567 -2.0749 -1.4360 -2.4125
  749MOL0     H 3297   4.500   9.478   9.625 -0.6057  0.7186  1.4035
  749MOL0     H 3298   4.515   9.349   9.749  1.0414 -0.0083  0.0554
  749MOL0     H 3299   4.736   9.467   9.602  2.9337 -2.5045  0.2375
  749MOL0     H 3300   4.699   9.468   9.780  2.8795 -2.2467  0.5613
  749MOL0     H 3301   4.715   9.214   9.754 -2.9146  2.8822  0.0585
  749MOL0     H 3302   4.793   9.251   9.598  1.5550  1.4353 -0.5817
  749MOL0     H 3303   4.902   9.390   9.856  0.1795  1.7981 -2.7040
  749MOL0     H 3304   4.954   9.396   9.689  0.7546  0.6213  0.1844
  749MOL0     H 3305   5.012   9.176   9.680  0.8970 -2.9716  0.5597
  749MOL0     H 3306   5.098   9.273   9.805  0.5383 -1.5969 -0.8508
  749MOL0     H 3307   4.896   9.050   9.808 -0.4975  0.1257 -0.2956
  749MOL0     H 3308   4.926   9.153   9.954 -1.3504 -1.8846  0.1498
  749MOL0     H 3309   5.139   8.997   9.795 -0.3029  0.9361 -0.3782
  749MOL0     H 3310   5.158   9.081   9.953  1.0576 -1.3331  0.4343
  749MOL0     H 3311   4.927   8.783   9.812  0.7348  0.0201 -0.3765
  749MOL0     H 3312   4.854   8.560   9.963 -1.1683  1.6639 -0.7977
  749MOL0     H 3313   5.007   8.493  10.033 -0.3385  1.0590  1.3977
  749MOL0     H 3314   4.928   8.427   9.784 -0.7831 -0.0943 -0.5205
  749MOL0     H 3315   5.011   8.583   9.744  2.1957  0.9020  0.7328
  749MOL0     H 3316   5.208   8.478   9.897  2.5511 -3.2408 -0.5155
  749MOL0     H 3317   5.122   8.327   9.882  0.2193  2.3136  3.1686
  749MOL0     H 3318   5.227   8.517   9.662 -3.0493 -0.4525 -0.4334
  749MOL0     H 3319   5.310   8.364   9.705  0.0077 -0.5139 -1.1752
  749MOL0     H 3320   5.370   8.418   9.496 -0.3566 -1.1771  0.3460
  749MOL0     H 3321   5.471   8.537   9.231 -2.3890 -0.0992 -0.1011
  749MOL0     H 3322   5.523   8.373   9.178  2.1137  1.1181  1.4310
  749MOL0     H 3323   5.538   8.439   9.344 -0.3688  1.4452  0.5229
  749MOL0     H 3324   5.039   8.388   8.781 -2.0201 -2.6482  1.6359
  749MOL0     H 3325   5.099   8.387   8.528 -0.5601 -0.6391  0.9346
  749MOL0     H 3326   5.142   8.327   8.326 -1.2800  2.3133  2.1630
  749MOL0     H 3327   5.209   8.477   8.368 -0.1188 -0.2099  1.8951
  749MOL0     H 3328   5.263   8.473   8.146 -3.7765 -1.2482  1.0665
  749MOL0     H 3329   5.412   8.417   8.210  0.9305  0.9246 -1.1820
  749MOL0     H 3330   5.236   8.196   8.177 -0.0026  0.4978 -1.4651
  749MOL0     H 3331   5.403   8.222   8.115  1.5252  1.1455  2.3103
  749MOL0     H 3332   5.303   8.347   7.915  1.3498  0.2052  0.6415
  749MOL0     H 3333   5.141   8.334   7.982  1.3165  1.4683  0.0751
  749MOL0     H 3334   5.140   8.093   7.946  2.6837 -3.0383  1.2168
  749MOL0     H 3335   5.199   8.192   7.801  3.7307  0.3623 -0.4597
  749MOL0     H 3336   5.395   8.032   7.968 -0.4354  1.7758  0.7334
  749MOL0     H 3337   5.421   8.138   7.834 -0.0216  2.2399  1.4887
  749MOL0     H 3338   5.332   7.974   7.697  1.1442  1.5060 -1.3533
  749MOL0     H 3339   5.199   7.914   7.798  0.6406  0.1032 -2.4549
  749MOL0     H 3340   5.398   7.812   7.943  1.4116 -1.0012 -0.8091
  749MOL0     H 3341   5.486   7.829   7.784 -0.0137 -3.8463 -2.0999
  749MOL0     H 3342   5.462   8.199   8.597 -0.8951 -0.9907 -0.6271
  749MOL0     H 3343   5.420   8.201   8.845 -3.0427 -2.1326  1.4063
  749MOL0     H 3344   5.014   8.287   9.171 -1.7999 -0.6882  2.2779
  749MOL0     H 3345   4.968   8.284   9.392 -0.0809 -1.9252 -2.2046
  749MOL0     H 3346   4.283   9.093   9.603 -1.9741 -1.7879 -0.3467
  749MOL0     H 3347   4.202   8.888   9.464  1.1225 -0.1021  1.5191
  749MOL0     H 3348   3.858   8.858   9.055 -3.5117 -0.2300 -1.0659
  749MOL0     H 3349   3.813   8.712   8.865  2.4946  0.8726 -2.1385
  749MOL0     H 3350   4.001   8.342   8.801  0.6675  0.1006  2.8237
  749MOL0     H 3351   3.849   8.313   8.899  0.5723 -1.0623  0.0659
  749MOL0     H 3352   3.874   8.333   8.589 -1.1351 -1.1303 -1.1693
  749MOL0     H 3353   3.726   8.338   8.673 -0.3295 -2.1265  1.9382
  749MOL0     H 3354   3.907   8.118   8.630 -0.2446  0.8343  0.0224
  749MOL0     H 3355   3.833   8.108   8.785  0.4365  1.3172 -0.0952
  749MOL0     H 3356   3.698   7.992   8.590  2.7074 -0.2625  0.9316
  749MOL0     H 3357   3.652   8.158   8.540 -3.5769  2.2164  2.6599
  749MOL0     H 3358   3.387   8.063   8.847  0.4724  2.6785  1.0556
  749MOL0     H 3359   4.077   8.422   9.007 -1.0769 -0.2529 -2.1960
  749MOL0     H 3360   4.235   8.643   9.273 -0.9049 -1.4683  2.1923
  749MOL0     H 3361   4.166   8.493   9.300 -2.9907  0.1496 -1.1201
  749MOL0     H 3362   4.286   8.519   9.170  1.4417 -0.1287  2.0263
  750MOL0     O 3363   0.387   2.399   4.126  0.4855  0.6733  0.2479
  750MOL0     C 3364   0.367   2.429   4.242 -0.2807 -0.0254 -0.3079
  750MOL0     O 3365   0.239   2.463   4.289  0.0236 -0.1704 -0.2004
  750MOL0     C 3366   0.129   2.469   4.202  0.7635 -1.2605 -0.0109
  750MOL0     C 3367   0.105   2.570   4.116  0.9434 -0.7602  0.0511
  750MOL0     C 3368  -0.014   2.576   4.040 -1.0611  0.2747  0.7851
  750MOL0     C 3369  -0.116   2.483   4.056 -0.2801  0.6750  0.1786
  750MOL0     O 3370  -0.229   2.506   3.984 -0.1127 -0.9381 -0.1589
  750MOL0     C 3371  -0.353   2.440   4.022 -1.0630  0.4634 -0.2557
  750MOL0     C 3372  -0.360   2.300   3.955 -0.2362  0.6772 -0.5875
  750MOL0     C 3373  -0.474   2.290   3.857  0.2452  0.2511 -0.5823
  750MOL0     C 3374  -0.452   2.314   3.714  0.0086  0.1639  0.7092
  750MOL0     C 3375  -0.384   2.447   3.672 -0.0312 -0.9541 -0.2620
  750MOL0     C 3376  -0.372   2.474   3.523 -0.1179  0.5813  0.2172
  750MOL0     C 3377  -0.499   2.479   3.426 -1.0287 -0.7406  0.5182
  750MOL0     C 3378  -0.471   2.513   3.285  0.1850  0.4169  0.2752
  750MOL0     N 3379  -0.406   2.652   3.265 -0.5424  0.4429 -0.0236
  750MOL0     C 3380  -0.478   2.766   3.297  0.1375 -0.2431  0.5261
  750MOL0     C 3381  -0.394   2.870   3.249 -0.3125  0.9246  0.2567
  750MOL0     C 3382  -0.435   3.016   3.235  0.6842  0.5194  0.2956
  750MOL0     C 3383  -0.322   3.117   3.278 -0.5526 -0.0221  0.5121
  750MOL0     C 3384  -0.375   3.266   3.280  0.8754  0.1255  0.9137
  750MOL0     C 3385  -0.401   3.325   3.149  0.8766  1.7974  0.4212
  750MOL0     O 3386  -0.287   3.313   3.063  0.3289  0.2917 -0.1415
  750MOL0     C 3387  -0.261   3.416   2.969  0.2523  0.8356  1.0133
  750MOL0     C 3388  -0.309   3.394   2.841  0.2056 -0.1275 -0.1807
  750MOL0     C 3389  -0.283   3.493   2.743  0.0178  0.1128  0.7052
  750MOL0     C 3390  -0.327   3.463   2.597 -0.5146  0.0840 -1.6431
  750MOL0     C 3391  -0.212   3.616   2.772  0.4466  0.3279 -0.3833
  750MOL0     C 3392  -0.155   3.709   2.678  0.5910  0.2980 -0.1150
  750MOL0     O 3393  -0.047   3.784   2.715  0.1742  0.2347 -0.4061
  750MOL0     C 3394   0.023   3.845   2.615  0.2785 -0.2135 -0.8620
  750MOL0     C 3395   0.134   3.788   2.554 -0.3980 -0.7995 -0.0577
  750MOL0     C 3396   0.198   3.870   2.455 -0.6731  0.6553  0.3953
  750MOL0     C 3397   0.159   3.994   2.410  0.7902 -0.8733 -0.7768
  750MOL0     O 3398   0.219   4.070   2.314 -0.3744  0.5005  0.4549
  750MOL0     C 3399   0.198   4.006   2.185  0.5767  0.0331  0.0767
  750MOL0     C 3400   0.336   4.019   2.109 -0.4242 -0.1345  0.2731
  750MOL0     C 3401   0.315   3.929   1.986 -0.0001 -0.8926 -0.3568
  750MOL0     C 3402   0.335   3.771   2.021  0.6763 -0.1866  0.5022
  750MOL0     C 3403   0.295   3.690   1.892  0.2923  0.6804 -1.2578
  750MOL0     C 3404   0.368   3.556   1.880  0.3842  0.5086  0.7129
  750MOL0     C 3405   0.322   3.453   1.979  0.5725  0.3738 -0.5644
  750MOL0     C 3406   0.404   3.324   1.957  0.1319  0.5867  0.1344
  750MOL0    Cl 3407   0.350   3.245   1.818  0.3782 -0.1108  0.5591
  750MOL0     C 3408   0.039   4.039   2.475 -1.1274 -0.2505 -0.4116
  750MOL0     C 3409  -0.021   3.968   2.572  0.0336  0.2139 -1.2602
  750MOL0     O 3410  -0.212   3.722   2.571 -0.0688 -0.2735  0.2813
  750MOL0     C 3411  -0.179   3.638   2.905 -0.2037 -0.2646  0.8522
  750MOL0     C 3412  -0.192   3.536   2.997  0.2943  1.0464 -0.0109
  750MOL0     N 3413  -0.265   2.805   3.221  0.1288 -0.1152  0.0291
  750MOL0     N 3414  -0.281   2.671   3.232  0.0689 -0.2954 -0.1612
  750MOL0     C 3415  -0.097   2.375   4.152 -0.5144  0.9610  0.7054
  750MOL0     C 3416   0.037   2.369   4.216  0.3890  0.4023 -0.3298
  750MOL0     C 3417   0.480   2.431   4.341 -0.5741  0.0728  0.4874
  750MOL0     C 3418   0.448   2.472   4.472 -1.2171 -0.3995  0.6125
  750MOL0     C 3419   0.548   2.463   4.572  0.8955 -0.3849  0.2356
  750MOL0     C 3420   0.681   2.415   4.537 -0.9934  0.0958  0.0791
  750MOL0     O 3421   0.790   2.396   4.625 -0.2657  0.6355 -0.1431
  750MOL0     C 3422   0.766   2.377   4.768  0.3700  0.6061 -0.8637
  750MOL0     C 3423   0.863   2.270   4.819  0.9155 -0.1356 -0.3454
  750MOL0     C 3424   0.824   2.249   4.967  0.2761  0.4418  0.7002
  750MOL0     C 3425   0.927   2.174   5.042  0.9154  0.1625 -0.4530
  750MOL0     C 3426   0.885   2.162   5.183 -0.1326  1.1453  0.7428
  750MOL0     C 3427   0.840   2.140   5.293 -0.1033  0.6398 -1.4668
  750MOL0     C 3428   0.707   2.381   4.404  0.7766  0.0098  0.1035
  750MOL0     C 3429   0.611   2.388   4.310  0.4226 -0.7841  0.5293
  750MOL0     C 3430   0.662   2.350   4.171 -0.3560 -0.4778  0.2506
  750MOL0     H 3431   0.169   2.655   4.092  0.3871 -0.8346 -1.8645
  750MOL0     H 3432  -0.017   2.662   3.973  1.6809  0.2037  0.4261
  750MOL0     H 3433  -0.428   2.509   3.981  0.2275  1.8601 -0.3524
  750MOL0     H 3434  -0.384   2.435   4.127 -3.4404 -1.2350 -0.9529
  750MOL0     H 3435  -0.269   2.283   3.897  0.3635  3.1718 -0.5109
  750MOL0     H 3436  -0.355   2.224   4.034 -0.0392  0.1190 -1.1308
  750MOL0     H 3437  -0.512   2.188   3.864  1.1976 -0.1266 -0.8218
  750MOL0     H 3438  -0.554   2.352   3.899  1.1045  1.7608 -1.0978
  750MOL0     H 3439  -0.395   2.234   3.666  0.7886  1.3322 -0.3857
  750MOL0     H 3440  -0.553   2.327   3.672  0.0511  1.2545  0.9205
  750MOL0     H 3441  -0.287   2.457   3.721 -0.0891  0.9559 -0.4549
  750MOL0     H 3442  -0.441   2.534   3.705 -0.5214 -0.1272 -3.0382
  750MOL0     H 3443  -0.346   2.580   3.520 -2.6774  1.2591 -0.4693
  750MOL0     H 3444  -0.290   2.415   3.481 -0.2006  0.0906  0.7276
  750MOL0     H 3445  -0.566   2.553   3.471  2.6290  3.3965 -0.1498
  750MOL0     H 3446  -0.540   2.378   3.420 -1.3036 -0.6112  0.1332
  750MOL0     H 3447  -0.428   2.434   3.223 -2.2614  2.1756 -4.1421
  750MOL0     H 3448  -0.578   2.519   3.262 -0.2688  0.3870  2.2455
  750MOL0     H 3449  -0.583   2.767   3.326  0.1325 -0.9007  0.5521
  750MOL0     H 3450  -0.523   3.035   3.296  1.9217 -0.5629  2.5542
  750MOL0     H 3451  -0.456   3.032   3.129  1.3705 -2.4788 -0.4033
  750MOL0     H 3452  -0.278   3.091   3.374  1.5707  0.0513 -0.3741
  750MOL0     H 3453  -0.237   3.108   3.210 -1.9411  1.5825 -1.5860
  750MOL0     H 3454  -0.462   3.266   3.348  1.4244 -1.7525  1.6920
  750MOL0     H 3455  -0.296   3.324   3.328  1.6573 -2.4145  2.9428
  750MOL0     H 3456  -0.480   3.277   3.092  1.7280  1.1451 -0.2360
  750MOL0     H 3457  -0.438   3.428   3.155 -2.7594  0.7348 -1.2421
  750MOL0     H 3458  -0.364   3.305   2.813  0.9537 -0.0030 -2.1885
  750MOL0     H 3459  -0.420   3.514   2.570 -0.8498 -0.1688 -0.9852
  750MOL0     H 3460  -0.325   3.354   2.596  2.6955 -0.0402  0.6592
  750MOL0     H 3461  -0.241   3.489   2.535  0.8765  1.9248  0.8394
  750MOL0     H 3462   0.185   3.693   2.566  2.4801  0.5140 -0.8511
  750MOL0     H 3463   0.283   3.843   2.393 -0.4225  1.3448  0.4295
  750MOL0     H 3464   0.174   3.900   2.198  2.3304 -0.3020  0.8477
  750MOL0     H 3465   0.120   4.059   2.131  0.6110  0.9547  0.9176
  750MOL0     H 3466   0.360   4.121   2.077  2.9476 -1.7221 -2.9746
  750MOL0     H 3467   0.411   3.972   2.173  1.3869  0.2594 -1.4616
  750MOL0     H 3468   0.401   3.944   1.920 -0.5312 -1.5149 -1.2041
  750MOL0     H 3469   0.218   3.950   1.940  0.2846 -1.6385 -1.3340
  750MOL0     H 3470   0.277   3.743   2.110  1.9272 -0.5673  1.2177
  750MOL0     H 3471   0.437   3.741   2.045  1.1627 -1.5926 -2.7594
  750MOL0     H 3472   0.189   3.668   1.884  0.8667 -2.4728 -1.3088
  750MOL0     H 3473   0.332   3.743   1.803  2.0331  0.7160 -0.5608
  750MOL0     H 3474   0.473   3.586   1.896  0.4539  1.5288 -1.3178
  750MOL0     H 3475   0.362   3.506   1.784  0.1349 -0.4129  1.1973
  750MOL0     H 3476   0.218   3.421   1.965  0.8984 -1.2971  0.5102
  750MOL0     H 3477   0.327   3.485   2.084  2.4825 -1.5417  0.0116
  750MOL0     H 3478   0.397   3.260   2.046 -0.9089 -0.2622 -0.5265
  750MOL0     H 3479   0.510   3.350   1.948 -0.4285  2.6089 -1.2966
  750MOL0     H 3480  -0.002   4.138   2.457  0.2220  0.6197  1.1603
  750MOL0     H 3481  -0.102   4.012   2.630  1.2348  0.9534 -0.0811
  750MOL0     H 3482  -0.121   3.725   2.934  0.8622 -0.3182 -0.9794
  750MOL0     H 3483  -0.131   3.559   3.084  1.2633  2.3030 -0.9930
  750MOL0     H 3484  -0.179   2.311   4.181  0.0150  1.3199  3.2147
  750MOL0     H 3485   0.065   2.287   4.281 -0.1034  1.2036  0.9203
  750MOL0     H 3486   0.356   2.526   4.494 -1.0082  0.6111 -0.8403
  750MOL0     H 3487   0.520   2.482   4.675 -0.2782 -0.7627 -0.0012
  750MOL0     H 3488   0.769   2.466   4.831 -0.4033 -0.6978  1.0851
  750MOL0     H 3489   0.665   2.343   4.789  1.2035 -0.9665  0.7555
  750MOL0     H 3490   0.966   2.307   4.810  0.0436  2.3653 -1.0768
  750MOL0     H 3491   0.862   2.179   4.758 -3.1876 -1.1578  1.0016
  750MOL0     H 3492   0.801   2.342   5.020 -1.4905  0.6871 -0.3803
  750MOL0     H 3493   0.739   2.180   4.963  0.1651  0.5810  0.6080
  750MOL0     H 3494   1.022   2.227   5.030  0.4518  1.3184  0.7616
  750MOL0     H 3495   0.936   2.070   5.012 -0.4783  0.0207 -0.4256
  750MOL0     H 3496   0.792   2.126   5.388  1.3449  0.0641 -0.7897
  750MOL0     H 3497   0.803   2.346   4.368  0.6445  0.1767 -0.4176
  750MOL0     H 3498   0.613   2.414   4.097  0.7013 -2.2157 -2.0820
  750MOL0     H 3499   0.770   2.359   4.162  0.0047 -0.1229  3.6365
  750MOL0     H 3500   0.636   2.245   4.155  1.4976 -0.7127 -1.5345
  751MOL0     O 3501   7.430  11.438   0.152 -0.3684  1.3373 -0.3843
  751MOL0     C 3502   7.505  11.394   0.062  0.1588 -0.2863  0.2817
  751MOL0     O 3503   7.586  11.285   0.060 -0.1092 -0.4363 -0.6042
  751MOL0     C 3504   7.612  11.229   0.184 -0.1613  0.2778  0.3252
  751MOL0     C 3505   7.738  11.258   0.248  0.4627  0.5624  0.2513
  751MOL0     C 3506   7.770  11.202   0.373  0.4329  0.3139 -0.3195
  751MOL0     C 3507   7.672  11.132   0.448 -0.0565 -0.4144  0.1460
  751MOL0     O 3508   7.713  11.089   0.568 -0.4051  0.2435 -0.2681
  751MOL0     C 3509   7.610  11.059   0.658 -0.4993 -0.1462 -0.6601
  751MOL0     C 3510   7.614  10.908   0.703 -0.5058  0.3551 -0.5913
  751MOL0     C 3511   7.567  10.807   0.597  0.2629  0.3717 -0.0996
  751MOL0     C 3512   7.556  10.666   0.644 -0.0404 -0.4496  0.1002
  751MOL0     C 3513   7.551  10.549   0.539  0.0122 -0.6037 -0.2160
  751MOL0     C 3514   7.653  10.566   0.437 -0.3425 -0.1376  0.3067
  751MOL0     C 3515   7.667  10.438   0.367  0.7587 -0.2175 -0.0957
  751MOL0     C 3516   7.805  10.432   0.287 -0.1684  0.4174  0.4913
  751MOL0     N 3517   7.904  10.352   0.361 -0.5381 -0.4710  0.0407
  751MOL0     C 3518   7.916  10.333   0.501 -0.2004  0.7899  0.1462
  751MOL0     C 3519   8.022  10.248   0.522  0.1143 -0.3877 -0.5554
  751MOL0     C 3520   8.070  10.214   0.657  0.0765 -0.4667  0.2530
  751MOL0     C 3521   8.220  10.195   0.662 -0.1329 -0.1149 -0.6292
  751MOL0     C 3522   8.273  10.088   0.568  0.2152  0.0631 -0.1027
  751MOL0     C 3523   8.416  10.039   0.605  0.0261  0.1357 -0.4975
  751MOL0     O 3524   8.504  10.144   0.556 -0.2136  0.8858  0.0437
  751MOL0     C 3525   8.538  10.144   0.421 -0.7638  0.5364 -0.6987
  751MOL0     C 3526   8.588  10.256   0.377 -0.5839 -0.3870  0.3755
  751MOL0     C 3527   8.622  10.280   0.244 -0.4180 -0.2537 -1.1784
  751MOL0     C 3528   8.665  10.430   0.218 -1.1473 -0.1353  0.1608
  751MOL0     C 3529   8.600  10.186   0.145 -0.2384  0.3314 -0.4051
  751MOL0     C 3530   8.656  10.208   0.005  0.8467  1.2466 -0.6375
  751MOL0     O 3531   8.616  10.115  -0.085 -0.0839 -0.1130  0.3010
  751MOL0     C 3532   8.694  10.112  -0.199  0.4761  0.3349 -0.3865
  751MOL0     C 3533   8.654  10.174  -0.317  0.6930 -1.2321 -0.1522
  751MOL0     C 3534   8.742  10.185  -0.426 -0.5387 -0.0152  0.1252
  751MOL0     C 3535   8.847  10.102  -0.429 -0.1453  0.4239  0.1931
  751MOL0     O 3536   8.934  10.109  -0.537  0.6101 -0.0861 -0.2033
  751MOL0     C 3537   9.001   9.986  -0.563 -0.6177 -0.5831 -0.3211
  751MOL0     C 3538   9.025  10.008  -0.717  1.2346  0.8414 -0.0577
  751MOL0     C 3539   9.116  10.126  -0.756 -0.6047 -0.2904 -0.1233
  751MOL0     C 3540   9.081  10.162  -0.903  0.0938 -0.6001  0.2443
  751MOL0     C 3541   9.194  10.260  -0.967  0.4925  1.4070  0.1597
  751MOL0     C 3542   9.145  10.306  -1.110 -0.2409  0.4780 -0.3135
  751MOL0     C 3543   9.269  10.373  -1.166  0.3680  0.0260 -0.2359
  751MOL0     C 3544   9.251  10.397  -1.321 -0.4264  0.4139 -0.1521
  751MOL0    Cl 3545   9.103  10.481  -1.389 -0.1079 -0.6412 -0.0108
  751MOL0     C 3546   8.876  10.027  -0.319 -0.0598 -0.2588 -0.1805
  751MOL0     C 3547   8.800  10.028  -0.205 -0.0640 -0.8266  1.1920
  751MOL0     O 3548   8.742  10.292  -0.005 -0.2844  0.7547 -0.0947
  751MOL0     C 3549   8.531  10.067   0.188 -0.1897 -0.0912  0.7625
  751MOL0     C 3550   8.513  10.038   0.326 -1.0992 -0.2884  0.6744
  751MOL0     N 3551   8.061  10.211   0.392 -0.3018 -0.6177 -0.0257
  751MOL0     N 3552   7.990  10.266   0.300  0.1104 -0.0272  0.0092
  751MOL0     C 3553   7.545  11.107   0.383  0.0006 -0.4130  0.3347
  751MOL0     C 3554   7.519  11.154   0.247  0.1030 -0.6052  0.4686
  751MOL0     C 3555   7.512  11.474  -0.055  0.0903  0.3720  1.6045
  751MOL0     C 3556   7.636  11.492  -0.121 -0.0736  0.9350 -0.3766
  751MOL0     C 3557   7.643  11.567  -0.236 -0.0786 -0.3155  0.1343
  751MOL0     C 3558   7.532  11.630  -0.298  0.6599  0.1449 -1.0954
  751MOL0     O 3559   7.534  11.687  -0.427  0.6523  0.2095 -0.3189
  751MOL0     C 3560   7.662  11.690  -0.500 -0.4132 -1.0139 -0.5336
  751MOL0     C 3561   7.644  11.787  -0.619  0.5615  0.7009 -0.8969
  751MOL0     C 3562   7.768  11.847  -0.672 -0.5406 -0.0109  0.0551
  751MOL0     C 3563   7.743  11.949  -0.786 -0.3169 -0.2622 -0.1433
  751MOL0     C 3564   7.674  12.068  -0.745  0.2466  0.8826 -0.0563
  751MOL0     C 3565   7.605  12.159  -0.715 -0.2061 -0.0727  0.1033
  751MOL0     C 3566   7.405  11.604  -0.239  0.1062 -1.1076 -0.0709
  751MOL0     C 3567   7.400  11.532  -0.120  0.8442 -0.1948 -0.7119
  751MOL0     C 3568   7.259  11.504  -0.056 -0.4483 -0.7662 -0.4171
  751MOL0     H 3569   7.810  11.325   0.200  0.6607  1.7124  2.0691
  751MOL0     H 3570   7.864  11.238   0.413  2.9235 -1.1058 -4.3075
  751MOL0     H 3571   7.507  11.073   0.623 -2.4326 -3.5321  2.9657
  751MOL0     H 3572   7.622  11.121   0.746  0.9383  0.6253 -1.3676
  751MOL0     H 3573   7.718  10.899   0.737 -0.9183  0.8526  0.8659
  751MOL0     H 3574   7.546  10.888   0.787 -2.6776  0.4405 -2.2514
  751MOL0     H 3575   7.468  10.845   0.569  0.1740  1.5972  1.7600
  751MOL0     H 3576   7.641  10.814   0.516 -0.2989 -0.5435 -0.7138
  751MOL0     H 3577   7.639  10.651   0.714  0.5110 -1.0001 -0.6583
  751MOL0     H 3578   7.465  10.655   0.703 -0.3239  2.6481  0.3928
  751MOL0     H 3579   7.450  10.546   0.497 -0.5390 -0.1686  1.0122
  751MOL0     H 3580   7.572  10.465   0.605 -3.4241 -0.6032  1.0629
  751MOL0     H 3581   7.618  10.644   0.369 -1.2415  0.3239  1.2640
  751MOL0     H 3582   7.751  10.595   0.475  0.4008 -1.8262 -0.2371
  751MOL0     H 3583   7.587  10.435   0.293  1.3681  1.3898 -0.8619
  751MOL0     H 3584   7.659  10.348   0.429 -0.0697  0.5328  0.9168
  751MOL0     H 3585   7.794  10.376   0.194 -1.9795  0.2107  0.8100
  751MOL0     H 3586   7.846  10.528   0.255  0.8081 -0.3823 -0.7933
  751MOL0     H 3587   7.862  10.385   0.579 -0.8348  1.0248 -0.4460
  751MOL0     H 3588   8.009  10.131   0.695 -0.2613 -0.3734 -0.0907
  751MOL0     H 3589   8.051  10.298   0.725 -0.6502  0.7868 -1.4351
  751MOL0     H 3590   8.277  10.285   0.637 -0.2139 -0.6039 -2.7994
  751MOL0     H 3591   8.236  10.182   0.769  2.2006  2.4312 -0.5552
  751MOL0     H 3592   8.212   9.998   0.583  2.0719 -1.3423 -0.5248
  751MOL0     H 3593   8.266  10.134   0.469  3.6788  1.9591  0.3668
  751MOL0     H 3594   8.425  10.009   0.710 -0.7926  0.5793 -0.2950
  751MOL0     H 3595   8.441   9.946   0.553  1.2417 -0.7569  1.5407
  751MOL0     H 3596   8.606  10.335   0.449  0.9838 -0.8886  0.5602
  751MOL0     H 3597   8.773  10.443   0.213 -1.1827 -0.3357 -2.0602
  751MOL0     H 3598   8.614  10.497   0.288 -0.6039  0.2662  0.1737
  751MOL0     H 3599   8.634  10.470   0.121  1.8998 -2.5685 -2.0169
  751MOL0     H 3600   8.570  10.243  -0.317  0.8367 -1.0577 -0.5129
  751MOL0     H 3601   8.723  10.258  -0.504 -0.7158  0.9411  1.0401
  751MOL0     H 3602   9.098   9.975  -0.513 -1.2978 -3.4345  0.5855
  751MOL0     H 3603   8.939   9.897  -0.551  0.2686 -0.9036  2.8910
  751MOL0     H 3604   9.080   9.919  -0.748  0.8705  0.1198  1.2861
  751MOL0     H 3605   8.930  10.004  -0.771  0.7005 -3.8859  0.7875
  751MOL0     H 3606   9.222  10.102  -0.746 -0.1775  0.2349 -2.6457
  751MOL0     H 3607   9.103  10.215  -0.695  0.3919  0.6928 -1.2839
  751MOL0     H 3608   8.984  10.212  -0.903  0.5987  0.4314 -1.1920
  751MOL0     H 3609   9.066  10.075  -0.967  0.0895  0.6990 -1.5884
  751MOL0     H 3610   9.197  10.342  -0.894  2.8258  1.6346 -0.1318
  751MOL0     H 3611   9.294  10.218  -0.960 -0.5135 -1.1469  0.2425
  751MOL0     H 3612   9.075  10.387  -1.094  0.6067  1.2615 -0.4969
  751MOL0     H 3613   9.104  10.237  -1.184  1.6581  1.1731 -2.1168
  751MOL0     H 3614   9.360  10.314  -1.157  0.8673  0.7282 -0.6177
  751MOL0     H 3615   9.282  10.467  -1.112 -3.0141  1.6730 -1.9460
  751MOL0     H 3616   9.261  10.301  -1.373 -1.0179 -0.8797  1.9774
  751MOL0     H 3617   9.334  10.464  -1.344 -2.0796  2.2536 -0.9290
  751MOL0     H 3618   8.970   9.972  -0.320  1.4874  2.1816 -1.8435
  751MOL0     H 3619   8.835   9.973  -0.118  1.7156 -1.7748 -0.0704
  751MOL0     H 3620   8.480  10.001   0.119 -1.2327  0.9424  0.5173
  751MOL0     H 3621   8.469   9.943   0.354 -0.2985 -2.0034 -3.1903
  751MOL0     H 3622   7.468  11.049   0.433 -0.3943  0.5804  0.9106
  751MOL0     H 3623   7.430  11.118   0.197 -1.0120 -1.6931  3.0478
  751MOL0     H 3624   7.729  11.451  -0.081 -0.5339  0.4195  0.1717
  751MOL0     H 3625   7.746  11.571  -0.269  0.6325  0.1955  2.2870
  751MOL0     H 3626   7.752  11.709  -0.440 -0.9526 -1.5438  0.4699
  751MOL0     H 3627   7.675  11.591  -0.544  3.8881  0.7185 -3.9323
  751MOL0     H 3628   7.581  11.872  -0.593  4.3822  3.0267  1.7781
  751MOL0     H 3629   7.595  11.722  -0.692  3.4693 -2.2531 -0.4732
  751MOL0     H 3630   7.820  11.903  -0.593 -0.9656 -0.6243  0.7794
  751MOL0     H 3631   7.834  11.767  -0.708 -0.5189 -0.1274  0.3548
  751MOL0     H 3632   7.682  11.897  -0.861 -0.1900 -0.8001  0.1235
  751MOL0     H 3633   7.841  11.981  -0.822  0.4975 -2.3188  0.0893
  751MOL0     H 3634   7.527  12.228  -0.689 -2.2949 -0.7997 -3.4753
  751MOL0     H 3635   7.320  11.649  -0.288 -0.6268  1.3730  3.1680
  751MOL0     H 3636   7.230  11.401  -0.033  0.9121 -0.8010  1.2503
  751MOL0     H 3637   7.242  11.552   0.041 -3.5737 -1.0090 -0.7331
  751MOL0     H 3638   7.179  11.548  -0.118 -1.5647 -1.8286  0.2215
  752MOL0     O 3639   3.667   3.935   8.566 -0.3198  0.0954 -0.1742
  752MOL0     C 3640   3.627   3.981   8.671 -0.1424 -0.2557  0.4050
  752MOL0     O 3641   3.661   3.929   8.791  0.3786 -0.7026 -0.1698
  752MOL0     C 3642   3.758   3.834   8.812 -0.1918  0.2729  0.0554
  752MOL0     C 3643   3.744   3.767   8.931 -0.3388 -0.5974  0.1969
  752MOL0     C 3644   3.831   3.664   8.968 -0.1236  0.2079 -0.0157
  752MOL0     C 3645   3.937   3.626   8.892  0.2937  0.7146  1.2103
  752MOL0     O 3646   4.030   3.545   8.946 -0.1763 -0.6419  0.0074
  752MOL0     C 3647   4.133   3.489   8.861  0.1394 -0.1409  0.1499
  752MOL0     C 3648   4.200   3.370   8.937 -0.2093  0.5766 -0.3258
  752MOL0     C 3649   4.251   3.405   9.083 -0.7300 -1.3526 -0.8108
  752MOL0     C 3650   4.285   3.279   9.160  0.3868  0.2593  0.8301
  752MOL0     C 3651   4.297   3.318   9.304 -0.5980  0.9657 -1.2393
  752MOL0     C 3652   4.185   3.269   9.393  0.1886  0.0454 -0.0433
  752MOL0     C 3653   4.048   3.314   9.349  0.2979  0.1210 -0.1048
  752MOL0     C 3654   3.960   3.357   9.458 -0.0782 -0.1630 -0.1850
  752MOL0     N 3655   3.826   3.410   9.403  0.1747 -0.7741 -0.0870
  752MOL0     C 3656   3.738   3.341   9.328 -0.4284 -0.2337 -0.3157
  752MOL0     C 3657   3.652   3.437   9.280 -0.1474  0.1057 -0.1317
  752MOL0     C 3658   3.527   3.406   9.206 -0.0871 -0.5659  0.3597
  752MOL0     C 3659   3.420   3.511   9.224 -0.1337  0.3172  0.0415
  752MOL0     C 3660   3.311   3.501   9.114  0.3251  0.0896  1.1585
  752MOL0     C 3661   3.343   3.577   8.979  0.5038 -0.5537  0.0244
  752MOL0     O 3662   3.392   3.713   8.997 -0.0798  0.4868  0.0474
  752MOL0     C 3663   3.314   3.823   9.023  0.4458 -0.0767 -0.0507
  752MOL0     C 3664   3.174   3.833   9.018  0.5601  0.2403  0.1765
  752MOL0     C 3665   3.106   3.964   9.035  0.9812 -0.5336 -0.1891
  752MOL0     C 3666   2.956   3.965   9.018 -0.1000 -0.4857  0.4678
  752MOL0     C 3667   3.183   4.073   9.071 -0.0735 -0.6433 -0.9343
  752MOL0     C 3668   3.133   4.210   9.106 -0.3635  0.7926 -0.6135
  752MOL0     O 3669   3.217   4.293   9.166 -0.4115 -0.8208  0.1696
  752MOL0     C 3670   3.187   4.426   9.184 -0.0551 -0.3605 -0.1438
  752MOL0     C 3671   3.120   4.466   9.304  0.3784 -0.2294  0.4490
  752MOL0     C 3672   3.122   4.602   9.335  0.5146  0.3930 -0.9686
  752MOL0     C 3673   3.180   4.700   9.255  0.2006 -0.2926  0.6880
  752MOL0     O 3674   3.179   4.834   9.288  0.6034 -0.1431 -0.2532
  752MOL0     C 3675   3.135   4.881   9.417  0.5975 -0.9104 -0.0719
  752MOL0     C 3676   3.122   5.034   9.416 -0.3103 -0.7946  0.3406
  752MOL0     C 3677   3.259   5.099   9.391  0.7362 -0.9066  0.1625
  752MOL0     C 3678   3.243   5.255   9.350 -0.4460  0.1788  0.4874
  752MOL0     C 3679   3.379   5.317   9.325  0.0401  0.1879  0.5663
  752MOL0     C 3680   3.363   5.445   9.240  0.9541 -0.1579  0.2390
  752MOL0     C 3681   3.288   5.555   9.321 -0.4117 -0.1258  0.7928
  752MOL0     C 3682   3.287   5.684   9.238  0.3417 -0.5498  0.3383
  752MOL0    Cl 3683   3.186   5.669   9.087 -0.0579  0.0667 -0.0746
  752MOL0     C 3684   3.244   4.658   9.139  0.2312  0.0014 -0.3624
  752MOL0     C 3685   3.250   4.521   9.104 -0.6101 -0.4658 -0.1938
  752MOL0     O 3686   3.021   4.241   9.074 -0.6464  0.0751 -0.0500
  752MOL0     C 3687   3.325   4.056   9.079 -0.1466  0.3113  0.3815
  752MOL0     C 3688   3.384   3.935   9.053  0.0924  0.4519  0.7227
  752MOL0     N 3689   3.682   3.553   9.341 -0.2284 -0.6561  0.3859
  752MOL0     N 3690   3.786   3.537   9.410  0.0031 -0.7229 -0.3127
  752MOL0     C 3691   3.957   3.694   8.769  0.2643 -0.6472  0.1460
  752MOL0     C 3692   3.866   3.798   8.728  0.3786  0.1977  0.2005
  752MOL0     C 3693   3.545   4.104   8.662 -0.2655 -0.3557  0.1925
  752MOL0     C 3694   3.481   4.131   8.785 -0.0098 -0.8638  0.6894
  752MOL0     C 3695   3.393   4.240   8.798  0.4955  0.9211 -0.2371
  752MOL0     C 3696   3.356   4.317   8.686  0.6012 -0.0913  0.5755
  752MOL0     O 3697   3.270   4.422   8.702  0.0444  0.1075  1.0397
  752MOL0     C 3698   3.137   4.387   8.750  0.4249  0.5764  0.2385
  752MOL0     C 3699   3.026   4.481   8.708  0.0751  0.3846  0.2918
  752MOL0     C 3700   3.042   4.617   8.767  0.2805 -0.1124 -0.1872
  752MOL0     C 3701   3.180   4.678   8.756 -0.3259 -0.0118 -0.5168
  752MOL0     C 3702   3.190   4.825   8.778 -0.0495  0.0085  0.0369
  752MOL0     C 3703   3.224   4.936   8.798 -0.1310 -0.7090 -0.5916
  752MOL0     C 3704   3.425   4.295   8.559 -0.4917  0.2206  0.0693
  752MOL0     C 3705   3.530   4.193   8.551  0.0746 -0.5443  0.8273
  752MOL0     C 3706   3.609   4.187   8.420 -0.0867  0.0057  0.0908
  752MOL0     H 3707   3.667   3.796   9.002  2.0673  1.2865  2.2161
  752MOL0     H 3708   3.833   3.620   9.067 -0.3022 -0.6111 -0.3729
  752MOL0     H 3709   4.203   3.568   8.833  0.2323 -0.2655  0.0298
  752MOL0     H 3710   4.087   3.454   8.768  2.1796 -0.5449 -0.7492
  752MOL0     H 3711   4.126   3.291   8.951 -1.7115  1.8405 -0.8945
  752MOL0     H 3712   4.273   3.327   8.868 -2.5645 -1.1283 -1.9234
  752MOL0     H 3713   4.344   3.461   9.068 -1.6003  0.1626 -0.7789
  752MOL0     H 3714   4.190   3.484   9.127 -1.9679 -2.1878 -0.9884
  752MOL0     H 3715   4.217   3.196   9.140  1.0737  0.5832 -4.2350
  752MOL0     H 3716   4.386   3.253   9.128 -0.1037 -0.1761 -0.4379
  752MOL0     H 3717   4.308   3.427   9.313  2.0709  0.5681  2.0058
  752MOL0     H 3718   4.393   3.294   9.349 -2.0087 -0.0521  1.4713
  752MOL0     H 3719   4.201   3.161   9.385  1.7047  0.1447  1.2058
  752MOL0     H 3720   4.212   3.290   9.497 -0.5513 -1.1962  0.4126
  752MOL0     H 3721   3.998   3.230   9.301 -1.0551  0.5367  0.5250
  752MOL0     H 3722   4.055   3.395   9.276 -1.8715 -1.3499 -2.0811
  752MOL0     H 3723   3.949   3.270   9.523  4.1622 -0.4671  0.3892
  752MOL0     H 3724   4.007   3.436   9.518 -1.4032 -0.1551  0.8896
  752MOL0     H 3725   3.722   3.233   9.319  2.5255 -0.6322 -1.9923
  752MOL0     H 3726   3.490   3.309   9.240  1.4535 -1.1848  0.3842
  752MOL0     H 3727   3.560   3.399   9.101  1.2105  0.6360  0.6559
  752MOL0     H 3728   3.362   3.506   9.317 -1.1699  0.3709 -0.5790
  752MOL0     H 3729   3.470   3.607   9.214  0.6243 -0.1796 -1.1851
  752MOL0     H 3730   3.308   3.394   9.090 -0.3029  0.3786 -0.1721
  752MOL0     H 3731   3.214   3.531   9.154 -0.2165 -1.5903  1.1936
  752MOL0     H 3732   3.421   3.534   8.916 -2.0980 -2.9459 -1.8580
  752MOL0     H 3733   3.253   3.578   8.916  1.0977 -1.8646 -0.8936
  752MOL0     H 3734   3.122   3.745   8.982  0.8291  0.4286 -0.7025
  752MOL0     H 3735   2.914   3.867   8.995 -0.0114 -0.7133  1.2495
  752MOL0     H 3736   2.925   4.033   8.939 -0.8621 -0.9466  0.3596
  752MOL0     H 3737   2.911   4.001   9.112  2.2791  0.9688  1.1437
  752MOL0     H 3738   3.082   4.386   9.368  3.7936 -3.7151 -1.4375
  752MOL0     H 3739   3.071   4.619   9.430  2.2596  0.7042 -0.0590
  752MOL0     H 3740   3.035   4.843   9.442  0.9638 -1.0926  1.1637
  752MOL0     H 3741   3.189   4.850   9.507  0.5037 -1.0528 -0.0636
  752MOL0     H 3742   3.058   5.067   9.333  0.1758 -4.0947 -1.5545
  752MOL0     H 3743   3.079   5.073   9.509 -1.5655  0.3224 -0.6612
  752MOL0     H 3744   3.311   5.055   9.306 -2.2189  1.4990 -3.2041
  752MOL0     H 3745   3.319   5.096   9.482 -2.4699  0.8662  2.5328
  752MOL0     H 3746   3.188   5.312   9.426  0.4025 -0.1109  1.3356
  752MOL0     H 3747   3.185   5.263   9.258 -1.8553 -1.3018  1.1980
  752MOL0     H 3748   3.427   5.328   9.423 -1.3003 -0.8197  1.3807
  752MOL0     H 3749   3.440   5.248   9.267 -3.3283 -1.5534 -1.1894
  752MOL0     H 3750   3.311   5.419   9.147  1.7896 -3.9676  0.6593
  752MOL0     H 3751   3.462   5.478   9.207  1.4257 -1.0819  0.6810
  752MOL0     H 3752   3.329   5.568   9.421  1.9424  2.6291 -0.4064
  752MOL0     H 3753   3.184   5.520   9.327 -0.1133 -0.8257  2.4027
  752MOL0     H 3754   3.392   5.707   9.219  0.4264  0.3174  1.7272
  752MOL0     H 3755   3.243   5.765   9.296 -2.6300 -0.4745 -1.8083
  752MOL0     H 3756   3.290   4.734   9.077  1.1982 -1.3517 -1.3697
  752MOL0     H 3757   3.297   4.479   9.015 -3.2921  1.4592 -2.7314
  752MOL0     H 3758   3.398   4.135   9.098  1.5963 -1.0071 -0.5791
  752MOL0     H 3759   3.489   3.910   9.065 -1.0519 -5.2245  1.8895
  752MOL0     H 3760   4.043   3.682   8.704  0.8397 -0.0956  0.7883
  752MOL0     H 3761   3.889   3.847   8.634  3.2899  1.4977  1.4671
  752MOL0     H 3762   3.493   4.070   8.874 -1.4099 -0.4325  1.2089
  752MOL0     H 3763   3.355   4.258   8.898  0.4493 -0.1774 -0.0469
  752MOL0     H 3764   3.113   4.284   8.723  2.5121  0.2856 -0.7991
  752MOL0     H 3765   3.143   4.381   8.859 -0.3890  0.5558  0.2890
  752MOL0     H 3766   2.935   4.437   8.748  0.0473 -1.3845 -1.5192
  752MOL0     H 3767   3.020   4.482   8.598 -0.2070  3.1019  0.2707
  752MOL0     H 3768   2.970   4.687   8.724  1.0724  1.9566  1.7073
  752MOL0     H 3769   3.017   4.613   8.873  1.3877  0.1786  0.0978
  752MOL0     H 3770   3.225   4.665   8.657 -0.1002 -2.3753 -0.1450
  752MOL0     H 3771   3.250   4.636   8.829 -0.6028 -2.4820 -1.5911
  752MOL0     H 3772   3.249   5.039   8.808 -1.9069 -0.1574 -1.5050
  752MOL0     H 3773   3.407   4.368   8.481  0.2936  1.0110  0.6126
  752MOL0     H 3774   3.565   4.113   8.352  1.9116 -0.4152 -0.8094
  752MOL0     H 3775   3.600   4.285   8.373  1.9141 -0.1344 -0.6753
  752MOL0     H 3776   3.715   4.160   8.431 -0.5753 -1.5350  1.4667
  753MOL0     O 3777   2.875   2.097   5.748 -0.4076  0.7148 -0.0097
  753MOL0     C 3778   2.915   2.059   5.856  0.9173 -0.0900 -0.9482
  753MOL0     O 3779   2.840   1.983   5.943 -0.5367 -0.0220  0.2825
  753MOL0     C 3780   2.701   1.980   5.933  0.2414 -0.1700  0.7173
  753MOL0     C 3781   2.636   1.927   5.821 -0.1349 -0.4306  0.3919
  753MOL0     C 3782   2.500   1.911   5.817 -0.4780 -0.1035  0.6575
  753MOL0     C 3783   2.423   1.953   5.916 -0.1824 -0.3579 -0.3529
  753MOL0     O 3784   2.292   1.930   5.908 -0.2824 -0.0078 -0.1719
  753MOL0     C 3785   2.241   1.833   5.995 -0.4446  0.7564 -0.4978
  753MOL0     C 3786   2.132   1.741   5.935 -1.2230 -0.2838 -0.4894
  753MOL0     C 3787   2.006   1.822   5.918 -0.4468  0.3431 -0.4105
  753MOL0     C 3788   1.888   1.721   5.907 -0.0687  0.4184 -0.5060
  753MOL0     C 3789   1.879   1.658   5.776  0.7875 -0.5339 -0.1169
  753MOL0     C 3790   1.771   1.549   5.793  0.6289  0.1136  0.3463
  753MOL0     C 3791   1.755   1.471   5.662 -0.3670  0.1042 -0.3104
  753MOL0     C 3792   1.607   1.418   5.640 -0.2844 -0.1203 -0.0933
  753MOL0     N 3793   1.537   1.488   5.530 -0.1795  0.2876 -0.3087
  753MOL0     C 3794   1.562   1.471   5.399 -0.0335 -0.4431 -0.1309
  753MOL0     C 3795   1.459   1.540   5.335 -0.2061 -0.5162  0.0602
  753MOL0     C 3796   1.438   1.558   5.182 -0.4179 -0.3829  0.4487
  753MOL0     C 3797   1.441   1.427   5.099 -0.6486 -0.0310 -0.4836
  753MOL0     C 3798   1.313   1.343   5.107  0.3344  0.9886  0.8377
  753MOL0     C 3799   1.250   1.334   4.971 -0.2030 -0.1572 -0.0049
  753MOL0     O 3800   1.256   1.460   4.906  0.1166  1.3148 -0.2609
  753MOL0     C 3801   1.285   1.461   4.769  0.7150  0.6870 -1.0837
  753MOL0     C 3802   1.368   1.573   4.735  0.1248  0.5536  0.6369
  753MOL0     C 3803   1.407   1.579   4.600  0.3928 -0.2783 -0.2916
  753MOL0     C 3804   1.473   1.698   4.550 -1.3612 -0.5460  0.0901
  753MOL0     C 3805   1.367   1.474   4.512  0.2597 -0.2270  0.6891
  753MOL0     C 3806   1.418   1.470   4.374 -0.8773  0.5835 -1.4853
  753MOL0     O 3807   1.554   1.447   4.367  0.3742 -0.3647 -0.3529
  753MOL0     C 3808   1.599   1.397   4.251 -0.2928 -0.0894  0.2384
  753MOL0     C 3809   1.549   1.289   4.178 -0.2529 -0.0939 -0.0577
  753MOL0     C 3810   1.622   1.223   4.078 -0.2004 -0.2411 -0.2380
  753MOL0     C 3811   1.750   1.278   4.038  0.2311  0.0854  1.0278
  753MOL0     O 3812   1.816   1.218   3.938 -0.7302  1.0072  0.8242
  753MOL0     C 3813   1.731   1.169   3.841 -0.1854 -0.3053  0.1472
  753MOL0     C 3814   1.799   1.135   3.705  0.0303  0.1503 -0.1895
  753MOL0     C 3815   1.698   1.092   3.605  1.0350  0.0884  0.1951
  753MOL0     C 3816   1.778   1.060   3.477 -0.2195 -0.8708 -0.0082
  753MOL0     C 3817   1.707   0.960   3.379  0.4482 -0.0979 -0.3547
  753MOL0     C 3818   1.617   1.028   3.272  0.2359 -0.0429 -0.1112
  753MOL0     C 3819   1.477   1.067   3.327 -0.9543 -0.3293  0.2358
  753MOL0     C 3820   1.398   1.126   3.208 -0.1065 -0.3725  0.1146
  753MOL0    Cl 3821   1.477   1.280   3.165 -0.1573  0.4799  0.1089
  753MOL0     C 3822   1.793   1.397   4.102 -0.7918  0.6273 -0.1857
  753MOL0     C 3823   1.720   1.446   4.206  0.9186 -0.4798  0.4676
  753MOL0     O 3824   1.336   1.456   4.283 -0.1509 -0.1603 -0.2360
  753MOL0     C 3825   1.278   1.376   4.552  0.6023  0.7245  0.4026
  753MOL0     C 3826   1.228   1.368   4.681  0.2770  0.1782 -0.8886
  753MOL0     N 3827   1.401   1.623   5.425  0.8198 -0.0907 -0.1876
  753MOL0     N 3828   1.446   1.585   5.540  0.2179  0.0706  0.2124
  753MOL0     C 3829   2.490   2.017   6.032  0.0232  0.5721 -0.0524
  753MOL0     C 3830   2.628   2.025   6.038  1.9364  0.1745  0.0217
  753MOL0     C 3831   3.059   2.092   5.902  0.3033 -0.0658  0.3706
  753MOL0     C 3832   3.124   2.192   5.823  0.1345 -0.4968 -0.3632
  753MOL0     C 3833   3.266   2.217   5.846  0.3649 -0.7378 -0.5215
  753MOL0     C 3834   3.337   2.156   5.949 -0.0162  0.0015 -0.0407
  753MOL0     O 3835   3.469   2.188   5.951 -0.4886 -0.2336  0.1964
  753MOL0     C 3836   3.513   2.244   6.071 -0.0611 -0.2668  0.9965
  753MOL0     C 3837   3.428   2.374   6.126 -0.2515 -0.4064 -0.2382
  753MOL0     C 3838   3.410   2.496   6.039  0.1584  0.0183 -0.1771
  753MOL0     C 3839   3.416   2.642   6.091 -0.5626  0.2304 -0.1760
  753MOL0     C 3840   3.313   2.682   6.183  0.3171  0.3649  0.2839
  753MOL0     C 3841   3.225   2.710   6.262  0.1989  0.0323 -0.1724
  753MOL0     C 3842   3.265   2.058   6.022 -1.1743  0.9668  1.7286
  753MOL0     C 3843   3.126   2.026   6.001 -1.4657  1.4528  0.5417
  753MOL0     C 3844   3.062   1.919   6.088 -1.0573 -0.3427 -0.4192
  753MOL0     H 3845   2.686   1.898   5.729 -2.2666  2.9488 -2.1052
  753MOL0     H 3846   2.463   1.856   5.731 -1.3482 -3.9271  3.2435
  753MOL0     H 3847   2.198   1.882   6.082 -1.5421 -0.9057 -0.0572
  753MOL0     H 3848   2.318   1.764   6.029  0.6338  2.0813 -0.1690
  753MOL0     H 3849   2.160   1.693   5.841  0.8213  0.2238 -0.1764
  753MOL0     H 3850   2.116   1.658   6.005  2.6403  0.2016  1.2009
  753MOL0     H 3851   1.988   1.894   5.999  1.7724  2.4982 -1.7099
  753MOL0     H 3852   2.019   1.880   5.826  2.7966  1.4194  0.5815
  753MOL0     H 3853   1.898   1.654   5.993 -2.1212  1.1993  0.4025
  753MOL0     H 3854   1.792   1.772   5.913 -0.9414 -1.1650 -0.4806
  753MOL0     H 3855   1.971   1.610   5.742  0.7942 -0.8071  0.2901
  753MOL0     H 3856   1.861   1.740   5.706 -0.4229  1.3398  2.2455
  753MOL0     H 3857   1.798   1.483   5.875  3.7155  1.0155  0.2213
  753MOL0     H 3858   1.679   1.607   5.799 -0.7807 -1.9682 -0.2512
  753MOL0     H 3859   1.826   1.393   5.693  0.5302 -0.5018 -3.5151
  753MOL0     H 3860   1.796   1.520   5.573  1.1513  0.8985  0.7704
  753MOL0     H 3861   1.623   1.313   5.615  2.5042  1.0931 -4.4618
  753MOL0     H 3862   1.547   1.444   5.728 -0.1340  2.5615 -0.6898
  753MOL0     H 3863   1.644   1.409   5.363  1.0078  0.9792 -0.3143
  753MOL0     H 3864   1.515   1.625   5.141  2.4769 -4.0716 -0.6455
  753MOL0     H 3865   1.344   1.614   5.173 -0.3645 -0.5975 -3.2319
  753MOL0     H 3866   1.487   1.451   5.003  1.4994  0.0631  0.5084
  753MOL0     H 3867   1.512   1.352   5.138  0.3822  2.4828  2.9814
  753MOL0     H 3868   1.342   1.238   5.121  4.1685  1.3988 -2.3193
  753MOL0     H 3869   1.255   1.387   5.188  1.4600  0.9127  1.7215
  753MOL0     H 3870   1.288   1.247   4.916 -1.5567 -1.6465  1.3135
  753MOL0     H 3871   1.144   1.308   4.977 -0.1564 -0.2495  0.4814
  753MOL0     H 3872   1.388   1.652   4.807 -0.7759  0.1517  1.3469
  753MOL0     H 3873   1.423   1.733   4.459  0.9531  0.2073 -0.9550
  753MOL0     H 3874   1.580   1.685   4.536 -1.5440 -2.8364  0.5901
  753MOL0     H 3875   1.460   1.778   4.623 -2.6500  1.6228 -2.3263
  753MOL0     H 3876   1.456   1.240   4.208  0.0661 -1.8863 -1.7829
  753MOL0     H 3877   1.571   1.136   4.038 -0.8384  0.1839 -0.3562
  753MOL0     H 3878   1.693   1.070   3.868 -0.9031 -0.5568 -1.6333
  753MOL0     H 3879   1.658   1.244   3.810 -1.2863 -1.6873 -0.7875
  753MOL0     H 3880   1.856   1.221   3.668 -0.5670  0.0991 -1.2620
  753MOL0     H 3881   1.872   1.056   3.724  1.9716  1.6283 -1.1670
  753MOL0     H 3882   1.624   1.170   3.584  0.2005 -0.2315  1.7706
  753MOL0     H 3883   1.635   1.013   3.648  0.1980  1.4871  1.6684
  753MOL0     H 3884   1.875   1.015   3.498 -0.0946 -0.2414  0.8099
  753MOL0     H 3885   1.812   1.149   3.425 -0.3956 -0.9861 -0.3236
  753MOL0     H 3886   1.784   0.903   3.327  0.3811  0.7834 -1.4556
  753MOL0     H 3887   1.658   0.875   3.428 -1.4563 -0.5417 -2.8378
  753MOL0     H 3888   1.600   0.947   3.201  1.3711  0.1911 -0.6685
  753MOL0     H 3889   1.666   1.110   3.220  1.3647 -0.8536 -0.3463
  753MOL0     H 3890   1.498   1.145   3.401  3.6133  0.3773 -1.4563
  753MOL0     H 3891   1.430   0.983   3.378 -0.6065  1.5383  3.9905
  753MOL0     H 3892   1.291   1.125   3.232  0.3657  0.1781  2.4681
  753MOL0     H 3893   1.406   1.063   3.118 -0.0624  0.2757 -0.3388
  753MOL0     H 3894   1.884   1.452   4.079 -1.2396  1.1977 -0.5917
  753MOL0     H 3895   1.747   1.547   4.237 -1.4748  0.2707  0.3041
  753MOL0     H 3896   1.231   1.311   4.479  0.0185 -1.3595  2.5007
  753MOL0     H 3897   1.164   1.285   4.711  1.0338  0.1534  0.7715
  753MOL0     H 3898   2.430   2.044   6.118  0.5334  1.4618  0.0463
  753MOL0     H 3899   2.679   2.059   6.128  0.8884  0.9923  0.3369
  753MOL0     H 3900   3.074   2.260   5.755 -2.2744  1.2837  2.9021
  753MOL0     H 3901   3.320   2.299   5.800 -0.2401  1.3507  2.2186
  753MOL0     H 3902   3.520   2.169   6.150 -0.0067 -0.1498  1.1021
  753MOL0     H 3903   3.621   2.261   6.060 -0.0263  0.0609  1.8291
  753MOL0     H 3904   3.484   2.409   6.213 -0.6462 -2.3961  0.8822
  753MOL0     H 3905   3.331   2.341   6.164 -0.6505  0.3421 -0.5991
  753MOL0     H 3906   3.471   2.487   5.949 -1.3133 -0.1999 -1.1975
  753MOL0     H 3907   3.306   2.494   6.004  0.3997 -3.7665 -1.0148
  753MOL0     H 3908   3.405   2.705   6.003 -0.5624 -0.4190 -0.6538
  753MOL0     H 3909   3.513   2.654   6.141 -1.7965 -1.6718  3.0242
  753MOL0     H 3910   3.142   2.739   6.323 -1.1811  3.0658 -3.1753
  753MOL0     H 3911   3.319   1.992   6.089  2.2332 -0.2022 -1.7578
  753MOL0     H 3912   3.040   1.836   6.021  1.8411  0.4944 -2.6535
  753MOL0     H 3913   3.139   1.895   6.163  0.0421  4.5764  0.4294
  753MOL0     H 3914   2.977   1.960   6.142 -0.3954  0.1936  0.2381
  754MOL0     O 3915   1.129   6.418   2.626 -0.7415 -0.0409  0.3079
  754MOL0     C 3916   1.184   6.347   2.539  0.0194 -0.8217  0.0370
  754MOL0     O 3917   1.319   6.338   2.510 -0.4581 -0.7221 -0.1065
  754MOL0     C 3918   1.411   6.429   2.553  0.0284  0.6782  1.0987
  754MOL0     C 3919   1.389   6.570   2.552 -0.9686  0.3578 -0.1638
  754MOL0     C 3920   1.482   6.668   2.601  0.2503  0.8075  0.2842
  754MOL0     C 3921   1.606   6.623   2.642  0.7454  0.4523 -0.8198
  754MOL0     O 3922   1.716   6.702   2.673 -0.0405 -0.2006 -0.2364
  754MOL0     C 3923   1.720   6.838   2.634  0.3435  0.8006 -0.1219
  754MOL0     C 3924   1.812   6.910   2.736 -0.1673 -0.4147  0.0199
  754MOL0     C 3925   1.850   7.046   2.684  0.4594 -1.2550 -0.5144
  754MOL0     C 3926   1.930   7.144   2.783  0.2386  0.2152  0.2459
  754MOL0     C 3927   2.081   7.093   2.799 -0.2468  0.7248 -0.4559
  754MOL0     C 3928   2.181   7.183   2.872 -0.4968 -0.1921 -0.2586
  754MOL0     C 3929   2.171   7.190   3.023  0.0053  0.0818 -0.1551
  754MOL0     C 3930   2.168   7.060   3.102 -0.2891  0.0632 -0.0169
  754MOL0     N 3931   2.297   6.997   3.094  0.0474  0.4519 -0.4577
  754MOL0     C 3932   2.418   7.057   3.117 -0.0579 -0.5529 -1.1019
  754MOL0     C 3933   2.505   6.959   3.105 -0.4296  0.1289 -0.6869
  754MOL0     C 3934   2.661   6.961   3.109  0.4249 -0.4601 -0.6133
  754MOL0     C 3935   2.716   7.003   2.964  0.2376  0.0603  0.0655
  754MOL0     C 3936   2.750   6.868   2.884 -0.1974  0.1921  0.1603
  754MOL0     C 3937   2.802   6.878   2.739  1.0529 -0.1174  0.7760
  754MOL0     O 3938   2.730   6.989   2.680  0.3989  0.8724 -0.5486
  754MOL0     C 3939   2.738   7.059   2.564  0.3389  0.6763  1.1364
  754MOL0     C 3940   2.652   7.162   2.550 -0.7599  0.3824 -0.2712
  754MOL0     C 3941   2.658   7.235   2.428  0.3930  0.4117  0.5499
  754MOL0     C 3942   2.584   7.366   2.419  0.2347 -0.1144 -0.1548
  754MOL0     C 3943   2.744   7.192   2.316  0.3158  0.1130 -0.4363
  754MOL0     C 3944   2.726   7.247   2.174  0.0265 -1.5469 -0.5806
  754MOL0     O 3945   2.769   7.156   2.089 -0.1531  0.4930  0.6802
  754MOL0     C 3946   2.737   7.178   1.967 -0.1958 -0.3367  1.2877
  754MOL0     C 3947   2.794   7.284   1.900  0.5517  1.2393 -0.4133
  754MOL0     C 3948   2.758   7.303   1.767 -0.7838  0.6709 -0.5719
  754MOL0     C 3949   2.666   7.231   1.703 -0.8097 -0.2644 -0.1097
  754MOL0     O 3950   2.640   7.270   1.576 -0.2727  0.0460  0.6907
  754MOL0     C 3951   2.521   7.216   1.520 -1.5433 -0.5553  1.1536
  754MOL0     C 3952   2.471   7.309   1.412  0.1769 -0.1124 -0.6227
  754MOL0     C 3953   2.573   7.394   1.345 -0.1142 -0.7025  0.6972
  754MOL0     C 3954   2.520   7.455   1.225 -0.5106 -0.2527 -0.9714
  754MOL0     C 3955   2.604   7.562   1.163 -0.0497 -0.2720 -0.4162
  754MOL0     C 3956   2.720   7.512   1.072  0.9398 -0.3580  0.4866
  754MOL0     C 3957   2.783   7.630   0.988 -0.4959  0.2160 -0.2429
  754MOL0     C 3958   2.895   7.579   0.893  0.6160 -0.0314  0.3946
  754MOL0    Cl 3959   2.908   7.693   0.761 -0.0810 -0.0617  0.4159
  754MOL0     C 3960   2.612   7.112   1.768  0.3052  0.6553 -0.6037
  754MOL0     C 3961   2.650   7.080   1.902  0.8633  0.6757  0.3504
  754MOL0     O 3962   2.692   7.361   2.151 -0.6187 -0.2052 -0.6209
  754MOL0     C 3963   2.824   7.079   2.341  0.6075 -0.5812 -0.7737
  754MOL0     C 3964   2.813   7.009   2.464 -0.2772  0.4169  0.6066
  754MOL0     N 3965   2.441   6.840   3.081  0.2674 -0.6618 -0.0557
  754MOL0     N 3966   2.311   6.868   3.064 -0.5117 -0.4071 -0.6378
  754MOL0     C 3967   1.632   6.482   2.645  0.2983  0.6939  0.1701
  754MOL0     C 3968   1.534   6.386   2.605  0.8374 -0.7890  0.5931
  754MOL0     C 3969   1.104   6.244   2.468  1.1329  0.9356 -0.4804
  754MOL0     C 3970   1.172   6.159   2.379  0.8931  0.9150  1.7605
  754MOL0     C 3971   1.092   6.091   2.284 -0.7201 -0.0781 -1.3104
  754MOL0     C 3972   0.955   6.086   2.278 -0.2968  0.0115  0.6880
  754MOL0     O 3973   0.901   6.005   2.172 -0.1777 -0.2446 -0.1562
  754MOL0     C 3974   0.756   5.998   2.173  0.1671 -0.5629  0.9226
  754MOL0     C 3975   0.718   5.890   2.060  0.2627  0.5441 -0.7718
  754MOL0     C 3976   0.711   5.931   1.915  0.2054 -0.7675  0.1653
  754MOL0     C 3977   0.619   5.846   1.824  1.4736  0.0908  0.1173
  754MOL0     C 3978   0.468   5.872   1.835  0.5188  0.7994  0.1114
  754MOL0     C 3979   0.347   5.870   1.825 -0.1734 -0.4319 -0.9963
  754MOL0     C 3980   0.886   6.172   2.361 -0.3633 -0.0558 -0.5305
  754MOL0     C 3981   0.956   6.237   2.462 -0.9313 -1.0725 -0.5592
  754MOL0     C 3982   0.873   6.308   2.580  0.0198  0.1532 -0.2686
  754MOL0     H 3983   1.295   6.610   2.516 -2.3220  0.9429  3.6550
  754MOL0     H 3984   1.450   6.771   2.606  0.0190  0.6672  2.2323
  754MOL0     H 3985   1.620   6.880   2.649  0.0850  0.6880 -1.4869
  754MOL0     H 3986   1.754   6.851   2.531 -3.9254  3.6815 -1.4514
  754MOL0     H 3987   1.776   6.915   2.839 -1.5855 -2.7794 -0.2954
  754MOL0     H 3988   1.897   6.844   2.751 -0.4850 -0.4706  1.8115
  754MOL0     H 3989   1.890   7.035   2.583 -0.3726  1.1560 -1.1790
  754MOL0     H 3990   1.761   7.110   2.677  0.8857 -0.5621  0.2655
  754MOL0     H 3991   1.917   7.248   2.753 -1.4190 -0.2432 -0.7627
  754MOL0     H 3992   1.871   7.134   2.875 -2.5685 -1.7054 -1.6008
  754MOL0     H 3993   2.118   7.077   2.697  0.0871  2.8938 -0.7227
  754MOL0     H 3994   2.086   6.993   2.842  0.0619  0.6109 -0.7466
  754MOL0     H 3995   2.282   7.162   2.836 -0.3967  1.9821 -1.4224
  754MOL0     H 3996   2.172   7.289   2.845 -0.9712 -0.2230 -0.2390
  754MOL0     H 3997   2.081   7.249   3.044  0.0345  0.0951 -0.0626
  754MOL0     H 3998   2.251   7.258   3.054 -1.6012  2.6715 -1.3093
  754MOL0     H 3999   2.149   7.075   3.209 -1.2444  0.1118 -0.1858
  754MOL0     H 4000   2.093   6.988   3.066  2.1136 -1.9950 -1.2444
  754MOL0     H 4001   2.445   7.161   3.135  0.7536 -0.4040 -2.9488
  754MOL0     H 4002   2.691   6.861   3.142 -1.9257 -0.9046  0.4139
  754MOL0     H 4003   2.685   7.045   3.174  0.0823  2.1812 -3.6386
  754MOL0     H 4004   2.643   7.070   2.918  1.3523  1.6123  0.4571
  754MOL0     H 4005   2.813   7.053   2.981  0.1402 -0.3528  2.1740
  754MOL0     H 4006   2.830   6.821   2.942  0.6472  0.8425 -0.4489
  754MOL0     H 4007   2.673   6.791   2.887 -1.8714  1.7410 -1.3135
  754MOL0     H 4008   2.907   6.908   2.731  0.7043  1.1350  0.6485
  754MOL0     H 4009   2.776   6.785   2.688 -1.9541  1.6149 -1.1314
  754MOL0     H 4010   2.594   7.205   2.630  0.6650  2.8504 -0.4767
  754MOL0     H 4011   2.503   7.367   2.347 -1.5765  2.2818  1.7543
  754MOL0     H 4012   2.655   7.445   2.392  1.2807 -0.9909 -0.0298
  754MOL0     H 4013   2.537   7.395   2.513  2.2985  1.8346  0.3599
  754MOL0     H 4014   2.878   7.342   1.938  2.4777 -1.4823 -0.2175
  754MOL0     H 4015   2.813   7.378   1.711  1.5970  0.4093  1.2458
  754MOL0     H 4016   2.555   7.119   1.483 -1.8006 -1.0727  2.2094
  754MOL0     H 4017   2.443   7.203   1.596 -1.2575 -1.8426  1.2474
  754MOL0     H 4018   2.426   7.242   1.338 -0.0890  0.2620 -0.8020
  754MOL0     H 4019   2.397   7.381   1.448  0.2136 -0.1433 -0.4817
  754MOL0     H 4020   2.648   7.322   1.311  1.5398  0.9222  0.7066
  754MOL0     H 4021   2.614   7.475   1.406 -4.1095  2.9261 -0.9479
  754MOL0     H 4022   2.429   7.509   1.255 -1.4608 -2.6469  0.7651
  754MOL0     H 4023   2.483   7.380   1.154  0.0619  0.0736 -1.6236
  754MOL0     H 4024   2.534   7.619   1.101  0.3933  1.2689  0.4405
  754MOL0     H 4025   2.637   7.630   1.242 -2.3818 -2.9423  3.1426
  754MOL0     H 4026   2.692   7.424   1.012  0.1853 -0.6610  1.2688
  754MOL0     H 4027   2.804   7.480   1.134  1.8804 -1.3950 -1.2357
  754MOL0     H 4028   2.836   7.697   1.057  1.7720 -0.4810 -1.1951
  754MOL0     H 4029   2.714   7.702   0.944 -3.0703  2.0775  5.8061
  754MOL0     H 4030   2.858   7.487   0.845 -1.4283 -0.2942  2.3053
  754MOL0     H 4031   2.994   7.584   0.939  1.0814  4.6759 -0.6882
  754MOL0     H 4032   2.549   7.041   1.716  1.5406 -1.3308  0.4783
  754MOL0     H 4033   2.618   6.988   1.949 -0.7359 -0.2192 -2.2882
  754MOL0     H 4034   2.880   7.037   2.258 -0.3487 -1.3335 -1.0557
  754MOL0     H 4035   2.874   6.921   2.479 -3.3923 -1.7263  1.7244
  754MOL0     H 4036   1.734   6.451   2.664 -0.5630 -0.9857  2.5522
  754MOL0     H 4037   1.566   6.283   2.597 -3.1465 -2.1343 -0.5144
  754MOL0     H 4038   1.279   6.151   2.364  0.7206  2.1670 -0.4953
  754MOL0     H 4039   1.152   6.039   2.209  0.7119 -1.9756  0.9905
  754MOL0     H 4040   0.705   5.968   2.265 -3.2533 -0.6443 -0.8289
  754MOL0     H 4041   0.709   6.092   2.142  2.9274  0.0598 -1.8430
  754MOL0     H 4042   0.623   5.847   2.095  1.6374 -1.0616  1.2098
  754MOL0     H 4043   0.784   5.804   2.067 -0.8298 -0.6517 -3.7367
  754MOL0     H 4044   0.676   6.034   1.904  1.9086 -0.4706 -5.8584
  754MOL0     H 4045   0.812   5.932   1.872  0.6774  3.5370  0.9038
  754MOL0     H 4046   0.631   5.740   1.846  2.0645 -0.0838 -0.9913
  754MOL0     H 4047   0.630   5.869   1.717 -1.1827 -0.3377 -0.3413
  754MOL0     H 4048   0.241   5.876   1.818 -0.8209 -3.3379  2.8775
  754MOL0     H 4049   0.778   6.183   2.364 -0.3657 -0.1987  1.6219
  754MOL0     H 4050   0.849   6.407   2.540  4.0118  0.2502 -3.0084
  754MOL0     H 4051   0.789   6.242   2.604  0.7737 -1.5869 -2.1069
  754MOL0     H 4052   0.923   6.314   2.677  0.5430  0.3359 -0.5457
  755MOL0     O 4053  10.021  10.325  10.887  0.5831  0.7954  0.9936
  755MOL0     C 4054  10.048  10.215  10.940 -0.9139 -0.0685  0.1976
  755MOL0     O 4055  10.085  10.102  10.869 -0.4227  0.0802  0.4039
  755MOL0     C 4056  10.125  10.123  10.738 -0.2805  0.2994 -0.9828
  755MOL0     C 4057  10.046  10.136  10.623  0.2671 -0.1870 -1.7286
  755MOL0     C 4058  10.090  10.159  10.498  1.2057 -0.8249 -0.4609
  755MOL0     C 4059  10.226  10.138  10.470  0.3934  0.1668 -0.5124
  755MOL0     O 4060  10.267  10.145  10.342  0.0479 -0.5870  0.4831
  755MOL0     C 4061  10.394  10.216  10.305  0.7338 -1.2111  0.7442
  755MOL0     C 4062  10.381  10.283  10.164  0.0599  0.4587  0.3222
  755MOL0     C 4063  10.326  10.193  10.051  0.8417 -0.2514 -0.2068
  755MOL0     C 4064  10.181  10.237  10.025  0.7152 -0.5927  0.0601
  755MOL0     C 4065  10.156  10.323   9.890 -0.4880  0.6556  0.1195
  755MOL0     C 4066  10.012  10.356   9.885  0.0334  0.2855  0.0279
  755MOL0     C 4067   9.973  10.456   9.776  0.6598  0.1907  0.6389
  755MOL0     C 4068  10.025  10.595   9.806  0.8370 -0.4831 -0.0872
  755MOL0     N 4069  10.025  10.685   9.693  0.8197 -1.1755  0.1151
  755MOL0     C 4070   9.916  10.732   9.632  0.1134  0.5775  0.6710
  755MOL0     C 4071   9.956  10.833   9.551  0.3365 -0.7639  0.1612
  755MOL0     C 4072   9.870  10.921   9.471  0.3051 -0.9072 -0.5881
  755MOL0     C 4073   9.849  11.068   9.532  0.3872 -0.3051 -0.4527
  755MOL0     C 4074   9.951  11.169   9.465  0.3678 -0.4236  0.4942
  755MOL0     C 4075   9.878  11.269   9.387  0.1067  0.1129 -0.7341
  755MOL0     O 4076   9.799  11.230   9.264 -0.1918  0.7310 -0.8076
  755MOL0     C 4077   9.869  11.201   9.145  0.5946 -0.7034 -0.7004
  755MOL0     C 4078   9.831  11.083   9.088 -0.0097  0.0132  0.7214
  755MOL0     C 4079   9.875  11.053   8.960 -0.2325 -0.3393  0.0382
  755MOL0     C 4080   9.812  10.932   8.899  1.7382  0.2249  0.1902
  755MOL0     C 4081   9.988  11.128   8.902  0.7864  1.4208  0.4369
  755MOL0     C 4082  10.052  11.081   8.773  0.4298  1.3572  0.7936
  755MOL0     O 4083  10.098  11.178   8.695  0.3637  0.0158 -0.4799
  755MOL0     C 4084  10.170  11.138   8.586 -0.4081 -0.2763 -0.0761
  755MOL0     C 4085  10.318  11.112   8.590  0.4484  0.0533 -0.2273
  755MOL0     C 4086  10.381  11.074   8.475 -0.3932 -0.5509 -0.1917
  755MOL0     C 4087  10.319  11.073   8.355  0.2172  0.1066 -0.1740
  755MOL0     O 4088  10.381  11.043   8.232 -0.9822 -0.4104 -0.4516
  755MOL0     C 4089  10.488  10.948   8.235  0.2908  0.3985  0.0517
  755MOL0     C 4090  10.501  10.874   8.105  0.5050  0.9115  0.7110
  755MOL0     C 4091  10.562  10.949   7.989 -0.6400  1.7254 -0.3295
  755MOL0     C 4092  10.585  10.870   7.869  0.5704  0.5721 -0.5375
  755MOL0     C 4093  10.600  10.945   7.737  0.5074 -0.4115  0.6722
  755MOL0     C 4094  10.696  11.051   7.731 -0.4471 -0.5993 -0.3815
  755MOL0     C 4095  10.721  11.080   7.581 -0.1545  0.5495 -0.8633
  755MOL0     C 4096  10.616  11.149   7.501 -0.0460 -0.1265  0.8033
  755MOL0    Cl 4097  10.561  11.289   7.585  0.4018  0.3712 -0.2284
  755MOL0     C 4098  10.183  11.115   8.349 -0.4308 -1.1109 -0.1151
  755MOL0     C 4099  10.110  11.134   8.460  0.0368  0.1937 -0.5801
  755MOL0     O 4100  10.063  10.957   8.753  0.1614 -0.3649 -0.3841
  755MOL0     C 4101  10.027  11.246   8.967 -0.8972 -0.0739  0.3605
  755MOL0     C 4102   9.960  11.289   9.081 -0.5403  0.3089  0.1357
  755MOL0     N 4103  10.096  10.845   9.567  0.4759  0.1849 -0.7468
  755MOL0     N 4104  10.134  10.760   9.657  0.2930 -0.2256 -0.2088
  755MOL0     C 4105  10.312  10.126  10.584  1.3562 -0.2375 -0.2604
  755MOL0     C 4106  10.261  10.114  10.716  0.2452 -0.2535  0.2855
  755MOL0     C 4107  10.050  10.205  11.091 -0.4095  1.4279 -0.8307
  755MOL0     C 4108  10.037  10.065  11.137 -0.3375 -0.7531 -0.0269
  755MOL0     C 4109  10.036  10.032  11.271  0.4076  0.7343  0.2113
  755MOL0     C 4110  10.038  10.128  11.370  0.1138  0.3635  0.2161
  755MOL0     O 4111  10.020  10.111  11.505 -0.2348  0.2488 -0.3847
  755MOL0     C 4112  10.023   9.982  11.559  0.4394  0.1732  0.9884
  755MOL0     C 4113  10.061   9.977  11.705 -0.2597 -0.5680 -0.3432
  755MOL0     C 4114  10.189  10.032  11.756 -1.5233  0.1374  0.8253
  755MOL0     C 4115  10.311   9.937  11.782  0.6230  0.3674 -0.0009
  755MOL0     C 4116  10.431  10.016  11.818 -0.1792  0.0710  0.4074
  755MOL0     C 4117  10.518  10.074  11.869 -0.4907  0.6947  0.2538
  755MOL0     C 4118  10.039  10.262  11.325 -0.0097  0.2798  0.2809
  755MOL0     C 4119  10.057  10.300  11.191  0.3858 -1.1572 -0.0436
  755MOL0     C 4120  10.069  10.449  11.164  0.4096 -0.8700  0.4685
  755MOL0     H 4121   9.937  10.132  10.627  0.3217 -0.3825  1.1276
  755MOL0     H 4122  10.018  10.195  10.425 -2.0356  0.4969  3.0549
  755MOL0     H 4123  10.470  10.140  10.289  2.0392  0.4413 -1.5428
  755MOL0     H 4124  10.411  10.291  10.383 -0.8555 -1.2525  1.1689
  755MOL0     H 4125  10.314  10.369  10.178 -1.8610 -0.6644 -1.4937
  755MOL0     H 4126  10.483  10.317  10.144  0.9767 -1.0379  2.1806
  755MOL0     H 4127  10.386  10.206   9.960 -0.2948 -2.6244 -1.3784
  755MOL0     H 4128  10.336  10.088  10.077  0.9299 -1.0348 -3.0398
  755MOL0     H 4129  10.129  10.141  10.017  0.4456 -0.4444  0.0191
  755MOL0     H 4130  10.145  10.277  10.120 -1.2267  0.7353 -1.1649
  755MOL0     H 4131  10.182  10.256   9.807 -0.3930 -1.1269  1.5210
  755MOL0     H 4132  10.223  10.410   9.891 -0.4169  0.7441 -3.1177
  755MOL0     H 4133   9.962  10.263   9.856  0.3408  0.2404 -0.3568
  755MOL0     H 4134   9.971  10.381   9.984 -0.6551  0.2203 -0.2315
  755MOL0     H 4135   9.864  10.451   9.764  0.7316  0.3197 -0.1452
  755MOL0     H 4136  10.017  10.425   9.681  0.1522 -0.1671  0.5127
  755MOL0     H 4137   9.958  10.640   9.880  0.9222  0.7946 -0.7713
  755MOL0     H 4138  10.122  10.584   9.857  0.0565  1.5229  2.0327
  755MOL0     H 4139   9.808  10.720   9.637  0.1870 -0.0515  0.7860
  755MOL0     H 4140   9.774  10.874   9.448 -1.9719  1.9569  2.2112
  755MOL0     H 4141   9.910  10.927   9.369  1.4061 -2.6501 -0.3093
  755MOL0     H 4142   9.748  11.096   9.501  0.7574 -1.0053 -2.4631
  755MOL0     H 4143   9.862  11.072   9.641 -1.9891  1.0145 -0.1591
  755MOL0     H 4144  10.008  11.217   9.546 -0.3226  0.8732  0.2376
  755MOL0     H 4145  10.021  11.127   9.392 -0.7750 -3.4747  1.0045
  755MOL0     H 4146   9.805  11.316   9.454  0.5376 -1.6222  1.0271
  755MOL0     H 4147   9.948  11.345   9.351 -2.1482  1.5765 -2.2792
  755MOL0     H 4148   9.768  11.008   9.134 -1.9659 -0.7663 -2.8809
  755MOL0     H 4149   9.871  10.843   8.918 -1.0325 -1.9246 -0.5004
  755MOL0     H 4150   9.795  10.949   8.792 -3.6570 -0.3331  0.6522
  755MOL0     H 4151   9.718  10.910   8.951  1.6725 -1.4235 -0.5483
  755MOL0     H 4152  10.343  11.142   8.692  0.1944 -0.3704 -0.0375
  755MOL0     H 4153  10.488  11.060   8.476 -0.0798  1.1646 -2.4806
  755MOL0     H 4154  10.586  10.992   8.257  0.3999  1.2979 -1.9935
  755MOL0     H 4155  10.456  10.871   8.306  0.2000 -0.7173 -1.1557
  755MOL0     H 4156  10.575  10.796   8.122  2.5309  2.2820 -1.1660
  755MOL0     H 4157  10.411  10.821   8.074  1.0705 -1.2813  2.6095
  755MOL0     H 4158  10.658  10.997   8.010 -0.5695  1.0859  0.9020
  755MOL0     H 4159  10.495  11.031   7.961 -3.2476 -0.8537 -2.1990
  755MOL0     H 4160  10.504  10.797   7.861  1.1930  0.0486 -2.6254
  755MOL0     H 4161  10.681  10.821   7.890 -0.2564  0.1998  3.2253
  755MOL0     H 4162  10.632  10.878   7.657 -3.0265  1.8102 -2.9556
  755MOL0     H 4163  10.503  10.977   7.697  2.3419  2.0205 -2.1934
  755MOL0     H 4164  10.789  11.041   7.787 -1.6160  0.1252  1.8256
  755MOL0     H 4165  10.654  11.137   7.785 -0.3960 -0.7016 -0.1767
  755MOL0     H 4166  10.746  10.990   7.525  2.6293  2.4487 -3.0060
  755MOL0     H 4167  10.811  11.143   7.574 -1.2230  2.2195 -0.3439
  755MOL0     H 4168  10.534  11.081   7.474  0.4765 -1.0723  1.5511
  755MOL0     H 4169  10.662  11.190   7.411 -0.9453  1.8054  1.1691
  755MOL0     H 4170  10.134  11.130   8.253  3.7868 -1.0554 -2.5283
  755MOL0     H 4171  10.004  11.151   8.442 -0.1923  1.6941  1.6556
  755MOL0     H 4172  10.094  11.320   8.925  1.4830 -0.6080  2.9233
  755MOL0     H 4173   9.988  11.386   9.120  2.3045 -1.4777  3.0376
  755MOL0     H 4174  10.419  10.122  10.565  1.1245 -2.9233 -1.4666
  755MOL0     H 4175  10.331  10.110  10.799  3.2010  1.4139 -1.9374
  755MOL0     H 4176  10.023   9.983  11.067 -3.1121 -1.7998  1.5916
  755MOL0     H 4177  10.023   9.927  11.295  1.1629  0.6425  0.2388
  755MOL0     H 4178   9.925   9.934  11.554  2.2178 -3.6979 -0.9068
  755MOL0     H 4179  10.095   9.919  11.505 -0.4057  1.1413 -1.3734
  755MOL0     H 4180  10.044   9.879  11.750 -1.1759  0.5617  1.9659
  755MOL0     H 4181   9.995  10.052  11.750  1.7779  1.9781 -1.3626
  755MOL0     H 4182  10.227  10.103  11.682  1.4616  0.6966  2.7194
  755MOL0     H 4183  10.172  10.086  11.849  2.0637 -2.6515  3.3457
  755MOL0     H 4184  10.331   9.866  11.700  2.2469  1.8352 -0.9485
  755MOL0     H 4185  10.286   9.874  11.868 -1.2072  1.4264  0.2851
  755MOL0     H 4186  10.598  10.112  11.929 -1.6515  0.5776  1.9232
  755MOL0     H 4187  10.023  10.343  11.395  0.2518  1.0353 -0.5145
  755MOL0     H 4188  10.054  10.479  11.060  0.7506  3.7285  1.5348
  755MOL0     H 4189  10.002  10.507  11.227 -0.9636  0.1919 -1.8177
  755MOL0     H 4190  10.171  10.486  11.170 -0.4013  2.9254 -3.6325
  756MOL0     O 4191   0.126   3.260  11.528  0.1026  1.3554 -0.3604
  756MOL0     C 4192   0.112   3.300  11.412 -0.4490 -0.6946 -0.2735
  756MOL0     O 4193   0.133   3.435  11.374 -0.0916  0.4042  0.2391
  756MOL0     C 4194   0.203   3.522  11.445  0.2512 -0.4112 -0.2250
  756MOL0     C 4195   0.347   3.512  11.456  0.7328  0.2096  0.7676
  756MOL0     C 4196   0.413   3.606  11.536  0.1862  0.8715 -0.5096
  756MOL0     C 4197   0.353   3.714  11.594  0.2209  0.5990  0.0122
  756MOL0     O 4198   0.429   3.809  11.666 -0.3712  0.0706  0.7854
  756MOL0     C 4199   0.519   3.898  11.587 -0.1481  0.3666  0.1245
  756MOL0     C 4200   0.606   4.001  11.668 -0.3623  0.9004  0.5734
  756MOL0     C 4201   0.680   3.939  11.777  0.3315  0.1007 -0.0419
  756MOL0     C 4202   0.784   4.014  11.858  0.3965 -0.1848  0.1608
  756MOL0     C 4203   0.851   3.917  11.955 -0.6201 -0.6799 -0.5538
  756MOL0     C 4204   0.949   3.998  12.046 -0.1857  0.0813 -1.2117
  756MOL0     C 4205   1.010   3.929  12.171  0.7369  1.0155  0.2715
  756MOL0     C 4206   0.908   3.902  12.279 -0.2086  0.7182 -0.0907
  756MOL0     N 4207   0.962   3.826  12.389  0.1126 -0.6261 -0.2144
  756MOL0     C 4208   0.929   3.694  12.411 -0.7900  0.7224 -0.1327
  756MOL0     C 4209   0.998   3.668  12.526  0.4022  0.3326 -0.3280
  756MOL0     C 4210   1.011   3.530  12.602  0.3937  0.6827  0.1462
  756MOL0     C 4211   0.907   3.530  12.723  0.6190 -0.0485 -0.1837
  756MOL0     C 4212   0.752   3.553  12.693  0.3528  0.3769  0.0324
  756MOL0     C 4213   0.710   3.468  12.572 -0.2395  0.4738  0.7714
  756MOL0     O 4214   0.720   3.327  12.592  0.7649 -0.0802  0.2876
  756MOL0     C 4215   0.773   3.248  12.493  0.6996  0.8347  0.4215
  756MOL0     C 4216   0.856   3.138  12.528  0.0666  0.6220 -0.1617
  756MOL0     C 4217   0.916   3.047  12.436 -1.2105  0.4924 -0.7650
  756MOL0     C 4218   1.013   2.945  12.490  0.8917  0.4706 -0.2404
  756MOL0     C 4219   0.890   3.069  12.298 -1.0235  0.3977 -0.2022
  756MOL0     C 4220   0.938   2.975  12.191 -0.2449  0.3638  0.0313
  756MOL0     O 4221   0.847   2.937  12.093  0.1637  0.3057  0.5637
  756MOL0     C 4222   0.872   2.832  12.002  1.1287  0.4117  0.6416
  756MOL0     C 4223   0.887   2.870  11.873  0.4886  0.7541  0.2455
  756MOL0     C 4224   0.936   2.772  11.782 -0.5417 -0.5696  0.5250
  756MOL0     C 4225   0.942   2.637  11.808  0.1164  1.5607 -1.1617
  756MOL0     O 4226   0.960   2.537  11.711  0.1585 -0.8547 -0.5517
  756MOL0     C 4227   1.000   2.583  11.584  0.2424  0.2942  0.1309
  756MOL0     C 4228   1.075   2.456  11.532  0.4911 -0.4950  0.8715
  756MOL0     C 4229   0.993   2.318  11.536 -0.3534 -0.6958 -1.2356
  756MOL0     C 4230   0.884   2.307  11.431  0.1720  0.4312  0.4118
  756MOL0     C 4231   0.836   2.161  11.415  0.1651  0.4868  0.4416
  756MOL0     C 4232   0.707   2.151  11.346 -0.1153  0.8940 -0.4712
  756MOL0     C 4233   0.645   2.012  11.364 -0.9176 -0.2946 -0.5284
  756MOL0     C 4234   0.525   1.995  11.267 -0.9601  0.5255  0.3845
  756MOL0    Cl 4235   0.465   1.822  11.278 -0.0468 -0.2467  0.5812
  756MOL0     C 4236   0.919   2.594  11.939  1.1901  0.5779  0.3165
  756MOL0     C 4237   0.897   2.694  12.037 -0.1810 -0.2106 -0.0716
  756MOL0     O 4238   1.058   2.936  12.190  0.2877  0.3394 -1.0244
  756MOL0     C 4239   0.801   3.176  12.262 -0.1783  0.2267 -0.5536
  756MOL0     C 4240   0.742   3.255  12.360 -0.1423  0.3803  0.4770
  756MOL0     N 4241   1.055   3.793  12.571 -0.4437  0.7720 -0.6905
  756MOL0     N 4242   1.032   3.883  12.486 -0.7579 -0.6744  0.0875
  756MOL0     C 4243   0.220   3.726  11.578 -0.6172 -0.5228  1.7721
  756MOL0     C 4244   0.141   3.637  11.505 -0.6337 -0.2604  0.4618
  756MOL0     C 4245   0.054   3.206  11.307  1.5113 -0.3684 -0.1228
  756MOL0     C 4246  -0.039   3.257  11.212 -1.1830  0.5980 -0.2089
  756MOL0     C 4247  -0.099   3.175  11.116  0.5795 -0.3301  0.2292
  756MOL0     C 4248  -0.084   3.040  11.120  0.3138 -1.0181  0.0266
  756MOL0     O 4249  -0.155   2.954  11.038  0.8954 -0.3422  0.0302
  756MOL0     C 4250  -0.288   2.983  11.004  0.4904 -0.4511  1.0657
  756MOL0     C 4251  -0.402   2.971  11.112 -0.2026 -0.1412  0.1797
  756MOL0     C 4252  -0.403   2.825  11.167 -0.4893  1.0790 -0.1732
  756MOL0     C 4253  -0.450   2.820  11.317 -0.5462 -0.0680  0.0761
  756MOL0     C 4254  -0.579   2.873  11.351 -0.2865 -0.2289 -0.3224
  756MOL0     C 4255  -0.693   2.900  11.372  0.8412 -0.1917 -1.0937
  756MOL0     C 4256  -0.008   2.986  11.223  0.1771  0.4318 -0.2641
  756MOL0     C 4257   0.063   3.063  11.310  0.5330 -0.8102 -1.2904
  756MOL0     C 4258   0.136   2.986  11.409 -1.3492 -0.2183 -0.2138
  756MOL0     H 4259   0.392   3.426  11.408 -0.8221 -0.3005  0.1408
  756MOL0     H 4260   0.521   3.618  11.542  0.1702  0.9756 -0.4220
  756MOL0     H 4261   0.465   3.964  11.520 -2.0402  0.6101  1.7813
  756MOL0     H 4262   0.579   3.826  11.529 -2.3207 -2.4780  1.1634
  756MOL0     H 4263   0.673   4.046  11.595 -2.3292 -0.6427 -2.4352
  756MOL0     H 4264   0.540   4.078  11.709 -0.3233  1.4243 -0.3272
  756MOL0     H 4265   0.609   3.900  11.851 -3.3269  3.8054 -1.2271
  756MOL0     H 4266   0.724   3.849  11.733 -2.0232 -1.6779  0.9753
  756MOL0     H 4267   0.859   4.060  11.792  0.2217  1.3910  1.0338
  756MOL0     H 4268   0.730   4.089  11.916  1.3369  0.1099  0.6815
  756MOL0     H 4269   0.890   3.831  11.899 -0.5536 -1.5156  0.7531
  756MOL0     H 4270   0.774   3.880  12.023  0.2536 -3.6333 -1.0036
  756MOL0     H 4271   1.040   4.027  11.991  0.9627 -0.2700  0.4272
  756MOL0     H 4272   0.896   4.081  12.093  0.7403  0.2501 -0.4296
  756MOL0     H 4273   1.102   3.975  12.206  1.9387 -0.0440 -1.3182
  756MOL0     H 4274   1.041   3.829  12.139  1.4360  1.8252 -1.7717
  756MOL0     H 4275   0.864   3.996  12.313 -0.7113  2.5081 -4.9604
  756MOL0     H 4276   0.823   3.852  12.233  0.0866  2.3503 -2.5634
  756MOL0     H 4277   0.875   3.621  12.352 -0.8431 -0.2330  1.0632
  756MOL0     H 4278   1.109   3.511  12.645  0.9276  0.4517 -1.1293
  756MOL0     H 4279   0.996   3.443  12.537 -0.2066 -1.2249  2.6576
  756MOL0     H 4280   0.904   3.428  12.764  1.7075 -0.0907 -0.1723
  756MOL0     H 4281   0.928   3.601  12.804 -0.7918 -0.8382  0.9194
  756MOL0     H 4282   0.694   3.534  12.784 -0.3520  0.1743 -0.4484
  756MOL0     H 4283   0.746   3.660  12.669  2.2892 -0.0507 -2.7730
  756MOL0     H 4284   0.609   3.479  12.533 -0.1175  0.2560  0.3884
  756MOL0     H 4285   0.782   3.493  12.494  2.0491  1.0079  2.8908
  756MOL0     H 4286   0.871   3.122  12.634 -1.9826 -1.5902 -0.1274
  756MOL0     H 4287   1.027   2.961  12.598 -1.3891  2.4065 -0.1522
  756MOL0     H 4288   1.111   2.954  12.441  1.3443 -0.8933  0.3555
  756MOL0     H 4289   0.980   2.846  12.458 -0.0038  0.6350  0.1439
  756MOL0     H 4290   0.874   2.970  11.833  1.1036  0.7468  0.0124
  756MOL0     H 4291   0.949   2.811  11.681  1.8301  0.6813  1.2446
  756MOL0     H 4292   0.919   2.611  11.515  0.4119  0.8604  0.1558
  756MOL0     H 4293   1.074   2.664  11.575  0.3849  0.0028 -1.7111
  756MOL0     H 4294   1.095   2.480  11.427 -1.8610 -2.8084 -0.2290
  756MOL0     H 4295   1.177   2.452  11.570  0.5037  4.6948  2.0158
  756MOL0     H 4296   0.954   2.303  11.637 -1.1434  3.2191 -0.7889
  756MOL0     H 4297   1.071   2.244  11.516  1.7772  1.4346 -1.3167
  756MOL0     H 4298   0.932   2.340  11.338 -2.0994  1.0675 -0.5879
  756MOL0     H 4299   0.801   2.378  11.437 -3.5504 -3.6872  3.6911
  756MOL0     H 4300   0.913   2.094  11.376 -1.4978 -2.5195  1.9435
  756MOL0     H 4301   0.835   2.124  11.518 -0.1706  0.7829  0.5460
  756MOL0     H 4302   0.725   2.178  11.242  2.0702  1.8495  0.0982
  756MOL0     H 4303   0.643   2.215  11.407 -0.4907 -1.3480  1.6759
  756MOL0     H 4304   0.596   2.002  11.462  1.7873 -2.8042  0.7148
  756MOL0     H 4305   0.715   1.928  11.368  0.6761  0.8729 -2.2450
  756MOL0     H 4306   0.563   2.030  11.171  0.9751 -0.7760  0.6241
  756MOL0     H 4307   0.448   2.066  11.297  0.4517  1.9690  0.7143
  756MOL0     H 4308   0.931   2.488  11.958 -0.1460 -0.4502 -3.7339
  756MOL0     H 4309   0.896   2.653  12.138  1.3190 -3.8991 -1.3904
  756MOL0     H 4310   0.762   3.179  12.161 -1.1038 -1.1401 -0.2605
  756MOL0     H 4311   0.669   3.332  12.335 -0.2952 -0.1408 -0.7092
  756MOL0     H 4312   0.195   3.817  11.632  0.3558  0.6725  0.2820
  756MOL0     H 4313   0.034   3.646  11.486 -0.3377  1.4524 -0.5604
  756MOL0     H 4314  -0.072   3.360  11.210  0.5826  1.2438  1.2470
  756MOL0     H 4315  -0.165   3.214  11.039  0.5936 -0.5271  0.1169
  756MOL0     H 4316  -0.291   3.072  10.940 -1.1372 -1.0782  0.2078
  756MOL0     H 4317  -0.306   2.911  10.924  3.3821  0.8518 -0.9371
  756MOL0     H 4318  -0.505   2.989  11.078 -0.1005 -1.0376 -0.6521
  756MOL0     H 4319  -0.371   3.044  11.187  1.0941 -1.9157  1.4668
  756MOL0     H 4320  -0.460   2.765  11.096  1.8945 -3.3201  1.2513
  756MOL0     H 4321  -0.301   2.787  11.168 -1.3763 -1.4351 -0.0705
  756MOL0     H 4322  -0.378   2.861  11.388 -2.1704 -2.4417  3.4199
  756MOL0     H 4323  -0.451   2.716  11.350 -2.2833  0.4013  1.6464
  756MOL0     H 4324  -0.794   2.923  11.397  1.9183  2.3077  1.5370
  756MOL0     H 4325  -0.009   2.881  11.251  0.7246  0.5657  0.2972
  756MOL0     H 4326   0.098   2.982  11.512  1.7101 -1.4856  1.0217
  756MOL0     H 4327   0.149   2.883  11.374  1.6927 -0.1143  0.2656
  756MOL0     H 4328   0.238   3.025  11.412 -1.8528  1.2830 -1.4573
  757MOL0     O 4329   0.753  10.516   3.014 -0.5290 -0.6523 -0.1988
  757MOL0     C 4330   0.696  10.619   3.020  0.6704 -0.7163  0.3435
  757MOL0     O 4331   0.752  10.748   2.991  0.4925  0.2868 -0.3345
  757MOL0     C 4332   0.885  10.764   2.947  1.6217  0.0186 -0.1815
  757MOL0     C 4333   0.957  10.678   2.859  0.5221 -0.5808  0.3930
  757MOL0     C 4334   1.086  10.722   2.829 -1.3798  0.3378 -1.1149
  757MOL0     C 4335   1.157  10.824   2.891  0.2972  0.7354 -0.5929
  757MOL0     O 4336   1.290  10.840   2.850 -0.3534 -0.1650  0.2935
  757MOL0     C 4337   1.378  10.761   2.934  0.7105 -0.6033 -0.4448
  757MOL0     C 4338   1.525  10.797   2.910  0.1432 -0.1934  0.5592
  757MOL0     C 4339   1.575  10.760   2.765  0.4290  1.0848 -0.4827
  757MOL0     C 4340   1.732  10.785   2.741  0.4863 -0.0102 -0.3351
  757MOL0     C 4341   1.771  10.783   2.588  0.3982  0.5612  0.0565
  757MOL0     C 4342   1.771  10.647   2.497 -0.2457 -0.0467 -0.3964
  757MOL0     C 4343   1.880  10.541   2.516 -0.3824 -1.0927 -0.7588
  757MOL0     C 4344   2.014  10.592   2.489 -1.0036  0.2961  0.4681
  757MOL0     N 4345   2.033  10.579   2.345 -0.1382  0.0357  1.2364
  757MOL0     C 4346   2.043  10.687   2.254 -0.1695  1.4557  0.6138
  757MOL0     C 4347   2.078  10.633   2.140  0.6030 -0.1345  0.7137
  757MOL0     C 4348   2.095  10.694   2.007 -0.7650  0.0386  0.0265
  757MOL0     C 4349   2.241  10.680   1.942 -0.3773 -0.2233 -0.4359
  757MOL0     C 4350   2.247  10.749   1.813 -0.2717  0.3093  0.2650
  757MOL0     C 4351   2.239  10.663   1.680  0.4926 -0.5847  0.0145
  757MOL0     O 4352   2.161  10.748   1.590 -0.2529  0.5500  0.1689
  757MOL0     C 4353   2.116  10.713   1.469  0.3637 -0.4528 -0.8157
  757MOL0     C 4354   2.172  10.614   1.391  1.2567  0.2873  0.4007
  757MOL0     C 4355   2.132  10.588   1.260  0.6167  0.2672  0.3917
  757MOL0     C 4356   2.208  10.484   1.180  0.5743  0.0618 -0.4463
  757MOL0     C 4357   2.008  10.635   1.218  0.7087 -0.9143  0.4500
  757MOL0     C 4358   1.957  10.617   1.074 -0.1688  0.0991 -0.3411
  757MOL0     O 4359   2.021  10.532   0.985 -0.0393  0.8464  0.7980
  757MOL0     C 4360   1.946  10.476   0.887 -0.7696 -0.7599 -0.3780
  757MOL0     C 4361   1.833  10.405   0.926 -0.7322  1.2085 -0.2536
  757MOL0     C 4362   1.746  10.355   0.828 -0.1670  1.1065  0.0587
  757MOL0     C 4363   1.787  10.355   0.690  0.0476  0.2696 -0.2079
  757MOL0     O 4364   1.712  10.301   0.592  0.1592  0.4029  0.6845
  757MOL0     C 4365   1.571  10.321   0.581  0.1216 -0.0693  0.8219
  757MOL0     C 4366   1.502  10.290   0.445 -0.5754  0.0372 -0.2037
  757MOL0     C 4367   1.556  10.389   0.343 -0.0956 -0.0581 -0.4909
  757MOL0     C 4368   1.525  10.333   0.212 -0.3769 -0.6618  0.4083
  757MOL0     C 4369   1.593  10.422   0.100  0.0003 -1.1336 -0.5309
  757MOL0     C 4370   1.559  10.366  -0.043 -0.5932 -0.0560 -0.6108
  757MOL0     C 4371   1.411  10.341  -0.070 -0.5088  0.6170  0.5075
  757MOL0     C 4372   1.383  10.309  -0.222 -1.2112  0.1499  0.6912
  757MOL0    Cl 4373   1.457  10.169  -0.294  0.3322 -0.1821 -0.4227
  757MOL0     C 4374   1.912  10.409   0.656  0.1861 -0.8406 -0.4045
  757MOL0     C 4375   1.983  10.470   0.755  0.1347 -0.6386  0.0592
  757MOL0     O 4376   1.847  10.674   1.051 -0.1603  0.0713 -0.1327
  757MOL0     C 4377   1.948  10.743   1.298  0.0061 -0.2640  0.3278
  757MOL0     C 4378   2.001  10.781   1.420  0.5208 -0.0144  0.1228
  757MOL0     N 4379   2.098  10.492   2.166  0.6970  0.7128  0.2779
  757MOL0     N 4380   2.066  10.457   2.289 -0.3451 -0.1847 -0.2623
  757MOL0     C 4381   1.090  10.896   2.992 -0.3595 -0.1107  0.1150
  757MOL0     C 4382   0.949  10.867   3.023  0.0425  0.2309  0.2246
  757MOL0     C 4383   0.554  10.609   3.052  0.2444 -0.6497  0.5890
  757MOL0     C 4384   0.490  10.486   3.038 -0.6341  0.1172 -0.0777
  757MOL0     C 4385   0.355  10.463   3.067 -0.5479 -0.2827 -1.3459
  757MOL0     C 4386   0.285  10.576   3.113 -0.4723  0.2076  0.6149
  757MOL0     O 4387   0.148  10.571   3.131  0.8499  0.4536  0.2902
  757MOL0     C 4388   0.073  10.501   3.037  0.7370 -0.3050  0.6280
  757MOL0     C 4389  -0.070  10.461   3.085  0.4696 -0.8354 -0.6558
  757MOL0     C 4390  -0.071  10.362   3.209 -0.0274 -0.3146  0.2952
  757MOL0     C 4391  -0.204  10.300   3.227  0.3828  0.2440 -0.4952
  757MOL0     C 4392  -0.229  10.287   3.373  0.5290 -0.2493  0.4414
  757MOL0     C 4393  -0.262  10.284   3.487 -0.6261 -0.8491 -0.5668
  757MOL0     C 4394   0.349  10.695   3.129  0.5405 -0.0108 -0.4438
  757MOL0     C 4395   0.479  10.716   3.103  0.7930 -0.7358  0.0299
  757MOL0     C 4396   0.548  10.833   3.161 -1.2522 -0.3116  0.0452
  757MOL0     H 4397   0.903  10.601   2.806  1.1083 -0.0434 -1.0352
  757MOL0     H 4398   1.119  10.661   2.746 -1.4188 -2.2439  0.6524
  757MOL0     H 4399   1.356  10.654   2.925 -0.9767 -0.7891  3.6649
  757MOL0     H 4400   1.358  10.787   3.038 -0.0594  1.5720 -1.0723
  757MOL0     H 4401   1.536  10.906   2.915  1.9001 -0.1782 -1.6633
  757MOL0     H 4402   1.580  10.742   2.986 -1.5209  0.2649  2.1639
  757MOL0     H 4403   1.536  10.659   2.749  1.7726 -0.4909  4.4784
  757MOL0     H 4404   1.524  10.826   2.695  2.3171  3.5787  0.3748
  757MOL0     H 4405   1.754  10.885   2.779 -2.3126 -0.1064  1.8879
  757MOL0     H 4406   1.788  10.713   2.801  1.9602  1.4352  0.0866
  757MOL0     H 4407   1.871  10.824   2.569  0.4687 -0.7762 -3.2422
  757MOL0     H 4408   1.698  10.845   2.535  0.1762  0.5219  0.3135
  757MOL0     H 4409   1.683  10.590   2.528 -0.2066  2.1423  4.8593
  757MOL0     H 4410   1.759  10.674   2.392 -0.2611  1.1193 -0.1145
  757MOL0     H 4411   1.860  10.455   2.451  2.1543 -1.4486 -1.1548
  757MOL0     H 4412   1.880  10.510   2.621 -0.5132  2.2905  0.3569
  757MOL0     H 4413   2.032  10.689   2.537  0.7065 -0.3361  1.2266
  757MOL0     H 4414   2.091  10.529   2.536  0.6444  1.4709 -0.5218
  757MOL0     H 4415   2.022  10.790   2.281  0.2807  1.1732  2.1639
  757MOL0     H 4416   2.070  10.800   2.021  0.2171  1.3891 -5.8014
  757MOL0     H 4417   2.020  10.664   1.933 -0.1039  0.3433 -0.7794
  757MOL0     H 4418   2.317  10.712   2.013 -1.3231  2.2423 -0.4314
  757MOL0     H 4419   2.255  10.573   1.927 -1.0186 -0.5648  1.2157
  757MOL0     H 4420   2.165  10.821   1.820 -0.7597 -0.3106  1.2915
  757MOL0     H 4421   2.340  10.806   1.810  1.8963 -2.8369  1.2715
  757MOL0     H 4422   2.337  10.634   1.640  1.5269 -1.3863  2.8623
  757MOL0     H 4423   2.179  10.572   1.691 -2.3643  0.9258 -2.0284
  757MOL0     H 4424   2.259  10.562   1.431 -1.0659 -3.2470  1.3778
  757MOL0     H 4425   2.125  10.412   1.181  2.1829 -1.9803  2.5010
  757MOL0     H 4426   2.288  10.436   1.238 -1.8209 -1.4653  1.8004
  757MOL0     H 4427   2.249  10.531   1.090  0.3519 -1.2915 -1.2869
  757MOL0     H 4428   1.814  10.391   1.032 -0.9930  1.2520 -0.2945
  757MOL0     H 4429   1.667  10.294   0.870  0.2939  0.6981  0.3331
  757MOL0     H 4430   1.517  10.256   0.651  0.5952 -2.0845 -0.6251
  757MOL0     H 4431   1.562  10.429   0.597  2.5698 -0.0121  2.2313
  757MOL0     H 4432   1.524  10.186   0.419  1.5881  0.6151 -0.8909
  757MOL0     H 4433   1.395  10.299   0.464 -0.6169  0.6027 -0.7049
  757MOL0     H 4434   1.663  10.409   0.355  0.3027 -3.3145  3.1298
  757MOL0     H 4435   1.499  10.483   0.347 -0.6751 -0.4632  2.4782
  757MOL0     H 4436   1.417  10.323   0.202 -0.2016 -3.7460  0.6177
  757MOL0     H 4437   1.558  10.229   0.201 -1.1119 -0.7501 -1.4524
  757MOL0     H 4438   1.550  10.522   0.114 -0.4596 -1.1915 -1.4762
  757MOL0     H 4439   1.701  10.434   0.109 -0.0340  0.2942 -1.5334
  757MOL0     H 4440   1.616  10.274  -0.056 -0.5942 -0.8923  3.7306
  757MOL0     H 4441   1.596  10.440  -0.114  1.4443 -0.0377  0.3812
  757MOL0     H 4442   1.348  10.424  -0.037  1.1677  2.9631 -1.7731
  757MOL0     H 4443   1.378  10.252  -0.016 -0.1270 -2.0227 -3.1734
  757MOL0     H 4444   1.412  10.396  -0.283 -1.4069 -1.2060 -1.4349
  757MOL0     H 4445   1.275  10.300  -0.240 -1.1123  0.2801 -0.0099
  757MOL0     H 4446   1.939  10.414   0.551 -3.3739  0.2534 -1.4381
  757MOL0     H 4447   2.081  10.512   0.735 -2.3142  5.6502 -1.1259
  757MOL0     H 4448   1.853  10.792   1.278 -0.4161 -1.4164 -0.6415
  757MOL0     H 4449   1.964  10.869   1.470  1.6195  2.2800 -2.8282
  757MOL0     H 4450   1.157  10.958   3.051  1.3550 -0.5239 -1.2947
  757MOL0     H 4451   0.901  10.915   3.107 -0.0770 -0.8546  0.7881
  757MOL0     H 4452   0.539  10.392   3.016 -3.1599 -1.2892 -0.1043
  757MOL0     H 4453   0.312  10.363   3.069 -1.7580  0.2381  0.7931
  757MOL0     H 4454   0.047  10.565   2.952 -1.6767 -1.9348  0.0296
  757MOL0     H 4455   0.118  10.423   2.974  0.9568 -1.5171  2.2237
  757MOL0     H 4456  -0.124  10.411   3.005 -1.7116  2.7158 -1.6324
  757MOL0     H 4457  -0.137  10.545   3.101  0.2331 -1.2198  0.4438
  757MOL0     H 4458   0.009  10.287   3.202  3.6589  3.2111  0.5946
  757MOL0     H 4459  -0.055  10.422   3.299 -2.4680 -1.9850  1.9403
  757MOL0     H 4460  -0.201  10.200   3.185 -0.4843  0.0654 -0.1612
  757MOL0     H 4461  -0.281  10.371   3.194  0.8551 -0.7904 -4.2183
  757MOL0     H 4462  -0.298  10.281   3.588 -0.4292 -0.5213 -0.4847
  757MOL0     H 4463   0.295  10.781   3.168  0.0157 -0.9320  0.9332
  757MOL0     H 4464   0.626  10.807   3.234 -2.1308 -0.1671  1.0602
  757MOL0     H 4465   0.590  10.885   3.074 -1.5241 -1.4365 -0.7858
  757MOL0     H 4466   0.480  10.895   3.219 -0.2147  1.3439 -0.4523
  758MOL0     O 4467   1.593   2.443   6.535 -0.8420 -0.9038  0.5356
  758MOL0     C 4468   1.673   2.534   6.563 -0.7224  0.1012 -0.8329
  758MOL0     O 4469   1.661   2.627   6.665  0.5595  0.4885  1.0770
  758MOL0     C 4470   1.542   2.641   6.730  0.2589 -0.2210  0.0977
  758MOL0     C 4471   1.489   2.774   6.750  0.5313  1.0821  0.7476
  758MOL0     C 4472   1.365   2.776   6.814  0.3953 -0.0534  0.0607
  758MOL0     C 4473   1.312   2.656   6.876  0.1821 -0.3098  0.2243
  758MOL0     O 4474   1.196   2.673   6.940  0.3555 -0.1839  0.8393
  758MOL0     C 4475   1.168   2.583   7.055  0.0417  0.2670  0.3975
  758MOL0     C 4476   1.090   2.457   7.012  0.0901 -0.0737 -0.2564
  758MOL0     C 4477   0.968   2.478   6.917  0.3550  0.5658 -0.1920
  758MOL0     C 4478   0.859   2.388   6.945  0.5851 -0.4292  1.1822
  758MOL0     C 4479   0.727   2.422   6.869 -0.2977  0.6035  1.0595
  758MOL0     C 4480   0.680   2.569   6.871  0.3080  0.7128  0.7610
  758MOL0     C 4481   0.537   2.573   6.836 -0.0363 -0.2347 -0.5023
  758MOL0     C 4482   0.488   2.718   6.861  0.7362 -0.2715  0.7949
  758MOL0     N 4483   0.344   2.734   6.841  0.2601 -0.0250 -0.7946
  758MOL0     C 4484   0.260   2.708   6.952 -0.6473 -0.3476  0.1503
  758MOL0     C 4485   0.143   2.777   6.921 -0.0708  0.4290 -0.5867
  758MOL0     C 4486   0.011   2.789   6.993  0.4874  0.0629 -1.3615
  758MOL0     C 4487  -0.088   2.667   6.992  0.9234 -0.2655  0.2282
  758MOL0     C 4488  -0.226   2.711   6.987  0.1514 -0.1478  0.8876
  758MOL0     C 4489  -0.320   2.590   6.970  0.1293 -0.0901 -0.9562
  758MOL0     O 4490  -0.308   2.495   7.075  0.9276  0.0499 -0.6709
  758MOL0     C 4491  -0.376   2.378   7.084  0.3785  0.1214 -0.1231
  758MOL0     C 4492  -0.351   2.312   7.200 -0.4804 -0.6172 -0.1403
  758MOL0     C 4493  -0.409   2.187   7.228  0.3180  0.2873  1.2309
  758MOL0     C 4494  -0.372   2.126   7.353 -1.2720 -0.1955 -0.0786
  758MOL0     C 4495  -0.486   2.114   7.127 -0.0874  0.4415  0.4932
  758MOL0     C 4496  -0.552   1.977   7.139 -0.6703 -0.5779  0.0819
  758MOL0     O 4497  -0.538   1.894   7.239  0.2070 -0.1575  0.1577
  758MOL0     C 4498  -0.664   1.835   7.279 -0.2192 -0.2862  0.3614
  758MOL0     C 4499  -0.709   1.719   7.215 -0.1236 -0.2927 -0.3802
  758MOL0     C 4500  -0.815   1.655   7.259  0.5493  0.2514  0.6090
  758MOL0     C 4501  -0.890   1.703   7.379 -0.5821  0.0163  0.6019
  758MOL0     O 4502  -0.997   1.637   7.432 -0.4107  0.5933 -0.2242
  758MOL0     C 4503  -1.020   1.639   7.573 -0.2853 -0.1985  0.2948
  758MOL0     C 4504  -1.110   1.522   7.615  0.4724  0.1950 -0.1574
  758MOL0     C 4505  -1.244   1.537   7.536  0.2389 -0.4976 -0.1545
  758MOL0     C 4506  -1.358   1.450   7.585 -0.6622 -0.7611 -0.4221
  758MOL0     C 4507  -1.485   1.461   7.504  0.5873  0.2897  0.1767
  758MOL0     C 4508  -1.540   1.605   7.484 -0.5004 -0.2599 -0.0972
  758MOL0     C 4509  -1.667   1.611   7.406  0.1454  0.2860  0.4750
  758MOL0     C 4510  -1.693   1.752   7.373  0.4969 -0.6394  0.5214
  758MOL0    Cl 4511  -1.856   1.792   7.315  0.3718 -0.0504  0.0800
  758MOL0     C 4512  -0.844   1.828   7.440 -0.0757 -0.0154  0.9518
  758MOL0     C 4513  -0.732   1.890   7.391  0.7070  0.7645  0.3693
  758MOL0     O 4514  -0.631   1.962   7.047  0.3230  0.0102  0.0034
  758MOL0     C 4515  -0.510   2.192   7.010 -0.1167 -1.3046 -0.2179
  758MOL0     C 4516  -0.467   2.323   6.992  0.6630 -0.4843  0.6363
  758MOL0     N 4517   0.155   2.835   6.797  0.0804 -0.3368  0.2107
  758MOL0     N 4518   0.274   2.811   6.750  0.2875  0.3802  1.3041
  758MOL0     C 4519   1.375   2.531   6.875 -0.3141  0.2897 -0.2732
  758MOL0     C 4520   1.486   2.525   6.789 -0.6528  0.6235  0.5005
  758MOL0     C 4521   1.802   2.537   6.477  0.5417 -0.3029  0.3567
  758MOL0     C 4522   1.803   2.470   6.357  0.2482  1.0638 -0.2572
  758MOL0     C 4523   1.915   2.457   6.272 -0.0673  0.5117 -0.9271
  758MOL0     C 4524   2.034   2.518   6.321  0.4001 -0.7597 -0.0536
  758MOL0     O 4525   2.149   2.492   6.247 -0.0312 -0.3398 -0.0982
  758MOL0     C 4526   2.210   2.361   6.272 -1.3248  0.1699 -0.1150
  758MOL0     C 4527   2.322   2.372   6.373 -0.4639 -0.2337  0.4363
  758MOL0     C 4528   2.452   2.442   6.328 -0.5299 -0.7166 -0.3834
  758MOL0     C 4529   2.554   2.333   6.275 -0.5940 -0.0148 -0.5145
  758MOL0     C 4530   2.592   2.252   6.394  0.4492 -0.3260 -0.4481
  758MOL0     C 4531   2.649   2.196   6.476  0.7655  0.1841 -0.5270
  758MOL0     C 4532   2.027   2.597   6.440  0.9442 -0.2812  0.3281
  758MOL0     C 4533   1.917   2.596   6.524  0.0704  0.2507  0.4347
  758MOL0     C 4534   1.934   2.658   6.661 -0.3942  0.9951 -0.4965
  758MOL0     H 4535   1.534   2.865   6.711 -1.6170  3.2243  2.9371
  758MOL0     H 4536   1.298   2.861   6.812  1.8492  1.1278 -1.8796
  758MOL0     H 4537   1.106   2.636   7.128  0.0278 -1.6264  1.8285
  758MOL0     H 4538   1.261   2.549   7.103  0.0639 -0.9328 -0.4469
  758MOL0     H 4539   1.154   2.392   6.953  2.0794  1.4158  0.1733
  758MOL0     H 4540   1.054   2.393   7.093 -3.5313 -2.0664 -3.0884
  758MOL0     H 4541   0.931   2.578   6.938  0.6555  0.4059  1.2328
  758MOL0     H 4542   0.974   2.459   6.810  1.9569 -0.1483  0.0024
  758MOL0     H 4543   0.884   2.283   6.929 -1.2169 -1.1360  2.6798
  758MOL0     H 4544   0.831   2.385   7.050 -4.1221  1.5346  0.2104
  758MOL0     H 4545   0.649   2.360   6.913  2.7080 -2.2321  2.7951
  758MOL0     H 4546   0.736   2.410   6.760 -2.3048  2.3180  0.6335
  758MOL0     H 4547   0.696   2.597   6.976  1.8163 -0.6037  0.9363
  758MOL0     H 4548   0.744   2.632   6.809  1.4634  2.0197  3.1130
  758MOL0     H 4549   0.479   2.501   6.894  1.6612 -0.8217  0.5585
  758MOL0     H 4550   0.534   2.534   6.734  5.2852 -0.9609 -0.7006
  758MOL0     H 4551   0.518   2.756   6.958  0.4250 -0.0477  0.8069
  758MOL0     H 4552   0.533   2.785   6.787  1.2436 -1.5987 -0.1434
  758MOL0     H 4553   0.288   2.646   7.037  1.4234  0.8545  0.3989
  758MOL0     H 4554  -0.040   2.867   6.935  0.5555 -0.3364 -1.9564
  758MOL0     H 4555   0.036   2.819   7.096  2.6031 -2.1092 -1.1663
  758MOL0     H 4556  -0.063   2.596   6.912  0.2666  0.4011 -0.5858
  758MOL0     H 4557  -0.077   2.613   7.087  2.2322  1.1823  0.9265
  758MOL0     H 4558  -0.264   2.756   7.079 -2.1197  1.7898 -0.8503
  758MOL0     H 4559  -0.239   2.785   6.907  0.8572 -1.9904 -1.0469
  758MOL0     H 4560  -0.420   2.634   6.966  0.2010  1.0977  3.9717
  758MOL0     H 4561  -0.319   2.543   6.871  0.7053 -1.3185 -0.3929
  758MOL0     H 4562  -0.283   2.358   7.271 -0.4550 -3.2077  1.6411
  758MOL0     H 4563  -0.279   2.161   7.399 -1.9808  0.4368  0.9215
  758MOL0     H 4564  -0.364   2.017   7.348  2.8227  0.0067 -4.4031
  758MOL0     H 4565  -0.439   2.158   7.434 -0.1223  4.1541 -0.6194
  758MOL0     H 4566  -0.651   1.684   7.131  1.4778 -1.3323  1.1057
  758MOL0     H 4567  -0.856   1.565   7.213 -1.6809  1.7380 -0.4710
  758MOL0     H 4568  -0.924   1.636   7.625 -0.4721 -0.2414  0.6466
  758MOL0     H 4569  -1.086   1.721   7.602 -1.7614 -0.8549 -1.0573
  758MOL0     H 4570  -1.056   1.430   7.592  3.8152  2.1073 -0.7128
  758MOL0     H 4571  -1.123   1.535   7.723 -2.1360 -1.5795 -0.1544
  758MOL0     H 4572  -1.228   1.510   7.431 -0.5043 -0.3164 -0.3211
  758MOL0     H 4573  -1.265   1.645   7.537 -0.1689 -0.5683  1.1242
  758MOL0     H 4574  -1.371   1.476   7.690 -1.1638  1.1680 -0.9046
  758MOL0     H 4575  -1.335   1.343   7.585  0.1249 -0.6004 -0.5341
  758MOL0     H 4576  -1.472   1.426   7.401  0.8441  0.5899  0.1050
  758MOL0     H 4577  -1.558   1.406   7.564 -1.8180  0.5926 -2.2658
  758MOL0     H 4578  -1.463   1.645   7.418  1.9439 -2.7396  1.0545
  758MOL0     H 4579  -1.556   1.647   7.584 -1.8864 -1.9564  0.4444
  758MOL0     H 4580  -1.752   1.575   7.466 -0.2553  3.2123  1.8058
  758MOL0     H 4581  -1.662   1.550   7.315  1.8498 -0.2249  0.8747
  758MOL0     H 4582  -1.626   1.792   7.296  0.8803 -2.0085  0.1069
  758MOL0     H 4583  -1.671   1.810   7.463 -0.7331 -0.8547  0.9692
  758MOL0     H 4584  -0.897   1.872   7.524 -0.8008 -1.0436  1.0656
  758MOL0     H 4585  -0.693   1.974   7.448 -0.9982  0.6949  1.7275
  758MOL0     H 4586  -0.559   2.159   6.919 -0.6210  2.0719 -1.3094
  758MOL0     H 4587  -0.492   2.373   6.898  0.2963  0.4133  1.1977
  758MOL0     H 4588   1.340   2.443   6.927  1.4686 -1.0669 -1.2522
  758MOL0     H 4589   1.534   2.427   6.786  1.0338  1.4222  0.3593
  758MOL0     H 4590   1.715   2.414   6.326  1.9186 -2.5749  1.0281
  758MOL0     H 4591   1.911   2.389   6.188 -2.3444 -1.6078  0.7325
  758MOL0     H 4592   2.144   2.279   6.303 -0.5920 -0.4492 -0.1874
  758MOL0     H 4593   2.253   2.315   6.183 -0.4706  1.0617 -0.1776
  758MOL0     H 4594   2.336   2.270   6.411 -1.8774 -0.8323 -0.5758
  758MOL0     H 4595   2.288   2.441   6.449  0.6338  1.9251 -0.9321
  758MOL0     H 4596   2.429   2.504   6.241  2.3441 -3.7794 -3.6851
  758MOL0     H 4597   2.494   2.502   6.409 -0.3972 -0.4517 -0.6467
  758MOL0     H 4598   2.646   2.370   6.230 -0.4529 -0.1592 -0.3460
  758MOL0     H 4599   2.526   2.255   6.204  2.3967 -2.3787  0.6968
  758MOL0     H 4600   2.708   2.156   6.556  2.1713  3.0274 -0.0280
  758MOL0     H 4601   2.113   2.633   6.495  2.0197 -1.0085 -0.8038
  758MOL0     H 4602   2.037   2.680   6.691  0.5815 -1.5838 -1.6151
  758MOL0     H 4603   1.880   2.753   6.674 -1.5376  0.7688 -3.0076
  758MOL0     H 4604   1.900   2.579   6.728 -2.3849  0.8939 -1.5401
  759MOL0     O 4605   2.243   6.058   3.704 -0.8945  0.1942 -0.2702
  759MOL0     C 4606   2.304   6.161   3.674 -0.1858  0.0010  0.4303
  759MOL0     O 4607   2.244   6.284   3.680 -1.4370 -0.1571 -0.1192
  759MOL0     C 4608   2.121   6.309   3.718  1.3658  0.1689  0.6112
  759MOL0     C 4609   2.087   6.315   3.853  0.0689  0.0878  0.4483
  759MOL0     C 4610   1.966   6.375   3.890  0.3673 -0.3834  0.4099
  759MOL0     C 4611   1.879   6.425   3.787 -0.3929  0.0327 -0.0088
  759MOL0     O 4612   1.753   6.460   3.837 -0.2331 -0.5223  0.6595
  759MOL0     C 4613   1.632   6.443   3.763 -1.0613  0.1928 -0.6298
  759MOL0     C 4614   1.528   6.394   3.871  0.2275  0.8738  0.6659
  759MOL0     C 4615   1.385   6.394   3.807 -0.3984 -0.6427 -0.7174
  759MOL0     C 4616   1.311   6.525   3.811  0.0971 -0.5438 -0.3677
  759MOL0     C 4617   1.164   6.522   3.778 -0.7238 -0.5945 -0.4278
  759MOL0     C 4618   1.099   6.660   3.795 -0.1315 -0.1159 -0.4287
  759MOL0     C 4619   0.954   6.649   3.743  1.4177 -0.2162 -0.4597
  759MOL0     C 4620   0.897   6.792   3.705 -0.9116  0.1388  0.0964
  759MOL0     N 4621   0.751   6.783   3.664 -1.4534 -0.0993 -0.3974
  759MOL0     C 4622   0.705   6.749   3.538 -0.3938  0.2388  0.0861
  759MOL0     C 4623   0.575   6.747   3.549  0.3383 -1.2225 -0.2152
  759MOL0     C 4624   0.486   6.731   3.431  0.3148 -0.2999 -0.3492
  759MOL0     C 4625   0.475   6.581   3.413  0.0426  0.5011  0.8772
  759MOL0     C 4626   0.357   6.548   3.313 -0.1971 -0.7922 -0.1029
  759MOL0     C 4627   0.344   6.401   3.308 -0.0197 -0.8698 -0.0324
  759MOL0     O 4628   0.217   6.352   3.256  0.1188  0.3706 -0.2482
  759MOL0     C 4629   0.193   6.215   3.251  0.5809 -0.6036 -0.8369
  759MOL0     C 4630   0.101   6.156   3.164 -0.6181 -0.3181 -0.4126
  759MOL0     C 4631   0.082   6.015   3.164 -0.2099 -0.4119  0.4325
  759MOL0     C 4632  -0.022   5.951   3.079  0.5005  0.4955  0.3787
  759MOL0     C 4633   0.171   5.934   3.246  0.0721  0.9428 -0.6902
  759MOL0     C 4634   0.160   5.782   3.239  0.0813 -0.5886 -0.2377
  759MOL0     O 4635   0.073   5.718   3.315 -0.2666 -0.0716 -0.5283
  759MOL0     C 4636   0.051   5.589   3.294  0.1862  0.8357  0.0650
  759MOL0     C 4637   0.067   5.523   3.170  0.2145  0.4895 -0.1877
  759MOL0     C 4638   0.031   5.390   3.153  0.3304 -0.5154 -0.9175
  759MOL0     C 4639  -0.028   5.324   3.257  0.6274  0.6706 -0.5953
  759MOL0     O 4640  -0.061   5.188   3.245  0.4007  0.4182  0.4360
  759MOL0     C 4641  -0.178   5.138   3.319  0.5227  0.7797 -0.1913
  759MOL0     C 4642  -0.203   4.988   3.279  0.3624  0.6727 -0.2824
  759MOL0     C 4643  -0.114   4.890   3.366  0.3077  0.1927  1.1929
  759MOL0     C 4644  -0.152   4.746   3.326  0.0992  0.0167  0.0803
  759MOL0     C 4645  -0.129   4.652   3.442 -0.3777  0.3569 -0.8328
  759MOL0     C 4646  -0.168   4.508   3.423  0.2822  0.0496  0.7089
  759MOL0     C 4647  -0.103   4.419   3.520  0.1760  0.8497 -0.3024
  759MOL0     C 4648  -0.160   4.281   3.504 -0.0496  0.0830  0.1415
  759MOL0    Cl 4649  -0.095   4.212   3.354 -0.5039 -0.3125  0.0284
  759MOL0     C 4650  -0.047   5.393   3.376  0.2781 -0.6160  0.2626
  759MOL0     C 4651  -0.015   5.525   3.391  0.1413  0.5256  0.6957
  759MOL0     O 4652   0.261   5.732   3.189  0.2408  0.5334 -0.3000
  759MOL0     C 4653   0.268   5.996   3.313  0.0487 -0.6098  0.9128
  759MOL0     C 4654   0.278   6.129   3.326 -0.0738 -0.0901  0.6170
  759MOL0     N 4655   0.546   6.750   3.682 -0.2209  0.8047 -0.6537
  759MOL0     N 4656   0.652   6.763   3.753 -0.0708  0.2297  0.0235
  759MOL0     C 4657   1.912   6.415   3.653 -0.2328 -0.0246  1.3650
  759MOL0     C 4658   2.033   6.351   3.616  0.0584 -0.1105 -0.5894
  759MOL0     C 4659   2.457   6.162   3.653 -0.7819  0.0111  0.8202
  759MOL0     C 4660   2.524   6.283   3.656  0.9012 -0.1659  0.7048
  759MOL0     C 4661   2.664   6.290   3.636 -0.4637  0.3731 -0.3846
  759MOL0     C 4662   2.735   6.172   3.627 -0.4844 -0.2381  0.0058
  759MOL0     O 4663   2.870   6.167   3.620  0.0527  0.0602 -0.4284
  759MOL0     C 4664   2.949   6.232   3.722 -0.2380  0.5351 -0.3535
  759MOL0     C 4665   3.091   6.248   3.682 -1.0581  0.3279  0.7622
  759MOL0     C 4666   3.098   6.341   3.554 -0.4372  0.2282  0.2081
  759MOL0     C 4667   3.242   6.369   3.506 -0.1049 -0.5665 -0.6231
  759MOL0     C 4668   3.317   6.438   3.619 -0.3107 -0.6005 -0.0022
  759MOL0     C 4669   3.377   6.496   3.711 -1.3010 -0.1369  0.3162
  759MOL0     C 4670   2.671   6.050   3.619 -0.1370 -1.1322  0.7858
  759MOL0     C 4671   2.536   6.046   3.627 -0.3544 -0.3979  0.4012
  759MOL0     C 4672   2.476   5.916   3.615  0.4941 -0.6235  0.4097
  759MOL0     H 4673   2.151   6.264   3.925  0.4455 -1.1525 -0.7255
  759MOL0     H 4674   1.946   6.371   3.997 -0.0060  1.5885  0.4598
  759MOL0     H 4675   1.643   6.370   3.682 -2.1811 -0.3642 -0.2980
  759MOL0     H 4676   1.588   6.534   3.721 -1.5529 -0.5311 -1.7332
  759MOL0     H 4677   1.548   6.291   3.899 -0.8577  0.5700  0.3674
  759MOL0     H 4678   1.532   6.465   3.955  0.5915  1.3400  0.2620
  759MOL0     H 4679   1.381   6.352   3.705  1.1578  0.3120 -1.2032
  759MOL0     H 4680   1.321   6.324   3.862 -1.1740 -1.8545 -3.0281
  759MOL0     H 4681   1.324   6.563   3.913  1.1088  2.4653 -1.5234
  759MOL0     H 4682   1.357   6.600   3.747 -3.0914  0.9449 -1.1287
  759MOL0     H 4683   1.115   6.455   3.849 -2.0258  2.6581  1.9486
  759MOL0     H 4684   1.151   6.499   3.671  1.3237  0.7344 -1.0300
  759MOL0     H 4685   1.093   6.707   3.893 -0.4794  0.2482 -0.6197
  759MOL0     H 4686   1.150   6.727   3.725 -1.5603  0.0745 -1.3323
  759MOL0     H 4687   0.891   6.605   3.821 -1.1496  2.7848 -0.6338
  759MOL0     H 4688   0.949   6.587   3.654 -0.2875 -1.5139  0.4934
  759MOL0     H 4689   0.892   6.843   3.802 -2.2116  0.4442 -0.1188
  759MOL0     H 4690   0.950   6.853   3.632 -1.9413  1.1700  0.1842
  759MOL0     H 4691   0.771   6.734   3.453  1.8319  0.5406  1.6553
  759MOL0     H 4692   0.529   6.772   3.339 -1.2934 -1.1181 -1.5172
  759MOL0     H 4693   0.392   6.783   3.451  2.0855  4.2156 -2.3710
  759MOL0     H 4694   0.568   6.542   3.371 -0.3075  0.3381  0.2380
  759MOL0     H 4695   0.451   6.540   3.511 -3.6607  1.8423  0.6971
  759MOL0     H 4696   0.266   6.596   3.351 -0.7385  0.5207 -2.7532
  759MOL0     H 4697   0.377   6.587   3.212  0.1055 -0.7118 -0.0135
  759MOL0     H 4698   0.430   6.356   3.257  0.0293 -0.1387 -0.6095
  759MOL0     H 4699   0.347   6.370   3.413  2.9962 -1.7220 -0.2681
  759MOL0     H 4700   0.036   6.211   3.098  0.1954  1.4472  0.1982
  759MOL0     H 4701   0.016   5.899   2.991  0.5866  0.3388  0.5076
  759MOL0     H 4702  -0.100   6.022   3.049 -1.3993 -2.2069 -1.5622
  759MOL0     H 4703  -0.075   5.879   3.142 -0.5753  1.5641  0.7363
  759MOL0     H 4704   0.108   5.572   3.083 -0.4965  0.9975 -0.2450
  759MOL0     H 4705   0.044   5.348   3.054 -0.7377  0.4108 -1.4790
  759MOL0     H 4706  -0.171   5.152   3.427 -0.7315  4.5219 -0.4708
  759MOL0     H 4707  -0.263   5.198   3.286 -0.9415 -0.5721  0.9615
  759MOL0     H 4708  -0.304   4.954   3.301  0.8953 -1.0232 -0.2754
  759MOL0     H 4709  -0.177   4.971   3.174  2.2299  2.4279 -0.1647
  759MOL0     H 4710  -0.133   4.896   3.474  0.9705 -2.1072  1.4984
  759MOL0     H 4711  -0.009   4.906   3.340  0.2403  1.5492  1.6410
  759MOL0     H 4712  -0.086   4.731   3.240  0.7514  1.4378  0.3081
  759MOL0     H 4713  -0.254   4.737   3.286 -1.1688 -0.3642  3.1445
  759MOL0     H 4714  -0.023   4.658   3.471 -1.0300  2.1869  1.4277
  759MOL0     H 4715  -0.182   4.690   3.529  1.1540  2.0706 -0.5769
  759MOL0     H 4716  -0.135   4.487   3.321 -3.6942  0.6744 -0.8693
  759MOL0     H 4717  -0.277   4.502   3.419  0.3186 -0.2757  0.0473
  759MOL0     H 4718  -0.138   4.450   3.619 -2.4644 -0.9261 -0.5698
  759MOL0     H 4719   0.006   4.421   3.513  0.0929  3.0374 -3.1872
  759MOL0     H 4720  -0.269   4.286   3.491  0.0280  0.9154 -0.2689
  759MOL0     H 4721  -0.125   4.222   3.589 -0.4866  2.3462  1.9904
  759MOL0     H 4722  -0.109   5.368   3.461  0.2328  1.7889  1.0266
  759MOL0     H 4723  -0.042   5.580   3.480 -0.8467  0.2783  0.5577
  759MOL0     H 4724   0.340   5.928   3.359  0.4717 -0.7605  0.0341
  759MOL0     H 4725   0.358   6.149   3.397  2.2301  4.0151 -2.6872
  759MOL0     H 4726   1.858   6.450   3.565  2.7442 -2.4882 -1.7186
  759MOL0     H 4727   2.070   6.334   3.515  2.5519 -1.1871  0.4269
  759MOL0     H 4728   2.474   6.380   3.660  1.4372  0.2198 -1.0978
  759MOL0     H 4729   2.717   6.384   3.643  1.2370 -0.5339 -0.5351
  759MOL0     H 4730   2.917   6.334   3.744  1.1989  1.0969 -0.7561
  759MOL0     H 4731   2.939   6.184   3.820  2.7511 -1.7006 -0.9942
  759MOL0     H 4732   3.136   6.149   3.673 -1.7525  0.1076 -0.4909
  759MOL0     H 4733   3.148   6.306   3.755  0.6267  1.0325 -1.0347
  759MOL0     H 4734   3.032   6.304   3.475 -0.8298  1.3538 -0.0020
  759MOL0     H 4735   3.049   6.436   3.571 -1.3669  0.4796 -3.1504
  759MOL0     H 4736   3.240   6.434   3.418 -1.7091  0.7322  0.3007
  759MOL0     H 4737   3.292   6.279   3.471  2.0642  1.1339 -2.1806
  759MOL0     H 4738   3.424   6.542   3.797 -1.0850 -0.8695  0.6026
  759MOL0     H 4739   2.734   5.963   3.602  1.3843  0.1545 -0.6035
  759MOL0     H 4740   2.554   5.841   3.628  2.4727  0.8291 -2.0706
  759MOL0     H 4741   2.397   5.897   3.688 -2.5068  0.6919 -2.2296
  759MOL0     H 4742   2.440   5.905   3.512  0.3006  2.2046  0.0795
  760MOL0     O 4743   5.675   0.273   2.222  0.2607  0.6604  0.6651
  760MOL0     C 4744   5.664   0.203   2.318 -0.2015 -0.2840 -0.3332
  760MOL0     O 4745   5.773   0.175   2.407  0.4374 -0.2098  0.4937
  760MOL0     C 4746   5.890   0.248   2.378  0.1705 -0.1254 -0.1155
  760MOL0     C 4747   5.969   0.212   2.271  0.1363  0.9547 -0.3212
  760MOL0     C 4748   6.078   0.282   2.234  0.3013  0.2884  0.5563
  760MOL0     C 4749   6.109   0.402   2.308 -0.3863  0.6328  0.3866
  760MOL0     O 4750   6.225   0.483   2.278 -0.4527 -0.5950 -0.6197
  760MOL0     C 4751   6.319   0.451   2.177 -0.5282  0.6826  0.0516
  760MOL0     C 4752   6.431   0.555   2.181  0.4036  0.8252 -0.0399
  760MOL0     C 4753   6.552   0.502   2.112  0.4029 -0.6674  0.2286
  760MOL0     C 4754   6.525   0.504   1.959  0.0948 -0.9995  0.5939
  760MOL0     C 4755   6.511   0.358   1.903  0.3026 -0.2929  0.9894
  760MOL0     C 4756   6.616   0.244   1.937 -0.5126 -0.9019  0.0318
  760MOL0     C 4757   6.759   0.258   1.894 -0.5467  0.0227  0.1865
  760MOL0     C 4758   6.856   0.173   1.980  0.1762  1.1397 -0.3472
  760MOL0     N 4759   6.845   0.210   2.127 -0.0651  0.3689  0.4570
  760MOL0     C 4760   6.765   0.147   2.215 -0.5920  0.2963  0.4137
  760MOL0     C 4761   6.792   0.210   2.333 -0.5454  0.5716  0.2144
  760MOL0     C 4762   6.714   0.201   2.464  0.3594 -0.2697  0.4921
  760MOL0     C 4763   6.602   0.303   2.448  1.0041  0.8923  0.0898
  760MOL0     C 4764   6.504   0.283   2.575 -0.8906  0.4021 -0.2051
  760MOL0     C 4765   6.382   0.371   2.564 -0.5696  0.2840  1.0803
  760MOL0     O 4766   6.419   0.507   2.567  0.4866 -0.0214  0.6977
  760MOL0     C 4767   6.316   0.597   2.603 -0.4788 -0.2498 -0.6540
  760MOL0     C 4768   6.208   0.570   2.687 -0.5669  0.0457 -0.5089
  760MOL0     C 4769   6.116   0.669   2.729  0.5981 -0.4164  0.5292
  760MOL0     C 4770   6.004   0.625   2.807 -0.0696 -0.2386 -0.5858
  760MOL0     C 4771   6.137   0.800   2.678 -0.1861  0.0514  0.3432
  760MOL0     C 4772   6.028   0.901   2.704  0.5992 -0.2370  0.0689
  760MOL0     O 4773   5.903   0.879   2.650 -0.0864 -0.0503  0.2853
  760MOL0     C 4774   5.797   0.948   2.695  0.7510 -0.4689  0.4489
  760MOL0     C 4775   5.703   0.976   2.588 -0.2764  0.0745  0.6346
  760MOL0     C 4776   5.593   1.056   2.622 -0.2922 -0.0637  1.2106
  760MOL0     C 4777   5.573   1.115   2.752 -0.6816  0.3286 -0.5412
  760MOL0     O 4778   5.463   1.193   2.767 -0.1112  0.1625  0.4836
  760MOL0     C 4779   5.413   1.242   2.890  0.7988 -0.4394 -0.1501
  760MOL0     C 4780   5.317   1.363   2.887 -0.2734  0.0126 -0.5935
  760MOL0     C 4781   5.187   1.346   2.809 -0.4157 -0.2621 -0.0073
  760MOL0     C 4782   5.135   1.482   2.759 -0.0356  0.0327  0.7171
  760MOL0     C 4783   5.042   1.487   2.643 -0.9870  0.5638  0.9633
  760MOL0     C 4784   4.919   1.392   2.675  0.6405  0.1734  0.0178
  760MOL0     C 4785   4.820   1.397   2.560 -0.6030  0.0934  0.2592
  760MOL0     C 4786   4.731   1.270   2.570 -0.5733  0.6122  0.6890
  760MOL0    Cl 4787   4.641   1.284   2.414  0.4554 -0.0119  0.3438
  760MOL0     C 4788   5.667   1.083   2.851  0.3622 -0.0031  0.5107
  760MOL0     C 4789   5.778   1.001   2.820 -0.3679 -0.0281 -1.2380
  760MOL0     O 4790   6.059   1.006   2.762 -0.4059  0.4193 -0.4053
  760MOL0     C 4791   6.250   0.831   2.600 -1.6119  0.8718 -0.8596
  760MOL0     C 4792   6.342   0.727   2.565  0.3144 -0.8893  0.3737
  760MOL0     N 4793   6.885   0.300   2.310 -0.9294 -0.2662 -0.2883
  760MOL0     N 4794   6.918   0.302   2.187  0.2236  0.0564 -0.1435
  760MOL0     C 4795   6.031   0.429   2.421  0.8587  0.1614 -0.3557
  760MOL0     C 4796   5.916   0.358   2.460  0.3349 -0.4893  0.1612
  760MOL0     C 4797   5.533   0.131   2.333 -0.0563 -0.9454 -0.0489
  760MOL0     C 4798   5.471   0.100   2.214 -0.2613  0.2056  0.4309
  760MOL0     C 4799   5.354   0.022   2.217 -0.1163  0.1312  0.5511
  760MOL0     C 4800   5.292  -0.015   2.341  0.0937 -0.7263  0.1719
  760MOL0     O 4801   5.168  -0.077   2.343 -0.3104  0.1006 -0.1324
  760MOL0     C 4802   5.117  -0.140   2.225  0.0505 -0.0769 -0.5476
  760MOL0     C 4803   5.027  -0.049   2.137 -0.6805 -0.1004  0.1975
  760MOL0     C 4804   4.887  -0.016   2.203  0.7008  0.7827  0.6813
  760MOL0     C 4805   4.813   0.100   2.148 -0.4607 -0.3555  0.9472
  760MOL0     C 4806   4.685   0.115   2.211 -0.3681  0.2297  0.4507
  760MOL0     C 4807   4.573   0.125   2.258  0.3523 -0.1684  0.0096
  760MOL0     C 4808   5.358   0.023   2.458  1.0820  0.4068 -0.2961
  760MOL0     C 4809   5.476   0.093   2.460 -0.7678 -0.3461 -0.9060
  760MOL0     C 4810   5.558   0.099   2.585  0.3034 -0.8019 -0.4573
  760MOL0     H 4811   5.946   0.125   2.212  1.3236 -0.6552  1.4464
  760MOL0     H 4812   6.143   0.258   2.151 -0.8066 -1.8795  0.2339
  760MOL0     H 4813   6.280   0.468   2.076 -0.8055 -0.7245 -0.1059
  760MOL0     H 4814   6.357   0.349   2.190 -1.5929  0.1597 -0.6855
  760MOL0     H 4815   6.391   0.649   2.142 -0.0490  0.8722  0.5214
  760MOL0     H 4816   6.447   0.577   2.287 -1.3607 -1.5866  0.8358
  760MOL0     H 4817   6.636   0.571   2.124 -1.9725  2.8762 -1.5904
  760MOL0     H 4818   6.579   0.403   2.150  1.3582 -0.8385 -0.8281
  760MOL0     H 4819   6.429   0.554   1.945 -0.3502 -0.5244  4.3792
  760MOL0     H 4820   6.600   0.570   1.913 -1.1059  0.4113  0.6028
  760MOL0     H 4821   6.505   0.361   1.794 -3.0449  0.6482  1.0822
  760MOL0     H 4822   6.411   0.328   1.935  0.0777  1.4601  2.0421
  760MOL0     H 4823   6.601   0.223   2.044 -5.2468  1.8404  0.1911
  760MOL0     H 4824   6.578   0.162   1.875  0.0509  2.0081 -4.5650
  760MOL0     H 4825   6.797   0.356   1.922  2.7598 -1.0814  0.0215
  760MOL0     H 4826   6.774   0.244   1.786  3.1615 -0.1509  0.5916
  760MOL0     H 4827   6.827   0.070   1.954  1.5210  0.7485 -0.3918
  760MOL0     H 4828   6.957   0.182   1.938  0.4137  1.9146  0.3808
  760MOL0     H 4829   6.687   0.073   2.202 -1.0745 -0.0390  4.0562
  760MOL0     H 4830   6.774   0.225   2.552 -1.5054 -0.2212  1.8164
  760MOL0     H 4831   6.674   0.100   2.478  1.8883 -1.0667 -0.6215
  760MOL0     H 4832   6.645   0.403   2.446 -0.0473  1.3686  0.6816
  760MOL0     H 4833   6.550   0.287   2.353  0.7480 -2.4894  0.6657
  760MOL0     H 4834   6.465   0.181   2.579 -0.6025  0.3283  1.9689
  760MOL0     H 4835   6.551   0.295   2.674 -1.8677 -1.1482  0.4834
  760MOL0     H 4836   6.332   0.351   2.469  1.4086 -0.0956  0.0654
  760MOL0     H 4837   6.311   0.345   2.644 -1.3619  2.1865  1.0473
  760MOL0     H 4838   6.195   0.468   2.723 -0.1807  0.0130 -0.4582
  760MOL0     H 4839   6.003   0.693   2.893  3.9031 -0.4060 -0.2415
  760MOL0     H 4840   6.034   0.526   2.841  0.8454  0.2127 -0.0387
  760MOL0     H 4841   5.905   0.614   2.761 -0.2131 -2.4049  0.1330
  760MOL0     H 4842   5.710   0.921   2.495  2.2077  0.5402  0.4833
  760MOL0     H 4843   5.504   1.074   2.562 -1.3257 -0.4755  2.5629
  760MOL0     H 4844   5.355   1.156   2.928 -0.7482  0.3045 -0.7432
  760MOL0     H 4845   5.489   1.258   2.967 -0.4636 -1.5574  1.4030
  760MOL0     H 4846   5.289   1.393   2.988 -3.2612  0.0896 -1.3433
  760MOL0     H 4847   5.383   1.438   2.843 -0.6097 -1.0855 -3.1305
  760MOL0     H 4848   5.108   1.308   2.874  0.9306  0.5266  2.1811
  760MOL0     H 4849   5.197   1.278   2.724 -2.3684 -1.7927  0.8931
  760MOL0     H 4850   5.222   1.543   2.734 -1.0932  2.2297  2.0463
  760MOL0     H 4851   5.083   1.524   2.846  1.4087  0.2364  1.5156
  760MOL0     H 4852   5.016   1.590   2.616 -2.2917  0.5197  1.9471
  760MOL0     H 4853   5.092   1.437   2.560 -0.4253 -1.3130  2.3815
  760MOL0     H 4854   4.888   1.410   2.778  1.0144  2.5482 -0.2191
  760MOL0     H 4855   4.952   1.288   2.676 -0.3528 -0.1410  0.5957
  760MOL0     H 4856   4.874   1.403   2.465 -0.5142 -1.0928  0.2218
  760MOL0     H 4857   4.760   1.488   2.577  0.8118  0.9614  0.8299
  760MOL0     H 4858   4.662   1.259   2.655 -2.1915  1.6694 -0.4235
  760MOL0     H 4859   4.789   1.177   2.566 -1.2815  0.2140 -0.7579
  760MOL0     H 4860   5.674   1.136   2.946  1.8477  0.0476  0.3976
  760MOL0     H 4861   5.852   0.988   2.899  1.3431  0.2225 -2.7346
  760MOL0     H 4862   6.264   0.936   2.575 -0.0729  0.9026  0.0080
  760MOL0     H 4863   6.437   0.752   2.518 -0.0494  0.9469  0.5379
  760MOL0     H 4864   6.062   0.511   2.485  2.5023  0.0598 -0.9700
  760MOL0     H 4865   5.855   0.387   2.545 -0.7093 -2.6317  0.1978
  760MOL0     H 4866   5.502   0.129   2.114  0.4264 -1.8589  0.0005
  760MOL0     H 4867   5.313  -0.006   2.121  1.1518 -0.8913  0.2767
  760MOL0     H 4868   5.193  -0.184   2.159  1.5107 -0.2873  1.1818
  760MOL0     H 4869   5.051  -0.224   2.251 -0.1096 -0.2807 -1.5796
  760MOL0     H 4870   4.998  -0.108   2.049 -0.5698 -1.6492  1.1507
  760MOL0     H 4871   5.083   0.044   2.125 -1.2670  0.2043 -0.1992
  760MOL0     H 4872   4.823  -0.101   2.178  2.3787 -0.7456  1.3596
  760MOL0     H 4873   4.898  -0.007   2.312 -1.5749 -3.8551  1.5495
  760MOL0     H 4874   4.801   0.104   2.039  1.4709  0.9886  0.7259
  760MOL0     H 4875   4.871   0.186   2.182  0.3091  0.5015 -2.2038
  760MOL0     H 4876   4.475   0.138   2.297 -0.1730 -0.0804 -1.2887
  760MOL0     H 4877   5.322  -0.015   2.553  1.9956  0.0905 -0.0613
  760MOL0     H 4878   5.616   0.006   2.582  1.1302 -0.3208  0.1232
  760MOL0     H 4879   5.617   0.190   2.587  1.0111 -1.1860 -2.2187
  760MOL0     H 4880   5.501   0.102   2.679 -0.1103  2.4861 -0.6952
  761MOL0     O 4881   6.898  10.262   2.313 -0.3775  0.3071 -1.0471
  761MOL0     C 4882   6.821  10.343   2.366 -0.3362  0.5820 -0.5164
  761MOL0     O 4883   6.734  10.298   2.465 -0.1063 -0.4294  0.9309
  761MOL0     C 4884   6.747  10.180   2.537  0.5156  0.9356  1.3862
  761MOL0     C 4885   6.629  10.125   2.591 -0.2909 -0.1374 -1.1325
  761MOL0     C 4886   6.629  10.012   2.672 -0.6848 -0.2928  0.5678
  761MOL0     C 4887   6.751   9.941   2.695 -0.0153 -0.1683 -0.4620
  761MOL0     O 4888   6.756   9.817   2.753  0.6022 -0.2611  0.2374
  761MOL0     C 4889   6.629   9.742   2.753  0.8274 -0.2247  0.1963
  761MOL0     C 4890   6.560   9.752   2.886  0.1585  0.2342 -0.5559
  761MOL0     C 4891   6.428   9.676   2.900  0.0003  0.2150 -0.3469
  761MOL0     C 4892   6.367   9.682   3.045 -0.0930 -0.8572  0.7892
  761MOL0     C 4893   6.238   9.607   3.066  1.4695  0.0399  0.1258
  761MOL0     C 4894   6.176   9.629   3.202 -1.0068 -0.4461  0.1438
  761MOL0     C 4895   6.075   9.518   3.245  0.3603  0.2543  0.2739
  761MOL0     C 4896   6.020   9.555   3.383  0.3318 -0.3082 -0.5290
  761MOL0     N 4897   5.927   9.454   3.434 -1.0270 -0.9913  0.7043
  761MOL0     C 4898   5.968   9.333   3.475  0.2426  0.3820  0.8357
  761MOL0     C 4899   5.846   9.286   3.533 -0.4774  0.0305  0.2669
  761MOL0     C 4900   5.843   9.162   3.618  0.1291 -0.7856  0.4314
  761MOL0     C 4901   5.843   9.206   3.760 -0.3620 -0.9671  0.1469
  761MOL0     C 4902   5.882   9.077   3.849  0.6179  0.5366 -0.1072
  761MOL0     C 4903   5.805   9.067   3.978  0.4803  0.3896 -0.3527
  761MOL0     O 4904   5.817   9.195   4.036  0.2855  0.0255 -0.2627
  761MOL0     C 4905   5.876   9.215   4.155 -0.3046  0.1366  0.1275
  761MOL0     C 4906   5.993   9.158   4.190 -0.5353  0.3257 -0.7133
  761MOL0     C 4907   6.041   9.156   4.320 -0.7309 -0.6587 -1.3456
  761MOL0     C 4908   6.159   9.058   4.344  0.0803  0.7884 -0.5450
  761MOL0     C 4909   5.982   9.239   4.412 -0.1226 -0.4938  0.0373
  761MOL0     C 4910   6.036   9.261   4.546 -0.5903  0.4994 -0.4997
  761MOL0     O 4911   5.939   9.291   4.641  0.0277 -0.1383 -0.2520
  761MOL0     C 4912   5.974   9.324   4.770 -0.4102 -0.6377 -0.7035
  761MOL0     C 4913   6.010   9.462   4.819  1.6895 -0.2483  0.4552
  761MOL0     C 4914   6.055   9.482   4.947  0.1995  0.2180  0.4094
  761MOL0     C 4915   6.082   9.377   5.040 -0.9889  0.4579  1.1218
  761MOL0     O 4916   6.136   9.397   5.162 -0.2199  0.4977  0.2601
  761MOL0     C 4917   6.058   9.323   5.258  0.1806  0.6561 -0.0746
  761MOL0     C 4918   6.044   9.435   5.380  0.9684  0.4393 -0.4774
  761MOL0     C 4919   5.988   9.351   5.496  0.6152  0.1837  0.5935
  761MOL0     C 4920   5.978   9.444   5.623 -0.0198  0.1934  0.5570
  761MOL0     C 4921   5.935   9.372   5.747 -0.7897 -0.0497 -0.6265
  761MOL0     C 4922   6.024   9.259   5.799  0.1524 -1.1345  0.3963
  761MOL0     C 4923   5.949   9.200   5.916  0.1855 -0.3166 -0.4273
  761MOL0     C 4924   5.999   9.051   5.927  0.2701 -0.8586 -0.0894
  761MOL0    Cl 4925   5.876   8.947   5.994  0.0190  0.4923 -0.0414
  761MOL0     C 4926   6.048   9.242   4.996  0.5678  0.8240  0.7556
  761MOL0     C 4927   5.988   9.222   4.866 -0.4786  0.2431 -0.1617
  761MOL0     O 4928   6.157   9.247   4.568 -0.1035 -0.3548  0.3458
  761MOL0     C 4929   5.862   9.304   4.385  0.2768  0.3046 -0.5718
  761MOL0     C 4930   5.811   9.289   4.255  0.7819  0.3165 -0.8114
  761MOL0     N 4931   5.743   9.385   3.520 -0.2716  0.0812  1.0238
  761MOL0     N 4932   5.796   9.491   3.455  0.2522  0.4942 -0.4089
  761MOL0     C 4933   6.868  10.003   2.648 -0.5839  0.1847 -0.0339
  761MOL0     C 4934   6.870  10.122   2.575  0.8297  0.4929  0.3446
  761MOL0     C 4935   6.827  10.495   2.364 -0.7716  0.8060  0.0405
  761MOL0     C 4936   6.717  10.568   2.425 -1.0824  1.4943  1.3590
  761MOL0     C 4937   6.710  10.705   2.411  0.0404 -0.5291 -0.4464
  761MOL0     C 4938   6.828  10.771   2.376  0.8028  0.4947  0.4618
  761MOL0     O 4939   6.831  10.907   2.371 -1.3648 -0.1590  0.9353
  761MOL0     C 4940   6.728  10.979   2.304  0.7782 -0.1294  0.2765
  761MOL0     C 4941   6.778  11.110   2.251 -0.0213 -0.3410 -0.3194
  761MOL0     C 4942   6.863  11.108   2.120 -0.0462 -0.0841 -1.4618
  761MOL0     C 4943   6.977  11.007   2.137 -0.1814  0.9864  0.4889
  761MOL0     C 4944   7.076  11.038   2.037  0.1315  0.9241  1.1302
  761MOL0     C 4945   7.140  11.044   1.937 -0.0479  0.8503  0.0911
  761MOL0     C 4946   6.939  10.702   2.335  0.2753  0.1198  0.5100
  761MOL0     C 4947   6.945  10.565   2.321  0.0590  0.1796  0.2476
  761MOL0     C 4948   7.073  10.495   2.273  0.4958 -0.3458 -1.0064
  761MOL0     H 4949   6.538  10.183   2.580 -0.2447  0.1903  0.0311
  761MOL0     H 4950   6.536   9.982   2.720 -0.2048 -4.7122 -0.8083
  761MOL0     H 4951   6.653   9.637   2.735 -1.0708 -0.2936 -2.6372
  761MOL0     H 4952   6.574   9.778   2.665 -2.0564 -2.3657  0.9554
  761MOL0     H 4953   6.628   9.730   2.970  0.2734  0.4411 -0.5939
  761MOL0     H 4954   6.535   9.858   2.897  2.9020  1.1055 -1.9024
  761MOL0     H 4955   6.360   9.718   2.825  1.8028  0.7856 -1.7394
  761MOL0     H 4956   6.451   9.571   2.884 -0.7209 -0.0501  0.2748
  761MOL0     H 4957   6.440   9.658   3.123 -0.1390 -1.7338  0.5774
  761MOL0     H 4958   6.333   9.785   3.057 -3.3124 -1.9166  1.7667
  761MOL0     H 4959   6.264   9.501   3.053 -0.1417 -0.1911 -1.8412
  761MOL0     H 4960   6.161   9.621   2.990  0.5904  0.0032  0.9957
  761MOL0     H 4961   6.251   9.641   3.281 -3.0398  3.0097  1.7273
  761MOL0     H 4962   6.119   9.722   3.198 -0.8383 -0.3824 -0.9015
  761MOL0     H 4963   6.123   9.419   3.240 -2.4373 -1.5497  4.1272
  761MOL0     H 4964   5.998   9.525   3.167  4.0563  2.5368 -3.6129
  761MOL0     H 4965   6.108   9.571   3.447  0.8757  0.2245 -1.3988
  761MOL0     H 4966   5.963   9.647   3.369 -3.2611 -1.5941  3.4891
  761MOL0     H 4967   6.065   9.286   3.477  1.7980  2.5654 -4.7319
  761MOL0     H 4968   5.927   9.097   3.593  2.0622  1.7661 -0.1485
  761MOL0     H 4969   5.743   9.121   3.597 -0.0117  1.0676 -3.3561
  761MOL0     H 4970   5.923   9.278   3.777  0.7638 -2.4076  1.1168
  761MOL0     H 4971   5.749   9.256   3.787 -1.3306 -3.6206  2.2059
  761MOL0     H 4972   5.870   8.985   3.791 -1.3952  0.6617  0.0100
  761MOL0     H 4973   5.987   9.086   3.875  0.4920  1.0180  0.2496
  761MOL0     H 4974   5.697   9.052   3.965  0.5847 -3.2840  1.6562
  761MOL0     H 4975   5.834   8.981   4.039 -1.1909  0.0642  0.0304
  761MOL0     H 4976   6.044   9.100   4.113 -2.0949 -3.5583  0.8816
  761MOL0     H 4977   6.136   8.975   4.276 -1.2308 -0.1529  0.9769
  761MOL0     H 4978   6.152   9.013   4.444  2.8369  2.3082  0.4384
  761MOL0     H 4979   6.253   9.108   4.320  2.9555 -2.9292  1.8058
  761MOL0     H 4980   6.000   9.551   4.758 -2.5209 -0.3417  0.7480
  761MOL0     H 4981   6.079   9.585   4.972  0.7901 -0.4230  2.7207
  761MOL0     H 4982   5.953   9.302   5.235  0.1925 -0.7989  1.0784
  761MOL0     H 4983   6.098   9.227   5.292 -2.6949 -1.7513 -2.8569
  761MOL0     H 4984   6.139   9.483   5.405  1.5964 -0.1168 -1.7140
  761MOL0     H 4985   5.975   9.518   5.360  1.2993  0.3132 -2.3843
  761MOL0     H 4986   6.058   9.268   5.515 -1.7848 -2.1437 -0.0543
  761MOL0     H 4987   5.892   9.302   5.478  0.8246 -0.3703  0.9235
  761MOL0     H 4988   5.897   9.515   5.604 -0.5105 -0.8585 -1.5846
  761MOL0     H 4989   6.069   9.498   5.652  1.0767 -1.4650  0.3906
  761MOL0     H 4990   5.936   9.449   5.825 -0.4108 -1.4892  0.8389
  761MOL0     H 4991   5.834   9.332   5.731 -0.6549 -0.1534 -1.2733
  761MOL0     H 4992   6.122   9.301   5.825  0.0009 -0.6822  0.2534
  761MOL0     H 4993   6.036   9.191   5.714 -0.5438 -0.5584 -0.1771
  761MOL0     H 4994   5.843   9.193   5.889 -0.2845 -0.1005  1.2419
  761MOL0     H 4995   5.956   9.245   6.015  0.9313 -1.8215  0.2280
  761MOL0     H 4996   6.092   9.037   5.983 -1.5484 -1.6776  2.9230
  761MOL0     H 4997   6.013   9.012   5.826 -0.0187  0.6749 -0.7455
  761MOL0     H 4998   6.084   9.154   5.048 -0.6160  0.2488  0.6500
  761MOL0     H 4999   5.970   9.124   4.824  0.3144 -1.7736  3.7473
  761MOL0     H 5000   5.819   9.382   4.446  0.7359 -0.1767  0.3784
  761MOL0     H 5001   5.709   9.325   4.241  0.2979  0.0801  1.5927
  761MOL0     H 5002   6.963   9.956   2.670  0.5355  1.4911 -1.8546
  761MOL0     H 5003   6.964  10.167   2.545  1.2600 -1.8356 -2.2313
  761MOL0     H 5004   6.642  10.519   2.485  0.5461  0.5843  2.7331
  761MOL0     H 5005   6.623  10.748   2.459  0.0774  0.6325 -1.3562
  761MOL0     H 5006   6.678  10.922   2.226  2.2405  2.0190 -2.3893
  761MOL0     H 5007   6.649  11.006   2.375 -1.5578 -3.0281 -0.9868
  761MOL0     H 5008   6.831  11.169   2.327 -3.7390  2.9601  0.0207
  761MOL0     H 5009   6.692  11.171   2.224 -1.1665 -0.8497  1.9051
  761MOL0     H 5010   6.801  11.081   2.034 -1.6780 -0.3851 -0.2459
  761MOL0     H 5011   6.899  11.208   2.096 -1.6987  1.1127  0.7233
  761MOL0     H 5012   6.948  10.902   2.136 -0.0506  0.8779  2.5513
  761MOL0     H 5013   7.019  11.028   2.237 -0.4478 -2.0210  1.3157
  761MOL0     H 5014   7.199  11.042   1.847  2.0301 -0.0905  1.3981
  761MOL0     H 5015   7.027  10.763   2.317  0.2543  1.0386  3.1903
  761MOL0     H 5016   7.152  10.567   2.249 -1.2150  0.9215 -3.2224
  761MOL0     H 5017   7.095  10.411   2.339  1.2020 -0.1388 -0.9653
  761MOL0     H 5018   7.047  10.442   2.181  1.8935 -3.0423  0.0500
  762MOL0     O 5019   6.269   3.155   1.825  0.5364  0.7423 -0.3805
  762MOL0     C 5020   6.353   3.099   1.757 -0.2981 -0.4645  0.1313
  762MOL0     O 5021   6.328   2.995   1.658 -0.2262  0.4226 -0.6780
  762MOL0     C 5022   6.217   2.923   1.665 -0.5318 -0.0468 -0.0173
  762MOL0     C 5023   6.149   2.879   1.788 -1.3733 -0.8461  0.5308
  762MOL0     C 5024   6.041   2.791   1.771  0.7431 -0.5231 -0.0408
  762MOL0     C 5025   5.988   2.742   1.648  0.4733  0.1204 -0.8200
  762MOL0     O 5026   5.887   2.651   1.648 -0.1217 -0.1150  0.4106
  762MOL0     C 5027   5.832   2.612   1.523  0.2079 -0.8584  0.1243
  762MOL0     C 5028   5.732   2.699   1.449  0.4340 -0.9982 -0.3643
  762MOL0     C 5029   5.637   2.765   1.560 -0.2684  0.4341 -0.7904
  762MOL0     C 5030   5.519   2.837   1.506  0.1823 -0.3535 -0.3844
  762MOL0     C 5031   5.432   2.895   1.614  0.0505 -0.2037 -0.2734
  762MOL0     C 5032   5.288   2.933   1.556 -0.9893  0.4588  0.4936
  762MOL0     C 5033   5.189   3.023   1.642 -0.0491 -0.4828  0.6869
  762MOL0     C 5034   5.160   2.963   1.776 -0.1245  0.1888 -0.1446
  762MOL0     N 5035   5.057   3.048   1.844 -0.2885 -0.7422  0.8342
  762MOL0     C 5036   4.918   3.051   1.827 -0.2897 -0.8158 -0.7151
  762MOL0     C 5037   4.870   3.125   1.929 -0.1536 -0.2909 -0.0919
  762MOL0     C 5038   4.720   3.155   1.935  0.0964  0.9550  0.0670
  762MOL0     C 5039   4.670   3.207   1.800  1.1822 -0.3472 -0.3409
  762MOL0     C 5040   4.545   3.293   1.826 -0.0008  0.9316 -0.1655
  762MOL0     C 5041   4.469   3.329   1.693  0.4249  0.4703 -0.0768
  762MOL0     O 5042   4.399   3.215   1.637  0.3447 -0.3485  0.2213
  762MOL0     C 5043   4.266   3.244   1.590 -0.6215 -0.7176 -1.0609
  762MOL0     C 5044   4.222   3.241   1.457 -0.7816 -0.6251 -0.4243
  762MOL0     C 5045   4.091   3.282   1.431  0.0225 -0.1739 -0.1401
  762MOL0     C 5046   4.051   3.264   1.292 -0.9047 -0.2332 -0.1193
  762MOL0     C 5047   3.995   3.312   1.535 -0.1543  0.0592 -0.2695
  762MOL0     C 5048   3.858   3.359   1.520  0.1178  0.0923 -0.4162
  762MOL0     O 5049   3.785   3.393   1.631  0.0449  0.3007 -0.0310
  762MOL0     C 5050   3.664   3.464   1.616 -0.0838 -0.4977 -0.4535
  762MOL0     C 5051   3.668   3.602   1.573  0.9366 -0.3731  0.1254
  762MOL0     C 5052   3.546   3.670   1.546 -0.4747  0.9470  0.2075
  762MOL0     C 5053   3.421   3.605   1.564 -0.3434  0.3462 -0.5551
  762MOL0     O 5054   3.313   3.668   1.516  0.4169  0.1889 -0.7733
  762MOL0     C 5055   3.200   3.664   1.602  1.5827 -0.1977 -0.3402
  762MOL0     C 5056   3.088   3.747   1.549 -0.3050 -0.5651  0.9610
  762MOL0     C 5057   2.995   3.797   1.661 -0.0490  0.2093 -0.2774
  762MOL0     C 5058   3.051   3.929   1.719 -0.4042  0.5645 -0.2452
  762MOL0     C 5059   3.038   3.944   1.868 -0.9662  0.3743 -1.2377
  762MOL0     C 5060   3.111   4.061   1.917 -0.0869 -0.5794  0.4430
  762MOL0     C 5061   3.102   4.072   2.066 -0.3967  0.1037  0.2642
  762MOL0     C 5062   2.976   4.138   2.110  0.5409  0.2951  0.1915
  762MOL0    Cl 5063   2.957   4.319   2.073 -0.2223  0.1159 -0.0593
  762MOL0     C 5064   3.418   3.471   1.601 -0.4332 -0.1297  0.3550
  762MOL0     C 5065   3.531   3.411   1.639 -0.8882 -0.6936  0.6796
  762MOL0     O 5066   3.821   3.375   1.403 -0.4535  0.0931 -0.0924
  762MOL0     C 5067   4.051   3.313   1.661  1.0066 -0.0317 -0.8863
  762MOL0     C 5068   4.179   3.274   1.691 -1.2564  0.4720 -0.5060
  762MOL0     N 5069   4.979   3.153   2.013  1.3131  0.0421 -0.3628
  762MOL0     N 5070   5.087   3.107   1.963 -0.2856 -0.1530  0.2166
  762MOL0     C 5071   6.051   2.793   1.538  0.0931  0.2587  0.4107
  762MOL0     C 5072   6.156   2.888   1.545  0.2683  0.2173 -0.3576
  762MOL0     C 5073   6.497   3.153   1.788  0.6076  0.6521  1.1469
  762MOL0     C 5074   6.514   3.294   1.808 -1.0282  0.4289  0.9839
  762MOL0     C 5075   6.646   3.346   1.831 -0.3885  0.4808 -0.7939
  762MOL0     C 5076   6.754   3.264   1.866  0.1937  0.3064  0.1113
  762MOL0     O 5077   6.873   3.332   1.904 -0.2036 -0.1041 -0.3383
  762MOL0     C 5078   6.929   3.290   2.030  0.8133  0.6598 -0.4460
  762MOL0     C 5079   6.895   3.386   2.146  0.1731  0.0266 -0.4823
  762MOL0     C 5080   7.004   3.490   2.133  0.5763 -0.4876  0.2625
  762MOL0     C 5081   6.983   3.621   2.217 -0.2443 -0.1756  0.4828
  762MOL0     C 5082   6.970   3.575   2.356  0.5910  0.2655  0.1891
  762MOL0     C 5083   6.949   3.559   2.473  0.2978  0.8328 -0.1549
  762MOL0     C 5084   6.731   3.125   1.854 -0.0160 -0.4347 -0.0627
  762MOL0     C 5085   6.607   3.062   1.820 -0.7275  0.2015  0.2328
  762MOL0     C 5086   6.596   2.911   1.824 -0.4967 -0.1200 -0.4277
  762MOL0     H 5087   6.180   2.923   1.882  1.4563 -0.3510 -0.5637
  762MOL0     H 5088   5.993   2.753   1.861  2.6107 -1.7277  0.5071
  762MOL0     H 5089   5.782   2.516   1.539 -2.2167 -0.1131 -2.1454
  762MOL0     H 5090   5.913   2.603   1.451 -0.4650  1.7680 -1.0764
  762MOL0     H 5091   5.779   2.781   1.394 -0.6661  0.0720  0.2256
  762MOL0     H 5092   5.678   2.636   1.377  0.0323 -1.5205  0.3877
  762MOL0     H 5093   5.610   2.684   1.629  2.8599 -0.5047 -0.4989
  762MOL0     H 5094   5.693   2.840   1.617  0.1993 -0.4212 -0.1116
  762MOL0     H 5095   5.547   2.914   1.434  0.4524  1.0275  1.1406
  762MOL0     H 5096   5.453   2.768   1.452 -2.1556  0.5047  1.2335
  762MOL0     H 5097   5.485   2.983   1.651 -1.0203  0.1136  0.5750
  762MOL0     H 5098   5.415   2.819   1.690 -1.1857 -1.3425 -1.6161
  762MOL0     H 5099   5.282   2.982   1.459  0.1442  2.8136  1.5458
  762MOL0     H 5100   5.227   2.845   1.533  1.4571 -0.8939 -1.1619
  762MOL0     H 5101   5.107   3.038   1.571  1.8554  3.0334 -1.0625
  762MOL0     H 5102   5.227   3.125   1.657  1.0737 -1.3018  4.6861
  762MOL0     H 5103   5.125   2.859   1.765  0.9885 -0.0621 -1.7006
  762MOL0     H 5104   5.255   2.969   1.829 -0.7470 -0.8620  1.1667
  762MOL0     H 5105   4.860   2.989   1.760 -0.7656 -1.4959  0.2901
  762MOL0     H 5106   4.687   3.214   2.022 -2.1233  0.7622 -0.5835
  762MOL0     H 5107   4.675   3.056   1.942 -0.2974  1.1929  1.1025
  762MOL0     H 5108   4.741   3.277   1.755  1.3799  1.8293  3.0405
  762MOL0     H 5109   4.652   3.117   1.741  0.5386 -1.7156  1.8471
  762MOL0     H 5110   4.472   3.232   1.881  1.4312 -1.1739 -0.5037
  762MOL0     H 5111   4.581   3.382   1.878  0.5941 -0.8195  2.6497
  762MOL0     H 5112   4.406   3.412   1.724  1.8463  1.0391  1.4008
  762MOL0     H 5113   4.534   3.374   1.617 -0.6282  1.9117 -0.1564
  762MOL0     H 5114   4.293   3.232   1.376  1.6638  0.0254  1.5282
  762MOL0     H 5115   4.130   3.232   1.223 -0.9663  1.0820 -0.8213
  762MOL0     H 5116   4.001   3.352   1.252 -1.2811 -0.5840 -0.4190
  762MOL0     H 5117   3.972   3.188   1.298 -0.4965 -0.5487  2.4699
  762MOL0     H 5118   3.763   3.653   1.566  0.4172  0.4701 -1.3128
  762MOL0     H 5119   3.549   3.771   1.507  0.3322 -0.2167 -3.0715
  762MOL0     H 5120   3.164   3.562   1.619  0.3439  0.0849 -1.1316
  762MOL0     H 5121   3.230   3.714   1.694 -3.3380  1.5807  0.6414
  762MOL0     H 5122   3.111   3.829   1.481 -1.8297 -0.7517  0.1940
  762MOL0     H 5123   3.026   3.685   1.483  0.5005 -4.3902  3.4244
  762MOL0     H 5124   2.976   3.716   1.733 -0.0021 -1.1246 -1.7212
  762MOL0     H 5125   2.901   3.825   1.613 -1.1263  2.8043  2.9351
  762MOL0     H 5126   3.018   4.014   1.659  1.1490  0.5317 -1.1816
  762MOL0     H 5127   3.157   3.910   1.699 -0.4084 -0.7410  0.7597
  762MOL0     H 5128   2.935   3.958   1.900  0.1732  0.4600  3.0451
  762MOL0     H 5129   3.080   3.857   1.919 -0.7551  1.3056  0.2271
  762MOL0     H 5130   3.072   4.151   1.867 -1.4000 -0.7786  1.0756
  762MOL0     H 5131   3.217   4.055   1.890 -0.2444 -1.3284 -0.0541
  762MOL0     H 5132   3.177   4.143   2.102 -1.5060  2.3904 -1.6566
  762MOL0     H 5133   3.108   3.974   2.115  0.0680 -1.0095 -1.9096
  762MOL0     H 5134   2.974   4.116   2.218  0.0611 -0.5777  0.0150
  762MOL0     H 5135   2.888   4.094   2.062  2.0379 -1.5715 -1.0107
  762MOL0     H 5136   3.318   3.431   1.588 -0.3007 -0.0167 -1.2751
  762MOL0     H 5137   3.524   3.307   1.668  1.0855 -0.7246  1.1557
  762MOL0     H 5138   3.985   3.339   1.743  2.2438  1.1104 -0.2131
  762MOL0     H 5139   4.230   3.249   1.784  0.1826  1.0762 -1.0983
  762MOL0     H 5140   6.020   2.767   1.437  1.8414  0.3054 -0.1629
  762MOL0     H 5141   6.204   2.923   1.454 -1.3523  1.6967 -0.7188
  762MOL0     H 5142   6.415   3.337   1.800 -0.7611  1.0657  1.0660
  762MOL0     H 5143   6.646   3.454   1.846 -2.1785  0.3199  0.7236
  762MOL0     H 5144   6.884   3.193   2.056  2.1855  0.0520 -0.2373
  762MOL0     H 5145   7.037   3.276   2.037  0.7065  0.3341  1.1959
  762MOL0     H 5146   6.885   3.329   2.239  0.2466 -1.6105 -1.4545
  762MOL0     H 5147   6.797   3.435   2.142 -0.3673 -0.7129  1.8427
  762MOL0     H 5148   7.102   3.444   2.146  0.3246 -0.8665  0.8830
  762MOL0     H 5149   7.006   3.519   2.028  3.2201 -1.3622  0.0051
  762MOL0     H 5150   6.904   3.686   2.177 -0.1663 -0.4780 -0.1839
  762MOL0     H 5151   7.076   3.678   2.210 -0.0092 -0.7465 -2.9688
  762MOL0     H 5152   6.945   3.537   2.578  1.0436  5.2535  1.0045
  762MOL0     H 5153   6.807   3.050   1.869  0.1104 -0.2589  0.1731
  762MOL0     H 5154   6.607   2.874   1.722 -1.8145  2.4300 -1.5866
  762MOL0     H 5155   6.671   2.867   1.891 -0.8112  2.7983  2.0570
  762MOL0     H 5156   6.493   2.878   1.832 -0.9218  0.9213 -1.3791
  763MOL0     O 5157   6.934   5.583  10.142 -1.1077 -0.4910 -0.1463
  763MOL0     C 5158   6.984   5.673  10.066  0.1718  0.8491 -0.2071
  763MOL0     O 5159   7.084   5.656   9.976  0.6049 -0.5356  0.1199
  763MOL0     C 5160   7.154   5.542   9.961  0.1409 -0.3243  0.2611
  763MOL0     C 5161   7.104   5.419   9.968  0.0493 -0.3871 -0.0997
  763MOL0     C 5162   7.178   5.302   9.938  0.8941  0.5309  0.0500
  763MOL0     C 5163   7.304   5.317   9.885 -0.6031  0.8161  1.1900
  763MOL0     O 5164   7.380   5.204   9.845 -0.0642  0.6310 -0.3863
  763MOL0     C 5165   7.517   5.219   9.846 -0.7873  0.7470  0.3259
  763MOL0     C 5166   7.569   5.210   9.987  0.2012 -0.1354 -0.9197
  763MOL0     C 5167   7.719   5.179   9.989 -0.6254  0.4985  0.3237
  763MOL0     C 5168   7.778   5.102  10.111 -0.3663  0.5778 -0.4238
  763MOL0     C 5169   7.767   5.188  10.246 -0.2935 -0.1523 -0.6004
  763MOL0     C 5170   7.848   5.116  10.356  0.4177  0.0410  0.9683
  763MOL0     C 5171   7.999   5.107  10.333  0.5364 -0.4731 -0.6651
  763MOL0     C 5172   8.084   5.099  10.466  0.1415  1.0104  0.1622
  763MOL0     N 5173   8.067   4.966  10.532 -0.3937  0.3255  0.3143
  763MOL0     C 5174   7.954   4.939  10.604 -1.2049  1.3879  0.0967
  763MOL0     C 5175   7.976   4.810  10.638  0.2191 -0.4279  0.4975
  763MOL0     C 5176   7.873   4.727  10.707 -0.2037 -0.6028  0.2527
  763MOL0     C 5177   7.807   4.789  10.830  0.4481 -0.9858 -0.5231
  763MOL0     C 5178   7.715   4.690  10.906 -1.2868  0.1055 -0.2182
  763MOL0     C 5179   7.576   4.672  10.853  0.2682  0.2194 -0.2981
  763MOL0     O 5180   7.511   4.554  10.907 -0.2767  0.0378 -0.0211
  763MOL0     C 5181   7.525   4.431  10.849 -0.6517 -0.5921 -0.7594
  763MOL0     C 5182   7.613   4.410  10.738  0.1020  0.5062  0.0297
  763MOL0     C 5183   7.599   4.293  10.657  0.3404  0.4560 -0.7318
  763MOL0     C 5184   7.677   4.282  10.525  0.9914 -0.1075 -0.2413
  763MOL0     C 5185   7.524   4.187  10.720 -0.5174  1.4421  0.8084
  763MOL0     C 5186   7.527   4.054  10.662  0.4769  0.1615  0.2415
  763MOL0     O 5187   7.422   3.980  10.679 -0.1742  0.2391 -0.6807
  763MOL0     C 5188   7.410   3.851  10.645  0.2562 -0.2869 -0.4642
  763MOL0     C 5189   7.473   3.755  10.719 -0.2241  0.1764  0.0841
  763MOL0     C 5190   7.471   3.626  10.675 -0.0816 -0.3544  0.3515
  763MOL0     C 5191   7.383   3.588  10.574 -0.1508  0.5281  0.7630
  763MOL0     O 5192   7.355   3.457  10.527  0.1145 -0.6315 -0.1496
  763MOL0     C 5193   7.434   3.360  10.591 -0.2257  0.6221  0.8042
  763MOL0     C 5194   7.390   3.219  10.552  0.6567 -0.5822  0.4322
  763MOL0     C 5195   7.464   3.145  10.436  0.0661  0.7440 -0.0588
  763MOL0     C 5196   7.465   3.236  10.310  1.0075 -1.2853  0.4530
  763MOL0     C 5197   7.542   3.184  10.194 -0.4318  0.3883  0.3004
  763MOL0     C 5198   7.515   3.277  10.075  0.6592 -0.2608 -0.1264
  763MOL0     C 5199   7.604   3.243   9.955  0.0941  0.0470 -0.6245
  763MOL0     C 5200   7.571   3.303   9.824  0.2732 -0.2658  0.3791
  763MOL0    Cl 5201   7.408   3.238   9.768 -0.0584  0.4093  0.1023
  763MOL0     C 5202   7.312   3.687  10.510  0.9056  0.5170 -0.4979
  763MOL0     C 5203   7.323   3.822  10.540 -1.2313 -0.5436  0.6742
  763MOL0     O 5204   7.640   4.015  10.620 -0.2244 -0.2961 -0.9533
  763MOL0     C 5205   7.443   4.209  10.831 -0.1121  0.7316 -0.2558
  763MOL0     C 5206   7.442   4.332  10.891 -0.1795  0.3914 -0.0832
  763MOL0     N 5207   8.092   4.765  10.580  0.4740 -0.1598 -0.3994
  763MOL0     N 5208   8.155   4.861  10.521  0.2369  0.0176 -0.2276
  763MOL0     C 5209   7.350   5.446   9.856 -0.3332  0.0263 -0.6847
  763MOL0     C 5210   7.276   5.556   9.896  0.4728 -0.7302 -0.4072
  763MOL0     C 5211   6.928   5.813  10.067  0.6794  0.0353  0.1295
  763MOL0     C 5212   7.003   5.921  10.008 -0.1159  0.2545 -0.2375
  763MOL0     C 5213   6.953   6.054  10.015  0.5996 -0.2668  0.0938
  763MOL0     C 5214   6.831   6.076  10.084 -0.5554 -1.0338  0.4725
  763MOL0     O 5215   6.778   6.204  10.101 -0.1963  0.4183  1.1376
  763MOL0     C 5216   6.849   6.317  10.036 -0.4428  0.0474  0.0865
  763MOL0     C 5217   6.757   6.444  10.054  0.7416  0.6522  1.0536
  763MOL0     C 5218   6.613   6.416  10.029 -0.1721  1.3554 -0.1429
  763MOL0     C 5219   6.533   6.543  10.059 -0.1081  0.4993  0.3186
  763MOL0     C 5220   6.557   6.652   9.980  0.1997 -0.2983  0.4343
  763MOL0     C 5221   6.572   6.733   9.889  0.4479  0.1698 -0.3074
  763MOL0     C 5222   6.769   5.982  10.152  0.6108  0.2212  0.6089
  763MOL0     C 5223   6.809   5.850  10.147  0.2011 -0.0649 -0.7607
  763MOL0     C 5224   6.725   5.752  10.214  0.8639 -0.1857  0.5156
  763MOL0     H 5225   7.000   5.405   9.999 -0.4777  0.5970 -1.3463
  763MOL0     H 5226   7.130   5.212   9.974  2.0700 -0.5433 -0.9738
  763MOL0     H 5227   7.555   5.306   9.792  0.6622 -1.0326 -1.6423
  763MOL0     H 5228   7.570   5.143   9.788  2.4471  0.6520  3.0840
  763MOL0     H 5229   7.550   5.308  10.033 -0.6711 -0.7120 -0.0136
  763MOL0     H 5230   7.515   5.137  10.048  1.5695 -1.7804 -1.6042
  763MOL0     H 5231   7.749   5.120   9.902 -3.3977 -3.0665  1.5388
  763MOL0     H 5232   7.776   5.272   9.984  0.9577 -0.1618  3.7318
  763MOL0     H 5233   7.737   5.002  10.132 -0.5108  1.1260  2.2535
  763MOL0     H 5234   7.882   5.095  10.077 -0.4203  2.7794 -1.1486
  763MOL0     H 5235   7.661   5.172  10.268  0.5693 -3.2487  2.1073
  763MOL0     H 5236   7.800   5.291  10.234  0.8620 -0.5207 -0.7201
  763MOL0     H 5237   7.826   5.173  10.447  0.4402 -0.7314  1.4701
  763MOL0     H 5238   7.811   5.015  10.374 -0.0079  0.1542  0.7348
  763MOL0     H 5239   8.018   5.207  10.292 -0.8827 -1.2269 -3.3523
  763MOL0     H 5240   8.027   5.044  10.249 -0.2558  0.3981 -1.6085
  763MOL0     H 5241   8.187   5.102  10.428 -0.0118  0.8679 -0.2629
  763MOL0     H 5242   8.052   5.169  10.543 -2.2844 -0.9382  1.0614
  763MOL0     H 5243   7.855   4.983  10.614 -3.6355 -3.1975 -0.8898
  763MOL0     H 5244   7.918   4.631  10.734 -0.8245 -0.9625  0.0266
  763MOL0     H 5245   7.792   4.689  10.643  0.3870 -1.8754  0.2209
  763MOL0     H 5246   7.886   4.822  10.898 -0.8748  1.5477 -0.0744
  763MOL0     H 5247   7.746   4.878  10.810  3.2138  1.2579  0.4176
  763MOL0     H 5248   7.770   4.596  10.905  1.1240  1.4097  1.4755
  763MOL0     H 5249   7.705   4.715  11.012  0.1421 -1.8529  0.4219
  763MOL0     H 5250   7.519   4.762  10.875  3.7673  2.7159 -0.7162
  763MOL0     H 5251   7.582   4.672  10.744  3.8870 -0.2283 -0.2125
  763MOL0     H 5252   7.696   4.476  10.713 -0.4178  1.0217 -0.3383
  763MOL0     H 5253   7.778   4.245  10.546  0.9251 -1.4676 -2.1285
  763MOL0     H 5254   7.684   4.386  10.491  1.5558  1.1626  3.3106
  763MOL0     H 5255   7.625   4.207  10.465 -1.5486  1.5816 -0.3354
  763MOL0     H 5256   7.540   3.778  10.802  0.3770 -1.2722  0.0359
  763MOL0     H 5257   7.536   3.556  10.728  2.5043  1.2178 -0.5950
  763MOL0     H 5258   7.535   3.380  10.555 -0.1158  3.0262  2.2218
  763MOL0     H 5259   7.416   3.366  10.699  0.4511 -1.1653  1.0413
  763MOL0     H 5260   7.411   3.162  10.643 -3.1791 -2.4077  0.3876
  763MOL0     H 5261   7.282   3.213  10.531  0.9899 -1.5352 -1.1235
  763MOL0     H 5262   7.419   3.049  10.411  0.9133 -0.4304  2.5969
  763MOL0     H 5263   7.570   3.125  10.453 -0.1596 -2.3099 -1.5773
  763MOL0     H 5264   7.497   3.336  10.342  0.8587 -0.2542 -2.3379
  763MOL0     H 5265   7.364   3.256  10.272  1.7711 -0.9094 -1.4720
  763MOL0     H 5266   7.647   3.182  10.222 -0.5026  0.7175  0.6061
  763MOL0     H 5267   7.517   3.080  10.168  2.4142 -0.0641 -0.9460
  763MOL0     H 5268   7.524   3.382  10.104  0.0362 -1.0255  3.2446
  763MOL0     H 5269   7.411   3.263  10.046 -0.5307 -2.4319  4.2755
  763MOL0     H 5270   7.609   3.135   9.939 -1.5558 -0.0867 -0.3805
  763MOL0     H 5271   7.700   3.290   9.981 -1.0008  3.2947 -1.9214
  763MOL0     H 5272   7.650   3.285   9.750 -0.2370 -0.5064 -0.1112
  763MOL0     H 5273   7.567   3.412   9.820 -2.5169 -0.3417 -1.1758
  763MOL0     H 5274   7.249   3.633  10.440 -1.7971  1.6490  0.9002
  763MOL0     H 5275   7.292   3.909  10.483  0.9513 -0.1184  0.0362
  763MOL0     H 5276   7.378   4.143  10.888 -0.3992  2.3744  1.4095
  763MOL0     H 5277   7.372   4.352  10.971 -1.4784 -0.4041 -0.9769
  763MOL0     H 5278   7.440   5.457   9.797 -1.2244 -1.2287 -2.3286
  763MOL0     H 5279   7.304   5.657   9.868  1.5363 -0.3636  1.7548
  763MOL0     H 5280   7.105   5.903   9.975  0.2253  0.6793  0.5738
  763MOL0     H 5281   7.001   6.139   9.967 -0.0813  0.3262  0.4459
  763MOL0     H 5282   6.938   6.328  10.099  2.0080 -1.5876 -2.8418
  763MOL0     H 5283   6.865   6.288   9.932  1.1965  0.7058  0.1327
  763MOL0     H 5284   6.783   6.521   9.980 -1.9734  0.3679 -0.3246
  763MOL0     H 5285   6.765   6.502  10.147 -0.7155  3.6420 -0.5260
  763MOL0     H 5286   6.603   6.376   9.928  1.3417 -1.1306  0.5985
  763MOL0     H 5287   6.573   6.343  10.101 -0.6901 -1.4596 -3.0576
  763MOL0     H 5288   6.556   6.578  10.159  3.4074  1.3344 -0.6489
  763MOL0     H 5289   6.427   6.523  10.040 -0.4835  1.3372  1.4524
  763MOL0     H 5290   6.575   6.793   9.800  0.7633  1.2426  0.4086
  763MOL0     H 5291   6.677   6.006  10.204 -0.3855 -1.1668 -0.4581
  763MOL0     H 5292   6.629   5.791  10.247  1.3666 -1.1147  3.4014
  763MOL0     H 5293   6.694   5.673  10.145 -2.0868  2.2882 -1.2366
  763MOL0     H 5294   6.775   5.708  10.302 -0.0563 -3.3725 -0.4003
  764MOL0     O 5295  10.028   9.199   4.300 -0.2541  0.4211  0.4528
  764MOL0     C 5296   9.955   9.295   4.311 -0.1093 -0.1392  0.3280
  764MOL0     O 5297   9.924   9.377   4.212 -0.1428 -0.0681  0.7361
  764MOL0     C 5298   9.975   9.341   4.085 -0.1591  0.4642 -0.1779
  764MOL0     C 5299  10.104   9.372   4.070 -0.8618  0.0143 -0.5055
  764MOL0     C 5300  10.172   9.349   3.949 -0.8347 -0.7716 -0.2535
  764MOL0     C 5301  10.101   9.288   3.843 -0.0833 -0.3681 -0.1193
  764MOL0     O 5302  10.153   9.252   3.719  0.4522 -0.3978  0.6372
  764MOL0     C 5303  10.297   9.254   3.684 -0.1343  0.0624  0.1350
  764MOL0     C 5304  10.307   9.239   3.527  0.2170 -0.0920  0.2000
  764MOL0     C 5305  10.442   9.260   3.468 -0.1261 -0.9819 -0.3419
  764MOL0     C 5306  10.465   9.180   3.332  0.1457  0.1791  0.2920
  764MOL0     C 5307  10.381   9.229   3.206 -0.3988  0.6681 -0.1128
  764MOL0     C 5308  10.397   9.375   3.179  0.7498  0.7222  1.1680
  764MOL0     C 5309  10.536   9.413   3.145 -0.2907 -0.1007  0.2379
  764MOL0     C 5310  10.524   9.518   3.035 -0.1738 -0.5614  0.0269
  764MOL0     N 5311  10.648   9.532   2.961 -0.1176  0.2128  0.8464
  764MOL0     C 5312  10.684   9.456   2.845  0.4253 -0.4173 -0.8388
  764MOL0     C 5313  10.808   9.512   2.819  0.7771 -0.4266  1.0095
  764MOL0     C 5314  10.892   9.496   2.697 -0.2211  0.2405 -0.6500
  764MOL0     C 5315  11.001   9.396   2.722  0.2757 -0.6070 -0.6871
  764MOL0     C 5316  11.085   9.411   2.593  0.4425  0.1342 -0.3828
  764MOL0     C 5317  11.210   9.334   2.608 -0.2732  0.1831  0.1786
  764MOL0     O 5318  11.311   9.412   2.680  0.3565 -0.4090  0.5463
  764MOL0     C 5319  11.424   9.451   2.619  0.9496 -0.0358  0.1413
  764MOL0     C 5320  11.535   9.445   2.706 -0.6221 -0.9589  0.2231
  764MOL0     C 5321  11.645   9.516   2.669 -0.5391  0.1521 -0.2309
  764MOL0     C 5322  11.755   9.519   2.775 -0.7464  0.1340 -0.3601
  764MOL0     C 5323  11.657   9.588   2.549 -0.0668  0.6513  0.1558
  764MOL0     C 5324  11.781   9.658   2.501 -0.4767 -1.5496  0.9640
  764MOL0     O 5325  11.768   9.775   2.427 -0.3592 -0.0085  0.2586
  764MOL0     C 5326  11.869   9.831   2.350 -0.0192  0.1079  0.1112
  764MOL0     C 5327  11.858   9.957   2.309 -0.0549 -1.0096 -0.4403
  764MOL0     C 5328  11.956  10.017   2.230 -0.6009 -0.2068  0.8905
  764MOL0     C 5329  12.068   9.945   2.171 -0.1274 -0.6593 -0.9170
  764MOL0     O 5330  12.179   9.990   2.107 -0.3348 -0.8999  0.9471
  764MOL0     C 5331  12.130  10.099   2.018  0.4036 -0.3349  0.3184
  764MOL0     C 5332  12.175  10.240   2.051  0.1484 -0.4032 -0.6876
  764MOL0     C 5333  12.092  10.347   1.996  0.0724 -0.7310  0.0815
  764MOL0     C 5334  12.093  10.476   2.079  0.1016  0.1793 -0.1466
  764MOL0     C 5335  11.998  10.473   2.201 -0.4443 -0.5594 -0.2478
  764MOL0     C 5336  11.851  10.483   2.162 -0.3966  0.7091  0.4168
  764MOL0     C 5337  11.776  10.429   2.292 -0.4520 -0.4081 -0.2205
  764MOL0     C 5338  11.624  10.422   2.282 -0.1469  0.3905 -0.8917
  764MOL0    Cl 5339  11.573  10.333   2.433  0.5205 -0.0203  0.0314
  764MOL0     C 5340  12.069   9.811   2.215 -0.0681 -0.7711  0.7029
  764MOL0     C 5341  11.974   9.754   2.294 -0.1640 -0.3183 -0.2861
  764MOL0     O 5342  11.891   9.622   2.535 -0.6133  0.4172  0.5843
  764MOL0     C 5343  11.550   9.598   2.467 -0.5434 -0.1843  0.2234
  764MOL0     C 5344  11.428   9.528   2.500  0.4527  0.2463 -0.3275
  764MOL0     N 5345  10.840   9.615   2.910 -0.6619  0.5570  0.3707
  764MOL0     N 5346  10.741   9.627   2.990 -0.3037 -0.8475 -0.4030
  764MOL0     C 5347   9.964   9.268   3.858 -0.6101  0.8089 -0.4741
  764MOL0     C 5348   9.903   9.308   3.981  0.1538 -0.4110 -0.1156
  764MOL0     C 5349   9.918   9.335   4.448  0.1046  0.4683  0.0371
  764MOL0     C 5350   9.907   9.226   4.548  0.3414 -0.4590 -0.4344
  764MOL0     C 5351   9.858   9.255   4.678 -0.0065  1.4773 -0.0626
  764MOL0     C 5352   9.819   9.382   4.711  0.6007  1.2500  0.0779
  764MOL0     O 5353   9.798   9.392   4.842 -0.2953 -1.0489  0.0796
  764MOL0     C 5354   9.721   9.515   4.871 -0.1098  0.2629  0.7732
  764MOL0     C 5355   9.631   9.494   4.993  0.4060 -0.6577 -0.2595
  764MOL0     C 5356   9.524   9.390   4.973  0.7276  0.6406 -0.5055
  764MOL0     C 5357   9.399   9.398   5.070 -0.3802 -0.2722  0.2132
  764MOL0     C 5358   9.447   9.387   5.205 -1.3194 -0.0832 -0.3936
  764MOL0     C 5359   9.476   9.374   5.325 -0.1662 -1.2886 -0.2421
  764MOL0     C 5360   9.839   9.483   4.615 -0.4397  0.4475 -0.5185
  764MOL0     C 5361   9.880   9.459   4.487 -0.3097  0.1574 -0.9822
  764MOL0     C 5362   9.898   9.582   4.409 -1.1074  0.0135  0.3934
  764MOL0     H 5363  10.158   9.401   4.159 -0.9262 -3.6347  0.8743
  764MOL0     H 5364  10.280   9.344   3.940 -0.9498 -0.6902 -2.2810
  764MOL0     H 5365  10.333   9.160   3.727 -3.6766 -1.5573 -0.1203
  764MOL0     H 5366  10.352   9.342   3.716 -0.6177  1.0738 -1.7080
  764MOL0     H 5367  10.279   9.136   3.504  0.4278  0.5070 -3.1164
  764MOL0     H 5368  10.239   9.302   3.470  3.2456  0.7638 -2.7853
  764MOL0     H 5369  10.465   9.366   3.468 -1.1500 -0.7123  1.4757
  764MOL0     H 5370  10.514   9.222   3.541 -1.0034  3.3534  3.2332
  764MOL0     H 5371  10.569   9.200   3.304  0.3202 -0.3093  0.5848
  764MOL0     H 5372  10.456   9.073   3.353  1.2629 -0.2600 -1.2681
  764MOL0     H 5373  10.274   9.210   3.217 -0.2199  1.1162  3.5205
  764MOL0     H 5374  10.424   9.176   3.119 -1.3159  0.2958 -0.3521
  764MOL0     H 5375  10.328   9.419   3.107  0.4340  3.1363  2.8210
  764MOL0     H 5376  10.374   9.424   3.274  0.3101 -0.4682  1.6819
  764MOL0     H 5377  10.582   9.329   3.091  1.5506  2.6259 -2.7271
  764MOL0     H 5378  10.588   9.435   3.239 -2.4161 -2.6973  2.2041
  764MOL0     H 5379  10.442   9.501   2.966 -1.1586 -0.0228  1.0374
  764MOL0     H 5380  10.504   9.617   3.075  0.0372  0.3312 -1.9922
  764MOL0     H 5381  10.619   9.384   2.797 -0.2432 -0.7045  0.4675
  764MOL0     H 5382  10.926   9.594   2.662 -0.6273 -0.2784 -2.6093
  764MOL0     H 5383  10.822   9.452   2.625 -0.9131 -1.2446  0.8549
  764MOL0     H 5384  11.058   9.415   2.813  2.1510  2.1946 -2.2734
  764MOL0     H 5385  10.959   9.297   2.705 -1.6445 -0.1895  1.3091
  764MOL0     H 5386  11.039   9.358   2.508 -1.0785 -1.3730  1.2960
  764MOL0     H 5387  11.110   9.516   2.574  2.5826 -0.3871 -0.7619
  764MOL0     H 5388  11.203   9.241   2.665  1.7401 -1.2676 -1.7330
  764MOL0     H 5389  11.249   9.297   2.512  3.5698 -0.9228  1.9683
  764MOL0     H 5390  11.540   9.390   2.799  2.8402 -0.5823  0.3907
  764MOL0     H 5391  11.806   9.615   2.764  2.2098 -1.2974 -0.1078
  764MOL0     H 5392  11.827   9.440   2.754  1.5687  1.3508  2.4268
  764MOL0     H 5393  11.703   9.509   2.871 -1.1872  1.5832 -0.4355
  764MOL0     H 5394  11.778  10.019   2.348  2.1375  0.0012  2.8902
  764MOL0     H 5395  11.938  10.123   2.216  0.8336  0.0937  1.2407
  764MOL0     H 5396  12.163  10.085   1.915  2.2882 -0.4746  0.8940
  764MOL0     H 5397  12.021  10.095   2.010  0.4614 -0.5256 -0.4484
  764MOL0     H 5398  12.174  10.256   2.160  1.6334  1.4761 -0.8944
  764MOL0     H 5399  12.278  10.266   2.023 -0.6961  2.0579 -1.7355
  764MOL0     H 5400  11.991  10.316   1.968 -0.9882  2.7149 -0.4236
  764MOL0     H 5401  12.143  10.378   1.904 -1.0488  0.0542 -0.2967
  764MOL0     H 5402  12.062  10.550   2.005  0.0542 -2.0425 -2.5227
  764MOL0     H 5403  12.193  10.495   2.116  0.4377  0.3253 -1.0883
  764MOL0     H 5404  12.010  10.376   2.251  1.6250 -0.5949 -0.7303
  764MOL0     H 5405  12.005  10.553   2.276 -2.6952  0.9668 -1.5745
  764MOL0     H 5406  11.839  10.413   2.079 -2.9021  0.1539  1.1475
  764MOL0     H 5407  11.835  10.583   2.119 -0.1357  0.1792 -0.9383
  764MOL0     H 5408  11.809  10.484   2.380  1.5964  0.1798 -1.3099
  764MOL0     H 5409  11.810  10.326   2.306 -0.9435 -0.2801  2.5256
  764MOL0     H 5410  11.592  10.373   2.190 -1.1767  0.9723 -0.8524
  764MOL0     H 5411  11.576  10.520   2.278 -0.2620  0.4332  0.8273
  764MOL0     H 5412  12.145   9.747   2.170 -0.7747 -1.5446  0.5888
  764MOL0     H 5413  11.982   9.646   2.305  0.2120 -0.2930 -0.2983
  764MOL0     H 5414  11.544   9.656   2.375  1.3854  1.8123  1.2697
  764MOL0     H 5415  11.336   9.531   2.443 -0.4030 -0.5550  0.9454
  764MOL0     H 5416   9.916   9.211   3.779 -1.9737  0.8437  0.2884
  764MOL0     H 5417   9.795   9.310   3.981  0.0153  3.4184 -3.0592
  764MOL0     H 5418   9.929   9.123   4.522  0.3089 -0.0439 -2.2912
  764MOL0     H 5419   9.859   9.191   4.766  2.9196  2.0241  0.4239
  764MOL0     H 5420   9.791   9.598   4.886 -0.9656  0.9406  1.0553
  764MOL0     H 5421   9.643   9.537   4.797  0.4344  0.4288  0.2387
  764MOL0     H 5422   9.586   9.590   5.021 -1.4961 -0.0178 -4.6945
  764MOL0     H 5423   9.688   9.461   5.081  0.3480 -0.2489 -0.0655
  764MOL0     H 5424   9.487   9.397   4.871 -1.3582  4.2470  0.3190
  764MOL0     H 5425   9.573   9.293   4.985 -2.1051 -1.1315 -2.0428
  764MOL0     H 5426   9.337   9.310   5.051 -2.8550  0.5375  3.7142
  764MOL0     H 5427   9.337   9.487   5.054  0.7670  0.2434 -1.6935
  764MOL0     H 5428   9.493   9.386   5.430  5.0016  0.7765 -1.0046
  764MOL0     H 5429   9.821   9.586   4.642  0.0305  0.7963 -1.4904
  764MOL0     H 5430   9.836   9.584   4.319 -0.7939  0.7103  0.1921
  764MOL0     H 5431   9.878   9.670   4.470  1.5984  0.3790  0.8539
  764MOL0     H 5432  10.002   9.585   4.375 -1.0817 -1.9261  0.1676
  765MOL0     O 5433   1.506   2.717   1.657  0.5234  0.3497 -0.7076
  765MOL0     C 5434   1.499   2.611   1.714 -0.5038 -0.7524 -0.5408
  765MOL0     O 5435   1.395   2.531   1.706  0.2106  0.1189 -0.1989
  765MOL0     C 5436   1.314   2.544   1.596 -0.9695  0.0160 -0.0893
  765MOL0     C 5437   1.210   2.637   1.583  0.4462  0.3812  0.5861
  765MOL0     C 5438   1.131   2.641   1.466  0.0517  0.2137  0.5481
  765MOL0     C 5439   1.159   2.556   1.352  0.3780 -0.0732 -0.4062
  765MOL0     O 5440   1.103   2.549   1.225 -0.1325 -0.4780  0.7364
  765MOL0     C 5441   1.154   2.634   1.123  0.5592 -0.3449 -0.2474
  765MOL0     C 5442   1.174   2.547   1.006 -0.0987 -0.2372 -1.0260
  765MOL0     C 5443   1.199   2.645   0.878  0.1709  0.3494 -0.9414
  765MOL0     C 5444   1.300   2.587   0.778 -0.3909  0.2929 -0.1610
  765MOL0     C 5445   1.292   2.651   0.643  0.2049  0.6981  0.4561
  765MOL0     C 5446   1.370   2.787   0.649 -0.9985  0.6528  0.8291
  765MOL0     C 5447   1.363   2.856   0.514  0.1196  0.0836 -0.4815
  765MOL0     C 5448   1.447   2.982   0.511 -0.8246  0.0701 -0.3264
  765MOL0     N 5449   1.396   3.084   0.605  0.1746  0.7736 -0.1262
  765MOL0     C 5450   1.303   3.178   0.575 -0.1183  1.0770 -0.7255
  765MOL0     C 5451   1.279   3.256   0.686  0.1497 -0.3065 -0.4820
  765MOL0     C 5452   1.172   3.366   0.703 -0.4492 -0.8357  0.2879
  765MOL0     C 5453   1.191   3.498   0.618 -1.0237  0.1714  0.8552
  765MOL0     C 5454   1.318   3.568   0.646  0.8054  0.2996 -0.1950
  765MOL0     C 5455   1.338   3.689   0.549 -0.1190  0.2174 -0.4758
  765MOL0     O 5456   1.311   3.655   0.413  0.0068  0.4017  0.1244
  765MOL0     C 5457   1.281   3.765   0.331  0.8917  0.9078  0.2692
  765MOL0     C 5458   1.233   3.738   0.205 -0.1720  1.4340 -0.4164
  765MOL0     C 5459   1.187   3.837   0.123 -0.9126  0.3803  0.0580
  765MOL0     C 5460   1.110   3.783   0.005  0.3465 -0.1082  0.3326
  765MOL0     C 5461   1.188   3.972   0.157  0.3030 -0.5994  0.6137
  765MOL0     C 5462   1.128   4.087   0.080  0.0168  0.3366 -0.3949
  765MOL0     O 5463   1.165   4.211   0.124  0.8949  0.9664 -0.1938
  765MOL0     C 5464   1.122   4.315   0.046  0.2587 -0.1078 -0.4590
  765MOL0     C 5465   0.996   4.377   0.079 -0.2765  0.6275  0.1542
  765MOL0     C 5466   0.953   4.477  -0.009 -0.1871 -0.7212  0.2447
  765MOL0     C 5467   1.043   4.517  -0.113  0.1778 -0.2291  0.2138
  765MOL0     O 5468   0.994   4.609  -0.199 -0.3005 -0.1800  0.2279
  765MOL0     C 5469   1.017   4.599  -0.339  0.5178 -0.8739  1.1377
  765MOL0     C 5470   0.890   4.660  -0.396 -0.7717  0.2292  1.3260
  765MOL0     C 5471   0.905   4.811  -0.436 -0.0959  0.1343  0.3907
  765MOL0     C 5472   0.916   4.889  -0.309 -0.0213 -0.1238 -0.7972
  765MOL0     C 5473   0.977   5.029  -0.335 -0.4391 -0.1347 -0.1453
  765MOL0     C 5474   1.003   5.097  -0.206  0.1438 -0.3354  0.6515
  765MOL0     C 5475   1.080   5.225  -0.225 -0.6014  0.4959 -0.2372
  765MOL0     C 5476   1.027   5.328  -0.319  0.4904  0.9511 -0.1773
  765MOL0    Cl 5477   1.108   5.483  -0.344  0.2099  0.3716  0.2963
  765MOL0     C 5478   1.164   4.450  -0.140  0.4411 -0.4985  0.1673
  765MOL0     C 5479   1.191   4.345  -0.068  0.2762  0.2774 -0.0894
  765MOL0     O 5480   1.060   4.063  -0.022 -0.0557 -0.5599 -0.0491
  765MOL0     C 5481   1.248   3.995   0.281  0.0387 -0.2457  0.3087
  765MOL0     C 5482   1.288   3.897   0.370 -0.5030  0.0022 -0.2195
  765MOL0     N 5483   1.376   3.218   0.769 -0.2245 -0.5294  0.4703
  765MOL0     N 5484   1.451   3.116   0.726  0.3458  0.0717 -0.1472
  765MOL0     C 5485   1.247   2.455   1.380  0.5515  0.4151 -0.4346
  765MOL0     C 5486   1.334   2.450   1.492  0.6069  1.1023 -0.4065
  765MOL0     C 5487   1.597   2.583   1.823 -0.2232 -0.5390  0.4251
  765MOL0     C 5488   1.628   2.684   1.916  0.7129 -0.0299 -0.4158
  765MOL0     C 5489   1.710   2.650   2.025  0.3854  0.7972  0.0654
  765MOL0     C 5490   1.774   2.525   2.031 -0.6152 -0.0360  0.0186
  765MOL0     O 5491   1.865   2.485   2.130  0.2508 -0.8750 -0.2086
  765MOL0     C 5492   1.890   2.576   2.242  0.1369 -0.2760 -0.5978
  765MOL0     C 5493   1.991   2.681   2.201 -0.0028 -0.7752  0.2922
  765MOL0     C 5494   2.121   2.650   2.266  0.4663  0.0542  0.6998
  765MOL0     C 5495   2.220   2.763   2.238 -0.1781  0.0042  0.5537
  765MOL0     C 5496   2.352   2.751   2.293 -0.1354  0.2969 -0.4403
  765MOL0     C 5497   2.461   2.721   2.322  0.0546 -0.1514  0.2109
  765MOL0     C 5498   1.749   2.428   1.933  0.4418 -0.6173  0.7678
  765MOL0     C 5499   1.657   2.452   1.826 -1.0384  0.2341  0.5607
  765MOL0     C 5500   1.644   2.351   1.718  0.2721  0.3079  0.0174
  765MOL0     H 5501   1.189   2.702   1.668 -2.5619  1.2894 -0.7252
  765MOL0     H 5502   1.050   2.713   1.451  1.1841  0.9240 -3.3920
  765MOL0     H 5503   1.250   2.679   1.148 -0.5168  2.6300 -1.0153
  765MOL0     H 5504   1.076   2.706   1.096 -2.0780 -2.0951  2.1453
  765MOL0     H 5505   1.252   2.476   1.031 -0.8410 -0.5084  0.7247
  765MOL0     H 5506   1.078   2.495   0.995 -0.1795 -0.1184 -0.8905
  765MOL0     H 5507   1.103   2.668   0.831 -0.7345  1.0235  1.1190
  765MOL0     H 5508   1.222   2.744   0.918 -0.1590  0.0095  0.1172
  765MOL0     H 5509   1.397   2.604   0.825 -0.4017 -1.3265  0.5254
  765MOL0     H 5510   1.288   2.480   0.758 -1.5694  0.6832 -1.7146
  765MOL0     H 5511   1.196   2.665   0.594 -0.3039 -2.4062  0.3548
  765MOL0     H 5512   1.347   2.585   0.575  2.3675  1.1854  1.6397
  765MOL0     H 5513   1.332   2.852   0.729  0.6393 -0.1458  2.3096
  765MOL0     H 5514   1.476   2.767   0.661 -1.2792 -1.0440  0.6849
  765MOL0     H 5515   1.271   2.902   0.477  2.3204  2.9423 -2.9112
  765MOL0     H 5516   1.395   2.788   0.435 -0.9959 -0.7179 -0.2562
  765MOL0     H 5517   1.539   2.939   0.551 -1.5970 -0.8326  0.5395
  765MOL0     H 5518   1.446   3.013   0.406 -2.6385  0.3075 -0.2616
  765MOL0     H 5519   1.243   3.165   0.485  1.9117 -0.6524 -1.9226
  765MOL0     H 5520   1.166   3.397   0.808  3.8661  0.9824  0.2515
  765MOL0     H 5521   1.075   3.327   0.671 -0.8787  2.2504 -2.6913
  765MOL0     H 5522   1.195   3.466   0.514  1.8071  0.6082  0.7445
  765MOL0     H 5523   1.108   3.570   0.626 -0.9625  0.4124 -0.4616
  765MOL0     H 5524   1.319   3.607   0.749  2.8265  1.6065 -0.6499
  765MOL0     H 5525   1.400   3.496   0.634  1.2649  0.0514  3.3067
  765MOL0     H 5526   1.269   3.767   0.583  1.5422  0.9518  1.4107
  765MOL0     H 5527   1.437   3.734   0.553 -0.1611  0.6143 -2.5222
  765MOL0     H 5528   1.219   3.636   0.169 -5.0516  1.5567  0.3434
  765MOL0     H 5529   1.007   3.817   0.019  0.1808 -0.5148  0.1035
  765MOL0     H 5530   1.117   3.674   0.003  2.6886 -0.0427  1.2777
  765MOL0     H 5531   1.149   3.824  -0.089 -4.9377  3.5214 -0.7509
  765MOL0     H 5532   0.941   4.359   0.171 -1.3667 -0.4815 -0.6881
  765MOL0     H 5533   0.872   4.547   0.007  1.2140  0.9709  0.3561
  765MOL0     H 5534   1.100   4.658  -0.380 -0.9259 -1.3829 -2.9997
  765MOL0     H 5535   1.038   4.494  -0.366 -0.3465 -0.4143 -1.6539
  765MOL0     H 5536   0.875   4.602  -0.489  1.0310  0.4523  0.8665
  765MOL0     H 5537   0.801   4.640  -0.336 -3.6431 -2.6420 -3.2460
  765MOL0     H 5538   0.812   4.839  -0.486 -0.2860 -0.0576  0.6335
  765MOL0     H 5539   0.989   4.845  -0.497 -1.0898 -0.6866 -1.5008
  765MOL0     H 5540   0.982   4.846  -0.233  0.1626  0.0707 -0.8419
  765MOL0     H 5541   0.820   4.901  -0.260  1.6427  1.3873  2.4056
  765MOL0     H 5542   1.075   5.024  -0.384 -1.4813  1.0948 -2.5480
  765MOL0     H 5543   0.920   5.094  -0.403 -1.6605 -3.4579 -2.5873
  765MOL0     H 5544   1.069   5.028  -0.153 -1.6340 -2.9448 -0.2976
  765MOL0     H 5545   0.919   5.117  -0.139  0.7076 -0.1823  1.3225
  765MOL0     H 5546   1.188   5.207  -0.230 -0.3457  1.3421  1.4367
  765MOL0     H 5547   1.073   5.269  -0.125  1.1958 -1.4867  0.8558
  765MOL0     H 5548   0.923   5.345  -0.289  0.5988 -0.2146  0.9087
  765MOL0     H 5549   1.034   5.277  -0.416 -0.5192  1.0363 -0.3010
  765MOL0     H 5550   1.215   4.482  -0.230  4.1792 -3.0375  1.1441
  765MOL0     H 5551   1.274   4.284  -0.102  0.3860  0.5144 -0.2518
  765MOL0     H 5552   1.257   4.094   0.324  1.5625  0.5465 -1.6601
  765MOL0     H 5553   1.334   3.921   0.465  1.1159 -0.6031 -0.8069
  765MOL0     H 5554   1.262   2.385   1.298  1.1075  0.2129 -0.1661
  765MOL0     H 5555   1.409   2.372   1.503  1.0037  1.8480  3.3039
  765MOL0     H 5556   1.593   2.786   1.907  2.0265  0.4524 -0.3420
  765MOL0     H 5557   1.714   2.726   2.102  0.4347  0.4617  0.3992
  765MOL0     H 5558   1.795   2.623   2.267  1.0982 -0.0917  3.3939
  765MOL0     H 5559   1.908   2.511   2.328 -0.1519 -0.6264 -0.8003
  765MOL0     H 5560   1.956   2.775   2.244  0.0911 -0.9331  0.7243
  765MOL0     H 5561   1.994   2.686   2.092 -0.6237 -1.9867  0.2008
  765MOL0     H 5562   2.119   2.643   2.375 -1.2740 -0.8976  0.6447
  765MOL0     H 5563   2.164   2.558   2.226  4.2756 -0.0003  4.2855
  765MOL0     H 5564   2.184   2.855   2.284 -0.5393  0.0482  0.1925
  765MOL0     H 5565   2.231   2.770   2.129 -2.4565 -6.4264 -0.5112
  765MOL0     H 5566   2.566   2.706   2.339 -0.0408 -0.6604  0.3609
  765MOL0     H 5567   1.819   2.346   1.924  0.2924 -0.5410 -2.4854
  765MOL0     H 5568   1.717   2.269   1.717 -1.2674 -1.1171 -0.6986
  765MOL0     H 5569   1.549   2.298   1.734 -0.1260  0.2623 -2.1721
  765MOL0     H 5570   1.652   2.393   1.617  3.2046  2.6893  1.0920
  766MOL0     O 5571   6.266   8.801  10.773  0.1273  0.1512  1.1483
  766MOL0     C 5572   6.276   8.892  10.851 -0.1335  1.1278 -0.0553
  766MOL0     O 5573   6.177   8.974  10.884  0.2565 -0.0692 -0.4058
  766MOL0     C 5574   6.066   8.969  10.812 -0.5000  0.9351  0.1522
  766MOL0     C 5575   5.951   8.938  10.877  0.1475  0.4593  0.0919
  766MOL0     C 5576   5.832   8.951  10.803 -0.1042  0.7623 -0.3212
  766MOL0     C 5577   5.831   8.954  10.663  0.0374 -0.5381  0.6308
  766MOL0     O 5578   5.712   8.966  10.586  0.3872  0.6520  0.0497
  766MOL0     C 5579   5.593   8.909  10.648 -0.4938 -0.5530 -0.0921
  766MOL0     C 5580   5.462   8.942  10.573  0.2355  0.7269  0.4635
  766MOL0     C 5581   5.395   8.822  10.495  0.8404 -0.1289  0.2358
  766MOL0     C 5582   5.266   8.857  10.433 -0.3195 -1.1473 -0.7662
  766MOL0     C 5583   5.165   8.741  10.415 -0.3016 -0.1225  0.6273
  766MOL0     C 5584   5.150   8.636  10.529  0.5980 -0.6443  0.9243
  766MOL0     C 5585   5.031   8.551  10.491 -0.5160  0.7536  0.6325
  766MOL0     C 5586   4.895   8.610  10.458 -1.2770 -0.1406 -0.6756
  766MOL0     N 5587   4.803   8.509  10.424  0.6041 -0.0554  0.7019
  766MOL0     C 5588   4.783   8.456  10.299  0.1549  0.2861  0.2997
  766MOL0     C 5589   4.683   8.369  10.313  0.0318 -0.3041  0.2069
  766MOL0     C 5590   4.640   8.259  10.220  0.0140  0.0047  0.4218
  766MOL0     C 5591   4.505   8.211  10.271  0.6909  0.2413 -0.0893
  766MOL0     C 5592   4.412   8.167  10.160  0.7725  1.1846 -0.2363
  766MOL0     C 5593   4.278   8.134  10.225  0.8349  0.8476  0.0720
  766MOL0     O 5594   4.311   8.019  10.309  0.1328 -0.0464  0.3307
  766MOL0     C 5595   4.226   7.991  10.416 -0.8183  1.4402  0.4084
  766MOL0     C 5596   4.261   7.874  10.498 -0.0184 -0.1386 -0.4872
  766MOL0     C 5597   4.176   7.820  10.598  0.6171 -0.4863  1.1282
  766MOL0     C 5598   4.225   7.691  10.654 -0.5092 -0.2996 -0.3503
  766MOL0     C 5599   4.042   7.881  10.608  0.1936  0.9515 -0.4043
  766MOL0     C 5600   3.936   7.814  10.686  1.4035 -0.1284 -0.8223
  766MOL0     O 5601   3.942   7.688  10.724  0.6059  0.5951 -0.7349
  766MOL0     C 5602   3.835   7.639  10.799 -0.2277 -1.6619 -0.3419
  766MOL0     C 5603   3.709   7.602  10.745 -1.9622 -0.4512  0.0684
  766MOL0     C 5604   3.619   7.538  10.831 -0.2417  0.2005 -0.7354
  766MOL0     C 5605   3.625   7.525  10.968 -1.5093 -0.4712  0.1776
  766MOL0     O 5606   3.530   7.466  11.043  0.2273 -0.6404 -0.1590
  766MOL0     C 5607   3.575   7.409  11.166  0.3994 -0.0294  1.3862
  766MOL0     C 5608   3.466   7.325  11.224 -0.1812  0.8105 -0.5563
  766MOL0     C 5609   3.403   7.223  11.134  0.6610 -0.7922 -0.8300
  766MOL0     C 5610   3.505   7.112  11.126 -0.6922  0.4901  0.1107
  766MOL0     C 5611   3.443   7.006  11.034  0.2935  0.0186 -0.2156
  766MOL0     C 5612   3.515   6.871  11.035  0.3631  0.2168  0.5968
  766MOL0     C 5613   3.428   6.764  10.962  0.0330  0.1926  0.2206
  766MOL0     C 5614   3.301   6.731  11.045 -0.2837 -0.0172 -0.5183
  766MOL0    Cl 5615   3.207   6.580  11.006  0.2763  0.1173 -0.2621
  766MOL0     C 5616   3.745   7.581  11.023 -0.1788  0.2109  0.3573
  766MOL0     C 5617   3.850   7.624  10.942  0.1568  0.5916  1.0409
  766MOL0     O 5618   3.847   7.896  10.714 -0.5084 -0.1519  0.0421
  766MOL0     C 5619   4.013   7.990  10.519 -0.4326  0.1676  0.4683
  766MOL0     C 5620   4.094   8.038  10.418  0.3424 -0.1755  0.6089
  766MOL0     N 5621   4.643   8.374  10.449  0.5227  0.7386  1.3625
  766MOL0     N 5622   4.723   8.448  10.514  0.4604  0.1636 -0.7124
  766MOL0     C 5623   5.953   8.979  10.603 -0.2069  0.2939  0.2536
  766MOL0     C 5624   6.070   8.993  10.677 -0.8704 -0.3182  0.8754
  766MOL0     C 5625   6.397   8.911  10.930  0.0502  0.9528  0.6707
  766MOL0     C 5626   6.408   9.020  11.018  0.3458  0.2755 -0.1165
  766MOL0     C 5627   6.521   9.038  11.096 -0.5781  0.0789 -0.7287
  766MOL0     C 5628   6.631   8.953  11.085 -0.6279 -1.1417  1.0063
  766MOL0     O 5629   6.737   8.977  11.166  0.4450 -0.1894  0.5049
  766MOL0     C 5630   6.838   9.074  11.121  0.8784  0.1343 -0.1674
  766MOL0     C 5631   6.953   9.046  11.213  0.4101 -0.3622  0.4148
  766MOL0     C 5632   7.024   8.903  11.183  1.3227 -0.1094 -0.7348
  766MOL0     C 5633   7.093   8.847  11.312  0.4050  0.0939 -0.2064
  766MOL0     C 5634   7.003   8.787  11.412  0.3844  0.1943 -0.2002
  766MOL0     C 5635   6.935   8.742  11.494  1.1466 -0.7161 -0.4671
  766MOL0     C 5636   6.628   8.847  10.995  0.0078 -0.0312 -0.8004
  766MOL0     C 5637   6.506   8.819  10.928 -0.6518  0.5921  0.6622
  766MOL0     C 5638   6.516   8.690  10.840  0.3418  0.3084 -0.0194
  766MOL0     H 5639   5.956   8.915  10.983 -1.0491 -1.4712 -0.2268
  766MOL0     H 5640   5.742   8.945  10.863  1.1392  1.0910  1.6644
  766MOL0     H 5641   5.576   8.940  10.751 -0.4956 -1.4267  0.1774
  766MOL0     H 5642   5.614   8.803  10.636  0.5170 -0.3714 -0.0253
  766MOL0     H 5643   5.385   8.959  10.649  1.4044 -1.9935  2.4190
  766MOL0     H 5644   5.479   9.025  10.505  0.4145  2.6073  2.6586
  766MOL0     H 5645   5.456   8.806  10.407 -0.7035  0.7152 -1.0446
  766MOL0     H 5646   5.379   8.738  10.564 -1.6011  0.1340  0.0924
  766MOL0     H 5647   5.218   8.929  10.500 -0.3766 -2.0570  0.1906
  766MOL0     H 5648   5.285   8.912  10.340 -1.7161  2.0327  0.6572
  766MOL0     H 5649   5.188   8.689  10.321  0.7870  0.5277  0.5111
  766MOL0     H 5650   5.074   8.800  10.403  0.5980  1.1809  0.0022
  766MOL0     H 5651   5.240   8.574  10.521  0.5485 -0.6443  0.3471
  766MOL0     H 5652   5.146   8.668  10.633  3.8659 -0.6432  1.1501
  766MOL0     H 5653   5.004   8.508  10.588  0.2293 -0.3552  0.3616
  766MOL0     H 5654   5.062   8.479  10.416  0.1123  0.3558  1.2584
  766MOL0     H 5655   4.868   8.667  10.547  0.2860 -1.9779  1.0586
  766MOL0     H 5656   4.900   8.671  10.367  0.6417  1.3475  0.3689
  766MOL0     H 5657   4.864   8.456  10.227  2.3812 -4.6476  2.2972
  766MOL0     H 5658   4.726   8.193  10.233  1.1953  1.3510 -0.3169
  766MOL0     H 5659   4.639   8.290  10.115 -3.9905  0.1456  0.3382
  766MOL0     H 5660   4.508   8.133  10.347 -1.5629 -0.8578 -1.0398
  766MOL0     H 5661   4.450   8.292  10.320 -0.8044 -0.7326 -0.0958
  766MOL0     H 5662   4.397   8.248  10.089  3.8289 -0.6420 -3.3125
  766MOL0     H 5663   4.453   8.081  10.105  3.1041  2.5609 -0.7810
  766MOL0     H 5664   4.239   8.225  10.272 -2.4886 -0.7485  0.7114
  766MOL0     H 5665   4.211   8.100  10.146  2.7537 -0.4856 -1.0437
  766MOL0     H 5666   4.359   7.839  10.468 -0.8879 -1.6942 -1.6274
  766MOL0     H 5667   4.224   7.608  10.582 -0.5714  0.3962 -1.1764
  766MOL0     H 5668   4.169   7.667  10.745 -1.0977 -0.7490 -0.8147
  766MOL0     H 5669   4.327   7.709  10.689 -1.1524  0.0729  1.3965
  766MOL0     H 5670   3.698   7.612  10.638  0.3006  0.5665 -0.1196
  766MOL0     H 5671   3.527   7.488  10.803 -0.7759  0.6479  0.1558
  766MOL0     H 5672   3.665   7.350  11.144 -0.5241 -1.0266  0.1761
  766MOL0     H 5673   3.600   7.497  11.226  0.0077  1.8779 -1.1073
  766MOL0     H 5674   3.502   7.282  11.318 -0.1855  0.7879 -0.5656
  766MOL0     H 5675   3.385   7.395  11.247 -1.5635  0.4403 -3.7316
  766MOL0     H 5676   3.387   7.264  11.033 -0.9987  0.9451  0.0575
  766MOL0     H 5677   3.312   7.174  11.169 -1.5901 -0.0984 -5.0667
  766MOL0     H 5678   3.530   7.073  11.225  1.8699  0.6253 -0.4217
  766MOL0     H 5679   3.596   7.158  11.086  2.5079 -3.7838  1.7084
  766MOL0     H 5680   3.338   6.993  11.061  0.2808  0.7981  0.1211
  766MOL0     H 5681   3.439   7.047  10.932 -1.9488  1.7552  0.4997
  766MOL0     H 5682   3.540   6.828  11.132  4.7356  2.3428  0.6306
  766MOL0     H 5683   3.616   6.869  10.992  1.4342  1.2336  2.8737
  766MOL0     H 5684   3.495   6.682  10.937 -1.2661 -0.1734 -2.4842
  766MOL0     H 5685   3.396   6.802  10.864 -1.4889 -1.5275 -0.0117
  766MOL0     H 5686   3.236   6.820  11.037 -0.4326 -0.1611 -1.0014
  766MOL0     H 5687   3.335   6.725  11.148 -1.6852  0.6394  0.0139
  766MOL0     H 5688   3.766   7.576  11.130  1.1575 -0.3564  0.0867
  766MOL0     H 5689   3.939   7.656  10.994 -0.4221 -0.5724  2.8453
  766MOL0     H 5690   3.922   8.042  10.545  1.4173  3.1805  1.5522
  766MOL0     H 5691   4.053   8.116  10.354 -0.1816 -0.3292  0.7508
  766MOL0     H 5692   5.951   8.981  10.495  0.0832 -0.9205  0.2188
  766MOL0     H 5693   6.158   9.011  10.617 -0.3782 -2.6050  0.8020
  766MOL0     H 5694   6.320   9.078  11.044  0.9733  1.9249 -1.4982
  766MOL0     H 5695   6.534   9.119  11.167 -1.7275  0.4256 -0.8908
  766MOL0     H 5696   6.854   9.058  11.014 -1.5358 -3.8459 -0.1127
  766MOL0     H 5697   6.785   9.168  11.135  2.1460  1.4224 -3.0863
  766MOL0     H 5698   6.907   9.051  11.312 -2.3123  1.8536 -0.8092
  766MOL0     H 5699   7.033   9.121  11.203  2.5740 -2.7468 -1.4706
  766MOL0     H 5700   6.949   8.827  11.158 -0.9819  1.2887  1.4370
  766MOL0     H 5701   7.086   8.906  11.093 -0.3986  0.2168 -1.9777
  766MOL0     H 5702   7.160   8.918  11.361  1.6109 -0.7096 -0.6429
  766MOL0     H 5703   7.157   8.761  11.291  0.9702  0.3580  0.3976
  766MOL0     H 5704   6.866   8.702  11.566  0.9702  3.6430  2.2128
  766MOL0     H 5705   6.718   8.786  11.003 -0.7366 -1.1001 -0.3277
  766MOL0     H 5706   6.441   8.619  10.874  0.8176  0.0943  0.6005
  766MOL0     H 5707   6.509   8.712  10.733 -4.1898  1.6024  0.3166
  766MOL0     H 5708   6.612   8.646  10.867  0.9320  1.8864  0.5931
  767MOL0     O 5709   4.866   5.625   0.277 -0.1433 -0.4569  0.6265
  767MOL0     C 5710   4.779   5.578   0.345 -0.3890  0.4876  0.9608
  767MOL0     O 5711   4.801   5.522   0.471  0.3022  0.0437 -0.7300
  767MOL0     C 5712   4.923   5.550   0.519  0.3316  0.8704 -0.6756
  767MOL0     C 5713   5.000   5.441   0.565  0.2839 -0.4250 -0.1550
  767MOL0     C 5714   5.114   5.463   0.641  0.7474  0.1380 -0.0024
  767MOL0     C 5715   5.151   5.599   0.673  0.4228 -0.0842 -0.5310
  767MOL0     O 5716   5.252   5.631   0.758  0.7289 -0.4358 -0.3919
  767MOL0     C 5717   5.338   5.535   0.809 -0.8950  0.3817  0.4101
  767MOL0     C 5718   5.398   5.569   0.947  0.3140 -0.0925  0.3822
  767MOL0     C 5719   5.500   5.689   0.945 -0.3655 -0.3138 -0.0070
  767MOL0     C 5720   5.638   5.655   0.904  0.0092 -0.9382 -0.4121
  767MOL0     C 5721   5.753   5.752   0.943 -0.3932 -0.5466  1.2361
  767MOL0     C 5722   5.900   5.709   0.912 -0.5216  0.2324 -1.4780
  767MOL0     C 5723   6.004   5.796   1.003 -0.5114  0.5925 -0.1328
  767MOL0     C 5724   6.147   5.759   0.959 -0.0703 -0.1762 -0.5050
  767MOL0     N 5725   6.199   5.627   0.985  0.4586  0.3104 -0.2344
  767MOL0     C 5726   6.243   5.589   1.107  1.0071 -0.3343  0.0965
  767MOL0     C 5727   6.212   5.457   1.129  0.1070 -0.3305 -0.2221
  767MOL0     C 5728   6.222   5.399   1.263 -0.7871  0.2969  0.8159
  767MOL0     C 5729   6.361   5.329   1.290  0.2728 -0.2752  0.3192
  767MOL0     C 5730   6.360   5.263   1.418  0.2808  0.4273 -0.3388
  767MOL0     C 5731   6.490   5.169   1.428 -0.2377 -0.5421  0.3777
  767MOL0     O 5732   6.610   5.257   1.414  0.9780 -0.3054 -0.1248
  767MOL0     C 5733   6.730   5.204   1.457  0.6643  0.2590 -0.3590
  767MOL0     C 5734   6.817   5.291   1.515 -0.4528 -0.9053  0.2630
  767MOL0     C 5735   6.940   5.250   1.571 -0.1422  0.6136 -1.4718
  767MOL0     C 5736   7.025   5.359   1.624  0.4791 -0.7583  0.2680
  767MOL0     C 5737   6.975   5.111   1.570 -0.2313 -0.4477  0.2247
  767MOL0     C 5738   7.107   5.062   1.616  0.4651 -1.0548  0.2122
  767MOL0     O 5739   7.208   5.144   1.606 -0.2271  0.8077  0.0781
  767MOL0     C 5740   7.336   5.105   1.647  0.8793  0.5909  0.3496
  767MOL0     C 5741   7.390   4.980   1.623  0.5250  0.6604  0.2253
  767MOL0     C 5742   7.513   4.936   1.679 -0.6905  0.1969  0.2475
  767MOL0     C 5743   7.594   5.032   1.752  0.2147  0.1838 -0.5259
  767MOL0     O 5744   7.715   4.995   1.811 -0.6686  0.3200  0.2064
  767MOL0     C 5745   7.811   4.914   1.740  0.5959 -0.5757  0.6077
  767MOL0     C 5746   7.947   4.922   1.809  0.5897 -0.5874  0.2569
  767MOL0     C 5747   8.034   4.810   1.760  0.1068  0.6462  0.4408
  767MOL0     C 5748   8.156   4.810   1.844  0.3056 -0.4741  0.0356
  767MOL0     C 5749   8.230   4.942   1.817  0.0996  0.2033  0.3190
  767MOL0     C 5750   8.378   4.932   1.869  0.5300 -0.6570 -1.1955
  767MOL0     C 5751   8.457   5.069   1.870  0.6666 -0.1576 -0.9055
  767MOL0     C 5752   8.446   5.162   1.992 -0.3649  0.4547 -1.2555
  767MOL0    Cl 5753   8.273   5.207   2.018 -0.1464  0.3182 -0.8944
  767MOL0     C 5754   7.528   5.159   1.777  0.3586  0.1473 -0.5008
  767MOL0     C 5755   7.402   5.196   1.727  0.0120  0.3706 -0.1805
  767MOL0     O 5756   7.114   4.946   1.650  0.4402  0.1346  0.9131
  767MOL0     C 5757   6.882   5.015   1.520  0.8184 -0.4143 -0.1181
  767MOL0     C 5758   6.757   5.063   1.472 -0.4167 -0.2625 -0.1008
  767MOL0     N 5759   6.161   5.417   1.010 -0.1159 -0.0370 -0.2899
  767MOL0     N 5760   6.155   5.514   0.924 -0.0268 -0.1483  0.2466
  767MOL0     C 5761   5.080   5.705   0.629  0.4663  0.4725 -0.4141
  767MOL0     C 5762   4.960   5.683   0.555 -0.4000 -1.3273 -0.4645
  767MOL0     C 5763   4.651   5.562   0.278 -0.2271 -0.0928  0.1206
  767MOL0     C 5764   4.550   5.499   0.351  0.1579  0.8329  0.3996
  767MOL0     C 5765   4.416   5.485   0.295 -0.3879  0.8990 -0.3548
  767MOL0     C 5766   4.391   5.516   0.160 -0.5206  1.0985  0.5380
  767MOL0     O 5767   4.268   5.487   0.111  0.4362 -0.3081 -0.6978
  767MOL0     C 5768   4.229   5.532  -0.015 -0.5063 -0.3520  0.4548
  767MOL0     C 5769   4.090   5.486  -0.060  0.7534 -0.9102 -0.6540
  767MOL0     C 5770   4.093   5.457  -0.216  0.1486 -0.0473  0.2458
  767MOL0     C 5771   4.108   5.566  -0.328  0.0181  0.3974  0.2437
  767MOL0     C 5772   4.248   5.616  -0.336  0.5956 -0.1989 -0.8248
  767MOL0     C 5773   4.361   5.653  -0.335 -0.4646 -0.7091  0.0733
  767MOL0     C 5774   4.500   5.572   0.091 -0.2382 -0.7938  0.0357
  767MOL0     C 5775   4.621   5.599   0.144 -0.6419  0.7688 -0.0566
  767MOL0     C 5776   4.733   5.643   0.045 -0.7005  0.7092  0.4540
  767MOL0     H 5777   4.981   5.340   0.528  0.1559 -0.6112  0.4073
  767MOL0     H 5778   5.160   5.372   0.680 -2.3953 -1.0330  1.3233
  767MOL0     H 5779   5.415   5.514   0.734 -2.0016 -0.6400 -0.4954
  767MOL0     H 5780   5.295   5.438   0.835 -0.1347  0.7799  3.4494
  767MOL0     H 5781   5.318   5.583   1.020  0.0215  1.9809 -0.2793
  767MOL0     H 5782   5.450   5.475   0.971  0.1372  0.4159  2.9269
  767MOL0     H 5783   5.463   5.769   0.880 -3.7895 -1.8975 -0.2149
  767MOL0     H 5784   5.508   5.727   1.047  2.8260  1.1362 -0.6629
  767MOL0     H 5785   5.670   5.571   0.967  2.6576  0.5906  0.4392
  767MOL0     H 5786   5.652   5.632   0.798  0.9507 -0.4903 -0.3912
  767MOL0     H 5787   5.751   5.758   1.052  0.8281  0.2566  1.2387
  767MOL0     H 5788   5.752   5.856   0.909  1.9416 -1.5752 -2.5625
  767MOL0     H 5789   5.919   5.603   0.928  2.3443  1.0781  1.7727
  767MOL0     H 5790   5.924   5.715   0.805  2.0736  0.2090 -0.9548
  767MOL0     H 5791   5.994   5.782   1.111  1.7762  1.9355  0.3050
  767MOL0     H 5792   5.974   5.901   0.994 -0.0492  0.9492  2.0280
  767MOL0     H 5793   6.141   5.766   0.850 -1.5062  1.4865 -0.3840
  767MOL0     H 5794   6.211   5.836   1.002 -0.9983 -0.0369  0.7050
  767MOL0     H 5795   6.264   5.660   1.186 -0.7606  2.1734 -1.5638
  767MOL0     H 5796   6.145   5.322   1.275  1.2035 -1.5326  3.0756
  767MOL0     H 5797   6.194   5.475   1.336 -0.6560  1.5586 -0.4122
  767MOL0     H 5798   6.384   5.251   1.217 -0.6474 -1.8446  1.6330
  767MOL0     H 5799   6.433   5.411   1.290 -1.6344  1.5156 -0.8511
  767MOL0     H 5800   6.375   5.340   1.494  0.7276  2.7529 -2.6418
  767MOL0     H 5801   6.277   5.196   1.445  1.8566 -1.0140  1.2263
  767MOL0     H 5802   6.489   5.123   1.527  0.1207  0.3209  0.8008
  767MOL0     H 5803   6.485   5.089   1.353 -2.3188 -0.0323 -0.0783
  767MOL0     H 5804   6.796   5.397   1.505  0.2750 -0.9314 -2.2988
  767MOL0     H 5805   7.085   5.407   1.546  0.3628 -0.6222  0.2603
  767MOL0     H 5806   7.092   5.310   1.695  1.7702  0.7478  0.1356
  767MOL0     H 5807   6.969   5.437   1.678 -1.6136 -1.4072 -0.8303
  767MOL0     H 5808   7.328   4.908   1.570 -1.1468 -0.0264  2.9448
  767MOL0     H 5809   7.539   4.836   1.648  2.4298  0.6454  1.0430
  767MOL0     H 5810   7.769   4.813   1.741 -0.7095 -0.1325 -1.7093
  767MOL0     H 5811   7.818   4.954   1.638  0.1128  3.9533  2.1419
  767MOL0     H 5812   7.989   5.015   1.770  3.1755 -1.3995  0.9128
  767MOL0     H 5813   7.927   4.925   1.916 -0.8201 -1.3526  0.0329
  767MOL0     H 5814   8.047   4.821   1.652 -2.3477  0.2316  0.0457
  767MOL0     H 5815   7.982   4.718   1.788  1.6104  0.4118  2.6951
  767MOL0     H 5816   8.226   4.733   1.810  1.5163  0.6477 -0.1196
  767MOL0     H 5817   8.135   4.796   1.950  3.8379  0.9235  1.0856
  767MOL0     H 5818   8.232   4.957   1.709 -1.7236  1.4807  0.4036
  767MOL0     H 5819   8.168   5.018   1.866  2.0690  0.9847  1.7318
  767MOL0     H 5820   8.436   4.861   1.809  1.1688  0.5659 -2.0690
  767MOL0     H 5821   8.373   4.904   1.975  2.8416  1.9899 -0.2628
  767MOL0     H 5822   8.432   5.133   1.785  1.4141  0.4226 -0.6986
  767MOL0     H 5823   8.561   5.041   1.849  0.6121  0.5007 -2.1442
  767MOL0     H 5824   8.495   5.258   1.974 -0.6353  1.0796  1.0830
  767MOL0     H 5825   8.497   5.128   2.082 -0.1568  1.4731 -0.9711
  767MOL0     H 5826   7.585   5.221   1.846  1.0756 -1.0778  0.0629
  767MOL0     H 5827   7.356   5.291   1.751  1.6957  0.9038  1.0643
  767MOL0     H 5828   6.899   4.908   1.517 -0.3151 -0.6679  1.1972
  767MOL0     H 5829   6.692   4.989   1.426  0.7590 -0.4320 -1.5451
  767MOL0     H 5830   5.103   5.808   0.654  1.2001  0.4164 -0.8251
  767MOL0     H 5831   4.905   5.765   0.511  0.9563 -0.2269 -0.1522
  767MOL0     H 5832   4.557   5.458   0.451 -2.0216  0.3331  0.4019
  767MOL0     H 5833   4.340   5.448   0.362 -0.5537  1.5116 -0.1916
  767MOL0     H 5834   4.237   5.640  -0.029  1.3448 -0.7729 -2.4824
  767MOL0     H 5835   4.305   5.492  -0.082 -0.7668 -0.0365 -0.0401
  767MOL0     H 5836   4.007   5.549  -0.027  0.0844 -2.5490  0.9604
  767MOL0     H 5837   4.074   5.386  -0.017 -1.7825  0.0787  0.8936
  767MOL0     H 5838   4.165   5.379  -0.240  1.0761  1.5511 -2.6349
  767MOL0     H 5839   3.995   5.413  -0.238 -0.3524  1.9942 -2.0947
  767MOL0     H 5840   4.027   5.634  -0.304 -1.3840 -1.0547 -0.1982
  767MOL0     H 5841   4.078   5.524  -0.425 -2.1780 -2.8012  2.1129
  767MOL0     H 5842   4.467   5.671  -0.328  0.4026 -5.0995  4.0450
  767MOL0     H 5843   4.484   5.619  -0.005 -0.2724  0.2734  0.5534
  767MOL0     H 5844   4.790   5.732   0.075  0.1930 -0.3953  2.2253
  767MOL0     H 5845   4.801   5.559   0.037 -0.1792  1.0960  0.7159
  767MOL0     H 5846   4.687   5.666  -0.051  3.0634 -0.2862 -1.7826
  768MOL0     O 5847   4.932   2.466   9.942 -0.4060 -0.3859  0.0258
  768MOL0     C 5848   5.038   2.501   9.905  0.1274  0.5657  1.1687
  768MOL0     O 5849   5.142   2.409   9.864  0.3324 -0.2505  0.1196
  768MOL0     C 5850   5.143   2.280   9.890  0.1940  0.6477 -0.5740
  768MOL0     C 5851   5.214   2.213   9.796  0.4180  0.4766 -0.3349
  768MOL0     C 5852   5.257   2.078   9.819 -0.0603 -0.7387 -0.2198
  768MOL0     C 5853   5.218   2.014   9.936 -0.9476  0.4103  0.2689
  768MOL0     O 5854   5.232   1.879   9.943  0.3980 -0.0238 -0.6470
  768MOL0     C 5855   5.359   1.816   9.933  0.3371  0.5243 -0.7547
  768MOL0     C 5856   5.347   1.669   9.971 -0.2729  0.1370  0.1115
  768MOL0     C 5857   5.253   1.585   9.893 -1.0163  0.6149  0.0029
  768MOL0     C 5858   5.301   1.567   9.748 -0.6647 -0.8659  0.6284
  768MOL0     C 5859   5.199   1.487   9.661  0.3606 -0.9336 -0.4069
  768MOL0     C 5860   5.046   1.533   9.666  0.4329 -0.3908 -0.5088
  768MOL0     C 5861   5.024   1.687   9.639 -0.1381 -0.1727  0.5210
  768MOL0     C 5862   5.073   1.733   9.495  0.1326  0.9332 -0.4450
  768MOL0     N 5863   5.045   1.879   9.484  0.4273  1.0104  0.7932
  768MOL0     C 5864   4.932   1.956   9.493  0.1568  0.4597 -0.0357
  768MOL0     C 5865   4.982   2.086   9.472 -0.5173  0.5116  0.6739
  768MOL0     C 5866   4.903   2.217   9.476  0.4979  0.9124 -0.7928
  768MOL0     C 5867   4.786   2.209   9.584  0.7993  0.5089  0.1710
  768MOL0     C 5868   4.834   2.191   9.735 -0.9158  0.0985 -0.6048
  768MOL0     C 5869   4.721   2.188   9.835 -0.1587  0.8732 -0.2802
  768MOL0     O 5870   4.619   2.083   9.807  0.6006 -0.3249 -0.1140
  768MOL0     C 5871   4.624   1.962   9.883 -0.4614 -0.5466  0.5347
  768MOL0     C 5872   4.735   1.894   9.939 -0.4731 -0.7346 -0.3916
  768MOL0     C 5873   4.725   1.766   9.994 -1.1107 -0.5570  1.0422
  768MOL0     C 5874   4.845   1.713  10.069  0.2136 -0.5281  0.5932
  768MOL0     C 5875   4.594   1.709  10.009 -0.2481  0.1870 -0.7960
  768MOL0     C 5876   4.566   1.587  10.096 -0.1198 -1.2678 -0.1080
  768MOL0     O 5877   4.561   1.458  10.058 -0.7777 -1.1155  0.6843
  768MOL0     C 5878   4.622   1.427   9.929  0.5207 -0.4629 -1.2340
  768MOL0     C 5879   4.589   1.483   9.803  0.1620  0.3825  0.2112
  768MOL0     C 5880   4.651   1.453   9.688 -0.7882  0.4427  0.5331
  768MOL0     C 5881   4.760   1.363   9.692 -0.7497  0.7888  0.0544
  768MOL0     O 5882   4.823   1.307   9.578 -1.1217  0.2616  0.5347
  768MOL0     C 5883   4.781   1.342   9.449  0.2501 -0.6189  1.1257
  768MOL0     C 5884   4.824   1.234   9.347 -0.5758 -0.2662  0.0972
  768MOL0     C 5885   4.824   1.283   9.201 -0.4928 -0.3228 -0.1859
  768MOL0     C 5886   4.970   1.299   9.146  0.4672  0.1125  0.2943
  768MOL0     C 5887   5.050   1.409   9.206 -0.2627  0.9088 -1.1407
  768MOL0     C 5888   5.207   1.422   9.163 -0.6590 -0.2727  1.3500
  768MOL0     C 5889   5.296   1.330   9.236 -0.2860 -0.6279 -0.2480
  768MOL0     C 5890   5.431   1.390   9.262 -0.0794  0.2512  0.3712
  768MOL0    Cl 5891   5.514   1.441   9.101  0.3177 -0.0738 -0.3078
  768MOL0     C 5892   4.790   1.300   9.813  0.4625 -0.0104  0.4766
  768MOL0     C 5893   4.726   1.334   9.924  0.6143 -0.1479 -1.0151
  768MOL0     O 5894   4.534   1.628  10.208  0.2370 -0.1815  0.1447
  768MOL0     C 5895   4.481   1.778   9.951  0.9354 -0.4368  0.0583
  768MOL0     C 5896   4.500   1.907   9.895  0.1594 -0.1368  0.9269
  768MOL0     N 5897   5.118   2.083   9.451  0.6322 -0.5161  1.2246
  768MOL0     N 5898   5.153   1.966   9.466  0.0195  0.2322 -0.8092
  768MOL0     C 5899   5.142   2.078  10.029 -0.5843  0.3196  0.9813
  768MOL0     C 5900   5.111   2.213  10.016 -1.0707  0.2873  0.3360
  768MOL0     C 5901   5.076   2.639   9.924  0.0801  0.2362 -0.8786
  768MOL0     C 5902   5.211   2.670   9.973  0.0117  0.3018  0.2115
  768MOL0     C 5903   5.246   2.797  10.006  0.3516  0.2566  0.7695
  768MOL0     C 5904   5.161   2.902   9.993  0.6642 -0.2864  0.0732
  768MOL0     O 5905   5.192   3.023  10.050  0.2934 -0.4974  0.0888
  768MOL0     C 5906   5.295   3.084   9.974 -0.7248 -0.0972 -0.1435
  768MOL0     C 5907   5.316   3.225  10.026 -0.2898  0.5678  0.4009
  768MOL0     C 5908   5.353   3.243  10.177  0.0659  1.2971  0.9903
  768MOL0     C 5909   5.375   3.389  10.229 -0.2730 -0.0658 -0.2289
  768MOL0     C 5910   5.482   3.463  10.168 -0.6898 -0.2256  0.4356
  768MOL0     C 5911   5.575   3.523  10.122  1.0155  1.2792  0.0933
  768MOL0     C 5912   5.029   2.879   9.949  0.3375 -0.1391  0.4862
  768MOL0     C 5913   4.984   2.751   9.916 -0.2787 -0.9884 -0.2308
  768MOL0     C 5914   4.846   2.733   9.856 -0.7169 -0.0684  0.2639
  768MOL0     H 5915   5.235   2.254   9.697  0.5618 -0.4433 -0.6945
  768MOL0     H 5916   5.316   2.039   9.736  0.4433  0.2392 -0.3343
  768MOL0     H 5917   5.437   1.866   9.992  1.2566  0.2669 -1.7295
  768MOL0     H 5918   5.394   1.825   9.830  0.2582  0.4819 -0.7858
  768MOL0     H 5919   5.451   1.634   9.972  0.1011  1.2020  1.0725
  768MOL0     H 5920   5.321   1.652  10.076  2.0297 -1.2359  0.5385
  768MOL0     H 5921   5.250   1.485   9.935 -1.5722  0.5093 -0.2723
  768MOL0     H 5922   5.155   1.633   9.902 -0.6305  1.4013  0.1209
  768MOL0     H 5923   5.325   1.666   9.710 -0.8280 -0.9162  0.3956
  768MOL0     H 5924   5.397   1.515   9.745  1.1876  2.3687 -0.4872
  768MOL0     H 5925   5.194   1.385   9.701  1.2943 -1.0393 -0.5273
  768MOL0     H 5926   5.233   1.482   9.557 -0.8942  0.7246 -0.9378
  768MOL0     H 5927   4.985   1.478   9.594  3.6740 -1.1075 -2.8777
  768MOL0     H 5928   5.007   1.516   9.767  0.3191 -0.2472 -0.5277
  768MOL0     H 5929   5.079   1.746   9.712 -1.3288 -0.5047  1.7158
  768MOL0     H 5930   4.921   1.716   9.661  0.4299  0.5320  2.4315
  768MOL0     H 5931   5.175   1.706   9.468 -0.2538 -0.5554 -0.4784
  768MOL0     H 5932   5.007   1.681   9.424 -0.3034  2.1576 -0.9738
  768MOL0     H 5933   4.834   1.916   9.519  1.3134 -1.8147  1.1985
  768MOL0     H 5934   4.883   2.238   9.370 -0.4174 -0.8737 -0.9975
  768MOL0     H 5935   4.958   2.306   9.507  0.1622  0.7044  0.4270
  768MOL0     H 5936   4.714   2.290   9.570 -1.4648 -1.5400 -0.8275
  768MOL0     H 5937   4.730   2.118   9.561  3.0409 -0.6935 -0.8217
  768MOL0     H 5938   4.903   2.106   9.749 -0.0408  1.2004  2.9233
  768MOL0     H 5939   4.890   2.282   9.759  1.9073 -1.4444 -0.7756
  768MOL0     H 5940   4.771   2.168   9.930  0.8536  1.4995 -0.6727
  768MOL0     H 5941   4.659   2.278   9.826 -1.0367  0.1066 -2.6689
  768MOL0     H 5942   4.835   1.934   9.933 -0.8806  0.3241 -0.2186
  768MOL0     H 5943   4.814   1.703  10.174 -0.5928 -1.9429  0.2521
  768MOL0     H 5944   4.928   1.783  10.064 -1.4474  1.8246  2.9572
  768MOL0     H 5945   4.858   1.607  10.043  0.6667 -0.3647  0.1623
  768MOL0     H 5946   4.504   1.550   9.794  0.6158  1.2471  1.8966
  768MOL0     H 5947   4.611   1.486   9.593 -2.4247 -2.2709  0.1606
  768MOL0     H 5948   4.672   1.339   9.451  0.0847 -0.6361 -2.1600
  768MOL0     H 5949   4.818   1.440   9.418  1.0312 -1.3737 -0.4718
  768MOL0     H 5950   4.922   1.194   9.376 -0.1473 -0.1075 -1.0619
  768MOL0     H 5951   4.745   1.159   9.357  0.4582 -1.5308 -0.8597
  768MOL0     H 5952   4.791   1.387   9.190 -1.0058 -0.7010 -3.2018
  768MOL0     H 5953   4.763   1.224   9.132 -1.2102  0.8399 -0.5704
  768MOL0     H 5954   4.971   1.308   9.037 -1.0351  0.4316  0.2867
  768MOL0     H 5955   5.023   1.207   9.174 -1.4527 -0.2729  3.0364
  768MOL0     H 5956   5.001   1.505   9.186  0.6570  1.0327 -3.0895
  768MOL0     H 5957   5.046   1.401   9.315  0.9303  0.9309 -1.0793
  768MOL0     H 5958   5.235   1.526   9.185  1.6990 -0.5772  0.0043
  768MOL0     H 5959   5.221   1.414   9.055  4.6722  3.3837  1.3864
  768MOL0     H 5960   5.293   1.232   9.188  1.0072  0.1816 -2.0963
  768MOL0     H 5961   5.257   1.324   9.338  1.3756  2.1757  0.6602
  768MOL0     H 5962   5.486   1.321   9.328 -0.1987 -0.9893 -0.7765
  768MOL0     H 5963   5.421   1.486   9.312 -1.0237  0.4117 -0.1140
  768MOL0     H 5964   4.871   1.228   9.806  0.3652 -0.4327  2.9397
  768MOL0     H 5965   4.760   1.296  10.020 -1.5387 -0.8051 -0.4365
  768MOL0     H 5966   4.380   1.740   9.947  1.1244 -0.8634 -1.1602
  768MOL0     H 5967   4.407   1.958   9.868 -0.7326 -1.9760  0.3276
  768MOL0     H 5968   5.115   2.029  10.122 -0.9505 -2.4290 -0.4885
  768MOL0     H 5969   5.064   2.249  10.107 -0.3379 -2.7309  2.0104
  768MOL0     H 5970   5.263   2.578   9.998  0.3617  0.8315  1.5303
  768MOL0     H 5971   5.338   2.805  10.062 -0.1552 -2.4763  2.1291
  768MOL0     H 5972   5.385   3.023   9.979  0.0131  0.4245 -3.7494
  768MOL0     H 5973   5.266   3.088   9.868  0.5570  1.2395 -0.4736
  768MOL0     H 5974   5.222   3.279  10.016 -0.9485 -0.5964  0.1684
  768MOL0     H 5975   5.390   3.275   9.963 -1.9200 -0.1522 -2.2272
  768MOL0     H 5976   5.274   3.198  10.238  0.6671  0.2299  1.0086
  768MOL0     H 5977   5.447   3.188  10.189  1.1922  2.2973 -2.2190
  768MOL0     H 5978   5.379   3.393  10.338 -0.2537  0.8696 -0.2587
  768MOL0     H 5979   5.288   3.453  10.214  0.0550  0.2232 -0.9268
  768MOL0     H 5980   5.662   3.569  10.079  3.0018 -3.6980 -1.8967
  768MOL0     H 5981   4.971   2.970   9.937 -0.0166 -0.5268 -0.8435
  768MOL0     H 5982   4.856   2.679   9.761 -1.5598  1.0085 -0.4709
  768MOL0     H 5983   4.781   2.670   9.918  1.1895  0.3438  2.8301
  768MOL0     H 5984   4.810   2.834   9.839  1.0377  0.2870 -1.7125
  769MOL0     O 5985   3.149  10.956   6.651  0.1300  0.3663  0.6291
  769MOL0     C 5986   3.078  10.999   6.561  1.2358  0.6532 -0.3803
  769MOL0     O 5987   3.104  11.114   6.487 -0.2681 -0.3098 -0.3912
  769MOL0     C 5988   3.176  11.213   6.553  0.1326 -0.2974 -0.7745
  769MOL0     C 5989   3.310  11.199   6.564 -0.3596  0.4041  0.4967
  769MOL0     C 5990   3.390  11.293   6.630 -0.6463 -0.3999 -0.3452
  769MOL0     C 5991   3.335  11.415   6.683 -0.5541 -1.1529 -0.1726
  769MOL0     O 5992   3.407  11.524   6.730  0.4177  0.3115 -0.2279
  769MOL0     C 5993   3.551  11.533   6.715 -0.0470  1.4955 -0.5032
  769MOL0     C 5994   3.601  11.656   6.785  0.6068  0.0771  1.0087
  769MOL0     C 5995   3.609  11.626   6.935 -0.2046  0.3228  0.5604
  769MOL0     C 5996   3.606  11.754   7.017 -0.2540  0.3628 -1.0822
  769MOL0     C 5997   3.683  11.735   7.152 -0.9656 -0.6269 -0.2525
  769MOL0     C 5998   3.582  11.682   7.261 -0.8398 -0.2343  0.1726
  769MOL0     C 5999   3.642  11.692   7.406  0.0787  0.1250  0.2953
  769MOL0     C 6000   3.530  11.728   7.510 -0.3544  0.0797  0.3716
  769MOL0     N 6001   3.574  11.756   7.643 -0.6676  0.4582 -1.1923
  769MOL0     C 6002   3.694  11.825   7.679  0.1062  0.9139 -0.4650
  769MOL0     C 6003   3.730  11.796   7.809  0.6019 -0.8361  0.7344
  769MOL0     C 6004   3.835  11.856   7.904  1.0373 -0.8158 -1.0233
  769MOL0     C 6005   3.819  12.010   7.905  0.7041  0.7550 -1.0346
  769MOL0     C 6006   3.920  12.095   7.988  0.5048  0.0432  0.4080
  769MOL0     C 6007   3.970  12.033   8.120 -0.0952 -0.4361  0.2664
  769MOL0     O 6008   3.864  11.983   8.209  0.8786  0.5055  0.2056
  769MOL0     C 6009   3.903  11.929   8.322  0.4872  0.8352  0.0158
  769MOL0     C 6010   3.804  11.852   8.386 -0.8064  0.2689 -0.6281
  769MOL0     C 6011   3.832  11.770   8.501  0.0310  0.2997 -0.2388
  769MOL0     C 6012   3.722  11.676   8.556 -0.2785  0.4056 -0.3943
  769MOL0     C 6013   3.951  11.787   8.564  0.5090 -1.7144 -1.1993
  769MOL0     C 6014   3.991  11.704   8.683 -0.4477  0.0551 -0.5058
  769MOL0     O 6015   3.946  11.580   8.687 -0.6809 -0.3589  0.2420
  769MOL0     C 6016   3.978  11.486   8.782  0.8988 -1.1677  0.0679
  769MOL0     C 6017   3.892  11.473   8.890  0.4912 -1.5033  0.6279
  769MOL0     C 6018   3.920  11.388   8.992  0.2635  0.5693 -0.3968
  769MOL0     C 6019   4.039  11.314   8.998 -0.5313 -0.2167  0.1569
  769MOL0     O 6020   4.063  11.231   9.107  0.9186 -0.1501  0.5369
  769MOL0     C 6021   4.189  11.237   9.167 -0.2215 -0.5641  0.0873
  769MOL0     C 6022   4.200  11.100   9.229 -0.9013  1.1815  0.0090
  769MOL0     C 6023   4.329  11.089   9.313 -0.3943  0.2052 -0.3144
  769MOL0     C 6024   4.346  10.946   9.378 -0.4387  0.6557 -0.6277
  769MOL0     C 6025   4.452  10.944   9.489  0.1678  0.3887  0.2362
  769MOL0     C 6026   4.437  10.808   9.578  0.1290 -0.3495 -0.7556
  769MOL0     C 6027   4.347  10.825   9.709 -0.3273 -0.6850  0.7360
  769MOL0     C 6028   4.310  10.713   9.786 -0.8233  0.3026  0.1980
  769MOL0    Cl 6029   4.203  10.747   9.915  0.2300  0.3106  0.2052
  769MOL0     C 6030   4.134  11.338   8.895  1.4939 -0.2578 -0.5321
  769MOL0     C 6031   4.103  11.419   8.784 -0.5977 -0.2057 -0.1687
  769MOL0     O 6032   4.041  11.760   8.778  0.5463 -0.3760 -0.6037
  769MOL0     C 6033   4.048  11.875   8.507 -0.1831 -1.4664  0.0168
  769MOL0     C 6034   4.028  11.937   8.383 -0.6961  2.2191 -0.7698
  769MOL0     N 6035   3.639  11.700   7.846  0.2836 -0.7004  0.5587
  769MOL0     N 6036   3.533  11.693   7.756 -0.6021  1.2219 -0.0365
  769MOL0     C 6037   3.197  11.432   6.664  0.7560 -0.3661  0.8637
  769MOL0     C 6038   3.115  11.333   6.593  0.6971 -0.2989  1.4535
  769MOL0     C 6039   2.973  10.900   6.531 -0.2386 -0.6848  0.7340
  769MOL0     C 6040   3.000  10.773   6.576  0.2482  0.9491  0.1906
  769MOL0     C 6041   2.909  10.665   6.550  0.2378 -0.4747 -0.0690
  769MOL0     C 6042   2.792  10.684   6.479  0.2793  0.8015 -0.1166
  769MOL0     O 6043   2.695  10.583   6.464 -0.4201  0.0927 -0.6652
  769MOL0     C 6044   2.691  10.517   6.335 -1.0122 -0.4576  0.0318
  769MOL0     C 6045   2.600  10.396   6.368  0.1306 -0.2766  0.4930
  769MOL0     C 6046   2.573  10.312   6.242  0.1432 -0.6982  1.0133
  769MOL0     C 6047   2.522  10.177   6.277  0.1449 -0.1973 -0.3669
  769MOL0     C 6048   2.458  10.095   6.172  0.8309  1.0146  0.2532
  769MOL0     C 6049   2.390  10.028   6.091 -1.4755 -0.0275 -0.6476
  769MOL0     C 6050   2.757  10.812   6.434  0.2466  0.3504  0.2972
  769MOL0     C 6051   2.851  10.917   6.465  0.4676  0.0442  0.1617
  769MOL0     C 6052   2.797  11.061   6.424 -0.2165  0.6940 -0.9340
  769MOL0     H 6053   3.356  11.120   6.505  0.0300 -0.2262  1.5976
  769MOL0     H 6054   3.497  11.277   6.629 -0.8767 -4.4091  3.8783
  769MOL0     H 6055   3.572  11.517   6.609  0.4597 -0.6152 -0.1398
  769MOL0     H 6056   3.602  11.451   6.766  1.0331  2.4688  0.0324
  769MOL0     H 6057   3.700  11.682   6.747  0.9603  1.7957  2.9294
  769MOL0     H 6058   3.532  11.738   6.766 -0.6625 -1.3976 -1.1775
  769MOL0     H 6059   3.528  11.561   6.967  0.3719  0.9500  3.6375
  769MOL0     H 6060   3.702  11.570   6.943 -1.0089 -1.4431 -1.5376
  769MOL0     H 6061   3.664  11.825   6.957 -1.2370  1.6567 -0.5417
  769MOL0     H 6062   3.507  11.799   7.019  0.3180  1.6625 -1.0248
  769MOL0     H 6063   3.722  11.833   7.180 -1.8266  1.4550 -5.2499
  769MOL0     H 6064   3.768  11.666   7.145 -1.3637 -1.1686  0.1709
  769MOL0     H 6065   3.485  11.733   7.251 -0.2968  1.0133  0.9440
  769MOL0     H 6066   3.562  11.577   7.241  1.2303 -0.7622  0.7020
  769MOL0     H 6067   3.732  11.754   7.400 -0.7573  1.4631  0.9498
  769MOL0     H 6068   3.681  11.593   7.429 -1.2266 -0.5629 -0.3023
  769MOL0     H 6069   3.474  11.813   7.470  1.1530  0.1822 -1.6954
  769MOL0     H 6070   3.450  11.654   7.513 -1.1909  1.0112  1.8378
  769MOL0     H 6071   3.757  11.881   7.612 -1.1122  0.2181 -2.2714
  769MOL0     H 6072   3.937  11.826   7.878  1.2239 -2.7492  1.5763
  769MOL0     H 6073   3.827  11.821   8.007  0.5985 -0.0470 -0.7876
  769MOL0     H 6074   3.825  12.053   7.804 -0.8343  2.4612 -0.4532
  769MOL0     H 6075   3.718  12.024   7.946  0.1699 -2.2673 -1.0942
  769MOL0     H 6076   4.017  12.107   7.940  2.1326 -1.7248  2.9732
  769MOL0     H 6077   3.867  12.190   7.999 -1.9631 -1.3320  1.2411
  769MOL0     H 6078   4.028  11.945   8.092 -0.6603  0.1801 -3.2972
  769MOL0     H 6079   4.048  12.095   8.164  1.1591 -1.1030 -0.9723
  769MOL0     H 6080   3.700  11.855   8.356 -1.0697  0.3516  0.2628
  769MOL0     H 6081   3.695  11.698   8.659 -1.6314  0.4649 -0.7372
  769MOL0     H 6082   3.751  11.571   8.552 -0.1017  0.3644  1.3154
  769MOL0     H 6083   3.626  11.693   8.506 -1.2146 -0.8648  0.8922
  769MOL0     H 6084   3.797  11.527   8.893  1.6931  0.7622  0.1402
  769MOL0     H 6085   3.856  11.373   9.078 -1.5859 -3.6956 -2.1833
  769MOL0     H 6086   4.277  11.252   9.104  1.5629 -0.0667  2.5610
  769MOL0     H 6087   4.200  11.316   9.241  1.6858 -1.0495  0.3733
  769MOL0     H 6088   4.115  11.071   9.290 -3.1107 -1.0076 -3.7179
  769MOL0     H 6089   4.197  11.026   9.148 -0.4072  0.7482  0.3772
  769MOL0     H 6090   4.319  11.171   9.385  1.8430  1.4216 -1.2942
  769MOL0     H 6091   4.418  11.120   9.258  3.0747 -6.3259  0.7051
  769MOL0     H 6092   4.366  10.875   9.297 -0.0716  1.8188 -1.5819
  769MOL0     H 6093   4.251  10.909   9.417  2.1259 -3.6888  2.4891
  769MOL0     H 6094   4.553  10.950   9.446 -0.3693 -1.2120 -1.3807
  769MOL0     H 6095   4.443  11.025   9.561  0.8388 -2.0568  3.2946
  769MOL0     H 6096   4.533  10.777   9.618 -1.5481 -0.2528  3.9227
  769MOL0     H 6097   4.400  10.721   9.523 -0.3896 -2.2389  2.3198
  769MOL0     H 6098   4.262  10.889   9.684  2.4526  2.6101 -1.2271
  769MOL0     H 6099   4.407  10.885   9.778 -0.9724  0.9898 -0.1100
  769MOL0     H 6100   4.397  10.662   9.828 -0.4271  0.5772 -0.2877
  769MOL0     H 6101   4.269  10.636   9.721  0.9715 -0.2441 -0.3398
  769MOL0     H 6102   4.215  11.266   8.904 -0.7413 -2.8686  0.0319
  769MOL0     H 6103   4.167  11.424   8.696 -1.8305  2.0900 -1.0164
  769MOL0     H 6104   4.142  11.899   8.556  0.2176  0.5904 -1.6243
  769MOL0     H 6105   4.113  11.986   8.336  0.5448  0.4203 -0.5148
  769MOL0     H 6106   3.133  11.515   6.693  2.3523  2.2413 -2.3770
  769MOL0     H 6107   3.008  11.338   6.612  0.7248  1.2977  1.3330
  769MOL0     H 6108   3.087  10.748   6.635 -0.1797 -1.0867  0.0247
  769MOL0     H 6109   2.926  10.571   6.601 -2.0907 -0.8758  0.1127
  769MOL0     H 6110   2.649  10.583   6.258  0.7384  0.7783  0.0867
  769MOL0     H 6111   2.791  10.486   6.304 -0.8963 -1.1626  1.0815
  769MOL0     H 6112   2.501  10.433   6.396 -0.3804 -0.9397 -0.4053
  769MOL0     H 6113   2.639  10.339   6.453 -0.6123  0.3802  1.2980
  769MOL0     H 6114   2.490  10.360   6.188  0.3527  1.6075  2.5595
  769MOL0     H 6115   2.664  10.308   6.181  0.3812  1.3859  1.1490
  769MOL0     H 6116   2.462  10.179   6.368 -1.7388 -0.5724 -1.5353
  769MOL0     H 6117   2.616  10.135   6.314  0.0790  0.6031  0.7661
  769MOL0     H 6118   2.325   9.970   6.028  0.3918 -0.4735 -2.2821
  769MOL0     H 6119   2.664  10.834   6.382  0.6508 -1.5606 -1.3273
  769MOL0     H 6120   2.712  11.096   6.483 -1.7400 -2.9531 -0.6991
  769MOL0     H 6121   2.873  11.137   6.446  2.3804 -1.8540 -0.5818
  769MOL0     H 6122   2.762  11.052   6.320  0.5633 -0.2052 -1.1295
  770MOL0     O 6123   5.201   4.090   2.520  0.3847 -0.0285  0.5778
  770MOL0     C 6124   5.144   3.981   2.549  1.1066  0.4495  0.9793
  770MOL0     O 6125   5.058   3.962   2.651 -0.8681 -0.3677  0.1417
  770MOL0     C 6126   5.010   4.053   2.737  0.2355 -0.0676  0.1190
  770MOL0     C 6127   5.005   4.191   2.701 -0.7895  0.4515  0.8855
  770MOL0     C 6128   4.961   4.281   2.794 -0.1788 -1.2824  0.4275
  770MOL0     C 6129   4.929   4.253   2.928 -0.1004  0.2175 -0.6424
  770MOL0     O 6130   4.864   4.330   3.021  0.2577  0.2105  0.3022
  770MOL0     C 6131   4.882   4.475   3.012  0.7380 -0.4060  0.4117
  770MOL0     C 6132   5.022   4.523   3.050 -0.9319  0.3673  0.1795
  770MOL0     C 6133   5.038   4.492   3.195 -1.0824 -0.1399  0.6777
  770MOL0     C 6134   5.177   4.532   3.240 -0.8223 -0.1592  0.7086
  770MOL0     C 6135   5.223   4.478   3.370 -0.0077  0.3730 -0.5733
  770MOL0     C 6136   5.137   4.519   3.496  0.1991  0.0539  0.4377
  770MOL0     C 6137   5.006   4.445   3.526 -0.2810 -0.3686  0.3472
  770MOL0     C 6138   5.020   4.289   3.524 -0.0637 -0.3991 -0.0949
  770MOL0     N 6139   4.896   4.224   3.577  0.3692 -1.4227 -0.5364
  770MOL0     C 6140   4.796   4.191   3.493  0.9806 -0.1450 -0.2341
  770MOL0     C 6141   4.687   4.153   3.570 -0.1568  0.6934 -0.1535
  770MOL0     C 6142   4.549   4.113   3.525 -1.6269 -0.7464 -0.6496
  770MOL0     C 6143   4.441   4.123   3.627  0.0547  0.0363  0.2551
  770MOL0     C 6144   4.334   4.223   3.584 -0.2447 -0.3972  0.2844
  770MOL0     C 6145   4.227   4.249   3.690 -0.2696  0.2134 -0.1576
  770MOL0     O 6146   4.282   4.348   3.784 -0.1888 -0.1405  0.3667
  770MOL0     C 6147   4.261   4.486   3.754  0.1341 -0.2808 -0.7969
  770MOL0     C 6148   4.280   4.574   3.863  0.3346 -0.3949 -0.1864
  770MOL0     C 6149   4.271   4.716   3.849  0.4872 -0.4141 -0.0164
  770MOL0     C 6150   4.306   4.796   3.969 -0.4393 -0.1247  0.4566
  770MOL0     C 6151   4.232   4.770   3.724 -0.2875  0.5382  0.0275
  770MOL0     C 6152   4.225   4.913   3.687 -0.7484  0.1298 -0.6778
  770MOL0     O 6153   4.194   5.004   3.785 -0.2642  0.3440  0.8501
  770MOL0     C 6154   4.149   5.133   3.759  0.7522 -0.4380 -0.3402
  770MOL0     C 6155   4.145   5.216   3.863  0.9121 -0.0335 -0.0857
  770MOL0     C 6156   4.096   5.346   3.834 -0.0919  0.0639 -0.0121
  770MOL0     C 6157   4.030   5.380   3.709  0.2767 -1.0352 -1.1612
  770MOL0     O 6158   3.993   5.513   3.687 -0.0355  0.2753 -0.2806
  770MOL0     C 6159   4.031   5.572   3.563 -0.9493  1.5778 -0.0182
  770MOL0     C 6160   4.049   5.722   3.569 -0.5739  0.5791 -1.1536
  770MOL0     C 6161   4.159   5.766   3.677  0.5449  0.9629 -0.3541
  770MOL0     C 6162   4.305   5.728   3.657 -0.3379 -0.2885 -0.3611
  770MOL0     C 6163   4.407   5.783   3.762  0.2656 -0.7012 -0.3364
  770MOL0     C 6164   4.408   5.724   3.899 -0.1196  0.6500 -0.5687
  770MOL0     C 6165   4.420   5.572   3.893 -0.3126 -0.0251 -0.3321
  770MOL0     C 6166   4.400   5.497   4.019 -0.7752 -0.5772 -0.0638
  770MOL0    Cl 6167   4.495   5.572   4.147  0.2961  0.2755  0.1224
  770MOL0     C 6168   4.021   5.282   3.620 -0.1259 -0.4318  0.3533
  770MOL0     C 6169   4.081   5.153   3.640 -0.5872  0.2085 -0.5604
  770MOL0     O 6170   4.289   4.935   3.587  0.5816 -0.1936 -0.3451
  770MOL0     C 6171   4.208   4.685   3.626  0.2099 -0.2217  1.2490
  770MOL0     C 6172   4.226   4.547   3.635  0.1616 -0.0028  0.0273
  770MOL0     N 6173   4.732   4.177   3.705 -0.2109 -0.2082  0.7389
  770MOL0     N 6174   4.850   4.218   3.698  0.7355  0.2852 -0.0842
  770MOL0     C 6175   4.934   4.115   2.956 -0.2732 -0.7246 -0.5208
  770MOL0     C 6176   4.985   4.019   2.873  1.6310  0.1456 -0.1504
  770MOL0     C 6177   5.172   3.867   2.458  0.5864  0.0832 -0.0560
  770MOL0     C 6178   5.067   3.828   2.375  0.3231 -0.3163  0.3936
  770MOL0     C 6179   5.092   3.735   2.271  0.0839  0.5889  0.1245
  770MOL0     C 6180   5.221   3.689   2.245  0.0334 -0.5763  0.6436
  770MOL0     O 6181   5.262   3.600   2.141  0.0506 -0.0108 -0.5758
  770MOL0     C 6182   5.169   3.509   2.081 -0.5913 -1.0437 -0.4203
  770MOL0     C 6183   5.132   3.566   1.941 -0.9841 -0.2025 -0.3248
  770MOL0     C 6184   5.058   3.464   1.857 -0.3437 -0.1769  0.7638
  770MOL0     C 6185   5.140   3.372   1.768  0.5096 -0.0387 -0.4338
  770MOL0     C 6186   5.209   3.440   1.653 -0.4632  0.6694  0.5272
  770MOL0     C 6187   5.261   3.488   1.552 -0.7493  0.4222 -0.7337
  770MOL0     C 6188   5.318   3.741   2.324  0.2754 -0.1812 -0.6905
  770MOL0     C 6189   5.301   3.827   2.433 -0.6408 -0.7002 -1.0935
  770MOL0     C 6190   5.421   3.878   2.516  0.0974  0.3049  0.3691
  770MOL0     H 6191   5.015   4.232   2.600 -4.0504 -1.6090 -0.4380
  770MOL0     H 6192   4.959   4.385   2.764  0.1397 -1.4171 -0.0842
  770MOL0     H 6193   4.804   4.525   3.070  1.0025 -0.0900  0.4994
  770MOL0     H 6194   4.859   4.506   2.910  1.8231 -0.5865  0.0919
  770MOL0     H 6195   5.087   4.478   2.975 -2.9842 -3.9365  0.7133
  770MOL0     H 6196   5.031   4.631   3.035 -0.9535  0.2707 -0.5622
  770MOL0     H 6197   4.969   4.547   3.260  1.8214  4.0713  0.5262
  770MOL0     H 6198   5.046   4.383   3.209  2.5389 -0.1696 -0.6486
  770MOL0     H 6199   5.250   4.496   3.167 -0.3322  1.1921  0.4929
  770MOL0     H 6200   5.175   4.642   3.241  3.1099  0.0270  0.8951
  770MOL0     H 6201   5.328   4.496   3.397 -0.2541 -0.6186  1.2007
  770MOL0     H 6202   5.219   4.369   3.361  1.8738  0.1520  0.7309
  770MOL0     H 6203   5.198   4.501   3.584  1.3761 -0.6350 -0.4861
  770MOL0     H 6204   5.116   4.625   3.477  0.0848 -0.5357 -3.6736
  770MOL0     H 6205   4.928   4.475   3.455  1.2776  1.6030 -0.6486
  770MOL0     H 6206   4.980   4.473   3.629 -1.4109 -0.7125  0.1705
  770MOL0     H 6207   5.031   4.255   3.421 -0.2985  0.6177 -0.4687
  770MOL0     H 6208   5.107   4.261   3.584  0.5085  1.4055 -0.0120
  770MOL0     H 6209   4.808   4.178   3.386  3.0977 -1.2671  0.0856
  770MOL0     H 6210   4.554   4.009   3.492 -2.5501 -0.7840 -0.6809
  770MOL0     H 6211   4.525   4.167   3.432  1.7175  1.8054 -0.2341
  770MOL0     H 6212   4.386   4.031   3.607 -2.5563  2.1256 -3.3499
  770MOL0     H 6213   4.479   4.133   3.729 -1.5223 -1.4564  1.0381
  770MOL0     H 6214   4.369   4.321   3.550 -4.0145  0.7187 -0.8158
  770MOL0     H 6215   4.278   4.194   3.495  0.7006 -3.3357  0.5265
  770MOL0     H 6216   4.137   4.296   3.650  1.4181  1.3123 -3.0585
  770MOL0     H 6217   4.204   4.160   3.750 -1.6044  1.9656  2.0778
  770MOL0     H 6218   4.287   4.532   3.962 -1.9016 -0.8985 -0.1961
  770MOL0     H 6219   4.320   4.733   4.058  0.3235 -2.3367 -1.1326
  770MOL0     H 6220   4.233   4.872   3.998 -0.1908 -0.5439  2.3596
  770MOL0     H 6221   4.399   4.845   3.940  0.5908 -1.0892  1.9784
  770MOL0     H 6222   4.185   5.188   3.960  1.1180 -0.7204 -0.3621
  770MOL0     H 6223   4.111   5.419   3.912 -0.1287  2.6872 -2.3096
  770MOL0     H 6224   4.118   5.522   3.520 -2.3708 -0.6362 -0.4539
  770MOL0     H 6225   3.963   5.547   3.481 -3.8097  3.3134  1.6533
  770MOL0     H 6226   4.075   5.765   3.472  1.2206 -0.2679 -1.0873
  770MOL0     H 6227   3.955   5.770   3.598  0.4782  2.0590 -0.0459
  770MOL0     H 6228   4.123   5.709   3.763 -0.7083  0.2996 -1.3033
  770MOL0     H 6229   4.139   5.872   3.699 -2.4024 -0.0449  2.7850
  770MOL0     H 6230   4.341   5.772   3.564  1.5855  2.6828  1.5962
  770MOL0     H 6231   4.319   5.621   3.643 -1.8934 -1.0364  2.8597
  770MOL0     H 6232   4.511   5.776   3.727  0.9521 -0.7738  1.6059
  770MOL0     H 6233   4.384   5.889   3.776  0.3636 -0.8615  1.2517
  770MOL0     H 6234   4.313   5.742   3.949 -0.0630 -0.3220 -0.0821
  770MOL0     H 6235   4.497   5.754   3.955 -1.0374  0.0925  1.2497
  770MOL0     H 6236   4.523   5.548   3.862 -1.0902 -1.9038 -1.7186
  770MOL0     H 6237   4.352   5.521   3.824  0.3940 -1.5859  0.0758
  770MOL0     H 6238   4.433   5.393   4.007 -0.6801 -1.0139  3.0999
  770MOL0     H 6239   4.299   5.505   4.059 -1.0811 -3.7013  0.0651
  770MOL0     H 6240   3.965   5.305   3.530  0.3955  0.0457  0.1429
  770MOL0     H 6241   4.070   5.083   3.557 -0.5097  1.2925 -1.5218
  770MOL0     H 6242   4.181   4.729   3.530 -1.4924 -0.0168  1.7793
  770MOL0     H 6243   4.201   4.489   3.547  1.5086  3.6209 -3.0597
  770MOL0     H 6244   4.923   4.098   3.063  0.6973  2.9034  0.2979
  770MOL0     H 6245   4.979   3.918   2.913  0.3829  0.0729 -0.4706
  770MOL0     H 6246   4.973   3.880   2.394  1.1057  1.1053  0.5355
  770MOL0     H 6247   5.008   3.713   2.206 -0.7180 -0.0308  1.3258
  770MOL0     H 6248   5.206   3.407   2.070 -1.1047 -1.1475 -1.2828
  770MOL0     H 6249   5.078   3.500   2.141  0.5473 -1.4389  1.3458
  770MOL0     H 6250   5.215   3.618   1.893  0.2214 -0.7818  1.0388
  770MOL0     H 6251   5.057   3.643   1.955  0.8141  1.8934 -1.5626
  770MOL0     H 6252   4.988   3.409   1.920 -0.6081 -1.3514 -0.4963
  770MOL0     H 6253   5.016   3.537   1.787  2.4056  0.4124 -0.4114
  770MOL0     H 6254   5.079   3.294   1.720  0.2741  0.3284 -0.7363
  770MOL0     H 6255   5.194   3.313   1.843 -2.6559 -0.3781  1.7967
  770MOL0     H 6256   5.323   3.504   1.465  0.0332  0.8668 -0.1109
  770MOL0     H 6257   5.417   3.705   2.301 -0.5918 -3.2067 -0.0858
  770MOL0     H 6258   5.474   3.788   2.548  2.2410  1.6366  0.7875
  770MOL0     H 6259   5.487   3.937   2.452 -0.8494 -0.0609 -0.9936
  770MOL0     H 6260   5.393   3.938   2.604  0.1840  4.0040 -1.8906
  771MOL0     O 6261   9.811   8.174   2.566  0.0289 -0.1228  0.9374
  771MOL0     C 6262   9.925   8.160   2.594 -0.6993  1.2530 -0.3804
  771MOL0     O 6263  10.028   8.129   2.494  0.3185 -0.0829 -0.1055
  771MOL0     C 6264   9.981   8.142   2.365  1.1006  0.4832 -0.7548
  771MOL0     C 6265   9.934   8.269   2.329  0.5871 -0.1837  1.0207
  771MOL0     C 6266   9.915   8.295   2.193 -0.4204  0.0186  0.5257
  771MOL0     C 6267   9.928   8.194   2.096 -1.3785 -0.2562  0.5513
  771MOL0     O 6268   9.907   8.237   1.959 -0.0938 -0.0656  0.1753
  771MOL0     C 6269   9.852   8.141   1.865 -0.2856 -0.3058 -0.8327
  771MOL0     C 6270   9.811   8.215   1.738 -0.7464  0.0698 -1.0087
  771MOL0     C 6271   9.702   8.314   1.774 -0.3136  0.3048 -0.0834
  771MOL0     C 6272   9.609   8.334   1.650  0.2524 -0.4930  0.5388
  771MOL0     C 6273   9.502   8.430   1.673 -0.2235 -0.8184  0.1168
  771MOL0     C 6274   9.420   8.446   1.548  0.1046  0.0335  0.7620
  771MOL0     C 6275   9.482   8.533   1.444 -0.3639 -0.0267  0.1167
  771MOL0     C 6276   9.483   8.689   1.464 -0.0258  0.3576 -0.1338
  771MOL0     N 6277   9.355   8.746   1.455 -0.0381  0.2978  0.4042
  771MOL0     C 6278   9.340   8.883   1.484 -0.1921  0.3935 -0.0870
  771MOL0     C 6279   9.214   8.903   1.453  0.0560 -0.7836 -0.6302
  771MOL0     C 6280   9.148   9.033   1.458 -0.1229 -0.3153  0.5024
  771MOL0     C 6281   9.003   9.020   1.515 -0.2786 -0.3329 -0.0051
  771MOL0     C 6282   8.986   9.128   1.616  0.2933  1.0997  0.4665
  771MOL0     C 6283   9.058   9.102   1.748  0.0407  1.3388 -0.2833
  771MOL0     O 6284   8.991   9.178   1.857 -1.0505 -0.3942 -0.2932
  771MOL0     C 6285   9.016   9.129   1.987  0.4259  0.1481  0.8162
  771MOL0     C 6286   8.925   9.161   2.085 -0.2762  0.3205  0.5216
  771MOL0     C 6287   8.926   9.098   2.211  0.1498  0.4302  0.2507
  771MOL0     C 6288   8.813   9.124   2.300  0.1125 -0.6525  0.1141
  771MOL0     C 6289   9.032   9.015   2.249 -0.6938  0.1493 -0.6225
  771MOL0     C 6290   9.047   8.943   2.374 -0.3137 -0.1374  0.4738
  771MOL0     O 6291   9.131   8.838   2.363  0.4723  0.2594 -0.6814
  771MOL0     C 6292   9.146   8.786   2.491 -0.9279  0.6062 -0.3159
  771MOL0     C 6293   9.040   8.726   2.555 -0.2339  0.0868 -0.9156
  771MOL0     C 6294   9.069   8.659   2.674  0.2108 -0.5654 -0.7612
  771MOL0     C 6295   9.197   8.652   2.728 -0.2864  0.1103  0.6541
  771MOL0     O 6296   9.225   8.607   2.855  0.6654 -0.3472 -0.1722
  771MOL0     C 6297   9.122   8.583   2.952 -0.5098 -0.7457 -0.1520
  771MOL0     C 6298   9.180   8.589   3.098  0.7957  0.7698  1.6322
  771MOL0     C 6299   9.062   8.604   3.204  0.6553  0.0742  0.0339
  771MOL0     C 6300   9.046   8.758   3.233 -0.3005 -0.5332  0.1981
  771MOL0     C 6301   9.147   8.796   3.345 -0.0870  0.2841 -0.4272
  771MOL0     C 6302   9.170   8.959   3.360  0.8831 -0.1887  1.0838
  771MOL0     C 6303   9.296   8.967   3.456  0.4620  1.4383  1.0304
  771MOL0     C 6304   9.286   9.082   3.556  0.6810  0.4418  0.6732
  771MOL0    Cl 6305   9.454   9.104   3.641  0.2144  0.1441 -0.0204
  771MOL0     C 6306   9.303   8.710   2.656  0.6329  0.1693  0.4362
  771MOL0     C 6307   9.279   8.780   2.537 -0.0614 -0.3611 -0.1200
  771MOL0     O 6308   9.009   9.005   2.482 -0.2353 -0.1534 -0.4839
  771MOL0     C 6309   9.130   8.993   2.148 -1.0501  0.7049  0.5054
  771MOL0     C 6310   9.113   9.038   2.018 -1.1613  0.0421  0.3115
  771MOL0     N 6311   9.153   8.787   1.401 -0.6890 -0.3937 -0.9062
  771MOL0     N 6312   9.246   8.692   1.392  0.5232  0.6169 -0.0525
  771MOL0     C 6313   9.960   8.069   2.132  0.0526  0.7097  0.8421
  771MOL0     C 6314   9.980   8.040   2.268 -0.3944 -0.7603  0.7503
  771MOL0     C 6315   9.965   8.179   2.740  0.3881  0.0604 -0.0563
  771MOL0     C 6316  10.090   8.241   2.763  0.1981 -0.0429 -0.3774
  771MOL0     C 6317  10.128   8.266   2.899 -0.3338  0.1514  0.4854
  771MOL0     C 6318  10.050   8.226   3.008 -0.0588  0.3004  0.6933
  771MOL0     O 6319  10.079   8.255   3.141  0.3135 -0.2524  0.3204
  771MOL0     C 6320  10.210   8.301   3.171 -0.7107  0.0450  1.2963
  771MOL0     C 6321  10.319   8.188   3.171 -0.0604 -0.8241 -0.1337
  771MOL0     C 6322  10.450   8.233   3.241  0.6011  0.4589  0.1382
  771MOL0     C 6323  10.516   8.367   3.206  1.8825  0.2028 -0.3154
  771MOL0     C 6324  10.635   8.392   3.279 -0.2945 -0.5623 -0.5477
  771MOL0     C 6325  10.735   8.409   3.344  0.4736  0.0840 -0.1252
  771MOL0     C 6326   9.919   8.185   2.978 -0.7318 -0.4682 -0.1304
  771MOL0     C 6327   9.878   8.153   2.843  0.1972 -0.2713 -0.5109
  771MOL0     C 6328   9.734   8.118   2.827  0.4442 -0.0667 -0.4550
  771MOL0     H 6329   9.931   8.359   2.389  2.3728  1.5590 -1.2906
  771MOL0     H 6330   9.901   8.396   2.157 -3.4774 -0.2617  0.7010
  771MOL0     H 6331   9.767   8.092   1.911 -2.4762  0.3233 -3.8948
  771MOL0     H 6332   9.932   8.073   1.835 -0.8515 -0.9598 -0.8730
  771MOL0     H 6333   9.900   8.269   1.704  0.5557  0.0730  2.1345
  771MOL0     H 6334   9.775   8.134   1.674  0.2752 -0.7666 -0.5563
  771MOL0     H 6335   9.634   8.272   1.848 -1.5216  0.6388 -0.9732
  771MOL0     H 6336   9.750   8.408   1.803 -2.2027  1.1570  0.4112
  771MOL0     H 6337   9.673   8.359   1.565 -2.2008  2.3229 -0.6438
  771MOL0     H 6338   9.560   8.239   1.626 -1.7393  1.1006 -2.3003
  771MOL0     H 6339   9.550   8.525   1.701 -0.7005  0.0789 -1.9479
  771MOL0     H 6340   9.451   8.410   1.768  0.3693  1.3792  0.9702
  771MOL0     H 6341   9.401   8.353   1.494  3.2857  1.3573 -3.1352
  771MOL0     H 6342   9.320   8.484   1.568  0.5803  3.2051 -2.0098
  771MOL0     H 6343   9.424   8.527   1.351 -2.3884  2.8350  1.0347
  771MOL0     H 6344   9.584   8.502   1.424 -0.5300 -0.5524  0.0726
  771MOL0     H 6345   9.534   8.719   1.556  0.3440  3.1793 -1.1593
  771MOL0     H 6346   9.537   8.729   1.378  0.6743 -2.8369 -1.3005
  771MOL0     H 6347   9.412   8.960   1.509  3.3187 -3.1378  1.7020
  771MOL0     H 6348   9.149   9.077   1.358 -0.8143  0.4131  0.8052
  771MOL0     H 6349   9.212   9.094   1.523  0.3323 -1.0379  0.7479
  771MOL0     H 6350   8.938   9.036   1.428  2.3278 -0.5255 -2.1048
  771MOL0     H 6351   8.987   8.922   1.559  1.3273 -0.6694 -0.1263
  771MOL0     H 6352   9.037   9.215   1.573  0.7153  0.2361 -0.8581
  771MOL0     H 6353   8.884   9.153   1.643  0.3364  1.1195  0.6062
  771MOL0     H 6354   9.048   8.995   1.769 -0.0402  1.3461 -0.2859
  771MOL0     H 6355   9.163   9.132   1.737  0.1049  2.5680  2.7047
  771MOL0     H 6356   8.844   9.228   2.059 -1.9969 -1.6604  0.4798
  771MOL0     H 6357   8.746   9.038   2.292 -1.6925  0.7053  0.0361
  771MOL0     H 6358   8.747   9.201   2.260 -0.6510 -1.8976 -1.0876
  771MOL0     H 6359   8.836   9.144   2.406  3.8019 -1.5883 -0.3561
  771MOL0     H 6360   8.942   8.740   2.511 -0.4320  1.5375 -0.0480
  771MOL0     H 6361   8.990   8.605   2.725  1.6141  1.5385  4.2994
  771MOL0     H 6362   9.061   8.673   2.945  0.7245  0.1712  0.5364
  771MOL0     H 6363   9.080   8.485   2.927 -1.6558 -0.3001  0.0108
  771MOL0     H 6364   9.235   8.494   3.100  1.7602  1.0451 -2.2238
  771MOL0     H 6365   9.257   8.666   3.111  0.5177  2.2584 -3.3717
  771MOL0     H 6366   9.077   8.547   3.295  1.1851 -0.7377 -0.5456
  771MOL0     H 6367   8.971   8.565   3.159  0.9444 -0.3406 -0.2000
  771MOL0     H 6368   8.943   8.778   3.264 -0.0659  1.1966  0.0109
  771MOL0     H 6369   9.059   8.813   3.139  1.9321  1.4237  1.5072
  771MOL0     H 6370   9.113   8.754   3.440 -1.0440 -2.5155 -1.9211
  771MOL0     H 6371   9.244   8.752   3.319 -0.2295 -0.4624  0.2831
  771MOL0     H 6372   9.081   9.005   3.403 -0.8568 -2.6761  0.3819
  771MOL0     H 6373   9.185   9.009   3.264  2.9528 -1.0342  0.9126
  771MOL0     H 6374   9.382   8.962   3.389 -0.6784  1.3724 -0.5040
  771MOL0     H 6375   9.298   8.877   3.518 -2.3171  0.6772  0.1955
  771MOL0     H 6376   9.202   9.076   3.625 -1.3966  1.2067 -1.6464
  771MOL0     H 6377   9.273   9.175   3.501 -2.8364 -1.0442 -1.3198
  771MOL0     H 6378   9.397   8.705   2.709  1.2559  1.6878 -0.4848
  771MOL0     H 6379   9.368   8.818   2.488 -0.6235 -1.1458 -1.8142
  771MOL0     H 6380   9.215   8.930   2.171 -0.3945  1.7834  1.1324
  771MOL0     H 6381   9.171   8.995   1.937 -3.7235 -0.8475 -1.1731
  771MOL0     H 6382   9.978   7.994   2.056  1.7559  0.1667  1.7340
  771MOL0     H 6383  10.007   7.936   2.283 -0.5857 -1.1728 -1.4080
  771MOL0     H 6384  10.157   8.263   2.680  1.5048 -1.0650  0.3729
  771MOL0     H 6385  10.231   8.300   2.905 -0.7503  1.2850  1.6108
  771MOL0     H 6386  10.254   8.370   3.099 -1.5523 -1.1616 -0.4626
  771MOL0     H 6387  10.217   8.345   3.270  2.7505 -1.1552  1.7333
  771MOL0     H 6388  10.332   8.150   3.070  0.0838 -0.9296 -0.0753
  771MOL0     H 6389  10.288   8.102   3.231  0.3755 -0.7721  0.1692
  771MOL0     H 6390  10.430   8.246   3.347 -0.8718 -2.3433  0.3101
  771MOL0     H 6391  10.532   8.161   3.241  0.3243  0.1397  0.0963
  771MOL0     H 6392  10.445   8.448   3.226 -1.5201 -2.3116 -1.3209
  771MOL0     H 6393  10.543   8.365   3.100  2.2930  0.9310 -0.2325
  771MOL0     H 6394  10.821   8.421   3.407 -0.3093 -0.7679  1.1578
  771MOL0     H 6395   9.844   8.171   3.055 -0.0151 -1.9473  0.3326
  771MOL0     H 6396   9.687   8.093   2.922 -0.1980 -0.6677 -0.9182
  771MOL0     H 6397   9.680   8.208   2.793 -0.8595 -0.7529 -0.2644
  771MOL0     H 6398   9.727   8.032   2.760 -0.7762  0.1474 -0.6425
  772MOL0     O 6399   8.555   7.295   0.476 -0.9676 -0.4373 -0.1502
  772MOL0     C 6400   8.446   7.280   0.535 -0.7318 -0.1717  0.5547
  772MOL0     O 6401   8.405   7.340   0.651  0.1962 -0.0329  0.0224
  772MOL0     C 6402   8.492   7.412   0.724 -0.2535 -0.2962 -0.1337
  772MOL0     C 6403   8.451   7.536   0.780 -0.9819  0.2068 -0.2023
  772MOL0     C 6404   8.534   7.604   0.863  0.0353 -0.5787 -0.5560
  772MOL0     C 6405   8.670   7.564   0.887  0.6356 -0.3832  0.0965
  772MOL0     O 6406   8.769   7.628   0.948  0.1180 -0.9286  0.7981
  772MOL0     C 6407   8.739   7.762   0.996  0.2831  0.0758 -0.6663
  772MOL0     C 6408   8.855   7.815   1.070 -0.2309  0.2819 -0.3913
  772MOL0     C 6409   8.982   7.808   0.989  0.0796 -0.0596  0.2804
  772MOL0     C 6410   9.088   7.898   1.053  0.1947 -0.0851 -0.4440
  772MOL0     C 6411   9.206   7.917   0.963 -0.5402 -0.3564 -0.5000
  772MOL0     C 6412   9.175   7.989   0.838 -0.1717 -0.4135  0.1789
  772MOL0     C 6413   9.299   8.030   0.755 -0.5967  0.0322  0.1157
  772MOL0     C 6414   9.402   8.120   0.830 -0.2181  0.1175  0.1669
  772MOL0     N 6415   9.502   8.141   0.721 -0.2013  0.1649 -0.0485
  772MOL0     C 6416   9.510   8.249   0.642  0.2564 -0.0182 -0.3613
  772MOL0     C 6417   9.631   8.243   0.581  0.3925  0.0287 -1.2475
  772MOL0     C 6418   9.686   8.332   0.479  0.2564 -0.2269  0.2705
  772MOL0     C 6419   9.649   8.271   0.346 -0.4466 -2.3878  0.1512
  772MOL0     C 6420   9.695   8.131   0.325  0.1128  0.2166  0.0315
  772MOL0     C 6421   9.666   8.088   0.191  0.5961 -0.1276  0.1967
  772MOL0     O 6422   9.531   8.048   0.174 -0.2519 -0.4150  0.7236
  772MOL0     C 6423   9.490   7.979   0.066  0.5798  0.0224  0.3281
  772MOL0     C 6424   9.362   7.922   0.077 -0.8158 -0.6324  0.6664
  772MOL0     C 6425   9.318   7.824  -0.009 -0.4726 -1.1037  0.7097
  772MOL0     C 6426   9.187   7.764   0.024  0.4188 -0.2038  0.2409
  772MOL0     C 6427   9.398   7.780  -0.117  1.2534 -0.2238  0.2511
  772MOL0     C 6428   9.363   7.681  -0.221 -0.3813  0.6174 -0.7887
  772MOL0     O 6429   9.449   7.610  -0.286 -0.3936  0.4829  0.9126
  772MOL0     C 6430   9.406   7.512  -0.375 -0.4027 -0.7692 -0.5836
  772MOL0     C 6431   9.421   7.381  -0.344  0.2397 -0.4698  0.1807
  772MOL0     C 6432   9.381   7.279  -0.430  0.2714 -0.9845  0.0906
  772MOL0     C 6433   9.328   7.306  -0.558 -1.3075  0.9325 -0.2560
  772MOL0     O 6434   9.273   7.207  -0.636  0.2809 -0.0149  0.0631
  772MOL0     C 6435   9.353   7.087  -0.648 -0.7429  0.5974  0.2932
  772MOL0     C 6436   9.279   6.974  -0.723 -1.0273 -0.5559  0.6125
  772MOL0     C 6437   9.375   6.871  -0.785  0.3406 -0.5365  0.3334
  772MOL0     C 6438   9.459   6.796  -0.688 -0.8036  0.7586 -0.6062
  772MOL0     C 6439   9.511   6.649  -0.728 -0.0553  0.7016 -0.3785
  772MOL0     C 6440   9.582   6.637  -0.863  0.3434  0.0201 -0.3433
  772MOL0     C 6441   9.622   6.494  -0.895 -0.7721  0.5904 -0.7309
  772MOL0     C 6442   9.519   6.397  -0.945 -0.6039 -0.0743 -0.9683
  772MOL0    Cl 6443   9.487   6.442  -1.097 -0.0093 -0.1114 -0.2239
  772MOL0     C 6444   9.307   7.443  -0.587  0.1336  0.0177  0.4790
  772MOL0     C 6445   9.355   7.546  -0.504 -0.0225  0.1574 -1.2833
  772MOL0     O 6446   9.241   7.666  -0.230  0.9630  0.2223 -0.0593
  772MOL0     C 6447   9.526   7.828  -0.123  0.1822  0.4125 -0.4391
  772MOL0     C 6448   9.573   7.920  -0.029  0.5008 -0.0548  0.0649
  772MOL0     N 6449   9.692   8.131   0.620 -1.1849  0.1178  0.7344
  772MOL0     N 6450   9.615   8.065   0.703 -0.3243 -0.0073 -0.1206
  772MOL0     C 6451   8.709   7.448   0.830  0.3992  0.3225 -0.4053
  772MOL0     C 6452   8.627   7.372   0.749  0.6237  0.1573 -0.5717
  772MOL0     C 6453   8.353   7.179   0.479 -0.5893  0.8855  0.3747
  772MOL0     C 6454   8.417   7.061   0.423  0.4314 -0.1729  0.0926
  772MOL0     C 6455   8.331   6.956   0.380  0.7260 -0.8147 -0.3762
  772MOL0     C 6456   8.197   6.959   0.407  0.2172  0.5050  0.5308
  772MOL0     O 6457   8.112   6.857   0.388 -0.1004 -0.2523  0.5192
  772MOL0     C 6458   8.161   6.735   0.341  0.1072  0.6809  0.3254
  772MOL0     C 6459   8.045   6.627   0.320 -0.9013 -0.1028  0.5563
  772MOL0     C 6460   7.972   6.643   0.190 -0.6610  0.2057  0.1287
  772MOL0     C 6461   7.877   6.531   0.158 -0.1519  0.1316 -1.1303
  772MOL0     C 6462   7.774   6.584   0.063  0.2645 -0.5721  0.2632
  772MOL0     C 6463   7.688   6.639   0.001  0.7355  0.4920 -0.3767
  772MOL0     C 6464   8.135   7.069   0.461  0.3485  0.6193  0.3193
  772MOL0     C 6465   8.213   7.178   0.491 -1.2312 -0.1626 -0.4828
  772MOL0     C 6466   8.142   7.303   0.530  0.6685 -0.2976  0.1007
  772MOL0     H 6467   8.346   7.564   0.780 -0.3907  2.7512 -2.1667
  772MOL0     H 6468   8.511   7.694   0.919  2.1047 -1.7410  2.4581
  772MOL0     H 6469   8.654   7.769   1.065  0.4052  2.5333 -0.6749
  772MOL0     H 6470   8.712   7.822   0.909 -0.0879  2.1150  0.7920
  772MOL0     H 6471   8.846   7.917   1.110 -3.4374  0.3802 -1.0915
  772MOL0     H 6472   8.864   7.751   1.158 -2.6920 -0.4983 -0.6408
  772MOL0     H 6473   9.033   7.712   0.977  1.5437  0.8408 -1.0319
  772MOL0     H 6474   8.961   7.843   0.888 -1.2936  1.5690  1.0858
  772MOL0     H 6475   9.052   8.001   1.065 -0.1471  0.5635 -5.0931
  772MOL0     H 6476   9.126   7.855   1.146  0.0247 -0.6356 -0.6256
  772MOL0     H 6477   9.241   7.823   0.919 -1.6139 -0.4510 -1.1820
  772MOL0     H 6478   9.284   7.969   1.019 -0.6164 -0.3439 -0.4070
  772MOL0     H 6479   9.106   7.927   0.780  0.5065 -1.4969  0.5192
  772MOL0     H 6480   9.120   8.077   0.874 -0.8895 -0.3638 -1.0000
  772MOL0     H 6481   9.262   8.073   0.661  1.8094 -0.6195 -1.1957
  772MOL0     H 6482   9.351   7.936   0.738  2.6487  1.1662  2.6243
  772MOL0     H 6483   9.363   8.216   0.866  4.8537  2.4624  0.2333
  772MOL0     H 6484   9.455   8.081   0.917  3.1961  4.2679  0.2855
  772MOL0     H 6485   9.442   8.333   0.628  0.6168  0.4055  0.3777
  772MOL0     H 6486   9.794   8.328   0.499  0.7195  3.5641 -0.7048
  772MOL0     H 6487   9.647   8.434   0.477  1.7569  0.3751  0.4709
  772MOL0     H 6488   9.540   8.268   0.340 -0.4597 -2.4194  0.3956
  772MOL0     H 6489   9.679   8.329   0.258 -1.3148 -2.9166 -0.5067
  772MOL0     H 6490   9.801   8.122   0.350  0.2678  1.3403 -0.1537
  772MOL0     H 6491   9.642   8.064   0.393 -1.5591  2.0048  0.6048
  772MOL0     H 6492   9.688   8.165   0.116 -3.0039  0.3658 -0.5267
  772MOL0     H 6493   9.732   8.004   0.167 -0.1620 -1.4883  2.5235
  772MOL0     H 6494   9.296   7.954   0.157  1.8355  2.6819  1.7165
  772MOL0     H 6495   9.194   7.655   0.037  4.2467 -0.0085  0.7292
  772MOL0     H 6496   9.116   7.773  -0.059  0.6396 -0.3554  0.0323
  772MOL0     H 6497   9.142   7.817   0.108  2.3740  0.1607  1.0943
  772MOL0     H 6498   9.446   7.353  -0.242 -2.6995  0.7917  1.3812
  772MOL0     H 6499   9.377   7.178  -0.388  0.7454 -0.4357  1.5043
  772MOL0     H 6500   9.446   7.115  -0.698  0.8503 -0.8923  2.2433
  772MOL0     H 6501   9.381   7.050  -0.549  4.0052 -1.7018 -1.5898
  772MOL0     H 6502   9.205   6.920  -0.663 -1.7490  0.7982  0.9774
  772MOL0     H 6503   9.232   7.009  -0.815  2.5329 -5.4734 -3.6825
  772MOL0     H 6504   9.450   6.923  -0.845  1.2901 -1.2787  0.8576
  772MOL0     H 6505   9.316   6.811  -0.855  0.8288 -1.0749  0.3850
  772MOL0     H 6506   9.412   6.786  -0.590 -1.9941  0.7386 -1.1637
  772MOL0     H 6507   9.550   6.856  -0.675 -0.4425 -0.0510  0.8718
  772MOL0     H 6508   9.579   6.620  -0.648 -0.4458 -0.1834 -0.3565
  772MOL0     H 6509   9.420   6.589  -0.722  0.8395 -0.6983 -0.2757
  772MOL0     H 6510   9.666   6.707  -0.863  0.5411 -0.1890 -1.5116
  772MOL0     H 6511   9.507   6.672  -0.935  0.7806 -1.4349 -1.5553
  772MOL0     H 6512   9.640   6.455  -0.794  2.0134  2.2656 -0.4657
  772MOL0     H 6513   9.721   6.492  -0.942 -1.5979 -1.0673 -2.5064
  772MOL0     H 6514   9.427   6.400  -0.885 -0.5371 -0.7872 -0.8134
  772MOL0     H 6515   9.559   6.297  -0.923  0.6862  1.1807  3.3374
  772MOL0     H 6516   9.250   7.465  -0.677  1.0597  1.0639  0.1251
  772MOL0     H 6517   9.346   7.653  -0.524  0.5811  0.5737  0.5508
  772MOL0     H 6518   9.596   7.791  -0.198  1.0290 -3.7092  2.0548
  772MOL0     H 6519   9.676   7.950  -0.041  0.3999 -0.1901 -1.2987
  772MOL0     H 6520   8.815   7.427   0.841  0.0511 -0.6819  1.6606
  772MOL0     H 6521   8.673   7.289   0.695  4.0153  0.5780  1.3431
  772MOL0     H 6522   8.525   7.051   0.418  0.3734 -0.4755 -0.7035
  772MOL0     H 6523   8.373   6.863   0.341 -0.3528 -0.6609 -2.0216
  772MOL0     H 6524   8.231   6.744   0.259  1.5551  0.8641  1.5440
  772MOL0     H 6525   8.216   6.695   0.427 -2.8545 -1.7605  1.2916
  772MOL0     H 6526   7.973   6.636   0.402 -1.1318 -0.0640  0.3547
  772MOL0     H 6527   8.098   6.533   0.306  0.1676  0.2004  2.3361
  772MOL0     H 6528   7.917   6.735   0.210 -0.4448  0.7886 -1.7227
  772MOL0     H 6529   8.035   6.656   0.101  0.5146 -2.2809  0.5022
  772MOL0     H 6530   7.845   6.503   0.259 -2.8412  1.8892 -1.3954
  772MOL0     H 6531   7.921   6.444   0.109 -2.3719  0.9924 -5.1447
  772MOL0     H 6532   7.596   6.680  -0.034 -0.1719 -0.9139  0.2841
  772MOL0     H 6533   8.027   7.060   0.463  0.3405  0.3164 -0.9114
  772MOL0     H 6534   8.154   7.381   0.455 -3.0018 -0.1069 -0.4785
  772MOL0     H 6535   8.035   7.281   0.522  0.6305  0.3541 -1.5400
  772MOL0     H 6536   8.166   7.342   0.629 -0.9340 -1.8557  1.1752
  773MOL0     O 6537   8.688   0.353   2.086  0.1041 -0.2385  0.0857
  773MOL0     C 6538   8.623   0.250   2.076 -0.3342  0.1362  0.1609
  773MOL0     O 6539   8.597   0.165   2.177  0.0620  0.2019  0.5057
  773MOL0     C 6540   8.628   0.187   2.312  0.2090  0.3024 -0.1746
  773MOL0     C 6541   8.543   0.131   2.405 -1.3573 -0.4274 -0.1164
  773MOL0     C 6542   8.571   0.135   2.539 -0.2753 -0.0627 -0.3103
  773MOL0     C 6543   8.690   0.193   2.591 -0.2957 -0.0154  0.2827
  773MOL0     O 6544   8.702   0.186   2.723 -0.0934 -0.2728 -0.3802
  773MOL0     C 6545   8.786   0.288   2.780  0.0478  0.4550  0.2026
  773MOL0     C 6546   8.806   0.271   2.934  0.2969  0.0823  0.4304
  773MOL0     C 6547   8.677   0.312   3.007  0.0118  0.6808  0.6611
  773MOL0     C 6548   8.629   0.217   3.117  1.0400 -0.5257 -0.3471
  773MOL0     C 6549   8.511   0.271   3.209 -0.0871 -0.6726  0.6245
  773MOL0     C 6550   8.413   0.171   3.260 -0.6182  0.6167 -0.1843
  773MOL0     C 6551   8.486   0.058   3.329 -1.3661  0.0542 -0.4542
  773MOL0     C 6552   8.389  -0.037   3.404  0.5548  0.7267  0.4616
  773MOL0     N 6553   8.284   0.028   3.500  0.5994 -0.0139  0.4854
  773MOL0     C 6554   8.308   0.090   3.620 -0.0298  0.7833 -0.2276
  773MOL0     C 6555   8.191   0.148   3.641  0.2147 -0.9900 -0.0928
  773MOL0     C 6556   8.164   0.252   3.751 -0.1720 -0.0587 -0.8005
  773MOL0     C 6557   8.091   0.217   3.873 -0.1525  0.2506 -0.8324
  773MOL0     C 6558   7.940   0.185   3.849  0.1432 -0.2909  0.4012
  773MOL0     C 6559   7.865   0.288   3.784  0.7688 -0.7665 -0.0555
  773MOL0     O 6560   7.880   0.413   3.853 -0.4928 -0.0796 -0.0017
  773MOL0     C 6561   7.863   0.521   3.774 -0.4333  1.3154  0.4064
  773MOL0     C 6562   7.954   0.618   3.773 -0.3336 -0.0576 -0.6782
  773MOL0     C 6563   7.938   0.739   3.699 -0.0821  0.1215  0.2891
  773MOL0     C 6564   8.035   0.849   3.719 -1.0616 -0.9788  0.1289
  773MOL0     C 6565   7.844   0.739   3.596  0.3327 -0.8468  0.5638
  773MOL0     C 6566   7.817   0.856   3.507 -1.2523 -0.2080 -0.7185
  773MOL0     O 6567   7.689   0.872   3.460  1.0055 -0.7062 -0.5014
  773MOL0     C 6568   7.658   0.970   3.366 -0.4985  0.2332  0.1855
  773MOL0     C 6569   7.701   1.102   3.361  0.3792 -0.8487 -0.1313
  773MOL0     C 6570   7.679   1.179   3.244 -0.1122  0.3082  0.2136
  773MOL0     C 6571   7.625   1.121   3.134  0.0399 -1.0802  0.4624
  773MOL0     O 6572   7.597   1.191   3.015 -0.3972 -0.8278 -0.1546
  773MOL0     C 6573   7.616   1.336   3.008 -0.5218 -0.0253  0.3276
  773MOL0     C 6574   7.608   1.390   2.868 -0.3451  0.3180 -0.2276
  773MOL0     C 6575   7.617   1.539   2.864 -0.1980 -0.5126  0.5562
  773MOL0     C 6576   7.743   1.594   2.916 -0.5761 -0.1366 -0.8410
  773MOL0     C 6577   7.757   1.746   2.909 -0.0580  0.3236  0.0915
  773MOL0     C 6578   7.661   1.828   2.990  0.3944 -1.5865 -0.1904
  773MOL0     C 6579   7.727   1.962   3.045  0.5949 -0.6987  0.4469
  773MOL0     C 6580   7.624   2.054   3.110  0.4356 -0.1337 -0.1580
  773MOL0    Cl 6581   7.662   2.223   3.103 -0.3918 -0.8186  0.3659
  773MOL0     C 6582   7.584   0.988   3.135 -0.0631  0.1490 -0.0377
  773MOL0     C 6583   7.603   0.906   3.256 -0.9927  1.3864  0.9963
  773MOL0     O 6584   7.913   0.918   3.451  0.5597 -0.0065  0.6002
  773MOL0     C 6585   7.747   0.637   3.598  0.5246  0.5840  0.3768
  773MOL0     C 6586   7.750   0.531   3.686 -1.0526 -0.3136  0.6758
  773MOL0     N 6587   8.097   0.115   3.553  0.6805 -1.2531  0.3799
  773MOL0     N 6588   8.156   0.039   3.473 -0.3198  0.4955  0.5706
  773MOL0     C 6589   8.783   0.250   2.496  1.4430  0.3146 -0.2121
  773MOL0     C 6590   8.747   0.250   2.354  0.1205  0.5009 -0.2508
  773MOL0     C 6591   8.582   0.199   1.942 -0.1252  0.2506  0.0615
  773MOL0     C 6592   8.557   0.058   1.938 -0.0522 -0.0236 -0.6476
  773MOL0     C 6593   8.503  -0.001   1.821  0.7057  0.0294 -0.4108
  773MOL0     C 6594   8.480   0.083   1.706  0.4027  0.2474 -0.9806
  773MOL0     O 6595   8.430   0.033   1.592  0.5098  0.3431 -0.5131
  773MOL0     C 6596   8.365  -0.099   1.592 -0.1015 -0.3487  1.2760
  773MOL0     C 6597   8.333  -0.136   1.447  0.1858 -0.1065 -0.0820
  773MOL0     C 6598   8.264  -0.270   1.430  0.9737  0.0500  0.8161
  773MOL0     C 6599   8.355  -0.391   1.425 -0.4511  0.8481  0.2123
  773MOL0     C 6600   8.288  -0.505   1.371 -1.8068  0.6864 -0.1392
  773MOL0     C 6601   8.239  -0.605   1.335  0.3784 -0.0411 -0.1676
  773MOL0     C 6602   8.518   0.211   1.700 -0.1458 -0.1122 -0.5952
  773MOL0     C 6603   8.565   0.266   1.820  0.1571 -0.1537 -0.9025
  773MOL0     C 6604   8.562   0.416   1.827 -0.1331  0.8129 -0.8613
  773MOL0     H 6605   8.460   0.078   2.358 -1.7025  0.6627 -0.7798
  773MOL0     H 6606   8.508   0.079   2.607  0.6435 -1.8550 -0.8600
  773MOL0     H 6607   8.748   0.387   2.755 -0.6055  0.0606 -0.4183
  773MOL0     H 6608   8.882   0.284   2.728  1.0662  0.7563  2.0000
  773MOL0     H 6609   8.832   0.166   2.943  1.5391  0.4417  1.3116
  773MOL0     H 6610   8.893   0.327   2.970  0.9829 -1.7176  1.7033
  773MOL0     H 6611   8.690   0.410   3.053  0.1748  1.0329 -0.1273
  773MOL0     H 6612   8.600   0.328   2.931  2.4464  1.7317 -1.7255
  773MOL0     H 6613   8.582   0.135   3.062  0.0149 -0.6635  0.7029
  773MOL0     H 6614   8.713   0.175   3.174  0.9472 -2.7105 -1.7373
  773MOL0     H 6615   8.455   0.339   3.145 -0.7455 -0.0269  1.8679
  773MOL0     H 6616   8.549   0.326   3.295  1.2229 -0.1592 -0.2470
  773MOL0     H 6617   8.353   0.220   3.336 -1.1518  1.5647 -1.1955
  773MOL0     H 6618   8.361   0.133   3.171  1.1070  3.5113 -2.6620
  773MOL0     H 6619   8.567   0.088   3.396 -1.0422  1.1600 -1.3014
  773MOL0     H 6620   8.545  -0.009   3.266  3.7340 -1.3191  4.8395
  773MOL0     H 6621   8.338  -0.087   3.322  0.1965 -0.6650  1.4967
  773MOL0     H 6622   8.451  -0.102   3.466  0.0655 -1.3234 -1.0842
  773MOL0     H 6623   8.394   0.100   3.685 -0.7656  1.2615  0.6930
  773MOL0     H 6624   8.095   0.323   3.704 -5.0692 -4.4928 -1.3016
  773MOL0     H 6625   8.259   0.296   3.781  0.9777 -2.1876 -1.1280
  773MOL0     H 6626   8.136   0.130   3.922 -2.5838 -0.1239  0.9409
  773MOL0     H 6627   8.099   0.310   3.930 -1.5904  2.6076 -4.1033
  773MOL0     H 6628   7.916   0.096   3.791  1.2065  2.1241 -4.2043
  773MOL0     H 6629   7.895   0.181   3.949  0.1976 -1.0381  0.4034
  773MOL0     H 6630   7.887   0.283   3.677 -2.7183 -0.4025 -0.9262
  773MOL0     H 6631   7.758   0.264   3.785  0.7270 -0.6112 -0.5610
  773MOL0     H 6632   8.037   0.600   3.841 -1.6022  0.1777  0.9775
  773MOL0     H 6633   8.105   0.847   3.635 -2.3101  1.9747 -1.1617
  773MOL0     H 6634   8.093   0.848   3.811 -0.8079 -0.6380 -0.0213
  773MOL0     H 6635   7.992   0.950   3.716  3.4913  1.1797 -0.1582
  773MOL0     H 6636   7.741   1.154   3.447 -2.5723 -2.4899  2.4484
  773MOL0     H 6637   7.706   1.284   3.246 -0.8326  0.6488 -3.0195
  773MOL0     H 6638   7.546   1.396   3.066  1.2142  2.7404 -0.2578
  773MOL0     H 6639   7.713   1.366   3.048 -1.0129  1.9110  0.1500
  773MOL0     H 6640   7.699   1.353   2.819  0.7521  0.2233  1.7534
  773MOL0     H 6641   7.513   1.359   2.825  0.0106 -0.7806 -0.2754
  773MOL0     H 6642   7.534   1.586   2.918 -0.2910  1.8864 -1.5264
  773MOL0     H 6643   7.598   1.562   2.759  2.1985  0.2544  0.2351
  773MOL0     H 6644   7.830   1.547   2.869  0.5762  1.3773 -0.3039
  773MOL0     H 6645   7.747   1.572   3.023 -1.7240  0.1897 -0.7182
  773MOL0     H 6646   7.861   1.756   2.944  0.6233  0.7798 -1.9463
  773MOL0     H 6647   7.756   1.774   2.804 -1.7949 -1.1973 -0.3289
  773MOL0     H 6648   7.608   1.768   3.064  0.6226 -1.2439  0.2607
  773MOL0     H 6649   7.584   1.854   2.917  0.6061 -3.4583 -1.1503
  773MOL0     H 6650   7.774   1.999   2.953 -1.2176 -1.2700 -0.7550
  773MOL0     H 6651   7.808   1.931   3.111  1.1864 -0.9752 -0.3838
  773MOL0     H 6652   7.602   2.028   3.214  0.0511  3.0819  0.7000
  773MOL0     H 6653   7.528   2.030   3.064  0.6491 -4.2664  1.1580
  773MOL0     H 6654   7.543   0.956   3.039  0.9204  0.3920 -0.5609
  773MOL0     H 6655   7.592   0.798   3.259 -0.5050  1.3600  2.1176
  773MOL0     H 6656   7.667   0.627   3.526  0.6435  2.4274 -0.0630
  773MOL0     H 6657   7.665   0.465   3.697 -3.2270  2.5998  2.5945
  773MOL0     H 6658   8.880   0.283   2.532  1.0274  0.6228  0.6557
  773MOL0     H 6659   8.818   0.276   2.276  0.7665  1.0980  0.5199
  773MOL0     H 6660   8.576  -0.007   2.023 -4.4247 -0.0180  0.5740
  773MOL0     H 6661   8.503  -0.109   1.811  2.1122  0.1527 -2.1496
  773MOL0     H 6662   8.430  -0.179   1.628  0.6840 -0.8125 -1.0373
  773MOL0     H 6663   8.275  -0.093   1.654 -1.6718 -0.8620 -0.8543
  773MOL0     H 6664   8.426  -0.133   1.389 -0.2936  0.9484 -0.8303
  773MOL0     H 6665   8.262  -0.059   1.418  0.0109  0.8302  2.5274
  773MOL0     H 6666   8.189  -0.277   1.510 -1.3093 -0.3285 -1.2239
  773MOL0     H 6667   8.196  -0.271   1.345 -0.1525 -1.1753  1.6895
  773MOL0     H 6668   8.387  -0.419   1.526  3.4427 -1.6371 -1.4441
  773MOL0     H 6669   8.442  -0.373   1.360 -0.8957  1.2086 -0.2876
  773MOL0     H 6670   8.211  -0.702   1.297 -1.1948  0.1082  0.5334
  773MOL0     H 6671   8.502   0.272   1.611 -0.5152 -0.9249 -1.1062
  773MOL0     H 6672   8.662   0.455   1.804  0.8498  0.1734  1.8890
  773MOL0     H 6673   8.495   0.452   1.749 -1.1402 -0.0132 -0.3847
  773MOL0     H 6674   8.521   0.441   1.926 -2.2929 -1.6429 -1.0544
  774MOL0     O 6675   2.323   5.907   0.662  0.8745  0.2452 -0.2915
  774MOL0     C 6676   2.371   5.837   0.572  0.2100  0.3310 -0.0615
  774MOL0     O 6677   2.304   5.733   0.509 -0.0027 -0.0824 -0.2921
  774MOL0     C 6678   2.176   5.698   0.538  1.1034  0.7461  0.6576
  774MOL0     C 6679   2.131   5.569   0.505 -0.3950  0.2318 -0.2010
  774MOL0     C 6680   2.003   5.518   0.534  0.3885  0.7518 -0.2327
  774MOL0     C 6681   1.917   5.600   0.601 -0.9158  0.0454  0.1436
  774MOL0     O 6682   1.786   5.552   0.599  0.0264  0.0163  0.8921
  774MOL0     C 6683   1.691   5.639   0.655 -0.1185  0.2265 -0.6253
  774MOL0     C 6684   1.562   5.563   0.670  0.3554  0.6296 -0.7198
  774MOL0     C 6685   1.441   5.645   0.708  0.1427  0.1410  0.4598
  774MOL0     C 6686   1.401   5.740   0.592 -0.3688 -0.3076 -0.8648
  774MOL0     C 6687   1.252   5.796   0.587 -0.6012 -0.0947  0.2167
  774MOL0     C 6688   1.150   5.690   0.544  0.6223 -0.4723  0.7825
  774MOL0     C 6689   1.012   5.750   0.562  0.1162 -0.3961 -0.1509
  774MOL0     C 6690   0.905   5.647   0.528 -0.2310  0.8422 -0.8382
  774MOL0     N 6691   0.767   5.694   0.549 -0.1434  1.4199 -0.4146
  774MOL0     C 6692   0.664   5.641   0.479  0.0289 -0.5648  1.0290
  774MOL0     C 6693   0.554   5.712   0.508 -0.1059 -0.4375 -0.5154
  774MOL0     C 6694   0.414   5.707   0.438 -0.3676  0.1905 -0.4345
  774MOL0     C 6695   0.369   5.561   0.434  0.0290 -0.2787 -0.6563
  774MOL0     C 6696   0.348   5.505   0.572 -1.2875  0.3171  0.3397
  774MOL0     C 6697   0.233   5.562   0.650  0.6147 -1.0313 -0.0706
  774MOL0     O 6698   0.190   5.486   0.760 -0.0034 -0.6114 -0.7359
  774MOL0     C 6699   0.093   5.385   0.739 -0.1718 -0.0842  0.7183
  774MOL0     C 6700   0.047   5.334   0.624 -1.1880 -0.3158 -0.1001
  774MOL0     C 6701  -0.042   5.230   0.609 -0.2236  0.3964  0.2897
  774MOL0     C 6702  -0.093   5.199   0.476  0.7542  0.1304  0.0926
  774MOL0     C 6703  -0.096   5.171   0.730 -0.1309 -0.3893  0.0547
  774MOL0     C 6704  -0.202   5.062   0.742 -0.2156 -0.6023  0.0938
  774MOL0     O 6705  -0.191   4.955   0.654  0.4135  0.1209 -0.3129
  774MOL0     C 6706  -0.278   4.852   0.688 -0.3565 -1.0466  0.4688
  774MOL0     C 6707  -0.293   4.802   0.820 -0.6249 -0.2832 -0.3197
  774MOL0     C 6708  -0.393   4.704   0.838  0.2024  0.6742 -0.1906
  774MOL0     C 6709  -0.455   4.639   0.735  0.1218  0.7858 -0.0429
  774MOL0     O 6710  -0.544   4.535   0.755 -1.0986  0.4569 -0.4244
  774MOL0     C 6711  -0.571   4.488   0.892 -0.2208 -0.3808 -0.1502
  774MOL0     C 6712  -0.664   4.371   0.885  0.0870  0.3701  0.6810
  774MOL0     C 6713  -0.710   4.343   1.030  0.6893  0.2147  0.3663
  774MOL0     C 6714  -0.760   4.199   1.059 -0.6241  0.0939 -0.2882
  774MOL0     C 6715  -0.834   4.181   1.194 -0.1470  0.4519 -0.6097
  774MOL0     C 6716  -0.953   4.078   1.196  0.3442  0.2231  0.2097
  774MOL0     C 6717  -0.916   3.933   1.146  1.1343 -0.8082  0.2563
  774MOL0     C 6718  -0.800   3.884   1.223  0.5615  0.1185  0.4868
  774MOL0    Cl 6719  -0.793   3.699   1.207 -0.5380 -0.1096  0.1034
  774MOL0     C 6720  -0.434   4.688   0.605 -0.2970 -0.4993 -0.1686
  774MOL0     C 6721  -0.344   4.784   0.587 -1.3139  0.0269 -0.8480
  774MOL0     O 6722  -0.297   5.092   0.813  0.2540  0.0871  0.0007
  774MOL0     C 6723  -0.050   5.237   0.854  0.3318  0.6081 -0.0288
  774MOL0     C 6724   0.045   5.330   0.860  0.7153  0.2226  0.5658
  774MOL0     N 6725   0.594   5.794   0.612 -0.2665 -0.1274 -0.0472
  774MOL0     N 6726   0.716   5.785   0.636 -0.9872 -0.4255 -0.1610
  774MOL0     C 6727   1.944   5.741   0.622 -0.6019  0.6238  0.1001
  774MOL0     C 6728   2.076   5.791   0.593 -0.7543 -0.1954 -1.2135
  774MOL0     C 6729   2.499   5.860   0.506  0.6952 -0.3654 -0.7915
  774MOL0     C 6730   2.570   5.746   0.479 -0.1886 -0.2117 -0.0394
  774MOL0     C 6731   2.692   5.741   0.412 -0.8368 -0.1830  0.2911
  774MOL0     C 6732   2.758   5.862   0.380 -0.0302  0.1141  0.1370
  774MOL0     O 6733   2.881   5.875   0.317  0.0728 -0.3412  0.1621
  774MOL0     C 6734   2.941   5.751   0.274 -0.1151 -0.7946  0.2696
  774MOL0     C 6735   3.027   5.672   0.377  0.0250  0.2453  1.0792
  774MOL0     C 6736   3.064   5.527   0.339 -0.2836  0.3618 -0.3005
  774MOL0     C 6737   3.150   5.463   0.458  0.4462 -0.7419 -0.3614
  774MOL0     C 6738   3.253   5.370   0.405 -0.2522  0.0161  0.1377
  774MOL0     C 6739   3.345   5.298   0.355  1.0072 -0.8734 -1.3459
  774MOL0     C 6740   2.684   5.979   0.415  0.0667 -0.3252 -0.9480
  774MOL0     C 6741   2.561   5.983   0.481  0.8147  0.2641  0.1355
  774MOL0     C 6742   2.488   6.119   0.502 -0.4634 -0.6737  0.0134
  774MOL0     H 6743   2.218   5.515   0.468 -1.1267 -1.6188  0.6465
  774MOL0     H 6744   1.979   5.421   0.493  1.3838  0.7149 -0.7648
  774MOL0     H 6745   1.676   5.728   0.593 -2.3601 -0.9054 -1.8479
  774MOL0     H 6746   1.707   5.675   0.757  1.4381  1.1900 -1.1689
  774MOL0     H 6747   1.546   5.492   0.589 -1.7668 -1.1269  1.1139
  774MOL0     H 6748   1.570   5.498   0.757 -0.6797  0.4211 -0.7634
  774MOL0     H 6749   1.364   5.572   0.732  1.8567 -1.6616  0.7149
  774MOL0     H 6750   1.467   5.704   0.796 -0.4836  0.1577  0.6382
  774MOL0     H 6751   1.474   5.820   0.574 -0.6685  0.7507  2.0943
  774MOL0     H 6752   1.398   5.684   0.498 -1.3370 -0.8057 -0.5506
  774MOL0     H 6753   1.244   5.878   0.515  0.7106 -1.8283 -2.0579
  774MOL0     H 6754   1.218   5.825   0.687 -3.3822 -2.1644  0.0046
  774MOL0     H 6755   1.153   5.660   0.439 -2.5564 -0.7461  0.6624
  774MOL0     H 6756   1.175   5.601   0.603  1.8386 -0.9017 -0.3344
  774MOL0     H 6757   1.005   5.831   0.489 -1.1702 -1.1544 -0.9109
  774MOL0     H 6758   0.996   5.777   0.667 -2.3550 -0.3003 -0.4834
  774MOL0     H 6759   0.925   5.613   0.426 -0.7642 -1.0017 -0.3655
  774MOL0     H 6760   0.909   5.561   0.597 -0.5830  2.3640  1.1718
  774MOL0     H 6761   0.665   5.551   0.418  1.2705 -0.3052  0.6423
  774MOL0     H 6762   0.427   5.748   0.337  1.0240 -0.8858 -0.7266
  774MOL0     H 6763   0.348   5.778   0.487  0.7572  0.7088  0.3673
  774MOL0     H 6764   0.266   5.557   0.397 -1.0722 -0.4558  2.1075
  774MOL0     H 6765   0.441   5.495   0.385 -0.8440 -2.3461  0.6561
  774MOL0     H 6766   0.326   5.399   0.563  1.7274 -0.3657 -0.1609
  774MOL0     H 6767   0.445   5.518   0.621  0.3568  1.1529 -2.8457
  774MOL0     H 6768   0.261   5.656   0.698 -1.1537 -0.9055  0.7930
  774MOL0     H 6769   0.159   5.593   0.576  1.7456  2.8916  0.2203
  774MOL0     H 6770   0.086   5.381   0.534 -0.7000  0.8146  0.6847
  774MOL0     H 6771  -0.017   5.236   0.407 -0.1065 -0.8325 -1.4194
  774MOL0     H 6772  -0.184   5.255   0.457  0.9313 -0.4009 -2.7849
  774MOL0     H 6773  -0.105   5.091   0.458 -1.9581 -0.7703  5.2910
  774MOL0     H 6774  -0.238   4.826   0.911 -2.8827  0.8380  0.8365
  774MOL0     H 6775  -0.409   4.680   0.943 -0.2316  3.2361  0.3777
  774MOL0     H 6776  -0.476   4.466   0.941 -1.3212  0.1493  2.3848
  774MOL0     H 6777  -0.619   4.568   0.950  0.5476  0.4750 -0.6679
  774MOL0     H 6778  -0.750   4.393   0.822  1.3811 -0.4078 -1.4774
  774MOL0     H 6779  -0.613   4.286   0.839 -3.6597 -0.3824 -2.5637
  774MOL0     H 6780  -0.792   4.413   1.051 -1.2540 -1.4250 -1.3234
  774MOL0     H 6781  -0.637   4.373   1.105 -0.8842 -0.3485  2.2022
  774MOL0     H 6782  -0.682   4.123   1.043  0.6570  1.6695 -1.8943
  774MOL0     H 6783  -0.826   4.171   0.977 -2.7803 -1.3617  1.7799
  774MOL0     H 6784  -0.753   4.143   1.258  1.8320  1.4288 -2.4138
  774MOL0     H 6785  -0.861   4.279   1.235 -3.7154  0.7148 -3.1348
  774MOL0     H 6786  -1.024   4.114   1.122  1.1221  1.6647  0.1344
  774MOL0     H 6787  -0.996   4.081   1.297  0.5190  1.7334  0.2702
  774MOL0     H 6788  -0.893   3.930   1.039 -2.3699 -0.6733 -0.6538
  774MOL0     H 6789  -1.005   3.873   1.170 -0.2797  1.9847  2.5614
  774MOL0     H 6790  -0.789   3.906   1.329  3.1333  0.1598  0.2827
  774MOL0     H 6791  -0.717   3.923   1.163 -1.2497 -1.1372 -3.1413
  774MOL0     H 6792  -0.477   4.660   0.510  2.6452  0.5503 -1.9427
  774MOL0     H 6793  -0.320   4.817   0.486 -0.5834  2.3502  0.0328
  774MOL0     H 6794  -0.099   5.208   0.946 -0.1614 -1.2684 -0.8447
  774MOL0     H 6795   0.091   5.369   0.951  2.3202 -0.2151 -0.0230
  774MOL0     H 6796   1.877   5.818   0.659  0.1712  0.9381  0.8699
  774MOL0     H 6797   2.109   5.893   0.613 -0.1960 -0.1600 -2.2408
  774MOL0     H 6798   2.534   5.647   0.504 -0.5141  0.1876  1.2009
  774MOL0     H 6799   2.735   5.642   0.398 -0.5819  0.1566 -1.6679
  774MOL0     H 6800   2.870   5.680   0.232 -0.6280  1.4556 -2.9763
  774MOL0     H 6801   3.003   5.772   0.187  1.1677 -3.1706  0.5252
  774MOL0     H 6802   2.970   5.665   0.470 -1.4123  1.9656  0.3811
  774MOL0     H 6803   3.118   5.731   0.396 -2.0061  3.2647  2.3154
  774MOL0     H 6804   2.980   5.471   0.297  0.2548  0.3664 -1.4347
  774MOL0     H 6805   3.132   5.530   0.253 -0.5887 -1.0815 -0.6242
  774MOL0     H 6806   3.086   5.406   0.527 -5.7920  2.6840 -2.4958
  774MOL0     H 6807   3.202   5.540   0.516 -0.0768  1.0945 -2.2275
  774MOL0     H 6808   3.424   5.236   0.319  1.1319 -1.2536 -0.4243
  774MOL0     H 6809   2.732   6.075   0.403  0.4847  0.0306  2.5508
  774MOL0     H 6810   2.406   6.135   0.571 -0.1427  0.5525  0.1244
  774MOL0     H 6811   2.572   6.181   0.535 -1.1540 -0.3255  1.1763
  774MOL0     H 6812   2.454   6.153   0.404  1.1873 -0.1627 -0.4255
  775MOL0     O 6813   2.725   8.285   1.744 -0.4651  0.3067  0.5679
  775MOL0     C 6814   2.617   8.346   1.737 -0.0042 -0.6972  0.3509
  775MOL0     O 6815   2.500   8.296   1.767  0.4801  0.1737  0.6351
  775MOL0     C 6816   2.487   8.175   1.829 -0.3105 -0.0352 -0.8270
  775MOL0     C 6817   2.377   8.096   1.794  0.1150 -0.4012  0.2304
  775MOL0     C 6818   2.373   7.962   1.849  0.1517 -0.6239  0.0686
  775MOL0     C 6819   2.477   7.911   1.924  0.0088  0.6598 -0.0302
  775MOL0     O 6820   2.469   7.775   1.960  0.1778 -0.1068 -0.6744
  775MOL0     C 6821   2.521   7.698   1.849  0.4796 -0.4696 -0.3943
  775MOL0     C 6822   2.523   7.556   1.898  0.9081 -0.4351 -0.4003
  775MOL0     C 6823   2.381   7.496   1.901 -0.3498  0.6100 -0.2687
  775MOL0     C 6824   2.391   7.348   1.952 -0.3064 -0.5052  0.1183
  775MOL0     C 6825   2.267   7.272   1.909  0.4659  0.2258 -0.6792
  775MOL0     C 6826   2.267   7.130   1.966  0.8133  0.0143 -0.1119
  775MOL0     C 6827   2.175   7.032   1.891  0.3748 -0.1059 -0.7888
  775MOL0     C 6828   2.138   6.923   1.985  0.7020 -0.3868  0.3963
  775MOL0     N 6829   2.043   6.966   2.087 -0.6535 -0.0092  0.1038
  775MOL0     C 6830   1.933   7.049   2.079 -1.0517  1.4813 -0.6747
  775MOL0     C 6831   1.882   7.055   2.205 -0.6672  0.0041  1.1034
  775MOL0     C 6832   1.785   7.155   2.260  0.1404 -0.6049  0.0763
  775MOL0     C 6833   1.757   7.269   2.157 -0.2041  0.2507 -0.0287
  775MOL0     C 6834   1.660   7.363   2.207  0.7239 -0.7966  0.3065
  775MOL0     C 6835   1.631   7.476   2.113 -0.1859  0.5894 -0.9520
  775MOL0     O 6836   1.550   7.577   2.186  0.0604  0.0743  0.2842
  775MOL0     C 6837   1.535   7.702   2.127 -0.3894  0.0245  0.4033
  775MOL0     C 6838   1.561   7.739   1.994  0.7663 -0.2200 -0.3781
  775MOL0     C 6839   1.529   7.871   1.936  0.5049  0.4293 -0.5003
  775MOL0     C 6840   1.568   7.887   1.788  0.1132 -0.3128  0.2165
  775MOL0     C 6841   1.469   7.970   2.022  0.7685 -0.2368  0.5662
  775MOL0     C 6842   1.436   8.106   1.979  0.8011 -0.7862 -0.6154
  775MOL0     O 6843   1.353   8.188   2.055 -0.2764 -0.2763  1.4404
  775MOL0     C 6844   1.324   8.313   2.010  1.2166  0.1145  0.5063
  775MOL0     C 6845   1.237   8.372   2.101 -0.7655  0.7008 -0.5776
  775MOL0     C 6846   1.199   8.511   2.090 -0.1876  0.8742  0.2176
  775MOL0     C 6847   1.245   8.584   1.984 -0.2801  0.3864 -0.6677
  775MOL0     O 6848   1.205   8.719   1.978  0.0228  0.4763  0.1491
  775MOL0     C 6849   1.144   8.751   1.848  0.6343 -0.5562 -0.6093
  775MOL0     C 6850   1.171   8.905   1.821  1.0164 -0.4768 -0.2263
  775MOL0     C 6851   1.132   8.939   1.679  1.2937 -0.4678 -0.1297
  775MOL0     C 6852   1.158   9.086   1.637  0.4208 -0.6266 -0.0116
  775MOL0     C 6853   1.147   9.105   1.479  0.6011  0.2016 -0.0268
  775MOL0     C 6854   1.166   9.241   1.423  0.4077 -0.1700 -0.3631
  775MOL0     C 6855   1.158   9.252   1.266 -0.6347 -0.6513 -0.0281
  775MOL0     C 6856   1.009   9.276   1.216 -0.3929 -0.7741  0.3941
  775MOL0    Cl 6857   0.991   9.304   1.046 -0.3375  0.1164  0.0860
  775MOL0     C 6858   1.334   8.527   1.892 -0.1091  0.2909  0.7519
  775MOL0     C 6859   1.370   8.389   1.900 -0.3693 -0.0858  0.2284
  775MOL0     O 6860   1.485   8.129   1.871  0.8474 -0.1765  0.5291
  775MOL0     C 6861   1.449   7.935   2.163 -1.2186 -0.2848  0.4074
  775MOL0     C 6862   1.474   7.808   2.206  1.0968  0.1082  0.2767
  775MOL0     N 6863   1.946   6.963   2.281 -0.0988 -1.4652 -1.1294
  775MOL0     N 6864   2.038   6.908   2.217  0.2201 -0.3198  0.2167
  775MOL0     C 6865   2.579   7.994   1.970  0.0021 -0.0565 -0.0703
  775MOL0     C 6866   2.582   8.122   1.923  0.5697 -0.4706  0.4840
  775MOL0     C 6867   2.614   8.499   1.718 -0.0009 -0.1051  0.1029
  775MOL0     C 6868   2.553   8.577   1.823  0.8734  0.3137 -0.8736
  775MOL0     C 6869   2.557   8.719   1.812  0.0962  0.6491  0.3971
  775MOL0     C 6870   2.621   8.787   1.708  0.8114  1.2802  0.4826
  775MOL0     O 6871   2.629   8.925   1.694 -0.5901 -0.6120  0.1451
  775MOL0     C 6872   2.585   9.013   1.800 -0.7748  0.0407 -0.0930
  775MOL0     C 6873   2.611   9.162   1.776 -0.0897 -0.5541  0.7999
  775MOL0     C 6874   2.584   9.215   1.637  0.1293  0.0197 -0.2433
  775MOL0     C 6875   2.436   9.190   1.589 -0.8030 -1.2241 -0.3420
  775MOL0     C 6876   2.359   9.280   1.675  0.3571 -0.1190  0.9023
  775MOL0     C 6877   2.297   9.362   1.740  0.0092 -0.3529  0.8496
  775MOL0     C 6878   2.664   8.709   1.601 -0.6625  0.4988 -0.1540
  775MOL0     C 6879   2.674   8.568   1.610 -0.2940 -0.0057 -0.1758
  775MOL0     C 6880   2.747   8.498   1.495 -0.0952  0.5182 -0.1693
  775MOL0     H 6881   2.302   8.136   1.726 -1.7600 -2.0640  1.2055
  775MOL0     H 6882   2.295   7.893   1.818  1.4709 -1.9986 -0.2440
  775MOL0     H 6883   2.625   7.729   1.836 -0.3227  2.2917 -0.8073
  775MOL0     H 6884   2.458   7.713   1.761  1.2351  2.3923 -0.5338
  775MOL0     H 6885   2.583   7.493   1.832 -2.7193 -1.1419 -3.3483
  775MOL0     H 6886   2.560   7.553   2.001 -0.5674 -1.6895  0.1428
  775MOL0     H 6887   2.303   7.557   1.948 -1.5154  0.3210 -1.7746
  775MOL0     H 6888   2.353   7.473   1.798 -2.7253 -0.8620  0.6388
  775MOL0     H 6889   2.482   7.303   1.910 -0.0131 -0.6857  0.9268
  775MOL0     H 6890   2.411   7.355   2.060  2.2598  0.9134 -0.3550
  775MOL0     H 6891   2.274   7.240   1.804 -0.3960 -1.4987 -0.2504
  775MOL0     H 6892   2.173   7.322   1.930  0.5563  2.0252 -3.8960
  775MOL0     H 6893   2.371   7.101   1.952  1.3119  2.4484 -2.2419
  775MOL0     H 6894   2.249   7.135   2.074  0.9624 -0.9494 -0.0330
  775MOL0     H 6895   2.229   6.980   1.811  0.9314  0.7302 -0.9823
  775MOL0     H 6896   2.083   7.082   1.862 -0.5906  0.6367  3.0491
  775MOL0     H 6897   2.080   6.850   1.927 -0.5494  2.0876 -1.6659
  775MOL0     H 6898   2.228   6.883   2.034  0.8631 -1.0538 -0.4168
  775MOL0     H 6899   1.887   7.119   2.010 -1.8019  1.3740 -0.2885
  775MOL0     H 6900   1.805   7.205   2.356 -2.0006 -0.0155  0.2633
  775MOL0     H 6901   1.693   7.098   2.273 -1.4301  1.9063  0.7923
  775MOL0     H 6902   1.847   7.323   2.128  0.4939 -0.5554  0.5840
  775MOL0     H 6903   1.719   7.225   2.064 -0.7153  0.1462  0.2255
  775MOL0     H 6904   1.567   7.308   2.226 -1.8668  1.5551 -4.0553
  775MOL0     H 6905   1.706   7.403   2.298  0.8891  1.0894 -0.5736
  775MOL0     H 6906   1.731   7.513   2.088  1.0130 -1.5000  0.4070
  775MOL0     H 6907   1.565   7.441   2.033 -0.7013 -2.0719  0.5330
  775MOL0     H 6908   1.600   7.658   1.934  1.3018 -1.0638  1.0449
  775MOL0     H 6909   1.479   7.887   1.725  0.4992 -1.0942 -0.3401
  775MOL0     H 6910   1.612   7.789   1.767 -1.7792 -1.2539  0.4099
  775MOL0     H 6911   1.631   7.971   1.758  0.5197 -0.3491  0.9485
  775MOL0     H 6912   1.205   8.318   2.190  1.4246 -0.5224 -0.4705
  775MOL0     H 6913   1.144   8.552   2.174  2.3263 -0.3829  2.6922
  775MOL0     H 6914   1.171   8.688   1.763  3.4832  0.0534 -0.2736
  775MOL0     H 6915   1.036   8.737   1.855  0.6163  0.3575  1.9404
  775MOL0     H 6916   1.109   8.965   1.888  3.6093  2.8946 -0.6156
  775MOL0     H 6917   1.268   8.935   1.859  0.2010  0.2554  1.3501
  775MOL0     H 6918   1.027   8.910   1.669 -0.0798  3.4901  1.2058
  775MOL0     H 6919   1.193   8.884   1.606  2.3697  1.1027 -0.4555
  775MOL0     H 6920   1.258   9.122   1.663 -0.4756  1.8375  0.3406
  775MOL0     H 6921   1.083   9.144   1.692  1.2402  2.5506 -1.9603
  775MOL0     H 6922   1.215   9.032   1.436  0.3662 -0.9824  1.5316
  775MOL0     H 6923   1.049   9.065   1.453 -1.3932  1.5345  4.3946
  775MOL0     H 6924   1.262   9.286   1.453  1.1433 -0.9047 -1.5361
  775MOL0     H 6925   1.091   9.304   1.472  2.8582  3.4528 -0.8398
  775MOL0     H 6926   1.196   9.164   1.213  0.5268 -0.2801  0.1668
  775MOL0     H 6927   1.213   9.340   1.234  0.3489 -1.2490 -0.0138
  775MOL0     H 6928   0.973   9.364   1.269  0.6831  0.4225 -0.7901
  775MOL0     H 6929   0.949   9.186   1.237 -1.6064  0.3584  2.0359
  775MOL0     H 6930   1.362   8.596   1.813 -1.6037  1.8981  1.5466
  775MOL0     H 6931   1.441   8.361   1.823 -0.7500  2.8448 -1.3356
  775MOL0     H 6932   1.407   8.000   2.239 -1.9055 -1.7096  1.2971
  775MOL0     H 6933   1.464   7.791   2.313  1.0893  0.1830  0.2884
  775MOL0     H 6934   2.645   7.949   2.043 -1.5958 -0.6181  1.0956
  775MOL0     H 6935   2.659   8.183   1.969  1.2884 -0.2999 -0.8846
  775MOL0     H 6936   2.502   8.531   1.907  0.6487  4.9086  1.8491
  775MOL0     H 6937   2.514   8.772   1.896  0.1889 -3.5495  3.4631
  775MOL0     H 6938   2.479   9.000   1.824 -1.0465  2.0996  0.0055
  775MOL0     H 6939   2.646   8.979   1.885 -0.8790 -4.7266 -1.6078
  775MOL0     H 6940   2.716   9.171   1.805  0.6030 -1.8054 -1.1319
  775MOL0     H 6941   2.546   9.206   1.853 -3.8382 -1.9489 -1.3088
  775MOL0     H 6942   2.607   9.321   1.646  3.1861 -0.6566  0.9672
  775MOL0     H 6943   2.656   9.172   1.567 -0.7827 -0.8962 -0.6516
  775MOL0     H 6944   2.412   9.084   1.600 -2.7663 -0.7920 -0.2324
  775MOL0     H 6945   2.414   9.216   1.485 -4.2324 -2.0869  0.0473
  775MOL0     H 6946   2.246   9.443   1.788 -1.5321 -0.8202  0.0411
  775MOL0     H 6947   2.705   8.761   1.515 -0.4035  1.3509  0.4684
  775MOL0     H 6948   2.696   8.404   1.470  0.1169  0.4650 -0.3984
  775MOL0     H 6949   2.729   8.561   1.407 -0.6491 -1.6348 -1.6659
  775MOL0     H 6950   2.849   8.477   1.529 -1.8891 -1.7334  4.6823
  776MOL0     O 6951  11.141   0.573  10.656 -0.8780  0.3288  0.9082
  776MOL0     C 6952  11.071   0.648  10.727 -0.9362  0.8684 -0.5671
  776MOL0     O 6953  10.961   0.720  10.684 -0.6204  0.1782  0.1718
  776MOL0     C 6954  10.896   0.681  10.578 -0.4800 -0.2150  0.3187
  776MOL0     C 6955  10.766   0.647  10.595  1.1316  0.0131 -0.0675
  776MOL0     C 6956  10.679   0.604  10.491  0.1007 -0.2936  0.2275
  776MOL0     C 6957  10.742   0.599  10.359  0.2167  0.4212 -0.0930
  776MOL0     O 6958  10.675   0.590  10.235 -0.9757 -0.5991 -0.2096
  776MOL0     C 6959  10.537   0.617  10.247 -0.4126 -0.1230  0.4499
  776MOL0     C 6960  10.489   0.606  10.107  1.7206  0.1434  0.1071
  776MOL0     C 6961  10.351   0.667  10.098  0.6254 -0.1195  0.2634
  776MOL0     C 6962  10.285   0.682   9.963  0.2101  0.7339  0.0223
  776MOL0     C 6963  10.159   0.775   9.980 -0.9062  0.7588  0.5026
  776MOL0     C 6964  10.085   0.765   9.840 -0.1209 -0.1643 -0.2968
  776MOL0     C 6965  10.019   0.893   9.791 -0.3384  0.7331  0.2028
  776MOL0     C 6966   9.910   0.932   9.884 -0.5984  0.1184  0.2282
  776MOL0     N 6967   9.844   1.058   9.855  0.6184  0.2438  0.7676
  776MOL0     C 6968   9.892   1.173   9.916  0.7829  0.8803 -0.4972
  776MOL0     C 6969   9.808   1.270   9.887  0.4331  0.8044  0.3098
  776MOL0     C 6970   9.821   1.416   9.909  0.5608 -0.0007 -0.4789
  776MOL0     C 6971   9.745   1.455  10.036 -0.6265 -0.0410  0.6526
  776MOL0     C 6972   9.808   1.568  10.132  0.0398 -0.1757 -0.8948
  776MOL0     C 6973   9.735   1.587  10.263  0.2089  0.2989  0.3683
  776MOL0     O 6974   9.772   1.478  10.348 -0.1657 -0.2445 -0.1811
  776MOL0     C 6975   9.770   1.504  10.483  0.1975  0.3255 -0.9079
  776MOL0     C 6976   9.864   1.438  10.564  0.2913 -0.4873  0.0172
  776MOL0     C 6977   9.863   1.462  10.707 -0.3990 -0.6106 -0.0880
  776MOL0     C 6978   9.960   1.383  10.790  0.9298  0.1530  0.5030
  776MOL0     C 6979   9.770   1.547  10.767 -0.2670 -0.0045  0.6210
  776MOL0     C 6980   9.769   1.586  10.915 -0.1408  0.7354 -0.4888
  776MOL0     O 6981   9.870   1.548  11.000 -0.4477 -1.3131  0.2141
  776MOL0     C 6982   9.878   1.605  11.120  0.6259  0.0013 -1.1441
  776MOL0     C 6983   9.774   1.608  11.219  0.1034 -0.4599 -0.3232
  776MOL0     C 6984   9.788   1.697  11.326  0.6755  0.3350  0.3948
  776MOL0     C 6985   9.900   1.774  11.343  0.1205  0.1710 -0.0387
  776MOL0     O 6986   9.893   1.858  11.440 -0.0414 -0.5522  0.6537
  776MOL0     C 6987   9.986   1.963  11.443  0.2478  0.6527  0.0359
  776MOL0     C 6988   9.926   2.060  11.533 -0.0867  0.0514  0.2884
  776MOL0     C 6989  10.011   2.184  11.539 -0.4027 -0.0749 -0.8997
  776MOL0     C 6990  10.157   2.167  11.582  0.2461 -0.1396  0.4536
  776MOL0     C 6991  10.223   2.306  11.591 -1.1532  0.9141  0.6413
  776MOL0     C 6992  10.382   2.298  11.593 -0.0920 -0.3549  0.3020
  776MOL0     C 6993  10.449   2.286  11.453 -0.8682  0.4883  0.6905
  776MOL0     C 6994  10.593   2.240  11.456 -0.8239 -1.1052 -0.0154
  776MOL0    Cl 6995  10.654   2.174  11.291  0.4114 -0.0162 -0.5863
  776MOL0     C 6996  10.003   1.766  11.251  0.4204  0.4550 -0.6064
  776MOL0     C 6997   9.991   1.687  11.138 -0.0782  0.0315  0.7703
  776MOL0     O 6998   9.679   1.663  10.949  0.3961  0.8143  0.0170
  776MOL0     C 6999   9.670   1.604  10.688 -0.1943  0.1951  0.3951
  776MOL0     C 7000   9.670   1.577  10.549 -0.2213  0.1484  0.8554
  776MOL0     N 7001   9.720   1.223   9.792  0.3900  0.5773 -0.0355
  776MOL0     N 7002   9.735   1.094   9.780  0.0537 -0.0833 -1.2217
  776MOL0     C 7003  10.880   0.631  10.340  0.1363  0.1325  0.0986
  776MOL0     C 7004  10.953   0.670  10.449  0.7600 -0.8093  0.3990
  776MOL0     C 7005  11.117   0.673  10.873  0.5215 -0.4345  0.3070
  776MOL0     C 7006  11.080   0.794  10.923  1.3796 -0.4769 -0.3221
  776MOL0     C 7007  11.107   0.825  11.055  0.3264 -0.2900 -0.8121
  776MOL0     C 7008  11.188   0.751  11.141 -0.1200  0.1720  0.5478
  776MOL0     O 7009  11.224   0.796  11.265 -0.2860 -0.1756 -0.2321
  776MOL0     C 7010  11.278   0.701  11.363 -0.0670  0.8751 -0.0906
  776MOL0     C 7011  11.303   0.765  11.498  0.6305 -0.2876  0.8264
  776MOL0     C 7012  11.402   0.692  11.583  0.3577  0.0532  1.1215
  776MOL0     C 7013  11.329   0.622  11.694  0.2473  0.1855  0.3452
  776MOL0     C 7014  11.419   0.532  11.764  1.0034  1.1632  0.4128
  776MOL0     C 7015  11.493   0.449  11.812  0.3299  0.0384 -0.3677
  776MOL0     C 7016  11.228   0.637  11.088  0.2201 -0.3610 -0.0980
  776MOL0     C 7017  11.195   0.594  10.956  0.2359  0.0426  0.0142
  776MOL0     C 7018  11.239   0.459  10.909 -0.7261 -0.4077  0.3673
  776MOL0     H 7019  10.725   0.654  10.696 -0.8293 -1.4787 -0.6963
  776MOL0     H 7020  10.578   0.570  10.507 -0.2322  1.0219  0.9555
  776MOL0     H 7021  10.520   0.715  10.291  1.7818 -0.4817  2.2597
  776MOL0     H 7022  10.491   0.538  10.307  1.3572 -0.7129  1.0936
  776MOL0     H 7023  10.556   0.654  10.035  2.0749  0.7933  0.8567
  776MOL0     H 7024  10.485   0.500  10.083  0.9293 -0.2973  2.0366
  776MOL0     H 7025  10.282   0.595  10.144 -0.1361 -2.2010 -3.6610
  776MOL0     H 7026  10.344   0.758  10.159  1.1073  1.8952 -2.4981
  776MOL0     H 7027  10.350   0.713   9.881  1.8446 -2.0111  0.1768
  776MOL0     H 7028  10.264   0.579   9.933 -1.3168  1.0414 -0.0722
  776MOL0     H 7029  10.197   0.877   9.994  1.7456 -0.3238  1.9747
  776MOL0     H 7030  10.097   0.744  10.065 -1.0404 -0.9752 -0.1874
  776MOL0     H 7031  10.161   0.741   9.765  1.0435  1.0337  0.4649
  776MOL0     H 7032  10.007   0.689   9.833 -1.1010  0.6619  1.1601
  776MOL0     H 7033   9.992   0.884   9.685  1.1283 -1.1034 -0.0572
  776MOL0     H 7034  10.096   0.969   9.804  1.6346 -1.0384 -0.5019
  776MOL0     H 7035   9.834   0.854   9.896 -0.2186  0.0251  2.3016
  776MOL0     H 7036   9.955   0.937   9.983  0.2745 -1.7819 -0.0404
  776MOL0     H 7037   9.984   1.175   9.975  2.3808 -2.4013 -2.5693
  776MOL0     H 7038   9.776   1.466   9.822 -0.8886  0.7225  0.6264
  776MOL0     H 7039   9.923   1.454   9.916 -0.4603  3.1796 -0.7935
  776MOL0     H 7040   9.645   1.485  10.002 -0.1306 -1.4014 -2.3344
  776MOL0     H 7041   9.729   1.365  10.097  0.3392 -1.6221 -1.3248
  776MOL0     H 7042   9.913   1.549  10.157  0.0527  0.9778  0.0478
  776MOL0     H 7043   9.810   1.665  10.081 -1.1954  0.0935 -0.4727
  776MOL0     H 7044   9.766   1.684  10.302 -3.0607  2.0303 -0.9939
  776MOL0     H 7045   9.629   1.583  10.240  0.4417  3.9512 -2.0356
  776MOL0     H 7046   9.934   1.364  10.527 -0.9574 -1.4253 -0.5293
  776MOL0     H 7047  10.053   1.441  10.799  1.0977  0.3024 -1.6187
  776MOL0     H 7048   9.990   1.292  10.736  0.5655  0.1239  0.3479
  776MOL0     H 7049   9.925   1.358  10.891  0.4378 -0.6057  0.1584
  776MOL0     H 7050   9.689   1.542  11.204 -0.5321  0.1783  0.3880
  776MOL0     H 7051   9.706   1.710  11.397  2.2962 -2.1841  2.9198
  776MOL0     H 7052  10.088   1.927  11.458 -0.4403 -1.7197 -0.6868
  776MOL0     H 7053   9.983   1.998  11.340 -0.4103 -2.3807 -1.0672
  776MOL0     H 7054   9.825   2.074  11.494 -1.3966 -3.8831  1.7313
  776MOL0     H 7055   9.911   2.005  11.627 -4.1650  0.0895 -0.1543
  776MOL0     H 7056   9.950   2.249  11.603 -1.0257 -1.5121  0.0061
  776MOL0     H 7057  10.010   2.236  11.442  3.3438  0.7482 -0.6283
  776MOL0     H 7058  10.215   2.104  11.514 -0.6519  1.8743 -2.3817
  776MOL0     H 7059  10.156   2.113  11.677  2.6831 -0.9056  0.1030
  776MOL0     H 7060  10.200   2.379  11.512  0.9319  0.1428 -0.7589
  776MOL0     H 7061  10.198   2.352  11.687 -1.6263 -0.4038  1.1669
  776MOL0     H 7062  10.422   2.214  11.649  0.2714  0.3353  1.1013
  776MOL0     H 7063  10.413   2.391  11.642 -0.2072  0.6850 -1.5162
  776MOL0     H 7064  10.446   2.380  11.396  1.5025 -0.7159 -1.6309
  776MOL0     H 7065  10.396   2.212  11.394  0.1024  1.2651 -1.2682
  776MOL0     H 7066  10.597   2.168  11.538 -4.3932  1.7093  2.9702
  776MOL0     H 7067  10.664   2.316  11.490 -1.7741  2.2907 -4.5861
  776MOL0     H 7068  10.097   1.819  11.259 -0.0670  1.1487  0.7323
  776MOL0     H 7069  10.059   1.687  11.053 -1.5918 -1.0064 -0.5277
  776MOL0     H 7070   9.581   1.650  10.732  0.1540 -1.4438  3.0391
  776MOL0     H 7071   9.583   1.612  10.494  1.7656  1.5698 -1.6156
  776MOL0     H 7072  10.927   0.624  10.243 -1.5447  0.9788 -0.8177
  776MOL0     H 7073  11.057   0.697  10.435  0.2891  1.7030  1.1063
  776MOL0     H 7074  11.012   0.864  10.877 -0.7056 -1.7890  0.6130
  776MOL0     H 7075  11.072   0.919  11.094  0.2280  0.0428 -1.6838
  776MOL0     H 7076  11.202   0.623  11.374 -3.9668  4.0120 -1.9070
  776MOL0     H 7077  11.369   0.657  11.322  1.7936  3.8148  0.5839
  776MOL0     H 7078  11.210   0.791  11.549  1.0496 -0.7490  1.8668
  776MOL0     H 7079  11.360   0.856  11.476 -0.5313  0.7672  1.9383
  776MOL0     H 7080  11.464   0.619  11.530 -0.8078 -0.9013  1.0237
  776MOL0     H 7081  11.462   0.767  11.635  0.4770  2.0916 -1.7386
  776MOL0     H 7082  11.251   0.555  11.655  1.1146 -1.7050  1.6647
  776MOL0     H 7083  11.288   0.698  11.761  1.8217 -0.9577  2.7379
  776MOL0     H 7084  11.554   0.369  11.849 -0.3682 -0.9689 -1.3296
  776MOL0     H 7085  11.293   0.573  11.147 -1.0667 -1.5544  0.0638
  776MOL0     H 7086  11.304   0.411  10.983 -0.4120  0.4357  0.6514
  776MOL0     H 7087  11.162   0.389  10.873  0.9470 -2.0647 -0.1554
  776MOL0     H 7088  11.305   0.495  10.830 -0.5341  0.0171  0.7188
  777MOL0     O 7089  10.648   8.539   7.188  0.0595  0.2870  0.4153
  777MOL0     C 7090  10.586   8.439   7.200 -0.2452 -0.6051  0.4571
  777MOL0     O 7091  10.637   8.314   7.230 -0.3967 -0.2054  0.6364
  777MOL0     C 7092  10.776   8.305   7.215  1.4417  0.4548  0.1625
  777MOL0     C 7093  10.837   8.360   7.099 -0.7624  0.2558  0.5738
  777MOL0     C 7094  10.977   8.354   7.089  0.6122  0.0663  0.4157
  777MOL0     C 7095  11.050   8.287   7.193  0.0799  0.5055  0.4670
  777MOL0     O 7096  11.182   8.250   7.184 -0.8348 -0.4180  0.4848
  777MOL0     C 7097  11.256   8.239   7.068 -0.2708  0.3076  0.3893
  777MOL0     C 7098  11.410   8.213   7.101  1.0229  0.8853 -0.4173
  777MOL0     C 7099  11.484   8.213   6.970  0.7735 -0.6158 -0.3641
  777MOL0     C 7100  11.625   8.161   6.973  1.5799 -0.4994 -0.0276
  777MOL0     C 7101  11.689   8.175   6.828  0.4016  0.2158 -0.6993
  777MOL0     C 7102  11.806   8.074   6.798 -0.3194  0.3393  0.9251
  777MOL0     C 7103  11.934   8.101   6.874  0.1315  0.0658 -0.0268
  777MOL0     C 7104  12.032   7.998   6.832 -0.2655  0.4359 -0.5176
  777MOL0     N 7105  12.127   7.980   6.942  0.4780 -0.5215 -0.8291
  777MOL0     C 7106  12.160   7.869   7.014  0.3520  0.4673 -0.8298
  777MOL0     C 7107  12.253   7.918   7.105 -0.7651 -0.9379  0.0107
  777MOL0     C 7108  12.293   7.849   7.232 -0.0553 -0.4583  0.2844
  777MOL0     C 7109  12.436   7.791   7.226  0.3187 -0.2495  0.1699
  777MOL0     C 7110  12.468   7.696   7.103  0.1042 -0.6697  0.5302
  777MOL0     C 7111  12.608   7.643   7.092 -1.1656  0.5120 -0.5840
  777MOL0     O 7112  12.702   7.750   7.133 -0.4014  0.4595  1.0848
  777MOL0     C 7113  12.816   7.757   7.058  1.0299 -0.0539 -0.2578
  777MOL0     C 7114  12.879   7.640   7.006 -0.6224  0.4059  0.0193
  777MOL0     C 7115  13.007   7.649   6.946  0.1980  0.4283 -0.8463
  777MOL0     C 7116  13.069   7.526   6.889  0.3134  0.3439 -0.3910
  777MOL0     C 7117  13.085   7.764   6.956 -0.1285  0.0377 -0.2651
  777MOL0     C 7118  13.236   7.772   6.928  0.3811  0.5679  0.4491
  777MOL0     O 7119  13.277   7.898   6.883  1.0133  0.0945  0.0378
  777MOL0     C 7120  13.397   7.945   6.921  0.9998  0.7446  0.8735
  777MOL0     C 7121  13.396   8.030   7.041 -1.6722  0.5118 -0.4073
  777MOL0     C 7122  13.517   8.087   7.079 -0.3622 -0.7466 -0.6046
  777MOL0     C 7123  13.633   8.067   7.001 -0.3612 -0.5099  0.6153
  777MOL0     O 7124  13.756   8.130   7.020  0.3562  0.9871  0.1024
  777MOL0     C 7125  13.760   8.274   7.053  0.1478  0.1001  0.1120
  777MOL0     C 7126  13.894   8.297   7.114 -0.1670 -0.1372  0.2191
  777MOL0     C 7127  13.936   8.206   7.234 -0.6891  0.0042 -0.1700
  777MOL0     C 7128  14.049   8.274   7.311  0.4243  0.6256  0.8339
  777MOL0     C 7129  14.138   8.148   7.366 -0.1464  0.2646  0.1608
  777MOL0     C 7130  14.265   8.209   7.443  0.0644  0.1318 -0.3080
  777MOL0     C 7131  14.363   8.104   7.500 -1.0570  0.3322 -0.3546
  777MOL0     C 7132  14.294   8.003   7.590  0.7145 -0.1072  0.2382
  777MOL0    Cl 7133  14.422   7.916   7.673  0.0689 -0.5631 -0.3676
  777MOL0     C 7134  13.634   7.963   6.904  0.8048  0.8651  0.1202
  777MOL0     C 7135  13.515   7.914   6.855 -1.1012 -0.0480 -0.7886
  777MOL0     O 7136  13.319   7.686   6.961 -0.3513  0.1167 -0.7527
  777MOL0     C 7137  13.020   7.876   7.011 -0.3005 -0.8406 -0.7355
  777MOL0     C 7138  12.887   7.872   7.058  0.2494 -0.4070  0.5161
  777MOL0     N 7139  12.274   8.058   7.095 -0.3495  0.5474  0.2777
  777MOL0     N 7140  12.211   8.081   6.986  1.1580 -0.2476 -0.4556
  777MOL0     C 7141  10.981   8.235   7.305 -1.1636 -0.1078  0.6514
  777MOL0     C 7142  10.845   8.233   7.314 -0.1032  0.0260  0.0905
  777MOL0     C 7143  10.437   8.445   7.181 -0.6193  0.7784 -0.3119
  777MOL0     C 7144  10.371   8.325   7.180  0.4742  0.2405 -0.6841
  777MOL0     C 7145  10.232   8.325   7.194 -0.4858  0.6787  0.5962
  777MOL0     C 7146  10.164   8.443   7.202  0.1769 -0.5935 -0.1599
  777MOL0     O 7147  10.032   8.454   7.248 -0.1586  0.0173 -0.3328
  777MOL0     C 7148   9.944   8.416   7.139  1.2275 -0.1086 -0.1283
  777MOL0     C 7149   9.800   8.394   7.195  0.9574  0.8710  0.7308
  777MOL0     C 7150   9.757   8.490   7.306  0.1556  0.4040  0.1619
  777MOL0     C 7151   9.607   8.495   7.326  0.3401  0.5451  0.0577
  777MOL0     C 7152   9.551   8.615   7.265 -0.0628  0.0221 -0.4317
  777MOL0     C 7153   9.512   8.719   7.226  1.4991 -0.6877 -0.3083
  777MOL0     C 7154  10.230   8.565   7.199  0.4612 -0.0439 -0.4812
  777MOL0     C 7155  10.370   8.570   7.180  0.3602  0.5186  0.0477
  777MOL0     C 7156  10.432   8.707   7.181  0.6982  0.0245  1.2638
  777MOL0     H 7157  10.788   8.409   7.015 -0.0653 -2.5721 -1.6416
  777MOL0     H 7158  11.034   8.389   7.003  2.9615 -0.7985  1.5396
  777MOL0     H 7159  11.248   8.322   6.998  0.2380 -0.1886 -0.2648
  777MOL0     H 7160  11.215   8.145   7.028 -2.5059  0.4341  2.1384
  777MOL0     H 7161  11.455   8.295   7.158 -0.8573  0.9771  1.0401
  777MOL0     H 7162  11.421   8.122   7.161 -0.6309  0.5117 -0.6294
  777MOL0     H 7163  11.413   8.154   6.911  0.2457 -2.3983  1.9204
  777MOL0     H 7164  11.497   8.319   6.945  0.2743  0.2700  2.7451
  777MOL0     H 7165  11.684   8.215   7.047 -0.6578  3.7755 -1.0100
  777MOL0     H 7166  11.612   8.056   7.001  0.6344  0.0252  1.6661
  777MOL0     H 7167  11.720   8.279   6.814  2.3819  0.1219  2.0804
  777MOL0     H 7168  11.608   8.149   6.760  0.8301 -1.4367 -0.6237
  777MOL0     H 7169  11.772   7.970   6.805 -1.3600  0.7171  1.8328
  777MOL0     H 7170  11.825   8.081   6.691 -2.5574 -3.0369  0.1265
  777MOL0     H 7171  11.912   8.100   6.981 -3.5630  1.2320 -0.6060
  777MOL0     H 7172  11.965   8.198   6.835  1.0210 -1.1149 -2.3946
  777MOL0     H 7173  11.978   7.906   6.808 -1.4309  1.4914 -2.1906
  777MOL0     H 7174  12.080   8.025   6.738  0.7947 -4.1172 -1.5035
  777MOL0     H 7175  12.118   7.769   7.016  2.4198 -0.4483 -0.9744
  777MOL0     H 7176  12.215   7.779   7.264 -1.2836  0.7856  0.1346
  777MOL0     H 7177  12.305   7.928   7.306 -1.9644  0.5522 -0.3935
  777MOL0     H 7178  12.507   7.875   7.226  0.1781 -0.0904 -1.8886
  777MOL0     H 7179  12.450   7.740   7.322 -1.4452 -0.1647  0.4939
  777MOL0     H 7180  12.390   7.619   7.111 -1.2580  0.8498  3.7449
  777MOL0     H 7181  12.459   7.750   7.009  1.8361  0.6568  1.0712
  777MOL0     H 7182  12.628   7.562   7.163  1.2137  0.8763 -0.7603
  777MOL0     H 7183  12.626   7.611   6.989  1.7931 -1.0310  0.3219
  777MOL0     H 7184  12.830   7.543   7.003  0.1884 -0.0363  0.7666
  777MOL0     H 7185  12.999   7.445   6.867 -1.3524  2.4823 -3.9690
  777MOL0     H 7186  13.141   7.500   6.966 -0.9965  0.4661  0.9285
  777MOL0     H 7187  13.121   7.546   6.795 -1.0286 -0.4355 -1.3250
  777MOL0     H 7188  13.310   8.032   7.107 -0.4340  0.9863  1.2693
  777MOL0     H 7189  13.526   8.148   7.169  4.3554  0.6797 -1.7669
  777MOL0     H 7190  13.757   8.334   6.962  1.1895  1.1869  0.7625
  777MOL0     H 7191  13.679   8.299   7.121  2.8232  1.4122  3.0734
  777MOL0     H 7192  13.966   8.284   7.033  0.2251 -3.5737  0.9783
  777MOL0     H 7193  13.884   8.402   7.144 -0.0786  0.0059 -0.2486
  777MOL0     H 7194  13.951   8.101   7.209  0.5226  0.0703  0.2202
  777MOL0     H 7195  13.842   8.205   7.290 -0.6926 -3.7329  0.0024
  777MOL0     H 7196  14.005   8.341   7.385  2.3165  0.3308  2.3089
  777MOL0     H 7197  14.119   8.336   7.254  1.3888 -0.1511  1.1455
  777MOL0     H 7198  14.081   8.095   7.444 -0.0328  1.3859  1.0458
  777MOL0     H 7199  14.174   8.081   7.289 -0.9203 -0.3532  0.3279
  777MOL0     H 7200  14.234   8.271   7.528  0.3242 -1.7357  1.2509
  777MOL0     H 7201  14.312   8.275   7.370  1.8163 -1.6201 -0.8631
  777MOL0     H 7202  14.433   8.156   7.567 -0.6005  2.1370 -2.1210
  777MOL0     H 7203  14.411   8.058   7.413 -2.7690 -0.6501 -0.8137
  777MOL0     H 7204  14.232   7.937   7.530  1.5251  1.0584 -1.9685
  777MOL0     H 7205  14.232   8.045   7.670  1.0414  0.2188  0.3248
  777MOL0     H 7206  13.728   7.936   6.857  0.7247  1.2033 -0.2332
  777MOL0     H 7207  13.536   7.850   6.770 -0.0392  0.6749 -1.0855
  777MOL0     H 7208  13.079   7.965   7.026 -0.9354 -0.7793  2.0689
  777MOL0     H 7209  12.840   7.963   7.096 -0.5135 -0.0386 -1.2147
  777MOL0     H 7210  11.040   8.186   7.382  0.4529 -4.1812 -2.7837
  777MOL0     H 7211  10.791   8.196   7.401  1.7978  0.6629  1.6292
  777MOL0     H 7212  10.413   8.226   7.168  0.5249 -0.0462  1.5722
  777MOL0     H 7213  10.198   8.223   7.205  2.0494 -0.5544 -1.6125
  777MOL0     H 7214   9.937   8.494   7.062  3.0256  2.6331  2.2449
  777MOL0     H 7215   9.972   8.319   7.098  0.4654 -0.7972  0.9509
  777MOL0     H 7216   9.803   8.295   7.242  0.3890  0.2202 -0.5509
  777MOL0     H 7217   9.730   8.402   7.111  2.6218 -1.8737 -1.0666
  777MOL0     H 7218   9.793   8.447   7.400 -0.2157  0.1491  0.1921
  777MOL0     H 7219   9.804   8.586   7.285  1.3356 -0.5045 -1.6926
  777MOL0     H 7220   9.576   8.485   7.431 -0.6031 -1.8978 -0.3895
  777MOL0     H 7221   9.570   8.405   7.275 -0.0877  1.7122 -1.7575
  777MOL0     H 7222   9.504   8.823   7.201 -1.2540 -0.1292  2.2438
  777MOL0     H 7223  10.168   8.652   7.218  1.0821  0.4255 -0.5454
  777MOL0     H 7224  10.494   8.731   7.094  0.6091  2.8382  1.8571
  777MOL0     H 7225  10.354   8.784   7.183  1.5998  1.0716 -0.7181
  777MOL0     H 7226  10.496   8.726   7.269  0.8338 -0.5076  1.2822
  778MOL0     O 7227   5.868   6.073   1.803  0.3788 -0.3733  0.4307
  778MOL0     C 7228   5.811   6.156   1.872  0.3226 -0.3890 -0.2513
  778MOL0     O 7229   5.813   6.294   1.859 -0.6929 -0.2272 -0.1254
  778MOL0     C 7230   5.892   6.350   1.761 -0.1653 -0.0977 -0.5204
  778MOL0     C 7231   6.020   6.397   1.801 -0.3730 -0.4248 -0.1728
  778MOL0     C 7232   6.109   6.459   1.711 -0.5259 -0.1542 -0.3118
  778MOL0     C 7233   6.061   6.477   1.576 -0.6080  1.4125  1.3728
  778MOL0     O 7234   6.141   6.514   1.469  0.4156 -0.6787 -0.9258
  778MOL0     C 7235   6.259   6.595   1.510 -0.5533 -1.2845 -0.5666
  778MOL0     C 7236   6.313   6.664   1.380 -0.0967  0.5398 -0.0333
  778MOL0     C 7237   6.419   6.774   1.378  0.4722  0.2134  0.1352
  778MOL0     C 7238   6.437   6.863   1.500 -0.0671 -0.3055  0.6097
  778MOL0     C 7239   6.572   6.943   1.487 -0.6498 -0.4390 -0.0353
  778MOL0     C 7240   6.586   7.045   1.381  0.5812 -0.5523  0.5299
  778MOL0     C 7241   6.700   7.141   1.404 -0.7002 -0.3259 -0.1863
  778MOL0     C 7242   6.672   7.246   1.512  0.3415 -0.7977 -0.0238
  778MOL0     N 7243   6.778   7.353   1.512  0.3712 -0.1128  0.5449
  778MOL0     C 7244   6.770   7.478   1.451 -0.3787 -0.3732 -0.2177
  778MOL0     C 7245   6.892   7.532   1.465 -0.0998 -0.2123 -0.3519
  778MOL0     C 7246   6.942   7.665   1.430  0.6458 -0.1006  0.0800
  778MOL0     C 7247   7.049   7.669   1.317 -0.2806 -0.3841 -0.1396
  778MOL0     C 7248   7.120   7.799   1.301 -0.1098  0.8730  1.3042
  778MOL0     C 7249   7.022   7.913   1.287 -0.6802 -0.5948  0.4295
  778MOL0     O 7250   6.952   7.958   1.407 -0.0908  0.5614 -0.2182
  778MOL0     C 7251   7.013   8.019   1.507 -0.1382  0.0257 -0.7001
  778MOL0     C 7252   7.144   8.066   1.506 -0.2160  0.5171 -0.2421
  778MOL0     C 7253   7.201   8.121   1.625 -0.2676  0.5817 -1.2438
  778MOL0     C 7254   7.349   8.116   1.625 -0.2266 -0.2940 -1.0347
  778MOL0     C 7255   7.117   8.163   1.731 -0.0981 -0.1953  0.1141
  778MOL0     C 7256   7.160   8.213   1.866  0.0855  0.0960 -0.1362
  778MOL0     O 7257   7.058   8.238   1.956 -0.7373  0.0615 -0.0311
  778MOL0     C 7258   7.077   8.281   2.085  0.2887  0.7116 -0.1813
  778MOL0     C 7259   6.979   8.356   2.149  0.0779 -0.0445 -0.1913
  778MOL0     C 7260   6.990   8.381   2.291  0.1792 -0.1008 -0.0925
  778MOL0     C 7261   7.100   8.339   2.366  0.3123 -0.0769  0.0011
  778MOL0     O 7262   7.111   8.343   2.502  0.3014  0.3903  0.1724
  778MOL0     C 7263   6.999   8.378   2.580 -0.3213 -0.3388 -1.1515
  778MOL0     C 7264   7.041   8.393   2.729 -0.7108  0.8267 -0.7830
  778MOL0     C 7265   6.945   8.443   2.834 -0.8416  0.4292 -0.2491
  778MOL0     C 7266   6.982   8.421   2.986  0.5555 -0.3291 -1.0902
  778MOL0     C 7267   6.861   8.464   3.080  0.3252  0.5823  1.1266
  778MOL0     C 7268   6.884   8.402   3.224  0.2208  0.3375  0.2287
  778MOL0     C 7269   6.846   8.255   3.232 -0.3304 -0.3346  0.1367
  778MOL0     C 7270   6.848   8.206   3.370 -0.3197  0.0733 -0.6517
  778MOL0    Cl 7271   6.805   8.027   3.367  0.0889 -0.3628 -0.2355
  778MOL0     C 7272   7.198   8.249   2.296  0.6650 -0.1008 -0.2952
  778MOL0     C 7273   7.186   8.235   2.158  0.1049  0.1600  0.0273
  778MOL0     O 7274   7.279   8.233   1.879 -0.1955  0.3283 -0.1182
  778MOL0     C 7275   6.980   8.137   1.723  1.0002 -0.6051 -0.3766
  778MOL0     C 7276   6.932   8.064   1.613  0.1347 -0.7023  0.2232
  778MOL0     N 7277   6.970   7.435   1.547 -0.1787 -0.4218 -0.0042
  778MOL0     N 7278   6.891   7.341   1.576  0.2969 -0.5628  0.4928
  778MOL0     C 7279   5.938   6.426   1.540 -0.3968 -0.4954  0.3454
  778MOL0     C 7280   5.847   6.373   1.632 -0.1010  0.2888 -1.8109
  778MOL0     C 7281   5.733   6.096   1.974 -0.5435  0.3132 -0.7822
  778MOL0     C 7282   5.756   6.140   2.107  0.6097 -0.2779  0.1875
  778MOL0     C 7283   5.681   6.091   2.210  0.3383  0.7161 -0.2914
  778MOL0     C 7284   5.589   5.989   2.194  0.3355 -0.0215  0.4725
  778MOL0     O 7285   5.518   5.931   2.294  0.1910  0.0362 -0.4465
  778MOL0     C 7286   5.572   5.919   2.429  0.7036  0.0825  0.3408
  778MOL0     C 7287   5.478   5.833   2.508 -0.2623 -0.0464 -0.4457
  778MOL0     C 7288   5.392   5.904   2.623  0.5299 -0.5444 -0.0102
  778MOL0     C 7289   5.257   5.963   2.582  0.4197  0.0639  0.2658
  778MOL0     C 7290   5.199   6.039   2.688  0.1161 -0.4431 -0.3570
  778MOL0     C 7291   5.154   6.122   2.765  0.0770 -0.1879  0.2384
  778MOL0     C 7292   5.553   5.963   2.061 -0.0806  0.2548 -0.1804
  778MOL0     C 7293   5.625   6.007   1.949 -0.4512 -0.1006 -0.1200
  778MOL0     C 7294   5.597   5.959   1.808  0.8729  1.1841 -0.4182
  778MOL0     H 7295   6.045   6.394   1.906 -2.0816  0.1345  0.2841
  778MOL0     H 7296   6.209   6.492   1.736 -1.0794  0.7926  0.7381
  778MOL0     H 7297   6.335   6.530   1.555 -2.2397 -1.0008  3.1455
  778MOL0     H 7298   6.235   6.670   1.586  0.9136 -0.0800 -1.2370
  778MOL0     H 7299   6.352   6.585   1.316 -1.7108 -0.0040 -0.4141
  778MOL0     H 7300   6.227   6.699   1.321  0.2584  2.1875  0.3855
  778MOL0     H 7301   6.515   6.734   1.345  0.0299  0.4845 -1.5487
  778MOL0     H 7302   6.401   6.837   1.290  0.4261 -0.4157 -0.3093
  778MOL0     H 7303   6.357   6.937   1.502 -1.9748 -2.1708  4.1609
  778MOL0     H 7304   6.427   6.810   1.595 -0.2264 -1.1445  0.1404
  778MOL0     H 7305   6.646   6.865   1.466 -1.8080 -1.4578 -0.5312
  778MOL0     H 7306   6.591   6.994   1.582  1.4634 -1.2671  0.0412
  778MOL0     H 7307   6.607   7.013   1.278 -0.1914  3.0975 -0.9400
  778MOL0     H 7308   6.490   7.097   1.375  0.4985 -0.8181 -0.7517
  778MOL0     H 7309   6.716   7.197   1.311  0.9561 -0.4046  0.0151
  778MOL0     H 7310   6.792   7.091   1.434  1.2447  2.8569 -0.3741
  778MOL0     H 7311   6.571   7.285   1.499 -0.1520 -2.5275 -1.8453
  778MOL0     H 7312   6.672   7.212   1.616 -3.6949 -1.2898 -0.0450
  778MOL0     H 7313   6.680   7.510   1.400 -1.2853 -3.4411 -0.7700
  778MOL0     H 7314   6.980   7.710   1.522  3.2020 -1.5944 -0.1426
  778MOL0     H 7315   6.860   7.724   1.388  1.8811  3.2569  1.9859
  778MOL0     H 7316   7.129   7.605   1.356  0.7322  1.9666  1.9283
  778MOL0     H 7317   7.016   7.644   1.216  0.7471  0.7205 -0.7799
  778MOL0     H 7318   7.189   7.812   1.385  0.9807 -4.1981  1.5271
  778MOL0     H 7319   7.174   7.798   1.205 -0.5604  3.8374  0.9200
  778MOL0     H 7320   7.073   8.000   1.245 -0.2604 -1.7353 -1.5645
  778MOL0     H 7321   6.948   7.887   1.211  0.0779  0.5298 -0.7417
  778MOL0     H 7322   7.204   8.048   1.417 -0.6685  2.4488 -0.9993
  778MOL0     H 7323   7.381   8.213   1.663 -3.7234 -0.6951  3.9443
  778MOL0     H 7324   7.397   8.103   1.528 -0.2147  3.3224 -1.6155
  778MOL0     H 7325   7.383   8.038   1.694 -0.3015  0.7632  0.2289
  778MOL0     H 7326   6.894   8.388   2.089  0.0831 -3.1138 -2.0600
  778MOL0     H 7327   6.917   8.445   2.340 -0.0541  1.1542 -1.9637
  778MOL0     H 7328   6.973   8.478   2.547  1.1942  1.0944  1.6343
  778MOL0     H 7329   6.917   8.309   2.559  0.0479 -0.3871 -2.5495
  778MOL0     H 7330   7.071   8.297   2.774 -3.4332  0.3446  0.2139
  778MOL0     H 7331   7.135   8.449   2.737 -0.5464  0.2924  2.4850
  778MOL0     H 7332   6.847   8.398   2.816 -0.9024  1.5538 -3.3325
  778MOL0     H 7333   6.937   8.552   2.827 -0.9200  0.4503  0.1730
  778MOL0     H 7334   7.072   8.474   3.018  0.3102 -1.5314  1.8893
  778MOL0     H 7335   7.003   8.314   2.995 -1.1183 -0.8637 -2.8166
  778MOL0     H 7336   6.867   8.572   3.092 -0.1311  0.7163  0.2695
  778MOL0     H 7337   6.765   8.442   3.032  0.3721  0.5695  1.0391
  778MOL0     H 7338   6.807   8.444   3.290  1.1643 -0.5235  1.9664
  778MOL0     H 7339   6.980   8.422   3.274 -0.9299 -0.2968  2.9013
  778MOL0     H 7340   6.924   8.212   3.168  1.0771  4.0255 -1.3818
  778MOL0     H 7341   6.751   8.222   3.190  0.3709 -2.4832  0.0778
  778MOL0     H 7342   6.780   8.258   3.438  2.6708  5.1508 -1.0986
  778MOL0     H 7343   6.946   8.223   3.414  1.9632 -3.6200 -3.6753
  778MOL0     H 7344   7.282   8.196   2.339  3.5749  3.5529 -0.9401
  778MOL0     H 7345   7.262   8.181   2.101 -0.5706 -2.8594  1.7730
  778MOL0     H 7346   6.910   8.176   1.797 -0.1992 -2.1262 -0.6460
  778MOL0     H 7347   6.825   8.073   1.600  0.4788  2.7639 -1.4708
  778MOL0     H 7348   5.912   6.415   1.435  0.7602 -1.9252  0.1851
  778MOL0     H 7349   5.744   6.346   1.607 -1.0097  4.2375 -3.0182
  778MOL0     H 7350   5.834   6.209   2.138  0.9553  0.0702 -1.3856
  778MOL0     H 7351   5.684   6.143   2.305 -1.8209  0.0630  0.1738
  778MOL0     H 7352   5.670   5.871   2.424  1.0476  0.7079  0.8766
  778MOL0     H 7353   5.578   6.017   2.477 -1.2294  0.8039 -0.7897
  778MOL0     H 7354   5.538   5.757   2.560  0.2447  1.8724  1.9500
  778MOL0     H 7355   5.410   5.777   2.444  1.5747 -3.1119  0.0320
  778MOL0     H 7356   5.368   5.829   2.699 -3.1414  2.4685  2.1356
  778MOL0     H 7357   5.447   5.986   2.670 -1.5966  0.7371  0.3448
  778MOL0     H 7358   5.186   5.882   2.561  1.1700 -0.6920  0.5371
  778MOL0     H 7359   5.262   6.021   2.490  0.6201 -2.0323 -1.1209
  778MOL0     H 7360   5.106   6.191   2.833  0.2581  1.5395 -1.3065
  778MOL0     H 7361   5.461   5.909   2.041  0.3119  0.3714 -2.5675
  778MOL0     H 7362   5.492   5.934   1.793  0.9886  0.8639 -0.7058
  778MOL0     H 7363   5.632   6.030   1.733 -0.8827  0.9549 -1.5053
  778MOL0     H 7364   5.649   5.863   1.801 -0.8548  0.2897 -1.6893
  779MOL0     O 7365   1.429   0.689   0.451 -0.0256  0.3672 -0.4222
  779MOL0     C 7366   1.349   0.746   0.386 -0.7962 -0.1297 -0.2561
  779MOL0     O 7367   1.230   0.712   0.347  0.5130 -0.7112 -0.0338
  779MOL0     C 7368   1.217   0.584   0.301 -0.3735 -0.1254 -0.5414
  779MOL0     C 7369   1.277   0.550   0.178  0.0719  0.3496 -0.8291
  779MOL0     C 7370   1.258   0.424   0.120 -0.3573 -1.1730  0.3278
  779MOL0     C 7371   1.173   0.340   0.188 -0.1422  0.2957  0.0898
  779MOL0     O 7372   1.157   0.215   0.121 -0.2106  0.6454 -0.5267
  779MOL0     C 7373   1.027   0.156   0.133  1.0837 -0.1652 -0.2476
  779MOL0     C 7374   1.003   0.055   0.027  0.1981 -0.1927 -0.3573
  779MOL0     C 7375   0.864  -0.002   0.035 -0.3583 -0.1294 -1.1837
  779MOL0     C 7376   0.797  -0.059   0.161 -0.5054  0.1586  0.0752
  779MOL0     C 7377   0.659  -0.116   0.128  0.4542  0.6024 -1.2646
  779MOL0     C 7378   0.603  -0.198   0.253  1.4566  0.7456  0.3624
  779MOL0     C 7379   0.588  -0.105   0.376 -0.1896 -0.5588  0.1461
  779MOL0     C 7380   0.538  -0.162   0.502 -0.8983 -0.6402  0.1734
  779MOL0     N 7381   0.623  -0.258   0.575  0.3415  0.2505  0.5160
  779MOL0     C 7382   0.613  -0.271   0.709 -0.4776  0.3335 -0.5780
  779MOL0     C 7383   0.677  -0.386   0.737  0.7363 -0.0679 -0.2990
  779MOL0     C 7384   0.671  -0.459   0.873 -0.8209  0.6185 -0.5570
  779MOL0     C 7385   0.776  -0.392   0.958  0.2044  1.2266  0.5388
  779MOL0     C 7386   0.781  -0.454   1.090 -0.1938  0.7889  0.0820
  779MOL0     C 7387   0.854  -0.384   1.201 -0.1037 -0.0803 -0.1610
  779MOL0     O 7388   0.767  -0.265   1.226  0.0947 -0.5473 -0.2669
  779MOL0     C 7389   0.670  -0.270   1.331  0.4083  0.4514  0.6945
  779MOL0     C 7390   0.656  -0.150   1.393  0.4107 -0.1297 -0.1495
  779MOL0     C 7391   0.566  -0.131   1.499 -0.8772  0.2346  0.2663
  779MOL0     C 7392   0.535   0.013   1.539 -0.6132  0.0104  0.3124
  779MOL0     C 7393   0.498  -0.242   1.552 -0.0156 -0.3906 -0.2805
  779MOL0     C 7394   0.392  -0.241   1.659  0.8855  0.1375 -0.3659
  779MOL0     O 7395   0.318  -0.127   1.673 -0.3440 -0.0837 -0.0111
  779MOL0     C 7396   0.231  -0.126   1.784  0.2167 -0.3007 -0.0156
  779MOL0     C 7397   0.101  -0.075   1.765 -0.0544  0.1043 -0.0324
  779MOL0     C 7398   0.004  -0.066   1.865  0.7070 -1.0524 -0.3482
  779MOL0     C 7399   0.043  -0.097   2.000  0.1580 -0.0404 -0.3889
  779MOL0     O 7400  -0.067  -0.082   2.083  0.4879  0.3159 -0.3490
  779MOL0     C 7401  -0.039  -0.055   2.218  0.1907  0.0756 -0.8409
  779MOL0     C 7402   0.004   0.099   2.243  0.5013  0.3466  0.1792
  779MOL0     C 7403   0.021   0.135   2.389  0.6536 -0.7543 -0.2628
  779MOL0     C 7404  -0.101   0.119   2.477 -0.7672 -0.7466 -0.0481
  779MOL0     C 7405  -0.218   0.224   2.443 -0.1507  0.1576  0.1543
  779MOL0     C 7406  -0.191   0.336   2.543  0.1675  0.0276 -0.5564
  779MOL0     C 7407  -0.296   0.438   2.530  0.0442 -0.8401 -0.5061
  779MOL0     C 7408  -0.289   0.547   2.632  0.5908 -0.1135 -0.2255
  779MOL0    Cl 7409  -0.366   0.696   2.576 -0.2131 -0.6067  0.2600
  779MOL0     C 7410   0.179  -0.131   2.026  0.1471  1.1759 -0.3395
  779MOL0     C 7411   0.264  -0.143   1.918  0.1145  1.4826  0.1042
  779MOL0     O 7412   0.373  -0.347   1.719 -0.1372 -1.4327 -0.2095
  779MOL0     C 7413   0.521  -0.367   1.488  0.5649  0.1109  0.4421
  779MOL0     C 7414   0.599  -0.378   1.374 -0.5651 -0.1242 -0.4393
  779MOL0     N 7415   0.727  -0.442   0.624  0.1918 -0.4447 -0.0215
  779MOL0     N 7416   0.688  -0.369   0.523  0.2386  0.3570 -0.1450
  779MOL0     C 7417   1.104   0.374   0.311 -0.4466  0.2055 -0.1930
  779MOL0     C 7418   1.123   0.500   0.361 -0.4649 -1.2499 -0.2568
  779MOL0     C 7419   1.373   0.893   0.377 -1.6419 -0.5308  1.0230
  779MOL0     C 7420   1.388   0.956   0.503 -0.5611 -0.0813 -0.1699
  779MOL0     C 7421   1.406   1.088   0.506  0.6600 -0.1653  0.5039
  779MOL0     C 7422   1.411   1.166   0.388 -0.7648 -0.8777  0.2265
  779MOL0     O 7423   1.432   1.306   0.400  0.4038  0.0590 -0.5561
  779MOL0     C 7424   1.361   1.396   0.302 -0.6117 -0.1656  0.2181
  779MOL0     C 7425   1.373   1.536   0.361  0.7191  0.9822 -0.1521
  779MOL0     C 7426   1.282   1.635   0.278 -0.3615  0.9744 -0.0569
  779MOL0     C 7427   1.174   1.702   0.347 -0.3078 -0.1800 -0.7081
  779MOL0     C 7428   1.071   1.604   0.383 -0.3519 -0.0430  0.0588
  779MOL0     C 7429   0.984   1.534   0.430  0.4175  0.3587 -0.7093
  779MOL0     C 7430   1.375   1.106   0.268 -0.8664 -0.0714  0.1288
  779MOL0     C 7431   1.353   0.973   0.259 -0.7722 -0.4359 -0.6289
  779MOL0     C 7432   1.316   0.915   0.134  1.1342 -0.1736  0.2515
  779MOL0     H 7433   1.329   0.622   0.116  2.3384  0.2689  0.8403
  779MOL0     H 7434   1.300   0.395   0.024 -0.3164  0.4801 -0.1984
  779MOL0     H 7435   0.950   0.233   0.123  0.5312 -0.7384 -0.3696
  779MOL0     H 7436   1.023   0.108   0.231 -1.9346  2.1275  0.8868
  779MOL0     H 7437   1.030   0.092  -0.072  1.2188 -1.5602 -0.6304
  779MOL0     H 7438   1.070  -0.030   0.045  0.4054  0.2128  0.8905
  779MOL0     H 7439   0.793   0.080   0.024 -1.7316 -0.7385  2.0257
  779MOL0     H 7440   0.851  -0.068  -0.051  3.0654  1.3592 -3.0283
  779MOL0     H 7441   0.867  -0.127   0.211  0.5935  2.4720  1.8863
  779MOL0     H 7442   0.786   0.028   0.227 -0.4308  1.0707 -1.0841
  779MOL0     H 7443   0.646  -0.182   0.042 -1.7055 -1.0842  0.2678
  779MOL0     H 7444   0.589  -0.036   0.101  0.2538  0.8761  0.0193
  779MOL0     H 7445   0.508  -0.242   0.224  1.8429  1.8755 -3.0858
  779MOL0     H 7446   0.669  -0.281   0.281 -2.2305 -2.1782  1.0754
  779MOL0     H 7447   0.522  -0.025   0.338  0.6522 -0.3980 -1.0535
  779MOL0     H 7448   0.689  -0.069   0.398 -1.0850  0.9734  1.9964
  779MOL0     H 7449   0.514  -0.087   0.577  3.3888 -0.2499  1.3892
  779MOL0     H 7450   0.447  -0.218   0.477 -0.5519 -1.3056  0.3821
  779MOL0     H 7451   0.542  -0.216   0.771 -0.3358 -3.7364  3.8086
  779MOL0     H 7452   0.691  -0.566   0.868  0.2697  0.7162  0.9440
  779MOL0     H 7453   0.566  -0.449   0.904 -0.9300  0.4624 -0.8662
  779MOL0     H 7454   0.878  -0.399   0.920  0.8178  0.4084  2.2143
  779MOL0     H 7455   0.750  -0.286   0.965  0.3323  1.2274  1.0476
  779MOL0     H 7456   0.676  -0.475   1.111 -0.7282  1.8878 -1.3305
  779MOL0     H 7457   0.827  -0.552   1.074 -2.9871 -0.7120  0.5972
  779MOL0     H 7458   0.850  -0.452   1.287  2.2902  1.4583  1.2760
  779MOL0     H 7459   0.957  -0.358   1.174 -0.4200 -0.8482 -2.2531
  779MOL0     H 7460   0.698  -0.063   1.344  0.5462  0.8513  1.6005
  779MOL0     H 7461   0.455   0.050   1.475 -1.9195 -0.0692  1.8248
  779MOL0     H 7462   0.622   0.077   1.525 -0.8601  0.5947  1.3229
  779MOL0     H 7463   0.511   0.017   1.646  3.2041 -0.7870  1.3508
  779MOL0     H 7464   0.074  -0.042   1.665 -2.1470  1.1092  0.8096
  779MOL0     H 7465  -0.090  -0.017   1.840  1.6955  1.7336  0.9442
  779MOL0     H 7466  -0.123  -0.083   2.281  0.7824  0.2328  0.0418
  779MOL0     H 7467   0.044  -0.115   2.257  0.4219  1.9573  1.8170
  779MOL0     H 7468   0.093   0.120   2.184  1.8215  2.3733  2.6851
  779MOL0     H 7469  -0.068   0.166   2.194 -1.7982 -1.8954  0.2782
  779MOL0     H 7470   0.063   0.235   2.371 -0.8294 -0.1254 -0.3689
  779MOL0     H 7471   0.113   0.095   2.432  2.0600  0.8150 -1.6270
  779MOL0     H 7472  -0.072   0.131   2.581 -2.8062  0.4343  0.4359
  779MOL0     H 7473  -0.132   0.014   2.472 -0.7099 -0.8310  1.1168
  779MOL0     H 7474  -0.232   0.270   2.345 -0.9992  0.4890  0.4279
  779MOL0     H 7475  -0.311   0.183   2.483  0.2993  1.0007  2.1730
  779MOL0     H 7476  -0.104   0.398   2.517 -2.3130  3.7989 -0.6230
  779MOL0     H 7477  -0.193   0.305   2.647  0.0333 -1.9766 -1.1107
  779MOL0     H 7478  -0.393   0.394   2.503  1.8710 -4.5504 -1.7300
  779MOL0     H 7479  -0.273   0.500   2.443  0.5607  0.3962  0.4976
  779MOL0     H 7480  -0.189   0.577   2.666  0.8115 -1.7303  0.6744
  779MOL0     H 7481  -0.338   0.508   2.721  2.2083 -5.0508 -1.1561
  779MOL0     H 7482   0.219  -0.134   2.127 -0.0956  1.0515 -0.2457
  779MOL0     H 7483   0.368  -0.168   1.940 -0.0949 -3.5042 -2.9964
  779MOL0     H 7484   0.484  -0.462   1.525 -1.3469  0.5731 -0.1583
  779MOL0     H 7485   0.603  -0.474   1.324  1.0495  1.4614 -3.6489
  779MOL0     H 7486   1.033   0.297   0.339  0.6687 -0.9771 -0.5455
  779MOL0     H 7487   1.070   0.526   0.452  0.3164 -0.4770 -0.0026
  779MOL0     H 7488   1.367   0.902   0.595 -0.5350 -0.6217 -0.4781
  779MOL0     H 7489   1.421   1.140   0.600 -0.2928  0.4156  0.3499
  779MOL0     H 7490   1.405   1.397   0.202  1.1046  0.1771  0.9423
  779MOL0     H 7491   1.257   1.362   0.297 -0.5707 -0.7775  2.4851
  779MOL0     H 7492   1.478   1.567   0.372  1.0091 -0.2000  0.6385
  779MOL0     H 7493   1.329   1.536   0.461  0.2267  2.8842 -0.3204
  779MOL0     H 7494   1.334   1.728   0.251  0.5430  0.9829  1.5536
  779MOL0     H 7495   1.243   1.594   0.185  1.1020  0.0042 -0.2732
  779MOL0     H 7496   1.126   1.783   0.292  1.1009  0.7157 -0.6675
  779MOL0     H 7497   1.208   1.758   0.434  2.5977 -0.4304 -1.5926
  779MOL0     H 7498   0.916   1.468   0.480  1.0936  1.7691  2.2460
  779MOL0     H 7499   1.363   1.163   0.176 -0.6034  1.1208  0.8059
  779MOL0     H 7500   1.228   0.851   0.133  1.2952 -0.4409 -1.5273
  779MOL0     H 7501   1.291   0.996   0.064 -0.9983  0.4476  1.6527
  779MOL0     H 7502   1.403   0.865   0.090  0.3533 -1.9494  0.6775
  780MOL0     O 7503   0.544   6.744   0.738  0.3572 -0.8127 -0.0516
  780MOL0     C 7504   0.660   6.720   0.782 -0.0032 -0.5892  0.0388
  780MOL0     O 7505   0.778   6.730   0.704 -0.3317  0.1019 -0.5474
  780MOL0     C 7506   0.767   6.769   0.575  0.2416  0.6787 -0.1068
  780MOL0     C 7507   0.709   6.885   0.529 -0.4830  0.3466 -0.3774
  780MOL0     C 7508   0.711   6.913   0.388  0.1751  0.8265 -0.7867
  780MOL0     C 7509   0.785   6.831   0.297 -0.0742  0.2340  0.3299
  780MOL0     O 7510   0.804   6.843   0.157  0.1052 -0.0221 -0.1501
  780MOL0     C 7511   0.710   6.936   0.109  0.8223 -0.1226 -0.7332
  780MOL0     C 7512   0.721   6.946  -0.048  0.8605  0.5071 -0.4000
  780MOL0     C 7513   0.812   7.063  -0.089  0.4913 -0.0954  0.1348
  780MOL0     C 7514   0.960   7.027  -0.068  0.3882  0.0901  0.1140
  780MOL0     C 7515   1.055   7.138  -0.030 -0.0490 -0.4182  0.0517
  780MOL0     C 7516   1.050   7.262  -0.126  0.6864  1.5689  1.9950
  780MOL0     C 7517   1.164   7.350  -0.082 -0.7022  0.5894  0.1808
  780MOL0     C 7518   1.121   7.451   0.022  0.5053 -0.1539  0.0113
  780MOL0     N 7519   1.214   7.559   0.044  0.0431 -0.3424  0.7892
  780MOL0     C 7520   1.223   7.667  -0.050  0.4639 -0.2751 -0.3231
  780MOL0     C 7521   1.298   7.759   0.012  0.3817  1.4143 -0.3302
  780MOL0     C 7522   1.321   7.887  -0.061 -0.9214 -0.2831 -0.8540
  780MOL0     C 7523   1.197   7.976  -0.086 -0.2194 -0.6953 -0.5705
  780MOL0     C 7524   1.160   7.976  -0.240 -0.2936 -0.5530  0.3560
  780MOL0     C 7525   1.263   8.058  -0.316 -0.2599 -0.1371 -0.5528
  780MOL0     O 7526   1.256   8.190  -0.263 -0.3186  1.4327 -0.8235
  780MOL0     C 7527   1.320   8.290  -0.331  0.1687 -0.1528 -0.1189
  780MOL0     C 7528   1.432   8.266  -0.405  0.1573 -0.9634 -0.1057
  780MOL0     C 7529   1.496   8.367  -0.481  0.1397  0.7546 -0.2103
  780MOL0     C 7530   1.626   8.319  -0.548  0.1620  0.0875  0.2595
  780MOL0     C 7531   1.452   8.501  -0.468 -0.3729 -0.6901  0.0660
  780MOL0     C 7532   1.523   8.628  -0.522  0.1093  0.3249  0.5178
  780MOL0     O 7533   1.443   8.749  -0.513 -0.2280 -0.2647 -0.3034
  780MOL0     C 7534   1.521   8.855  -0.550 -0.1686 -0.4669 -0.4225
  780MOL0     C 7535   1.601   8.929  -0.466 -0.7416  0.2906 -0.5216
  780MOL0     C 7536   1.672   9.034  -0.518  0.7898 -0.3334  0.3211
  780MOL0     C 7537   1.656   9.081  -0.644 -0.2272  0.4238  0.2826
  780MOL0     O 7538   1.731   9.186  -0.680 -0.0427 -0.2507  0.5947
  780MOL0     C 7539   1.763   9.218  -0.816 -0.9356 -0.2066  0.2404
  780MOL0     C 7540   1.673   9.322  -0.888 -0.2796  0.3259 -0.2851
  780MOL0     C 7541   1.660   9.460  -0.835 -0.7431 -0.4718 -0.1028
  780MOL0     C 7542   1.524   9.530  -0.864 -0.7226  0.5990  0.2755
  780MOL0     C 7543   1.483   9.552  -1.015 -0.1933 -0.5331  0.4300
  780MOL0     C 7544   1.575   9.655  -1.080 -0.4723 -0.0996  0.0513
  780MOL0     C 7545   1.537   9.686  -1.224 -0.2708 -0.2609 -0.3981
  780MOL0     C 7546   1.592   9.818  -1.280  0.0419  0.5636  0.4013
  780MOL0    Cl 7547   1.781   9.811  -1.294 -0.2921 -0.1969 -0.3928
  780MOL0     C 7548   1.585   9.004  -0.732  0.8866  0.0226  0.7561
  780MOL0     C 7549   1.527   8.890  -0.691 -0.5428 -0.1789 -0.5089
  780MOL0     O 7550   1.642   8.620  -0.546  0.5754 -0.2269 -0.1672
  780MOL0     C 7551   1.337   8.523  -0.392 -0.2146 -0.1395  0.0643
  780MOL0     C 7552   1.268   8.418  -0.330  0.8767 -0.5409  0.2693
  780MOL0     N 7553   1.348   7.702   0.124 -0.2125 -0.8128 -0.0880
  780MOL0     N 7554   1.295   7.584   0.149 -0.8784  0.0583 -0.8472
  780MOL0     C 7555   0.846   6.722   0.350 -0.3140 -0.0249 -1.0373
  780MOL0     C 7556   0.834   6.682   0.486  0.6631  0.2346  0.0522
  780MOL0     C 7557   0.675   6.659   0.918 -1.0594 -0.0707 -0.0200
  780MOL0     C 7558   0.738   6.728   1.022  0.5100  0.9032  0.4767
  780MOL0     C 7559   0.744   6.668   1.150 -0.2975 -0.3789 -0.0832
  780MOL0     C 7560   0.721   6.533   1.170 -0.0410 -0.3435  0.8001
  780MOL0     O 7561   0.770   6.476   1.280 -0.1483  0.4485 -0.4630
  780MOL0     C 7562   0.731   6.344   1.330 -0.0821 -0.0669  0.5716
  780MOL0     C 7563   0.699   6.365   1.481 -0.6678  0.1337  0.3433
  780MOL0     C 7564   0.665   6.228   1.525  0.4354 -0.2454  0.2092
  780MOL0     C 7565   0.653   6.224   1.677 -0.2449  0.8477 -0.5852
  780MOL0     C 7566   0.525   6.274   1.726  0.8702 -0.2812 -0.5781
  780MOL0     C 7567   0.415   6.319   1.748  0.6160  0.8094 -0.7743
  780MOL0     C 7568   0.663   6.463   1.064 -0.8668 -0.2358  0.0251
  780MOL0     C 7569   0.624   6.533   0.942 -0.4016 -0.7247 -0.6426
  780MOL0     C 7570   0.548   6.459   0.837 -0.4701  0.9756  0.0462
  780MOL0     H 7571   0.657   6.949   0.600 -0.0073 -1.0909  1.3549
  780MOL0     H 7572   0.650   6.999   0.365 -1.1514 -0.0592 -0.7076
  780MOL0     H 7573   0.732   7.040   0.135  1.5497 -0.4516  0.0275
  780MOL0     H 7574   0.612   6.903   0.146  1.6393 -1.8617  0.0215
  780MOL0     H 7575   0.736   6.853  -0.103 -1.1029 -0.0099 -0.1412
  780MOL0     H 7576   0.623   6.971  -0.090 -0.5115 -4.5791 -0.8059
  780MOL0     H 7577   0.813   7.091  -0.195 -0.9134  1.0827  0.3974
  780MOL0     H 7578   0.783   7.152  -0.033 -0.4416 -0.3333  0.0475
  780MOL0     H 7579   0.954   6.943   0.001 -2.7844 -0.7141 -0.9676
  780MOL0     H 7580   0.995   6.975  -0.157  3.7287  3.0012 -0.5220
  780MOL0     H 7581   1.160   7.109  -0.024 -0.0417 -0.6181 -0.8973
  780MOL0     H 7582   1.015   7.169   0.068  5.1940 -1.3705  2.8649
  780MOL0     H 7583   1.074   7.223  -0.225 -1.3043  1.8800  1.3323
  780MOL0     H 7584   0.958   7.319  -0.143  1.6156  2.4410 -0.3594
  780MOL0     H 7585   1.192   7.410  -0.169 -0.3265 -1.1225 -0.9088
  780MOL0     H 7586   1.258   7.299  -0.058 -1.6043 -1.4089 -0.3571
  780MOL0     H 7587   1.019   7.485  -0.000  0.7954  0.3199 -0.6088
  780MOL0     H 7588   1.114   7.398   0.118  2.0765 -2.0008 -0.8426
  780MOL0     H 7589   1.177   7.679  -0.147  1.2072  1.9776 -0.4418
  780MOL0     H 7590   1.360   7.861  -0.160  0.7115 -0.1093 -0.2853
  780MOL0     H 7591   1.399   7.942  -0.007  1.8198 -2.6082 -2.2142
  780MOL0     H 7592   1.113   7.931  -0.032  0.4274 -1.5079 -0.2165
  780MOL0     H 7593   1.211   8.072  -0.036 -2.0135  0.9227 -2.9576
  780MOL0     H 7594   1.156   7.877  -0.284  1.1227 -0.3977 -0.1955
  780MOL0     H 7595   1.058   8.014  -0.254 -0.7817 -1.5784  1.0655
  780MOL0     H 7596   1.362   8.014  -0.300 -0.0868  1.0244  1.9845
  780MOL0     H 7597   1.237   8.078  -0.421 -0.8906  0.6821 -0.2452
  780MOL0     H 7598   1.472   8.166  -0.417 -1.0104 -1.1707 -3.3704
  780MOL0     H 7599   1.703   8.295  -0.473  1.9010 -3.2893 -2.2970
  780MOL0     H 7600   1.674   8.389  -0.616 -1.1897  1.2855  0.4914
  780MOL0     H 7601   1.600   8.228  -0.603  2.8052 -0.4858 -0.1777
  780MOL0     H 7602   1.601   8.917  -0.359  0.0467  0.5593 -0.4847
  780MOL0     H 7603   1.731   9.091  -0.447 -1.3758  3.3856 -0.5634
  780MOL0     H 7604   1.865   9.255  -0.803 -1.7047  1.4863  2.0366
  780MOL0     H 7605   1.778   9.124  -0.869  1.8435  0.1091  0.3441
  780MOL0     H 7606   1.710   9.335  -0.990 -0.7118  0.0879 -0.4722
  780MOL0     H 7607   1.575   9.275  -0.896  0.4178 -1.4657  0.9543
  780MOL0     H 7608   1.736   9.522  -0.882 -3.0549  2.7197  0.0629
  780MOL0     H 7609   1.673   9.459  -0.726 -0.6095  2.0056 -0.0380
  780MOL0     H 7610   1.521   9.624  -0.807 -0.5168  0.0580  1.1883
  780MOL0     H 7611   1.445   9.467  -0.825 -0.2721 -0.5345 -0.5954
  780MOL0     H 7612   1.486   9.459  -1.072  0.2384  0.2492 -0.8533
  780MOL0     H 7613   1.380   9.586  -1.013 -0.6312 -1.8338  1.2197
  780MOL0     H 7614   1.678   9.619  -1.083 -0.3461  0.2365  0.3581
  780MOL0     H 7615   1.571   9.748  -1.023 -0.7683 -1.8034  3.0567
  780MOL0     H 7616   1.428   9.688  -1.214 -0.1890  0.4284  0.4671
  780MOL0     H 7617   1.576   9.607  -1.289  2.1094  0.5617 -0.0908
  780MOL0     H 7618   1.563   9.905  -1.221  0.4420  1.1489 -0.2623
  780MOL0     H 7619   1.556   9.818  -1.383 -0.6910 -0.4177  0.6445
  780MOL0     H 7620   1.583   9.042  -0.834 -3.2432 -0.9360  0.2715
  780MOL0     H 7621   1.468   8.838  -0.765 -2.3533  2.4367 -1.0302
  780MOL0     H 7622   1.303   8.624  -0.372 -0.5539  0.0922 -1.5227
  780MOL0     H 7623   1.173   8.449  -0.286  1.4538  2.1972 -0.2531
  780MOL0     H 7624   0.903   6.668   0.275 -3.4812  1.4466 -4.8125
  780MOL0     H 7625   0.884   6.587   0.499 -0.1539 -0.3936 -1.2227
  780MOL0     H 7626   0.773   6.830   1.011  0.0294  1.3075  2.3381
  780MOL0     H 7627   0.789   6.719   1.234  0.6788 -0.0172 -0.8046
  780MOL0     H 7628   0.651   6.299   1.270  1.2659 -1.1269 -0.5079
  780MOL0     H 7629   0.817   6.277   1.318 -0.1620  0.1187 -1.3811
  780MOL0     H 7630   0.607   6.422   1.492 -2.8141 -2.8361 -0.7324
  780MOL0     H 7631   0.780   6.409   1.540  0.2611  0.8218 -1.3732
  780MOL0     H 7632   0.584   6.190   1.462  1.0811  1.7820 -1.9855
  780MOL0     H 7633   0.755   6.166   1.517  0.3869 -0.3678  0.5790
  780MOL0     H 7634   0.731   6.288   1.721 -0.1489  0.3009  0.0592
  780MOL0     H 7635   0.683   6.126   1.715  0.8657  0.7771 -1.6063
  780MOL0     H 7636   0.316   6.352   1.768  1.7806  2.4365  3.3451
  780MOL0     H 7637   0.640   6.357   1.068 -2.4923  0.0930  0.0105
  780MOL0     H 7638   0.600   6.474   0.742 -0.8914  2.0853 -0.0288
  780MOL0     H 7639   0.538   6.353   0.861 -1.3552  0.5765 -1.8791
  780MOL0     H 7640   0.447   6.502   0.828 -1.7199 -2.0139 -1.8595
  781MOL0     O 7641   0.968   0.538   5.478  0.3882 -0.4775 -0.1751
  781MOL0     C 7642   0.903   0.627   5.428 -0.0282  0.0280  0.2683
  781MOL0     O 7643   0.872   0.742   5.492 -0.2411  0.1009  1.1465
  781MOL0     C 7644   0.928   0.795   5.607  0.0188  0.3278 -0.3547
  781MOL0     C 7645   0.861   0.918   5.640 -0.5121 -1.0610 -1.1330
  781MOL0     C 7646   0.885   0.982   5.758 -0.4706 -0.2281  0.0505
  781MOL0     C 7647   0.980   0.940   5.859  0.2967 -0.5524  0.1192
  781MOL0     O 7648   0.996   1.019   5.970  0.2600 -0.3264  0.0587
  781MOL0     C 7649   1.132   1.020   6.012 -0.1721  0.6351  0.3332
  781MOL0     C 7650   1.143   1.110   6.133  1.0448 -0.5086 -0.0823
  781MOL0     C 7651   1.072   1.247   6.111  0.0552  0.3249  0.2017
  781MOL0     C 7652   1.135   1.356   6.179 -0.6509  0.6443 -0.7714
  781MOL0     C 7653   1.142   1.343   6.334 -0.3224 -0.2432  0.7646
  781MOL0     C 7654   1.010   1.339   6.414  0.6315  0.7127 -0.0307
  781MOL0     C 7655   1.028   1.308   6.568  0.3469 -0.0451  0.7742
  781MOL0     C 7656   0.983   1.415   6.670  0.5040  0.1042  0.7525
  781MOL0     N 7657   1.091   1.501   6.697 -0.6055  1.0678 -0.6546
  781MOL0     C 7658   1.108   1.624   6.639 -0.8580 -1.5295 -0.2864
  781MOL0     C 7659   1.199   1.696   6.715 -0.4171  0.3719  0.2020
  781MOL0     C 7660   1.262   1.826   6.662  0.7860  0.1921 -0.0134
  781MOL0     C 7661   1.398   1.795   6.615 -0.3053  0.4434  0.1773
  781MOL0     C 7662   1.410   1.699   6.494 -0.2139 -0.4805 -0.1467
  781MOL0     C 7663   1.543   1.678   6.428  0.0030 -0.9499 -0.5245
  781MOL0     O 7664   1.524   1.642   6.279 -0.5203 -0.2380 -0.4719
  781MOL0     C 7665   1.510   1.509   6.242  0.0583 -0.0522 -0.2340
  781MOL0     C 7666   1.495   1.384   6.313 -0.0626 -0.3531  0.1421
  781MOL0     C 7667   1.517   1.256   6.255 -0.4382 -0.2812  0.9002
  781MOL0     C 7668   1.521   1.131   6.339  0.2921  0.2298  0.4781
  781MOL0     C 7669   1.519   1.248   6.110 -0.0232 -1.1673  1.1226
  781MOL0     C 7670   1.525   1.123   6.017 -0.9735 -0.6617  0.2919
  781MOL0     O 7671   1.540   1.143   5.880  1.0474 -0.3463 -0.2494
  781MOL0     C 7672   1.552   1.024   5.816 -0.3329  0.5789  0.2373
  781MOL0     C 7673   1.443   0.946   5.773  1.5602 -0.3869 -0.4991
  781MOL0     C 7674   1.462   0.818   5.715 -0.1301 -1.2453 -0.6216
  781MOL0     C 7675   1.585   0.765   5.699 -1.1666  1.1779  0.2041
  781MOL0     O 7676   1.604   0.638   5.640 -0.0861 -0.1528 -0.0914
  781MOL0     C 7677   1.734   0.590   5.634  0.0860  0.8303  0.1746
  781MOL0     C 7678   1.733   0.482   5.522 -0.1346 -0.2671 -0.0466
  781MOL0     C 7679   1.881   0.473   5.464  0.1100  1.0778 -0.0204
  781MOL0     C 7680   1.883   0.390   5.333 -0.0670 -0.1129 -0.3160
  781MOL0     C 7681   2.020   0.322   5.306 -0.3322 -0.4305  0.2490
  781MOL0     C 7682   2.133   0.415   5.261 -0.4640  0.6952  0.3398
  781MOL0     C 7683   2.266   0.354   5.219  0.7031  0.2092  0.3533
  781MOL0     C 7684   2.375   0.460   5.194  0.0626 -0.1331  0.0604
  781MOL0    Cl 7685   2.327   0.550   5.045 -0.3246  0.1732 -0.1790
  781MOL0     C 7686   1.698   0.849   5.746 -0.0748  0.8952 -0.1045
  781MOL0     C 7687   1.675   0.973   5.805 -0.6657  0.7044 -0.1279
  781MOL0     O 7688   1.503   1.016   6.069 -0.0347 -0.6798 -0.5932
  781MOL0     C 7689   1.525   1.371   6.044  0.0680  0.3584  0.4114
  781MOL0     C 7690   1.520   1.492   6.104 -0.0446 -0.0723  0.4422
  781MOL0     N 7691   1.249   1.615   6.808 -0.4068  0.4867  0.5744
  781MOL0     N 7692   1.174   1.502   6.811  0.3848  0.0889  0.1598
  781MOL0     C 7693   1.049   0.827   5.818 -0.7956 -0.4775 -0.2178
  781MOL0     C 7694   1.026   0.751   5.702  1.0252 -0.4842  0.7527
  781MOL0     C 7695   0.835   0.615   5.296 -0.2528 -0.8420  0.8421
  781MOL0     C 7696   0.739   0.713   5.242  0.2110  0.5904 -0.2874
  781MOL0     C 7697   0.662   0.687   5.138 -0.6260  0.7209  1.0014
  781MOL0     C 7698   0.676   0.575   5.058  0.0498 -0.0497  0.5065
  781MOL0     O 7699   0.617   0.553   4.929 -0.5805 -0.1649  0.2331
  781MOL0     C 7700   0.525   0.654   4.885 -0.1427 -0.3541 -0.0266
  781MOL0     C 7701   0.382   0.632   4.936  0.4251 -0.4676  1.3723
  781MOL0     C 7702   0.315   0.506   4.892  0.0614  0.8246 -0.3771
  781MOL0     C 7703   0.192   0.471   4.964 -0.4784  0.1388 -0.7518
  781MOL0     C 7704   0.148   0.346   4.901 -0.8281  0.6857 -0.7017
  781MOL0     C 7705   0.127   0.238   4.841  0.4908 -0.3503  0.1679
  781MOL0     C 7706   0.786   0.496   5.093  0.3822  0.0152  0.4185
  781MOL0     C 7707   0.862   0.506   5.208  0.6813 -0.4160  0.4376
  781MOL0     C 7708   0.947   0.395   5.241  0.6656 -0.6453 -0.4301
  781MOL0     H 7709   0.798   0.970   5.568 -0.9659 -0.7392 -0.5147
  781MOL0     H 7710   0.823   1.071   5.770  0.5596  0.7580 -1.5219
  781MOL0     H 7711   1.200   1.065   5.939 -0.3865  0.1782 -0.1549
  781MOL0     H 7712   1.165   0.918   6.033  0.7418  0.7491 -0.4822
  781MOL0     H 7713   1.092   1.048   6.207 -1.5566 -1.0559 -2.1589
  781MOL0     H 7714   1.247   1.124   6.163  0.4392  0.2559  1.8274
  781MOL0     H 7715   1.058   1.266   6.004 -2.8884 -1.4168  0.1841
  781MOL0     H 7716   0.967   1.247   6.140  0.6606 -1.1149  2.6681
  781MOL0     H 7717   1.239   1.366   6.147 -0.8577  1.6323 -1.1818
  781MOL0     H 7718   1.095   1.455   6.155 -0.5903  0.4710 -1.6279
  781MOL0     H 7719   1.199   1.429   6.368  1.7281 -0.8802 -0.8585
  781MOL0     H 7720   1.200   1.259   6.372 -0.0349  0.7621  2.6706
  781MOL0     H 7721   0.959   1.436   6.413 -0.9756 -0.0801  0.4030
  781MOL0     H 7722   0.950   1.260   6.367  1.2958 -0.3361  0.8423
  781MOL0     H 7723   1.131   1.281   6.593  0.1617  1.3400  3.3882
  781MOL0     H 7724   0.970   1.217   6.582 -0.3795 -0.0994 -2.0036
  781MOL0     H 7725   0.890   1.463   6.636 -0.7565 -1.4281  1.8944
  781MOL0     H 7726   0.954   1.353   6.755 -0.4901 -1.0295 -0.3693
  781MOL0     H 7727   1.070   1.668   6.548  2.0327  0.3269 -0.7327
  781MOL0     H 7728   1.254   1.905   6.737  2.4602  0.8679 -0.5124
  781MOL0     H 7729   1.196   1.862   6.582  0.8615 -0.6939 -0.4898
  781MOL0     H 7730   1.451   1.886   6.584  0.3806  1.4710  3.9247
  781MOL0     H 7731   1.460   1.754   6.695 -3.0034 -2.6179  0.8663
  781MOL0     H 7732   1.381   1.599   6.527  0.0875 -0.4636  0.1801
  781MOL0     H 7733   1.337   1.722   6.416  0.7809 -3.3579 -2.0665
  781MOL0     H 7734   1.610   1.763   6.437  0.6858 -1.6566  1.8100
  781MOL0     H 7735   1.597   1.594   6.472 -2.0348 -3.5044 -2.5366
  781MOL0     H 7736   1.490   1.384   6.421  0.5989  0.8557  0.1932
  781MOL0     H 7737   1.595   1.063   6.294  0.1532  1.3775 -1.6214
  781MOL0     H 7738   1.431   1.075   6.312  0.7144 -0.2277 -0.0286
  781MOL0     H 7739   1.536   1.153   6.445  0.1796  1.5893  0.2384
  781MOL0     H 7740   1.340   0.982   5.771  1.0447 -1.7523  0.0696
  781MOL0     H 7741   1.379   0.753   5.689 -0.5392 -0.9830  0.0019
  781MOL0     H 7742   1.805   0.666   5.599  1.4415  0.4977  2.0217
  781MOL0     H 7743   1.776   0.546   5.725 -1.1281 -1.1898 -0.1809
  781MOL0     H 7744   1.711   0.379   5.554  2.0190 -0.7406  0.0246
  781MOL0     H 7745   1.662   0.519   5.447 -0.4432 -1.1831 -0.2278
  781MOL0     H 7746   1.946   0.431   5.542 -0.4235  2.0789  0.9934
  781MOL0     H 7747   1.923   0.573   5.449 -2.0758  2.4344  2.1409
  781MOL0     H 7748   1.835   0.436   5.246 -0.9063  1.2366  0.8306
  781MOL0     H 7749   1.827   0.298   5.354  1.5330 -0.8900  0.7640
  781MOL0     H 7750   2.047   0.272   5.400 -3.4618  2.6400  3.0655
  781MOL0     H 7751   2.012   0.255   5.220 -0.1571 -3.7391  2.6042
  781MOL0     H 7752   2.159   0.493   5.332 -0.4052  0.6206  0.4011
  781MOL0     H 7753   2.094   0.474   5.178 -1.7186 -1.4883 -0.7438
  781MOL0     H 7754   2.256   0.293   5.128 -0.5068  1.7085 -0.5774
  781MOL0     H 7755   2.311   0.295   5.299  1.9067 -0.0303 -0.4735
  781MOL0     H 7756   2.470   0.407   5.180 -0.7490 -2.2367  1.7617
  781MOL0     H 7757   2.382   0.520   5.286 -0.0043 -3.2160  2.2453
  781MOL0     H 7758   1.803   0.822   5.751 -0.3387 -0.7808 -2.1006
  781MOL0     H 7759   1.756   1.030   5.851 -0.1424 -0.9831  1.1412
  781MOL0     H 7760   1.535   1.369   5.935 -1.8951 -1.0354  0.2143
  781MOL0     H 7761   1.537   1.586   6.053 -0.4020  0.0899  0.6190
  781MOL0     H 7762   1.137   0.796   5.874 -2.9540 -1.4469  2.9541
  781MOL0     H 7763   1.093   0.667   5.682 -1.0994 -2.6731  2.2733
  781MOL0     H 7764   0.718   0.810   5.286 -0.0831 -0.2056  1.4149
  781MOL0     H 7765   0.584   0.760   5.116  0.3928  2.0010  1.4900
  781MOL0     H 7766   0.564   0.751   4.917 -1.6110 -0.8435  3.7899
  781MOL0     H 7767   0.524   0.658   4.776 -0.8995  2.7646  0.0079
  781MOL0     H 7768   0.320   0.712   4.893  0.0628 -1.3650  0.1929
  781MOL0     H 7769   0.384   0.650   5.044 -0.0190  0.3198  1.2582
  781MOL0     H 7770   0.294   0.522   4.786 -0.7981  0.3494 -0.2807
  781MOL0     H 7771   0.393   0.429   4.898  0.6816  1.5401  1.7126
  781MOL0     H 7772   0.131   0.559   4.943 -1.1097  0.2730  1.3862
  781MOL0     H 7773   0.222   0.458   5.069 -0.0829  1.5489 -0.6743
  781MOL0     H 7774   0.088   0.153   4.789 -3.8293  3.2407 -3.3022
  781MOL0     H 7775   0.814   0.420   5.021  0.7108  1.0817 -0.6174
  781MOL0     H 7776   0.925   0.365   5.344 -1.9935  2.1121 -0.0338
  781MOL0     H 7777   0.919   0.310   5.179  0.4539 -1.9911  1.4291
  781MOL0     H 7778   1.053   0.423   5.229 -0.0253  1.1960 -3.1230
  782MOL0     O 7779   6.321   1.924   7.497 -0.2957  0.2131 -0.2032
  782MOL0     C 7780   6.213   1.950   7.553 -0.4241  0.1991 -0.0914
  782MOL0     O 7781   6.177   1.906   7.679  0.0025 -0.7811  0.2003
  782MOL0     C 7782   6.279   1.851   7.754 -0.3340 -0.3499  0.7818
  782MOL0     C 7783   6.252   1.733   7.826 -0.3436 -0.5215 -1.1810
  782MOL0     C 7784   6.352   1.678   7.913  0.6152  0.0783 -0.0594
  782MOL0     C 7785   6.478   1.739   7.925 -0.0124 -0.6975 -0.3377
  782MOL0     O 7786   6.568   1.678   8.011 -0.0215 -0.1561 -0.0766
  782MOL0     C 7787   6.710   1.722   8.015  0.5929 -0.5292 -1.0025
  782MOL0     C 7788   6.772   1.649   8.135  0.1092 -0.0760  0.3375
  782MOL0     C 7789   6.705   1.687   8.259 -0.5373 -1.2632 -0.5453
  782MOL0     C 7790   6.790   1.622   8.384 -0.1923  0.6504  0.1514
  782MOL0     C 7791   6.705   1.635   8.517  0.6344 -0.4474 -0.8330
  782MOL0     C 7792   6.702   1.771   8.577 -0.1348 -1.7046 -1.1742
  782MOL0     C 7793   6.836   1.815   8.644 -0.0077  0.0764  0.5330
  782MOL0     C 7794   6.810   1.964   8.701  0.2041 -0.0959  0.1366
  782MOL0     N 7795   6.931   2.023   8.759  0.1734  0.4455 -0.6311
  782MOL0     C 7796   6.952   2.008   8.898  0.4901 -0.3499  0.3662
  782MOL0     C 7797   7.053   2.096   8.929  0.7268 -1.7112  0.4493
  782MOL0     C 7798   7.119   2.130   9.062 -0.8292  0.8674 -0.3356
  782MOL0     C 7799   7.056   2.241   9.145 -0.2442  0.6936 -0.5920
  782MOL0     C 7800   7.092   2.385   9.100  0.8847 -0.9962 -0.0596
  782MOL0     C 7801   7.001   2.484   9.176 -0.2749 -0.3640 -0.1983
  782MOL0     O 7802   6.865   2.467   9.151 -0.0989  0.3114  0.7435
  782MOL0     C 7803   6.761   2.537   9.212 -0.1417 -0.7585  0.2308
  782MOL0     C 7804   6.625   2.501   9.196  0.1678 -0.8974 -0.2496
  782MOL0     C 7805   6.520   2.581   9.245  0.3191  0.1627 -0.2096
  782MOL0     C 7806   6.379   2.528   9.222  1.0882  0.4750 -0.0912
  782MOL0     C 7807   6.552   2.709   9.301 -0.6666  0.4487 -0.1224
  782MOL0     C 7808   6.454   2.814   9.350 -0.2347 -0.3830  0.2976
  782MOL0     O 7809   6.510   2.938   9.382  0.2774  0.5104 -0.3937
  782MOL0     C 7810   6.436   3.027   9.460  0.1081  0.0130  0.2350
  782MOL0     C 7811   6.371   2.999   9.573 -0.3485  0.5181 -0.2619
  782MOL0     C 7812   6.293   3.094   9.643 -0.0233  0.7699  0.8183
  782MOL0     C 7813   6.297   3.225   9.598  0.5560  0.2275 -0.2861
  782MOL0     O 7814   6.228   3.318   9.678 -0.5670 -0.1856 -0.3963
  782MOL0     C 7815   6.232   3.456   9.635 -0.0116  0.3956  0.2562
  782MOL0     C 7816   6.171   3.542   9.744  0.1315  0.0133  0.2482
  782MOL0     C 7817   6.231   3.528   9.892 -0.2913  0.2423 -0.7614
  782MOL0     C 7818   6.140   3.599   9.994  0.0423 -0.8696 -0.2645
  782MOL0     C 7819   6.131   3.537  10.130 -0.7501 -0.0818  0.9345
  782MOL0     C 7820   6.001   3.440  10.129  0.4038 -0.2249 -0.8698
  782MOL0     C 7821   5.974   3.371  10.262 -0.0287 -0.2649 -0.0561
  782MOL0     C 7822   5.857   3.278  10.240 -0.6931  0.2647  0.1911
  782MOL0    Cl 7823   5.794   3.219  10.396  0.1054 -0.2058 -0.2287
  782MOL0     C 7824   6.368   3.258   9.478  0.2183 -0.3962  0.0443
  782MOL0     C 7825   6.442   3.163   9.414  0.4788 -0.5586 -0.6719
  782MOL0     O 7826   6.341   2.781   9.374  0.7351  0.2943  0.5588
  782MOL0     C 7827   6.689   2.739   9.308 -0.2249  0.0442  0.0287
  782MOL0     C 7828   6.800   2.654   9.281 -0.0503  0.4428 -0.1314
  782MOL0     N 7829   7.086   2.154   8.802 -0.4735  0.5141 -0.0720
  782MOL0     N 7830   7.024   2.109   8.699  0.0143 -0.6566 -0.0319
  782MOL0     C 7831   6.507   1.853   7.848 -0.5342  1.1219  0.4449
  782MOL0     C 7832   6.417   1.901   7.757  0.2038  0.5097  0.2015
  782MOL0     C 7833   6.125   2.039   7.486  1.1851 -0.8402 -0.8611
  782MOL0     C 7834   6.115   2.032   7.351  0.3222 -0.2200  0.8684
  782MOL0     C 7835   6.056   2.136   7.281  0.0286  0.5257  0.6737
  782MOL0     C 7836   6.002   2.254   7.344  0.1940 -0.3095  0.1129
  782MOL0     O 7837   5.941   2.363   7.281 -0.1792  0.1179 -1.1818
  782MOL0     C 7838   5.943   2.382   7.141  0.7619  0.8324  0.1809
  782MOL0     C 7839   5.790   2.404   7.090 -0.0328  0.3270 -0.5419
  782MOL0     C 7840   5.756   2.550   7.121 -0.1027 -0.2304 -0.9049
  782MOL0     C 7841   5.625   2.598   7.059  0.6207  0.5330 -0.2921
  782MOL0     C 7842   5.512   2.519   7.106  0.1630 -0.7335 -0.1041
  782MOL0     C 7843   5.423   2.446   7.122  0.1478 -0.0952 -0.0558
  782MOL0     C 7844   6.005   2.254   7.480  0.8593  0.1136 -0.5919
  782MOL0     C 7845   6.061   2.149   7.557 -1.2345 -0.1169  0.2967
  782MOL0     C 7846   6.087   2.183   7.700  0.7774 -0.5567 -0.6529
  782MOL0     H 7847   6.148   1.705   7.834  0.4681 -3.4146  5.3116
  782MOL0     H 7848   6.331   1.599   7.984  1.4037  1.0919  1.3566
  782MOL0     H 7849   6.720   1.830   8.034 -0.7952 -0.2402 -1.7147
  782MOL0     H 7850   6.762   1.704   7.921 -1.3074  1.8332 -2.6351
  782MOL0     H 7851   6.776   1.541   8.117  1.8719 -0.3751  2.1170
  782MOL0     H 7852   6.879   1.673   8.136  0.5021 -1.6459 -0.4600
  782MOL0     H 7853   6.728   1.794   8.269  1.5783 -1.6643 -0.7110
  782MOL0     H 7854   6.599   1.662   8.265 -0.8365 -0.3571 -1.5658
  782MOL0     H 7855   6.810   1.517   8.359  1.1067  1.6117 -3.3753
  782MOL0     H 7856   6.890   1.665   8.396  1.7440 -3.7606  2.2487
  782MOL0     H 7857   6.751   1.565   8.588 -1.7720  0.1080  1.4079
  782MOL0     H 7858   6.604   1.608   8.487 -0.0261  0.7843  0.2152
  782MOL0     H 7859   6.676   1.848   8.504 -1.5932 -0.6240  0.3898
  782MOL0     H 7860   6.624   1.766   8.653 -0.6160 -1.2118 -1.6230
  782MOL0     H 7861   6.923   1.808   8.579  1.3051  0.2072  2.1829
  782MOL0     H 7862   6.863   1.761   8.735  1.1229  0.3638  0.3766
  782MOL0     H 7863   6.784   2.023   8.612 -1.0214 -1.9077 -0.7775
  782MOL0     H 7864   6.731   1.961   8.776 -0.7918 -0.9464 -0.9163
  782MOL0     H 7865   6.912   1.930   8.962  2.7321 -1.4748  0.5045
  782MOL0     H 7866   7.228   2.140   9.061 -0.6959  0.2775  1.9816
  782MOL0     H 7867   7.118   2.044   9.130 -2.9512  2.7049  2.1177
  782MOL0     H 7868   6.951   2.211   9.144 -0.0912  0.0840  0.3686
  782MOL0     H 7869   7.094   2.221   9.245 -1.2873 -1.8563 -0.6289
  782MOL0     H 7870   7.199   2.401   9.115  0.9593 -2.5126  1.3770
  782MOL0     H 7871   7.072   2.406   8.995  0.9795  2.9991  0.5803
  782MOL0     H 7872   7.021   2.473   9.283 -6.2430 -2.2619  1.0788
  782MOL0     H 7873   7.022   2.587   9.144 -0.4079 -0.1911  0.2671
  782MOL0     H 7874   6.611   2.408   9.141 -0.6061  0.5875 -2.6861
  782MOL0     H 7875   6.379   2.434   9.167 -0.1160 -1.2512  2.6661
  782MOL0     H 7876   6.313   2.584   9.155  1.4944  1.2798  0.1689
  782MOL0     H 7877   6.322   2.503   9.312  0.1411  0.6584 -0.6250
  782MOL0     H 7878   6.347   2.898   9.604  0.6415  0.4619  0.3482
  782MOL0     H 7879   6.239   3.048   9.725  3.2227 -3.6184  0.8930
  782MOL0     H 7880   6.333   3.498   9.624 -0.5649  1.4508 -1.1644
  782MOL0     H 7881   6.180   3.466   9.539 -1.9591 -4.3059  0.5828
  782MOL0     H 7882   6.170   3.648   9.715  1.9583 -0.7230 -2.9404
  782MOL0     H 7883   6.066   3.516   9.751 -0.2381  0.2862 -2.8454
  782MOL0     H 7884   6.334   3.564   9.896  0.7168 -2.2988 -1.5246
  782MOL0     H 7885   6.253   3.424   9.917  0.7406 -0.0368 -2.6343
  782MOL0     H 7886   6.038   3.608   9.956  0.0952  1.3682  0.0069
  782MOL0     H 7887   6.158   3.705  10.014  1.1793 -1.1271  0.1593
  782MOL0     H 7888   6.213   3.466  10.139 -1.5396 -1.2976 -0.8275
  782MOL0     H 7889   6.128   3.608  10.213 -1.4524 -1.1700  1.8666
  782MOL0     H 7890   6.004   3.359  10.056  2.7134 -3.0774  2.0848
  782MOL0     H 7891   5.922   3.513  10.109 -0.0803 -0.4040  0.3111
  782MOL0     H 7892   5.949   3.451  10.333 -5.0777 -3.1256  1.9049
  782MOL0     H 7893   6.059   3.306  10.287 -1.8739 -3.7284 -2.1342
  782MOL0     H 7894   5.880   3.187  10.182 -1.3655 -0.1147  0.5064
  782MOL0     H 7895   5.776   3.333  10.191  0.6539  1.3580 -0.9100
  782MOL0     H 7896   6.365   3.363   9.449  0.7449 -0.7216 -1.2779
  782MOL0     H 7897   6.493   3.201   9.326  0.8445  0.5026 -0.0187
  782MOL0     H 7898   6.726   2.827   9.360 -0.8938 -0.2127  0.9618
  782MOL0     H 7899   6.897   2.695   9.304  0.9132 -2.2072  0.9624
  782MOL0     H 7900   6.607   1.895   7.844  0.0546  0.1310  2.7883
  782MOL0     H 7901   6.442   1.985   7.693  3.2278 -1.3360 -1.2711
  782MOL0     H 7902   6.153   1.948   7.294  2.2870  0.5029  1.0478
  782MOL0     H 7903   6.055   2.133   7.173 -1.9114  0.5496  0.6731
  782MOL0     H 7904   5.998   2.476   7.129  2.9488 -0.6062 -2.1663
  782MOL0     H 7905   5.991   2.306   7.078  0.0218  0.1974  0.3746
  782MOL0     H 7906   5.712   2.345   7.138  0.1695  1.5206  1.3400
  782MOL0     H 7907   5.783   2.386   6.982 -0.3351 -0.8268 -0.3365
  782MOL0     H 7908   5.739   2.561   7.229 -2.0011 -0.6691 -1.1179
  782MOL0     H 7909   5.830   2.621   7.083 -0.4302  1.2972  1.1091
  782MOL0     H 7910   5.637   2.599   6.950  1.3432 -0.9722 -0.2560
  782MOL0     H 7911   5.608   2.698   7.099 -3.8271 -1.0278  2.5755
  782MOL0     H 7912   5.342   2.376   7.134  1.6278 -1.6687  1.2528
  782MOL0     H 7913   5.955   2.339   7.526 -0.6262 -1.3017  0.5611
  782MOL0     H 7914   6.047   2.105   7.765 -0.9107 -0.3552 -1.3748
  782MOL0     H 7915   6.194   2.195   7.716  1.0283  2.6227 -3.5686
  782MOL0     H 7916   6.035   2.274   7.732  0.2489 -2.3164  4.3369
  783MOL0     O 7917   2.064   0.736   4.523  0.8715  0.9799  0.5041
  783MOL0     C 7918   1.965   0.770   4.581 -0.4984 -0.3600 -0.6820
  783MOL0     O 7919   1.960   0.879   4.668  0.4247  0.6051 -0.1125
  783MOL0     C 7920   2.083   0.926   4.718  0.7318 -0.9280  0.1381
  783MOL0     C 7921   2.201   0.949   4.655 -0.7950 -1.0682  0.0080
  783MOL0     C 7922   2.315   0.997   4.716 -0.2891 -0.4271 -0.4706
  783MOL0     C 7923   2.312   1.034   4.859  0.2907 -0.1126 -0.0999
  783MOL0     O 7924   2.418   1.087   4.931 -0.7117  0.6181  0.3827
  783MOL0     C 7925   2.540   1.125   4.854  0.5334  0.2003  0.3828
  783MOL0     C 7926   2.493   1.244   4.773  0.9280  0.3942  0.4560
  783MOL0     C 7927   2.618   1.329   4.742  0.6278 -0.4886  0.8239
  783MOL0     C 7928   2.704   1.272   4.625 -0.3628 -0.1895  0.0015
  783MOL0     C 7929   2.851   1.325   4.622 -0.3475  0.1181  0.3432
  783MOL0     C 7930   2.869   1.459   4.539  0.3637  0.0244 -0.4971
  783MOL0     C 7931   3.011   1.506   4.545 -0.2947 -1.1024 -0.1043
  783MOL0     C 7932   3.023   1.652   4.489 -1.9309  0.3007 -0.4106
  783MOL0     N 7933   3.165   1.684   4.491  0.3239 -0.5748 -0.5981
  783MOL0     C 7934   3.261   1.647   4.394  1.0223 -0.6905  0.7549
  783MOL0     C 7935   3.379   1.709   4.425  0.3919 -0.5685 -0.8873
  783MOL0     C 7936   3.500   1.721   4.343  0.0603 -0.2503 -0.2510
  783MOL0     C 7937   3.550   1.610   4.248 -0.6055  0.9217 -0.3616
  783MOL0     C 7938   3.583   1.483   4.319 -0.0054  0.0889 -0.4825
  783MOL0     C 7939   3.616   1.375   4.211 -0.1768 -0.4682  0.5228
  783MOL0     O 7940   3.496   1.336   4.158  1.2176  0.3085 -0.4204
  783MOL0     C 7941   3.412   1.259   4.237 -0.3044 -0.6270 -0.6793
  783MOL0     C 7942   3.457   1.161   4.332  0.2382 -1.3032 -0.6416
  783MOL0     C 7943   3.376   1.073   4.391 -0.2377 -0.2732  0.2247
  783MOL0     C 7944   3.443   0.967   4.466 -0.2824  0.9192  0.1313
  783MOL0     C 7945   3.234   1.082   4.380  0.1147  0.1709  0.6169
  783MOL0     C 7946   3.136   0.993   4.451 -0.0275 -0.7298 -0.3425
  783MOL0     O 7947   3.025   1.052   4.493  0.1679 -0.9901  0.2862
  783MOL0     C 7948   2.913   0.975   4.516  0.3288 -0.4486  0.8216
  783MOL0     C 7949   2.827   0.948   4.412  0.0284  0.5589  0.3687
  783MOL0     C 7950   2.704   0.892   4.448  0.4567 -0.1584  0.4278
  783MOL0     C 7951   2.675   0.842   4.578  0.2547  0.8213  0.7220
  783MOL0     O 7952   2.556   0.776   4.593  1.3707  0.1750  0.6881
  783MOL0     C 7953   2.528   0.700   4.711  0.2097 -0.1989 -0.5725
  783MOL0     C 7954   2.431   0.588   4.683  0.2600  0.4843 -1.0658
  783MOL0     C 7955   2.465   0.500   4.555 -0.1115 -0.1716 -0.6437
  783MOL0     C 7956   2.427   0.354   4.568  0.0352 -0.1560 -0.4311
  783MOL0     C 7957   2.513   0.258   4.481  0.4815 -0.2402 -0.7650
  783MOL0     C 7958   2.499   0.285   4.335  0.4882  0.2227 -0.5266
  783MOL0     C 7959   2.586   0.198   4.241  0.4836  0.4984  0.0027
  783MOL0     C 7960   2.579   0.041   4.266 -0.2412 -0.0518  0.3185
  783MOL0    Cl 7961   2.414  -0.012   4.254 -0.1903  0.2145  0.3702
  783MOL0     C 7962   2.778   0.856   4.676 -0.2463  0.9702  0.0683
  783MOL0     C 7963   2.887   0.929   4.645 -0.3426 -0.7889  0.2116
  783MOL0     O 7964   3.158   0.873   4.444  0.0543 -0.8764 -0.6472
  783MOL0     C 7965   3.189   1.184   4.298  0.5411  1.1150  0.5003
  783MOL0     C 7966   3.274   1.273   4.228  0.6248  0.1571 -0.1768
  783MOL0     N 7967   3.358   1.792   4.536 -0.3583  0.7794 -0.3561
  783MOL0     N 7968   3.227   1.777   4.568 -0.5898 -0.1384 -0.2351
  783MOL0     C 7969   2.185   1.013   4.923  0.0463  0.9434 -0.4241
  783MOL0     C 7970   2.076   0.962   4.852  0.2158  1.1237  0.5306
  783MOL0     C 7971   1.836   0.693   4.558  0.5506 -0.9131  0.6164
  783MOL0     C 7972   1.718   0.740   4.621 -0.7596 -0.3392  0.6762
  783MOL0     C 7973   1.603   0.665   4.616 -0.0212 -0.0669 -0.1420
  783MOL0     C 7974   1.592   0.541   4.555 -0.1224 -0.8284 -0.0618
  783MOL0     O 7975   1.471   0.471   4.563  1.0635 -0.0711 -0.0490
  783MOL0     C 7976   1.441   0.386   4.448 -0.6108  0.1357  0.7199
  783MOL0     C 7977   1.299   0.343   4.459 -0.5441 -0.3064  1.0125
  783MOL0     C 7978   1.293   0.189   4.474 -0.3840  0.1878  0.2040
  783MOL0     C 7979   1.150   0.145   4.518  0.0092 -0.0129 -0.4009
  783MOL0     C 7980   1.119   0.159   4.669  0.0184 -0.2458 -0.6722
  783MOL0     C 7981   1.093   0.151   4.788  0.4881  0.3624  0.1977
  783MOL0     C 7982   1.706   0.500   4.489  0.5883  0.2893 -0.0097
  783MOL0     C 7983   1.825   0.574   4.489 -0.3103 -0.8055 -0.6459
  783MOL0     C 7984   1.946   0.491   4.429 -0.0170 -0.0210 -0.2716
  783MOL0     H 7985   2.205   0.933   4.548 -0.4185 -0.6376 -0.0403
  783MOL0     H 7986   2.401   1.024   4.655  0.5415 -0.2235  0.7433
  783MOL0     H 7987   2.571   1.053   4.778 -0.2930  0.5645 -0.3170
  783MOL0     H 7988   2.622   1.153   4.921 -0.4954  2.2979  0.8718
  783MOL0     H 7989   2.449   1.212   4.678 -3.8034  3.0401  1.4368
  783MOL0     H 7990   2.435   1.308   4.841 -0.6806  1.3597 -1.6918
  783MOL0     H 7991   2.575   1.429   4.731 -2.9265 -1.8087  1.2613
  783MOL0     H 7992   2.669   1.347   4.837  0.1585  0.2972  0.9330
  783MOL0     H 7993   2.711   1.163   4.628  3.3229 -0.0892 -0.1058
  783MOL0     H 7994   2.650   1.291   4.532  2.1499 -0.4848 -1.6051
  783MOL0     H 7995   2.918   1.254   4.573 -1.6008  0.1919 -1.6072
  783MOL0     H 7996   2.895   1.332   4.722  1.0509 -1.9834 -0.0502
  783MOL0     H 7997   2.842   1.438   4.435 -1.0559  1.0886 -0.3772
  783MOL0     H 7998   2.799   1.540   4.562 -0.7834 -1.5824  2.1219
  783MOL0     H 7999   3.063   1.442   4.473  1.2796 -1.9640  1.7245
  783MOL0     H 8000   3.059   1.496   4.642  1.0441  1.9135 -0.3509
  783MOL0     H 8001   2.984   1.654   4.387 -1.1915  2.7530 -0.7050
  783MOL0     H 8002   2.972   1.724   4.553  1.4835  1.5240  1.1772
  783MOL0     H 8003   3.247   1.596   4.299  0.2952 -0.4794  0.7389
  783MOL0     H 8004   3.586   1.744   4.407  0.9344 -0.9596 -1.1338
  783MOL0     H 8005   3.496   1.815   4.287  0.7293  0.2486  0.5065
  783MOL0     H 8006   3.484   1.597   4.161 -3.7280 -1.0418  2.0841
  783MOL0     H 8007   3.649   1.640   4.213  0.7388 -1.5526  1.0341
  783MOL0     H 8008   3.670   1.507   4.381  0.8178  0.5350 -1.7798
  783MOL0     H 8009   3.501   1.457   4.386  2.1353  0.3346  2.4397
  783MOL0     H 8010   3.674   1.411   4.125 -1.6018  0.2395 -0.1669
  783MOL0     H 8011   3.681   1.295   4.248  1.7240 -0.3096 -2.1620
  783MOL0     H 8012   3.564   1.147   4.330  1.1849  3.8543  1.0332
  783MOL0     H 8013   3.393   0.870   4.457 -0.0047  0.7485  0.4219
  783MOL0     H 8014   3.456   1.001   4.569 -3.1305 -0.9331  1.2279
  783MOL0     H 8015   3.546   0.945   4.437 -0.8906 -0.1774 -1.3492
  783MOL0     H 8016   2.852   0.969   4.309  0.4998 -2.0478 -0.1040
  783MOL0     H 8017   2.630   0.892   4.368  0.7538 -1.1228  0.1465
  783MOL0     H 8018   2.623   0.650   4.733  0.0058 -0.7146 -0.8389
  783MOL0     H 8019   2.498   0.755   4.800 -3.3880 -2.5226 -0.1268
  783MOL0     H 8020   2.433   0.519   4.769 -1.9094 -2.4469 -3.1661
  783MOL0     H 8021   2.330   0.631   4.677  1.5535  3.6669 -1.9621
  783MOL0     H 8022   2.572   0.506   4.534  0.0714 -2.5268 -0.5679
  783MOL0     H 8023   2.407   0.541   4.472 -2.4289  0.6129  1.2589
  783MOL0     H 8024   2.319   0.339   4.558 -0.4870 -0.2862  3.5526
  783MOL0     H 8025   2.442   0.326   4.673  1.7973  4.1471  0.6905
  783MOL0     H 8026   2.614   0.277   4.517  0.6726  2.3088 -2.3845
  783MOL0     H 8027   2.490   0.153   4.503  1.5417 -0.7805 -2.1566
  783MOL0     H 8028   2.509   0.390   4.303 -0.1207  0.4390 -0.0293
  783MOL0     H 8029   2.398   0.252   4.309 -0.3046 -0.6620  3.0776
  783MOL0     H 8030   2.686   0.230   4.272  0.9825 -2.5515  1.9331
  783MOL0     H 8031   2.573   0.231   4.138  1.0800 -2.2787 -1.0231
  783MOL0     H 8032   2.619   0.014   4.364  1.7467 -3.4931 -1.2789
  783MOL0     H 8033   2.637  -0.008   4.187 -2.8921 -2.3167 -0.3837
  783MOL0     H 8034   2.776   0.807   4.772  1.4586 -0.9422 -0.8018
  783MOL0     H 8035   2.961   0.960   4.718  0.4084  2.1863 -1.6266
  783MOL0     H 8036   3.081   1.196   4.294 -0.1134 -1.7997  4.0290
  783MOL0     H 8037   3.239   1.348   4.157  1.8592  3.4769  2.4582
  783MOL0     H 8038   2.182   1.035   5.030  4.1244  2.0597 -0.3554
  783MOL0     H 8039   1.983   0.942   4.905  0.3758  1.3413  0.8931
  783MOL0     H 8040   1.722   0.838   4.667 -1.1674 -0.5094  1.0837
  783MOL0     H 8041   1.526   0.698   4.685 -0.1486 -3.1249  1.3626
  783MOL0     H 8042   1.449   0.461   4.368  1.1496 -0.9364 -0.1806
  783MOL0     H 8043   1.513   0.308   4.424 -0.4451  0.7420 -0.8848
  783MOL0     H 8044   1.257   0.373   4.363  2.6110 -0.7648 -0.6636
  783MOL0     H 8045   1.240   0.392   4.537 -2.1002  0.4598 -0.5894
  783MOL0     H 8046   1.313   0.140   4.378 -0.1009 -0.5145  0.6138
  783MOL0     H 8047   1.367   0.142   4.540 -1.5906 -1.2220  0.6032
  783MOL0     H 8048   1.131   0.042   4.486 -1.7459  0.2217 -0.2329
  783MOL0     H 8049   1.081   0.199   4.452  1.1647 -0.0333 -1.6625
  783MOL0     H 8050   1.092   0.141   4.895 -0.6293  0.2531  0.1852
  783MOL0     H 8051   1.700   0.399   4.449  4.3684 -0.3751  0.6966
  783MOL0     H 8052   1.916   0.389   4.405 -0.8106  0.9389 -3.9005
  783MOL0     H 8053   1.977   0.534   4.334  3.6071 -1.3394  0.1909
  783MOL0     H 8054   2.037   0.489   4.490  1.2684  3.1310 -1.8492
  784MOL0     O 8055  10.994   4.725   6.676  1.1621  0.4892  0.9320
  784MOL0     C 8056  11.089   4.784   6.636  0.5554 -0.4698 -0.1598
  784MOL0     O 8057  11.213   4.737   6.651  0.0922  1.1218 -0.3792
  784MOL0     C 8058  11.257   4.622   6.706  0.1006  0.4735  0.6226
  784MOL0     C 8059  11.209   4.498   6.655 -0.1572  0.4256 -0.4877
  784MOL0     C 8060  11.253   4.381   6.718  0.3752  0.1950 -0.3536
  784MOL0     C 8061  11.340   4.377   6.827  0.0364 -0.1653 -0.2624
  784MOL0     O 8062  11.366   4.259   6.888 -0.3961 -0.2730 -0.3472
  784MOL0     C 8063  11.470   4.275   6.987 -0.3068  0.5792  0.6924
  784MOL0     C 8064  11.481   4.149   7.063  0.0850  0.5219 -0.1282
  784MOL0     C 8065  11.513   4.020   6.975 -0.2704  0.0772 -0.6618
  784MOL0     C 8066  11.646   4.022   6.897 -0.5931  0.6671  0.2901
  784MOL0     C 8067  11.694   3.878   6.849  0.5346  0.6179 -0.3154
  784MOL0     C 8068  11.594   3.824   6.751 -0.4906  0.0356  0.5494
  784MOL0     C 8069  11.643   3.686   6.718  0.5753 -1.0335  0.0320
  784MOL0     C 8070  11.571   3.618   6.608  0.0859 -0.5157  0.4108
  784MOL0     N 8071  11.648   3.494   6.564  0.9680  0.6771  0.1282
  784MOL0     C 8072  11.690   3.384   6.638 -0.1811 -0.8019  0.0673
  784MOL0     C 8073  11.799   3.340   6.577  0.6391 -0.5352  0.8202
  784MOL0     C 8074  11.897   3.236   6.629  0.6557 -0.6582  0.0077
  784MOL0     C 8075  12.037   3.287   6.596 -0.1525 -0.0811 -0.4639
  784MOL0     C 8076  12.138   3.217   6.684  0.6778 -0.1769 -0.4252
  784MOL0     C 8077  12.277   3.255   6.631 -0.5619  0.3993 -0.7575
  784MOL0     O 8078  12.380   3.172   6.696 -0.6981  0.5739 -0.6228
  784MOL0     C 8079  12.453   3.068   6.639  0.4271 -0.8300  0.5684
  784MOL0     C 8080  12.469   3.052   6.507  0.4199  0.1959  0.8580
  784MOL0     C 8081  12.520   2.931   6.453  0.1389  0.3335 -1.1145
  784MOL0     C 8082  12.502   2.896   6.305 -0.2945  0.2962  0.1683
  784MOL0     C 8083  12.574   2.837   6.546  0.3743  1.2658 -0.4831
  784MOL0     C 8084  12.624   2.702   6.508  0.5941  1.1159 -0.6432
  784MOL0     O 8085  12.615   2.586   6.592 -0.5058 -0.4334 -0.2312
  784MOL0     C 8086  12.671   2.467   6.553 -0.1159  0.4719  0.9366
  784MOL0     C 8087  12.808   2.444   6.531 -1.5166  0.3002  0.9214
  784MOL0     C 8088  12.844   2.313   6.488  0.0538  0.2330  1.4406
  784MOL0     C 8089  12.744   2.212   6.466 -0.5717  0.8162  0.8718
  784MOL0     O 8090  12.789   2.090   6.417  0.1479 -0.2050  0.1396
  784MOL0     C 8091  12.737   2.063   6.282 -0.8446  0.3648  0.1555
  784MOL0     C 8092  12.804   1.934   6.236 -0.7383  0.3146  0.5158
  784MOL0     C 8093  12.742   1.897   6.100 -0.3853  0.6413 -0.1265
  784MOL0     C 8094  12.788   1.755   6.067 -0.3872  0.1468 -0.7663
  784MOL0     C 8095  12.760   1.684   5.936  0.5560  0.4536  0.9081
  784MOL0     C 8096  12.609   1.653   5.910 -0.2037 -0.0516  0.5186
  784MOL0     C 8097  12.585   1.628   5.761 -0.6057  0.4586  0.2090
  784MOL0     C 8098  12.657   1.501   5.707  0.2348 -0.8086 -0.1161
  784MOL0    Cl 8099  12.597   1.347   5.771  0.7888  0.3871 -0.5687
  784MOL0     C 8100  12.609   2.245   6.493 -0.5942  0.3227  0.5102
  784MOL0     C 8101  12.578   2.374   6.535 -0.1515  0.4377 -0.1996
  784MOL0     O 8102  12.675   2.695   6.397  0.2811  0.8621  0.3655
  784MOL0     C 8103  12.564   2.859   6.688  0.3701  0.3163  0.0227
  784MOL0     C 8104  12.495   2.977   6.728 -0.9065  0.1195  0.0516
  784MOL0     N 8105  11.815   3.404   6.448 -0.1465  0.2567 -0.4867
  784MOL0     N 8106  11.729   3.496   6.449  0.4738  0.5250  0.5013
  784MOL0     C 8107  11.385   4.508   6.873 -0.0893  0.9235 -1.2561
  784MOL0     C 8108  11.349   4.620   6.814  1.0780 -0.7600  0.5363
  784MOL0     C 8109  11.075   4.921   6.574 -0.0901  0.0108 -0.1468
  784MOL0     C 8110  11.192   4.975   6.511 -1.5046  0.7714 -0.6236
  784MOL0     C 8111  11.199   5.103   6.463  0.2640  0.1686  0.0622
  784MOL0     C 8112  11.080   5.178   6.454 -0.6029 -0.0685 -0.8063
  784MOL0     O 8113  11.059   5.297   6.397  0.1710 -0.8288 -0.1238
  784MOL0     C 8114  11.172   5.377   6.347 -0.2279  0.0043  0.5688
  784MOL0     C 8115  11.249   5.442   6.453  0.4231 -0.2638  0.1152
  784MOL0     C 8116  11.370   5.507   6.384 -0.4709 -0.4044 -0.1058
  784MOL0     C 8117  11.467   5.598   6.470 -0.5013 -0.5583 -0.4968
  784MOL0     C 8118  11.400   5.718   6.518  0.3942 -0.0734  0.3872
  784MOL0     C 8119  11.345   5.820   6.558  0.4518  0.4184 -0.4165
  784MOL0     C 8120  10.957   5.127   6.505  0.0743  0.6353  0.4474
  784MOL0     C 8121  10.968   5.008   6.593 -0.4604 -0.7467 -0.3508
  784MOL0     C 8122  10.852   4.971   6.668  0.1524 -0.5992  0.0458
  784MOL0     H 8123  11.119   4.490   6.595 -0.7557  2.6644  0.0257
  784MOL0     H 8124  11.207   4.291   6.678  0.2820 -0.0057  0.1993
  784MOL0     H 8125  11.447   4.355   7.058 -1.2607  1.7032 -0.8392
  784MOL0     H 8126  11.565   4.296   6.939 -0.3385 -2.0804 -0.7578
  784MOL0     H 8127  11.555   4.147   7.144 -1.5709 -3.3377  1.5482
  784MOL0     H 8128  11.383   4.135   7.111  1.2912 -0.9729  2.0886
  784MOL0     H 8129  11.514   3.945   7.056 -0.7284  0.6319 -0.1320
  784MOL0     H 8130  11.429   3.986   6.915  0.2932  0.3396 -1.6075
  784MOL0     H 8131  11.608   4.086   6.817 -1.6857 -0.4375 -0.1040
  784MOL0     H 8132  11.733   4.061   6.951  0.6690 -2.8157  1.0248
  784MOL0     H 8133  11.715   3.808   6.930  3.1453 -0.3958 -1.7198
  784MOL0     H 8134  11.790   3.885   6.796 -0.6944  1.5688 -2.5875
  784MOL0     H 8135  11.493   3.821   6.791 -0.8758 -0.0922 -0.4119
  784MOL0     H 8136  11.579   3.881   6.658  1.0269 -2.0776 -1.1149
  784MOL0     H 8137  11.630   3.624   6.808  0.7487 -3.0079 -1.2365
  784MOL0     H 8138  11.748   3.703   6.693  0.6464  0.1711  1.0555
  784MOL0     H 8139  11.467   3.610   6.642 -0.4382  3.1231  0.0552
  784MOL0     H 8140  11.573   3.688   6.524  1.3035  2.3756  2.6784
  784MOL0     H 8141  11.665   3.340   6.734 -1.7582  0.1262  0.1244
  784MOL0     H 8142  11.885   3.137   6.585 -2.0969  0.2951 -1.6555
  784MOL0     H 8143  11.871   3.241   6.735 -0.6681  1.2573 -0.3298
  784MOL0     H 8144  12.066   3.271   6.492  1.4016  1.5812 -0.3347
  784MOL0     H 8145  12.041   3.395   6.611 -1.2331 -0.2178  1.0067
  784MOL0     H 8146  12.118   3.244   6.788  1.4897 -2.5443  0.4251
  784MOL0     H 8147  12.120   3.109   6.675 -0.4818 -0.0465  0.0505
  784MOL0     H 8148  12.279   3.243   6.522 -3.9845  3.2564 -1.3300
  784MOL0     H 8149  12.290   3.361   6.655 -0.3937  0.0395  0.8850
  784MOL0     H 8150  12.438   3.130   6.437  3.9823  3.6745  2.7157
  784MOL0     H 8151  12.479   2.789   6.297  2.3261 -0.2902 -0.4057
  784MOL0     H 8152  12.593   2.905   6.246 -0.7054  0.5224 -0.4390
  784MOL0     H 8153  12.419   2.957   6.271 -0.1830  0.6428  0.5113
  784MOL0     H 8154  12.882   2.518   6.563 -0.1032 -2.1525  3.8602
  784MOL0     H 8155  12.948   2.296   6.465 -0.2893 -1.5942  1.0866
  784MOL0     H 8156  12.628   2.055   6.290 -1.0203  0.6250 -1.6177
  784MOL0     H 8157  12.761   2.148   6.217  1.1104 -0.8677 -0.8078
  784MOL0     H 8158  12.909   1.957   6.217 -0.4771 -0.5714  0.8132
  784MOL0     H 8159  12.790   1.854   6.310 -3.1468  0.6353  0.4690
  784MOL0     H 8160  12.777   1.972   6.028 -0.1666  3.6120  2.8211
  784MOL0     H 8161  12.633   1.905   6.095 -0.3885 -0.0128 -1.5502
  784MOL0     H 8162  12.754   1.691   6.148  0.8804  1.5852  0.9839
  784MOL0     H 8163  12.897   1.762   6.071 -0.0356 -3.5579 -0.8707
  784MOL0     H 8164  12.802   1.748   5.858 -1.7683  2.4213  1.1481
  784MOL0     H 8165  12.801   1.583   5.923 -1.6628 -0.4783  0.7192
  784MOL0     H 8166  12.545   1.730   5.953  1.3161  0.2852  2.3559
  784MOL0     H 8167  12.580   1.558   5.955 -1.9094 -0.2394 -0.8780
  784MOL0     H 8168  12.621   1.719   5.713  1.6272  0.3523  1.5475
  784MOL0     H 8169  12.476   1.619   5.748 -0.2814 -0.7127 -2.2406
  784MOL0     H 8170  12.763   1.497   5.732  0.2926 -3.7784 -0.4748
  784MOL0     H 8171  12.651   1.505   5.598  0.5894 -0.3989 -0.1221
  784MOL0     H 8172  12.534   2.167   6.498  1.8462 -2.1271  1.2858
  784MOL0     H 8173  12.473   2.386   6.556 -0.0251 -0.0866  0.8560
  784MOL0     H 8174  12.595   2.775   6.750  0.2381 -0.9671 -1.6023
  784MOL0     H 8175  12.483   2.998   6.833 -2.4910  0.5955 -0.1964
  784MOL0     H 8176  11.452   4.509   6.959 -2.4277  0.3417  0.7187
  784MOL0     H 8177  11.375   4.723   6.836 -2.4406  1.5006 -4.1059
  784MOL0     H 8178  11.292   4.935   6.523 -1.3019  1.3609 -0.3181
  784MOL0     H 8179  11.291   5.144   6.422  0.4300 -0.7790 -0.5524
  784MOL0     H 8180  11.228   5.304   6.288 -0.2443 -0.2771  0.8948
  784MOL0     H 8181  11.139   5.448   6.271 -1.3347  1.0893  2.0172
  784MOL0     H 8182  11.258   5.380   6.542  1.5230  0.3115  0.4255
  784MOL0     H 8183  11.197   5.534   6.482  0.3112 -0.4789  0.6062
  784MOL0     H 8184  11.428   5.417   6.360 -1.0845 -0.1840 -2.7473
  784MOL0     H 8185  11.347   5.564   6.294 -2.0186  0.8320  0.9990
  784MOL0     H 8186  11.562   5.630   6.425  0.4616  1.2078  2.4638
  784MOL0     H 8187  11.489   5.539   6.559  0.7954 -0.7772 -0.9366
  784MOL0     H 8188  11.309   5.915   6.592  0.1217  1.3523 -3.0981
  784MOL0     H 8189  10.869   5.189   6.496  0.4792  1.0403 -0.9715
  784MOL0     H 8190  10.886   4.909   6.751  2.9447 -1.1223 -1.3806
  784MOL0     H 8191  10.803   5.064   6.696  1.0692 -0.4020  1.0470
  784MOL0     H 8192  10.788   4.922   6.594  0.3832  0.7058 -1.0510
  785MOL0     O 8193   0.307   2.470   5.429  0.5180  0.1432 -0.0953
  785MOL0     C 8194   0.245   2.569   5.468 -0.6426 -0.0380 -0.4896
  785MOL0     O 8195   0.296   2.664   5.554  0.5849 -0.5801  0.1401
  785MOL0     C 8196   0.401   2.627   5.639  0.1032 -0.3972 -0.0800
  785MOL0     C 8197   0.375   2.635   5.774 -0.7306  0.1645  0.0050
  785MOL0     C 8198   0.486   2.606   5.854  0.6212  0.5002  0.4264
  785MOL0     C 8199   0.608   2.563   5.806  0.4373  0.0331  1.6436
  785MOL0     O 8200   0.700   2.527   5.901  0.6252 -0.1294 -0.3390
  785MOL0     C 8201   0.837   2.507   5.867 -1.3309 -0.7085  0.9947
  785MOL0     C 8202   0.918   2.511   5.997  0.3186  0.2222 -0.3756
  785MOL0     C 8203   0.882   2.405   6.093 -0.0723  0.3980 -0.7974
  785MOL0     C 8204   0.860   2.462   6.234  0.4104 -0.9694 -0.0363
  785MOL0     C 8205   0.712   2.504   6.242  0.2702  0.6077  1.4533
  785MOL0     C 8206   0.685   2.537   6.379 -0.7542  0.3928  0.7157
  785MOL0     C 8207   0.542   2.577   6.409  0.2332  0.1524 -0.1236
  785MOL0     C 8208   0.435   2.460   6.385 -0.2418  0.2254  0.3592
  785MOL0     N 8209   0.462   2.341   6.471  0.1348 -0.5789 -0.2253
  785MOL0     C 8210   0.402   2.220   6.462 -0.6743  0.9120  0.1398
  785MOL0     C 8211   0.469   2.141   6.555  0.5515  0.5365 -0.6187
  785MOL0     C 8212   0.442   1.990   6.575 -0.7459 -0.9606 -0.0473
  785MOL0     C 8213   0.332   1.949   6.663  0.5399  0.8750 -0.2468
  785MOL0     C 8214   0.188   1.981   6.608 -0.9909  0.6993  0.0598
  785MOL0     C 8215   0.098   1.918   6.719  0.0605  0.8965  0.8330
  785MOL0     O 8216  -0.029   1.963   6.678  0.1368 -0.8654 -0.4923
  785MOL0     C 8217  -0.129   1.880   6.725 -0.7800 -0.0881  0.1442
  785MOL0     C 8218  -0.165   1.768   6.649 -0.0974 -0.1064 -0.5280
  785MOL0     C 8219  -0.256   1.675   6.695 -0.4547  0.0916 -1.1796
  785MOL0     C 8220  -0.270   1.539   6.635  0.3891 -0.1483  0.9621
  785MOL0     C 8221  -0.330   1.706   6.816 -0.3042 -0.9464 -0.0188
  785MOL0     C 8222  -0.448   1.620   6.865 -0.4430 -0.6267 -0.2990
  785MOL0     O 8223  -0.522   1.562   6.774 -0.2008 -0.1143  0.5443
  785MOL0     C 8224  -0.652   1.529   6.812 -0.2930 -0.7983  0.2158
  785MOL0     C 8225  -0.686   1.403   6.786  0.1754 -0.3493 -0.0833
  785MOL0     C 8226  -0.822   1.359   6.780 -0.3860 -1.3586  0.1495
  785MOL0     C 8227  -0.929   1.446   6.798 -0.2989 -0.3304  0.3842
  785MOL0     O 8228  -1.063   1.410   6.798 -0.2998  0.1860  0.1992
  785MOL0     C 8229  -1.096   1.317   6.687 -0.4105  0.3415 -0.2860
  785MOL0     C 8230  -1.212   1.345   6.601 -0.2673  0.7238 -0.3840
  785MOL0     C 8231  -1.351   1.361   6.673 -0.1774  1.0131 -0.6460
  785MOL0     C 8232  -1.390   1.236   6.749 -0.9211  0.0395  0.3299
  785MOL0     C 8233  -1.533   1.214   6.747  0.7555  0.6861 -1.1930
  785MOL0     C 8234  -1.605   1.285   6.865  0.3052 -0.1673  0.3915
  785MOL0     C 8235  -1.750   1.223   6.869 -0.3109 -1.0420 -0.3414
  785MOL0     C 8236  -1.827   1.271   6.992 -0.7936 -0.9362 -0.1183
  785MOL0    Cl 8237  -2.001   1.228   6.998 -0.2003  0.2219 -0.0380
  785MOL0     C 8238  -0.897   1.579   6.827 -0.4104 -0.0213  0.5585
  785MOL0     C 8239  -0.759   1.623   6.814  0.4994 -0.8762 -0.5134
  785MOL0     O 8240  -0.454   1.611   6.985  0.4615 -0.1197 -0.0785
  785MOL0     C 8241  -0.302   1.825   6.882  1.0256  0.2157 -1.0350
  785MOL0     C 8242  -0.211   1.916   6.835 -0.0136 -0.2973  0.1451
  785MOL0     N 8243   0.546   2.225   6.628  0.3792  0.8346  0.0764
  785MOL0     N 8244   0.551   2.343   6.573 -0.0934 -0.6786  0.9710
  785MOL0     C 8245   0.634   2.550   5.672  0.6367 -0.2347 -0.9641
  785MOL0     C 8246   0.528   2.593   5.582 -0.3035  0.2632 -0.6867
  785MOL0     C 8247   0.116   2.601   5.403 -0.1774 -0.8183 -1.1000
  785MOL0     C 8248   0.073   2.740   5.401  0.0053  0.6388 -0.6475
  785MOL0     C 8249  -0.043   2.776   5.338  0.2783 -0.1267 -0.0308
  785MOL0     C 8250  -0.112   2.682   5.262  0.0976  0.5525  0.0606
  785MOL0     O 8251  -0.214   2.731   5.190 -0.3016  0.2968  0.0849
  785MOL0     C 8252  -0.184   2.723   5.048  1.2157  0.5558  0.6308
  785MOL0     C 8253  -0.276   2.819   4.966  0.1090 -0.4883  0.0328
  785MOL0     C 8254  -0.426   2.836   5.015  0.0510  0.1569  0.7328
  785MOL0     C 8255  -0.520   2.890   4.905 -0.2005 -0.9171 -0.3302
  785MOL0     C 8256  -0.583   2.772   4.844  0.5753  0.7388  0.7981
  785MOL0     C 8257  -0.643   2.683   4.779  0.4891  0.7705  0.9509
  785MOL0     C 8258  -0.077   2.544   5.273  0.7986 -0.8134 -0.1603
  785MOL0     C 8259   0.035   2.502   5.347 -0.3599 -0.8761 -0.6083
  785MOL0     C 8260   0.065   2.355   5.368 -0.2874 -0.2773 -0.6425
  785MOL0     H 8261   0.274   2.668   5.796 -1.7902 -2.8260  0.1262
  785MOL0     H 8262   0.489   2.606   5.962  1.9998  0.6818  0.4097
  785MOL0     H 8263   0.878   2.586   5.802 -1.8472 -1.9977 -0.9958
  785MOL0     H 8264   0.842   2.413   5.811 -0.7707 -0.2645  0.2786
  785MOL0     H 8265   1.022   2.493   5.969  0.0882 -1.2426 -0.3640
  785MOL0     H 8266   0.920   2.609   6.046  1.1039  0.4092 -0.7636
  785MOL0     H 8267   0.796   2.350   6.054 -0.2747  0.7932 -0.9194
  785MOL0     H 8268   0.974   2.347   6.095  1.4238  2.6721 -0.7124
  785MOL0     H 8269   0.889   2.388   6.310 -0.6721  0.8483  2.2687
  785MOL0     H 8270   0.935   2.541   6.244  1.2456 -1.6345 -0.8522
  785MOL0     H 8271   0.644   2.424   6.212  2.4140 -0.0549 -2.3059
  785MOL0     H 8272   0.690   2.590   6.178 -0.3115 -2.3210 -2.7019
  785MOL0     H 8273   0.718   2.454   6.441  0.9514  1.2842  1.0742
  785MOL0     H 8274   0.750   2.623   6.395 -2.3304  1.5118  1.3989
  785MOL0     H 8275   0.512   2.659   6.343  2.3978  0.2937 -1.0068
  785MOL0     H 8276   0.544   2.619   6.511  3.7575  1.6604 -0.6948
  785MOL0     H 8277   0.334   2.495   6.406 -0.3896 -0.3510  0.6174
  785MOL0     H 8278   0.431   2.418   6.284 -0.5034  1.6847 -0.2674
  785MOL0     H 8279   0.332   2.173   6.393  0.8212 -0.9882 -0.1920
  785MOL0     H 8280   0.530   1.930   6.603 -0.3952 -2.8080 -4.2971
  785MOL0     H 8281   0.428   1.958   6.471  1.2502  0.9987 -0.9998
  785MOL0     H 8282   0.338   1.840   6.666 -1.7742  0.7196  0.9461
  785MOL0     H 8283   0.343   1.991   6.764 -0.3118  2.0512 -0.6255
  785MOL0     H 8284   0.172   2.088   6.599  1.0098  1.0158 -0.0799
  785MOL0     H 8285   0.160   1.934   6.513 -1.3700  2.2819 -0.6437
  785MOL0     H 8286   0.112   1.809   6.720  2.2632  1.1359  1.1270
  785MOL0     H 8287   0.118   1.958   6.818  2.7818  3.7269 -0.6617
  785MOL0     H 8288  -0.118   1.741   6.555 -1.1474  1.7610 -1.6481
  785MOL0     H 8289  -0.179   1.509   6.581  0.9840  0.5643  1.5453
  785MOL0     H 8290  -0.353   1.539   6.563  0.6695 -0.9490  0.6268
  785MOL0     H 8291  -0.296   1.455   6.699  1.3391  0.8254  2.7091
  785MOL0     H 8292  -0.613   1.323   6.786 -0.1272 -0.6527 -1.2255
  785MOL0     H 8293  -0.844   1.256   6.751 -4.2945 -0.5472 -0.3023
  785MOL0     H 8294  -1.012   1.306   6.618 -1.7664 -1.7645 -1.7149
  785MOL0     H 8295  -1.097   1.214   6.725  1.2471  0.8418  1.2414
  785MOL0     H 8296  -1.190   1.442   6.555 -0.3075  1.3558  0.8955
  785MOL0     H 8297  -1.217   1.265   6.526 -0.0399  0.5581 -0.2250
  785MOL0     H 8298  -1.423   1.379   6.593  3.1883  1.0398 -3.8983
  785MOL0     H 8299  -1.361   1.437   6.750  3.1519  0.2830  0.7045
  785MOL0     H 8300  -1.362   1.245   6.854  1.7728  1.7756 -0.4171
  785MOL0     H 8301  -1.346   1.152   6.694  0.7707 -0.0775  1.7772
  785MOL0     H 8302  -1.580   1.224   6.649 -0.1386  2.1442 -0.6392
  785MOL0     H 8303  -1.539   1.105   6.758 -0.4700  0.9104  0.7310
  785MOL0     H 8304  -1.604   1.393   6.846  0.6759 -0.1763  0.3570
  785MOL0     H 8305  -1.548   1.274   6.957  1.7577 -0.6200 -0.5333
  785MOL0     H 8306  -1.733   1.116   6.885 -0.6281 -1.1843 -0.9225
  785MOL0     H 8307  -1.810   1.231   6.778 -2.2292 -0.3795  0.9089
  785MOL0     H 8308  -1.823   1.380   6.989 -0.7361 -0.8490  1.9721
  785MOL0     H 8309  -1.772   1.245   7.083 -0.2362 -3.1033 -0.9974
  785MOL0     H 8310  -0.985   1.640   6.847 -1.3298 -0.9126 -0.5850
  785MOL0     H 8311  -0.736   1.729   6.824 -0.3725 -0.7578  0.3300
  785MOL0     H 8312  -0.358   1.856   6.969  1.5089  1.0217 -0.9986
  785MOL0     H 8313  -0.197   2.009   6.889 -1.9535 -1.0486  2.1324
  785MOL0     H 8314   0.720   2.507   5.622  3.8419 -0.2364  3.8539
  785MOL0     H 8315   0.542   2.586   5.474  1.2793  1.8685 -0.6392
  785MOL0     H 8316   0.125   2.810   5.466 -1.5015 -1.1441  2.7460
  785MOL0     H 8317  -0.076   2.879   5.332  1.2267  0.0716 -3.9453
  785MOL0     H 8318  -0.080   2.740   5.022  0.5397  2.3074 -1.1714
  785MOL0     H 8319  -0.216   2.623   5.020 -0.6448  1.5606 -1.1254
  785MOL0     H 8320  -0.288   2.783   4.863 -3.9465 -4.4832  1.5484
  785MOL0     H 8321  -0.233   2.920   4.964  0.2085 -0.4486  2.1532
  785MOL0     H 8322  -0.457   2.734   5.039 -4.8198  1.5592  1.4988
  785MOL0     H 8323  -0.429   2.899   5.104 -3.2248  0.0317  0.8133
  785MOL0     H 8324  -0.479   2.960   4.832 -2.4804 -0.5791 -1.3682
  785MOL0     H 8325  -0.599   2.948   4.954 -0.0197 -1.4552  0.6168
  785MOL0     H 8326  -0.682   2.606   4.715  1.1505 -0.1284  1.6003
  785MOL0     H 8327  -0.136   2.467   5.225  0.4657 -0.6831  0.0412
  785MOL0     H 8328   0.105   2.341   5.468  0.7337  0.3640 -0.9460
  785MOL0     H 8329  -0.023   2.290   5.360  0.6466 -2.7343  4.7677
  785MOL0     H 8330   0.136   2.327   5.289  0.0173 -1.2556 -0.0407
  786MOL0     O 8331   9.109   0.614   5.803  0.1513 -0.6863 -0.4343
  786MOL0     C 8332   9.188   0.568   5.881  0.1570  0.1746 -0.6650
  786MOL0     O 8333   9.296   0.493   5.854  0.6617  0.0410  0.8023
  786MOL0     C 8334   9.324   0.445   5.729  0.3190 -0.5269  0.3416
  786MOL0     C 8335   9.428   0.490   5.648  0.9528 -1.3766  0.3976
  786MOL0     C 8336   9.474   0.402   5.550  0.3512  0.1266 -0.7936
  786MOL0     C 8337   9.410   0.280   5.517  0.3757  0.5769 -0.3572
  786MOL0     O 8338   9.486   0.179   5.451 -0.1550 -0.4513 -0.2609
  786MOL0     C 8339   9.443   0.158   5.317 -0.4904 -0.0223  1.0549
  786MOL0     C 8340   9.533   0.063   5.229 -0.2504 -0.3128 -0.2070
  786MOL0     C 8341   9.576  -0.065   5.291 -0.1629  0.6446 -0.1115
  786MOL0     C 8342   9.692  -0.131   5.212 -0.3754  1.6896 -0.1945
  786MOL0     C 8343   9.750  -0.261   5.285  0.1108  0.0673  0.0501
  786MOL0     C 8344   9.843  -0.233   5.396 -0.3007  0.5651 -1.0808
  786MOL0     C 8345   9.914  -0.361   5.439 -0.6913 -0.1675  0.0991
  786MOL0     C 8346   9.821  -0.468   5.507 -0.5109 -1.1264 -0.2059
  786MOL0     N 8347   9.881  -0.598   5.477 -0.2485  1.1232  0.3598
  786MOL0     C 8348   9.974  -0.679   5.551 -0.1230  0.5460 -0.1409
  786MOL0     C 8349   9.997  -0.787   5.481  0.7775  0.5977  0.2035
  786MOL0     C 8350  10.070  -0.911   5.527 -1.3129 -0.2764 -0.2354
  786MOL0     C 8351  10.173  -0.941   5.415 -0.1567  0.5186 -0.1399
  786MOL0     C 8352  10.290  -1.035   5.459 -0.4744 -0.1631  0.5707
  786MOL0     C 8353  10.400  -1.048   5.354 -0.1884  1.1570 -0.2807
  786MOL0     O 8354  10.523  -1.083   5.419 -0.8770  0.7539 -1.0905
  786MOL0     C 8355  10.641  -1.100   5.340  0.5397 -0.7312 -1.1491
  786MOL0     C 8356  10.761  -1.104   5.404  0.7536  0.1471  0.3223
  786MOL0     C 8357  10.881  -1.108   5.336  0.5571  0.6239 -0.4313
  786MOL0     C 8358  11.003  -1.108   5.432 -0.4039 -0.6339 -0.7144
  786MOL0     C 8359  10.884  -1.117   5.194  0.3600 -0.0594 -0.5925
  786MOL0     C 8360  11.009  -1.123   5.114  1.0237 -0.4046 -0.4176
  786MOL0     O 8361  11.118  -1.170   5.178  1.0554  0.0758 -0.2156
  786MOL0     C 8362  11.227  -1.214   5.113 -0.3284 -0.2222  0.1884
  786MOL0     C 8363  11.294  -1.321   5.181 -0.7268 -0.8391 -0.6925
  786MOL0     C 8364  11.419  -1.363   5.140 -0.5246 -0.2815 -0.1578
  786MOL0     C 8365  11.490  -1.308   5.040 -0.1493 -0.3554  1.3876
  786MOL0     O 8366  11.616  -1.359   5.020 -0.3797 -0.1161  0.1245
  786MOL0     C 8367  11.686  -1.322   4.894  0.0618 -0.3428 -0.1680
  786MOL0     C 8368  11.802  -1.421   4.871  0.1530  0.2579  0.1392
  786MOL0     C 8369  11.741  -1.562   4.841 -0.2183  1.5273  1.0223
  786MOL0     C 8370  11.775  -1.611   4.693  0.5418  0.1500  0.2436
  786MOL0     C 8371  11.923  -1.608   4.647 -0.8715  0.1338  0.5434
  786MOL0     C 8372  11.933  -1.655   4.500 -0.7230  0.6503 -0.4214
  786MOL0     C 8373  11.943  -1.806   4.492  0.4950  0.2145 -0.0401
  786MOL0     C 8374  11.859  -1.847   4.375 -0.0963 -0.3708 -0.0694
  786MOL0    Cl 8375  11.865  -2.016   4.363  0.3422  0.5056 -0.0382
  786MOL0     C 8376  11.425  -1.210   4.967  0.4981 -0.6632  0.0778
  786MOL0     C 8377  11.305  -1.157   5.009  1.0461 -0.2805  0.3034
  786MOL0     O 8378  11.004  -1.099   4.995 -0.7734  0.0505  0.7005
  786MOL0     C 8379  10.768  -1.101   5.119  0.4371 -0.3710 -0.9823
  786MOL0     C 8380  10.646  -1.090   5.193 -0.3499 -0.1603 -0.0835
  786MOL0     N 8381   9.911  -0.783   5.370 -0.3195 -0.2229 -0.5530
  786MOL0     N 8382   9.844  -0.675   5.365 -0.4862 -0.0199 -0.2279
  786MOL0     C 8383   9.307   0.237   5.603  0.5470  0.2764 -0.3903
  786MOL0     C 8384   9.254   0.332   5.698  0.1047 -0.0526 -1.0985
  786MOL0     C 8385   9.150   0.582   6.028 -0.0528 -0.6272  0.3250
  786MOL0     C 8386   9.176   0.476   6.107  0.1611  0.8103 -0.1839
  786MOL0     C 8387   9.147   0.469   6.245 -0.1885 -0.6608 -0.0604
  786MOL0     C 8388   9.093   0.576   6.311 -0.0575  1.4835  0.8132
  786MOL0     O 8389   9.055   0.582   6.442 -0.3000  0.1128 -0.6465
  786MOL0     C 8390   9.122   0.496   6.536 -0.6104 -0.6642 -0.1638
  786MOL0     C 8391   9.113   0.556   6.678 -0.0025 -0.7818  0.3550
  786MOL0     C 8392   9.231   0.652   6.706 -0.0102  0.8520  0.1811
  786MOL0     C 8393   9.215   0.730   6.833  0.1394 -0.5500 -0.3545
  786MOL0     C 8394   9.119   0.845   6.822 -0.6458 -0.1085 -0.1598
  786MOL0     C 8395   9.042   0.932   6.810  0.1163 -0.1230 -0.3873
  786MOL0     C 8396   9.055   0.685   6.229 -0.5665  0.8373  0.3712
  786MOL0     C 8397   9.082   0.688   6.093 -0.2227  0.3610  0.3496
  786MOL0     C 8398   9.037   0.805   6.015 -0.6741  0.0274  0.3622
  786MOL0     H 8399   9.478   0.584   5.667 -1.2228  0.0373 -0.4653
  786MOL0     H 8400   9.556   0.433   5.486 -0.3397  0.8217 -1.3660
  786MOL0     H 8401   9.474   0.250   5.268  3.1094 -3.1074 -3.3317
  786MOL0     H 8402   9.335   0.148   5.303 -0.0707  0.4624 -4.8510
  786MOL0     H 8403   9.478   0.043   5.136 -2.0504 -1.5886  1.0666
  786MOL0     H 8404   9.628   0.113   5.206  1.2675 -2.7284  0.3583
  786MOL0     H 8405   9.609  -0.048   5.394  0.2228 -3.3221  0.6072
  786MOL0     H 8406   9.499  -0.143   5.296  3.0552 -2.8434  0.1663
  786MOL0     H 8407   9.652  -0.159   5.114  0.4853  3.9612 -1.2547
  786MOL0     H 8408   9.768  -0.054   5.195  1.2220  0.0075 -1.0315
  786MOL0     H 8409   9.793  -0.331   5.213  1.6144  0.7610  0.2522
  786MOL0     H 8410   9.662  -0.307   5.330 -1.7640  2.8423 -0.4628
  786MOL0     H 8411   9.913  -0.155   5.365 -0.8837  0.2593 -3.3124
  786MOL0     H 8412   9.784  -0.192   5.479  2.2655  4.6579 -1.0100
  786MOL0     H 8413  10.000  -0.336   5.502  1.3245  1.1391 -2.9723
  786MOL0     H 8414   9.958  -0.409   5.351  1.0485 -2.5075  2.1006
  786MOL0     H 8415   9.822  -0.446   5.614  0.6129  3.1171 -0.8793
  786MOL0     H 8416   9.715  -0.464   5.481  0.0840 -0.5302 -2.8897
  786MOL0     H 8417  10.025  -0.661   5.645 -1.2045 -2.0086  1.0136
  786MOL0     H 8418  10.009  -0.998   5.551 -1.2287 -0.5046 -0.8443
  786MOL0     H 8419  10.134  -0.894   5.614 -0.6039 -2.1174 -0.3589
  786MOL0     H 8420  10.115  -0.977   5.329  1.4485  1.9342 -1.9111
  786MOL0     H 8421  10.227  -0.856   5.373 -0.2671 -0.3118 -2.0635
  786MOL0     H 8422  10.335  -1.004   5.554  0.0373 -0.1044  0.3118
  786MOL0     H 8423  10.234  -1.127   5.478  0.5631 -0.8387  0.4409
  786MOL0     H 8424  10.368  -1.133   5.293  2.9859  1.5954 -2.8748
  786MOL0     H 8425  10.419  -0.961   5.290  0.9002 -0.6641 -2.5926
  786MOL0     H 8426  10.757  -1.111   5.512  3.3835  1.7003  0.6143
  786MOL0     H 8427  11.059  -1.202   5.433  0.1329 -0.3846 -2.8263
  786MOL0     H 8428  10.975  -1.092   5.537 -0.9300 -0.7898 -0.8290
  786MOL0     H 8429  11.074  -1.027   5.410 -1.3664 -0.3469 -3.0382
  786MOL0     H 8430  11.262  -1.360   5.277 -0.4287  0.4068 -0.0611
  786MOL0     H 8431  11.465  -1.431   5.211 -1.5977 -0.0585  0.7839
  786MOL0     H 8432  11.607  -1.332   4.820 -2.4499  0.7931  2.1747
  786MOL0     H 8433  11.724  -1.219   4.898  2.4966 -1.2105  2.8367
  786MOL0     H 8434  11.860  -1.373   4.791  0.4100 -1.2006 -0.5932
  786MOL0     H 8435  11.881  -1.427   4.947  0.2263 -1.4634 -0.0319
  786MOL0     H 8436  11.632  -1.564   4.846 -0.3897  0.9516 -1.5671
  786MOL0     H 8437  11.785  -1.637   4.908 -1.5736 -0.9467 -0.6837
  786MOL0     H 8438  11.720  -1.558   4.615  2.6390  2.1954  0.0456
  786MOL0     H 8439  11.744  -1.716   4.688 -0.9342  0.5700 -0.1251
  786MOL0     H 8440  11.949  -1.502   4.658 -0.0699  0.1000 -0.8637
  786MOL0     H 8441  11.986  -1.660   4.720  0.5929 -1.3146 -1.6533
  786MOL0     H 8442  12.027  -1.620   4.454 -0.7613  0.1950 -0.8526
  786MOL0     H 8443  11.852  -1.610   4.442 -3.6646 -0.8107  2.2899
  786MOL0     H 8444  11.890  -1.864   4.569 -0.9434 -0.5724 -1.5777
  786MOL0     H 8445  12.047  -1.842   4.499  1.4581  2.2524 -2.4093
  786MOL0     H 8446  11.919  -1.806   4.293  2.9088  4.1187  3.8441
  786MOL0     H 8447  11.760  -1.800   4.379  0.0625  0.3418 -2.6694
  786MOL0     H 8448  11.483  -1.145   4.901 -1.2550  1.8125  0.8185
  786MOL0     H 8449  11.264  -1.067   4.963  1.3726 -1.5418 -2.6504
  786MOL0     H 8450  10.753  -1.084   5.013 -2.9900 -1.9412 -0.8809
  786MOL0     H 8451  10.557  -1.068   5.134  1.2104  1.7069 -1.8779
  786MOL0     H 8452   9.267   0.138   5.620 -0.3392  0.0331 -3.3945
  786MOL0     H 8453   9.182   0.292   5.769 -1.1430  1.3162 -1.5641
  786MOL0     H 8454   9.230   0.389   6.072  0.7648 -0.6290  3.8191
  786MOL0     H 8455   9.149   0.368   6.284 -2.4533 -1.1835 -1.1840
  786MOL0     H 8456   9.065   0.403   6.547 -0.6443 -0.8304 -1.5460
  786MOL0     H 8457   9.223   0.460   6.515 -0.3031  0.4321 -0.6156
  786MOL0     H 8458   9.122   0.464   6.737  2.2648  1.6495  4.1794
  786MOL0     H 8459   9.021   0.614   6.692  2.0639  2.9389 -0.1999
  786MOL0     H 8460   9.320   0.589   6.718 -0.0608  1.0680  1.9721
  786MOL0     H 8461   9.264   0.709   6.619  3.6891  0.6331  1.2643
  786MOL0     H 8462   9.314   0.770   6.856 -0.1616 -0.7084  1.3446
  786MOL0     H 8463   9.191   0.664   6.917  0.0087  0.0628  0.1016
  786MOL0     H 8464   8.984   1.021   6.793  1.5813  1.3436  1.6892
  786MOL0     H 8465   9.000   0.764   6.280  1.3983  1.5969  1.3950
  786MOL0     H 8466   8.958   0.798   5.941 -1.2765 -1.4823  1.1071
  786MOL0     H 8467   8.994   0.885   6.076  1.0696  1.2084  0.1229
  786MOL0     H 8468   9.121   0.842   5.955 -2.0287 -0.0556 -1.6400
  787MOL0     O 8469  10.415   8.840   8.270 -0.1749  0.0144  0.0215
  787MOL0     C 8470  10.463   8.855   8.158  0.9809 -0.6550 -0.5909
  787MOL0     O 8471  10.385   8.844   8.047 -1.0669  0.5319 -0.5341
  787MOL0     C 8472  10.270   8.769   8.036 -0.7813  0.2837  0.6112
  787MOL0     C 8473  10.154   8.822   8.084  0.2537 -0.3273  1.4097
  787MOL0     C 8474  10.043   8.733   8.072  0.3496 -0.1459  1.7042
  787MOL0     C 8475  10.051   8.611   8.009 -0.1408  0.9782 -0.1192
  787MOL0     O 8476   9.944   8.535   8.003  0.1617 -0.0159 -0.4993
  787MOL0     C 8477   9.916   8.451   7.890 -0.0853 -0.0846  0.4757
  787MOL0     C 8478   9.773   8.473   7.860 -0.8497 -0.0984  0.9639
  787MOL0     C 8479   9.758   8.627   7.823 -0.0099  0.1452  1.0916
  787MOL0     C 8480   9.638   8.658   7.727 -0.5931  0.1354  0.2675
  787MOL0     C 8481   9.560   8.784   7.763 -0.2378  0.0840  0.0276
  787MOL0     C 8482   9.497   8.859   7.647 -0.2132 -0.5976 -0.6199
  787MOL0     C 8483   9.386   8.956   7.687 -0.1945 -0.4490 -0.2365
  787MOL0     C 8484   9.433   9.080   7.777  0.2161  0.8101 -0.9489
  787MOL0     N 8485   9.515   9.171   7.690 -0.0510 -1.0704  0.0731
  787MOL0     C 8486   9.471   9.239   7.579  0.4036  0.0332  0.2887
  787MOL0     C 8487   9.577   9.307   7.532  0.5938  0.0419 -0.8174
  787MOL0     C 8488   9.571   9.389   7.414 -0.3848 -0.9821  0.0750
  787MOL0     C 8489   9.621   9.539   7.428  1.0899  0.3098 -0.7454
  787MOL0     C 8490   9.767   9.568   7.383 -0.0325  0.8962 -0.7048
  787MOL0     C 8491   9.826   9.690   7.454 -0.8776  0.6395 -0.1002
  787MOL0     O 8492   9.750   9.810   7.415  0.6384  0.0917 -0.0547
  787MOL0     C 8493   9.786   9.850   7.294 -0.3407 -0.9109 -0.0470
  787MOL0     C 8494   9.918   9.878   7.253 -0.2203 -0.0353  0.5002
  787MOL0     C 8495   9.954   9.929   7.130 -0.3319 -0.4504  0.4906
  787MOL0     C 8496  10.106   9.958   7.100 -0.0432  0.0953 -0.2696
  787MOL0     C 8497   9.853   9.968   7.036  0.7525 -0.2452 -0.4869
  787MOL0     C 8498   9.885  10.028   6.903 -0.9190  0.1221  0.8078
  787MOL0     O 8499   9.785  10.004   6.812 -0.8884 -0.2771 -0.0734
  787MOL0     C 8500   9.779  10.072   6.699  0.3603  0.8236  0.0996
  787MOL0     C 8501   9.783  10.211   6.685  0.2819  0.2773 -0.3728
  787MOL0     C 8502   9.759  10.271   6.563 -0.1912 -0.0313 -0.2080
  787MOL0     C 8503   9.721  10.185   6.455 -0.6422  0.8110 -0.2869
  787MOL0     O 8504   9.681  10.247   6.344  0.2406 -0.1551  0.3834
  787MOL0     C 8505   9.605  10.166   6.249  0.3965  0.4046 -0.0554
  787MOL0     C 8506   9.542  10.245   6.135 -0.4487  0.4838  0.6973
  787MOL0     C 8507   9.425  10.339   6.173  0.1813  0.4193 -1.1238
  787MOL0     C 8508   9.304  10.369   6.084 -0.0368  0.5072 -0.1861
  787MOL0     C 8509   9.266  10.232   6.031  0.7677 -1.1675 -0.5123
  787MOL0     C 8510   9.125  10.244   5.970  0.2385 -0.9869 -0.3440
  787MOL0     C 8511   9.090  10.131   5.867  0.8337 -0.1262 -0.6696
  787MOL0     C 8512   8.943  10.122   5.821  0.6308 -0.9260  0.7353
  787MOL0    Cl 8513   8.843  10.086   5.958  0.1319  0.2220 -0.2679
  787MOL0     C 8514   9.722  10.043   6.467  1.0475  0.0632  0.8053
  787MOL0     C 8515   9.754   9.992   6.586 -0.2526  0.6073 -0.5473
  787MOL0     O 8516   9.971  10.113   6.894  0.2582  0.2443 -0.0580
  787MOL0     C 8517   9.720   9.938   7.072  0.5927 -0.9398  0.4851
  787MOL0     C 8518   9.695   9.874   7.194 -0.2997 -0.0734 -0.7247
  787MOL0     N 8519   9.679   9.294   7.630 -0.4724 -0.6176 -0.1498
  787MOL0     N 8520   9.643   9.210   7.723  0.1688  0.5424  0.4806
  787MOL0     C 8521  10.173   8.554   7.965 -0.2440 -0.7997 -1.0959
  787MOL0     C 8522  10.291   8.640   7.996  0.0587  0.6204  0.0222
  787MOL0     C 8523  10.607   8.878   8.140 -0.7398  0.4206 -0.5168
  787MOL0     C 8524  10.682   8.871   8.256 -0.7623  0.0297 -1.8527
  787MOL0     C 8525  10.819   8.888   8.255  0.2195  1.0591  0.6614
  787MOL0     C 8526  10.890   8.924   8.137  0.6528 -0.1209 -0.0986
  787MOL0     O 8527  11.025   8.942   8.132 -0.5884 -0.1302  0.2966
  787MOL0     C 8528  11.103   8.827   8.155 -0.9867 -0.4612  0.8420
  787MOL0     C 8529  11.118   8.730   8.042 -0.0917 -0.2068 -0.1365
  787MOL0     C 8530  11.163   8.798   7.914  0.3301  0.2840  0.7322
  787MOL0     C 8531  11.307   8.843   7.911  0.5359  0.6232  0.4860
  787MOL0     C 8532  11.344   8.949   8.004 -0.2419  1.5494 -0.1491
  787MOL0     C 8533  11.372   9.030   8.090 -0.8938 -1.2011 -0.2090
  787MOL0     C 8534  10.812   8.933   8.021 -0.2518  0.5776  0.5469
  787MOL0     C 8535  10.674   8.902   8.018 -0.0007 -1.1691  0.8155
  787MOL0     C 8536  10.603   8.900   7.883 -0.3967 -0.7551  0.5633
  787MOL0     H 8537  10.145   8.911   8.145 -2.1388  0.0665  0.6194
  787MOL0     H 8538   9.948   8.765   8.113 -0.9610 -2.8057  0.9344
  787MOL0     H 8539   9.934   8.352   7.934 -0.3269  0.4409  1.8172
  787MOL0     H 8540   9.975   8.473   7.800 -1.1735  2.0989  0.2323
  787MOL0     H 8541   9.742   8.423   7.767 -2.3473  0.6562  1.0328
  787MOL0     H 8542   9.712   8.453   7.948  2.9447  0.4973  3.9760
  787MOL0     H 8543   9.749   8.691   7.911  1.5632  0.1664  1.2685
  787MOL0     H 8544   9.848   8.660   7.770 -2.0127  3.1307 -0.7560
  787MOL0     H 8545   9.674   8.685   7.627 -0.9160 -0.9514 -0.1580
  787MOL0     H 8546   9.564   8.578   7.720 -2.4510  1.9172 -3.0782
  787MOL0     H 8547   9.631   8.846   7.819  1.7264 -1.4036 -0.6953
  787MOL0     H 8548   9.481   8.770   7.838 -0.8721  0.7307 -0.5028
  787MOL0     H 8549   9.579   8.897   7.584 -0.5304 -1.5491 -1.6480
  787MOL0     H 8550   9.451   8.777   7.591 -0.3511 -1.3638  0.5956
  787MOL0     H 8551   9.314   8.898   7.746  1.1663  0.7390  2.8560
  787MOL0     H 8552   9.336   8.988   7.596  0.8142 -2.4457 -1.5886
  787MOL0     H 8553   9.340   9.133   7.800 -0.4316 -0.6911  0.1506
  787MOL0     H 8554   9.488   9.046   7.866 -0.6733  0.7696 -0.3948
  787MOL0     H 8555   9.377   9.259   7.529  0.8586  3.4719  0.5184
  787MOL0     H 8556   9.470   9.393   7.372  0.2007  0.2514 -1.2798
  787MOL0     H 8557   9.645   9.348   7.345 -1.1606  0.6750 -1.8401
  787MOL0     H 8558   9.566   9.610   7.364 -0.2926  1.5387  1.6710
  787MOL0     H 8559   9.598   9.582   7.526  2.1552  1.2120 -0.8702
  787MOL0     H 8560   9.832   9.485   7.414  0.1283  1.2096 -0.1942
  787MOL0     H 8561   9.785   9.584   7.276  0.9130  2.5803 -0.3262
  787MOL0     H 8562   9.819   9.679   7.562  2.1018  0.1343  0.1285
  787MOL0     H 8563   9.935   9.699   7.443 -0.6676 -1.2796 -0.0002
  787MOL0     H 8564  10.003   9.844   7.311 -2.1839 -2.4630  2.1899
  787MOL0     H 8565  10.171   9.936   7.185 -1.2760  0.4769  0.8235
  787MOL0     H 8566  10.123  10.065   7.085  3.0896 -0.0891  1.2580
  787MOL0     H 8567  10.138   9.896   7.017  3.8168 -0.9685  1.7875
  787MOL0     H 8568   9.799  10.268   6.776 -1.1626 -2.3776  1.7037
  787MOL0     H 8569   9.770  10.378   6.553 -0.4652 -0.0083 -0.2668
  787MOL0     H 8570   9.667  10.084   6.213  1.2108 -0.2927  2.7099
  787MOL0     H 8571   9.525  10.125   6.312 -0.5915  0.6225 -1.1324
  787MOL0     H 8572   9.621  10.289   6.073  0.5900 -0.5818  1.2292
  787MOL0     H 8573   9.517  10.168   6.061  2.4002  0.4609 -0.3638
  787MOL0     H 8574   9.468  10.431   6.213  1.4245  0.0067 -1.4731
  787MOL0     H 8575   9.380  10.290   6.260  2.7142 -0.3041 -0.1426
  787MOL0     H 8576   9.324  10.437   6.001 -2.3593  1.1976 -0.2256
  787MOL0     H 8577   9.220  10.404   6.144 -1.6019 -2.3242 -0.5592
  787MOL0     H 8578   9.323  10.206   5.941  0.6051  0.2198 -1.0534
  787MOL0     H 8579   9.264  10.154   6.107 -1.4096 -1.0220 -0.3724
  787MOL0     H 8580   9.124  10.344   5.926 -1.9388 -1.0153 -0.4491
  787MOL0     H 8581   9.050  10.245   6.049 -1.0121  0.7731 -1.4736
  787MOL0     H 8582   9.104  10.027   5.897  0.9624 -1.1525 -3.8935
  787MOL0     H 8583   9.155  10.156   5.783 -1.5949 -1.4846 -3.1260
  787MOL0     H 8584   8.922  10.056   5.736  3.6584 -0.8641 -0.1888
  787MOL0     H 8585   8.906  10.217   5.783  0.1327 -2.3676 -2.8236
  787MOL0     H 8586   9.699   9.972   6.388 -1.7220  3.0155 -1.3032
  787MOL0     H 8587   9.757   9.884   6.592  1.3942  0.5953 -1.1577
  787MOL0     H 8588   9.643   9.961   6.998  2.0350  1.5385 -0.3704
  787MOL0     H 8589   9.590   9.854   7.212 -0.3975  1.4542  0.6441
  787MOL0     H 8590  10.179   8.453   7.925  1.6365 -0.5243 -1.6087
  787MOL0     H 8591  10.387   8.604   7.962 -1.9767 -2.6488 -3.0212
  787MOL0     H 8592  10.642   8.858   8.356  2.8534  0.4580 -0.1775
  787MOL0     H 8593  10.878   8.860   8.342 -1.5452 -0.9796  1.2736
  787MOL0     H 8594  11.202   8.847   8.196  0.3427 -3.9104 -0.3698
  787MOL0     H 8595  11.046   8.773   8.231 -1.2066  0.3895  1.2924
  787MOL0     H 8596  11.022   8.680   8.032 -0.6387  0.3978  1.6021
  787MOL0     H 8597  11.192   8.655   8.074 -0.7262 -0.1435  1.5924
  787MOL0     H 8598  11.149   8.720   7.839  0.7234  2.7067 -2.0401
  787MOL0     H 8599  11.096   8.882   7.896  0.5821  0.1118 -1.1926
  787MOL0     H 8600  11.325   8.874   7.808  1.4871  3.7030  1.4767
  787MOL0     H 8601  11.376   8.760   7.928  1.0936  0.8498 -0.5795
  787MOL0     H 8602  11.391   9.096   8.173  2.2388 -2.1078 -0.0919
  787MOL0     H 8603  10.856   8.951   7.923 -0.7241 -1.0588  0.0059
  787MOL0     H 8604  10.661   8.950   7.804  0.1101  2.0102  2.5252
  787MOL0     H 8605  10.576   8.799   7.851  1.1663 -1.3124  0.9010
  787MOL0     H 8606  10.517   8.966   7.869  1.8062  1.9895 -1.0783
  788MOL0     O 8607   1.571   5.371   9.065 -0.3738 -0.0811  0.5971
  788MOL0     C 8608   1.570   5.480   9.022 -0.2089 -0.4389  0.5307
  788MOL0     O 8609   1.491   5.528   8.921 -0.2807 -0.5380 -0.7243
  788MOL0     C 8610   1.382   5.456   8.894 -1.1220  1.2127 -1.0142
  788MOL0     C 8611   1.380   5.374   8.783  0.5748  1.2371  0.8735
  788MOL0     C 8612   1.258   5.294   8.755 -0.7622 -0.4264 -0.3805
  788MOL0     C 8613   1.144   5.302   8.837  0.4953  0.7114 -0.2320
  788MOL0     O 8614   1.043   5.208   8.812  0.2436  0.3486 -0.1996
  788MOL0     C 8615   0.914   5.245   8.850  0.5899 -0.5043  0.1514
  788MOL0     C 8616   0.812   5.133   8.807  0.3218 -0.2585 -0.1186
  788MOL0     C 8617   0.828   4.998   8.887 -0.1341 -0.9865  1.1152
  788MOL0     C 8618   0.745   4.994   9.022 -0.0953  0.1997  0.6590
  788MOL0     C 8619   0.749   4.852   9.090 -0.5132 -0.8732  0.6548
  788MOL0     C 8620   0.664   4.735   9.033  0.2076  0.6373  0.6611
  788MOL0     C 8621   0.516   4.778   9.025 -0.4782  0.3788  0.0569
  788MOL0     C 8622   0.433   4.645   9.024 -0.5067 -0.2241  1.0501
  788MOL0     N 8623   0.292   4.661   8.994 -1.1706 -0.1524  0.9913
  788MOL0     C 8624   0.187   4.678   9.071 -0.1964  0.3302  0.1995
  788MOL0     C 8625   0.084   4.726   8.990 -0.0031 -0.3590 -0.3096
  788MOL0     C 8626  -0.052   4.758   9.041  0.1842 -0.0597  0.0228
  788MOL0     C 8627  -0.059   4.914   9.079 -0.9849 -0.8830 -1.2953
  788MOL0     C 8628  -0.186   4.978   9.041 -0.4439  0.1597 -0.3568
  788MOL0     C 8629  -0.312   4.895   9.074 -0.5522 -0.1812 -0.2495
  788MOL0     O 8630  -0.302   4.828   9.211 -0.7818  0.4091  0.2235
  788MOL0     C 8631  -0.346   4.886   9.321  0.2666 -1.3451  0.4532
  788MOL0     C 8632  -0.382   4.806   9.424  0.7204  0.6864 -0.0077
  788MOL0     C 8633  -0.423   4.851   9.550 -0.6220 -0.6843 -0.1086
  788MOL0     C 8634  -0.446   4.741   9.651  1.3177 -0.4493 -0.2294
  788MOL0     C 8635  -0.432   4.990   9.571 -0.2453 -0.6149 -0.2488
  788MOL0     C 8636  -0.474   5.056   9.697 -0.6583  0.2041  0.9073
  788MOL0     O 8637  -0.442   5.188   9.715  0.9120 -0.3596  0.8452
  788MOL0     C 8638  -0.508   5.281   9.810 -0.0866  1.1862 -0.2909
  788MOL0     C 8639  -0.451   5.400   9.846  0.3712 -0.8587 -1.2451
  788MOL0     C 8640  -0.515   5.485   9.946  0.5668  0.0528 -0.3784
  788MOL0     C 8641  -0.641   5.452  10.009  0.3365  1.5635 -0.1443
  788MOL0     O 8642  -0.700   5.523  10.104  0.3342  0.1524 -0.4835
  788MOL0     C 8643  -0.669   5.654  10.108  0.0597 -0.6622  1.0524
  788MOL0     C 8644  -0.774   5.714  10.207  0.5276 -0.7237  0.1901
  788MOL0     C 8645  -0.741   5.858  10.223  0.4347 -0.2392 -0.4205
  788MOL0     C 8646  -0.841   5.913  10.320 -0.2056  0.5402 -1.0990
  788MOL0     C 8647  -0.813   6.069  10.340 -0.1904 -0.2834 -0.1811
  788MOL0     C 8648  -0.911   6.123  10.443  0.8387 -0.8904  0.1145
  788MOL0     C 8649  -0.935   6.275  10.443  0.5575 -0.4024  0.1043
  788MOL0     C 8650  -1.055   6.318  10.539  0.0991 -0.3414  0.2926
  788MOL0    Cl 8651  -1.026   6.267  10.711  0.1629 -0.4839  0.1299
  788MOL0     C 8652  -0.695   5.320   9.967  0.2675  0.0034  0.3706
  788MOL0     C 8653  -0.638   5.242   9.862 -0.4006 -0.7272  0.9919
  788MOL0     O 8654  -0.530   4.989   9.782  0.4793 -0.6216  0.4377
  788MOL0     C 8655  -0.407   5.075   9.457 -0.6406 -0.0183  0.1616
  788MOL0     C 8656  -0.353   5.024   9.339 -0.7992 -0.1678  0.1428
  788MOL0     N 8657   0.139   4.716   8.861  1.0248 -0.4875  0.2934
  788MOL0     N 8658   0.257   4.673   8.867 -0.0971  0.7680 -0.2181
  788MOL0     C 8659   1.158   5.396   8.943 -0.6817  1.2089 -0.0952
  788MOL0     C 8660   1.268   5.471   8.969  0.3930 -0.0121  1.1481
  788MOL0     C 8661   1.689   5.558   9.066 -0.5101 -1.0155  0.2748
  788MOL0     C 8662   1.813   5.499   9.046 -0.5874 -0.2989 -0.2534
  788MOL0     C 8663   1.932   5.569   9.080 -0.0802  0.1137  0.0590
  788MOL0     C 8664   1.919   5.692   9.135 -0.4160 -0.0517 -0.3398
  788MOL0     O 8665   2.028   5.760   9.181  0.1183  0.2144  0.3157
  788MOL0     C 8666   2.127   5.784   9.093  0.6726 -0.1927  0.3473
  788MOL0     C 8667   2.250   5.717   9.146 -0.4450 -0.4105  0.2592
  788MOL0     C 8668   2.312   5.810   9.243  0.0022  0.0778 -0.3536
  788MOL0     C 8669   2.391   5.934   9.188  0.8003 -0.0135  0.5584
  788MOL0     C 8670   2.505   5.888   9.115 -0.3512 -1.0079  0.7269
  788MOL0     C 8671   2.606   5.854   9.066 -0.2334 -0.1124 -0.0199
  788MOL0     C 8672   1.793   5.753   9.151  0.3529  0.5850  0.0261
  788MOL0     C 8673   1.679   5.692   9.113  0.0216 -0.4056  0.3879
  788MOL0     C 8674   1.544   5.763   9.121  0.2485  0.3732  0.2349
  788MOL0     H 8675   1.473   5.365   8.728 -0.6762 -1.1877 -1.0046
  788MOL0     H 8676   1.255   5.230   8.667  4.8508 -2.0882  0.2592
  788MOL0     H 8677   0.893   5.332   8.786  2.7914 -1.7514 -2.4263
  788MOL0     H 8678   0.906   5.259   8.959 -2.1484 -1.5423  0.1542
  788MOL0     H 8679   0.709   5.169   8.807  0.8462  1.3285  0.6613
  788MOL0     H 8680   0.821   5.107   8.702 -1.4249 -0.9768 -0.1221
  788MOL0     H 8681   0.803   4.914   8.821  1.6988 -1.8578  1.4513
  788MOL0     H 8682   0.937   4.995   8.900  0.2976  3.0214 -0.2732
  788MOL0     H 8683   0.806   5.058   9.086  0.2315 -0.9644  1.5529
  788MOL0     H 8684   0.643   5.029   9.002 -0.0734  0.3534  0.8201
  788MOL0     H 8685   0.734   4.867   9.198 -2.0823 -1.9268  0.6260
  788MOL0     H 8686   0.852   4.820   9.076 -1.0052 -3.3455  2.0609
  788MOL0     H 8687   0.709   4.711   8.937  0.8513  0.5038  0.9931
  788MOL0     H 8688   0.674   4.658   9.111  0.4704  2.0899  2.1236
  788MOL0     H 8689   0.502   4.844   8.939 -0.3285 -3.5832 -3.2919
  788MOL0     H 8690   0.493   4.834   9.117  1.5127 -0.4190  1.1170
  788MOL0     H 8691   0.483   4.576   8.955 -2.0004  0.5126 -0.8366
  788MOL0     H 8692   0.434   4.599   9.123  1.3802  1.0365  1.6912
  788MOL0     H 8693   0.181   4.659   9.178 -0.5893 -1.7855 -0.1641
  788MOL0     H 8694  -0.060   4.702   9.134  0.5996 -1.7523 -0.9282
  788MOL0     H 8695  -0.134   4.725   8.976 -1.5267  1.8971  1.0681
  788MOL0     H 8696  -0.050   4.924   9.188  1.7457  0.0911 -1.5492
  788MOL0     H 8697   0.029   4.962   9.036 -1.5048  0.6914 -0.6632
  788MOL0     H 8698  -0.193   5.078   9.086  0.1263 -0.5181  1.3181
  788MOL0     H 8699  -0.183   4.989   8.932 -1.5819 -0.7431 -0.4963
  788MOL0     H 8700  -0.398   4.961   9.069 -1.7015 -1.6780 -0.9696
  788MOL0     H 8701  -0.337   4.822   8.997 -3.0545  0.3331  0.0067
  788MOL0     H 8702  -0.391   4.703   9.392 -3.0474  1.2669 -1.2824
  788MOL0     H 8703  -0.408   4.767   9.750 -0.2877 -0.3639  0.3992
  788MOL0     H 8704  -0.395   4.649   9.622  0.3684 -1.3335  0.7926
  788MOL0     H 8705  -0.552   4.714   9.644  1.0798  0.5016 -0.4539
  788MOL0     H 8706  -0.354   5.421   9.804  0.4491 -2.6738 -2.0485
  788MOL0     H 8707  -0.449   5.558   9.992  4.2710 -3.0701 -0.2309
  788MOL0     H 8708  -0.565   5.671  10.140  0.1594  0.1433  0.3258
  788MOL0     H 8709  -0.683   5.695  10.007  2.9234 -2.7739 -0.3696
  788MOL0     H 8710  -0.866   5.700  10.150 -0.2786 -1.0067  1.5336
  788MOL0     H 8711  -0.768   5.659  10.301  1.4697  2.3193  2.0614
  788MOL0     H 8712  -0.760   5.909  10.128 -1.8702 -1.7148 -0.8453
  788MOL0     H 8713  -0.640   5.891  10.248  0.4416  1.3802 -2.3022
  788MOL0     H 8714  -0.824   5.873  10.420  0.0375  0.9920 -0.9574
  788MOL0     H 8715  -0.946   5.896  10.297 -1.0005  2.9388  0.4703
  788MOL0     H 8716  -0.712   6.102  10.367  0.2813 -1.2305 -0.7420
  788MOL0     H 8717  -0.821   6.127  10.247  1.5109  2.7223  1.3779
  788MOL0     H 8718  -0.883   6.078  10.539  2.9547  2.7526  1.4058
  788MOL0     H 8719  -1.006   6.082  10.409  1.3216 -0.0882 -2.4197
  788MOL0     H 8720  -0.962   6.304  10.341  0.0163  2.9015  1.0687
  788MOL0     H 8721  -0.842   6.324  10.473  0.4189  0.3224 -0.6290
  788MOL0     H 8722  -1.144   6.263  10.505  1.4867 -1.3948 -1.8479
  788MOL0     H 8723  -1.075   6.425  10.534  2.7896  0.1778 -3.0554
  788MOL0     H 8724  -0.784   5.285  10.019  0.8564 -1.7950  0.2444
  788MOL0     H 8725  -0.687   5.149   9.834 -1.1403 -0.5272  1.5856
  788MOL0     H 8726  -0.433   5.181   9.453  3.0369  1.0113 -3.9247
  788MOL0     H 8727  -0.332   5.091   9.256  2.0913 -0.1294  0.8135
  788MOL0     H 8728   1.068   5.414   9.000 -1.1049  1.3471 -0.8059
  788MOL0     H 8729   1.257   5.538   9.053 -0.3224  0.5623  0.6083
  788MOL0     H 8730   1.818   5.393   9.026  2.1113 -0.5596  1.2545
  788MOL0     H 8731   2.031   5.527   9.067  0.2578  1.3071 -1.4272
  788MOL0     H 8732   2.111   5.745   8.992 -0.2578  0.3018  0.2888
  788MOL0     H 8733   2.129   5.894   9.089 -3.0711 -0.0157  0.3098
  788MOL0     H 8734   2.312   5.712   9.056  1.3066  2.4515  1.1951
  788MOL0     H 8735   2.231   5.620   9.192 -2.5864  0.3534  1.0991
  788MOL0     H 8736   2.238   5.845   9.316  2.6316  2.9769  1.1440
  788MOL0     H 8737   2.377   5.745   9.303  0.7777  1.5406  0.4524
  788MOL0     H 8738   2.437   5.988   9.272  5.9997  0.8967 -2.3859
  788MOL0     H 8739   2.331   6.012   9.141 -1.8641  0.5416  4.4401
  788MOL0     H 8740   2.707   5.826   9.042 -0.3237 -1.2874  0.9005
  788MOL0     H 8741   1.802   5.854   9.190 -2.2057 -0.1479  2.9097
  788MOL0     H 8742   1.552   5.836   9.040 -0.2126 -0.2155 -0.3586
  788MOL0     H 8743   1.453   5.701   9.113  0.9578 -0.5655 -0.8678
  788MOL0     H 8744   1.539   5.803   9.223  0.3659 -0.2647  0.4997
  789MOL0     O 8745   8.636   1.620   3.725  0.0795  0.4109  0.3308
  789MOL0     C 8746   8.626   1.528   3.804  0.4687  0.0175  0.0100
  789MOL0     O 8747   8.727   1.451   3.839 -0.1160 -0.0950 -0.3546
  789MOL0     C 8748   8.723   1.362   3.950 -0.4808  0.3130 -0.1035
  789MOL0     C 8749   8.649   1.243   3.961 -0.2403  0.8141 -0.1210
  789MOL0     C 8750   8.655   1.154   4.072  0.1622 -0.2771 -0.3359
  789MOL0     C 8751   8.731   1.194   4.195  0.1213 -0.6544  0.6082
  789MOL0     O 8752   8.732   1.125   4.317 -0.3906  0.1110  0.5160
  789MOL0     C 8753   8.664   1.201   4.416 -0.6613 -0.1401  0.3761
  789MOL0     C 8754   8.596   1.128   4.533 -1.0157 -0.3125 -0.3687
  789MOL0     C 8755   8.522   1.003   4.492  0.2234 -0.5312  0.4172
  789MOL0     C 8756   8.416   0.976   4.594 -0.4614 -0.3622 -0.5913
  789MOL0     C 8757   8.328   0.862   4.569 -0.6802 -0.1038  0.3685
  789MOL0     C 8758   8.404   0.730   4.573 -0.4595  0.2270 -0.5586
  789MOL0     C 8759   8.304   0.612   4.553  0.5117  0.3057  1.0700
  789MOL0     C 8760   8.366   0.486   4.485 -0.4514 -0.1395  0.7931
  789MOL0     N 8761   8.480   0.420   4.555  0.7293  0.1962  0.4100
  789MOL0     C 8762   8.602   0.464   4.541 -0.1307 -0.8685  1.0558
  789MOL0     C 8763   8.676   0.362   4.581  0.6357  0.1166  0.5723
  789MOL0     C 8764   8.830   0.369   4.580 -1.2811 -0.1894 -0.4715
  789MOL0     C 8765   8.882   0.394   4.724 -0.2060 -0.8047 -0.2912
  789MOL0     C 8766   9.030   0.399   4.731  0.2435 -1.1768  1.0780
  789MOL0     C 8767   9.083   0.460   4.860  0.4382  0.3933 -0.4187
  789MOL0     O 8768   9.227   0.473   4.851  0.0792  0.5850  0.2961
  789MOL0     C 8769   9.282   0.586   4.902  0.7169  0.7267  0.2943
  789MOL0     C 8770   9.299   0.613   5.040 -0.4602 -0.0206  0.6141
  789MOL0     C 8771   9.360   0.727   5.083  0.1671  0.0526  0.1803
  789MOL0     C 8772   9.379   0.758   5.234  0.3103  0.1886  0.1552
  789MOL0     C 8773   9.397   0.829   4.994 -0.0344  0.0685 -0.5887
  789MOL0     C 8774   9.464   0.958   5.035  0.4549 -0.3249  1.2400
  789MOL0     O 8775   9.481   1.038   4.913  0.3114 -0.2168 -0.0095
  789MOL0     C 8776   9.610   1.072   4.877 -0.8757 -1.2664  0.0441
  789MOL0     C 8777   9.719   1.120   4.954 -0.0805  0.0208  0.3612
  789MOL0     C 8778   9.844   1.156   4.895  0.1537 -0.3145  0.7778
  789MOL0     C 8779   9.857   1.149   4.753 -0.7083  0.2915 -0.5288
  789MOL0     O 8780   9.981   1.193   4.709  0.1953 -0.7855  0.3715
  789MOL0     C 8781  10.033   1.142   4.581  0.2681 -0.1979 -0.2881
  789MOL0     C 8782  10.176   1.101   4.591 -0.3951  0.4189 -0.5225
  789MOL0     C 8783  10.218   0.997   4.693 -0.5014 -0.8513  1.2589
  789MOL0     C 8784  10.248   1.060   4.832  0.1993  0.0568 -0.2525
  789MOL0     C 8785  10.186   0.970   4.946  0.1499 -0.0793  0.0503
  789MOL0     C 8786  10.223   0.822   4.940 -0.2276  0.5180  0.2889
  789MOL0     C 8787  10.199   0.746   5.074 -0.4407  2.3355 -0.4757
  789MOL0     C 8788  10.207   0.592   5.050 -0.7288  0.2627  0.0431
  789MOL0    Cl 8789  10.357   0.542   4.957  0.1562 -0.3680 -0.2994
  789MOL0     C 8790   9.751   1.103   4.678 -0.2877 -0.3585 -0.1273
  789MOL0     C 8791   9.630   1.071   4.736  0.0840  0.9576  0.3426
  789MOL0     O 8792   9.501   1.002   5.144  1.3621  0.1030 -0.0024
  789MOL0     C 8793   9.377   0.802   4.854  0.5816  0.6431  0.3604
  789MOL0     C 8794   9.314   0.680   4.808 -1.2903 -0.0915  0.2714
  789MOL0     N 8795   8.598   0.251   4.617 -0.0940 -0.0097  0.1150
  789MOL0     N 8796   8.480   0.295   4.617  0.8544  0.0799 -0.4521
  789MOL0     C 8797   8.806   1.315   4.182  0.2570  0.0601 -0.6340
  789MOL0     C 8798   8.804   1.394   4.062 -0.6909 -0.4537 -0.6571
  789MOL0     C 8799   8.487   1.507   3.859 -0.8165  0.2890 -0.0690
  789MOL0     C 8800   8.467   1.546   3.991  0.6308  0.0992  0.1279
  789MOL0     C 8801   8.343   1.557   4.051 -0.2237  0.0354  0.6307
  789MOL0     C 8802   8.225   1.533   3.972  0.4269 -0.1667  0.2422
  789MOL0     O 8803   8.105   1.537   4.048 -0.2179  0.0356  0.5542
  789MOL0     C 8804   7.987   1.474   3.995 -0.3518 -0.2820 -0.8000
  789MOL0     C 8805   7.867   1.522   4.067 -0.3116  0.0479  0.5244
  789MOL0     C 8806   7.749   1.422   4.048 -0.7198  0.0190 -0.9701
  789MOL0     C 8807   7.616   1.493   4.036  0.1061  0.0820 -0.0776
  789MOL0     C 8808   7.510   1.399   4.098 -0.0405  1.0027  0.1638
  789MOL0     C 8809   7.422   1.328   4.140  1.2341 -1.3200  0.2085
  789MOL0     C 8810   8.239   1.497   3.834 -0.5721  0.4440 -0.1912
  789MOL0     C 8811   8.369   1.479   3.783 -0.1898 -0.2553  0.8672
  789MOL0     C 8812   8.365   1.456   3.635 -1.3569 -0.1544 -0.4943
  789MOL0     H 8813   8.580   1.206   3.885 -0.3484 -1.3258  0.9225
  789MOL0     H 8814   8.598   1.063   4.085 -0.6240  0.2182 -0.2909
  789MOL0     H 8815   8.579   1.250   4.368  0.2668 -0.4475 -1.7108
  789MOL0     H 8816   8.736   1.279   4.442  0.9512 -1.3075 -0.3896
  789MOL0     H 8817   8.674   1.098   4.603  0.7778  2.1355 -1.1756
  789MOL0     H 8818   8.534   1.199   4.589  0.1947  1.9348 -1.6926
  789MOL0     H 8819   8.487   1.015   4.389  1.6641 -1.1986 -0.1701
  789MOL0     H 8820   8.602   0.930   4.486  0.3053 -0.4329  0.2967
  789MOL0     H 8821   8.466   0.959   4.690 -1.4501  2.1984  0.4828
  789MOL0     H 8822   8.361   1.068   4.620 -0.1673 -0.1158 -0.8376
  789MOL0     H 8823   8.274   0.886   4.477 -0.2036  0.7828  0.3030
  789MOL0     H 8824   8.250   0.862   4.645 -0.4943 -6.2542  1.0851
  789MOL0     H 8825   8.486   0.722   4.501  1.5021 -2.0660  1.7279
  789MOL0     H 8826   8.458   0.717   4.667  0.3992 -0.7877 -1.1576
  789MOL0     H 8827   8.218   0.650   4.496  2.2981  0.5121 -1.6940
  789MOL0     H 8828   8.259   0.591   4.650 -1.3212  1.5703  0.5604
  789MOL0     H 8829   8.283   0.415   4.480  1.5075 -2.5881  0.9498
  789MOL0     H 8830   8.390   0.514   4.382 -2.4696  0.6618  0.4992
  789MOL0     H 8831   8.636   0.558   4.500  2.1607 -2.7517 -1.8241
  789MOL0     H 8832   8.864   0.447   4.511  0.5731  0.3876  1.0200
  789MOL0     H 8833   8.873   0.278   4.539 -0.4760  1.0056 -2.4155
  789MOL0     H 8834   8.822   0.480   4.754 -1.4778 -1.5817 -0.5226
  789MOL0     H 8835   8.849   0.308   4.783 -2.6278  0.1050 -0.2386
  789MOL0     H 8836   9.072   0.298   4.732  2.6314 -0.2703  0.6040
  789MOL0     H 8837   9.084   0.441   4.646 -1.5633 -1.0723 -0.0537
  789MOL0     H 8838   9.026   0.550   4.884 -0.8605 -1.0861  2.5705
  789MOL0     H 8839   9.061   0.395   4.946  0.9750  1.5856  0.6468
  789MOL0     H 8840   9.264   0.537   5.110  3.8647 -3.0329 -0.0721
  789MOL0     H 8841   9.488   0.765   5.243  0.4596  0.6785 -1.6413
  789MOL0     H 8842   9.346   0.670   5.289  3.0495  0.4733  2.4674
  789MOL0     H 8843   9.330   0.851   5.266 -1.4355 -1.1858  1.7094
  789MOL0     H 8844   9.725   1.120   5.063  1.0774 -0.4402  0.3038
  789MOL0     H 8845   9.932   1.186   4.952 -1.0370  1.6251  1.7138
  789MOL0     H 8846   9.973   1.053   4.561  0.1702 -0.7250  2.1223
  789MOL0     H 8847  10.031   1.216   4.500 -0.7096  0.1394  0.0320
  789MOL0     H 8848  10.196   1.050   4.496 -1.0192 -1.1381  0.1513
  789MOL0     H 8849  10.242   1.188   4.593 -0.6352  0.7157 -2.8383
  789MOL0     H 8850  10.307   0.948   4.651 -0.7822 -1.8957  1.8425
  789MOL0     H 8851  10.140   0.921   4.699 -0.7191 -0.6801  0.5886
  789MOL0     H 8852  10.238   1.168   4.842  0.9136 -0.0409  2.1059
  789MOL0     H 8853  10.357   1.056   4.840  0.1360  0.9487  1.3543
  789MOL0     H 8854  10.216   1.009   5.044 -0.3579 -0.5931  0.4144
  789MOL0     H 8855  10.077   0.970   4.937  0.2512 -1.6808 -1.8018
  789MOL0     H 8856  10.328   0.807   4.916 -0.4749  0.3984 -0.7450
  789MOL0     H 8857  10.172   0.768   4.860 -0.2442 -0.5608  1.0033
  789MOL0     H 8858  10.109   0.778   5.129 -0.7871  4.4198 -2.1365
  789MOL0     H 8859  10.287   0.775   5.133  0.3664  0.1146 -0.5188
  789MOL0     H 8860  10.122   0.565   4.986 -0.1893 -1.5385  0.0477
  789MOL0     H 8861  10.191   0.546   5.148 -1.3495 -0.7558 -0.5153
  789MOL0     H 8862   9.759   1.103   4.570  0.3515 -0.4078 -0.0821
  789MOL0     H 8863   9.541   1.049   4.678 -1.3312 -0.4480  2.8800
  789MOL0     H 8864   9.392   0.872   4.772 -2.3217  2.6965  1.3944
  789MOL0     H 8865   9.310   0.663   4.700  2.5938  1.5771 -0.3033
  789MOL0     H 8866   8.859   1.363   4.264 -1.3561  0.8608 -0.0155
  789MOL0     H 8867   8.863   1.484   4.054 -1.5099  0.1392 -0.1599
  789MOL0     H 8868   8.558   1.578   4.040  0.9692 -2.2744  1.2054
  789MOL0     H 8869   8.332   1.579   4.157  0.1410 -0.4906  0.7874
  789MOL0     H 8870   7.964   1.483   3.889 -3.3080 -1.2224 -0.3324
  789MOL0     H 8871   7.998   1.369   4.022 -0.2265  0.0965  0.7400
  789MOL0     H 8872   7.846   1.622   4.029  0.5154  0.7527  1.8609
  789MOL0     H 8873   7.876   1.531   4.175 -1.0926  0.8885  0.5304
  789MOL0     H 8874   7.766   1.360   3.960 -1.8628  0.2926 -1.3915
  789MOL0     H 8875   7.749   1.361   4.139  1.1784  1.8616  0.3718
  789MOL0     H 8876   7.599   1.516   3.930  1.1772  0.1743 -0.2370
  789MOL0     H 8877   7.621   1.591   4.083  0.2607  1.4998 -2.8135
  789MOL0     H 8878   7.337   1.280   4.185  0.1853 -2.9760 -3.1948
  789MOL0     H 8879   8.147   1.493   3.776 -0.9975  5.7445 -0.3771
  789MOL0     H 8880   8.423   1.542   3.601 -1.1814  0.6792  1.7195
  789MOL0     H 8881   8.411   1.362   3.603  0.3984  0.4812  0.0688
  789MOL0     H 8882   8.265   1.459   3.592 -1.1335  1.3017 -0.9347
  790MOL0     O 8883   0.022   7.339   9.844 -0.4465  0.5593 -0.0087
  790MOL0     C 8884  -0.027   7.305   9.735 -0.0107 -0.3163  0.3890
  790MOL0     O 8885  -0.038   7.175   9.691  0.7147  0.2424  0.9699
  790MOL0     C 8886   0.037   7.066   9.739  0.4237  0.1686 -0.2624
  790MOL0     C 8887  -0.016   6.943   9.723 -0.4522  0.4166 -0.2881
  790MOL0     C 8888   0.052   6.834   9.771 -0.8553  0.4997  0.8244
  790MOL0     C 8889   0.177   6.837   9.824  0.1750 -0.3137 -0.8286
  790MOL0     O 8890   0.239   6.719   9.866  0.7259 -0.4394  0.3038
  790MOL0     C 8891   0.366   6.737   9.921  0.7305  0.4834  0.6730
  790MOL0     C 8892   0.437   6.601   9.952  0.3973 -0.6474 -0.5368
  790MOL0     C 8893   0.426   6.496   9.839  0.4814  0.3031 -0.3335
  790MOL0     C 8894   0.485   6.546   9.703  0.2424  0.1706  0.3665
  790MOL0     C 8895   0.637   6.504   9.686 -0.4002 -0.4334 -0.1457
  790MOL0     C 8896   0.705   6.593   9.580 -0.2250 -0.1284  0.2327
  790MOL0     C 8897   0.852   6.553   9.557  0.9129 -0.4520  0.8853
  790MOL0     C 8898   0.899   6.627   9.429 -0.1529  0.9836  0.4939
  790MOL0     N 8899   1.030   6.592   9.380  0.6476  0.6930 -0.3693
  790MOL0     C 8900   1.110   6.671   9.313  0.1638 -1.2717  0.6039
  790MOL0     C 8901   1.226   6.600   9.314  0.2356 -0.1512  0.5994
  790MOL0     C 8902   1.356   6.644   9.241 -0.4586  0.6155  0.1531
  790MOL0     C 8903   1.435   6.735   9.342 -0.9770 -0.0868  0.7583
  790MOL0     C 8904   1.368   6.864   9.397  0.2773 -0.9016  0.1353
  790MOL0     C 8905   1.480   6.958   9.446 -0.5805  0.3090 -0.2391
  790MOL0     O 8906   1.573   6.896   9.544 -0.6897  0.3603 -0.3794
  790MOL0     C 8907   1.660   6.960   9.628  0.2494 -0.0965 -0.0138
  790MOL0     C 8908   1.650   7.095   9.654  0.4073  0.0165  0.8965
  790MOL0     C 8909   1.757   7.170   9.715  0.0699  0.6407 -0.4666
  790MOL0     C 8910   1.721   7.309   9.755 -0.3837  0.3720  0.5540
  790MOL0     C 8911   1.868   7.101   9.771 -0.0728 -0.0030  0.1430
  790MOL0     C 8912   1.972   7.148   9.870  1.1363 -0.2916  0.9767
  790MOL0     O 8913   1.936   7.241   9.963  0.3450  0.2592  0.0867
  790MOL0     C 8914   2.032   7.319  10.038 -0.8143  0.9996 -0.0688
  790MOL0     C 8915   2.140   7.257  10.109  0.0065  0.5894  0.3450
  790MOL0     C 8916   2.229   7.328  10.190  0.4237  0.1937  0.9727
  790MOL0     C 8917   2.201   7.460  10.216  0.6445 -1.2659  0.1175
  790MOL0     O 8918   2.286   7.529  10.292 -0.6471 -0.6818  0.6757
  790MOL0     C 8919   2.390   7.472  10.376  0.8032  0.2692 -0.1605
  790MOL0     C 8920   2.521   7.475  10.301 -0.1576 -0.2172  0.3314
  790MOL0     C 8921   2.586   7.612  10.315 -0.2747  1.1494  0.0285
  790MOL0     C 8922   2.733   7.614  10.266  0.1041  0.1996  0.1072
  790MOL0     C 8923   2.805   7.752  10.282  0.1312  0.8167 -0.0789
  790MOL0     C 8924   2.782   7.830  10.411  0.2486 -0.9610  0.1322
  790MOL0     C 8925   2.875   7.768  10.524  0.3203 -0.0578  0.0703
  790MOL0     C 8926   2.893   7.857  10.655 -0.7433 -1.1352  0.1251
  790MOL0    Cl 8927   2.739   7.904  10.714 -0.0538 -0.4258 -0.6447
  790MOL0     C 8928   2.096   7.527  10.144 -0.1137  0.1669 -0.4856
  790MOL0     C 8929   2.010   7.446  10.060 -0.9018  0.1027 -0.3504
  790MOL0     O 8930   2.083   7.116   9.835  0.5057 -0.0695 -1.1205
  790MOL0     C 8931   1.877   6.965   9.747  0.4908 -0.3822  0.6655
  790MOL0     C 8932   1.769   6.898   9.671  0.1883  0.8059 -0.0368
  790MOL0     N 8933   1.210   6.485   9.386  0.6672  0.1935  0.2797
  790MOL0     N 8934   1.085   6.469   9.421  1.3264 -0.3063  0.0128
  790MOL0     C 8935   0.240   6.960   9.832  0.7171  0.0491 -1.2128
  790MOL0     C 8936   0.166   7.073   9.793 -0.3861 -0.0096 -0.3413
  790MOL0     C 8937  -0.103   7.402   9.653 -0.2562  0.0577 -0.8116
  790MOL0     C 8938  -0.201   7.354   9.566  1.7775 -0.2503 -0.3446
  790MOL0     C 8939  -0.278   7.435   9.483 -0.5274  0.5877  0.3649
  790MOL0     C 8940  -0.249   7.574   9.482  0.5667  0.6183  0.7305
  790MOL0     O 8941  -0.329   7.666   9.414  0.9854  0.8159 -0.3144
  790MOL0     C 8942  -0.434   7.721   9.494 -0.2298 -0.0410 -0.2731
  790MOL0     C 8943  -0.391   7.865   9.532 -0.2185 -0.2349  0.3345
  790MOL0     C 8944  -0.507   7.947   9.563 -0.4233 -0.2006 -0.4999
  790MOL0     C 8945  -0.465   8.093   9.581  0.5103 -0.0225 -0.6818
  790MOL0     C 8946  -0.574   8.171   9.643  0.7870 -0.6305  0.5391
  790MOL0     C 8947  -0.718   8.287   9.704 -0.2695 -1.0397 -0.6705
  790MOL0     C 8948  -0.145   7.622   9.561  0.3321 -0.0363  1.0726
  790MOL0     C 8949  -0.065   7.538   9.636 -0.5831  0.6509  0.4646
  790MOL0     C 8950   0.030   7.608   9.720 -0.5772  0.1846 -1.4818
  790MOL0     H 8951  -0.115   6.931   9.679  1.0063  0.9572 -4.0367
  790MOL0     H 8952   0.004   6.738   9.785 -2.0332  1.2034  1.7626
  790MOL0     H 8953   0.350   6.788  10.016  1.2805 -0.2046  1.1400
  790MOL0     H 8954   0.432   6.796   9.856  0.5969 -0.3885 -0.2779
  790MOL0     H 8955   0.543   6.611   9.977  0.1214 -5.9092  5.3671
  790MOL0     H 8956   0.383   6.564  10.040 -2.3639  1.4321 -1.2522
  790MOL0     H 8957   0.454   6.394   9.867  1.1934 -0.7797 -4.4048
  790MOL0     H 8958   0.318   6.486   9.824  0.6298  0.9135 -2.0284
  790MOL0     H 8959   0.432   6.507   9.616  1.3972  0.1836 -0.3712
  790MOL0     H 8960   0.476   6.655   9.704 -0.4255  0.1166  1.4949
  790MOL0     H 8961   0.637   6.396   9.670 -2.9589 -0.1784 -2.5716
  790MOL0     H 8962   0.696   6.526   9.776 -1.6422  1.5145  0.2524
  790MOL0     H 8963   0.654   6.586   9.484 -2.8214  1.4868  1.3649
  790MOL0     H 8964   0.708   6.697   9.615  2.5764 -0.3169  0.8320
  790MOL0     H 8965   0.851   6.444   9.551  0.5343 -0.4756  1.3328
  790MOL0     H 8966   0.920   6.582   9.637  2.4008 -0.5445 -0.3072
  790MOL0     H 8967   0.835   6.620   9.340  0.8001 -0.2426 -0.1244
  790MOL0     H 8968   0.898   6.731   9.463 -0.5284 -0.3873  5.2958
  790MOL0     H 8969   1.079   6.761   9.260 -1.1720 -1.0528  1.6899
  790MOL0     H 8970   1.335   6.707   9.154  1.6519 -0.2623 -1.0506
  790MOL0     H 8971   1.408   6.549   9.225 -1.4922 -1.2075  5.5329
  790MOL0     H 8972   1.467   6.674   9.427 -1.3836 -0.1639  0.8567
  790MOL0     H 8973   1.522   6.772   9.287 -1.9297  2.4067  0.8269
  790MOL0     H 8974   1.314   6.909   9.314 -0.2014  0.6398  1.2473
  790MOL0     H 8975   1.293   6.842   9.474  0.3061  0.4214  0.5609
  790MOL0     H 8976   1.536   7.007   9.365  0.4055  0.0249  0.2549
  790MOL0     H 8977   1.431   7.042   9.497 -0.1879 -0.7482  2.0106
  790MOL0     H 8978   1.573   7.160   9.614  1.4574  0.0090 -1.3446
  790MOL0     H 8979   1.668   7.358   9.673  0.6585  1.7006  0.6475
  790MOL0     H 8980   1.812   7.367   9.771 -0.3259  0.3290  0.3886
  790MOL0     H 8981   1.658   7.309   9.845 -2.6868  2.3821 -0.9449
  790MOL0     H 8982   2.154   7.153  10.084 -2.3063  0.3579 -0.1381
  790MOL0     H 8983   2.300   7.270  10.249  1.9524  0.1347 -0.8161
  790MOL0     H 8984   2.399   7.536  10.465 -0.6624 -1.9113  1.6716
  790MOL0     H 8985   2.373   7.371  10.415  3.3995 -0.6066 -1.0495
  790MOL0     H 8986   2.576   7.396  10.354  3.7434  0.8807 -1.6943
  790MOL0     H 8987   2.509   7.460  10.194 -3.7815 -1.2022  0.7397
  790MOL0     H 8988   2.576   7.663  10.411  2.3894  1.1000  0.3945
  790MOL0     H 8989   2.533   7.682  10.250 -0.6811  1.4403  0.6623
  790MOL0     H 8990   2.739   7.577  10.163 -1.9992 -4.1919  1.3196
  790MOL0     H 8991   2.784   7.553  10.340 -1.5366  0.4097  1.4627
  790MOL0     H 8992   2.910   7.733  10.254 -0.5986 -0.9797 -1.8216
  790MOL0     H 8993   2.769   7.811  10.197  0.2314  0.1314 -0.6108
  790MOL0     H 8994   2.679   7.835  10.446  0.7253  1.8777  1.3981
  790MOL0     H 8995   2.806   7.935  10.391  3.2497 -1.7176 -0.8547
  790MOL0     H 8996   2.972   7.752  10.477  0.8159  1.3125  0.5963
  790MOL0     H 8997   2.826   7.675  10.556  1.8024 -0.3683  1.5886
  790MOL0     H 8998   2.955   7.946  10.639 -0.5767 -0.7791  2.4476
  790MOL0     H 8999   2.941   7.800  10.735  0.9774  1.4933  1.1060
  790MOL0     H 9000   2.072   7.632  10.153 -0.8801  0.0185 -0.8020
  790MOL0     H 9001   1.928   7.491  10.005  1.2330  1.5959 -2.5395
  790MOL0     H 9002   1.941   6.886   9.785 -0.1840 -3.0531 -3.1149
  790MOL0     H 9003   1.788   6.795   9.645 -0.5918  0.3452  1.1239
  790MOL0     H 9004   0.337   6.985   9.874 -0.8852 -0.1358  3.1183
  790MOL0     H 9005   0.213   7.171   9.791 -2.3462  0.9669 -0.9794
  790MOL0     H 9006  -0.241   7.254   9.574  2.6846 -0.6384 -0.5740
  790MOL0     H 9007  -0.351   7.398   9.411  2.6199 -1.8121 -1.9275
  790MOL0     H 9008  -0.530   7.721   9.442 -0.9546  0.6710  1.0173
  790MOL0     H 9009  -0.431   7.668   9.590  3.6238  0.0599 -0.1871
  790MOL0     H 9010  -0.330   7.902   9.449  0.8967 -1.6267  0.5033
  790MOL0     H 9011  -0.319   7.863   9.614  2.5975 -0.5996 -1.9812
  790MOL0     H 9012  -0.575   7.941   9.478 -0.1222 -1.1797 -0.6797
  790MOL0     H 9013  -0.559   7.896   9.644 -0.9331 -1.6204 -1.6748
  790MOL0     H 9014  -0.435   8.146   9.490 -0.4790  1.5084 -0.1619
  790MOL0     H 9015  -0.379   8.086   9.648 -2.3652 -2.5556  3.1027
  790MOL0     H 9016  -0.799   8.352   9.727  1.0401  0.3851  0.1166
  790MOL0     H 9017  -0.134   7.730   9.552 -0.6435  0.1571  1.9200
  790MOL0     H 9018   0.077   7.690   9.665 -0.8857 -0.1593 -2.2780
  790MOL0     H 9019  -0.010   7.654   9.811  3.9864  0.9834  0.3800
  790MOL0     H 9020   0.119   7.553   9.749 -1.8002 -0.2377  1.8926
  791MOL0     O 9021   6.940   2.747   4.417 -0.6123 -0.5836  0.2300
  791MOL0     C 9022   6.862   2.682   4.485  0.2763 -0.0733 -0.7484
  791MOL0     O 9023   6.759   2.620   4.441  0.2205 -0.3506  0.1154
  791MOL0     C 9024   6.753   2.604   4.302 -0.3462 -0.3128  0.1012
  791MOL0     C 9025   6.636   2.643   4.229  1.3375  0.2143  0.3711
  791MOL0     C 9026   6.633   2.647   4.082  0.8635 -0.4950  1.0340
  791MOL0     C 9027   6.746   2.595   4.016  0.6299 -0.8777  0.0147
  791MOL0     O 9028   6.754   2.593   3.877  1.2164  0.8493  0.7626
  791MOL0     C 9029   6.631   2.536   3.808 -0.3257  0.8703 -0.2764
  791MOL0     C 9030   6.581   2.653   3.710  0.1764  0.2981  0.1656
  791MOL0     C 9031   6.683   2.681   3.605 -0.5727 -0.2024  0.4428
  791MOL0     C 9032   6.628   2.784   3.502 -0.7619  0.1414  0.6089
  791MOL0     C 9033   6.714   2.799   3.378  0.0474  0.1741  0.1824
  791MOL0     C 9034   6.831   2.886   3.398 -0.3746  1.0733  0.4579
  791MOL0     C 9035   6.960   2.820   3.344 -0.1308  0.0298 -0.2407
  791MOL0     C 9036   7.086   2.901   3.360 -0.5961  0.3379 -0.2821
  791MOL0     N 9037   7.205   2.836   3.303 -0.0844  0.4773 -0.4390
  791MOL0     C 9038   7.200   2.776   3.178 -0.4258 -0.7480  0.0669
  791MOL0     C 9039   7.330   2.773   3.138  0.1889  0.4598  0.4159
  791MOL0     C 9040   7.378   2.705   3.011 -0.1617 -0.6249  0.0088
  791MOL0     C 9041   7.376   2.807   2.889  0.3644 -0.0719  0.5437
  791MOL0     C 9042   7.392   2.747   2.746  0.6638  0.1412 -0.0803
  791MOL0     C 9043   7.397   2.852   2.635  0.5987  0.7946  0.5208
  791MOL0     O 9044   7.307   2.966   2.651  0.7234 -0.4132  0.1387
  791MOL0     C 9045   7.175   2.959   2.619  0.2283  0.4282  0.4050
  791MOL0     C 9046   7.107   3.079   2.641  0.3220 -1.1675 -0.2962
  791MOL0     C 9047   6.970   3.103   2.604  0.4623  1.2915  0.6928
  791MOL0     C 9048   6.910   3.239   2.637 -0.6922 -0.6336  0.2403
  791MOL0     C 9049   6.901   2.987   2.547  0.9641 -0.4411  0.2634
  791MOL0     C 9050   6.760   2.989   2.505  0.7406  0.6214  0.6236
  791MOL0     O 9051   6.718   2.888   2.419 -0.1448  0.0479 -0.4773
  791MOL0     C 9052   6.604   2.917   2.351 -0.1328  1.0192  1.1236
  791MOL0     C 9053   6.601   3.008   2.245 -0.3967 -0.3135  0.6782
  791MOL0     C 9054   6.474   3.026   2.184 -0.4928  0.3672 -0.3145
  791MOL0     C 9055   6.363   2.951   2.226 -0.7299 -0.8608  1.0692
  791MOL0     O 9056   6.240   2.979   2.180  0.0912  0.2977  0.2337
  791MOL0     C 9057   6.150   3.041   2.274  0.2247  0.1225 -0.2951
  791MOL0     C 9058   6.024   2.957   2.301 -1.2662 -0.0926  0.4114
  791MOL0     C 9059   5.960   2.921   2.168 -0.4028 -0.5305  0.6154
  791MOL0     C 9060   5.842   2.819   2.183 -0.7080 -0.5044 -0.1311
  791MOL0     C 9061   5.702   2.890   2.226 -1.2442  0.8865  0.8795
  791MOL0     C 9062   5.660   3.010   2.140  0.2784  0.9016 -0.1296
  791MOL0     C 9063   5.510   3.038   2.149  0.7374  0.1617 -0.0928
  791MOL0     C 9064   5.462   3.072   2.291  1.1442 -0.1889  0.3467
  791MOL0    Cl 9065   5.305   3.153   2.259 -0.1337  0.0773 -0.6660
  791MOL0     C 9066   6.369   2.852   2.322  0.0118 -0.5188  0.9309
  791MOL0     C 9067   6.490   2.841   2.387  0.8585 -0.3944  0.0632
  791MOL0     O 9068   6.684   3.072   2.553  0.3125 -0.5640  0.1366
  791MOL0     C 9069   6.974   2.872   2.529  0.2456  0.4854 -0.4302
  791MOL0     C 9070   7.103   2.851   2.560  0.1598  0.6848 -0.0612
  791MOL0     N 9071   7.405   2.848   3.231  0.6583  1.0741 -0.4695
  791MOL0     N 9072   7.327   2.888   3.322  0.1909 -0.4196 -0.5658
  791MOL0     C 9073   6.853   2.543   4.084  0.8748 -0.1447  0.6851
  791MOL0     C 9074   6.859   2.550   4.222  0.5116 -0.2616 -0.4054
  791MOL0     C 9075   6.867   2.709   4.631  0.1968 -0.2214  0.6596
  791MOL0     C 9076   6.751   2.688   4.706 -0.0709  0.2747 -0.2030
  791MOL0     C 9077   6.738   2.718   4.838  0.2158 -0.0595  0.4235
  791MOL0     C 9078   6.849   2.766   4.904 -0.4672  0.7689  0.0548
  791MOL0     O 9079   6.860   2.790   5.038 -0.2410  0.3356 -0.1490
  791MOL0     C 9080   6.748   2.802   5.117  0.2204 -0.1146 -1.1970
  791MOL0     C 9081   6.791   2.840   5.258 -0.3395 -0.0488 -0.2982
  791MOL0     C 9082   6.877   2.723   5.306 -0.0166 -0.5733 -0.0196
  791MOL0     C 9083   6.946   2.748   5.439 -0.5148  0.4294 -0.3653
  791MOL0     C 9084   6.854   2.782   5.551  0.0751 -1.0028  0.6380
  791MOL0     C 9085   6.779   2.819   5.630  0.4797 -0.4302 -0.6663
  791MOL0     C 9086   6.970   2.791   4.845 -0.0278 -0.9826  0.4479
  791MOL0     C 9087   6.980   2.755   4.703 -0.0223 -0.2768 -0.4036
  791MOL0     C 9088   7.118   2.765   4.633 -0.4259  0.4565  0.1618
  791MOL0     H 9089   6.554   2.681   4.288 -2.0839 -2.3900 -2.2527
  791MOL0     H 9090   6.549   2.674   4.020  2.2602 -1.2042 -1.2801
  791MOL0     H 9091   6.554   2.512   3.882  0.3239  0.1640  0.1738
  791MOL0     H 9092   6.654   2.452   3.742 -1.8018  0.6202 -0.5158
  791MOL0     H 9093   6.491   2.614   3.661  0.3403 -2.2125  1.7016
  791MOL0     H 9094   6.558   2.749   3.758 -2.6596 -1.1958  2.0726
  791MOL0     H 9095   6.774   2.729   3.645  1.0380  1.8505 -4.8698
  791MOL0     H 9096   6.720   2.588   3.561 -1.2813 -0.3788  0.2065
  791MOL0     H 9097   6.530   2.749   3.470  0.2527 -0.2655 -2.3375
  791MOL0     H 9098   6.617   2.880   3.553  0.7049  0.4903  0.3267
  791MOL0     H 9099   6.642   2.834   3.304  0.3246  2.3700  0.8838
  791MOL0     H 9100   6.730   2.696   3.345 -2.2613 -0.3578  0.5826
  791MOL0     H 9101   6.809   2.981   3.348 -3.2195 -0.2155 -0.9860
  791MOL0     H 9102   6.839   2.901   3.506 -2.7154 -1.8207  1.1660
  791MOL0     H 9103   6.945   2.816   3.235  1.0792  0.9372 -0.4687
  791MOL0     H 9104   6.978   2.716   3.374  0.4048 -0.8316 -3.2018
  791MOL0     H 9105   7.073   2.999   3.313 -0.0358  2.8611  4.2624
  791MOL0     H 9106   7.107   2.915   3.467  2.0368  0.4771 -0.7548
  791MOL0     H 9107   7.113   2.744   3.122  0.4143 -3.0563 -0.0274
  791MOL0     H 9108   7.307   2.624   2.989 -3.4013  1.6631  1.2085
  791MOL0     H 9109   7.478   2.665   3.029 -0.0110 -0.6805 -0.9173
  791MOL0     H 9110   7.288   2.872   2.895  0.1793 -0.1399 -1.0725
  791MOL0     H 9111   7.454   2.881   2.911 -0.2644  0.1401  2.1941
  791MOL0     H 9112   7.484   2.688   2.753 -1.4997 -3.3492  2.1298
  791MOL0     H 9113   7.300   2.689   2.732 -0.9385  2.4212  0.4174
  791MOL0     H 9114   7.494   2.902   2.629  0.3099  1.6297  2.3572
  791MOL0     H 9115   7.382   2.810   2.535 -1.0502 -2.0710  1.8478
  791MOL0     H 9116   7.174   3.159   2.671 -1.3310 -0.2013  1.0509
  791MOL0     H 9117   6.857   3.272   2.547 -2.1269  0.2667  1.3692
  791MOL0     H 9118   6.995   3.301   2.665 -0.6838 -1.3824  1.9826
  791MOL0     H 9119   6.837   3.230   2.717 -0.8957 -1.0788  0.0110
  791MOL0     H 9120   6.686   3.067   2.215 -2.0563  0.3070 -3.3847
  791MOL0     H 9121   6.468   3.110   2.117  1.4195 -2.3175 -4.2494
  791MOL0     H 9122   6.188   3.071   2.372 -3.6277  2.4415  0.7032
  791MOL0     H 9123   6.119   3.137   2.232  2.0221  1.6201  1.6207
  791MOL0     H 9124   6.057   2.864   2.349 -4.3939 -1.5294  0.0329
  791MOL0     H 9125   5.958   3.003   2.375 -0.7697 -1.1672  1.5570
  791MOL0     H 9126   6.041   2.869   2.117 -1.7828 -1.0625 -1.1514
  791MOL0     H 9127   5.917   3.007   2.114  1.6499  0.1756  0.0159
  791MOL0     H 9128   5.886   2.746   2.252  1.6642  0.0210 -0.9960
  791MOL0     H 9129   5.833   2.775   2.083 -1.5555  1.5902 -1.0301
  791MOL0     H 9130   5.623   2.814   2.223  0.8164 -1.4072 -2.3073
  791MOL0     H 9131   5.729   2.924   2.326  2.6018 -0.8329  0.6215
  791MOL0     H 9132   5.677   2.997   2.032  3.3303 -0.1874  0.3868
  791MOL0     H 9133   5.703   3.098   2.189 -1.0090  0.6061  1.6055
  791MOL0     H 9134   5.459   2.944   2.128 -0.9869  1.5626 -2.6866
  791MOL0     H 9135   5.471   3.117   2.083 -1.8870 -1.1346 -0.2072
  791MOL0     H 9136   5.527   3.149   2.335  0.2300 -1.1537  3.6516
  791MOL0     H 9137   5.464   2.977   2.345 -1.9123 -0.5499 -0.0513
  791MOL0     H 9138   6.289   2.781   2.338 -0.3395 -0.3415  0.0170
  791MOL0     H 9139   6.504   2.767   2.465  0.7855 -0.0745  0.3838
  791MOL0     H 9140   6.924   2.783   2.493  2.4021 -0.7532 -0.4894
  791MOL0     H 9141   7.145   2.752   2.542  0.6456  1.0550 -1.0641
  791MOL0     H 9142   6.933   2.519   4.015 -0.9933 -1.0900 -1.2728
  791MOL0     H 9143   6.953   2.517   4.265  0.2695 -1.9466 -1.0912
  791MOL0     H 9144   6.663   2.637   4.667  0.3791 -2.2950  1.8291
  791MOL0     H 9145   6.648   2.687   4.891 -0.5555 -1.8031 -1.7337
  791MOL0     H 9146   6.681   2.876   5.074  0.2567 -0.0135 -1.0772
  791MOL0     H 9147   6.695   2.706   5.118 -1.7294  0.9043 -1.8281
  791MOL0     H 9148   6.709   2.862   5.328 -2.0411 -1.4884 -1.7404
  791MOL0     H 9149   6.847   2.934   5.251 -2.4728  1.5253  2.0090
  791MOL0     H 9150   6.811   2.635   5.299 -0.1664 -0.3953 -0.9049
  791MOL0     H 9151   6.957   2.709   5.234 -0.3627 -2.0364 -0.1668
  791MOL0     H 9152   7.025   2.820   5.420 -2.8609  2.8838 -1.5303
  791MOL0     H 9153   6.994   2.654   5.468  0.1640  0.6707 -0.6900
  791MOL0     H 9154   6.711   2.848   5.707  2.0361 -1.4328  1.1915
  791MOL0     H 9155   7.055   2.837   4.894 -0.6560  1.0650 -0.2778
  791MOL0     H 9156   7.196   2.789   4.705 -1.8133  0.9099  1.5725
  791MOL0     H 9157   7.141   2.670   4.583  0.2536  0.6054  0.1816
  791MOL0     H 9158   7.128   2.854   4.571  2.1361  0.8564  1.0392
  792MOL0     O 9159   1.103   2.300   1.997 -0.2766 -0.0402 -0.5943
  792MOL0     C 9160   1.173   2.235   1.915 -0.3112  0.5612  0.7360
  792MOL0     O 9161   1.140   2.197   1.786 -0.3959  0.2545 -0.0717
  792MOL0     C 9162   1.025   2.241   1.732 -0.0043  0.2623  0.4568
  792MOL0     C 9163   0.904   2.214   1.790  0.0611 -0.1101  0.1629
  792MOL0     C 9164   0.776   2.270   1.744  0.4118 -0.3853  0.4663
  792MOL0     C 9165   0.779   2.341   1.623  0.1120 -0.0813 -0.3079
  792MOL0     O 9166   0.670   2.400   1.568 -0.0079 -0.0242  0.0938
  792MOL0     C 9167   0.650   2.534   1.609  0.6457  0.5987  0.6668
  792MOL0     C 9168   0.571   2.601   1.495  0.7148  0.2702 -0.7317
  792MOL0     C 9169   0.526   2.744   1.542 -0.1378  0.3321  0.2095
  792MOL0     C 9170   0.413   2.742   1.656 -0.7587 -0.2200  0.9634
  792MOL0     C 9171   0.414   2.856   1.764  0.9433  0.7840  0.8275
  792MOL0     C 9172   0.517   2.829   1.879 -0.1237  0.7002  0.7802
  792MOL0     C 9173   0.526   2.943   1.982  0.4245  0.2669  0.7488
  792MOL0     C 9174   0.665   2.949   2.042 -0.6591  0.2852 -0.2499
  792MOL0     N 9175   0.706   3.080   2.096  0.4970  0.3061  0.0495
  792MOL0     C 9176   0.691   3.131   2.227 -0.2615 -0.2117  0.6487
  792MOL0     C 9177   0.767   3.245   2.225  0.5594  0.0209  0.3677
  792MOL0     C 9178   0.774   3.358   2.331 -0.0875 -0.3725  1.2618
  792MOL0     C 9179   0.844   3.493   2.307 -0.2456 -1.1727  0.1930
  792MOL0     C 9180   0.993   3.459   2.291 -0.5020  1.1064  0.3189
  792MOL0     C 9181   1.087   3.573   2.309 -0.4450 -0.6335 -0.4012
  792MOL0     O 9182   1.093   3.667   2.199  0.1035  0.2555 -0.6187
  792MOL0     C 9183   1.191   3.769   2.206  0.1681  0.2270  0.8956
  792MOL0     C 9184   1.223   3.841   2.091  0.6227  0.7767  0.7119
  792MOL0     C 9185   1.320   3.940   2.086 -0.2720  0.4152  0.4978
  792MOL0     C 9186   1.341   4.001   1.946 -0.3699 -0.3837  0.0403
  792MOL0     C 9187   1.388   3.981   2.205  0.4263  0.1292  0.0664
  792MOL0     C 9188   1.483   4.094   2.208 -0.0165  0.0079 -0.4504
  792MOL0     O 9189   1.607   4.075   2.259  0.1786  0.6894  0.3703
  792MOL0     C 9190   1.692   4.186   2.284  0.1972  0.1412  0.1681
  792MOL0     C 9191   1.690   4.252   2.410 -0.0300  0.2358  0.5776
  792MOL0     C 9192   1.775   4.359   2.429  0.8060  0.7599 -0.2734
  792MOL0     C 9193   1.852   4.410   2.319  0.3287 -0.5256 -0.5745
  792MOL0     O 9194   1.927   4.518   2.344  0.1863  0.1573 -0.6961
  792MOL0     C 9195   1.989   4.597   2.245 -0.1434  0.6834 -0.1927
  792MOL0     C 9196   2.137   4.550   2.218  0.4310  0.3086 -0.1300
  792MOL0     C 9197   2.175   4.548   2.071 -0.1181  0.7579 -0.1716
  792MOL0     C 9198   2.302   4.468   2.051 -0.3820 -0.0414 -0.1913
  792MOL0     C 9199   2.385   4.537   1.936  0.6442 -0.0842  0.2362
  792MOL0     C 9200   2.522   4.472   1.921  0.9044 -0.5920 -0.8781
  792MOL0     C 9201   2.523   4.324   1.873  0.0766 -0.4146 -0.5293
  792MOL0     C 9202   2.672   4.275   1.847  1.0165  0.0675  0.6990
  792MOL0    Cl 9203   2.661   4.096   1.830  0.0594  0.3881 -0.3996
  792MOL0     C 9204   1.844   4.360   2.193 -0.4303  0.7589  0.3333
  792MOL0     C 9205   1.771   4.238   2.186  0.3305  0.3610  0.1338
  792MOL0     O 9206   1.449   4.199   2.160  0.0018 -0.4992  0.7755
  792MOL0     C 9207   1.370   3.903   2.323  0.5934  0.0755  0.3082
  792MOL0     C 9208   1.278   3.797   2.319  0.3653  0.3323  0.1758
  792MOL0     N 9209   0.812   3.263   2.093  0.3450  0.0387 -0.4835
  792MOL0     N 9210   0.785   3.163   2.021  1.1403  0.2880 -0.3126
  792MOL0     C 9211   0.900   2.351   1.555 -0.7417 -0.3532  0.0450
  792MOL0     C 9212   1.019   2.313   1.606  0.1907  0.1407  0.1297
  792MOL0     C 9213   1.306   2.194   1.954 -0.1082 -0.2386 -0.1078
  792MOL0     C 9214   1.353   2.072   1.891  0.4472  0.2001 -0.6808
  792MOL0     C 9215   1.489   2.042   1.910 -0.8628 -0.4304 -0.1896
  792MOL0     C 9216   1.583   2.115   1.977 -0.7747  0.2429 -0.8805
  792MOL0     O 9217   1.714   2.072   1.994 -0.8712  0.2695 -0.3237
  792MOL0     C 9218   1.780   1.964   1.920 -0.4521 -0.1073  0.4315
  792MOL0     C 9219   1.926   1.924   1.958 -0.2603  0.5126 -0.5495
  792MOL0     C 9220   2.024   2.047   1.947 -0.7535 -0.3256  0.3232
  792MOL0     C 9221   2.150   2.021   2.037  0.2139 -0.0576  0.8055
  792MOL0     C 9222   2.237   1.910   1.991 -0.8011  0.8970 -0.6788
  792MOL0     C 9223   2.298   1.810   1.955  0.2980 -0.1443 -0.1672
  792MOL0     C 9224   1.537   2.227   2.044  0.5350 -0.0093 -0.5090
  792MOL0     C 9225   1.396   2.272   2.036  0.2187 -0.4971 -0.1386
  792MOL0     C 9226   1.357   2.407   2.103 -0.2118  0.7574  0.6879
  792MOL0     H 9227   0.915   2.170   1.889 -0.7373  1.7701  1.1301
  792MOL0     H 9228   0.691   2.259   1.810 -0.3383  1.2799 -0.1457
  792MOL0     H 9229   0.746   2.584   1.621  1.0391 -0.1117  0.5234
  792MOL0     H 9230   0.600   2.523   1.706  3.1712 -1.3558  1.8388
  792MOL0     H 9231   0.644   2.611   1.414  0.2696  1.6331 -0.9954
  792MOL0     H 9232   0.486   2.541   1.462  1.1311 -0.7006 -0.0585
  792MOL0     H 9233   0.614   2.809   1.546  2.0954 -2.5550  1.6055
  792MOL0     H 9234   0.472   2.792   1.460 -1.1382 -3.3432 -1.4802
  792MOL0     H 9235   0.317   2.736   1.604 -0.8687  1.6627  0.9064
  792MOL0     H 9236   0.409   2.645   1.707  0.7489 -1.9740 -1.9642
  792MOL0     H 9237   0.319   2.857   1.818  0.4379 -2.0397  0.1685
  792MOL0     H 9238   0.439   2.951   1.715 -1.8472  0.8134 -0.7598
  792MOL0     H 9239   0.487   2.733   1.921 -0.1211 -0.1272 -1.0201
  792MOL0     H 9240   0.612   2.806   1.830 -0.7975 -0.7329  0.1164
  792MOL0     H 9241   0.448   2.934   2.058  2.7548  2.8112  3.6663
  792MOL0     H 9242   0.499   3.038   1.936 -1.5099  0.7323  2.6784
  792MOL0     H 9243   0.680   2.874   2.121  1.5695  0.9449  0.0097
  792MOL0     H 9244   0.732   2.922   1.960 -0.8641 -2.3705  0.3451
  792MOL0     H 9245   0.636   3.092   2.313 -2.8938 -2.6908 -1.9206
  792MOL0     H 9246   0.816   3.315   2.422  0.1840 -0.6801  0.9928
  792MOL0     H 9247   0.668   3.379   2.352 -0.7277 -4.4392  2.9833
  792MOL0     H 9248   0.810   3.543   2.215  2.4366  1.1247  0.2968
  792MOL0     H 9249   0.821   3.572   2.380 -0.6399 -2.2591  1.2677
  792MOL0     H 9250   1.023   3.381   2.362  1.5587 -0.0838 -1.7091
  792MOL0     H 9251   1.013   3.425   2.189 -1.5417  0.2200  0.3920
  792MOL0     H 9252   1.070   3.628   2.402 -0.9794  1.6790 -1.7601
  792MOL0     H 9253   1.188   3.535   2.324 -0.1280  1.1485  3.0266
  792MOL0     H 9254   1.166   3.833   1.998  2.6213 -3.2364 -0.3889
  792MOL0     H 9255   1.363   3.923   1.872  2.0783  0.6465 -0.4215
  792MOL0     H 9256   1.429   4.064   1.933 -2.6736  4.1107  3.3498
  792MOL0     H 9257   1.256   4.058   1.907  1.7054  1.5183 -2.0399
  792MOL0     H 9258   1.629   4.207   2.488 -1.6517  1.3787  0.0256
  792MOL0     H 9259   1.789   4.401   2.528 -0.6246  1.1038 -0.1942
  792MOL0     H 9260   1.924   4.616   2.160 -0.4211 -1.0517 -0.4097
  792MOL0     H 9261   1.992   4.690   2.302  1.1434 -1.0164  2.7892
  792MOL0     H 9262   2.205   4.618   2.269 -0.1350  2.0121 -1.5445
  792MOL0     H 9263   2.142   4.451   2.264 -2.7028  0.7644  1.4967
  792MOL0     H 9264   2.185   4.648   2.027 -0.4496  1.5383  1.4313
  792MOL0     H 9265   2.102   4.486   2.019 -2.1700  2.4280  0.5720
  792MOL0     H 9266   2.274   4.365   2.026  0.6990 -0.3137 -0.3244
  792MOL0     H 9267   2.358   4.487   2.143 -0.9479  1.7537 -0.1856
  792MOL0     H 9268   2.325   4.535   1.844  1.9000 -0.4822 -0.6025
  792MOL0     H 9269   2.399   4.644   1.951  0.1697  0.2780 -1.5500
  792MOL0     H 9270   2.570   4.495   2.017 -0.1373  0.5123 -0.6074
  792MOL0     H 9271   2.588   4.528   1.855  2.2910 -2.8060 -1.4887
  792MOL0     H 9272   2.468   4.312   1.779  0.2130 -1.8522 -0.4460
  792MOL0     H 9273   2.479   4.258   1.948  2.2064 -1.0515  0.2221
  792MOL0     H 9274   2.726   4.286   1.942  2.1006 -2.7197  0.5086
  792MOL0     H 9275   2.714   4.335   1.767 -1.5415  2.5244  1.0187
  792MOL0     H 9276   1.908   4.392   2.112 -0.1315  1.8000  0.9592
  792MOL0     H 9277   1.762   4.185   2.092 -0.2398 -3.5831  2.1842
  792MOL0     H 9278   1.416   3.909   2.421  0.8283  2.7533  0.1080
  792MOL0     H 9279   1.268   3.740   2.411  2.0079  2.7704  1.9987
  792MOL0     H 9280   0.903   2.401   1.458  2.8682 -1.6384 -0.6535
  792MOL0     H 9281   1.112   2.330   1.553 -0.4962  0.1415 -1.0946
  792MOL0     H 9282   1.290   2.027   1.816 -2.8528  1.6642  1.0231
  792MOL0     H 9283   1.526   1.954   1.858 -1.5986 -0.0586 -1.3676
  792MOL0     H 9284   1.715   1.877   1.922  3.0696 -2.9752  3.1174
  792MOL0     H 9285   1.784   1.995   1.815  2.0513 -4.0864 -0.8549
  792MOL0     H 9286   1.958   1.839   1.898  0.7763  0.7275 -0.3204
  792MOL0     H 9287   1.921   1.886   2.060 -1.0073 -4.0357 -2.0415
  792MOL0     H 9288   2.036   2.067   1.840 -0.2162  0.4276  0.5120
  792MOL0     H 9289   1.986   2.135   2.000  2.5096  2.3739 -1.4499
  792MOL0     H 9290   2.117   2.000   2.139 -3.4129  1.9697  0.1923
  792MOL0     H 9291   2.214   2.109   2.047 -0.7416  0.9736 -1.4184
  792MOL0     H 9292   2.342   1.724   1.908  0.7697 -1.7307  2.8931
  792MOL0     H 9293   1.601   2.295   2.100  0.5391  0.4312 -1.0354
  792MOL0     H 9294   1.285   2.398   2.185  1.0064 -2.9011  1.5427
  792MOL0     H 9295   1.435   2.432   2.175 -0.4988  0.6239  1.0518
  792MOL0     H 9296   1.345   2.497   2.043 -0.2620  0.9727  1.0144
  793MOL0     O 9297   4.293   6.932   0.832  0.0264  0.3444 -0.3499
  793MOL0     C 9298   4.402   6.932   0.883 -0.4720 -0.3065 -0.3763
  793MOL0     O 9299   4.526   6.943   0.819 -0.8662 -0.3438  0.4171
  793MOL0     C 9300   4.522   6.959   0.683 -1.2688 -1.0653 -0.8128
  793MOL0     C 9301   4.464   6.866   0.600  0.0741 -0.1916 -0.8263
  793MOL0     C 9302   4.470   6.873   0.456  0.1752  0.1426 -1.0435
  793MOL0     C 9303   4.556   6.973   0.398 -0.3129  0.2480 -0.1387
  793MOL0     O 9304   4.584   6.993   0.265  0.4187  0.2188  0.3566
  793MOL0     C 9305   4.484   6.938   0.179  0.4129 -0.7719 -0.1884
  793MOL0     C 9306   4.481   7.007   0.050 -0.5979  0.3320  0.2895
  793MOL0     C 9307   4.465   7.157   0.073 -0.2952 -1.2723 -0.5465
  793MOL0     C 9308   4.447   7.239  -0.052  0.2918 -0.2159 -0.0923
  793MOL0     C 9309   4.508   7.376  -0.040 -0.1877  1.0882 -0.2780
  793MOL0     C 9310   4.472   7.473  -0.161  0.5366 -0.5269  0.2302
  793MOL0     C 9311   4.564   7.597  -0.185  0.0053 -0.3614 -0.6197
  793MOL0     C 9312   4.692   7.559  -0.243 -0.8258  1.0307 -0.1997
  793MOL0     N 9313   4.771   7.662  -0.299 -0.4969  0.3900  0.0414
  793MOL0     C 9314   4.727   7.762  -0.379 -0.3038 -0.4221  1.0637
  793MOL0     C 9315   4.823   7.855  -0.383 -0.1516  0.0164  0.4924
  793MOL0     C 9316   4.811   8.000  -0.426 -0.4729 -0.0816 -0.0468
  793MOL0     C 9317   4.848   8.017  -0.572 -0.1109  0.6836  0.5335
  793MOL0     C 9318   4.859   8.160  -0.606 -0.5239  0.0774 -0.5247
  793MOL0     C 9319   4.919   8.176  -0.754  0.2355 -0.1479  0.0236
  793MOL0     O 9320   4.989   8.299  -0.772  0.6334  0.3058 -0.1733
  793MOL0     C 9321   4.926   8.418  -0.746  1.4467 -0.6618 -0.3718
  793MOL0     C 9322   4.787   8.458  -0.772  0.7649  0.3251  0.3438
  793MOL0     C 9323   4.742   8.581  -0.720  0.0183 -0.8583  0.0984
  793MOL0     C 9324   4.597   8.622  -0.740 -0.8791 -0.0473  0.4143
  793MOL0     C 9325   4.839   8.676  -0.662 -0.4850  0.3340 -0.0727
  793MOL0     C 9326   4.793   8.792  -0.607  1.0376 -0.5642 -0.4829
  793MOL0     O 9327   4.810   8.799  -0.472  0.2452  0.5253  0.1783
  793MOL0     C 9328   4.770   8.905  -0.399  0.7079  0.2813  0.1313
  793MOL0     C 9329   4.863   8.962  -0.312  0.6230 -0.1765 -0.0964
  793MOL0     C 9330   4.829   9.067  -0.233 -0.2634  0.0290 -0.3721
  793MOL0     C 9331   4.698   9.120  -0.232 -0.0491  0.0541 -0.2125
  793MOL0     O 9332   4.664   9.212  -0.142 -0.5237 -0.8237 -0.2398
  793MOL0     C 9333   4.665   9.343  -0.194 -0.5837 -0.0246 -0.2765
  793MOL0     C 9334   4.655   9.429  -0.063  0.8642 -0.2265  0.6259
  793MOL0     C 9335   4.777   9.408   0.043 -0.2453 -0.0274 -0.1280
  793MOL0     C 9336   4.745   9.496   0.169 -0.0114  1.2432  0.1017
  793MOL0     C 9337   4.621   9.453   0.244 -0.3124  0.1326  0.4104
  793MOL0     C 9338   4.623   9.506   0.390 -0.5270 -0.4482  0.1355
  793MOL0     C 9339   4.665   9.649   0.406 -0.6273  0.2462 -0.9082
  793MOL0     C 9340   4.628   9.732   0.529  0.0559 -0.3852  0.8955
  793MOL0    Cl 9341   4.742   9.863   0.559  0.5830  0.0359 -0.4316
  793MOL0     C 9342   4.603   9.067  -0.317  0.1311  0.5100  0.8092
  793MOL0     C 9343   4.646   8.960  -0.403  0.1521 -1.1676  0.2040
  793MOL0     O 9344   4.731   8.872  -0.677 -0.1702 -0.0332  0.6375
  793MOL0     C 9345   4.972   8.637  -0.645  0.2187  0.3572 -0.4495
  793MOL0     C 9346   5.013   8.508  -0.682 -0.0130 -1.1120  0.2995
  793MOL0     N 9347   4.924   7.803  -0.302 -0.3051  0.0522 -0.9541
  793MOL0     N 9348   4.893   7.699  -0.247  0.3921  0.3957 -0.3426
  793MOL0     C 9349   4.617   7.063   0.486 -0.9256  0.0055  0.7623
  793MOL0     C 9350   4.598   7.065   0.627  0.6517 -0.3187 -0.2933
  793MOL0     C 9351   4.426   6.922   1.030  0.4562  0.2597 -0.2474
  793MOL0     C 9352   4.390   7.021   1.115 -0.3368  0.0508  0.4310
  793MOL0     C 9353   4.417   7.006   1.253 -0.3166 -0.2325  0.1210
  793MOL0     C 9354   4.485   6.892   1.305 -0.8188 -0.8421 -0.0087
  793MOL0     O 9355   4.511   6.867   1.438  0.9885 -0.4803 -0.3821
  793MOL0     C 9356   4.528   6.977   1.536  0.0711  0.0421  0.6242
  793MOL0     C 9357   4.469   6.962   1.677  0.8311 -1.0955 -0.5086
  793MOL0     C 9358   4.482   6.821   1.722 -0.8467  0.7855 -0.0400
  793MOL0     C 9359   4.457   6.807   1.879  0.2324  0.7092  0.5620
  793MOL0     C 9360   4.497   6.677   1.930  0.7468  0.3707  0.2654
  793MOL0     C 9361   4.531   6.587   2.001 -0.6212  1.3066 -0.1952
  793MOL0     C 9362   4.524   6.797   1.215 -0.1934 -0.7325  0.0695
  793MOL0     C 9363   4.496   6.808   1.076 -0.0844  0.2691 -0.3564
  793MOL0     C 9364   4.516   6.686   0.993 -0.5855  0.2525  0.2180
  793MOL0     H 9365   4.403   6.782   0.631 -0.4143  0.8042  1.0856
  793MOL0     H 9366   4.424   6.798   0.393  1.7988 -0.8183 -1.1369
  793MOL0     H 9367   4.392   6.961   0.233  1.4216 -0.4040  1.4688
  793MOL0     H 9368   4.490   6.829   0.168 -0.6404 -0.7357 -1.2907
  793MOL0     H 9369   4.574   6.977   0.001  0.0908  1.2894  0.9866
  793MOL0     H 9370   4.395   6.972  -0.009  0.1313 -1.0511  0.0099
  793MOL0     H 9371   4.375   7.178   0.131 -0.7298  1.0941 -1.9753
  793MOL0     H 9372   4.557   7.191   0.122 -2.2086  3.3531  0.3303
  793MOL0     H 9373   4.484   7.196  -0.145 -0.7615 -3.3226  0.8068
  793MOL0     H 9374   4.341   7.251  -0.076  0.7571  0.3854 -2.0279
  793MOL0     H 9375   4.615   7.354  -0.030 -0.0215  1.7454 -0.5898
  793MOL0     H 9376   4.488   7.419   0.058 -1.7186  2.1848 -1.0483
  793MOL0     H 9377   4.472   7.425  -0.259 -1.9582 -3.3422  1.4376
  793MOL0     H 9378   4.367   7.503  -0.153 -0.1388 -2.6382 -0.0361
  793MOL0     H 9379   4.572   7.659  -0.095  1.2203  1.7487 -2.0877
  793MOL0     H 9380   4.504   7.658  -0.253 -1.6454 -1.0451  0.1819
  793MOL0     H 9381   4.744   7.498  -0.169 -1.9393 -0.5097 -0.6526
  793MOL0     H 9382   4.687   7.484  -0.322  2.8365  0.1391  0.2356
  793MOL0     H 9383   4.629   7.761  -0.427 -0.3638 -1.4269  1.1899
  793MOL0     H 9384   4.867   8.064  -0.359 -0.0051 -0.4607 -0.0699
  793MOL0     H 9385   4.708   8.038  -0.427 -0.8945 -1.1439 -1.3679
  793MOL0     H 9386   4.952   7.985  -0.587  0.1867  1.0678  1.6848
  793MOL0     H 9387   4.781   7.961  -0.638 -0.9509  2.7359 -0.4330
  793MOL0     H 9388   4.757   8.198  -0.593 -0.6338 -0.1689 -0.6635
  793MOL0     H 9389   4.929   8.209  -0.538 -1.8971  1.4682 -0.0683
  793MOL0     H 9390   4.997   8.101  -0.776  0.4818 -0.0324  0.4808
  793MOL0     H 9391   4.836   8.165  -0.824  0.6853  0.6091 -0.6387
  793MOL0     H 9392   4.726   8.381  -0.818  2.2427 -1.0511  0.6043
  793MOL0     H 9393   4.595   8.687  -0.828  1.6145  1.1477  1.1612
  793MOL0     H 9394   4.561   8.680  -0.654  2.2853  1.5645  0.7970
  793MOL0     H 9395   4.524   8.544  -0.765 -0.3705 -0.0039 -1.3696
  793MOL0     H 9396   4.959   8.912  -0.310  1.5295  1.3677 -1.8747
  793MOL0     H 9397   4.901   9.115  -0.167 -1.5111 -2.3151  3.0162
  793MOL0     H 9398   4.745   9.364  -0.266 -2.2860 -2.0524 -2.9699
  793MOL0     H 9399   4.569   9.361  -0.243 -1.7364 -0.1337  1.8385
  793MOL0     H 9400   4.635   9.532  -0.097  1.1293 -0.5474 -0.5601
  793MOL0     H 9401   4.564   9.385  -0.022  1.6244 -2.3852  0.0985
  793MOL0     H 9402   4.871   9.426  -0.010 -0.1178 -2.0815 -0.6667
  793MOL0     H 9403   4.775   9.300   0.062  0.0326 -0.5833 -2.8707
  793MOL0     H 9404   4.743   9.600   0.135  1.1942  1.0547 -0.6124
  793MOL0     H 9405   4.833   9.475   0.230  2.2094 -2.3632 -3.7935
  793MOL0     H 9406   4.535   9.495   0.191  0.2847 -0.7929 -1.3757
  793MOL0     H 9407   4.613   9.344   0.252 -2.6095  0.3307  1.4831
  793MOL0     H 9408   4.688   9.450   0.457 -1.4284 -0.5088  0.9905
  793MOL0     H 9409   4.521   9.518   0.429 -0.4182  1.7307 -0.0858
  793MOL0     H 9410   4.640   9.717   0.323 -0.9916 -1.5285 -2.3193
  793MOL0     H 9411   4.774   9.650   0.403 -0.6229  0.7564 -3.5068
  793MOL0     H 9412   4.608   9.671   0.618  0.3209  0.9998  1.9347
  793MOL0     H 9413   4.533   9.782   0.511  0.4589  0.5341  1.2801
  793MOL0     H 9414   4.498   9.094  -0.326  0.0010 -0.0585  0.5407
  793MOL0     H 9415   4.574   8.902  -0.459  0.3889 -2.4856  1.1920
  793MOL0     H 9416   5.035   8.697  -0.582 -1.3640  1.1882  0.4120
  793MOL0     H 9417   5.114   8.476  -0.663 -0.3885 -1.0273  2.7416
  793MOL0     H 9418   4.666   7.152   0.449 -3.5663  1.4008  0.3846
  793MOL0     H 9419   4.641   7.136   0.697 -0.3919  0.0026  0.0347
  793MOL0     H 9420   4.341   7.108   1.072 -0.6038  0.0329  0.6997
  793MOL0     H 9421   4.396   7.084   1.325  0.9547  2.5269 -2.3004
  793MOL0     H 9422   4.635   7.000   1.541  0.4592 -1.7102  0.7403
  793MOL0     H 9423   4.482   7.070   1.500  0.2798 -0.3343 -0.6682
  793MOL0     H 9424   4.361   6.974   1.673  0.3846 -2.5070  3.3642
  793MOL0     H 9425   4.511   7.038   1.743 -1.4322 -1.7613  1.8563
  793MOL0     H 9426   4.420   6.751   1.666 -0.0347 -0.3601  0.4635
  793MOL0     H 9427   4.582   6.785   1.695  0.3780  3.2239  0.9290
  793MOL0     H 9428   4.352   6.817   1.908 -0.5413 -4.5062  0.5750
  793MOL0     H 9429   4.505   6.888   1.936 -3.8531  1.3943  3.5167
  793MOL0     H 9430   4.579   6.504   2.049  1.1973  1.9872 -0.7413
  793MOL0     H 9431   4.574   6.713   1.262  0.4830  1.7058  4.2657
  793MOL0     H 9432   4.487   6.701   0.888 -1.9665 -0.5163  0.4711
  793MOL0     H 9433   4.614   6.638   0.999 -0.4445  0.4466 -0.4207
  793MOL0     H 9434   4.436   6.619   1.024 -1.8709  0.5405 -2.2061
  794MOL0     O 9435   5.848  11.460   6.751  0.1945 -0.6222 -0.0338
  794MOL0     C 9436   5.863  11.538   6.655  0.5314 -0.2754 -0.3648
  794MOL0     O 9437   5.764  11.586   6.564 -0.1095  0.8379  0.2151
  794MOL0     C 9438   5.627  11.571   6.571 -0.8734  0.4717 -0.4842
  794MOL0     C 9439   5.557  11.536   6.693  0.3817  0.5654 -0.6021
  794MOL0     C 9440   5.416  11.522   6.692 -0.4765 -1.1319  0.1426
  794MOL0     C 9441   5.342  11.544   6.578  0.1052  0.4165  1.0100
  794MOL0     O 9442   5.209  11.535   6.552 -0.2448  0.3689  0.0205
  794MOL0     C 9443   5.119  11.479   6.650 -0.1860  0.1921  1.1694
  794MOL0     C 9444   4.986  11.426   6.594 -0.7557 -0.5581  0.7798
  794MOL0     C 9445   4.896  11.525   6.525 -0.4256 -0.6013  0.2544
  794MOL0     C 9446   4.931  11.549   6.376 -0.7606  0.1976 -1.2181
  794MOL0     C 9447   4.817  11.618   6.307 -0.6227  0.4636  0.2891
  794MOL0     C 9448   4.825  11.620   6.157  0.5612 -0.3823  0.5268
  794MOL0     C 9449   4.740  11.513   6.080 -0.2601 -0.0920  0.3008
  794MOL0     C 9450   4.757  11.542   5.930 -0.9894 -0.2942  0.7376
  794MOL0     N 9451   4.897  11.533   5.875 -0.3346 -0.1596  0.0835
  794MOL0     C 9452   4.966  11.650   5.824  0.7140  0.1192 -0.2941
  794MOL0     C 9453   5.085  11.597   5.786  0.4498 -1.1002  0.6031
  794MOL0     C 9454   5.189  11.678   5.718 -1.0435 -0.0309 -0.0917
  794MOL0     C 9455   5.184  11.836   5.705  0.6727  0.0564 -1.2185
  794MOL0     C 9456   5.313  11.892   5.649  0.3463  0.2769  0.0831
  794MOL0     C 9457   5.434  11.892   5.741 -0.0005  0.7792 -0.2995
  794MOL0     O 9458   5.401  11.958   5.862  0.1755  0.4436  0.3190
  794MOL0     C 9459   5.487  11.954   5.973 -0.0961 -0.4036 -0.2927
  794MOL0     C 9460   5.447  12.025   6.078  0.3645 -0.0152 -0.1686
  794MOL0     C 9461   5.529  12.028   6.198 -0.2807  0.5302 -0.0341
  794MOL0     C 9462   5.460  12.089   6.318  0.4538 -0.4400 -0.1712
  794MOL0     C 9463   5.650  11.951   6.201 -0.1938  0.6310 -0.4534
  794MOL0     C 9464   5.733  11.939   6.322 -0.6549  0.1613 -0.6668
  794MOL0     O 9465   5.728  12.040   6.418 -0.3042 -0.4337  0.9075
  794MOL0     C 9466   5.792  12.030   6.537 -0.1044 -0.0465  0.4072
  794MOL0     C 9467   5.928  12.076   6.539  0.9358 -0.1579 -1.4136
  794MOL0     C 9468   6.018  12.057   6.643 -0.4717 -0.0386 -0.0018
  794MOL0     C 9469   5.975  11.986   6.754  0.3377  0.1454 -0.6335
  794MOL0     O 9470   6.053  11.952   6.858  0.3371  0.0239 -0.3268
  794MOL0     C 9471   6.160  11.878   6.816 -0.4024 -0.8130  0.3738
  794MOL0     C 9472   6.249  11.839   6.938  0.3326  0.1816  0.2459
  794MOL0     C 9473   6.378  11.770   6.908 -0.4873 -0.1980  0.5654
  794MOL0     C 9474   6.477  11.859   6.829  0.6261 -0.0309 -1.1765
  794MOL0     C 9475   6.606  11.792   6.798 -0.2160 -0.4837 -0.0070
  794MOL0     C 9476   6.709  11.877   6.712 -0.5986 -0.0970 -0.9075
  794MOL0     C 9477   6.842  11.812   6.699  0.2934 -0.6662  1.0932
  794MOL0     C 9478   6.937  11.886   6.607 -0.1812 -0.0212 -0.2900
  794MOL0    Cl 9479   7.079  11.786   6.576  0.1411 -0.0116  0.4511
  794MOL0     C 9480   5.840  11.946   6.754  0.1945 -0.5362 -0.0724
  794MOL0     C 9481   5.741  11.977   6.643 -0.8170  1.1825 -0.4127
  794MOL0     O 9482   5.818  11.850   6.326  0.2536  0.0482 -0.4484
  794MOL0     C 9483   5.695  11.896   6.074  0.1225  0.2720 -0.8798
  794MOL0     C 9484   5.614  11.900   5.960 -0.8451  0.2148 -0.0496
  794MOL0     N 9485   5.085  11.458   5.803  1.5234  0.2666 -0.1902
  794MOL0     N 9486   4.979  11.426   5.863  0.6865  0.1465 -1.1284
  794MOL0     C 9487   5.417  11.560   6.458 -0.7520  0.6721  0.2101
  794MOL0     C 9488   5.551  11.578   6.456 -0.2955 -0.2950  0.6830
  794MOL0     C 9489   5.994  11.561   6.601 -0.5262  0.3719 -0.6634
  794MOL0     C 9490   6.014  11.616   6.470  0.4283 -0.3448 -0.2046
  794MOL0     C 9491   6.147  11.649   6.428  0.1070 -0.4027  0.3067
  794MOL0     C 9492   6.265  11.620   6.492  1.1657 -0.2684  0.4157
  794MOL0     O 9493   6.389  11.638   6.446  0.3285 -0.6438  0.1576
  794MOL0     C 9494   6.413  11.618   6.305  1.0617  0.5998 -0.2132
  794MOL0     C 9495   6.556  11.583   6.282 -0.0798 -0.2363 -0.4279
  794MOL0     C 9496   6.641  11.714   6.295 -0.8432 -0.0682  0.8465
  794MOL0     C 9497   6.791  11.662   6.301 -0.1376  0.0276 -0.6509
  794MOL0     C 9498   6.872  11.767   6.245  1.4132 -0.1760  0.7473
  794MOL0     C 9499   6.956  11.843   6.202 -0.2259 -0.2355 -0.1596
  794MOL0     C 9500   6.245  11.578   6.617  0.2312  0.9435 -0.2532
  794MOL0     C 9501   6.116  11.544   6.671 -0.2394  0.3529 -1.4771
  794MOL0     C 9502   6.116  11.488   6.815 -0.3228 -0.1815 -0.1638
  794MOL0     H 9503   5.606  11.503   6.783 -0.7212  0.4093 -0.0373
  794MOL0     H 9504   5.365  11.476   6.776 -2.1224 -0.0969 -0.2413
  794MOL0     H 9505   5.103  11.561   6.721 -3.2411  0.7937 -0.0729
  794MOL0     H 9506   5.169  11.399   6.705  2.1544  0.8099  0.0626
  794MOL0     H 9507   4.993  11.341   6.525  1.8148  0.8842 -0.9000
  794MOL0     H 9508   4.924  11.391   6.677 -3.3060  1.4539 -0.1424
  794MOL0     H 9509   4.792  11.494   6.542 -0.8290  0.5748  0.0353
  794MOL0     H 9510   4.907  11.617   6.584  3.0323 -2.5794  3.0549
  794MOL0     H 9511   5.022  11.609   6.364  0.0862 -0.8087 -0.1399
  794MOL0     H 9512   4.951  11.449   6.337  1.6294  0.4733 -0.8558
  794MOL0     H 9513   4.799  11.715   6.354 -0.6958  0.7048 -0.2312
  794MOL0     H 9514   4.734  11.556   6.339 -0.3746 -1.7314 -2.8049
  794MOL0     H 9515   4.773  11.710   6.123  0.8829 -0.6631 -0.7524
  794MOL0     H 9516   4.927  11.618   6.118  0.6657  0.7402  0.7109
  794MOL0     H 9517   4.637  11.534   6.111 -0.0201  0.9998  0.3810
  794MOL0     H 9518   4.762  11.409   6.108  3.0130  1.2687  3.4206
  794MOL0     H 9519   4.695  11.480   5.864 -2.1903  0.4088  1.1729
  794MOL0     H 9520   4.730  11.648   5.919 -0.3869 -0.1432  0.6539
  794MOL0     H 9521   4.926  11.749   5.809 -0.6267 -0.2063  0.9213
  794MOL0     H 9522   5.195  11.629   5.620 -0.6984  1.8329 -1.0589
  794MOL0     H 9523   5.285  11.671   5.769 -0.8166  2.0319 -0.1671
  794MOL0     H 9524   5.099  11.867   5.644 -1.6895 -0.0823  1.7722
  794MOL0     H 9525   5.174  11.878   5.805 -0.4232 -0.2638 -1.1752
  794MOL0     H 9526   5.341  11.844   5.555  3.1489  0.8688  0.5273
  794MOL0     H 9527   5.299  11.997   5.621  0.7535  0.8625  1.8874
  794MOL0     H 9528   5.474  11.793   5.766  2.1266  2.0394  1.7068
  794MOL0     H 9529   5.527  11.935   5.705  1.3670 -1.8726 -0.1868
  794MOL0     H 9530   5.356  12.084   6.080  0.1856 -0.0317  4.6257
  794MOL0     H 9531   5.357  12.114   6.291  0.5790  0.1625 -0.1197
  794MOL0     H 9532   5.529  12.172   6.342 -0.1874  0.1244 -0.2593
  794MOL0     H 9533   5.475  12.031   6.410  1.7421  2.3042  1.4963
  794MOL0     H 9534   5.964  12.126   6.449 -2.5359  2.4022 -1.6180
  794MOL0     H 9535   6.124  12.083   6.646 -0.8616  1.7092 -0.1517
  794MOL0     H 9536   6.127  11.783   6.774 -1.9225 -0.6553  1.1321
  794MOL0     H 9537   6.228  11.925   6.744  1.5999 -1.1857  1.9101
  794MOL0     H 9538   6.258  11.928   7.001 -3.7666  0.5659  0.5494
  794MOL0     H 9539   6.191  11.759   6.984  2.5001 -3.2247 -2.4402
  794MOL0     H 9540   6.362  11.676   6.854 -0.1553 -0.6022  1.1605
  794MOL0     H 9541   6.430  11.754   7.002  1.5786  5.3497  0.7180
  794MOL0     H 9542   6.497  11.945   6.894 -1.0153  1.4632 -2.5432
  794MOL0     H 9543   6.442  11.897   6.733 -1.6609 -1.0238 -0.8017
  794MOL0     H 9544   6.652  11.763   6.893  3.3879  3.0462 -0.3995
  794MOL0     H 9545   6.574  11.712   6.732 -1.3897  0.1184 -0.2076
  794MOL0     H 9546   6.700  11.974   6.763 -5.2359 -1.6951  1.9311
  794MOL0     H 9547   6.653  11.890   6.619 -2.1613 -0.4788 -0.0717
  794MOL0     H 9548   6.828  11.709   6.665 -3.0211 -0.1402  0.5889
  794MOL0     H 9549   6.890  11.792   6.795 -0.6747 -2.9973  1.1299
  794MOL0     H 9550   6.972  11.979   6.653  1.9119 -0.1433 -1.5071
  794MOL0     H 9551   6.884  11.900   6.513  1.0800  1.0896 -0.8656
  794MOL0     H 9552   5.803  11.897   6.843  2.6287  0.1219  1.3830
  794MOL0     H 9553   5.640  11.937   6.648 -0.0855 -0.9113 -1.2813
  794MOL0     H 9554   5.795  11.854   6.061  1.3976  2.4019  1.1676
  794MOL0     H 9555   5.656  11.854   5.871  0.5781  0.9601  0.2063
  794MOL0     H 9556   5.354  11.574   6.371 -0.7532  1.2772  0.3080
  794MOL0     H 9557   5.602  11.625   6.372 -1.0021 -0.5877  0.0769
  794MOL0     H 9558   5.925  11.639   6.412  1.0913  0.0136 -1.1062
  794MOL0     H 9559   6.157  11.711   6.339  1.6803 -0.9297  0.0881
  794MOL0     H 9560   6.353  11.535   6.268  1.4135 -0.1975  0.9670
  794MOL0     H 9561   6.383  11.711   6.255  1.2546  1.5491  1.3411
  794MOL0     H 9562   6.576  11.555   6.178  0.8430  1.4880 -0.7598
  794MOL0     H 9563   6.597  11.510   6.352  0.6757  1.2737  0.7852
  794MOL0     H 9564   6.628  11.765   6.199  3.7849 -0.3956 -0.1757
  794MOL0     H 9565   6.625  11.777   6.383 -0.7765  1.5175 -0.2250
  794MOL0     H 9566   6.799  11.567   6.248 -0.4906 -0.8188  0.7443
  794MOL0     H 9567   6.827  11.648   6.404 -1.1188 -1.5342 -0.4838
  794MOL0     H 9568   7.031  11.912   6.167  1.1326  0.6461  3.9754
  794MOL0     H 9569   6.342  11.568   6.666  1.1713  1.3557 -1.9457
  794MOL0     H 9570   6.100  11.381   6.800  1.5328 -0.4780 -0.2470
  794MOL0     H 9571   6.215  11.491   6.861 -0.2636  1.5688 -0.3483
  794MOL0     H 9572   6.049  11.530   6.890 -0.6974 -0.0147 -0.5893
  795MOL0     O 9573   7.358   9.249   3.677  0.0878  0.0213 -0.3087
  795MOL0     C 9574   7.420   9.341   3.730 -0.5291  0.5301  0.1297
  795MOL0     O 9575   7.427   9.465   3.678 -0.2099 -0.0718 -0.2858
  795MOL0     C 9576   7.399   9.497   3.545 -0.4618  0.6653 -0.2489
  795MOL0     C 9577   7.435   9.629   3.502  0.2015  0.2805 -0.3545
  795MOL0     C 9578   7.408   9.672   3.373  0.1358 -0.1880  0.7111
  795MOL0     C 9579   7.335   9.605   3.282 -0.3512 -0.1755 -0.4549
  795MOL0     O 9580   7.333   9.647   3.157 -0.3511 -0.2035 -0.4893
  795MOL0     C 9581   7.325   9.549   3.052  0.8981  0.1562 -0.9974
  795MOL0     C 9582   7.328   9.632   2.929 -0.2412  0.0767 -0.4527
  795MOL0     C 9583   7.471   9.661   2.896  0.3716  0.4771 -0.3024
  795MOL0     C 9584   7.498   9.744   2.777  0.2390 -1.0421  0.5180
  795MOL0     C 9585   7.643   9.798   2.751  0.6665  0.0957  0.4698
  795MOL0     C 9586   7.644   9.871   2.624  0.8242 -0.5832  0.0770
  795MOL0     C 9587   7.771   9.868   2.549 -0.0127 -0.0408  0.3836
  795MOL0     C 9588   7.782   9.728   2.485 -0.4784 -0.1638  0.5831
  795MOL0     N 9589   7.890   9.720   2.382  1.3033  0.5242  0.3219
  795MOL0     C 9590   7.866   9.638   2.275  1.1671 -1.0913 -0.2911
  795MOL0     C 9591   7.956   9.675   2.180  0.3187 -0.2027 -0.1362
  795MOL0     C 9592   7.947   9.621   2.043 -0.5360  0.4702 -0.3359
  795MOL0     C 9593   8.088   9.618   1.976  1.4024  0.8721  0.7769
  795MOL0     C 9594   8.099   9.510   1.877 -0.2516 -0.1215  0.4826
  795MOL0     C 9595   8.035   9.536   1.735 -0.0593  0.5431  0.1898
  795MOL0     O 9596   8.012   9.416   1.657  0.2521  0.1601 -0.0994
  795MOL0     C 9597   8.111   9.329   1.614  0.4483  0.7093 -0.2801
  795MOL0     C 9598   8.091   9.194   1.580  1.2198 -0.4557  0.1082
  795MOL0     C 9599   8.198   9.107   1.542 -0.7234  0.3274 -0.1548
  795MOL0     C 9600   8.167   8.960   1.531  0.4096  0.0066  0.0549
  795MOL0     C 9601   8.331   9.161   1.524  0.1459 -0.4115  0.4607
  795MOL0     C 9602   8.448   9.088   1.468 -0.0943 -0.7027  0.4762
  795MOL0     O 9603   8.561   9.164   1.445 -0.0020 -0.3632 -0.1905
  795MOL0     C 9604   8.636   9.161   1.337  0.6385 -0.4248 -0.4795
  795MOL0     C 9605   8.642   9.046   1.252 -0.0240 -0.4805  0.5447
  795MOL0     C 9606   8.716   9.054   1.134 -0.0524 -0.5835  0.4033
  795MOL0     C 9607   8.804   9.169   1.112  0.1255 -0.3360 -0.6383
  795MOL0     O 9608   8.870   9.196   1.001  0.4689 -0.4762  0.0197
  795MOL0     C 9609   8.860   9.113   0.875  0.6394  0.2273 -0.6244
  795MOL0     C 9610   8.959   9.161   0.765  0.3240  0.3295  0.5439
  795MOL0     C 9611   8.899   9.132   0.626 -0.5217 -0.4803  0.3127
  795MOL0     C 9612   8.998   9.162   0.517 -1.0037  0.2374 -0.8045
  795MOL0     C 9613   8.958   9.149   0.378  0.0348  0.3225  0.1173
  795MOL0     C 9614   8.894   9.278   0.322 -0.8287  0.5787  0.5556
  795MOL0     C 9615   8.796   9.236   0.215 -0.4912  0.4885  0.3308
  795MOL0     C 9616   8.659   9.203   0.279 -0.1117 -0.6478 -0.2602
  795MOL0    Cl 9617   8.537   9.161   0.153  0.2890  0.3116  0.2273
  795MOL0     C 9618   8.821   9.274   1.217  0.4316  0.8409 -0.3203
  795MOL0     C 9619   8.736   9.271   1.324  0.9170  0.0040  0.0130
  795MOL0     O 9620   8.442   8.969   1.451  0.2528  0.0116  0.3461
  795MOL0     C 9621   8.345   9.303   1.545 -0.4605  0.9415  0.3197
  795MOL0     C 9622   8.243   9.385   1.591  0.1517  0.8050 -0.2615
  795MOL0     N 9623   8.037   9.774   2.233  0.6120 -0.1836  0.1756
  795MOL0     N 9624   7.989   9.799   2.354 -0.4270 -1.2233 -1.2085
  795MOL0     C 9625   7.303   9.475   3.319 -0.4328 -0.6495  0.7045
  795MOL0     C 9626   7.344   9.415   3.445  0.5291  0.3450  0.6830
  795MOL0     C 9627   7.493   9.310   3.862  0.3633 -0.2638 -1.1976
  795MOL0     C 9628   7.446   9.375   3.980  0.7644 -0.3914 -0.5994
  795MOL0     C 9629   7.492   9.339   4.105  0.1906 -0.0482 -0.4992
  795MOL0     C 9630   7.588   9.237   4.130  0.1251  0.9415 -0.8662
  795MOL0     O 9631   7.624   9.206   4.263  0.5187  0.1241 -0.2426
  795MOL0     C 9632   7.721   9.095   4.269 -0.1526  0.0045 -0.8906
  795MOL0     C 9633   7.859   9.151   4.253 -0.7559  0.2796 -0.4685
  795MOL0     C 9634   7.909   9.262   4.353  0.0995  1.2138 -0.0880
  795MOL0     C 9635   8.049   9.307   4.316 -0.1534  0.2717  0.6281
  795MOL0     C 9636   8.119   9.380   4.419  0.1700 -0.3756 -0.5700
  795MOL0     C 9637   8.176   9.432   4.509 -0.3253  0.5843 -0.5800
  795MOL0     C 9638   7.621   9.168   4.017  0.3958  0.0680  0.4800
  795MOL0     C 9639   7.582   9.204   3.885 -0.6076  0.2367 -0.1230
  795MOL0     C 9640   7.622   9.103   3.780 -0.7963  0.7765 -0.1183
  795MOL0     H 9641   7.469   9.698   3.578  2.8050  1.4020 -2.4076
  795MOL0     H 9642   7.450   9.771   3.354  3.0501 -1.1385  1.5979
  795MOL0     H 9643   7.237   9.485   3.056  2.2883 -1.9129 -1.9355
  795MOL0     H 9644   7.409   9.480   3.055  0.9093  0.1861 -0.4899
  795MOL0     H 9645   7.287   9.579   2.842  1.6641  2.2655 -2.8643
  795MOL0     H 9646   7.275   9.724   2.953  0.2290 -0.8937  5.8873
  795MOL0     H 9647   7.526   9.706   2.979  1.0594 -1.6433  0.4652
  795MOL0     H 9648   7.520   9.564   2.888  2.0594  1.2362  0.5019
  795MOL0     H 9649   7.460   9.688   2.692 -0.8265  3.9695 -2.7407
  795MOL0     H 9650   7.437   9.831   2.803 -1.1271 -1.8664  0.1394
  795MOL0     H 9651   7.700   9.704   2.755 -2.4412 -1.9227  0.3028
  795MOL0     H 9652   7.651   9.869   2.833  0.1935 -1.0339  1.5180
  795MOL0     H 9653   7.570   9.843   2.548  1.9249 -0.9902 -0.8789
  795MOL0     H 9654   7.621   9.974   2.654  1.4761  0.4188 -2.5823
  795MOL0     H 9655   7.859   9.892   2.610  0.3598 -2.2173  0.7742
  795MOL0     H 9656   7.759   9.951   2.479 -0.1000 -0.8487 -0.5925
  795MOL0     H 9657   7.818   9.667   2.568  3.1594  1.2649  0.2474
  795MOL0     H 9658   7.688   9.682   2.453  0.0090 -0.5934 -0.2753
  795MOL0     H 9659   7.778   9.577   2.256  0.8679 -0.7414 -0.0567
  795MOL0     H 9660   7.867   9.650   1.974 -3.3866 -0.7444  2.2305
  795MOL0     H 9661   7.916   9.517   2.061 -0.8925  0.9227  1.9630
  795MOL0     H 9662   8.107   9.715   1.928  2.0996 -0.2150 -1.2232
  795MOL0     H 9663   8.150   9.600   2.064 -0.3163 -1.7976  1.5821
  795MOL0     H 9664   8.204   9.480   1.872 -0.3205 -0.4371  0.9176
  795MOL0     H 9665   8.049   9.419   1.909  0.1629 -0.2312  0.8211
  795MOL0     H 9666   7.946   9.598   1.748  0.0521  1.0685 -1.4067
  795MOL0     H 9667   8.112   9.595   1.685  0.8711 -0.2708  0.6199
  795MOL0     H 9668   7.988   9.165   1.563  1.1237 -1.1785  1.7771
  795MOL0     H 9669   8.218   8.901   1.607  3.5714  0.8886 -1.2436
  795MOL0     H 9670   8.185   8.914   1.434  0.2062 -1.3552  0.6407
  795MOL0     H 9671   8.060   8.941   1.548  0.5104  1.0672  2.2680
  795MOL0     H 9672   8.583   8.955   1.253 -1.5743  0.4843  0.5223
  795MOL0     H 9673   8.724   8.973   1.061 -0.0986  0.4012 -0.7275
  795MOL0     H 9674   8.884   9.008   0.894 -1.5360  0.1837  2.7276
  795MOL0     H 9675   8.755   9.116   0.846  0.2440  0.9768  0.8039
  795MOL0     H 9676   8.979   9.268   0.781 -3.4317  1.3164 -0.4177
  795MOL0     H 9677   9.050   9.102   0.774  0.9218  0.7657 -1.7972
  795MOL0     H 9678   8.815   9.200   0.614  1.0100  1.6750  1.1985
  795MOL0     H 9679   8.852   9.033   0.623 -1.9725 -0.0616  3.9864
  795MOL0     H 9680   9.073   9.085   0.538 -0.8001  1.1750  2.3891
  795MOL0     H 9681   9.044   9.259   0.537 -1.5025  0.5939 -1.3664
  795MOL0     H 9682   9.046   9.130   0.315 -0.4273 -0.5923 -0.2778
  795MOL0     H 9683   8.893   9.061   0.386 -0.2657  0.5853  0.6147
  795MOL0     H 9684   8.964   9.347   0.273  0.0243  0.3250  1.3741
  795MOL0     H 9685   8.858   9.328   0.412 -0.9877  1.7306 -0.1314
  795MOL0     H 9686   8.836   9.149   0.162 -0.2430 -0.3722  1.8717
  795MOL0     H 9687   8.778   9.311   0.137 -3.5132 -0.3750  0.0498
  795MOL0     H 9688   8.617   9.274   0.350 -2.2895 -1.3757 -0.7534
  795MOL0     H 9689   8.662   9.111   0.338 -2.9761 -0.0248  1.0324
  795MOL0     H 9690   8.900   9.346   1.196  2.3294 -0.4839  1.8326
  795MOL0     H 9691   8.742   9.359   1.388 -0.0890  1.4377 -1.7647
  795MOL0     H 9692   8.449   9.334   1.550  1.2816 -4.1717  2.3423
  795MOL0     H 9693   8.273   9.488   1.601  1.5231  0.2593  2.1823
  795MOL0     H 9694   7.247   9.412   3.251  2.2083 -0.2932 -1.9755
  795MOL0     H 9695   7.322   9.310   3.463  0.0684  0.9004  3.8130
  795MOL0     H 9696   7.375   9.457   3.983 -0.2135 -1.1501 -1.7977
  795MOL0     H 9697   7.451   9.384   4.195  0.5390 -3.2913  1.4257
  795MOL0     H 9698   7.718   9.040   4.363 -1.0509 -0.6699 -1.3040
  795MOL0     H 9699   7.689   9.018   4.198 -7.0881  2.5538 -1.3588
  795MOL0     H 9700   7.872   9.190   4.151  0.7153  1.4553  0.1230
  795MOL0     H 9701   7.926   9.065   4.260  0.1408  0.8747 -1.3216
  795MOL0     H 9702   7.845   9.348   4.328 -1.0058  0.4610  0.0723
  795MOL0     H 9703   7.898   9.232   4.457 -1.9793  0.6181 -0.4386
  795MOL0     H 9704   8.033   9.368   4.227  0.3290 -2.0161 -1.1180
  795MOL0     H 9705   8.100   9.220   4.275 -2.1688 -0.7208  0.1110
  795MOL0     H 9706   8.220   9.494   4.585  0.1521  0.8845 -1.0947
  795MOL0     H 9707   7.699   9.094   4.029  1.6273  1.1842 -0.3461
  795MOL0     H 9708   7.632   9.137   3.676  1.9721 -0.4007 -0.3272
  795MOL0     H 9709   7.722   9.062   3.795 -1.2538 -0.2250  0.3157
  795MOL0     H 9710   7.538   9.033   3.770 -2.9202  3.3356 -1.6380
  796MOL0     O 9711  11.562   9.864   3.372  0.1018  0.8889 -0.1642
  796MOL0     C 9712  11.523   9.937   3.463 -0.8995 -0.0814  0.8260
  796MOL0     O 9713  11.575  10.055   3.497 -1.4716 -0.9843 -0.1662
  796MOL0     C 9714  11.711  10.082   3.468  0.3251 -0.1249  0.5946
  796MOL0     C 9715  11.744  10.218   3.445 -0.8303 -0.6141 -0.4190
  796MOL0     C 9716  11.872  10.250   3.395 -1.0795  0.2887 -0.6094
  796MOL0     C 9717  11.974  10.151   3.390 -0.6662 -0.7382 -0.8827
  796MOL0     O 9718  12.101  10.193   3.348 -0.8982  0.0720 -0.1898
  796MOL0     C 9719  12.171  10.286   3.428  0.1818 -0.1713  1.2820
  796MOL0     C 9720  12.310  10.310   3.365 -0.3310 -0.2041  0.3265
  796MOL0     C 9721  12.412  10.380   3.456 -0.6639 -0.2792  0.1625
  796MOL0     C 9722  12.492  10.274   3.533  0.2540 -1.1181  0.4019
  796MOL0     C 9723  12.580  10.329   3.646  0.5772  0.1541 -0.5405
  796MOL0     C 9724  12.698  10.419   3.609  0.3322  0.4908 -0.1740
  796MOL0     C 9725  12.766  10.468   3.745 -0.3755  0.1828 -0.4416
  796MOL0     C 9726  12.686  10.560   3.833  1.0738 -0.1178 -0.3553
  796MOL0     N 9727  12.768  10.631   3.938 -0.0849 -0.4882  0.7572
  796MOL0     C 9728  12.846  10.742   3.915 -0.9301 -0.4984  0.0462
  796MOL0     C 9729  12.894  10.778   4.039 -0.3106 -0.5372 -0.3796
  796MOL0     C 9730  12.977  10.889   4.091 -0.0184 -0.1742 -0.9543
  796MOL0     C 9731  12.950  11.027   4.020 -1.2695 -0.6988 -0.1799
  796MOL0     C 9732  12.993  11.146   4.102  0.4660  0.6446  0.5463
  796MOL0     C 9733  12.874  11.178   4.191 -0.2073  0.2222  0.4515
  796MOL0     O 9734  12.914  11.272   4.297 -0.0169  0.2711  0.6820
  796MOL0     C 9735  12.939  11.394   4.245 -0.1830  0.8972 -0.2790
  796MOL0     C 9736  12.839  11.464   4.176 -0.6473 -0.5257  1.0723
  796MOL0     C 9737  12.878  11.583   4.108  0.6220 -0.1928 -0.0065
  796MOL0     C 9738  12.769  11.644   4.023 -0.3858 -1.0101 -0.2895
  796MOL0     C 9739  13.008  11.645   4.142 -0.2186  0.0123 -0.1908
  796MOL0     C 9740  13.051  11.784   4.098 -0.7281  0.1730  0.1740
  796MOL0     O 9741  13.183  11.822   4.138  0.2680  0.5744  0.3189
  796MOL0     C 9742  13.251  11.933   4.113  0.0497 -0.0416 -0.3116
  796MOL0     C 9743  13.180  12.057   4.108 -0.4552  1.2008  0.5522
  796MOL0     C 9744  13.249  12.175   4.094 -0.6377 -0.4228  0.3908
  796MOL0     C 9745  13.382  12.174   4.066 -0.1468 -0.7231 -0.3028
  796MOL0     O 9746  13.455  12.285   4.049  0.7000 -0.0247  0.1073
  796MOL0     C 9747  13.441  12.368   4.165 -1.2274  0.3416  0.8494
  796MOL0     C 9748  13.520  12.503   4.142 -0.1469 -0.4293 -0.3064
  796MOL0     C 9749  13.534  12.598   4.267  0.4012 -0.2986 -0.6304
  796MOL0     C 9750  13.408  12.604   4.355 -0.4526 -0.4724 -0.7912
  796MOL0     C 9751  13.425  12.719   4.450  0.0226  0.4992  0.1789
  796MOL0     C 9752  13.306  12.726   4.549 -0.5506 -0.3553  0.0488
  796MOL0     C 9753  13.337  12.849   4.641 -0.4303  0.0941 -0.6683
  796MOL0     C 9754  13.222  12.891   4.723 -0.4162 -0.2776 -1.0224
  796MOL0    Cl 9755  13.286  12.896   4.901 -0.1013  0.0726 -0.4649
  796MOL0     C 9756  13.447  12.048   4.061 -0.5327  0.1087  0.7549
  796MOL0     C 9757  13.384  11.931   4.086 -0.7553 -0.0225 -0.5577
  796MOL0     O 9758  12.982  11.855   4.025  0.3252 -0.0818 -0.0432
  796MOL0     C 9759  13.096  11.562   4.211 -0.0005  0.4462 -0.4723
  796MOL0     C 9760  13.065  11.438   4.257 -0.2987  0.4675 -0.4235
  796MOL0     N 9761  12.829  10.695   4.132  0.8922 -0.1238 -0.6391
  796MOL0     N 9762  12.744  10.618   4.065 -0.4165  0.8274 -0.2082
  796MOL0     C 9763  11.943  10.017   3.426  0.8645 -1.4595  0.1727
  796MOL0     C 9764  11.816   9.986   3.461 -0.0901  0.0345 -0.4157
  796MOL0     C 9765  11.406   9.905   3.537 -0.5766 -0.6114  0.9574
  796MOL0     C 9766  11.276   9.930   3.492 -1.0253 -0.3171 -0.0444
  796MOL0     C 9767  11.168   9.856   3.557 -0.7642 -0.6762 -0.1907
  796MOL0     C 9768  11.191   9.780   3.671 -0.4613  0.7238  0.0658
  796MOL0     O 9769  11.081   9.735   3.735  0.6065  0.5060  0.0600
  796MOL0     C 9770  11.087   9.724   3.871  0.0875  0.3446 -0.3966
  796MOL0     C 9771  10.957   9.668   3.921 -0.0141  0.0849 -0.8783
  796MOL0     C 9772  10.842   9.766   3.906 -0.2462 -0.4786  0.2296
  796MOL0     C 9773  10.832   9.896   3.995  0.2316 -0.1862  0.4389
  796MOL0     C 9774  10.825   9.847   4.131 -1.1818 -0.3120 -0.0693
  796MOL0     C 9775  10.830   9.819   4.250  0.4652 -0.0260 -0.6333
  796MOL0     C 9776  11.324   9.760   3.715  0.3253 -1.4178  0.2212
  796MOL0     C 9777  11.428   9.827   3.653  0.8905 -0.4839 -0.2686
  796MOL0     C 9778  11.562   9.810   3.720  0.4982  0.3623  0.2505
  796MOL0     H 9779  11.664  10.291   3.455 -0.4457  0.4491 -3.8062
  796MOL0     H 9780  11.896  10.352   3.370  1.6790 -0.2375 -0.4168
  796MOL0     H 9781  12.169  10.250   3.531 -2.3201 -1.7436  0.7931
  796MOL0     H 9782  12.127  10.385   3.416  1.3468  0.0996 -1.3399
  796MOL0     H 9783  12.348  10.208   3.349 -0.4947 -0.3651  0.9391
  796MOL0     H 9784  12.297  10.368   3.273 -2.8458 -0.7614  0.2447
  796MOL0     H 9785  12.493  10.433   3.405 -0.0994 -2.3423 -1.2046
  796MOL0     H 9786  12.361  10.442   3.530 -3.2423 -0.6688 -1.1739
  796MOL0     H 9787  12.429  10.194   3.573  0.5048 -0.4520  2.2138
  796MOL0     H 9788  12.557  10.227   3.458 -0.6351 -0.0707 -1.0848
  796MOL0     H 9789  12.624  10.247   3.703 -3.0862  0.5315  3.3629
  796MOL0     H 9790  12.513  10.377   3.719  1.9470 -0.3974  1.1454
  796MOL0     H 9791  12.761  10.361   3.540 -2.0944 -3.3598  0.5351
  796MOL0     H 9792  12.659  10.498   3.544  2.8427  1.7197 -0.3164
  796MOL0     H 9793  12.868  10.502   3.723 -0.7678  0.1714 -2.4828
  796MOL0     H 9794  12.792  10.384   3.810  1.3448  1.8990  1.2004
  796MOL0     H 9795  12.635  10.630   3.766 -0.5674  0.5718  1.5113
  796MOL0     H 9796  12.612  10.494   3.879 -0.2876 -0.7504 -3.2628
  796MOL0     H 9797  12.868  10.804   3.828  0.7043  0.3033  0.9784
  796MOL0     H 9798  13.084  10.870   4.075  0.1653  0.7862 -0.9785
  796MOL0     H 9799  12.953  10.899   4.197 -2.0618 -1.1344 -1.2876
  796MOL0     H 9800  12.996  11.030   3.921  1.4077  2.1734  0.9772
  796MOL0     H 9801  12.843  11.038   4.001 -1.7450  4.1682  3.2872
  796MOL0     H 9802  13.085  11.126   4.158  1.7213  0.4768 -1.4470
  796MOL0     H 9803  13.027  11.235   4.047 -1.1221  1.9892  1.6410
  796MOL0     H 9804  12.788  11.204   4.129  2.3352  0.6265 -3.2036
  796MOL0     H 9805  12.843  11.091   4.249  1.1292  0.1025  1.0258
  796MOL0     H 9806  12.744  11.412   4.164 -0.0663 -1.4734  0.3773
  796MOL0     H 9807  12.670  11.614   4.060 -1.4085  4.3590  2.3801
  796MOL0     H 9808  12.778  11.617   3.918  3.5517  3.7002 -1.4750
  796MOL0     H 9809  12.760  11.752   4.032  1.7389 -0.5377 -2.8312
  796MOL0     H 9810  13.074  12.042   4.119 -0.2867  0.0245  0.6477
  796MOL0     H 9811  13.208  12.273   4.075  0.6922 -0.3818 -2.7714
  796MOL0     H 9812  13.338  12.389   4.196 -0.7614 -0.9767  3.6299
  796MOL0     H 9813  13.469  12.319   4.259 -0.4208  1.6269  1.3100
  796MOL0     H 9814  13.616  12.473   4.099  0.0958  0.6615 -0.5665
  796MOL0     H 9815  13.472  12.563   4.064 -0.3440 -0.6453 -0.3497
  796MOL0     H 9816  13.568  12.695   4.232  2.4119 -0.2742  1.2396
  796MOL0     H 9817  13.611  12.562   4.336 -0.3919  0.0649  0.4705
  796MOL0     H 9818  13.397  12.517   4.421  0.0732 -0.6197 -0.8894
  796MOL0     H 9819  13.314  12.606   4.299 -1.1428 -2.6238  0.1868
  796MOL0     H 9820  13.517  12.700   4.506  1.3836 -2.1035 -2.6140
  796MOL0     H 9821  13.435  12.816   4.400 -0.6126 -0.3275 -1.6518
  796MOL0     H 9822  13.285  12.633   4.602 -2.3552 -0.5126 -0.8498
  796MOL0     H 9823  13.212  12.751   4.497 -1.1538 -1.5989  0.5122
  796MOL0     H 9824  13.366  12.925   4.568  0.8100  0.8080  0.5284
  796MOL0     H 9825  13.420  12.838   4.711 -0.5300 -0.5379 -0.6390
  796MOL0     H 9826  13.134  12.831   4.698  0.0996 -1.1328 -0.8138
  796MOL0     H 9827  13.202  12.991   4.683 -0.4161  0.0687 -0.1633
  796MOL0     H 9828  13.555  12.048   4.049 -0.5065  1.4407  0.7932
  796MOL0     H 9829  13.430  11.833   4.080  1.1742  0.9050 -1.7986
  796MOL0     H 9830  13.193  11.600   4.242 -0.6119  0.4019  1.6748
  796MOL0     H 9831  13.140  11.390   4.319  0.0825  1.1354 -0.3493
  796MOL0     H 9832  12.023   9.943   3.429  3.2158  0.9220 -0.2570
  796MOL0     H 9833  11.788   9.882   3.475  1.9186 -0.2744  2.2532
  796MOL0     H 9834  11.249  10.001   3.414  0.9131  2.6971  1.8014
  796MOL0     H 9835  11.071   9.876   3.513 -0.0248  1.0394 -1.1617
  796MOL0     H 9836  11.166   9.651   3.891  1.4648  1.0099 -2.9981
  796MOL0     H 9837  11.103   9.821   3.920 -0.9286  0.5810 -0.5119
  796MOL0     H 9838  10.975   9.624   4.019 -1.5617 -0.7685 -0.9379
  796MOL0     H 9839  10.923   9.595   3.847  0.0262  1.3904 -2.2305
  796MOL0     H 9840  10.834   9.799   3.802  1.0557  3.7256  1.2649
  796MOL0     H 9841  10.756   9.703   3.932 -0.0462 -0.1610  1.7738
  796MOL0     H 9842  10.751   9.968   3.975  3.7796  4.2754  0.5430
  796MOL0     H 9843  10.916   9.965   3.985 -0.1352  0.0918 -0.8841
  796MOL0     H 9844  10.840   9.795   4.355 -0.3825 -3.6681 -1.2477
  796MOL0     H 9845  11.340   9.704   3.807 -2.4043 -3.2921 -0.3430
  796MOL0     H 9846  11.614   9.721   3.683  2.9265  1.3822  1.0054
  796MOL0     H 9847  11.630   9.894   3.706  0.4788  1.0664  3.5882
  796MOL0     H 9848  11.541   9.796   3.826 -0.1886 -2.5876 -0.1784
  797MOL0     O 9849   0.859   0.755   7.481 -0.7377 -0.4401  0.0667
  797MOL0     C 9850   0.773   0.832   7.432 -0.3162  0.1464  0.4163
  797MOL0     O 9851   0.789   0.962   7.390  0.0687 -0.0329  1.6296
  797MOL0     C 9852   0.909   1.003   7.360 -0.6013  0.3413 -0.2152
  797MOL0     C 9853   0.972   1.097   7.443 -0.3058  0.9094 -0.8561
  797MOL0     C 9854   1.105   1.123   7.421 -0.0300 -0.8282 -0.3716
  797MOL0     C 9855   1.189   1.061   7.329 -0.2246 -0.1670  0.3520
  797MOL0     O 9856   1.319   1.093   7.319 -0.7659  0.8151  0.7699
  797MOL0     C 9857   1.358   1.122   7.185  0.9483 -0.4446  0.4998
  797MOL0     C 9858   1.479   1.207   7.214 -0.7366  0.6353  0.6864
  797MOL0     C 9859   1.445   1.343   7.250 -0.4343 -0.5521 -0.4457
  797MOL0     C 9860   1.471   1.373   7.401  0.3705  0.2771 -0.0611
  797MOL0     C 9861   1.424   1.502   7.468  0.4066 -0.8812  1.0957
  797MOL0     C 9862   1.283   1.479   7.544  0.0523  0.2826  0.3934
  797MOL0     C 9863   1.253   1.604   7.624 -0.2026  0.3006 -0.1084
  797MOL0     C 9864   1.131   1.591   7.718 -0.1493  0.2479 -0.1943
  797MOL0     N 9865   1.169   1.482   7.817 -0.5758  0.2419 -0.2272
  797MOL0     C 9866   1.082   1.381   7.840  0.2385 -0.4301 -0.5387
  797MOL0     C 9867   1.123   1.314   7.950 -0.3032 -0.5309  0.8561
  797MOL0     C 9868   1.062   1.185   7.995  0.1891 -0.7051 -0.2229
  797MOL0     C 9869   1.115   1.052   7.940 -0.1158  0.3355  0.3931
  797MOL0     C 9870   1.057   1.024   7.800 -0.3833 -0.0865 -0.9245
  797MOL0     C 9871   0.961   0.905   7.802  0.4317 -0.5582  0.2850
  797MOL0     O 9872   0.859   0.959   7.879  0.1243 -0.5072  0.2724
  797MOL0     C 9873   0.739   0.881   7.884 -0.5277  0.3518 -0.2202
  797MOL0     C 9874   0.731   0.752   7.834 -0.8228 -0.2582  0.4416
  797MOL0     C 9875   0.613   0.673   7.847 -0.3647  0.5375  0.5316
  797MOL0     C 9876   0.625   0.545   7.784  0.6135  0.0726 -0.2946
  797MOL0     C 9877   0.500   0.724   7.917  0.5255  1.1955  0.2713
  797MOL0     C 9878   0.360   0.658   7.927 -0.3243 -1.1700 -0.7029
  797MOL0     O 9879   0.254   0.741   7.967 -0.7698  0.4529  0.0246
  797MOL0     C 9880   0.126   0.696   7.995 -0.1998  0.4079  0.7020
  797MOL0     C 9881   0.025   0.788   7.997  0.6095 -0.5968  0.7963
  797MOL0     C 9882  -0.113   0.752   8.011  0.6196  0.2542  0.4576
  797MOL0     C 9883  -0.153   0.618   8.028  0.1761 -0.4226 -0.5160
  797MOL0     O 9884  -0.274   0.571   8.073  0.5224 -0.1946 -0.0386
  797MOL0     C 9885  -0.383   0.662   8.066 -0.2420  0.5885  0.2840
  797MOL0     C 9886  -0.514   0.584   8.051 -0.0316 -0.8243 -0.2658
  797MOL0     C 9887  -0.656   0.637   8.076  1.3980 -0.5895  0.5618
  797MOL0     C 9888  -0.677   0.705   8.216  0.3063  0.0209  0.2562
  797MOL0     C 9889  -0.825   0.713   8.263  0.5890 -0.5585 -0.8752
  797MOL0     C 9890  -0.894   0.835   8.197  0.1585 -0.1233  0.3774
  797MOL0     C 9891  -1.043   0.836   8.241 -0.6332  0.7092  0.1067
  797MOL0     C 9892  -1.109   0.967   8.195 -0.4202  0.3003  0.3470
  797MOL0    Cl 9893  -1.252   0.992   8.294  0.4300 -0.1568 -0.1439
  797MOL0     C 9894  -0.054   0.526   8.020  0.3248 -0.1194  0.4869
  797MOL0     C 9895   0.081   0.562   8.016  0.0534 -0.8651 -0.7371
  797MOL0     O 9896   0.366   0.532   7.918  0.4204 -0.1946 -0.3247
  797MOL0     C 9897   0.508   0.859   7.957  0.9045 -0.3364  0.5074
  797MOL0     C 9898   0.619   0.938   7.937 -0.4923 -0.1744  0.7324
  797MOL0     N 9899   1.227   1.385   7.999 -0.7031  0.7613 -0.2470
  797MOL0     N 9900   1.257   1.489   7.920  0.1225 -0.3348 -0.7151
  797MOL0     C 9901   1.126   0.974   7.239 -0.9143 -0.4787 -0.7204
  797MOL0     C 9902   0.984   0.946   7.254  0.1118 -0.3363  0.0150
  797MOL0     C 9903   0.639   0.800   7.462 -0.4675 -0.3505 -0.5351
  797MOL0     C 9904   0.567   0.899   7.541 -0.2930  0.7011 -0.4612
  797MOL0     C 9905   0.440   0.866   7.593 -0.0401  0.0011 -0.4210
  797MOL0     C 9906   0.395   0.736   7.577  0.0794  0.0256  0.2189
  797MOL0     O 9907   0.269   0.683   7.619  0.8856  0.1546  0.5525
  797MOL0     C 9908   0.176   0.790   7.643  0.1922 -0.2896 -0.5097
  797MOL0     C 9909   0.041   0.724   7.645  0.7252  0.4666  0.2308
  797MOL0     C 9910  -0.080   0.830   7.637 -0.1060  0.1272  0.4579
  797MOL0     C 9911  -0.211   0.754   7.634 -0.9461 -0.0913 -0.1164
  797MOL0     C 9912  -0.332   0.837   7.608  0.3620 -0.1233 -0.0230
  797MOL0     C 9913  -0.425   0.915   7.597 -0.4469  0.2387  0.1823
  797MOL0     C 9914   0.467   0.643   7.499  0.1388  0.5965  0.2002
  797MOL0     C 9915   0.587   0.673   7.436 -0.3556  0.7057  0.0426
  797MOL0     C 9916   0.654   0.574   7.348  0.0357 -0.7077 -0.0722
  797MOL0     H 9917   0.908   1.149   7.513  0.7306 -0.4761  1.2097
  797MOL0     H 9918   1.148   1.207   7.474 -1.3237 -1.0282  1.0723
  797MOL0     H 9919   1.276   1.182   7.145  0.8435 -0.8926  0.0371
  797MOL0     H 9920   1.384   1.035   7.125  0.6805  0.2444 -0.6363
  797MOL0     H 9921   1.544   1.158   7.287 -0.5571 -0.4471 -0.1693
  797MOL0     H 9922   1.534   1.218   7.120 -0.8139  4.4238  0.9294
  797MOL0     H 9923   1.498   1.413   7.185  0.9175 -1.2396 -0.1120
  797MOL0     H 9924   1.340   1.366   7.226  0.2036  1.4133 -1.5804
  797MOL0     H 9925   1.429   1.290   7.459  0.2902 -0.2192 -0.8186
  797MOL0     H 9926   1.580   1.372   7.409  0.3026  1.6077  1.5125
  797MOL0     H 9927   1.410   1.584   7.396 -0.0268 -1.7179  0.2045
  797MOL0     H 9928   1.503   1.537   7.536  0.6775 -0.5171  0.6042
  797MOL0     H 9929   1.202   1.454   7.476  1.6260 -0.8230 -1.1752
  797MOL0     H 9930   1.312   1.400   7.614 -2.6959 -1.8928 -0.7579
  797MOL0     H 9931   1.230   1.685   7.555  1.3146  1.0162  0.1812
  797MOL0     H 9932   1.334   1.640   7.688 -1.7353  2.9080  0.5024
  797MOL0     H 9933   1.103   1.683   7.770 -0.8255  0.2598 -0.5710
  797MOL0     H 9934   1.044   1.552   7.663 -1.8641  1.6637  1.3657
  797MOL0     H 9935   0.992   1.350   7.786 -0.1447 -0.0093 -0.1444
  797MOL0     H 9936   0.953   1.191   7.987  0.2325  0.2437 -0.2661
  797MOL0     H 9937   1.067   1.184   8.104 -4.1138  1.2208  0.1862
  797MOL0     H 9938   1.224   1.056   7.929 -0.1432  1.0911  0.3698
  797MOL0     H 9939   1.080   0.981   8.016 -1.2323  0.2107 -0.2248
  797MOL0     H 9940   1.017   1.117   7.760  2.9001  0.9437 -2.1228
  797MOL0     H 9941   1.137   0.998   7.731  0.1910 -0.8892  0.0160
  797MOL0     H 9942   0.932   0.881   7.699  0.2990 -0.3129  0.2647
  797MOL0     H 9943   1.002   0.817   7.854  1.1369 -0.2439  0.2819
  797MOL0     H 9944   0.816   0.701   7.790 -1.1254  1.5869 -2.5827
  797MOL0     H 9945   0.696   0.553   7.702  0.7589  2.6913  0.0036
  797MOL0     H 9946   0.527   0.513   7.746  0.3575  0.7899 -0.2415
  797MOL0     H 9947   0.654   0.476   7.864 -0.0409 -1.2020 -1.1257
  797MOL0     H 9948   0.055   0.892   7.989 -1.4963 -0.0059 -0.2916
  797MOL0     H 9949  -0.181   0.835   8.025  1.2899  1.4246 -2.3912
  797MOL0     H 9950  -0.390   0.728   8.153  0.7486  0.2627  0.6214
  797MOL0     H 9951  -0.382   0.726   7.977  1.9710  0.4397  0.1486
  797MOL0     H 9952  -0.508   0.528   7.957 -1.7134 -1.6794  0.0956
  797MOL0     H 9953  -0.509   0.510   8.131  2.8799 -0.5368 -0.0935
  797MOL0     H 9954  -0.727   0.554   8.068  1.5879 -1.1775  3.7035
  797MOL0     H 9955  -0.687   0.704   7.996 -0.9401  0.5904  2.3321
  797MOL0     H 9956  -0.636   0.806   8.211 -4.9679  2.5615  1.3562
  797MOL0     H 9957  -0.618   0.644   8.285  0.5923 -0.7148 -0.6144
  797MOL0     H 9958  -0.872   0.619   8.231  0.3488  0.7920 -5.1864
  797MOL0     H 9959  -0.835   0.724   8.371 -2.7690  0.8130 -1.2072
  797MOL0     H 9960  -0.875   0.827   8.089 -0.4500  1.3813  0.1346
  797MOL0     H 9961  -0.836   0.925   8.220 -2.5238  1.3908  1.6616
  797MOL0     H 9962  -1.045   0.819   8.349 -0.0334 -2.2712 -0.2678
  797MOL0     H 9963  -1.096   0.748   8.202 -0.7209 -0.1576  2.0767
  797MOL0     H 9964  -1.134   0.974   8.089  1.6372  1.9889 -0.0858
  797MOL0     H 9965  -1.047   1.055   8.217  0.5206 -0.3710  0.4342
  797MOL0     H 9966  -0.076   0.422   8.038 -0.1331 -0.6796 -2.7160
  797MOL0     H 9967   0.149   0.478   8.012  1.6367  0.3428 -0.3442
  797MOL0     H 9968   0.429   0.909   8.011 -0.4562 -0.1245 -1.5621
  797MOL0     H 9969   0.631   1.042   7.965  1.9269 -0.3436  0.5082
  797MOL0     H 9970   1.181   0.946   7.150  1.8958  0.0929  0.7329
  797MOL0     H 9971   0.925   0.884   7.187  0.8408 -1.2836  0.2370
  797MOL0     H 9972   0.616   0.995   7.558 -0.7102  0.7431  0.5388
  797MOL0     H 9973   0.398   0.952   7.644  0.8817 -0.1543  0.6535
  797MOL0     H 9974   0.199   0.825   7.744 -0.2844 -4.2066  1.1380
  797MOL0     H 9975   0.174   0.870   7.568  0.9535  2.8705  2.5563
  797MOL0     H 9976   0.022   0.653   7.726  1.8166  0.8292  0.8295
  797MOL0     H 9977   0.043   0.661   7.556  3.3799 -0.6156  0.9685
  797MOL0     H 9978  -0.079   0.899   7.722 -3.0054  3.5068 -1.9734
  797MOL0     H 9979  -0.059   0.888   7.547  2.8538  0.0718  1.0342
  797MOL0     H 9980  -0.219   0.709   7.734  2.0189  2.2704  1.3464
  797MOL0     H 9981  -0.209   0.670   7.564 -1.6818 -2.3927  2.4336
  797MOL0     H 9982  -0.507   0.976   7.565 -0.5609 -0.3902 -0.7840
  797MOL0     H 9983   0.430   0.541   7.495  1.9189 -0.0758 -0.2735
  797MOL0     H 9984   0.734   0.526   7.405  1.3416 -0.3689 -1.5591
  797MOL0     H 9985   0.592   0.496   7.303 -2.6677  0.0580  2.0474
  797MOL0     H 9986   0.702   0.609   7.256  0.2020 -1.9382 -0.4704
  798MOL0     O 9987   8.880   8.173   8.806  0.3869  0.0871  0.0836
  798MOL0     C 9988   8.886   8.190   8.929  0.1128 -1.1558  0.3123
  798MOL0     O 9989   8.809   8.110   9.014  0.6797 -0.9096  0.3955
  798MOL0     C 9990   8.765   7.990   8.968  0.0251 -0.0901  0.2116
  798MOL0     C 9991   8.855   7.896   8.906  0.6111 -0.4030  0.2274
  798MOL0     C 9992   8.805   7.766   8.881 -0.0115 -0.4200 -0.8289
  798MOL0     C 9993   8.675   7.716   8.929 -0.1918 -0.1335  0.5533
  798MOL0     O 9994   8.636   7.579   8.912 -1.2081  0.0003 -0.7475
  798MOL0     C 9995   8.727   7.483   8.974 -0.1042  0.0240 -0.6041
  798MOL0     C 9996   8.720   7.333   8.924  0.1977  0.4570  0.0282
  798MOL0     C 9997   8.581   7.265   8.939  0.4483 -1.2493  0.2366
  798MOL0     C 9998   8.566   7.136   8.861 -0.5024 -0.2663  0.5157
  798MOL0     C 9999   8.661   7.024   8.901 -0.1237  0.2677  0.4474
  798MOL0     C10000   8.621   6.886   8.855 -0.8712  0.7634  0.6965
  798MOL0     C10001   8.734   6.784   8.849 -0.6422 -0.0796  0.1597
  798MOL0     C10002   8.754   6.699   8.975  0.1619  0.1501  0.1337
  798MOL0     N10003   8.787   6.782   9.092 -0.4598 -0.2003  0.1543
  798MOL0     C10004   8.695   6.796   9.191 -0.4040 -0.3354  0.8158
  798MOL0     C10005   8.763   6.847   9.297 -0.1071 -0.1557  0.5446
  798MOL0     C10006   8.719   6.879   9.435  0.5809 -0.3530 -0.0020
  798MOL0     C10007   8.619   6.997   9.434  0.0606 -1.1280 -0.4532
  798MOL0     C10008   8.684   7.139   9.405 -1.1005  0.1932 -0.2154
  798MOL0     C10009   8.824   7.152   9.477  0.7196 -0.6552 -0.1682
  798MOL0     O10010   8.866   7.287   9.467 -0.3254 -0.6377 -0.2935
  798MOL0     C10011   8.932   7.328   9.355  0.2461 -0.4315 -0.1390
  798MOL0     C10012   8.977   7.242   9.258  0.0695 -0.5814  0.2349
  798MOL0     C10013   9.038   7.292   9.142  0.3811 -0.1598 -0.3232
  798MOL0     C10014   9.090   7.193   9.043  0.0375  0.5231 -0.1617
  798MOL0     C10015   9.062   7.431   9.131 -1.4463 -0.1170  1.1417
  798MOL0     C10016   9.138   7.497   9.017  0.5476  1.3072 -0.4544
  798MOL0     O10017   9.252   7.571   9.042  0.5092 -0.0123  0.1910
  798MOL0     C10018   9.309   7.627   8.932  0.3481  0.5606 -0.2987
  798MOL0     C10019   9.405   7.569   8.863 -0.8711  0.7731  0.1106
  798MOL0     C10020   9.433   7.612   8.732  0.0919  0.0074  0.8749
  798MOL0     C10021   9.372   7.720   8.670  0.0311  0.1015 -0.3343
  798MOL0     O10022   9.420   7.767   8.550  0.8902  0.0797 -0.1270
  798MOL0     C10023   9.332   7.867   8.489 -0.2068 -0.4943 -0.9615
  798MOL0     C10024   9.400   7.951   8.379 -0.1786 -0.8856  0.5465
  798MOL0     C10025   9.498   8.060   8.436  0.1714 -0.0759 -0.4535
  798MOL0     C10026   9.594   8.011   8.538  0.6600  0.1544  0.5595
  798MOL0     C10027   9.688   8.126   8.593 -0.3996 -0.4090  0.3815
  798MOL0     C10028   9.810   8.062   8.674  0.0528  0.6051 -0.1280
  798MOL0     C10029   9.888   7.952   8.609 -0.2936 -0.2821  0.5350
  798MOL0     C10030   9.957   7.995   8.479 -0.2363 -0.4375 -0.7235
  798MOL0    Cl10031  10.079   7.879   8.433 -0.5358  0.1584  0.0479
  798MOL0     C10032   9.276   7.794   8.753 -0.8121  0.0166  0.6389
  798MOL0     C10033   9.240   7.736   8.871  0.2176 -0.3729 -0.0707
  798MOL0     O10034   9.092   7.468   8.903 -0.1673 -0.2966 -0.1735
  798MOL0     C10035   9.029   7.515   9.237  0.6685  0.8451  0.5306
  798MOL0     C10036   8.961   7.458   9.350 -0.3433  0.2518  0.1192
  798MOL0     N10037   8.895   6.863   9.266  0.3933  0.0975 -0.5295
  798MOL0     N10038   8.911   6.811   9.146  0.2459 -0.0095 -0.4451
  798MOL0     C10039   8.591   7.813   8.976 -0.9605 -0.2844  0.1905
  798MOL0     C10040   8.642   7.943   9.010 -0.6527 -0.0491 -0.9370
  798MOL0     C10041   8.972   8.299   8.987  0.3534  0.9981 -0.4333
  798MOL0     C10042   9.013   8.402   8.899  1.3636 -0.6343 -0.3813
  798MOL0     C10043   9.102   8.501   8.935 -0.0618 -0.3951 -0.4358
  798MOL0     C10044   9.158   8.488   9.063 -0.0143  0.6992  0.2889
  798MOL0     O10045   9.252   8.575   9.109  0.1289  0.0745 -0.6553
  798MOL0     C10046   9.341   8.643   9.020 -0.4919 -0.6399 -0.6565
  798MOL0     C10047   9.426   8.538   8.952 -0.6020  0.7022  0.3686
  798MOL0     C10048   9.464   8.609   8.817  0.7971  0.2444 -0.5491
  798MOL0     C10049   9.565   8.522   8.745 -0.0279 -0.9053 -0.2844
  798MOL0     C10050   9.700   8.529   8.801 -0.0113  0.6357  0.1654
  798MOL0     C10051   9.807   8.512   8.847 -0.2719  0.3037  0.8791
  798MOL0     C10052   9.114   8.397   9.155 -0.3366  0.2928 -0.4504
  798MOL0     C10053   9.022   8.298   9.122 -0.2684  0.1541 -0.2359
  798MOL0     C10054   9.003   8.181   9.216  0.0420  0.5717  0.2177
  798MOL0     H10055   8.947   7.932   8.860  0.8166 -0.6373  0.4590
  798MOL0     H10056   8.874   7.690   8.846 -0.6209 -0.8528 -1.1165
  798MOL0     H10057   8.712   7.484   9.083  1.2898  0.5554 -0.3945
  798MOL0     H10058   8.833   7.508   8.964 -0.0198 -0.2372 -0.3819
  798MOL0     H10059   8.740   7.336   8.816 -4.1230  2.2604 -0.9520
  798MOL0     H10060   8.798   7.278   8.977  2.4200  2.4616 -0.9790
  798MOL0     H10061   8.545   7.241   9.040 -1.7492 -2.2991 -0.7083
  798MOL0     H10062   8.507   7.331   8.893  2.2317 -0.2935 -1.3777
  798MOL0     H10063   8.466   7.097   8.881 -0.5377  1.3567  4.6154
  798MOL0     H10064   8.579   7.162   8.756  0.6494 -1.3545  0.3659
  798MOL0     H10065   8.685   7.031   9.008  3.1298  2.3402 -0.2892
  798MOL0     H10066   8.759   7.047   8.857 -0.9859 -0.1273 -1.7975
  798MOL0     H10067   8.536   6.846   8.911 -0.6198  0.3367  0.7804
  798MOL0     H10068   8.579   6.894   8.754 -2.4970  0.8922  1.3550
  798MOL0     H10069   8.821   6.847   8.829  1.3455 -1.9837  2.3295
  798MOL0     H10070   8.735   6.724   8.758  0.1106  0.5812 -0.2795
  798MOL0     H10071   8.658   6.655   9.005  1.1683 -3.1237 -1.1078
  798MOL0     H10072   8.835   6.628   8.959  0.5571  0.6291 -0.0362
  798MOL0     H10073   8.589   6.773   9.184 -0.6888  0.9230  0.8173
  798MOL0     H10074   8.800   6.903   9.504  1.9381 -0.8326 -1.3778
  798MOL0     H10075   8.665   6.791   9.471 -1.6497  1.7934  2.3106
  798MOL0     H10076   8.528   6.975   9.377 -1.4563  0.5211  1.2146
  798MOL0     H10077   8.577   6.999   9.535  2.5702 -1.5828  0.6814
  798MOL0     H10078   8.710   7.148   9.299 -1.1779 -2.2184 -0.4905
  798MOL0     H10079   8.618   7.220   9.437 -0.0340  0.5171  1.3012
  798MOL0     H10080   8.802   7.142   9.583 -3.3450  2.6241 -0.4321
  798MOL0     H10081   8.905   7.083   9.451  1.4532  1.1906 -3.4008
  798MOL0     H10082   8.964   7.135   9.259 -0.6598 -0.5257 -1.2415
  798MOL0     H10083   9.042   7.198   8.945  1.8849  2.7039 -1.0473
  798MOL0     H10084   9.077   7.091   9.079  0.9377  0.6618  0.5929
  798MOL0     H10085   9.197   7.199   9.022  0.0706 -0.3490 -0.2580
  798MOL0     H10086   9.465   7.487   8.901 -2.4053 -0.6909 -0.5155
  798MOL0     H10087   9.495   7.557   8.662  1.6699  0.9617  1.4675
  798MOL0     H10088   9.244   7.812   8.453  0.7338 -2.6516 -0.1535
  798MOL0     H10089   9.311   7.951   8.555  2.5819 -0.1448 -0.4119
  798MOL0     H10090   9.459   7.896   8.304 -0.4295  1.8171 -1.8084
  798MOL0     H10091   9.323   7.997   8.316 -0.7148 -0.0143  1.7923
  798MOL0     H10092   9.432   8.140   8.472  0.4453  0.3038 -0.7916
  798MOL0     H10093   9.551   8.093   8.346 -2.3076 -1.1509 -2.4074
  798MOL0     H10094   9.663   7.944   8.486  1.8690  2.3172 -0.7634
  798MOL0     H10095   9.556   7.958   8.626 -0.0759 -2.3152 -1.1340
  798MOL0     H10096   9.728   8.179   8.506 -1.5462 -1.0994 -0.6099
  798MOL0     H10097   9.622   8.194   8.648 -0.5356 -0.9392  0.8768
  798MOL0     H10098   9.770   8.002   8.756  0.3408 -0.9129 -1.0758
  798MOL0     H10099   9.878   8.137   8.715  0.1815  0.1608  0.4779
  798MOL0     H10100   9.829   7.861   8.594 -3.8294  1.8999  0.1364
  798MOL0     H10101   9.970   7.951   8.683  0.4748  0.7882 -0.2769
  798MOL0     H10102   9.998   8.095   8.495 -2.3749  0.1865  1.3259
  798MOL0     H10103   9.886   8.006   8.396  2.4336 -2.3110 -3.5085
  798MOL0     H10104   9.217   7.882   8.729  1.2210  1.6303  1.3677
  798MOL0     H10105   9.153   7.773   8.924  0.0723 -0.7270 -0.0624
  798MOL0     H10106   9.062   7.618   9.230  1.7657  0.6441  2.2061
  798MOL0     H10107   8.952   7.528   9.432 -2.5963 -0.9534  0.9787
  798MOL0     H10108   8.490   7.785   9.004 -1.2460 -2.2330 -2.4938
  798MOL0     H10109   8.568   8.014   9.045 -1.7936 -1.4504 -0.4059
  798MOL0     H10110   8.993   8.392   8.793 -0.7313  0.5570 -0.1640
  798MOL0     H10111   9.130   8.577   8.863  0.2415  0.2581  0.3587
  798MOL0     H10112   9.289   8.712   8.953 -3.2840 -0.9695  0.9861
  798MOL0     H10113   9.396   8.710   9.086  2.8230 -2.7363 -1.0548
  798MOL0     H10114   9.369   8.447   8.932  2.3310 -0.8616 -1.5120
  798MOL0     H10115   9.514   8.521   9.015 -1.3980 -0.3285  1.2243
  798MOL0     H10116   9.385   8.625   8.743 -0.2770  3.0474  1.0352
  798MOL0     H10117   9.509   8.703   8.849  1.9961 -0.4645 -0.1100
  798MOL0     H10118   9.571   8.554   8.641  4.4858 -1.1299 -0.2759
  798MOL0     H10119   9.534   8.417   8.752  0.6040 -1.0490  0.5118
  798MOL0     H10120   9.907   8.501   8.884  0.4187 -1.4046 -1.2721
  798MOL0     H10121   9.151   8.383   9.256 -2.5427 -4.9926 -0.0275
  798MOL0     H10122   9.035   8.089   9.166 -1.0254  0.7986 -0.9456
  798MOL0     H10123   9.064   8.192   9.305  1.1151  2.7584 -0.7321
  798MOL0     H10124   8.896   8.175   9.238  0.2203 -0.0977  0.9240
  799MOL0     O10125   8.846  11.072  10.709  0.4299  0.9250  0.5143
  799MOL0     C10126   8.798  11.041  10.600 -0.4064 -0.3750  0.4037
  799MOL0     O10127   8.782  10.910  10.552 -0.7899  0.1725  0.5700
  799MOL0     C10128   8.841  10.816  10.621 -0.5894 -0.0784 -0.8335
  799MOL0     C10129   8.963  10.771  10.566  0.2942  0.5765 -0.6329
  799MOL0     C10130   9.032  10.669  10.624  0.5262 -0.3159 -0.1188
  799MOL0     C10131   8.992  10.621  10.749 -0.0510 -0.7106  0.3124
  799MOL0     O10132   9.065  10.529  10.824 -0.9920  0.1414  0.3862
  799MOL0     C10133   9.130  10.583  10.940 -0.2443 -0.4998 -0.9625
  799MOL0     C10134   9.228  10.488  11.005 -0.8539 -0.7858  0.0951
  799MOL0     C10135   9.148  10.409  11.115 -0.1553 -0.1197 -0.3391
  799MOL0     C10136   9.247  10.304  11.179  0.2970 -0.2476 -0.5435
  799MOL0     C10137   9.182  10.226  11.295 -0.4146  0.2839  0.2948
  799MOL0     C10138   9.239  10.092  11.308 -0.4834  0.3922  0.1283
  799MOL0     C10139   9.173  10.029  11.428 -0.4055  0.0002  1.1743
  799MOL0     C10140   9.243   9.891  11.458 -0.4440  0.2586  0.3998
  799MOL0     N10141   9.270   9.815  11.334 -0.4713  0.3458  0.1544
  799MOL0     C10142   9.373   9.832  11.245  0.0341  0.5155 -0.3316
  799MOL0     C10143   9.349   9.736  11.150 -0.1316  0.3671 -0.0770
  799MOL0     C10144   9.427   9.727  11.022 -0.0785 -0.2068 -0.2953
  799MOL0     C10145   9.421   9.872  10.969  0.3479  0.1138  0.2778
  799MOL0     C10146   9.432   9.877  10.821 -0.0274  0.3458  0.4283
  799MOL0     C10147   9.561   9.813  10.764 -0.2242  0.1275  0.2747
  799MOL0     O10148   9.556   9.801  10.624 -0.3829  0.0062 -0.0691
  799MOL0     C10149   9.566   9.912  10.539 -0.3732  1.0692  0.5185
  799MOL0     C10150   9.598  10.044  10.576  0.0837 -0.6414  0.2957
  799MOL0     C10151   9.612  10.148  10.481 -0.1299 -0.0507 -0.5112
  799MOL0     C10152   9.634  10.290  10.525 -0.4203  0.4380  0.5588
  799MOL0     C10153   9.620  10.114  10.341 -0.2649 -0.9102  0.9285
  799MOL0     C10154   9.650  10.213  10.233 -0.7151 -0.7109 -0.7428
  799MOL0     O10155   9.570  10.221  10.115 -0.1939  0.0922  0.2807
  799MOL0     C10156   9.565  10.332  10.030 -0.0883  0.5622  0.2209
  799MOL0     C10157   9.521  10.320   9.901 -0.0760 -0.1155  1.0106
  799MOL0     C10158   9.519  10.427   9.815 -0.0544 -0.1046 -0.8664
  799MOL0     C10159   9.559  10.550   9.866  0.0949  0.1181 -0.0728
  799MOL0     O10160   9.581  10.651   9.785 -0.6805 -0.2270  0.0917
  799MOL0     C10161   9.470  10.712   9.725  0.0299 -0.5390  0.9230
  799MOL0     C10162   9.501  10.753   9.572 -0.0671  0.2186  0.2118
  799MOL0     C10163   9.405  10.839   9.504 -0.0917  0.1572  0.2278
  799MOL0     C10164   9.420  10.839   9.348  0.5619 -0.2532  0.2759
  799MOL0     C10165   9.333  10.943   9.264 -0.3978  0.0480  0.0752
  799MOL0     C10166   9.429  11.054   9.222 -1.0453  0.1810 -0.6613
  799MOL0     C10167   9.362  11.184   9.185  0.2255 -0.5425 -0.5033
  799MOL0     C10168   9.462  11.267   9.112  0.1436 -0.3057  0.1467
  799MOL0    Cl10169   9.374  11.418   9.067  0.1403  0.1271  0.0670
  799MOL0     C10170   9.599  10.569   9.991 -0.6220 -0.2067 -0.8589
  799MOL0     C10171   9.597  10.463  10.079 -0.5485 -0.8969 -0.5860
  799MOL0     O10172   9.757  10.284  10.251 -0.5743  0.1444  0.8462
  799MOL0     C10173   9.588   9.978  10.311  0.3721  0.3145  0.4333
  799MOL0     C10174   9.563   9.885  10.408  0.3745 -0.8426 -0.1853
  799MOL0     N10175   9.247   9.658  11.191  0.2571  0.5450  0.1564
  799MOL0     N10176   9.183   9.717  11.285 -0.5873 -0.1291  0.3216
  799MOL0     C10177   8.877  10.665  10.808  0.7081 -0.0046 -0.2078
  799MOL0     C10178   8.802  10.763  10.749  0.4517 -0.4932  0.1184
  799MOL0     C10179   8.749  11.156  10.516  0.2089 -0.8009  0.6385
  799MOL0     C10180   8.809  11.286  10.518  0.4296  0.0086 -0.3644
  799MOL0     C10181   8.756  11.388  10.443  0.5602  0.6154  0.0147
  799MOL0     C10182   8.649  11.384  10.366 -0.1100 -0.8612  0.1651
  799MOL0     O10183   8.606  11.500  10.304 -0.8630 -0.2478  0.5138
  799MOL0     C10184   8.467  11.498  10.265  0.0525  0.3907 -0.7493
  799MOL0     C10185   8.420  11.646  10.239  0.8634  1.2497 -0.0644
  799MOL0     C10186   8.267  11.656  10.224  0.8227  1.1081 -0.6404
  799MOL0     C10187   8.213  11.602  10.090 -0.0073 -0.0103  0.0593
  799MOL0     C10188   8.245  11.693   9.977 -0.4945  0.7521 -0.0577
  799MOL0     C10189   8.279  11.764   9.881  0.3239  0.2265 -0.1124
  799MOL0     C10190   8.573  11.268  10.378  0.1621 -0.4313  0.1904
  799MOL0     C10191   8.620  11.155  10.453 -0.3767 -0.0844 -0.2447
  799MOL0     C10192   8.535  11.028  10.461  0.0976  0.4173  0.2947
  799MOL0     H10193   8.995  10.825  10.477  4.4084 -1.9950 -0.9539
  799MOL0     H10194   9.125  10.638  10.577  0.0859 -1.6850 -0.1216
  799MOL0     H10195   9.055  10.623  11.009 -1.2979 -1.1486 -1.7040
  799MOL0     H10196   9.179  10.677  10.913 -0.3527  0.0029  0.5125
  799MOL0     H10197   9.264  10.418  10.929  0.2137 -0.4464  0.2690
  799MOL0     H10198   9.325  10.530  11.034 -0.9468 -1.4046  1.3620
  799MOL0     H10199   9.123  10.478  11.196  1.4982  0.4496 -0.2667
  799MOL0     H10200   9.054  10.370  11.076 -0.1273  0.7829 -1.3468
  799MOL0     H10201   9.282  10.234  11.102 -1.3165 -0.1790 -1.3876
  799MOL0     H10202   9.330  10.365  11.214  0.7201  0.1390 -2.1233
  799MOL0     H10203   9.081  10.200  11.263 -0.5332  0.6585  0.3623
  799MOL0     H10204   9.187  10.273  11.393  0.7455 -1.2978  1.0330
  799MOL0     H10205   9.224  10.038  11.214  2.6758  0.2456 -0.4262
  799MOL0     H10206   9.347  10.101  11.326 -0.5457 -0.1054  0.7599
  799MOL0     H10207   9.065  10.012  11.425 -0.3448 -0.5725  1.8779
  799MOL0     H10208   9.192  10.087  11.519  1.7520 -0.1424  0.8614
  799MOL0     H10209   9.340   9.902  11.507 -0.3811  0.0469  0.3199
  799MOL0     H10210   9.181   9.837  11.530  1.2450  1.6937  3.0981
  799MOL0     H10211   9.443   9.914  11.228  2.4336 -1.0873  1.1386
  799MOL0     H10212   9.378   9.660  10.951 -1.4003 -1.7784  1.9821
  799MOL0     H10213   9.530   9.692  11.034 -0.6776 -1.8412  0.3279
  799MOL0     H10214   9.326   9.917  11.000 -1.0496 -2.7099  0.3916
  799MOL0     H10215   9.502   9.933  11.012  1.5900  0.6837 -2.6538
  799MOL0     H10216   9.351   9.811  10.789  0.5134  0.0724 -0.4212
  799MOL0     H10217   9.411   9.975  10.777 -1.7859  1.8252  4.1086
  799MOL0     H10218   9.648   9.871  10.795 -1.4986  2.0823  0.3436
  799MOL0     H10219   9.581   9.717  10.814  3.1951  1.3929  1.6065
  799MOL0     H10220   9.606  10.066  10.682  0.0465  1.1821 -0.0447
  799MOL0     H10221   9.582  10.330  10.613 -0.0902  2.6121 -0.1747
  799MOL0     H10222   9.609  10.357  10.442  1.5361  0.3823 -0.1271
  799MOL0     H10223   9.742  10.308  10.527 -0.4399  3.8451 -5.1258
  799MOL0     H10224   9.502  10.221   9.861  1.5105  0.6224 -1.9195
  799MOL0     H10225   9.501  10.426   9.708  0.3552  2.6497 -1.0253
  799MOL0     H10226   9.383  10.645   9.728  0.8876 -1.7913 -0.5199
  799MOL0     H10227   9.435  10.802   9.774  1.5027 -0.5712  2.1047
  799MOL0     H10228   9.600  10.799   9.578  0.7243 -1.2574 -0.7298
  799MOL0     H10229   9.503  10.661   9.513  0.8013 -0.3760  1.1290
  799MOL0     H10230   9.439  10.939   9.534  1.2410 -0.0816 -0.4202
  799MOL0     H10231   9.302  10.815   9.531 -0.5862  4.3466  2.9904
  799MOL0     H10232   9.399  10.743   9.300  0.1552  0.0147 -0.0977
  799MOL0     H10233   9.525  10.850   9.321  0.3828  0.9704  0.0328
  799MOL0     H10234   9.289  10.896   9.175  0.9999  0.0105 -0.6248
  799MOL0     H10235   9.250  10.986   9.321  0.3077  1.2289  0.2434
  799MOL0     H10236   9.502  11.015   9.150 -0.0219  0.2139  0.3276
  799MOL0     H10237   9.493  11.087   9.304  0.6413 -1.2438 -1.3241
  799MOL0     H10238   9.342  11.233   9.281  4.2998  1.3873 -0.4474
  799MOL0     H10239   9.282  11.171   9.111  1.5589  1.2675 -2.3831
  799MOL0     H10240   9.511  11.211   9.032  1.1208  0.4347  0.2051
  799MOL0     H10241   9.546  11.299   9.174  0.3887  1.0840 -0.8348
  799MOL0     H10242   9.639  10.667  10.014 -1.0540 -0.1588 -0.3032
  799MOL0     H10243   9.611  10.483  10.185  2.7329 -1.1695 -0.8733
  799MOL0     H10244   9.592   9.956  10.205  0.7116  3.2216 -0.2702
  799MOL0     H10245   9.545   9.786  10.367 -0.5852 -0.2879 -1.1820
  799MOL0     H10246   8.848  10.617  10.901 -1.5550  0.6827 -0.4951
  799MOL0     H10247   8.718  10.806  10.802  1.9321 -1.2056  3.2368
  799MOL0     H10248   8.903  11.301  10.569  1.0132 -1.2787 -0.9948
  799MOL0     H10249   8.807  11.482  10.424 -1.8252  1.6906 -1.4782
  799MOL0     H10250   8.470  11.446  10.169  1.2442 -2.8190  0.8853
  799MOL0     H10251   8.402  11.451  10.339 -0.3874  1.3064 -0.5365
  799MOL0     H10252   8.477  11.700  10.163  0.9715  0.1357 -0.7964
  799MOL0     H10253   8.451  11.701  10.329  2.3852 -1.3909  1.1373
  799MOL0     H10254   8.226  11.617  10.318  1.6109  0.8189 -0.4032
  799MOL0     H10255   8.242  11.762  10.235 -1.1839  0.6154  0.0629
  799MOL0     H10256   8.104  11.595  10.095 -0.3856  3.3619 -0.8648
  799MOL0     H10257   8.248  11.501  10.064 -1.6517 -0.8892  1.1149
  799MOL0     H10258   8.331  11.812   9.800 -0.4474  2.2354  0.5278
  799MOL0     H10259   8.481  11.254  10.322  0.8769 -1.6031 -0.7165
  799MOL0     H10260   8.584  10.941  10.416  1.8543  2.0623 -1.1369
  799MOL0     H10261   8.501  11.014  10.564  1.1566  1.8190  0.8690
  799MOL0     H10262   8.446  11.052  10.402 -1.7108  1.3029  3.1840
  800MOL0     O10263   3.495   7.120  10.185 -0.1401 -0.2159  0.3911
  800MOL0     C10264   3.620   7.131  10.154  0.5736 -0.6118 -0.7884
  800MOL0     O10265   3.723   7.047  10.194  0.2077  0.1510 -0.0352
  800MOL0     C10266   3.710   6.909  10.222  0.2945 -0.6988  0.0789
  800MOL0     C10267   3.829   6.841  10.262  0.0874 -0.2798 -0.0873
  800MOL0     C10268   3.828   6.708  10.298 -0.7723 -0.0568  0.0689
  800MOL0     C10269   3.718   6.629  10.275  0.7244 -0.0265 -0.3938
  800MOL0     O10270   3.722   6.493  10.314 -0.9167 -0.1962  0.0873
  800MOL0     C10271   3.680   6.414  10.198  0.0326  0.6087  0.2484
  800MOL0     C10272   3.710   6.263  10.216 -0.4508  0.1116  0.1157
  800MOL0     C10273   3.691   6.185  10.090 -0.0228 -0.0771  0.3555
  800MOL0     C10274   3.695   6.033  10.118 -0.4107 -0.0588  0.1255
  800MOL0     C10275   3.702   5.950   9.990 -0.2693 -0.9718  0.2929
  800MOL0     C10276   3.848   5.952   9.942 -0.6178 -0.4040  0.7867
  800MOL0     C10277   3.846   5.884   9.804  0.2575  0.5096  0.2582
  800MOL0     C10278   3.990   5.860   9.764 -0.5010 -0.0478 -0.2957
  800MOL0     N10279   4.073   5.984   9.743  0.2130 -0.4057 -0.5560
  800MOL0     C10280   4.168   6.040   9.815 -0.6132  0.3777 -0.2238
  800MOL0     C10281   4.204   6.161   9.772 -0.6405 -0.0784 -0.0702
  800MOL0     C10282   4.312   6.251   9.823  0.8980 -0.5455 -0.2436
  800MOL0     C10283   4.432   6.262   9.729  0.7019 -0.2930  0.3187
  800MOL0     C10284   4.505   6.126   9.715  0.2240 -0.6060  0.2104
  800MOL0     C10285   4.629   6.171   9.632  0.4486 -0.2017  0.6223
  800MOL0     O10286   4.614   6.180   9.489 -0.1858  0.4644 -0.0117
  800MOL0     C10287   4.609   6.066   9.416  0.1618  0.3306 -0.4905
  800MOL0     C10288   4.620   5.938   9.468 -0.0435 -0.2843  0.6858
  800MOL0     C10289   4.625   5.821   9.396  0.4015  0.4637  0.1446
  800MOL0     C10290   4.672   5.700   9.469  0.6992  1.0154 -0.3304
  800MOL0     C10291   4.594   5.824   9.259 -0.0301 -0.1864 -1.9868
  800MOL0     C10292   4.577   5.705   9.169 -0.5511 -0.1853  0.8953
  800MOL0     O10293   4.555   5.740   9.040  0.0303  0.6321 -0.1362
  800MOL0     C10294   4.544   5.634   8.956  0.7074  0.2881  0.1367
  800MOL0     C10295   4.412   5.590   8.915 -0.4589  0.9215  0.4540
  800MOL0     C10296   4.403   5.478   8.825  0.1215  0.2764 -0.6941
  800MOL0     C10297   4.503   5.415   8.777 -0.9474  0.2191 -0.3914
  800MOL0     O10298   4.483   5.327   8.668  0.4207 -0.2279 -0.0447
  800MOL0     C10299   4.589   5.245   8.626 -0.3967 -0.5938  0.4510
  800MOL0     C10300   4.538   5.137   8.536 -0.0675  0.6989  0.1157
  800MOL0     C10301   4.458   5.024   8.599  0.2851  0.8464 -1.0349
  800MOL0     C10302   4.549   4.938   8.677 -0.3651  1.4084 -1.6505
  800MOL0     C10303   4.465   4.813   8.705  0.2379  0.0528 -0.1518
  800MOL0     C10304   4.556   4.710   8.769 -0.1147  0.0878 -0.4574
  800MOL0     C10305   4.621   4.751   8.896 -0.3450  0.1036 -0.0319
  800MOL0     C10306   4.721   4.649   8.939 -0.7136 -0.1354  0.4221
  800MOL0    Cl10307   4.783   4.699   9.098  0.4739  0.2089  0.1902
  800MOL0     C10308   4.634   5.459   8.818 -0.1469  0.0147 -0.3283
  800MOL0     C10309   4.654   5.564   8.906 -0.1763  0.2236 -0.1866
  800MOL0     O10310   4.562   5.591   9.210  0.6420  0.0084 -0.3358
  800MOL0     C10311   4.558   5.945   9.213  1.0519 -0.3586  0.8756
  800MOL0     C10312   4.575   6.068   9.276 -1.2676  0.1171  0.2216
  800MOL0     N10313   4.120   6.184   9.662  0.1459  0.8064  0.0583
  800MOL0     N10314   4.032   6.074   9.650 -1.0987  0.1802  0.3802
  800MOL0     C10315   3.597   6.687  10.245  0.3698 -0.1355 -0.1956
  800MOL0     C10316   3.587   6.830  10.216  0.2385 -0.7799  0.0592
  800MOL0     C10317   3.651   7.258  10.087  0.2963 -0.0172 -0.2630
  800MOL0     C10318   3.560   7.371  10.109  0.1791  0.2595 -0.1375
  800MOL0     C10319   3.577   7.491  10.045  0.5543  0.9018 -0.1935
  800MOL0     C10320   3.678   7.505   9.947 -0.7326 -0.1011  0.5007
  800MOL0     O10321   3.705   7.621   9.872 -0.4458 -0.8186 -0.1479
  800MOL0     C10322   3.615   7.731   9.865  0.3934  0.2824  0.0196
  800MOL0     C10323   3.647   7.792   9.723 -0.7211 -0.5533  0.7811
  800MOL0     C10324   3.770   7.877   9.712 -0.0690  0.9107 -0.3874
  800MOL0     C10325   3.881   7.830   9.620 -0.1431 -0.4908 -0.3003
  800MOL0     C10326   3.840   7.856   9.479 -0.3120  0.1507 -0.0129
  800MOL0     C10327   3.793   7.860   9.372  0.1633 -0.2047  0.6782
  800MOL0     C10328   3.766   7.390   9.917 -0.7746 -0.5941 -0.0330
  800MOL0     C10329   3.748   7.270   9.986 -0.0153  0.0493  0.0141
  800MOL0     C10330   3.853   7.161   9.953  0.2898 -0.3540 -0.3089
  800MOL0     H10331   3.923   6.895  10.248 -0.4782  1.5118  2.3279
  800MOL0     H10332   3.925   6.673  10.331 -1.2327 -2.0739 -0.5929
  800MOL0     H10333   3.734   6.440  10.106 -0.2215  0.9861  0.2055
  800MOL0     H10334   3.574   6.427  10.174 -0.1314 -1.5916 -0.4457
  800MOL0     H10335   3.817   6.261  10.241 -0.9561  1.6188  2.8027
  800MOL0     H10336   3.651   6.221  10.298 -1.7902  0.8958 -0.4120
  800MOL0     H10337   3.593   6.218  10.054  0.1294  1.6203  1.4346
  800MOL0     H10338   3.759   6.206  10.007 -2.3020  3.0271 -0.9054
  800MOL0     H10339   3.779   6.003  10.182 -0.1071  0.6387  0.0653
  800MOL0     H10340   3.605   6.012  10.175 -0.8835 -0.8091 -0.8698
  800MOL0     H10341   3.631   5.994   9.920  1.7027 -0.9626 -1.8167
  800MOL0     H10342   3.677   5.844   9.999 -1.2844 -0.8287 -0.7210
  800MOL0     H10343   3.885   6.054   9.931 -0.3218 -0.5904 -0.0424
  800MOL0     H10344   3.913   5.897  10.011  1.1782  0.1675 -0.3681
  800MOL0     H10345   3.797   5.950   9.731 -0.4544  0.3603  0.5932
  800MOL0     H10346   3.792   5.790   9.814 -0.1038  0.4442 -1.8725
  800MOL0     H10347   4.031   5.793   9.840  2.3079  0.3054 -1.3532
  800MOL0     H10348   4.000   5.809   9.667 -0.1251 -0.3028 -0.1278
  800MOL0     H10349   4.216   5.991   9.899 -0.7839  0.6506  0.0344
  800MOL0     H10350   4.333   6.215   9.924  3.5064  0.4346 -0.3464
  800MOL0     H10351   4.256   6.345   9.827 -2.1056 -2.2177  3.1157
  800MOL0     H10352   4.410   6.295   9.627  4.3667  0.4825 -0.3829
  800MOL0     H10353   4.500   6.335   9.773 -2.6986  2.7010  1.0044
  800MOL0     H10354   4.533   6.084   9.812  0.0443 -1.1570  0.0287
  800MOL0     H10355   4.438   6.063   9.656  0.8733  1.7078 -3.3394
  800MOL0     H10356   4.659   6.271   9.663  2.7083 -0.6895  0.1606
  800MOL0     H10357   4.711   6.100   9.647  1.3988  0.6644 -0.3314
  800MOL0     H10358   4.629   5.929   9.576 -2.1191  2.3245  1.1969
  800MOL0     H10359   4.595   5.642   9.520  1.1203 -0.6495 -1.4757
  800MOL0     H10360   4.733   5.728   9.555 -1.7283 -0.6648  2.1115
  800MOL0     H10361   4.725   5.628   9.405  2.1891  1.1744  0.6937
  800MOL0     H10362   4.329   5.650   8.950 -0.7781 -0.3227  1.9740
  800MOL0     H10363   4.305   5.463   8.781 -0.0949  1.4432 -0.6393
  800MOL0     H10364   4.658   5.301   8.562  0.2928 -1.8287  0.0709
  800MOL0     H10365   4.648   5.198   8.705 -2.2227 -1.0423  1.5924
  800MOL0     H10366   4.471   5.183   8.463 -3.0986 -3.5235 -0.1786
  800MOL0     H10367   4.614   5.090   8.473 -2.1523 -0.0898 -1.9469
  800MOL0     H10368   4.416   4.969   8.514  2.9185  0.0424 -1.9196
  800MOL0     H10369   4.373   5.062   8.655  1.0375 -0.4803  1.1073
  800MOL0     H10370   4.576   4.987   8.771  2.2289  2.3609 -2.8233
  800MOL0     H10371   4.637   4.902   8.623  0.8608  0.6532  0.6878
  800MOL0     H10372   4.380   4.846   8.765  1.4215  0.0626  1.5730
  800MOL0     H10373   4.434   4.778   8.606  0.3962  0.6896 -0.4326
  800MOL0     H10374   4.627   4.681   8.692 -1.8160  2.0824 -2.9647
  800MOL0     H10375   4.503   4.617   8.792  3.4044 -2.2568 -1.1196
  800MOL0     H10376   4.550   4.776   8.975  1.6013  3.5368  0.8351
  800MOL0     H10377   4.682   4.841   8.884 -0.9265  0.6490  0.9989
  800MOL0     H10378   4.796   4.641   8.860  1.5461 -0.5699  2.5013
  800MOL0     H10379   4.675   4.550   8.948 -0.9084 -0.1050 -0.2359
  800MOL0     H10380   4.725   5.425   8.771  1.2936 -0.2984  2.5130
  800MOL0     H10381   4.751   5.607   8.930 -0.3477 -0.0814  1.1368
  800MOL0     H10382   4.525   5.956   9.110  0.7695  0.6503  1.0616
  800MOL0     H10383   4.545   6.165   9.238 -0.4458  0.4049  0.2821
  800MOL0     H10384   3.509   6.623  10.247  2.1051 -2.9739 -3.2409
  800MOL0     H10385   3.490   6.872  10.192 -0.2249 -1.9619 -0.2186
  800MOL0     H10386   3.478   7.360  10.179 -1.2535 -1.9568 -2.0236
  800MOL0     H10387   3.508   7.564  10.085  1.8356  2.3711 -0.5913
  800MOL0     H10388   3.512   7.695   9.863 -0.3013  2.1768 -1.5504
  800MOL0     H10389   3.642   7.808   9.938  1.2544 -0.0198  0.0265
  800MOL0     H10390   3.560   7.851   9.693 -1.1067 -2.2767 -1.8554
  800MOL0     H10391   3.646   7.712   9.648  0.4743  0.3598 -0.2454
  800MOL0     H10392   3.746   7.982   9.694 -0.3073  0.5375 -2.4824
  800MOL0     H10393   3.813   7.882   9.813  0.0106  1.7199 -0.4523
  800MOL0     H10394   3.889   7.723   9.639 -1.0486 -0.5385 -0.1561
  800MOL0     H10395   3.978   7.875   9.642  0.2279 -1.4261  0.0438
  800MOL0     H10396   3.750   7.859   9.274  1.2610  2.0931  0.0991
  800MOL0     H10397   3.841   7.392   9.839  1.1968 -1.4138  1.7280
  800MOL0     H10398   3.799   7.067   9.969 -0.9310  0.4941  0.6823
  800MOL0     H10399   3.896   7.153   9.853 -0.3608  0.5622 -0.6800
  800MOL0     H10400   3.937   7.173  10.022  0.5210  1.6997 -0.8986
  801MOL0     O10401   8.093  10.554   7.091 -0.8028  0.6475  0.2915
  801MOL0     C10402   8.040  10.492   7.181 -0.3314  0.0497 -0.0319
  801MOL0     O10403   8.059  10.517   7.311  0.4484  0.6785  0.1429
  801MOL0     C10404   8.143  10.626   7.337  0.2265  0.2659 -0.0568
  801MOL0     C10405   8.096  10.755   7.323  0.1123 -0.0342  0.6591
  801MOL0     C10406   8.179  10.867   7.363 -0.1446 -0.6408  0.0127
  801MOL0     C10407   8.313  10.851   7.407 -0.4489 -0.4075  0.8719
  801MOL0     O10408   8.404  10.955   7.438  0.6250  0.7152 -0.0100
  801MOL0     C10409   8.353  11.034   7.548 -0.6200 -0.3826 -0.0706
  801MOL0     C10410   8.429  11.160   7.557 -0.5207  0.0032 -0.0312
  801MOL0     C10411   8.573  11.129   7.571  0.0921  0.0349 -0.5226
  801MOL0     C10412   8.653  11.260   7.599  0.1785  0.3171  0.5153
  801MOL0     C10413   8.650  11.351   7.482  0.0366  0.7994 -0.5809
  801MOL0     C10414   8.752  11.304   7.369  0.2452  0.0676  0.0533
  801MOL0     C10415   8.721  11.393   7.256  0.6170 -0.0183 -0.1403
  801MOL0     C10416   8.815  11.384   7.129  0.9240 -0.0686  0.4996
  801MOL0     N10417   8.763  11.448   7.015  0.7025 -0.6238  0.1891
  801MOL0     C10418   8.832  11.460   6.895  0.3127 -0.1201  0.2872
  801MOL0     C10419   8.776  11.565   6.831 -0.2030  0.0085  0.1779
  801MOL0     C10420   8.814  11.604   6.693  0.2707  0.0157  0.6966
  801MOL0     C10421   8.765  11.737   6.639 -0.3953 -0.4738  0.0788
  801MOL0     C10422   8.811  11.776   6.500 -0.9102 -0.0257 -0.6185
  801MOL0     C10423   8.796  11.934   6.499 -0.3164  0.1483  0.1006
  801MOL0     O10424   8.670  11.981   6.442  0.0457 -0.5885 -0.0141
  801MOL0     C10425   8.647  12.115   6.437  0.2061  0.0554 -0.7900
  801MOL0     C10426   8.730  12.209   6.489 -0.7448 -0.6008 -0.3665
  801MOL0     C10427   8.706  12.349   6.487 -0.0967  0.2508 -0.1073
  801MOL0     C10428   8.818  12.428   6.550 -0.9629  0.1623 -0.6121
  801MOL0     C10429   8.578  12.395   6.438  0.7169  0.4438 -0.0910
  801MOL0     C10430   8.520  12.527   6.447  0.3839 -1.0704 -0.8838
  801MOL0     O10431   8.404  12.553   6.380  0.2926 -0.4857  0.6107
  801MOL0     C10432   8.327  12.657   6.429  0.4647 -0.8777  0.0138
  801MOL0     C10433   8.368  12.792   6.436  0.2299  0.1286 -0.1192
  801MOL0     C10434   8.281  12.889   6.489  0.2662 -0.4066  0.9772
  801MOL0     C10435   8.162  12.863   6.550 -0.2132  0.7750  0.6929
  801MOL0     O10436   8.097  12.969   6.604 -0.7400  0.0713 -0.3141
  801MOL0     C10437   7.948  12.958   6.603 -0.8806 -0.0394 -0.3214
  801MOL0     C10438   7.878  13.098   6.621 -0.3257  0.3449 -0.0867
  801MOL0     C10439   7.944  13.198   6.721  0.5017  0.6381 -0.0870
  801MOL0     C10440   7.835  13.283   6.784 -0.4594 -0.0179 -0.3401
  801MOL0     C10441   7.892  13.408   6.866 -0.5145  0.1425 -0.7624
  801MOL0     C10442   7.774  13.475   6.938  0.0156  0.3056  0.4750
  801MOL0     C10443   7.824  13.606   7.004  0.0665  0.9307 -0.2647
  801MOL0     C10444   7.740  13.666   7.116 -0.1783  0.0685  0.1951
  801MOL0    Cl10445   7.747  13.577   7.273 -0.5083  0.2798 -0.3384
  801MOL0     C10446   8.125  12.726   6.554 -0.4124 -0.7841 -0.9043
  801MOL0     C10447   8.203  12.626   6.489  0.9186  0.7598  0.9778
  801MOL0     O10448   8.577  12.607   6.520  0.0534  0.2326  0.7118
  801MOL0     C10449   8.497  12.296   6.387  1.0196  0.5390 -0.2593
  801MOL0     C10450   8.530  12.161   6.381  0.2452  0.6403  0.0710
  801MOL0     N10451   8.670  11.613   6.907  0.0360  0.6588  0.2846
  801MOL0     N10452   8.669  11.546   7.012  0.2609 -0.6055 -0.1695
  801MOL0     C10453   8.356  10.718   7.418 -1.1248  0.0800  0.5990
  801MOL0     C10454   8.268  10.609   7.390  0.0195  0.6002 -0.3739
  801MOL0     C10455   7.965  10.375   7.128  0.3424 -0.2969 -0.9241
  801MOL0     C10456   7.886  10.312   7.230 -0.1007 -0.4022  0.3800
  801MOL0     C10457   7.804  10.207   7.195 -0.9067 -0.5366 -0.6562
  801MOL0     C10458   7.793  10.164   7.064  1.0170 -0.2784  0.1100
  801MOL0     O10459   7.724  10.056   7.021 -0.5855 -0.5157  0.0268
  801MOL0     C10460   7.649   9.971   7.107  0.1470 -0.2854  0.2821
  801MOL0     C10461   7.526  10.024   7.167 -0.6039  0.5521 -0.3202
  801MOL0     C10462   7.452   9.926   7.255  0.1093  0.1427  0.0828
  801MOL0     C10463   7.524   9.890   7.387  0.0554 -0.5628  0.4032
  801MOL0     C10464   7.427   9.832   7.472  0.9547 -0.0653 -0.0546
  801MOL0     C10465   7.333   9.775   7.535 -0.3803  0.3566  0.5220
  801MOL0     C10466   7.869  10.226   6.965  0.2544 -0.0760 -0.1294
  801MOL0     C10467   7.962  10.327   6.987 -0.8758  0.8458  0.1804
  801MOL0     C10468   8.044  10.368   6.875 -0.1029 -0.9211  0.7544
  801MOL0     H10469   8.003  10.787   7.276  0.0700  3.6271  2.8338
  801MOL0     H10470   8.130  10.962   7.346  0.5444 -0.5356 -1.5172
  801MOL0     H10471   8.349  10.981   7.644 -2.6585  2.8183  1.7849
  801MOL0     H10472   8.252  11.054   7.510  0.7182  1.3813 -3.0018
  801MOL0     H10473   8.422  11.210   7.459  0.5751  2.8916  1.2398
  801MOL0     H10474   8.393  11.223   7.638 -3.0447 -3.0891  1.4607
  801MOL0     H10475   8.579  11.071   7.663 -2.2564 -1.2608 -1.1147
  801MOL0     H10476   8.610  11.076   7.482 -0.0049 -0.4404 -0.2826
  801MOL0     H10477   8.614  11.311   7.687  2.8286  1.3901  1.1395
  801MOL0     H10478   8.756  11.239   7.627 -0.1008 -1.1529  0.5610
  801MOL0     H10479   8.700  11.442   7.516  0.4220  0.5496 -0.4733
  801MOL0     H10480   8.548  11.372   7.448  0.7635  1.4950 -2.4537
  801MOL0     H10481   8.857  11.311   7.400 -0.0282 -0.6320  1.2122
  801MOL0     H10482   8.737  11.200   7.338  0.4962  0.6451 -2.1753
  801MOL0     H10483   8.719  11.498   7.285 -0.0731  0.3704 -1.4989
  801MOL0     H10484   8.619  11.367   7.223  0.5677  1.2810 -1.0952
  801MOL0     H10485   8.914  11.421   7.157  0.9444  0.1198  0.1781
  801MOL0     H10486   8.830  11.280   7.099 -0.0503 -0.3624  1.0051
  801MOL0     H10487   8.910  11.390   6.866 -2.1357 -2.2161 -1.6656
  801MOL0     H10488   8.789  11.523   6.624 -0.0065 -0.3540  1.2298
  801MOL0     H10489   8.923  11.614   6.697  0.5151 -1.1701 -1.6145
  801MOL0     H10490   8.656  11.747   6.644 -0.3746 -0.8766  2.5260
  801MOL0     H10491   8.794  11.816   6.708 -1.7083 -1.9006  2.3863
  801MOL0     H10492   8.904  11.724   6.477 -1.5158 -1.6406  0.4184
  801MOL0     H10493   8.731  11.734   6.438 -1.3100  0.5139 -0.4779
  801MOL0     H10494   8.822  11.980   6.594  1.3259 -0.1657 -0.1675
  801MOL0     H10495   8.872  11.971   6.429  0.2256  0.7552  0.9967
  801MOL0     H10496   8.822  12.169   6.532  1.2377  1.8544 -2.0514
  801MOL0     H10497   8.813  12.531   6.513 -2.2138  0.3448  0.0017
  801MOL0     H10498   8.918  12.391   6.532 -0.4166  1.0795  0.3845
  801MOL0     H10499   8.802  12.427   6.659  0.6271  1.6137 -0.3247
  801MOL0     H10500   8.469  12.822   6.413  1.6072 -1.9560  2.5887
  801MOL0     H10501   8.331  12.985   6.481  2.2138 -1.5028 -3.7399
  801MOL0     H10502   7.897  12.915   6.516 -4.1619  3.8774 -0.6621
  801MOL0     H10503   7.918  12.893   6.686  0.1295  1.1377  1.0045
  801MOL0     H10504   7.893  13.152   6.527  1.8965 -0.7734 -0.4452
  801MOL0     H10505   7.773  13.088   6.648 -0.5218 -1.7681 -1.4047
  801MOL0     H10506   8.017  13.268   6.677 -1.5461  2.5544 -0.5966
  801MOL0     H10507   7.990  13.139   6.801 -1.8937 -0.3841  0.6025
  801MOL0     H10508   7.782  13.217   6.853  2.9621 -1.8299  0.7990
  801MOL0     H10509   7.773  13.318   6.701 -1.3971  0.4089  0.5166
  801MOL0     H10510   7.972  13.376   6.933 -0.8863 -1.5471 -1.0771
  801MOL0     H10511   7.945  13.482   6.806  0.7518  1.2108  1.5561
  801MOL0     H10512   7.716  13.417   7.011 -1.8229  1.3737 -0.0646
  801MOL0     H10513   7.702  13.499   6.859  1.4107 -2.4042 -1.8031
  801MOL0     H10514   7.838  13.684   6.929  1.4517  0.2950 -0.6933
  801MOL0     H10515   7.924  13.595   7.046 -0.2489  0.6873  0.4428
  801MOL0     H10516   7.635  13.679   7.091 -0.3565  1.2961  1.4389
  801MOL0     H10517   7.781  13.766   7.133  0.5674  0.4838 -3.2934
  801MOL0     H10518   8.034  12.699   6.606  1.3891 -2.8998  1.4025
  801MOL0     H10519   8.170  12.522   6.485  4.5818 -0.5591  1.2764
  801MOL0     H10520   8.398  12.325   6.354  0.6582 -0.1439  0.2176
  801MOL0     H10521   8.452  12.095   6.344  1.5243 -0.1910 -1.2311
  801MOL0     H10522   8.456  10.704   7.458 -0.0215  2.2890 -1.1671
  801MOL0     H10523   8.305  10.507   7.393  0.7371  0.7776 -2.0032
  801MOL0     H10524   7.899  10.335   7.335 -0.4106 -3.4147  1.2001
  801MOL0     H10525   7.759  10.149   7.275 -1.5583 -0.9858 -1.3283
  801MOL0     H10526   7.616   9.889   7.042  3.3269 -2.0402  0.6564
  801MOL0     H10527   7.722   9.933   7.179  1.2798  2.3917  0.6505
  801MOL0     H10528   7.450  10.067   7.103 -1.5228 -2.4269 -1.4009
  801MOL0     H10529   7.555  10.107   7.233  1.6502 -1.3141  1.2229
  801MOL0     H10530   7.350   9.961   7.276 -0.4293  0.3524 -2.6188
  801MOL0     H10531   7.442   9.835   7.195 -1.1333  1.5355 -1.9518
  801MOL0     H10532   7.557   9.987   7.426 -2.4128  0.6303 -0.2825
  801MOL0     H10533   7.601   9.813   7.378  0.8398  0.2788 -0.4229
  801MOL0     H10534   7.246   9.739   7.586 -0.8877  1.7298  0.6582
  801MOL0     H10535   7.855  10.181   6.867 -0.7738 -1.6639  0.6979
  801MOL0     H10536   8.073  10.292   6.802 -1.7652  1.9518 -3.3020
  801MOL0     H10537   8.000  10.453   6.820  1.9336  0.0619  0.5432
  801MOL0     H10538   8.141  10.402   6.913 -1.3995  3.1785  0.9603
  802MOL0     O10539   0.631  10.585   0.737 -0.6055 -0.6457 -0.3719
  802MOL0     C10540   0.533  10.522   0.772 -0.6818 -0.0981  0.3243
  802MOL0     O10541   0.510  10.470   0.907 -0.4477 -0.4062  0.9430
  802MOL0     C10542   0.595  10.509   1.011  0.0715  0.5230  1.4564
  802MOL0     C10543   0.635  10.412   1.106  0.3453 -0.0782 -0.1390
  802MOL0     C10544   0.702  10.444   1.224 -0.2879 -0.1671 -0.3118
  802MOL0     C10545   0.732  10.577   1.254 -0.4808  0.3056 -0.5501
  802MOL0     O10546   0.793  10.608   1.371 -0.0749  0.4900  0.0069
  802MOL0     C10547   0.792  10.750   1.420  0.5646  0.3165 -0.4445
  802MOL0     C10548   0.794  10.749   1.575  1.2095  0.5092  0.3022
  802MOL0     C10549   0.928  10.734   1.645  0.2231 -0.0211  0.7878
  802MOL0     C10550   0.993  10.593   1.628  0.4202  1.0352  0.4789
  802MOL0     C10551   1.138  10.590   1.681 -0.6394  0.5454  0.0094
  802MOL0     C10552   1.166  10.511   1.816  0.4919 -0.1575 -0.3959
  802MOL0     C10553   1.316  10.508   1.835 -0.5709 -0.6281  0.1168
  802MOL0     C10554   1.360  10.453   1.966  0.6527 -0.4117 -0.2636
  802MOL0     N10555   1.504  10.446   1.984  0.4642 -0.7648  1.0683
  802MOL0     C10556   1.592  10.350   1.932 -0.7205  0.7045 -0.4159
  802MOL0     C10557   1.713  10.409   1.924  0.2425  0.3153  0.1884
  802MOL0     C10558   1.846  10.349   1.903  0.8722 -0.6871  0.0448
  802MOL0     C10559   1.892  10.392   1.761 -0.6741  0.0235 -0.5716
  802MOL0     C10560   1.807  10.331   1.650  0.2187  0.3107 -0.3048
  802MOL0     C10561   1.860  10.381   1.516 -0.3867 -0.6503 -0.1038
  802MOL0     O10562   1.808  10.289   1.412  0.3479  0.4732 -0.0966
  802MOL0     C10563   1.721  10.331   1.320 -0.3691 -0.3489  0.4267
  802MOL0     C10564   1.645  10.225   1.265  0.0718  0.6309  0.2841
  802MOL0     C10565   1.540  10.256   1.176  1.3672  0.8249  0.6647
  802MOL0     C10566   1.462  10.134   1.119 -0.1036  0.4958 -0.2608
  802MOL0     C10567   1.525  10.393   1.129 -0.1240 -1.0379  0.0149
  802MOL0     C10568   1.425  10.428   1.012  0.5384  0.0951  0.3263
  802MOL0     O10569   1.453  10.544   0.947  0.3750  0.3470 -0.2539
  802MOL0     C10570   1.402  10.575   0.823  0.8584 -0.8037  0.0409
  802MOL0     C10571   1.312  10.504   0.743  0.1825 -0.9099  0.1483
  802MOL0     C10572   1.277  10.549   0.618  0.4578 -0.2678 -0.3178
  802MOL0     C10573   1.338  10.658   0.554  0.5473  0.1567 -0.9771
  802MOL0     O10574   1.315  10.709   0.430 -0.1029  0.7139 -0.2999
  802MOL0     C10575   1.234  10.631   0.344 -0.1060 -0.1158  0.1699
  802MOL0     C10576   1.246  10.696   0.198  0.3195  0.4569  0.3157
  802MOL0     C10577   1.178  10.624   0.086 -0.1111  0.3055  0.0547
  802MOL0     C10578   1.215  10.686  -0.049 -0.5270  0.1883  0.7377
  802MOL0     C10579   1.140  10.620  -0.162  0.6516  0.8544  0.7538
  802MOL0     C10580   1.188  10.669  -0.295 -0.0423 -0.3764  0.6284
  802MOL0     C10581   1.098  10.628  -0.409  0.3778 -0.0732  0.9065
  802MOL0     C10582   1.131  10.685  -0.546  0.9110 -0.5734  0.9053
  802MOL0    Cl10583   1.101  10.862  -0.556  0.5199  0.2199  0.5151
  802MOL0     C10584   1.420  10.732   0.640 -0.1426 -0.4724  0.3771
  802MOL0     C10585   1.448  10.696   0.773  0.5822 -0.7715  0.3574
  802MOL0     O10586   1.339  10.343   0.991 -0.1256 -1.3076 -0.1195
  802MOL0     C10587   1.601  10.490   1.182  1.2249  0.8783 -0.7438
  802MOL0     C10588   1.700  10.460   1.273 -0.2275  0.0721 -0.0085
  802MOL0     N10589   1.692  10.542   1.946 -1.2656 -0.1359 -0.2309
  802MOL0     N10590   1.575  10.556   1.986 -0.0570 -1.2350 -0.6841
  802MOL0     C10591   0.714  10.672   1.156 -0.8151 -0.2553 -0.5753
  802MOL0     C10592   0.644  10.636   1.038  0.0220 -1.6429 -0.0393
  802MOL0     C10593   0.434  10.483   0.669 -0.4411  0.3603 -0.1944
  802MOL0     C10594   0.462  10.534   0.537  0.3787  1.3457  0.1482
  802MOL0     C10595   0.388  10.495   0.428  0.4760 -0.1319  0.7926
  802MOL0     C10596   0.286  10.404   0.441  0.1107  0.8236 -0.0143
  802MOL0     O10597   0.219  10.363   0.324 -0.1165  1.0600 -0.5508
  802MOL0     C10598   0.090  10.300   0.332 -0.4562 -0.5288  0.7449
  802MOL0     C10599   0.029  10.278   0.193 -0.0728 -0.5005 -0.3047
  802MOL0     C10600  -0.089  10.201   0.211  0.2301  0.7173 -0.2623
  802MOL0     C10601  -0.136  10.122   0.097 -0.0554  0.4918  0.3510
  802MOL0     C10602  -0.264  10.064   0.128  0.2284 -0.0617 -0.4838
  802MOL0     C10603  -0.381  10.037   0.151 -0.4980 -0.3643  0.4729
  802MOL0     C10604   0.255  10.358   0.571  0.4769  0.4555  0.4584
  802MOL0     C10605   0.325  10.397   0.686 -0.3173 -0.0917  0.1117
  802MOL0     C10606   0.256  10.371   0.823  0.4852  0.0026  0.5204
  802MOL0     H10607   0.606  10.308   1.096 -1.9475  0.6527 -2.3814
  802MOL0     H10608   0.732  10.363   1.289  0.6313  1.1629  0.9743
  802MOL0     H10609   0.698  10.795   1.388 -0.6920 -0.3334  2.0267
  802MOL0     H10610   0.875  10.808   1.379  1.2934 -0.5238 -0.1856
  802MOL0     H10611   0.759  10.845   1.615  0.2736 -0.8317  2.8979
  802MOL0     H10612   0.722  10.676   1.613  0.2577  1.8399  1.1604
  802MOL0     H10613   0.998  10.811   1.613 -0.0414 -0.1986 -0.2487
  802MOL0     H10614   0.904  10.754   1.750 -0.7263  1.3855  0.3257
  802MOL0     H10615   0.929  10.515   1.672  3.0273 -0.2895  2.1567
  802MOL0     H10616   0.998  10.560   1.524  3.7113 -3.4358  1.7414
  802MOL0     H10617   1.179  10.692   1.678  1.7045 -0.1771  3.1020
  802MOL0     H10618   1.190  10.525   1.610 -0.7220  0.7673 -0.2552
  802MOL0     H10619   1.121  10.550   1.908 -2.1457 -2.5785 -0.5070
  802MOL0     H10620   1.132  10.407   1.805  1.5189 -0.6328  0.6867
  802MOL0     H10621   1.354  10.607   1.807 -0.6452 -0.9185 -1.0834
  802MOL0     H10622   1.365  10.433   1.773 -2.7018  0.2479 -2.8904
  802MOL0     H10623   1.309  10.521   2.035 -0.0179 -0.8403 -0.3341
  802MOL0     H10624   1.320  10.356   1.995  1.5538 -0.1583  2.0950
  802MOL0     H10625   1.565  10.245   1.928 -0.7292  0.2841  4.4824
  802MOL0     H10626   1.843  10.239   1.906 -2.7504 -0.7080  2.5328
  802MOL0     H10627   1.909  10.389   1.983  1.6660  0.2491 -1.0071
  802MOL0     H10628   1.890  10.501   1.758  2.2811  0.2930  1.8939
  802MOL0     H10629   1.998  10.370   1.749  0.2580  3.2769  0.7494
  802MOL0     H10630   1.816  10.223   1.662  2.4170  0.4399 -0.4117
  802MOL0     H10631   1.701  10.356   1.663 -0.7759 -2.5782 -1.9228
  802MOL0     H10632   1.825  10.484   1.500 -0.5637 -0.3528  1.9420
  802MOL0     H10633   1.969  10.384   1.505 -0.4169  1.6340 -0.3728
  802MOL0     H10634   1.676  10.125   1.296 -0.0819  1.4343  3.4560
  802MOL0     H10635   1.467  10.125   1.010  4.2818  0.4292 -0.2322
  802MOL0     H10636   1.360  10.143   1.157  0.8751  2.6738  2.1271
  802MOL0     H10637   1.518  10.043   1.144  1.9192  1.7190 -0.1353
  802MOL0     H10638   1.261  10.420   0.789  1.7867 -1.4472  1.0509
  802MOL0     H10639   1.203  10.498   0.557 -1.8836  3.1181 -0.5449
  802MOL0     H10640   1.255  10.524   0.337 -0.5397 -0.1409 -0.9149
  802MOL0     H10641   1.130  10.640   0.375 -0.2985  0.0795 -0.5265
  802MOL0     H10642   1.202  10.796   0.198  0.6471  0.6049 -0.0368
  802MOL0     H10643   1.352  10.701   0.170  0.4877 -1.0783  0.6082
  802MOL0     H10644   1.073  10.648   0.108  0.1592 -1.1176  3.5251
  802MOL0     H10645   1.212  10.520   0.092  1.2618  0.7982  2.9292
  802MOL0     H10646   1.320  10.668  -0.073 -0.8029 -1.3442  0.6163
  802MOL0     H10647   1.197  10.794  -0.057 -1.6312  0.0918  1.6327
  802MOL0     H10648   1.145  10.511  -0.164  0.9898  0.8526 -1.5319
  802MOL0     H10649   1.034  10.647  -0.155  0.9436  2.2662  0.0241
  802MOL0     H10650   1.285  10.624  -0.320  1.3982  2.4892  0.6087
  802MOL0     H10651   1.196  10.778  -0.288 -0.1683 -0.4172  1.5709
  802MOL0     H10652   0.995  10.659  -0.390  0.5828  1.5644 -0.4252
  802MOL0     H10653   1.099  10.519  -0.418 -0.1622 -0.5146  4.7603
  802MOL0     H10654   1.069  10.653  -0.631 -2.1334  4.0764  1.0132
  802MOL0     H10655   1.233  10.656  -0.572  2.2669  3.1299  1.5446
  802MOL0     H10656   1.476  10.819   0.606 -0.6196 -1.3377 -3.0329
  802MOL0     H10657   1.518  10.760   0.827 -0.4147 -0.4968  1.3520
  802MOL0     H10658   1.577  10.595   1.169 -0.9671  0.6177  0.6178
  802MOL0     H10659   1.770  10.539   1.298  0.7390 -0.6057 -0.5203
  802MOL0     H10660   0.741  10.777   1.162  1.3538 -0.7755 -0.4363
  802MOL0     H10661   0.622  10.718   0.971  0.0867 -2.2069 -0.7647
  802MOL0     H10662   0.557  10.583   0.520  0.0796  0.9166 -3.5839
  802MOL0     H10663   0.418  10.515   0.326 -1.0653  1.9373  0.6888
  802MOL0     H10664   0.093  10.205   0.385 -1.7593 -0.7311  0.4924
  802MOL0     H10665   0.029  10.369   0.391 -2.2934 -0.2306 -1.3777
  802MOL0     H10666   0.097  10.231   0.122  2.8720  0.4280  1.7103
  802MOL0     H10667   0.000  10.375   0.153 -0.6091 -0.2247  0.7215
  802MOL0     H10668  -0.081  10.124   0.289 -0.8482  0.0453 -0.7815
  802MOL0     H10669  -0.172  10.264   0.245  1.1115  1.5725  0.3609
  802MOL0     H10670  -0.065  10.046   0.064 -0.1650 -0.4869  2.2200
  802MOL0     H10671  -0.161  10.187   0.013  0.8347 -0.5305 -0.7505
  802MOL0     H10672  -0.485  10.021   0.172 -1.3920  2.3896 -1.2450
  802MOL0     H10673   0.167  10.294   0.577  0.8469 -0.5406 -2.8257
  802MOL0     H10674   0.325  10.323   0.893  1.9452 -0.8605 -1.4134
  802MOL0     H10675   0.215  10.465   0.861 -1.0986  0.6539 -2.4507
  802MOL0     H10676   0.169  10.304   0.824  2.0785 -2.2920  3.4462
  803MOL0     O10677   7.408   7.852   3.971 -0.6732  0.2963  0.5157
  803MOL0     C10678   7.476   7.956   3.954  0.7883  0.4740  0.0376
  803MOL0     O10679   7.607   7.958   3.907 -0.1909  0.1511  0.0025
  803MOL0     C10680   7.683   7.849   3.918  0.7087  0.8664  0.7289
  803MOL0     C10681   7.751   7.805   3.812  0.6245 -0.2977  0.5490
  803MOL0     C10682   7.822   7.689   3.800  0.2427  0.4196 -0.0334
  803MOL0     C10683   7.830   7.609   3.906  0.4011 -0.2342 -0.0511
  803MOL0     O10684   7.888   7.486   3.896 -0.0138 -0.5728 -0.3342
  803MOL0     C10685   7.826   7.402   3.811  0.1280  0.2000 -0.1668
  803MOL0     C10686   7.894   7.273   3.827  0.1498 -0.7011  0.3892
  803MOL0     C10687   7.849   7.190   3.954 -0.0585  0.1007  0.0685
  803MOL0     C10688   7.801   7.048   3.910  0.0070 -1.1643  0.3406
  803MOL0     C10689   7.743   6.974   4.030  0.6890 -0.5459 -0.1184
  803MOL0     C10690   7.647   6.857   4.001 -0.8658 -0.2918  0.2550
  803MOL0     C10691   7.726   6.724   3.975 -0.4259  0.3425  0.4432
  803MOL0     C10692   7.737   6.644   4.113 -0.4328  0.0750 -0.3177
  803MOL0     N10693   7.794   6.517   4.109  0.4169 -0.2996 -0.0219
  803MOL0     C10694   7.715   6.406   4.121 -0.2792 -0.5007  0.1667
  803MOL0     C10695   7.805   6.303   4.160  0.1170 -0.2460  0.8772
  803MOL0     C10696   7.795   6.155   4.175  0.5414  0.0447  0.0356
  803MOL0     C10697   7.832   6.085   4.048  0.6867 -0.9778 -0.0147
  803MOL0     C10698   7.778   5.943   4.041  0.0928 -0.0351  0.6252
  803MOL0     C10699   7.824   5.847   4.152  0.1704  0.8291  0.0625
  803MOL0     O10700   7.763   5.717   4.156 -1.0242  0.0918  0.4929
  803MOL0     C10701   7.632   5.695   4.195 -0.4849  0.3807  0.1718
  803MOL0     C10702   7.545   5.794   4.247 -0.1729  0.3542  0.4267
  803MOL0     C10703   7.406   5.762   4.270  0.1767  0.2898  0.1240
  803MOL0     C10704   7.319   5.869   4.324 -0.4022 -0.6077  0.4527
  803MOL0     C10705   7.352   5.627   4.244 -1.3898 -0.4418  0.2770
  803MOL0     C10706   7.215   5.592   4.291 -0.6073  0.8368 -0.5981
  803MOL0     O10707   7.199   5.453   4.316  0.4179 -0.1260  1.2543
  803MOL0     C10708   7.072   5.391   4.325  0.0900  0.0094 -0.2999
  803MOL0     C10709   7.070   5.253   4.303  0.2929 -0.3803 -0.1495
  803MOL0     C10710   6.950   5.176   4.320 -0.1121  0.1140  0.6107
  803MOL0     C10711   6.828   5.226   4.356  0.0901  0.7262 -0.1772
  803MOL0     O10712   6.717   5.139   4.374  0.6341 -0.0731 -0.2765
  803MOL0     C10713   6.600   5.184   4.429  0.4656 -0.0311  0.2957
  803MOL0     C10714   6.527   5.077   4.518  0.3891 -0.4680  0.0112
  803MOL0     C10715   6.591   5.060   4.657  0.3055 -0.0351  0.1250
  803MOL0     C10716   6.524   4.969   4.756  0.0998  0.5586 -0.2975
  803MOL0     C10717   6.599   4.965   4.884 -0.5419  0.0367 -0.6267
  803MOL0     C10718   6.531   4.883   4.995  0.7033  0.5036  0.5215
  803MOL0     C10719   6.602   4.892   5.123 -0.5751  0.2313 -0.2855
  803MOL0     C10720   6.593   4.769   5.221  0.2661 -0.0535  0.5162
  803MOL0    Cl10721   6.654   4.627   5.140  0.4722 -0.5519  0.7253
  803MOL0     C10722   6.835   5.360   4.389 -1.1180  0.6941  0.4414
  803MOL0     C10723   6.945   5.444   4.368  0.8228 -0.0560 -0.2924
  803MOL0     O10724   7.124   5.678   4.290 -0.0918  0.2530 -0.2575
  803MOL0     C10725   7.448   5.533   4.190  1.3826 -0.4373 -0.6347
  803MOL0     C10726   7.583   5.563   4.171 -0.2334 -0.3982  0.8321
  803MOL0     N10727   7.931   6.367   4.180  0.9200  0.3366  0.2520
  803MOL0     N10728   7.917   6.493   4.157  0.2017  0.1414 -1.3781
  803MOL0     C10729   7.769   7.656   4.028 -0.7349 -0.2631  0.2030
  803MOL0     C10730   7.698   7.772   4.031 -0.4623 -1.0363 -1.0934
  803MOL0     C10731   7.431   8.090   4.011 -0.1259 -0.4557  0.6966
  803MOL0     C10732   7.524   8.192   4.029  0.4843  0.1165 -0.6908
  803MOL0     C10733   7.484   8.311   4.080 -0.1689 -0.3711 -0.3991
  803MOL0     C10734   7.352   8.334   4.117 -0.5801 -0.2683 -0.3971
  803MOL0     O10735   7.326   8.449   4.182 -0.6423  0.3341 -0.3217
  803MOL0     C10736   7.249   8.545   4.121  0.6862  0.8624  0.1746
  803MOL0     C10737   7.313   8.586   3.989  0.4519  0.1999 -0.2486
  803MOL0     C10738   7.446   8.678   4.008  0.1100  0.6241 -0.5842
  803MOL0     C10739   7.416   8.825   4.014 -1.0236  0.3799  0.0011
  803MOL0     C10740   7.378   8.871   4.145  0.3880  0.2794  0.2535
  803MOL0     C10741   7.338   8.924   4.249 -0.2819 -0.7183 -0.0058
  803MOL0     C10742   7.255   8.241   4.084  0.0192 -0.2223 -0.0610
  803MOL0     C10743   7.291   8.115   4.033  0.4031  0.1188 -0.4169
  803MOL0     C10744   7.175   8.016   4.018  0.6281 -1.0892 -0.1557
  803MOL0     H10745   7.738   7.881   3.735  0.3109  1.6637  2.4659
  803MOL0     H10746   7.860   7.674   3.700 -1.6161  1.2040 -0.9052
  803MOL0     H10747   7.820   7.436   3.708 -0.3574 -3.0913 -1.3359
  803MOL0     H10748   7.725   7.408   3.854 -0.6191  4.4537 -1.9678
  803MOL0     H10749   7.874   7.217   3.735 -0.8572  0.7697 -0.3112
  803MOL0     H10750   8.002   7.292   3.833  0.5388 -2.5043 -0.1784
  803MOL0     H10751   7.929   7.186   4.029 -0.2483  0.0229  0.2688
  803MOL0     H10752   7.772   7.250   4.004  0.6321  2.0548 -1.0732
  803MOL0     H10753   7.721   7.056   3.836  0.5647  0.4398 -0.1182
  803MOL0     H10754   7.878   6.986   3.863 -0.2732  0.6032 -2.6883
  803MOL0     H10755   7.672   7.034   4.087 -1.7403 -4.3302  1.2329
  803MOL0     H10756   7.818   6.933   4.098 -0.6424 -1.6898  0.7218
  803MOL0     H10757   7.569   6.845   4.076  0.6995  2.0502  2.4194
  803MOL0     H10758   7.585   6.879   3.913 -1.2964  0.5916  0.7687
  803MOL0     H10759   7.827   6.747   3.939 -0.6032  1.6809  0.7880
  803MOL0     H10760   7.680   6.662   3.897  1.6862  2.7545 -2.9757
  803MOL0     H10761   7.792   6.700   4.190 -0.8335 -1.0061  0.7758
  803MOL0     H10762   7.633   6.653   4.143 -0.3841  4.8774 -0.7049
  803MOL0     H10763   7.607   6.405   4.109 -0.7504 -1.5609  3.3475
  803MOL0     H10764   7.697   6.125   4.213 -0.6368  2.2853 -1.0382
  803MOL0     H10765   7.871   6.130   4.249 -0.5631  2.5514  2.1793
  803MOL0     H10766   7.802   6.146   3.962  1.9721 -0.2493  0.0230
  803MOL0     H10767   7.941   6.078   4.045  1.4497  5.4358 -1.8582
  803MOL0     H10768   7.669   5.937   4.037  0.0429  0.9609 -0.0376
  803MOL0     H10769   7.815   5.915   3.942 -0.6193  0.1071  0.3136
  803MOL0     H10770   7.931   5.836   4.137 -0.2200 -2.4718 -1.0001
  803MOL0     H10771   7.797   5.893   4.248 -2.1070  0.1806 -0.1942
  803MOL0     H10772   7.582   5.895   4.257  0.0981  0.1363  1.8856
  803MOL0     H10773   7.387   5.954   4.329 -2.6359  1.5737 -2.3815
  803MOL0     H10774   7.274   5.843   4.421  3.3283 -3.1261  1.7253
  803MOL0     H10775   7.242   5.902   4.253  0.3821 -0.3735 -0.3066
  803MOL0     H10776   7.162   5.201   4.280  0.5623  0.6249 -1.4099
  803MOL0     H10777   6.965   5.069   4.317  2.0013  0.3831 -1.1934
  803MOL0     H10778   6.616   5.260   4.506  0.9413 -0.9091  1.0788
  803MOL0     H10779   6.525   5.213   4.355  0.4829 -2.2590 -0.6546
  803MOL0     H10780   6.419   5.095   4.523  0.4921  0.5754 -1.0367
  803MOL0     H10781   6.521   4.985   4.458 -0.4196  0.8571 -2.0435
  803MOL0     H10782   6.600   5.153   4.713 -2.1531 -1.6439  3.4953
  803MOL0     H10783   6.692   5.021   4.645  1.0303  2.1866 -1.7999
  803MOL0     H10784   6.527   4.865   4.721 -3.5497  0.9186 -2.1372
  803MOL0     H10785   6.421   4.996   4.781  0.5100 -0.2867  2.7207
  803MOL0     H10786   6.696   4.921   4.859 -1.0339  0.0194 -2.7085
  803MOL0     H10787   6.610   5.070   4.915 -2.2429 -0.5459  2.2767
  803MOL0     H10788   6.527   4.778   4.965 -1.4802  1.3051 -2.4062
  803MOL0     H10789   6.427   4.915   5.009  0.4078 -0.7975  1.4117
  803MOL0     H10790   6.556   4.971   5.183 -1.0740  0.7893 -1.3761
  803MOL0     H10791   6.707   4.922   5.114  0.0428 -1.8724 -0.6130
  803MOL0     H10792   6.491   4.745   5.250  0.7069 -0.5574  1.7133
  803MOL0     H10793   6.657   4.796   5.306  4.2826 -1.0183 -1.9372
  803MOL0     H10794   6.739   5.410   4.400 -0.7976  1.1394  1.3187
  803MOL0     H10795   6.925   5.547   4.396 -0.1232  0.1561 -1.6605
  803MOL0     H10796   7.423   5.432   4.158  2.4760 -0.9276  0.0065
  803MOL0     H10797   7.648   5.494   4.118  2.4484  1.6816  1.1569
  803MOL0     H10798   7.779   7.591   4.114  1.3183 -0.5709 -0.2143
  803MOL0     H10799   7.653   7.824   4.116 -1.4836  0.2843 -2.3892
  803MOL0     H10800   7.629   8.186   4.002  0.6486 -0.6313  0.0793
  803MOL0     H10801   7.560   8.385   4.101  0.1728  0.1005 -2.9517
  803MOL0     H10802   7.151   8.499   4.105  0.3905  2.3079 -2.8915
  803MOL0     H10803   7.239   8.630   4.189  1.5253 -1.4125  3.3854
  803MOL0     H10804   7.237   8.635   3.927  1.4015  0.8766 -0.9192
  803MOL0     H10805   7.344   8.497   3.933 -1.1427  1.5517 -3.5456
  803MOL0     H10806   7.508   8.654   4.095 -2.1970  1.2541  1.3513
  803MOL0     H10807   7.513   8.673   3.921 -0.1684  0.3745 -0.7841
  803MOL0     H10808   7.329   8.839   3.950 -1.8878 -1.5920  0.6711
  803MOL0     H10809   7.496   8.885   3.970  0.4314 -1.0250  0.6250
  803MOL0     H10810   7.297   8.977   4.332  2.4931  0.5852  0.6520
  803MOL0     H10811   7.155   8.271   4.113  0.3058  1.9372 -1.1487
  803MOL0     H10812   7.183   7.938   4.095 -0.5127 -3.2154 -2.0587
  803MOL0     H10813   7.070   8.047   4.018  0.8208 -0.4064 -1.2178
  803MOL0     H10814   7.192   7.968   3.921 -0.4011  0.0138 -0.8994
  804MOL0     O10815   8.225   1.892   6.095  1.0521 -0.6253  0.0247
  804MOL0     C10816   8.140   1.836   6.163 -0.1813  0.2505 -0.1779
  804MOL0     O10817   8.143   1.698   6.185  0.2883 -0.7861  0.2722
  804MOL0     C10818   8.237   1.619   6.125 -1.0437 -0.6082  0.2200
  804MOL0     C10819   8.323   1.631   6.009 -0.6629 -0.0283  0.0588
  804MOL0     C10820   8.409   1.523   5.978 -0.5234 -0.9948 -0.3154
  804MOL0     C10821   8.403   1.403   6.040  0.0843  0.6843  0.1940
  804MOL0     O10822   8.481   1.296   6.008  0.0292  0.4918 -0.3550
  804MOL0     C10823   8.604   1.263   6.071  0.0143  0.9933  0.0450
  804MOL0     C10824   8.718   1.266   5.971 -0.1925 -0.9716 -0.7202
  804MOL0     C10825   8.696   1.156   5.870  0.8848 -1.0525  0.1726
  804MOL0     C10826   8.728   1.019   5.925  0.3460 -0.5683  0.2854
  804MOL0     C10827   8.774   0.928   5.799  0.4250 -0.4882 -0.7931
  804MOL0     C10828   8.708   0.946   5.662 -0.2850  0.0866 -0.1241
  804MOL0     C10829   8.695   0.818   5.578  0.8772 -0.2684  0.3430
  804MOL0     C10830   8.635   0.847   5.431  0.2238  0.4059 -0.1834
  804MOL0     N10831   8.489   0.866   5.440  0.1092  0.0149  0.6441
  804MOL0     C10832   8.399   0.769   5.466 -0.6037 -0.0129  0.5726
  804MOL0     C10833   8.287   0.808   5.410  0.3810 -1.0584  0.6327
  804MOL0     C10834   8.150   0.735   5.414 -0.8230  0.1067 -0.1496
  804MOL0     C10835   8.084   0.757   5.559 -0.2239  0.4696  0.4358
  804MOL0     C10836   7.930   0.731   5.564 -0.5973  0.1647 -0.0672
  804MOL0     C10837   7.884   0.587   5.572  1.5791  0.3658 -0.1805
  804MOL0     O10838   7.917   0.496   5.463 -0.8634 -0.0027 -0.7260
  804MOL0     C10839   7.858   0.371   5.463  1.2125  0.6062 -0.2461
  804MOL0     C10840   7.870   0.289   5.345 -0.5238  0.6340 -0.3163
  804MOL0     C10841   7.805   0.163   5.340 -0.3688 -0.1819 -1.4589
  804MOL0     C10842   7.824   0.079   5.213  1.1206  0.0322 -0.2720
  804MOL0     C10843   7.715   0.131   5.448 -0.6789  0.4233  0.2675
  804MOL0     C10844   7.661  -0.009   5.447 -0.7494  0.1188 -0.0138
  804MOL0     O10845   7.743  -0.115   5.480 -0.6886  0.3333 -0.3507
  804MOL0     C10846   7.704  -0.249   5.471 -1.2510  0.1151  0.7578
  804MOL0     C10847   7.570  -0.286   5.500 -1.5008 -0.0012  0.3865
  804MOL0     C10848   7.533  -0.415   5.481  0.0913  0.5935  0.7037
  804MOL0     C10849   7.614  -0.522   5.442 -0.5558 -0.8127 -0.3122
  804MOL0     O10850   7.551  -0.648   5.438 -0.2642  0.3341 -0.4074
  804MOL0     C10851   7.630  -0.773   5.430 -0.1649 -0.6198 -0.0864
  804MOL0     C10852   7.673  -0.812   5.571  0.5966  0.0469  0.9678
  804MOL0     C10853   7.548  -0.871   5.642  0.9533  0.1535 -0.1474
  804MOL0     C10854   7.529  -1.020   5.615  0.4031 -0.4380  0.4271
  804MOL0     C10855   7.410  -1.077   5.697 -0.7505  0.7661  0.4942
  804MOL0     C10856   7.379  -1.225   5.654  0.0633 -0.8804 -0.5896
  804MOL0     C10857   7.366  -1.245   5.499 -0.6492 -0.5997  0.0309
  804MOL0     C10858   7.271  -1.359   5.452  0.8074 -0.0992  0.4324
  804MOL0    Cl10859   7.354  -1.517   5.459  0.1955  0.5850 -0.3766
  804MOL0     C10860   7.746  -0.488   5.415 -0.4670 -0.4644 -0.2966
  804MOL0     C10861   7.792  -0.356   5.423  0.1065 -0.8600 -0.1919
  804MOL0     O10862   7.537  -0.016   5.426  0.7093  0.3037 -0.5697
  804MOL0     C10863   7.704   0.208   5.563  0.0224  0.6664 -0.1135
  804MOL0     C10864   7.782   0.326   5.575  1.3622  0.2262  0.2285
  804MOL0     N10865   8.316   0.940   5.353  0.4039 -1.3667  0.4401
  804MOL0     N10866   8.438   0.972   5.378  0.3671  0.0039  0.0682
  804MOL0     C10867   8.306   1.385   6.139 -0.5628  0.1252  0.6526
  804MOL0     C10868   8.229   1.490   6.191 -0.4075 -0.2342  0.9192
  804MOL0     C10869   8.031   1.910   6.240 -0.3823  0.0502  0.5541
  804MOL0     C10870   7.914   1.833   6.273 -0.8720  0.6210  0.4718
  804MOL0     C10871   7.805   1.907   6.311  0.1747 -0.2401 -0.8138
  804MOL0     C10872   7.802   2.043   6.328  0.1016 -0.3330 -0.1990
  804MOL0     O10873   7.691   2.119   6.353  0.9758  0.4539  0.7322
  804MOL0     C10874   7.609   2.151   6.244 -0.9259  0.5383 -0.9835
  804MOL0     C10875   7.498   2.247   6.281  0.0516 -0.5590  0.1788
  804MOL0     C10876   7.548   2.375   6.351 -0.3458  0.0659  0.3443
  804MOL0     C10877   7.451   2.488   6.347 -0.2230  0.4605  0.6333
  804MOL0     C10878   7.490   2.616   6.410 -0.0900 -0.0378 -0.0327
  804MOL0     C10879   7.539   2.707   6.472 -0.8059 -0.3837 -0.1105
  804MOL0     C10880   7.921   2.119   6.311  1.5757  0.8619 -0.2758
  804MOL0     C10881   8.033   2.046   6.276  0.2090  0.0723  0.0343
  804MOL0     C10882   8.163   2.125   6.274  0.3435 -1.0665  0.1047
  804MOL0     H10883   8.321   1.721   5.948  2.3576  2.4346  3.2140
  804MOL0     H10884   8.482   1.535   5.899  1.8003  0.9796  1.9304
  804MOL0     H10885   8.600   1.158   6.100  3.8421  0.4755 -0.8217
  804MOL0     H10886   8.618   1.330   6.157  0.5392  0.4830  0.3620
  804MOL0     H10887   8.717   1.356   5.909 -1.7588  0.2605  1.0012
  804MOL0     H10888   8.808   1.256   6.032 -0.4711 -5.4810 -0.6639
  804MOL0     H10889   8.598   1.161   5.821  1.0130 -1.7137 -0.1713
  804MOL0     H10890   8.763   1.193   5.792 -1.0612  3.1596  0.2177
  804MOL0     H10891   8.806   1.025   6.002 -2.3023  2.8966  3.0854
  804MOL0     H10892   8.639   0.982   5.979  1.1007 -1.7767  0.7435
  804MOL0     H10893   8.753   0.823   5.821  2.9055 -1.2016 -1.4618
  804MOL0     H10894   8.880   0.949   5.781  0.7522 -1.1276  0.3429
  804MOL0     H10895   8.604   0.981   5.671 -0.7497 -1.2233 -0.1289
  804MOL0     H10896   8.766   1.019   5.605  0.4289 -0.7065 -0.4468
  804MOL0     H10897   8.636   0.743   5.632  2.6149 -1.2110  0.9891
  804MOL0     H10898   8.794   0.784   5.548  1.0919  2.5387 -2.7807
  804MOL0     H10899   8.686   0.940   5.405 -0.1074  1.0436  1.3217
  804MOL0     H10900   8.670   0.769   5.363  2.0458  1.7722 -0.8859
  804MOL0     H10901   8.417   0.673   5.514  1.8205 -0.3029 -0.7638
  804MOL0     H10902   8.168   0.627   5.417 -2.0559 -0.1087  2.5693
  804MOL0     H10903   8.089   0.779   5.334  2.6435  2.3876 -1.8005
  804MOL0     H10904   8.136   0.700   5.637  1.0193  0.0615 -0.6562
  804MOL0     H10905   8.103   0.863   5.578 -0.3098  0.1136  2.8457
  804MOL0     H10906   7.892   0.784   5.652 -0.4630 -1.8893  1.3161
  804MOL0     H10907   7.879   0.775   5.478 -1.8592  0.0643  0.6092
  804MOL0     H10908   7.930   0.559   5.668  0.9090 -0.2851 -0.0482
  804MOL0     H10909   7.775   0.592   5.580  1.5044 -2.3015  2.2445
  804MOL0     H10910   7.923   0.334   5.262 -0.7886  2.3888  0.4112
  804MOL0     H10911   7.722   0.060   5.177  1.1443 -2.1788  0.6731
  804MOL0     H10912   7.884  -0.008   5.240  4.9015  3.0377  2.1236
  804MOL0     H10913   7.887   0.126   5.137  2.3653 -0.5026  0.4069
  804MOL0     H10914   7.493  -0.217   5.532 -0.9975  0.3103  0.9526
  804MOL0     H10915   7.434  -0.444   5.517  0.4884 -0.8001  0.7296
  804MOL0     H10916   7.568  -0.850   5.383 -3.3482  2.1596 -0.8304
  804MOL0     H10917   7.714  -0.759   5.361  1.3892 -2.0573  1.4397
  804MOL0     H10918   7.753  -0.886   5.567 -0.7976 -1.9706  5.0785
  804MOL0     H10919   7.709  -0.736   5.641 -0.2246  0.2077  1.2225
  804MOL0     H10920   7.463  -0.810   5.610  1.2004  0.0973 -0.9287
  804MOL0     H10921   7.552  -0.853   5.750 -1.8647 -1.5475  0.3417
  804MOL0     H10922   7.609  -1.083   5.654  0.2291  0.1291  1.7504
  804MOL0     H10923   7.517  -1.043   5.508  3.7499 -4.1864  0.6526
  804MOL0     H10924   7.433  -1.079   5.804 -0.3463 -5.0558  0.6513
  804MOL0     H10925   7.315  -1.026   5.678 -1.4801 -0.2070  1.3927
  804MOL0     H10926   7.285  -1.238   5.708 -0.6411  1.6209 -1.0716
  804MOL0     H10927   7.447  -1.300   5.696 -0.0200 -1.4424 -1.4308
  804MOL0     H10928   7.458  -1.232   5.442 -1.6512 -0.2928 -1.5885
  804MOL0     H10929   7.303  -1.165   5.460 -1.5397  0.3086  3.0465
  804MOL0     H10930   7.241  -1.347   5.348 -2.1709  2.3664  1.4343
  804MOL0     H10931   7.182  -1.357   5.515  0.6674  2.1117  0.2351
  804MOL0     H10932   7.822  -0.561   5.387 -1.1377 -1.1164 -0.4625
  804MOL0     H10933   7.891  -0.346   5.379  0.3368  0.3488  0.5535
  804MOL0     H10934   7.652   0.180   5.654  2.8249 -1.9513  0.8772
  804MOL0     H10935   7.760   0.382   5.665 -3.3786  0.1787 -0.6192
  804MOL0     H10936   8.300   1.286   6.182 -1.5936  0.2039  0.7276
  804MOL0     H10937   8.158   1.462   6.268 -1.8898 -0.8514 -0.5955
  804MOL0     H10938   7.911   1.727   6.247  0.5307  0.4541  0.8616
  804MOL0     H10939   7.712   1.852   6.323  0.0062  0.3123  0.6876
  804MOL0     H10940   7.665   2.197   6.162  0.0179  0.2444 -0.5106
  804MOL0     H10941   7.565   2.061   6.198 -1.9357  0.9991 -0.9515
  804MOL0     H10942   7.418   2.199   6.337 -2.4011  0.5807 -2.0917
  804MOL0     H10943   7.446   2.270   6.187  1.0365 -3.2039 -1.1112
  804MOL0     H10944   7.558   2.348   6.456  0.2941  0.9207  0.5099
  804MOL0     H10945   7.649   2.405   6.323 -0.4709  0.5001  0.3417
  804MOL0     H10946   7.368   2.433   6.394  1.0554 -2.2550 -0.1291
  804MOL0     H10947   7.428   2.518   6.244  0.4184  1.5177  0.7792
  804MOL0     H10948   7.580   2.794   6.518  3.0206 -0.6486 -2.5503
  804MOL0     H10949   7.926   2.227   6.328  2.6138  0.6061  1.2467
  804MOL0     H10950   8.185   2.132   6.168 -4.1564  1.4994 -0.9260
  804MOL0     H10951   8.139   2.221   6.322  4.8518 -1.0153  2.8243
  804MOL0     H10952   8.239   2.078   6.338  0.3862 -0.0382  0.8269
  805MOL0     O10953   8.335   4.875  10.045  0.5332 -0.1524  0.0640
  805MOL0     C10954   8.428   4.866   9.964 -0.6636  1.0509 -0.3754
  805MOL0     O10955   8.554   4.822  10.002  0.6698 -0.5497 -0.1895
  805MOL0     C10956   8.592   4.770  10.119 -0.4547  0.0863 -0.3182
  805MOL0     C10957   8.514   4.692  10.198 -0.5493  0.2369  1.7830
  805MOL0     C10958   8.566   4.637  10.317  0.7071  0.4197  0.2333
  805MOL0     C10959   8.691   4.658  10.365 -0.2272  0.4403  0.7644
  805MOL0     O10960   8.749   4.600  10.471 -0.0330  0.1742 -0.6133
  805MOL0     C10961   8.691   4.616  10.602 -0.6809 -0.3891  0.6445
  805MOL0     C10962   8.801   4.625  10.708 -0.2937  0.6667 -0.2225
  805MOL0     C10963   8.890   4.749  10.681 -0.0249 -0.3037  0.4656
  805MOL0     C10964   9.005   4.755  10.784  0.0919 -0.0362 -0.0923
  805MOL0     C10965   9.100   4.865  10.765 -0.3849 -0.7034 -0.8666
  805MOL0     C10966   9.183   4.898  10.892  0.4620  0.0999 -0.2150
  805MOL0     C10967   9.293   5.002  10.889  0.6089 -0.8090  0.2553
  805MOL0     C10968   9.404   4.984  10.783 -0.8398  0.1303  0.7208
  805MOL0     N10969   9.473   4.855  10.785 -0.6134  0.5990  0.2346
  805MOL0     C10970   9.417   4.731  10.766  0.5644 -1.6764  0.4758
  805MOL0     C10971   9.499   4.649  10.831 -0.1987  0.5840  0.2916
  805MOL0     C10972   9.480   4.497  10.819  0.6294 -0.0462 -0.2714
  805MOL0     C10973   9.356   4.465  10.906  1.2567  0.3818 -0.2370
  805MOL0     C10974   9.350   4.310  10.929 -0.7571  0.9175  0.3777
  805MOL0     C10975   9.225   4.274  11.014 -0.1975 -0.5289  0.6828
  805MOL0     O10976   9.256   4.231  11.145 -0.3224  0.2634 -0.9888
  805MOL0     C10977   9.309   4.106  11.172 -0.0068 -0.1818  0.5572
  805MOL0     C10978   9.318   4.062  11.303  0.6618 -0.3193  0.7382
  805MOL0     C10979   9.360   3.936  11.339 -0.2393 -0.1266  0.4113
  805MOL0     C10980   9.367   3.903  11.487  0.1277 -0.1102 -0.0058
  805MOL0     C10981   9.386   3.843  11.237  0.4600  0.2340  0.6303
  805MOL0     C10982   9.410   3.697  11.259 -0.6766  0.0262  0.7785
  805MOL0     O10983   9.357   3.649  11.369  0.3273  0.4119 -1.0709
  805MOL0     C10984   9.388   3.520  11.410 -0.5455  0.4255 -0.0470
  805MOL0     C10985   9.491   3.490  11.500  0.2539  0.8592  0.6953
  805MOL0     C10986   9.516   3.354  11.548 -0.5860 -0.6832  0.3763
  805MOL0     C10987   9.444   3.247  11.495 -0.7013  0.2580 -0.3549
  805MOL0     O10988   9.459   3.114  11.517  0.6660 -0.1263 -0.9086
  805MOL0     C10989   9.589   3.069  11.535  0.1290  0.2912  0.3341
  805MOL0     C10990   9.594   2.918  11.573  0.6618 -0.4737  0.6017
  805MOL0     C10991   9.735   2.854  11.532  1.2328 -0.0738 -0.2098
  805MOL0     C10992   9.757   2.721  11.596  0.2089 -0.2257 -0.0170
  805MOL0     C10993   9.763   2.723  11.754 -0.2074  0.2772  0.9844
  805MOL0     C10994   9.841   2.619  11.816  0.1438 -0.2542  0.7039
  805MOL0     C10995   9.780   2.598  11.957  0.3110  1.3155  0.0561
  805MOL0     C10996   9.840   2.473  12.020  0.0051 -0.3777 -0.0588
  805MOL0    Cl10997  10.011   2.502  12.055  0.0761  0.0137  0.1689
  805MOL0     C10998   9.344   3.275  11.400  0.2857 -0.7999  0.1614
  805MOL0     C10999   9.311   3.413  11.365  0.5941 -0.2410 -0.0093
  805MOL0     O11000   9.479   3.638  11.178 -0.6806 -0.2416 -0.8296
  805MOL0     C11001   9.370   3.882  11.104  0.8159  0.4975 -0.2922
  805MOL0     C11002   9.334   4.015  11.069  0.8557  0.1698  0.5563
  805MOL0     N11003   9.599   4.714  10.888 -1.0760 -0.2131 -0.5699
  805MOL0     N11004   9.585   4.837  10.860  0.7018 -0.5255 -0.6540
  805MOL0     C11005   8.778   4.724  10.280 -0.8623 -0.8621 -1.3425
  805MOL0     C11006   8.729   4.779  10.159  0.9529  1.3495  0.0777
  805MOL0     C11007   8.414   4.882   9.817 -0.3717  0.8078 -1.4167
  805MOL0     C11008   8.521   4.951   9.749  0.3044  0.5951  0.2345
  805MOL0     C11009   8.507   4.994   9.621 -0.2441  0.0493  0.2348
  805MOL0     C11010   8.386   4.977   9.562 -0.3154 -0.0794  0.4384
  805MOL0     O11011   8.374   5.032   9.436  0.2320  0.1597  0.4314
  805MOL0     C11012   8.240   5.064   9.387 -0.5319 -0.0526  0.0991
  805MOL0     C11013   8.253   5.167   9.274  0.2685  0.2886  0.1071
  805MOL0     C11014   8.312   5.299   9.300 -0.1676 -0.3152  0.7646
  805MOL0     C11015   8.241   5.369   9.415  0.7032  0.0247 -0.7095
  805MOL0     C11016   8.094   5.384   9.404  0.1140 -0.2852 -0.0656
  805MOL0     C11017   7.976   5.393   9.400  1.1472 -0.0115  0.4604
  805MOL0     C11018   8.287   4.894   9.624 -0.0451  0.5253  0.4642
  805MOL0     C11019   8.294   4.838   9.749 -0.4828 -0.0816 -0.2818
  805MOL0     C11020   8.186   4.754   9.803 -0.0241 -0.3807  0.1988
  805MOL0     H11021   8.414   4.673  10.162  0.1853 -1.6262  0.5642
  805MOL0     H11022   8.490   4.582  10.372  0.9141  2.5257  2.7747
  805MOL0     H11023   8.626   4.528  10.614 -1.1071 -0.0751  0.6582
  805MOL0     H11024   8.637   4.709  10.621  1.6337  0.6161  2.8290
  805MOL0     H11025   8.758   4.634  10.808  1.7160 -0.8604  0.8517
  805MOL0     H11026   8.853   4.529  10.702 -1.0809  0.2213  0.0450
  805MOL0     H11027   8.941   4.743  10.584 -1.4487 -2.0791 -0.2335
  805MOL0     H11028   8.836   4.844  10.681  4.6846  2.9366  5.0842
  805MOL0     H11029   8.946   4.783  10.872  0.6511 -0.6431  0.4809
  805MOL0     H11030   9.057   4.662  10.805  1.3196  0.5113 -0.6163
  805MOL0     H11031   9.033   4.951  10.753 -0.0848 -0.4740 -0.8938
  805MOL0     H11032   9.157   4.858  10.673  3.9494 -0.0995  1.5087
  805MOL0     H11033   9.101   4.923  10.960  0.7955 -0.0022  0.2227
  805MOL0     H11034   9.225   4.801  10.919 -1.0171 -1.1044 -1.9710
  805MOL0     H11035   9.341   5.006  10.987 -0.3448 -2.9102  0.8640
  805MOL0     H11036   9.236   5.090  10.859 -3.8498 -2.9315  1.7015
  805MOL0     H11037   9.365   5.009  10.684  1.2755 -0.8796 -0.4099
  805MOL0     H11038   9.470   5.068  10.809  0.4896 -0.0257 -1.8532
  805MOL0     H11039   9.321   4.711  10.720  0.4032  2.9778 -1.8062
  805MOL0     H11040   9.562   4.434  10.854 -0.6096 -1.0294  0.9688
  805MOL0     H11041   9.460   4.464  10.717 -2.1563 -4.8267  1.5103
  805MOL0     H11042   9.355   4.518  11.001  0.5305  0.6353 -0.3746
  805MOL0     H11043   9.256   4.490  10.870 -0.3580 -1.0954  2.8405
  805MOL0     H11044   9.347   4.263  10.831  1.9717  0.5666  0.3643
  805MOL0     H11045   9.445   4.291  10.981  0.9710 -2.3975 -3.4067
  805MOL0     H11046   9.163   4.363  11.026 -0.5766 -0.6098 -0.5840
  805MOL0     H11047   9.162   4.196  10.971  1.0688 -0.3897 -1.5735
  805MOL0     H11048   9.277   4.139  11.368  0.5582  0.3968 -0.1555
  805MOL0     H11049   9.446   3.830  11.504 -0.8094 -1.6656 -1.9085
  805MOL0     H11050   9.274   3.848  11.507 -0.2736  0.9334  1.1531
  805MOL0     H11051   9.378   3.992  11.550  0.9713 -0.4742  0.3806
  805MOL0     H11052   9.551   3.562  11.554  2.8824 -0.5711 -0.1315
  805MOL0     H11053   9.588   3.337  11.627  0.3100 -0.0911 -0.2982
  805MOL0     H11054   9.645   3.096  11.446 -0.9114  3.3074  0.4777
  805MOL0     H11055   9.635   3.120  11.620  0.7382  2.4515 -1.2099
  805MOL0     H11056   9.579   2.912  11.681  0.2489 -2.1866  0.4655
  805MOL0     H11057   9.523   2.853  11.522  0.4999 -0.6816  1.0827
  805MOL0     H11058   9.810   2.928  11.561  0.6908 -0.1084  1.3695
  805MOL0     H11059   9.736   2.833  11.425  2.0291 -1.0759 -0.0165
  805MOL0     H11060   9.862   2.705  11.570  1.0303  1.6899  1.7900
  805MOL0     H11061   9.696   2.636  11.564  1.8342 -2.2211  1.8815
  805MOL0     H11062   9.815   2.813  11.786  0.6047 -0.5731  2.1306
  805MOL0     H11063   9.661   2.731  11.793 -0.9717 -1.2193 -0.5473
  805MOL0     H11064   9.944   2.645  11.841  0.8800 -4.3415  3.0091
  805MOL0     H11065   9.834   2.523  11.763 -3.3039  1.1407 -1.6618
  805MOL0     H11066   9.674   2.578  11.939  0.6352  0.2768 -0.8374
  805MOL0     H11067   9.797   2.671  12.037 -0.6918 -0.2300  1.7393
  805MOL0     H11068   9.821   2.387  11.955  4.1691  0.5242 -2.8721
  805MOL0     H11069   9.792   2.466  12.118 -0.3093 -0.1665 -0.1937
  805MOL0     H11070   9.294   3.186  11.363 -0.6034 -1.2865  2.4059
  805MOL0     H11071   9.232   3.443  11.297  0.1101 -2.1882 -0.3662
  805MOL0     H11072   9.387   3.815  11.021 -1.9546 -1.0895  0.2855
  805MOL0     H11073   9.327   4.031  10.962 -0.6985 -1.7026  0.3188
  805MOL0     H11074   8.879   4.725  10.318 -1.4192 -0.9870  0.2103
  805MOL0     H11075   8.803   4.838  10.106 -0.5361  2.9765 -0.2997
  805MOL0     H11076   8.619   4.966   9.793  1.4334 -1.6235 -1.3599
  805MOL0     H11077   8.590   5.044   9.571  2.0375 -3.8208 -0.2659
  805MOL0     H11078   8.186   4.977   9.349  1.5773 -2.2051  1.7568
  805MOL0     H11079   8.173   5.088   9.470  0.3361 -1.5118  1.2671
  805MOL0     H11080   8.165   5.182   9.212  1.6947 -0.9595 -2.3681
  805MOL0     H11081   8.322   5.121   9.202 -0.7944  1.3090 -1.6242
  805MOL0     H11082   8.416   5.288   9.334  0.6697  0.9301 -1.2419
  805MOL0     H11083   8.299   5.364   9.214 -0.3168  1.2182  1.9102
  805MOL0     H11084   8.270   5.475   9.409  1.8495  0.0331  2.7441
  805MOL0     H11085   8.277   5.322   9.507 -1.1058 -0.4630 -0.1993
  805MOL0     H11086   7.869   5.385   9.404  1.0328  1.5983  2.0434
  805MOL0     H11087   8.197   4.875   9.568  0.9025  0.0945 -0.9824
  805MOL0     H11088   8.180   4.656   9.755  1.5635 -0.5456  0.2827
  805MOL0     H11089   8.189   4.738   9.912  0.1670 -0.5842  0.1625
  805MOL0     H11090   8.088   4.803   9.792  0.3789  1.0632  2.2695
  806MOL0     O11091   8.794  10.515   2.199 -0.2886 -0.8445  0.3180
  806MOL0     C11092   8.698  10.501   2.266  0.1003 -0.4276 -0.4917
  806MOL0     O11093   8.677  10.410   2.363 -1.0556  0.8051 -0.1661
  806MOL0     C11094   8.788  10.333   2.412  0.2004 -0.5538  0.2248
  806MOL0     C11095   8.894  10.408   2.471  0.1356 -0.5162  0.4086
  806MOL0     C11096   8.997  10.335   2.526  0.5397  0.6985 -0.4911
  806MOL0     C11097   8.990  10.196   2.531  0.2253  0.3289  0.1021
  806MOL0     O11098   9.096  10.115   2.559 -0.0902  0.3876 -0.4639
  806MOL0     C11099   9.147  10.122   2.689 -0.0384  0.0008  0.7509
  806MOL0     C11100   9.272  10.044   2.720 -0.1114 -0.7127  0.1723
  806MOL0     C11101   9.288   9.907   2.648  0.2240 -0.6037 -0.6018
  806MOL0     C11102   9.343   9.786   2.726 -0.1753 -0.3281  0.1146
  806MOL0     C11103   9.484   9.810   2.785 -0.4940 -0.7832  0.0673
  806MOL0     C11104   9.585   9.854   2.675 -0.3596 -0.0507  0.3680
  806MOL0     C11105   9.728   9.828   2.726 -0.6563 -0.1063  0.0475
  806MOL0     C11106   9.831   9.909   2.639  0.5845  0.3142  0.1280
  806MOL0     N11107   9.959   9.928   2.705  0.1361  0.8949 -0.7187
  806MOL0     C11108  10.060   9.841   2.710 -0.4459 -0.5603 -0.2431
  806MOL0     C11109  10.156   9.919   2.765  0.4196  0.3247  0.0162
  806MOL0     C11110  10.298   9.881   2.778 -0.1866  0.3976  0.8855
  806MOL0     C11111  10.312   9.740   2.823  0.0758  0.1696 -0.2133
  806MOL0     C11112  10.339   9.651   2.690 -0.3120 -0.1867 -0.4730
  806MOL0     C11113  10.474   9.674   2.608 -0.1615  0.1957  0.3404
  806MOL0     O11114  10.465   9.623   2.474  0.1731  0.2303 -0.3417
  806MOL0     C11115  10.584   9.593   2.409 -0.7616  1.2711  0.7595
  806MOL0     C11116  10.580   9.499   2.312  0.4204 -0.1746  0.2377
  806MOL0     C11117  10.697   9.463   2.234  0.6611 -0.3881  1.0668
  806MOL0     C11118  10.668   9.363   2.130 -1.0190  0.5132  0.1582
  806MOL0     C11119  10.825   9.513   2.263 -0.4331  1.0902  0.2714
  806MOL0     C11120  10.961   9.467   2.201 -0.6946  0.0985  0.4675
  806MOL0     O11121  10.967   9.344   2.132  0.3723 -0.5591  0.4130
  806MOL0     C11122  11.078   9.303   2.066 -0.5391  0.0777  0.7400
  806MOL0     C11123  11.125   9.175   2.088  0.5270 -0.1434  0.1750
  806MOL0     C11124  11.244   9.124   2.037 -1.3352 -0.0344 -0.9960
  806MOL0     C11125  11.328   9.206   1.958 -0.8459 -0.2845  0.1757
  806MOL0     O11126  11.443   9.155   1.901 -0.6848 -0.7476 -0.5903
  806MOL0     C11127  11.489   9.211   1.778  0.2885 -0.0678  1.1771
  806MOL0     C11128  11.580   9.108   1.703  0.3902 -0.2456  0.3484
  806MOL0     C11129  11.709   9.077   1.787 -0.9003  0.2475 -0.0527
  806MOL0     C11130  11.809   8.984   1.707 -0.1612  0.1373  0.8181
  806MOL0     C11131  11.949   8.978   1.785  0.0586  0.0090  0.4131
  806MOL0     C11132  12.039   9.090   1.741  0.3089 -0.3299 -0.4791
  806MOL0     C11133  12.174   9.080   1.810 -0.3631  0.2988  0.0791
  806MOL0     C11134  12.292   9.013   1.739 -0.3655 -0.3049 -1.2826
  806MOL0    Cl11135  12.346   9.115   1.598  0.6039  0.1744 -0.3869
  806MOL0     C11136  11.280   9.344   1.937  0.4228  0.9684 -0.0680
  806MOL0     C11137  11.158   9.387   1.992 -0.2616 -0.3259 -0.6229
  806MOL0     O11138  11.050   9.550   2.201  0.0548  0.6826  0.3633
  806MOL0     C11139  10.829   9.605   2.367  0.1773 -0.1448 -0.3544
  806MOL0     C11140  10.712   9.638   2.442 -1.0917  0.1060 -0.4423
  806MOL0     N11141  10.105  10.041   2.805 -0.4350 -1.0650  0.2189
  806MOL0     N11142   9.986  10.047   2.772  0.1281 -0.0497 -1.3163
  806MOL0     C11143   8.891  10.120   2.478 -0.1738  0.5683  0.2946
  806MOL0     C11144   8.785  10.194   2.410 -0.0501 -0.0809 -0.1452
  806MOL0     C11145   8.583  10.580   2.235  0.4352  0.5029 -0.0173
  806MOL0     C11146   8.457  10.516   2.251 -0.8213 -0.7541 -0.8618
  806MOL0     C11147   8.343  10.584   2.208  0.5897 -0.6242  0.1542
  806MOL0     C11148   8.351  10.712   2.147 -0.0692  0.4315  0.6996
  806MOL0     O11149   8.244  10.781   2.094 -1.6361 -0.2126  0.2352
  806MOL0     C11150   8.133  10.719   2.023 -0.0037 -0.5738 -0.7537
  806MOL0     C11151   8.006  10.723   2.104  0.8405  0.1873 -0.4187
  806MOL0     C11152   7.886  10.665   2.044 -0.0722 -0.2261  0.3465
  806MOL0     C11153   7.866  10.720   1.899  1.5568  0.8913  0.1960
  806MOL0     C11154   7.725  10.672   1.854 -1.1970  0.2696  0.2748
  806MOL0     C11155   7.633  10.626   1.794  1.5406  0.1549  0.3994
  806MOL0     C11156   8.473  10.767   2.126  1.2475 -0.1523 -0.3670
  806MOL0     C11157   8.594  10.710   2.181 -0.6513  0.4133 -0.5498
  806MOL0     C11158   8.718  10.799   2.172 -0.3533 -0.3661 -0.2941
  806MOL0     H11159   8.886  10.516   2.457  3.6278 -0.5884 -4.3108
  806MOL0     H11160   9.079  10.396   2.562  0.9814  1.1149 -2.1139
  806MOL0     H11161   9.082  10.096   2.774 -0.4962 -0.4937  0.2574
  806MOL0     H11162   9.172  10.229   2.694 -0.4729  0.1538 -0.2276
  806MOL0     H11163   9.362  10.104   2.703  0.5736 -1.1280  2.1043
  806MOL0     H11164   9.277  10.020   2.827 -1.4140  2.4816  1.0727
  806MOL0     H11165   9.189   9.877   2.614 -1.0330  2.1736  0.3646
  806MOL0     H11166   9.360   9.919   2.566  1.5985  1.2423  0.7718
  806MOL0     H11167   9.273   9.768   2.809  1.7656 -2.7921  1.3434
  806MOL0     H11168   9.352   9.695   2.666  0.5138 -1.0156  1.2116
  806MOL0     H11169   9.513   9.715   2.831  0.7969 -0.1611  0.6141
  806MOL0     H11170   9.477   9.882   2.867  1.4320 -1.5782  0.9926
  806MOL0     H11171   9.575   9.792   2.585  0.6190 -0.2920  0.4140
  806MOL0     H11172   9.577   9.959   2.646  2.1021 -0.4142 -2.1025
  806MOL0     H11173   9.752   9.723   2.740  0.2626 -0.0263 -0.7842
  806MOL0     H11174   9.748   9.864   2.827 -0.9050 -0.9325  0.3963
  806MOL0     H11175   9.847   9.852   2.546 -2.0712 -1.7555  0.8398
  806MOL0     H11176   9.791  10.009   2.619  1.5932  0.7659  0.3094
  806MOL0     H11177  10.059   9.737   2.678  0.7570 -0.7601  0.3343
  806MOL0     H11178  10.335   9.946   2.857  3.0370  2.2811 -1.9002
  806MOL0     H11179  10.365   9.906   2.695  1.1237  1.0799  2.1168
  806MOL0     H11180  10.389   9.723   2.899  0.0342 -0.3718 -0.2858
  806MOL0     H11181  10.220   9.693   2.860  2.2174 -2.0991  2.7394
  806MOL0     H11182  10.348   9.545   2.714  2.5230  0.1502  0.3707
  806MOL0     H11183  10.257   9.673   2.621 -0.0135  2.3708 -0.1159
  806MOL0     H11184  10.501   9.780   2.596 -0.5421  0.2096 -0.4805
  806MOL0     H11185  10.561   9.638   2.663  0.5912 -2.5619 -2.4324
  806MOL0     H11186  10.489   9.452   2.278  1.9529 -1.1773 -2.8763
  806MOL0     H11187  10.674   9.260   2.166 -0.6475 -0.2195 -1.8733
  806MOL0     H11188  10.733   9.363   2.042  2.4878 -3.6036  2.3415
  806MOL0     H11189  10.570   9.383   2.087 -0.5974  0.8361 -0.6880
  806MOL0     H11190  11.065   9.104   2.143  0.1418 -0.8820 -1.1551
  806MOL0     H11191  11.268   9.019   2.044 -0.7607  0.1180 -0.5457
  806MOL0     H11192  11.410   9.241   1.708  2.7002  2.7482 -0.5826
  806MOL0     H11193  11.542   9.306   1.793 -0.1079  0.9364 -2.5654
  806MOL0     H11194  11.516   9.020   1.696 -1.1316  0.4092  4.1676
  806MOL0     H11195  11.601   9.156   1.607 -2.2330 -2.8986 -1.7433
  806MOL0     H11196  11.698   9.020   1.880  0.0486  1.4077  0.8160
  806MOL0     H11197  11.771   9.164   1.815  0.9857 -1.2945  0.8348
  806MOL0     H11198  11.824   9.028   1.608  0.7874 -0.0233  0.8831
  806MOL0     H11199  11.771   8.883   1.694  2.1820 -0.5379 -2.0365
  806MOL0     H11200  11.937   8.962   1.892 -0.8088 -0.1270  0.3039
  806MOL0     H11201  11.990   8.885   1.744  0.4151  0.5742 -0.5725
  806MOL0     H11202  11.986   9.178   1.777 -1.4372 -1.8228  0.8111
  806MOL0     H11203  12.052   9.085   1.633 -1.3093  1.1096 -0.7871
  806MOL0     H11204  12.151   9.014   1.894 -6.1897  1.4286 -0.2056
  806MOL0     H11205  12.199   9.179   1.849 -0.2738  0.0926  0.5488
  806MOL0     H11206  12.273   8.908   1.715  0.5945 -0.7609 -0.1753
  806MOL0     H11207  12.377   9.007   1.808 -0.4067  0.5125 -1.1454
  806MOL0     H11208  11.333   9.418   1.878 -1.1483  1.0424 -1.4558
  806MOL0     H11209  11.127   9.490   1.976 -1.3340 -0.5387 -0.0150
  806MOL0     H11210  10.922   9.642   2.408  0.3891  0.8558 -1.6731
  806MOL0     H11211  10.738   9.714   2.515  1.8798  0.0114 -1.2719
  806MOL0     H11212   8.909  10.013   2.478  0.6222  0.6969  0.1158
  806MOL0     H11213   8.705  10.140   2.361  0.9813 -0.9436 -0.9548
  806MOL0     H11214   8.442  10.420   2.300  2.1945 -0.9000 -0.0788
  806MOL0     H11215   8.246  10.535   2.214 -0.7192  1.9684  3.9031
  806MOL0     H11216   8.132  10.770   1.926 -0.8325  1.9739  0.4849
  806MOL0     H11217   8.164  10.620   1.989 -1.3401 -0.4080 -2.5889
  806MOL0     H11218   7.974  10.825   2.127 -1.1878 -0.5915  0.5132
  806MOL0     H11219   8.028  10.669   2.197  1.1177 -0.9167 -1.1072
  806MOL0     H11220   7.900  10.557   2.043 -3.3961 -0.8563  3.2111
  806MOL0     H11221   7.800  10.696   2.104 -1.4248 -2.5368 -0.2648
  806MOL0     H11222   7.942  10.664   1.843 -1.0628 -1.7408 -0.9863
  806MOL0     H11223   7.880  10.828   1.897 -1.6644  1.4394  1.0352
  806MOL0     H11224   7.539  10.611   1.746  1.5899 -1.1984  0.6966
  806MOL0     H11225   8.478  10.860   2.070 -2.2545 -0.3310 -1.1566
  806MOL0     H11226   8.770  10.780   2.078 -0.7102  2.8017 -1.2205
  806MOL0     H11227   8.685  10.902   2.161  0.8502  0.2359  1.2913
  806MOL0     H11228   8.775  10.779   2.263 -2.4523 -3.9184  0.4727
  807MOL0     O11229  10.274   1.745   2.009  0.0420 -0.3500 -0.4898
  807MOL0     C11230  10.388   1.768   2.048  0.3545 -0.0875 -0.4716
  807MOL0     O11231  10.429   1.883   2.109 -0.2457 -0.8637 -0.1319
  807MOL0     C11232  10.339   1.979   2.151 -0.6322 -1.2452 -0.2392
  807MOL0     C11233  10.254   2.055   2.067  0.2659 -0.3192  0.3843
  807MOL0     C11234  10.165   2.153   2.123 -0.5793  0.1847  0.3194
  807MOL0     C11235  10.134   2.148   2.256  0.5108  0.1031  0.5499
  807MOL0     O11236  10.030   2.225   2.305 -0.1886  0.0635  0.1901
  807MOL0     C11237   9.941   2.293   2.217  0.1490 -0.1610 -0.3308
  807MOL0     C11238   9.805   2.332   2.280  0.3827  0.2690 -0.6889
  807MOL0     C11239   9.723   2.436   2.198  0.1999  0.0915 -0.0299
  807MOL0     C11240   9.593   2.476   2.256 -0.3420  0.0782 -0.6423
  807MOL0     C11241   9.505   2.524   2.142  0.3047  0.0203 -0.0218
  807MOL0     C11242   9.362   2.573   2.175 -0.1636 -0.7072  0.8181
  807MOL0     C11243   9.275   2.589   2.053  0.0365 -0.0911  0.7313
  807MOL0     C11244   9.217   2.454   1.998  0.9244 -0.0055  0.0038
  807MOL0     N11245   9.166   2.453   1.861 -0.0902 -0.2248 -0.0640
  807MOL0     C11246   9.223   2.516   1.754  0.6810  0.1243 -0.5559
  807MOL0     C11247   9.118   2.516   1.672  0.9725  0.5072  0.6195
  807MOL0     C11248   9.099   2.588   1.542 -0.5154 -0.4707  0.2367
  807MOL0     C11249   9.077   2.733   1.588 -0.0365  0.7652 -0.7801
  807MOL0     C11250   9.030   2.807   1.459 -0.2602  0.2703  0.8853
  807MOL0     C11251   8.878   2.790   1.437 -0.1553  0.2675 -0.2765
  807MOL0     O11252   8.856   2.829   1.300  0.8637 -0.0049  0.2350
  807MOL0     C11253   8.740   2.795   1.237  0.3259  0.3074 -0.2268
  807MOL0     C11254   8.726   2.840   1.102 -0.3276 -0.0301 -0.4142
  807MOL0     C11255   8.613   2.814   1.036 -0.3817  0.0829  0.6748
  807MOL0     C11256   8.614   2.869   0.887 -0.2993 -0.1677 -0.8782
  807MOL0     C11257   8.501   2.746   1.097 -0.5776 -0.9702  0.6226
  807MOL0     C11258   8.378   2.709   1.017 -1.3426  0.4533 -0.4912
  807MOL0     O11259   8.400   2.681   0.889 -0.2434  0.1607 -0.2099
  807MOL0     C11260   8.299   2.623   0.807 -1.1262  0.7456  0.3565
  807MOL0     C11261   8.296   2.655   0.666 -0.6637 -1.5850 -0.6073
  807MOL0     C11262   8.203   2.594   0.584 -0.4714  0.6780 -0.2110
  807MOL0     C11263   8.106   2.501   0.624  0.6319 -0.3064 -1.0565
  807MOL0     O11264   8.000   2.477   0.556  0.2735 -0.6302  0.1579
  807MOL0     C11265   7.879   2.538   0.592 -0.4679  0.8988 -0.9492
  807MOL0     C11266   7.854   2.690   0.577 -0.3130  0.1123  0.9853
  807MOL0     C11267   7.896   2.748   0.437  0.2524  0.4699 -0.7987
  807MOL0     C11268   7.856   2.890   0.443 -0.1220 -0.2027  0.2780
  807MOL0     C11269   7.930   2.987   0.353  0.4870  0.2180 -0.0400
  807MOL0     C11270   8.046   3.051   0.393 -0.1710 -0.1950  0.4398
  807MOL0     C11271   8.177   2.973   0.432  0.8379 -0.0416  0.0419
  807MOL0     C11272   8.297   3.061   0.409 -0.0542  0.2427 -0.4028
  807MOL0    Cl11273   8.440   2.977   0.469  0.0846 -0.1576  0.0169
  807MOL0     C11274   8.115   2.465   0.762 -0.0192  0.3811 -0.2532
  807MOL0     C11275   8.206   2.529   0.847  0.3533  0.9878  0.0818
  807MOL0     O11276   8.269   2.696   1.073  0.7103 -0.6915  0.3153
  807MOL0     C11277   8.514   2.712   1.230  0.1607  0.0505 -0.2983
  807MOL0     C11278   8.631   2.737   1.302  0.1181  0.8657  1.3054
  807MOL0     N11279   9.010   2.437   1.723 -1.0007 -0.4070 -0.2162
  807MOL0     N11280   9.047   2.392   1.834 -0.6744  0.1980  0.2473
  807MOL0     C11281  10.200   2.058   2.342 -0.2875  0.4907  0.2491
  807MOL0     C11282  10.308   1.981   2.291 -0.2426 -1.1051 -0.3194
  807MOL0     C11283  10.476   1.647   2.027 -0.9168  0.3801 -0.4157
  807MOL0     C11284  10.497   1.616   1.892 -0.6824  0.0046 -0.4954
  807MOL0     C11285  10.572   1.504   1.852 -0.1185 -0.8506 -0.3810
  807MOL0     C11286  10.624   1.421   1.960  1.0130 -0.3755  0.1654
  807MOL0     O11287  10.669   1.300   1.915  0.0259 -0.1001 -0.2730
  807MOL0     C11288  10.769   1.242   1.988  0.2671  0.1525  0.6089
  807MOL0     C11289  10.806   1.108   1.913  0.0271 -0.0302  0.3151
  807MOL0     C11290  10.681   1.019   1.897 -0.2804  0.6338  0.1186
  807MOL0     C11291  10.595   1.030   1.776  0.9403 -0.3791  0.0099
  807MOL0     C11292  10.662   1.006   1.644 -0.9776  0.1565  0.0575
  807MOL0     C11293  10.704   0.972   1.535  1.8736 -0.3456 -0.1221
  807MOL0     C11294  10.612   1.458   2.089  1.0240  0.1003 -0.3487
  807MOL0     C11295  10.527   1.563   2.127  0.9640 -0.0586  0.1094
  807MOL0     C11296  10.519   1.585   2.271  0.4095  0.9159  0.7028
  807MOL0     H11297  10.273   2.048   1.960  1.3360 -1.8355  0.6530
  807MOL0     H11298  10.115   2.213   2.047 -1.2168 -2.1066 -1.1686
  807MOL0     H11299   9.918   2.226   2.134 -0.7394 -2.6377  1.7774
  807MOL0     H11300   9.992   2.384   2.182 -1.0226  1.5247  2.0247
  807MOL0     H11301   9.745   2.242   2.293  2.0641 -0.6091  1.9340
  807MOL0     H11302   9.834   2.374   2.377  3.4648 -0.9072 -0.9997
  807MOL0     H11303   9.788   2.523   2.183 -0.2416  0.8481  2.1429
  807MOL0     H11304   9.716   2.396   2.096  0.6474  0.6812 -0.2995
  807MOL0     H11305   9.555   2.394   2.317  3.9476 -0.0516  2.2632
  807MOL0     H11306   9.604   2.555   2.331 -0.2884  1.1759 -1.7580
  807MOL0     H11307   9.482   2.440   2.076 -2.0715  0.0306  0.6967
  807MOL0     H11308   9.565   2.596   2.085 -1.4877  0.6004 -1.2978
  807MOL0     H11309   9.320   2.511   2.255 -2.3318 -0.0564  0.2414
  807MOL0     H11310   9.376   2.674   2.216 -0.6896 -0.6015  0.7434
  807MOL0     H11311   9.323   2.652   1.978 -0.7326  0.5694  0.7705
  807MOL0     H11312   9.195   2.645   2.102 -1.9922 -1.7793 -0.4802
  807MOL0     H11313   9.294   2.377   1.994 -0.7661 -1.9274  1.7668
  807MOL0     H11314   9.142   2.408   2.063  1.1021 -0.7624 -0.3176
  807MOL0     H11315   9.317   2.569   1.744 -0.4003  2.3012  0.1610
  807MOL0     H11316   9.014   2.549   1.486 -1.6645  2.0528  0.0949
  807MOL0     H11317   9.175   2.566   1.466  0.5909  2.1320  0.4575
  807MOL0     H11318   8.999   2.728   1.664  0.1614  1.5741 -0.5195
  807MOL0     H11319   9.170   2.777   1.624 -0.1338 -0.7906  1.5826
  807MOL0     H11320   9.041   2.915   1.472 -0.3569  0.1186  2.3633
  807MOL0     H11321   9.092   2.782   1.372 -0.5454  2.3397  0.0210
  807MOL0     H11322   8.851   2.684   1.444  0.3400  0.1649  0.1230
  807MOL0     H11323   8.811   2.843   1.505 -2.0747 -1.4833 -0.6891
  807MOL0     H11324   8.804   2.895   1.050  1.3919 -0.0503  2.0206
  807MOL0     H11325   8.511   2.902   0.872 -0.2972  1.9789  2.7170
  807MOL0     H11326   8.650   2.801   0.809 -1.3833 -1.0443 -0.6363
  807MOL0     H11327   8.681   2.954   0.872 -0.8228  1.2116  3.2728
  807MOL0     H11328   8.369   2.726   0.628 -0.9971 -1.3792 -0.8675
  807MOL0     H11329   8.202   2.624   0.479 -1.4598 -0.4159 -0.5378
  807MOL0     H11330   7.801   2.485   0.536 -2.2919  1.4440  0.9399
  807MOL0     H11331   7.855   2.514   0.697  0.3908  2.4975 -0.3500
  807MOL0     H11332   7.746   2.702   0.593 -0.7684 -1.7586 -0.3267
  807MOL0     H11333   7.912   2.744   0.652  0.5504  2.2472 -1.0956
  807MOL0     H11334   7.836   2.693   0.363 -2.1646  1.1473  0.5587
  807MOL0     H11335   8.005   2.749   0.423  0.1465 -1.0623 -2.0290
  807MOL0     H11336   7.858   2.941   0.540  1.7016  2.0744 -0.8503
  807MOL0     H11337   7.753   2.893   0.407  1.0151  1.3710 -3.3017
  807MOL0     H11338   7.959   2.933   0.262  0.6919  1.9872 -1.0715
  807MOL0     H11339   7.860   3.068   0.331 -1.0814 -0.9370  0.5249
  807MOL0     H11340   8.009   3.104   0.482  2.2279 -1.1555  2.1249
  807MOL0     H11341   8.076   3.127   0.320  1.1246 -0.5503  0.5791
  807MOL0     H11342   8.190   2.880   0.377  1.2649 -0.2586  0.4971
  807MOL0     H11343   8.150   2.948   0.535 -1.2240  1.7867  0.0294
  807MOL0     H11344   8.277   3.159   0.451 -1.8083 -0.9322  1.7066
  807MOL0     H11345   8.314   3.084   0.303  1.8573 -0.5415 -0.3193
  807MOL0     H11346   8.043   2.393   0.800 -1.0873  1.3829 -0.3198
  807MOL0     H11347   8.211   2.471   0.938  0.6790  0.6592 -0.1420
  807MOL0     H11348   8.419   2.686   1.275 -0.5573 -2.2052 -2.9026
  807MOL0     H11349   8.632   2.700   1.404 -2.6107  0.3197  1.2200
  807MOL0     H11350  10.163   2.036   2.441 -0.9617 -0.1608 -0.1293
  807MOL0     H11351  10.373   1.914   2.346  0.0333  1.8142  3.3274
  807MOL0     H11352  10.454   1.688   1.823 -0.8892 -2.1854 -2.7939
  807MOL0     H11353  10.577   1.471   1.748  0.4978  0.6789 -0.8634
  807MOL0     H11354  10.846   1.319   1.997  0.0484  0.2624  1.6977
  807MOL0     H11355  10.741   1.200   2.085  1.8065 -0.1356  0.9616
  807MOL0     H11356  10.872   1.061   1.986  0.1023 -2.2326 -1.0812
  807MOL0     H11357  10.869   1.115   1.825  0.8861 -0.8399  0.8501
  807MOL0     H11358  10.719   0.917   1.891 -3.6781 -0.7396  0.0165
  807MOL0     H11359  10.613   1.033   1.982  0.4315  2.0480  0.4927
  807MOL0     H11360  10.545   1.127   1.773  1.0141 -0.3294  0.3070
  807MOL0     H11361  10.512   0.960   1.784  0.3192  0.4388  1.0002
  807MOL0     H11362  10.745   0.939   1.442  2.0735  2.8018 -1.2892
  807MOL0     H11363  10.660   1.390   2.159  1.2194 -0.0103 -0.5868
  807MOL0     H11364  10.620   1.588   2.313  1.2890  2.0309 -1.3494
  807MOL0     H11365  10.465   1.677   2.291 -1.3826 -0.2608  1.5108
  807MOL0     H11366  10.458   1.509   2.320 -0.4584  3.1262  3.2166
  808MOL0     O11367   6.448   6.299   4.218 -0.4286 -0.4311  0.0283
  808MOL0     C11368   6.529   6.361   4.285  0.6773 -0.0128 -0.5442
  808MOL0     O11369   6.546   6.338   4.420  0.4078  0.0955  0.5053
  808MOL0     C11370   6.464   6.248   4.479  1.2657 -0.8218  0.8103
  808MOL0     C11371   6.324   6.267   4.501  0.1662  0.5044 -0.0945
  808MOL0     C11372   6.242   6.165   4.558 -0.0754 -0.0289 -0.0436
  808MOL0     C11373   6.308   6.050   4.608  0.1613 -0.4183  1.2040
  808MOL0     O11374   6.246   5.937   4.655  0.2289  0.0596  0.0580
  808MOL0     C11375   6.102   5.910   4.637  0.1348  0.2746 -0.8474
  808MOL0     C11376   6.077   5.827   4.510  0.8226 -0.1088 -0.0859
  808MOL0     C11377   6.079   5.906   4.383  0.0766  1.0063 -0.7747
  808MOL0     C11378   6.210   5.907   4.311 -0.5876 -0.3787 -0.1464
  808MOL0     C11379   6.191   6.002   4.195  0.5331  0.0654 -0.7249
  808MOL0     C11380   6.291   5.972   4.086  0.1305 -0.2909 -0.3544
  808MOL0     C11381   6.257   6.054   3.965 -0.4721 -0.0019  0.2035
  808MOL0     C11382   6.311   5.992   3.834  0.5265 -0.0453 -0.5756
  808MOL0     N11383   6.339   6.086   3.734  0.2120 -0.0903 -0.9138
  808MOL0     C11384   6.251   6.124   3.630 -1.0726  0.3603  0.1026
  808MOL0     C11385   6.330   6.199   3.548 -0.0640  0.1825  0.1770
  808MOL0     C11386   6.292   6.269   3.427  0.8368  0.6311  0.6937
  808MOL0     C11387   6.164   6.211   3.365 -0.6162 -0.1283  0.2500
  808MOL0     C11388   6.107   6.289   3.254 -0.4273 -0.0283  0.8523
  808MOL0     C11389   5.965   6.236   3.200 -0.7695 -0.1653  0.5853
  808MOL0     O11390   5.923   6.329   3.100 -0.3159  0.0896  0.0668
  808MOL0     C11391   5.990   6.353   2.984 -0.4944 -0.4936  0.3666
  808MOL0     C11392   5.934   6.467   2.928  1.3353  0.1441  0.4372
  808MOL0     C11393   5.986   6.520   2.806 -0.6080  0.0066 -0.3557
  808MOL0     C11394   5.917   6.650   2.756 -0.7161  0.1864 -0.2401
  808MOL0     C11395   6.097   6.453   2.748  0.0173 -0.9833 -0.8680
  808MOL0     C11396   6.172   6.512   2.634  0.3813  1.3417  0.0076
  808MOL0     O11397   6.154   6.644   2.612 -0.0503  0.2271  0.2026
  808MOL0     C11398   6.249   6.702   2.524  0.1581 -0.2340  0.3277
  808MOL0     C11399   6.221   6.753   2.400 -0.3292  0.9477 -1.0124
  808MOL0     C11400   6.314   6.787   2.306 -0.2239 -0.6255  0.4733
  808MOL0     C11401   6.449   6.790   2.343  0.6496  0.5675  0.1950
  808MOL0     O11402   6.543   6.843   2.255  0.0500  0.2520 -0.8100
  808MOL0     C11403   6.538   6.817   2.115 -1.1600  0.0545 -0.0076
  808MOL0     C11404   6.674   6.847   2.051 -0.2466  0.0879  0.2372
  808MOL0     C11405   6.677   6.824   1.896  0.4256  0.4990  0.2135
  808MOL0     C11406   6.802   6.873   1.807 -0.0071 -0.1598 -0.6299
  808MOL0     C11407   6.904   6.754   1.779  1.1336 -0.2325 -0.6428
  808MOL0     C11408   7.035   6.793   1.713 -0.1664 -0.2235 -0.3132
  808MOL0     C11409   7.113   6.673   1.660  0.4922  1.5352  1.6322
  808MOL0     C11410   7.051   6.609   1.522  0.7732 -0.4812  0.0912
  808MOL0    Cl11411   7.124   6.708   1.389  0.5000 -0.1899 -0.1072
  808MOL0     C11412   6.486   6.752   2.470  0.6508  0.5534 -0.4631
  808MOL0     C11413   6.388   6.703   2.556  0.7386  0.0278 -0.5205
  808MOL0     O11414   6.256   6.437   2.582  0.6055 -0.5651 -0.5413
  808MOL0     C11415   6.138   6.332   2.813  0.3042  0.6573  0.1929
  808MOL0     C11416   6.091   6.278   2.935 -0.0400  0.5788 -0.8568
  808MOL0     N11417   6.464   6.198   3.598  0.7981 -0.1069 -0.2729
  808MOL0     N11418   6.460   6.134   3.714 -0.3991  0.2309 -0.3927
  808MOL0     C11419   6.451   6.047   4.607  0.2736  0.0304 -0.0073
  808MOL0     C11420   6.525   6.143   4.540  1.0273 -0.3630  0.3657
  808MOL0     C11421   6.632   6.446   4.224 -0.4742  0.0705 -0.1749
  808MOL0     C11422   6.750   6.467   4.297  0.2110  0.4756  0.6179
  808MOL0     C11423   6.864   6.548   4.248  0.6266 -0.9506 -0.2200
  808MOL0     C11424   6.844   6.617   4.139 -1.2000  0.2855  0.4411
  808MOL0     O11425   6.960   6.688   4.084  0.4720 -0.3547 -0.1415
  808MOL0     C11426   6.958   6.732   3.945  1.0794 -0.1169 -0.3768
  808MOL0     C11427   7.102   6.766   3.925  1.4598 -0.3057  0.4697
  808MOL0     C11428   7.194   6.647   3.938  0.3197 -0.1438 -0.1158
  808MOL0     C11429   7.340   6.684   3.914  0.2700  0.0803  0.3338
  808MOL0     C11430   7.433   6.575   3.908 -0.5813  0.3823 -0.0687
  808MOL0     C11431   7.510   6.485   3.888  0.4580 -0.1207  0.2194
  808MOL0     C11432   6.725   6.613   4.079  0.9173  0.0948  0.2419
  808MOL0     C11433   6.610   6.528   4.119  0.3047 -0.0204  0.9557
  808MOL0     C11434   6.487   6.527   4.031  0.3752 -0.1659 -0.8163
  808MOL0     H11435   6.287   6.351   4.443 -0.6928  1.2623  1.4863
  808MOL0     H11436   6.134   6.173   4.549 -0.0428  1.0511  0.4161
  808MOL0     H11437   6.038   5.997   4.658 -1.6869 -0.7622 -1.8355
  808MOL0     H11438   6.075   5.840   4.716  3.0061  1.4040  1.2999
  808MOL0     H11439   6.141   5.739   4.497  1.1764  0.4223 -2.4483
  808MOL0     H11440   5.975   5.792   4.528  2.1185 -2.6187  3.4864
  808MOL0     H11441   6.000   5.861   4.322  1.8304  0.7434 -3.0094
  808MOL0     H11442   6.054   6.011   4.404  0.1509  0.9843 -0.5773
  808MOL0     H11443   6.284   5.929   4.388  2.0729 -1.6501 -2.1763
  808MOL0     H11444   6.225   5.810   4.263  1.6867 -0.4064  0.5203
  808MOL0     H11445   6.194   6.102   4.240  0.8167 -0.1666 -0.2154
  808MOL0     H11446   6.093   5.988   4.148 -0.4526 -2.7184  1.7807
  808MOL0     H11447   6.389   5.991   4.130 -0.9155 -0.3837  2.1941
  808MOL0     H11448   6.279   5.867   4.057  0.0853 -0.4469  0.2108
  808MOL0     H11449   6.303   6.153   3.958  0.6063 -0.5443 -0.5835
  808MOL0     H11450   6.149   6.061   3.948 -0.1317  3.3389 -1.5756
  808MOL0     H11451   6.404   5.936   3.852  2.0112  1.7987 -2.0684
  808MOL0     H11452   6.244   5.919   3.787 -0.9209  1.9940 -1.8211
  808MOL0     H11453   6.148   6.093   3.620 -1.4184  0.0588  3.5748
  808MOL0     H11454   6.365   6.259   3.346 -0.4052 -0.2106 -0.3492
  808MOL0     H11455   6.281   6.377   3.441 -1.1187  0.9381 -2.3654
  808MOL0     H11456   6.190   6.110   3.331 -1.5159 -1.6420  3.6376
  808MOL0     H11457   6.084   6.213   3.440 -0.8782  1.7558 -0.0331
  808MOL0     H11458   6.101   6.394   3.282 -2.9238  0.9466 -2.6701
  808MOL0     H11459   6.179   6.281   3.171  4.0254  0.3128  4.3117
  808MOL0     H11460   5.969   6.131   3.170 -1.9950 -1.0689  3.2639
  808MOL0     H11461   5.887   6.232   3.276 -1.4499 -2.3151 -0.1726
  808MOL0     H11462   5.843   6.512   2.967 -0.0070 -1.7666 -0.3347
  808MOL0     H11463   5.982   6.737   2.769  1.2968 -1.5335  2.2331
  808MOL0     H11464   5.831   6.680   2.816 -0.2569 -0.3926  0.7376
  808MOL0     H11465   5.882   6.637   2.653  1.4419  1.0128 -1.1430
  808MOL0     H11466   6.113   6.751   2.389 -0.4363 -0.4879 -0.0111
  808MOL0     H11467   6.281   6.823   2.209 -0.2244  1.9576  1.3628
  808MOL0     H11468   6.526   6.709   2.101  3.5209 -0.4133 -2.2615
  808MOL0     H11469   6.462   6.870   2.057 -0.7325 -0.3676 -0.9921
  808MOL0     H11470   6.696   6.951   2.077  1.6597 -0.3247  0.4065
  808MOL0     H11471   6.756   6.796   2.102  0.3402 -0.3506 -1.1045
  808MOL0     H11472   6.594   6.885   1.859  2.2474  2.1444 -1.4230
  808MOL0     H11473   6.653   6.721   1.870  0.6314  1.2039 -3.1980
  808MOL0     H11474   6.859   6.952   1.856  1.8137 -0.4632 -2.1054
  808MOL0     H11475   6.774   6.926   1.716  0.6775 -1.2191 -1.4933
  808MOL0     H11476   6.926   6.707   1.875  0.8294  1.1370  0.1293
  808MOL0     H11477   6.848   6.683   1.717 -0.0256  1.1846 -1.2814
  808MOL0     H11478   7.102   6.851   1.777 -1.2019  0.9492 -0.2757
  808MOL0     H11479   7.022   6.850   1.621  2.8341 -1.0938 -1.4239
  808MOL0     H11480   7.116   6.594   1.736  3.7431  1.7147  1.8500
  808MOL0     H11481   7.221   6.689   1.649  1.5311 -2.1055  4.4287
  808MOL0     H11482   6.944   6.626   1.531  0.4533 -1.9259 -0.7644
  808MOL0     H11483   7.078   6.504   1.510  2.1445 -0.3055  1.2634
  808MOL0     H11484   6.588   6.751   2.507  0.3764 -3.7479  0.7226
  808MOL0     H11485   6.411   6.661   2.654  1.6338 -0.8599 -1.0953
  808MOL0     H11486   6.218   6.271   2.774  1.7553 -0.3854  4.2594
  808MOL0     H11487   6.120   6.190   2.991  1.5358 -0.1115 -2.6716
  808MOL0     H11488   6.506   5.964   4.650  2.1761  1.8522  1.2527
  808MOL0     H11489   6.633   6.137   4.539  1.1173 -2.1321  3.9563
  808MOL0     H11490   6.771   6.424   4.394  0.7048  3.1372  1.7765
  808MOL0     H11491   6.957   6.557   4.303  0.4206  0.8562 -0.1013
  808MOL0     H11492   6.919   6.653   3.880  0.0429  0.3509 -0.3490
  808MOL0     H11493   6.896   6.822   3.952  1.4864  0.0875  0.9013
  808MOL0     H11494   7.127   6.849   3.992  3.4413 -0.2931 -0.2033
  808MOL0     H11495   7.108   6.802   3.821 -2.3742 -0.7935 -0.0643
  808MOL0     H11496   7.183   6.603   4.038  1.9189  1.0262  0.6214
  808MOL0     H11497   7.165   6.584   3.854  2.8434 -0.9299 -0.4734
  808MOL0     H11498   7.364   6.740   4.005 -1.0074  1.4968 -0.1675
  808MOL0     H11499   7.359   6.731   3.817 -4.6342  0.4506 -0.7075
  808MOL0     H11500   7.581   6.404   3.887  0.1497 -0.3922 -0.9430
  808MOL0     H11501   6.702   6.661   3.984 -2.2095 -1.0902  0.2803
  808MOL0     H11502   6.459   6.428   3.994 -0.2222 -0.6973  0.9485
  808MOL0     H11503   6.407   6.575   4.088  1.2815  2.2643 -1.4684
  808MOL0     H11504   6.497   6.592   3.943 -3.6040  0.0754 -1.2961
  809MOL0     O11505   6.369   8.436   2.590 -0.5559  0.0123  0.4255
  809MOL0     C11506   6.428   8.329   2.580  0.5557 -0.1438  0.2717
  809MOL0     O11507   6.545   8.308   2.507 -0.1444  0.6909 -0.1009
  809MOL0     C11508   6.614   8.417   2.469  0.5604  0.1180 -0.5142
  809MOL0     C11509   6.669   8.500   2.569 -0.1581  1.1575 -0.5245
  809MOL0     C11510   6.743   8.608   2.533 -0.3616 -0.7586  0.6209
  809MOL0     C11511   6.763   8.643   2.394  0.1971 -0.3253 -0.3240
  809MOL0     O11512   6.845   8.750   2.366 -0.0703 -0.9334  0.3466
  809MOL0     C11513   6.880   8.764   2.233 -0.4828  0.1610 -0.4783
  809MOL0     C11514   6.898   8.913   2.213 -0.3640  0.3420 -0.2260
  809MOL0     C11515   6.958   8.943   2.078 -1.1508  0.0482 -0.4891
  809MOL0     C11516   6.847   8.926   1.963 -0.7884 -0.9283 -0.0692
  809MOL0     C11517   6.891   8.950   1.820  0.5041  0.0633  0.3471
  809MOL0     C11518   6.921   9.101   1.794  0.5809  0.3282 -0.6879
  809MOL0     C11519   6.960   9.123   1.652 -0.0152 -0.5583  0.5243
  809MOL0     C11520   6.840   9.115   1.552  0.2809 -0.1748  0.3906
  809MOL0     N11521   6.886   9.163   1.417 -0.1144 -0.4859  0.4658
  809MOL0     C11522   6.980   9.101   1.340  0.6234  0.3603  0.0317
  809MOL0     C11523   6.997   9.181   1.232 -0.1210 -0.8726  0.0260
  809MOL0     C11524   7.093   9.162   1.122 -0.4452  0.4940 -0.2296
  809MOL0     C11525   7.020   9.155   0.986 -0.4052 -0.0411  0.7504
  809MOL0     C11526   7.036   9.264   0.875  0.8164  0.3267  0.1227
  809MOL0     C11527   6.953   9.395   0.897 -0.5472 -0.7749  0.2708
  809MOL0     O11528   7.024   9.521   0.875 -0.2904 -0.2125  0.5139
  809MOL0     C11529   7.044   9.559   0.743  0.5738  0.3782  0.2971
  809MOL0     C11530   7.108   9.471   0.653  0.0786 -0.7805 -0.5114
  809MOL0     C11531   7.141   9.512   0.519 -0.3772  0.8951  0.3701
  809MOL0     C11532   7.211   9.397   0.443 -0.2378 -0.8204  1.1335
  809MOL0     C11533   7.105   9.638   0.476 -0.7637  0.1798  0.5018
  809MOL0     C11534   7.132   9.694   0.343  0.6480 -0.2576 -0.0877
  809MOL0     O11535   7.162   9.828   0.335 -0.6815 -0.3345 -0.5331
  809MOL0     C11536   7.141   9.902   0.218 -0.5700  0.1487 -0.3476
  809MOL0     C11537   7.219   9.880   0.107 -1.0844 -0.7135  0.0349
  809MOL0     C11538   7.204   9.975   0.004  0.1469 -0.4044  0.3433
  809MOL0     C11539   7.107  10.081   0.013  0.0765 -0.1092 -0.3414
  809MOL0     O11540   7.104  10.185  -0.075  0.0943  0.3687 -0.4729
  809MOL0     C11541   7.061  10.159  -0.213 -1.0474 -0.1875 -0.0786
  809MOL0     C11542   6.921  10.132  -0.231  0.5723  0.7064 -0.4507
  809MOL0     C11543   6.835  10.253  -0.245  0.0462 -0.2758 -0.2340
  809MOL0     C11544   6.686  10.208  -0.216  1.0829 -0.0970 -0.3298
  809MOL0     C11545   6.571  10.304  -0.273 -0.8416  0.8172  0.1350
  809MOL0     C11546   6.578  10.449  -0.223 -0.3028  0.8720 -0.7132
  809MOL0     C11547   6.477  10.539  -0.295 -0.4330  0.5544 -0.6951
  809MOL0     C11548   6.337  10.493  -0.268  1.3333  0.1740 -0.5588
  809MOL0    Cl11549   6.221  10.632  -0.308 -0.4394  0.5008  0.3332
  809MOL0     C11550   7.038  10.089   0.130  0.0121 -0.2268 -0.4785
  809MOL0     C11551   7.045   9.999   0.231 -1.4300 -0.1800 -0.3584
  809MOL0     O11552   7.114   9.621   0.247  0.3072  0.3548 -0.5656
  809MOL0     C11553   7.046   9.719   0.572  0.8838  0.3021 -0.1252
  809MOL0     C11554   7.009   9.679   0.699 -0.7060 -0.8831  0.5440
  809MOL0     N11555   6.898   9.280   1.233  0.1542 -0.7018 -0.3446
  809MOL0     N11556   6.853   9.276   1.355  0.2138 -0.0976  0.3093
  809MOL0     C11557   6.688   8.573   2.301  0.2229  0.0364 -0.2086
  809MOL0     C11558   6.624   8.458   2.341  1.1452 -0.5730  0.1863
  809MOL0     C11559   6.326   8.216   2.616  0.4368  0.4993  0.1379
  809MOL0     C11560   6.344   8.091   2.557 -0.4043 -0.5556  0.1527
  809MOL0     C11561   6.240   7.997   2.568 -0.5654 -0.1091 -0.1367
  809MOL0     C11562   6.128   8.022   2.637  0.5358  0.7138 -0.3195
  809MOL0     O11563   6.050   7.904   2.639  0.1226 -0.4315  0.7496
  809MOL0     C11564   5.927   7.911   2.700  1.2462 -0.5364 -0.6457
  809MOL0     C11565   5.875   7.776   2.667  0.3502  0.5368 -0.2617
  809MOL0     C11566   5.959   7.643   2.706  0.8249  0.0357 -1.0719
  809MOL0     C11567   6.045   7.647   2.835  0.0771 -0.3502 -0.6877
  809MOL0     C11568   6.109   7.517   2.859  0.2440  0.8140  0.1066
  809MOL0     C11569   6.164   7.411   2.875  0.9710 -0.0003  0.2087
  809MOL0     C11570   6.118   8.133   2.723 -0.8848  1.0196  0.9426
  809MOL0     C11571   6.217   8.234   2.711  0.7341 -0.9847  0.2941
  809MOL0     C11572   6.195   8.361   2.790  0.4466  0.5003 -0.3170
  809MOL0     H11573   6.645   8.480   2.673 -0.8363 -1.2734 -1.0930
  809MOL0     H11574   6.787   8.662   2.617 -0.3552 -3.0893  2.2012
  809MOL0     H11575   6.807   8.734   2.158  2.0648 -0.8428 -2.7406
  809MOL0     H11576   6.976   8.712   2.225 -0.1471  0.5758  0.6176
  809MOL0     H11577   6.805   8.961   2.242 -1.8636 -3.0816  1.1321
  809MOL0     H11578   6.972   8.942   2.288  0.4159  2.0916 -1.5817
  809MOL0     H11579   6.999   9.044   2.085  1.4918 -1.0157  1.2289
  809MOL0     H11580   7.042   8.873   2.066 -1.8144 -1.6862  3.2618
  809MOL0     H11581   6.817   8.821   1.977  0.5360 -0.9148  4.8010
  809MOL0     H11582   6.757   8.986   1.978 -0.6315 -0.5854 -0.4982
  809MOL0     H11583   6.810   8.916   1.754  0.4474 -0.5757  0.7298
  809MOL0     H11584   6.979   8.891   1.795  0.4743  0.4224 -0.6676
  809MOL0     H11585   6.835   9.166   1.811 -1.1756 -1.4489 -2.2787
  809MOL0     H11586   7.005   9.123   1.861  0.9214 -0.8084 -0.7179
  809MOL0     H11587   7.033   9.051   1.613  1.1821  0.6519  0.4703
  809MOL0     H11588   7.013   9.218   1.658  0.1275 -0.7282  3.2036
  809MOL0     H11589   6.802   9.013   1.539  2.1984 -0.6317 -2.6202
  809MOL0     H11590   6.761   9.182   1.587 -0.5922 -1.8986  1.8953
  809MOL0     H11591   7.041   9.012   1.351  2.7603  1.8799  1.1649
  809MOL0     H11592   7.155   9.073   1.132  1.8536  2.2183  2.3498
  809MOL0     H11593   7.165   9.244   1.124  0.8456 -0.6045 -0.8248
  809MOL0     H11594   7.053   9.061   0.941  1.2917 -0.2841  2.3549
  809MOL0     H11595   6.913   9.137   0.999 -0.5918  0.4511 -0.0801
  809MOL0     H11596   7.140   9.295   0.888  0.8727  0.1703  0.0389
  809MOL0     H11597   7.027   9.225   0.773 -1.9226 -0.8915  0.7388
  809MOL0     H11598   6.868   9.382   0.828  0.3759 -1.0655 -0.8533
  809MOL0     H11599   6.913   9.394   0.999  2.9670  4.9463  2.1401
  809MOL0     H11600   7.141   9.373   0.685  1.4707 -0.4737 -0.9201
  809MOL0     H11601   7.260   9.330   0.514  0.4591 -1.4323  0.0892
  809MOL0     H11602   7.299   9.448   0.401 -0.6253  0.7083  2.0705
  809MOL0     H11603   7.139   9.339   0.386 -0.9633 -2.2539  3.3803
  809MOL0     H11604   7.302   9.811   0.115 -0.0084  0.7630  2.7576
  809MOL0     H11605   7.271   9.970  -0.081 -2.8755  0.6324 -2.2792
  809MOL0     H11606   7.094  10.242  -0.276  2.3256 -0.9603  0.5132
  809MOL0     H11607   7.113  10.070  -0.250  0.9648  0.1497  1.7597
  809MOL0     H11608   6.901  10.095  -0.332 -1.4303  0.7363 -0.1053
  809MOL0     H11609   6.881  10.066  -0.153 -1.8875  0.5641 -1.7266
  809MOL0     H11610   6.850  10.290  -0.347  2.0610 -1.2239 -0.3241
  809MOL0     H11611   6.872  10.336  -0.184 -2.0522  0.8288 -0.3770
  809MOL0     H11612   6.677  10.198  -0.107 -0.3422 -0.3147 -0.4514
  809MOL0     H11613   6.657  10.114  -0.264 -1.0206  0.7339 -0.8063
  809MOL0     H11614   6.593  10.308  -0.380  2.3055  0.2440  0.6779
  809MOL0     H11615   6.472  10.276  -0.236 -0.4073  2.9438  3.2234
  809MOL0     H11616   6.677  10.486  -0.251 -1.2624  3.9112 -0.4454
  809MOL0     H11617   6.568  10.461  -0.115 -1.3133  0.4606 -0.7474
  809MOL0     H11618   6.505  10.537  -0.401  1.1209  1.5091 -0.3502
  809MOL0     H11619   6.483  10.643  -0.262  0.9906  0.5609 -0.8998
  809MOL0     H11620   6.300  10.473  -0.167 -1.2044  1.0329 -1.2656
  809MOL0     H11621   6.322  10.414  -0.343  1.3471  1.5061 -1.9966
  809MOL0     H11622   6.958  10.161   0.133 -0.1029 -0.3802  2.2900
  809MOL0     H11623   7.006  10.003   0.332  0.1585 -1.9552  0.3821
  809MOL0     H11624   7.024   9.818   0.534  4.7496  0.4137 -2.7444
  809MOL0     H11625   6.956   9.741   0.770 -1.4245 -0.1923 -0.5640
  809MOL0     H11626   6.672   8.587   2.195 -0.2156  0.8524 -0.0492
  809MOL0     H11627   6.570   8.402   2.264 -0.0288 -0.8135  1.1585
  809MOL0     H11628   6.437   8.070   2.505 -0.2708 -0.9081  0.5292
  809MOL0     H11629   6.253   7.904   2.513  0.9774  1.6043 -2.8785
  809MOL0     H11630   5.945   7.939   2.804  0.8847  4.1248 -1.6178
  809MOL0     H11631   5.857   7.979   2.651 -1.4062 -1.3331  1.7437
  809MOL0     H11632   5.864   7.772   2.558  0.1149  0.7820 -0.2460
  809MOL0     H11633   5.771   7.761   2.695 -0.1481 -0.2287 -2.3043
  809MOL0     H11634   5.890   7.561   2.725  2.5544 -1.6894 -1.8893
  809MOL0     H11635   6.022   7.615   2.621  1.0355  0.1109 -0.9402
  809MOL0     H11636   5.994   7.672   2.929  0.7656  0.7263 -0.5770
  809MOL0     H11637   6.122   7.724   2.824 -0.2758 -0.1313 -1.7635
  809MOL0     H11638   6.208   7.314   2.871  2.4922  0.6316 -4.4606
  809MOL0     H11639   6.023   8.140   2.776 -1.4635 -2.0740  0.5065
  809MOL0     H11640   6.141   8.429   2.724 -2.2300 -3.2708 -2.4192
  809MOL0     H11641   6.145   8.364   2.887  0.1720 -0.0439 -0.4369
  809MOL0     H11642   6.293   8.399   2.821 -0.1100  3.0851 -1.4384
  810MOL0     O11643   9.007   4.810   2.970 -0.3001  0.0222 -0.0117
  810MOL0     C11644   8.945   4.904   3.023 -0.3022  0.7078  0.2555
  810MOL0     O11645   8.864   4.880   3.133  0.1883 -0.0686 -0.0621
  810MOL0     C11646   8.869   4.761   3.195  0.3944 -0.1952  0.5023
  810MOL0     C11647   8.751   4.688   3.218  0.7117  0.0229 -0.5269
  810MOL0     C11648   8.755   4.574   3.307  1.3183  0.0119 -0.6189
  810MOL0     C11649   8.865   4.535   3.373  0.9023 -0.5963  0.0024
  810MOL0     O11650   8.857   4.445   3.471 -0.5789  0.3860  0.0454
  810MOL0     C11651   8.838   4.311   3.422  0.0808 -0.3470  0.9257
  810MOL0     C11652   8.803   4.212   3.538  0.7446  0.9938  0.4670
  810MOL0     C11653   8.834   4.060   3.496 -1.0517 -0.4140 -0.3429
  810MOL0     C11654   8.738   4.001   3.400  0.4659 -0.2877 -0.6442
  810MOL0     C11655   8.784   3.862   3.369 -0.0164 -0.5658 -0.0986
  810MOL0     C11656   8.737   3.767   3.468 -0.0063 -0.3252  0.2144
  810MOL0     C11657   8.783   3.630   3.422  0.1627  0.3076 -0.5297
  810MOL0     C11658   8.698   3.519   3.495  0.7166  0.0179 -0.5976
  810MOL0     N11659   8.719   3.388   3.435  0.8133  0.0078 -0.1497
  810MOL0     C11660   8.794   3.288   3.480  0.4278 -0.0635  0.0821
  810MOL0     C11661   8.756   3.180   3.410 -0.9416  0.8372 -0.1725
  810MOL0     C11662   8.832   3.054   3.424 -0.5362 -0.1075  0.4083
  810MOL0     C11663   8.804   2.958   3.311  0.1493 -0.3530 -0.3809
  810MOL0     C11664   8.901   2.838   3.301 -0.3895 -0.0641 -0.1596
  810MOL0     C11665   8.955   2.801   3.166 -0.3687  0.0470  0.7541
  810MOL0     O11666   9.024   2.913   3.104 -0.1836 -0.0658  0.0225
  810MOL0     C11667   9.118   2.978   3.178 -0.5087  0.9562 -0.5415
  810MOL0     C11668   9.232   2.919   3.232 -0.3044 -0.3357 -0.0763
  810MOL0     C11669   9.325   2.989   3.309  0.5026 -0.1942 -0.0795
  810MOL0     C11670   9.443   2.910   3.355 -0.4961 -0.9787  0.8451
  810MOL0     C11671   9.301   3.132   3.328  0.5675  0.5633 -0.5447
  810MOL0     C11672   9.393   3.221   3.399 -0.6366 -0.0858 -0.1073
  810MOL0     O11673   9.479   3.166   3.495  0.4578  0.0302  0.4731
  810MOL0     C11674   9.531   3.265   3.575  0.1250  0.3090  0.5719
  810MOL0     C11675   9.647   3.333   3.537  0.8766  0.9125 -0.6010
  810MOL0     C11676   9.685   3.440   3.618 -0.2393  1.0216  0.0271
  810MOL0     C11677   9.615   3.482   3.731  0.5784 -0.7585 -0.6401
  810MOL0     O11678   9.647   3.583   3.816 -0.7142  0.2767 -0.5859
  810MOL0     C11679   9.623   3.718   3.782  0.3366  0.0278  0.5602
  810MOL0     C11680   9.651   3.806   3.909 -0.4389  0.0921  0.1456
  810MOL0     C11681   9.664   3.960   3.877  0.1662 -0.3856 -0.4274
  810MOL0     C11682   9.804   4.008   3.837  1.0599 -0.1052  0.0006
  810MOL0     C11683   9.801   4.152   3.802 -0.2177 -0.2471 -0.2305
  810MOL0     C11684   9.933   4.220   3.766 -0.2388  0.7971  0.7837
  810MOL0     C11685   9.905   4.372   3.770 -0.1727  0.5997  0.8966
  810MOL0     C11686  10.029   4.460   3.747  0.5781  0.8763  0.6817
  810MOL0    Cl11687  10.162   4.432   3.854 -0.1535 -0.1261 -0.0014
  810MOL0     C11688   9.500   3.412   3.762 -0.0688  0.2333  0.0959
  810MOL0     C11689   9.467   3.303   3.689  0.0615  0.3712  0.1927
  810MOL0     O11690   9.401   3.337   3.352 -0.7382 -0.0032  1.4461
  810MOL0     C11691   9.194   3.189   3.273 -0.4342 -0.0164  0.4644
  810MOL0     C11692   9.095   3.109   3.215  0.3699  0.0065  0.5985
  810MOL0     N11693   8.650   3.211   3.334 -0.3284  0.6743 -0.1851
  810MOL0     N11694   8.639   3.337   3.338 -0.0461 -1.2231  0.1364
  810MOL0     C11695   8.986   4.596   3.334 -0.7781  0.3989  0.4924
  810MOL0     C11696   8.996   4.703   3.242  1.1102 -0.3162  0.2910
  810MOL0     C11697   8.960   5.053   2.977 -0.3108  0.1903  0.1392
  810MOL0     C11698   8.872   5.152   3.031  0.4341  0.2392  0.8477
  810MOL0     C11699   8.891   5.287   2.972 -0.6525  0.0665 -0.4202
  810MOL0     C11700   8.990   5.326   2.884 -0.6306 -0.3291  0.5001
  810MOL0     O11701   8.985   5.455   2.849 -0.1026  0.2531  0.7382
  810MOL0     C11702   8.987   5.466   2.706 -0.0752 -0.1370  0.0399
  810MOL0     C11703   9.078   5.585   2.685 -0.2591  0.1324 -0.0955
  810MOL0     C11704   9.016   5.727   2.717 -0.0660  0.7270 -0.3358
  810MOL0     C11705   9.127   5.836   2.708 -0.1410  0.9736  0.0010
  810MOL0     C11706   9.075   5.976   2.722  0.2602 -0.2092  0.9227
  810MOL0     C11707   9.024   6.088   2.723 -0.2059 -0.0169  0.4234
  810MOL0     C11708   9.075   5.225   2.854 -0.6996  1.4088 -0.1387
  810MOL0     C11709   9.063   5.089   2.883  0.4405  0.4428 -0.6959
  810MOL0     C11710   9.169   4.991   2.833 -1.1226  0.0794 -0.9396
  810MOL0     H11711   8.660   4.716   3.167 -0.1002 -0.8702  0.4007
  810MOL0     H11712   8.665   4.513   3.309  2.7245 -2.1922 -0.9188
  810MOL0     H11713   8.942   4.285   3.399  0.0363 -2.9800  3.0937
  810MOL0     H11714   8.764   4.317   3.342  1.9894  0.5029 -0.8598
  810MOL0     H11715   8.866   4.226   3.627  1.3242  1.0091  0.0590
  810MOL0     H11716   8.697   4.221   3.563  1.3535  0.3899  3.8257
  810MOL0     H11717   8.931   4.060   3.446 -0.6809  0.3288  0.3483
  810MOL0     H11718   8.846   3.998   3.586 -0.5818  1.6240  1.0742
  810MOL0     H11719   8.636   3.998   3.440  0.5349  2.1419 -0.1498
  810MOL0     H11720   8.736   4.058   3.306 -2.3522  0.1288 -0.4295
  810MOL0     H11721   8.891   3.853   3.353  0.3454  1.1745  1.0311
  810MOL0     H11722   8.727   3.841   3.278 -0.4366  2.1285 -0.5237
  810MOL0     H11723   8.776   3.801   3.564  1.1522  1.4317 -0.8221
  810MOL0     H11724   8.628   3.771   3.469 -0.0388  0.3286 -1.7339
  810MOL0     H11725   8.889   3.616   3.444 -0.2281 -0.5555  0.9947
  810MOL0     H11726   8.758   3.625   3.316  5.2865 -0.7257 -1.9760
  810MOL0     H11727   8.719   3.517   3.602 -0.4916  2.2862 -0.2412
  810MOL0     H11728   8.595   3.551   3.479 -0.1995 -2.3222  0.3095
  810MOL0     H11729   8.867   3.303   3.558  2.7263  1.5368 -2.1991
  810MOL0     H11730   8.811   3.013   3.523 -4.2348  0.3719 -0.0271
  810MOL0     H11731   8.938   3.081   3.418 -0.5608 -0.1711 -0.4320
  810MOL0     H11732   8.701   2.922   3.314 -0.1849  0.1455 -3.3085
  810MOL0     H11733   8.818   3.019   3.221  0.3110 -0.5522 -0.4925
  810MOL0     H11734   8.991   2.851   3.363  0.4098 -1.0582 -1.0663
  810MOL0     H11735   8.853   2.749   3.341 -1.6264  0.3886 -0.5787
  810MOL0     H11736   9.027   2.719   3.178 -0.1297  0.2197  0.5203
  810MOL0     H11737   8.878   2.754   3.105 -1.0302 -2.7026  3.4159
  810MOL0     H11738   9.250   2.813   3.214  3.0590 -0.8243  4.5350
  810MOL0     H11739   9.537   2.944   3.310 -1.4822  0.0698 -0.5027
  810MOL0     H11740   9.435   2.808   3.315  0.4038 -0.7257 -0.0390
  810MOL0     H11741   9.455   2.911   3.463  0.1556 -0.3867  0.7722
  810MOL0     H11742   9.704   3.296   3.452  1.7383  1.9472 -0.4900
  810MOL0     H11743   9.772   3.492   3.580 -0.9359  1.4425 -1.0580
  810MOL0     H11744   9.697   3.754   3.710  2.8508 -0.0890  2.9566
  810MOL0     H11745   9.522   3.721   3.740  0.1894 -3.7259  0.2969
  810MOL0     H11746   9.584   3.788   3.994 -3.9318 -1.4037 -2.6709
  810MOL0     H11747   9.739   3.756   3.951 -0.4379  0.8755  1.1133
  810MOL0     H11748   9.634   4.008   3.970 -1.1920 -4.0044  1.2103
  810MOL0     H11749   9.583   3.981   3.806 -2.4639 -1.4702  2.0494
  810MOL0     H11750   9.847   3.946   3.758  0.8166 -0.8768  0.4628
  810MOL0     H11751   9.851   3.998   3.935 -0.3445  0.8850  0.8090
  810MOL0     H11752   9.716   4.162   3.735 -0.2287  1.0750 -0.0412
  810MOL0     H11753   9.767   4.201   3.894 -2.6482 -0.4900 -0.9265
  810MOL0     H11754   9.958   4.180   3.667 -0.2736 -1.1757  1.5367
  810MOL0     H11755  10.013   4.191   3.835 -1.7803 -1.2516  1.8305
  810MOL0     H11756   9.867   4.398   3.869 -1.1931  0.9093  0.4366
  810MOL0     H11757   9.833   4.385   3.688  1.6576 -2.7700 -1.5004
  810MOL0     H11758  10.005   4.565   3.763 -0.5096  0.7951 -0.3140
  810MOL0     H11759  10.065   4.445   3.645 -0.9931  0.9896  0.0846
  810MOL0     H11760   9.440   3.449   3.845  0.0929  1.0903 -0.1521
  810MOL0     H11761   9.382   3.246   3.724 -0.8888  2.6754  1.9431
  810MOL0     H11762   9.184   3.297   3.282 -0.6385  0.0892 -0.7515
  810MOL0     H11763   9.013   3.165   3.171  1.9530  1.3881 -0.7861
  810MOL0     H11764   9.077   4.555   3.376 -1.6899  0.4116  2.6229
  810MOL0     H11765   9.094   4.738   3.209  2.1222  2.2179  4.9874
  810MOL0     H11766   8.803   5.133   3.112  0.1984 -1.4055  0.3018
  810MOL0     H11767   8.823   5.368   2.994  1.6281  2.9546 -2.9819
  810MOL0     H11768   9.034   5.383   2.652 -1.1284 -0.0400 -1.0646
  810MOL0     H11769   8.889   5.484   2.662  0.8248  1.8620 -1.3051
  810MOL0     H11770   9.095   5.587   2.577 -0.8739  3.8335 -0.2517
  810MOL0     H11771   9.173   5.569   2.737  0.2390  1.0845 -0.6872
  810MOL0     H11772   8.940   5.755   2.644  1.0186  1.0444 -1.3832
  810MOL0     H11773   8.974   5.724   2.818  0.4388  2.2770 -0.0563
  810MOL0     H11774   9.169   5.821   2.608 -0.7998  3.3266 -0.6917
  810MOL0     H11775   9.203   5.815   2.783  1.5520 -0.4251 -1.9878
  810MOL0     H11776   8.981   6.186   2.720  0.4732  0.2632 -1.5609
  810MOL0     H11777   9.171   5.254   2.813  1.0663  1.5757  3.6733
  810MOL0     H11778   9.250   5.034   2.773 -1.5146 -1.9161 -3.0124
  810MOL0     H11779   9.213   4.933   2.914  0.4043  0.8964 -1.1502
  810MOL0     H11780   9.125   4.913   2.771 -0.3298 -2.5430  1.5883
  811MOL0     O11781   4.441   1.468   5.170 -0.2831  0.1330  0.5810
  811MOL0     C11782   4.362   1.498   5.081 -0.1622 -0.4353  0.2878
  811MOL0     O11783   4.348   1.624   5.017  0.2401  0.2448  0.3805
  811MOL0     C11784   4.446   1.708   5.056 -0.8355  0.0099 -0.4666
  811MOL0     C11785   4.456   1.778   5.176 -0.1036 -0.2717 -0.1734
  811MOL0     C11786   4.559   1.860   5.202 -0.4872 -0.4909 -0.2967
  811MOL0     C11787   4.661   1.885   5.109 -0.0042  0.0333  0.0414
  811MOL0     O11788   4.773   1.953   5.143 -0.1714  0.5584  0.2455
  811MOL0     C11789   4.777   2.042   5.259  0.0342  0.4229  0.2177
  811MOL0     C11790   4.919   2.055   5.313 -1.0558  0.6914 -0.0121
  811MOL0     C11791   5.008   2.150   5.252  0.4808  0.3678 -0.1671
  811MOL0     C11792   5.040   2.121   5.104  0.4776  0.1406 -0.7538
  811MOL0     C11793   5.148   2.223   5.056 -0.0566  0.2083  0.6094
  811MOL0     C11794   5.201   2.154   4.929 -0.2998  0.2552  1.0377
  811MOL0     C11795   5.122   2.201   4.798 -1.0646  0.4402  0.9654
  811MOL0     C11796   5.178   2.141   4.671  0.5177  0.0868  1.3918
  811MOL0     N11797   5.322   2.169   4.656  0.4827  0.1683 -0.2743
  811MOL0     C11798   5.378   2.269   4.584 -0.4877 -0.6360 -0.7092
  811MOL0     C11799   5.511   2.247   4.602 -0.1904  0.0731 -0.6564
  811MOL0     C11800   5.638   2.334   4.567  0.1509  0.3026  0.1198
  811MOL0     C11801   5.761   2.246   4.523 -0.2567 -0.2493 -0.4891
  811MOL0     C11802   5.781   2.258   4.372 -0.0274  0.8529  0.6460
  811MOL0     C11803   5.924   2.222   4.341  0.1554 -0.2038  0.8509
  811MOL0     O11804   5.970   2.105   4.404  0.5689 -1.0684  0.1815
  811MOL0     C11805   6.107   2.090   4.388 -0.0716  0.5403 -0.0065
  811MOL0     C11806   6.188   2.136   4.487  0.6309 -0.2643 -0.1853
  811MOL0     C11807   6.329   2.125   4.482  0.1549  0.3886  1.0056
  811MOL0     C11808   6.411   2.178   4.600  0.2913 -0.0029  0.1965
  811MOL0     C11809   6.384   2.040   4.378 -0.4805  0.4872  0.2195
  811MOL0     C11810   6.523   1.996   4.381  0.6326 -0.1399  1.0877
  811MOL0     O11811   6.623   2.056   4.455  0.3900 -0.0353 -0.1841
  811MOL0     C11812   6.748   2.006   4.457 -0.4091 -0.8053  1.0165
  811MOL0     C11813   6.841   2.027   4.357  0.3247  0.5326 -0.1086
  811MOL0     C11814   6.968   1.972   4.344 -1.0873  0.8416 -0.4612
  811MOL0     C11815   7.023   1.917   4.457  0.3011 -0.4979 -0.0665
  811MOL0     O11816   7.150   1.864   4.460  0.3842  0.4809  0.0578
  811MOL0     C11817   7.266   1.947   4.406  0.5473 -1.1254 -0.0049
  811MOL0     C11818   7.407   1.915   4.483  0.3572  0.4150 -0.2593
  811MOL0     C11819   7.389   1.893   4.638 -0.4557  1.2426  0.0817
  811MOL0     C11820   7.348   2.023   4.702 -0.6492 -1.0093 -0.7132
  811MOL0     C11821   7.319   1.989   4.854  0.6952  0.2311 -0.7688
  811MOL0     C11822   7.440   1.982   4.951  0.1518 -1.3958 -0.5049
  811MOL0     C11823   7.436   1.864   5.050  0.3725  1.2390  0.6302
  811MOL0     C11824   7.351   1.881   5.171 -0.2243  0.5172 -0.0933
  811MOL0    Cl11825   7.428   2.017   5.262 -0.0490  0.0021 -0.1910
  811MOL0     C11826   6.939   1.893   4.568 -0.3570 -0.0890  0.2805
  811MOL0     C11827   6.808   1.940   4.569  0.1399 -0.0505  0.4558
  811MOL0     O11828   6.542   1.893   4.318  0.2045  0.8449  0.3434
  811MOL0     C11829   6.297   1.999   4.268 -0.3451 -0.2475 -0.7870
  811MOL0     C11830   6.163   2.021   4.280  0.6506  0.0106  0.1101
  811MOL0     N11831   5.529   2.121   4.668  1.4155  0.8860  0.2428
  811MOL0     N11832   5.409   2.079   4.700  0.3146  0.0146 -1.4306
  811MOL0     C11833   4.649   1.820   4.986  0.9352 -0.5394  0.1367
  811MOL0     C11834   4.549   1.725   4.956  0.1885  0.0476  0.1996
  811MOL0     C11835   4.282   1.386   5.027 -0.4055 -0.8803 -0.7318
  811MOL0     C11836   4.346   1.262   5.031 -0.5517 -0.4097  0.4831
  811MOL0     C11837   4.293   1.144   4.980 -0.4831 -0.2636  0.0576
  811MOL0     C11838   4.177   1.163   4.910  0.4391  0.6939  0.3911
  811MOL0     O11839   4.105   1.054   4.854 -0.4469 -0.0109 -0.1258
  811MOL0     C11840   4.056   0.962   4.951  0.5182  0.3510 -0.0418
  811MOL0     C11841   4.124   0.820   4.948 -0.1233  0.5532  0.1866
  811MOL0     C11842   4.050   0.710   5.032 -0.5225 -0.4244  0.8089
  811MOL0     C11843   4.038   0.729   5.187 -0.5412 -0.9740  0.1313
  811MOL0     C11844   4.171   0.749   5.238 -1.0198 -0.4520 -0.2303
  811MOL0     C11845   4.280   0.766   5.286 -0.3211 -0.3722  0.2901
  811MOL0     C11846   4.116   1.282   4.899  0.2611 -0.6320  0.3551
  811MOL0     C11847   4.169   1.405   4.951 -0.2601  0.1461 -0.1162
  811MOL0     C11848   4.095   1.530   4.929  0.1073 -0.9298 -0.2263
  811MOL0     H11849   4.378   1.782   5.252  2.5009 -1.1418  2.7283
  811MOL0     H11850   4.542   1.908   5.298 -1.2146  0.6156 -0.9729
  811MOL0     H11851   4.718   1.992   5.337 -2.4002 -1.1646 -2.4508
  811MOL0     H11852   4.725   2.137   5.247 -2.6627 -0.5363  3.0436
  811MOL0     H11853   4.925   2.071   5.421  0.7945  0.5171 -0.0624
  811MOL0     H11854   4.973   1.961   5.297  0.4462  0.9477  2.9990
  811MOL0     H11855   4.954   2.244   5.267  0.3712 -0.0576  2.8546
  811MOL0     H11856   5.107   2.155   5.300  0.2316 -1.2978  0.5898
  811MOL0     H11857   5.070   2.016   5.095  0.6561  0.1810 -0.6307
  811MOL0     H11858   4.950   2.138   5.043  2.0387  3.8536 -2.3842
  811MOL0     H11859   5.231   2.232   5.126  0.5258 -2.2962  0.3496
  811MOL0     H11860   5.111   2.324   5.040  2.7539  0.8517 -2.9168
  811MOL0     H11861   5.302   2.195   4.922  2.2869 -4.9696  2.3371
  811MOL0     H11862   5.217   2.046   4.938 -0.4080  0.2919  1.7434
  811MOL0     H11863   5.115   2.310   4.795 -1.9080  0.3832 -0.0080
  811MOL0     H11864   5.019   2.169   4.813 -2.0399  3.0025  0.3938
  811MOL0     H11865   5.168   2.032   4.673 -0.4574 -0.0096 -2.3804
  811MOL0     H11866   5.124   2.169   4.581 -0.9568 -4.4512  0.6294
  811MOL0     H11867   5.340   2.359   4.539  0.6959 -0.7832 -2.0753
  811MOL0     H11868   5.665   2.388   4.658 -0.5193 -3.0087  2.5181
  811MOL0     H11869   5.609   2.410   4.494  2.9075 -1.6395 -3.2902
  811MOL0     H11870   5.850   2.272   4.581 -0.4008  0.2996 -0.5094
  811MOL0     H11871   5.736   2.142   4.549  0.4583 -0.9501 -2.4049
  811MOL0     H11872   5.721   2.191   4.309  1.1052 -0.0925  0.5551
  811MOL0     H11873   5.763   2.357   4.328  3.2157 -0.3724 -4.3265
  811MOL0     H11874   5.933   2.200   4.234 -1.4200 -2.2699  1.0917
  811MOL0     H11875   5.988   2.308   4.364 -1.4888  2.3156 -2.9336
  811MOL0     H11876   6.145   2.195   4.568 -1.3630 -0.9120 -0.7056
  811MOL0     H11877   6.495   2.241   4.570  0.5317 -0.8762 -1.0513
  811MOL0     H11878   6.457   2.085   4.637 -1.7769 -1.8828 -1.6569
  811MOL0     H11879   6.346   2.230   4.671  0.4267 -2.8213  2.5924
  811MOL0     H11880   6.795   2.082   4.275 -0.3567  3.2966  1.9732
  811MOL0     H11881   7.033   2.003   4.263 -2.9891  2.9858 -1.2700
  811MOL0     H11882   7.288   1.901   4.309  1.3514 -0.7825  0.0094
  811MOL0     H11883   7.241   2.052   4.420  3.3640 -0.3576 -0.1949
  811MOL0     H11884   7.451   1.824   4.440  2.5259  1.5436 -0.5677
  811MOL0     H11885   7.466   2.006   4.468  0.1794  0.5952  0.1156
  811MOL0     H11886   7.473   1.841   4.686  1.2076  3.8940  0.2603
  811MOL0     H11887   7.309   1.820   4.652  0.1003  1.1990  4.6474
  811MOL0     H11888   7.261   2.064   4.649  0.1005  0.4175 -0.8732
  811MOL0     H11889   7.424   2.100   4.693 -2.8481  1.5866  1.0389
  811MOL0     H11890   7.251   2.059   4.904  2.2629  1.4903 -0.3161
  811MOL0     H11891   7.270   1.891   4.858  1.9580 -0.3996 -0.2970
  811MOL0     H11892   7.449   2.076   5.006 -1.1318 -0.3239 -2.0116
  811MOL0     H11893   7.534   1.962   4.900  0.5077  0.5892 -0.7092
  811MOL0     H11894   7.535   1.836   5.086  0.5906 -1.1398 -1.5274
  811MOL0     H11895   7.390   1.779   4.999 -1.0876  3.9136 -2.9325
  811MOL0     H11896   7.349   1.793   5.236  4.2716  0.2321 -0.0042
  811MOL0     H11897   7.248   1.895   5.137 -0.4015  3.0855  1.2241
  811MOL0     H11898   6.966   1.833   4.654 -2.1471  0.0929  1.0314
  811MOL0     H11899   6.744   1.922   4.655  1.1906 -1.1764  1.0295
  811MOL0     H11900   6.331   1.928   4.192  0.9511  1.1381 -1.5534
  811MOL0     H11901   6.092   1.984   4.206  0.4024 -0.7649  0.7327
  811MOL0     H11902   4.734   1.824   4.917  0.5257 -0.8736 -0.3938
  811MOL0     H11903   4.549   1.679   4.858 -1.1094 -0.1842  0.2827
  811MOL0     H11904   4.431   1.255   5.099 -1.1912  2.2659  1.6890
  811MOL0     H11905   4.341   1.050   5.000 -1.4424 -0.5328  1.2281
  811MOL0     H11906   4.065   1.006   5.050  1.3659  1.8801 -0.7617
  811MOL0     H11907   3.949   0.953   4.931  0.7388  1.6341 -2.1602
  811MOL0     H11908   4.216   0.842   5.003 -1.8738  3.3648  2.3211
  811MOL0     H11909   4.144   0.787   4.846 -1.2895  1.1395 -0.2624
  811MOL0     H11910   3.948   0.704   4.992 -0.0734 -0.3854 -0.3740
  811MOL0     H11911   4.096   0.614   5.009  0.8441  0.4530 -0.2666
  811MOL0     H11912   3.981   0.651   5.237 -2.8655  0.1478 -0.6272
  811MOL0     H11913   3.983   0.820   5.213  1.8004  0.8947 -1.0243
  811MOL0     H11914   4.371   0.797   5.334 -0.5658 -2.5367  2.3069
  811MOL0     H11915   4.022   1.274   4.846  0.3122  1.0890 -0.0559
  811MOL0     H11916   3.994   1.515   4.891  1.1400 -3.4012 -2.3265
  811MOL0     H11917   4.094   1.607   5.007  1.0475  3.4010 -4.0440
  811MOL0     H11918   4.144   1.583   4.847  1.7852 -0.6517  0.8824
  812MOL0     O11919   5.821   5.432   8.670  0.4402 -0.5385  0.2560
  812MOL0     C11920   5.715   5.486   8.642  0.4605  1.0601 -0.3559
  812MOL0     O11921   5.696   5.571   8.528 -0.0491  0.3401 -0.9731
  812MOL0     C11922   5.798   5.619   8.459  0.4082 -0.5435 -0.5999
  812MOL0     C11923   5.811   5.764   8.435 -0.3874 -0.0123  0.9194
  812MOL0     C11924   5.919   5.805   8.351  0.1345 -0.2926 -0.5743
  812MOL0     C11925   6.013   5.711   8.301 -0.0053 -0.3455 -0.0141
  812MOL0     O11926   6.104   5.748   8.204  0.5536 -0.2611 -0.0336
  812MOL0     C11927   6.197   5.653   8.148 -0.8073  0.1309 -0.0394
  812MOL0     C11928   6.323   5.718   8.093 -1.1252 -0.1095 -0.5265
  812MOL0     C11929   6.436   5.621   8.064 -0.1147 -0.4219 -1.4714
  812MOL0     C11930   6.541   5.693   7.981  0.7068  0.3556  0.3797
  812MOL0     C11931   6.658   5.604   7.967  0.0837  0.4305  0.5267
  812MOL0     C11932   6.632   5.473   7.882  0.5091 -1.4677 -0.3807
  812MOL0     C11933   6.762   5.399   7.860  0.2032  0.0334  0.2629
  812MOL0     C11934   6.862   5.471   7.771  0.0621 -0.6408  0.2183
  812MOL0     N11935   6.810   5.469   7.635 -0.2891  0.6936  0.5083
  812MOL0     C11936   6.733   5.566   7.570  0.5602  0.5911  0.5591
  812MOL0     C11937   6.701   5.513   7.444 -0.0209 -0.0768 -1.0942
  812MOL0     C11938   6.630   5.567   7.326  0.4980 -0.3487 -0.7340
  812MOL0     C11939   6.640   5.721   7.316 -0.4899 -0.0666 -0.0351
  812MOL0     C11940   6.769   5.767   7.253  0.2990 -0.1840  0.3768
  812MOL0     C11941   6.757   5.907   7.203 -1.5262  0.8028  0.4394
  812MOL0     O11942   6.880   5.937   7.124  0.6825 -0.9589 -0.1906
  812MOL0     C11943   6.910   6.074   7.110 -0.1271  0.7549  0.3470
  812MOL0     C11944   6.836   6.184   7.164  0.1943  0.3868  0.3866
  812MOL0     C11945   6.890   6.316   7.161 -0.0733  0.4784 -0.5208
  812MOL0     C11946   6.808   6.418   7.241 -0.4127  0.1962  0.4841
  812MOL0     C11947   7.020   6.351   7.104 -0.2862  0.3820 -0.1544
  812MOL0     C11948   7.097   6.482   7.099  0.1061 -0.1769 -0.2847
  812MOL0     O11949   7.234   6.468   7.061  0.1967 -0.3410 -0.5502
  812MOL0     C11950   7.322   6.578   7.086 -0.1394 -0.6243  0.0777
  812MOL0     C11951   7.458   6.555   7.138  0.8086  0.1175  0.2925
  812MOL0     C11952   7.545   6.662   7.141 -0.0129  0.3099  0.0913
  812MOL0     C11953   7.508   6.792   7.108 -0.2199 -0.4061  0.4138
  812MOL0     O11954   7.603   6.886   7.132 -0.2841  0.1786  0.6746
  812MOL0     C11955   7.545   7.016   7.168 -0.2193 -0.3654 -0.8639
  812MOL0     C11956   7.643   7.125   7.224 -0.0377 -0.5618  0.2427
  812MOL0     C11957   7.769   7.126   7.151 -0.1751 -0.0759  0.6233
  812MOL0     C11958   7.873   7.190   7.239  0.5711 -0.3020  0.3989
  812MOL0     C11959   7.854   7.347   7.239  0.5055 -0.1619  0.1374
  812MOL0     C11960   7.950   7.422   7.333 -0.2503 -0.0366 -0.2912
  812MOL0     C11961   8.095   7.423   7.296  0.1175  0.3042  0.3249
  812MOL0     C11962   8.179   7.452   7.431 -1.5577 -0.3019  0.1870
  812MOL0    Cl11963   8.176   7.281   7.528  0.1181 -0.2450 -0.5797
  812MOL0     C11964   7.381   6.820   7.049 -0.6249  0.1738 -1.4817
  812MOL0     C11965   7.293   6.704   7.035 -0.2752 -0.4758  0.0793
  812MOL0     O11966   7.047   6.579   7.156  0.0252  0.4126  0.3067
  812MOL0     C11967   7.068   6.238   7.032 -0.0285  0.5405 -0.4083
  812MOL0     C11968   7.027   6.106   7.034  0.3091  0.5387 -0.2354
  812MOL0     N11969   6.766   5.394   7.438  0.1444  0.0861  0.2580
  812MOL0     N11970   6.834   5.364   7.547  0.3697  0.1235 -0.4360
  812MOL0     C11971   6.000   5.576   8.327  0.2648  0.7926 -0.7485
  812MOL0     C11972   5.892   5.530   8.404 -0.3102 -0.4870 -0.0989
  812MOL0     C11973   5.593   5.450   8.716 -0.1611  0.0595  0.0888
  812MOL0     C11974   5.573   5.321   8.751  0.8134  0.1200 -0.3600
  812MOL0     C11975   5.458   5.284   8.823  0.7140  0.7512 -0.0546
  812MOL0     C11976   5.369   5.388   8.862 -0.6702  0.0879  0.1931
  812MOL0     O11977   5.260   5.356   8.936  0.7996 -0.3183  0.2985
  812MOL0     C11978   5.237   5.424   9.058  0.3446 -0.5630 -0.7476
  812MOL0     C11979   5.112   5.359   9.117 -0.6179  0.8142 -0.2834
  812MOL0     C11980   5.127   5.224   9.178  0.0018  0.9532  0.9716
  812MOL0     C11981   5.161   5.108   9.082 -0.9362 -0.0350  0.4210
  812MOL0     C11982   5.115   4.974   9.120 -0.1910 -0.1325 -0.4644
  812MOL0     C11983   5.069   4.870   9.160  0.5767 -0.5461  0.8965
  812MOL0     C11984   5.400   5.526   8.833  0.9424  0.3744  0.5767
  812MOL0     C11985   5.511   5.557   8.767 -0.6415  0.4936  1.0974
  812MOL0     C11986   5.521   5.707   8.724  0.3230 -0.5239 -0.7559
  812MOL0     H11987   5.749   5.837   8.484 -0.2906 -0.8143  2.2758
  812MOL0     H11988   5.932   5.912   8.336  1.0714 -0.2967  0.0835
  812MOL0     H11989   6.152   5.584   8.076 -2.9048  1.5817 -0.1716
  812MOL0     H11990   6.230   5.591   8.233  0.4331  1.2985  0.3782
  812MOL0     H11991   6.296   5.767   7.999  0.8075 -0.8744 -1.5238
  812MOL0     H11992   6.361   5.797   8.158  0.5282 -1.3968  0.1617
  812MOL0     H11993   6.480   5.589   8.158 -1.1733 -0.2416 -0.8959
  812MOL0     H11994   6.390   5.535   8.015  0.9215 -0.7746 -1.8397
  812MOL0     H11995   6.493   5.718   7.886 -2.2721 -0.5081  1.5425
  812MOL0     H11996   6.563   5.791   8.025 -1.7107  0.5184  1.3646
  812MOL0     H11997   6.695   5.562   8.061 -1.7148 -2.8663 -0.0611
  812MOL0     H11998   6.736   5.658   7.912 -1.4604  1.1585 -1.0392
  812MOL0     H11999   6.564   5.396   7.919  0.8930 -0.7439  2.0022
  812MOL0     H12000   6.578   5.497   7.790 -1.3974 -0.0489  1.0365
  812MOL0     H12001   6.739   5.302   7.815 -0.9890  0.3030  0.2688
  812MOL0     H12002   6.798   5.377   7.961 -1.2835 -0.3054  0.7485
  812MOL0     H12003   6.886   5.565   7.822  1.3584 -0.5439 -0.5032
  812MOL0     H12004   6.950   5.406   7.777  0.2118 -0.3242  1.6659
  812MOL0     H12005   6.716   5.666   7.608  4.8173  0.9096  2.1445
  812MOL0     H12006   6.524   5.540   7.336 -0.0772  2.4585  3.2795
  812MOL0     H12007   6.667   5.506   7.243  2.4836 -1.2564  0.7538
  812MOL0     H12008   6.558   5.749   7.248 -0.2445  0.0373 -0.2894
  812MOL0     H12009   6.621   5.784   7.403 -0.4063  0.5927 -0.4864
  812MOL0     H12010   6.851   5.748   7.323  0.4803  0.0032  0.2152
  812MOL0     H12011   6.786   5.710   7.161 -0.6519  1.9804 -1.2351
  812MOL0     H12012   6.678   5.914   7.128  1.0210  0.9319 -2.4205
  812MOL0     H12013   6.737   5.980   7.282  2.2454  2.0793  0.3921
  812MOL0     H12014   6.740   6.158   7.207  0.8973  1.6770  2.9168
  812MOL0     H12015   6.874   6.463   7.316 -3.5077  1.9722  2.3434
  812MOL0     H12016   6.738   6.368   7.309  1.1561 -0.5234  1.6135
  812MOL0     H12017   6.762   6.497   7.182 -0.7614 -0.6000 -0.3404
  812MOL0     H12018   7.475   6.455   7.177  0.0062  0.6986  2.2669
  812MOL0     H12019   7.647   6.631   7.163  0.0266  0.1514 -0.2973
  812MOL0     H12020   7.490   7.057   7.084  0.7791  0.6013 -1.0657
  812MOL0     H12021   7.469   6.997   7.244  0.6418 -2.8350 -0.4985
  812MOL0     H12022   7.592   7.221   7.216 -0.7992 -1.0006 -0.2188
  812MOL0     H12023   7.651   7.110   7.332 -0.2955 -1.1710  0.1803
  812MOL0     H12024   7.759   7.176   7.054  1.0539  1.9225  1.4736
  812MOL0     H12025   7.804   7.022   7.141 -0.5531 -0.1353 -0.1628
  812MOL0     H12026   7.971   7.161   7.200  1.1992 -0.6268  2.1174
  812MOL0     H12027   7.870   7.150   7.341  0.3442 -0.8601  0.1768
  812MOL0     H12028   7.862   7.386   7.137 -0.2997 -2.8994 -1.0686
  812MOL0     H12029   7.755   7.364   7.282  1.2054  4.3694  0.4588
  812MOL0     H12030   7.928   7.379   7.431  2.2189 -1.3551 -0.2517
  812MOL0     H12031   7.900   7.520   7.330 -3.1492 -1.4222 -1.4027
  812MOL0     H12032   8.110   7.497   7.217  3.1870 -0.1913  0.3299
  812MOL0     H12033   8.116   7.326   7.249 -0.9513  1.6380 -3.1683
  812MOL0     H12034   8.123   7.523   7.493 -0.2424 -0.3121  1.4456
  812MOL0     H12035   8.281   7.491   7.421 -0.5730 -1.9150  2.7909
  812MOL0     H12036   7.352   6.920   7.019 -0.1266  0.6064 -0.5513
  812MOL0     H12037   7.201   6.733   6.987  0.0325  1.1676  0.4198
  812MOL0     H12038   7.169   6.254   6.996  0.8570 -0.5655  1.3856
  812MOL0     H12039   7.082   6.034   6.975 -1.9691 -0.6603 -1.0426
  812MOL0     H12040   6.064   5.499   8.284  0.1743  0.6524 -0.6327
  812MOL0     H12041   5.891   5.425   8.430  0.6936 -0.7151 -0.9314
  812MOL0     H12042   5.643   5.244   8.720 -1.4847 -0.3707 -5.2284
  812MOL0     H12043   5.430   5.187   8.864 -2.4995  2.4368  2.1472
  812MOL0     H12044   5.331   5.417   9.113 -1.1874 -1.5545  1.9154
  812MOL0     H12045   5.225   5.532   9.050 -0.4478 -0.5655  0.2746
  812MOL0     H12046   5.028   5.355   9.047  0.6758  1.1675 -1.9256
  812MOL0     H12047   5.080   5.431   9.193 -2.5531  1.6319 -1.7724
  812MOL0     H12048   5.206   5.238   9.253  0.7375  1.6451  0.0836
  812MOL0     H12049   5.032   5.192   9.221 -0.8174 -0.6886 -1.7786
  812MOL0     H12050   5.270   5.107   9.066 -1.4321  1.3106 -5.5341
  812MOL0     H12051   5.115   5.137   8.988 -0.6949 -0.2347  0.2383
  812MOL0     H12052   5.036   4.774   9.193  3.9463 -3.1206 -2.3876
  812MOL0     H12053   5.332   5.604   8.865  2.5013  1.8000  0.5546
  812MOL0     H12054   5.623   5.728   8.692  1.1679 -2.9316  0.1083
  812MOL0     H12055   5.454   5.737   8.643 -0.4626 -0.7796 -0.2116
  812MOL0     H12056   5.502   5.776   8.807  1.7837 -0.6635 -0.2738
  813MOL0     O12057  10.505   1.056   5.976  0.5492 -0.1316  0.5572
  813MOL0     C12058  10.523   1.177   5.997 -0.0744  0.4018 -0.3931
  813MOL0     O12059  10.619   1.256   5.970 -1.3067 -0.8392  0.0125
  813MOL0     C12060  10.734   1.198   5.925 -0.8920  0.3318  0.4545
  813MOL0     C12061  10.749   1.164   5.793  0.5454  0.5463 -0.4643
  813MOL0     C12062  10.861   1.104   5.751  0.8600  0.0740  0.0683
  813MOL0     C12063  10.960   1.065   5.844  0.3437  0.5704 -0.0234
  813MOL0     O12064  11.071   0.992   5.810  0.0474 -0.9716 -0.4657
  813MOL0     C12065  11.066   0.859   5.846 -0.0619  0.6568 -0.0070
  813MOL0     C12066  11.208   0.801   5.873  0.1422 -0.1611 -0.3492
  813MOL0     C12067  11.211   0.654   5.843 -0.2360  0.0373  0.2541
  813MOL0     C12068  11.177   0.557   5.958 -0.4365 -0.0504 -0.2245
  813MOL0     C12069  11.198   0.414   5.925  0.3972  0.8764  0.5606
  813MOL0     C12070  11.163   0.326   6.036  1.4721  0.5103 -0.5866
  813MOL0     C12071  11.015   0.332   6.090  0.3841  1.0101  0.3397
  813MOL0     C12072  10.973   0.202   6.153 -0.2908  0.2585 -0.5160
  813MOL0     N12073  10.937   0.100   6.048  0.0783 -0.4634 -0.1313
  813MOL0     C12074  10.853   0.117   5.942 -0.0705  0.6607  0.1016
  813MOL0     C12075  10.844  -0.012   5.890  0.9104  0.3722  0.9746
  813MOL0     C12076  10.750  -0.048   5.775 -0.3913  0.7410  0.1385
  813MOL0     C12077  10.643  -0.148   5.815  0.1106  1.1684 -0.1971
  813MOL0     C12078  10.659  -0.263   5.715 -0.4309  0.3274 -0.5049
  813MOL0     C12079  10.632  -0.223   5.564  0.4809 -0.1218 -0.1289
  813MOL0     O12080  10.499  -0.180   5.541 -0.6465  0.2462  0.1341
  813MOL0     C12081  10.457  -0.121   5.424 -0.2685 -0.2506  0.1236
  813MOL0     C12082  10.341  -0.048   5.425 -0.3774  0.6789  0.1177
  813MOL0     C12083  10.290   0.003   5.300 -0.6570  0.1570 -0.0802
  813MOL0     C12084  10.153   0.059   5.327  0.1390  0.4268  0.0581
  813MOL0     C12085  10.368  -0.016   5.178 -1.5338 -1.0185 -0.2223
  813MOL0     C12086  10.331   0.046   5.043  1.3845  0.5733  0.4432
  813MOL0     O12087  10.406   0.039   4.931  0.0689  0.1338 -0.0850
  813MOL0     C12088  10.398   0.134   4.835 -0.1516  1.0452  0.2133
  813MOL0     C12089  10.508   0.223   4.834 -0.0961  0.8012  0.3485
  813MOL0     C12090  10.510   0.322   4.734  0.5056  0.3287  0.1186
  813MOL0     C12091  10.406   0.331   4.638 -0.0857 -1.1157 -0.1052
  813MOL0     O12092  10.407   0.431   4.543  0.0498  0.3036  0.3217
  813MOL0     C12093  10.464   0.562   4.562 -0.5248  0.5667  0.1211
  813MOL0     C12094  10.359   0.673   4.544  0.0751 -0.2237 -0.1325
  813MOL0     C12095  10.302   0.681   4.408 -0.1199 -0.1385 -0.6427
  813MOL0     C12096  10.417   0.672   4.303  0.1399  0.6558 -0.0827
  813MOL0     C12097  10.388   0.714   4.164  1.5193 -0.0970  1.0490
  813MOL0     C12098  10.282   0.622   4.109  0.2768  0.5234 -0.3503
  813MOL0     C12099  10.278   0.628   3.955 -0.5669 -0.0666  0.6790
  813MOL0     C12100  10.404   0.582   3.890  0.0912 -0.3046  0.5468
  813MOL0    Cl12101  10.386   0.553   3.716  0.1234  0.1623  0.1948
  813MOL0     C12102  10.296   0.243   4.645  0.2342  0.0557  0.0911
  813MOL0     C12103  10.290   0.146   4.740 -0.3512  0.5952 -1.0698
  813MOL0     O12104  10.225   0.113   5.053  0.7544 -0.0191  0.1803
  813MOL0     C12105  10.481  -0.095   5.184 -0.5024 -0.0163 -0.2655
  813MOL0     C12106  10.528  -0.137   5.311 -0.3051  0.7579 -1.0034
  813MOL0     N12107  10.925  -0.096   5.959  0.4066  0.0356  0.1545
  813MOL0     N12108  10.978  -0.027   6.055  1.0628  0.7915 -0.2114
  813MOL0     C12109  10.942   1.098   5.972 -1.5347 -0.7155  0.8153
  813MOL0     C12110  10.831   1.158   6.016  0.0547 -1.0023 -0.4492
  813MOL0     C12111  10.406   1.254   6.052 -0.1444  0.4468  0.6533
  813MOL0     C12112  10.426   1.335   6.165  0.2602 -0.0717 -0.1790
  813MOL0     C12113  10.315   1.388   6.231  0.0898  0.5562  0.0375
  813MOL0     C12114  10.183   1.356   6.188 -0.1320  0.2935  0.4302
  813MOL0     O12115  10.080   1.388   6.264 -1.1759  0.9468 -0.2074
  813MOL0     C12116   9.981   1.457   6.203  0.9930  0.4794  0.0672
  813MOL0     C12117   9.884   1.505   6.310  0.4698  0.3584 -0.1680
  813MOL0     C12118   9.842   1.394   6.411  0.1761  0.1658 -1.4434
  813MOL0     C12119   9.717   1.438   6.484 -0.3411  0.8890 -0.4644
  813MOL0     C12120   9.750   1.539   6.581 -0.7714  0.2456 -0.2929
  813MOL0     C12121   9.804   1.616   6.662  0.8170 -0.1469 -0.0360
  813MOL0     C12122  10.165   1.280   6.069 -0.3460  0.8065  0.1723
  813MOL0     C12123  10.279   1.234   5.996 -0.4705 -0.0970 -0.4512
  813MOL0     C12124  10.247   1.154   5.878 -0.2335  0.2190 -0.4053
  813MOL0     H12125  10.674   1.176   5.716 -3.3518 -0.2081  2.9055
  813MOL0     H12126  10.877   1.071   5.648  2.3035 -1.6773  0.7975
  813MOL0     H12127  11.032   0.805   5.758  4.0353  3.1518 -3.5312
  813MOL0     H12128  11.014   0.824   5.936  1.8421 -2.3018  0.0514
  813MOL0     H12129  11.274   0.840   5.796  0.8750 -2.8395 -1.1655
  813MOL0     H12130  11.244   0.826   5.973 -1.4520 -1.1182  0.5121
  813MOL0     H12131  11.146   0.625   5.760 -1.0720 -0.3973  1.0571
  813MOL0     H12132  11.307   0.609   5.816 -1.9104 -3.7672 -0.0133
  813MOL0     H12133  11.244   0.579   6.041 -0.1838  0.0155 -0.4452
  813MOL0     H12134  11.075   0.580   5.993 -2.1869 -5.9727 -0.4047
  813MOL0     H12135  11.300   0.402   5.887 -0.6086 -0.4117 -1.9006
  813MOL0     H12136  11.142   0.381   5.837  0.0164 -1.8104  1.7184
  813MOL0     H12137  11.200   0.226   6.009 -1.3726 -0.2507 -2.0205
  813MOL0     H12138  11.225   0.355   6.122  0.0172 -0.2401  0.7673
  813MOL0     H12139  10.938   0.350   6.015  0.2532 -5.5418 -1.7651
  813MOL0     H12140  11.016   0.418   6.158 -1.7879  1.9298 -0.7112
  813MOL0     H12141  11.032   0.168   6.239 -1.5776 -2.0244 -0.4532
  813MOL0     H12142  10.883   0.228   6.209 -0.4485 -3.1709  1.0860
  813MOL0     H12143  10.791   0.202   5.916 -0.7115 -0.8173 -3.9742
  813MOL0     H12144  10.812  -0.081   5.690  1.9350  2.8108  0.9011
  813MOL0     H12145  10.699   0.045   5.748  0.5467  1.0391 -0.7271
  813MOL0     H12146  10.659  -0.195   5.913 -2.8283  2.2817  0.9284
  813MOL0     H12147  10.549  -0.093   5.818 -0.8021 -0.3198 -0.5629
  813MOL0     H12148  10.754  -0.316   5.723 -1.4981 -1.4881  0.6583
  813MOL0     H12149  10.586  -0.340   5.737 -1.0009  1.2149  0.7936
  813MOL0     H12150  10.694  -0.146   5.516  0.5981 -1.3099 -1.9793
  813MOL0     H12151  10.657  -0.317   5.514  0.1542 -1.4321  2.0471
  813MOL0     H12152  10.290  -0.025   5.518  1.1916  0.2601  1.1339
  813MOL0     H12153  10.152   0.148   5.390  0.9783  2.1584 -2.2818
  813MOL0     H12154  10.093  -0.018   5.377  0.5043 -1.8482 -2.7319
  813MOL0     H12155  10.095   0.066   5.235 -2.9310  0.5124  1.8365
  813MOL0     H12156  10.581   0.199   4.911 -1.2782 -1.7579  0.8077
  813MOL0     H12157  10.590   0.395   4.733  1.9295 -0.9439  4.2105
  813MOL0     H12158  10.513   0.566   4.659 -1.0640 -2.6118  0.6435
  813MOL0     H12159  10.549   0.571   4.493 -0.1193  0.7015  0.6347
  813MOL0     H12160  10.277   0.633   4.605  0.1816  0.6040  0.5787
  813MOL0     H12161  10.391   0.768   4.589 -0.3651  1.1654 -2.5969
  813MOL0     H12162  10.250   0.776   4.397 -2.2108 -1.4864 -4.5105
  813MOL0     H12163  10.228   0.602   4.391  0.0009 -0.7930  1.5358
  813MOL0     H12164  10.443   0.565   4.299 -1.6051  0.2452 -1.6487
  813MOL0     H12165  10.492   0.738   4.347  0.5519 -0.9133  1.7334
  813MOL0     H12166  10.344   0.814   4.158  1.1924 -0.3094 -1.1407
  813MOL0     H12167  10.474   0.720   4.098 -0.2389 -4.7160 -2.2760
  813MOL0     H12168  10.184   0.638   4.155  0.5097 -2.1520  1.3195
  813MOL0     H12169  10.294   0.517   4.136 -1.6584  1.2808  4.2977
  813MOL0     H12170  10.271   0.734   3.927  2.9566  0.5725  1.6786
  813MOL0     H12171  10.203   0.562   3.910 -1.4012  1.1052  0.2967
  813MOL0     H12172  10.453   0.494   3.933  2.8825  0.8717 -0.0204
  813MOL0     H12173  10.484   0.653   3.908 -0.2827  1.1574 -2.8052
  813MOL0     H12174  10.207   0.261   4.584  0.7666 -0.8655 -1.0057
  813MOL0     H12175  10.213   0.072   4.758  2.0685 -1.8256  0.0253
  813MOL0     H12176  10.531  -0.124   5.091  0.9539  2.7469 -0.4705
  813MOL0     H12177  10.624  -0.186   5.314  0.0823  1.4457  2.3243
  813MOL0     H12178  11.015   1.082   6.051  0.6558  0.3767 -0.8831
  813MOL0     H12179  10.830   1.167   6.124  3.6100 -0.5124 -0.3279
  813MOL0     H12180  10.525   1.359   6.202  0.5463 -0.1628 -0.8702
  813MOL0     H12181  10.321   1.435   6.329  0.7016  0.7866 -0.1012
  813MOL0     H12182  10.021   1.540   6.144  0.0327 -0.9869 -2.8451
  813MOL0     H12183   9.930   1.390   6.133  0.7517  0.0594  0.6392
  813MOL0     H12184   9.794   1.534   6.256 -0.7415 -2.9139 -0.1585
  813MOL0     H12185   9.918   1.589   6.371  0.1501 -0.2552  0.8913
  813MOL0     H12186   9.815   1.297   6.368 -0.7093 -0.3101  0.1267
  813MOL0     H12187   9.925   1.380   6.480 -0.1173  0.2905 -1.0622
  813MOL0     H12188   9.681   1.356   6.547  1.3029 -0.0427 -0.6648
  813MOL0     H12189   9.642   1.473   6.412  0.4503 -0.5779 -2.0856
  813MOL0     H12190   9.854   1.672   6.739  0.0563  0.9465 -0.3192
  813MOL0     H12191  10.066   1.259   6.029  0.0625  0.4919 -0.7082
  813MOL0     H12192  10.314   1.179   5.796 -0.3755  1.2694 -0.2190
  813MOL0     H12193  10.270   1.049   5.900 -0.3839  0.0263 -1.1613
  813MOL0     H12194  10.142   1.170   5.851 -0.5903 -1.6281 -0.2521
  814MOL0     O12195   1.341  10.889   9.000 -0.4256  1.0166 -0.4241
  814MOL0     C12196   1.310  10.909   9.116 -0.2601 -0.1859  0.2935
  814MOL0     O12197   1.255  10.815   9.203 -0.0589  0.1091  0.3470
  814MOL0     C12198   1.227  10.686   9.165 -0.5880 -0.5219  0.1920
  814MOL0     C12199   1.185  10.654   9.034  0.7988 -0.1516 -0.2481
  814MOL0     C12200   1.181  10.520   8.998  1.0751 -0.3057 -0.3385
  814MOL0     C12201   1.214  10.421   9.083  0.0112 -0.0080 -0.0844
  814MOL0     O12202   1.221  10.292   9.036  0.5217 -0.0110  0.8796
  814MOL0     C12203   1.187  10.188   9.125 -0.9046 -0.3584  0.7030
  814MOL0     C12204   1.143  10.082   9.042 -0.5021  0.5233  0.1546
  814MOL0     C12205   1.257  10.029   8.946 -1.2072  0.2350 -0.9397
  814MOL0     C12206   1.210   9.897   8.885 -0.7736 -0.2261  0.3025
  814MOL0     C12207   1.190   9.782   8.987 -1.0092  0.5845 -0.0977
  814MOL0     C12208   1.130   9.653   8.934  0.1574 -0.6161 -0.1008
  814MOL0     C12209   1.144   9.625   8.780 -0.6453  0.2570  0.8216
  814MOL0     C12210   1.045   9.535   8.722  0.1735  0.2475 -0.6474
  814MOL0     N12211   1.060   9.549   8.579  0.0578  0.2386  0.0660
  814MOL0     C12212   1.022   9.669   8.517  0.6044 -0.4281  0.3270
  814MOL0     C12213   1.059   9.648   8.386  0.8510  0.6784  0.1394
  814MOL0     C12214   1.037   9.732   8.265 -0.2572  0.6399 -0.4908
  814MOL0     C12215   0.887   9.705   8.216 -0.0431 -0.5502  0.2906
  814MOL0     C12216   0.858   9.748   8.074 -0.2817 -0.9604  0.6273
  814MOL0     C12217   0.853   9.904   8.067  0.5565 -0.3537 -1.1648
  814MOL0     O12218   0.755   9.942   8.167 -0.2700  0.3644 -0.5099
  814MOL0     C12219   0.629   9.943   8.129  1.4869 -0.4678  0.4863
  814MOL0     C12220   0.574   9.962   8.000 -0.1849 -0.8220 -0.9066
  814MOL0     C12221   0.434   9.965   7.977 -0.8107 -0.2052 -0.7030
  814MOL0     C12222   0.387  10.001   7.833 -0.0939 -0.9438 -0.7521
  814MOL0     C12223   0.341   9.942   8.088 -1.2850 -0.3089  0.4449
  814MOL0     C12224   0.194   9.933   8.071  0.5660  0.2410 -0.4379
  814MOL0     O12225   0.146   9.920   7.945 -0.1175  0.7550 -0.4110
  814MOL0     C12226   0.018   9.948   7.926 -0.0462 -0.0602 -0.4762
  814MOL0     C12227  -0.086   9.847   7.924 -1.4184 -0.0208 -0.1718
  814MOL0     C12228  -0.216   9.886   7.917 -0.0251  0.6197 -0.5739
  814MOL0     C12229  -0.255  10.024   7.920 -0.2388 -0.4233 -0.0268
  814MOL0     O12230  -0.391  10.039   7.939 -0.1533 -0.3401  0.7121
  814MOL0     C12231  -0.450  10.174   7.941  0.8901  0.3477 -0.0418
  814MOL0     C12232  -0.600  10.182   7.959  0.6653  0.2073  0.0436
  814MOL0     C12233  -0.649  10.110   8.087  0.1991  0.3121 -0.2431
  814MOL0     C12234  -0.790  10.150   8.119  0.2295 -0.7009 -0.4818
  814MOL0     C12235  -0.859  10.077   8.226 -0.6382 -0.6976  0.0992
  814MOL0     C12236  -0.864   9.932   8.196 -0.8013  0.2838  0.5130
  814MOL0     C12237  -0.955   9.869   8.308  0.4092  1.0450 -0.2508
  814MOL0     C12238  -0.974   9.712   8.302 -0.0968  0.4412 -0.2382
  814MOL0    Cl12239  -1.078   9.658   8.438 -0.3980 -0.5679  0.4401
  814MOL0     C12240  -0.147  10.115   7.912 -0.7412 -1.0212 -0.6483
  814MOL0     C12241  -0.016  10.079   7.917 -0.3386  0.2662  0.4712
  814MOL0     O12242   0.122   9.937   8.169  0.4695 -0.1374 -0.5408
  814MOL0     C12243   0.402   9.899   8.207 -0.1176 -1.1266 -0.3656
  814MOL0     C12244   0.540   9.900   8.228 -0.2199 -0.9661 -0.4320
  814MOL0     N12245   1.091   9.510   8.376 -0.8160 -0.3476  0.7167
  814MOL0     N12246   1.099   9.453   8.494  0.0183  0.5668  0.4174
  814MOL0     C12247   1.250  10.455   9.214 -0.3358 -0.2715 -0.4685
  814MOL0     C12248   1.257  10.586   9.263  0.5255  0.0943 -0.2482
  814MOL0     C12249   1.322  11.048   9.172 -1.2375 -0.0235  0.3082
  814MOL0     C12250   1.284  11.071   9.303  0.0794 -1.2775 -0.2086
  814MOL0     C12251   1.276  11.203   9.354 -0.4471  0.1966 -0.3633
  814MOL0     C12252   1.308  11.316   9.276 -0.2775  0.4602  0.1126
  814MOL0     O12253   1.314  11.435   9.342 -0.9964  0.1587  0.6087
  814MOL0     C12254   1.438  11.505   9.326 -0.2421 -0.0215  0.3910
  814MOL0     C12255   1.553  11.438   9.399  0.4234 -0.5969  0.1451
  814MOL0     C12256   1.530  11.405   9.552 -1.0983 -0.0320  0.7836
  814MOL0     C12257   1.656  11.340   9.622  0.5738 -0.2191  0.5604
  814MOL0     C12258   1.774  11.423   9.639  0.9430 -0.0779 -0.0025
  814MOL0     C12259   1.878  11.480   9.670  0.0290 -0.1010 -0.6085
  814MOL0     C12260   1.339  11.293   9.146 -0.5819  0.8949 -0.0332
  814MOL0     C12261   1.359  11.164   9.092 -0.2972 -0.4405 -0.3216
  814MOL0     C12262   1.404  11.154   8.948  0.3629  0.2788 -0.2403
  814MOL0     H12263   1.164  10.727   8.956  3.1036  0.3532 -0.4631
  814MOL0     H12264   1.162  10.506   8.892 -5.6882  1.1252  0.1899
  814MOL0     H12265   1.110  10.223   9.195 -2.5498 -0.7107 -0.8475
  814MOL0     H12266   1.278  10.153   9.175 -1.2701  0.4308  1.9682
  814MOL0     H12267   1.109  10.004   9.111 -0.9151  0.9934  0.4976
  814MOL0     H12268   1.055  10.105   8.981 -1.9836  0.2894  2.0918
  814MOL0     H12269   1.280  10.104   8.871  2.7494 -1.7722 -1.9903
  814MOL0     H12270   1.350  10.012   9.001 -0.9841 -0.7733 -1.5924
  814MOL0     H12271   1.108   9.911   8.847 -0.3440  0.0487 -0.7712
  814MOL0     H12272   1.276   9.851   8.812  0.5421 -1.2532  2.0514
  814MOL0     H12273   1.123   9.804   9.070  0.9470 -1.8925  2.3464
  814MOL0     H12274   1.289   9.755   9.024  0.0795  2.1843 -1.6580
  814MOL0     H12275   1.186   9.571   8.980 -0.5290 -1.3597 -0.5491
  814MOL0     H12276   1.025   9.644   8.964  0.5064  0.1067  1.4013
  814MOL0     H12277   1.243   9.587   8.756 -0.9023 -0.2938  0.6157
  814MOL0     H12278   1.133   9.723   8.732  1.9533 -0.2200 -0.9190
  814MOL0     H12279   1.070   9.438   8.766  4.5483  1.9973  1.2999
  814MOL0     H12280   0.947   9.572   8.755  0.9314  1.9170 -0.1439
  814MOL0     H12281   0.974   9.753   8.567 -0.2928 -0.3519 -0.6126
  814MOL0     H12282   1.107   9.706   8.185 -0.2986  1.2169 -0.7190
  814MOL0     H12283   1.040   9.840   8.284 -2.6338  0.2732  2.8881
  814MOL0     H12284   0.874   9.599   8.240 -1.6516 -0.3244  0.5116
  814MOL0     H12285   0.826   9.767   8.282  0.6569  1.3899 -0.8197
  814MOL0     H12286   0.943   9.714   8.014  0.9314 -1.4502  2.5225
  814MOL0     H12287   0.765   9.711   8.030  0.1551  0.0774 -1.2785
  814MOL0     H12288   0.950   9.934   8.108  0.5155 -0.8592 -0.6873
  814MOL0     H12289   0.849   9.943   7.965 -0.7291 -4.8715 -3.0854
  814MOL0     H12290   0.638   9.987   7.917  1.0233  1.1464  0.5481
  814MOL0     H12291   0.478  10.030   7.779  0.2892  0.5547  0.6315
  814MOL0     H12292   0.322  10.088   7.828  0.4440 -0.4146  0.8146
  814MOL0     H12293   0.339   9.910   7.795 -0.5784 -1.4139  0.9090
  814MOL0     H12294  -0.059   9.743   7.943  0.2054  0.4857  0.4688
  814MOL0     H12295  -0.294   9.811   7.910  0.9595 -0.5060  0.1755
  814MOL0     H12296  -0.397  10.242   8.009 -1.0468 -2.4000  4.7460
  814MOL0     H12297  -0.426  10.218   7.844 -2.3366  0.9528 -0.6449
  814MOL0     H12298  -0.626  10.288   7.971  4.7594  1.6787 -2.1667
  814MOL0     H12299  -0.651  10.144   7.870  2.2455  0.8304 -1.1855
  814MOL0     H12300  -0.577  10.132   8.166 -1.0911  1.2945  0.7076
  814MOL0     H12301  -0.639  10.004   8.061 -1.9716  0.6638 -2.9442
  814MOL0     H12302  -0.848  10.138   8.027 -0.8893  2.0251 -0.2303
  814MOL0     H12303  -0.787  10.256   8.147  1.9236 -1.3326  1.9546
  814MOL0     H12304  -0.797  10.097   8.314 -2.4851 -0.5283  1.4240
  814MOL0     H12305  -0.959  10.114   8.249 -0.6540 -1.3836  1.2032
  814MOL0     H12306  -0.765   9.887   8.210  0.1957  2.2660  0.2076
  814MOL0     H12307  -0.896   9.903   8.096  0.0920 -0.6132  0.4671
  814MOL0     H12308  -1.053   9.912   8.283 -1.4691 -0.4604  3.6359
  814MOL0     H12309  -0.929   9.897   8.411  1.9879  0.4695 -0.4733
  814MOL0     H12310  -0.885   9.649   8.301 -0.3394  0.0943 -0.0779
  814MOL0     H12311  -1.029   9.698   8.208  0.1340  2.3716 -0.7053
  814MOL0     H12312  -0.170  10.221   7.923  2.7384 -0.4706  4.2455
  814MOL0     H12313   0.054  10.162   7.919 -0.7339  0.5939  1.3461
  814MOL0     H12314   0.332   9.866   8.282 -2.1651  0.3194 -1.5442
  814MOL0     H12315   0.578   9.865   8.324 -0.1228  1.7644  0.6029
  814MOL0     H12316   1.271  10.375   9.285  0.8257  0.4815  0.0619
  814MOL0     H12317   1.284  10.599   9.368 -1.6122  1.1291  0.2320
  814MOL0     H12318   1.240  10.994   9.366 -2.0471  0.1323  0.1289
  814MOL0     H12319   1.245  11.199   9.458 -2.2328 -1.2605 -0.8939
  814MOL0     H12320   1.469  11.514   9.222 -2.1980 -0.8501 -0.3083
  814MOL0     H12321   1.432  11.599   9.381 -0.4509  0.3816 -0.3204
  814MOL0     H12322   1.637  11.506   9.383 -2.5920  3.3284 -0.4950
  814MOL0     H12323   1.576  11.342   9.352 -0.2767 -1.0213  0.6509
  814MOL0     H12324   1.507  11.500   9.601  0.6452  1.5190 -1.2114
  814MOL0     H12325   1.455  11.326   9.561  1.2597 -2.8798 -2.0627
  814MOL0     H12326   1.680  11.249   9.565 -2.0146 -1.2247  0.9735
  814MOL0     H12327   1.616  11.314   9.720  0.5688 -0.1249  0.5824
  814MOL0     H12328   1.961  11.532   9.712 -0.4114 -0.7898  1.2161
  814MOL0     H12329   1.371  11.378   9.087 -1.1058  0.4831 -0.9250
  814MOL0     H12330   1.345  11.089   8.883 -2.5748 -0.7324  3.1009
  814MOL0     H12331   1.413  11.257   8.912 -0.3781  1.2933  2.2345
  814MOL0     H12332   1.503  11.108   8.944  0.4592 -0.0531  3.0662
  815MOL0     O12333   3.845   2.472  10.781  0.3430 -0.2832  0.1222
  815MOL0     C12334   3.768   2.381  10.808  0.3156 -0.6160 -0.4621
  815MOL0     O12335   3.659   2.401  10.893  0.3062 -0.2062  0.6806
  815MOL0     C12336   3.659   2.499  10.990  1.2037 -0.0469 -0.7058
  815MOL0     C12337   3.706   2.632  10.974  0.4841  0.4226  0.4006
  815MOL0     C12338   3.700   2.715  11.086  0.3505 -0.1120 -0.4098
  815MOL0     C12339   3.644   2.667  11.208 -0.0795 -0.7143 -0.5425
  815MOL0     O12340   3.656   2.751  11.322 -0.1968  0.2400 -0.0840
  815MOL0     C12341   3.702   2.885  11.303  0.1856 -0.0865  0.3246
  815MOL0     C12342   3.658   2.976  11.421 -0.4326  0.1677  0.9846
  815MOL0     C12343   3.510   3.005  11.406  0.1606  0.6703 -0.9358
  815MOL0     C12344   3.457   3.093  11.526  0.4709 -0.3337 -0.1789
  815MOL0     C12345   3.309   3.066  11.552  1.0055  0.0547  0.0682
  815MOL0     C12346   3.255   3.119  11.687 -0.6755  0.5156 -0.5493
  815MOL0     C12347   3.276   3.265  11.716 -0.4111  0.1807  0.4311
  815MOL0     C12348   3.216   3.365  11.617  0.2132 -0.0849  0.1029
  815MOL0     N12349   3.282   3.496  11.621 -0.0657  0.2239  0.0264
  815MOL0     C12350   3.221   3.611  11.571 -0.8611 -0.8231 -0.4633
  815MOL0     C12351   3.313   3.708  11.582 -0.4652 -0.6368 -0.3298
  815MOL0     C12352   3.287   3.857  11.572  0.0148 -1.1367  0.0800
  815MOL0     C12353   3.236   3.914  11.439 -0.0841  0.2324  0.7215
  815MOL0     C12354   3.281   4.063  11.424 -0.0110 -0.8446  0.6553
  815MOL0     C12355   3.237   4.119  11.288 -0.1551  0.7082 -0.1669
  815MOL0     O12356   3.098   4.155  11.297  0.3390  0.3372  0.2846
  815MOL0     C12357   3.045   4.250  11.216 -0.5732 -1.6909  0.5337
  815MOL0     C12358   2.917   4.315  11.246  0.0367  0.3424  0.0935
  815MOL0     C12359   2.865   4.402  11.148 -0.1565  0.1052 -1.2077
  815MOL0     C12360   2.732   4.457  11.183  0.4586 -0.1758 -0.3039
  815MOL0     C12361   2.928   4.433  11.030  1.1922 -0.4186  0.8653
  815MOL0     C12362   2.874   4.518  10.917  0.8408  0.4309 -0.5498
  815MOL0     O12363   2.735   4.549  10.908  0.5952  0.0302 -0.7595
  815MOL0     C12364   2.679   4.612  10.800 -0.0081  0.6910 -0.1114
  815MOL0     C12365   2.693   4.749  10.768  0.1177 -0.2599 -0.4459
  815MOL0     C12366   2.624   4.802  10.661  0.4377 -0.1167  0.9169
  815MOL0     C12367   2.531   4.724  10.592 -0.1660  0.2037  0.2616
  815MOL0     O12368   2.468   4.782  10.491 -0.4435  0.3594 -0.1336
  815MOL0     C12369   2.529   4.753  10.367  0.1009  0.0892  0.0376
  815MOL0     C12370   2.441   4.798  10.246 -0.2941 -0.2605 -0.3549
  815MOL0     C12371   2.297   4.816  10.282  0.1359  0.2867  0.6194
  815MOL0     C12372   2.206   4.864  10.171 -0.3373 -0.0396  0.8237
  815MOL0     C12373   2.069   4.900  10.226 -0.5676 -0.0401 -0.9818
  815MOL0     C12374   2.038   5.024  10.316  0.2731  0.2244 -0.0543
  815MOL0     C12375   1.884   5.029  10.346 -0.3330 -0.1215 -0.3862
  815MOL0     C12376   1.848   5.121  10.469 -0.6646  0.2178  0.0567
  815MOL0    Cl12377   1.914   5.296  10.466  0.1524 -0.5192 -0.2615
  815MOL0     C12378   2.514   4.591  10.624  0.3925  0.5994  0.0253
  815MOL0     C12379   2.588   4.530  10.725 -0.5001  0.2377 -0.5173
  815MOL0     O12380   2.955   4.573  10.843 -0.0262 -0.7567  0.4532
  815MOL0     C12381   3.044   4.367  11.000 -0.3142  0.0767 -0.3231
  815MOL0     C12382   3.105   4.283  11.096 -0.0726 -0.2689 -0.4682
  815MOL0     N12383   3.430   3.663  11.635  0.8798  0.7989  0.1180
  815MOL0     N12384   3.411   3.535  11.653  0.5055 -0.7049  0.4197
  815MOL0     C12385   3.582   2.541  11.217 -1.5209 -0.3807  0.9352
  815MOL0     C12386   3.601   2.459  11.106  0.5633 -0.4692  0.7218
  815MOL0     C12387   3.774   2.251  10.737  0.2348  0.2703  0.1377
  815MOL0     C12388   3.738   2.244  10.605  0.3659  0.1015 -0.1623
  815MOL0     C12389   3.726   2.124  10.536 -0.3843 -0.2959  0.2588
  815MOL0     C12390   3.771   2.004  10.596  0.4989 -0.3828 -0.0228
  815MOL0     O12391   3.769   1.882  10.535 -0.2613 -0.1281  0.6783
  815MOL0     C12392   3.696   1.872  10.415  0.0758  0.3546 -0.4299
  815MOL0     C12393   3.701   1.724  10.376  0.0641  0.6079  0.0708
  815MOL0     C12394   3.657   1.712  10.222  0.7825 -0.3234 -0.1955
  815MOL0     C12395   3.621   1.565  10.204  0.1759 -0.4495  0.7154
  815MOL0     C12396   3.732   1.464  10.189 -0.2224 -0.6885  1.0862
  815MOL0     C12397   3.825   1.384  10.170 -0.2806 -1.0884  0.2976
  815MOL0     C12398   3.809   2.003  10.737  0.8082 -0.5112  1.1334
  815MOL0     C12399   3.811   2.132  10.804 -0.6824 -0.8791  0.0060
  815MOL0     C12400   3.866   2.147  10.942  0.5780  0.0830  0.1458
  815MOL0     H12401   3.737   2.689  10.886 -0.8453  2.4530  1.1701
  815MOL0     H12402   3.744   2.814  11.071 -0.0223 -0.0909 -1.4693
  815MOL0     H12403   3.652   2.916  11.211  1.0934 -1.3961 -0.6534
  815MOL0     H12404   3.811   2.876  11.303  0.0800 -1.8584  1.2943
  815MOL0     H12405   3.697   2.931  11.513  1.8009 -3.8908 -1.6233
  815MOL0     H12406   3.718   3.065  11.399  1.3029 -1.4775 -1.5280
  815MOL0     H12407   3.494   3.055  11.310  0.3979  1.1501 -0.7283
  815MOL0     H12408   3.458   2.909  11.405 -2.0310  1.7572  0.1173
  815MOL0     H12409   3.509   3.076  11.621  0.6894  0.1335 -0.2122
  815MOL0     H12410   3.476   3.199  11.504 -0.9424  0.1825  0.9247
  815MOL0     H12411   3.288   2.959  11.561  0.4132  0.3725  3.5303
  815MOL0     H12412   3.251   3.121  11.477 -0.8291  0.1743  1.5088
  815MOL0     H12413   3.148   3.095  11.684 -0.3261 -1.3127  0.2186
  815MOL0     H12414   3.289   3.052  11.766  0.8360 -3.1468 -3.9668
  815MOL0     H12415   3.382   3.294  11.723 -0.8709  1.6700  2.0709
  815MOL0     H12416   3.246   3.292  11.818 -0.2309  1.1543  0.2371
  815MOL0     H12417   3.231   3.340  11.512 -1.0249  0.3085 -0.1854
  815MOL0     H12418   3.111   3.385  11.642  1.1120  2.9458  2.0373
  815MOL0     H12419   3.124   3.619  11.524  0.2636  2.5591 -2.6238
  815MOL0     H12420   3.376   3.913  11.601 -0.2463  0.0963 -1.3887
  815MOL0     H12421   3.207   3.873  11.646 -1.3676 -2.0325 -1.1549
  815MOL0     H12422   3.301   3.860  11.370  3.5061  0.6860  3.4769
  815MOL0     H12423   3.132   3.892  11.416 -0.1127  2.1229 -1.3070
  815MOL0     H12424   3.232   4.123  11.502  0.7844 -1.7791  1.9195
  815MOL0     H12425   3.390   4.062  11.435  0.3016 -4.5203 -1.2833
  815MOL0     H12426   3.303   4.202  11.259 -1.0207  0.9076 -1.6814
  815MOL0     H12427   3.244   4.040  11.212 -1.3884  0.4332 -0.0127
  815MOL0     H12428   2.870   4.291  11.341 -1.0229 -4.7324 -1.3976
  815MOL0     H12429   2.717   4.446  11.291 -0.5947  1.8076 -0.1974
  815MOL0     H12430   2.646   4.421  11.126 -0.7796  1.8761  0.1514
  815MOL0     H12431   2.744   4.566  11.174 -3.3138  0.7072  2.7620
  815MOL0     H12432   2.758   4.819  10.819  0.9378 -1.3482  0.0473
  815MOL0     H12433   2.619   4.902  10.621  0.0136 -0.7742 -0.7229
  815MOL0     H12434   2.627   4.802  10.369 -0.0780  0.6520  4.2549
  815MOL0     H12435   2.546   4.645  10.361  0.7560  0.2738 -2.3910
  815MOL0     H12436   2.492   4.887  10.207  0.6007 -0.5078  0.2262
  815MOL0     H12437   2.455   4.727  10.164  2.0656  0.4376 -0.6502
  815MOL0     H12438   2.295   4.887  10.365  4.4003 -0.9795  2.0617
  815MOL0     H12439   2.260   4.717  10.310  0.7710  0.0044  0.4697
  815MOL0     H12440   2.202   4.785  10.096 -1.8129  1.2242 -0.5033
  815MOL0     H12441   2.257   4.945  10.118 -1.6424  0.2039 -0.1014
  815MOL0     H12442   2.000   4.899  10.141 -1.0934 -2.5537 -0.6118
  815MOL0     H12443   2.051   4.813  10.290  4.9667 -0.2392  0.7955
  815MOL0     H12444   2.074   5.106  10.253 -0.4514 -2.2291 -4.0508
  815MOL0     H12445   2.098   5.017  10.407  2.4777 -0.2935 -1.4648
  815MOL0     H12446   1.838   4.933  10.370  0.9780 -0.8228 -0.5796
  815MOL0     H12447   1.824   5.066  10.263  1.7335  2.4791 -0.8692
  815MOL0     H12448   1.900   5.065  10.547  0.9945 -0.4760 -1.4618
  815MOL0     H12449   1.741   5.122  10.488 -0.2837 -2.8466  3.5292
  815MOL0     H12450   2.443   4.520  10.582  0.2179  0.6823  0.1775
  815MOL0     H12451   2.575   4.423  10.729 -2.2745  0.4257 -0.3429
  815MOL0     H12452   3.095   4.379  10.906 -2.2297 -0.1950 -1.4621
  815MOL0     H12453   3.202   4.240  11.073  0.7360  0.7774  0.8420
  815MOL0     H12454   3.548   2.520  11.317  0.4816  1.1195  2.0251
  815MOL0     H12455   3.554   2.361  11.113 -1.2870  0.3362  0.1773
  815MOL0     H12456   3.713   2.342  10.565 -0.3995  0.8186  1.9164
  815MOL0     H12457   3.701   2.134  10.431 -1.0141 -0.8955  0.3441
  815MOL0     H12458   3.592   1.904  10.422  0.1664  0.3204  1.5383
  815MOL0     H12459   3.755   1.932  10.345  0.1354 -1.1506 -1.7134
  815MOL0     H12460   3.626   1.670  10.435  1.2352 -1.5506 -0.2901
  815MOL0     H12461   3.799   1.679  10.398  0.1474  1.3672  1.3145
  815MOL0     H12462   3.566   1.771  10.213  1.6986  0.8130 -3.5690
  815MOL0     H12463   3.730   1.748  10.148  0.2297  1.6411  0.1591
  815MOL0     H12464   3.552   1.561  10.119 -0.7248  2.4722  1.2088
  815MOL0     H12465   3.559   1.535  10.290 -0.9283 -0.2659  0.0109
  815MOL0     H12466   3.907   1.315  10.163  0.1545 -0.7677  1.8305
  815MOL0     H12467   3.842   1.920  10.799 -0.7690 -1.9308  0.1600
  815MOL0     H12468   3.837   2.235  11.000  2.1383  0.2312  0.7478
  815MOL0     H12469   3.826   2.061  10.996  0.2475 -0.4284 -0.8746
  815MOL0     H12470   3.974   2.140  10.928  0.7916  1.2001  1.1188
  816MOL0     O12471   6.609   1.938   2.183 -0.5769  0.6445 -0.2126
  816MOL0     C12472   6.495   1.894   2.172  0.0657  0.4437 -0.5714
  816MOL0     O12473   6.463   1.768   2.213  0.7063  0.1001  0.9885
  816MOL0     C12474   6.562   1.684   2.249 -0.4742 -0.6136  0.3467
  816MOL0     C12475   6.559   1.594   2.356  1.7714  0.1757  0.0483
  816MOL0     C12476   6.663   1.505   2.372  0.3195 -0.5556 -0.2689
  816MOL0     C12477   6.763   1.483   2.280 -0.4982 -1.1688 -0.1735
  816MOL0     O12478   6.856   1.385   2.311 -0.7196 -0.0613  0.4861
  816MOL0     C12479   6.992   1.410   2.254 -0.5140 -0.1044  0.0819
  816MOL0     C12480   7.101   1.328   2.315  1.2072 -0.3590 -0.1722
  816MOL0     C12481   7.220   1.324   2.225 -0.0694 -0.2521  0.3298
  816MOL0     C12482   7.325   1.422   2.259 -0.5142 -0.6038 -0.0446
  816MOL0     C12483   7.447   1.364   2.333  0.7912  0.3679 -0.0627
  816MOL0     C12484   7.566   1.450   2.350 -0.4251 -0.1091  0.2873
  816MOL0     C12485   7.547   1.586   2.406  0.9050 -0.6139 -0.8053
  816MOL0     C12486   7.686   1.641   2.435  1.0913  0.1155  0.2787
  816MOL0     N12487   7.755   1.708   2.320  0.2851 -0.5837 -0.4403
  816MOL0     C12488   7.729   1.702   2.186 -0.9095 -0.1260 -0.5142
  816MOL0     C12489   7.809   1.786   2.121 -0.1520  0.0011 -0.4548
  816MOL0     C12490   7.809   1.803   1.975  0.2100  0.0878 -0.4375
  816MOL0     C12491   7.817   1.947   1.920 -0.5225  0.1472  0.3513
  816MOL0     C12492   7.946   2.023   1.948 -0.9511 -0.3019  0.1449
  816MOL0     C12493   7.931   2.172   1.894 -0.4287 -0.0577  0.2707
  816MOL0     O12494   7.862   2.233   2.001  0.3236 -0.2794 -0.7397
  816MOL0     C12495   7.852   2.367   1.990  0.3149 -0.8218 -0.6552
  816MOL0     C12496   7.832   2.438   2.114 -1.0171  0.4115  0.1942
  816MOL0     C12497   7.835   2.583   2.126  0.2286 -0.6403 -0.0817
  816MOL0     C12498   7.842   2.650   2.269  0.0428 -0.6135 -0.5264
  816MOL0     C12499   7.849   2.661   2.005 -0.2410 -0.1395  0.6453
  816MOL0     C12500   7.845   2.807   1.989 -0.6419  0.0782  0.3541
  816MOL0     O12501   7.845   2.852   1.869  0.3713 -0.2041  0.7298
  816MOL0     C12502   7.857   2.984   1.837  0.6069  0.2690 -0.0096
  816MOL0     C12503   7.759   3.073   1.893 -0.6091  0.3031 -0.1716
  816MOL0     C12504   7.765   3.208   1.867 -0.5468 -0.2534 -0.7666
  816MOL0     C12505   7.877   3.262   1.799  0.0390 -0.2986 -0.3296
  816MOL0     O12506   7.884   3.400   1.788  0.0982 -0.1563  0.0001
  816MOL0     C12507   8.019   3.451   1.761  0.4424 -0.1499  0.4903
  816MOL0     C12508   8.029   3.587   1.838 -0.2190 -0.4393 -0.5007
  816MOL0     C12509   8.129   3.580   1.962  0.4279 -0.6441 -0.1842
  816MOL0     C12510   8.275   3.581   1.930  0.0511  0.2158 -0.5269
  816MOL0     C12511   8.345   3.621   2.053 -0.0169  1.0012  0.0418
  816MOL0     C12512   8.360   3.498   2.140  0.5153 -0.6904  0.1921
  816MOL0     C12513   8.458   3.509   2.256 -0.6770  0.0841  0.4373
  816MOL0     C12514   8.442   3.405   2.363 -0.1747 -0.6768  0.3365
  816MOL0    Cl12515   8.444   3.243   2.301  0.0226  0.2266 -0.1856
  816MOL0     C12516   7.973   3.168   1.740 -0.7254 -0.5049 -0.8196
  816MOL0     C12517   7.968   3.026   1.764  0.4567  0.3797  0.2690
  816MOL0     O12518   7.846   2.871   2.088  0.2969  0.0273  0.9333
  816MOL0     C12519   7.870   2.581   1.885 -0.1774  0.5864  0.8420
  816MOL0     C12520   7.870   2.445   1.877  0.1579  0.7483 -0.8267
  816MOL0     N12521   7.894   1.841   2.226  0.2750 -0.0546 -0.7636
  816MOL0     N12522   7.858   1.796   2.342  0.1135 -0.1211  0.3182
  816MOL0     C12523   6.751   1.565   2.173 -0.2419 -0.2975 -0.6398
  816MOL0     C12524   6.664   1.670   2.155 -0.1510  0.4734  1.2838
  816MOL0     C12525   6.395   1.988   2.134  1.4168  0.1767 -0.6773
  816MOL0     C12526   6.301   2.028   2.235 -0.4604 -0.9511 -0.1948
  816MOL0     C12527   6.209   2.124   2.206  0.2716 -0.1054  0.6533
  816MOL0     C12528   6.185   2.191   2.081 -0.1029  0.1635 -0.8160
  816MOL0     O12529   6.088   2.288   2.058  0.1609  0.6008  0.3388
  816MOL0     C12530   5.983   2.237   1.978 -0.4860  0.0480  1.1588
  816MOL0     C12531   5.884   2.357   1.945  0.7989  0.1698  0.7659
  816MOL0     C12532   5.826   2.414   2.075 -0.3229 -0.0779  0.3130
  816MOL0     C12533   5.702   2.501   2.057 -0.4374  0.0029  0.3511
  816MOL0     C12534   5.626   2.522   2.175 -0.6377 -0.2530  0.0786
  816MOL0     C12535   5.567   2.523   2.281 -0.4602 -0.9120  0.2313
  816MOL0     C12536   6.280   2.155   1.988 -0.4686  0.6980 -0.0090
  816MOL0     C12537   6.387   2.055   2.007  0.8640  0.2384 -0.4757
  816MOL0     C12538   6.500   2.034   1.900 -0.1229 -0.3362  0.2047
  816MOL0     H12539   6.479   1.602   2.429  2.2909  0.0071  0.6310
  816MOL0     H12540   6.677   1.434   2.454  2.4776 -1.7845 -1.6037
  816MOL0     H12541   7.019   1.514   2.273 -2.6614  0.7945 -1.4636
  816MOL0     H12542   6.976   1.390   2.147 -0.0917 -2.0822  0.3526
  816MOL0     H12543   7.119   1.358   2.419 -1.9439  0.0530  0.3663
  816MOL0     H12544   7.058   1.229   2.300  2.4691 -0.5369 -3.3911
  816MOL0     H12545   7.265   1.225   2.214 -0.6833 -0.6027  0.8631
  816MOL0     H12546   7.188   1.356   2.125  0.1588  0.1459  0.3812
  816MOL0     H12547   7.358   1.480   2.172  1.6004 -0.2680  0.9391
  816MOL0     H12548   7.286   1.502   2.323  2.3299 -0.3479  1.4929
  816MOL0     H12549   7.478   1.272   2.284  1.5143  0.9092 -0.6447
  816MOL0     H12550   7.407   1.328   2.428  2.0509  1.8367  1.0887
  816MOL0     H12551   7.642   1.398   2.410  2.4023  0.2262 -2.7289
  816MOL0     H12552   7.608   1.465   2.250 -1.0778  1.9140  0.2796
  816MOL0     H12553   7.500   1.580   2.505 -1.3809  2.9073 -1.4957
  816MOL0     H12554   7.482   1.646   2.343  0.1377 -1.9591 -1.3411
  816MOL0     H12555   7.689   1.703   2.526 -1.0850 -0.0602  0.5115
  816MOL0     H12556   7.756   1.560   2.456 -2.4055 -3.0702  0.5990
  816MOL0     H12557   7.645   1.648   2.145 -3.4211  0.5579  3.2135
  816MOL0     H12558   7.723   1.757   1.925 -1.7789  0.4680  2.4259
  816MOL0     H12559   7.899   1.748   1.944 -0.1711  1.1155 -3.7976
  816MOL0     H12560   7.816   1.932   1.812 -2.1769  3.6620 -0.2678
  816MOL0     H12561   7.724   1.995   1.952 -0.3243  1.1921 -0.5670
  816MOL0     H12562   7.973   2.028   2.054 -3.2617 -0.0902  0.7866
  816MOL0     H12563   8.033   1.982   1.895 -0.5721 -1.4632  1.6148
  816MOL0     H12564   8.034   2.208   1.893  0.8813 -3.3919 -1.6734
  816MOL0     H12565   7.871   2.176   1.803  2.5386  0.1875 -1.8084
  816MOL0     H12566   7.810   2.368   2.194 -1.2994  0.8144  0.4727
  816MOL0     H12567   7.788   2.588   2.342  0.6824 -1.2340 -0.5745
  816MOL0     H12568   7.791   2.746   2.274 -1.2167 -1.2503 -0.7593
  816MOL0     H12569   7.944   2.660   2.307 -0.0298 -0.3522 -0.4004
  816MOL0     H12570   7.678   3.039   1.956 -2.1753  0.1062 -2.1792
  816MOL0     H12571   7.686   3.266   1.912 -2.5067 -3.6652  0.5786
  816MOL0     H12572   8.098   3.382   1.792  2.6572  1.9302 -0.2058
  816MOL0     H12573   8.016   3.475   1.654 -1.5769 -0.5812  0.4030
  816MOL0     H12574   8.059   3.660   1.763  2.3786 -0.5697  0.2858
  816MOL0     H12575   7.939   3.624   1.887  0.4821 -0.5967  0.9570
  816MOL0     H12576   8.104   3.493   2.022 -0.2297 -0.2263  0.1540
  816MOL0     H12577   8.100   3.667   2.022 -2.1677 -0.0876 -2.0617
  816MOL0     H12578   8.295   3.664   1.861 -3.8537  3.2416  1.5731
  816MOL0     H12579   8.303   3.490   1.876  0.4925  1.4161 -2.4614
  816MOL0     H12580   8.441   3.659   2.017 -0.4286  0.3604 -1.8007
  816MOL0     H12581   8.299   3.702   2.112 -2.1731 -0.9632  1.2451
  816MOL0     H12582   8.392   3.407   2.088  2.1230 -1.1116  1.8089
  816MOL0     H12583   8.258   3.476   2.173 -0.2261 -0.0044 -1.5067
  816MOL0     H12584   8.449   3.609   2.298 -1.0385 -1.1899  3.6564
  816MOL0     H12585   8.556   3.497   2.207 -1.1350 -3.9197  0.1378
  816MOL0     H12586   8.356   3.416   2.430  1.2208 -2.3742  2.5608
  816MOL0     H12587   8.531   3.418   2.426  0.3839 -2.7433  0.0654
  816MOL0     H12588   8.057   3.201   1.680 -2.2843  2.3992 -1.5837
  816MOL0     H12589   8.040   2.952   1.730 -1.3122 -1.4835  0.3606
  816MOL0     H12590   7.878   2.626   1.787 -3.9654  2.0990  1.0650
  816MOL0     H12591   7.887   2.397   1.782 -3.4161  0.7041 -1.6104
  816MOL0     H12592   6.827   1.550   2.097  2.1988 -1.4191  1.8576
  816MOL0     H12593   6.676   1.730   2.065 -1.4811 -1.2401 -0.1203
  816MOL0     H12594   6.299   1.972   2.328  0.6292  2.1955  1.8717
  816MOL0     H12595   6.131   2.154   2.275  1.0931 -0.4303  1.7651
  816MOL0     H12596   6.028   2.205   1.884  0.4625  3.5804  0.2407
  816MOL0     H12597   5.926   2.155   2.023 -0.1792 -0.5987  0.3844
  816MOL0     H12598   5.796   2.325   1.889  1.3556  1.7319 -1.0807
  816MOL0     H12599   5.938   2.430   1.884  0.1389  0.7339  0.8432
  816MOL0     H12600   5.803   2.334   2.146  0.3766  0.3007  0.9817
  816MOL0     H12601   5.903   2.478   2.120 -1.1136 -0.7415  2.7548
  816MOL0     H12602   5.638   2.443   1.991  0.2592  1.0436 -1.2962
  816MOL0     H12603   5.719   2.597   2.006 -2.4497  0.9295  1.2854
  816MOL0     H12604   5.514   2.507   2.372  1.7835 -2.1452  1.4108
  816MOL0     H12605   6.274   2.214   1.897  1.3544 -0.3261 -0.8520
  816MOL0     H12606   6.532   1.929   1.909 -0.1970 -0.6759 -2.7227
  816MOL0     H12607   6.453   2.057   1.805  0.5789 -0.2518 -0.1253
  816MOL0     H12608   6.583   2.102   1.921 -0.3830  0.3679 -0.9605
  817MOL0     O12609   1.733   2.373   4.360 -0.0959  0.0591 -0.5398
  817MOL0     C12610   1.824   2.300   4.329 -0.1340  0.8076  0.3448
  817MOL0     O12611   1.933   2.271   4.409 -0.2649 -0.3062 -0.4733
  817MOL0     C12612   1.935   2.310   4.540  0.5197 -0.0841 -0.2556
  817MOL0     C12613   1.832   2.275   4.627  0.4499  0.6541 -0.3497
  817MOL0     C12614   1.833   2.316   4.760 -0.6835 -0.4226 -1.0007
  817MOL0     C12615   1.950   2.383   4.806 -0.2021  0.7736  0.5671
  817MOL0     O12616   1.985   2.415   4.932 -0.0605 -0.6853  0.8766
  817MOL0     C12617   1.890   2.438   5.023 -0.4462 -0.5365  0.3952
  817MOL0     C12618   1.966   2.447   5.156  1.2888 -0.7908 -0.1750
  817MOL0     C12619   2.018   2.314   5.201 -0.2180 -0.1973 -0.2029
  817MOL0     C12620   1.898   2.222   5.242 -0.8663 -0.4294 -0.1932
  817MOL0     C12621   1.939   2.085   5.310 -0.7462  1.0264  0.0691
  817MOL0     C12622   1.809   2.034   5.389 -0.3970  0.0724 -0.4666
  817MOL0     C12623   1.801   1.898   5.442 -0.1355  0.1152 -0.0997
  817MOL0     C12624   1.656   1.845   5.492  0.4726 -0.2919  0.1692
  817MOL0     N12625   1.572   1.944   5.566  0.0724  0.1937 -0.5633
  817MOL0     C12626   1.446   1.985   5.530 -0.3061 -0.2138 -1.0089
  817MOL0     C12627   1.403   2.052   5.644  0.3932  0.0046  0.4783
  817MOL0     C12628   1.271   2.117   5.657 -1.0872  0.3244  0.2075
  817MOL0     C12629   1.220   2.173   5.788 -0.8317  0.2480 -0.3308
  817MOL0     C12630   1.076   2.229   5.779 -0.1607 -0.3179 -0.7416
  817MOL0     C12631   0.971   2.142   5.715 -0.5316 -0.6436  0.2884
  817MOL0     O12632   0.958   2.027   5.796  0.1397 -0.7174 -0.2760
  817MOL0     C12633   0.847   2.014   5.883  0.9215  0.6758 -0.8191
  817MOL0     C12634   0.843   2.064   6.016 -0.1064  0.1700  0.9242
  817MOL0     C12635   0.731   2.052   6.104 -0.6034  1.1144 -0.5902
  817MOL0     C12636   0.744   2.108   6.239  0.1551 -0.1028 -0.0677
  817MOL0     C12637   0.622   1.983   6.045 -0.5215 -0.0696 -0.1636
  817MOL0     C12638   0.499   1.973   6.111 -0.0394  0.2881 -0.4417
  817MOL0     O12639   0.450   1.844   6.130 -0.6021  0.0476  0.9673
  817MOL0     C12640   0.322   1.824   6.129 -0.2063  0.7745  0.5081
  817MOL0     C12641   0.250   1.857   6.015  0.0047  0.6589 -0.4206
  817MOL0     C12642   0.110   1.827   6.004  0.1139 -1.2804  0.6038
  817MOL0     C12643   0.049   1.767   6.115  1.0325 -0.5665  0.6617
  817MOL0     O12644  -0.091   1.730   6.106 -0.4584 -0.2387  0.8804
  817MOL0     C12645  -0.179   1.807   6.188  0.3246 -0.3739 -0.2179
  817MOL0     C12646  -0.290   1.720   6.248  0.2373 -0.7695  0.2664
  817MOL0     C12647  -0.383   1.670   6.140  1.0339  0.3079 -0.2337
  817MOL0     C12648  -0.490   1.575   6.192 -0.1910  0.4935  0.3741
  817MOL0     C12649  -0.616   1.632   6.271 -0.2771 -0.1696 -0.1953
  817MOL0     C12650  -0.583   1.708   6.409 -0.2068  0.4379  0.0711
  817MOL0     C12651  -0.719   1.757   6.471  0.3293  0.4872  0.4054
  817MOL0     C12652  -0.844   1.657   6.464 -0.1869  0.1822  0.1262
  817MOL0    Cl12653  -0.942   1.711   6.318  0.1125  0.1458 -0.2213
  817MOL0     C12654   0.125   1.737   6.226 -0.2812  0.6105 -0.9562
  817MOL0     C12655   0.264   1.755   6.229  0.7973  1.8927 -1.0897
  817MOL0     O12656   0.447   2.075   6.155  0.1157  0.4243 -0.3301
  817MOL0     C12657   0.626   1.927   5.918 -0.5263  0.4269 -0.3395
  817MOL0     C12658   0.737   1.937   5.844 -0.0085  0.0325 -0.7313
  817MOL0     N12659   1.498   2.049   5.742 -0.1468 -0.7190  0.4837
  817MOL0     N12660   1.599   1.984   5.694  0.4832  0.8379 -0.1749
  817MOL0     C12661   2.049   2.422   4.719 -0.3009  1.1457  0.0235
  817MOL0     C12662   2.038   2.390   4.584 -0.3464 -0.3797  0.9037
  817MOL0     C12663   1.815   2.228   4.199 -0.1590 -0.7213  0.6550
  817MOL0     C12664   1.911   2.137   4.172  0.6108  0.0105  0.6948
  817MOL0     C12665   1.914   2.058   4.055  0.4035  1.1523 -0.7632
  817MOL0     C12666   1.814   2.079   3.961 -0.5818 -0.1531 -0.5167
  817MOL0     O12667   1.836   2.003   3.846 -0.0273  0.2100 -0.4368
  817MOL0     C12668   1.738   2.010   3.742  0.2883  0.3043 -0.1950
  817MOL0     C12669   1.815   1.965   3.617  0.5161 -0.2417 -1.0973
  817MOL0     C12670   1.787   1.821   3.569  0.8266  0.3436 -0.7173
  817MOL0     C12671   1.847   1.710   3.669  0.1757 -0.9772  0.0335
  817MOL0     C12672   1.817   1.579   3.610 -0.5282 -0.0133  1.6901
  817MOL0     C12673   1.779   1.475   3.566  0.0589 -0.2568 -0.0162
  817MOL0     C12674   1.712   2.173   3.993  0.7571 -1.3362  0.6458
  817MOL0     C12675   1.714   2.261   4.104 -0.2407  1.1564  0.0217
  817MOL0     C12676   1.602   2.352   4.127  0.7142  0.3682 -0.1505
  817MOL0     H12677   1.746   2.222   4.588 -0.0959  1.3159 -0.0627
  817MOL0     H12678   1.750   2.292   4.826  0.0548 -0.3581 -0.0305
  817MOL0     H12679   1.815   2.359   5.029 -1.3489  0.3543  1.4981
  817MOL0     H12680   1.829   2.528   5.007 -2.7071 -2.1185 -0.2520
  817MOL0     H12681   2.043   2.524   5.147  0.3705  0.2258  0.5144
  817MOL0     H12682   1.898   2.490   5.230  2.4111  3.6751 -1.4836
  817MOL0     H12683   2.067   2.269   5.115 -3.5638  0.1160 -2.4505
  817MOL0     H12684   2.094   2.326   5.279  2.2605  1.6408 -2.6638
  817MOL0     H12685   1.842   2.278   5.318 -2.1895 -1.6989 -0.2035
  817MOL0     H12686   1.827   2.206   5.161  0.5040  1.9592 -1.9843
  817MOL0     H12687   2.027   2.109   5.369 -1.3953 -0.5642  1.7850
  817MOL0     H12688   1.977   2.014   5.235  1.4815  0.2854  1.7887
  817MOL0     H12689   1.804   2.100   5.476 -0.5974 -1.9794  1.1611
  817MOL0     H12690   1.720   2.051   5.328  1.3990  0.9048 -3.0464
  817MOL0     H12691   1.877   1.882   5.519  0.0882 -2.6700 -0.7992
  817MOL0     H12692   1.831   1.834   5.358  0.5027 -1.0915  1.0137
  817MOL0     H12693   1.603   1.823   5.400 -1.5990  3.0229  0.4092
  817MOL0     H12694   1.671   1.744   5.531  1.0026 -0.9520 -1.6768
  817MOL0     H12695   1.382   1.954   5.448 -1.8545 -3.8934  1.3419
  817MOL0     H12696   1.202   2.044   5.614 -1.3108 -0.0576  1.1818
  817MOL0     H12697   1.272   2.206   5.593  0.3023 -0.2267 -0.5728
  817MOL0     H12698   1.224   2.084   5.853  1.6059  0.1509 -0.5156
  817MOL0     H12699   1.289   2.249   5.824 -1.2446  0.0767  0.8693
  817MOL0     H12700   1.046   2.256   5.880 -0.9585  5.7783 -2.2392
  817MOL0     H12701   1.079   2.329   5.735  1.5718  0.1977  0.4642
  817MOL0     H12702   0.870   2.184   5.705  0.3927  1.3051 -1.4332
  817MOL0     H12703   1.000   2.129   5.611 -4.2332  0.4046 -1.0500
  817MOL0     H12704   0.928   2.114   6.061  2.7077 -2.3295 -1.2555
  817MOL0     H12705   0.709   2.045   6.320  1.2412  0.5272  0.9276
  817MOL0     H12706   0.693   2.205   6.245  0.2964 -0.1062  1.7686
  817MOL0     H12707   0.849   2.130   6.262 -0.4265  2.4342  0.5171
  817MOL0     H12708   0.304   1.903   5.933 -1.3887  1.8272 -0.7139
  817MOL0     H12709   0.059   1.853   5.911  0.9777 -1.0629  0.1815
  817MOL0     H12710  -0.122   1.852   6.270 -0.2318 -0.0156 -0.0222
  817MOL0     H12711  -0.228   1.886   6.131 -3.3734 -3.4885 -1.7943
  817MOL0     H12712  -0.248   1.627   6.287  0.9226 -1.2094 -1.4267
  817MOL0     H12713  -0.338   1.795   6.311 -1.0586  0.4260 -2.0177
  817MOL0     H12714  -0.321   1.614   6.070 -0.3587 -0.6300 -0.7765
  817MOL0     H12715  -0.423   1.759   6.089  4.2050  1.6197 -0.6343
  817MOL0     H12716  -0.444   1.493   6.247  2.8785  3.3218  2.4346
  817MOL0     H12717  -0.534   1.525   6.105 -1.1818  0.3986  0.9096
  817MOL0     H12718  -0.665   1.710   6.213 -4.2587 -2.5432 -0.3898
  817MOL0     H12719  -0.689   1.553   6.291 -1.4743  1.1386  0.8370
  817MOL0     H12720  -0.528   1.802   6.397  3.5773 -1.5437  0.5780
  817MOL0     H12721  -0.534   1.638   6.477 -0.1627  1.7047  1.3889
  817MOL0     H12722  -0.741   1.853   6.424 -1.7993 -0.0547  0.1848
  817MOL0     H12723  -0.681   1.773   6.572 -0.7452 -2.5283  1.4046
  817MOL0     H12724  -0.904   1.666   6.555  3.9484  4.4371  2.8802
  817MOL0     H12725  -0.828   1.549   6.454 -2.1015 -0.0742 -0.6096
  817MOL0     H12726   0.071   1.690   6.307  0.2613  0.0570 -0.9165
  817MOL0     H12727   0.334   1.707   6.297  0.5344  2.9323 -0.0632
  817MOL0     H12728   0.544   1.876   5.868 -1.3401  1.9215 -0.5840
  817MOL0     H12729   0.741   1.888   5.747 -1.5808 -0.9582 -0.3217
  817MOL0     H12730   2.138   2.473   4.755 -1.0098  1.5735  1.2139
  817MOL0     H12731   2.118   2.423   4.519 -1.2345 -1.0117 -0.5651
  817MOL0     H12732   1.991   2.122   4.244  1.0964  2.1818  0.6789
  817MOL0     H12733   1.992   1.984   4.036 -0.6113  0.1423 -1.1357
  817MOL0     H12734   1.652   1.950   3.773  0.6438  0.2368  0.6610
  817MOL0     H12735   1.703   2.113   3.726 -0.5924 -0.3470 -3.1222
  817MOL0     H12736   1.923   1.964   3.636  0.4591 -1.0434 -0.7862
  817MOL0     H12737   1.793   2.037   3.538  2.8682 -0.7231 -2.3013
  817MOL0     H12738   1.678   1.810   3.573  0.6562  2.0495  1.9779
  817MOL0     H12739   1.827   1.806   3.468  1.6695 -1.0277 -0.2018
  817MOL0     H12740   1.797   1.705   3.766  3.2163  1.7396  1.9904
  817MOL0     H12741   1.953   1.723   3.695 -0.2380 -0.1406  1.4197
  817MOL0     H12742   1.745   1.383   3.521  3.0638  0.1560 -3.6178
  817MOL0     H12743   1.618   2.173   3.939 -0.0387 -1.8484  1.9705
  817MOL0     H12744   1.536   2.301   4.197 -0.4623  3.6382  1.3305
  817MOL0     H12745   1.629   2.451   4.165 -0.2767 -0.1869  2.1928
  817MOL0     H12746   1.544   2.372   4.036  1.3326  1.0826 -0.4013
  818MOL0     O12747   8.266   8.851  10.348  0.0041  0.4994 -0.2990
  818MOL0     C12748   8.235   8.912  10.249  0.3010 -0.7390  0.4233
  818MOL0     O12749   8.124   8.878  10.172 -0.5279 -0.7831 -0.3019
  818MOL0     C12750   8.047   8.763  10.197 -1.0867 -0.4804 -1.0135
  818MOL0     C12751   7.955   8.737  10.304 -0.1583 -0.7749  0.0361
  818MOL0     C12752   7.900   8.610  10.321 -0.0857  0.3531 -1.1050
  818MOL0     C12753   7.938   8.508  10.232 -0.2017  0.3670  0.9183
  818MOL0     O12754   7.873   8.385  10.254 -0.2377 -0.1956 -0.1117
  818MOL0     C12755   7.959   8.269  10.224 -0.2467 -0.0025  0.2870
  818MOL0     C12756   7.923   8.145  10.317 -0.4815 -0.3075 -0.0859
  818MOL0     C12757   7.946   8.185  10.468  0.3181 -0.6623  0.9871
  818MOL0     C12758   7.925   8.067  10.558 -0.0709 -0.0335  0.5241
  818MOL0     C12759   8.020   8.079  10.689  0.1248  0.3728  1.1709
  818MOL0     C12760   8.056   7.937  10.738 -0.5424  0.5307 -0.9753
  818MOL0     C12761   7.947   7.831  10.772  0.0759 -0.5644  0.5675
  818MOL0     C12762   7.985   7.708  10.844 -0.7522  0.3257  0.3550
  818MOL0     N12763   8.019   7.587  10.760  0.8886  0.2262 -1.2643
  818MOL0     C12764   8.126   7.587  10.677  0.6254  0.1281  0.3400
  818MOL0     C12765   8.161   7.457  10.667 -0.5664 -0.4869  0.4102
  818MOL0     C12766   8.281   7.418  10.581  0.1830 -0.4138 -0.2217
  818MOL0     C12767   8.371   7.318  10.662  0.1692  0.2372  0.2785
  818MOL0     C12768   8.442   7.381  10.783 -0.0330  0.2072  0.6735
  818MOL0     C12769   8.448   7.269  10.894  1.1064 -0.1564  0.8435
  818MOL0     O12770   8.508   7.317  11.015  0.5232 -0.2656 -0.3945
  818MOL0     C12771   8.583   7.231  11.085  0.7619  0.1845  0.5442
  818MOL0     C12772   8.527   7.116  11.142 -0.2158  0.1635  0.3050
  818MOL0     C12773   8.616   7.022  11.205  0.7218  0.2754 -0.5365
  818MOL0     C12774   8.558   6.884  11.244  0.6244 -0.0779 -0.2982
  818MOL0     C12775   8.752   7.048  11.206 -0.4398  0.0963 -1.2101
  818MOL0     C12776   8.857   6.958  11.264 -0.5966  0.0413  0.7176
  818MOL0     O12777   8.981   6.990  11.251  0.0802 -1.0768 -0.2606
  818MOL0     C12778   9.082   6.905  11.266 -0.3579 -0.1619  0.4293
  818MOL0     C12779   9.069   6.773  11.215 -0.7220  0.5673 -0.2581
  818MOL0     C12780   9.166   6.681  11.248 -0.0319 -0.0346  0.4367
  818MOL0     C12781   9.281   6.716  11.329  0.2431  0.3917 -0.2276
  818MOL0     O12782   9.374   6.636  11.396  0.6787  1.1087 -0.4309
  818MOL0     C12783   9.402   6.509  11.338  0.1165  0.2400 -0.7604
  818MOL0     C12784   9.535   6.467  11.401 -0.1505  0.1288  0.3558
  818MOL0     C12785   9.583   6.333  11.339  0.2291 -0.1051 -0.7851
  818MOL0     C12786   9.699   6.280  11.419 -0.4051  0.6190  0.1994
  818MOL0     C12787   9.736   6.151  11.332  0.3079 -0.0848  0.6086
  818MOL0     C12788   9.828   6.057  11.395 -0.3651  0.6505 -0.2515
  818MOL0     C12789   9.947   6.122  11.470  1.0263  1.2674 -0.0573
  818MOL0     C12790  10.063   6.024  11.484 -0.1861  0.3019 -0.1235
  818MOL0    Cl12791  10.012   5.878  11.588 -0.1099  0.1679 -0.5619
  818MOL0     C12792   9.297   6.847  11.375 -0.3095 -0.4226 -1.1462
  818MOL0     C12793   9.197   6.941  11.350  0.1809 -0.1600 -0.0051
  818MOL0     O12794   8.821   6.851  11.318  0.1802 -0.1163 -0.5718
  818MOL0     C12795   8.802   7.165  11.153  0.1385 -0.3322 -0.0983
  818MOL0     C12796   8.719   7.251  11.086  0.4088 -0.4185  0.7068
  818MOL0     N12797   8.069   7.379  10.738  0.3197 -0.8468  0.4863
  818MOL0     N12798   7.986   7.457  10.783 -0.3297  0.4202  0.4055
  818MOL0     C12799   8.037   8.536  10.129 -0.4974  0.8724  0.5834
  818MOL0     C12800   8.083   8.662  10.115 -0.5076 -0.4192  1.0757
  818MOL0     C12801   8.339   9.011  10.202  0.0172 -0.3642  0.5726
  818MOL0     C12802   8.457   9.026  10.273 -0.7065  0.7277 -0.3048
  818MOL0     C12803   8.557   9.120  10.239 -0.0148  0.8786  0.0801
  818MOL0     C12804   8.539   9.201  10.127 -0.3855  0.4814  0.0906
  818MOL0     O12805   8.636   9.287  10.104  0.1420 -0.0410 -0.3021
  818MOL0     C12806   8.618   9.429  10.133  0.4285 -0.3728  0.0180
  818MOL0     C12807   8.604   9.508   9.994 -0.3746 -0.0031  0.8094
  818MOL0     C12808   8.741   9.542   9.929 -0.3476  0.9209 -0.6866
  818MOL0     C12809   8.777   9.691   9.912  0.5050 -1.5369  0.8147
  818MOL0     C12810   8.904   9.717   9.846 -0.9751 -0.1720 -0.5866
  818MOL0     C12811   9.019   9.731   9.792  0.7253 -1.4056  0.4734
  818MOL0     C12812   8.425   9.194  10.056  0.2094  0.5976 -1.2429
  818MOL0     C12813   8.325   9.105  10.089 -0.2018 -0.5089  0.1887
  818MOL0     C12814   8.202   9.117   9.998 -0.6008 -0.0007 -0.0015
  818MOL0     H12815   7.940   8.821  10.372 -3.3133 -0.1946 -1.2240
  818MOL0     H12816   7.825   8.579  10.394  1.1435 -0.7051 -0.2341
  818MOL0     H12817   8.066   8.287  10.237 -0.4903  0.9799  1.0811
  818MOL0     H12818   7.940   8.238  10.121 -0.3457  0.1729  0.2518
  818MOL0     H12819   7.817   8.121  10.305 -0.6554  0.0639  0.6654
  818MOL0     H12820   7.981   8.057  10.291 -1.1350 -0.1829 -2.1476
  818MOL0     H12821   8.051   8.217  10.472  0.6948 -2.0032  2.8269
  818MOL0     H12822   7.879   8.260  10.510  1.3016  1.0607 -0.3793
  818MOL0     H12823   7.826   8.066  10.604  0.3927 -0.4900  1.5396
  818MOL0     H12824   7.949   7.973  10.507 -1.6313  1.0369 -2.4292
  818MOL0     H12825   7.967   8.139  10.763  0.9463  1.0031  1.2553
  818MOL0     H12826   8.116   8.123  10.659 -0.9164  1.0813 -1.3359
  818MOL0     H12827   8.122   7.896  10.661 -0.1414  1.4708 -1.1444
  818MOL0     H12828   8.105   7.959  10.834 -2.2228  3.3375 -0.6607
  818MOL0     H12829   7.915   7.789  10.677  1.3986  1.0795 -0.6733
  818MOL0     H12830   7.868   7.881  10.830 -1.0802  0.6745 -1.8815
  818MOL0     H12831   8.072   7.721  10.910  0.4478  1.4575 -1.3475
  818MOL0     H12832   7.904   7.672  10.907 -1.7774 -1.2727 -1.7422
  818MOL0     H12833   8.174   7.669  10.624 -1.3118  0.5220 -0.9276
  818MOL0     H12834   8.341   7.503  10.546 -0.5047 -0.6137 -1.9704
  818MOL0     H12835   8.238   7.365  10.496 -2.8741 -0.8779  1.4823
  818MOL0     H12836   8.312   7.230  10.691  1.0269 -1.0741 -1.7613
  818MOL0     H12837   8.451   7.282  10.597 -0.0607 -0.6004  0.4506
  818MOL0     H12838   8.541   7.411  10.748  0.1182 -0.3222  0.6383
  818MOL0     H12839   8.379   7.461  10.821  0.7538  0.8656  0.6172
  818MOL0     H12840   8.344   7.243  10.912 -0.5691  2.2599 -3.5759
  818MOL0     H12841   8.506   7.189  10.847 -1.9734 -0.2195 -3.5451
  818MOL0     H12842   8.422   7.091  11.125 -0.7827  0.1042  3.3265
  818MOL0     H12843   8.465   6.870  11.188 -0.7107 -5.5167  2.6484
  818MOL0     H12844   8.553   6.861  11.351  2.6442  2.6673  0.4925
  818MOL0     H12845   8.618   6.803  11.202 -0.0228  0.1803 -1.8081
  818MOL0     H12846   8.994   6.739  11.145  1.0153 -0.8125 -1.5292
  818MOL0     H12847   9.166   6.578  11.213  0.1049  1.1241 -3.5055
  818MOL0     H12848   9.334   6.427  11.363 -1.1227  1.3548 -0.3352
  818MOL0     H12849   9.420   6.520  11.231  0.7386  0.2957 -0.6562
  818MOL0     H12850   9.608   6.546  11.380 -0.5559  0.0455 -1.5849
  818MOL0     H12851   9.502   6.447  11.503 -3.4633  1.2671 -0.3757
  818MOL0     H12852   9.606   6.366  11.237 -0.3635  1.9630 -0.3045
  818MOL0     H12853   9.499   6.264  11.343  1.4615 -1.5881  1.0418
  818MOL0     H12854   9.677   6.248  11.521  2.4930 -0.6415  0.5394
  818MOL0     H12855   9.777   6.356  11.416 -0.8528  1.0752 -2.2391
  818MOL0     H12856   9.652   6.083  11.316  1.2804 -1.3838  0.8245
  818MOL0     H12857   9.767   6.176  11.230 -2.2078  2.5759  0.3585
  818MOL0     H12858   9.868   5.993  11.316  2.6220  3.0164 -0.8477
  818MOL0     H12859   9.776   6.008  11.478  2.3275 -1.6006  0.2355
  818MOL0     H12860   9.927   6.157  11.572  2.2590 -0.4004  0.7877
  818MOL0     H12861   9.982   6.209  11.413  0.9329  0.5026 -1.3154
  818MOL0     H12862  10.143   6.081  11.531 -1.0286  3.0865 -1.8722
  818MOL0     H12863  10.089   5.990  11.384 -2.2388  1.9585 -1.3019
  818MOL0     H12864   9.373   6.873  11.447 -1.6269 -0.1187  0.1832
  818MOL0     H12865   9.206   7.039  11.395  1.4334  0.6712 -1.9046
  818MOL0     H12866   8.905   7.197  11.149 -0.3712  1.4023 -0.5217
  818MOL0     H12867   8.763   7.334  11.033 -0.7664  0.7368  1.4736
  818MOL0     H12868   8.048   8.465  10.047 -1.7903  0.2469  0.9167
  818MOL0     H12869   8.148   8.682  10.031 -0.0201  2.7753  2.0456
  818MOL0     H12870   8.461   8.969  10.365 -1.3906 -2.2037 -1.9621
  818MOL0     H12871   8.652   9.099  10.288 -0.4640 -0.6772  0.3049
  818MOL0     H12872   8.518   9.437  10.178  0.4235 -1.2180  0.1623
  818MOL0     H12873   8.688   9.474  10.204  0.7324  0.6572 -0.8995
  818MOL0     H12874   8.546   9.597  10.019  0.7211  0.8573  0.3559
  818MOL0     H12875   8.547   9.437   9.933  0.1477 -0.7172  1.1397
  818MOL0     H12876   8.819   9.479   9.974 -0.0497  2.2561  0.7757
  818MOL0     H12877   8.760   9.491   9.835 -2.0421  1.1849 -1.1940
  818MOL0     H12878   8.780   9.737  10.011 -0.4979  0.9753 -0.2353
  818MOL0     H12879   8.697   9.751   9.868  1.1970 -2.3001 -1.6705
  818MOL0     H12880   9.111   9.757   9.744 -0.1258  3.5922  1.0214
  818MOL0     H12881   8.418   9.269   9.978  0.9019  0.0057 -1.8843
  818MOL0     H12882   8.195   9.209   9.939  2.9005 -1.3443 -2.8545
  818MOL0     H12883   8.221   9.046   9.917  0.6487 -1.8871  1.8560
  818MOL0     H12884   8.107   9.098  10.050  0.8296 -0.5020  2.5900
  819MOL0     O12885   9.654   7.087  10.566 -0.3212  0.7458  0.0355
  819MOL0     C12886   9.767   7.134  10.571  0.3277  1.4590 -0.5821
  819MOL0     O12887   9.817   7.233  10.492  1.1751  0.8884 -0.9636
  819MOL0     C12888   9.748   7.292  10.392  0.8710 -0.1890  0.2075
  819MOL0     C12889   9.821   7.317  10.282  0.7296  0.7299 -0.4702
  819MOL0     C12890   9.758   7.378  10.171  0.4758 -0.0455  0.6265
  819MOL0     C12891   9.618   7.393  10.162  1.1596  0.4937 -0.1446
  819MOL0     O12892   9.549   7.440  10.045  0.2050 -0.5320 -0.6190
  819MOL0     C12893   9.584   7.579  10.008  0.2581 -0.4304  0.0214
  819MOL0     C12894   9.512   7.602   9.870 -1.1215 -0.4044 -0.1887
  819MOL0     C12895   9.551   7.497   9.762  0.0867 -0.0327 -0.7140
  819MOL0     C12896   9.491   7.541   9.630  0.5368 -0.2228  0.1571
  819MOL0     C12897   9.475   7.413   9.535  0.2187 -0.7246 -0.6624
  819MOL0     C12898   9.413   7.445   9.403  0.2777 -0.7124 -0.0650
  819MOL0     C12899   9.374   7.314   9.326 -0.3394  0.9208  0.9284
  819MOL0     C12900   9.501   7.251   9.276  0.6219  0.2750  0.3111
  819MOL0     N12901   9.574   7.315   9.162  0.8351 -0.8066 -0.0243
  819MOL0     C12902   9.699   7.354   9.162 -0.2062  0.1309 -0.1986
  819MOL0     C12903   9.745   7.349   9.030  0.9770 -0.8122 -0.3103
  819MOL0     C12904   9.878   7.403   8.986 -0.1924 -0.8634 -0.5642
  819MOL0     C12905   9.878   7.484   8.854  1.0619  0.3362  0.3422
  819MOL0     C12906  10.010   7.552   8.828 -0.3271  0.0346 -0.8011
  819MOL0     C12907  10.124   7.465   8.793  1.0333  1.1907  0.0673
  819MOL0     O12908  10.201   7.442   8.914 -0.4464  0.0173 -0.3835
  819MOL0     C12909  10.335   7.443   8.892 -0.2725 -0.7288  0.7655
  819MOL0     C12910  10.387   7.352   8.795 -0.4748  1.2240  0.1581
  819MOL0     C12911  10.526   7.334   8.770  0.7135  0.1690 -0.2846
  819MOL0     C12912  10.574   7.243   8.660 -0.1271  0.0038  0.0527
  819MOL0     C12913  10.616   7.413   8.846 -1.2356  0.2536  0.1334
  819MOL0     C12914  10.765   7.408   8.831  0.3538  1.2923 -0.4489
  819MOL0     O12915  10.830   7.517   8.885 -0.2830 -0.3867  0.1769
  819MOL0     C12916  10.968   7.504   8.915  1.2511 -0.1384  1.3429
  819MOL0     C12917  11.069   7.496   8.814 -0.0897 -0.4543  0.1087
  819MOL0     C12918  11.205   7.475   8.852  0.2856 -0.2612  0.4838
  819MOL0     C12919  11.241   7.473   8.985 -0.5195 -0.0375  0.2491
  819MOL0     O12920  11.372   7.467   9.031 -0.5125 -0.3505  0.9040
  819MOL0     C12921  11.483   7.499   8.943  0.0249  1.3992  0.1063
  819MOL0     C12922  11.618   7.527   9.020  0.4083  0.6199  0.0285
  819MOL0     C12923  11.609   7.472   9.157 -0.2177 -1.1131  0.4631
  819MOL0     C12924  11.746   7.464   9.217 -0.0366  0.0806 -0.5047
  819MOL0     C12925  11.746   7.454   9.377  0.6245 -0.4937 -0.5790
  819MOL0     C12926  11.889   7.421   9.420  1.4206  0.0416 -0.1593
  819MOL0     C12927  11.903   7.362   9.562  0.1313 -0.5899  0.0433
  819MOL0     C12928  12.057   7.389   9.613  0.6091 -0.2915  0.6720
  819MOL0    Cl12929  12.174   7.346   9.474  0.3527  0.0412  0.1353
  819MOL0     C12930  11.142   7.463   9.078  0.5201  0.9381  0.8639
  819MOL0     C12931  11.000   7.483   9.052 -0.0835  0.1505  0.1021
  819MOL0     O12932  10.807   7.299   8.795  0.3063 -0.0778  0.3104
  819MOL0     C12933  10.562   7.506   8.933  0.2783  0.3274 -0.3438
  819MOL0     C12934  10.420   7.529   8.959 -0.7354  0.2851 -0.4662
  819MOL0     N12935   9.636   7.300   8.957  0.3263  0.7113 -0.2185
  819MOL0     N12936   9.530   7.291   9.037  0.6653 -0.3831  0.6589
  819MOL0     C12937   9.546   7.371  10.279 -0.2772  0.1301  0.3295
  819MOL0     C12938   9.605   7.322  10.398  0.0340 -0.5461 -0.5820
  819MOL0     C12939   9.855   7.074  10.675  0.2312  1.6182 -0.4218
  819MOL0     C12940   9.797   6.968  10.757 -0.7740  0.0492  0.4992
  819MOL0     C12941   9.881   6.907  10.854  1.4520 -0.9540  0.1078
  819MOL0     C12942  10.014   6.948  10.867 -0.2897  0.1208  0.4959
  819MOL0     O12943  10.090   6.903  10.967  0.8561  0.6076 -0.5281
  819MOL0     C12944  10.082   6.982  11.092  0.3098 -1.3014  0.1213
  819MOL0     C12945  10.206   7.066  11.121  0.0842  0.3972 -0.4208
  819MOL0     C12946  10.177   7.156  11.235 -1.0589 -0.2534  0.2478
  819MOL0     C12947  10.176   7.070  11.361 -0.0576  0.3122  0.5508
  819MOL0     C12948  10.173   7.139  11.488  1.3222 -0.1421 -0.2034
  819MOL0     C12949  10.200   7.194  11.599 -0.6959  0.9221  0.5233
  819MOL0     C12950  10.067   7.032  10.772 -0.2956  0.7801 -0.7441
  819MOL0     C12951   9.991   7.090  10.676  0.0229 -0.5455  0.8434
  819MOL0     C12952  10.068   7.154  10.566  0.4111 -0.0074  0.6796
  819MOL0     H12953   9.924   7.282  10.271 -0.2064 -2.2516 -0.8954
  819MOL0     H12954   9.808   7.396  10.077 -1.1377 -0.2549 -0.2953
  819MOL0     H12955   9.685   7.593   9.969 -0.4161  1.5791 -1.1777
  819MOL0     H12956   9.555   7.647  10.090 -2.2953 -0.2549 -0.9226
  819MOL0     H12957   9.404   7.603   9.885 -0.8654  0.4260  1.8733
  819MOL0     H12958   9.534   7.700   9.827 -6.1352 -0.1213 -2.8652
  819MOL0     H12959   9.657   7.470   9.753 -0.0163 -0.1394 -1.6136
  819MOL0     H12960   9.508   7.399   9.787  1.3359 -0.6805 -1.0277
  819MOL0     H12961   9.395   7.592   9.642  0.9766  0.4897  0.6931
  819MOL0     H12962   9.559   7.611   9.579  1.4742 -2.4153 -1.8025
  819MOL0     H12963   9.414   7.339   9.587  1.8306 -1.9050 -0.3817
  819MOL0     H12964   9.575   7.371   9.521  0.8269  0.2949  0.4044
  819MOL0     H12965   9.322   7.505   9.412  0.5004 -0.5413  1.2861
  819MOL0     H12966   9.489   7.501   9.348  1.4201  0.8002  2.8610
  819MOL0     H12967   9.301   7.333   9.246  0.3112 -2.6720 -0.6941
  819MOL0     H12968   9.332   7.246   9.400  1.2822 -0.4780  0.6006
  819MOL0     H12969   9.565   7.223   9.360  0.6401  0.0405  0.2218
  819MOL0     H12970   9.472   7.154   9.233  2.2692  0.0865 -0.4494
  819MOL0     H12971   9.753   7.373   9.255  0.9126 -2.0058 -0.3526
  819MOL0     H12972   9.956   7.328   8.975 -2.5891 -3.4492 -1.0100
  819MOL0     H12973   9.915   7.471   9.063  3.1660 -2.3979 -0.6429
  819MOL0     H12974   9.852   7.412   8.775  0.8618  2.5707 -1.7415
  819MOL0     H12975   9.797   7.557   8.857  0.9345  0.5265 -3.2499
  819MOL0     H12976   9.992   7.622   8.747  0.5416  0.3941 -0.6894
  819MOL0     H12977  10.038   7.620   8.909 -0.3990  0.4966 -1.1671
  819MOL0     H12978  10.088   7.368   8.757 -1.5622  2.7047 -1.7433
  819MOL0     H12979  10.172   7.515   8.708 -0.5961  1.0151 -0.9887
  819MOL0     H12980  10.320   7.290   8.737  0.2361  0.9074 -0.3460
  819MOL0     H12981  10.616   7.301   8.578 -1.5290  0.5949 -0.2818
  819MOL0     H12982  10.492   7.185   8.616  0.2087  1.4320 -2.6571
  819MOL0     H12983  10.649   7.174   8.701  2.1166  0.9375 -2.2442
  819MOL0     H12984  11.055   7.513   8.708  2.0525 -0.1563 -0.1610
  819MOL0     H12985  11.280   7.464   8.775  2.4161 -2.7745  2.6791
  819MOL0     H12986  11.506   7.413   8.879  6.2113  0.7863  2.5003
  819MOL0     H12987  11.468   7.585   8.876 -2.6822 -0.6828 -2.2151
  819MOL0     H12988  11.702   7.487   8.962 -0.4294 -0.2429 -0.6438
  819MOL0     H12989  11.635   7.635   9.027 -0.4314  0.7960 -0.4532
  819MOL0     H12990  11.585   7.365   9.159  5.4368 -2.6780  0.8515
  819MOL0     H12991  11.545   7.539   9.215  2.4729  4.2384 -2.0187
  819MOL0     H12992  11.806   7.545   9.174 -0.6022 -0.3601 -2.2053
  819MOL0     H12993  11.782   7.371   9.172 -0.8543 -0.1303 -0.7331
  819MOL0     H12994  11.704   7.549   9.412 -1.2199 -0.3576 -2.8937
  819MOL0     H12995  11.674   7.374   9.399  2.1191 -1.6225  0.4791
  819MOL0     H12996  11.951   7.510   9.407  0.4494  0.7799  0.1068
  819MOL0     H12997  11.918   7.339   9.353 -2.4680 -1.0842 -0.7551
  819MOL0     H12998  11.880   7.257   9.545  4.5276 -2.0405  1.6313
  819MOL0     H12999  11.827   7.393   9.635 -0.5434 -0.3736 -0.7363
  819MOL0     H13000  12.063   7.331   9.705  0.1553 -2.2882 -0.5019
  819MOL0     H13001  12.086   7.493   9.631  4.0603 -1.1681  0.7481
  819MOL0     H13002  11.186   7.457   9.177  3.1977  0.6197 -0.2663
  819MOL0     H13003  10.930   7.489   9.134  1.6055 -2.7891  1.9437
  819MOL0     H13004  10.628   7.570   8.990  2.8822 -0.9607 -1.7433
  819MOL0     H13005  10.385   7.614   9.016  2.6887 -0.2314  2.7625
  819MOL0     H13006   9.444   7.407  10.289 -0.5962 -1.2939  3.3185
  819MOL0     H13007   9.550   7.299  10.489  1.2599 -1.9601 -0.1656
  819MOL0     H13008   9.692   6.942  10.747 -1.9592  4.2118  0.3837
  819MOL0     H13009   9.840   6.844  10.932  1.0282 -0.8088  0.0012
  819MOL0     H13010   9.999   7.053  11.101  1.8179  0.6859 -0.7562
  819MOL0     H13011  10.070   6.912  11.175  0.5191  2.0580  3.2360
  819MOL0     H13012  10.226   7.131  11.036 -1.2908 -0.5095 -1.4798
  819MOL0     H13013  10.292   6.998  11.130  0.3339  0.7004 -0.5151
  819MOL0     H13014  10.264   7.221  11.250  1.6302 -3.0430 -1.9216
  819MOL0     H13015  10.077   7.198  11.219 -3.5139 -5.3008  0.4326
  819MOL0     H13016  10.266   7.008  11.357  0.1949  0.6628  0.6910
  819MOL0     H13017  10.083   7.014  11.350 -0.1264  0.4834  0.2557
  819MOL0     H13018  10.226   7.218  11.700  1.6933 -0.5401  0.3302
  819MOL0     H13019  10.175   7.033  10.779 -0.3015 -1.6096  0.9653
  819MOL0     H13020  10.051   7.262  10.568 -1.4937 -0.2332 -0.6277
  819MOL0     H13021  10.175   7.130  10.568  0.0373 -1.8580  0.0065
  819MOL0     H13022  10.033   7.127  10.466 -0.2998  0.8624  0.6824
  820MOL0     O13023   2.836   4.477   0.087  0.2144 -0.2194 -0.5289
  820MOL0     C13024   2.812   4.567   0.012  0.2281 -0.1038  0.4115
  820MOL0     O13025   2.700   4.642   0.016  0.0934  0.5079 -0.0680
  820MOL0     C13026   2.603   4.600   0.109 -0.4200 -0.4247  0.0889
  820MOL0     C13027   2.586   4.674   0.228 -0.4001  0.5715 -0.5067
  820MOL0     C13028   2.486   4.647   0.326 -0.0003 -0.5462 -0.0510
  820MOL0     C13029   2.417   4.520   0.307 -0.4111  0.8381  0.2134
  820MOL0     O13030   2.329   4.468   0.399  0.4755 -0.6105  0.0077
  820MOL0     C13031   2.383   4.344   0.455 -0.6578 -0.6490 -0.0579
  820MOL0     C13032   2.316   4.307   0.592  0.3718  0.5390  0.3189
  820MOL0     C13033   2.346   4.421   0.683 -0.9148 -0.2931  0.7578
  820MOL0     C13034   2.302   4.385   0.831 -0.2306 -0.6378  0.3531
  820MOL0     C13035   2.401   4.306   0.917 -0.2729  0.2002  0.2676
  820MOL0     C13036   2.485   4.401   0.998  0.0053 -0.2046  0.1477
  820MOL0     C13037   2.619   4.332   1.048  0.3839 -0.3398 -0.5692
  820MOL0     C13038   2.727   4.323   0.950  0.1663 -0.3604  1.3434
  820MOL0     N13039   2.859   4.289   0.993 -0.3742  0.5487  0.3395
  820MOL0     C13040   2.902   4.197   1.085  1.0063  0.3054 -0.5418
  820MOL0     C13041   3.030   4.239   1.121  0.5205 -0.7686  0.2025
  820MOL0     C13042   3.130   4.192   1.219 -0.0091  0.4363 -0.7823
  820MOL0     C13043   3.227   4.095   1.167  0.5061  0.0010  0.2097
  820MOL0     C13044   3.300   4.018   1.278  0.2408 -0.0827 -0.1484
  820MOL0     C13045   3.389   3.914   1.223 -0.2679  1.5878  0.1318
  820MOL0     O13046   3.508   3.983   1.196 -0.4279 -0.8248  0.3235
  820MOL0     C13047   3.624   3.911   1.212 -1.2755 -0.9820 -0.1958
  820MOL0     C13048   3.747   3.980   1.195  1.1099 -0.1538  0.1815
  820MOL0     C13049   3.878   3.925   1.193 -0.0042  0.2836 -0.9566
  820MOL0     C13050   3.998   4.013   1.205  0.4598  0.2051 -0.5688
  820MOL0     C13051   3.891   3.792   1.210 -0.5683 -0.3395 -0.2654
  820MOL0     C13052   4.022   3.726   1.227  0.4830  0.9566  0.9143
  820MOL0     O13053   4.094   3.691   1.107  0.0612  0.9310 -0.2032
  820MOL0     C13054   4.201   3.601   1.099  0.1283  0.1371 -1.0349
  820MOL0     C13055   4.261   3.538   1.202 -0.0679  1.3466  0.4360
  820MOL0     C13056   4.372   3.452   1.188 -0.3998  0.2537 -0.6546
  820MOL0     C13057   4.431   3.439   1.064 -0.3105  0.8976 -0.6631
  820MOL0     O13058   4.546   3.377   1.060 -0.7329  0.9245  0.0431
  820MOL0     C13059   4.632   3.411   0.947  0.6028  0.0905  0.3328
  820MOL0     C13060   4.772   3.406   0.996  0.4162  0.5991  1.5033
  820MOL0     C13061   4.864   3.378   0.879 -0.3135 -0.6150 -0.7653
  820MOL0     C13062   5.007   3.317   0.917 -0.3753 -0.3585 -0.6628
  820MOL0     C13063   5.102   3.290   0.805  0.2288  1.5501  0.7737
  820MOL0     C13064   5.145   3.139   0.801 -0.4087 -1.1569 -0.1476
  820MOL0     C13065   5.263   3.096   0.694 -0.4754  0.5189  0.5736
  820MOL0     C13066   5.219   3.126   0.555 -0.7027  0.5618 -0.4747
  820MOL0    Cl13067   5.202   3.292   0.495 -0.0111 -0.3953  0.1374
  820MOL0     C13068   4.359   3.505   0.956 -0.4926 -0.1629  0.9459
  820MOL0     C13069   4.255   3.593   0.975  0.0080  0.4581  0.0654
  820MOL0     O13070   4.067   3.722   1.340 -0.3479 -0.1570 -0.7206
  820MOL0     C13071   3.783   3.714   1.219  0.2697 -0.4021  0.3744
  820MOL0     C13072   3.651   3.768   1.223 -1.2500 -0.9361 -0.0325
  820MOL0     N13073   3.054   4.342   1.046  0.1001 -0.0342 -0.3452
  820MOL0     N13074   2.964   4.375   0.971  0.6353 -0.5917 -0.1292
  820MOL0     C13075   2.447   4.436   0.195 -0.2067 -0.0244 -0.4180
  820MOL0     C13076   2.538   4.478   0.094  0.4965 -1.1643 -0.7730
  820MOL0     C13077   2.910   4.604  -0.093 -0.5830 -0.0029  0.8315
  820MOL0     C13078   2.890   4.712  -0.174 -0.2595 -0.3102  0.9953
  820MOL0     C13079   2.986   4.769  -0.255  0.4218 -0.6837  0.0913
  820MOL0     C13080   3.107   4.714  -0.270 -0.6634 -0.6339  0.0998
  820MOL0     O13081   3.194   4.770  -0.358 -0.9369  0.0126  0.6773
  820MOL0     C13082   3.304   4.697  -0.410  0.1686 -0.3773  0.4545
  820MOL0     C13083   3.265   4.698  -0.564 -0.1582  0.7663  0.9638
  820MOL0     C13084   3.384   4.668  -0.654 -0.9497 -0.2652  1.0900
  820MOL0     C13085   3.446   4.518  -0.638  0.7653  0.1401 -0.5977
  820MOL0     C13086   3.522   4.507  -0.511 -0.9871  0.0627 -0.7164
  820MOL0     C13087   3.578   4.505  -0.407 -0.4371 -0.3643 -0.0095
  820MOL0     C13088   3.145   4.604  -0.195 -0.5398  0.1054  0.0620
  820MOL0     C13089   3.047   4.547  -0.104  0.1599 -0.3301  0.3855
  820MOL0     C13090   3.104   4.433  -0.014  0.3625  0.8198 -0.6300
  820MOL0     H13091   2.644   4.764   0.248  1.0994 -1.0893  3.8323
  820MOL0     H13092   2.467   4.714   0.409 -1.0798 -3.0987  1.9148
  820MOL0     H13093   2.491   4.361   0.457 -0.7976  0.8168  3.6879
  820MOL0     H13094   2.364   4.259   0.389 -2.0158  0.2747 -0.9009
  820MOL0     H13095   2.210   4.292   0.572  0.1256  2.5917 -0.1215
  820MOL0     H13096   2.364   4.215   0.628  2.1604  1.7240  1.0949
  820MOL0     H13097   2.450   4.453   0.679 -0.3063 -1.7139  2.9343
  820MOL0     H13098   2.286   4.507   0.653  2.0952  1.7264  0.1684
  820MOL0     H13099   2.288   4.484   0.875 -0.4204 -0.2652 -0.5333
  820MOL0     H13100   2.213   4.321   0.822 -1.3002  0.9757 -0.9103
  820MOL0     H13101   2.460   4.240   0.852  0.0297 -0.8814  1.5893
  820MOL0     H13102   2.353   4.238   0.988  0.8398 -0.7515  0.1513
  820MOL0     H13103   2.522   4.488   0.944  1.3283 -0.8766 -0.0591
  820MOL0     H13104   2.427   4.422   1.089 -0.7720 -2.1579  0.1554
  820MOL0     H13105   2.606   4.227   1.076 -2.1572 -0.8451 -3.1695
  820MOL0     H13106   2.662   4.387   1.132 -0.3575  0.0845 -0.4603
  820MOL0     H13107   2.698   4.252   0.871  3.4603  1.0109 -1.3437
  820MOL0     H13108   2.732   4.421   0.903 -1.5789 -1.8488 -2.3538
  820MOL0     H13109   2.847   4.115   1.129  0.9913  0.8188  0.4326
  820MOL0     H13110   3.081   4.169   1.314 -1.1134  2.9124 -0.6835
  820MOL0     H13111   3.184   4.280   1.256  1.0065 -0.9212  1.1265
  820MOL0     H13112   3.176   4.018   1.109  1.1715  2.6029 -4.2388
  820MOL0     H13113   3.298   4.153   1.107  0.8271 -0.9548 -0.3581
  820MOL0     H13114   3.352   4.090   1.342 -1.3095 -0.4484  1.5726
  820MOL0     H13115   3.221   3.969   1.335  0.0753  0.1656 -0.1632
  820MOL0     H13116   3.397   3.840   1.303 -1.6499  1.5933  0.2938
  820MOL0     H13117   3.347   3.863   1.136 -2.3068 -1.2020  2.5776
  820MOL0     H13118   3.729   4.087   1.193  1.1287 -0.1541 -0.0782
  820MOL0     H13119   3.979   4.097   1.138 -0.2157 -0.1029 -0.7790
  820MOL0     H13120   4.094   3.964   1.187  1.3415  1.3005  0.9839
  820MOL0     H13121   3.994   4.043   1.309  0.2788  0.7966 -0.7441
  820MOL0     H13122   4.224   3.534   1.304  1.3509 -0.8988  0.9297
  820MOL0     H13123   4.410   3.400   1.275 -0.5507 -0.1879 -0.8491
  820MOL0     H13124   4.626   3.334   0.870  0.1690  1.9502 -1.5777
  820MOL0     H13125   4.612   3.507   0.900  0.1307 -0.6203 -0.9786
  820MOL0     H13126   4.798   3.501   1.043 -2.1436  0.9923  2.2923
  820MOL0     H13127   4.787   3.325   1.068  1.5223 -0.6138 -0.0160
  820MOL0     H13128   4.886   3.470   0.823  1.9721 -0.7958 -0.2662
  820MOL0     H13129   4.822   3.302   0.813  1.0417  0.0039 -2.4318
  820MOL0     H13130   4.985   3.222   0.966  0.8429 -0.4262 -0.2204
  820MOL0     H13131   5.049   3.383   0.994  0.8468  0.0166 -1.6162
  820MOL0     H13132   5.048   3.308   0.712 -0.7304 -0.5441  0.8809
  820MOL0     H13133   5.193   3.348   0.819  2.1839 -1.2282  0.3971
  820MOL0     H13134   5.061   3.072   0.778  1.1050 -3.1812 -0.0736
  820MOL0     H13135   5.176   3.109   0.901 -3.3536 -4.3931 -0.0095
  820MOL0     H13136   5.299   2.994   0.706  4.6370  1.4365 -3.2197
  820MOL0     H13137   5.351   3.161   0.702  0.1258 -0.3870  1.6579
  820MOL0     H13138   5.125   3.082   0.519  0.1682 -0.6134 -1.4038
  820MOL0     H13139   5.303   3.083   0.500 -0.5749  0.9237 -0.5609
  820MOL0     H13140   4.393   3.514   0.853 -1.2922  2.8158  0.8603
  820MOL0     H13141   4.217   3.650   0.891  1.5836  3.3901  1.1806
  820MOL0     H13142   3.790   3.606   1.230 -3.3378 -0.8113 -0.2027
  820MOL0     H13143   3.581   3.685   1.227  2.5014 -4.4535  0.1346
  820MOL0     H13144   2.395   4.341   0.185 -1.0620  0.6321 -3.0298
  820MOL0     H13145   2.557   4.411   0.011  0.2030 -1.5465 -0.5313
  820MOL0     H13146   2.791   4.757  -0.171  0.5896  1.6190  1.1710
  820MOL0     H13147   2.966   4.858  -0.313 -2.8049 -1.1275  0.3185
  820MOL0     H13148   3.394   4.758  -0.403 -0.1654  0.4478 -1.6386
  820MOL0     H13149   3.307   4.592  -0.377 -2.0925 -1.1239 -1.4532
  820MOL0     H13150   3.218   4.791  -0.596 -2.6316 -1.1738 -1.5242
  820MOL0     H13151   3.180   4.632  -0.583  2.2757 -2.7126  1.1947
  820MOL0     H13152   3.353   4.676  -0.759  2.0035 -2.6763 -0.1341
  820MOL0     H13153   3.452   4.751  -0.631 -2.4138  0.9385  1.2340
  820MOL0     H13154   3.516   4.496  -0.719  0.5081 -0.5234 -0.6416
  820MOL0     H13155   3.362   4.448  -0.641  0.0177  0.9024  0.8629
  820MOL0     H13156   3.639   4.514  -0.319 -3.5023 -1.6971  2.4405
  820MOL0     H13157   3.247   4.566  -0.194 -0.5837 -0.0090  0.2839
  820MOL0     H13158   3.172   4.374  -0.076  0.5751  1.0719 -0.6372
  820MOL0     H13159   3.151   4.465   0.080  0.9947 -3.2804  0.6665
  820MOL0     H13160   3.029   4.361   0.022  1.8669  0.4315  2.0423
  821MOL0     O13161   2.325   1.533   6.407 -0.2873  0.3543 -0.6130
  821MOL0     C13162   2.295   1.545   6.528  0.3238  1.2302  0.3537
  821MOL0     O13163   2.205   1.634   6.579  0.2646  0.2270 -0.5780
  821MOL0     C13164   2.157   1.731   6.501 -0.0283  0.5903  0.4840
  821MOL0     C13165   2.021   1.739   6.479  0.7204 -1.4985  0.3065
  821MOL0     C13166   1.970   1.853   6.409  0.6004  0.4413  0.5258
  821MOL0     C13167   2.050   1.959   6.350 -1.1577 -0.2688  0.2453
  821MOL0     O13168   2.004   2.064   6.274 -0.1562 -0.7495 -0.4278
  821MOL0     C13169   1.864   2.082   6.282 -0.9442 -0.2520 -0.3703
  821MOL0     C13170   1.791   2.012   6.181 -0.0199  0.0316  0.3964
  821MOL0     C13171   1.646   2.002   6.201  0.3533 -0.6811  0.2179
  821MOL0     C13172   1.573   2.141   6.218  0.1830 -0.7130 -0.2914
  821MOL0     C13173   1.567   2.229   6.092 -0.3268  0.1531 -0.2569
  821MOL0     C13174   1.513   2.373   6.114 -0.2183  0.4333  0.2267
  821MOL0     C13175   1.356   2.385   6.127  0.1804 -0.1238  0.1415
  821MOL0     C13176   1.305   2.525   6.185 -1.1228  0.2811 -0.3188
  821MOL0     N13177   1.293   2.621   6.071 -0.0843 -0.9945 -0.7997
  821MOL0     C13178   1.238   2.751   6.086  0.0516  0.2592 -0.1500
  821MOL0     C13179   1.224   2.792   5.957 -0.9910  0.8175  0.0352
  821MOL0     C13180   1.198   2.925   5.903 -0.0191 -0.0467 -0.4685
  821MOL0     C13181   1.316   2.991   5.816  0.1678 -0.1183  0.0568
  821MOL0     C13182   1.306   3.137   5.768  0.2794 -0.2115  0.1294
  821MOL0     C13183   1.428   3.157   5.679  0.4436  0.5303 -0.0468
  821MOL0     O13184   1.422   3.066   5.569  0.4439  0.1902  0.3759
  821MOL0     C13185   1.522   3.051   5.474  0.1767  0.1952 -0.6007
  821MOL0     C13186   1.529   2.926   5.407  0.1188 -0.1436 -0.2419
  821MOL0     C13187   1.623   2.900   5.309 -0.3519  0.4553  1.6720
  821MOL0     C13188   1.608   2.770   5.234 -0.5207 -0.2858  0.1775
  821MOL0     C13189   1.714   2.998   5.259  0.5553 -0.8789  0.5069
  821MOL0     C13190   1.796   2.979   5.138  0.4388 -0.1797  0.4530
  821MOL0     O13191   1.803   3.086   5.055  0.6013  0.2297 -0.2896
  821MOL0     C13192   1.833   3.071   4.920  0.1230 -0.3297 -0.2878
  821MOL0     C13193   1.812   2.952   4.856 -0.4961 -0.3005  0.1524
  821MOL0     C13194   1.845   2.938   4.720 -0.3437  0.8837  0.0084
  821MOL0     C13195   1.890   3.046   4.639  0.1327  0.3013  0.1852
  821MOL0     O13196   1.934   3.039   4.506 -0.0041  1.1971 -0.0728
  821MOL0     C13197   1.875   2.934   4.425 -0.5187  1.1904  0.1969
  821MOL0     C13198   1.852   2.979   4.278 -0.4164 -0.1831 -0.2395
  821MOL0     C13199   1.805   2.863   4.192 -0.1319 -0.4850  0.0875
  821MOL0     C13200   1.751   2.926   4.060 -1.2223 -0.2936  1.0685
  821MOL0     C13201   1.678   2.824   3.980  0.2647 -0.5351  0.0570
  821MOL0     C13202   1.660   2.887   3.846 -0.2021 -0.2814 -0.0243
  821MOL0     C13203   1.573   2.811   3.746 -0.4367 -0.2294  0.0137
  821MOL0     C13204   1.644   2.686   3.698 -0.7087  0.2503  0.0216
  821MOL0    Cl13205   1.557   2.592   3.576  0.0786 -0.1793 -0.2036
  821MOL0     C13206   1.916   3.166   4.705  0.4280  0.5395  0.4618
  821MOL0     C13207   1.884   3.178   4.844 -0.8579  0.5366  0.6331
  821MOL0     O13208   1.874   2.880   5.139  0.1133 -1.0307  0.1699
  821MOL0     C13209   1.708   3.121   5.329  0.4536 -0.0073  0.8441
  821MOL0     C13210   1.619   3.143   5.440 -0.3060  0.4598  0.6865
  821MOL0     N13211   1.253   2.689   5.863 -0.4203 -1.2365  0.0075
  821MOL0     N13212   1.295   2.597   5.932  0.7949 -0.2929 -0.7832
  821MOL0     C13213   2.188   1.934   6.365 -0.1624  0.2258  0.4360
  821MOL0     C13214   2.238   1.830   6.448  0.0309 -0.8739  0.4040
  821MOL0     C13215   2.347   1.443   6.618  0.1727  0.4902 -0.8311
  821MOL0     C13216   2.262   1.401   6.726 -1.0409  0.1526 -0.1807
  821MOL0     C13217   2.311   1.313   6.819 -0.5477  0.1120  0.1844
  821MOL0     C13218   2.436   1.242   6.796 -0.7718 -0.4141 -0.5954
  821MOL0     O13219   2.481   1.139   6.882 -0.0421  0.4466  0.5846
  821MOL0     C13220   2.384   1.080   6.972 -0.7938  0.3860 -0.5746
  821MOL0     C13221   2.457   0.997   7.074  0.1215  0.4413 -1.3244
  821MOL0     C13222   2.350   0.896   7.145  0.0869 -0.7620  0.1179
  821MOL0     C13223   2.281   0.960   7.271  0.6864 -0.1852  0.9074
  821MOL0     C13224   2.187   0.865   7.341  0.2727 -0.4871  0.1612
  821MOL0     C13225   2.108   0.783   7.390 -0.9254  0.5444 -0.3876
  821MOL0     C13226   2.510   1.275   6.684 -0.4994 -0.1364 -0.5374
  821MOL0     C13227   2.470   1.379   6.597 -0.4805  0.9285 -0.5530
  821MOL0     C13228   2.571   1.424   6.497 -0.3168 -0.1725  1.0038
  821MOL0     H13229   1.950   1.669   6.522 -2.3185  2.4139  2.3904
  821MOL0     H13230   1.862   1.855   6.406  0.6165  1.5604  0.5396
  821MOL0     H13231   1.852   2.186   6.254 -0.2715 -0.6059 -2.0546
  821MOL0     H13232   1.832   2.070   6.386  0.4158 -0.2066  0.0667
  821MOL0     H13233   1.810   2.067   6.088 -0.5299 -0.1661  0.1660
  821MOL0     H13234   1.829   1.909   6.173  0.2962  0.2639 -2.1199
  821MOL0     H13235   1.598   1.953   6.115  2.0017  0.9490 -1.7473
  821MOL0     H13236   1.637   1.935   6.287 -0.3611  0.6416  1.2159
  821MOL0     H13237   1.473   2.114   6.251 -0.1230  0.5455 -0.1571
  821MOL0     H13238   1.621   2.193   6.301 -0.3650 -0.5572 -0.0729
  821MOL0     H13239   1.488   2.179   6.035 -0.3015  1.3884 -1.4344
  821MOL0     H13240   1.664   2.232   6.041  1.1185 -1.5411  2.1504
  821MOL0     H13241   1.559   2.397   6.210 -0.2739 -3.5170  1.4276
  821MOL0     H13242   1.539   2.440   6.031 -1.1889 -0.1759 -0.5998
  821MOL0     H13243   1.322   2.317   6.206 -1.3895 -0.3981 -0.7209
  821MOL0     H13244   1.299   2.353   6.039  1.7614  0.6538 -1.2211
  821MOL0     H13245   1.202   2.516   6.220 -1.2169  1.5928 -0.1819
  821MOL0     H13246   1.363   2.552   6.275  0.8143 -2.7526 -0.5086
  821MOL0     H13247   1.230   2.811   6.176 -0.6108 -1.9047  1.2884
  821MOL0     H13248   1.193   2.980   5.998  0.5826 -0.4319 -0.2029
  821MOL0     H13249   1.102   2.923   5.851 -0.7891 -1.2352  0.9199
  821MOL0     H13250   1.406   2.979   5.877 -0.2550  0.0197  0.7209
  821MOL0     H13251   1.320   2.925   5.729 -2.6595  2.4467 -2.2385
  821MOL0     H13252   1.217   3.153   5.707 -0.3043  1.7481  1.4072
  821MOL0     H13253   1.299   3.200   5.857 -1.7010  0.8572 -0.7308
  821MOL0     H13254   1.450   3.263   5.658  1.2846  0.5096  0.6755
  821MOL0     H13255   1.507   3.124   5.747 -2.0651 -2.0997  1.8309
  821MOL0     H13256   1.456   2.849   5.429 -0.5324 -0.1016 -2.0999
  821MOL0     H13257   1.596   2.782   5.126 -0.3879  0.3652  0.2287
  821MOL0     H13258   1.519   2.715   5.266 -1.6178  0.2037 -1.8846
  821MOL0     H13259   1.693   2.703   5.246 -1.6073 -1.4594  1.9196
  821MOL0     H13260   1.774   2.870   4.917 -0.9835  0.5422  1.0151
  821MOL0     H13261   1.826   2.843   4.672  0.2319  1.2360 -0.9388
  821MOL0     H13262   1.953   2.858   4.427  0.6399  2.3623  0.7621
  821MOL0     H13263   1.780   2.895   4.464 -0.2070  1.3956  1.1861
  821MOL0     H13264   1.791   3.069   4.286  2.8498  2.2530 -0.8726
  821MOL0     H13265   1.948   3.018   4.243 -1.8732  3.8790 -0.1488
  821MOL0     H13266   1.710   2.827   4.234 -1.4493  2.1781 -0.4077
  821MOL0     H13267   1.877   2.781   4.187 -0.2863 -0.6714  0.8016
  821MOL0     H13268   1.820   2.985   4.001  0.7702 -1.5632  2.0140
  821MOL0     H13269   1.682   3.004   4.092  0.0136  3.4728 -4.1677
  821MOL0     H13270   1.731   2.729   3.969 -2.9084 -2.7926  2.5308
  821MOL0     H13271   1.578   2.802   4.019 -0.0202 -0.3374 -0.5577
  821MOL0     H13272   1.759   2.902   3.802  0.5127  0.7089  1.8340
  821MOL0     H13273   1.626   2.990   3.861  1.5153  0.4074 -0.6046
  821MOL0     H13274   1.541   2.882   3.669  0.9746  0.3364 -0.0719
  821MOL0     H13275   1.475   2.786   3.790 -0.3519  0.2087  0.4690
  821MOL0     H13276   1.661   2.626   3.788 -5.1203 -0.9803  0.2412
  821MOL0     H13277   1.745   2.704   3.659  1.0918 -2.2374  3.0875
  821MOL0     H13278   1.952   3.252   4.650  1.0002  0.1767  0.2682
  821MOL0     H13279   1.901   3.278   4.883  2.4336  0.3812 -0.0978
  821MOL0     H13280   1.774   3.202   5.299 -1.2165  0.9015 -0.5566
  821MOL0     H13281   1.629   3.241   5.485  3.3816  0.8623 -0.6258
  821MOL0     H13282   2.256   2.008   6.325 -0.0303  0.2859  0.7696
  821MOL0     H13283   2.345   1.829   6.463  0.0848  1.1293  0.4320
  821MOL0     H13284   2.162   1.436   6.746 -1.3013 -2.3305  3.9821
  821MOL0     H13285   2.243   1.307   6.903  1.1263  0.3531  1.6133
  821MOL0     H13286   2.336   1.160   7.028  0.2866  1.4195 -1.0824
  821MOL0     H13287   2.309   1.020   6.920 -0.5576 -2.3440  1.9451
  821MOL0     H13288   2.513   1.056   7.147  1.3610 -0.8681 -1.1643
  821MOL0     H13289   2.531   0.933   7.025  0.1179 -1.4076  0.8868
  821MOL0     H13290   2.277   0.867   7.068 -1.5249  1.6962  0.6141
  821MOL0     H13291   2.412   0.817   7.187  1.5661 -2.1981 -4.2093
  821MOL0     H13292   2.214   1.037   7.232  1.5950  0.4031  0.4879
  821MOL0     H13293   2.356   0.992   7.344 -0.2863 -2.1326  2.8840
  821MOL0     H13294   2.027   0.715   7.405 -2.4857  2.3488 -0.3940
  821MOL0     H13295   2.594   1.215   6.650 -0.7005 -0.0187 -1.2576
  821MOL0     H13296   2.670   1.388   6.525 -0.1495 -0.4090  0.1509
  821MOL0     H13297   2.560   1.385   6.395 -3.4082  2.4810  0.1181
  821MOL0     H13298   2.576   1.533   6.489  3.0917 -0.3027 -0.1893
  822MOL0     O13299   7.043   8.914   9.060 -0.2354 -0.3916  0.4914
  822MOL0     C13300   7.082   8.799   9.048 -0.2399  0.0256  0.2465
  822MOL0     O13301   7.010   8.708   8.973 -0.6790 -0.0850  0.2804
  822MOL0     C13302   6.870   8.723   8.972  0.8856 -0.2799 -0.4791
  822MOL0     C13303   6.813   8.600   8.987  0.1125  0.2875  0.4801
  822MOL0     C13304   6.675   8.596   9.006  0.1522 -0.3696 -0.3093
  822MOL0     C13305   6.598   8.705   9.022 -1.1179  0.2224  0.7392
  822MOL0     O13306   6.461   8.684   9.030 -1.0235 -0.3526 -0.3745
  822MOL0     C13307   6.370   8.795   9.041  0.7472  0.5349  0.2705
  822MOL0     C13308   6.332   8.850   9.180 -0.6758 -0.0475 -1.1790
  822MOL0     C13309   6.319   8.738   9.276  0.2829 -0.2691 -1.2007
  822MOL0     C13310   6.276   8.782   9.423 -0.6608 -0.7468 -0.8706
  822MOL0     C13311   6.256   8.654   9.522 -0.5961  0.5270 -0.3846
  822MOL0     C13312   6.389   8.591   9.585  0.5117  0.7151 -0.5495
  822MOL0     C13313   6.362   8.516   9.718 -0.4663 -0.2143  0.4101
  822MOL0     C13314   6.339   8.600   9.837  0.5831  0.5507 -0.2456
  822MOL0     N13315   6.222   8.538   9.906  0.3481  0.1157  0.1708
  822MOL0     C13316   6.222   8.416   9.974 -1.1578  1.1238  0.1419
  822MOL0     C13317   6.110   8.414  10.049 -0.2122 -0.1835  0.0784
  822MOL0     C13318   6.056   8.318  10.147  0.0615  0.4086 -0.8347
  822MOL0     C13319   5.970   8.207  10.073  0.1500 -0.9879  0.5171
  822MOL0     C13320   5.835   8.264  10.046 -0.0198 -0.1580 -0.1770
  822MOL0     C13321   5.752   8.155   9.975 -0.2828  0.7937  0.2304
  822MOL0     O13322   5.633   8.214   9.913 -0.1590  0.9714 -0.0483
  822MOL0     C13323   5.514   8.140   9.923  1.0483  0.2003 -0.0311
  822MOL0     C13324   5.453   8.089   9.813 -0.4789 -1.2440 -0.3290
  822MOL0     C13325   5.333   8.023   9.816  1.1399  0.5622 -0.5077
  822MOL0     C13326   5.284   7.983   9.683  1.2075 -0.4012  0.0894
  822MOL0     C13327   5.270   7.993   9.941  0.2162 -0.7282 -0.0649
  822MOL0     C13328   5.129   7.934   9.959 -0.3616 -0.3949 -0.0209
  822MOL0     O13329   5.046   7.903   9.852  0.0429 -0.2464 -0.0136
  822MOL0     C13330   4.921   7.850   9.879 -0.8339 -0.1583 -0.1868
  822MOL0     C13331   4.907   7.714   9.850 -0.6825  0.6210  0.5067
  822MOL0     C13332   4.786   7.654   9.893 -0.6157  0.6472 -0.0281
  822MOL0     C13333   4.672   7.729   9.938 -0.4133 -0.3713 -0.2819
  822MOL0     O13334   4.562   7.661   9.982 -0.4364 -0.6567 -0.8984
  822MOL0     C13335   4.462   7.749  10.039  0.5633  0.3744  0.1238
  822MOL0     C13336   4.334   7.673  10.094  0.1171 -0.1015  0.3409
  822MOL0     C13337   4.220   7.692   9.989  0.5355  0.5178  0.2548
  822MOL0     C13338   4.151   7.835   9.990 -0.2202 -0.3612 -0.6841
  822MOL0     C13339   4.054   7.866  10.108  0.0413 -0.3886 -0.4075
  822MOL0     C13340   3.938   7.765  10.121  0.2695  1.0866 -0.0390
  822MOL0     C13341   3.839   7.830  10.208 -0.1547 -0.9107  1.0168
  822MOL0     C13342   3.739   7.745  10.276  0.3959  0.1539  0.1054
  822MOL0    Cl13343   3.666   7.846  10.401 -0.3227  0.0487  0.2607
  822MOL0     C13344   4.699   7.872   9.969  0.3625  0.2755 -0.4460
  822MOL0     C13345   4.823   7.923   9.937 -0.4728  0.2480 -0.0888
  822MOL0     O13346   5.089   7.925  10.074  0.8254  0.1965 -0.5963
  822MOL0     C13347   5.340   8.040  10.059 -0.5807 -0.5686 -0.1101
  822MOL0     C13348   5.457   8.108  10.055 -0.3978  0.3689  0.9842
  822MOL0     N13349   6.046   8.537  10.029 -0.2333  0.4785  0.8053
  822MOL0     N13350   6.121   8.608   9.952  0.5217 -0.2712  0.4518
  822MOL0     C13351   6.649   8.831   8.994 -0.1607 -0.1398  0.3052
  822MOL0     C13352   6.789   8.841   8.967  0.9789 -0.7142  0.1237
  822MOL0     C13353   7.188   8.750   9.144 -0.4007  1.0056  0.0564
  822MOL0     C13354   7.170   8.617   9.190 -0.5660 -0.8772 -0.6393
  822MOL0     C13355   7.274   8.558   9.268  0.2890  0.0972  0.3260
  822MOL0     C13356   7.396   8.627   9.292  0.6987  0.3799 -0.0391
  822MOL0     O13357   7.499   8.550   9.350  0.3368  0.4604 -0.4525
  822MOL0     C13358   7.615   8.621   9.389  0.7029  0.6519 -0.3733
  822MOL0     C13359   7.716   8.650   9.283  0.3426 -0.2794 -0.2954
  822MOL0     C13360   7.845   8.713   9.334 -0.6649 -0.4219  0.0652
  822MOL0     C13361   7.930   8.777   9.227  0.1451  0.1634  0.0861
  822MOL0     C13362   7.991   8.682   9.135 -0.3407 -0.3041  0.3314
  822MOL0     C13363   8.049   8.609   9.067  0.1085  0.0507  0.5641
  822MOL0     C13364   7.408   8.763   9.252  1.0182 -0.2480 -0.2852
  822MOL0     C13365   7.301   8.825   9.180 -1.2486  0.0588 -0.1645
  822MOL0     C13366   7.317   8.972   9.150 -0.2322 -1.0325 -0.9968
  822MOL0     H13367   6.875   8.511   8.982  0.0429  0.3091 -1.9959
  822MOL0     H13368   6.621   8.503   9.022  1.0983 -0.4227  3.4901
  822MOL0     H13369   6.284   8.752   8.987  1.3806  0.6764 -0.8838
  822MOL0     H13370   6.396   8.886   8.986 -2.2009  0.4828 -1.4561
  822MOL0     H13371   6.406   8.922   9.217  1.2388 -0.6028 -3.6785
  822MOL0     H13372   6.237   8.904   9.175 -0.9643 -0.2950  0.6856
  822MOL0     H13373   6.235   8.675   9.245 -2.3014  3.6558 -2.9382
  822MOL0     H13374   6.410   8.677   9.284  0.5194  0.1978 -0.0628
  822MOL0     H13375   6.345   8.854   9.469 -1.8768 -0.1304  0.0341
  822MOL0     H13376   6.184   8.840   9.414 -0.3472  1.0403  4.0196
  822MOL0     H13377   6.220   8.577   9.453  1.7652  0.7479 -1.9731
  822MOL0     H13378   6.184   8.688   9.598 -0.2683 -1.2652  0.7968
  822MOL0     H13379   6.430   8.528   9.506  1.1682 -0.2421  0.5299
  822MOL0     H13380   6.466   8.668   9.586  5.0813 -3.1534 -4.1317
  822MOL0     H13381   6.458   8.471   9.743  0.4227  1.9766  1.2485
  822MOL0     H13382   6.286   8.439   9.704 -2.2322  1.2551  1.4645
  822MOL0     H13383   6.417   8.615   9.912 -1.4790  0.9982  1.9594
  822MOL0     H13384   6.319   8.703   9.805 -0.5977  0.0311 -1.2656
  822MOL0     H13385   6.299   8.340   9.972 -2.3053 -0.0513 -1.2331
  822MOL0     H13386   5.996   8.365  10.226 -1.1176  1.1948 -2.1576
  822MOL0     H13387   6.146   8.275  10.192 -0.3333 -0.6622 -1.0374
  822MOL0     H13388   6.029   8.185   9.983 -1.3151 -1.1382 -0.4366
  822MOL0     H13389   5.949   8.116  10.130  1.0491 -0.4555  1.7426
  822MOL0     H13390   5.778   8.283  10.138 -1.6011 -2.8496 -0.5052
  822MOL0     H13391   5.835   8.361   9.996 -0.2164  0.8043  1.5787
  822MOL0     H13392   5.814   8.097   9.907 -4.9151 -2.3816 -1.8464
  822MOL0     H13393   5.724   8.085  10.054 -0.9336 -0.3455 -0.9742
  822MOL0     H13394   5.514   8.103   9.724 -0.9931 -0.8376 -0.6282
  822MOL0     H13395   5.331   8.058   9.617  4.1529  0.9427  3.4045
  822MOL0     H13396   5.176   7.993   9.672  1.3140  1.9565  0.5583
  822MOL0     H13397   5.316   7.880   9.666  0.0679 -0.5759 -1.1511
  822MOL0     H13398   4.994   7.670   9.802 -1.4217  0.9986 -1.2621
  822MOL0     H13399   4.779   7.545   9.894 -0.8100  0.6337  2.1838
  822MOL0     H13400   4.512   7.800  10.122  2.8788 -0.6990 -0.5228
  822MOL0     H13401   4.435   7.824   9.965  0.4323 -0.8240 -1.0954
  822MOL0     H13402   4.357   7.566  10.101  1.3844 -0.1763 -3.1878
  822MOL0     H13403   4.311   7.705  10.196 -0.1344  1.9439 -0.3207
  822MOL0     H13404   4.143   7.616  10.005  1.5041 -0.1646  2.0295
  822MOL0     H13405   4.255   7.688   9.886  0.0854  1.8509  0.0243
  822MOL0     H13406   4.092   7.856   9.900 -1.1514  0.1104  0.0256
  822MOL0     H13407   4.240   7.898   9.992  0.7904 -1.7518  0.0718
  822MOL0     H13408   4.118   7.864  10.196  0.0025 -0.0373 -0.3695
  822MOL0     H13409   4.021   7.970  10.096  1.8966  0.0799 -2.0969
  822MOL0     H13410   3.972   7.670  10.163  1.5711 -0.0977 -3.3980
  822MOL0     H13411   3.893   7.742  10.024  1.7769  0.7818 -0.6913
  822MOL0     H13412   3.787   7.898  10.140 -0.0688 -0.9904  0.8696
  822MOL0     H13413   3.886   7.891  10.285  2.3338 -0.1805 -0.9401
  822MOL0     H13414   3.769   7.649  10.319  0.7218 -0.5121 -1.5581
  822MOL0     H13415   3.661   7.726  10.201 -1.1717 -0.5197  1.8265
  822MOL0     H13416   4.616   7.930  10.007 -1.4820 -1.7634 -1.1445
  822MOL0     H13417   4.833   8.027   9.966 -3.3787  0.8058 -0.7768
  822MOL0     H13418   5.281   8.036  10.150  0.9274 -0.1250  0.9365
  822MOL0     H13419   5.517   8.149  10.136  0.5381  0.5636  0.2100
  822MOL0     H13420   6.595   8.924   8.980 -0.7401 -0.6076 -0.6609
  822MOL0     H13421   6.836   8.934   8.937  0.7604 -1.6753 -3.6541
  822MOL0     H13422   7.077   8.567   9.163 -0.5571 -1.3112  0.1112
  822MOL0     H13423   7.275   8.454   9.300  0.5059 -0.3186 -0.9626
  822MOL0     H13424   7.583   8.711   9.443  0.5701 -0.2110  1.0496
  822MOL0     H13425   7.676   8.559   9.456  1.5973  0.7852 -1.0406
  822MOL0     H13426   7.679   8.713   9.201 -3.6214 -3.1756 -1.0697
  822MOL0     H13427   7.741   8.551   9.245 -0.4600 -0.6284  0.0626
  822MOL0     H13428   7.819   8.791   9.406  1.1583  1.5545 -1.3042
  822MOL0     H13429   7.912   8.654   9.397 -0.4403 -1.5639 -1.1875
  822MOL0     H13430   8.012   8.824   9.281 -0.9526  1.1473  0.9504
  822MOL0     H13431   7.875   8.854   9.172 -1.1203 -0.2965  0.6713
  822MOL0     H13432   8.115   8.548   9.007  2.6341  3.1039 -0.0312
  822MOL0     H13433   7.479   8.833   9.294 -0.0229 -0.9683  3.0312
  822MOL0     H13434   7.260   9.024   9.228  0.0645 -4.2496  1.5805
  822MOL0     H13435   7.421   9.007   9.152 -1.0631  1.6613 -0.2583
  822MOL0     H13436   7.288   9.002   9.049 -0.6831  1.4406 -0.2228
  823MOL0     O13437   7.466   3.496   4.171  0.4848 -0.2648  0.6324
  823MOL0     C13438   7.432   3.532   4.059 -0.0919 -1.0328  0.1449
  823MOL0     O13439   7.506   3.521   3.947 -0.4581  0.7179  0.5660
  823MOL0     C13440   7.594   3.422   3.927 -0.8566 -0.2561  0.2686
  823MOL0     C13441   7.723   3.464   3.897  0.0171 -0.3586  0.6981
  823MOL0     C13442   7.822   3.371   3.869  0.2175  1.5733 -0.1409
  823MOL0     C13443   7.798   3.236   3.885  0.3396  0.8532  0.5568
  823MOL0     O13444   7.894   3.143   3.852 -0.2672  0.1659 -0.1116
  823MOL0     C13445   7.976   3.105   3.975  0.0488  0.8528 -0.7306
  823MOL0     C13446   8.057   2.982   3.932  0.7667  0.3952  0.2351
  823MOL0     C13447   7.960   2.868   3.931  0.7484  0.1745  0.5165
  823MOL0     C13448   7.929   2.804   4.061  0.0930  0.2831 -0.1171
  823MOL0     C13449   7.833   2.683   4.045 -0.4534 -0.9481  0.3588
  823MOL0     C13450   7.815   2.601   4.173  0.1359 -0.0836 -0.0869
  823MOL0     C13451   7.734   2.476   4.136 -0.6921  0.2792  0.0996
  823MOL0     C13452   7.581   2.489   4.147  0.4719  0.1828 -0.0173
  823MOL0     N13453   7.495   2.370   4.128  0.4579 -0.3389  0.3404
  823MOL0     C13454   7.432   2.343   4.006 -0.1251 -0.1889  0.0486
  823MOL0     C13455   7.339   2.254   4.047  0.2794 -0.4520  0.1608
  823MOL0     C13456   7.225   2.213   3.963 -0.1030  0.0633  0.3937
  823MOL0     C13457   7.089   2.262   4.025  0.5709 -0.0299 -0.3606
  823MOL0     C13458   6.973   2.207   3.951  0.0055 -0.5134  0.7058
  823MOL0     C13459   6.942   2.276   3.812 -0.0224  0.2726 -0.3537
  823MOL0     O13460   6.989   2.200   3.704 -0.3279 -0.1625  0.2122
  823MOL0     C13461   6.989   2.253   3.575 -0.1262 -0.0618 -0.7187
  823MOL0     C13462   7.016   2.156   3.477 -0.6759 -0.3018 -0.2724
  823MOL0     C13463   7.027   2.187   3.343 -0.2213  0.5525  0.1325
  823MOL0     C13464   7.057   2.072   3.255  0.6031  0.1532  0.0633
  823MOL0     C13465   7.019   2.324   3.300  0.0925 -0.3543 -0.8143
  823MOL0     C13466   7.038   2.377   3.165  0.5639  0.0789 -0.5039
  823MOL0     O13467   7.057   2.292   3.061  0.0890  0.2071  0.2289
  823MOL0     C13468   7.079   2.338   2.937  0.1417  0.0605 -0.2420
  823MOL0     C13469   7.212   2.350   2.895 -0.7449  0.2953 -0.5748
  823MOL0     C13470   7.240   2.390   2.768  0.3861 -0.6087 -0.6907
  823MOL0     C13471   7.139   2.440   2.686 -0.1873 -0.2712  0.6182
  823MOL0     O13472   7.154   2.469   2.552 -0.4244 -0.6676 -0.0828
  823MOL0     C13473   7.285   2.477   2.488 -0.7681 -0.2681 -0.7701
  823MOL0     C13474   7.281   2.567   2.354  0.0065  0.7138 -0.3029
  823MOL0     C13475   7.181   2.496   2.262 -0.0703 -0.0646  0.7802
  823MOL0     C13476   7.171   2.553   2.120  0.5415  0.5478 -0.3549
  823MOL0     C13477   7.294   2.548   2.027  0.0066  0.4401 -0.3130
  823MOL0     C13478   7.337   2.402   2.006  0.1119  0.5659  0.3863
  823MOL0     C13479   7.448   2.393   1.905 -0.1314 -0.5282  0.8331
  823MOL0     C13480   7.477   2.249   1.858 -1.0700 -0.1771 -0.6815
  823MOL0    Cl13481   7.604   2.235   1.735 -0.0355 -0.5066  0.3572
  823MOL0     C13482   7.006   2.431   2.734  0.7353  0.6630 -0.0541
  823MOL0     C13483   6.977   2.373   2.854 -0.1127  0.3042  0.1025
  823MOL0     O13484   7.038   2.494   3.150  0.5607  0.2642 -0.4428
  823MOL0     C13485   7.012   2.419   3.411  0.4459  0.3617  1.3356
  823MOL0     C13486   6.996   2.385   3.546 -0.3871 -0.1947 -0.3697
  823MOL0     N13487   7.358   2.223   4.181 -0.0510 -0.1243 -1.5999
  823MOL0     N13488   7.463   2.282   4.221  0.3654 -0.3292 -0.6732
  823MOL0     C13489   7.663   3.189   3.903 -0.4930  0.1630 -0.7101
  823MOL0     C13490   7.567   3.288   3.939 -1.3945  0.2346 -0.1095
  823MOL0     C13491   7.308   3.619   4.049  0.4665  0.4165 -0.6244
  823MOL0     C13492   7.229   3.615   4.175  0.0760 -0.0190  0.3618
  823MOL0     C13493   7.118   3.699   4.198  0.8846  0.3007 -0.3785
  823MOL0     C13494   7.085   3.795   4.098 -0.2642  0.2347 -0.1935
  823MOL0     O13495   6.981   3.886   4.117  0.7836  0.0800  0.8880
  823MOL0     C13496   6.957   3.932   4.252  0.4642 -0.4152 -0.7653
  823MOL0     C13497   6.812   3.890   4.283  0.0792  0.8643  0.1470
  823MOL0     C13498   6.780   3.949   4.416  0.5044 -0.5143 -0.3627
  823MOL0     C13499   6.653   3.893   4.486  0.0730  0.3869 -0.1564
  823MOL0     C13500   6.533   3.918   4.408 -0.3543 -0.0759 -0.2404
  823MOL0     C13501   6.431   3.929   4.356  1.0642  0.3876 -0.2811
  823MOL0     C13502   7.163   3.797   3.983  0.0821  0.3135 -1.4569
  823MOL0     C13503   7.276   3.714   3.954 -0.4199  1.2465  0.8190
  823MOL0     C13504   7.352   3.726   3.829  0.7888  0.6302 -0.0160
  823MOL0     H13505   7.752   3.568   3.886  1.7052 -0.7536  1.1063
  823MOL0     H13506   7.920   3.400   3.832  2.3651 -1.9106  2.3047
  823MOL0     H13507   7.908   3.074   4.054  2.8504 -0.6102  1.2749
  823MOL0     H13508   8.037   3.186   4.015 -1.4464 -0.0526  3.9674
  823MOL0     H13509   8.108   2.989   3.835  2.1566  2.5795  1.0607
  823MOL0     H13510   8.131   2.951   4.006 -0.0887  2.0473  1.8799
  823MOL0     H13511   7.871   2.889   3.870  0.8483  1.7777  0.8862
  823MOL0     H13512   8.016   2.796   3.870  0.9003  2.1796 -1.8727
  823MOL0     H13513   8.021   2.754   4.092  2.0602  3.1466 -0.9533
  823MOL0     H13514   7.907   2.881   4.136  0.0308 -0.0405  0.2025
  823MOL0     H13515   7.881   2.620   3.970  1.2238 -0.9393  1.3773
  823MOL0     H13516   7.734   2.714   4.010 -1.4346 -1.0963  2.7949
  823MOL0     H13517   7.910   2.572   4.221 -0.0891  0.3816  0.6645
  823MOL0     H13518   7.769   2.662   4.252 -2.9237 -2.4394  0.1261
  823MOL0     H13519   7.762   2.402   4.211 -1.9322  0.7166  1.0405
  823MOL0     H13520   7.763   2.447   4.035  1.9657  0.3554  0.7747
  823MOL0     H13521   7.562   2.516   4.251  3.1715  4.4252 -0.3828
  823MOL0     H13522   7.543   2.574   4.089  0.0789  2.1972  2.9662
  823MOL0     H13523   7.434   2.389   3.908 -0.2035  1.5710  0.8334
  823MOL0     H13524   7.226   2.105   3.948  1.0994 -0.2581  2.3825
  823MOL0     H13525   7.242   2.252   3.863  0.5141 -1.7216 -0.2448
  823MOL0     H13526   7.078   2.237   4.131 -2.7774 -2.0572 -1.0461
  823MOL0     H13527   7.091   2.371   4.041 -2.0413  0.1643 -0.9281
  823MOL0     H13528   6.991   2.100   3.940  0.1114 -0.7185  2.6226
  823MOL0     H13529   6.888   2.224   4.017  1.4045 -2.0669  3.0842
  823MOL0     H13530   6.836   2.253   3.797  0.6736 -2.5876 -1.4937
  823MOL0     H13531   6.958   2.384   3.807 -3.5405  0.8700 -1.1578
  823MOL0     H13532   7.016   2.049   3.494  0.2019 -0.4885 -1.3294
  823MOL0     H13533   6.979   2.067   3.178  1.5959 -1.6730 -0.8826
  823MOL0     H13534   7.066   1.968   3.288 -1.7314 -0.6898 -1.6262
  823MOL0     H13535   7.154   2.083   3.206  1.7075 -3.1104  1.2461
  823MOL0     H13536   7.288   2.326   2.969 -2.0390  1.3489  1.1790
  823MOL0     H13537   7.331   2.406   2.710 -0.2816 -1.3286 -1.9715
  823MOL0     H13538   7.367   2.511   2.551 -1.5497  2.4880 -1.0995
  823MOL0     H13539   7.304   2.378   2.445  0.9271 -0.8540  1.2219
  823MOL0     H13540   7.241   2.666   2.377 -0.4369  0.3367  0.6103
  823MOL0     H13541   7.377   2.570   2.302 -0.0893  0.6493 -0.4867
  823MOL0     H13542   7.083   2.507   2.310 -2.1299 -0.4307 -2.8926
  823MOL0     H13543   7.204   2.390   2.247 -2.3112 -0.8185  2.0819
  823MOL0     H13544   7.141   2.655   2.143 -1.6793 -0.4422  1.5968
  823MOL0     H13545   7.096   2.492   2.066 -1.2621  1.2463  1.2421
  823MOL0     H13546   7.263   2.600   1.936 -1.4780 -1.0938 -0.7431
  823MOL0     H13547   7.383   2.590   2.074  0.3253 -1.2526  0.6828
  823MOL0     H13548   7.264   2.328   1.969  3.4057 -2.0785 -1.4279
  823MOL0     H13549   7.368   2.363   2.103 -1.1020  1.1672  1.0370
  823MOL0     H13550   7.536   2.438   1.951  0.9066 -1.6937  0.0740
  823MOL0     H13551   7.421   2.450   1.816 -1.7166 -2.3264  0.0715
  823MOL0     H13552   7.385   2.206   1.816 -0.4696 -2.1801 -0.0228
  823MOL0     H13553   7.502   2.197   1.951  0.0409  3.3547  1.1662
  823MOL0     H13554   6.921   2.439   2.667  0.5828  1.0965  0.1841
  823MOL0     H13555   6.873   2.363   2.885 -1.2116  1.5441 -2.8753
  823MOL0     H13556   7.020   2.522   3.377  0.1121 -1.0647 -3.8262
  823MOL0     H13557   6.984   2.472   3.610 -0.5753 -0.2777 -0.2926
  823MOL0     H13558   7.635   3.084   3.897 -0.2835 -0.0802  1.5043
  823MOL0     H13559   7.464   3.256   3.958 -1.3794  1.4789  2.4536
  823MOL0     H13560   7.253   3.538   4.248 -0.1764 -0.5632 -0.1221
  823MOL0     H13561   7.060   3.677   4.287 -1.1112 -2.9718 -2.3281
  823MOL0     H13562   7.027   3.889   4.324 -2.0417 -1.7496  1.0187
  823MOL0     H13563   6.967   4.039   4.276  1.7710 -1.2410  3.1168
  823MOL0     H13564   6.821   3.781   4.281  1.6745  0.9709  0.4150
  823MOL0     H13565   6.748   3.927   4.202 -1.4023 -2.7938 -0.5913
  823MOL0     H13566   6.865   3.935   4.483 -0.7253  2.2655  2.0099
  823MOL0     H13567   6.763   4.056   4.401 -1.3320 -0.6731  0.2026
  823MOL0     H13568   6.636   3.935   4.586 -2.2320  1.5434 -0.9719
  823MOL0     H13569   6.664   3.785   4.499  2.5370  0.5799 -0.1283
  823MOL0     H13570   6.350   3.937   4.287  1.5841 -0.5188 -1.0033
  823MOL0     H13571   7.143   3.882   3.918  0.3457 -0.6623 -2.8676
  823MOL0     H13572   7.384   3.633   3.780 -0.3501  0.1582  0.1134
  823MOL0     H13573   7.290   3.777   3.755 -1.1711 -1.3162  0.1970
  823MOL0     H13574   7.448   3.775   3.847  0.8167  1.4455 -2.0787
  824MOL0     O13575   4.924   1.121   2.888  0.2234 -0.3248  0.3606
  824MOL0     C13576   4.890   1.057   2.992 -0.3860 -0.2688  0.3624
  824MOL0     O13577   4.828   0.941   2.996  0.1763  0.0515  0.7705
  824MOL0     C13578   4.784   0.904   2.871 -0.1856 -0.1430 -0.6348
  824MOL0     C13579   4.850   0.802   2.798 -0.2494 -0.5268  0.8245
  824MOL0     C13580   4.809   0.760   2.672  0.2234  0.0985 -0.2188
  824MOL0     C13581   4.680   0.802   2.630  0.0304 -0.1711  0.6405
  824MOL0     O13582   4.622   0.733   2.523 -0.4015 -0.5947 -0.5276
  824MOL0     C13583   4.519   0.657   2.576 -0.5677  0.8100 -0.6100
  824MOL0     C13584   4.462   0.565   2.465 -0.5536  0.0495  0.2582
  824MOL0     C13585   4.341   0.485   2.499  0.4765  0.1051 -0.1188
  824MOL0     C13586   4.377   0.365   2.590 -0.2113 -0.4709 -0.6089
  824MOL0     C13587   4.250   0.326   2.665 -0.3522  0.6203  0.1699
  824MOL0     C13588   4.146   0.243   2.589 -0.9962 -0.2191 -0.2955
  824MOL0     C13589   4.005   0.264   2.647  1.0010 -0.7653 -0.4337
  824MOL0     C13590   3.906   0.167   2.567  0.5663 -0.0432 -0.4325
  824MOL0     N13591   3.762   0.194   2.602  0.5973  1.1936  0.0533
  824MOL0     C13592   3.708   0.182   2.728 -0.1623 -0.0355 -0.6324
  824MOL0     C13593   3.574   0.188   2.719  0.1885  0.5291 -0.2253
  824MOL0     C13594   3.453   0.170   2.821 -0.5021  0.2593  0.5470
  824MOL0     C13595   3.436   0.283   2.920 -0.3423 -0.2258  0.3884
  824MOL0     C13596   3.381   0.418   2.860 -0.1334  0.6176 -0.4121
  824MOL0     C13597   3.485   0.514   2.807 -1.0232 -0.5425  0.2674
  824MOL0     O13598   3.585   0.535   2.901  0.4529 -1.5619 -1.0521
  824MOL0     C13599   3.694   0.614   2.874 -0.3643 -1.0781  1.1300
  824MOL0     C13600   3.722   0.678   2.751  1.0218 -0.4039  0.2431
  824MOL0     C13601   3.809   0.787   2.742  0.4835  0.5554  0.6505
  824MOL0     C13602   3.802   0.880   2.623 -0.2282  0.4418 -0.4144
  824MOL0     C13603   3.896   0.813   2.849 -0.3610  0.2254  0.2148
  824MOL0     C13604   3.988   0.924   2.841  0.9341 -0.8322 -0.1586
  824MOL0     O13605   4.108   0.903   2.790 -1.0679 -0.0565  0.9268
  824MOL0     C13606   4.192   1.010   2.771  0.4538 -0.3898  0.1890
  824MOL0     C13607   4.207   1.060   2.645 -0.4372  0.3258 -1.0259
  824MOL0     C13608   4.292   1.157   2.618  0.2152 -0.3107  0.0563
  824MOL0     C13609   4.359   1.225   2.721  0.5555  0.3858  0.0198
  824MOL0     O13610   4.434   1.340   2.714 -0.7652  0.6600 -0.8219
  824MOL0     C13611   4.422   1.431   2.608 -0.7655  0.0700  0.0155
  824MOL0     C13612   4.309   1.532   2.642 -0.3740  0.0069 -0.4794
  824MOL0     C13613   4.355   1.675   2.599 -0.7949 -0.0771  1.5541
  824MOL0     C13614   4.248   1.775   2.627  0.0584 -0.7652  0.7270
  824MOL0     C13615   4.279   1.921   2.577  0.1556  0.4653 -0.2249
  824MOL0     C13616   4.190   2.034   2.639 -1.1037 -0.1228  0.0364
  824MOL0     C13617   4.226   2.170   2.569 -0.3043  0.2445  0.2794
  824MOL0     C13618   4.379   2.202   2.570  0.7732  0.0976  0.0096
  824MOL0    Cl13619   4.424   2.249   2.734  0.4378 -0.1507 -0.6948
  824MOL0     C13620   4.365   1.161   2.847 -0.2086 -0.1219 -0.4869
  824MOL0     C13621   4.279   1.057   2.875  0.4711 -0.4254  0.4228
  824MOL0     O13622   3.950   1.022   2.907 -0.7325 -0.1885  0.4641
  824MOL0     C13623   3.872   0.744   2.970  0.1695 -0.4820 -0.2004
  824MOL0     C13624   3.770   0.649   2.983  0.6383 -0.8017  0.1722
  824MOL0     N13625   3.557   0.211   2.581  0.1039 -0.1268 -0.3279
  824MOL0     N13626   3.663   0.199   2.515 -0.1291  0.0030 -0.1361
  824MOL0     C13627   4.616   0.914   2.695  0.6927  0.5394 -0.0444
  824MOL0     C13628   4.679   0.971   2.811  0.1510 -0.2870  0.2222
  824MOL0     C13629   4.928   1.113   3.125 -0.5988 -0.2363  0.3518
  824MOL0     C13630   5.060   1.124   3.160  0.7086  0.0258  0.0946
  824MOL0     C13631   5.084   1.194   3.273 -0.8743  0.6867 -0.4866
  824MOL0     C13632   4.987   1.232   3.362  0.3515  0.5472 -0.1611
  824MOL0     O13633   5.002   1.295   3.486  0.5953 -0.1469  0.2667
  824MOL0     C13634   5.095   1.400   3.500 -0.7199  0.8613 -0.6705
  824MOL0     C13635   5.061   1.471   3.631  0.6094 -0.4464  0.1299
  824MOL0     C13636   5.107   1.401   3.758 -0.1558 -0.5993  0.0012
  824MOL0     C13637   5.259   1.405   3.785 -0.9199  0.9017 -0.2427
  824MOL0     C13638   5.312   1.289   3.710  0.0435  0.5937 -0.2805
  824MOL0     C13639   5.361   1.187   3.673 -0.2846  1.5098  0.2430
  824MOL0     C13640   4.857   1.210   3.330 -0.7142 -0.7128 -0.3973
  824MOL0     C13641   4.827   1.155   3.211  0.9496 -0.5935  0.4797
  824MOL0     C13642   4.679   1.146   3.174 -0.3170  0.7016 -0.0923
  824MOL0     H13643   4.941   0.752   2.831  0.0747 -1.2611 -1.0543
  824MOL0     H13644   4.858   0.682   2.615 -1.8661 -1.6429  0.2488
  824MOL0     H13645   4.444   0.722   2.620  0.6896  0.7001  1.8703
  824MOL0     H13646   4.553   0.593   2.657  0.0789  2.8822  0.8315
  824MOL0     H13647   4.442   0.625   2.375 -1.5659 -6.2278 -4.4070
  824MOL0     H13648   4.549   0.502   2.446  0.3957 -0.2087  4.5665
  824MOL0     H13649   4.264   0.553   2.537  0.6308 -0.6801  1.6687
  824MOL0     H13650   4.307   0.447   2.402  2.0509  0.1639 -0.7126
  824MOL0     H13651   4.414   0.278   2.534  0.1535  0.1773 -1.3889
  824MOL0     H13652   4.442   0.404   2.669 -1.6780 -3.3306  2.2587
  824MOL0     H13653   4.204   0.420   2.699 -1.5750  0.7509 -1.6430
  824MOL0     H13654   4.283   0.266   2.750 -0.0378  0.1453 -0.2835
  824MOL0     H13655   4.147   0.266   2.482  2.0579  1.0738 -0.1032
  824MOL0     H13656   4.181   0.141   2.608 -0.8441  0.1029  1.3107
  824MOL0     H13657   3.964   0.364   2.629  0.8707 -0.5642  0.8981
  824MOL0     H13658   4.003   0.241   2.754  1.0151  1.4130  0.0780
  824MOL0     H13659   3.910   0.192   2.461 -0.5179 -0.2399 -0.5261
  824MOL0     H13660   3.935   0.064   2.591 -2.2194 -0.6007  0.8682
  824MOL0     H13661   3.759   0.174   2.824 -3.4195  2.4012  1.5471
  824MOL0     H13662   3.490   0.085   2.879 -0.9898 -1.2858 -1.3327
  824MOL0     H13663   3.361   0.125   2.785 -0.1652  0.2627 -0.3520
  824MOL0     H13664   3.369   0.259   3.003  3.2226  3.2997  4.7745
  824MOL0     H13665   3.532   0.295   2.969  0.3745 -0.7355 -0.8446
  824MOL0     H13666   3.314   0.401   2.775  3.1460 -2.7991 -2.6374
  824MOL0     H13667   3.329   0.476   2.936 -0.0660  1.5609 -1.0704
  824MOL0     H13668   3.533   0.466   2.721  2.3775  0.9135  1.1898
  824MOL0     H13669   3.449   0.608   2.765  1.6014 -2.0217 -6.6151
  824MOL0     H13670   3.646   0.661   2.674  1.5983 -2.3635  0.0708
  824MOL0     H13671   3.870   0.860   2.540 -0.9938 -1.9490 -0.5622
  824MOL0     H13672   3.817   0.984   2.651 -2.1179  0.5897  0.1906
  824MOL0     H13673   3.701   0.867   2.583 -0.1223 -1.8560 -0.0768
  824MOL0     H13674   4.152   1.009   2.566 -0.6270  1.4374 -1.6232
  824MOL0     H13675   4.271   1.196   2.520 -2.4356  0.2764  0.7713
  824MOL0     H13676   4.519   1.479   2.592 -1.0699  0.9108  0.6474
  824MOL0     H13677   4.395   1.377   2.516 -2.4438 -0.1782  0.6189
  824MOL0     H13678   4.217   1.503   2.591 -0.5682 -4.8670  2.0483
  824MOL0     H13679   4.289   1.537   2.749 -1.1927  0.2400 -0.6386
  824MOL0     H13680   4.378   1.673   2.492  0.3652 -1.4392  1.7923
  824MOL0     H13681   4.444   1.708   2.654  2.5044 -1.1198 -2.6493
  824MOL0     H13682   4.223   1.760   2.732 -2.1877  0.1214  0.3891
  824MOL0     H13683   4.153   1.739   2.585  1.1531 -1.4731 -1.2618
  824MOL0     H13684   4.384   1.938   2.602 -0.1984 -1.0467  2.7801
  824MOL0     H13685   4.278   1.924   2.468 -0.7599  2.2441 -0.2178
  824MOL0     H13686   4.211   2.037   2.746 -2.1305 -0.2526  0.2473
  824MOL0     H13687   4.084   2.008   2.631 -1.3745 -0.1612  2.9000
  824MOL0     H13688   4.171   2.249   2.621  0.4845 -0.0916  1.6903
  824MOL0     H13689   4.196   2.173   2.464  6.2691  1.7532 -2.0019
  824MOL0     H13690   4.379   2.293   2.510 -0.0900  2.0367  2.8066
  824MOL0     H13691   4.445   2.124   2.530  1.6952 -0.2742  2.1453
  824MOL0     H13692   4.417   1.214   2.926 -2.0251 -0.7662  1.2198
  824MOL0     H13693   4.253   1.027   2.976 -4.0472 -1.4707 -0.8181
  824MOL0     H13694   3.923   0.788   3.055  4.1612  1.2497 -3.1465
  824MOL0     H13695   3.760   0.605   3.081 -1.9152  0.5463  0.5960
  824MOL0     H13696   4.531   0.960   2.645 -0.8433 -0.7536  1.3006
  824MOL0     H13697   4.624   1.050   2.862  0.1283  0.2345 -0.5769
  824MOL0     H13698   5.143   1.081   3.105  1.2705 -2.2067  2.4960
  824MOL0     H13699   5.188   1.210   3.299 -0.7517  1.3459 -1.3723
  824MOL0     H13700   5.201   1.373   3.498 -1.1596 -1.0614 -1.0035
  824MOL0     H13701   5.073   1.472   3.420 -0.7109 -0.4680 -1.9310
  824MOL0     H13702   4.952   1.477   3.628  0.7105  2.5508 -1.6710
  824MOL0     H13703   5.107   1.569   3.614 -2.9936  1.0000 -2.7177
  824MOL0     H13704   5.061   1.468   3.832 -0.8902 -0.2071 -0.7867
  824MOL0     H13705   5.075   1.297   3.757  0.6406 -0.8611 -1.6284
  824MOL0     H13706   5.265   1.392   3.894  0.2448  0.6745 -0.3307
  824MOL0     H13707   5.317   1.489   3.747  1.6759 -1.0393 -0.8482
  824MOL0     H13708   5.406   1.091   3.659 -3.2221  0.2433 -1.7356
  824MOL0     H13709   4.775   1.239   3.396  1.1138 -3.6654  3.6093
  824MOL0     H13710   4.652   1.044   3.204  2.9075 -0.3899 -0.4645
  824MOL0     H13711   4.610   1.217   3.221 -1.5884  0.8656 -2.0765
  824MOL0     H13712   4.664   1.172   3.069 -0.0322  1.4868  0.0521
  825MOL0     O13713   9.399   7.808   2.179  0.3066 -0.0102  0.0695
  825MOL0     C13714   9.483   7.903   2.158  1.4536 -0.0494 -0.6624
  825MOL0     O13715   9.623   7.883   2.142  0.5228 -1.0490  0.3457
  825MOL0     C13716   9.679   7.786   2.214 -0.3170  0.4109 -0.1201
  825MOL0     C13717   9.747   7.830   2.323 -0.0762  0.1753 -0.6927
  825MOL0     C13718   9.818   7.750   2.414  0.6141  0.7275 -0.3835
  825MOL0     C13719   9.813   7.615   2.390 -0.4931 -0.0809 -0.3771
  825MOL0     O13720   9.859   7.535   2.493 -0.5218  0.2058 -0.3291
  825MOL0     C13721   9.878   7.398   2.467  0.2169  0.4531  0.2897
  825MOL0     C13722   9.963   7.330   2.578 -0.2212  0.4315  0.2312
  825MOL0     C13723   9.996   7.191   2.548  0.0942  0.9204 -0.9011
  825MOL0     C13724  10.070   7.125   2.660  0.1965  0.6177 -0.8193
  825MOL0     C13725  10.067   6.970   2.645 -1.5188  0.2901 -0.1390
  825MOL0     C13726  10.208   6.927   2.625 -0.5616 -0.5308  0.4650
  825MOL0     C13727  10.212   6.772   2.654 -0.7758 -0.0135 -0.1997
  825MOL0     C13728  10.357   6.728   2.649 -0.2590  0.1958  0.0820
  825MOL0     N13729  10.377   6.588   2.679  0.4976  0.3901  0.2171
  825MOL0     C13730  10.326   6.527   2.797 -0.2298  0.5628  0.0631
  825MOL0     C13731  10.406   6.415   2.809 -0.4221  0.2804 -1.0808
  825MOL0     C13732  10.392   6.328   2.929 -0.1829  0.7878  0.0076
  825MOL0     C13733  10.505   6.353   3.033 -0.0324  0.0364  0.0390
  825MOL0     C13734  10.468   6.479   3.114 -0.2312 -0.4828  0.0415
  825MOL0     C13735  10.555   6.516   3.236 -0.0391 -0.6476 -0.0158
  825MOL0     O13736  10.517   6.649   3.272 -0.0518  0.4536  0.3169
  825MOL0     C13737  10.607   6.726   3.354 -0.6340  0.5126  0.0970
  825MOL0     C13738  10.582   6.856   3.350  0.0038 -0.5919  0.1405
  825MOL0     C13739  10.656   6.959   3.420 -0.1116 -0.1551  0.1140
  825MOL0     C13740  10.613   7.103   3.414  0.0704  0.4497  0.0998
  825MOL0     C13741  10.770   6.915   3.498 -0.0065  0.4993  0.8074
  825MOL0     C13742  10.877   7.003   3.553  0.9831  0.1634 -0.5965
  825MOL0     O13743  10.972   7.045   3.463 -0.5709  0.2458  0.0436
  825MOL0     C13744  11.026   7.171   3.487  1.1772 -0.7048  0.6122
  825MOL0     C13745  11.143   7.194   3.407 -0.5015 -0.8264 -1.1590
  825MOL0     C13746  11.200   7.327   3.421  0.6052 -0.0394 -0.1374
  825MOL0     C13747  11.148   7.430   3.499 -0.7257 -0.2487 -0.6985
  825MOL0     O13748  11.201   7.555   3.482 -0.5069  0.1388 -0.2430
  825MOL0     C13749  11.125   7.669   3.532  0.4601  0.4276 -0.8335
  825MOL0     C13750  11.167   7.795   3.462 -0.3943 -0.4776 -0.8479
  825MOL0     C13751  11.278   7.864   3.534 -0.3420 -0.2796  0.2189
  825MOL0     C13752  11.292   8.010   3.495 -0.8288  0.1199  0.4716
  825MOL0     C13753  11.408   8.088   3.549  0.1687 -0.6835  0.6273
  825MOL0     C13754  11.410   8.230   3.494  0.8560  0.4786  1.0439
  825MOL0     C13755  11.470   8.334   3.586  0.2383  0.9063  0.1895
  825MOL0     C13756  11.620   8.329   3.599  0.6197  0.4710 -0.3347
  825MOL0    Cl13757  11.685   8.432   3.730  0.1696  0.4097  0.2897
  825MOL0     C13758  11.025   7.408   3.558 -1.1388 -0.1775  0.3168
  825MOL0     C13759  10.970   7.282   3.556 -0.2333 -0.4233 -0.7751
  825MOL0     O13760  10.858   7.036   3.674 -0.1851 -0.2411 -0.1449
  825MOL0     C13761  10.803   6.769   3.498 -0.1823 -0.3794 -0.4073
  825MOL0     C13762  10.715   6.673   3.434 -0.4778 -0.2341 -0.1260
  825MOL0     N13763  10.493   6.411   2.700  0.0205  0.1073  0.2883
  825MOL0     N13764  10.472   6.511   2.620 -0.2203  0.5440  0.3161
  825MOL0     C13765   9.756   7.568   2.268  0.5414 -0.3764 -0.0834
  825MOL0     C13766   9.694   7.653   2.174 -0.2126  0.5739  0.1915
  825MOL0     C13767   9.437   8.044   2.159 -0.3462 -0.9891 -1.0432
  825MOL0     C13768   9.530   8.147   2.113 -0.2055 -0.6068 -0.2585
  825MOL0     C13769   9.505   8.282   2.121  0.2705  0.4594 -0.7422
  825MOL0     C13770   9.387   8.331   2.171  1.0157  0.0724 -0.8582
  825MOL0     O13771   9.365   8.462   2.187  0.4767  0.5333  0.3245
  825MOL0     C13772   9.237   8.518   2.200  0.2932  0.1973 -0.1375
  825MOL0     C13773   9.163   8.515   2.061 -0.2552  0.5286  0.5323
  825MOL0     C13774   9.043   8.615   2.067 -0.4325  0.4779  0.5895
  825MOL0     C13775   8.982   8.646   1.923 -0.0835 -0.1150  0.7132
  825MOL0     C13776   9.071   8.687   1.817  0.3835 -1.2109 -0.6579
  825MOL0     C13777   9.148   8.711   1.728 -0.5933 -0.8316 -0.7793
  825MOL0     C13778   9.287   8.229   2.188  0.8495  0.4482  0.9146
  825MOL0     C13779   9.308   8.090   2.179  1.1020  0.4789 -1.0939
  825MOL0     C13780   9.172   8.002   2.191  0.5896 -0.2525  0.5273
  825MOL0     H13781   9.734   7.935   2.344  2.2796  0.4949 -0.5855
  825MOL0     H13782   9.870   7.781   2.504  2.2386 -4.2809  0.7479
  825MOL0     H13783   9.922   7.392   2.367 -0.3758  3.7779 -0.2584
  825MOL0     H13784   9.778   7.353   2.469  1.0075 -1.4799  2.6562
  825MOL0     H13785  10.050   7.391   2.601  0.3133 -0.3288  0.2448
  825MOL0     H13786   9.910   7.344   2.673  2.1424  0.6936  1.5780
  825MOL0     H13787   9.902   7.139   2.527 -1.0176  1.7154  1.7362
  825MOL0     H13788  10.056   7.185   2.456  1.2020 -0.2160 -0.1459
  825MOL0     H13789  10.170   7.171   2.658  0.2426  0.4963 -3.0747
  825MOL0     H13790  10.024   7.139   2.758  0.3401 -4.0079  0.1418
  825MOL0     H13791  10.017   6.924   2.559  0.6064 -0.3285 -1.1139
  825MOL0     H13792  10.030   6.932   2.741 -0.9669  2.1648  0.8634
  825MOL0     H13793  10.246   6.957   2.527 -2.6266  3.1904  0.6397
  825MOL0     H13794  10.276   6.972   2.697 -1.7068  1.6220  0.2765
  825MOL0     H13795  10.156   6.708   2.586  1.7733 -4.0753  1.0956
  825MOL0     H13796  10.170   6.745   2.752  0.7443  0.0342  0.4989
  825MOL0     H13797  10.391   6.756   2.549 -0.7570  0.8783  0.0977
  825MOL0     H13798  10.417   6.791   2.716 -0.6436 -0.1532  0.7750
  825MOL0     H13799  10.253   6.569   2.866 -2.0989  0.2967 -1.6806
  825MOL0     H13800  10.406   6.226   2.890 -2.1528 -0.2932  1.9365
  825MOL0     H13801  10.297   6.342   2.981  1.2993  0.1542  3.1446
  825MOL0     H13802  10.493   6.272   3.107 -3.3889  1.2230  1.0001
  825MOL0     H13803  10.608   6.373   3.003  0.0244  1.1089  0.8881
  825MOL0     H13804  10.481   6.561   3.043  1.8373 -2.1151 -1.6343
  825MOL0     H13805  10.364   6.465   3.144  0.2619 -1.2819  1.4871
  825MOL0     H13806  10.546   6.438   3.312  0.5669 -0.8174 -0.1104
  825MOL0     H13807  10.656   6.511   3.193  1.3336 -1.2393  2.9998
  825MOL0     H13808  10.491   6.875   3.294 -0.0161  1.5566  0.8315
  825MOL0     H13809  10.692   7.178   3.426  0.0453  0.7012 -1.1466
  825MOL0     H13810  10.526   7.138   3.469 -0.7959  0.7194 -1.3739
  825MOL0     H13811  10.572   7.106   3.312 -0.6667 -2.3365  0.2207
  825MOL0     H13812  11.190   7.125   3.339 -3.2207 -0.1539 -3.9207
  825MOL0     H13813  11.285   7.351   3.357 -0.7306 -0.5054 -2.1688
  825MOL0     H13814  11.016   7.665   3.523  0.3053 -1.4940  1.1335
  825MOL0     H13815  11.138   7.674   3.641 -0.9525  2.4074 -0.6986
  825MOL0     H13816  11.193   7.786   3.356  0.2685 -0.1274 -0.7170
  825MOL0     H13817  11.082   7.864   3.462 -2.0073 -2.3121  0.8511
  825MOL0     H13818  11.373   7.811   3.522 -0.0615  0.4901 -1.0691
  825MOL0     H13819  11.249   7.875   3.639 -0.1912 -0.6665  0.3019
  825MOL0     H13820  11.197   8.058   3.518 -2.2701 -1.8621 -0.9449
  825MOL0     H13821  11.313   8.005   3.388 -1.7754 -1.1299  0.3239
  825MOL0     H13822  11.398   8.095   3.658 -1.7858  1.9411  0.3715
  825MOL0     H13823  11.502   8.036   3.528 -1.1130 -1.7401 -3.1098
  825MOL0     H13824  11.302   8.246   3.494  0.5248 -1.0665 -1.9843
  825MOL0     H13825  11.448   8.231   3.392  0.9156  0.5397  1.0669
  825MOL0     H13826  11.426   8.337   3.686  0.9120  2.5618  0.4849
  825MOL0     H13827  11.456   8.435   3.544  1.4639  0.9289 -0.2059
  825MOL0     H13828  11.665   8.333   3.499 -2.8562 -3.2789 -2.3567
  825MOL0     H13829  11.640   8.229   3.639 -2.4956 -0.2689 -0.3681
  825MOL0     H13830  10.981   7.491   3.613  0.5224  0.3727  0.8989
  825MOL0     H13831  10.876   7.271   3.610  0.6700  3.3881  1.9999
  825MOL0     H13832  10.890   6.749   3.559  2.0103  0.8949 -2.9270
  825MOL0     H13833  10.736   6.566   3.435 -2.0103 -0.5753 -1.0987
  825MOL0     H13834   9.759   7.462   2.244  1.6386 -0.9584  2.3350
  825MOL0     H13835   9.658   7.607   2.083  0.3459  2.6723 -1.1578
  825MOL0     H13836   9.637   8.131   2.109  0.5407  0.6575  5.4648
  825MOL0     H13837   9.585   8.353   2.101 -0.0736  0.9220 -0.5033
  825MOL0     H13838   9.184   8.470   2.283 -1.2754  1.7148 -0.2104
  825MOL0     H13839   9.248   8.624   2.225 -0.5665  1.0100 -2.9488
  825MOL0     H13840   9.132   8.410   2.055 -1.1417  0.8267 -0.3317
  825MOL0     H13841   9.238   8.541   1.986  2.8631 -0.0332  3.2369
  825MOL0     H13842   8.960   8.560   2.111 -1.9039 -1.1031 -3.6202
  825MOL0     H13843   9.070   8.714   2.106  0.1660  0.7100 -0.3744
  825MOL0     H13844   8.911   8.728   1.937 -0.0046  0.0209  0.3194
  825MOL0     H13845   8.928   8.557   1.891  0.3689  0.5066 -2.0475
  825MOL0     H13846   9.215   8.758   1.659  1.9509 -0.7997  1.5340
  825MOL0     H13847   9.188   8.266   2.213 -0.5377 -1.6249 -1.1279
  825MOL0     H13848   9.164   7.930   2.108 -0.3298  2.6142 -2.0630
  825MOL0     H13849   9.159   7.964   2.293 -3.7807 -1.7510 -0.3588
  825MOL0     H13850   9.083   8.062   2.171 -1.3503 -2.2719  2.5441
  826MOL0     O13851   9.030  11.467   2.805 -0.3453 -0.0682 -0.2699
  826MOL0     C13852   9.037  11.358   2.759 -0.0596  0.1658 -0.2190
  826MOL0     O13853   9.110  11.252   2.822 -1.0035 -0.3633  0.7890
  826MOL0     C13854   9.163  11.284   2.948  0.4886 -0.6205 -0.1766
  826MOL0     C13855   9.076  11.273   3.058  0.8705 -0.1037 -0.5240
  826MOL0     C13856   9.131  11.309   3.187 -0.7011  0.7218 -0.0580
  826MOL0     C13857   9.270  11.349   3.202  0.3539  0.0843 -0.3260
  826MOL0     O13858   9.324  11.386   3.320  0.1211 -0.1126 -0.0401
  826MOL0     C13859   9.304  11.525   3.354 -0.0109  0.1111  0.4951
  826MOL0     C13860   9.276  11.530   3.505  0.3546 -0.1237 -0.5504
  826MOL0     C13861   9.393  11.494   3.590 -0.2060 -0.4293 -0.0160
  826MOL0     C13862   9.517  11.591   3.570  0.8959 -0.5632  0.3986
  826MOL0     C13863   9.500  11.740   3.577  0.1510  0.0853 -0.1493
  826MOL0     C13864   9.424  11.793   3.713 -0.8875 -0.6932  0.1137
  826MOL0     C13865   9.499  11.746   3.837 -0.5045 -0.6556  1.3762
  826MOL0     C13866   9.614  11.847   3.884  0.4098 -0.5235  0.5511
  826MOL0     N13867   9.664  11.794   4.005 -0.2035 -0.2543  0.1240
  826MOL0     C13868   9.714  11.670   4.036 -0.0150  0.0184  0.1873
  826MOL0     C13869   9.782  11.693   4.150 -0.2049  0.5378  0.5500
  826MOL0     C13870   9.846  11.605   4.252  0.1038 -0.1723  0.6124
  826MOL0     C13871   9.834  11.460   4.227 -0.0987  1.2489 -0.0375
  826MOL0     C13872   9.923  11.398   4.117  0.5688 -0.5103 -0.0256
  826MOL0     C13873  10.080  11.431   4.140  0.5349  0.2588 -1.0409
  826MOL0     O13874  10.133  11.348   4.041  0.2154 -0.7274 -0.5172
  826MOL0     C13875  10.274  11.330   4.028  0.0122  0.2054 -0.5092
  826MOL0     C13876  10.374  11.392   4.107 -0.1711  0.1072 -0.2610
  826MOL0     C13877  10.515  11.365   4.081  0.2445 -0.9583 -0.9153
  826MOL0     C13878  10.615  11.458   4.151  0.8243  0.8221 -0.9614
  826MOL0     C13879  10.559  11.262   3.994 -0.0862 -0.1276 -0.2217
  826MOL0     C13880  10.696  11.221   3.978  0.3703  0.4247 -0.5699
  826MOL0     O13881  10.745  11.218   3.850  0.3743 -0.1397 -0.4106
  826MOL0     C13882  10.885  11.204   3.828 -0.1302  0.2603  0.9321
  826MOL0     C13883  10.973  11.280   3.903  1.6594 -0.4086 -0.4263
  826MOL0     C13884  11.110  11.271   3.877 -0.4315 -0.7423  0.1587
  826MOL0     C13885  11.159  11.191   3.774 -0.6489  0.3994 -0.0931
  826MOL0     O13886  11.299  11.185   3.752 -0.0102  0.0347 -0.6908
  826MOL0     C13887  11.356  11.176   3.617 -0.1982 -0.7955  0.6474
  826MOL0     C13888  11.485  11.255   3.612 -0.2225 -0.3037  0.1995
  826MOL0     C13889  11.536  11.284   3.469 -0.1491  0.2301 -0.7530
  826MOL0     C13890  11.685  11.330   3.476  0.9276 -0.2392  0.5200
  826MOL0     C13891  11.732  11.422   3.355  1.1592  0.6154 -0.9159
  826MOL0     C13892  11.874  11.476   3.380 -0.2215 -0.0980  0.1659
  826MOL0     C13893  11.922  11.549   3.253  0.0960 -0.8512 -0.2388
  826MOL0     C13894  12.071  11.568   3.242  0.2296  0.0603 -0.6943
  826MOL0    Cl13895  12.120  11.700   3.358 -0.1138 -0.1496 -0.3069
  826MOL0     C13896  11.066  11.122   3.688 -0.1440  1.1802  0.6312
  826MOL0     C13897  10.929  11.127   3.716  0.3149  0.6483 -0.8803
  826MOL0     O13898  10.762  11.220   4.083  0.0898 -0.5487 -0.1903
  826MOL0     C13899  10.459  11.210   3.914  1.1110 -0.3342 -0.4271
  826MOL0     C13900  10.323  11.244   3.925 -0.9373 -0.2522 -0.3378
  826MOL0     N13901   9.759  11.822   4.191  0.8050 -0.7378  1.2633
  826MOL0     N13902   9.684  11.887   4.109 -0.2050 -0.4557 -0.2807
  826MOL0     C13903   9.348  11.348   3.083  0.6311 -0.1213 -0.4812
  826MOL0     C13904   9.293  11.325   2.964 -0.0455 -0.7607  0.6682
  826MOL0     C13905   8.970  11.343   2.626  0.5552 -0.1890 -0.0399
  826MOL0     C13906   8.952  11.458   2.548 -0.2318 -0.0228 -0.5838
  826MOL0     C13907   8.882  11.449   2.430  0.4139 -0.2552 -0.5514
  826MOL0     C13908   8.833  11.331   2.372  0.5569 -0.4805  0.2993
  826MOL0     O13909   8.740  11.342   2.269  0.5568 -0.8779  0.4858
  826MOL0     C13910   8.708  11.220   2.182 -0.1547 -0.6667 -0.1336
  826MOL0     C13911   8.801  11.210   2.059 -0.1523 -0.4966  1.1592
  826MOL0     C13912   8.789  11.336   1.972  0.2098 -0.3668 -0.4234
  826MOL0     C13913   8.868  11.318   1.847  1.0571 -0.8785  0.8626
  826MOL0     C13914   8.863  11.442   1.757 -0.2064  1.7408 -0.0172
  826MOL0     C13915   8.876  11.537   1.682 -0.0403  0.2088  0.1144
  826MOL0     C13916   8.867  11.218   2.436  0.3808 -0.7436 -0.1767
  826MOL0     C13917   8.923  11.220   2.558 -0.0619  0.1633  0.2796
  826MOL0     C13918   8.920  11.088   2.639  0.0442  0.1244 -0.0579
  826MOL0     H13919   8.972  11.241   3.053  0.8270 -0.0557  0.0431
  826MOL0     H13920   9.068  11.309   3.275  0.4666  1.0566  0.7929
  826MOL0     H13921   9.225  11.571   3.295 -1.0885 -0.5326  1.3995
  826MOL0     H13922   9.395  11.582   3.333 -1.7447  2.6343 -0.5751
  826MOL0     H13923   9.237  11.629   3.531 -3.1805 -1.3027 -0.8911
  826MOL0     H13924   9.196  11.460   3.528  1.0536 -1.3982 -1.8198
  826MOL0     H13925   9.364  11.504   3.695 -1.2690 -1.2460 -0.2171
  826MOL0     H13926   9.406  11.389   3.560 -3.5352 -0.4961 -1.6894
  826MOL0     H13927   9.602  11.551   3.627  0.5929 -1.4136  0.2661
  826MOL0     H13928   9.557  11.581   3.469 -2.1723  0.5230 -1.0658
  826MOL0     H13929   9.435  11.769   3.494 -1.1421 -2.3386 -0.0838
  826MOL0     H13930   9.596  11.789   3.561 -0.3188  0.3747 -2.4864
  826MOL0     H13931   9.427  11.902   3.717  2.7520 -0.5945 -1.4150
  826MOL0     H13932   9.323  11.750   3.717 -0.2343 -2.2915  2.8219
  826MOL0     H13933   9.531  11.643   3.817  2.1293  0.4395 -0.6342
  826MOL0     H13934   9.425  11.747   3.918 -0.7348 -0.8944  1.1699
  826MOL0     H13935   9.685  11.839   3.801 -1.1928  2.5275 -1.3227
  826MOL0     H13936   9.574  11.949   3.884  3.6755  0.8694  0.1675
  826MOL0     H13937   9.705  11.579   3.977 -3.1515  0.1920  0.2330
  826MOL0     H13938   9.798  11.626   4.348 -1.1988  0.6204 -0.1847
  826MOL0     H13939   9.951  11.634   4.254 -0.1329  0.9121 -0.7753
  826MOL0     H13940   9.854  11.403   4.318 -0.2589  1.8778  0.4001
  826MOL0     H13941   9.729  11.452   4.194  0.2727  2.6512 -1.7253
  826MOL0     H13942   9.907  11.290   4.110 -4.1821 -0.2156  2.4421
  826MOL0     H13943   9.895  11.434   4.017 -2.2971 -0.9785  0.5126
  826MOL0     H13944  10.104  11.535   4.113  1.8817 -0.0066 -0.9585
  826MOL0     H13945  10.113  11.395   4.238 -1.9693  1.7757  0.4719
  826MOL0     H13946  10.344  11.462   4.183  0.6699 -0.4228  0.5833
  826MOL0     H13947  10.668  11.506   4.069 -0.7904  4.1043 -0.2630
  826MOL0     H13948  10.678  11.405   4.223 -0.2860  0.2495 -0.3859
  826MOL0     H13949  10.563  11.540   4.202 -0.3920 -0.3314 -0.2849
  826MOL0     H13950  10.933  11.341   3.984  2.4344  2.9941 -2.4258
  826MOL0     H13951  11.188  11.322   3.934  1.9317 -5.3775  1.5618
  826MOL0     H13952  11.370  11.074   3.581  0.5415  0.3008 -2.4817
  826MOL0     H13953  11.291  11.234   3.550  2.1398  0.6633 -0.4662
  826MOL0     H13954  11.465  11.350   3.663 -3.5218 -1.3554  1.1452
  826MOL0     H13955  11.559  11.197   3.667 -4.2094 -4.6891  1.6373
  826MOL0     H13956  11.463  11.354   3.427  0.6120  0.3018 -2.0365
  826MOL0     H13957  11.537  11.192   3.409 -1.1340  0.5177 -1.2356
  826MOL0     H13958  11.753  11.244   3.479  0.1930 -0.8317  0.3560
  826MOL0     H13959  11.698  11.391   3.566 -1.6489  1.0964  0.0643
  826MOL0     H13960  11.724  11.368   3.260  0.2991  0.8170 -0.9688
  826MOL0     H13961  11.663  11.507   3.364 -2.4256 -2.2251  1.1540
  826MOL0     H13962  11.932  11.388   3.411 -2.3648 -1.6313  0.0867
  826MOL0     H13963  11.870  11.538   3.469  3.1879 -1.5480  1.5081
  826MOL0     H13964  11.870  11.645   3.248  0.0176 -0.7718  1.3961
  826MOL0     H13965  11.888  11.500   3.161 -0.8625 -0.6386 -0.0123
  826MOL0     H13966  12.085  11.589   3.136 -2.0484 -1.0198 -1.2900
  826MOL0     H13967  12.126  11.476   3.265 -0.6827  0.1032  2.1235
  826MOL0     H13968  11.104  11.064   3.604  1.8850  0.4537  1.9765
  826MOL0     H13969  10.856  11.080   3.650 -1.4486  1.3508  0.4945
  826MOL0     H13970  10.481  11.139   3.835  2.3784 -0.1878 -0.2292
  826MOL0     H13971  10.259  11.188   3.858  2.1267 -2.9072 -1.2973
  826MOL0     H13972   9.447  11.392   3.080  0.4845  0.9843  4.1758
  826MOL0     H13973   9.354  11.340   2.875 -0.1598  0.4162  0.7742
  826MOL0     H13974   8.967  11.560   2.581 -4.9067  0.6791  0.0378
  826MOL0     H13975   8.839  11.542   2.394  0.0572 -0.1752  0.0556
  826MOL0     H13976   8.707  11.127   2.239  2.3410 -1.5877 -1.4603
  826MOL0     H13977   8.606  11.228   2.143  0.4957  0.2713 -1.7661
  826MOL0     H13978   8.768  11.122   2.003  2.8370 -1.6000  0.9412
  826MOL0     H13979   8.904  11.190   2.092 -0.1670 -1.5045  0.6174
  826MOL0     H13980   8.684  11.364   1.961  0.5511  2.5084  2.1026
  826MOL0     H13981   8.829  11.421   2.028 -1.1471  1.4155 -2.0196
  826MOL0     H13982   8.833  11.235   1.785  0.7657  1.8230 -2.9826
  826MOL0     H13983   8.971  11.285   1.864  1.7144  0.5800 -0.1052
  826MOL0     H13984   8.889  11.617   1.612  2.9429  0.7684  1.1761
  826MOL0     H13985   8.836  11.124   2.392  0.0085  0.1423 -1.9186
  826MOL0     H13986   8.859  11.093   2.730  2.5429 -0.3415  1.7452
  826MOL0     H13987   8.875  11.003   2.586 -0.8474  0.8323 -0.4589
  826MOL0     H13988   9.018  11.065   2.682 -0.3098 -3.0057 -0.6995
  827MOL0     O13989   7.453   2.930   5.462  0.0786  0.0184 -0.2376
  827MOL0     C13990   7.522   3.016   5.410  0.0005  0.3515  0.4520
  827MOL0     O13991   7.605   3.089   5.476  0.7496  0.1652 -0.1779
  827MOL0     C13992   7.572   3.113   5.604 -1.1543 -0.6786  0.0177
  827MOL0     C13993   7.664   3.072   5.705  0.5340  0.6111 -0.3085
  827MOL0     C13994   7.610   3.083   5.842 -0.4974 -0.3810  1.1717
  827MOL0     C13995   7.494   3.165   5.874 -0.5956  0.7566 -0.0912
  827MOL0     O13996   7.440   3.182   6.001 -0.1182 -0.4815 -0.1266
  827MOL0     C13997   7.522   3.155   6.116  0.5530 -0.1367  0.1241
  827MOL0     C13998   7.478   3.004   6.158 -0.7673  0.2918 -0.2871
  827MOL0     C13999   7.338   2.976   6.200  0.5440 -0.2367 -0.1586
  827MOL0     C14000   7.300   3.008   6.338 -0.3182  0.2997  1.0485
  827MOL0     C14001   7.145   3.019   6.366 -0.3626 -0.6762  0.4372
  827MOL0     C14002   7.119   3.067   6.511  0.0522 -0.1485 -0.6457
  827MOL0     C14003   7.054   2.950   6.590 -0.1021 -0.0616 -0.0288
  827MOL0     C14004   6.923   2.893   6.530  1.0437 -0.0242  1.0625
  827MOL0     N14005   6.827   3.010   6.540 -0.0693 -0.2881 -0.0336
  827MOL0     C14006   6.790   3.070   6.667  0.0454 -0.8655 -0.2390
  827MOL0     C14007   6.685   3.154   6.632 -0.7780 -1.0494 -0.7431
  827MOL0     C14008   6.595   3.231   6.742  0.2118  1.0648  1.4014
  827MOL0     C14009   6.611   3.381   6.760 -0.0220  0.1141 -0.9045
  827MOL0     C14010   6.510   3.414   6.869 -0.0623  0.6708  0.6369
  827MOL0     C14011   6.534   3.549   6.928  0.3312 -0.0364  0.2723
  827MOL0     O14012   6.468   3.656   6.851  0.6151 -0.4704  0.2886
  827MOL0     C14013   6.507   3.785   6.887  0.2753  0.0530 -0.6772
  827MOL0     C14014   6.635   3.830   6.862 -0.0497 -0.0471 -0.9186
  827MOL0     C14015   6.672   3.959   6.900  0.4683  0.8619 -0.5348
  827MOL0     C14016   6.811   3.997   6.868 -1.3434 -0.6629 -0.0171
  827MOL0     C14017   6.577   4.045   6.946  0.5721 -0.3722 -0.5221
  827MOL0     C14018   6.609   4.190   6.996  0.6388  0.3448  1.2499
  827MOL0     O14019   6.512   4.234   7.072  0.0818 -1.2699  0.2702
  827MOL0     C14020   6.516   4.361   7.103  0.2384  0.4519  0.3612
  827MOL0     C14021   6.438   4.449   7.029 -0.7837  0.1682  0.8276
  827MOL0     C14022   6.421   4.583   7.069 -0.8112  0.0049 -0.5691
  827MOL0     C14023   6.495   4.637   7.173  0.3693  0.5513  0.5270
  827MOL0     O14024   6.479   4.758   7.236 -0.4085  0.5175 -0.9947
  827MOL0     C14025   6.409   4.854   7.162 -0.5532 -0.7085  0.3616
  827MOL0     C14026   6.389   4.985   7.240  0.4214  0.2599 -0.0587
  827MOL0     C14027   6.307   5.095   7.150  0.4006  0.9828  0.0163
  827MOL0     C14028   6.168   5.058   7.099 -0.4701  0.4941 -0.1978
  827MOL0     C14029   6.098   5.178   7.040  0.5438 -0.7311  0.2249
  827MOL0     C14030   5.958   5.143   6.997  0.7743 -0.2483 -0.4878
  827MOL0     C14031   5.895   5.263   6.915  0.8056  0.3426 -0.2606
  827MOL0     C14032   5.750   5.235   6.889 -0.0312 -0.7832 -0.0388
  827MOL0    Cl14033   5.763   5.074   6.814 -0.5565 -0.4649 -0.2205
  827MOL0     C14034   6.584   4.559   7.244  1.3763  0.4141  0.9450
  827MOL0     C14035   6.596   4.421   7.208 -0.3595  0.0780  0.9618
  827MOL0     O14036   6.715   4.246   6.969  0.9931 -0.7004  0.6593
  827MOL0     C14037   6.436   4.009   6.949 -0.7621  0.2241 -0.3347
  827MOL0     C14038   6.399   3.871   6.912  0.1988  0.4302 -0.6252
  827MOL0     N14039   6.669   3.147   6.498  0.5150 -0.7428 -0.1284
  827MOL0     N14040   6.757   3.072   6.446  0.5694  0.0173 -0.0681
  827MOL0     C14041   7.426   3.214   5.768 -0.4552 -0.3155  0.1435
  827MOL0     C14042   7.462   3.188   5.638  0.1790 -0.4784  0.9099
  827MOL0     C14043   7.536   3.028   5.260  0.5809  0.2856 -0.2591
  827MOL0     C14044   7.437   2.955   5.187 -0.1670 -0.1663 -0.0538
  827MOL0     C14045   7.428   2.956   5.052  0.1296 -0.5859 -0.2563
  827MOL0     C14046   7.521   3.028   4.978  0.3592  0.4282 -0.0936
  827MOL0     O14047   7.533   3.020   4.839 -0.8130  0.2228  0.2296
  827MOL0     C14048   7.434   2.952   4.758 -0.3574 -0.2734 -0.4499
  827MOL0     C14049   7.506   2.935   4.624  0.3379  0.2778  0.5409
  827MOL0     C14050   7.416   2.862   4.514  0.3882 -0.4063  0.1263
  827MOL0     C14051   7.487   2.852   4.380  0.0041  0.2230  0.8213
  827MOL0     C14052   7.404   2.754   4.301 -0.3615  0.5152  0.2201
  827MOL0     C14053   7.347   2.668   4.233 -0.2583 -0.2094  0.0409
  827MOL0     C14054   7.612   3.106   5.037 -0.0137  0.7355 -1.2259
  827MOL0     C14055   7.621   3.111   5.185 -0.3679  0.1571  0.3291
  827MOL0     C14056   7.718   3.214   5.249  1.1814  0.0785 -0.4064
  827MOL0     H14057   7.751   3.013   5.680 -0.4299 -1.6078  1.2312
  827MOL0     H14058   7.658   3.040   5.929  0.6197 -0.5384  0.4990
  827MOL0     H14059   7.501   3.231   6.192  0.3170  2.2066 -2.1607
  827MOL0     H14060   7.628   3.148   6.094  0.8485 -0.0483  1.4292
  827MOL0     H14061   7.503   2.932   6.080  0.8031  1.4278 -0.8939
  827MOL0     H14062   7.540   2.986   6.247 -1.0604 -0.5023 -0.2418
  827MOL0     H14063   7.268   3.026   6.133 -1.0244 -1.3600  0.5905
  827MOL0     H14064   7.312   2.871   6.185 -0.5910 -0.4650  2.7315
  827MOL0     H14065   7.360   2.945   6.404  3.0654 -1.0605 -2.9068
  827MOL0     H14066   7.324   3.112   6.359 -2.5417  0.7847  1.4670
  827MOL0     H14067   7.113   2.917   6.344  1.7282 -1.0843 -0.9831
  827MOL0     H14068   7.107   3.099   6.303  2.3624  1.2493  1.0567
  827MOL0     H14069   7.202   3.092   6.578 -1.0410  1.1150  0.2803
  827MOL0     H14070   7.049   3.150   6.502 -2.2506 -2.0577 -1.1189
  827MOL0     H14071   7.033   2.985   6.691  2.6283  2.5969 -0.2332
  827MOL0     H14072   7.125   2.867   6.586 -0.8342 -0.7047 -0.0188
  827MOL0     H14073   6.926   2.852   6.428  0.5409 -3.4521  2.3012
  827MOL0     H14074   6.889   2.815   6.598  0.7846 -2.0616 -1.2587
  827MOL0     H14075   6.834   3.042   6.762 -0.1957 -1.9414 -0.4413
  827MOL0     H14076   6.606   3.179   6.837  0.2443 -0.0651  0.8008
  827MOL0     H14077   6.493   3.200   6.717  1.3314 -2.4031  0.5452
  827MOL0     H14078   6.716   3.409   6.772  0.8785 -2.5216 -1.8470
  827MOL0     H14079   6.584   3.440   6.672  1.9743  0.7082 -1.1790
  827MOL0     H14080   6.410   3.402   6.828  0.1546 -3.0618  0.8433
  827MOL0     H14081   6.510   3.341   6.951 -0.8573 -1.9387 -1.5290
  827MOL0     H14082   6.485   3.550   7.026 -1.4505 -2.6622 -0.4895
  827MOL0     H14083   6.642   3.564   6.926  0.0829  2.1414 -0.9467
  827MOL0     H14084   6.718   3.770   6.825  0.9200 -0.3302  1.5118
  827MOL0     H14085   6.812   4.053   6.774  0.0220  1.9900  1.4758
  827MOL0     H14086   6.876   3.912   6.843  0.9627  0.3335  2.1106
  827MOL0     H14087   6.875   4.047   6.941 -1.3662  0.8390 -0.9905
  827MOL0     H14088   6.411   4.424   6.927  2.7185  1.7479 -0.6623
  827MOL0     H14089   6.368   4.655   7.007 -0.0659  2.3640  1.3890
  827MOL0     H14090   6.459   4.869   7.066  0.3867 -0.4092  0.8858
  827MOL0     H14091   6.311   4.814   7.135 -0.9986 -0.9465  2.2171
  827MOL0     H14092   6.337   4.973   7.336  1.2274  0.5222  0.4164
  827MOL0     H14093   6.487   5.024   7.266  1.9874 -2.6938 -1.0811
  827MOL0     H14094   6.358   5.104   7.053  1.9992 -4.0184  0.1067
  827MOL0     H14095   6.317   5.191   7.203 -1.3424  1.1946  0.0138
  827MOL0     H14096   6.099   5.018   7.173 -1.4071  0.2985 -1.1510
  827MOL0     H14097   6.181   4.984   7.019 -1.9247  2.6189 -2.5306
  827MOL0     H14098   6.102   5.265   7.107 -0.4241 -0.8818  0.5049
  827MOL0     H14099   6.144   5.210   6.947 -3.1014 -0.5413 -1.6836
  827MOL0     H14100   5.907   5.129   7.092  3.3639  0.5872  1.1106
  827MOL0     H14101   5.968   5.055   6.934  0.6723 -0.7606  0.2061
  827MOL0     H14102   5.952   5.279   6.823 -1.3513 -2.3771 -2.2351
  827MOL0     H14103   5.903   5.356   6.972 -3.5287 -1.3310  3.7099
  827MOL0     H14104   5.715   5.312   6.820 -1.8578 -0.4884  1.1448
  827MOL0     H14105   5.691   5.229   6.981  1.7897  4.2872  1.7894
  827MOL0     H14106   6.645   4.604   7.322 -0.9750 -0.7077  3.6190
  827MOL0     H14107   6.679   4.367   7.251 -0.9868 -1.0748  0.7837
  827MOL0     H14108   6.363   4.086   6.972 -0.5044  1.2069 -2.5401
  827MOL0     H14109   6.296   3.839   6.899  0.4431 -1.0632  0.8646
  827MOL0     H14110   7.339   3.279   5.779 -0.6357 -0.3423 -0.9776
  827MOL0     H14111   7.392   3.218   5.560  2.6055  1.6275 -0.6034
  827MOL0     H14112   7.367   2.896   5.245 -0.8067 -1.5654 -2.1377
  827MOL0     H14113   7.355   2.894   5.001  0.7794 -1.4720 -0.1289
  827MOL0     H14114   7.418   2.857   4.811  2.0323  0.1334  1.1322
  827MOL0     H14115   7.345   3.016   4.750  0.0909  1.2350  3.9711
  827MOL0     H14116   7.602   2.885   4.636  1.3218  1.8667 -0.2867
  827MOL0     H14117   7.543   3.024   4.572 -0.5263  0.2004 -0.2301
  827MOL0     H14118   7.394   2.760   4.548 -0.2890 -0.0244  0.8857
  827MOL0     H14119   7.322   2.917   4.503  0.4586 -0.4393 -0.6457
  827MOL0     H14120   7.590   2.821   4.397  0.9271  2.2060 -0.6657
  827MOL0     H14121   7.487   2.942   4.318  0.4474 -1.1600 -1.3267
  827MOL0     H14122   7.295   2.591   4.180 -2.1485 -0.0731  1.5786
  827MOL0     H14123   7.682   3.160   4.974  2.4172 -1.0771 -0.2140
  827MOL0     H14124   7.791   3.165   5.314 -2.1285 -1.9211  2.1281
  827MOL0     H14125   7.759   3.279   5.171  2.9316  1.2484  1.3779
  827MOL0     H14126   7.675   3.289   5.316  2.7818 -0.6561  1.5527
  828MOL0     O14127   1.731  10.954   7.134  0.6377 -0.5565 -0.7019
  828MOL0     C14128   1.690  11.026   7.225  0.1204 -0.0716 -0.5534
  828MOL0     O14129   1.758  11.046   7.342 -0.0082  0.1313  1.1032
  828MOL0     C14130   1.877  10.979   7.364  0.1030  0.1474  0.2173
  828MOL0     C14131   1.991  11.062   7.394  0.2050  0.7203 -0.8419
  828MOL0     C14132   2.121  11.005   7.421  0.4807  0.3859  0.5130
  828MOL0     C14133   2.126  10.858   7.425 -0.6627  0.1092  0.3919
  828MOL0     O14134   2.241  10.788   7.451  0.2736  0.8066 -0.1384
  828MOL0     C14135   2.357  10.868   7.479  0.5984  0.4916  0.1590
  828MOL0     C14136   2.473  10.773   7.493  0.8738 -0.0740 -0.0268
  828MOL0     C14137   2.466  10.682   7.613  0.2865 -0.4454 -0.3265
  828MOL0     C14138   2.587  10.588   7.629  0.8163  0.5426 -0.3361
  828MOL0     C14139   2.591  10.520   7.764 -0.4928  0.4637  0.8298
  828MOL0     C14140   2.478  10.424   7.796 -0.8650  0.8769 -0.2309
  828MOL0     C14141   2.496  10.396   7.949  0.1727 -0.4781 -1.1245
  828MOL0     C14142   2.623  10.322   7.985 -0.1432  0.5053 -0.8079
  828MOL0     N14143   2.596  10.249   8.115 -0.0341  0.1944  0.5160
  828MOL0     C14144   2.551  10.300   8.234  0.5958  0.2094 -0.0964
  828MOL0     C14145   2.551  10.198   8.320  0.1665 -0.3418 -0.1048
  828MOL0     C14146   2.504  10.185   8.467 -0.7486  0.2724  0.1400
  828MOL0     C14147   2.383  10.092   8.471  0.7236  0.0115 -0.8303
  828MOL0     C14148   2.328  10.078   8.611  0.4778  0.9886  0.5933
  828MOL0     C14149   2.246   9.944   8.625 -0.3128 -0.4498 -0.6134
  828MOL0     O14150   2.179   9.950   8.752  0.2916 -0.6350 -0.0944
  828MOL0     C14151   2.230   9.872   8.858 -0.9429 -0.7931 -0.1247
  828MOL0     C14152   2.335   9.925   8.934  0.5557  0.2388  0.0474
  828MOL0     C14153   2.366   9.864   9.053 -0.2939  0.2752  0.0264
  828MOL0     C14154   2.475   9.935   9.137  0.1721  0.6604  0.4466
  828MOL0     C14155   2.296   9.744   9.091  0.6374 -0.1240  0.5755
  828MOL0     C14156   2.333   9.670   9.219 -0.7330  0.8293  0.3610
  828MOL0     O14157   2.461   9.669   9.253  0.2290  0.1689 -0.6666
  828MOL0     C14158   2.506   9.620   9.383  1.3139 -0.0976  0.5027
  828MOL0     C14159   2.432   9.598   9.499  0.7640 -0.1118  0.3645
  828MOL0     C14160   2.494   9.565   9.618 -0.0878  0.5699 -0.4298
  828MOL0     C14161   2.631   9.535   9.625  0.4462 -0.3224 -0.1220
  828MOL0     O14162   2.689   9.503   9.744 -0.7054 -0.3181 -0.3035
  828MOL0     C14163   2.608   9.476   9.859 -0.3750  0.2516 -0.2489
  828MOL0     C14164   2.710   9.422   9.967  0.8281  0.8764 -0.0641
  828MOL0     C14165   2.646   9.346  10.083 -0.1650 -0.2709 -0.0371
  828MOL0     C14166   2.762   9.287  10.168 -0.1216 -0.3543  0.5065
  828MOL0     C14167   2.729   9.246  10.310  0.2566  0.0198 -0.4469
  828MOL0     C14168   2.860   9.239  10.394 -1.2030 -0.1620  0.3379
  828MOL0     C14169   2.828   9.179  10.538 -0.0042 -0.2915  0.2584
  828MOL0     C14170   2.921   9.057  10.581  0.1244  0.1472  0.1858
  828MOL0    Cl14171   2.861   8.916  10.492  0.2381 -0.2449 -0.4734
  828MOL0     C14172   2.708   9.542   9.506  1.1991 -0.5343 -0.1400
  828MOL0     C14173   2.640   9.586   9.388  0.5815 -0.0839  0.1658
  828MOL0     O14174   2.243   9.624   9.280  0.1423  0.6193 -0.6235
  828MOL0     C14175   2.190   9.693   9.010  0.3377  0.5857 -0.5388
  828MOL0     C14176   2.155   9.764   8.900  0.0942  0.3305  0.0067
  828MOL0     N14177   2.605  10.086   8.257  0.7126 -0.2743  1.2278
  828MOL0     N14178   2.612  10.111   8.130 -0.1914 -0.5207  0.0274
  828MOL0     C14179   2.012  10.783   7.403 -0.3382 -0.4717 -0.5808
  828MOL0     C14180   1.890  10.840   7.370 -0.5592 -0.9511 -0.1971
  828MOL0     C14181   1.560  11.100   7.207  0.7528  0.8603 -0.2549
  828MOL0     C14182   1.507  11.112   7.078  0.9499  0.8106 -0.2129
  828MOL0     C14183   1.407  11.195   7.043  0.6135 -0.5962  0.4588
  828MOL0     C14184   1.327  11.260   7.139 -0.1589  0.2529 -0.6571
  828MOL0     O14185   1.215  11.341   7.117 -0.1516  0.2716  0.3976
  828MOL0     C14186   1.204  11.407   6.990 -0.1878 -0.4623 -0.2719
  828MOL0     C14187   1.312  11.511   6.967 -0.9119 -0.0208  0.2665
  828MOL0     C14188   1.292  11.639   7.044 -0.1501 -1.1503  0.6559
  828MOL0     C14189   1.352  11.633   7.183 -0.3883  0.8665 -0.0783
  828MOL0     C14190   1.373  11.760   7.237 -0.1498 -0.5792 -0.6271
  828MOL0     C14191   1.398  11.875   7.273 -0.5620 -0.5671 -0.5321
  828MOL0     C14192   1.373  11.246   7.275 -0.1125  0.8868  0.7856
  828MOL0     C14193   1.478  11.157   7.311  0.1314  0.3030  0.3037
  828MOL0     C14194   1.525  11.141   7.455  0.4560 -0.2559 -0.0189
  828MOL0     H14195   1.968  11.168   7.402 -3.1551 -0.0423  3.1426
  828MOL0     H14196   2.214  11.062   7.418  0.0247  1.1092 -0.6982
  828MOL0     H14197   2.350  10.935   7.564  1.3456 -1.0745  1.5178
  828MOL0     H14198   2.391  10.926   7.393  1.9871 -2.5361 -1.5343
  828MOL0     H14199   2.462  10.698   7.413  1.6314 -1.3638  1.0357
  828MOL0     H14200   2.569  10.825   7.483 -0.6312  2.4438 -2.9791
  828MOL0     H14201   2.452  10.748   7.700  1.7986  1.2700 -1.3094
  828MOL0     H14202   2.375  10.621   7.623 -0.0457  0.2274  1.1596
  828MOL0     H14203   2.577  10.508   7.556 -1.3876  0.2065  0.2487
  828MOL0     H14204   2.680  10.645   7.617  0.6279  1.3302  1.5302
  828MOL0     H14205   2.582  10.590   7.847  0.9038 -2.6376  3.8559
  828MOL0     H14206   2.687  10.470   7.780 -0.0299  0.7073 -0.9692
  828MOL0     H14207   2.378  10.466   7.777 -0.5577  2.8081  1.8899
  828MOL0     H14208   2.508  10.338   7.736  3.6181  0.1678  2.6018
  828MOL0     H14209   2.410  10.330   7.959  0.6314 -1.0085 -0.6573
  828MOL0     H14210   2.473  10.483   8.011 -0.6265 -0.4474 -1.4497
  828MOL0     H14211   2.652  10.254   7.904  1.0917  0.4625 -0.3539
  828MOL0     H14212   2.696  10.401   8.008 -2.0356  2.2142 -0.4153
  828MOL0     H14213   2.489  10.389   8.243 -0.8004 -0.8899  1.8861
  828MOL0     H14214   2.464  10.278   8.509 -1.4019  0.5094 -0.9509
  828MOL0     H14215   2.583  10.137   8.526 -0.8718  0.7400  0.6988
  828MOL0     H14216   2.294  10.117   8.412  0.3409 -0.3742 -0.4235
  828MOL0     H14217   2.413   9.988   8.453 -5.4895 -2.3550 -0.0403
  828MOL0     H14218   2.405  10.094   8.688  0.2731  0.6944  0.8575
  828MOL0     H14219   2.253  10.155   8.633 -2.6889 -1.9541  0.8474
  828MOL0     H14220   2.176   9.931   8.542 -2.0356 -0.0391  0.7309
  828MOL0     H14221   2.316   9.860   8.615 -0.8330 -0.8407 -1.0473
  828MOL0     H14222   2.384  10.016   8.899  0.6521  0.3564  0.4725
  828MOL0     H14223   2.569   9.879   9.140 -2.6661 -4.7164  2.7913
  828MOL0     H14224   2.444   9.955   9.240 -0.7553 -1.6270  0.6719
  828MOL0     H14225   2.501  10.031   9.091  0.1950  0.2779 -0.3663
  828MOL0     H14226   2.328   9.625   9.514  1.9777  3.0960  5.2355
  828MOL0     H14227   2.426   9.569   9.703 -2.3785 -4.4529 -1.6685
  828MOL0     H14228   2.564   9.563   9.907  1.1703 -0.2003  2.1938
  828MOL0     H14229   2.537   9.396   9.836 -0.8810  1.3169 -2.7666
  828MOL0     H14230   2.781   9.364   9.908  1.3660  0.8514  0.5972
  828MOL0     H14231   2.755   9.509  10.016 -0.9869  0.0147  3.5122
  828MOL0     H14232   2.582   9.263  10.053 -0.3444  0.1934 -0.9594
  828MOL0     H14233   2.595   9.412  10.155 -3.6809 -0.5956 -2.0181
  828MOL0     H14234   2.841   9.362  10.180 -0.9144  0.3671  1.4093
  828MOL0     H14235   2.795   9.193  10.122  3.6384 -1.2339  4.3880
  828MOL0     H14236   2.653   9.312  10.351  0.2322 -0.8147  0.9204
  828MOL0     H14237   2.689   9.144  10.311 -4.1074  1.5295  0.6876
  828MOL0     H14238   2.919   9.331  10.387  0.9038 -1.2351  2.4965
  828MOL0     H14239   2.927   9.169  10.344  0.7184  0.2123  2.2371
  828MOL0     H14240   2.721   9.164  10.550 -0.6724  3.4263  0.0629
  828MOL0     H14241   2.851   9.255  10.614  0.6417 -0.8948  0.6868
  828MOL0     H14242   2.908   9.025  10.684 -0.5467  1.4327  0.5289
  828MOL0     H14243   3.029   9.071  10.571  0.2239 -0.3383  0.5970
  828MOL0     H14244   2.813   9.515   9.504  1.7075  1.2136  0.6939
  828MOL0     H14245   2.697   9.592   9.296 -3.5260  2.7285 -2.5754
  828MOL0     H14246   2.139   9.602   9.040  0.7776  0.0293 -1.4256
  828MOL0     H14247   2.063   9.732   8.851 -1.3596 -0.6634  3.1556
  828MOL0     H14248   2.012  10.674   7.408  3.3129 -0.5488  0.1404
  828MOL0     H14249   1.803  10.777   7.356 -0.7693 -0.0919 -3.6883
  828MOL0     H14250   1.554  11.055   6.999 -0.6649  0.6582 -1.1191
  828MOL0     H14251   1.360  11.197   6.945 -0.5454  0.7901  1.0067
  828MOL0     H14252   1.199  11.337   6.905  3.6198  1.6464 -2.4956
  828MOL0     H14253   1.108  11.460   6.996  0.9913  1.9669 -1.5790
  828MOL0     H14254   1.309  11.543   6.863  1.6426 -1.8290 -0.4654
  828MOL0     H14255   1.412  11.468   6.977 -1.4798 -2.2567 -2.4006
  828MOL0     H14256   1.342  11.718   6.988 -0.2406 -2.0556 -0.7347
  828MOL0     H14257   1.185  11.662   7.058 -0.2638 -1.8393  0.9510
  828MOL0     H14258   1.447  11.580   7.191 -0.1610  1.1178 -0.9443
  828MOL0     H14259   1.280  11.572   7.238  0.9173 -2.3158 -1.6276
  828MOL0     H14260   1.415  11.976   7.306 -1.2846  0.0898 -2.0642
  828MOL0     H14261   1.315  11.286   7.357 -4.9806 -2.1541 -0.6961
  828MOL0     H14262   1.530  11.033   7.472 -0.0576 -0.6367 -2.0396
  828MOL0     H14263   1.623  11.189   7.467  1.5748 -1.6052 -2.9606
  828MOL0     H14264   1.448  11.185   7.519  0.1158 -2.4151  1.1290
  829MOL0     O14265   2.642   5.715   6.472  0.2088 -0.9266  0.5240
  829MOL0     C14266   2.546   5.731   6.545 -1.9554  0.9385  0.1717
  829MOL0     O14267   2.515   5.843   6.609  0.1438  0.4387  0.2018
  829MOL0     C14268   2.523   5.970   6.558 -0.0419  0.0438 -0.1173
  829MOL0     C14269   2.542   5.996   6.423 -1.1767 -0.5524  0.2032
  829MOL0     C14270   2.526   6.121   6.365  0.0993 -0.3949  0.1958
  829MOL0     C14271   2.495   6.228   6.452 -0.2211 -0.7204  0.4012
  829MOL0     O14272   2.513   6.349   6.390 -0.4121  0.2081 -0.3031
  829MOL0     C14273   2.524   6.473   6.470  0.0561 -0.3459  1.2864
  829MOL0     C14274   2.388   6.533   6.497 -0.2329 -0.1644  0.6755
  829MOL0     C14275   2.396   6.674   6.574  0.0825 -0.0209 -0.7939
  829MOL0     C14276   2.266   6.741   6.570  0.5802  0.6098  0.2149
  829MOL0     C14277   2.270   6.899   6.572 -0.3514  0.6725  0.2903
  829MOL0     C14278   2.338   6.968   6.692 -0.4011 -0.4812 -0.1226
  829MOL0     C14279   2.305   7.118   6.709  1.0464  0.0202 -0.4294
  829MOL0     C14280   2.391   7.193   6.803 -0.0377 -0.0945 -0.4721
  829MOL0     N14281   2.357   7.168   6.948 -0.2047  0.5347 -0.1437
  829MOL0     C14282   2.380   7.040   6.999  0.0038  0.1887 -1.1076
  829MOL0     C14283   2.315   7.031   7.119  0.3257  1.1562  0.1820
  829MOL0     C14284   2.303   6.912   7.211 -0.0713 -0.5680  0.0675
  829MOL0     C14285   2.379   6.917   7.346  0.2423  0.0667  0.9608
  829MOL0     C14286   2.533   6.922   7.332 -0.5944  0.5931  0.1340
  829MOL0     C14287   2.608   6.860   7.442 -0.3859  0.8661  0.1188
  829MOL0     O14288   2.580   6.724   7.436  0.5968  0.7358  0.0503
  829MOL0     C14289   2.644   6.636   7.515  0.4964  0.5209  0.4604
  829MOL0     C14290   2.647   6.508   7.471 -0.1397  1.1686 -1.0045
  829MOL0     C14291   2.734   6.413   7.530 -0.0714  0.4953  0.7340
  829MOL0     C14292   2.722   6.278   7.462 -0.1028  0.0700  0.8733
  829MOL0     C14293   2.822   6.453   7.634  0.7007  0.1770  1.1128
  829MOL0     C14294   2.931   6.368   7.695  0.1350  0.3700 -0.0695
  829MOL0     O14295   2.968   6.407   7.823  0.9251 -0.8393 -0.0713
  829MOL0     C14296   3.064   6.320   7.873 -0.0077 -0.2640 -0.6188
  829MOL0     C14297   3.042   6.244   7.985 -0.3817  1.0440 -0.4258
  829MOL0     C14298   3.152   6.180   8.045  0.4850  0.3514 -0.1201
  829MOL0     C14299   3.273   6.183   7.989 -0.0739 -0.8633  0.3828
  829MOL0     O14300   3.373   6.122   8.061 -0.0993  0.1224  0.1884
  829MOL0     C14301   3.507   6.111   8.009  1.0102 -0.1832 -0.0237
  829MOL0     C14302   3.563   5.976   8.056 -0.1081  0.0794  0.0595
  829MOL0     C14303   3.490   5.852   8.023 -0.5825 -0.0850  0.8404
  829MOL0     C14304   3.569   5.726   8.052 -0.7261  1.0173  0.3440
  829MOL0     C14305   3.495   5.593   8.024  0.1080 -0.2711 -0.3812
  829MOL0     C14306   3.580   5.480   7.972  0.4531 -0.5185  0.3799
  829MOL0     C14307   3.625   5.502   7.823  0.0362 -0.2982  0.9926
  829MOL0     C14308   3.713   5.387   7.768 -0.7845  0.3516 -0.4350
  829MOL0    Cl14309   3.743   5.386   7.592  0.4590 -0.0956 -0.2248
  829MOL0     C14310   3.293   6.254   7.873  0.2741  0.7883 -0.1798
  829MOL0     C14311   3.197   6.328   7.819  1.0446 -0.9595 -0.1832
  829MOL0     O14312   2.958   6.253   7.651  0.5639  0.1559  0.5695
  829MOL0     C14313   2.813   6.588   7.681 -0.6450  0.1311 -0.0004
  829MOL0     C14314   2.730   6.677   7.618 -0.5994 -0.5184  0.5318
  829MOL0     N14315   2.249   7.143   7.133 -0.2214 -0.5038  0.3212
  829MOL0     N14316   2.271   7.226   7.037  0.1105  0.0527 -0.0062
  829MOL0     C14317   2.485   6.209   6.585 -0.1729 -0.2309  0.2377
  829MOL0     C14318   2.501   6.080   6.633  0.2868 -0.5431  0.2771
  829MOL0     C14319   2.473   5.612   6.595 -0.6571  0.0366 -0.5023
  829MOL0     C14320   2.537   5.485   6.572  0.5265 -0.8860  0.2111
  829MOL0     C14321   2.495   5.360   6.627  0.6574 -0.2717 -0.4686
  829MOL0     C14322   2.390   5.369   6.712  0.3654  0.1246  0.2044
  829MOL0     O14323   2.341   5.253   6.771 -0.5340  0.1501  0.1063
  829MOL0     C14324   2.383   5.236   6.911 -0.2041  0.7752  0.2202
  829MOL0     C14325   2.353   5.093   6.957 -0.8516  0.9019 -0.6437
  829MOL0     C14326   2.466   4.995   6.919 -0.1306 -0.9324  0.6853
  829MOL0     C14327   2.427   4.910   6.790 -0.5055  0.3762 -0.1643
  829MOL0     C14328   2.539   4.813   6.767 -0.0821 -0.3156 -0.4798
  829MOL0     C14329   2.633   4.751   6.727  0.2158 -0.8195 -0.7268
  829MOL0     C14330   2.315   5.488   6.723 -0.5935 -0.2733 -0.4105
  829MOL0     C14331   2.348   5.605   6.651  0.7818  0.0239  0.1344
  829MOL0     C14332   2.256   5.726   6.684 -0.3163  0.5981  0.1742
  829MOL0     H14333   2.543   5.921   6.345 -1.6023 -1.0828  0.7019
  829MOL0     H14334   2.527   6.140   6.258  0.1034  1.3849  0.4848
  829MOL0     H14335   2.583   6.538   6.404  1.5844 -1.1646  1.7934
  829MOL0     H14336   2.585   6.471   6.561  2.3197 -0.4629 -0.1511
  829MOL0     H14337   2.356   6.544   6.393 -0.7733 -0.8284  0.7657
  829MOL0     H14338   2.316   6.467   6.545  0.7903 -1.5007  0.4458
  829MOL0     H14339   2.419   6.652   6.678 -0.6873 -1.3229 -0.8802
  829MOL0     H14340   2.469   6.739   6.524 -1.0144  2.0584  0.1547
  829MOL0     H14341   2.210   6.714   6.479 -0.4013  1.1066  0.6627
  829MOL0     H14342   2.216   6.703   6.659 -3.1189  1.6164 -1.2327
  829MOL0     H14343   2.165   6.930   6.575 -1.6743 -3.2241  0.5822
  829MOL0     H14344   2.315   6.941   6.482 -1.4556  4.2235  1.2325
  829MOL0     H14345   2.314   6.906   6.779 -2.1757  0.4549  0.0856
  829MOL0     H14346   2.445   6.948   6.677 -0.3291 -2.3402  2.2515
  829MOL0     H14347   2.205   7.111   6.753  0.6676  1.7022 -0.9216
  829MOL0     H14348   2.302   7.181   6.619 -1.6079 -1.6325 -1.6160
  829MOL0     H14349   2.495   7.162   6.787 -0.6738 -1.6659 -1.9108
  829MOL0     H14350   2.386   7.299   6.779  0.0328  0.9353  3.3326
  829MOL0     H14351   2.429   6.954   6.954  0.7396 -0.4648  0.8186
  829MOL0     H14352   2.343   6.823   7.161  1.2244  0.7002 -1.2537
  829MOL0     H14353   2.198   6.902   7.238  0.7030 -0.8966  3.3067
  829MOL0     H14354   2.334   6.995   7.409 -1.0330 -1.3186  1.8282
  829MOL0     H14355   2.350   6.826   7.398 -1.2556  0.6540  1.2240
  829MOL0     H14356   2.560   6.851   7.253  1.8412 -0.6453  1.9350
  829MOL0     H14357   2.569   7.020   7.303  0.0759 -0.2308 -2.0414
  829MOL0     H14358   2.714   6.885   7.442  0.1197 -1.0334  1.5869
  829MOL0     H14359   2.561   6.889   7.536 -2.9445  0.1582 -0.8315
  829MOL0     H14360   2.583   6.495   7.384 -1.0313  1.2861 -0.3708
  829MOL0     H14361   2.615   6.259   7.448  0.1331 -0.0773 -1.1256
  829MOL0     H14362   2.763   6.206   7.533  0.5215 -0.5740 -0.1010
  829MOL0     H14363   2.780   6.272   7.369 -0.4884  1.3183  0.5359
  829MOL0     H14364   2.940   6.228   8.017 -0.8592  1.4863 -1.6571
  829MOL0     H14365   3.138   6.130   8.139  0.0125  0.6128 -0.0466
  829MOL0     H14366   3.506   6.100   7.900 -0.8475 -0.0281 -0.0651
  829MOL0     H14367   3.566   6.201   8.026 -0.6211  1.0049 -0.4478
  829MOL0     H14368   3.663   5.970   8.013 -0.1211  1.3274 -0.2039
  829MOL0     H14369   3.568   5.981   8.165  0.9777 -3.5160  0.2923
  829MOL0     H14370   3.471   5.840   7.916  1.6218 -1.8831  0.5580
  829MOL0     H14371   3.403   5.859   8.088 -0.5663 -0.9332  0.9669
  829MOL0     H14372   3.618   5.724   8.150  0.3613  2.4725 -0.1335
  829MOL0     H14373   3.648   5.752   7.981 -2.3552  2.1375 -1.1492
  829MOL0     H14374   3.455   5.568   8.123  2.0431  2.5465  1.2407
  829MOL0     H14375   3.424   5.600   7.941 -1.7597 -2.9885  0.8174
  829MOL0     H14376   3.520   5.389   7.987 -4.9830  2.3752 -1.0751
  829MOL0     H14377   3.671   5.474   8.033  1.7183  1.1155 -1.2315
  829MOL0     H14378   3.688   5.592   7.816 -0.5798  0.0110 -1.0915
  829MOL0     H14379   3.542   5.525   7.756  1.2471  1.3006 -0.0286
  829MOL0     H14380   3.670   5.286   7.771  0.3544 -0.1537 -0.5289
  829MOL0     H14381   3.807   5.381   7.824 -0.3234 -0.6089 -1.2735
  829MOL0     H14382   3.394   6.265   7.834  0.9402  0.0735  1.2705
  829MOL0     H14383   3.200   6.396   7.734 -1.5338 -1.0662 -0.4430
  829MOL0     H14384   2.865   6.626   7.768  1.1566 -0.9410 -0.5571
  829MOL0     H14385   2.747   6.781   7.647 -0.1128 -0.4004 -0.1550
  829MOL0     H14386   2.455   6.280   6.661 -1.2865  0.4353 -0.7876
  829MOL0     H14387   2.498   6.072   6.742 -1.8974  0.1573  0.3235
  829MOL0     H14388   2.632   5.484   6.521  0.8562 -3.1660  0.7803
  829MOL0     H14389   2.544   5.264   6.619 -1.0871 -1.5700  2.7210
  829MOL0     H14390   2.491   5.257   6.915  0.0888 -0.1875 -1.5810
  829MOL0     H14391   2.327   5.302   6.977  1.1405  0.6213  1.5709
  829MOL0     H14392   2.255   5.061   6.919 -0.9029  0.6949 -0.3397
  829MOL0     H14393   2.352   5.088   7.066  0.6589  1.0591 -0.6022
  829MOL0     H14394   2.560   5.049   6.900  0.7416 -2.2924  0.9980
  829MOL0     H14395   2.494   4.932   7.004 -0.2543 -0.9273  0.7293
  829MOL0     H14396   2.411   4.972   6.702 -3.2400  2.2954  1.4964
  829MOL0     H14397   2.330   4.863   6.811 -1.7880  1.9157 -2.2350
  829MOL0     H14398   2.716   4.701   6.681 -0.6194 -0.4362 -2.7268
  829MOL0     H14399   2.230   5.482   6.790 -0.7172  1.0688 -0.4097
  829MOL0     H14400   2.304   5.819   6.716 -2.3444  1.5255  0.6860
  829MOL0     H14401   2.200   5.747   6.592  1.7885  0.3275 -1.2418
  829MOL0     H14402   2.185   5.703   6.763  0.7068 -1.2222  0.6017
  830MOL0     O14403   8.167   3.344  11.265  0.2787  0.7767  0.7465
  830MOL0     C14404   8.068   3.271  11.265 -0.8117  0.6984  0.0372
  830MOL0     O14405   8.066   3.145  11.200  0.7816  0.3227 -0.4735
  830MOL0     C14406   8.182   3.101  11.138 -0.0381 -0.0715 -0.5588
  830MOL0     C14407   8.188   3.112  10.997 -0.7314 -0.4016 -0.3983
  830MOL0     C14408   8.298   3.064  10.935 -0.9134 -0.1255  0.3133
  830MOL0     C14409   8.414   3.018  11.000 -0.0846 -0.5799  0.7538
  830MOL0     O14410   8.527   2.990  10.929 -0.5442  0.8400  0.0235
  830MOL0     C14411   8.646   3.063  10.969 -0.7164 -0.0671 -1.0950
  830MOL0     C14412   8.765   3.058  10.879  0.4249 -0.0400 -0.3446
  830MOL0     C14413   8.731   3.155  10.766  0.7086 -0.6011  0.2153
  830MOL0     C14414   8.845   3.238  10.720 -0.1364  0.0835 -0.7008
  830MOL0     C14415   8.838   3.286  10.574  0.3599 -0.4385  0.0434
  830MOL0     C14416   8.971   3.355  10.536 -0.2097 -1.5354  0.0212
  830MOL0     C14417   9.000   3.370  10.392  0.0598 -0.1753  0.5176
  830MOL0     C14418   8.945   3.494  10.326  0.1286  0.1945 -0.9010
  830MOL0     N14419   8.791   3.488  10.305  0.1447  0.3079  1.1520
  830MOL0     C14420   8.733   3.409  10.203  0.4941 -0.4231  0.2435
  830MOL0     C14421   8.599   3.411  10.220  0.1093 -0.6203 -0.6292
  830MOL0     C14422   8.500   3.340  10.135 -0.8299  0.2605 -0.4211
  830MOL0     C14423   8.493   3.379   9.985 -0.5852  0.7167  0.4199
  830MOL0     C14424   8.420   3.512   9.980  0.0973  0.6657  0.0095
  830MOL0     C14425   8.410   3.554   9.829 -0.4794 -0.2408  0.4812
  830MOL0     O14426   8.361   3.691   9.830 -1.1892  0.3536 -0.4453
  830MOL0     C14427   8.362   3.765   9.719 -0.5320  0.5199  0.2171
  830MOL0     C14428   8.358   3.710   9.594  0.4003 -0.2486  0.4601
  830MOL0     C14429   8.363   3.796   9.486 -0.2854 -0.6838  0.0205
  830MOL0     C14430   8.340   3.728   9.349  0.1637  0.0860 -1.2944
  830MOL0     C14431   8.388   3.940   9.500 -0.0884  0.1396  0.3396
  830MOL0     C14432   8.402   4.041   9.385 -0.0610 -0.0904  0.9832
  830MOL0     O14433   8.415   3.996   9.254  1.2375  0.3944 -0.7405
  830MOL0     C14434   8.400   4.079   9.141 -1.1008 -0.2926 -0.5158
  830MOL0     C14435   8.347   4.207   9.135 -0.1951 -0.7670  0.7031
  830MOL0     C14436   8.347   4.287   9.014  0.5397  0.5839  0.0813
  830MOL0     C14437   8.387   4.235   8.891 -0.9080 -0.7376 -0.3635
  830MOL0     O14438   8.390   4.320   8.787 -0.4684 -0.1084  0.1130
  830MOL0     C14439   8.409   4.268   8.656 -0.2760 -0.2880  0.5519
  830MOL0     C14440   8.425   4.381   8.554  0.2923 -0.0051  0.1993
  830MOL0     C14441   8.541   4.478   8.582 -1.5372 -0.5231 -0.5959
  830MOL0     C14442   8.625   4.494   8.463 -0.8473  1.2097  1.0021
  830MOL0     C14443   8.721   4.609   8.479  0.0684 -0.4723  0.8590
  830MOL0     C14444   8.837   4.607   8.376  0.7771 -0.6864 -0.3048
  830MOL0     C14445   8.931   4.495   8.399 -0.3232 -0.2310 -0.5932
  830MOL0     C14446   9.052   4.510   8.322 -0.4235 -0.6644  0.6976
  830MOL0    Cl14447   9.145   4.350   8.344  0.1863  0.0955  0.1159
  830MOL0     C14448   8.446   4.108   8.905 -0.3587 -0.2794  0.7980
  830MOL0     C14449   8.452   4.035   9.028 -0.3657  0.3641  0.7388
  830MOL0     O14450   8.384   4.156   9.414  0.2235  1.2079  0.1606
  830MOL0     C14451   8.396   3.990   9.631  0.4499  0.3991 -1.1420
  830MOL0     C14452   8.379   3.908   9.744  0.3411 -0.2199  1.1211
  830MOL0     N14453   8.575   3.495  10.324 -0.6254 -1.0585  0.0851
  830MOL0     N14454   8.686   3.535  10.378 -0.4147  0.7081 -0.2747
  830MOL0     C14455   8.408   3.009  11.138  0.2154 -0.1681 -0.4907
  830MOL0     C14456   8.291   3.046  11.208 -0.1458  0.0916 -0.0482
  830MOL0     C14457   7.951   3.282  11.365 -0.5443 -0.7897 -0.0803
  830MOL0     C14458   7.901   3.167  11.430 -0.0345 -1.2387  0.2793
  830MOL0     C14459   7.782   3.178  11.504 -0.6662 -0.5071 -0.5304
  830MOL0     C14460   7.706   3.294  11.522  0.2737  0.0729  0.4458
  830MOL0     O14461   7.589   3.305  11.582  0.4346 -0.8016 -0.1126
  830MOL0     C14462   7.549   3.193  11.647  0.9554  0.5124 -0.6341
  830MOL0     C14463   7.422   3.229  11.720  0.4326 -0.1677  0.1949
  830MOL0     C14464   7.285   3.232  11.646  0.1954 -0.5934  0.4798
  830MOL0     C14465   7.169   3.301  11.721  0.8846  0.9640  0.0109
  830MOL0     C14466   7.160   3.263  11.863 -0.1105 -0.2175 -0.6800
  830MOL0     C14467   7.153   3.220  11.977 -0.8160  0.1236  0.2230
  830MOL0     C14468   7.757   3.408  11.463 -0.3336  0.0279  0.5041
  830MOL0     C14469   7.875   3.406  11.378  1.0369  0.3588 -0.1260
  830MOL0     C14470   7.914   3.543  11.327 -0.2091  0.4733 -0.2888
  830MOL0     H14471   8.106   3.159  10.942 -2.5827 -1.5917  1.1845
  830MOL0     H14472   8.305   3.066  10.827 -2.2119 -0.3520  0.2200
  830MOL0     H14473   8.677   3.011  11.060 -1.7380  0.3604 -0.4947
  830MOL0     H14474   8.623   3.166  10.997  1.3136  0.0305  0.4635
  830MOL0     H14475   8.849   3.084  10.943 -0.4342  0.8935  0.4488
  830MOL0     H14476   8.778   2.961  10.831 -0.4717 -0.8938  1.0639
  830MOL0     H14477   8.672   3.120  10.681  0.9966 -0.0386 -0.2279
  830MOL0     H14478   8.665   3.233  10.807  3.6833  0.6746  3.0903
  830MOL0     H14479   8.846   3.330  10.778 -0.2591 -0.5299  0.2862
  830MOL0     H14480   8.938   3.184  10.740  0.3951  0.6894 -1.4613
  830MOL0     H14481   8.756   3.357  10.559  2.0282  1.2684 -1.4843
  830MOL0     H14482   8.810   3.203  10.509 -2.8871  0.3778  0.2079
  830MOL0     H14483   8.982   3.450  10.590 -2.8283 -0.4907 -1.1123
  830MOL0     H14484   9.051   3.288  10.569  2.1878  0.7228 -0.7673
  830MOL0     H14485   8.953   3.290  10.334  0.9382  1.5421 -2.8173
  830MOL0     H14486   9.109   3.370  10.384  0.0985 -0.4196  1.0564
  830MOL0     H14487   8.961   3.584  10.386  1.7348  0.7400 -2.0703
  830MOL0     H14488   8.995   3.509  10.230  4.5976 -4.1912  0.2582
  830MOL0     H14489   8.790   3.368  10.120  0.2360 -1.8809  0.7631
  830MOL0     H14490   8.398   3.335  10.175 -0.5954 -0.0992  0.1350
  830MOL0     H14491   8.527   3.234  10.132 -1.9140 -0.0047 -1.9746
  830MOL0     H14492   8.585   3.384   9.925 -2.1997 -0.3707 -2.3333
  830MOL0     H14493   8.430   3.308   9.930  0.6437  0.8966 -1.3195
  830MOL0     H14494   8.319   3.510  10.023 -0.3027 -2.0446 -0.8088
  830MOL0     H14495   8.484   3.578  10.039  0.2925  0.4802  0.0076
  830MOL0     H14496   8.508   3.561   9.781 -1.4177  0.6991 -1.4035
  830MOL0     H14497   8.338   3.488   9.778 -0.8408  0.8544 -0.4567
  830MOL0     H14498   8.354   3.602   9.579  1.9916 -0.3297  0.3649
  830MOL0     H14499   8.251   3.767   9.298  1.3767 -0.3661 -3.9342
  830MOL0     H14500   8.339   3.619   9.361 -1.4877  0.3844  3.3782
  830MOL0     H14501   8.425   3.745   9.282  1.3409  1.5109  0.4640
  830MOL0     H14502   8.322   4.265   9.223  1.7216  0.0610  0.7620
  830MOL0     H14503   8.298   4.384   9.018  0.9785  0.7684  1.3286
  830MOL0     H14504   8.505   4.219   8.640 -0.3650  0.4924 -3.2729
  830MOL0     H14505   8.322   4.204   8.635 -0.8945 -0.0312  2.2013
  830MOL0     H14506   8.424   4.323   8.461  1.8303  1.8478 -1.0472
  830MOL0     H14507   8.331   4.437   8.547 -0.8996 -1.4238  3.0999
  830MOL0     H14508   8.613   4.446   8.659  1.9540  4.1065 -1.4427
  830MOL0     H14509   8.498   4.575   8.609 -0.6293 -0.4391  0.6595
  830MOL0     H14510   8.566   4.503   8.372 -0.0930  1.1698  0.5027
  830MOL0     H14511   8.681   4.401   8.449 -2.1204  0.6474 -0.6200
  830MOL0     H14512   8.668   4.703   8.461  2.6690  0.4524 -3.5767
  830MOL0     H14513   8.763   4.601   8.579  0.4502  0.6418  0.7990
  830MOL0     H14514   8.890   4.702   8.384  0.2380 -0.3024 -1.1970
  830MOL0     H14515   8.808   4.618   8.271  0.8226 -0.4488 -0.2950
  830MOL0     H14516   8.887   4.396   8.385  0.7468 -0.9470  0.9543
  830MOL0     H14517   8.960   4.509   8.503  0.1739 -1.3637 -0.5741
  830MOL0     H14518   9.108   4.600   8.349 -0.3861 -0.4116 -0.1895
  830MOL0     H14519   9.024   4.503   8.216 -2.0121 -1.9212  1.1553
  830MOL0     H14520   8.500   4.064   8.821  0.8827  2.7591 -0.1467
  830MOL0     H14521   8.509   3.943   9.020 -0.1266  0.6192 -0.7721
  830MOL0     H14522   8.415   4.096   9.637  0.8092  0.2632  0.6561
  830MOL0     H14523   8.393   3.953   9.842 -0.9059 -2.1109  2.2035
  830MOL0     H14524   8.492   2.964  11.191 -1.4040 -4.4969 -1.1868
  830MOL0     H14525   8.284   3.036  11.316  2.9292  1.3208  0.3688
  830MOL0     H14526   7.949   3.070  11.421  1.8583 -0.1360 -3.4615
  830MOL0     H14527   7.755   3.088  11.559  3.6468 -2.9066 -1.8284
  830MOL0     H14528   7.519   3.101  11.597 -0.5455 -0.5023  1.9412
  830MOL0     H14529   7.620   3.156  11.722  0.4951 -1.6706 -1.2166
  830MOL0     H14530   7.441   3.326  11.767 -3.5601  0.2181  1.4465
  830MOL0     H14531   7.404   3.171  11.811 -2.2407  0.4826  0.1636
  830MOL0     H14532   7.314   3.293  11.560  5.1164 -2.0114  0.8425
  830MOL0     H14533   7.262   3.128  11.623 -2.6176  0.5393 -2.6756
  830MOL0     H14534   7.071   3.281  11.679  0.1366  1.8684  1.2455
  830MOL0     H14535   7.186   3.409  11.718 -0.0626  1.1054 -2.5727
  830MOL0     H14536   7.148   3.187  12.079 -2.5667  0.2057  0.1970
  830MOL0     H14537   7.706   3.503  11.473 -2.0142 -0.9074  1.3286
  830MOL0     H14538   7.980   3.586  11.403 -1.1286 -0.3061  0.9920
  830MOL0     H14539   7.971   3.536  11.235 -1.1108  2.1148 -1.0155
  830MOL0     H14540   7.828   3.605  11.300 -2.2420 -2.8487 -2.2267
  831MOL0     O14541   2.606   0.758   0.520 -0.0122  0.5190  0.0620
  831MOL0     C14542   2.679   0.826   0.462  0.5616  0.3576 -0.7319
  831MOL0     O14543   2.721   0.805   0.336  0.7136  0.2351 -0.0380
  831MOL0     C14544   2.631   0.746   0.244  0.0535 -0.0346 -0.0858
  831MOL0     C14545   2.506   0.808   0.201 -0.4178  0.3858  0.3073
  831MOL0     C14546   2.430   0.753   0.102  0.7301 -0.0649  1.0369
  831MOL0     C14547   2.478   0.634   0.035  0.6755 -0.7739 -0.4349
  831MOL0     O14548   2.406   0.581  -0.073  0.0168 -0.5754  0.0591
  831MOL0     C14549   2.362   0.663  -0.182  1.1612  0.2924  0.4965
  831MOL0     C14550   2.382   0.598  -0.324 -0.8883  0.5238 -0.3979
  831MOL0     C14551   2.506   0.495  -0.352 -0.2477 -0.3583  0.2278
  831MOL0     C14552   2.492   0.416  -0.485 -0.8823  0.7985  0.0423
  831MOL0     C14553   2.629   0.355  -0.521 -0.1728 -0.1830  0.1816
  831MOL0     C14554   2.600   0.246  -0.617  0.2601  0.0266  0.3172
  831MOL0     C14555   2.731   0.201  -0.695  0.9519  0.3910 -0.4128
  831MOL0     C14556   2.687   0.120  -0.809 -0.0879 -0.5169  0.7362
  831MOL0     N14557   2.804   0.069  -0.881 -0.4148  0.0739  0.7653
  831MOL0     C14558   2.862  -0.050  -0.849  0.4331  0.3989  0.8145
  831MOL0     C14559   2.963  -0.062  -0.945  0.1196 -0.1226 -1.1082
  831MOL0     C14560   3.068  -0.178  -0.934  0.5914 -0.2265  0.4936
  831MOL0     C14561   3.199  -0.140  -0.885 -0.3011  0.1019  0.7830
  831MOL0     C14562   3.284  -0.060  -0.996  0.1168  0.5064 -0.2180
  831MOL0     C14563   3.303  -0.136  -1.129  0.8389 -0.4820 -0.5482
  831MOL0     O14564   3.406  -0.066  -1.199  0.3745 -0.0541 -0.0496
  831MOL0     C14565   3.536  -0.108  -1.169 -0.7002  0.2848 -0.1874
  831MOL0     C14566   3.637  -0.010  -1.152 -0.7266 -1.1496 -1.1335
  831MOL0     C14567   3.767  -0.039  -1.108 -0.1803  0.0644  0.0096
  831MOL0     C14568   3.858   0.078  -1.096  0.9868 -0.4718  0.1983
  831MOL0     C14569   3.800  -0.170  -1.074  0.1890 -0.2402  1.3750
  831MOL0     C14570   3.923  -0.205  -1.001 -0.1898  0.5227 -0.1427
  831MOL0     O14571   3.972  -0.330  -1.013 -0.0950 -0.4911  0.0583
  831MOL0     C14572   4.103  -0.352  -1.002  0.3293  0.2478  1.3046
  831MOL0     C14573   4.198  -0.285  -1.080  0.5608  0.3227 -0.6766
  831MOL0     C14574   4.335  -0.312  -1.071 -0.5248 -0.3235  0.7473
  831MOL0     C14575   4.381  -0.411  -0.984 -1.3962  0.4193 -0.7456
  831MOL0     O14576   4.521  -0.424  -0.973  0.0735 -0.2203 -0.0702
  831MOL0     C14577   4.556  -0.548  -0.912  0.0372 -0.1733 -0.3765
  831MOL0     C14578   4.708  -0.581  -0.933  0.0700  0.7547  0.3365
  831MOL0     C14579   4.734  -0.626  -1.074  0.5096 -0.2034 -0.0297
  831MOL0     C14580   4.781  -0.524  -1.181 -0.2032 -0.5859 -0.7518
  831MOL0     C14581   4.928  -0.482  -1.163  0.6002 -0.4966 -0.4097
  831MOL0     C14582   4.986  -0.376  -1.263  0.6732  0.2869 -0.2625
  831MOL0     C14583   5.128  -0.357  -1.230 -0.7649 -0.0905 -0.1645
  831MOL0     C14584   5.207  -0.287  -1.345  1.1119 -0.3261 -0.4034
  831MOL0    Cl14585   5.168  -0.110  -1.350 -0.5383  0.1838  0.8854
  831MOL0     C14586   4.284  -0.475  -0.903  0.0401 -1.4969 -0.0771
  831MOL0     C14587   4.149  -0.450  -0.914 -0.2812 -0.3248  0.5664
  831MOL0     O14588   3.959  -0.129  -0.915 -0.3007  0.2952 -0.3366
  831MOL0     C14589   3.702  -0.268  -1.115  0.5327  0.3813  0.2538
  831MOL0     C14590   3.574  -0.242  -1.153 -0.1612  0.6668  0.1072
  831MOL0     N14591   2.969   0.047  -1.024  0.0158  0.1745  0.4172
  831MOL0     N14592   2.874   0.124  -0.981 -0.6061  0.4030  0.4831
  831MOL0     C14593   2.598   0.573   0.081 -0.4347 -0.3789 -0.5838
  831MOL0     C14594   2.677   0.638   0.180 -0.2022  0.6776  0.7003
  831MOL0     C14595   2.755   0.937   0.537 -0.1017 -0.6787  0.6784
  831MOL0     C14596   2.782   0.936   0.672  0.3802 -0.8572 -0.8055
  831MOL0     C14597   2.839   1.036   0.737  0.2617  0.2822  0.1952
  831MOL0     C14598   2.877   1.149   0.667 -0.8275 -0.3986 -0.0776
  831MOL0     O14599   2.935   1.259   0.725 -0.1788  0.1548  0.4778
  831MOL0     C14600   2.941   1.265   0.869  0.7351 -0.8762  0.2930
  831MOL0     C14601   3.001   1.397   0.923  0.0015 -2.2335 -1.5568
  831MOL0     C14602   3.138   1.414   0.864  0.3490  0.6325 -0.1652
  831MOL0     C14603   3.226   1.534   0.917 -0.0296  0.3306 -0.8842
  831MOL0     C14604   3.338   1.555   0.834 -0.2233 -0.2085 -0.2519
  831MOL0     C14605   3.441   1.558   0.774 -0.0372  0.0163  0.0918
  831MOL0     C14606   2.847   1.161   0.536 -1.0390 -0.2794 -0.1987
  831MOL0     C14607   2.781   1.061   0.463 -0.6121  0.1102  0.0180
  831MOL0     C14608   2.736   1.089   0.320 -0.3490 -0.0323 -0.6749
  831MOL0     H14609   2.480   0.906   0.238  0.1921 -0.2704  2.6898
  831MOL0     H14610   2.344   0.807   0.063 -1.4113 -2.1806  2.4838
  831MOL0     H14611   2.405   0.763  -0.186 -0.4841  1.0079 -0.2548
  831MOL0     H14612   2.253   0.666  -0.175  0.8284 -2.1498 -1.9018
  831MOL0     H14613   2.297   0.537  -0.355  0.4201 -0.7852 -1.5703
  831MOL0     H14614   2.409   0.680  -0.392  1.6111 -1.5626 -2.1158
  831MOL0     H14615   2.601   0.550  -0.358  0.2904 -1.4375 -3.0642
  831MOL0     H14616   2.505   0.429  -0.265 -2.3058  0.0649  0.5615
  831MOL0     H14617   2.421   0.333  -0.479  0.8698 -0.6745  2.7065
  831MOL0     H14618   2.467   0.482  -0.569  2.0711  1.2576 -0.5830
  831MOL0     H14619   2.692   0.312  -0.443 -1.5179 -0.8971  0.9162
  831MOL0     H14620   2.687   0.430  -0.576  1.9042 -0.6051  1.6937
  831MOL0     H14621   2.564   0.153  -0.572  2.3861 -0.7810  0.4499
  831MOL0     H14622   2.526   0.276  -0.692  0.6468  0.1260 -0.0214
  831MOL0     H14623   2.797   0.143  -0.629  0.1260 -0.6478 -0.4658
  831MOL0     H14624   2.787   0.290  -0.724 -1.8528  2.8227  1.1618
  831MOL0     H14625   2.618   0.044  -0.770 -3.2489  1.9636  0.4016
  831MOL0     H14626   2.628   0.189  -0.871  0.2596 -2.4433 -1.9088
  831MOL0     H14627   2.835  -0.132  -0.783 -0.2420 -1.5686 -1.7335
  831MOL0     H14628   3.075  -0.231  -1.030 -2.1454 -0.0674  0.1321
  831MOL0     H14629   3.032  -0.250  -0.860  2.6673 -2.9799 -0.9651
  831MOL0     H14630   3.183  -0.081  -0.795 -3.0682 -3.3370  2.7577
  831MOL0     H14631   3.250  -0.232  -0.857  0.2728  0.6772  1.6837
  831MOL0     H14632   3.248   0.040  -1.022 -1.9183  0.3049  1.5115
  831MOL0     H14633   3.383  -0.048  -0.951  1.2035 -0.5729 -2.1733
  831MOL0     H14634   3.324  -0.241  -1.111  0.8612 -0.6027 -1.2552
  831MOL0     H14635   3.210  -0.135  -1.187  0.7460 -0.7517 -0.4045
  831MOL0     H14636   3.608   0.094  -1.161 -0.3104 -0.4084  3.5633
  831MOL0     H14637   3.837   0.155  -1.171 -1.6762  0.4466  1.7416
  831MOL0     H14638   3.966   0.064  -1.103  1.1080  0.6241 -0.4276
  831MOL0     H14639   3.836   0.125  -0.999 -0.8442 -0.4878 -0.1807
  831MOL0     H14640   4.151  -0.204  -1.134 -3.2734 -0.6732  0.8173
  831MOL0     H14641   4.394  -0.247  -1.134 -1.8987  2.0517  1.7621
  831MOL0     H14642   4.546  -0.543  -0.803  2.9429 -0.5800 -0.0256
  831MOL0     H14643   4.505  -0.635  -0.954  1.9204 -1.5579  0.0897
  831MOL0     H14644   4.767  -0.492  -0.908  0.7166  0.4862 -0.2216
  831MOL0     H14645   4.740  -0.656  -0.859 -2.0998  0.6103  1.2084
  831MOL0     H14646   4.645  -0.683  -1.102  1.4686 -2.7186  1.6337
  831MOL0     H14647   4.809  -0.702  -1.047  0.9145  0.3997  0.5841
  831MOL0     H14648   4.713  -0.439  -1.179  1.8443  1.3074  4.0387
  831MOL0     H14649   4.775  -0.582  -1.274 -1.1736 -0.1971 -0.9356
  831MOL0     H14650   4.941  -0.446  -1.061  0.4053 -1.0397 -0.1939
  831MOL0     H14651   4.986  -0.574  -1.170  2.4593  0.7388 -2.6247
  831MOL0     H14652   4.925  -0.285  -1.264  1.2549  0.6845  0.1040
  831MOL0     H14653   4.977  -0.426  -1.360  1.1710 -0.2593 -0.0246
  831MOL0     H14654   5.176  -0.454  -1.210 -0.7451 -0.0694 -0.1102
  831MOL0     H14655   5.134  -0.299  -1.138 -1.6774  0.2377 -0.2983
  831MOL0     H14656   5.191  -0.333  -1.442 -1.3350  2.0179 -1.2481
  831MOL0     H14657   5.313  -0.301  -1.322  0.9118  0.2567  1.0235
  831MOL0     H14658   4.307  -0.541  -0.819  0.6386 -1.6190 -0.3381
  831MOL0     H14659   4.076  -0.513  -0.866 -0.2840  0.0207  1.0196
  831MOL0     H14660   3.718  -0.375  -1.103 -2.6777  0.0132  2.3189
  831MOL0     H14661   3.523  -0.337  -1.166  2.8959 -0.9202 -1.3909
  831MOL0     H14662   2.634   0.497   0.013 -0.2038 -0.2620 -0.5945
  831MOL0     H14663   2.775   0.596   0.200 -1.9105 -2.2907  4.1875
  831MOL0     H14664   2.755   0.860   0.745  0.1037  1.5473  1.7461
  831MOL0     H14665   2.859   1.018   0.842 -1.0651 -0.4297  0.3464
  831MOL0     H14666   2.837   1.261   0.901  0.3349  1.3269 -0.5640
  831MOL0     H14667   2.992   1.178   0.912  1.8536 -1.0064 -1.2089
  831MOL0     H14668   3.006   1.400   1.033 -0.6134  2.1626 -1.4999
  831MOL0     H14669   2.940   1.485   0.900 -0.8187 -1.6639  2.0685
  831MOL0     H14670   3.189   1.324   0.899  3.2474  2.3941  0.4806
  831MOL0     H14671   3.132   1.414   0.755  2.9690  1.6831 -0.3892
  831MOL0     H14672   3.260   1.506   1.017 -0.4252 -1.8304 -1.2979
  831MOL0     H14673   3.176   1.631   0.924  1.7207  1.2947 -1.3853
  831MOL0     H14674   3.536   1.577   0.728 -1.4086  2.3058 -2.0571
  831MOL0     H14675   2.869   1.257   0.491 -0.7229  0.1708  0.8808
  831MOL0     H14676   2.630   1.070   0.302 -0.2672 -0.9407 -0.2878
  831MOL0     H14677   2.750   1.190   0.281 -3.5463  0.8409  0.0877
  831MOL0     H14678   2.791   1.020   0.256  0.9588 -0.8151  1.2229
  832MOL0     O14679   9.435   0.985   6.733 -0.2616 -0.4651 -0.5753
  832MOL0     C14680   9.431   1.032   6.618  1.0049 -0.3668  0.1182
  832MOL0     O14681   9.426   1.159   6.576  0.3804 -0.7284 -0.4592
  832MOL0     C14682   9.336   1.242   6.638 -0.1431  0.5040 -0.0032
  832MOL0     C14683   9.386   1.378   6.656  0.2086  0.3234 -0.0639
  832MOL0     C14684   9.309   1.477   6.718  0.7288  0.1777 -0.7087
  832MOL0     C14685   9.184   1.446   6.779 -0.0898  0.5611  1.1354
  832MOL0     O14686   9.109   1.526   6.863  0.4032 -0.3815  0.8780
  832MOL0     C14687   9.136   1.668   6.867  0.6313 -0.1183  0.1276
  832MOL0     C14688   9.049   1.743   6.963  0.6936 -0.2015  0.2327
  832MOL0     C14689   9.126   1.763   7.097  0.7094  0.0685 -0.0709
  832MOL0     C14690   9.038   1.838   7.196  0.6491  0.5879 -0.1798
  832MOL0     C14691   9.130   1.882   7.314 -0.0922  0.1038  0.1947
  832MOL0     C14692   9.063   1.977   7.417 -0.3686 -0.0223  1.0724
  832MOL0     C14693   8.956   1.902   7.498 -0.2373  0.5853  0.5409
  832MOL0     C14694   8.921   1.967   7.634 -0.0540 -0.2792 -0.1628
  832MOL0     N14695   8.788   1.931   7.695 -0.6218 -0.0054  0.2434
  832MOL0     C14696   8.746   1.805   7.723  0.5505  1.0762 -0.1271
  832MOL0     C14697   8.616   1.826   7.768  0.4521  0.6952 -0.4585
  832MOL0     C14698   8.526   1.724   7.836  0.4739  0.4743 -0.6629
  832MOL0     C14699   8.485   1.619   7.732 -0.6433 -0.4697  0.4126
  832MOL0     C14700   8.411   1.680   7.609  0.5960 -0.9505  0.9617
  832MOL0     C14701   8.322   1.592   7.528 -0.4136  0.3345 -1.1370
  832MOL0     O14702   8.219   1.554   7.614  0.5225  0.1251  0.6624
  832MOL0     C14703   8.134   1.462   7.576  0.8563 -0.3856  0.4877
  832MOL0     C14704   8.008   1.446   7.637 -0.3046 -0.0908  0.3452
  832MOL0     C14705   7.925   1.338   7.614  0.6098  0.1436  1.0322
  832MOL0     C14706   7.801   1.337   7.691 -0.6144 -0.0306  0.5316
  832MOL0     C14707   7.953   1.246   7.512  0.8066  0.2936  0.0605
  832MOL0     C14708   7.865   1.135   7.470 -0.4919 -0.4525 -0.0406
  832MOL0     O14709   7.921   1.029   7.390 -0.3354 -0.6653 -0.1237
  832MOL0     C14710   7.823   0.928   7.358 -0.3079  0.2047 -0.2493
  832MOL0     C14711   7.835   0.861   7.230  0.2464  0.0272  0.0335
  832MOL0     C14712   7.735   0.764   7.199 -0.6514 -0.4898 -0.4547
  832MOL0     C14713   7.651   0.714   7.290  0.9932  1.1971  0.5758
  832MOL0     O14714   7.561   0.613   7.252 -0.8244 -0.3387 -0.4416
  832MOL0     C14715   7.427   0.641   7.289  0.4119  0.2098  0.0055
  832MOL0     C14716   7.331   0.526   7.251 -0.1558  0.0330  0.4147
  832MOL0     C14717   7.312   0.426   7.361  1.1034  0.8637  0.3231
  832MOL0     C14718   7.245   0.295   7.306 -0.6388 -0.8913  0.2283
  832MOL0     C14719   7.157   0.228   7.398  1.1515  0.2037 -0.4867
  832MOL0     C14720   7.116   0.080   7.348  0.3322  0.0514  0.6138
  832MOL0     C14721   7.004   0.014   7.417 -0.5924 -0.3933 -0.0025
  832MOL0     C14722   7.024  -0.138   7.423 -0.1995 -1.0582 -0.9609
  832MOL0    Cl14723   6.874  -0.214   7.487 -0.1283 -0.6069  0.1020
  832MOL0     C14724   7.653   0.760   7.416 -0.3132 -0.1262 -0.4505
  832MOL0     C14725   7.737   0.867   7.454  1.0994 -0.4283 -0.2913
  832MOL0     O14726   7.744   1.163   7.478 -0.2630  0.5407  0.3889
  832MOL0     C14727   8.074   1.265   7.434 -0.2646 -0.0834 -0.6937
  832MOL0     C14728   8.155   1.382   7.465 -0.7053  1.2104 -0.5235
  832MOL0     N14729   8.584   1.959   7.746 -0.6630 -0.6234  0.3210
  832MOL0     N14730   8.684   2.021   7.697  0.1166 -0.0272  0.5033
  832MOL0     C14731   9.135   1.319   6.756  0.6976  1.1969  0.2685
  832MOL0     C14732   9.207   1.221   6.684 -0.0872  0.1844 -0.7784
  832MOL0     C14733   9.458   0.922   6.527 -0.4909  0.9374  0.0120
  832MOL0     C14734   9.568   0.834   6.550 -0.3163 -0.3750 -0.1727
  832MOL0     C14735   9.586   0.722   6.462 -0.3135 -0.4936  1.0936
  832MOL0     C14736   9.487   0.689   6.366 -0.5799 -0.4288 -0.7649
  832MOL0     O14737   9.506   0.581   6.285 -0.1325 -0.1714 -0.3424
  832MOL0     C14738   9.565   0.463   6.316  0.0641  1.5678 -0.0158
  832MOL0     C14739   9.531   0.338   6.217 -1.8520 -0.1679 -0.6442
  832MOL0     C14740   9.550   0.376   6.068  0.1711 -0.4255 -0.7235
  832MOL0     C14741   9.702   0.370   6.029 -0.4272  0.4421 -0.1309
  832MOL0     C14742   9.718   0.442   5.902 -0.0405 -0.4396  0.2158
  832MOL0     C14743   9.722   0.492   5.791  0.1560 -0.2599  0.0955
  832MOL0     C14744   9.377   0.766   6.362 -0.2698  0.0627 -0.9713
  832MOL0     C14745   9.364   0.883   6.431 -1.0390 -0.0060  0.1946
  832MOL0     C14746   9.236   0.948   6.414 -0.5237  0.2886  0.4492
  832MOL0     H14747   9.486   1.393   6.617  0.3519 -2.2556 -0.8987
  832MOL0     H14748   9.342   1.581   6.723  1.8546 -0.2133  1.4183
  832MOL0     H14749   9.130   1.716   6.768  5.1674 -4.6313 -2.7797
  832MOL0     H14750   9.241   1.671   6.894  0.8248  0.2754 -0.6252
  832MOL0     H14751   9.024   1.834   6.907  4.3437 -0.0331 -1.4008
  832MOL0     H14752   8.959   1.687   6.991 -0.2836  1.1311 -0.1091
  832MOL0     H14753   9.138   1.663   7.141 -0.0557 -1.4470 -3.0471
  832MOL0     H14754   9.218   1.821   7.092  0.7598  0.1002  0.9553
  832MOL0     H14755   8.995   1.927   7.150  0.1378 -0.6888 -2.3076
  832MOL0     H14756   8.951   1.781   7.230  3.3710 -2.2147  2.8517
  832MOL0     H14757   9.211   1.935   7.263  1.1042 -2.0203 -0.2369
  832MOL0     H14758   9.182   1.799   7.363 -0.6261  0.3934  1.2851
  832MOL0     H14759   9.144   2.008   7.485  3.0084  0.0532 -2.6009
  832MOL0     H14760   9.034   2.069   7.365  2.0109  1.2188  1.7947
  832MOL0     H14761   9.000   1.803   7.511 -1.9848 -0.3496 -0.3342
  832MOL0     H14762   8.870   1.903   7.430  2.7504  0.3958 -3.6296
  832MOL0     H14763   9.005   1.942   7.698 -1.5429 -1.2414  1.4881
  832MOL0     H14764   8.915   2.076   7.626 -0.3325 -0.3562 -1.2697
  832MOL0     H14765   8.811   1.720   7.708  1.1655  1.4591  0.3295
  832MOL0     H14766   8.440   1.771   7.884  0.3638  2.5686 -2.7581
  832MOL0     H14767   8.589   1.678   7.913  2.5227  3.9747 -0.0445
  832MOL0     H14768   8.572   1.556   7.710 -0.0860  0.5548 -0.4404
  832MOL0     H14769   8.410   1.551   7.773 -0.1117 -3.5886 -3.2782
  832MOL0     H14770   8.346   1.759   7.649  0.6047 -1.2388  1.5671
  832MOL0     H14771   8.485   1.719   7.539 -2.1110  1.2133 -0.9193
  832MOL0     H14772   8.279   1.639   7.439 -0.5937  3.0077  0.2614
  832MOL0     H14773   8.391   1.513   7.499 -0.4818  0.6582 -2.2285
  832MOL0     H14774   7.987   1.521   7.712  0.8160  0.8288 -0.2307
  832MOL0     H14775   7.725   1.371   7.621  1.3455 -0.1705 -1.7825
  832MOL0     H14776   7.802   1.407   7.775 -0.6698  0.9639 -0.2911
  832MOL0     H14777   7.782   1.238   7.735  0.5000 -1.0011 -1.0701
  832MOL0     H14778   7.893   0.899   7.147  0.3976 -1.5430 -0.5963
  832MOL0     H14779   7.731   0.724   7.098  0.6341  2.0368 -1.5935
  832MOL0     H14780   7.402   0.663   7.393  0.3216 -3.0184  0.7513
  832MOL0     H14781   7.403   0.732   7.232  1.6144  2.4037  2.7700
  832MOL0     H14782   7.229   0.555   7.222  0.3733  0.3743 -1.2405
  832MOL0     H14783   7.368   0.474   7.162 -0.6109  0.7530 -0.2039
  832MOL0     H14784   7.257   0.472   7.444  0.8304  1.1458 -0.0075
  832MOL0     H14785   7.410   0.401   7.402  1.9091  0.6917 -1.6104
  832MOL0     H14786   7.329   0.231   7.278  0.3308  0.7748 -0.8370
  832MOL0     H14787   7.187   0.303   7.214  0.4444 -3.0599 -0.7041
  832MOL0     H14788   7.199   0.231   7.499  1.2176  1.0324 -0.5314
  832MOL0     H14789   7.063   0.283   7.409  2.3253  2.3122 -0.3261
  832MOL0     H14790   7.200   0.011   7.361 -1.2004 -2.3425 -1.2061
  832MOL0     H14791   7.101   0.079   7.240  1.3218 -3.4115  0.3811
  832MOL0     H14792   6.913   0.042   7.363  1.5663  2.0547 -2.6262
  832MOL0     H14793   6.991   0.039   7.523  0.6450 -0.2859  0.1342
  832MOL0     H14794   7.105  -0.153   7.495  0.4822  1.1530 -1.1719
  832MOL0     H14795   7.060  -0.179   7.328  0.1672 -0.0477 -1.2758
  832MOL0     H14796   7.590   0.728   7.498  1.2644  2.1484  1.8183
  832MOL0     H14797   7.751   0.912   7.551  2.7992  0.8073 -1.0601
  832MOL0     H14798   8.098   1.193   7.356 -5.2761 -2.3204 -0.5529
  832MOL0     H14799   8.240   1.385   7.397  1.0689 -1.2870  1.4075
  832MOL0     H14800   9.037   1.296   6.795  2.1724 -0.0768  3.5692
  832MOL0     H14801   9.155   1.128   6.664  2.4003 -1.4852 -0.0632
  832MOL0     H14802   9.639   0.852   6.629 -0.6123 -1.0765  0.2684
  832MOL0     H14803   9.677   0.662   6.462  1.7889  2.4305 -0.5321
  832MOL0     H14804   9.671   0.488   6.325  0.0240  2.3549 -1.4507
  832MOL0     H14805   9.536   0.440   6.419 -0.5000  0.2454 -0.4408
  832MOL0     H14806   9.428   0.311   6.240 -1.4770  0.1932  1.7821
  832MOL0     H14807   9.603   0.260   6.243 -0.2093  1.5842  0.3954
  832MOL0     H14808   9.483   0.310   6.012 -0.4827  0.4547 -0.9990
  832MOL0     H14809   9.515   0.474   6.037 -0.5505  0.9030  3.6116
  832MOL0     H14810   9.723   0.265   6.008 -3.2940 -0.4055  0.7099
  832MOL0     H14811   9.767   0.403   6.110 -4.4359  2.4314  2.6730
  832MOL0     H14812   9.741   0.540   5.697 -1.0535  1.8795  0.8807
  832MOL0     H14813   9.299   0.742   6.290  0.0684  0.4638 -1.4759
  832MOL0     H14814   9.204   0.949   6.309  0.2772  1.8797  0.1755
  832MOL0     H14815   9.156   0.901   6.471  0.6130 -2.8267 -0.3164
  832MOL0     H14816   9.230   1.054   6.443 -1.0823  0.7274 -1.1752
  833MOL0     O14817   9.203   5.101   2.444  0.0217 -0.8841  0.1367
  833MOL0     C14818   9.162   5.014   2.369  0.1146 -0.0460  0.0960
  833MOL0     O14819   9.058   4.933   2.398 -0.0527  0.1858 -0.5351
  833MOL0     C14820   8.948   4.973   2.470  0.7929 -0.9584 -0.2067
  833MOL0     C14821   8.915   5.101   2.480 -0.5053  0.5087 -0.1606
  833MOL0     C14822   8.799   5.148   2.539  0.3575 -0.8390  0.5716
  833MOL0     C14823   8.709   5.055   2.602  1.6140  0.5802  0.1438
  833MOL0     O14824   8.593   5.082   2.674  0.3204  0.3782 -0.0630
  833MOL0     C14825   8.579   5.227   2.716  0.3285  0.0299 -0.6674
  833MOL0     C14826   8.478   5.249   2.831 -0.2831 -0.6443  0.4422
  833MOL0     C14827   8.501   5.178   2.959  1.3094 -1.0286  0.8778
  833MOL0     C14828   8.394   5.220   3.067  0.2613 -0.3699  0.5248
  833MOL0     C14829   8.426   5.165   3.209 -0.7324  0.0213 -0.0955
  833MOL0     C14830   8.319   5.203   3.314  0.1335 -0.3245  0.1668
  833MOL0     C14831   8.347   5.139   3.455  1.0603 -0.3769 -0.3890
  833MOL0     C14832   8.279   5.002   3.478 -0.1679 -0.2936 -0.9537
  833MOL0     N14833   8.306   4.906   3.365  0.4177 -0.3072 -1.6045
  833MOL0     C14834   8.224   4.871   3.262 -0.1253 -0.0912 -0.6769
  833MOL0     C14835   8.290   4.769   3.208  0.8221 -0.1980 -0.1038
  833MOL0     C14836   8.258   4.694   3.086  0.1790  0.5336 -0.0286
  833MOL0     C14837   8.189   4.787   2.990 -0.2174  0.4515 -0.2772
  833MOL0     C14838   8.176   4.711   2.855  0.1213  0.3979  0.7206
  833MOL0     C14839   8.076   4.797   2.769  0.4917 -0.1107 -0.0117
  833MOL0     O14840   8.142   4.915   2.730  0.5223 -0.4338 -0.0341
  833MOL0     C14841   8.079   4.985   2.630 -0.2428  0.4861  0.5366
  833MOL0     C14842   7.952   4.969   2.584  0.2650 -0.1592  0.5734
  833MOL0     C14843   7.883   5.060   2.495  0.8008  0.3764 -0.1034
  833MOL0     C14844   7.731   5.047   2.474 -0.2994 -1.0365  0.3906
  833MOL0     C14845   7.962   5.171   2.449  0.4231 -0.2411  0.1707
  833MOL0     C14846   7.910   5.269   2.345  0.0032  1.4084  0.5392
  833MOL0     O14847   7.834   5.222   2.243 -0.3611 -0.1840 -0.5749
  833MOL0     C14848   7.818   5.303   2.133 -0.3798 -0.3780 -0.1601
  833MOL0     C14849   7.902   5.272   2.021  0.1663 -0.2081 -0.1489
  833MOL0     C14850   7.884   5.328   1.896 -1.2698 -0.5558 -0.1868
  833MOL0     C14851   7.783   5.417   1.874  0.6837  0.3194  0.5338
  833MOL0     O14852   7.760   5.490   1.756 -0.0021  0.5261  0.4045
  833MOL0     C14853   7.793   5.440   1.626 -0.3935 -0.2625 -0.1852
  833MOL0     C14854   7.680   5.451   1.538  0.0108  0.0278 -0.1382
  833MOL0     C14855   7.736   5.476   1.401 -0.4770  0.0197  0.4803
  833MOL0     C14856   7.631   5.521   1.297 -1.1046  0.3110 -0.2917
  833MOL0     C14857   7.702   5.563   1.160 -0.3237  0.2273  0.1496
  833MOL0     C14858   7.600   5.626   1.064 -0.2910  0.2201 -0.0336
  833MOL0     C14859   7.668   5.664   0.938 -0.7502  0.0409  0.0453
  833MOL0     C14860   7.705   5.555   0.844  0.1811  1.1249 -0.2797
  833MOL0    Cl14861   7.726   5.620   0.681 -0.1042 -0.5242  0.3020
  833MOL0     C14862   7.699   5.451   1.981  0.0010  0.5246 -0.6255
  833MOL0     C14863   7.708   5.393   2.108 -0.7967 -1.0046 -0.2737
  833MOL0     O14864   7.973   5.374   2.349 -0.3385 -0.4762 -0.5856
  833MOL0     C14865   8.089   5.183   2.496  0.4981  0.8271 -0.1534
  833MOL0     C14866   8.151   5.098   2.586  0.9778  0.3337  0.2916
  833MOL0     N14867   8.404   4.745   3.273  1.3196 -0.6222  0.4115
  833MOL0     N14868   8.410   4.823   3.378 -0.4321  0.2174 -0.0863
  833MOL0     C14869   8.753   4.919   2.603  0.1440 -0.3159 -0.4970
  833MOL0     C14870   8.866   4.882   2.531  0.3730  1.4062 -0.5754
  833MOL0     C14871   9.251   4.975   2.263 -0.4337  0.4190  0.2482
  833MOL0     C14872   9.291   4.841   2.238  0.7819  0.0426  0.6179
  833MOL0     C14873   9.369   4.810   2.124  0.1759 -0.6625  0.0861
  833MOL0     C14874   9.414   4.906   2.044  0.0404 -0.4578 -0.5942
  833MOL0     O14875   9.498   4.869   1.947  0.3457  0.1053  0.1707
  833MOL0     C14876   9.596   4.966   1.894  0.0466 -0.2303 -0.5836
  833MOL0     C14877   9.692   5.032   1.999  1.0623 -0.4808  0.3608
  833MOL0     C14878   9.801   4.936   2.051  0.6367  1.0557 -0.1184
  833MOL0     C14879   9.751   4.803   2.111 -0.4275 -0.7274  1.0431
  833MOL0     C14880   9.877   4.728   2.136  0.5890 -0.4610  0.6368
  833MOL0     C14881   9.991   4.671   2.142 -0.5227 -0.2531 -0.0485
  833MOL0     C14882   9.367   5.040   2.056  0.7235  0.5454 -0.0740
  833MOL0     C14883   9.286   5.069   2.168 -0.0355 -0.5312 -0.7254
  833MOL0     C14884   9.238   5.213   2.167  0.2634 -0.1569  0.0190
  833MOL0     H14885   8.973   5.182   2.436 -1.2928  0.8561 -0.5837
  833MOL0     H14886   8.776   5.252   2.519  1.0183 -0.7695  0.1285
  833MOL0     H14887   8.546   5.281   2.627  2.8404 -1.0283 -2.3650
  833MOL0     H14888   8.673   5.268   2.754 -0.3049  1.2383 -0.3507
  833MOL0     H14889   8.456   5.356   2.841 -0.4635 -0.6498  0.1266
  833MOL0     H14890   8.384   5.203   2.800 -0.8110 -0.4204  1.6423
  833MOL0     H14891   8.490   5.071   2.941 -1.7703 -1.1821  3.0172
  833MOL0     H14892   8.605   5.200   2.985  1.7282  2.5833 -2.8549
  833MOL0     H14893   8.377   5.327   3.075 -3.3372 -0.8220  0.5487
  833MOL0     H14894   8.297   5.176   3.042  0.5013 -1.5681  1.5657
  833MOL0     H14895   8.520   5.208   3.246 -0.1608 -2.5766  1.7117
  833MOL0     H14896   8.451   5.059   3.214  1.2078  0.4496  0.2604
  833MOL0     H14897   8.309   5.311   3.329  1.9575 -0.1227  0.1234
  833MOL0     H14898   8.223   5.157   3.291 -0.3992  1.4739 -1.4749
  833MOL0     H14899   8.309   5.211   3.528  2.8227  2.4807 -2.0903
  833MOL0     H14900   8.448   5.122   3.494  0.6888 -0.3206  0.6368
  833MOL0     H14901   8.307   4.965   3.577 -5.7093  0.7852  1.4075
  833MOL0     H14902   8.172   5.009   3.500  0.3978 -3.0045  4.4197
  833MOL0     H14903   8.124   4.910   3.246 -0.4140 -0.3842  0.3071
  833MOL0     H14904   8.192   4.612   3.118  1.1814  0.3022  1.5946
  833MOL0     H14905   8.345   4.648   3.038 -2.1299 -1.2114 -2.8586
  833MOL0     H14906   8.094   4.811   3.039 -0.9481 -0.0001 -1.4372
  833MOL0     H14907   8.260   4.869   2.971  1.8803 -0.4681  2.7081
  833MOL0     H14908   8.271   4.710   2.802 -0.9268 -2.2473 -1.3521
  833MOL0     H14909   8.143   4.609   2.875  2.5613 -0.6739 -0.3988
  833MOL0     H14910   8.045   4.738   2.682  0.0633 -0.1768  0.1876
  833MOL0     H14911   7.979   4.821   2.813 -1.8953 -0.8892 -4.3080
  833MOL0     H14912   7.881   4.895   2.619 -0.4605  0.4203  0.3285
  833MOL0     H14913   7.685   4.968   2.535  1.1129 -2.5017 -0.3655
  833MOL0     H14914   7.722   5.009   2.372  4.0762 -2.8456  0.4434
  833MOL0     H14915   7.684   5.145   2.485  1.2157 -0.1551 -0.5636
  833MOL0     H14916   7.995   5.217   2.035 -0.2375 -0.9953 -0.5100
  833MOL0     H14917   7.961   5.305   1.823 -1.0919  2.5008 -1.1011
  833MOL0     H14918   7.877   5.499   1.589  1.4716 -2.8870 -0.4437
  833MOL0     H14919   7.817   5.334   1.638  0.9762 -0.2038 -2.0690
  833MOL0     H14920   7.622   5.358   1.539 -1.0920  0.6228 -2.2400
  833MOL0     H14921   7.621   5.538   1.568  1.0044  1.6384 -2.5351
  833MOL0     H14922   7.784   5.385   1.364  2.8778  1.1871  1.5161
  833MOL0     H14923   7.819   5.547   1.397  0.7600 -1.2975  1.3357
  833MOL0     H14924   7.569   5.601   1.337 -1.2458  1.5376 -2.7775
  833MOL0     H14925   7.577   5.428   1.279 -0.4519  0.1504 -1.6083
  833MOL0     H14926   7.794   5.620   1.179  0.0405 -0.3346  0.1102
  833MOL0     H14927   7.743   5.474   1.112 -1.1003  0.5659 -1.1853
  833MOL0     H14928   7.565   5.720   1.107  0.6650  0.1996  0.8475
  833MOL0     H14929   7.515   5.557   1.056  0.3358 -0.5017 -0.6800
  833MOL0     H14930   7.760   5.722   0.953 -0.3715  0.9263 -4.4708
  833MOL0     H14931   7.598   5.734   0.893  0.3000  2.7199  2.2510
  833MOL0     H14932   7.632   5.473   0.845  2.2011 -0.8636  3.0660
  833MOL0     H14933   7.794   5.494   0.864 -1.3934 -2.4964 -3.0710
  833MOL0     H14934   7.609   5.506   1.954 -2.4600 -1.9123  1.9654
  833MOL0     H14935   7.653   5.418   2.199 -0.7627 -0.1291 -0.4875
  833MOL0     H14936   8.148   5.272   2.477 -0.2188  1.3288 -0.0562
  833MOL0     H14937   8.256   5.111   2.612  2.1725 -2.0165 -2.7351
  833MOL0     H14938   8.696   4.856   2.671 -2.1531  2.4653  0.3797
  833MOL0     H14939   8.899   4.778   2.534 -4.9455 -0.6104 -0.2857
  833MOL0     H14940   9.257   4.755   2.295 -0.4602 -0.3251 -0.5964
  833MOL0     H14941   9.405   4.714   2.090  3.7665  0.5384  0.0108
  833MOL0     H14942   9.652   4.918   1.813  1.0934 -1.9654  1.0760
  833MOL0     H14943   9.544   5.048   1.844  0.5482 -0.9579 -2.3855
  833MOL0     H14944   9.644   5.086   2.081  0.2690  0.1945 -0.5170
  833MOL0     H14945   9.746   5.101   1.933  0.6155 -1.9293 -1.6336
  833MOL0     H14946   9.863   4.917   1.963  1.7789  0.5518  0.7762
  833MOL0     H14947   9.847   4.985   2.137  0.6124  2.3704 -0.8252
  833MOL0     H14948   9.695   4.749   2.034 -0.3883 -1.6048  1.6116
  833MOL0     H14949   9.688   4.818   2.198  0.0348  0.8196  1.1380
  833MOL0     H14950  10.083   4.616   2.145 -0.0668  0.5375  1.4366
  833MOL0     H14951   9.404   5.110   1.983  1.3573  0.4291  0.1314
  833MOL0     H14952   9.129   5.217   2.172  0.3264  0.2888  1.4796
  833MOL0     H14953   9.275   5.265   2.256 -0.8251  0.2099  0.2651
  833MOL0     H14954   9.275   5.272   2.083  0.2848 -0.0183  0.1250
  834MOL0     O14955  11.465   2.085   4.362 -0.6043 -0.2265  0.5788
  834MOL0     C14956  11.447   1.969   4.399 -0.5545  0.1552  0.4549
  834MOL0     O14957  11.372   1.891   4.332 -0.2579 -0.2369  0.6526
  834MOL0     C14958  11.353   1.907   4.196  1.1490  0.3817 -0.5321
  834MOL0     C14959  11.239   1.840   4.152 -0.3900 -0.0014  0.1621
  834MOL0     C14960  11.239   1.802   4.015 -0.1151  0.4800  0.6959
  834MOL0     C14961  11.342   1.834   3.927 -0.3651  0.0088 -0.6336
  834MOL0     O14962  11.330   1.790   3.796  0.2414 -1.6076  0.8768
  834MOL0     C14963  11.339   1.647   3.780  0.2489  0.3455  0.2015
  834MOL0     C14964  11.306   1.609   3.636 -0.3904  0.2538  0.2392
  834MOL0     C14965  11.407   1.661   3.530  0.3134 -0.1493  0.2440
  834MOL0     C14966  11.379   1.604   3.395  0.0297 -0.2301  0.4049
  834MOL0     C14967  11.495   1.628   3.300 -0.5275 -0.4023  0.3767
  834MOL0     C14968  11.515   1.774   3.250 -0.4433 -0.6111 -0.5849
  834MOL0     C14969  11.602   1.765   3.123 -0.1248 -0.0181 -0.5268
  834MOL0     C14970  11.520   1.732   3.000  0.8336 -0.0725 -0.1460
  834MOL0     N14971  11.619   1.703   2.893  0.5926 -0.3531 -0.5976
  834MOL0     C14972  11.685   1.790   2.828  0.3098 -1.1061 -0.4489
  834MOL0     C14973  11.748   1.719   2.732 -0.2826  0.5137 -0.0204
  834MOL0     C14974  11.849   1.765   2.629 -0.3917  0.4268 -0.2274
  834MOL0     C14975  11.825   1.685   2.489 -0.3842  1.0648  0.2021
  834MOL0     C14976  11.706   1.740   2.406 -0.3067  0.2321  0.1279
  834MOL0     C14977  11.656   1.654   2.289  0.9016 -0.3318 -0.3030
  834MOL0     O14978  11.731   1.670   2.171 -0.1933 -0.4728 -0.7776
  834MOL0     C14979  11.853   1.612   2.133 -0.4581 -0.3042 -0.2173
  834MOL0     C14980  11.936   1.671   2.029 -0.2447 -0.2552 -1.1448
  834MOL0     C14981  12.051   1.611   1.984  0.3582 -0.0842  0.1954
  834MOL0     C14982  12.118   1.694   1.875  0.3830 -0.2198  0.1058
  834MOL0     C14983  12.095   1.489   2.033  0.3577  0.0088 -0.9384
  834MOL0     C14984  12.226   1.427   1.990 -0.7052 -0.0416 -0.1586
  834MOL0     O14985  12.245   1.297   2.035 -0.5526 -0.4224  0.1558
  834MOL0     C14986  12.379   1.255   2.023  0.5420 -0.7484 -0.8895
  834MOL0     C14987  12.491   1.330   2.064  0.2795  0.1766  0.3770
  834MOL0     C14988  12.614   1.268   2.040 -0.1701  0.3579  0.9335
  834MOL0     C14989  12.626   1.141   1.978 -0.4565 -0.9567  0.6788
  834MOL0     O14990  12.762   1.118   1.934  0.4672  0.0783 -1.0037
  834MOL0     C14991  12.795   0.995   1.874 -0.4825 -0.1613 -0.2238
  834MOL0     C14992  12.933   1.022   1.810  0.2154  0.4018  0.1063
  834MOL0     C14993  12.994   0.898   1.759  0.1096 -0.8802  0.3626
  834MOL0     C14994  13.140   0.906   1.718  0.1679 -0.4957 -0.0548
  834MOL0     C14995  13.188   0.766   1.682 -1.0186 -0.9686  0.4918
  834MOL0     C14996  13.331   0.764   1.624 -0.9070  0.6984  0.4653
  834MOL0     C14997  13.339   0.655   1.505 -0.4272 -0.7952  0.3985
  834MOL0     C14998  13.487   0.651   1.453  0.3193 -0.2513 -0.8100
  834MOL0    Cl14999  13.508   0.788   1.344  0.3528  0.0177  0.0049
  834MOL0     C15000  12.512   1.075   1.945  0.2865  0.3532 -0.6401
  834MOL0     C15001  12.385   1.130   1.974 -0.1432 -0.1621 -0.3272
  834MOL0     O15002  12.303   1.485   1.913  0.2372 -0.9409  0.0768
  834MOL0     C15003  12.019   1.437   2.147 -0.2316 -0.2289  0.1406
  834MOL0     C15004  11.900   1.495   2.188 -0.0658 -0.4655 -0.2614
  834MOL0     N15005  11.713   1.589   2.745  0.0328 -0.4424  0.4250
  834MOL0     N15006  11.642   1.583   2.847  0.2169 -1.1677  0.7426
  834MOL0     C15007  11.449   1.917   3.974  0.1755  0.3796 -0.0515
  834MOL0     C15008  11.456   1.946   4.108 -0.1740  0.7044  0.4906
  834MOL0     C15009  11.498   1.918   4.531  0.7969  1.3703  0.5109
  834MOL0     C15010  11.444   1.785   4.563  0.4942  0.0404  0.2088
  834MOL0     C15011  11.468   1.735   4.694 -0.0416  0.1095  0.3719
  834MOL0     C15012  11.544   1.805   4.787 -0.4480  0.0643  0.2323
  834MOL0     O15013  11.584   1.744   4.904 -0.3196 -0.4795  0.6162
  834MOL0     C15014  11.537   1.608   4.945  0.0942 -0.8356  0.1308
  834MOL0     C15015  11.562   1.577   5.099  0.6542 -0.9362  0.6159
  834MOL0     C15016  11.441   1.617   5.185 -0.0476  1.3101  0.4335
  834MOL0     C15017  11.360   1.502   5.256  0.3479  0.9486 -0.4694
  834MOL0     C15018  11.278   1.423   5.171 -0.2717  0.3915 -0.4636
  834MOL0     C15019  11.201   1.344   5.123  0.1701 -1.2028  0.3120
  834MOL0     C15020  11.595   1.931   4.753 -0.7966 -0.1473  0.4217
  834MOL0     C15021  11.560   1.988   4.630  0.8627 -0.4607 -0.3795
  834MOL0     C15022  11.621   2.127   4.613 -0.0717 -0.1230 -0.6181
  834MOL0     H15023  11.153   1.817   4.214 -1.2339  1.4024 -0.4425
  834MOL0     H15024  11.158   1.732   3.994  1.5506 -0.6906 -2.4508
  834MOL0     H15025  11.284   1.591   3.856 -0.3372 -0.5345 -0.8518
  834MOL0     H15026  11.441   1.612   3.798  0.1946 -0.4664 -0.9556
  834MOL0     H15027  11.318   1.501   3.636 -2.1030  0.0249 -1.0886
  834MOL0     H15028  11.202   1.634   3.613 -1.6341 -1.5519  3.2949
  834MOL0     H15029  11.405   1.770   3.529 -0.6054  0.1061  5.0480
  834MOL0     H15030  11.503   1.614   3.552 -0.1447 -3.2534 -3.2773
  834MOL0     H15031  11.362   1.496   3.401 -0.6467 -0.2434 -1.3699
  834MOL0     H15032  11.298   1.669   3.363 -0.2428 -0.9266 -0.3601
  834MOL0     H15033  11.471   1.563   3.216 -0.4135 -0.8908  0.7174
  834MOL0     H15034  11.586   1.588   3.346  1.2087  2.5190 -0.2732
  834MOL0     H15035  11.420   1.823   3.229  1.3415  2.6139 -1.7911
  834MOL0     H15036  11.562   1.827   3.333 -3.6769 -0.7717  1.5541
  834MOL0     H15037  11.685   1.694   3.135 -0.4253 -0.0203  2.2600
  834MOL0     H15038  11.657   1.858   3.108  0.5996 -0.0255  1.7176
  834MOL0     H15039  11.468   1.637   3.016  0.5898 -0.6855 -3.8750
  834MOL0     H15040  11.445   1.803   2.964 -0.7285 -3.3379 -4.1460
  834MOL0     H15041  11.674   1.894   2.856 -1.6720 -1.7973  1.6511
  834MOL0     H15042  11.945   1.734   2.670  1.0189  2.8817 -1.4600
  834MOL0     H15043  11.857   1.874   2.619  1.6487  0.1637 -2.0242
  834MOL0     H15044  11.914   1.694   2.426 -0.1356 -0.8154  0.2141
  834MOL0     H15045  11.798   1.580   2.503  0.9734  0.6772  0.0591
  834MOL0     H15046  11.626   1.751   2.479  0.8202  0.7219  1.3370
  834MOL0     H15047  11.733   1.832   2.355 -2.8965  0.4394 -1.0191
  834MOL0     H15048  11.649   1.547   2.312  2.9766 -0.5736 -0.5675
  834MOL0     H15049  11.555   1.690   2.269  1.4043  1.2087 -0.1705
  834MOL0     H15050  11.888   1.763   1.998  1.8563 -0.1050 -4.4850
  834MOL0     H15051  12.098   1.651   1.777  0.5850  0.0889 -0.0737
  834MOL0     H15052  12.225   1.711   1.889  0.5965  0.8097 -2.2490
  834MOL0     H15053  12.085   1.798   1.865  2.7596  0.4647 -1.5035
  834MOL0     H15054  12.482   1.430   2.106 -4.0201 -0.2998  1.0586
  834MOL0     H15055  12.705   1.323   2.064  1.2568 -2.1138  1.5515
  834MOL0     H15056  12.810   0.917   1.949 -1.6612  1.0182  1.2873
  834MOL0     H15057  12.726   0.965   1.794  1.0622  0.8216 -2.0068
  834MOL0     H15058  12.895   1.098   1.742  0.5927 -1.2145 -2.0161
  834MOL0     H15059  13.012   1.060   1.876 -0.6729 -1.9923  2.7607
  834MOL0     H15060  12.930   0.886   1.671 -1.4933  1.6319  1.1023
  834MOL0     H15061  12.976   0.818   1.830 -1.4081  1.3209  2.6177
  834MOL0     H15062  13.207   0.935   1.800  1.8811 -4.7071  0.2843
  834MOL0     H15063  13.161   0.975   1.636 -3.2209 -0.9574 -1.4914
  834MOL0     H15064  13.172   0.694   1.763 -0.1336 -0.5180  1.0923
  834MOL0     H15065  13.122   0.725   1.605 -2.3865 -0.6944  1.4898
  834MOL0     H15066  13.396   0.752   1.711  1.9700  1.3824 -1.4402
  834MOL0     H15067  13.351   0.861   1.576 -0.4209 -0.6201 -2.2196
  834MOL0     H15068  13.282   0.693   1.420 -0.3259  1.9130  1.4386
  834MOL0     H15069  13.306   0.560   1.547  1.2809 -1.3219  0.6172
  834MOL0     H15070  13.509   0.567   1.385 -0.6726 -1.5351  0.4018
  834MOL0     H15071  13.557   0.643   1.537 -1.8891  0.9248  1.2366
  834MOL0     H15072  12.522   0.974   1.906  0.5648 -0.3608  1.1800
  834MOL0     H15073  12.299   1.071   1.946  0.6584 -1.3412 -0.3677
  834MOL0     H15074  12.046   1.345   2.198  0.7239  0.2661  0.5502
  834MOL0     H15075  11.845   1.452   2.271 -0.7343  1.3662  0.3015
  834MOL0     H15076  11.521   1.953   3.901  0.8468  1.5682  1.1487
  834MOL0     H15077  11.543   2.009   4.127 -0.8060  2.0690 -0.8600
  834MOL0     H15078  11.395   1.727   4.486 -0.3257  1.6002 -0.4856
  834MOL0     H15079  11.423   1.643   4.730 -1.7142  1.2062  1.2695
  834MOL0     H15080  11.431   1.591   4.922 -0.2141 -3.2168  2.8120
  834MOL0     H15081  11.597   1.527   4.902  0.4813  0.0464 -1.0525
  834MOL0     H15082  11.656   1.619   5.135  1.1796 -0.8716 -0.7892
  834MOL0     H15083  11.581   1.469   5.098 -0.5844 -1.1780 -1.0783
  834MOL0     H15084  11.485   1.673   5.267 -0.1602  1.6392  0.2719
  834MOL0     H15085  11.376   1.677   5.121  0.5703 -0.4534 -1.9994
  834MOL0     H15086  11.289   1.556   5.320  0.0107 -0.2361  0.1854
  834MOL0     H15087  11.423   1.427   5.306 -0.2053 -0.3885 -1.7135
  834MOL0     H15088  11.118   1.284   5.093  0.7549 -1.1752 -1.4948
  834MOL0     H15089  11.660   1.969   4.830  2.6499 -2.2372 -1.1985
  834MOL0     H15090  11.651   2.158   4.713  0.7890  0.2420 -0.9708
  834MOL0     H15091  11.717   2.113   4.561 -0.6682  1.4691 -2.2750
  834MOL0     H15092  11.557   2.199   4.560 -0.7925 -0.7347 -0.5904
  835MOL0     O15093   7.786   4.255   4.617  0.0631 -0.1370 -0.2421
  835MOL0     C15094   7.839   4.366   4.604 -0.8188 -0.0961  1.0043
  835MOL0     O15095   7.780   4.489   4.623  0.3192  1.0136 -0.0856
  835MOL0     C15096   7.650   4.493   4.662  0.3616 -0.6913  0.0496
  835MOL0     C15097   7.546   4.410   4.618 -0.3748 -0.1999  0.4314
  835MOL0     C15098   7.424   4.413   4.683  0.4451 -0.1706  0.3827
  835MOL0     C15099   7.401   4.511   4.788  1.2911  0.0808  0.1253
  835MOL0     O15100   7.278   4.519   4.840  0.2280  0.2456  0.5829
  835MOL0     C15101   7.212   4.405   4.899 -0.2663 -0.6778 -0.3461
  835MOL0     C15102   7.114   4.438   4.998 -0.6751  0.1328  0.2661
  835MOL0     C15103   7.190   4.448   5.134 -0.2401 -0.1152  0.0238
  835MOL0     C15104   7.088   4.444   5.247  0.1383 -0.2753 -1.0968
  835MOL0     C15105   7.153   4.432   5.387  0.3217 -0.0165 -0.9518
  835MOL0     C15106   7.050   4.402   5.501 -0.3510  0.1260 -0.4154
  835MOL0     C15107   6.932   4.486   5.515  0.3213 -0.3725 -0.2365
  835MOL0     C15108   6.976   4.632   5.570  0.2201 -0.2666 -0.1905
  835MOL0     N15109   6.872   4.689   5.655  0.6056 -0.1583 -0.0861
  835MOL0     C15110   6.803   4.622   5.754 -0.8585  0.1862  0.1484
  835MOL0     C15111   6.711   4.713   5.779 -0.0809  0.8378 -0.3066
  835MOL0     C15112   6.612   4.700   5.881  0.0717  1.0001 -0.2510
  835MOL0     C15113   6.545   4.560   5.884 -0.5044  0.3135  0.2344
  835MOL0     C15114   6.429   4.564   5.980 -0.5149  0.9409  0.5344
  835MOL0     C15115   6.339   4.435   5.969 -0.2477  0.0855  0.5034
  835MOL0     O15116   6.415   4.312   5.987 -0.6226 -0.3581 -0.0157
  835MOL0     C15117   6.365   4.206   6.060  0.2609  0.5170 -0.3437
  835MOL0     C15118   6.228   4.177   6.068 -0.0599 -0.4858  0.4362
  835MOL0     C15119   6.192   4.060   6.132 -0.4404 -0.4326 -0.0309
  835MOL0     C15120   6.043   4.035   6.151  0.7257  0.0058 -0.0852
  835MOL0     C15121   6.283   3.970   6.192  0.0314 -0.6508 -0.5756
  835MOL0     C15122   6.247   3.837   6.260  0.0817  0.8877  0.3589
  835MOL0     O15123   6.341   3.734   6.250 -0.2102 -0.0957  0.1596
  835MOL0     C15124   6.302   3.606   6.282  0.4684  0.9203  0.4013
  835MOL0     C15125   6.378   3.526   6.369  1.6323 -0.8135  0.2399
  835MOL0     C15126   6.333   3.401   6.412 -0.2497  0.2940 -0.0181
  835MOL0     C15127   6.214   3.348   6.359  0.2276 -0.3149  0.3992
  835MOL0     O15128   6.189   3.219   6.411 -0.2855  0.2314 -0.6874
  835MOL0     C15129   6.077   3.142   6.375  0.4702 -0.0345  0.4947
  835MOL0     C15130   6.060   3.037   6.479  1.0914  0.7714 -0.0104
  835MOL0     C15131   5.917   2.995   6.488 -0.3798 -0.0684  0.4712
  835MOL0     C15132   5.883   2.876   6.581  0.0796  1.2410  0.5434
  835MOL0     C15133   5.742   2.829   6.550  1.0146 -0.0744 -0.3160
  835MOL0     C15134   5.723   2.693   6.618  0.5794 -0.2070 -0.7265
  835MOL0     C15135   5.596   2.608   6.605  1.4198  1.3694  0.4277
  835MOL0     C15136   5.477   2.687   6.663  0.5684  0.8131  0.5991
  835MOL0    Cl15137   5.346   2.593   6.752  0.3980 -0.4242  0.1419
  835MOL0     C15138   6.142   3.424   6.268 -0.0042 -0.6243 -0.5958
  835MOL0     C15139   6.179   3.551   6.225 -0.3434 -0.3797 -0.7330
  835MOL0     O15140   6.162   3.851   6.351  0.4342 -0.2737  0.2708
  835MOL0     C15141   6.423   3.999   6.173 -0.4020  0.0402  0.5348
  835MOL0     C15142   6.455   4.111   6.105  0.3232  0.9977 -0.1606
  835MOL0     N15143   6.714   4.827   5.699 -0.6181 -0.1648 -1.0988
  835MOL0     N15144   6.814   4.814   5.623 -0.8859  0.5298  0.2065
  835MOL0     C15145   7.505   4.594   4.834 -0.2854  0.3294 -0.0150
  835MOL0     C15146   7.628   4.582   4.770  0.0309 -0.0369  0.4791
  835MOL0     C15147   7.968   4.368   4.544 -0.9153 -0.7625  0.0618
  835MOL0     C15148   8.006   4.472   4.469  0.0599 -0.7294  0.3467
  835MOL0     C15149   8.135   4.482   4.419 -0.5960 -0.5534  0.4125
  835MOL0     C15150   8.238   4.391   4.445  0.1325 -0.7049 -0.3651
  835MOL0     O15151   8.364   4.394   4.383 -0.6176 -0.2783 -0.5060
  835MOL0     C15152   8.419   4.518   4.345 -1.1893 -0.6040 -0.2177
  835MOL0     C15153   8.528   4.552   4.446  0.3884  0.8390 -0.5101
  835MOL0     C15154   8.597   4.691   4.426 -0.1605  0.4506  0.5150
  835MOL0     C15155   8.673   4.700   4.284  0.0200  1.0739 -0.5367
  835MOL0     C15156   8.731   4.830   4.281  0.8963  0.5840  0.0645
  835MOL0     C15157   8.783   4.938   4.271 -0.4923 -0.7614 -0.0175
  835MOL0     C15158   8.200   4.281   4.519 -0.3466 -0.0837 -0.1161
  835MOL0     C15159   8.065   4.268   4.573  0.2135  0.3700  0.6035
  835MOL0     C15160   8.047   4.136   4.651 -0.6474 -0.2674 -0.5542
  835MOL0     H15161   7.561   4.333   4.542 -1.5893 -0.8092  0.7789
  835MOL0     H15162   7.343   4.345   4.659  0.5944 -0.3008  0.2445
  835MOL0     H15163   7.276   4.319   4.920 -0.2421 -0.4948  0.3603
  835MOL0     H15164   7.158   4.367   4.812 -0.1484  0.0329 -0.7354
  835MOL0     H15165   7.079   4.538   4.972  1.3750  0.9821  0.6545
  835MOL0     H15166   7.035   4.362   4.996  0.0237 -0.7286 -3.6426
  835MOL0     H15167   7.259   4.364   5.131 -0.7651 -0.9002  3.9386
  835MOL0     H15168   7.249   4.540   5.145  2.9781 -1.9389 -0.7680
  835MOL0     H15169   7.015   4.525   5.245 -1.6520 -1.7350  0.5153
  835MOL0     H15170   7.029   4.352   5.240 -1.5324  0.5383  1.0613
  835MOL0     H15171   7.196   4.526   5.423  0.1835 -0.2502 -0.1631
  835MOL0     H15172   7.233   4.360   5.371 -0.4592 -0.5365 -2.7345
  835MOL0     H15173   7.017   4.299   5.485 -0.6207  0.2658 -0.7691
  835MOL0     H15174   7.109   4.413   5.592 -3.6289 -0.6435  1.9692
  835MOL0     H15175   6.865   4.424   5.576  0.1337 -0.7943 -0.8603
  835MOL0     H15176   6.872   4.505   5.426  2.7882  3.9235 -1.2778
  835MOL0     H15177   7.077   4.632   5.612 -0.4675  0.0589  1.5044
  835MOL0     H15178   6.992   4.708   5.492 -3.3945 -0.4025 -1.2303
  835MOL0     H15179   6.812   4.521   5.793 -0.4994 -1.0629 -2.8808
  835MOL0     H15180   6.540   4.783   5.878  2.6819  3.3932 -0.7908
  835MOL0     H15181   6.668   4.709   5.975  1.5669 -0.9373 -0.8982
  835MOL0     H15182   6.501   4.541   5.786  0.4555  1.2891 -0.4178
  835MOL0     H15183   6.614   4.475   5.885 -0.0088  0.7067  0.4463
  835MOL0     H15184   6.483   4.574   6.075  1.9917 -1.9786 -0.3990
  835MOL0     H15185   6.354   4.643   5.965 -2.1761 -0.5842  0.5058
  835MOL0     H15186   6.259   4.441   6.043 -1.3497 -0.9971 -0.5391
  835MOL0     H15187   6.294   4.436   5.869  1.1007 -1.2346 -0.1619
  835MOL0     H15188   6.153   4.237   6.018  0.6912 -0.3935 -0.6072
  835MOL0     H15189   6.004   4.081   6.242 -3.2221 -1.6934 -0.7533
  835MOL0     H15190   6.020   3.929   6.160  3.1513 -0.4489  2.2378
  835MOL0     H15191   5.985   4.076   6.068  0.0276  0.7863  0.7671
  835MOL0     H15192   6.465   3.571   6.417 -0.4608  0.2433  3.3719
  835MOL0     H15193   6.379   3.358   6.500  0.5149  0.4931 -0.3141
  835MOL0     H15194   5.988   3.204   6.388  0.2144 -0.7682  2.6279
  835MOL0     H15195   6.078   3.109   6.271  2.3855  2.5439 -0.4394
  835MOL0     H15196   6.124   2.950   6.461 -2.9127 -3.0423  2.2329
  835MOL0     H15197   6.089   3.084   6.573 -1.2926  0.3502  1.0141
  835MOL0     H15198   5.890   2.955   6.390 -0.9978  0.3947  0.4510
  835MOL0     H15199   5.845   3.073   6.512 -2.8665 -3.1758  4.4564
  835MOL0     H15200   5.892   2.912   6.684 -2.2621 -0.2876  1.3763
  835MOL0     H15201   5.945   2.787   6.566  0.7660  1.6706  0.8020
  835MOL0     H15202   5.671   2.891   6.606  2.1682  0.7031  0.3544
  835MOL0     H15203   5.723   2.821   6.443 -0.9386  0.3049 -0.0271
  835MOL0     H15204   5.736   2.708   6.726  2.7912  2.6803 -1.2774
  835MOL0     H15205   5.797   2.622   6.582 -0.0680  0.7587 -4.3701
  835MOL0     H15206   5.610   2.516   6.664 -4.3205 -1.7879 -2.3526
  835MOL0     H15207   5.579   2.576   6.502  1.3945  2.8649 -0.0473
  835MOL0     H15208   5.434   2.743   6.579 -1.3137  0.3935  1.2309
  835MOL0     H15209   5.516   2.763   6.732 -0.9149  3.8430 -1.6335
  835MOL0     H15210   6.049   3.387   6.227 -0.4862 -0.6181  0.4496
  835MOL0     H15211   6.123   3.604   6.149  4.4791  0.7222 -3.9750
  835MOL0     H15212   6.488   3.924   6.217 -0.9171 -0.9517 -0.3511
  835MOL0     H15213   6.560   4.141   6.107  0.9723 -1.0574 -0.8124
  835MOL0     H15214   7.489   4.654   4.923 -0.0629 -0.5542  0.6360
  835MOL0     H15215   7.711   4.642   4.809  0.1646 -0.8415  1.4914
  835MOL0     H15216   7.940   4.550   4.433  1.5199  0.0186 -0.8211
  835MOL0     H15217   8.157   4.565   4.353  0.4827 -2.2688 -1.4862
  835MOL0     H15218   8.464   4.520   4.246 -0.1326 -0.6231  0.2514
  835MOL0     H15219   8.348   4.602   4.340  0.2627  0.8812  2.0230
  835MOL0     H15220   8.600   4.469   4.455 -0.5281 -0.2082 -2.1948
  835MOL0     H15221   8.478   4.551   4.543 -3.9649  0.1840 -2.5461
  835MOL0     H15222   8.527   4.772   4.448  1.7085  1.8956  1.4689
  835MOL0     H15223   8.673   4.709   4.504  1.9710 -1.8962 -0.8569
  835MOL0     H15224   8.613   4.680   4.195  3.2686 -0.4395 -2.5584
  835MOL0     H15225   8.750   4.623   4.290  0.9414  1.7577 -2.7366
  835MOL0     H15226   8.823   5.037   4.264 -0.5901 -0.5642  1.6547
  835MOL0     H15227   8.263   4.193   4.521 -0.6966 -0.3264  1.6331
  835MOL0     H15228   8.146   4.108   4.688 -0.9720 -3.6124 -1.8719
  835MOL0     H15229   7.994   4.144   4.746  2.5207 -1.1989  1.4606
  835MOL0     H15230   8.000   4.056   4.593  2.0278 -1.9587 -0.5471
  836MOL0     O15231   9.569   9.078   7.118  0.4374 -0.7469  0.3483
  836MOL0     C15232   9.638   9.178   7.102  0.4208 -0.4287  1.4525
  836MOL0     O15233   9.770   9.187   7.118 -0.4107  0.9631 -0.4760
  836MOL0     C15234   9.836   9.094   7.194 -0.1406  0.1401 -0.3124
  836MOL0     C15235   9.966   9.052   7.166  0.2683 -1.1885  0.3796
  836MOL0     C15236  10.037   8.972   7.256  0.0607  0.6456 -0.9288
  836MOL0     C15237   9.974   8.915   7.366 -0.0915  0.1416  0.3564
  836MOL0     O15238  10.060   8.862   7.458 -0.5924 -0.0288 -0.0107
  836MOL0     C15239  10.025   8.752   7.547 -0.1447 -0.6314  0.0726
  836MOL0     C15240  10.144   8.717   7.650  0.4570 -0.9586 -0.3500
  836MOL0     C15241  10.266   8.684   7.573 -0.0673 -0.5965 -0.5765
  836MOL0     C15242  10.380   8.635   7.657 -0.0865 -0.0273  0.3613
  836MOL0     C15243  10.501   8.614   7.563  0.5415 -0.1233 -1.1019
  836MOL0     C15244  10.637   8.586   7.626  0.4690  0.0089 -1.2649
  836MOL0     C15245  10.740   8.533   7.520  0.4989 -0.0949 -0.3147
  836MOL0     C15246  10.882   8.548   7.567  0.2989  0.1273  0.4866
  836MOL0     N15247  10.911   8.449   7.671 -0.0222 -0.1008 -0.6626
  836MOL0     C15248  10.978   8.471   7.783 -0.0440  0.2567 -0.1656
  836MOL0     C15249  11.030   8.359   7.813 -0.7297  0.1051 -0.5244
  836MOL0     C15250  11.107   8.325   7.947  0.5768  0.1040 -0.5022
  836MOL0     C15251  11.259   8.330   7.927  0.0012  0.2670  0.5762
  836MOL0     C15252  11.348   8.250   8.024 -0.6558 -0.8484 -0.1583
  836MOL0     C15253  11.330   8.299   8.165 -0.7707 -0.9157  0.8632
  836MOL0     O15254  11.396   8.428   8.150  0.0833 -0.0134  0.6906
  836MOL0     C15255  11.378   8.522   8.254 -0.2840 -0.1371  0.2081
  836MOL0     C15256  11.311   8.497   8.374 -0.5696  0.2558 -0.3570
  836MOL0     C15257  11.306   8.601   8.465  0.1085  0.0169  0.3024
  836MOL0     C15258  11.230   8.572   8.595  0.7274 -0.3789  0.4279
  836MOL0     C15259  11.361   8.729   8.439 -0.1672  0.2570  0.6076
  836MOL0     C15260  11.353   8.843   8.531 -0.3560  0.5450 -0.6731
  836MOL0     O15261  11.325   8.965   8.482 -0.4659  0.5738 -0.2837
  836MOL0     C15262  11.348   9.073   8.564  0.3011  0.6835 -0.3461
  836MOL0     C15263  11.238   9.137   8.615  1.0309  0.1837 -0.8002
  836MOL0     C15264  11.251   9.247   8.696 -0.8400  0.3306 -0.4265
  836MOL0     C15265  11.381   9.300   8.736  0.6830  0.0431  0.2177
  836MOL0     O15266  11.406   9.396   8.827 -1.7842 -0.1312 -0.0808
  836MOL0     C15267  11.315   9.452   8.920 -0.1465  0.0861  0.2503
  836MOL0     C15268  11.258   9.584   8.876 -0.7421 -0.3067 -1.3670
  836MOL0     C15269  11.341   9.707   8.920  0.1454 -0.6018 -0.3739
  836MOL0     C15270  11.345   9.734   9.077  0.3251 -0.0332  0.6333
  836MOL0     C15271  11.413   9.866   9.090  0.3143  0.5503  0.0901
  836MOL0     C15272  11.419   9.890   9.242  0.5956 -0.4789 -0.6542
  836MOL0     C15273  11.527   9.991   9.281  0.9779  1.5960  0.2943
  836MOL0     C15274  11.530  10.010   9.430 -0.3171  0.0777 -0.9739
  836MOL0    Cl15275  11.613   9.894   9.536 -0.1594 -0.0293 -0.0587
  836MOL0     C15276  11.488   9.226   8.687 -0.3198 -0.3661  0.3131
  836MOL0     C15277  11.474   9.115   8.606  0.4590  0.0380  0.7330
  836MOL0     O15278  11.390   8.820   8.647 -0.3185  0.1704 -0.4026
  836MOL0     C15279  11.422   8.741   8.311 -0.6745  0.4405  0.0345
  836MOL0     C15280  11.420   8.644   8.213 -0.5425 -0.4382  0.2983
  836MOL0     N15281  10.994   8.261   7.725  0.7928 -0.0970 -0.0527
  836MOL0     N15282  10.930   8.324   7.631  0.6300 -0.3265 -0.0853
  836MOL0     C15283   9.841   8.948   7.392  0.0399 -0.4848  0.5082
  836MOL0     C15284   9.779   9.041   7.310 -0.2466 -0.2209 -0.5591
  836MOL0     C15285   9.563   9.307   7.078  0.2565 -0.0780 -0.7375
  836MOL0     C15286   9.645   9.420   7.051  0.1958  0.0375  0.1027
  836MOL0     C15287   9.600   9.545   7.028  0.3219 -0.6646  0.1365
  836MOL0     C15288   9.464   9.562   7.038 -0.2929 -0.7179  0.0737
  836MOL0     O15289   9.397   9.686   7.010  0.3026  0.2575 -0.3932
  836MOL0     C15290   9.411   9.750   6.876 -0.3154  1.0909 -0.1607
  836MOL0     C15291   9.374   9.657   6.746  0.2706 -0.5921  0.7787
  836MOL0     C15292   9.472   9.684   6.633  0.3843  0.1801  0.5638
  836MOL0     C15293   9.423   9.816   6.562 -0.2486  0.7751  0.8157
  836MOL0     C15294   9.293   9.807   6.501 -0.1479 -0.7460 -0.7608
  836MOL0     C15295   9.191   9.831   6.440  0.4849  1.1011  0.0768
  836MOL0     C15296   9.380   9.456   7.080  0.0611  0.0572 -0.8511
  836MOL0     C15297   9.425   9.329   7.098 -0.0009 -0.8781  0.3780
  836MOL0     C15298   9.318   9.218   7.117 -0.4451  0.2561  0.9831
  836MOL0     H15299  10.022   9.085   7.079  0.1934  0.4165  0.9071
  836MOL0     H15300  10.143   8.965   7.234  0.1593  1.8719 -0.9188
  836MOL0     H15301   9.996   8.657   7.502 -1.3064 -0.7225  0.9509
  836MOL0     H15302   9.931   8.789   7.590 -1.2421 -1.1488 -1.7414
  836MOL0     H15303  10.165   8.801   7.716 -1.2681 -1.0653  0.3760
  836MOL0     H15304  10.128   8.640   7.726  1.2274  1.9420  3.0187
  836MOL0     H15305  10.238   8.610   7.498 -2.5974 -0.6262  0.3188
  836MOL0     H15306  10.299   8.769   7.513 -1.5357 -1.2485 -2.3923
  836MOL0     H15307  10.396   8.714   7.732  4.3726 -0.1903 -0.1264
  836MOL0     H15308  10.363   8.535   7.699  3.5652 -1.8235 -1.9405
  836MOL0     H15309  10.508   8.700   7.497  1.9744 -2.2229 -3.9243
  836MOL0     H15310  10.471   8.534   7.495 -1.5312 -0.3245 -0.0145
  836MOL0     H15311  10.661   8.678   7.681 -3.2710 -0.4916  1.6566
  836MOL0     H15312  10.626   8.506   7.700 -5.5036 -0.3963 -2.0535
  836MOL0     H15313  10.724   8.594   7.431 -0.9707 -0.3798 -0.2796
  836MOL0     H15314  10.728   8.431   7.483  0.5969 -0.8102  1.5217
  836MOL0     H15315  10.958   8.529   7.491  0.1371 -0.5553  0.4921
  836MOL0     H15316  10.893   8.650   7.605  0.5828 -0.2575  1.4928
  836MOL0     H15317  11.001   8.562   7.837  2.7255 -0.6202  0.2690
  836MOL0     H15318  11.068   8.225   7.971  0.9489  0.2931  0.9797
  836MOL0     H15319  11.077   8.393   8.027  0.8632 -1.9991  1.4962
  836MOL0     H15320  11.278   8.293   7.825 -2.0578  0.5938  0.0239
  836MOL0     H15321  11.287   8.435   7.929 -3.6147  1.4761 -1.8930
  836MOL0     H15322  11.312   8.147   8.024 -0.7386 -0.8205 -0.3354
  836MOL0     H15323  11.453   8.258   7.992 -0.6288 -1.5258 -0.2559
  836MOL0     H15324  11.223   8.305   8.186 -0.9683  2.0314 -0.3825
  836MOL0     H15325  11.384   8.243   8.242 -0.5158 -0.5412  0.9632
  836MOL0     H15326  11.269   8.399   8.392 -1.3576 -0.1924 -3.8875
  836MOL0     H15327  11.146   8.502   8.591 -2.4410  3.1311 -0.1258
  836MOL0     H15328  11.185   8.659   8.645 -0.7965 -1.8608  1.7402
  836MOL0     H15329  11.305   8.534   8.665  0.8036 -1.3863 -0.1814
  836MOL0     H15330  11.137   9.099   8.600  0.4361  0.2676  2.2269
  836MOL0     H15331  11.156   9.278   8.740 -1.7266 -0.7943 -1.4602
  836MOL0     H15332  11.234   9.380   8.935  0.3939 -0.9520 -1.4993
  836MOL0     H15333  11.360   9.461   9.019 -3.0345  3.1941  1.4695
  836MOL0     H15334  11.240   9.576   8.769  0.0940 -1.7569 -1.4194
  836MOL0     H15335  11.159   9.587   8.923  0.0163  3.2468  0.4000
  836MOL0     H15336  11.304   9.794   8.865  3.3486 -0.5709 -2.7014
  836MOL0     H15337  11.440   9.690   8.879  0.1671 -2.1269  0.2385
  836MOL0     H15338  11.403   9.651   9.119 -1.0834 -1.8023 -0.7480
  836MOL0     H15339  11.242   9.738   9.111  0.4185 -1.0132  1.0579
  836MOL0     H15340  11.516   9.853   9.055  0.8532  0.5097  1.5982
  836MOL0     H15341  11.364   9.951   9.042 -1.8883 -0.4762  0.3770
  836MOL0     H15342  11.451   9.797   9.292  2.1489  0.1681 -0.3804
  836MOL0     H15343  11.324   9.924   9.285  1.8388  1.0703  1.0405
  836MOL0     H15344  11.494  10.085   9.236 -1.6599 -0.1300 -1.6537
  836MOL0     H15345  11.620   9.958   9.236 -1.0060 -0.9497 -2.2696
  836MOL0     H15346  11.434  10.034   9.475  0.4691  2.4464 -0.3710
  836MOL0     H15347  11.593  10.100   9.429 -1.9198  1.2759  0.2961
  836MOL0     H15348  11.587   9.269   8.703 -1.1527  1.4582  0.8310
  836MOL0     H15349  11.559   9.059   8.568  1.6172  3.0383 -1.4165
  836MOL0     H15350  11.470   8.834   8.282 -1.8602  1.6240  1.7088
  836MOL0     H15351  11.471   8.662   8.119  0.8239  2.4616  1.4794
  836MOL0     H15352   9.788   8.912   7.480 -0.7244 -0.7663 -0.0548
  836MOL0     H15353   9.682   9.077   7.343  0.4368  2.3469 -1.1490
  836MOL0     H15354   9.752   9.406   7.058  0.0049 -0.7852  4.1285
  836MOL0     H15355   9.655   9.637   7.013 -2.8292  1.5351  1.0809
  836MOL0     H15356   9.350   9.842   6.875 -1.4108  0.4353  1.5640
  836MOL0     H15357   9.517   9.774   6.866 -0.0858  1.2591  2.1155
  836MOL0     H15358   9.268   9.664   6.720 -0.1558 -1.9849  1.9614
  836MOL0     H15359   9.381   9.550   6.770  3.7924 -0.4552  0.8838
  836MOL0     H15360   9.576   9.689   6.669 -0.2720 -3.9910  3.8010
  836MOL0     H15361   9.466   9.601   6.562  0.7168  1.2039 -0.7061
  836MOL0     H15362   9.480   9.828   6.470 -2.3613  0.1000 -0.6639
  836MOL0     H15363   9.438   9.900   6.631 -2.1882 -0.6645  3.1906
  836MOL0     H15364   9.110   9.841   6.372 -1.2226 -1.5808  1.5231
  836MOL0     H15365   9.279   9.495   7.088  0.1733  0.4086 -1.1312
  836MOL0     H15366   9.216   9.256   7.103  0.3831  2.2800  0.0177
  836MOL0     H15367   9.339   9.149   7.035  0.4181  1.7083 -0.0695
  836MOL0     H15368   9.345   9.177   7.215  1.6832  0.2637  0.4418
  837MOL0     O15369   9.595   0.088   4.455  0.6425  0.2288  0.4995
  837MOL0     C15370   9.506   0.171   4.443  1.4047 -0.0596 -0.0186
  837MOL0     O15371   9.487   0.288   4.503 -1.0080  0.1396  0.8480
  837MOL0     C15372   9.570   0.307   4.610  0.3605 -0.1140 -0.4182
  837MOL0     C15373   9.711   0.317   4.610 -0.0494 -1.2075 -0.5242
  837MOL0     C15374   9.786   0.320   4.728 -0.1529 -0.3199  0.2152
  837MOL0     C15375   9.720   0.311   4.851  0.2041  0.3847 -0.5612
  837MOL0     O15376   9.806   0.328   4.959  0.0640  0.2608 -0.4813
  837MOL0     C15377   9.798   0.270   5.095  0.5170  0.3288  0.2244
  837MOL0     C15378   9.906   0.348   5.187  0.6957  0.7276  0.5133
  837MOL0     C15379   9.853   0.354   5.324  0.4505 -0.8250 -0.2403
  837MOL0     C15380   9.847   0.221   5.385 -0.2397  0.2546 -0.6060
  837MOL0     C15381   9.830   0.227   5.534 -0.1679 -0.2669  0.1865
  837MOL0     C15382   9.836   0.085   5.614  1.1022 -0.2286 -0.0773
  837MOL0     C15383   9.803   0.103   5.758 -1.1189 -0.2233 -0.3526
  837MOL0     C15384   9.647   0.093   5.780 -0.6655 -1.1917 -0.0305
  837MOL0     N15385   9.587  -0.041   5.778  0.1632 -0.3245  0.0716
  837MOL0     C15386   9.587  -0.128   5.883  0.6814  0.1461  0.0306
  837MOL0     C15387   9.507  -0.226   5.843  0.1978 -0.4583 -0.0988
  837MOL0     C15388   9.467  -0.339   5.932 -0.3098 -0.4513 -0.4529
  837MOL0     C15389   9.333  -0.389   5.896 -0.1454  1.3108  0.1053
  837MOL0     C15390   9.268  -0.503   5.988  0.7258  0.2729 -0.1263
  837MOL0     C15391   9.358  -0.620   6.029 -0.0753 -0.0491  0.2400
  837MOL0     O15392   9.413  -0.682   5.910 -0.8459  0.3477  1.0613
  837MOL0     C15393   9.538  -0.750   5.922 -0.1408  0.7753 -1.1210
  837MOL0     C15394   9.587  -0.812   6.032 -0.5611 -0.6154 -0.4441
  837MOL0     C15395   9.712  -0.868   6.034  0.6719  1.1295  0.5653
  837MOL0     C15396   9.751  -0.948   6.166 -0.0808 -0.0318  1.0210
  837MOL0     C15397   9.788  -0.862   5.912 -0.2809  0.2226 -0.6927
  837MOL0     C15398   9.912  -0.924   5.889  0.8898  0.2723 -0.1854
  837MOL0     O15399   9.912  -1.053   5.849 -0.0157  0.0572  0.0593
  837MOL0     C15400  10.030  -1.127   5.830 -0.2567  0.2654 -0.5453
  837MOL0     C15401  10.006  -1.263   5.831 -0.1281 -0.1176 -0.1405
  837MOL0     C15402  10.108  -1.354   5.810  0.2641 -0.2978  0.2475
  837MOL0     C15403  10.239  -1.307   5.784  0.0324  0.2342 -0.4642
  837MOL0     O15404  10.332  -1.397   5.747 -0.1845 -0.1878  0.3100
  837MOL0     C15405  10.435  -1.350   5.652 -0.0711  0.0034  0.5531
  837MOL0     C15406  10.513  -1.470   5.603 -0.1366 -0.1344  0.4949
  837MOL0     C15407  10.608  -1.418   5.504 -0.8029  0.1359 -0.1055
  837MOL0     C15408  10.695  -1.544   5.459  0.1307 -0.3089 -0.6172
  837MOL0     C15409  10.827  -1.512   5.395 -0.4234  0.3875  0.0930
  837MOL0     C15410  10.882  -1.634   5.331 -0.2538  0.6972  0.6261
  837MOL0     C15411  11.021  -1.599   5.298 -0.1460  0.1052 -0.3553
  837MOL0     C15412  11.087  -1.733   5.250  0.0102  0.4806  0.4483
  837MOL0    Cl15413  11.248  -1.681   5.205 -0.3039 -0.1635 -0.1443
  837MOL0     C15414  10.274  -1.167   5.795 -0.7747  0.7789  0.9096
  837MOL0     C15415  10.166  -1.081   5.812 -0.3755  0.3104 -0.3673
  837MOL0     O15416  10.011  -0.857   5.922 -0.5274 -0.5017 -0.9023
  837MOL0     C15417   9.732  -0.819   5.792  0.7351 -0.3422 -0.8177
  837MOL0     C15418   9.608  -0.762   5.803 -0.4865 -0.5432 -0.0282
  837MOL0     N15419   9.469  -0.212   5.711 -0.4025 -0.5915  0.2007
  837MOL0     N15420   9.524  -0.096   5.674  0.5166 -0.3864  0.0908
  837MOL0     C15421   9.581   0.299   4.859  1.2914 -0.1629  0.0160
  837MOL0     C15422   9.506   0.291   4.740  1.0091 -0.1000  0.5716
  837MOL0     C15423   9.394   0.158   4.343 -0.8212 -0.3770  0.5543
  837MOL0     C15424   9.420   0.086   4.232  0.5715  0.2486 -0.1904
  837MOL0     C15425   9.324   0.046   4.137  1.3603 -0.6973 -0.1237
  837MOL0     C15426   9.196   0.108   4.146  0.0856 -0.2139  0.0327
  837MOL0     O15427   9.099   0.099   4.050  0.4038 -0.4827  0.9538
  837MOL0     C15428   8.988   0.011   4.080 -0.1295 -0.5313  0.3973
  837MOL0     C15429   8.890  -0.004   3.964 -0.2382 -0.8348 -0.3328
  837MOL0     C15430   8.758  -0.053   4.006  0.4489  0.4496  0.2916
  837MOL0     C15431   8.659  -0.026   3.896  0.1138  0.5592  0.0264
  837MOL0     C15432   8.534  -0.098   3.936 -0.2331 -0.5612 -0.7686
  837MOL0     C15433   8.445  -0.161   3.978 -0.2763  0.5111  0.1590
  837MOL0     C15434   9.175   0.195   4.253 -0.4163 -0.2265 -0.1258
  837MOL0     C15435   9.269   0.221   4.354  0.1521  0.2860  0.4440
  837MOL0     C15436   9.219   0.300   4.475  0.0392 -0.9466 -0.7193
  837MOL0     H15437   9.760   0.319   4.513 -2.3310 -2.0415 -1.7625
  837MOL0     H15438   9.892   0.340   4.731  0.0603 -0.9713 -1.5523
  837MOL0     H15439   9.836   0.168   5.095  0.0607  0.0978 -2.1246
  837MOL0     H15440   9.696   0.274   5.135  0.0480  0.3751 -0.9526
  837MOL0     H15441   9.999   0.292   5.173 -0.5288 -1.4569  0.5416
  837MOL0     H15442   9.920   0.451   5.152 -2.7559  2.0242  2.4612
  837MOL0     H15443   9.930   0.408   5.378  0.2907 -0.1004 -0.7145
  837MOL0     H15444   9.756   0.404   5.335  0.6509 -1.0298  3.4466
  837MOL0     H15445   9.780   0.146   5.343  1.8730 -2.1185 -0.0087
  837MOL0     H15446   9.948   0.179   5.383 -0.3835 -0.5458  2.7085
  837MOL0     H15447   9.740   0.284   5.558 -2.1781 -2.6890 -1.1999
  837MOL0     H15448   9.919   0.280   5.571  0.0116  0.0357 -0.6444
  837MOL0     H15449   9.768   0.012   5.569 -0.3860  0.6979  0.6225
  837MOL0     H15450   9.939   0.049   5.616  0.7590 -1.1951  1.0602
  837MOL0     H15451   9.853   0.193   5.796  0.9787 -2.1252  1.8357
  837MOL0     H15452   9.855   0.021   5.809 -0.9133 -0.6400 -1.2110
  837MOL0     H15453   9.618   0.129   5.879 -1.5445 -3.5759  0.6650
  837MOL0     H15454   9.592   0.152   5.705 -1.6526 -0.4883  1.2093
  837MOL0     H15455   9.636  -0.103   5.976  1.7172  0.4985 -0.5924
  837MOL0     H15456   9.466  -0.303   6.036 -0.0010  1.2501 -0.9983
  837MOL0     H15457   9.544  -0.416   5.917  0.0533 -0.6851  2.1020
  837MOL0     H15458   9.262  -0.309   5.919 -0.2042  1.2586  0.1083
  837MOL0     H15459   9.330  -0.422   5.791 -0.9345  2.4958 -0.2604
  837MOL0     H15460   9.227  -0.457   6.078 -1.9761  3.7452 -2.7864
  837MOL0     H15461   9.179  -0.543   5.938  0.2671 -1.4140  1.9069
  837MOL0     H15462   9.438  -0.594   6.099 -1.0831 -2.2072  2.3391
  837MOL0     H15463   9.299  -0.699   6.077 -0.4831 -0.6261 -1.1623
  837MOL0     H15464   9.528  -0.830   6.121 -1.4565 -0.2557 -0.9551
  837MOL0     H15465   9.689  -1.038   6.177  0.5305 -0.2289  3.5860
  837MOL0     H15466   9.737  -0.890   6.258  2.5568 -1.7285  2.6249
  837MOL0     H15467   9.853  -0.987   6.159  0.7938  2.3147 -0.0600
  837MOL0     H15468   9.904  -1.301   5.839  0.1506 -1.1309 -1.0988
  837MOL0     H15469  10.092  -1.461   5.803 -1.4924  0.0423 -1.9887
  837MOL0     H15470  10.401  -1.302   5.560  0.4110 -1.7413 -0.5903
  837MOL0     H15471  10.510  -1.282   5.692  2.8684 -2.6488 -0.0639
  837MOL0     H15472  10.562  -1.517   5.689  1.0106  0.5315  0.2313
  837MOL0     H15473  10.448  -1.545   5.557 -0.8816 -0.4362  1.9832
  837MOL0     H15474  10.669  -1.343   5.556 -2.2351 -0.0151  1.8954
  837MOL0     H15475  10.558  -1.377   5.416  1.1968  2.5677 -0.2411
  837MOL0     H15476  10.621  -1.587   5.390 -1.5360  0.3970  0.6558
  837MOL0     H15477  10.705  -1.618   5.539 -1.4419 -2.1635 -2.0004
  837MOL0     H15478  10.817  -1.430   5.324  2.8331 -1.0923 -2.3989
  837MOL0     H15479  10.888  -1.477   5.479  0.4606 -2.4639  0.7510
  837MOL0     H15480  10.833  -1.654   5.235  0.5899  0.7700  0.1763
  837MOL0     H15481  10.870  -1.720   5.398 -2.1672 -0.5984 -1.2191
  837MOL0     H15482  11.091  -1.567   5.375  1.3677  1.4564 -2.2100
  837MOL0     H15483  11.021  -1.529   5.214  1.5258 -0.5795 -0.9616
  837MOL0     H15484  11.023  -1.773   5.171 -0.5255  1.0906  0.5633
  837MOL0     H15485  11.086  -1.808   5.331  4.1845 -3.0654 -2.3488
  837MOL0     H15486  10.369  -1.116   5.781 -1.6285  1.6777 -2.6545
  837MOL0     H15487  10.209  -0.981   5.817  2.5604 -0.8923  2.1703
  837MOL0     H15488   9.771  -0.833   5.691 -1.8060 -3.8127 -1.4956
  837MOL0     H15489   9.571  -0.708   5.717  0.1881 -0.2759 -0.1545
  837MOL0     H15490   9.522   0.296   4.950  0.9669 -2.1066 -0.2128
  837MOL0     H15491   9.398   0.296   4.735  1.1115  3.4016 -1.5183
  837MOL0     H15492   9.526   0.061   4.227  0.7832  0.9438  0.6170
  837MOL0     H15493   9.360  -0.017   4.056 -2.5606 -1.7166 -1.2542
  837MOL0     H15494   9.022  -0.092   4.095 -2.5709 -1.4721 -0.0325
  837MOL0     H15495   8.941   0.043   4.174  0.2750  1.8885 -0.1669
  837MOL0     H15496   8.916  -0.074   3.884 -3.5134  0.0052 -2.3319
  837MOL0     H15497   8.887   0.092   3.913 -0.4769 -1.1762 -0.9794
  837MOL0     H15498   8.759  -0.162   4.013  0.7516  0.3569 -1.0083
  837MOL0     H15499   8.723   0.003   4.093  2.2487  1.2253  0.5652
  837MOL0     H15500   8.708  -0.059   3.804  0.2267  1.8739 -0.4081
  837MOL0     H15501   8.636   0.079   3.879 -0.7793  0.4924  0.7236
  837MOL0     H15502   8.366  -0.224   4.014  0.5313 -0.6136 -0.0092
  837MOL0     H15503   9.080   0.246   4.244  0.6451  1.6593 -1.0596
  837MOL0     H15504   9.115   0.333   4.466  0.1177 -0.7982 -1.0765
  837MOL0     H15505   9.233   0.258   4.575  2.1120 -1.0394 -1.0180
  837MOL0     H15506   9.272   0.395   4.479 -1.5673  0.0074 -0.9631
  838MOL0     O15507   7.524   4.327   9.506 -0.0887  0.0429 -0.5937
  838MOL0     C15508   7.513   4.220   9.450 -0.0913 -0.0658 -0.4192
  838MOL0     O15509   7.492   4.205   9.317 -0.4656 -0.5220 -0.0452
  838MOL0     C15510   7.502   4.309   9.235  0.2658 -0.5428 -0.9869
  838MOL0     C15511   7.588   4.419   9.240 -0.2102  0.9781  0.3316
  838MOL0     C15512   7.601   4.520   9.140 -0.1452 -0.3716  0.4685
  838MOL0     C15513   7.522   4.517   9.017  0.0904  0.7418 -1.6599
  838MOL0     O15514   7.523   4.628   8.941  0.0485  0.3663  0.3221
  838MOL0     C15515   7.435   4.644   8.824  0.3568 -0.3460  0.0342
  838MOL0     C15516   7.501   4.755   8.749 -0.2139  0.0427 -0.3735
  838MOL0     C15517   7.434   4.796   8.622 -0.7968  0.6141  0.5496
  838MOL0     C15518   7.508   4.921   8.574  0.8025  0.0627 -0.8205
  838MOL0     C15519   7.446   4.975   8.428 -0.2767 -0.0154 -0.5791
  838MOL0     C15520   7.535   5.100   8.382 -0.9395  0.1311 -0.8572
  838MOL0     C15521   7.468   5.218   8.320  0.1978  0.0087 -1.1494
  838MOL0     C15522   7.572   5.325   8.295  0.0381  0.6140 -0.0227
  838MOL0     N15523   7.516   5.421   8.204  0.2273  0.0665 -0.1195
  838MOL0     C15524   7.432   5.521   8.246 -0.5322  0.3126 -0.6708
  838MOL0     C15525   7.394   5.587   8.144 -0.5172  1.2033  0.3479
  838MOL0     C15526   7.298   5.704   8.148  0.8101 -1.0062  0.4329
  838MOL0     C15527   7.161   5.673   8.221 -0.0379  0.1541 -0.4893
  838MOL0     C15528   7.036   5.722   8.149  0.2968 -0.5271 -1.2340
  838MOL0     C15529   7.025   5.872   8.156 -0.4628  0.6508  0.6296
  838MOL0     O15530   6.994   5.927   8.281  0.0690  0.0352  0.2433
  838MOL0     C15531   6.880   5.882   8.347  0.5294 -0.7015 -0.6646
  838MOL0     C15532   6.880   5.863   8.482 -0.3443 -0.0809  0.2141
  838MOL0     C15533   6.766   5.814   8.555  0.1744 -0.0565  1.0886
  838MOL0     C15534   6.782   5.789   8.705  0.1912  0.0364 -0.0215
  838MOL0     C15535   6.643   5.795   8.491 -0.0798 -0.3713 -0.1897
  838MOL0     C15536   6.531   5.756   8.580 -0.1330  0.7424 -0.9091
  838MOL0     O15537   6.475   5.638   8.541  0.3393  0.1424 -0.3327
  838MOL0     C15538   6.382   5.582   8.627 -0.8758 -0.7741 -0.1917
  838MOL0     C15539   6.425   5.505   8.731 -0.3638 -0.3368 -0.3991
  838MOL0     C15540   6.330   5.458   8.820  0.0733  0.3348  0.3031
  838MOL0     C15541   6.192   5.486   8.806 -0.6660  0.3092  0.0192
  838MOL0     O15542   6.112   5.440   8.902 -0.4771 -0.1436  0.0125
  838MOL0     C15543   6.049   5.313   8.878  0.0566 -0.6087 -0.3298
  838MOL0     C15544   5.926   5.312   8.977  0.3090  0.4799  0.4085
  838MOL0     C15545   5.856   5.185   9.010 -0.2405 -0.6766  0.1170
  838MOL0     C15546   5.729   5.202   9.093 -0.2512  0.4767 -0.7628
  838MOL0     C15547   5.677   5.055   9.124 -0.0264 -1.0129  0.9613
  838MOL0     C15548   5.590   5.039   9.253  0.0176 -0.5257 -0.1564
  838MOL0     C15549   5.512   4.907   9.262  0.1516 -0.0545  0.0113
  838MOL0     C15550   5.401   4.901   9.367 -0.0520 -0.5589  0.5777
  838MOL0    Cl15551   5.472   4.924   9.519  0.5144  0.1219 -0.3008
  838MOL0     C15552   6.144   5.561   8.696 -0.4997  0.6552 -0.2634
  838MOL0     C15553   6.244   5.604   8.601  0.3645  0.4858 -0.1057
  838MOL0     O15554   6.493   5.821   8.679  0.1825 -0.5218  0.6108
  838MOL0     C15555   6.641   5.795   8.350  0.2115 -1.1558  0.5531
  838MOL0     C15556   6.751   5.852   8.282 -0.2669  0.3675  0.6430
  838MOL0     N15557   7.456   5.529   8.037 -0.7042 -0.0515  0.7394
  838MOL0     N15558   7.528   5.423   8.070  0.3769  0.1321 -0.2230
  838MOL0     C15559   7.434   4.407   9.018 -0.2174 -0.6824 -0.1156
  838MOL0     C15560   7.425   4.303   9.116  1.3368 -0.1504  0.1195
  838MOL0     C15561   7.518   4.093   9.529 -0.6204 -0.2891 -0.0236
  838MOL0     C15562   7.491   3.973   9.450 -0.5983 -0.5232 -0.2131
  838MOL0     C15563   7.501   3.846   9.515  0.4730  0.1264 -0.5669
  838MOL0     C15564   7.557   3.839   9.649 -0.1752 -0.6422 -0.4211
  838MOL0     O15565   7.576   3.719   9.721 -0.2403 -0.3326  0.1983
  838MOL0     C15566   7.482   3.676   9.817 -0.1244  0.2764 -0.0077
  838MOL0     C15567   7.348   3.616   9.764 -0.1333 -0.7614 -0.3112
  838MOL0     C15568   7.260   3.568   9.889  0.7071 -0.3723 -0.1782
  838MOL0     C15569   7.183   3.674   9.963 -1.0605 -0.3387 -0.4793
  838MOL0     C15570   7.068   3.721   9.890 -0.9125 -0.5793  0.7732
  838MOL0     C15571   6.953   3.739   9.848  0.6796  0.6444 -0.0851
  838MOL0     C15572   7.597   3.959   9.713  0.1351 -0.2011 -1.0652
  838MOL0     C15573   7.584   4.085   9.655  0.3798 -0.0245 -0.1179
  838MOL0     C15574   7.605   4.200   9.758 -0.4397 -0.2429 -0.9259
  838MOL0     H15575   7.657   4.433   9.323 -1.4954  0.3577  1.5506
  838MOL0     H15576   7.669   4.605   9.149  0.2910 -0.7778  1.0780
  838MOL0     H15577   7.334   4.669   8.857  0.6159 -0.4605  0.9538
  838MOL0     H15578   7.419   4.552   8.767 -1.6306  0.2239 -0.3834
  838MOL0     H15579   7.516   4.833   8.824 -1.5171  2.6052 -2.6138
  838MOL0     H15580   7.604   4.728   8.723 -0.4532  0.8038 -2.3327
  838MOL0     H15581   7.447   4.719   8.545  2.9614  1.5119  0.1387
  838MOL0     H15582   7.325   4.806   8.633 -0.7815  1.2054  0.2260
  838MOL0     H15583   7.500   5.000   8.649  0.1365 -0.3426 -0.4602
  838MOL0     H15584   7.613   4.895   8.555  0.4402 -0.5086 -2.1663
  838MOL0     H15585   7.346   5.017   8.424 -0.0574  0.4166 -1.7795
  838MOL0     H15586   7.449   4.907   8.342  1.3276  0.7880 -1.1992
  838MOL0     H15587   7.589   5.138   8.469  2.5976 -0.2625 -2.6912
  838MOL0     H15588   7.615   5.068   8.315  2.0209 -2.2983  3.4157
  838MOL0     H15589   7.398   5.257   8.396  1.5184 -0.6450  0.4495
  838MOL0     H15590   7.424   5.174   8.230 -0.1800 -2.4381  0.1492
  838MOL0     H15591   7.609   5.372   8.387  1.9846 -1.2776  0.2491
  838MOL0     H15592   7.663   5.283   8.251  0.7247  0.5803  1.3540
  838MOL0     H15593   7.398   5.534   8.348 -0.5589  0.1052 -0.6530
  838MOL0     H15594   7.270   5.742   8.050  0.5115  1.2165  1.3124
  838MOL0     H15595   7.343   5.792   8.196 -0.1983  1.2991 -2.5453
  838MOL0     H15596   7.148   5.564   8.222 -2.2799  0.3430  2.3064
  838MOL0     H15597   7.157   5.707   8.325 -2.0184  2.7485 -1.2905
  838MOL0     H15598   7.024   5.692   8.044  2.3375  4.6890 -3.2806
  838MOL0     H15599   6.949   5.683   8.203 -0.5892  1.6151 -1.0488
  838MOL0     H15600   7.113   5.921   8.114 -0.0028 -1.8170 -1.5286
  838MOL0     H15601   6.948   5.888   8.080 -1.3600 -2.2116  0.7973
  838MOL0     H15602   6.972   5.882   8.536 -0.6482 -2.8259  1.9055
  838MOL0     H15603   6.887   5.800   8.734  0.9526  0.5177 -2.7086
  838MOL0     H15604   6.753   5.686   8.732  0.6081  0.7597  3.7591
  838MOL0     H15605   6.713   5.861   8.750  0.3413  2.1468 -2.9202
  838MOL0     H15606   6.527   5.470   8.737  0.1471  0.9835 -0.9752
  838MOL0     H15607   6.369   5.397   8.901  1.7480 -1.1740 -1.5177
  838MOL0     H15608   6.017   5.317   8.773  0.7238 -0.3068 -0.5331
  838MOL0     H15609   6.118   5.230   8.891 -0.2760 -0.6883  1.0590
  838MOL0     H15610   5.969   5.338   9.074  0.3385  1.7090  0.0754
  838MOL0     H15611   5.854   5.390   8.948 -0.0554  0.0526  0.1324
  838MOL0     H15612   5.937   5.126   9.054  0.1195 -0.7610 -0.6428
  838MOL0     H15613   5.822   5.139   8.916 -5.3435  2.2966  0.1224
  838MOL0     H15614   5.651   5.251   9.034 -2.6988 -1.7163  0.4797
  838MOL0     H15615   5.749   5.272   9.174 -0.4494  0.1050 -0.3939
  838MOL0     H15616   5.627   5.024   9.032 -0.2890  1.0601  0.3461
  838MOL0     H15617   5.756   4.980   9.128  0.0924 -1.1791 -2.1312
  838MOL0     H15618   5.530   5.128   9.277 -0.6095 -1.0838  0.3748
  838MOL0     H15619   5.672   5.027   9.325  1.1346  0.6860 -1.1734
  838MOL0     H15620   5.582   4.826   9.281  1.7038  1.7759  2.7709
  838MOL0     H15621   5.479   4.896   9.158  2.9735  1.4952 -1.1567
  838MOL0     H15622   5.348   4.808   9.344 -0.1497 -0.5187  0.6384
  838MOL0     H15623   5.334   4.987   9.363 -0.8489 -1.0325  2.4631
  838MOL0     H15624   6.038   5.582   8.705 -0.8597 -0.8973 -0.5999
  838MOL0     H15625   6.205   5.668   8.522  0.5021  1.5321  0.6593
  838MOL0     H15626   6.546   5.785   8.299  0.3793 -1.4769  0.2958
  838MOL0     H15627   6.747   5.868   8.175  0.6447  1.0773  0.6965
  838MOL0     H15628   7.367   4.383   8.937  1.2256 -2.0150 -0.9804
  838MOL0     H15629   7.353   4.221   9.118  0.3039  0.7234 -0.1862
  838MOL0     H15630   7.448   3.979   9.351 -0.8732  1.2062 -0.0213
  838MOL0     H15631   7.469   3.757   9.463 -2.9175  0.8073  0.0989
  838MOL0     H15632   7.521   3.604   9.889  2.9628  0.8855 -0.9126
  838MOL0     H15633   7.451   3.760   9.880 -1.9948 -0.9413  0.7592
  838MOL0     H15634   7.375   3.526   9.708  5.5024 -0.0652  0.6780
  838MOL0     H15635   7.302   3.700   9.711 -2.5659  0.6931  3.7352
  838MOL0     H15636   7.188   3.497   9.846 -0.4631  1.8208 -2.0452
  838MOL0     H15637   7.323   3.517   9.963 -0.8581 -1.5480  0.3893
  838MOL0     H15638   7.245   3.760   9.992  1.4148 -2.1964  0.1049
  838MOL0     H15639   7.150   3.633  10.059 -0.9166 -0.0523 -0.3076
  838MOL0     H15640   6.852   3.740   9.813 -0.2990 -1.6163  2.2783
  838MOL0     H15641   7.613   3.962   9.820 -1.0501  0.5710 -0.8820
  838MOL0     H15642   7.514   4.231   9.810  1.0249  1.4973  0.7743
  838MOL0     H15643   7.660   4.167   9.847  2.1510  0.8533 -2.0045
  838MOL0     H15644   7.656   4.289   9.720 -0.7682  1.0108  1.4205
  839MOL0     O15645   6.778   1.953   9.146  1.0902 -0.1496 -0.2042
  839MOL0     C15646   6.687   1.973   9.231 -0.4906 -0.5465  1.1689
  839MOL0     O15647   6.590   1.898   9.240  0.6316  0.1123 -0.4360
  839MOL0     C15648   6.578   1.780   9.168 -0.7647 -0.2332 -0.8079
  839MOL0     C15649   6.578   1.663   9.241 -0.1541 -0.0235  0.4222
  839MOL0     C15650   6.569   1.544   9.163 -0.3735  0.1881 -0.3575
  839MOL0     C15651   6.547   1.552   9.028  0.3151  1.1640 -0.4695
  839MOL0     O15652   6.529   1.443   8.951  0.0903 -1.1353  0.2515
  839MOL0     C15653   6.405   1.379   8.979 -0.5309  0.5232  0.9181
  839MOL0     C15654   6.382   1.276   8.875 -0.5445 -0.8673  0.3904
  839MOL0     C15655   6.278   1.176   8.923  0.3736 -0.3248 -0.7451
  839MOL0     C15656   6.344   1.064   9.016  0.7608  0.1604  0.1158
  839MOL0     C15657   6.233   0.994   9.097 -0.6357  0.2938 -0.3470
  839MOL0     C15658   6.286   0.882   9.192  0.2593 -0.7998 -0.8263
  839MOL0     C15659   6.384   0.948   9.300 -0.7340 -0.0009 -0.5821
  839MOL0     C15660   6.314   1.052   9.391 -0.0615 -0.2920 -0.6609
  839MOL0     N15661   6.212   0.986   9.471  0.2218  0.8871 -0.6513
  839MOL0     C15662   6.250   0.920   9.593  0.3716 -0.2919  0.4114
  839MOL0     C15663   6.131   0.879   9.646  0.2986  0.4423  0.1964
  839MOL0     C15664   6.105   0.777   9.757 -0.4185  0.7722  0.6221
  839MOL0     C15665   6.082   0.844   9.889 -0.3071  1.0063  0.6204
  839MOL0     C15666   6.092   0.746  10.007 -0.2463  0.4071  0.2037
  839MOL0     C15667   5.979   0.636  10.028  0.6316 -0.3329 -0.3505
  839MOL0     O15668   6.025   0.516  10.095 -0.0640 -0.5713 -0.2072
  839MOL0     C15669   6.108   0.542  10.200 -0.1135  0.7554 -0.4110
  839MOL0     C15670   6.247   0.524  10.184  0.0218  0.2610  0.0868
  839MOL0     C15671   6.340   0.555  10.289 -0.1205 -1.3376  0.2410
  839MOL0     C15672   6.479   0.531  10.250 -0.4050 -0.4187 -0.4704
  839MOL0     C15673   6.288   0.611  10.413 -0.3951  0.9822 -0.7396
  839MOL0     C15674   6.377   0.656  10.525  0.2629 -0.2615 -0.1302
  839MOL0     O15675   6.305   0.717  10.618  0.4326 -0.5338  0.0319
  839MOL0     C15676   6.367   0.746  10.741 -0.6447 -0.5739  0.5309
  839MOL0     C15677   6.364   0.877  10.788 -0.1976 -0.5842  0.7666
  839MOL0     C15678   6.436   0.917  10.898  0.1202 -0.2114  0.4922
  839MOL0     C15679   6.503   0.817  10.973  0.5553 -1.5990 -0.3211
  839MOL0     O15680   6.567   0.839  11.095 -0.2197 -0.2338 -0.1867
  839MOL0     C15681   6.610   0.969  11.122 -0.8858 -0.0384 -1.0216
  839MOL0     C15682   6.664   0.982  11.268  0.4281 -0.9230  0.7660
  839MOL0     C15683   6.799   0.918  11.276  0.6344  0.3532 -0.2387
  839MOL0     C15684   6.908   0.988  11.189  0.1667  0.2012  0.0424
  839MOL0     C15685   7.043   0.905  11.193  0.0057  0.0651 -0.7346
  839MOL0     C15686   7.160   0.995  11.167 -0.7869 -0.4118  0.6598
  839MOL0     C15687   7.291   0.927  11.132  0.4479 -1.3364  0.2799
  839MOL0     C15688   7.292   0.860  10.997  0.4146 -0.2512  1.0757
  839MOL0    Cl15689   7.318   0.989  10.871 -0.1575  0.1594 -0.0119
  839MOL0     C15690   6.504   0.690  10.927  0.5721  0.2769 -0.8856
  839MOL0     C15691   6.427   0.650  10.817 -1.3273 -0.6745  1.0146
  839MOL0     O15692   6.496   0.639  10.534 -0.1054  0.6520  0.1856
  839MOL0     C15693   6.147   0.616  10.427  0.2493 -1.3524 -1.3662
  839MOL0     C15694   6.060   0.585  10.324 -1.0146 -0.1993 -0.1080
  839MOL0     N15695   6.026   0.925   9.562 -0.6870 -0.0381  0.2514
  839MOL0     N15696   6.068   0.990   9.465 -0.0740 -0.0435  0.5279
  839MOL0     C15697   6.541   1.668   8.959  0.0885 -0.1081  0.2714
  839MOL0     C15698   6.557   1.784   9.027 -0.8898  0.9932  0.1980
  839MOL0     C15699   6.701   2.083   9.329  0.0540  1.3474 -0.1410
  839MOL0     C15700   6.826   2.102   9.387 -0.3378  0.5507 -0.0450
  839MOL0     C15701   6.845   2.208   9.469  0.7164 -0.1749 -0.3174
  839MOL0     C15702   6.737   2.285   9.511  0.5247 -0.7827  0.1023
  839MOL0     O15703   6.780   2.393   9.588 -0.4737  0.2015  0.6734
  839MOL0     C15704   6.686   2.490   9.620 -0.2146 -0.3815  0.3533
  839MOL0     C15705   6.607   2.462   9.744  0.7318 -0.3892  0.2242
  839MOL0     C15706   6.490   2.568   9.766 -0.7635  0.0713 -0.8031
  839MOL0     C15707   6.454   2.559   9.919 -1.0943 -0.2037  0.0931
  839MOL0     C15708   6.557   2.598  10.013  0.0874  0.1120  0.1752
  839MOL0     C15709   6.636   2.634  10.104  0.1890 -0.8173  0.6496
  839MOL0     C15710   6.609   2.257   9.460  0.2858 -0.2162  0.2948
  839MOL0     C15711   6.587   2.160   9.366  1.1989  0.3156 -0.5818
  839MOL0     C15712   6.457   2.156   9.292 -0.0681  0.6696  0.0418
  839MOL0     H15713   6.585   1.683   9.347  1.2696 -1.0522  0.5501
  839MOL0     H15714   6.566   1.446   9.211 -2.9415 -0.0184 -0.7989
  839MOL0     H15715   6.314   1.440   8.980 -0.7585  0.3623 -1.9974
  839MOL0     H15716   6.416   1.332   9.077 -0.2365  0.0599  0.6660
  839MOL0     H15717   6.353   1.321   8.780  2.4432 -0.0865 -0.2582
  839MOL0     H15718   6.475   1.225   8.848  0.6253  1.0036  0.7432
  839MOL0     H15719   6.199   1.235   8.970 -0.5913 -2.2527  0.1593
  839MOL0     H15720   6.241   1.117   8.838  0.1319 -0.7440 -0.3510
  839MOL0     H15721   6.394   0.986   8.958  1.0153 -0.9279  1.7346
  839MOL0     H15722   6.415   1.113   9.083 -0.0775  3.6552 -1.3406
  839MOL0     H15723   6.161   0.941   9.035 -4.6199  0.6028  3.5286
  839MOL0     H15724   6.180   1.068   9.157  0.5380  0.4333  0.5756
  839MOL0     H15725   6.194   0.861   9.247  0.0487  5.6258  2.1326
  839MOL0     H15726   6.325   0.796   9.137 -3.5553 -3.0903 -0.3433
  839MOL0     H15727   6.468   1.000   9.254  0.9303 -1.5266  0.5869
  839MOL0     H15728   6.427   0.868   9.361 -1.2948 -1.3470 -1.8989
  839MOL0     H15729   6.402   1.084   9.448  1.3452 -5.1985  0.3898
  839MOL0     H15730   6.272   1.136   9.335 -3.9846 -0.8643  1.0680
  839MOL0     H15731   6.346   0.896   9.636 -0.3583 -1.0466  1.6649
  839MOL0     H15732   6.186   0.704   9.759 -1.1194 -0.1186 -1.0480
  839MOL0     H15733   6.017   0.721   9.724 -1.2431  2.4511 -0.1556
  839MOL0     H15734   6.168   0.912   9.891 -0.4056  1.3232 -1.8915
  839MOL0     H15735   5.983   0.892   9.885 -1.1248 -0.5355  1.5113
  839MOL0     H15736   6.186   0.691   9.996 -0.5633 -0.4853  1.6665
  839MOL0     H15737   6.105   0.790  10.106  1.2420 -1.9126  1.1284
  839MOL0     H15738   5.897   0.682  10.083 -0.9916 -0.6284 -2.3952
  839MOL0     H15739   5.930   0.592   9.940  0.1337  0.4451 -0.4708
  839MOL0     H15740   6.277   0.496  10.084 -0.4753  1.3940 -0.3985
  839MOL0     H15741   6.496   0.567  10.148  2.0437  1.7218  0.5591
  839MOL0     H15742   6.513   0.429  10.271  1.9786  0.3616 -0.2206
  839MOL0     H15743   6.543   0.585  10.320 -4.4122 -1.5803  4.6351
  839MOL0     H15744   6.318   0.956  10.729  0.8594  1.2309  2.2279
  839MOL0     H15745   6.436   1.022  10.925  0.0001  0.3685 -1.5761
  839MOL0     H15746   6.687   0.993  11.047  0.2754 -0.0196  0.1337
  839MOL0     H15747   6.525   1.036  11.121 -1.5937 -0.9178 -0.9389
  839MOL0     H15748   6.662   1.088  11.294 -3.7794 -1.0963  1.8214
  839MOL0     H15749   6.584   0.936  11.327 -2.0307  0.4539 -1.3087
  839MOL0     H15750   6.793   0.812  11.251  0.2259  0.3058  0.0518
  839MOL0     H15751   6.833   0.914  11.380 -0.3112  0.6673  0.0938
  839MOL0     H15752   6.916   1.090  11.229  1.9620  0.6596 -1.3597
  839MOL0     H15753   6.886   0.987  11.082 -3.5283 -3.7039  0.5724
  839MOL0     H15754   7.058   0.858  11.291 -0.3370 -1.6933 -1.4881
  839MOL0     H15755   7.041   0.819  11.126 -0.3327 -0.2124 -0.3743
  839MOL0     H15756   7.178   1.067  11.247  0.2534  0.7722 -0.5872
  839MOL0     H15757   7.119   1.057  11.087 -3.4924 -1.8077  0.8479
  839MOL0     H15758   7.310   0.860  11.216  0.4330 -1.9436 -0.1896
  839MOL0     H15759   7.374   0.998  11.137  1.7535 -2.8671  1.1809
  839MOL0     H15760   7.203   0.801  10.972 -0.5563  1.0967  1.2618
  839MOL0     H15761   7.375   0.789  10.992 -2.0045 -3.2335 -2.3709
  839MOL0     H15762   6.549   0.621  10.998  0.7529  1.9627  0.7073
  839MOL0     H15763   6.433   0.548  10.782  1.3619  1.0848 -4.8491
  839MOL0     H15764   6.110   0.651  10.522  0.0161  3.2110 -2.9188
  839MOL0     H15765   5.952   0.598  10.334 -0.9493 -0.6145  1.3177
  839MOL0     H15766   6.520   1.677   8.853  1.4801 -0.0000 -0.0173
  839MOL0     H15767   6.551   1.878   8.972 -1.6680  0.4955 -0.6020
  839MOL0     H15768   6.919   2.053   9.359 -0.1163  0.2184  1.2076
  839MOL0     H15769   6.945   2.236   9.499  0.5320 -0.1558  0.2989
  839MOL0     H15770   6.748   2.578   9.637  0.1085 -0.5958  0.2834
  839MOL0     H15771   6.623   2.524   9.537  4.0419  2.0339 -2.2548
  839MOL0     H15772   6.673   2.464   9.832 -1.2514 -0.1222  1.7766
  839MOL0     H15773   6.568   2.360   9.743  1.4444 -0.6717  0.6370
  839MOL0     H15774   6.520   2.670   9.741  2.3179 -1.0978 -2.5169
  839MOL0     H15775   6.400   2.545   9.707  0.0273 -0.8802 -1.7037
  839MOL0     H15776   6.425   2.454   9.932 -1.5724  0.2568  3.8803
  839MOL0     H15777   6.369   2.619   9.953 -1.9306 -1.5961  0.5483
  839MOL0     H15778   6.714   2.676  10.163 -0.5746  0.7646  0.5846
  839MOL0     H15779   6.525   2.314   9.498  1.3679  1.0645  0.8391
  839MOL0     H15780   6.382   2.083   9.323 -1.6017  2.4109  0.6308
  839MOL0     H15781   6.411   2.252   9.317 -1.4481 -0.3348  1.5015
  839MOL0     H15782   6.477   2.141   9.185  0.1480  2.3391 -0.1927
  840MOL0     O15783  11.071   6.586   8.149 -0.3592  0.7912  0.5207
  840MOL0     C15784  11.059   6.674   8.069  0.1750  0.3878 -0.0743
  840MOL0     O15785  11.134   6.686   7.961 -1.0900  0.1442  0.2670
  840MOL0     C15786  11.234   6.600   7.929  0.2149 -0.4242  0.0492
  840MOL0     C15787  11.266   6.606   7.794 -0.1875 -0.4255  0.5317
  840MOL0     C15788  11.357   6.521   7.737 -0.6332  0.0550  0.1611
  840MOL0     C15789  11.425   6.442   7.819  0.6022 -0.0569  1.0955
  840MOL0     O15790  11.506   6.349   7.761  0.0941  1.2733 -0.3647
  840MOL0     C15791  11.653   6.369   7.767  0.1109 -0.2306 -0.1157
  840MOL0     C15792  11.681   6.520   7.747 -0.0905  0.1412  0.7935
  840MOL0     C15793  11.836   6.541   7.725  0.6414  0.4967  0.3826
  840MOL0     C15794  11.892   6.459   7.608  0.0168 -0.3937 -0.4131
  840MOL0     C15795  12.020   6.527   7.552 -0.3226  0.4605 -0.3817
  840MOL0     C15796  12.140   6.552   7.639  0.0636  0.6114 -0.0273
  840MOL0     C15797  12.211   6.429   7.680  0.0580  0.7016  0.3282
  840MOL0     C15798  12.319   6.429   7.788 -1.0276 -0.6097 -0.7467
  840MOL0     N15799  12.291   6.512   7.905 -1.0611  0.1760 -0.0473
  840MOL0     C15800  12.193   6.505   8.001  0.8542  1.0250  0.5200
  840MOL0     C15801  12.225   6.595   8.092  0.5589 -0.3190  0.0059
  840MOL0     C15802  12.141   6.629   8.217 -0.3853 -0.0124  0.9190
  840MOL0     C15803  12.205   6.559   8.339  1.0902 -0.1777  0.4133
  840MOL0     C15804  12.131   6.586   8.476 -0.0581  0.5691 -0.0127
  840MOL0     C15805  12.130   6.464   8.576 -0.5760  0.6132 -0.5775
  840MOL0     O15806  12.035   6.363   8.536 -0.7054 -0.3981 -0.2244
  840MOL0     C15807  12.026   6.250   8.623 -0.6504 -0.8961 -1.3628
  840MOL0     C15808  11.939   6.153   8.592  0.6475  0.6764 -0.6180
  840MOL0     C15809  11.906   6.055   8.686 -0.6450  0.5917 -1.2778
  840MOL0     C15810  11.818   5.949   8.623 -0.3508 -0.5116 -0.2434
  840MOL0     C15811  11.978   6.048   8.814 -0.9238 -0.0925 -0.7321
  840MOL0     C15812  11.969   5.936   8.905  0.5012  0.5012  1.1263
  840MOL0     O15813  11.837   5.895   8.912 -0.9423  0.8460 -0.5115
  840MOL0     C15814  11.804   5.777   8.967  0.5470  0.7922  0.7113
  840MOL0     C15815  11.794   5.667   8.887 -0.1414 -0.6243  0.3998
  840MOL0     C15816  11.741   5.544   8.939  0.4260  0.0070 -0.5893
  840MOL0     C15817  11.687   5.529   9.067 -0.1658  0.0665  0.7902
  840MOL0     O15818  11.623   5.414   9.097  0.0488 -0.5217 -0.5248
  840MOL0     C15819  11.626   5.379   9.236 -0.3436 -0.5967 -0.1895
  840MOL0     C15820  11.527   5.262   9.258 -0.1788 -0.7156 -0.1625
  840MOL0     C15821  11.538   5.213   9.405  0.5600  0.8161  0.1559
  840MOL0     C15822  11.674   5.163   9.455  0.1869 -0.1532  0.5072
  840MOL0     C15823  11.747   5.084   9.343  0.4063  0.4505 -1.3751
  840MOL0     C15824  11.855   4.991   9.405  0.3190  0.9440 -0.3429
  840MOL0     C15825  11.982   5.061   9.456  0.0006 -0.5905  0.6374
  840MOL0     C15826  12.080   4.957   9.515 -0.6593 -0.2568  0.9640
  840MOL0    Cl15827  12.112   4.839   9.379 -0.3474  0.4298 -0.5222
  840MOL0     C15828  11.697   5.646   9.144 -0.2933  0.1225 -0.7772
  840MOL0     C15829  11.748   5.770   9.097 -0.4420  0.4479  0.0079
  840MOL0     O15830  12.057   5.895   8.976  0.1903  0.3028 -0.8316
  840MOL0     C15831  12.083   6.151   8.839 -0.8829  0.2759  0.5428
  840MOL0     C15832  12.101   6.254   8.745  0.2057  0.3427 -0.9561
  840MOL0     N15833  12.344   6.658   8.049 -0.2475 -0.2951  0.0316
  840MOL0     N15834  12.383   6.600   7.947  0.0290  0.3411  0.6333
  840MOL0     C15835  11.395   6.428   7.953 -1.2954  0.3510 -0.0994
  840MOL0     C15836  11.301   6.504   8.008 -0.1849  0.0425 -0.3050
  840MOL0     C15837  10.935   6.753   8.069  0.0831 -1.0052  0.2118
  840MOL0     C15838  10.893   6.806   7.942  0.9183  0.8800  0.6852
  840MOL0     C15839  10.777   6.876   7.938 -0.3780 -0.3613  0.1566
  840MOL0     C15840  10.705   6.910   8.046 -0.1001 -1.0875 -0.1202
  840MOL0     O15841  10.596   6.989   8.022  0.8579  0.4184  0.3176
  840MOL0     C15842  10.619   7.119   8.068  0.1850  0.2660  0.5222
  840MOL0     C15843  10.506   7.221   8.024  1.0228 -0.1124  0.3968
  840MOL0     C15844  10.366   7.168   8.067 -0.5149 -0.9242  0.1239
  840MOL0     C15845  10.256   7.279   8.047  0.1428 -0.2048 -0.1220
  840MOL0     C15846  10.118   7.225   8.047  0.0030 -0.7822  0.0056
  840MOL0     C15847  10.002   7.179   8.062 -1.2454 -0.5693  0.6260
  840MOL0     C15848  10.750   6.874   8.171  0.3052  0.2511  0.3949
  840MOL0     C15849  10.860   6.788   8.185 -0.0751  0.1533  0.1595
  840MOL0     C15850  10.915   6.767   8.323 -0.7261  0.4705  0.0393
  840MOL0     H15851  11.227   6.679   7.724  5.1354  3.0925  0.6216
  840MOL0     H15852  11.384   6.516   7.632  2.4682  0.1991  0.8424
  840MOL0     H15853  11.687   6.309   7.682  1.4389 -0.9973  0.9120
  840MOL0     H15854  11.691   6.317   7.855 -1.3578 -3.0217 -0.9898
  840MOL0     H15855  11.628   6.545   7.655 -0.5677 -2.5308  0.2638
  840MOL0     H15856  11.642   6.587   7.824  2.9626  2.1733  0.7669
  840MOL0     H15857  11.838   6.648   7.702 -0.8760  0.6403  0.7967
  840MOL0     H15858  11.881   6.525   7.823 -1.7766 -1.6421  1.2545
  840MOL0     H15859  11.910   6.361   7.654  3.9937  2.0762  4.3116
  840MOL0     H15860  11.815   6.461   7.530 -0.5233 -0.0140  0.1237
  840MOL0     H15861  11.988   6.620   7.504 -0.4329  0.0970 -1.0317
  840MOL0     H15862  12.049   6.466   7.465  1.2634  0.6027  0.0080
  840MOL0     H15863  12.208   6.603   7.570 -0.8391 -0.8503 -2.0987
  840MOL0     H15864  12.118   6.615   7.725  0.5429  1.0344 -0.2086
  840MOL0     H15865  12.233   6.373   7.589 -3.7227 -2.7980  1.2496
  840MOL0     H15866  12.128   6.368   7.718 -1.9059  0.6589 -3.5136
  840MOL0     H15867  12.347   6.330   7.823  0.1702  0.7476  2.5547
  840MOL0     H15868  12.411   6.469   7.743  0.5834 -1.1476  1.8904
  840MOL0     H15869  12.108   6.438   8.005 -0.8922  3.0843  0.1594
  840MOL0     H15870  12.037   6.596   8.214 -1.5597  3.2320 -2.9572
  840MOL0     H15871  12.139   6.738   8.211 -0.1584 -0.0376  0.2886
  840MOL0     H15872  12.181   6.454   8.320 -1.2319  0.2299  0.7752
  840MOL0     H15873  12.312   6.570   8.356  0.7556  0.4130  2.3960
  840MOL0     H15874  12.186   6.669   8.521  1.3728 -0.8746  1.0528
  840MOL0     H15875  12.026   6.602   8.452 -0.8770 -1.3842  1.8874
  840MOL0     H15876  12.233   6.428   8.570  0.5035  3.6829 -3.4600
  840MOL0     H15877  12.110   6.492   8.680  2.6487 -1.1386  0.6483
  840MOL0     H15878  11.893   6.156   8.494 -1.6866 -0.9937  0.3382
  840MOL0     H15879  11.738   5.997   8.565  0.9760 -1.6530 -3.2101
  840MOL0     H15880  11.783   5.873   8.694  1.2516 -0.8262  0.2472
  840MOL0     H15881  11.878   5.898   8.548  0.8149 -1.3876  1.2122
  840MOL0     H15882  11.794   5.680   8.779 -1.4444 -0.9919  0.3499
  840MOL0     H15883  11.731   5.463   8.867 -0.7284  0.0571 -0.4998
  840MOL0     H15884  11.726   5.361   9.278 -0.3998 -1.2734 -0.3415
  840MOL0     H15885  11.586   5.462   9.296  0.4399  0.0245 -0.5034
  840MOL0     H15886  11.421   5.288   9.248 -0.5473 -1.0884  2.1312
  840MOL0     H15887  11.536   5.182   9.185  0.8171  0.9365 -1.9214
  840MOL0     H15888  11.469   5.128   9.406 -0.3423  1.5346  0.7864
  840MOL0     H15889  11.502   5.289   9.475  0.7050  0.6051  0.4632
  840MOL0     H15890  11.661   5.101   9.544 -0.9400  0.7640  1.0013
  840MOL0     H15891  11.727   5.254   9.486  1.7165 -1.3577  1.5756
  840MOL0     H15892  11.678   5.025   9.283 -1.5548 -0.0912  1.2160
  840MOL0     H15893  11.797   5.157   9.278 -2.0215  2.0228 -1.6348
  840MOL0     H15894  11.873   4.928   9.317 -1.0000 -0.9033  0.6326
  840MOL0     H15895  11.822   4.927   9.488  1.1914  0.5844 -0.2583
  840MOL0     H15896  11.951   5.116   9.545 -0.2020 -2.1416  1.5759
  840MOL0     H15897  12.020   5.109   9.366 -2.1877 -0.6072 -0.3612
  840MOL0     H15898  12.037   4.904   9.601 -1.8995  0.6034  0.8954
  840MOL0     H15899  12.174   5.006   9.543  0.0548 -0.1777 -1.3601
  840MOL0     H15900  11.659   5.655   9.245  1.5119  0.9712 -0.1223
  840MOL0     H15901  11.736   5.856   9.162 -5.0848  2.1868 -2.7372
  840MOL0     H15902  12.139   6.154   8.931  0.3728 -0.3860 -0.1704
  840MOL0     H15903  12.172   6.329   8.780 -2.5212  2.2930  0.8324
  840MOL0     H15904  11.464   6.363   8.007 -0.8276 -1.5335 -2.7171
  840MOL0     H15905  11.278   6.491   8.113 -3.0615  2.9664 -0.3888
  840MOL0     H15906  10.948   6.783   7.851  0.5341 -0.1660  0.7094
  840MOL0     H15907  10.729   6.928   7.856 -3.4212 -2.7424  0.2315
  840MOL0     H15908  10.618   7.125   8.177 -3.4246  4.9760  0.5840
  840MOL0     H15909  10.713   7.159   8.028  0.0899  2.7770  2.5452
  840MOL0     H15910  10.499   7.228   7.915 -4.4784 -2.4682  0.2853
  840MOL0     H15911  10.517   7.322   8.067 -1.2810  0.4908 -0.3057
  840MOL0     H15912  10.338   7.085   8.001 -1.8477 -0.8232  0.5317
  840MOL0     H15913  10.366   7.140   8.173 -4.9281 -0.8098  0.3324
  840MOL0     H15914  10.262   7.329   7.949 -3.4348 -0.1796 -0.4867
  840MOL0     H15915  10.261   7.349   8.131 -0.4453  0.1619 -0.3872
  840MOL0     H15916   9.899   7.152   8.064 -1.9407  1.5323 -1.7183
  840MOL0     H15917  10.681   6.916   8.243  0.9905  2.4417 -0.1276
  840MOL0     H15918  10.861   6.820   8.401  0.7287  0.0109  1.4214
  840MOL0     H15919  10.916   6.660   8.347 -3.2121  0.6038  1.0510
  840MOL0     H15920  11.019   6.802   8.321 -0.1029 -1.2913 -1.3824
  841MOL0     O15921   8.639   8.537   6.471  0.0491  0.3571  0.0609
  841MOL0     C15922   8.540   8.472   6.491  0.1319  0.4645 -0.6858
  841MOL0     O15923   8.416   8.507   6.452  0.1837 -0.3157 -0.7736
  841MOL0     C15924   8.384   8.632   6.397  0.8325  0.5206 -0.1771
  841MOL0     C15925   8.466   8.705   6.307  0.2137  0.8243 -0.3959
  841MOL0     C15926   8.433   8.840   6.272  0.3504 -0.2693  0.2797
  841MOL0     C15927   8.323   8.905   6.320 -0.0840 -0.0886  0.3828
  841MOL0     O15928   8.279   9.019   6.260 -0.6592 -0.1944 -0.2787
  841MOL0     C15929   8.346   9.145   6.286  0.7419 -0.7219  0.3968
  841MOL0     C15930   8.357   9.195   6.433  0.4466  0.7830 -0.0452
  841MOL0     C15931   8.442   9.097   6.529 -0.2906  0.1580  0.6784
  841MOL0     C15932   8.482   9.166   6.660  0.6532 -1.5467 -0.7064
  841MOL0     C15933   8.553   9.076   6.765  0.2369 -0.5313  0.0308
  841MOL0     C15934   8.579   9.143   6.902 -0.1779  0.4635 -0.2282
  841MOL0     C15935   8.452   9.193   6.977  0.1337  0.0585 -0.3965
  841MOL0     C15936   8.359   9.075   6.990  0.2064 -0.0952 -0.2650
  841MOL0     N15937   8.246   9.110   7.081 -0.5564 -0.8945 -0.3106
  841MOL0     C15938   8.130   9.165   7.037 -0.5211  0.1543 -0.1470
  841MOL0     C15939   8.053   9.187   7.140  0.0877 -0.0314  0.0055
  841MOL0     C15940   7.917   9.253   7.149  0.0863 -0.1080 -0.7292
  841MOL0     C15941   7.840   9.201   7.277  0.0632 -0.4481  0.6164
  841MOL0     C15942   7.692   9.157   7.250  0.4709  0.1292 -0.0265
  841MOL0     C15943   7.624   9.125   7.385 -0.0708 -0.4068  0.1917
  841MOL0     O15944   7.487   9.085   7.332 -1.3307 -0.2161  0.4485
  841MOL0     C15945   7.399   9.023   7.420  0.5985  0.0632 -0.1662
  841MOL0     C15946   7.268   9.008   7.372  0.2952 -0.9489 -0.7493
  841MOL0     C15947   7.170   8.956   7.454  0.3801  0.9882 -0.4169
  841MOL0     C15948   7.041   8.937   7.379 -0.5741 -0.1277  0.1255
  841MOL0     C15949   7.206   8.914   7.585 -0.5918  0.6891 -0.8592
  841MOL0     C15950   7.114   8.842   7.682  0.1451 -0.4621  0.2512
  841MOL0     O15951   7.179   8.795   7.796 -0.0422 -0.3139  0.7519
  841MOL0     C15952   7.115   8.723   7.899  0.0076  0.2396 -0.3050
  841MOL0     C15953   7.186   8.617   7.950 -0.0587 -1.1666 -0.0619
  841MOL0     C15954   7.142   8.544   8.063 -0.2461  0.1661  0.9201
  841MOL0     C15955   7.029   8.589   8.131  0.1262  0.2801 -0.3704
  841MOL0     O15956   6.987   8.514   8.239  0.1862 -0.3959 -0.3693
  841MOL0     C15957   6.856   8.550   8.280  0.8721 -0.4976  1.0703
  841MOL0     C15958   6.802   8.463   8.398  0.0027 -0.1609 -0.6851
  841MOL0     C15959   6.890   8.470   8.528  0.6696 -0.3796  0.4125
  841MOL0     C15960   6.902   8.328   8.577  0.3429 -0.0314  0.3169
  841MOL0     C15961   6.990   8.328   8.710 -0.0448 -1.0410  0.3587
  841MOL0     C15962   6.959   8.198   8.787 -0.3372 -0.1322  0.7487
  841MOL0     C15963   7.029   8.197   8.928  0.5035  0.0612  0.3647
  841MOL0     C15964   7.004   8.052   8.995  0.5954 -0.5248  0.4490
  841MOL0    Cl15965   7.037   8.036   9.165  0.3424  0.1410 -0.4635
  841MOL0     C15966   6.961   8.695   8.069 -0.4752 -0.1843 -0.4083
  841MOL0     C15967   7.000   8.763   7.961  0.4662  0.4764  0.0149
  841MOL0     O15968   6.998   8.816   7.654 -0.4820  0.4750  0.4669
  841MOL0     C15969   7.337   8.944   7.628 -0.7602 -0.1924 -1.1559
  841MOL0     C15970   7.429   9.002   7.552  1.0841  0.6281  0.6322
  841MOL0     N15971   8.117   9.129   7.252  0.4020  0.2059  0.1586
  841MOL0     N15972   8.228   9.086   7.213 -0.5057 -0.0564 -0.6627
  841MOL0     C15973   8.238   8.838   6.404 -0.4554  0.0071  0.4992
  841MOL0     C15974   8.270   8.705   6.449  0.3015 -0.4715  0.0637
  841MOL0     C15975   8.562   8.357   6.572  0.6345  0.8154  0.0732
  841MOL0     C15976   8.644   8.265   6.530  0.8751 -0.2310 -0.2919
  841MOL0     C15977   8.685   8.153   6.600  0.7225  0.0011  0.1033
  841MOL0     C15978   8.627   8.134   6.728 -0.2135 -0.4119 -1.1377
  841MOL0     O15979   8.660   8.040   6.818 -0.7526  0.3050 -0.0176
  841MOL0     C15980   8.673   7.909   6.754  0.3913  0.0389 -0.1477
  841MOL0     C15981   8.709   7.794   6.856  0.2515  0.6739 -0.1060
  841MOL0     C15982   8.646   7.814   6.999  0.0456  0.4230  0.0493
  841MOL0     C15983   8.493   7.784   6.992  0.0788  1.2324 -0.2969
  841MOL0     C15984   8.447   7.753   7.127 -0.1173 -0.4160  0.3899
  841MOL0     C15985   8.422   7.720   7.238 -0.1808 -0.4617 -0.6945
  841MOL0     C15986   8.530   8.226   6.766 -0.0900  0.6444  0.3063
  841MOL0     C15987   8.496   8.334   6.688  0.2596 -0.0386 -0.4310
  841MOL0     C15988   8.382   8.410   6.739 -0.3221 -0.4944  0.2451
  841MOL0     H15989   8.549   8.652   6.262 -1.1974 -0.1290 -1.9980
  841MOL0     H15990   8.502   8.877   6.197 -1.1439 -0.0761 -1.0547
  841MOL0     H15991   8.298   9.217   6.221 -1.9890 -0.1267  2.8856
  841MOL0     H15992   8.445   9.141   6.238  0.3770  0.7241 -0.5145
  841MOL0     H15993   8.412   9.289   6.442  0.1755  0.8216  1.6852
  841MOL0     H15994   8.257   9.198   6.478 -0.2859 -0.8108 -1.4474
  841MOL0     H15995   8.385   9.008   6.558  0.3274  0.7358  4.0903
  841MOL0     H15996   8.532   9.080   6.470 -0.7860  2.1882 -0.8075
  841MOL0     H15997   8.541   9.257   6.647 -1.6431  0.5704  2.2692
  841MOL0     H15998   8.389   9.207   6.700  0.7750 -0.8380 -1.1257
  841MOL0     H15999   8.650   9.050   6.723 -0.5438  2.4130 -4.3852
  841MOL0     H16000   8.497   8.982   6.771  1.7313 -1.3930  0.9534
  841MOL0     H16001   8.631   9.073   6.969  0.4410  3.0764  2.2403
  841MOL0     H16002   8.649   9.227   6.901  1.7196 -1.0306 -0.3732
  841MOL0     H16003   8.418   9.281   6.922 -1.2358  0.2952  0.7807
  841MOL0     H16004   8.467   9.228   7.079 -3.4963 -1.5365  0.8366
  841MOL0     H16005   8.331   9.041   6.890 -1.3716 -0.1768  0.1769
  841MOL0     H16006   8.406   8.980   7.020 -0.8848 -0.7588 -0.5904
  841MOL0     H16007   8.103   9.188   6.935 -3.0248  2.6008  0.9411
  841MOL0     H16008   7.855   9.231   7.062  0.4190 -0.6142 -0.8480
  841MOL0     H16009   7.944   9.359   7.150 -1.4446  0.3450  1.7685
  841MOL0     H16010   7.889   9.114   7.321  0.2543 -1.7741 -2.0060
  841MOL0     H16011   7.835   9.281   7.352 -0.7277  1.3877 -1.2644
  841MOL0     H16012   7.631   9.240   7.213  2.5345  0.1165 -4.0201
  841MOL0     H16013   7.687   9.069   7.185 -2.0370 -0.8501  1.3601
  841MOL0     H16014   7.678   9.039   7.426  0.4502 -0.7071 -1.0708
  841MOL0     H16015   7.630   9.206   7.458  0.8134  0.1994 -0.5277
  841MOL0     H16016   7.251   9.032   7.268 -1.6672 -0.1795 -0.2939
  841MOL0     H16017   7.023   8.829   7.373  1.6718 -0.5557  0.2489
  841MOL0     H16018   7.048   8.975   7.277  2.1803 -2.2944 -0.5958
  841MOL0     H16019   6.962   8.982   7.440 -0.7972  0.5380 -0.6479
  841MOL0     H16020   7.273   8.580   7.896  0.5383  2.0881 -1.5568
  841MOL0     H16021   7.193   8.455   8.101  0.4377 -0.4118 -1.2005
  841MOL0     H16022   6.861   8.653   8.315  3.1759  0.3833 -1.4778
  841MOL0     H16023   6.785   8.535   8.197  0.4492  1.3139  1.0656
  841MOL0     H16024   6.698   8.487   8.417 -0.0740 -1.2278  0.3580
  841MOL0     H16025   6.798   8.360   8.361  0.0580  0.0113 -1.1867
  841MOL0     H16026   6.840   8.534   8.601 -1.6226  0.7588 -1.9736
  841MOL0     H16027   6.988   8.510   8.501 -0.3389  1.4023 -0.8528
  841MOL0     H16028   6.950   8.260   8.506 -2.4806  1.6430 -3.5056
  841MOL0     H16029   6.800   8.291   8.591 -0.4202  1.5205 -0.9013
  841MOL0     H16030   7.097   8.341   8.694  0.4102 -3.3588  1.1138
  841MOL0     H16031   6.947   8.410   8.768 -1.6097 -2.0193  0.6632
  841MOL0     H16032   6.998   8.115   8.728  0.1216  2.3448 -2.6780
  841MOL0     H16033   6.850   8.189   8.796 -0.7907 -0.1210 -3.3026
  841MOL0     H16034   6.981   8.266   8.999 -2.0118 -0.9736 -0.2438
  841MOL0     H16035   7.133   8.226   8.910 -0.0650  1.7985 -0.3624
  841MOL0     H16036   7.052   7.971   8.938  1.5299  0.4016 -0.1151
  841MOL0     H16037   6.897   8.030   8.995  0.4677  0.0659  0.2457
  841MOL0     H16038   6.879   8.748   8.115  1.6627  1.9290  1.1970
  841MOL0     H16039   6.947   8.855   7.935  2.1487  1.6008  0.3993
  841MOL0     H16040   7.367   8.936   7.732 -1.4461  0.0778 -0.9312
  841MOL0     H16041   7.531   9.009   7.587  1.6524  2.0229 -1.1203
  841MOL0     H16042   8.155   8.895   6.444  0.6448  4.2124 -2.5042
  841MOL0     H16043   8.200   8.657   6.516 -0.0260 -1.3216 -0.8728
  841MOL0     H16044   8.698   8.286   6.439  0.1863  1.9522 -0.2445
  841MOL0     H16045   8.750   8.084   6.548 -2.7053 -1.9288 -1.9636
  841MOL0     H16046   8.572   7.894   6.713  0.0610  2.2415 -0.2730
  841MOL0     H16047   8.752   7.911   6.679  0.8955  2.5515  0.3696
  841MOL0     H16048   8.815   7.814   6.875  0.3882 -1.3370  1.6134
  841MOL0     H16049   8.695   7.693   6.817  0.2643  1.3465 -1.9060
  841MOL0     H16050   8.697   7.752   7.074  0.9781  1.2366  0.0999
  841MOL0     H16051   8.655   7.916   7.038  2.9901 -0.6052  2.4789
  841MOL0     H16052   8.464   7.701   6.927  1.2986  0.1390  0.5125
  841MOL0     H16053   8.443   7.869   6.944  1.1760  2.2952  0.3678
  841MOL0     H16054   8.406   7.694   7.341  4.7577 -0.7826  0.2276
  841MOL0     H16055   8.485   8.215   6.864  2.4917  0.7277  1.6022
  841MOL0     H16056   8.375   8.423   6.847  0.3742 -1.0829  0.3639
  841MOL0     H16057   8.389   8.516   6.710 -0.8437 -0.7646 -0.9190
  841MOL0     H16058   8.288   8.372   6.696 -0.5292 -0.3047  0.5242
  842MOL0     O16059   8.200   5.591   7.177 -0.1264 -0.1830  0.0965
  842MOL0     C16060   8.113   5.643   7.242  0.4935  0.3004  0.4904
  842MOL0     O16061   8.067   5.600   7.361 -0.6318  0.4110  0.2154
  842MOL0     C16062   8.167   5.555   7.446  0.4992  0.4612 -0.6536
  842MOL0     C16063   8.215   5.425   7.442 -0.7973 -0.7037  0.1897
  842MOL0     C16064   8.293   5.378   7.549 -0.5621  0.6856  0.6653
  842MOL0     C16065   8.336   5.457   7.652 -0.0530  0.7567 -0.5704
  842MOL0     O16066   8.430   5.413   7.751  0.3311  0.3806  0.0534
  842MOL0     C16067   8.411   5.277   7.796  0.8629  0.4677  0.3233
  842MOL0     C16068   8.543   5.204   7.770 -0.5303  0.9645  0.4993
  842MOL0     C16069   8.661   5.275   7.829 -0.2398  0.4582  0.3158
  842MOL0     C16070   8.788   5.194   7.832 -0.1377 -0.0698  0.5478
  842MOL0     C16071   8.895   5.272   7.892  0.9256  0.3640  0.4155
  842MOL0     C16072   8.951   5.381   7.805 -0.3496  0.0059  0.6026
  842MOL0     C16073   9.030   5.482   7.891 -0.3195  0.2600  0.0257
  842MOL0     C16074   8.963   5.563   8.007 -0.0690  0.3494 -0.0375
  842MOL0     N16075   8.827   5.619   7.970  0.0204 -0.3581  0.3150
  842MOL0     C16076   8.703   5.570   8.015 -0.3361  0.6493 -0.4159
  842MOL0     C16077   8.618   5.644   7.962  0.1429 -0.8605  0.3364
  842MOL0     C16078   8.469   5.636   7.969 -1.0019 -0.4626 -0.0028
  842MOL0     C16079   8.429   5.704   8.098 -1.6290  0.3227  0.5142
  842MOL0     C16080   8.281   5.698   8.131  0.0721  0.2123 -0.8924
  842MOL0     C16081   8.209   5.792   8.029 -0.2694 -0.5910 -0.4698
  842MOL0     O16082   8.263   5.929   8.054  0.5734  0.2251  0.3365
  842MOL0     C16083   8.207   6.038   7.990 -0.2321 -1.4496 -0.0133
  842MOL0     C16084   8.190   6.154   8.072  0.2287 -0.1911 -0.7887
  842MOL0     C16085   8.112   6.258   8.015  0.2873  0.5947  0.3534
  842MOL0     C16086   8.083   6.372   8.104 -0.6838  0.0400 -0.1297
  842MOL0     C16087   8.050   6.247   7.880  0.2195 -0.6660 -0.2647
  842MOL0     C16088   7.966   6.351   7.825  0.1161 -0.9243 -0.2287
  842MOL0     O16089   7.893   6.307   7.725  0.1905  0.1361  0.4300
  842MOL0     C16090   7.796   6.385   7.669 -0.7653 -0.9275 -0.8809
  842MOL0     C16091   7.689   6.429   7.759  0.1830 -0.3462  0.6369
  842MOL0     C16092   7.586   6.506   7.707  0.8003  0.2213  0.2450
  842MOL0     C16093   7.596   6.559   7.572  0.3959  0.6152 -0.3171
  842MOL0     O16094   7.498   6.647   7.524  0.1701 -0.4262  0.3104
  842MOL0     C16095   7.358   6.609   7.530 -0.3573 -1.2367  0.5499
  842MOL0     C16096   7.294   6.730   7.460 -0.0905 -0.6134  0.0552
  842MOL0     C16097   7.140   6.730   7.489  0.1969 -0.4477  0.9121
  842MOL0     C16098   7.089   6.877   7.473  0.0968 -0.3600  0.6301
  842MOL0     C16099   6.934   6.901   7.468  0.2753  0.3078  0.3078
  842MOL0     C16100   6.852   6.868   7.334 -0.4195 -0.8927 -0.1763
  842MOL0     C16101   6.699   6.889   7.376  0.4290  0.1586 -0.3043
  842MOL0     C16102   6.640   6.758   7.354 -0.5807  0.9141 -0.7644
  842MOL0    Cl16103   6.701   6.646   7.488  0.0045  0.5640 -0.1545
  842MOL0     C16104   7.703   6.529   7.493 -0.6143  0.3360 -0.7415
  842MOL0     C16105   7.799   6.447   7.545  0.3729 -0.7339  0.6858
  842MOL0     O16106   7.961   6.468   7.870 -0.4651 -0.0734 -0.3372
  842MOL0     C16107   8.078   6.134   7.807 -0.6917 -0.0767 -0.2161
  842MOL0     C16108   8.156   6.034   7.857 -0.0222 -0.6128 -0.2932
  842MOL0     N16109   8.680   5.751   7.901 -0.5684 -0.3831 -0.7341
  842MOL0     N16110   8.803   5.734   7.903  0.5042  0.1254 -0.2643
  842MOL0     C16111   8.287   5.581   7.655 -0.7313  0.2061  0.4857
  842MOL0     C16112   8.200   5.627   7.561  0.0019 -0.7148  0.5709
  842MOL0     C16113   8.048   5.765   7.179  0.5943  0.2155  0.3354
  842MOL0     C16114   7.945   5.819   7.258  0.0740  0.2594  0.3525
  842MOL0     C16115   7.885   5.938   7.228 -0.1758 -0.0285  0.2883
  842MOL0     C16116   7.920   6.003   7.111  0.6193 -0.0587 -0.8185
  842MOL0     O16117   7.850   6.117   7.090  0.2795  0.3337  0.0971
  842MOL0     C16118   7.905   6.212   6.999 -0.1082 -0.6944  0.2180
  842MOL0     C16119   7.806   6.317   6.984  0.4420 -0.9197 -0.2805
  842MOL0     C16120   7.839   6.406   6.858  0.8938  0.3583 -0.8284
  842MOL0     C16121   7.929   6.523   6.904  0.2890 -0.1127  0.1184
  842MOL0     C16122   7.901   6.606   7.024 -0.9031  0.0667 -0.2318
  842MOL0     C16123   7.887   6.689   7.109  0.6929 -0.2736 -0.3983
  842MOL0     C16124   8.033   5.961   7.045  0.2030  0.1535 -0.1755
  842MOL0     C16125   8.100   5.840   7.072  0.4264 -0.4393 -0.5975
  842MOL0     C16126   8.235   5.815   7.003  0.6740 -0.2871  0.3751
  842MOL0     H16127   8.174   5.352   7.373  0.5248 -1.9148  0.6388
  842MOL0     H16128   8.316   5.272   7.538 -0.7833  0.6665  0.3373
  842MOL0     H16129   8.331   5.226   7.741  0.1377  2.1201 -0.2000
  842MOL0     H16130   8.385   5.278   7.902 -2.7810  0.0986 -0.4410
  842MOL0     H16131   8.529   5.104   7.812  1.9179 -0.7530 -2.3161
  842MOL0     H16132   8.547   5.192   7.661 -2.7327 -1.7085  0.5851
  842MOL0     H16133   8.668   5.374   7.782 -0.5104  1.1709  1.7297
  842MOL0     H16134   8.637   5.288   7.935 -1.8362  2.0072 -0.1833
  842MOL0     H16135   8.782   5.102   7.892 -0.3799 -2.7502 -3.2160
  842MOL0     H16136   8.814   5.161   7.731 -0.5537 -0.2334  0.4901
  842MOL0     H16137   8.981   5.212   7.921  1.0538  1.5018  2.5606
  842MOL0     H16138   8.870   5.308   7.992  1.7514 -2.0477  1.5517
  842MOL0     H16139   9.024   5.333   7.740  2.4531  2.0282  2.0373
  842MOL0     H16140   8.874   5.438   7.750 -0.5939  1.4563  2.3492
  842MOL0     H16141   9.058   5.561   7.821 -1.1231  0.0324 -0.5635
  842MOL0     H16142   9.115   5.428   7.934  1.8208  3.9058  0.7556
  842MOL0     H16143   8.943   5.484   8.081 -0.8698 -1.6458 -2.2566
  842MOL0     H16144   9.027   5.642   8.047  0.7522  0.1335 -0.9068
  842MOL0     H16145   8.690   5.481   8.075  0.6843 -1.3235 -2.9318
  842MOL0     H16146   8.418   5.540   7.956 -2.7067  0.4355 -0.2201
  842MOL0     H16147   8.437   5.705   7.891  2.5239  0.9696 -0.3878
  842MOL0     H16148   8.483   5.660   8.182 -5.0686  0.0034  2.7775
  842MOL0     H16149   8.458   5.809   8.098 -2.2942  0.5242 -0.5260
  842MOL0     H16150   8.241   5.601   8.099 -1.3771  0.5319 -0.1133
  842MOL0     H16151   8.259   5.720   8.235  1.9895  1.9229 -0.7870
  842MOL0     H16152   8.221   5.754   7.927  2.4274  1.2347 -0.9485
  842MOL0     H16153   8.100   5.794   8.039 -0.3001  0.4778 -0.8195
  842MOL0     H16154   8.235   6.153   8.171 -0.8306 -1.0146 -0.2965
  842MOL0     H16155   8.122   6.460   8.053  1.1096  0.0673  1.2186
  842MOL0     H16156   8.138   6.366   8.198 -3.0618 -2.1180  1.2657
  842MOL0     H16157   7.977   6.384   8.131 -0.6662  2.2854 -0.8775
  842MOL0     H16158   7.686   6.410   7.866 -1.1834 -0.9408  0.5135
  842MOL0     H16159   7.514   6.546   7.778  0.9348  2.8426 -0.9788
  842MOL0     H16160   7.324   6.522   7.473 -6.0249  1.1953 -0.4947
  842MOL0     H16161   7.333   6.605   7.637  0.2333  2.0361  0.9086
  842MOL0     H16162   7.345   6.820   7.495  0.9289  0.4077 -3.5926
  842MOL0     H16163   7.301   6.732   7.351 -0.9438  3.2144 -0.0848
  842MOL0     H16164   7.132   6.709   7.596  2.3121 -1.3225  0.9402
  842MOL0     H16165   7.091   6.658   7.423  0.3935 -2.2502  2.6523
  842MOL0     H16166   7.136   6.925   7.386 -1.9781 -2.9672 -2.1315
  842MOL0     H16167   7.123   6.951   7.546 -0.7409  2.0749 -1.2590
  842MOL0     H16168   6.888   6.833   7.540 -2.0913 -0.4191 -1.7526
  842MOL0     H16169   6.920   7.002   7.507  1.4632 -0.7996  4.0486
  842MOL0     H16170   6.871   6.765   7.300 -0.1312 -1.0211  0.3679
  842MOL0     H16171   6.870   6.934   7.249  0.4207  2.4539  2.3869
  842MOL0     H16172   6.641   6.965   7.324  2.5787  3.1176  1.3517
  842MOL0     H16173   6.686   6.919   7.481  1.1217  1.1224 -0.4895
  842MOL0     H16174   6.673   6.718   7.258  0.6860  0.3884 -0.1342
  842MOL0     H16175   6.531   6.762   7.363 -0.4919  0.3297  0.9892
  842MOL0     H16176   7.724   6.572   7.396  4.5009 -0.1853 -0.1026
  842MOL0     H16177   7.883   6.442   7.477  0.5083 -1.8084  0.9225
  842MOL0     H16178   8.067   6.127   7.699  0.9903 -0.2148 -0.4053
  842MOL0     H16179   8.188   5.956   7.788  0.9836  1.3758 -2.1805
  842MOL0     H16180   8.323   5.646   7.734  0.6007 -2.8902  2.6220
  842MOL0     H16181   8.167   5.730   7.566  2.4674  0.0873  2.8651
  842MOL0     H16182   7.897   5.767   7.340 -1.3305 -0.0743 -0.6390
  842MOL0     H16183   7.812   5.988   7.291  1.3991  1.9915  0.6209
  842MOL0     H16184   8.003   6.257   7.013 -1.1239  1.6143  0.5237
  842MOL0     H16185   7.928   6.164   6.904  3.6249  3.8021 -1.4794
  842MOL0     H16186   7.784   6.365   7.080  3.2023  0.6234 -0.3062
  842MOL0     H16187   7.718   6.262   6.948  0.2343 -1.8629  1.5471
  842MOL0     H16188   7.896   6.360   6.777 -0.5246  1.8073 -2.7591
  842MOL0     H16189   7.745   6.433   6.809  0.5038 -2.3115 -1.7092
  842MOL0     H16190   7.932   6.584   6.814 -2.8691  1.7019  1.0908
  842MOL0     H16191   8.031   6.491   6.928  0.8557  2.7305  1.9644
  842MOL0     H16192   7.870   6.765   7.182 -4.3792  1.7896 -3.2185
  842MOL0     H16193   8.083   6.021   6.970  2.3324  0.1019  1.1183
  842MOL0     H16194   8.236   5.883   6.917 -1.1359 -0.7466 -0.0489
  842MOL0     H16195   8.321   5.839   7.066  1.0443 -1.6388  0.4104
  842MOL0     H16196   8.243   5.713   6.964 -3.1353 -0.1307 -1.2309
  843MOL0     O16197  10.754   5.483   1.317 -0.8220  1.0498 -0.8808
  843MOL0     C16198  10.685   5.402   1.263  0.3937  0.8457  0.9208
  843MOL0     O16199  10.654   5.403   1.129 -0.5293 -0.9531  0.0508
  843MOL0     C16200  10.742   5.455   1.041 -1.1273  0.8850 -0.6477
  843MOL0     C16201  10.696   5.508   0.926 -0.4180 -0.5140  0.7499
  843MOL0     C16202  10.777   5.560   0.825  0.0128  0.4963 -0.0287
  843MOL0     C16203  10.912   5.556   0.848 -0.1457 -0.0956  0.4230
  843MOL0     O16204  10.984   5.613   0.747  0.3311 -0.3382  1.4432
  843MOL0     C16205  11.126   5.585   0.736  0.1284 -0.8383  0.2278
  843MOL0     C16206  11.172   5.440   0.692  0.0557  0.1194 -0.4977
  843MOL0     C16207  11.052   5.385   0.598  0.4998 -0.4325 -0.8304
  843MOL0     C16208  11.095   5.253   0.528  0.6992 -1.2203 -0.1770
  843MOL0     C16209  10.986   5.182   0.452  0.5125 -0.1170  0.8526
  843MOL0     C16210  11.017   5.050   0.375  1.2157  0.2204 -0.2760
  843MOL0     C16211  11.153   5.035   0.291  0.4126  0.1449 -1.1270
  843MOL0     C16212  11.169   5.154   0.203 -0.9931  0.4428  0.3154
  843MOL0     N16213  11.214   5.116   0.066 -0.1768 -0.2939 -0.2532
  843MOL0     C16214  11.271   5.002   0.014 -0.6269 -0.0042  1.3289
  843MOL0     C16215  11.318   5.040  -0.110  0.1805 -0.1363  0.6451
  843MOL0     C16216  11.379   4.940  -0.199  0.0829  0.8587  0.4792
  843MOL0     C16217  11.517   4.972  -0.248  0.4695  0.2733 -0.1987
  843MOL0     C16218  11.504   5.077  -0.363 -0.6399  0.0866 -0.1728
  843MOL0     C16219  11.421   5.014  -0.478 -0.4038 -1.0128  0.6202
  843MOL0     O16220  11.477   4.889  -0.512  0.7157  0.6248  0.0527
  843MOL0     C16221  11.390   4.809  -0.583  0.0704  0.1353  0.1449
  843MOL0     C16222  11.423   4.777  -0.716 -0.5272 -1.2049 -0.7035
  843MOL0     C16223  11.356   4.666  -0.774 -0.2096 -0.1080 -0.1049
  843MOL0     C16224  11.395   4.643  -0.912  0.0975 -0.1148 -1.1021
  843MOL0     C16225  11.273   4.579  -0.698 -0.0931 -0.3707  0.4338
  843MOL0     C16226  11.198   4.462  -0.755  0.3407 -0.6956 -0.3002
  843MOL0     O16227  11.087   4.423  -0.686 -0.1187  0.0855 -0.0813
  843MOL0     C16228  11.033   4.298  -0.703  0.0365  0.0756 -0.0543
  843MOL0     C16229  11.057   4.216  -0.599  0.5701 -0.0089  0.7560
  843MOL0     C16230  10.996   4.087  -0.609 -0.3593 -0.4095 -0.6815
  843MOL0     C16231  10.906   4.040  -0.707  0.5325 -0.9065  0.6639
  843MOL0     O16232  10.812   3.939  -0.698  0.5039 -0.1555 -0.8305
  843MOL0     C16233  10.825   3.842  -0.589 -0.6034 -0.3679  0.5235
  843MOL0     C16234  10.730   3.719  -0.600 -0.8554  0.8250  0.6713
  843MOL0     C16235  10.805   3.601  -0.656 -1.0729  0.4318  0.3918
  843MOL0     C16236  10.842   3.624  -0.804 -0.0747 -0.9380  0.2334
  843MOL0     C16237  10.887   3.490  -0.848 -0.3220 -0.1724 -0.4279
  843MOL0     C16238  10.967   3.487  -0.978  0.2503  0.2579 -0.0235
  843MOL0     C16239  10.927   3.594  -1.083  0.2511  0.1717 -1.7484
  843MOL0     C16240  10.985   3.580  -1.228  0.1922  0.6470  0.3721
  843MOL0    Cl16241  10.941   3.715  -1.337 -0.2060  0.3938 -0.3884
  843MOL0     C16242  10.893   4.131  -0.817  0.0711  0.8896  0.7011
  843MOL0     C16243  10.950   4.259  -0.811  0.7444 -0.5750  0.5417
  843MOL0     O16244  11.258   4.389  -0.837 -0.0463  0.3828  0.2171
  843MOL0     C16245  11.241   4.612  -0.566 -0.2077 -0.7064  0.9573
  843MOL0     C16246  11.297   4.732  -0.511  0.4755  0.1525  0.7312
  843MOL0     N16247  11.266   5.166  -0.136 -0.4693  0.2362 -0.6835
  843MOL0     N16248  11.209   5.213  -0.031 -0.3048 -0.2037  0.0473
  843MOL0     C16249  10.975   5.500   0.962  0.0078 -0.4348  0.0409
  843MOL0     C16250  10.886   5.448   1.057 -1.0752 -0.0168 -0.9357
  843MOL0     C16251  10.608   5.307   1.338 -0.2927  0.4646 -1.0481
  843MOL0     C16252  10.642   5.173   1.338 -1.0384 -0.1888  0.5621
  843MOL0     C16253  10.571   5.092   1.427 -0.8089  0.3670 -0.5496
  843MOL0     C16254  10.475   5.138   1.518 -0.3650  0.1809 -0.6073
  843MOL0     O16255  10.409   5.047   1.594 -1.1304 -0.1683  0.8097
  843MOL0     C16256  10.275   5.065   1.625  0.2855 -0.0582 -0.0767
  843MOL0     C16257  10.195   4.934   1.585 -0.3804 -0.7544 -0.2995
  843MOL0     C16258  10.199   4.822   1.690  0.5893 -0.0419  1.0967
  843MOL0     C16259  10.089   4.718   1.679 -0.0375 -0.7639  0.8664
  843MOL0     C16260  10.104   4.633   1.793  0.3887  0.5060  0.0621
  843MOL0     C16261  10.103   4.534   1.866  0.3887 -0.6021 -0.8838
  843MOL0     C16262  10.445   5.273   1.509  0.1537  0.0439 -0.0129
  843MOL0     C16263  10.519   5.357   1.429  0.7268  1.2469  0.9686
  843MOL0     C16264  10.498   5.508   1.440  0.5838  0.0015  0.2388
  843MOL0     H16265  10.588   5.515   0.918 -0.2089  2.3292 -1.4354
  843MOL0     H16266  10.734   5.598   0.733 -2.9650 -1.3979  0.4284
  843MOL0     H16267  11.177   5.626   0.824 -1.6778  1.3553  0.3222
  843MOL0     H16268  11.161   5.658   0.663 -1.3013 -1.4283 -1.1012
  843MOL0     H16269  11.266   5.453   0.637  2.0293  1.5982  2.9458
  843MOL0     H16270  11.183   5.382   0.784 -2.2382 -0.0140 -0.2570
  843MOL0     H16271  10.956   5.378   0.650  0.3403  0.4561 -0.9745
  843MOL0     H16272  11.045   5.456   0.515  0.2010  2.4193  1.4698
  843MOL0     H16273  11.172   5.272   0.453 -0.4426  0.6590 -0.9480
  843MOL0     H16274  11.127   5.180   0.603  0.6584  0.6936  1.8123
  843MOL0     H16275  10.949   5.247   0.372 -2.0760 -0.5056  1.6543
  843MOL0     H16276  10.896   5.166   0.511 -0.7608  0.7676 -0.7888
  843MOL0     H16277  11.005   4.969   0.448 -0.8338  1.8181  1.2915
  843MOL0     H16278  10.931   5.027   0.313 -1.1473  0.7099  2.6231
  843MOL0     H16279  11.136   4.942   0.236 -0.3687  0.5511 -1.5935
  843MOL0     H16280  11.242   5.026   0.355 -0.1192  0.4818 -0.3282
  843MOL0     H16281  11.087   5.226   0.198  0.9993  2.7607 -2.6642
  843MOL0     H16282  11.247   5.217   0.247 -1.7605  3.6815 -2.5751
  843MOL0     H16283  11.286   4.903   0.057  0.6051  0.2045  1.4373
  843MOL0     H16284  11.300   4.905  -0.267  1.3704 -0.9108 -0.1985
  843MOL0     H16285  11.393   4.852  -0.135 -1.9412  1.4983  1.8984
  843MOL0     H16286  11.566   5.003  -0.155  1.2947 -0.1412 -0.4907
  843MOL0     H16287  11.574   4.888  -0.290 -0.3051 -1.8800  2.7119
  843MOL0     H16288  11.454   5.168  -0.330 -0.3544  0.6045 -1.1361
  843MOL0     H16289  11.600   5.118  -0.395 -0.3452  1.4001  2.1733
  843MOL0     H16290  11.315   5.003  -0.450 -0.6711 -1.1596 -0.4191
  843MOL0     H16291  11.417   5.081  -0.565  0.3553 -0.3999  1.0507
  843MOL0     H16292  11.498   4.838  -0.765  1.2158 -2.8035 -0.1129
  843MOL0     H16293  11.306   4.614  -0.970  0.8180  1.9174 -3.4287
  843MOL0     H16294  11.471   4.566  -0.921 -0.4203 -0.7164 -0.3986
  843MOL0     H16295  11.424   4.739  -0.957 -0.1181  0.4320 -0.1110
  843MOL0     H16296  11.108   4.242  -0.507 -0.1553  2.0324  0.6503
  843MOL0     H16297  11.007   4.020  -0.524  0.2586  0.7348  0.1646
  843MOL0     H16298  10.928   3.803  -0.585 -1.3855 -2.8305 -1.0593
  843MOL0     H16299  10.803   3.881  -0.489  0.8970  0.1226  0.6924
  843MOL0     H16300  10.686   3.691  -0.505 -1.5217 -2.3201 -0.4409
  843MOL0     H16301  10.644   3.756  -0.657  0.2990  1.1334 -0.9512
  843MOL0     H16302  10.737   3.517  -0.638 -1.5173  1.1925  2.6156
  843MOL0     H16303  10.893   3.573  -0.598  0.9692  0.8807 -2.2738
  843MOL0     H16304  10.926   3.694  -0.806 -2.3721  2.0024  0.1570
  843MOL0     H16305  10.763   3.661  -0.870 -0.1055  0.4808  1.0425
  843MOL0     H16306  10.951   3.451  -0.769 -0.4475  2.6139  1.1851
  843MOL0     H16307  10.806   3.417  -0.851 -1.2463  0.6246  2.4263
  843MOL0     H16308  10.945   3.392  -1.028 -0.3801  0.1168  0.5218
  843MOL0     H16309  11.071   3.506  -0.949  0.3512  0.9630 -0.7967
  843MOL0     H16310  10.952   3.694  -1.046 -0.6858 -0.4450  0.8214
  843MOL0     H16311  10.818   3.592  -1.093 -0.0302  3.8413 -0.8374
  843MOL0     H16312  10.962   3.485  -1.277  0.9668  1.2009 -1.1357
  843MOL0     H16313  11.094   3.585  -1.220  0.1691 -0.6129  2.1220
  843MOL0     H16314  10.808   4.116  -0.882  1.4218  0.1473 -0.9545
  843MOL0     H16315  10.916   4.331  -0.884  0.1030  1.0225  2.3329
  843MOL0     H16316  11.180   4.555  -0.498 -1.2595 -0.8154 -0.0447
  843MOL0     H16317  11.255   4.759  -0.415  0.3304  0.7290  0.5101
  843MOL0     H16318  11.081   5.495   0.984  0.2524  0.2592 -0.9065
  843MOL0     H16319  10.936   5.386   1.130  0.4282 -0.9285 -2.6632
  843MOL0     H16320  10.723   5.136   1.276  0.8646  0.3812  2.5556
  843MOL0     H16321  10.589   4.985   1.432  2.1443  0.6541 -2.3971
  843MOL0     H16322  10.264   5.093   1.730  0.2690 -3.8120  1.0342
  843MOL0     H16323  10.233   5.149   1.569 -1.0411  1.2811  2.7377
  843MOL0     H16324  10.244   4.890   1.498  0.8418 -0.7199  0.3453
  843MOL0     H16325  10.091   4.953   1.559 -0.8115 -1.3628  0.8858
  843MOL0     H16326  10.298   4.776   1.683  1.1735  1.1166  1.5881
  843MOL0     H16327  10.189   4.870   1.787  2.8050  0.1088  1.3034
  843MOL0     H16328  10.098   4.667   1.582  1.2540 -0.8458  1.0038
  843MOL0     H16329   9.991   4.766   1.678  0.5497  0.4761 -0.3195
  843MOL0     H16330  10.081   4.448   1.927 -3.4589 -0.1734 -1.4098
  843MOL0     H16331  10.381   5.308   1.589  0.4257  0.5526 -0.0101
  843MOL0     H16332  10.475   5.558   1.346  1.4828  1.6303  0.8351
  843MOL0     H16333  10.421   5.537   1.512 -0.8526  0.4252 -1.4231
  843MOL0     H16334  10.591   5.540   1.490  0.7613  2.0026 -1.2350
  844MOL0     O16335   4.609   8.429   0.041 -0.1961  0.4860  1.1536
  844MOL0     C16336   4.692   8.494  -0.021 -0.2367 -0.0878  0.0926
  844MOL0     O16337   4.703   8.631  -0.020 -0.1855 -0.4324  0.5323
  844MOL0     C16338   4.605   8.721   0.017 -0.8803  0.5088 -0.4043
  844MOL0     C16339   4.484   8.686   0.082 -0.3079  0.5625 -0.7317
  844MOL0     C16340   4.375   8.777   0.092 -0.3817  0.5305 -0.0713
  844MOL0     C16341   4.391   8.909   0.060 -0.9433  0.1969  0.6175
  844MOL0     O16342   4.286   8.994   0.067 -0.7350 -1.0578  0.3115
  844MOL0     C16343   4.285   9.111  -0.022 -0.1420 -0.0125  0.1956
  844MOL0     C16344   4.156   9.179   0.009 -1.0978 -0.9457 -0.8007
  844MOL0     C16345   4.035   9.088  -0.003 -0.7009  0.2566 -0.4634
  844MOL0     C16346   3.911   9.125   0.093  0.2604 -0.1420 -0.4241
  844MOL0     C16347   3.819   9.015   0.132 -0.0558  0.4918 -0.2892
  844MOL0     C16348   3.763   9.012   0.273 -0.5610  0.1832  0.7700
  844MOL0     C16349   3.853   8.984   0.388 -0.3620 -0.0792 -0.5782
  844MOL0     C16350   3.828   9.070   0.516 -0.7224  0.0690  0.5645
  844MOL0     N16351   3.787   9.004   0.634 -0.1483  0.6782 -0.4969
  844MOL0     C16352   3.866   8.906   0.690  0.9291 -0.7240 -0.6178
  844MOL0     C16353   3.813   8.878   0.811  0.7563 -0.0110  1.2673
  844MOL0     C16354   3.853   8.783   0.925  0.6130  0.4115  0.5591
  844MOL0     C16355   3.962   8.689   0.889 -0.2680  0.0590 -0.2732
  844MOL0     C16356   4.031   8.627   1.024  0.0353 -0.9476  0.1570
  844MOL0     C16357   4.081   8.487   0.994  0.3824 -0.7156 -0.1622
  844MOL0     O16358   3.975   8.400   1.015 -0.2640 -0.5372 -0.6598
  844MOL0     C16359   4.011   8.277   1.063 -0.1719  0.0372  0.6058
  844MOL0     C16360   4.126   8.211   1.025 -0.7605  0.8438 -0.1111
  844MOL0     C16361   4.174   8.090   1.082 -0.4130 -0.3847  0.1062
  844MOL0     C16362   4.304   8.023   1.038  0.7337  0.2490 -0.3813
  844MOL0     C16363   4.085   8.031   1.176  0.4571 -0.1638 -0.9001
  844MOL0     C16364   4.101   7.900   1.241  0.1824 -0.2533  0.2242
  844MOL0     O16365   3.997   7.831   1.285  0.0212 -0.1538  0.3445
  844MOL0     C16366   4.006   7.704   1.354 -0.0198 -0.8666 -0.4436
  844MOL0     C16367   4.111   7.609   1.341 -0.1848  0.0342 -0.8785
  844MOL0     C16368   4.097   7.480   1.404 -0.0295  0.1431  0.3505
  844MOL0     C16369   3.976   7.452   1.475  0.2301  0.7475 -0.4570
  844MOL0     O16370   3.971   7.332   1.548  0.0925  0.3542  0.1133
  844MOL0     C16371   3.858   7.302   1.627  0.5089 -0.3865  0.5675
  844MOL0     C16372   3.865   7.151   1.667 -0.1816  0.2708  0.1789
  844MOL0     C16373   3.854   7.051   1.556 -0.0092 -0.0839 -0.2148
  844MOL0     C16374   3.742   6.957   1.584 -0.4693 -0.1554 -0.6009
  844MOL0     C16375   3.739   6.854   1.471 -0.4910 -0.0314 -0.4012
  844MOL0     C16376   3.629   6.760   1.507  0.1172  0.6137 -0.0960
  844MOL0     C16377   3.621   6.639   1.403 -0.0577 -0.6120  0.5738
  844MOL0     C16378   3.570   6.508   1.462  0.7176 -0.6678  0.0898
  844MOL0    Cl16379   3.423   6.546   1.558 -0.1452 -0.0564  0.1148
  844MOL0     C16380   3.871   7.543   1.486 -0.5065 -0.8504 -0.3726
  844MOL0     C16381   3.896   7.669   1.426  0.5587 -0.5069 -0.0339
  844MOL0     O16382   4.218   7.873   1.273  0.6144  0.1955  0.7091
  844MOL0     C16383   3.965   8.098   1.218  0.2742  0.3379  0.4592
  844MOL0     C16384   3.927   8.223   1.162 -0.6122 -0.1310 -0.0762
  844MOL0     N16385   3.702   8.965   0.826 -0.1180  0.4250 -0.0893
  844MOL0     N16386   3.682   9.021   0.713 -0.2463  0.3118  0.9846
  844MOL0     C16387   4.525   8.950   0.020  0.2794  0.0799  1.1877
  844MOL0     C16388   4.628   8.854  -0.004 -0.0127 -0.2163 -0.8503
  844MOL0     C16389   4.807   8.423  -0.067 -0.9995  0.0587  0.3497
  844MOL0     C16390   4.826   8.290  -0.020 -0.5691  0.2143 -0.6176
  844MOL0     C16391   4.936   8.203  -0.068 -0.6229 -0.3127  0.0722
  844MOL0     C16392   5.005   8.241  -0.178  1.1359 -0.5417 -0.8891
  844MOL0     O16393   5.111   8.161  -0.225 -0.3161 -0.1977 -0.7117
  844MOL0     C16394   5.181   8.061  -0.143  0.1698  0.0137 -0.5432
  844MOL0     C16395   5.305   8.030  -0.205 -0.3430  0.0908  0.0606
  844MOL0     C16396   5.298   7.941  -0.323  0.5630 -0.4151 -0.3845
  844MOL0     C16397   5.278   7.787  -0.293 -1.2040 -1.0156 -0.4172
  844MOL0     C16398   5.324   7.722  -0.411 -0.0204 -0.0274 -0.1193
  844MOL0     C16399   5.373   7.673  -0.513  0.0537  0.1615 -0.1459
  844MOL0     C16400   4.987   8.373  -0.214 -0.8250  0.3779  0.4863
  844MOL0     C16401   4.889   8.458  -0.173 -0.6709 -0.0234 -0.5574
  844MOL0     C16402   4.878   8.580  -0.251 -0.0707  0.2634 -0.3764
  844MOL0     H16403   4.465   8.583   0.109 -1.0275 -0.1419 -3.6571
  844MOL0     H16404   4.283   8.733   0.130  1.0857 -0.5472  2.5086
  844MOL0     H16405   4.291   9.081  -0.126  0.9069  1.9645 -0.3674
  844MOL0     H16406   4.364   9.183   0.004 -1.7612  2.1966 -0.6991
  844MOL0     H16407   4.178   9.209   0.112  0.4809  2.2795 -1.9609
  844MOL0     H16408   4.149   9.263  -0.060 -0.9032  0.1180  0.4406
  844MOL0     H16409   4.000   9.080  -0.106  0.8686 -1.0361 -0.9338
  844MOL0     H16410   4.064   8.990   0.036  2.0604  0.7778 -1.0463
  844MOL0     H16411   3.960   9.152   0.186  1.3858 -0.3588 -0.9388
  844MOL0     H16412   3.847   9.206   0.054 -1.6288 -2.0112 -1.4188
  844MOL0     H16413   3.887   8.929   0.134 -0.0390  0.5164  0.9321
  844MOL0     H16414   3.744   9.009   0.052  0.4743  2.5590 -1.0147
  844MOL0     H16415   3.731   9.114   0.295 -1.8024 -0.3123  1.3602
  844MOL0     H16416   3.674   8.949   0.270  0.9314 -2.0096 -0.3461
  844MOL0     H16417   3.954   9.008   0.353 -0.4528  0.1690 -0.6646
  844MOL0     H16418   3.858   8.877   0.411  1.2865  0.0272 -0.2653
  844MOL0     H16419   3.927   9.106   0.545  0.0660 -2.2275  0.9750
  844MOL0     H16420   3.760   9.153   0.494 -1.6177 -0.9247 -0.5955
  844MOL0     H16421   3.951   8.855   0.645 -0.0803  0.1708 -3.8112
  844MOL0     H16422   3.769   8.720   0.954  1.2107 -2.3142 -2.9437
  844MOL0     H16423   3.892   8.841   1.010  0.1607 -0.0980  1.1179
  844MOL0     H16424   3.924   8.605   0.832  1.5884 -0.1941 -1.2229
  844MOL0     H16425   4.042   8.739   0.832  3.5090 -0.4403  3.9858
  844MOL0     H16426   4.122   8.684   1.046 -0.6233 -0.1098  0.7583
  844MOL0     H16427   3.967   8.619   1.112  0.3614 -0.5464  0.4316
  844MOL0     H16428   4.125   8.469   0.896  0.0131 -0.7751 -0.3161
  844MOL0     H16429   4.166   8.469   1.061  1.4660  0.2089 -1.2445
  844MOL0     H16430   4.197   8.240   0.948  0.9318 -1.7835  0.2963
  844MOL0     H16431   4.344   8.071   0.948 -2.1880  3.5723 -0.1321
  844MOL0     H16432   4.291   7.915   1.043  1.1773  0.2298  2.1279
  844MOL0     H16433   4.380   8.035   1.117  2.7840  3.1602 -2.5730
  844MOL0     H16434   4.197   7.638   1.281 -1.6553  2.4514 -1.9807
  844MOL0     H16435   4.172   7.402   1.409  0.3357  0.5614  2.2658
  844MOL0     H16436   3.860   7.356   1.722  0.3525 -3.7273  2.6199
  844MOL0     H16437   3.771   7.313   1.562  3.3002 -0.4548 -3.5625
  844MOL0     H16438   3.961   7.137   1.716  0.5478  1.7486 -0.7452
  844MOL0     H16439   3.795   7.137   1.750  1.1946  0.7280  1.4482
  844MOL0     H16440   3.951   7.001   1.557 -2.3198 -5.4048  2.3415
  844MOL0     H16441   3.837   7.094   1.457 -1.3552  0.1006  0.0675
  844MOL0     H16442   3.651   7.016   1.591  0.0495  0.4949  1.2645
  844MOL0     H16443   3.754   6.907   1.681  3.0998 -1.6531 -1.6454
  844MOL0     H16444   3.717   6.908   1.379 -1.9274 -0.7033 -0.4700
  844MOL0     H16445   3.834   6.798   1.472  0.4279  1.4668 -0.6799
  844MOL0     H16446   3.537   6.818   1.513  0.8333  1.7028  0.5627
  844MOL0     H16447   3.635   6.724   1.610 -0.8177 -1.5369 -0.7172
  844MOL0     H16448   3.718   6.629   1.353 -1.3559 -0.0578 -2.2281
  844MOL0     H16449   3.555   6.676   1.324  0.8149 -1.4869 -0.6054
  844MOL0     H16450   3.643   6.448   1.518  1.8729  0.5878 -0.0233
  844MOL0     H16451   3.550   6.442   1.377  0.9643  0.4808 -0.8856
  844MOL0     H16452   3.782   7.523   1.545  1.2877 -1.3543  2.3490
  844MOL0     H16453   3.810   7.735   1.420  0.1457 -1.0145  0.1573
  844MOL0     H16454   3.897   8.051   1.287  0.4456 -1.7873 -0.7443
  844MOL0     H16455   3.842   8.277   1.201 -0.2753 -1.1249  2.1923
  844MOL0     H16456   4.530   9.052  -0.016 -1.7813 -0.0029  0.4833
  844MOL0     H16457   4.722   8.892  -0.043  0.2923  0.8588  0.8296
  844MOL0     H16458   4.759   8.248   0.055 -2.5146  1.2880 -1.6501
  844MOL0     H16459   4.943   8.104  -0.024 -3.1257 -2.0965 -3.0722
  844MOL0     H16460   5.182   8.082  -0.035  0.3734 -5.3132  0.7620
  844MOL0     H16461   5.108   7.980  -0.147  1.2266 -1.1399  1.4812
  844MOL0     H16462   5.373   7.975  -0.140  2.2122  0.8008 -1.8626
  844MOL0     H16463   5.359   8.120  -0.236  1.7968 -0.9530  0.5910
  844MOL0     H16464   5.219   7.970  -0.393  0.9250 -0.2646 -0.7349
  844MOL0     H16465   5.396   7.950  -0.371 -0.3619 -1.5746 -2.6722
  844MOL0     H16466   5.174   7.763  -0.270 -1.0548 -1.5058 -0.2564
  844MOL0     H16467   5.329   7.745  -0.207 -3.7553 -2.3159  0.5611
  844MOL0     H16468   5.423   7.643  -0.603  3.8868  1.0583  1.4638
  844MOL0     H16469   5.053   8.406  -0.294 -2.6263  0.6970 -0.9461
  844MOL0     H16470   4.924   8.659  -0.192 -0.7791 -0.1130  0.7084
  844MOL0     H16471   4.918   8.580  -0.353  0.2545  0.0986 -0.2515
  844MOL0     H16472   4.770   8.589  -0.266 -1.1727 -3.1239  3.6125
  845MOL0     O16473  11.360   5.355  10.981 -0.6125 -0.0965  0.6102
  845MOL0     C16474  11.283   5.333  10.889 -0.4136 -0.1345 -0.8399
  845MOL0     O16475  11.310   5.267  10.775  0.0011  0.2682 -0.2219
  845MOL0     C16476  11.422   5.209  10.734 -0.9682  0.0053 -0.3121
  845MOL0     C16477  11.543   5.188  10.811  0.2252 -0.0049  0.2983
  845MOL0     C16478  11.658   5.128  10.751  0.2293  0.9830 -0.0485
  845MOL0     C16479  11.657   5.093  10.617 -0.5352  1.2806  0.0527
  845MOL0     O16480  11.767   5.068  10.545  0.5304 -0.1743 -1.2271
  845MOL0     C16481  11.900   5.107  10.596  0.4936 -0.4220 -0.0148
  845MOL0     C16482  11.995   5.113  10.480  0.2909 -0.6042 -1.0254
  845MOL0     C16483  11.964   5.218  10.381 -0.7930 -0.0676 -0.1664
  845MOL0     C16484  12.024   5.211  10.237 -1.0794 -0.3407  0.5545
  845MOL0     C16485  11.951   5.105  10.146  1.0104  0.5988 -0.0800
  845MOL0     C16486  12.037   5.056  10.034  0.1946 -0.2462  0.0831
  845MOL0     C16487  12.105   5.159   9.958 -0.6295  0.2149 -0.5706
  845MOL0     C16488  12.176   5.098   9.846 -0.2216 -0.1629  0.3907
  845MOL0     N16489  12.243   5.198   9.769 -0.3021  0.0768 -0.0771
  845MOL0     C16490  12.377   5.225   9.764  0.8705 -0.8451  0.3077
  845MOL0     C16491  12.375   5.340   9.705 -0.8235  0.3201  0.5313
  845MOL0     C16492  12.502   5.416   9.686 -0.3215 -0.6849  0.4150
  845MOL0     C16493  12.597   5.349   9.578  1.4249  0.3089 -0.6810
  845MOL0     C16494  12.731   5.436   9.569  0.3053  0.0161 -0.3702
  845MOL0     C16495  12.768   5.429   9.419  0.2078  0.5632  0.1255
  845MOL0     O16496  12.908   5.404   9.395  0.8259  0.0313  0.6051
  845MOL0     C16497  12.989   5.509   9.398 -0.6756 -0.0858 -1.3731
  845MOL0     C16498  12.951   5.638   9.429 -0.0678  0.7428 -0.5586
  845MOL0     C16499  13.052   5.735   9.470 -0.2632 -1.1951 -0.2802
  845MOL0     C16500  12.992   5.868   9.511 -0.2884  0.3433  0.0437
  845MOL0     C16501  13.185   5.704   9.480  0.3354 -0.0106  0.2336
  845MOL0     C16502  13.291   5.800   9.534 -0.4730 -0.0605  0.3859
  845MOL0     O16503  13.422   5.781   9.497 -0.4352 -0.3667  0.6765
  845MOL0     C16504  13.519   5.865   9.545 -0.4243 -0.7527 -0.5328
  845MOL0     C16505  13.554   5.866   9.688  0.0767 -0.1666  1.0313
  845MOL0     C16506  13.645   5.958   9.734 -0.7479 -0.2866 -0.7362
  845MOL0     C16507  13.716   6.048   9.646  0.0447  1.1182 -0.1841
  845MOL0     O16508  13.798   6.137   9.705 -0.0541 -1.1239  0.1919
  845MOL0     C16509  13.925   6.140   9.644 -0.0478  0.5685 -0.3408
  845MOL0     C16510  14.015   6.028   9.703  0.4338 -0.0152 -0.7019
  845MOL0     C16511  14.161   6.027   9.653  0.2346 -0.3149 -0.4267
  845MOL0     C16512  14.184   6.012   9.499  0.8547 -0.0532  0.5901
  845MOL0     C16513  14.328   5.990   9.475 -0.6250 -0.5395 -0.0706
  845MOL0     C16514  14.361   5.968   9.330 -0.8146 -0.2096  0.2284
  845MOL0     C16515  14.508   5.926   9.303  0.3036 -0.8745  0.1450
  845MOL0     C16516  14.549   5.974   9.161 -0.6447  0.8348  0.0461
  845MOL0    Cl16517  14.583   6.152   9.177 -0.1715 -0.3054 -0.4884
  845MOL0     C16518  13.684   6.041   9.507  0.8002  0.4336 -0.3586
  845MOL0     C16519  13.579   5.957   9.463  0.2276  0.0193  1.0887
  845MOL0     O16520  13.256   5.876   9.619  0.2401 -0.5557  0.1508
  845MOL0     C16521  13.222   5.576   9.446 -0.5851  1.1219  0.8211
  845MOL0     C16522  13.130   5.475   9.399 -0.6317  0.6326 -0.2568
  845MOL0     N16523  12.256   5.381   9.663 -0.2251  0.3441  0.3651
  845MOL0     N16524  12.174   5.288   9.698  0.1300 -0.0620  0.7777
  845MOL0     C16525  11.536   5.099  10.552  0.1851  0.2429  0.3573
  845MOL0     C16526  11.424   5.162  10.606  0.5895 -0.2006  0.3375
  845MOL0     C16527  11.141   5.362  10.907  0.1634 -0.0152 -0.5733
  845MOL0     C16528  11.079   5.407  10.785 -0.9416 -0.1727 -0.6039
  845MOL0     C16529  10.944   5.448  10.795 -0.0917 -1.4487  0.2920
  845MOL0     C16530  10.873   5.454  10.914  0.6572  0.4913  0.0312
  845MOL0     O16531  10.738   5.481  10.899  0.4283 -0.1352  0.3269
  845MOL0     C16532  10.670   5.552  11.008  0.0012  0.5277 -0.5341
  845MOL0     C16533  10.604   5.672  10.950 -0.0735  1.0695  0.3725
  845MOL0     C16534  10.462   5.645  10.902 -0.0028 -0.1777  0.4746
  845MOL0     C16535  10.464   5.653  10.753 -0.3010  0.3997  0.1125
  845MOL0     C16536  10.473   5.796  10.709 -0.5370  0.3701 -0.1169
  845MOL0     C16537  10.473   5.920  10.683  0.3628 -0.1185  0.2540
  845MOL0     C16538  10.934   5.409  11.035 -0.0948  0.8526 -0.4558
  845MOL0     C16539  11.070   5.361  11.031 -0.1944 -0.3222 -0.9739
  845MOL0     C16540  11.114   5.293  11.161  0.1862  0.2635  0.0827
  845MOL0     H16541  11.554   5.227  10.912 -0.5817 -0.2377  0.4807
  845MOL0     H16542  11.740   5.113  10.820  0.5797  1.5125 -0.3503
  845MOL0     H16543  11.938   5.046  10.679 -1.6970  0.5498  1.8390
  845MOL0     H16544  11.888   5.207  10.638 -0.3782 -0.8609  0.8447
  845MOL0     H16545  12.096   5.133  10.516 -0.9240  2.0884  1.2885
  845MOL0     H16546  11.981   5.018  10.427 -2.9663 -1.2009  0.6218
  845MOL0     H16547  11.855   5.217  10.390 -0.8560  2.5580 -0.0306
  845MOL0     H16548  12.005   5.313  10.416  1.1679 -0.9206 -0.0317
  845MOL0     H16549  12.015   5.314  10.202 -3.7253  0.4959  3.3204
  845MOL0     H16550  12.127   5.179  10.252 -1.0819 -2.2318 -2.4571
  845MOL0     H16551  11.849   5.138  10.122 -0.8795 -4.4364 -0.3927
  845MOL0     H16552  11.940   5.017  10.211 -0.6006  1.5878  1.0714
  845MOL0     H16553  12.114   4.997  10.085 -0.8272  0.3736  2.4753
  845MOL0     H16554  11.973   5.003   9.963  0.9337 -2.2892  0.8877
  845MOL0     H16555  12.193   5.206  10.002  1.7391 -1.8462 -2.7830
  845MOL0     H16556  12.020   5.222   9.928 -1.3082 -2.1947 -4.3617
  845MOL0     H16557  12.249   5.023   9.877 -0.1928 -0.2829  0.0355
  845MOL0     H16558  12.108   5.042   9.781  1.1099 -5.6354  3.1063
  845MOL0     H16559  12.467   5.181   9.805  0.0571 -2.7583  0.1435
  845MOL0     H16560  12.545   5.438   9.785  0.8349  2.7493 -0.7124
  845MOL0     H16561  12.475   5.515   9.650  2.2831  0.2370  0.7986
  845MOL0     H16562  12.603   5.245   9.611 -2.4340  1.4768  5.2511
  845MOL0     H16563  12.548   5.346   9.480  1.2955  0.0575 -0.6098
  845MOL0     H16564  12.701   5.538   9.596 -1.2572  0.2944 -2.7676
  845MOL0     H16565  12.811   5.396   9.632  0.1833 -0.7431 -0.6854
  845MOL0     H16566  12.710   5.346   9.376 -1.9846  3.0293 -2.1072
  845MOL0     H16567  12.725   5.518   9.372 -0.9487 -0.4389 -0.7910
  845MOL0     H16568  12.845   5.661   9.428 -1.5185 -4.3074  1.4935
  845MOL0     H16569  13.038   5.957   9.466  0.5382  1.8240  3.4786
  845MOL0     H16570  13.004   5.892   9.617 -1.1928 -0.4008  0.3258
  845MOL0     H16571  12.885   5.884   9.494 -0.6584 -1.6091  0.3648
  845MOL0     H16572  13.513   5.794   9.758  2.0574 -1.1142  1.2604
  845MOL0     H16573  13.679   5.965   9.837 -1.4981 -0.7303 -0.4498
  845MOL0     H16574  13.921   6.139   9.534  1.1819 -0.5902 -0.4035
  845MOL0     H16575  13.954   6.244   9.663  2.0955 -0.3093  1.7366
  845MOL0     H16576  14.023   6.040   9.811  3.3542 -0.2395 -0.7933
  845MOL0     H16577  13.967   5.932   9.681  1.2386 -1.0584  1.7382
  845MOL0     H16578  14.204   5.945   9.713 -1.3198 -0.9005 -0.0541
  845MOL0     H16579  14.210   6.118   9.688  0.3424 -0.9987  1.3619
  845MOL0     H16580  14.148   6.097   9.442  0.6259 -1.0653 -0.8307
  845MOL0     H16581  14.126   5.926   9.462  1.3397 -0.2712  0.3348
  845MOL0     H16582  14.376   6.085   9.501 -1.2441  0.8341 -3.3800
  845MOL0     H16583  14.366   5.911   9.540 -0.0544 -0.7067 -0.5943
  845MOL0     H16584  14.340   6.059   9.273 -0.2122 -0.3677 -0.2578
  845MOL0     H16585  14.287   5.896   9.296 -1.2665  1.7404 -3.3987
  845MOL0     H16586  14.528   5.819   9.316  1.2874 -0.9955 -1.9442
  845MOL0     H16587  14.557   5.987   9.379  0.7293 -0.1614 -0.6880
  845MOL0     H16588  14.467   5.959   9.090 -1.4156 -0.6450  1.2083
  845MOL0     H16589  14.645   5.930   9.132 -0.4781 -0.0303  1.7762
  845MOL0     H16590  13.734   6.103   9.432 -3.3226  3.7370 -0.7498
  845MOL0     H16591  13.557   5.943   9.358 -0.9011 -0.4512  1.3776
  845MOL0     H16592  13.323   5.538   9.453 -1.1239 -0.4620  0.3486
  845MOL0     H16593  13.154   5.371   9.380  3.8089  1.5430 -0.8016
  845MOL0     H16594  11.546   5.096  10.444 -0.4586 -0.4978  0.3100
  845MOL0     H16595  11.340   5.169  10.539 -1.2742  0.1080  2.5889
  845MOL0     H16596  11.144   5.405  10.698  3.6259  3.8329  2.1604
  845MOL0     H16597  10.902   5.474  10.698 -1.1625 -2.1193  0.5580
  845MOL0     H16598  10.597   5.486  11.054  1.2321  0.1809  1.0283
  845MOL0     H16599  10.740   5.592  11.082 -2.0102  2.2173  0.5812
  845MOL0     H16600  10.665   5.728  10.879  0.4087 -0.0802 -0.1408
  845MOL0     H16601  10.581   5.740  11.033 -1.9140  0.7676  0.1523
  845MOL0     H16602  10.441   5.542  10.933  3.0046 -0.9501  0.2434
  845MOL0     H16603  10.396   5.721  10.944 -0.1139  0.9302 -1.5710
  845MOL0     H16604  10.369   5.615  10.715 -1.6538  0.8154  2.8372
  845MOL0     H16605  10.548   5.595  10.715  0.3558  0.2475  1.6938
  845MOL0     H16606  10.461   6.023  10.657 -5.5279  0.0274  2.1815
  845MOL0     H16607  10.882   5.396  11.130 -0.6073 -1.9638 -1.0489
  845MOL0     H16608  11.031   5.265  11.227 -0.7324  1.2863 -0.6077
  845MOL0     H16609  11.154   5.194  11.135 -2.1830 -0.5228 -0.7903
  845MOL0     H16610  11.178   5.362  11.217  1.2506  0.4966 -1.3678
  846MOL0     O16611   6.319   9.396   7.192 -0.9415 -0.6253 -0.6250
  846MOL0     C16612   6.364   9.404   7.080 -0.7610 -0.3369  0.3713
  846MOL0     O16613   6.475   9.485   7.049 -0.2034  0.4017 -0.5830
  846MOL0     C16614   6.529   9.566   7.147  0.5005  0.2883 -0.3859
  846MOL0     C16615   6.532   9.705   7.117  0.4558 -0.4288  0.4921
  846MOL0     C16616   6.573   9.800   7.214 -0.6122  0.6947  0.0114
  846MOL0     C16617   6.630   9.762   7.332  0.1017 -0.0920 -0.8340
  846MOL0     O16618   6.665   9.862   7.424 -0.8720  0.0089  0.9978
  846MOL0     C16619   6.748   9.820   7.537 -0.0286 -0.1596  0.3560
  846MOL0     C16620   6.769   9.940   7.629 -0.0162 -0.5229 -0.2406
  846MOL0     C16621   6.845   9.913   7.763 -0.1963 -0.3339  0.5260
  846MOL0     C16622   6.975   9.830   7.746  0.7132  0.5198 -0.9389
  846MOL0     C16623   7.037   9.829   7.883 -0.4852  0.0809  0.0022
  846MOL0     C16624   7.173   9.755   7.895 -0.0766 -0.1727  0.3119
  846MOL0     C16625   7.231   9.770   8.037 -0.4416 -0.4966  0.4843
  846MOL0     C16626   7.302   9.904   8.044 -0.0235  0.3840  0.1941
  846MOL0     N16627   7.360   9.938   8.175  0.4069  0.2068  0.2118
  846MOL0     C16628   7.300  10.007   8.278 -0.1276 -0.0023 -0.2965
  846MOL0     C16629   7.395  10.041   8.367  0.0151 -0.1918 -0.3127
  846MOL0     C16630   7.372  10.134   8.491  0.3295  0.0685  0.2666
  846MOL0     C16631   7.271  10.251   8.457 -0.2999 -0.5978  0.0009
  846MOL0     C16632   7.259  10.342   8.580 -0.2776 -0.1170 -0.2346
  846MOL0     C16633   7.177  10.313   8.701  0.2653 -0.7849 -0.2538
  846MOL0     O16634   7.229  10.200   8.766 -0.2014  0.1068 -0.3812
  846MOL0     C16635   7.133  10.124   8.833 -0.5522 -0.5583  1.2444
  846MOL0     C16636   7.147   9.982   8.832 -0.7808  0.1442  0.1508
  846MOL0     C16637   7.057   9.896   8.894  0.0766  0.5610  0.8708
  846MOL0     C16638   7.087   9.744   8.895 -0.1714 -0.1163  0.6640
  846MOL0     C16639   6.942   9.948   8.959 -0.1721  0.2179 -0.2919
  846MOL0     C16640   6.840   9.872   9.032  0.8342  0.0922  0.1233
  846MOL0     O16641   6.780   9.930   9.135  0.2676 -0.0433  0.0823
  846MOL0     C16642   6.700   9.852   9.210 -0.0571  0.4436 -0.1489
  846MOL0     C16643   6.773   9.765   9.289  0.2416 -0.4365 -1.4952
  846MOL0     C16644   6.709   9.678   9.375 -0.1202  0.0782 -0.6162
  846MOL0     C16645   6.566   9.676   9.390  0.2798 -0.9286  0.3645
  846MOL0     O16646   6.486   9.594   9.469 -0.3307 -1.2538 -0.5588
  846MOL0     C16647   6.546   9.518   9.580 -0.3660  0.5504  0.0487
  846MOL0     C16648   6.559   9.596   9.699 -0.9099 -0.5393 -0.1117
  846MOL0     C16649   6.448   9.699   9.715  0.1172 -0.8372  0.8668
  846MOL0     C16650   6.430   9.752   9.854  0.5893  0.3985 -1.2590
  846MOL0     C16651   6.300   9.821   9.874  0.1232 -0.5729  0.3739
  846MOL0     C16652   6.305   9.969   9.847  0.3042  0.6895  0.9224
  846MOL0     C16653   6.180  10.038   9.893  0.6727 -0.1097 -0.1057
  846MOL0     C16654   6.201  10.188   9.867 -0.3222  1.5974 -0.0079
  846MOL0    Cl16655   6.078  10.283   9.953  0.3574 -0.6955  0.1625
  846MOL0     C16656   6.504   9.757   9.298  0.0202 -0.0788 -0.4548
  846MOL0     C16657   6.558   9.839   9.208 -0.7786 -0.4335  0.6587
  846MOL0     O16658   6.809   9.765   8.977  0.0939 -0.1940  0.7027
  846MOL0     C16659   6.935  10.089   8.969  0.2031  0.3227  0.1649
  846MOL0     C16660   7.026  10.178   8.910 -0.4849 -0.1455  0.4969
  846MOL0     N16661   7.515   9.990   8.324 -0.3957 -0.0713 -0.9689
  846MOL0     N16662   7.492   9.936   8.209  0.3719  0.3391  0.0097
  846MOL0     C16663   6.629   9.624   7.360  0.1042  0.5973 -0.2922
  846MOL0     C16664   6.578   9.526   7.269  0.7222  0.1010  0.2799
  846MOL0     C16665   6.297   9.353   6.957 -0.0842  0.4376 -0.4523
  846MOL0     C16666   6.362   9.358   6.836  0.4868 -0.1281  0.3503
  846MOL0     C16667   6.306   9.311   6.718 -0.3596  0.0420  0.2297
  846MOL0     C16668   6.176   9.256   6.715  0.3366  0.1587 -0.6014
  846MOL0     O16669   6.124   9.227   6.596 -0.6451 -0.3355  0.2555
  846MOL0     C16670   6.016   9.136   6.565 -0.4392 -0.7339  0.0622
  846MOL0     C16671   6.064   8.995   6.604  0.3538  0.3016 -0.2358
  846MOL0     C16672   6.180   8.948   6.517 -0.9736 -0.7685  0.5638
  846MOL0     C16673   6.159   8.971   6.364  0.3952 -0.6002 -0.1052
  846MOL0     C16674   6.246   8.893   6.280  0.0972 -1.0443  0.7660
  846MOL0     C16675   6.307   8.840   6.191 -0.3908  0.3642 -0.6352
  846MOL0     C16676   6.111   9.262   6.838  0.3580  0.2202  0.0333
  846MOL0     C16677   6.163   9.310   6.949 -0.0677  0.2406 -0.6989
  846MOL0     C16678   6.074   9.281   7.069  0.0834  0.1919 -0.2531
  846MOL0     H16679   6.499   9.742   7.020  3.5783  0.6030 -0.2679
  846MOL0     H16680   6.582   9.903   7.179 -0.6440  0.4359 -0.7796
  846MOL0     H16681   6.848   9.799   7.497  0.8800  2.5958  0.9669
  846MOL0     H16682   6.694   9.743   7.593  0.2513  0.9313  2.2042
  846MOL0     H16683   6.820  10.018   7.570 -0.9215  0.2405 -0.0378
  846MOL0     H16684   6.672   9.984   7.652  0.5520  1.5655 -1.4863
  846MOL0     H16685   6.872  10.009   7.807 -0.4545  0.8264 -1.7088
  846MOL0     H16686   6.785   9.857   7.836 -0.1922  0.9598  1.5483
  846MOL0     H16687   6.944   9.731   7.712 -2.2257  1.4746 -1.3852
  846MOL0     H16688   7.048   9.870   7.675 -0.0138  0.1876 -1.8987
  846MOL0     H16689   6.963   9.790   7.954  0.6679  1.8592  2.3094
  846MOL0     H16690   7.056   9.934   7.906 -3.7209  0.7475  0.0504
  846MOL0     H16691   7.156   9.650   7.869  1.0853 -0.6154  1.2634
  846MOL0     H16692   7.243   9.785   7.817 -2.6410 -1.1721 -2.5666
  846MOL0     H16693   7.309   9.694   8.040  1.3133  1.1184 -1.5014
  846MOL0     H16694   7.150   9.759   8.110  0.4428 -1.8342  1.2996
  846MOL0     H16695   7.385   9.907   7.972  0.2313 -0.9612  0.4013
  846MOL0     H16696   7.242   9.992   8.018  0.9538  1.2306  0.7381
  846MOL0     H16697   7.196  10.039   8.285 -0.1423 -0.3365  1.4362
  846MOL0     H16698   7.465  10.171   8.534  0.3684 -0.9391  1.0837
  846MOL0     H16699   7.322  10.064   8.560 -2.4763  0.5507 -1.1229
  846MOL0     H16700   7.300  10.307   8.368 -1.5212 -1.1234 -0.7642
  846MOL0     H16701   7.173  10.216   8.420 -1.1919  2.4560 -0.7963
  846MOL0     H16702   7.360  10.374   8.609  0.2484 -0.2091 -1.8674
  846MOL0     H16703   7.207  10.428   8.537 -0.3851 -0.6080 -1.0961
  846MOL0     H16704   7.179  10.405   8.760  0.8810 -0.1280 -1.2747
  846MOL0     H16705   7.074  10.295   8.667 -0.4259  0.9602  0.7848
  846MOL0     H16706   7.230   9.934   8.781  0.0260  1.2748  0.3438
  846MOL0     H16707   7.048   9.705   8.990 -1.4371  0.3436  0.3528
  846MOL0     H16708   7.190   9.723   8.865  0.6115 -0.9023  3.5756
  846MOL0     H16709   7.022   9.708   8.814 -0.6915  0.0497  1.0018
  846MOL0     H16710   6.879   9.755   9.263  0.0098 -1.8461 -1.9694
  846MOL0     H16711   6.771   9.618   9.440  1.3020 -0.2664 -2.2035
  846MOL0     H16712   6.477   9.437   9.606 -0.4275  0.3620 -0.6799
  846MOL0     H16713   6.642   9.472   9.552  0.3555  0.7425  2.0547
  846MOL0     H16714   6.558   9.524   9.781  1.7048  0.6897  1.1165
  846MOL0     H16715   6.661   9.629   9.722 -0.1224 -4.3302  2.6989
  846MOL0     H16716   6.359   9.658   9.666  0.7981  0.9661 -2.0933
  846MOL0     H16717   6.485   9.781   9.653 -3.0759  0.2633  0.2395
  846MOL0     H16718   6.504   9.830   9.873 -0.1302  1.1580 -1.5273
  846MOL0     H16719   6.433   9.668   9.925  0.0494 -0.3215 -2.0745
  846MOL0     H16720   6.220   9.788   9.807  0.7227 -0.9493 -0.1619
  846MOL0     H16721   6.253   9.815   9.973 -1.4514 -1.6319 -0.3915
  846MOL0     H16722   6.305   9.975   9.738 -2.1080 -1.7083  0.7013
  846MOL0     H16723   6.400  10.009   9.883  1.5360 -2.5115  1.5391
  846MOL0     H16724   6.182  10.011   9.999  1.1102  1.0002  0.1794
  846MOL0     H16725   6.086   9.998   9.853  0.3370  0.6272 -0.0726
  846MOL0     H16726   6.201  10.206   9.759  0.5191  0.2126 -0.2582
  846MOL0     H16727   6.304  10.213   9.892 -0.3050  0.7860  0.7378
  846MOL0     H16728   6.396   9.758   9.308  0.1689 -0.4873  1.6439
  846MOL0     H16729   6.509   9.916   9.149 -0.3000 -1.2517 -0.8591
  846MOL0     H16730   6.856  10.133   9.030 -0.0382  1.9063 -1.2102
  846MOL0     H16731   7.017  10.285   8.925 -0.4960  0.0621 -0.8539
  846MOL0     H16732   6.657   9.587   7.458 -1.2159  0.2121 -0.0491
  846MOL0     H16733   6.566   9.420   7.285  1.6734 -0.7427 -3.4549
  846MOL0     H16734   6.465   9.393   6.840  0.1826  0.7668  0.8842
  846MOL0     H16735   6.363   9.313   6.625  0.3472  0.2654  0.6595
  846MOL0     H16736   5.920   9.148   6.617  0.0742  1.1905  0.6588
  846MOL0     H16737   5.981   9.152   6.463  1.2347  4.2074  0.0081
  846MOL0     H16738   5.978   8.930   6.587 -1.7690  2.5038  1.4684
  846MOL0     H16739   6.090   8.987   6.710  1.3182  0.8600 -0.4143
  846MOL0     H16740   6.272   9.004   6.539  0.3133 -3.6995  3.6707
  846MOL0     H16741   6.204   8.843   6.536  1.4107 -0.7444 -1.7700
  846MOL0     H16742   6.176   9.077   6.342 -1.4249  0.4294  2.8293
  846MOL0     H16743   6.056   8.946   6.336  1.2883 -3.2243 -1.3323
  846MOL0     H16744   6.366   8.814   6.105 -1.8813 -0.3087 -1.4973
  846MOL0     H16745   6.015   9.212   6.846 -0.5127  1.9150  0.7969
  846MOL0     H16746   6.128   9.198   7.115  2.4054 -0.2177 -3.3721
  846MOL0     H16747   6.057   9.373   7.126 -0.0353  0.7680 -1.1914
  846MOL0     H16748   5.972   9.255   7.038 -1.6576  5.1872  0.1871
  847MOL0     O16749   4.286   4.881   0.007 -0.1615  0.5493  0.2666
  847MOL0     C16750   4.303   5.000  -0.017 -0.3175 -0.4058 -0.0246
  847MOL0     O16751   4.245   5.106   0.055  0.2555  0.3380  0.2000
  847MOL0     C16752   4.120   5.090   0.112  0.7848  0.8639  0.1082
  847MOL0     C16753   4.109   5.127   0.242 -0.8372 -0.8524  1.2751
  847MOL0     C16754   3.978   5.123   0.298 -0.3018  0.7277 -0.1634
  847MOL0     C16755   3.863   5.076   0.233 -0.4960 -1.4152 -0.0038
  847MOL0     O16756   3.740   5.078   0.292 -0.2707 -0.4996  0.0620
  847MOL0     C16757   3.727   5.047   0.431 -0.2558  0.0776 -0.2055
  847MOL0     C16758   3.602   4.984   0.462  0.5873  0.3735 -0.1421
  847MOL0     C16759   3.590   4.841   0.410  0.6359 -0.5085  0.0550
  847MOL0     C16760   3.449   4.787   0.440  0.9847  0.7169  0.5852
  847MOL0     C16761   3.411   4.665   0.360 -1.1553 -0.3251 -0.2711
  847MOL0     C16762   3.501   4.546   0.388 -0.0314  0.4732  0.2953
  847MOL0     C16763   3.492   4.495   0.532  0.4250 -1.1063 -0.0733
  847MOL0     C16764   3.590   4.388   0.586  0.8847  0.1986 -0.5934
  847MOL0     N16765   3.587   4.273   0.494  0.4857 -0.3510  0.3337
  847MOL0     C16766   3.476   4.189   0.493  0.0149 -0.0816  0.3168
  847MOL0     C16767   3.507   4.101   0.392  0.1663  1.0206  0.6849
  847MOL0     C16768   3.419   3.979   0.362  0.0242 -0.9433 -0.3323
  847MOL0     C16769   3.478   3.843   0.323  0.3751 -0.0934  0.2524
  847MOL0     C16770   3.609   3.810   0.393 -0.1022  0.4377  0.6054
  847MOL0     C16771   3.637   3.665   0.354 -0.5084  0.0606  0.4248
  847MOL0     O16772   3.763   3.608   0.406 -0.2439  0.0568  1.0440
  847MOL0     C16773   3.796   3.478   0.368  0.5813 -0.4666 -0.3057
  847MOL0     C16774   3.925   3.446   0.418  0.3229  0.0339 -0.5192
  847MOL0     C16775   3.985   3.317   0.402  0.4384  0.8607  0.1899
  847MOL0     C16776   4.122   3.304   0.449  0.3433  0.5054 -0.4043
  847MOL0     C16777   3.907   3.213   0.336 -0.6230  0.1521  0.5723
  847MOL0     C16778   3.951   3.073   0.313 -0.0755 -0.7551 -0.2843
  847MOL0     O16779   4.022   3.007   0.413  0.1993  0.5872 -0.1876
  847MOL0     C16780   4.082   2.892   0.368  0.1463 -0.0230 -1.0537
  847MOL0     C16781   4.220   2.886   0.360  0.4705 -1.2134 -1.4088
  847MOL0     C16782   4.285   2.768   0.325 -0.1264  0.3029  0.2675
  847MOL0     C16783   4.213   2.657   0.287  0.3995  0.4261 -1.7096
  847MOL0     O16784   4.282   2.537   0.251 -0.4395 -0.1665  0.0878
  847MOL0     C16785   4.213   2.421   0.212 -0.5886 -0.3014 -0.6703
  847MOL0     C16786   4.311   2.335   0.144 -0.4495 -0.6859  0.0607
  847MOL0     C16787   4.244   2.203   0.106  0.0339 -0.5261  0.3321
  847MOL0     C16788   4.320   2.100   0.028 -0.3934  0.3126 -0.1466
  847MOL0     C16789   4.466   2.073   0.085 -0.7117 -0.2591  0.4963
  847MOL0     C16790   4.486   2.000   0.212  0.1372  0.0528 -0.2014
  847MOL0     C16791   4.391   1.865   0.208 -0.6353  0.0999  0.4660
  847MOL0     C16792   4.468   1.733   0.243 -0.2221 -0.8750 -0.0336
  847MOL0    Cl16793   4.514   1.744   0.416 -0.4718 -0.0542 -0.3419
  847MOL0     C16794   4.070   2.665   0.297 -1.0169 -0.1659 -0.5211
  847MOL0     C16795   4.003   2.776   0.351 -0.7246 -0.1805 -0.2268
  847MOL0     O16796   3.906   3.025   0.209 -0.6822 -0.1990  0.6722
  847MOL0     C16797   3.776   3.244   0.295  0.0461  0.0998 -0.3429
  847MOL0     C16798   3.721   3.375   0.309 -0.4256  0.7192  0.6467
  847MOL0     N16799   3.625   4.136   0.343  0.5978  0.4949 -0.0943
  847MOL0     N16800   3.683   4.230   0.406  0.3647  1.1368  0.8056
  847MOL0     C16801   3.882   5.048   0.092  1.0519 -0.1370 -0.1570
  847MOL0     C16802   4.008   5.057   0.036 -0.0908 -0.0014  0.3712
  847MOL0     C16803   4.400   5.038  -0.124 -0.0601 -1.2054  0.4940
  847MOL0     C16804   4.451   5.173  -0.125  0.1252 -0.5327  0.3481
  847MOL0     C16805   4.553   5.213  -0.209 -0.7552  0.8007 -0.1178
  847MOL0     C16806   4.604   5.117  -0.290 -0.6346 -0.2903 -0.5161
  847MOL0     O16807   4.709   5.172  -0.364  0.1835 -0.3317  0.3217
  847MOL0     C16808   4.778   5.087  -0.452  0.2238  0.9339  0.9098
  847MOL0     C16809   4.874   5.167  -0.539  0.1032  0.6705 -0.4994
  847MOL0     C16810   4.834   5.313  -0.575  0.6324  1.5061  0.1193
  847MOL0     C16811   4.908   5.376  -0.693 -0.6474 -0.7465 -0.6367
  847MOL0     C16812   5.054   5.390  -0.696 -0.6702  1.7972 -0.0882
  847MOL0     C16813   5.181   5.369  -0.672  0.6366  0.2873 -0.6827
  847MOL0     C16814   4.559   4.989  -0.293 -0.6382  1.1886 -0.1425
  847MOL0     C16815   4.456   4.950  -0.219 -0.5476 -0.6478 -0.6873
  847MOL0     C16816   4.400   4.812  -0.237 -0.1565  0.8673  0.4233
  847MOL0     H16817   4.195   5.166   0.295  1.1763  1.5715 -3.2148
  847MOL0     H16818   3.966   5.173   0.394 -3.6877  3.6503 -1.8944
  847MOL0     H16819   3.736   5.137   0.492  1.4553  1.6079 -2.5299
  847MOL0     H16820   3.806   4.975   0.454 -0.1790 -0.1563 -1.1423
  847MOL0     H16821   3.587   4.990   0.571 -0.2963 -0.3030 -0.2112
  847MOL0     H16822   3.520   5.038   0.415 -1.9074 -3.4455 -0.6961
  847MOL0     H16823   3.606   4.851   0.303  0.0379  1.5006  0.1131
  847MOL0     H16824   3.670   4.772   0.441  0.1637 -1.9691 -1.8060
  847MOL0     H16825   3.452   4.771   0.548  1.0913  2.6115  0.8866
  847MOL0     H16826   3.380   4.868   0.414  0.7446 -0.6549 -4.0519
  847MOL0     H16827   3.387   4.701   0.260 -0.7060  2.2731  0.4769
  847MOL0     H16828   3.310   4.640   0.394 -0.9678 -2.9219 -1.3706
  847MOL0     H16829   3.475   4.464   0.321 -0.5394 -0.8176  1.9841
  847MOL0     H16830   3.601   4.586   0.369 -0.9605  0.9785 -4.8527
  847MOL0     H16831   3.388   4.464   0.545 -0.0955 -0.3951 -2.1122
  847MOL0     H16832   3.511   4.587   0.588  4.3582  0.3962 -3.3635
  847MOL0     H16833   3.691   4.430   0.585 -0.0203  2.5690  0.4036
  847MOL0     H16834   3.557   4.357   0.685 -0.2207  1.3290 -0.5850
  847MOL0     H16835   3.385   4.195   0.552 -1.2657 -0.7400 -1.5148
  847MOL0     H16836   3.337   4.014   0.298  1.6535 -0.1013 -2.0485
  847MOL0     H16837   3.367   3.946   0.452  1.4477 -3.8234 -0.4289
  847MOL0     H16838   3.410   3.761   0.345 -2.2056  1.5287 -1.1895
  847MOL0     H16839   3.512   3.839   0.219  1.4680  1.0062  0.5383
  847MOL0     H16840   3.694   3.873   0.363 -0.7663  1.4400  0.7965
  847MOL0     H16841   3.595   3.826   0.500 -4.3767  0.9369  0.1334
  847MOL0     H16842   3.545   3.608   0.369 -2.0624  2.8126  2.3572
  847MOL0     H16843   3.645   3.652   0.245 -2.3023 -0.1184  0.2842
  847MOL0     H16844   3.967   3.534   0.466 -2.9307  3.5033 -3.3527
  847MOL0     H16845   4.200   3.326   0.375  0.1155  1.5834 -0.3402
  847MOL0     H16846   4.125   3.200   0.483  2.6133  1.0827  1.4345
  847MOL0     H16847   4.139   3.358   0.543 -0.6089 -0.9966  0.6623
  847MOL0     H16848   4.267   2.983   0.367 -0.3400 -0.4256 -4.7915
  847MOL0     H16849   4.393   2.765   0.313 -0.2576  2.2324 -2.3862
  847MOL0     H16850   4.178   2.371   0.303 -0.9963 -0.4642 -0.9166
  847MOL0     H16851   4.128   2.437   0.145 -1.1900  1.9425  0.5202
  847MOL0     H16852   4.354   2.397   0.065  1.4118  1.7437  2.7810
  847MOL0     H16853   4.396   2.320   0.211  2.2112  0.6117 -2.7634
  847MOL0     H16854   4.166   2.244   0.041  1.6195 -0.7134 -1.8039
  847MOL0     H16855   4.208   2.149   0.194  1.2381  0.3495  1.4011
  847MOL0     H16856   4.336   2.145  -0.070 -0.2981 -0.3391 -0.4351
  847MOL0     H16857   4.268   2.005   0.009  0.8821 -0.3598 -0.3808
  847MOL0     H16858   4.507   2.006   0.008 -2.7269 -1.8441  0.7407
  847MOL0     H16859   4.530   2.162   0.090 -1.9911  0.8469 -1.5936
  847MOL0     H16860   4.468   2.053   0.306  1.6271  1.1612 -0.5068
  847MOL0     H16861   4.592   1.979   0.227 -0.1879 -1.5610  0.0374
  847MOL0     H16862   4.349   1.855   0.108  1.1742  3.0856 -0.7254
  847MOL0     H16863   4.310   1.870   0.281  0.0977 -2.0546  1.5247
  847MOL0     H16864   4.551   1.707   0.177  1.1671  2.3212  0.2672
  847MOL0     H16865   4.396   1.650   0.246  1.7808 -2.7429  3.7557
  847MOL0     H16866   4.021   2.573   0.267  0.6746 -1.3556  0.1955
  847MOL0     H16867   3.896   2.787   0.338 -1.1513 -2.1179  1.1896
  847MOL0     H16868   3.709   3.161   0.272 -0.2126  0.0907  0.4334
  847MOL0     H16869   3.614   3.382   0.293  0.0083  0.1553 -4.2166
  847MOL0     H16870   3.801   5.030   0.022  0.9409 -0.3882  0.0325
  847MOL0     H16871   4.018   5.036  -0.070 -3.5419 -1.8517  0.2686
  847MOL0     H16872   4.406   5.246  -0.058 -1.5495  1.4912 -2.7185
  847MOL0     H16873   4.585   5.316  -0.223  0.2258  0.6144  0.6141
  847MOL0     H16874   4.839   5.014  -0.397 -0.3303  0.0733  0.4081
  847MOL0     H16875   4.710   5.037  -0.522 -1.1367  1.1501  2.0220
  847MOL0     H16876   4.874   5.108  -0.631 -0.7602 -0.3674  0.1375
  847MOL0     H16877   4.966   5.167  -0.480  0.8231 -1.4575 -1.4958
  847MOL0     H16878   4.727   5.305  -0.598  0.8529  0.8965 -0.7647
  847MOL0     H16879   4.846   5.381  -0.490 -3.9609  0.0093  2.2757
  847MOL0     H16880   4.879   5.480  -0.678  3.3281  0.1023  3.8150
  847MOL0     H16881   4.871   5.325  -0.782 -1.6313 -1.2342  0.0382
  847MOL0     H16882   5.287   5.363  -0.657  0.7970  1.7432 -1.0786
  847MOL0     H16883   4.592   4.917  -0.367 -0.5907  0.1771  0.8319
  847MOL0     H16884   4.291   4.819  -0.236 -0.2591  3.5752 -3.6642
  847MOL0     H16885   4.422   4.760  -0.331 -0.6534  0.1464  0.6956
  847MOL0     H16886   4.440   4.748  -0.158 -0.6604  1.5629  1.2641
  848MOL0     O16887   5.909   7.907   6.187 -0.5568 -0.5814 -0.2234
  848MOL0     C16888   5.808   7.963   6.145 -0.2008 -0.6761 -0.0313
  848MOL0     O16889   5.716   7.894   6.077  0.0764  0.1130  0.2116
  848MOL0     C16890   5.741   7.767   6.034 -0.3281 -1.4954 -0.7348
  848MOL0     C16891   5.859   7.731   5.964  0.2915  0.5625 -0.0790
  848MOL0     C16892   5.872   7.603   5.899 -0.9473 -0.6954 -0.8621
  848MOL0     C16893   5.764   7.511   5.898  0.7495  1.3186 -0.3921
  848MOL0     O16894   5.768   7.384   5.840  0.8616 -0.0233  0.5139
  848MOL0     C16895   5.805   7.381   5.707 -0.4560 -0.2840 -0.2434
  848MOL0     C16896   5.850   7.238   5.688  0.6345  0.7253  0.3712
  848MOL0     C16897   5.784   7.187   5.559  0.9484  0.3455 -0.7953
  848MOL0     C16898   5.634   7.152   5.600 -0.7960 -0.2161 -0.6124
  848MOL0     C16899   5.532   7.114   5.484 -0.3790  0.7367  0.7570
  848MOL0     C16900   5.462   7.239   5.427  1.0147 -0.0132 -0.4394
  848MOL0     C16901   5.347   7.201   5.330  0.4802  1.0473 -0.2538
  848MOL0     C16902   5.306   7.320   5.242  0.5923  1.0139 -0.2135
  848MOL0     N16903   5.248   7.434   5.321 -0.0293 -1.0171 -0.4111
  848MOL0     C16904   5.134   7.434   5.393  0.1169 -0.2448  0.5286
  848MOL0     C16905   5.113   7.564   5.426  0.9238  0.0570 -0.5238
  848MOL0     C16906   4.990   7.611   5.502 -0.2740 -0.4537 -0.8042
  848MOL0     C16907   4.869   7.654   5.415  0.2671 -0.5976 -0.4404
  848MOL0     C16908   4.896   7.804   5.365 -0.1808  0.1881 -0.0930
  848MOL0     C16909   4.787   7.866   5.289  0.9157  0.1468  0.4357
  848MOL0     O16910   4.714   7.769   5.215  0.4203  0.0913 -0.1438
  848MOL0     C16911   4.620   7.811   5.112 -0.3033 -0.2667  0.1110
  848MOL0     C16912   4.574   7.715   5.021 -0.2018  0.6424  0.0358
  848MOL0     C16913   4.493   7.753   4.913 -0.2659  1.2045 -0.2169
  848MOL0     C16914   4.457   7.644   4.822  0.1778  0.5094 -0.0834
  848MOL0     C16915   4.452   7.884   4.891 -0.5298  0.1716  0.6826
  848MOL0     C16916   4.358   7.928   4.786 -0.0429 -0.5028 -0.3603
  848MOL0     O16917   4.312   7.849   4.693 -0.4729  0.3511 -0.4863
  848MOL0     C16918   4.221   7.907   4.609  0.4098 -0.3768 -0.3083
  848MOL0     C16919   4.090   7.963   4.631 -0.3985 -0.2571 -0.0583
  848MOL0     C16920   4.022   8.023   4.530 -0.6854 -0.2017  0.1842
  848MOL0     C16921   4.070   8.026   4.396 -0.5691 -0.1968  0.4181
  848MOL0     O16922   4.023   8.091   4.273 -0.2957  0.2851 -0.3456
  848MOL0     C16923   3.907   8.171   4.286 -0.0223  0.0815  0.3499
  848MOL0     C16924   3.933   8.311   4.352 -0.4941 -0.5357 -0.3364
  848MOL0     C16925   4.053   8.393   4.297 -0.4223 -0.6270  0.3889
  848MOL0     C16926   4.090   8.523   4.369  0.2039 -0.7244 -0.1928
  848MOL0     C16927   4.147   8.487   4.508  0.0935 -0.7846  0.1170
  848MOL0     C16928   4.290   8.424   4.501 -0.0052 -0.1683 -0.4235
  848MOL0     C16929   4.358   8.441   4.636 -0.8215  0.9294  0.7403
  848MOL0     C16930   4.309   8.333   4.737 -0.4682 -0.4594  0.7208
  848MOL0    Cl16931   4.392   8.348   4.904 -0.0705 -0.1246  0.4822
  848MOL0     C16932   4.184   7.965   4.358  0.4457  0.4102  0.5011
  848MOL0     C16933   4.250   7.896   4.468 -0.4115  0.0535 -0.5007
  848MOL0     O16934   4.306   8.036   4.819  0.2568  1.0814  0.0865
  848MOL0     C16935   4.498   7.975   4.981 -0.3476 -0.0624 -0.0426
  848MOL0     C16936   4.580   7.948   5.087 -0.0088 -0.0420 -0.4184
  848MOL0     N16937   5.212   7.640   5.362 -0.4729  0.0593 -0.2900
  848MOL0     N16938   5.292   7.563   5.306 -0.1826  0.3578  0.5547
  848MOL0     C16939   5.655   7.546   5.971  0.0944 -1.1056 -0.2558
  848MOL0     C16940   5.644   7.671   6.035  0.4864  0.2523 -0.1462
  848MOL0     C16941   5.791   8.118   6.159  0.1566 -0.4535  0.2096
  848MOL0     C16942   5.661   8.164   6.143  0.3335  0.5056 -0.1242
  848MOL0     C16943   5.637   8.291   6.153  1.3964 -0.6015 -0.3960
  848MOL0     C16944   5.726   8.385   6.188  0.5349 -0.2395 -0.9316
  848MOL0     O16945   5.682   8.515   6.194 -0.4372 -0.1568  0.2511
  848MOL0     C16946   5.763   8.599   6.269  0.6008 -0.8443 -0.0032
  848MOL0     C16947   5.686   8.729   6.304  0.5156  0.1552  0.1509
  848MOL0     C16948   5.766   8.812   6.407 -0.5436 -0.2727 -0.3070
  848MOL0     C16949   5.679   8.935   6.467  0.1223  0.4901 -0.2284
  848MOL0     C16950   5.653   9.038   6.368 -0.3196 -0.1367  0.4947
  848MOL0     C16951   5.626   9.133   6.295 -0.2443  0.1510  1.1907
  848MOL0     C16952   5.859   8.343   6.206  0.4837  1.1821  0.4872
  848MOL0     C16953   5.895   8.207   6.192 -0.1810  0.7105 -0.1131
  848MOL0     C16954   6.041   8.164   6.206 -0.0876 -0.0638 -0.3319
  848MOL0     H16955   5.949   7.792   5.952  2.5976 -2.0136  2.5580
  848MOL0     H16956   5.964   7.589   5.843  1.4904  2.0762  2.0068
  848MOL0     H16957   5.881   7.453   5.674 -1.8123  1.7644  0.9115
  848MOL0     H16958   5.720   7.400   5.642  0.4761 -2.5605 -2.2777
  848MOL0     H16959   5.959   7.236   5.675  0.4276  2.1115 -2.2443
  848MOL0     H16960   5.824   7.176   5.774  0.0702  0.2485 -0.1400
  848MOL0     H16961   5.774   7.273   5.491  0.7689  2.8333  2.1542
  848MOL0     H16962   5.845   7.108   5.513 -0.8022 -1.2183 -0.5146
  848MOL0     H16963   5.637   7.070   5.672 -0.0188  0.8524  0.6196
  848MOL0     H16964   5.598   7.242   5.650  1.2664  1.2934 -1.6655
  848MOL0     H16965   5.450   7.053   5.524 -1.2240  0.9228 -0.6575
  848MOL0     H16966   5.581   7.049   5.411  0.3473 -1.3308  2.9522
  848MOL0     H16967   5.426   7.307   5.504  2.0327  0.4552 -0.3641
  848MOL0     H16968   5.544   7.296   5.382  3.5704 -2.6643  0.5708
  848MOL0     H16969   5.260   7.168   5.387  0.4242 -0.8465 -1.3399
  848MOL0     H16970   5.379   7.118   5.265 -0.1288  0.1311  0.5839
  848MOL0     H16971   5.387   7.371   5.190 -1.3075  2.6115 -1.7997
  848MOL0     H16972   5.242   7.287   5.159  1.0352 -1.3700  0.3020
  848MOL0     H16973   5.078   7.350   5.432 -0.4086 -0.1271  0.0355
  848MOL0     H16974   5.023   7.696   5.563 -2.4165  0.0619 -0.2787
  848MOL0     H16975   4.956   7.533   5.571  1.2519  0.2721  0.8315
  848MOL0     H16976   4.862   7.584   5.332  3.0480  1.6866 -2.8311
  848MOL0     H16977   4.783   7.660   5.482  2.5133 -1.1119  2.7127
  848MOL0     H16978   4.901   7.871   5.451 -3.4854  1.0358 -0.4129
  848MOL0     H16979   4.979   7.799   5.295 -0.6658 -2.8766 -0.6136
  848MOL0     H16980   4.714   7.923   5.347 -3.6549 -2.2627 -2.2266
  848MOL0     H16981   4.833   7.923   5.208  3.5050 -4.9537 -2.1648
  848MOL0     H16982   4.603   7.611   5.037  2.8836  1.4920  0.5710
  848MOL0     H16983   4.533   7.566   4.824  0.3056  0.6323 -0.1679
  848MOL0     H16984   4.446   7.678   4.718 -0.2649 -2.2506 -1.0261
  848MOL0     H16985   4.363   7.597   4.853  2.5045 -2.8757  2.5191
  848MOL0     H16986   4.049   7.969   4.731 -1.1627 -0.2091 -0.3653
  848MOL0     H16987   3.925   8.070   4.545 -0.8598 -0.3629 -0.4138
  848MOL0     H16988   3.863   8.191   4.188 -1.9351  2.4559  1.5567
  848MOL0     H16989   3.827   8.120   4.340 -2.2769 -0.4538 -3.1758
  848MOL0     H16990   3.841   8.370   4.345  0.0007  0.5147  1.5615
  848MOL0     H16991   3.969   8.285   4.452 -0.7835  2.7223  0.7322
  848MOL0     H16992   4.026   8.425   4.195 -4.3199 -1.9510  0.8120
  848MOL0     H16993   4.139   8.328   4.285  0.5382  0.6892 -0.1241
  848MOL0     H16994   4.003   8.578   4.406  0.8425 -1.1968  2.2316
  848MOL0     H16995   4.161   8.579   4.307  0.2818 -3.3369 -2.6179
  848MOL0     H16996   4.161   8.586   4.551  0.6270 -0.0223 -1.7097
  848MOL0     H16997   4.076   8.425   4.564  0.8706  0.7726  3.0155
  848MOL0     H16998   4.344   8.472   4.419 -2.9698  1.6865 -1.4401
  848MOL0     H16999   4.267   8.320   4.476 -0.4557 -0.2245  0.2070
  848MOL0     H17000   4.326   8.534   4.683 -2.0598  1.1421 -0.4485
  848MOL0     H17001   4.467   8.444   4.630 -0.9293  2.0593 -2.0496
  848MOL0     H17002   4.340   8.234   4.702  0.7137  0.2885 -0.4298
  848MOL0     H17003   4.200   8.326   4.742 -0.3463 -2.5816  2.0498
  848MOL0     H17004   4.225   7.967   4.258 -1.2674 -0.5177 -0.2680
  848MOL0     H17005   4.349   7.851   4.464 -0.7271 -0.6960 -0.0690
  848MOL0     H17006   4.449   8.072   4.978 -0.9224 -0.1607  3.0356
  848MOL0     H17007   4.624   8.019   5.155 -0.9248 -1.4915  1.7959
  848MOL0     H17008   5.565   7.485   5.973  0.7897 -2.1448  0.1768
  848MOL0     H17009   5.540   7.677   6.066  0.0963  3.0349 -1.6571
  848MOL0     H17010   5.576   8.097   6.130  3.1974 -3.3687 -0.7394
  848MOL0     H17011   5.535   8.326   6.136  0.3543 -1.7119  2.7458
  848MOL0     H17012   5.799   8.539   6.352  3.8088 -0.4238 -0.9667
  848MOL0     H17013   5.848   8.633   6.209  0.6595  0.0644  0.5656
  848MOL0     H17014   5.586   8.703   6.342  1.0643  0.1149  1.6318
  848MOL0     H17015   5.675   8.792   6.215  0.4262 -0.7734 -0.5018
  848MOL0     H17016   5.795   8.747   6.490  0.7824  0.3137 -0.2890
  848MOL0     H17017   5.853   8.858   6.361 -1.7512  2.6248  0.1173
  848MOL0     H17018   5.738   8.982   6.546 -1.2503  3.5187 -0.8295
  848MOL0     H17019   5.590   8.899   6.519  1.8338 -1.2022  1.7265
  848MOL0     H17020   5.587   9.220   6.247  1.7245  1.0763  1.1659
  848MOL0     H17021   5.932   8.420   6.230  0.3089  1.8527 -1.0067
  848MOL0     H17022   6.060   8.067   6.253 -0.8306 -0.1568 -0.2100
  848MOL0     H17023   6.085   8.169   6.106  2.5745 -1.6589  0.6424
  848MOL0     H17024   6.101   8.232   6.267  1.2831  0.3129 -2.0281
  849MOL0     O17025   3.681   3.184   2.496 -1.2023  0.0190  0.8343
  849MOL0     C17026   3.769   3.097   2.485  0.5656 -0.5389  0.0816
  849MOL0     O17027   3.788   2.990   2.578  0.2084  1.1434 -0.0223
  849MOL0     C17028   3.712   2.983   2.696  0.3444 -0.4395 -0.2388
  849MOL0     C17029   3.768   3.028   2.818  0.4732  0.4782  1.8716
  849MOL0     C17030   3.692   3.016   2.932 -0.8543 -0.7669  0.2963
  849MOL0     C17031   3.566   2.970   2.936  0.9967 -0.3193 -0.1705
  849MOL0     O17032   3.502   2.966   3.053 -0.6355 -0.1120 -0.8944
  849MOL0     C17033   3.358   2.965   3.047 -0.5611  0.1639 -0.0862
  849MOL0     C17034   3.318   2.985   3.189  0.2284 -0.0920 -0.4044
  849MOL0     C17035   3.376   3.118   3.242 -0.4042 -0.8829  0.1438
  849MOL0     C17036   3.288   3.170   3.361  0.0611  0.0813 -0.2530
  849MOL0     C17037   3.176   3.242   3.303  1.2169 -0.1554 -0.0764
  849MOL0     C17038   3.052   3.231   3.407 -1.1047 -0.3079  1.0469
  849MOL0     C17039   2.926   3.295   3.356  0.7058  0.1112  0.8158
  849MOL0     C17040   2.877   3.242   3.220 -0.0751  0.4669  0.6147
  849MOL0     N17041   2.821   3.111   3.228  0.8511  0.5268  0.7968
  849MOL0     C17042   2.689   3.081   3.257  0.1583  0.1432 -0.3639
  849MOL0     C17043   2.677   2.952   3.250 -0.1952 -1.3800  0.6907
  849MOL0     C17044   2.548   2.889   3.284 -0.4408 -0.3788 -0.2959
  849MOL0     C17045   2.486   2.818   3.167 -1.3122  0.2177  0.4393
  849MOL0     C17046   2.398   2.705   3.228  0.0348  0.2184  0.0726
  849MOL0     C17047   2.292   2.664   3.127 -0.2905  0.1297  0.5463
  849MOL0     O17048   2.193   2.768   3.111 -0.4528  0.4615  0.1061
  849MOL0     C17049   2.091   2.748   3.024  0.6386 -0.6065  0.1109
  849MOL0     C17050   2.016   2.861   2.994  0.4874 -0.5781  0.3977
  849MOL0     C17051   1.924   2.873   2.885  1.2493 -1.4171 -0.3821
  849MOL0     C17052   1.831   2.989   2.879  0.1248  0.4005 -0.3755
  849MOL0     C17053   1.916   2.762   2.797 -0.1146  0.7239 -1.3497
  849MOL0     C17054   1.840   2.749   2.674  0.1788  0.1006 -1.4223
  849MOL0     O17055   1.709   2.801   2.686  0.7636 -0.0275  0.3873
  849MOL0     C17056   1.641   2.815   2.569 -0.1663 -1.3109 -0.2398
  849MOL0     C17057   1.667   2.921   2.476  0.0398  0.9985 -0.5680
  849MOL0     C17058   1.592   2.953   2.363  0.7047  1.1481 -0.5539
  849MOL0     C17059   1.477   2.866   2.330 -0.1040  0.4414 -1.0726
  849MOL0     O17060   1.414   2.896   2.216  0.5029 -0.4175 -0.0202
  849MOL0     C17061   1.315   2.797   2.171  0.7756 -0.1110 -0.4179
  849MOL0     C17062   1.221   2.876   2.078  0.4433  0.2315 -0.2064
  849MOL0     C17063   1.075   2.820   2.055 -0.4467  0.4416 -0.2243
  849MOL0     C17064   1.069   2.672   2.011 -0.4679  0.2845 -1.1185
  849MOL0     C17065   0.927   2.614   2.028 -0.0314 -0.5769 -0.1166
  849MOL0     C17066   0.872   2.616   2.173  0.1343 -0.5118 -0.7885
  849MOL0     C17067   0.767   2.505   2.198 -0.1898  0.0133  0.4858
  849MOL0     C17068   0.680   2.539   2.318 -0.9770 -0.3250 -1.1808
  849MOL0    Cl17069   0.585   2.675   2.298 -0.3147 -0.8081 -0.0169
  849MOL0     C17070   1.464   2.754   2.413 -0.1523  0.1605  0.1847
  849MOL0     C17071   1.533   2.732   2.531  0.2330  0.6138 -0.5241
  849MOL0     O17072   1.890   2.710   2.573  0.3355 -0.2866 -0.7233
  849MOL0     C17073   1.993   2.647   2.833 -1.0589  0.2880 -0.5307
  849MOL0     C17074   2.076   2.638   2.948  0.0562  0.6356  0.8715
  849MOL0     N17075   2.805   2.897   3.224 -0.2840  0.5991 -0.1625
  849MOL0     N17076   2.892   2.992   3.204  0.2450 -0.4534 -0.2547
  849MOL0     C17077   3.510   2.932   2.814 -0.1610  0.3429  0.3221
  849MOL0     C17078   3.577   2.938   2.696  0.2770 -0.4060 -0.0532
  849MOL0     C17079   3.860   3.096   2.363 -0.7817 -0.5405 -0.5341
  849MOL0     C17080   3.973   3.024   2.379 -0.5498 -0.2863  0.9154
  849MOL0     C17081   4.070   3.018   2.286 -0.0539 -0.1626  0.3043
  849MOL0     C17082   4.048   3.082   2.162 -1.4425  0.2594  0.2517
  849MOL0     O17083   4.137   3.058   2.065 -0.1093 -0.5721  0.8065
  849MOL0     C17084   4.093   3.010   1.938  0.7448 -0.4868  0.5192
  849MOL0     C17085   4.048   2.864   1.933  0.5253 -0.3851 -0.7251
  849MOL0     C17086   3.899   2.843   1.979 -0.0448 -0.6453 -0.7327
  849MOL0     C17087   3.851   2.695   1.967 -0.8046  0.2315  0.2436
  849MOL0     C17088   3.947   2.618   2.060 -0.1009 -0.7769 -0.0949
  849MOL0     C17089   4.033   2.563   2.128  0.1080 -0.0283  0.9974
  849MOL0     C17090   3.930   3.159   2.145 -0.3287  0.8080  0.5017
  849MOL0     C17091   3.840   3.172   2.246 -0.3021 -0.1162 -0.9737
  849MOL0     C17092   3.721   3.255   2.217 -0.4022  0.4925 -1.0075
  849MOL0     H17093   3.872   3.056   2.821  0.2392  1.6914  0.1332
  849MOL0     H17094   3.756   3.030   3.018 -0.5753 -3.6438  0.6424
  849MOL0     H17095   3.333   2.863   3.016  4.5590 -1.7832  1.0307
  849MOL0     H17096   3.318   3.042   2.981  1.1899 -0.5028 -2.0570
  849MOL0     H17097   3.209   2.985   3.199  0.3407  0.2193  0.8954
  849MOL0     H17098   3.349   2.902   3.254  0.6582  0.5150  0.1816
  849MOL0     H17099   3.478   3.117   3.281 -0.8025 -0.7804  1.2093
  849MOL0     H17100   3.384   3.193   3.163 -0.1447 -0.2080  0.8035
  849MOL0     H17101   3.246   3.095   3.428  0.8918  1.0352  1.3807
  849MOL0     H17102   3.346   3.235   3.427  2.1803  0.1085 -2.0149
  849MOL0     H17103   3.141   3.202   3.208 -0.7304  0.3231  0.3833
  849MOL0     H17104   3.219   3.338   3.275  0.5242 -0.3229 -1.8420
  849MOL0     H17105   3.017   3.128   3.420 -0.0059 -0.8858 -0.3214
  849MOL0     H17106   3.093   3.276   3.497  3.9111 -0.9027 -0.6176
  849MOL0     H17107   2.949   3.399   3.334  1.4050 -0.1685  0.1388
  849MOL0     H17108   2.847   3.288   3.431  0.5050  2.2963  0.8701
  849MOL0     H17109   2.806   3.314   3.178 -0.8295 -0.4258  0.3170
  849MOL0     H17110   2.953   3.244   3.142 -2.8503 -3.1920 -2.6091
  849MOL0     H17111   2.610   3.150   3.289 -0.8154 -1.2393  0.3091
  849MOL0     H17112   2.487   2.945   3.356  0.5590  1.0936 -0.5388
  849MOL0     H17113   2.579   2.800   3.340 -2.3662 -1.8447 -1.4449
  849MOL0     H17114   2.435   2.886   3.098  0.1835  1.1834  0.2268
  849MOL0     H17115   2.563   2.775   3.103 -3.3004  0.7250 -2.4591
  849MOL0     H17116   2.453   2.618   3.265  0.2950 -0.4276 -1.7230
  849MOL0     H17117   2.341   2.745   3.312 -1.5996  1.5943 -1.5990
  849MOL0     H17118   2.332   2.635   3.030 -0.1950 -2.6552  1.3248
  849MOL0     H17119   2.244   2.573   3.163 -0.0509 -2.3001 -4.4804
  849MOL0     H17120   2.020   2.949   3.058  2.3111  0.5861 -1.2071
  849MOL0     H17121   1.747   2.978   2.948  0.7766 -2.1945  0.1034
  849MOL0     H17122   1.800   3.023   2.780  0.4249  2.7783  0.2813
  849MOL0     H17123   1.885   3.079   2.911  0.8553  0.9473 -2.8829
  849MOL0     H17124   1.750   2.988   2.494  1.4284 -0.9330  0.7465
  849MOL0     H17125   1.608   3.046   2.309  1.6018  1.8238  0.8162
  849MOL0     H17126   1.370   2.720   2.117  0.2073 -1.6763  1.1623
  849MOL0     H17127   1.253   2.757   2.251 -1.9081  2.9602 -0.7401
  849MOL0     H17128   1.213   2.974   2.126 -2.1587  0.7045 -1.4467
  849MOL0     H17129   1.282   2.896   1.990  1.8601  3.1011  1.2981
  849MOL0     H17130   1.020   2.881   1.984 -0.8533  1.7926  1.2037
  849MOL0     H17131   1.032   2.822   2.156 -0.3601 -0.3783 -0.1653
  849MOL0     H17132   1.134   2.613   2.076 -1.8550 -0.0350  0.0469
  849MOL0     H17133   1.097   2.661   1.906 -0.2419 -1.6607 -0.9034
  849MOL0     H17134   0.860   2.666   1.959  0.7140  0.6298  0.0568
  849MOL0     H17135   0.929   2.507   2.002  2.7983 -0.9450  1.3377
  849MOL0     H17136   0.827   2.711   2.201 -2.2170 -1.2632 -1.7671
  849MOL0     H17137   0.950   2.595   2.247  0.5762  1.7416 -0.5567
  849MOL0     H17138   0.819   2.412   2.221  2.2889  1.4294  0.9901
  849MOL0     H17139   0.704   2.492   2.110 -2.9685  0.8488  2.2423
  849MOL0     H17140   0.754   2.559   2.396  1.9958 -0.8166 -3.6882
  849MOL0     H17141   0.622   2.450   2.343 -0.5391 -0.6985 -1.4773
  849MOL0     H17142   1.394   2.681   2.375  0.1077  0.6290 -1.2224
  849MOL0     H17143   1.502   2.658   2.605 -1.4892  2.2409  0.4905
  849MOL0     H17144   1.985   2.566   2.761 -0.0476  0.0091 -0.3488
  849MOL0     H17145   2.146   2.555   2.945 -0.6261  0.0581 -2.1743
  849MOL0     H17146   3.414   2.883   2.824  0.6114 -1.8088 -1.8835
  849MOL0     H17147   3.540   2.920   2.595  2.7596 -2.4533 -0.6988
  849MOL0     H17148   3.984   2.973   2.474  1.2254 -2.9539 -0.5790
  849MOL0     H17149   4.167   2.974   2.303  0.3303  0.3315 -0.5846
  849MOL0     H17150   4.015   3.064   1.883 -0.2608 -2.3635 -0.0156
  849MOL0     H17151   4.182   3.022   1.876  1.3122 -3.2308  0.6746
  849MOL0     H17152   4.116   2.799   1.988  0.0121  0.1656  0.6069
  849MOL0     H17153   4.056   2.819   1.834  0.1091  1.1198 -1.4763
  849MOL0     H17154   3.886   2.877   2.083 -1.5134  3.7561 -2.1253
  849MOL0     H17155   3.830   2.903   1.919 -1.0518  0.4695  1.4090
  849MOL0     H17156   3.864   2.669   1.861 -0.1449  1.1540  0.0936
  849MOL0     H17157   3.747   2.675   1.994 -1.6840 -0.5918 -3.2124
  849MOL0     H17158   4.119   2.516   2.173  0.1153 -1.3272 -0.2844
  849MOL0     H17159   3.908   3.216   2.056 -2.2315 -0.1394  0.3211
  849MOL0     H17160   3.728   3.313   2.124  1.0502 -0.1492 -1.3208
  849MOL0     H17161   3.634   3.191   2.197  0.3021  0.1869 -3.4434
  849MOL0     H17162   3.713   3.319   2.305  1.9958 -1.6133  0.8704
  850MOL0     O17163   5.222  10.959   5.003  0.1027  0.3183  0.1701
  850MOL0     C17164   5.312  10.880   5.018  0.2962 -0.3986  0.0295
  850MOL0     O17165   5.404  10.852   4.917 -0.2060 -0.3653  0.2912
  850MOL0     C17166   5.393  10.918   4.795 -0.5991  0.4702 -0.6684
  850MOL0     C17167   5.477  11.030   4.777 -0.5886  0.4009  0.1553
  850MOL0     C17168   5.488  11.084   4.647  0.4863 -0.1364 -0.7185
  850MOL0     C17169   5.406  11.040   4.538 -0.4234 -0.2600 -0.0695
  850MOL0     O17170   5.419  11.107   4.417  0.0216  0.0809  0.9700
  850MOL0     C17171   5.345  11.052   4.303  1.3043 -0.3395  0.1704
  850MOL0     C17172   5.384  11.123   4.169 -0.0429  0.6832 -0.0001
  850MOL0     C17173   5.303  11.059   4.054 -0.9547 -0.1023 -0.9818
  850MOL0     C17174   5.183  11.133   4.005 -0.9848 -0.2860 -1.3055
  850MOL0     C17175   5.115  11.078   3.883  0.1356 -1.0151  0.1825
  850MOL0     C17176   4.994  11.165   3.845  0.0899  0.4876 -0.3667
  850MOL0     C17177   4.968  11.160   3.695  0.3184  0.9213  0.1238
  850MOL0     C17178   4.843  11.247   3.656 -0.4118 -0.2986 -1.0669
  850MOL0     N17179   4.824  11.251   3.514 -0.5738  0.0846  0.2447
  850MOL0     C17180   4.792  11.141   3.434 -0.8536 -0.4552 -0.0155
  850MOL0     C17181   4.788  11.191   3.307  0.3851  0.6028 -0.1021
  850MOL0     C17182   4.728  11.119   3.191 -0.2050  0.6630  0.6961
  850MOL0     C17183   4.577  11.116   3.177 -0.4963 -0.9211 -0.8913
  850MOL0     C17184   4.536  11.079   3.037  0.4578 -0.2455  0.6558
  850MOL0     C17185   4.389  11.096   3.019 -0.2567 -0.6288 -0.8502
  850MOL0     O17186   4.349  11.240   3.050  0.3096 -0.2841 -0.1210
  850MOL0     C17187   4.211  11.270   3.061 -0.0263 -0.2515  0.7710
  850MOL0     C17188   4.100  11.176   3.045  0.1591 -0.9884  0.3688
  850MOL0     C17189   3.964  11.209   3.037  0.0123 -0.3942  0.7825
  850MOL0     C17190   3.860  11.093   3.018 -1.0855 -0.2200 -0.0372
  850MOL0     C17191   3.936  11.346   3.033 -0.1098 -0.0185  0.3239
  850MOL0     C17192   3.801  11.391   3.028  0.5384  0.2673  0.6770
  850MOL0     O17193   3.697  11.321   3.085 -0.7016  0.8351  0.4320
  850MOL0     C17194   3.569  11.346   3.043 -1.2266 -0.4690 -0.8208
  850MOL0     C17195   3.502  11.464   3.066  0.1355 -0.1923  0.3569
  850MOL0     C17196   3.371  11.467   3.021  0.9926  0.3755  0.0979
  850MOL0     C17197   3.291  11.357   2.970 -0.3541  0.5851  0.3916
  850MOL0     O17198   3.162  11.365   2.924  0.0980  0.7648  0.5634
  850MOL0     C17199   3.070  11.437   3.005  0.5389 -0.6282  0.0680
  850MOL0     C17200   3.050  11.570   2.928  0.4048  0.2229  0.0561
  850MOL0     C17201   3.022  11.685   3.025  0.1795  0.0907 -0.0352
  850MOL0     C17202   2.986  11.810   2.941  0.6402 -0.1606  0.4356
  850MOL0     C17203   2.945  11.929   3.026 -0.0578  0.8783  0.4036
  850MOL0     C17204   2.825  11.915   3.123 -0.7057 -0.0036  1.2127
  850MOL0     C17205   2.695  11.933   3.044  0.0707  0.1259  0.3402
  850MOL0     C17206   2.601  12.019   3.129 -0.2935  0.5841 -1.1030
  850MOL0    Cl17207   2.524  11.897   3.251  0.3497  0.5363  0.3286
  850MOL0     C17208   3.362  11.240   2.966 -1.1270 -0.2258 -0.3681
  850MOL0     C17209   3.505  11.231   2.993  0.0471  0.3180  0.2438
  850MOL0     O17210   3.791  11.500   2.976 -0.1864 -0.3112  0.1146
  850MOL0     C17211   4.044  11.443   3.060  0.7145  0.6491  0.2163
  850MOL0     C17212   4.177  11.409   3.075 -0.7438  1.1670  0.6865
  850MOL0     N17213   4.827  11.326   3.308  0.1069 -0.1135  0.4434
  850MOL0     N17214   4.846  11.356   3.431  0.1475 -0.1299 -0.0892
  850MOL0     C17215   5.316  10.929   4.565  0.3904 -0.6043  0.3497
  850MOL0     C17216   5.315  10.868   4.696 -1.1275 -0.2166 -0.9531
  850MOL0     C17217   5.335  10.826   5.158  0.0449  1.1275 -0.0874
  850MOL0     C17218   5.461  10.825   5.206  0.3838  0.5586 -0.9313
  850MOL0     C17219   5.493  10.808   5.342  0.7823  0.3006 -0.3003
  850MOL0     C17220   5.391  10.779   5.437  0.0146 -0.2918 -0.1827
  850MOL0     O17221   5.420  10.763   5.571  0.0661 -0.2236  0.1563
  850MOL0     C17222   5.317  10.743   5.665 -0.2291  0.3847 -0.0727
  850MOL0     C17223   5.361  10.762   5.805  0.5152  0.8043 -0.1624
  850MOL0     C17224   5.356  10.910   5.835 -0.7939 -0.7873  0.3233
  850MOL0     C17225   5.362  10.952   5.977  0.8981  1.4498 -0.7484
  850MOL0     C17226   5.469  10.880   6.053  0.1289 -0.3915  0.0666
  850MOL0     C17227   5.562  10.838   6.109  1.2088 -1.0929 -0.4594
  850MOL0     C17228   5.259  10.770   5.396 -0.0960  1.1493 -0.2694
  850MOL0     C17229   5.227  10.802   5.254  0.2548 -0.9862 -0.1280
  850MOL0     C17230   5.079  10.806   5.208 -0.2418  0.8794  0.3937
  850MOL0     H17231   5.546  11.070   4.851  1.3323  0.5790 -1.6330
  850MOL0     H17232   5.573  11.146   4.618  1.5728 -1.3077 -0.1388
  850MOL0     H17233   5.238  11.077   4.310  1.2931 -0.6586  1.3145
  850MOL0     H17234   5.353  10.943   4.294 -5.9874 -1.3001 -1.2313
  850MOL0     H17235   5.371  11.231   4.171  2.0415  1.1048 -2.6677
  850MOL0     H17236   5.492  11.104   4.164  0.2753  2.2292  0.5375
  850MOL0     H17237   5.375  11.054   3.971 -0.4980 -0.0335 -0.5918
  850MOL0     H17238   5.286  10.953   4.075  1.4956 -0.6322 -1.3450
  850MOL0     H17239   5.109  11.132   4.085  0.8799 -2.1236  0.5046
  850MOL0     H17240   5.204  11.239   3.984  0.6539  0.3542  2.7033
  850MOL0     H17241   5.074  10.977   3.893 -2.7757  0.0985  0.1796
  850MOL0     H17242   5.187  11.081   3.801  0.2343 -2.5658  0.1694
  850MOL0     H17243   4.911  11.136   3.909  1.4778  1.1737  1.8681
  850MOL0     H17244   5.019  11.269   3.867  1.7580  0.5084 -2.0710
  850MOL0     H17245   4.942  11.055   3.674 -0.9782  1.1002  0.7168
  850MOL0     H17246   5.060  11.183   3.641 -1.0905  2.1038 -1.9083
  850MOL0     H17247   4.761  11.201   3.711  0.9403  2.1475  3.5554
  850MOL0     H17248   4.849  11.350   3.693  1.6242 -1.3338  1.8787
  850MOL0     H17249   4.761  11.040   3.461 -0.6942 -0.4138  0.3360
  850MOL0     H17250   4.764  11.016   3.181 -0.9653  0.3506  1.0182
  850MOL0     H17251   4.758  11.174   3.101  0.1294  0.5087  0.7115
  850MOL0     H17252   4.538  11.042   3.248 -0.8805 -1.9399 -2.1278
  850MOL0     H17253   4.548  11.216   3.210  2.2672 -0.2811 -0.0581
  850MOL0     H17254   4.566  11.150   2.960  0.9099 -1.6448 -0.5075
  850MOL0     H17255   4.563  10.977   3.007  3.7779  0.5238  0.7518
  850MOL0     H17256   4.356  11.067   2.919  1.0801 -0.2404 -1.4171
  850MOL0     H17257   4.348  11.036   3.100  2.3502 -2.6911 -0.9420
  850MOL0     H17258   4.122  11.070   3.034  0.2077 -1.0742  1.1707
  850MOL0     H17259   3.812  11.071   3.114  1.4335  0.6431  1.5060
  850MOL0     H17260   3.915  11.010   2.973 -1.0310  0.4108 -1.1726
  850MOL0     H17261   3.789  11.122   2.940 -1.3518 -0.6337  0.0463
  850MOL0     H17262   3.551  11.555   3.098  0.3431  0.3121 -1.3041
  850MOL0     H17263   3.311  11.557   3.026  0.5788  0.1481 -0.7040
  850MOL0     H17264   2.972  11.389   3.008 -0.7434  1.6128 -2.0973
  850MOL0     H17265   3.103  11.467   3.105  0.1457  2.7327 -0.6848
  850MOL0     H17266   3.136  11.612   2.874 -0.5056 -1.2726 -2.8101
  850MOL0     H17267   2.964  11.552   2.863 -0.0169 -0.8775  0.9143
  850MOL0     H17268   3.114  11.703   3.080  1.4609 -2.9424 -0.9922
  850MOL0     H17269   2.955  11.642   3.100 -0.1248  0.5956 -0.0095
  850MOL0     H17270   2.893  11.793   2.886  0.1617  3.8934 -0.3409
  850MOL0     H17271   3.057  11.843   2.866 -2.1346 -0.1154 -2.3830
  850MOL0     H17272   3.027  11.961   3.092 -0.8277  2.7150  0.5432
  850MOL0     H17273   2.933  12.012   2.955  1.1480 -0.5491 -1.5808
  850MOL0     H17274   2.841  11.994   3.198  0.4822  1.5802 -0.5988
  850MOL0     H17275   2.826  11.816   3.170  0.3023  0.5489  2.4197
  850MOL0     H17276   2.650  11.839   3.009  3.2106 -1.4944  0.3092
  850MOL0     H17277   2.723  11.995   2.958 -0.1720  0.0699  0.2203
  850MOL0     H17278   2.513  12.067   3.084 -0.9512 -0.5379 -1.0643
  850MOL0     H17279   2.654  12.098   3.183 -1.5633  2.1920 -2.1004
  850MOL0     H17280   3.304  11.161   2.918  0.0677 -1.8405  0.7555
  850MOL0     H17281   3.556  11.138   2.976  0.8043  1.0253 -1.5412
  850MOL0     H17282   4.008  11.545   3.050 -1.3821 -0.2683 -6.2127
  850MOL0     H17283   4.258  11.477   3.098 -0.8494  0.5422  3.1229
  850MOL0     H17284   5.251  10.902   4.482  1.9168 -0.4175 -0.9554
  850MOL0     H17285   5.240  10.793   4.719 -0.5117 -0.7002 -0.4747
  850MOL0     H17286   5.539  10.854   5.136  3.0628  1.1311  2.0658
  850MOL0     H17287   5.587  10.826   5.394  0.4854  0.8959  0.0477
  850MOL0     H17288   5.236  10.815   5.646 -1.9935 -1.1148  1.3351
  850MOL0     H17289   5.281  10.640   5.655 -0.0964 -0.2662  4.3851
  850MOL0     H17290   5.462  10.722   5.816  0.4394  0.8214  0.6657
  850MOL0     H17291   5.295  10.705   5.871  1.6222 -2.8655 -1.9493
  850MOL0     H17292   5.438  10.957   5.780 -1.6944  0.7500  0.2324
  850MOL0     H17293   5.266  10.954   5.790 -0.2527  0.1581  0.1305
  850MOL0     H17294   5.259  10.943   6.012 -0.0043  4.6002 -2.2117
  850MOL0     H17295   5.394  11.056   5.976  4.8040  0.4047 -1.9032
  850MOL0     H17296   5.635  10.792   6.173  0.3192 -2.3943 -0.3432
  850MOL0     H17297   5.180  10.737   5.462  1.8465  1.1420  2.1801
  850MOL0     H17298   5.045  10.894   5.152 -4.7867 -1.1699 -0.5100
  850MOL0     H17299   5.063  10.719   5.144 -0.3614  0.1562  1.3921
  850MOL0     H17300   5.004  10.790   5.286 -1.9168 -3.1045 -1.7796
  851MOL0     O17301   5.973  10.358   1.850 -0.4701 -0.0450 -0.3641
  851MOL0     C17302   5.979  10.248   1.900  0.3564  0.2985 -0.4731
  851MOL0     O17303   5.867  10.176   1.954  0.6964 -0.7765 -0.2106
  851MOL0     C17304   5.761  10.250   1.995 -0.5720 -0.2369  0.3036
  851MOL0     C17305   5.733  10.259   2.130  0.8806  0.0656 -0.6805
  851MOL0     C17306   5.645  10.364   2.174  0.4776 -1.0104  0.7274
  851MOL0     C17307   5.581  10.445   2.080 -0.0572  0.1677 -0.1166
  851MOL0     O17308   5.501  10.541   2.133  0.7433  0.4732  0.2435
  851MOL0     C17309   5.400  10.597   2.051 -0.8642 -0.1700  0.5989
  851MOL0     C17310   5.452  10.714   1.974 -0.4143 -0.5572 -0.0946
  851MOL0     C17311   5.537  10.808   2.063  0.0759 -0.1574 -1.2406
  851MOL0     C17312   5.553  10.947   1.998 -0.6988 -0.2707 -0.2760
  851MOL0     C17313   5.662  11.044   2.061  0.8094  0.5474 -0.3888
  851MOL0     C17314   5.809  10.987   2.060 -0.7910  0.3854 -0.6846
  851MOL0     C17315   5.878  10.990   1.927  0.1467 -0.4938 -0.7210
  851MOL0     C17316   6.015  10.941   1.944 -0.3103 -0.3569  0.1329
  851MOL0     N17317   6.103  10.962   1.823 -0.4931 -1.0227 -0.4497
  851MOL0     C17318   6.111  10.869   1.724 -0.4693 -0.1625 -0.0959
  851MOL0     C17319   6.161  10.930   1.618 -0.5939  0.2130  0.6088
  851MOL0     C17320   6.168  10.873   1.476 -0.3531  0.3522  0.5679
  851MOL0     C17321   6.038  10.867   1.411  0.1115  0.8355 -0.0450
  851MOL0     C17322   6.033  10.780   1.283  0.0419  0.6825  0.3394
  851MOL0     C17323   5.894  10.748   1.235 -0.0658  0.5430  0.3775
  851MOL0     O17324   5.886  10.607   1.196  0.6417  0.4526 -0.0865
  851MOL0     C17325   5.937  10.562   1.078  0.7881  0.4480 -0.7721
  851MOL0     C17326   5.995  10.642   0.975  1.2798 -0.6969  0.0570
  851MOL0     C17327   6.023  10.583   0.852 -0.5504  0.3188  0.4193
  851MOL0     C17328   6.060  10.688   0.747  0.7115 -0.1103  0.2797
  851MOL0     C17329   5.988  10.439   0.828 -0.0185 -0.3485 -0.0079
  851MOL0     C17330   6.010  10.365   0.698  0.0054  0.2074  0.3578
  851MOL0     O17331   6.002  10.224   0.709  0.0372 -0.4900  1.0381
  851MOL0     C17332   6.042  10.137   0.612  1.0226  0.7027  0.1105
  851MOL0     C17333   6.101  10.020   0.660  0.3514  0.2380  0.4067
  851MOL0     C17334   6.123   9.906   0.576  0.3035 -0.0743 -0.7591
  851MOL0     C17335   6.103   9.924   0.436  0.1289  0.4477  0.2564
  851MOL0     O17336   6.143   9.835   0.337  1.0596  0.4042 -0.2844
  851MOL0     C17337   6.227   9.722   0.376  0.1033 -1.3263 -0.7610
  851MOL0     C17338   6.229   9.619   0.268 -0.7193  0.4868  0.5062
  851MOL0     C17339   6.314   9.504   0.303  0.1910  0.5473 -0.5228
  851MOL0     C17340   6.461   9.532   0.310  0.3522  0.1680 -0.5198
  851MOL0     C17341   6.565   9.417   0.329  0.2535 -0.8508  0.0116
  851MOL0     C17342   6.520   9.310   0.433 -0.3136  0.0074  0.8679
  851MOL0     C17343   6.570   9.335   0.573  0.9970 -0.6667  0.0016
  851MOL0     C17344   6.730   9.322   0.579 -0.7619 -0.0877  0.3764
  851MOL0    Cl17345   6.790   9.163   0.526  0.2130  0.0582 -0.2905
  851MOL0     C17346   6.056  10.048   0.390 -0.3569  1.5409  0.5688
  851MOL0     C17347   6.022  10.155   0.476 -0.0508  0.0300 -0.1357
  851MOL0     O17348   6.047  10.428   0.599  0.6577 -0.5248  1.0527
  851MOL0     C17349   5.938  10.363   0.935  0.2302 -0.2095 -0.3992
  851MOL0     C17350   5.908  10.425   1.055 -0.5494 -0.1849 -0.4325
  851MOL0     N17351   6.203  11.051   1.660  0.3135  0.7173 -0.0308
  851MOL0     N17352   6.157  11.082   1.782  0.2960  0.5505  0.6137
  851MOL0     C17353   5.596  10.416   1.946 -1.0315 -0.0548  0.0643
  851MOL0     C17354   5.698  10.332   1.902  0.6260 -0.5599  0.4843
  851MOL0     C17355   6.125  10.193   1.913  0.5658 -0.4471  0.2429
  851MOL0     C17356   6.234  10.276   1.902 -0.7584 -0.2962  0.0939
  851MOL0     C17357   6.364  10.237   1.921 -0.6441  0.0549 -0.0964
  851MOL0     C17358   6.390  10.109   1.955 -0.1168 -0.0327  0.9296
  851MOL0     O17359   6.521  10.064   1.964 -0.6596 -0.8366 -0.1130
  851MOL0     C17360   6.642  10.156   1.967  0.4486  1.1279  0.1169
  851MOL0     C17361   6.692  10.174   1.827  0.3157 -0.3219 -1.2543
  851MOL0     C17362   6.730  10.031   1.780  0.2641 -0.3870  0.3162
  851MOL0     C17363   6.776  10.052   1.631 -0.5471 -0.1038 -1.2520
  851MOL0     C17364   6.906  10.106   1.636  0.7048 -0.3353 -0.3407
  851MOL0     C17365   7.020  10.135   1.629  0.4861  1.1995  0.0228
  851MOL0     C17366   6.288  10.011   1.953  0.3710 -1.0885 -0.3424
  851MOL0     C17367   6.156  10.052   1.942  1.1934  0.6548 -0.2566
  851MOL0     C17368   6.057   9.939   1.968  0.0109  0.8506 -0.0207
  851MOL0     H17369   5.791  10.202   2.202 -1.3667 -0.3084  0.9529
  851MOL0     H17370   5.632  10.378   2.280 -2.0794  1.0954  0.2323
  851MOL0     H17371   5.316  10.641   2.107 -0.9716  3.3419 -1.9406
  851MOL0     H17372   5.358  10.529   1.977 -0.6182  0.5165 -0.1908
  851MOL0     H17373   5.525  10.687   1.898 -2.0354 -1.3394 -1.4430
  851MOL0     H17374   5.367  10.767   1.929 -0.4559 -0.2123  0.3754
  851MOL0     H17375   5.505  10.822   2.166  1.9003 -0.3325 -0.6061
  851MOL0     H17376   5.636  10.762   2.069 -0.3285 -0.8012  1.5464
  851MOL0     H17377   5.583  10.932   1.894 -0.6619  2.0733 -0.6605
  851MOL0     H17378   5.457  10.999   1.989 -2.0378 -2.2335  1.5802
  851MOL0     H17379   5.636  11.042   2.168  1.8707 -2.0451 -0.1031
  851MOL0     H17380   5.670  11.147   2.025 -0.1077  0.7324 -0.0913
  851MOL0     H17381   5.863  11.045   2.135 -1.6686 -0.8087  0.9268
  851MOL0     H17382   5.803  10.887   2.102  0.0373 -0.6164 -2.8213
  851MOL0     H17383   5.862  11.088   1.881  1.3138 -1.0732 -2.4973
  851MOL0     H17384   5.833  10.909   1.868  2.0821 -0.6898 -2.0238
  851MOL0     H17385   6.062  10.999   2.024 -0.8181  1.5318 -0.8719
  851MOL0     H17386   6.017  10.836   1.974  1.7709 -0.5720 -0.5858
  851MOL0     H17387   6.056  10.775   1.724 -0.8570 -0.0161 -3.1976
  851MOL0     H17388   6.220  10.776   1.484 -1.5059 -0.7324 -2.9153
  851MOL0     H17389   6.235  10.925   1.406 -0.0808 -0.0797  0.4984
  851MOL0     H17390   5.964  10.817   1.474 -1.2284 -0.6862 -2.6309
  851MOL0     H17391   6.007  10.971   1.402  0.7844  1.1897  1.5331
  851MOL0     H17392   6.088  10.831   1.204  2.1124 -1.8146  0.0608
  851MOL0     H17393   6.081  10.683   1.299  0.6116  0.6773 -1.2260
  851MOL0     H17394   5.817  10.751   1.313  1.9536  0.6191  2.4745
  851MOL0     H17395   5.861  10.805   1.148  1.6811 -1.8205 -2.0197
  851MOL0     H17396   6.009  10.749   0.988 -0.7523 -0.5055  1.1687
  851MOL0     H17397   6.104  10.646   0.657  3.5345  0.8573  1.0865
  851MOL0     H17398   6.135  10.759   0.785 -1.0148  0.0998  3.6935
  851MOL0     H17399   5.971  10.748   0.727  2.8487  2.9897 -0.8855
  851MOL0     H17400   6.130  10.019   0.764  1.3150 -2.1053  0.1804
  851MOL0     H17401   6.166   9.814   0.613  0.4441 -0.1196 -1.0311
  851MOL0     H17402   6.328   9.754   0.404  0.6326 -0.5902 -3.2671
  851MOL0     H17403   6.193   9.668   0.465  1.0630 -2.3502 -0.9952
  851MOL0     H17404   6.128   9.581   0.248 -1.0036 -1.3399  4.3717
  851MOL0     H17405   6.265   9.661   0.174 -2.2726  0.6880 -0.0255
  851MOL0     H17406   6.305   9.420   0.234  2.5904 -1.3325  1.2614
  851MOL0     H17407   6.275   9.484   0.404  0.4257 -2.8518 -0.9665
  851MOL0     H17408   6.480   9.608   0.386 -2.4806 -0.9777  1.5148
  851MOL0     H17409   6.486   9.574   0.212 -3.0373  0.7739 -1.2651
  851MOL0     H17410   6.582   9.369   0.232  1.0955  2.6592 -1.7321
  851MOL0     H17411   6.660   9.467   0.352 -0.7204  1.9985 -1.7141
  851MOL0     H17412   6.577   9.220   0.406  1.9822  1.4603  0.6144
  851MOL0     H17413   6.412   9.302   0.422 -0.2236  1.6010 -2.8623
  851MOL0     H17414   6.515   9.270   0.641  0.9382 -2.0004 -1.2609
  851MOL0     H17415   6.549   9.435   0.612 -0.4589 -1.8410  2.4424
  851MOL0     H17416   6.754   9.328   0.686  0.3683 -0.0107  0.1281
  851MOL0     H17417   6.782   9.400   0.522 -0.1959 -1.6039 -1.2604
  851MOL0     H17418   6.047  10.055   0.282  0.2697 -1.7051  0.2085
  851MOL0     H17419   5.978  10.252   0.456  0.4519  0.8780  2.4072
  851MOL0     H17420   5.911  10.259   0.926  2.9679 -1.2647  2.0216
  851MOL0     H17421   5.855  10.363   1.126  1.7261 -0.4613  1.1169
  851MOL0     H17422   5.527  10.463   1.876 -1.7748 -1.6759 -0.3445
  851MOL0     H17423   5.719  10.349   1.797 -2.4553 -0.6182 -0.2563
  851MOL0     H17424   6.219  10.372   1.853 -1.1959  0.1384  1.0436
  851MOL0     H17425   6.433  10.317   1.900 -1.9871  0.6048 -2.9269
  851MOL0     H17426   6.616  10.256   2.005  1.5180  0.7432  2.0286
  851MOL0     H17427   6.714  10.108   2.034 -1.0588 -0.3994  0.7000
  851MOL0     H17428   6.773  10.246   1.841 -0.9771  1.0247 -0.5061
  851MOL0     H17429   6.618  10.220   1.761 -1.7897 -4.1568 -1.9146
  851MOL0     H17430   6.809   9.979   1.836  1.0177 -0.3558 -0.6995
  851MOL0     H17431   6.645   9.964   1.764  2.4881 -2.5963 -4.1108
  851MOL0     H17432   6.712  10.121   1.576 -1.1965  0.4027  0.0863
  851MOL0     H17433   6.781   9.951   1.588  2.6076 -0.9904  0.8547
  851MOL0     H17434   7.124  10.163   1.629  0.4570  1.3946 -1.4373
  851MOL0     H17435   6.336   9.917   1.979 -0.8289 -1.6156  0.0364
  851MOL0     H17436   6.057   9.864   1.888  2.7798 -1.6180  2.0623
  851MOL0     H17437   6.079   9.875   2.054 -0.2705 -2.7819 -2.4029
  851MOL0     H17438   5.956   9.970   1.995 -0.3244 -1.8581  2.3888
  852MOL0     O17439   1.870   2.959   2.079 -0.0260 -0.8714  0.1711
  852MOL0     C17440   1.862   3.075   2.122 -0.3595 -0.0271  0.0142
  852MOL0     O17441   1.760   3.164   2.096  0.0424  0.1897 -1.1359
  852MOL0     C17442   1.653   3.129   2.023  0.1050  0.3560  0.1785
  852MOL0     C17443   1.532   3.197   2.055 -0.6893  0.7715  0.3981
  852MOL0     C17444   1.417   3.176   1.977 -0.4107 -0.7915  0.0119
  852MOL0     C17445   1.423   3.101   1.863 -0.6432  0.8493  0.5436
  852MOL0     O17446   1.312   3.085   1.778  0.6090  0.7060 -0.3319
  852MOL0     C17447   1.198   3.164   1.800 -0.4775 -0.4022 -0.4491
  852MOL0     C17448   1.104   3.114   1.688  0.4734 -0.0042 -0.2891
  852MOL0     C17449   1.124   3.193   1.562 -0.3879 -0.4618 -0.1787
  852MOL0     C17450   1.015   3.146   1.455 -0.2055  0.1157 -0.2351
  852MOL0     C17451   1.025   3.213   1.319 -0.3375 -0.1009  0.3175
  852MOL0     C17452   1.147   3.164   1.228 -0.1651 -0.5499  0.0586
  852MOL0     C17453   1.287   3.222   1.268 -0.9869 -0.3632 -0.3828
  852MOL0     C17454   1.403   3.193   1.175  0.1305 -0.5731  0.1699
  852MOL0     N17455   1.427   3.050   1.159 -0.1144 -0.5327 -0.2831
  852MOL0     C17456   1.469   2.957   1.263  0.3452 -0.9604 -0.8402
  852MOL0     C17457   1.485   2.841   1.201  0.6742  0.1579 -0.2212
  852MOL0     C17458   1.548   2.711   1.257  0.8855 -0.1534  0.0105
  852MOL0     C17459   1.673   2.740   1.340 -0.5834  0.5764 -0.1897
  852MOL0     C17460   1.808   2.756   1.261 -0.8634  0.2765 -0.6547
  852MOL0     C17461   1.803   2.877   1.169 -0.0252 -0.0768 -0.1246
  852MOL0     O17462   1.925   2.884   1.091  0.3866 -0.1655 -0.6311
  852MOL0     C17463   1.956   3.009   1.054  0.9337  0.0272 -0.8627
  852MOL0     C17464   1.848   3.091   1.011  0.3465 -0.8725  0.3645
  852MOL0     C17465   1.859   3.226   0.971 -0.4440 -0.2935 -0.6700
  852MOL0     C17466   1.731   3.298   0.954  1.5624  0.1775  0.1947
  852MOL0     C17467   1.986   3.273   0.955 -0.9082 -0.1103  0.5004
  852MOL0     C17468   2.017   3.413   0.903  0.2290  0.5081  0.3677
  852MOL0     O17469   1.951   3.522   0.944  1.3239  1.0508  0.7365
  852MOL0     C17470   1.987   3.646   0.907 -0.8586  0.3999  0.0252
  852MOL0     C17471   1.886   3.739   0.921  0.8892 -0.4113  0.1806
  852MOL0     C17472   1.915   3.873   0.885  0.4347  0.0193 -0.7963
  852MOL0     C17473   2.044   3.916   0.846  0.5356  0.5134 -0.8564
  852MOL0     O17474   2.076   4.046   0.824 -0.2349 -0.1624 -0.5936
  852MOL0     C17475   1.989   4.158   0.836  0.5124 -1.2242  0.5357
  852MOL0     C17476   1.987   4.217   0.978 -0.6462  0.0925  1.0358
  852MOL0     C17477   1.907   4.358   0.974 -1.4818  0.8052 -0.6847
  852MOL0     C17478   1.961   4.473   1.061 -0.7130 -0.1053  0.2792
  852MOL0     C17479   1.878   4.611   1.054 -1.3628 -0.0948 -0.0016
  852MOL0     C17480   1.746   4.600   1.136  0.6737  0.0718  0.2268
  852MOL0     C17481   1.627   4.705   1.103  0.3101 -1.0975 -0.4399
  852MOL0     C17482   1.576   4.703   0.952 -0.3134 -0.7544  0.1556
  852MOL0    Cl17483   1.481   4.845   0.939 -0.2402  0.5220  0.7941
  852MOL0     C17484   2.139   3.826   0.826  0.6933  0.3274 -0.8105
  852MOL0     C17485   2.118   3.693   0.856  0.7925  1.1374  0.0875
  852MOL0     O17486   2.107   3.408   0.813  0.4816 -0.2415 -0.5350
  852MOL0     C17487   2.096   3.191   0.993 -0.1436  0.8860 -0.3572
  852MOL0     C17488   2.079   3.055   1.039 -0.6592 -0.0173 -1.0122
  852MOL0     N17489   1.423   2.859   1.076 -0.3042  0.4603  0.1124
  852MOL0     N17490   1.400   2.977   1.054  0.5589  0.1648  0.9754
  852MOL0     C17491   1.537   3.035   1.826  0.7101  1.4038  0.0536
  852MOL0     C17492   1.654   3.049   1.910 -0.0924 -0.3904  1.1002
  852MOL0     C17493   1.983   3.124   2.186 -0.0426  0.0725  0.2892
  852MOL0     C17494   2.107   3.083   2.122  0.0435 -0.2852 -0.8567
  852MOL0     C17495   2.223   3.137   2.177  0.2969  0.6053  0.0119
  852MOL0     C17496   2.220   3.244   2.278  0.8789 -0.0486 -0.9709
  852MOL0     O17497   2.336   3.296   2.324 -0.8608 -0.0638  0.1414
  852MOL0     C17498   2.330   3.389   2.431  0.5358  0.4815 -0.6493
  852MOL0     C17499   2.474   3.447   2.459  0.1272 -0.0454 -0.8671
  852MOL0     C17500   2.575   3.345   2.511 -0.2525 -1.0938  0.1636
  852MOL0     C17501   2.720   3.388   2.512  0.9491 -0.5339 -0.0012
  852MOL0     C17502   2.730   3.518   2.591 -0.5566  0.5235 -0.6077
  852MOL0     C17503   2.712   3.609   2.665 -0.3151  0.0474 -0.1255
  852MOL0     C17504   2.095   3.273   2.337  0.4953  0.1254 -0.0314
  852MOL0     C17505   1.980   3.214   2.296  0.6851 -0.0824  0.2503
  852MOL0     C17506   1.850   3.267   2.363 -0.4132 -0.2587  0.3369
  852MOL0     H17507   1.527   3.266   2.139 -0.7750  0.6039  0.5341
  852MOL0     H17508   1.321   3.220   2.001 -0.4038 -1.9799  2.7089
  852MOL0     H17509   1.218   3.272   1.802  1.3893 -0.6943 -1.3099
  852MOL0     H17510   1.155   3.141   1.897  3.0721  2.4673  2.0746
  852MOL0     H17511   1.116   3.006   1.682 -1.2617 -0.2014 -0.8594
  852MOL0     H17512   0.998   3.119   1.715  0.1440 -0.1176 -1.5307
  852MOL0     H17513   1.115   3.302   1.570  2.1827  0.1444 -3.5383
  852MOL0     H17514   1.225   3.162   1.536 -0.2232  0.0939 -0.2196
  852MOL0     H17515   1.012   3.038   1.437 -1.9133 -0.0843  0.9388
  852MOL0     H17516   0.916   3.166   1.498 -1.2760 -1.6652 -1.6815
  852MOL0     H17517   1.039   3.321   1.335 -0.2137 -0.0619 -0.0417
  852MOL0     H17518   0.933   3.188   1.265 -1.2651  2.8849  0.3354
  852MOL0     H17519   1.152   3.055   1.221 -1.6049 -0.7213  1.2976
  852MOL0     H17520   1.121   3.201   1.129 -1.5704  1.8096  1.2301
  852MOL0     H17521   1.321   3.190   1.367 -0.9947  0.7053 -0.0236
  852MOL0     H17522   1.274   3.330   1.277 -1.4466 -0.5834  2.9393
  852MOL0     H17523   1.399   3.244   1.078  1.2647  0.8680  0.8362
  852MOL0     H17524   1.491   3.238   1.222 -0.7541  3.0998 -1.3880
  852MOL0     H17525   1.503   2.996   1.358 -1.3885 -0.5144 -0.3743
  852MOL0     H17526   1.573   2.642   1.177  1.2133 -2.4152  1.9745
  852MOL0     H17527   1.466   2.675   1.320  0.6017  1.4984  0.6540
  852MOL0     H17528   1.661   2.837   1.390  1.1618 -0.1627  1.8385
  852MOL0     H17529   1.686   2.664   1.418  1.7457 -0.9689 -1.9604
  852MOL0     H17530   1.891   2.775   1.330 -1.8545 -0.1977  0.7199
  852MOL0     H17531   1.828   2.657   1.220  1.5174 -0.5737  2.2184
  852MOL0     H17532   1.711   2.873   1.110  1.2325  0.4415 -2.2051
  852MOL0     H17533   1.798   2.966   1.232  0.2565  0.5468 -0.9695
  852MOL0     H17534   1.743   3.066   1.014  0.2357 -0.5238 -0.4326
  852MOL0     H17535   1.740   3.388   0.893  0.5649 -0.9417 -1.6683
  852MOL0     H17536   1.673   3.320   1.045 -3.3701 -1.3670 -2.2278
  852MOL0     H17537   1.668   3.234   0.892  0.7234  0.9555  0.2307
  852MOL0     H17538   1.789   3.703   0.953  0.7799  0.4095  0.8378
  852MOL0     H17539   1.844   3.955   0.890 -0.1144 -0.3738 -1.8792
  852MOL0     H17540   2.047   4.224   0.770 -1.1436 -0.6399 -0.3906
  852MOL0     H17541   1.897   4.142   0.780  1.0163 -0.7822 -0.4505
  852MOL0     H17542   1.944   4.145   1.048  1.6595 -1.4770  0.9417
  852MOL0     H17543   2.089   4.239   1.011 -0.9865  3.7413  0.0791
  852MOL0     H17544   1.801   4.346   0.998 -1.6467 -1.7639 -2.3270
  852MOL0     H17545   1.921   4.397   0.872  2.4687  1.7926  0.0863
  852MOL0     H17546   2.064   4.488   1.027 -0.2189  2.8720  2.6520
  852MOL0     H17547   1.980   4.433   1.161 -0.8448 -0.0697  0.3188
  852MOL0     H17548   1.927   4.704   1.087 -2.9235  1.0834 -0.8768
  852MOL0     H17549   1.854   4.624   0.948  2.1631 -0.2646 -0.9788
  852MOL0     H17550   1.762   4.624   1.242  1.1821  0.7185  0.0090
  852MOL0     H17551   1.695   4.503   1.127 -2.9140  1.4314  3.0836
  852MOL0     H17552   1.669   4.805   1.113  0.2262 -0.9807 -1.1901
  852MOL0     H17553   1.543   4.704   1.173  0.3190  1.2601 -0.3197
  852MOL0     H17554   1.534   4.606   0.924  1.1581 -1.4206  0.1899
  852MOL0     H17555   1.662   4.723   0.888 -1.1112 -1.3843 -1.1519
  852MOL0     H17556   2.241   3.858   0.806  2.9630 -4.6591  1.0602
  852MOL0     H17557   2.208   3.632   0.857  1.3767  1.8211  3.7099
  852MOL0     H17558   2.196   3.232   0.981 -0.6328  1.9411 -1.0104
  852MOL0     H17559   2.173   3.009   1.067  0.8433  2.8108 -0.9993
  852MOL0     H17560   1.525   2.968   1.742 -3.5598  1.9330 -0.0108
  852MOL0     H17561   1.746   3.000   1.880  1.7193  2.2103  2.0673
  852MOL0     H17562   2.110   3.012   2.040  1.6890  1.0902 -2.0463
  852MOL0     H17563   2.322   3.105   2.148  1.0248  1.3810  1.5616
  852MOL0     H17564   2.252   3.463   2.411  0.4601  0.6256  0.1741
  852MOL0     H17565   2.301   3.336   2.522  4.2195 -0.3624  0.2004
  852MOL0     H17566   2.474   3.516   2.545 -0.0906  1.5277 -2.0741
  852MOL0     H17567   2.507   3.501   2.370 -0.5163  0.2475 -0.9310
  852MOL0     H17568   2.553   3.324   2.616 -0.2447  3.3087  1.2147
  852MOL0     H17569   2.567   3.250   2.457  3.0075 -1.1295 -0.4665
  852MOL0     H17570   2.765   3.416   2.416  0.2186  3.8687  0.7046
  852MOL0     H17571   2.780   3.306   2.552  1.0479  0.3648  1.8427
  852MOL0     H17572   2.684   3.690   2.729 -2.7254  0.0158 -1.0424
  852MOL0     H17573   2.077   3.347   2.413 -2.8940  2.0274 -2.4270
  852MOL0     H17574   1.808   3.361   2.325 -0.0242 -0.6352 -1.0633
  852MOL0     H17575   1.764   3.198   2.360  0.4045 -1.3538  1.1463
  852MOL0     H17576   1.873   3.277   2.470  0.9664  1.8136 -0.1078
  853MOL0     O17577   8.246  11.047   6.384 -0.1472  0.2297 -0.0529
  853MOL0     C17578   8.309  11.134   6.328  0.3258  0.5101 -0.5429
  853MOL0     O17579   8.438  11.172   6.363 -0.7515  0.1754  0.5899
  853MOL0     C17580   8.507  11.064   6.412  0.4565 -0.3302  0.8050
  853MOL0     C17581   8.565  10.962   6.325  0.4550 -0.4285  0.2606
  853MOL0     C17582   8.641  10.859   6.384  0.0600  0.9244  0.3154
  853MOL0     C17583   8.661  10.855   6.520  0.0105  0.2218 -0.5589
  853MOL0     O17584   8.743  10.748   6.562 -0.8265 -0.6057 -0.2518
  853MOL0     C17585   8.813  10.751   6.691  0.3259 -0.2514  0.5101
  853MOL0     C17586   8.916  10.869   6.689 -0.4484 -0.3234 -0.2046
  853MOL0     C17587   9.012  10.863   6.810 -0.0044 -0.1794 -0.5590
  853MOL0     C17588   9.127  10.954   6.783 -0.1093  0.5943 -0.1507
  853MOL0     C17589   9.092  11.103   6.791 -0.1609  0.3817 -0.5128
  853MOL0     C17590   9.223  11.185   6.775  0.2752 -1.5367 -0.3737
  853MOL0     C17591   9.188  11.331   6.788 -0.1815 -0.8246  0.2662
  853MOL0     C17592   9.317  11.425   6.765 -0.2413 -0.0583 -0.0244
  853MOL0     N17593   9.286  11.570   6.789  0.0410  0.1702  0.7733
  853MOL0     C17594   9.287  11.649   6.910 -0.2833 -0.0696  0.1475
  853MOL0     C17595   9.230  11.768   6.865 -0.3612 -0.4562 -1.7432
  853MOL0     C17596   9.210  11.882   6.963 -0.3525 -0.2269  0.2917
  853MOL0     C17597   9.081  11.895   7.051  0.0614 -0.2137  0.3725
  853MOL0     C17598   9.052  11.771   7.142 -0.0120 -0.9545  0.1929
  853MOL0     C17599   9.129  11.780   7.270 -0.2384  0.0638  0.2566
  853MOL0     O17600   9.089  11.672   7.350 -0.3068 -0.2429 -0.3390
  853MOL0     C17601   8.994  11.677   7.451 -0.5199 -0.1259  0.4582
  853MOL0     C17602   8.924  11.800   7.489 -0.7394  0.0395 -0.7337
  853MOL0     C17603   8.842  11.804   7.604  0.2868  0.3290  0.2841
  853MOL0     C17604   8.798  11.946   7.656  0.7858 -0.3028 -0.0537
  853MOL0     C17605   8.813  11.687   7.679  0.4759  1.4995  0.6680
  853MOL0     C17606   8.712  11.665   7.788  0.2702  0.2575 -0.2536
  853MOL0     O17607   8.638  11.776   7.824 -0.2295  0.1835  0.2978
  853MOL0     C17608   8.519  11.779   7.890  0.9411 -0.1370 -0.3351
  853MOL0     C17609   8.502  11.887   7.972  0.3800  0.1628 -0.0152
  853MOL0     C17610   8.387  11.895   8.055  0.7142 -1.2941  0.6025
  853MOL0     C17611   8.281  11.801   8.047  0.6491 -0.1380  0.0103
  853MOL0     O17612   8.173  11.827   8.131  0.7833 -0.0938  0.2740
  853MOL0     C17613   8.076  11.723   8.160 -0.0393  0.4726 -0.2494
  853MOL0     C17614   7.971  11.785   8.257  0.1390  1.1491  0.3190
  853MOL0     C17615   7.858  11.701   8.311  0.3442  0.1225  0.1776
  853MOL0     C17616   7.749  11.675   8.205  0.1066 -0.2162 -0.2402
  853MOL0     C17617   7.618  11.596   8.228  0.2448  0.2824  0.6190
  853MOL0     C17618   7.532  11.652   8.345  1.1014 -0.0514 -0.3049
  853MOL0     C17619   7.389  11.586   8.358 -0.6310  0.8611 -0.3609
  853MOL0     C17620   7.303  11.615   8.227 -0.3268  0.1119 -0.0566
  853MOL0    Cl17621   7.141  11.541   8.245 -0.0556 -0.6084  0.1262
  853MOL0     C17622   8.300  11.694   7.968 -0.2292 -0.3733 -0.3922
  853MOL0     C17623   8.415  11.675   7.897  0.1197  0.7290 -0.3309
  853MOL0     O17624   8.704  11.554   7.838  0.2914 -0.1304 -0.2158
  853MOL0     C17625   8.882  11.573   7.639 -0.3511 -0.8093 -0.4468
  853MOL0     C17626   8.975  11.566   7.530 -0.4727  0.4038  0.6966
  853MOL0     N17627   9.206  11.755   6.732  0.4320 -0.0668  0.6983
  853MOL0     N17628   9.235  11.639   6.681  0.0845  0.2945  0.9308
  853MOL0     C17629   8.607  10.955   6.608 -0.4268 -0.2074  0.1900
  853MOL0     C17630   8.530  11.054   6.545 -0.1060  0.5973 -0.8929
  853MOL0     C17631   8.248  11.213   6.214 -0.6114  0.3509  1.4588
  853MOL0     C17632   8.336  11.284   6.132  0.6287 -0.0581  0.3849
  853MOL0     C17633   8.286  11.373   6.040  0.8412 -0.1139  0.2644
  853MOL0     C17634   8.149  11.380   6.006  0.2836 -0.5194  0.0608
  853MOL0     O17635   8.114  11.475   5.910  0.4117  0.0390  0.0787
  853MOL0     C17636   7.985  11.517   5.895 -0.9523 -0.2671 -0.6001
  853MOL0     C17637   7.964  11.582   5.759  0.2696  0.0811  0.0292
  853MOL0     C17638   8.031  11.538   5.628  0.4540  0.4171  0.7370
  853MOL0     C17639   8.038  11.387   5.603 -1.0423 -0.3405 -0.0363
  853MOL0     C17640   8.123  11.356   5.487 -0.1047 -0.2310  0.2450
  853MOL0     C17641   8.193  11.349   5.389  0.8346 -0.7864  0.1617
  853MOL0     C17642   8.065  11.300   6.080  0.5123 -0.5573 -0.4125
  853MOL0     C17643   8.110  11.221   6.184  0.8738  0.8561 -1.4289
  853MOL0     C17644   7.995  11.160   6.266 -1.0788 -0.1063  0.4127
  853MOL0     H17645   8.566  10.964   6.217  0.2699  0.9128  0.2667
  853MOL0     H17646   8.684  10.775   6.330 -3.3360 -1.1423  0.5705
  853MOL0     H17647   8.855  10.651   6.707 -0.7973 -0.8408 -0.0583
  853MOL0     H17648   8.740  10.778   6.768 -0.8689  1.2926 -1.0892
  853MOL0     H17649   8.980  10.868   6.600 -0.1192 -0.1477  0.0289
  853MOL0     H17650   8.872  10.970   6.691  2.3406  1.1735 -3.3031
  853MOL0     H17651   8.958  10.890   6.902  0.3368  0.9069 -0.6583
  853MOL0     H17652   9.044  10.760   6.822 -0.0897 -0.1882 -0.3978
  853MOL0     H17653   9.211  10.940   6.851 -0.2977  0.7087  0.1075
  853MOL0     H17654   9.180  10.931   6.690  1.2897  1.3686  0.4427
  853MOL0     H17655   9.048  11.124   6.889  3.1152  1.2614  0.9025
  853MOL0     H17656   9.021  11.119   6.709 -0.0974 -1.1271 -0.8826
  853MOL0     H17657   9.302  11.158   6.846  1.7144  0.6754 -1.0263
  853MOL0     H17658   9.259  11.175   6.672  1.1695 -2.1116 -0.0208
  853MOL0     H17659   9.138  11.350   6.884 -1.7776 -1.8496 -0.3228
  853MOL0     H17660   9.124  11.355   6.703 -1.1032 -0.8416  0.9284
  853MOL0     H17661   9.405  11.386   6.818 -0.9602 -0.4219  0.9446
  853MOL0     H17662   9.360  11.411   6.666 -0.5410 -2.5303  0.1279
  853MOL0     H17663   9.325  11.623   7.008  0.9770 -0.4179 -0.4216
  853MOL0     H17664   9.226  11.969   6.899  2.5064 -0.2196  0.9115
  853MOL0     H17665   9.286  11.889   7.041  0.3003 -0.2245 -0.3351
  853MOL0     H17666   9.105  11.979   7.116  0.9388 -1.2484  1.4366
  853MOL0     H17667   8.996  11.917   6.986  1.8875  1.6845 -1.5259
  853MOL0     H17668   8.952  11.797   7.178  0.7100  1.8957  0.3670
  853MOL0     H17669   9.054  11.674   7.093 -2.7550 -1.1153  0.2558
  853MOL0     H17670   9.228  11.765   7.227 -2.1564 -1.4949 -4.2051
  853MOL0     H17671   9.105  11.873   7.321  0.5552  0.4168 -0.0042
  853MOL0     H17672   8.931  11.891   7.431 -0.5998 -0.0940 -0.9269
  853MOL0     H17673   8.832  11.959   7.759  2.0469 -1.2835 -0.3237
  853MOL0     H17674   8.689  11.956   7.651  0.8647  1.4897  1.0421
  853MOL0     H17675   8.840  12.030   7.599 -2.3226  1.2876 -0.2022
  853MOL0     H17676   8.587  11.952   7.990  2.9675 -2.7464 -0.8899
  853MOL0     H17677   8.386  11.968   8.136  1.3813 -0.1500 -0.3705
  853MOL0     H17678   8.031  11.686   8.068 -0.2877  1.4933 -0.5590
  853MOL0     H17679   8.123  11.645   8.220  1.7485  3.6440  2.8649
  853MOL0     H17680   8.015  11.816   8.352 -1.3291 -3.1607  2.6962
  853MOL0     H17681   7.922  11.868   8.207 -0.9017  0.0159 -0.6105
  853MOL0     H17682   7.827  11.759   8.399  0.8720 -0.4238  0.7361
  853MOL0     H17683   7.903  11.604   8.335 -0.6659 -0.4149 -0.0535
  853MOL0     H17684   7.806  11.640   8.119  2.6650 -1.5054  1.8123
  853MOL0     H17685   7.714  11.772   8.167  1.2736  0.1390 -0.4468
  853MOL0     H17686   7.562  11.607   8.135  0.0015  1.8175  0.9183
  853MOL0     H17687   7.646  11.492   8.247 -2.1537 -1.2312 -2.8745
  853MOL0     H17688   7.516  11.759   8.330  1.5594  0.1892  0.7774
  853MOL0     H17689   7.575  11.640   8.445 -0.8961  0.8381  0.7152
  853MOL0     H17690   7.338  11.618   8.450 -1.4643 -1.6001  0.0990
  853MOL0     H17691   7.404  11.478   8.356  0.6696  1.0418 -1.3175
  853MOL0     H17692   7.354  11.568   8.143  1.1238  1.2173  0.1613
  853MOL0     H17693   7.298  11.719   8.194  1.8151 -0.2258 -1.6759
  853MOL0     H17694   8.229  11.617   7.998  0.7691 -0.7858  1.0602
  853MOL0     H17695   8.434  11.580   7.849  0.1222 -0.8761  2.6505
  853MOL0     H17696   8.870  11.479   7.692  1.0311 -0.5662  0.3386
  853MOL0     H17697   9.023  11.470   7.514  0.5133  0.6979  1.7187
  853MOL0     H17698   8.618  10.937   6.714 -1.8887  1.6698  0.6983
  853MOL0     H17699   8.474  11.127   6.602 -1.9897 -1.7067  0.4004
  853MOL0     H17700   8.444  11.275   6.136  0.4785 -2.1443  1.2038
  853MOL0     H17701   8.360  11.438   5.993  0.0904  0.5348 -0.0392
  853MOL0     H17702   7.904  11.444   5.907 -2.1453  1.4339  3.4824
  853MOL0     H17703   7.968  11.591   5.973  0.0417  3.1028 -3.3637
  853MOL0     H17704   7.997  11.684   5.783 -0.0695  0.1925  0.0218
  853MOL0     H17705   7.858  11.598   5.741  0.2354 -0.3559 -0.1465
  853MOL0     H17706   7.976  11.595   5.552  0.8254  0.5267  0.5499
  853MOL0     H17707   8.133  11.577   5.619  2.1176 -3.3452  1.4497
  853MOL0     H17708   7.934  11.357   5.588 -1.9839  1.4079  2.4157
  853MOL0     H17709   8.077  11.334   5.690 -3.0185 -0.9938  0.5140
  853MOL0     H17710   8.244  11.321   5.300  1.0126 -1.8129  0.5795
  853MOL0     H17711   7.958  11.313   6.066  0.1832 -1.8118  0.8021
  853MOL0     H17712   7.959  11.074   6.208 -0.5016 -1.1408  1.5576
  853MOL0     H17713   8.026  11.135   6.368 -1.1734  0.7221  0.6508
  853MOL0     H17714   7.912  11.231   6.274 -1.0218  0.3984 -2.2608
  854MOL0     O17715   0.540  11.545  11.060  0.1810  0.0407  0.0196
  854MOL0     C17716   0.589  11.641  11.003  0.0096 -0.0053  0.0885
  854MOL0     O17717   0.533  11.697  10.890 -0.2905 -0.9529 -0.3433
  854MOL0     C17718   0.419  11.646  10.840 -0.0712 -0.7657  0.0050
  854MOL0     C17719   0.295  11.688  10.888 -0.5832 -0.5571  0.5510
  854MOL0     C17720   0.179  11.651  10.818 -0.6155  0.5360  0.0423
  854MOL0     C17721   0.189  11.564  10.709 -0.0038 -0.6322 -0.0881
  854MOL0     O17722   0.073  11.530  10.645 -0.2730  0.2780 -0.1951
  854MOL0     C17723  -0.024  11.438  10.706 -0.2172  0.4526  0.0195
  854MOL0     C17724  -0.161  11.466  10.635  0.2178  0.4744  0.4669
  854MOL0     C17725  -0.238  11.335  10.640  0.2278  0.7905  0.1230
  854MOL0     C17726  -0.372  11.347  10.563  1.0747  0.3513 -0.4044
  854MOL0     C17727  -0.450  11.219  10.555 -0.3348 -0.1196  0.5992
  854MOL0     C17728  -0.511  11.165  10.688 -0.2830 -0.0132  0.2888
  854MOL0     C17729  -0.620  11.053  10.670 -0.0658  0.1631  0.0162
  854MOL0     C17730  -0.714  11.026  10.795 -0.4440  0.2669  0.0631
  854MOL0     N17731  -0.807  11.143  10.812  0.2095  0.0373  0.3062
  854MOL0     C17732  -0.905  11.177  10.724  0.0023  0.4098  0.3571
  854MOL0     C17733  -0.991  11.255  10.796  0.5818  0.9116 -0.1349
  854MOL0     C17734  -1.104  11.330  10.739 -0.1525 -0.4240  0.2541
  854MOL0     C17735  -1.037  11.456  10.670 -0.1726 -0.4847  0.1914
  854MOL0     C17736  -0.973  11.429  10.533  0.4850  0.3997 -0.7605
  854MOL0     C17737  -0.925  11.550  10.468 -0.4896  0.4667 -0.0676
  854MOL0     O17738  -0.921  11.517  10.332 -0.4462  0.7964 -0.0135
  854MOL0     C17739  -0.889  11.598  10.234 -0.3536 -0.1928 -0.1745
  854MOL0     C17740  -0.875  11.538  10.108 -0.4165  0.0701 -0.4074
  854MOL0     C17741  -0.841  11.602   9.993  0.3192  0.0406  0.5152
  854MOL0     C17742  -0.856  11.515   9.868  0.8609 -0.2331 -0.4775
  854MOL0     C17743  -0.813  11.742  10.007  0.0746  0.4360 -0.4304
  854MOL0     C17744  -0.743  11.815   9.894  0.8479  0.3379  0.4192
  854MOL0     O17745  -0.742  11.956   9.913  0.2551 -0.0904  0.4640
  854MOL0     C17746  -0.688  12.040   9.823  0.0139  0.0568  0.5280
  854MOL0     C17747  -0.748  12.165   9.809 -0.6064 -0.0293 -0.2061
  854MOL0     C17748  -0.702  12.264   9.722  0.4021 -0.1725  0.4370
  854MOL0     C17749  -0.583  12.238   9.661 -0.0168 -0.1561 -0.5452
  854MOL0     O17750  -0.528  12.334   9.576 -0.0159  0.6642 -0.3337
  854MOL0     C17751  -0.444  12.426   9.639 -0.1659 -0.0965 -0.3926
  854MOL0     C17752  -0.392  12.533   9.540  0.7800 -0.4215 -0.4827
  854MOL0     C17753  -0.361  12.484   9.400  0.6571 -0.2911  1.4205
  854MOL0     C17754  -0.471  12.510   9.292  0.5591  0.4955  0.2083
  854MOL0     C17755  -0.417  12.455   9.154 -0.3372  0.2542  0.4789
  854MOL0     C17756  -0.315  12.548   9.091  0.1701 -0.2784 -0.4283
  854MOL0     C17757  -0.251  12.495   8.962 -0.9027 -0.4469 -0.7315
  854MOL0     C17758  -0.196  12.617   8.874 -0.1503  0.7381 -0.1245
  854MOL0    Cl17759  -0.042  12.697   8.937 -0.2087  0.0367 -0.4950
  854MOL0     C17760  -0.517  12.113   9.670  0.0621 -0.0315  0.3879
  854MOL0     C17761  -0.570  12.011   9.749  0.2536 -0.8552 -0.2559
  854MOL0     O17762  -0.687  11.750   9.803 -0.4955 -0.7964  0.1394
  854MOL0     C17763  -0.834  11.805  10.135 -0.1575 -0.0659 -0.2170
  854MOL0     C17764  -0.863  11.724  10.245  0.1480 -0.5508 -0.2452
  854MOL0     N17765  -0.931  11.276  10.921  0.3862 -0.4134 -0.6583
  854MOL0     N17766  -0.826  11.205  10.934 -0.7661  0.2161 -0.2846
  854MOL0     C17767   0.311  11.521  10.665  0.9184 -0.3976 -0.3312
  854MOL0     C17768   0.428  11.566  10.731  0.1958 -0.7861 -0.2401
  854MOL0     C17769   0.711  11.705  11.052  0.3317 -0.6327 -0.0094
  854MOL0     C17770   0.737  11.842  11.014  0.4079  0.1434 -0.6129
  854MOL0     C17771   0.850  11.908  11.066 -0.4911  0.1739  0.5720
  854MOL0     C17772   0.930  11.845  11.165  0.0367 -0.4700  0.1637
  854MOL0     O17773   1.049  11.904  11.210  0.6274  0.3076  0.6563
  854MOL0     C17774   1.092  12.026  11.149  0.2216  0.0167  0.2469
  854MOL0     C17775   1.172  11.988  11.026 -0.4109  0.5524 -0.2877
  854MOL0     C17776   1.274  12.097  10.976  0.2066 -0.3819 -0.4911
  854MOL0     C17777   1.403  12.072  11.047  0.6429  0.2083  0.0065
  854MOL0     C17778   1.489  12.185  11.033  0.0031 -0.0063 -0.1251
  854MOL0     C17779   1.571  12.275  11.031 -0.2673 -0.1259 -0.2093
  854MOL0     C17780   0.898  11.719  11.208  0.5022 -0.0559 -0.3198
  854MOL0     C17781   0.783  11.661  11.162 -0.3315 -0.5830 -0.6173
  854MOL0     C17782   0.780  11.524  11.220 -0.9268 -0.2594  0.0478
  854MOL0     H17783   0.276  11.735  10.984 -1.2778  2.1368 -0.8026
  854MOL0     H17784   0.076  11.668  10.847 -0.4781 -0.6533  1.3691
  854MOL0     H17785  -0.018  11.459  10.814 -0.3100  0.0101  0.1120
  854MOL0     H17786   0.013  11.337  10.686 -0.7910 -0.0117  1.1870
  854MOL0     H17787  -0.203  11.554  10.684 -0.5670  0.9166 -0.9376
  854MOL0     H17788  -0.146  11.495  10.531 -1.5748  1.0251  0.3323
  854MOL0     H17789  -0.171  11.264  10.590 -0.1333  0.9056 -0.5383
  854MOL0     H17790  -0.253  11.293  10.740 -1.3257 -2.8137 -1.4176
  854MOL0     H17791  -0.430  11.427  10.609  0.2535 -1.0439  1.0888
  854MOL0     H17792  -0.339  11.376  10.463  3.1138  1.4126  0.5151
  854MOL0     H17793  -0.382  11.144  10.514 -0.0283 -0.9565  2.5093
  854MOL0     H17794  -0.532  11.229  10.483  0.5139  1.6890 -0.1797
  854MOL0     H17795  -0.447  11.132  10.771  2.1110  2.3478 -0.4892
  854MOL0     H17796  -0.571  11.248  10.728 -4.4767 -3.5844  2.3045
  854MOL0     H17797  -0.586  10.962  10.621 -0.4441 -0.0353  0.1173
  854MOL0     H17798  -0.692  11.096  10.599 -0.8385 -0.0446  0.6586
  854MOL0     H17799  -0.762  10.935  10.757 -2.8099  1.7678 -0.7746
  854MOL0     H17800  -0.669  10.993  10.889  1.1554 -1.5197 -1.2490
  854MOL0     H17801  -0.919  11.135  10.625  2.4962 -0.1721  0.1678
  854MOL0     H17802  -1.182  11.357  10.811 -0.5818 -1.6681  0.2869
  854MOL0     H17803  -1.150  11.261  10.668  0.0642  2.9329 -3.5706
  854MOL0     H17804  -1.122  11.524  10.662 -0.3207 -0.6444  0.3979
  854MOL0     H17805  -0.959  11.499  10.733  2.1840 -1.1010 -2.1331
  854MOL0     H17806  -0.888  11.361  10.526 -0.4328 -0.8248 -0.3960
  854MOL0     H17807  -1.051  11.392  10.466  0.9200  1.4070 -1.8398
  854MOL0     H17808  -0.996  11.633  10.475 -0.0632  1.0676 -2.1889
  854MOL0     H17809  -0.825  11.560  10.511  0.3305  0.2727 -1.8608
  854MOL0     H17810  -0.895  11.432  10.120  2.8529 -0.4646  1.6539
  854MOL0     H17811  -0.901  11.566   9.782 -1.2746 -2.2715 -0.6671
  854MOL0     H17812  -0.922  11.430   9.888  2.5312 -1.6337 -0.6487
  854MOL0     H17813  -0.759  11.480   9.832  0.2833 -0.8700 -1.4609
  854MOL0     H17814  -0.834  12.197   9.866 -0.6848 -1.3938  0.4692
  854MOL0     H17815  -0.766  12.352   9.719 -1.2279 -1.2904  1.0232
  854MOL0     H17816  -0.513  12.482   9.703 -1.8966 -0.2581 -2.0522
  854MOL0     H17817  -0.366  12.377   9.699  0.3139 -0.4327 -1.2753
  854MOL0     H17818  -0.467  12.611   9.521  1.3461 -0.3899 -2.8874
  854MOL0     H17819  -0.304  12.582   9.583 -0.0778  0.5910  0.1883
  854MOL0     H17820  -0.356  12.375   9.394 -3.7304 -0.7453  2.1446
  854MOL0     H17821  -0.262  12.519   9.369  0.2412  1.8459  2.3620
  854MOL0     H17822  -0.495  12.617   9.285 -1.3696  0.0068 -2.3657
  854MOL0     H17823  -0.570  12.469   9.313 -0.4373  1.5719 -2.0381
  854MOL0     H17824  -0.389  12.350   9.157 -2.0989 -0.3430 -1.5875
  854MOL0     H17825  -0.501  12.458   9.084  0.4402 -1.3954 -0.5943
  854MOL0     H17826  -0.246  12.573   9.171 -1.0601 -0.0182  0.5809
  854MOL0     H17827  -0.368  12.643   9.079 -2.8321 -1.6283  1.0781
  854MOL0     H17828  -0.328  12.441   8.906 -0.9687 -2.0781  0.8692
  854MOL0     H17829  -0.168  12.430   8.990  0.3704  1.8265  1.1609
  854MOL0     H17830  -0.266  12.701   8.874  2.7899  3.4144 -0.4437
  854MOL0     H17831  -0.187  12.594   8.767 -1.7833 -0.1044 -0.1099
  854MOL0     H17832  -0.434  12.104   9.601 -0.0128 -6.3468  0.6073
  854MOL0     H17833  -0.524  11.914   9.763 -0.5866 -1.0562  1.3416
  854MOL0     H17834  -0.823  11.912  10.150 -1.0081 -0.0752  0.5192
  854MOL0     H17835  -0.864  11.775  10.341  0.0529  2.1648 -1.5845
  854MOL0     H17836   0.308  11.459  10.575 -2.2601 -1.2432  0.2502
  854MOL0     H17837   0.524  11.532  10.692  1.0062 -3.2286  3.3382
  854MOL0     H17838   0.674  11.894  10.943  0.8045  1.7385  0.1430
  854MOL0     H17839   0.877  11.996  11.010  1.8274 -1.2179 -0.6946
  854MOL0     H17840   1.015  12.102  11.130 -2.3825 -2.5144  0.0716
  854MOL0     H17841   1.160  12.081  11.215  0.7221  1.2328 -1.2128
  854MOL0     H17842   1.108  11.962  10.941  2.8960 -3.5243 -1.8620
  854MOL0     H17843   1.229  11.897  11.047 -2.8455 -1.1598 -0.6465
  854MOL0     H17844   1.291  12.097  10.868  2.5911 -0.1099 -0.1830
  854MOL0     H17845   1.236  12.195  11.008 -0.5288 -1.0089  0.6191
  854MOL0     H17846   1.448  11.986  10.996 -0.7062 -0.8222  0.5108
  854MOL0     H17847   1.372  12.044  11.148 -0.6017  0.1804 -0.3669
  854MOL0     H17848   1.657  12.340  11.027  0.2796 -0.8943 -2.6499
  854MOL0     H17849   0.976  11.684  11.275  0.5772  0.9960  0.1689
  854MOL0     H17850   0.686  11.510  11.273 -0.5790 -0.1770  0.6899
  854MOL0     H17851   0.794  11.452  11.138 -0.7219  1.6613 -1.6716
  854MOL0     H17852   0.863  11.503  11.288  1.4452  1.3440 -2.1583
  855MOL0     O17853   4.512  10.346   5.444  0.3157 -0.2093 -0.6197
  855MOL0     C17854   4.521  10.472   5.449  0.5074 -0.5315  0.2487
  855MOL0     O17855   4.539  10.545   5.567 -0.1385  0.2440 -0.1121
  855MOL0     C17856   4.559  10.478   5.690 -0.2766  0.7199  0.0235
  855MOL0     C17857   4.500  10.550   5.801  0.0081 -0.0131  0.0594
  855MOL0     C17858   4.513  10.488   5.929 -0.2294 -0.2303  0.0307
  855MOL0     C17859   4.595  10.381   5.950 -0.6088 -0.6178  0.5527
  855MOL0     O17860   4.602  10.347   6.075 -0.0641  0.5440 -0.2073
  855MOL0     C17861   4.698  10.248   6.124  1.3396  0.0298  0.0796
  855MOL0     C17862   4.684  10.234   6.273 -0.5933  0.0255  0.1492
  855MOL0     C17863   4.758  10.102   6.320 -0.0829  0.1460 -0.0590
  855MOL0     C17864   4.855  10.127   6.429  0.0179  0.3097 -0.0659
  855MOL0     C17865   4.907   9.985   6.479  0.3879 -0.3182  0.0447
  855MOL0     C17866   5.015   9.998   6.582 -0.0262 -0.8543 -0.6338
  855MOL0     C17867   5.066   9.850   6.605  0.7423  0.1907 -0.5318
  855MOL0     C17868   5.177   9.842   6.717  0.4072  0.2772  1.1955
  855MOL0     N17869   5.232   9.700   6.731 -0.2633  0.1315  0.8264
  855MOL0     C17870   5.156   9.602   6.791 -0.1906  0.7432 -0.1119
  855MOL0     C17871   5.224   9.492   6.761  0.0065 -0.5870  0.8089
  855MOL0     C17872   5.163   9.361   6.819  0.2298 -0.4099  0.4389
  855MOL0     C17873   5.261   9.249   6.846  0.7988 -0.1598 -0.5698
  855MOL0     C17874   5.363   9.286   6.953  0.8076 -0.0838  1.3966
  855MOL0     C17875   5.481   9.188   6.956  0.3134  0.0893  0.2340
  855MOL0     O17876   5.544   9.158   6.825 -0.5947  0.3963  0.1316
  855MOL0     C17877   5.615   9.266   6.761  1.0388 -0.1084 -1.0766
  855MOL0     C17878   5.669   9.371   6.832  0.4718 -0.0493  0.0347
  855MOL0     C17879   5.737   9.470   6.766  0.2709 -0.4594 -0.5975
  855MOL0     C17880   5.803   9.578   6.854  0.4593  0.2197  0.1289
  855MOL0     C17881   5.750   9.464   6.628  0.1558  0.7090  1.0241
  855MOL0     C17882   5.824   9.570   6.561  0.0610 -1.0890  0.1514
  855MOL0     O17883   5.931   9.530   6.490 -0.4336 -0.1024 -0.1923
  855MOL0     C17884   6.032   9.617   6.468 -0.9570  0.1925  0.3950
  855MOL0     C17885   6.132   9.637   6.566  0.0221  0.4179 -0.7202
  855MOL0     C17886   6.241   9.718   6.552 -0.8756 -0.0071  0.6735
  855MOL0     C17887   6.263   9.784   6.424  0.2284  0.1218 -0.1035
  855MOL0     O17888   6.377   9.859   6.416 -0.4164 -0.4499  0.7138
  855MOL0     C17889   6.439   9.861   6.285  0.4735 -0.1510 -0.5093
  855MOL0     C17890   6.579   9.930   6.281 -0.7331 -0.1531 -0.4311
  855MOL0     C17891   6.661   9.934   6.141  1.4173  0.0007 -0.0059
  855MOL0     C17892   6.811   9.963   6.157  0.6490 -0.0740 -0.1416
  855MOL0     C17893   6.837  10.090   6.210  0.1325  0.2224 -0.4283
  855MOL0     C17894   6.985  10.130   6.199 -0.6370 -0.1280  0.0896
  855MOL0     C17895   7.012  10.262   6.286  0.4497 -0.6870 -0.5347
  855MOL0     C17896   7.155  10.309   6.256 -0.9631 -0.7293 -0.3383
  855MOL0    Cl17897   7.274  10.191   6.281 -0.6838 -0.1680 -0.2587
  855MOL0     C17898   6.166   9.767   6.321 -0.4893  0.9949  0.0478
  855MOL0     C17899   6.049   9.679   6.345 -1.0313  0.7636  0.6380
  855MOL0     O17900   5.781   9.682   6.554  0.7529 -0.5889  0.4436
  855MOL0     C17901   5.694   9.353   6.552 -0.0379  1.0419  0.1604
  855MOL0     C17902   5.628   9.249   6.624  0.3152  0.8532 -0.7141
  855MOL0     N17903   5.333   9.522   6.677 -0.1217 -0.1135 -0.5199
  855MOL0     N17904   5.332   9.645   6.656  0.1504  0.6739  0.2927
  855MOL0     C17905   4.660  10.320   5.843 -0.2835  0.3922  0.5902
  855MOL0     C17906   4.646  10.363   5.710 -0.4148 -0.0938 -0.0266
  855MOL0     C17907   4.512  10.561   5.330 -0.1383 -0.8259  0.1552
  855MOL0     C17908   4.569  10.688   5.347 -0.5618 -0.7933 -0.2370
  855MOL0     C17909   4.569  10.772   5.243 -0.8479  0.0079  0.3774
  855MOL0     C17910   4.509  10.750   5.117 -0.2802 -0.1033  0.3023
  855MOL0     O17911   4.518  10.857   5.030  0.8427 -0.8937  0.4272
  855MOL0     C17912   4.454  10.842   4.900 -0.0409 -0.2556 -0.8822
  855MOL0     C17913   4.450  10.983   4.843 -0.1617 -0.2536 -0.9671
  855MOL0     C17914   4.361  11.100   4.890  0.0962  0.2818  0.1033
  855MOL0     C17915   4.213  11.090   4.866 -0.2964  0.2069 -0.5302
  855MOL0     C17916   4.169  11.047   4.736 -0.1439 -0.9047  0.2598
  855MOL0     C17917   4.115  11.034   4.628  0.1254  0.3369  0.4971
  855MOL0     C17918   4.459  10.619   5.097 -0.3643  1.0448 -0.3082
  855MOL0     C17919   4.458  10.524   5.206 -0.5418  1.0446  0.1627
  855MOL0     C17920   4.386  10.397   5.190 -0.2383 -1.1881 -0.3626
  855MOL0     H17921   4.446  10.641   5.774  1.0770  0.2055 -1.4651
  855MOL0     H17922   4.457  10.527   6.013  0.2433  3.3774 -1.1691
  855MOL0     H17923   4.802  10.270   6.101  0.8092  2.9803  0.1768
  855MOL0     H17924   4.672  10.153   6.075  4.4813 -0.6572 -0.4886
  855MOL0     H17925   4.737  10.320   6.314  0.8988 -0.5983 -0.3928
  855MOL0     H17926   4.578  10.234   6.299 -1.1997  0.2200 -2.1686
  855MOL0     H17927   4.682  10.039   6.368  1.1560 -0.2696  1.4486
  855MOL0     H17928   4.807  10.055   6.234  3.3370  1.2556  1.1069
  855MOL0     H17929   4.940  10.185   6.392 -0.4411 -0.9569 -3.4315
  855MOL0     H17930   4.810  10.185   6.510  3.6359  1.1884  1.5322
  855MOL0     H17931   4.946   9.911   6.409  3.5121 -0.4303  1.6965
  855MOL0     H17932   4.819   9.940   6.526  0.6648  0.5838  1.4961
  855MOL0     H17933   5.105  10.057   6.563  0.1695  1.0486  4.4655
  855MOL0     H17934   4.961  10.041   6.667 -0.4702 -5.4597  1.7467
  855MOL0     H17935   5.116   9.808   6.517 -0.0541 -1.4023 -0.2601
  855MOL0     H17936   4.980   9.789   6.632  1.4179  0.0592  1.4843
  855MOL0     H17937   5.260   9.906   6.686  0.8490 -1.6135 -2.0310
  855MOL0     H17938   5.149   9.880   6.816  1.4413  1.2475  1.1399
  855MOL0     H17939   5.064   9.599   6.847 -0.0062 -1.3407  0.1634
  855MOL0     H17940   5.091   9.327   6.744  0.2975  0.5225 -0.0700
  855MOL0     H17941   5.101   9.382   6.907  2.6794  0.9425  1.9573
  855MOL0     H17942   5.213   9.154   6.870  1.9233 -0.5508  0.2176
  855MOL0     H17943   5.309   9.227   6.751  1.8877 -1.3504  0.2152
  855MOL0     H17944   5.401   9.385   6.925  3.2524 -1.5997 -1.1983
  855MOL0     H17945   5.317   9.284   7.053 -2.6619 -2.7305 -0.0497
  855MOL0     H17946   5.552   9.227   7.029 -2.2456  1.4333  2.1632
  855MOL0     H17947   5.437   9.094   6.991 -2.2446  1.0353 -0.2339
  855MOL0     H17948   5.650   9.370   6.939 -1.8134 -1.2337 -0.3167
  855MOL0     H17949   5.784   9.675   6.808 -2.1467 -0.5420 -0.5615
  855MOL0     H17950   5.910   9.561   6.870  0.0829 -0.6439  2.0605
  855MOL0     H17951   5.764   9.574   6.956  0.5971 -0.0179  0.1727
  855MOL0     H17952   6.132   9.580   6.659  1.5672  0.2487 -0.8115
  855MOL0     H17953   6.312   9.732   6.634 -1.0541  1.4018  0.6218
  855MOL0     H17954   6.454   9.755   6.261  1.3521 -0.8186  2.6158
  855MOL0     H17955   6.374   9.894   6.203 -1.2021  0.8725  1.1633
  855MOL0     H17956   6.564  10.033   6.312  4.2241  0.0044  2.6820
  855MOL0     H17957   6.633   9.871   6.356 -0.9505  0.4900  0.2356
  855MOL0     H17958   6.608  10.012   6.087 -0.8623  0.7431  3.0214
  855MOL0     H17959   6.657   9.842   6.082 -0.3336  0.0088  0.0427
  855MOL0     H17960   6.862   9.941   6.062  0.5652  1.4948 -0.5730
  855MOL0     H17961   6.851   9.891   6.229  3.6662  1.0151 -0.5628
  855MOL0     H17962   6.786  10.167   6.151  3.3410  1.0267 -2.4456
  855MOL0     H17963   6.808  10.090   6.316  0.4785  1.8557 -0.2937
  855MOL0     H17964   7.004  10.157   6.094  4.5698  0.5822  0.9077
  855MOL0     H17965   7.053  10.048   6.225 -0.5970 -0.1707 -0.1455
  855MOL0     H17966   7.000  10.223   6.387 -1.5612  1.3028  0.0664
  855MOL0     H17967   6.930  10.330   6.265 -0.6784 -0.8527  2.7998
  855MOL0     H17968   7.175  10.394   6.322 -2.8702 -0.1699 -0.4173
  855MOL0     H17969   7.154  10.335   6.150 -3.0367 -2.7968 -0.9139
  855MOL0     H17970   6.199   9.814   6.230  0.6206 -0.1797 -0.1733
  855MOL0     H17971   5.976   9.661   6.266  0.8700  2.0314 -1.5330
  855MOL0     H17972   5.707   9.349   6.445  1.2168  2.1471  0.2452
  855MOL0     H17973   5.569   9.166   6.587 -0.8945  0.6082  1.5635
  855MOL0     H17974   4.718  10.231   5.866  0.4720  1.1868  1.9074
  855MOL0     H17975   4.699  10.314   5.629  0.3618 -0.2014  0.5455
  855MOL0     H17976   4.611  10.730   5.438 -2.2482  2.5245 -0.8246
  855MOL0     H17977   4.631  10.861   5.236 -3.2922  1.7213 -1.0739
  855MOL0     H17978   4.511  10.771   4.839  2.9505 -1.1884  2.6709
  855MOL0     H17979   4.352  10.807   4.922  0.1307 -0.5432 -0.5252
  855MOL0     H17980   4.442  10.967   4.735  3.3146 -0.7502 -1.2783
  855MOL0     H17981   4.553  11.020   4.852  0.7858 -2.1689 -2.8241
  855MOL0     H17982   4.369  11.115   4.998 -0.4906 -2.2474  0.5717
  855MOL0     H17983   4.389  11.191   4.838  1.0221  1.4603  2.5003
  855MOL0     H17984   4.149  11.171   4.901 -2.9719 -1.3110 -1.6092
  855MOL0     H17985   4.186  11.007   4.932  2.1437  1.2340  1.9869
  855MOL0     H17986   4.076  11.033   4.528  1.7814 -2.3928 -0.2038
  855MOL0     H17987   4.427  10.594   4.997  3.1979  2.1058 -1.8833
  855MOL0     H17988   4.343  10.375   5.092  1.5378  0.7103 -1.6498
  855MOL0     H17989   4.457  10.315   5.210  1.4173 -0.4074 -2.6536
  855MOL0     H17990   4.311  10.398   5.270  0.3568  0.3520  0.2239
  856MOL0     O17991   6.062   1.762   0.305 -0.3661 -0.1039  0.1087
  856MOL0     C17992   6.030   1.638   0.301  0.0428 -0.8970 -0.3333
  856MOL0     O17993   6.117   1.529   0.295 -0.0540 -0.2869  0.3984
  856MOL0     C17994   6.246   1.545   0.256  0.2980 -1.1998  0.4510
  856MOL0     C17995   6.334   1.644   0.308  0.1725 -1.3312 -0.2954
  856MOL0     C17996   6.464   1.654   0.266 -0.2362 -0.2380 -0.3547
  856MOL0     C17997   6.517   1.568   0.173  0.1737 -1.0659 -0.6068
  856MOL0     O17998   6.649   1.570   0.132 -0.2946 -0.9791 -0.9201
  856MOL0     C17999   6.739   1.687   0.152  0.0235  0.1335  0.9916
  856MOL0     C18000   6.847   1.671   0.266  0.8712  0.0706 -0.4476
  856MOL0     C18001   6.920   1.801   0.283 -0.0082  0.2686  0.2718
  856MOL0     C18002   6.850   1.912   0.355 -0.4725 -0.0316  1.3716
  856MOL0     C18003   6.865   1.922   0.508 -0.4827 -0.3257  0.8328
  856MOL0     C18004   6.812   2.059   0.555 -0.5050  0.1423 -0.0121
  856MOL0     C18005   6.840   2.074   0.708  0.0002 -0.0093  0.3010
  856MOL0     C18006   6.828   2.220   0.766 -0.0879 -0.2102  0.4699
  856MOL0     N18007   6.698   2.285   0.736  0.2591  0.0419  0.0396
  856MOL0     C18008   6.684   2.406   0.682 -0.0828  0.6223  0.6295
  856MOL0     C18009   6.547   2.442   0.705  0.2385 -0.2425  0.9502
  856MOL0     C18010   6.481   2.574   0.691  0.0535  0.4029  0.1394
  856MOL0     C18011   6.493   2.649   0.819  0.7922 -0.4525  1.1453
  856MOL0     C18012   6.420   2.788   0.813 -0.3989 -0.0397  0.1087
  856MOL0     C18013   6.423   2.858   0.950  0.6807  0.0281 -0.1549
  856MOL0     O18014   6.355   2.986   0.936 -0.3910 -0.6042 -0.7205
  856MOL0     C18015   6.403   3.086   1.025  1.3083 -0.2637 -0.2593
  856MOL0     C18016   6.468   3.068   1.143  0.3586 -0.7298 -0.4299
  856MOL0     C18017   6.497   3.184   1.219 -0.2283  0.9677  0.4752
  856MOL0     C18018   6.563   3.153   1.351 -0.4080  1.1576 -0.3479
  856MOL0     C18019   6.472   3.320   1.171  1.0813  0.2162  0.2501
  856MOL0     C18020   6.523   3.442   1.230  0.4688 -0.5174  0.7090
  856MOL0     O18021   6.469   3.558   1.193 -0.0177  0.0568 -0.6076
  856MOL0     C18022   6.544   3.671   1.232  0.3450 -0.1074 -0.0145
  856MOL0     C18023   6.669   3.681   1.175 -0.4121  0.5478 -0.1382
  856MOL0     C18024   6.749   3.794   1.200 -0.1548  0.1946 -0.5352
  856MOL0     C18025   6.708   3.896   1.292  0.3830  0.2094  0.6764
  856MOL0     O18026   6.803   3.991   1.323  0.3610  0.0800  0.0011
  856MOL0     C18027   6.776   4.076   1.434 -0.5834 -0.4764  0.2262
  856MOL0     C18028   6.881   4.184   1.444  0.4368  0.1013 -0.0580
  856MOL0     C18029   6.992   4.139   1.530 -0.0920  0.6337  0.0034
  856MOL0     C18030   6.986   4.192   1.673 -0.5428 -1.2156  0.2124
  856MOL0     C18031   7.119   4.167   1.744 -0.2130 -0.3440 -0.2022
  856MOL0     C18032   7.158   4.022   1.788 -1.2312  0.3220  0.2613
  856MOL0     C18033   7.286   4.015   1.871  1.1680 -0.1389  0.0236
  856MOL0     C18034   7.255   3.931   2.014 -0.1988  0.0025  0.2330
  856MOL0    Cl18035   7.144   4.037   2.112  0.0190  0.2149 -0.2284
  856MOL0     C18036   6.579   3.877   1.358 -0.4334 -0.6138 -0.4177
  856MOL0     C18037   6.497   3.771   1.321  0.7821  0.0032 -0.4430
  856MOL0     O18038   6.612   3.430   1.313 -0.6356  0.1768 -0.2200
  856MOL0     C18039   6.407   3.327   1.046 -0.0973 -0.0678 -0.2183
  856MOL0     C18040   6.386   3.211   0.972  0.3161 -0.3683 -0.2896
  856MOL0     N18041   6.491   2.333   0.761 -0.2853  0.3312 -0.4326
  856MOL0     N18042   6.577   2.236   0.771 -0.5027 -0.2961  0.5145
  856MOL0     C18043   6.435   1.458   0.121  0.3081 -0.2300 -0.5623
  856MOL0     C18044   6.300   1.451   0.164  0.2461  0.3423 -0.1857
  856MOL0     C18045   5.884   1.605   0.330 -0.1884 -0.0575 -0.5638
  856MOL0     C18046   5.814   1.702   0.405  0.0710 -0.5213 -0.1844
  856MOL0     C18047   5.676   1.689   0.452 -0.6324 -0.0194  0.4492
  856MOL0     C18048   5.617   1.568   0.422  0.6518  0.0705  0.5130
  856MOL0     O18049   5.484   1.538   0.459 -0.1273 -0.7665 -0.3238
  856MOL0     C18050   5.382   1.600   0.367 -0.0404  0.3328  0.5717
  856MOL0     C18051   5.323   1.714   0.444  0.6314  0.4506 -1.3731
  856MOL0     C18052   5.199   1.780   0.381 -0.1384 -0.5429 -1.3660
  856MOL0     C18053   5.123   1.866   0.479  0.1277  0.2590  1.0580
  856MOL0     C18054   5.031   1.960   0.416  0.8807 -0.8055 -0.3375
  856MOL0     C18055   4.952   2.039   0.360  0.8240  0.1604 -0.2428
  856MOL0     C18056   5.681   1.479   0.335  0.0572  0.5861  0.0434
  856MOL0     C18057   5.809   1.493   0.289  1.3962 -0.8043 -0.1597
  856MOL0     C18058   5.870   1.386   0.204 -0.7702  0.6131  0.1531
  856MOL0     H18059   6.296   1.725   0.369 -0.4198 -1.8039 -0.0278
  856MOL0     H18060   6.521   1.728   0.321 -1.8891  2.1665 -1.7096
  856MOL0     H18061   6.672   1.773   0.160  1.2364  1.1686  0.4275
  856MOL0     H18062   6.804   1.699   0.065 -1.4062 -1.0296 -0.2972
  856MOL0     H18063   6.792   1.656   0.359  1.1060  1.1022 -0.1233
  856MOL0     H18064   6.906   1.585   0.236 -2.9710 -2.3623 -1.7565
  856MOL0     H18065   7.014   1.777   0.334 -0.9527 -1.1683  1.4348
  856MOL0     H18066   6.950   1.838   0.184 -1.0800  0.6535  0.0774
  856MOL0     H18067   6.910   1.997   0.322  1.9245 -1.2143  2.4348
  856MOL0     H18068   6.752   1.938   0.315  1.8222  2.6940 -3.3509
  856MOL0     H18069   6.967   1.902   0.542  0.2192 -0.7368 -1.3616
  856MOL0     H18070   6.816   1.832   0.546  0.7549 -2.5103 -2.2587
  856MOL0     H18071   6.867   2.137   0.500 -0.8889 -0.1386 -0.8198
  856MOL0     H18072   6.705   2.063   0.531 -0.3534 -0.6837 -0.8769
  856MOL0     H18073   6.942   2.042   0.732  0.5234  0.6446 -0.9466
  856MOL0     H18074   6.759   2.013   0.749 -2.9350  1.7460 -2.4253
  856MOL0     H18075   6.822   2.223   0.875  0.7837  3.3221  0.5343
  856MOL0     H18076   6.920   2.273   0.740  1.2832 -1.1978  3.0138
  856MOL0     H18077   6.771   2.461   0.647  1.1628 -2.7000 -2.1248
  856MOL0     H18078   6.380   2.547   0.659  1.4935 -2.2265 -2.7592
  856MOL0     H18079   6.520   2.624   0.601 -0.5637 -0.4216 -0.6035
  856MOL0     H18080   6.445   2.594   0.901 -2.1644 -1.6205 -1.2034
  856MOL0     H18081   6.598   2.668   0.842  1.7739 -3.7841  0.0428
  856MOL0     H18082   6.470   2.860   0.747 -1.6658  0.4936 -0.3153
  856MOL0     H18083   6.315   2.786   0.780 -0.4448 -1.6066  0.2991
  856MOL0     H18084   6.368   2.804   1.028  1.0403  3.9748  3.2237
  856MOL0     H18085   6.525   2.880   0.983  0.2602  0.5501  0.8725
  856MOL0     H18086   6.471   2.970   1.188  0.7469 -0.2145  0.6981
  856MOL0     H18087   6.524   3.222   1.426 -0.8359  0.3986  0.1340
  856MOL0     H18088   6.667   3.184   1.338 -0.1006  1.7572  2.7161
  856MOL0     H18089   6.563   3.048   1.381  1.2643  0.6928 -1.8137
  856MOL0     H18090   6.702   3.606   1.104 -1.4044  0.0911 -0.1273
  856MOL0     H18091   6.847   3.807   1.154 -1.0646 -2.1100 -3.4785
  856MOL0     H18092   6.675   4.117   1.432 -0.3925 -0.0400 -1.1546
  856MOL0     H18093   6.783   4.016   1.526 -1.9709 -1.5322 -0.3304
  856MOL0     H18094   6.915   4.206   1.343 -0.2604 -0.1602 -0.3579
  856MOL0     H18095   6.826   4.268   1.488  0.2490 -0.4483  0.7998
  856MOL0     H18096   7.084   4.160   1.475 -0.6017  0.6895 -0.8434
  856MOL0     H18097   6.999   4.030   1.535 -2.7902  0.4061  0.1368
  856MOL0     H18098   6.900   4.150   1.726 -1.1786  0.4976  0.6052
  856MOL0     H18099   6.971   4.301   1.675  4.0943 -0.2975 -1.7311
  856MOL0     H18100   7.204   4.210   1.690  1.2113 -1.7852  0.7709
  856MOL0     H18101   7.129   4.232   1.831 -2.7175  1.6644 -1.3133
  856MOL0     H18102   7.171   3.961   1.698  2.2387  2.6986 -1.0988
  856MOL0     H18103   7.083   3.979   1.854 -0.8858 -1.6065 -0.5395
  856MOL0     H18104   7.323   4.114   1.899 -0.9523  0.2955  1.5845
  856MOL0     H18105   7.367   3.970   1.813  2.3132 -0.6322  1.9032
  856MOL0     H18106   7.355   3.912   2.055  2.2461  2.6267 -3.7915
  856MOL0     H18107   7.205   3.835   1.994  1.7749 -1.4827  1.9728
  856MOL0     H18108   6.544   3.949   1.432  0.7545 -0.2203 -0.2086
  856MOL0     H18109   6.403   3.750   1.370 -0.3394  2.3050 -1.4555
  856MOL0     H18110   6.384   3.422   0.998  2.6017 -0.7194 -3.1244
  856MOL0     H18111   6.341   3.220   0.873  0.6710 -1.5183 -0.5670
  856MOL0     H18112   6.480   1.384   0.056 -0.1575  0.1488 -1.3309
  856MOL0     H18113   6.231   1.379   0.120 -0.4310  0.3777  0.7798
  856MOL0     H18114   5.859   1.800   0.422 -1.2404 -0.2244  2.0262
  856MOL0     H18115   5.614   1.764   0.501 -0.8428  1.6895 -2.2380
  856MOL0     H18116   5.424   1.637   0.273 -0.2688  1.7952  1.0207
  856MOL0     H18117   5.302   1.532   0.338 -2.5884  2.0496  2.9815
  856MOL0     H18118   5.403   1.784   0.472  1.6347 -1.0977 -0.2324
  856MOL0     H18119   5.297   1.667   0.539  2.2757  3.2336  0.6367
  856MOL0     H18120   5.231   1.837   0.293 -0.9028 -3.9493 -4.0634
  856MOL0     H18121   5.139   1.701   0.336 -1.7020  1.1850 -2.4890
  856MOL0     H18122   5.203   1.931   0.513  1.0956 -0.2699 -0.1290
  856MOL0     H18123   5.077   1.803   0.556 -3.2468 -0.0159 -0.9899
  856MOL0     H18124   4.873   2.099   0.321  0.3978  0.9315  1.6917
  856MOL0     H18125   5.642   1.385   0.296  0.2225  2.4516 -5.5770
  856MOL0     H18126   5.812   1.349   0.119  1.4477 -0.0579 -1.1700
  856MOL0     H18127   5.956   1.427   0.150  0.5811 -0.6593  1.2363
  856MOL0     H18128   5.912   1.303   0.262  0.1778  1.0951  0.1648
  857MOL0     O18129   4.068   2.094  10.448  0.3640  0.4321  0.3462
  857MOL0     C18130   4.172   2.065  10.499  0.3168  0.1117  0.0199
  857MOL0     O18131   4.261   2.157  10.553  0.6175 -0.1788 -0.7414
  857MOL0     C18132   4.241   2.292  10.530  0.0325 -0.9956  1.2748
  857MOL0     C18133   4.121   2.363  10.558  0.6664  0.1439 -0.0568
  857MOL0     C18134   4.112   2.502  10.519 -0.2816  1.2236 -0.7714
  857MOL0     C18135   4.222   2.579  10.497  0.0848  0.3008  0.9330
  857MOL0     O18136   4.215   2.717  10.480  0.3683  0.5970  0.2353
  857MOL0     C18137   4.092   2.789  10.490  0.4005  0.3226 -0.2964
  857MOL0     C18138   4.086   2.928  10.442  0.2848 -0.2102  0.8896
  857MOL0     C18139   4.156   2.952  10.309  0.0009  1.1025  0.1827
  857MOL0     C18140   4.072   2.907  10.188 -0.2558 -0.1353 -0.7523
  857MOL0     C18141   3.952   2.993  10.164  0.2960  0.1853 -1.1660
  857MOL0     C18142   3.918   2.960  10.021  0.5708  0.0865  0.6435
  857MOL0     C18143   3.790   3.034   9.982 -0.8805 -0.3911 -0.6512
  857MOL0     C18144   3.764   3.044   9.827 -0.0832  1.0925 -0.0402
  857MOL0     N18145   3.630   3.106   9.806 -0.7055  0.2686  0.4783
  857MOL0     C18146   3.602   3.161   9.683 -0.2962 -0.5675  0.6733
  857MOL0     C18147   3.476   3.210   9.698  0.4184  0.9522 -0.3063
  857MOL0     C18148   3.400   3.283   9.590 -0.5645 -0.0444 -0.3129
  857MOL0     C18149   3.267   3.326   9.630 -0.4096 -0.1752 -0.2287
  857MOL0     C18150   3.216   3.425   9.537 -0.8545 -0.6330 -1.0466
  857MOL0     C18151   3.066   3.452   9.561 -0.4265  0.6374 -0.4264
  857MOL0     O18152   3.013   3.487   9.433  1.0926  0.1242 -0.6971
  857MOL0     C18153   2.889   3.549   9.416  1.1996 -0.3934 -0.2007
  857MOL0     C18154   2.839   3.568   9.281 -0.4203  0.0525 -0.4046
  857MOL0     C18155   2.721   3.640   9.258 -0.1195 -0.2028 -0.6866
  857MOL0     C18156   2.672   3.652   9.112 -0.2298 -0.5704 -0.0310
  857MOL0     C18157   2.657   3.709   9.364  0.3942  0.2794 -0.7012
  857MOL0     C18158   2.559   3.810   9.337 -0.1104 -0.0117  0.5235
  857MOL0     O18159   2.606   3.939   9.303 -0.3799 -0.0306 -0.1281
  857MOL0     C18160   2.512   4.039   9.289  0.1019 -0.1579 -0.1078
  857MOL0     C18161   2.440   4.102   9.397  0.8014  0.5164  0.3065
  857MOL0     C18162   2.352   4.211   9.376  0.0366  0.4716  0.0291
  857MOL0     C18163   2.366   4.277   9.254 -0.2707 -0.4186 -0.1722
  857MOL0     O18164   2.313   4.404   9.237 -0.2638  0.1347 -0.4071
  857MOL0     C18165   2.377   4.512   9.302  1.2012 -0.7576  1.3595
  857MOL0     C18166   2.259   4.586   9.357  0.2841  0.9394  0.4346
  857MOL0     C18167   2.318   4.725   9.386 -0.5517  0.3343  0.0579
  857MOL0     C18168   2.203   4.804   9.462  0.0154  0.4985  0.2112
  857MOL0     C18169   2.241   4.834   9.603 -0.5906  0.4985 -0.3384
  857MOL0     C18170   2.163   4.956   9.659  1.3019  0.2336  0.9206
  857MOL0     C18171   2.155   4.946   9.812 -0.5405  0.2096  0.1928
  857MOL0     C18172   2.089   5.075   9.873  0.0753  0.7980  0.4044
  857MOL0    Cl18173   2.216   5.200   9.876  0.2086  0.0825  0.1530
  857MOL0     C18174   2.442   4.224   9.146  0.0497 -0.3183 -0.6442
  857MOL0     C18175   2.518   4.102   9.167  0.6798 -0.1419 -0.0968
  857MOL0     O18176   2.447   3.770   9.346  0.2866  0.1400  0.2459
  857MOL0     C18177   2.706   3.686   9.495  0.1565 -0.2650  0.5354
  857MOL0     C18178   2.816   3.601   9.520  0.5105  0.0963  0.5611
  857MOL0     N18179   3.441   3.189   9.830  0.3869 -0.6276  0.2774
  857MOL0     N18180   3.530   3.118   9.886 -0.5311  0.6347 -0.2767
  857MOL0     C18181   4.340   2.516  10.493 -0.2303  0.2204  0.0572
  857MOL0     C18182   4.359   2.380  10.503  0.0440  0.7979  0.3724
  857MOL0     C18183   4.202   1.913  10.495  0.1328  0.1404  0.1932
  857MOL0     C18184   4.104   1.826  10.453  0.0557 -0.0332 -0.9871
  857MOL0     C18185   4.115   1.688  10.459 -0.0914  1.0149  0.6813
  857MOL0     C18186   4.237   1.635  10.505  0.9999  0.9854 -0.2906
  857MOL0     O18187   4.257   1.505  10.537  0.1093  0.1940  0.2566
  857MOL0     C18188   4.238   1.402  10.438 -0.2276  0.7665 -0.2511
  857MOL0     C18189   4.090   1.356  10.430 -0.4475 -0.1564 -0.7253
  857MOL0     C18190   4.025   1.342  10.562  0.1935 -0.5260  0.4578
  857MOL0     C18191   3.864   1.313  10.534  0.5415 -0.1218 -0.2831
  857MOL0     C18192   3.836   1.177  10.478  0.2373  0.7546 -0.2100
  857MOL0     C18193   3.816   1.063  10.442 -0.0162  0.2659  0.2499
  857MOL0     C18194   4.335   1.723  10.550 -1.2293  0.4441  0.4140
  857MOL0     C18195   4.324   1.859  10.538  0.5419 -1.1156 -0.5241
  857MOL0     C18196   4.444   1.942  10.592  0.8503 -0.2027 -0.8976
  857MOL0     H18197   4.034   2.307  10.588 -1.2104  2.3219 -1.1602
  857MOL0     H18198   4.012   2.543  10.513 -1.4939 -1.5907 -1.4635
  857MOL0     H18199   4.060   2.776  10.593 -0.6327  0.7535 -0.5569
  857MOL0     H18200   4.025   2.735  10.422  0.7726 -1.4560  0.6816
  857MOL0     H18201   3.981   2.960  10.440  1.0527  2.5802 -1.2593
  857MOL0     H18202   4.125   2.994  10.520  0.8361 -0.2205  0.6226
  857MOL0     H18203   4.168   3.061  10.310  1.4063  0.9798  1.7691
  857MOL0     H18204   4.245   2.888  10.305 -0.5326  0.0832  2.8836
  857MOL0     H18205   4.127   2.915  10.093  0.1150 -2.8799 -0.8340
  857MOL0     H18206   4.038   2.804  10.200 -2.3913  0.4895 -1.1512
  857MOL0     H18207   3.958   3.098  10.194  1.6638 -0.4646  1.0548
  857MOL0     H18208   3.878   2.949  10.232 -0.7983  2.6206 -0.6828
  857MOL0     H18209   3.998   2.986   9.950  3.1436 -1.8315  2.6610
  857MOL0     H18210   3.898   2.853  10.021 -2.9449  0.6117 -0.2755
  857MOL0     H18211   3.788   3.136  10.023 -1.9225  0.0851 -1.8189
  857MOL0     H18212   3.710   2.987  10.041 -0.2955  0.1842  0.6492
  857MOL0     H18213   3.832   3.123   9.796  0.0107  1.8553  1.9747
  857MOL0     H18214   3.769   2.947   9.775 -2.4599  0.4650  0.7836
  857MOL0     H18215   3.664   3.169   9.594 -0.8983  1.3974  0.3949
  857MOL0     H18216   3.388   3.218   9.503 -0.7763  0.5704 -0.7535
  857MOL0     H18217   3.455   3.373   9.561  1.1777 -1.4627 -1.6515
  857MOL0     H18218   3.198   3.245   9.653  0.3948 -1.3743 -1.8376
  857MOL0     H18219   3.267   3.381   9.724 -1.4373  2.1517 -1.4764
  857MOL0     H18220   3.264   3.523   9.537  2.0588 -1.7626  3.2302
  857MOL0     H18221   3.227   3.378   9.438  1.4381 -2.0998 -0.1909
  857MOL0     H18222   3.011   3.368   9.605 -0.6712  0.5154 -0.9578
  857MOL0     H18223   3.072   3.530   9.638  1.4227 -1.7031  1.9817
  857MOL0     H18224   2.893   3.518   9.201 -0.3913 -0.2538 -0.1974
  857MOL0     H18225   2.699   3.750   9.072  1.1796 -1.4659 -1.3874
  857MOL0     H18226   2.568   3.618   9.104 -0.4541  0.2970 -1.0255
  857MOL0     H18227   2.732   3.580   9.055  0.0061 -2.9474  2.9435
  857MOL0     H18228   2.450   4.067   9.499  0.4234  1.7755  0.7986
  857MOL0     H18229   2.288   4.256   9.451  3.3379  2.8987  1.6972
  857MOL0     H18230   2.443   4.483   9.384  0.6387  0.8706  2.4401
  857MOL0     H18231   2.447   4.566   9.236  2.1695 -1.4071  1.8279
  857MOL0     H18232   2.179   4.594   9.283 -0.2658 -0.8675  0.7861
  857MOL0     H18233   2.215   4.529   9.440  1.2398 -0.4990 -0.0270
  857MOL0     H18234   2.353   4.775   9.295  0.8261  0.4336  0.6318
  857MOL0     H18235   2.410   4.702   9.440  0.4793 -0.6373 -1.9967
  857MOL0     H18236   2.110   4.748   9.456 -0.1873  0.9428 -1.4652
  857MOL0     H18237   2.173   4.896   9.410 -0.5556 -0.5821 -1.4757
  857MOL0     H18238   2.223   4.751   9.671  2.0743 -1.7134 -2.1239
  857MOL0     H18239   2.349   4.854   9.603 -0.6738  0.9723 -1.1072
  857MOL0     H18240   2.063   4.944   9.616  1.8104  0.6017 -0.4397
  857MOL0     H18241   2.206   5.044   9.610  2.7204 -1.7474 -1.6227
  857MOL0     H18242   2.257   4.951   9.851 -0.9568 -1.2305  1.5558
  857MOL0     H18243   2.106   4.852   9.840  0.3575 -0.9411 -1.8411
  857MOL0     H18244   2.060   5.064   9.977 -1.1572 -0.4413 -0.0453
  857MOL0     H18245   2.004   5.107   9.812  0.1538 -0.1722 -0.2339
  857MOL0     H18246   2.452   4.270   9.048 -4.0079 -1.5375 -1.8104
  857MOL0     H18247   2.578   4.070   9.083 -0.1125  0.3981 -0.8820
  857MOL0     H18248   2.654   3.730   9.579 -1.7006 -1.2449 -0.0458
  857MOL0     H18249   2.843   3.581   9.623 -0.1570 -1.2465  0.4907
  857MOL0     H18250   4.432   2.570  10.471  0.1882 -0.3253  0.4076
  857MOL0     H18251   4.459   2.338  10.509 -0.6816 -1.0289  0.5410
  857MOL0     H18252   4.004   1.866  10.443  0.1880  0.4215 -0.5276
  857MOL0     H18253   4.024   1.640  10.425  1.1687 -0.8903 -0.1921
  857MOL0     H18254   4.270   1.452  10.346 -0.5388  4.2513  1.3760
  857MOL0     H18255   4.293   1.314  10.470  1.0902  1.0641 -1.5795
  857MOL0     H18256   4.094   1.262  10.374  1.1236  0.2365 -1.3153
  857MOL0     H18257   4.032   1.419  10.362 -4.4690 -3.1125 -0.3885
  857MOL0     H18258   4.058   1.259  10.625 -1.3273  0.3073  2.4695
  857MOL0     H18259   4.037   1.435  10.618 -0.4006 -0.5274  0.6016
  857MOL0     H18260   3.835   1.402  10.477 -0.0009  0.2698  0.5992
  857MOL0     H18261   3.807   1.325  10.626  0.4116 -2.3947 -0.0156
  857MOL0     H18262   3.796   0.962  10.412 -4.2598  0.9003  0.3050
  857MOL0     H18263   4.430   1.690  10.589  1.4092  3.0137 -3.1938
  857MOL0     H18264   4.427   2.004  10.680  0.9456  2.2752 -2.5350
  857MOL0     H18265   4.521   1.866  10.608  0.0211 -0.6618  1.2915
  857MOL0     H18266   4.491   1.996  10.510  0.9558 -0.8996 -1.3090
  858MOL0     O18267   5.517   1.003   6.120  0.6663  0.4673  0.2369
  858MOL0     C18268   5.485   0.980   6.246 -1.4377  0.0375  0.9124
  858MOL0     O18269   5.569   0.928   6.339  0.1442 -1.4342 -0.3071
  858MOL0     C18270   5.708   0.939   6.315  0.4004 -0.3619  0.1323
  858MOL0     C18271   5.805   0.839   6.344 -0.4971 -0.3250 -0.3997
  858MOL0     C18272   5.941   0.860   6.325 -0.1954  0.8129 -0.1424
  858MOL0     C18273   5.994   0.979   6.274  0.6748 -0.2031  0.1998
  858MOL0     O18274   6.131   0.988   6.253 -0.2564  1.3072 -0.2406
  858MOL0     C18275   6.183   1.115   6.231  0.3791  0.7018 -0.0089
  858MOL0     C18276   6.332   1.117   6.212 -1.2290  0.0981  0.4942
  858MOL0     C18277   6.390   1.036   6.092 -0.4989 -0.2394 -0.2262
  858MOL0     C18278   6.548   1.036   6.100  1.1776  0.8932  0.4359
  858MOL0     C18279   6.618   1.166   6.054  0.7364  0.1115 -0.2386
  858MOL0     C18280   6.771   1.162   6.075 -0.7236  0.7788  0.6058
  858MOL0     C18281   6.849   1.075   5.971 -0.2215  0.2872  0.2183
  858MOL0     C18282   6.827   1.123   5.823  0.5977 -0.2237 -0.2035
  858MOL0     N18283   6.872   1.265   5.812 -0.1137  0.9272  0.1335
  858MOL0     C18284   6.788   1.373   5.807  0.3533  0.1656 -0.1436
  858MOL0     C18285   6.877   1.476   5.824  0.5663 -0.0015  0.4227
  858MOL0     C18286   6.855   1.621   5.846 -0.2961 -0.1581 -0.2923
  858MOL0     C18287   6.868   1.645   5.995  0.0401 -0.2798  0.3924
  858MOL0     C18288   6.920   1.786   6.013 -0.6746  0.4268  0.6631
  858MOL0     C18289   6.894   1.855   6.151 -1.2261 -0.9676  0.6744
  858MOL0     O18290   6.745   1.855   6.181  0.2850 -0.1571 -0.5427
  858MOL0     C18291   6.723   1.916   6.303  0.0404 -0.1400  0.5238
  858MOL0     C18292   6.669   1.837   6.408 -1.1652 -0.1913  0.2733
  858MOL0     C18293   6.628   1.884   6.535  0.3209 -0.6678 -0.2557
  858MOL0     C18294   6.568   1.796   6.646 -0.6501 -0.0003  0.3665
  858MOL0     C18295   6.648   2.018   6.564  0.0141 -0.1539  0.3618
  858MOL0     C18296   6.597   2.094   6.677 -0.2138 -0.9143 -0.3297
  858MOL0     O18297   6.468   2.145   6.665 -0.2611 -0.2107  0.3012
  858MOL0     C18298   6.426   2.249   6.746 -0.8344  0.0740  0.7147
  858MOL0     C18299   6.285   2.264   6.745  0.7586 -0.3319 -0.1223
  858MOL0     C18300   6.216   2.366   6.816 -0.4887 -0.4277  0.3977
  858MOL0     C18301   6.296   2.450   6.890 -0.9758 -0.3244  0.5526
  858MOL0     O18302   6.258   2.571   6.940 -0.1750 -0.6842  0.1984
  858MOL0     C18303   6.245   2.674   6.834  0.2527  0.0884  0.5013
  858MOL0     C18304   6.183   2.806   6.891 -0.1006  0.1978  0.1196
  858MOL0     C18305   6.039   2.777   6.935  0.2365 -0.5517  0.5861
  858MOL0     C18306   5.977   2.894   7.017  0.5889  0.4133 -0.4562
  858MOL0     C18307   6.045   2.907   7.158  0.4866 -0.1053  0.2838
  858MOL0     C18308   5.960   3.002   7.242 -0.0827  0.2673 -0.3478
  858MOL0     C18309   6.030   3.037   7.380  0.4567 -1.0920  0.5757
  858MOL0     C18310   5.921   3.117   7.461  0.0815  0.0188 -0.7469
  858MOL0    Cl18311   5.934   3.066   7.629 -0.1249  0.5646  0.8622
  858MOL0     C18312   6.431   2.438   6.885  0.3267  0.1089  0.0337
  858MOL0     C18313   6.500   2.324   6.833  0.1244 -0.7696  0.3273
  858MOL0     O18314   6.663   2.097   6.781 -0.5001 -0.6298 -0.1251
  858MOL0     C18315   6.686   2.105   6.456  0.3190  0.1415  0.7374
  858MOL0     C18316   6.708   2.051   6.325 -0.3874 -0.4897  0.3954
  858MOL0     N18317   7.004   1.422   5.841 -0.5585  0.7478  0.9066
  858MOL0     N18318   7.007   1.295   5.823  0.7764 -0.4908 -0.2497
  858MOL0     C18319   5.894   1.066   6.232  0.5251  0.0348 -0.0861
  858MOL0     C18320   5.759   1.056   6.264 -0.2977 -1.2274 -0.2451
  858MOL0     C18321   5.345   0.999   6.280  0.5875 -0.2814 -0.7022
  858MOL0     C18322   5.267   0.889   6.335 -0.4304 -0.1342 -0.4344
  858MOL0     C18323   5.137   0.913   6.366 -0.0223  0.2419  0.2578
  858MOL0     C18324   5.084   1.045   6.360  0.2738  0.5398  0.4280
  858MOL0     O18325   4.954   1.057   6.404  0.4151  0.2464  0.0562
  858MOL0     C18326   4.878   1.180   6.398 -0.0374 -0.5183  0.2638
  858MOL0     C18327   4.739   1.167   6.465  0.4351  0.6383 -0.2533
  858MOL0     C18328   4.652   1.295   6.452 -0.3035  0.3447 -0.0844
  858MOL0     C18329   4.511   1.249   6.467  0.2501 -0.7429 -0.7329
  858MOL0     C18330   4.426   1.365   6.482  0.4002  0.5488 -0.3550
  858MOL0     C18331   4.363   1.465   6.516 -0.4020  0.4522 -0.0774
  858MOL0     C18332   5.157   1.150   6.303  0.5641  0.2261  0.0978
  858MOL0     C18333   5.288   1.129   6.275 -0.4500  0.7103  0.7715
  858MOL0     C18334   5.363   1.248   6.222 -0.1992 -0.0926  0.7109
  858MOL0     H18335   5.756   0.747   6.377 -2.4233  1.0414  0.7611
  858MOL0     H18336   6.016   0.787   6.353 -3.3757 -2.1767  1.3536
  858MOL0     H18337   6.158   1.182   6.314  2.4373  1.2367  0.2234
  858MOL0     H18338   6.144   1.151   6.135  2.0335 -2.4146 -2.0158
  858MOL0     H18339   6.363   1.222   6.216  1.1482 -0.4774 -0.7573
  858MOL0     H18340   6.369   1.069   6.303 -5.3764 -2.1552  1.2703
  858MOL0     H18341   6.363   0.932   6.112  4.0346 -1.5389  0.2152
  858MOL0     H18342   6.346   1.063   5.995 -6.7582 -0.8313  1.9474
  858MOL0     H18343   6.579   1.020   6.204  1.5453  1.1079  0.3618
  858MOL0     H18344   6.576   0.952   6.036 -2.5235 -0.1275 -0.0845
  858MOL0     H18345   6.573   1.242   6.118 -1.3268 -0.6674 -0.6815
  858MOL0     H18346   6.605   1.170   5.945  0.5283 -0.7576 -0.2613
  858MOL0     H18347   6.801   1.267   6.074  1.2554  0.2439  0.2107
  858MOL0     H18348   6.779   1.129   6.180 -2.4973 -0.7348  0.3297
  858MOL0     H18349   6.819   0.971   5.981 -1.3831  0.7322  1.5382
  858MOL0     H18350   6.956   1.073   5.996 -0.5852 -2.8640  1.9950
  858MOL0     H18351   6.894   1.064   5.760 -0.9250 -1.2024 -0.9685
  858MOL0     H18352   6.726   1.108   5.785  0.9259 -3.4882 -0.0734
  858MOL0     H18353   6.680   1.377   5.802  0.3695  0.4813 -0.2486
  858MOL0     H18354   6.752   1.646   5.822 -0.5442  2.6083  2.9610
  858MOL0     H18355   6.927   1.678   5.787 -1.3307  1.4651 -0.0378
  858MOL0     H18356   6.771   1.633   6.044 -1.2458 -0.5701 -2.0893
  858MOL0     H18357   6.930   1.569   6.043 -2.1761 -2.7598 -0.4635
  858MOL0     H18358   7.026   1.791   5.988 -0.9222 -0.0590 -0.5892
  858MOL0     H18359   6.868   1.842   5.935  0.2267  0.1109 -0.1959
  858MOL0     H18360   6.945   1.800   6.231  0.9702 -4.8834 -3.0216
  858MOL0     H18361   6.938   1.955   6.150 -0.6792 -1.1962 -0.7590
  858MOL0     H18362   6.651   1.730   6.401  4.6211 -1.4222 -0.6132
  858MOL0     H18363   6.554   1.691   6.621  0.3510  0.1788 -1.0816
  858MOL0     H18364   6.486   1.840   6.703  0.3218  3.2364 -0.4883
  858MOL0     H18365   6.657   1.786   6.709  0.6353  3.6740 -0.5893
  858MOL0     H18366   6.234   2.190   6.683 -0.8073  0.5831  0.0239
  858MOL0     H18367   6.109   2.381   6.811 -0.3728  0.0455 -3.1668
  858MOL0     H18368   6.347   2.688   6.797 -0.7592  0.7425 -2.2835
  858MOL0     H18369   6.184   2.643   6.748 -0.7390 -2.2075  1.9399
  858MOL0     H18370   6.236   2.825   6.984  0.3137  0.4467 -0.1675
  858MOL0     H18371   6.176   2.883   6.814 -1.7019 -1.4501 -1.4893
  858MOL0     H18372   6.024   2.690   7.000 -2.0815 -0.4454  0.2790
  858MOL0     H18373   5.972   2.739   6.857 -2.7136 -1.7890  3.4597
  858MOL0     H18374   5.875   2.861   7.034  0.7003 -0.5755 -1.5735
  858MOL0     H18375   5.969   2.985   6.956 -0.9527  0.2731 -0.5047
  858MOL0     H18376   6.055   2.805   7.195  1.8063 -0.8564 -1.9789
  858MOL0     H18377   6.144   2.954   7.153 -0.0352  1.2351  1.8723
  858MOL0     H18378   5.865   2.950   7.257  1.4267 -2.4844  0.4071
  858MOL0     H18379   5.939   3.091   7.183  0.5603 -0.1795 -1.2752
  858MOL0     H18380   6.120   3.089   7.347 -0.7891 -0.9471 -3.0660
  858MOL0     H18381   6.056   2.943   7.429  3.1081 -0.3053  0.8111
  858MOL0     H18382   5.821   3.101   7.418  0.0442 -0.8567 -0.3564
  858MOL0     H18383   5.940   3.225   7.453  3.4315 -0.2936  1.3231
  858MOL0     H18384   6.493   2.507   6.941 -2.1237  0.1169  2.9577
  858MOL0     H18385   6.608   2.314   6.827 -0.0646 -2.7670 -0.8454
  858MOL0     H18386   6.677   2.212   6.469  0.4993  0.2516 -0.0225
  858MOL0     H18387   6.727   2.120   6.243 -2.2176 -1.1344 -0.6215
  858MOL0     H18388   5.918   1.164   6.191  1.5766  0.1090  0.6734
  858MOL0     H18389   5.702   1.144   6.237  0.5872 -0.5697 -0.0015
  858MOL0     H18390   5.293   0.783   6.327 -1.6976 -0.5152  0.2457
  858MOL0     H18391   5.073   0.848   6.426 -0.0359 -0.0248 -0.0454
  858MOL0     H18392   4.922   1.266   6.449 -2.4739  1.4756 -0.7739
  858MOL0     H18393   4.856   1.198   6.292  3.3041 -2.5210 -0.9276
  858MOL0     H18394   4.761   1.149   6.570  1.5812 -2.4347 -0.9366
  858MOL0     H18395   4.681   1.079   6.436  0.4191 -0.2381  2.2425
  858MOL0     H18396   4.691   1.380   6.507  2.6952 -0.6194 -0.5493
  858MOL0     H18397   4.655   1.330   6.348  1.5527 -1.1767 -0.6004
  858MOL0     H18398   4.508   1.184   6.554 -1.6969  0.0383 -0.1562
  858MOL0     H18399   4.477   1.195   6.378  0.5341  2.6398 -3.1172
  858MOL0     H18400   4.310   1.557   6.525  0.1406  0.5893  2.1195
  858MOL0     H18401   5.110   1.240   6.263  0.9380  0.2037 -0.4000
  858MOL0     H18402   5.389   1.228   6.118  0.1910  0.5057  0.6962
  858MOL0     H18403   5.295   1.333   6.214 -0.3801 -0.4136 -2.3828
  858MOL0     H18404   5.456   1.279   6.269 -1.2857  0.0397  2.9334
  859MOL0     O18405   1.306   9.571   4.456  0.3974 -0.0041  0.0033
  859MOL0     C18406   1.303   9.528   4.341  0.9023  0.1775  0.1167
  859MOL0     O18407   1.336   9.598   4.221 -0.5136 -0.2196  0.3358
  859MOL0     C18408   1.360   9.733   4.243 -0.3988  0.5743  0.4647
  859MOL0     C18409   1.255   9.810   4.199 -0.7432 -0.0569 -0.0557
  859MOL0     C18410   1.257   9.950   4.228 -1.0238 -0.3389  0.2647
  859MOL0     C18411   1.373  10.011   4.286  0.3197 -0.4747  0.0124
  859MOL0     O18412   1.399  10.148   4.296  0.0186  0.2680  0.2280
  859MOL0     C18413   1.298  10.241   4.246  0.6376  0.1709 -0.2773
  859MOL0     C18414   1.282  10.358   4.339  0.2559 -0.2044  0.4490
  859MOL0     C18415   1.420  10.438   4.383  0.9229  0.5705  0.7856
  859MOL0     C18416   1.395  10.551   4.485  0.1648  0.2434 -0.5953
  859MOL0     C18417   1.353  10.478   4.621 -1.6733 -0.0342 -0.3509
  859MOL0     C18418   1.374  10.561   4.741 -0.4786  0.2044  0.4503
  859MOL0     C18419   1.370  10.470   4.868  0.5995 -1.2887 -0.3628
  859MOL0     C18420   1.381  10.538   5.001  0.1812 -0.3897 -0.6670
  859MOL0     N18421   1.346  10.445   5.118 -0.7011 -1.5758  0.5647
  859MOL0     C18422   1.233  10.379   5.141  0.1221  0.1976  0.5335
  859MOL0     C18423   1.257  10.318   5.266  1.3291 -0.2329  1.2657
  859MOL0     C18424   1.129  10.260   5.330  0.1177  0.3751 -0.7214
  859MOL0     C18425   1.147  10.110   5.370 -0.6143 -0.2952  0.4507
  859MOL0     C18426   1.118  10.014   5.253  0.4612 -0.3906  0.2000
  859MOL0     C18427   1.080   9.880   5.290  0.8551  0.2526  0.1726
  859MOL0     O18428   1.074   9.796   5.172 -0.1895  0.3704  0.3599
  859MOL0     C18429   1.192   9.755   5.108  1.1130 -0.3837  0.7127
  859MOL0     C18430   1.190   9.692   4.983  0.5131 -0.7691  0.0165
  859MOL0     C18431   1.300   9.651   4.909 -0.1707 -0.4353  0.0291
  859MOL0     C18432   1.272   9.586   4.776  0.1368  0.7044 -0.1310
  859MOL0     C18433   1.430   9.663   4.964 -0.0232  0.3064 -0.0960
  859MOL0     C18434   1.559   9.625   4.886 -0.2349 -0.2748 -0.9006
  859MOL0     O18435   1.558   9.596   4.762  0.3382  0.2284 -0.0614
  859MOL0     C18436   1.670   9.534   4.716 -0.5549 -0.5031  0.7717
  859MOL0     C18437   1.767   9.455   4.781 -0.2514 -0.6451 -0.5199
  859MOL0     C18438   1.862   9.373   4.712  0.0155 -0.6638  0.4630
  859MOL0     C18439   1.847   9.357   4.575  0.3302 -0.0152 -0.8435
  859MOL0     O18440   1.904   9.263   4.492 -0.8068 -0.0527 -0.2158
  859MOL0     C18441   2.000   9.174   4.547 -0.8234  1.4851 -1.1754
  859MOL0     C18442   2.056   9.094   4.436  0.2820 -0.2297  0.3960
  859MOL0     C18443   2.156   9.181   4.359 -0.5173 -0.3847 -0.1347
  859MOL0     C18444   2.178   9.111   4.225 -0.1966 -0.4573  0.7179
  859MOL0     C18445   2.246   9.210   4.126 -0.4291 -1.2660  0.4700
  859MOL0     C18446   2.383   9.259   4.166 -0.5027 -0.2716 -0.1321
  859MOL0     C18447   2.433   9.372   4.073 -1.3887 -0.3797 -0.5196
  859MOL0     C18448   2.584   9.411   4.093 -0.1413  0.3364  0.0546
  859MOL0    Cl18449   2.688   9.279   4.037 -0.1982  0.5905  0.0121
  859MOL0     C18450   1.746   9.430   4.505 -0.0717  0.2248  0.2462
  859MOL0     C18451   1.672   9.524   4.577 -0.9670  0.5579  0.0356
  859MOL0     O18452   1.659   9.649   4.950 -0.2316 -1.2352 -0.2619
  859MOL0     C18453   1.435   9.731   5.094  0.1732  1.0808  0.6793
  859MOL0     C18454   1.324   9.772   5.164 -1.3625 -1.4536  0.0696
  859MOL0     N18455   1.373  10.366   5.321  0.4345 -0.0453 -0.2050
  859MOL0     N18456   1.427  10.437   5.226 -0.0099 -0.1687 -0.3689
  859MOL0     C18457   1.473   9.924   4.327 -0.9682 -0.5725 -0.7017
  859MOL0     C18458   1.468   9.790   4.314 -0.2555 -0.0558  0.8153
  859MOL0     C18459   1.238   9.392   4.313 -0.6316 -0.5900  0.0948
  859MOL0     C18460   1.202   9.366   4.184  0.3514  0.2262 -0.3872
  859MOL0     C18461   1.151   9.241   4.146 -0.0578  0.9413 -0.2893
  859MOL0     C18462   1.125   9.136   4.230  0.5423 -0.2700 -0.1378
  859MOL0     O18463   1.069   9.011   4.206  0.5856 -0.2403 -0.4619
  859MOL0     C18464   1.018   8.983   4.081 -0.6632 -0.0880  0.1895
  859MOL0     C18465   1.140   8.952   3.979  0.3370 -0.3240  0.1399
  859MOL0     C18466   1.095   8.872   3.855 -0.2734 -0.1803 -0.7563
  859MOL0     C18467   1.187   8.877   3.730 -0.7432  0.2071  0.6583
  859MOL0     C18468   1.101   8.862   3.611  0.6705 -0.0242  0.7153
  859MOL0     C18469   1.023   8.845   3.525 -0.2542 -0.5566  0.2739
  859MOL0     C18470   1.159   9.164   4.363 -0.1720  0.4017  1.1189
  859MOL0     C18471   1.218   9.281   4.407 -0.5466 -1.2416 -0.3495
  859MOL0     C18472   1.266   9.282   4.551 -0.5340 -0.5278  0.1983
  859MOL0     H18473   1.166   9.773   4.149  1.0203 -2.2483 -1.8444
  859MOL0     H18474   1.161   9.999   4.210 -1.7280 -0.8303  2.3844
  859MOL0     H18475   1.195  10.204   4.245  0.4919  0.4047  1.5847
  859MOL0     H18476   1.318  10.281   4.146  0.5398  4.0684  1.0636
  859MOL0     H18477   1.210  10.429   4.296 -0.4794 -1.9735 -1.3578
  859MOL0     H18478   1.234  10.334   4.435 -0.3075  1.8594  0.7513
  859MOL0     H18479   1.487  10.360   4.420 -1.3360 -3.0978 -2.1706
  859MOL0     H18480   1.469  10.473   4.291  1.2292 -0.9216  0.3589
  859MOL0     H18481   1.485  10.607   4.511  0.8514 -1.8725  2.0184
  859MOL0     H18482   1.323  10.621   4.442  0.6846  2.0419  1.2869
  859MOL0     H18483   1.397  10.380   4.639 -0.2146  0.5502 -0.5919
  859MOL0     H18484   1.244  10.467   4.622 -1.8700  0.7612  3.5731
  859MOL0     H18485   1.473  10.606   4.743 -0.8252  1.0496 -0.5006
  859MOL0     H18486   1.297  10.639   4.738 -3.5160 -2.5873 -2.0442
  859MOL0     H18487   1.436  10.382   4.861  0.3830 -1.4072 -0.9736
  859MOL0     H18488   1.273  10.420   4.865 -0.7085  0.9851  1.3440
  859MOL0     H18489   1.488  10.558   5.012  0.1351 -1.1559  1.9040
  859MOL0     H18490   1.325  10.632   4.995  1.7470  0.4792 -3.2915
  859MOL0     H18491   1.146  10.353   5.082  2.2285 -0.7406 -2.4076
  859MOL0     H18492   1.035  10.276   5.277 -0.3424 -2.9492 -1.1159
  859MOL0     H18493   1.124  10.311   5.427  0.5678 -1.5549  0.3794
  859MOL0     H18494   1.245  10.085   5.413  0.2565 -0.2650 -1.4117
  859MOL0     H18495   1.073  10.078   5.443 -1.4835  0.0305 -0.2615
  859MOL0     H18496   1.041  10.063   5.192  1.3311  1.7349  0.7270
  859MOL0     H18497   1.210  10.018   5.195  2.5811  4.6707  3.2189
  859MOL0     H18498   1.152   9.832   5.358  2.1901 -1.5436 -2.3129
  859MOL0     H18499   0.983   9.876   5.341  2.3605 -2.5468  3.1953
  859MOL0     H18500   1.092   9.676   4.938  0.2911  0.1516  0.1656
  859MOL0     H18501   1.294   9.653   4.693 -0.2176 -0.4222 -1.1512
  859MOL0     H18502   1.169   9.550   4.771  1.5431 -4.0968  0.2362
  859MOL0     H18503   1.334   9.496   4.773 -0.7334 -0.2408  3.8491
  859MOL0     H18504   1.773   9.461   4.890  1.7003 -2.5724 -0.4482
  859MOL0     H18505   1.941   9.328   4.770 -1.8741  0.3002  4.0914
  859MOL0     H18506   2.083   9.228   4.594 -0.0350  0.5709 -1.4690
  859MOL0     H18507   1.959   9.113   4.628  0.8950  3.7420  1.6006
  859MOL0     H18508   2.103   9.006   4.481 -0.3954 -1.3508 -0.9843
  859MOL0     H18509   1.980   9.055   4.368  0.4780  1.4619 -0.8660
  859MOL0     H18510   2.248   9.188   4.418 -0.2809  0.7325 -0.6171
  859MOL0     H18511   2.123   9.285   4.351 -0.7378 -0.0102  3.7370
  859MOL0     H18512   2.075   9.092   4.194 -1.1494 -0.4892  3.6508
  859MOL0     H18513   2.228   9.013   4.229  3.2603  0.8392 -3.0610
  859MOL0     H18514   2.234   9.169   4.026 -1.3663  3.4756 -1.6213
  859MOL0     H18515   2.179   9.296   4.117 -1.1560 -1.8910 -0.2403
  859MOL0     H18516   2.457   9.179   4.165  1.7625  1.6986 -1.1774
  859MOL0     H18517   2.376   9.299   4.268  0.2530  0.9141 -0.5188
  859MOL0     H18518   2.371   9.461   4.083 -2.0989 -0.5222 -3.1109
  859MOL0     H18519   2.421   9.347   3.967 -0.0695  2.5808 -1.4530
  859MOL0     H18520   2.609   9.443   4.195  1.7084 -1.6894  0.3031
  859MOL0     H18521   2.606   9.492   4.024  1.9234 -0.4427 -0.2527
  859MOL0     H18522   1.736   9.416   4.398 -1.4896 -0.8007  0.4767
  859MOL0     H18523   1.589   9.568   4.522 -0.2835 -0.4343 -1.8728
  859MOL0     H18524   1.529   9.745   5.147  1.1304 -1.1516 -0.2870
  859MOL0     H18525   1.333   9.802   5.268  0.9296 -0.4466 -0.3727
  859MOL0     H18526   1.558   9.955   4.388 -0.4131 -0.0184 -1.7411
  859MOL0     H18527   1.546   9.730   4.359 -0.4865 -0.3835  0.7808
  859MOL0     H18528   1.220   9.436   4.103  1.1500 -1.0921 -1.3785
  859MOL0     H18529   1.131   9.242   4.039 -0.1975  0.4601 -0.2700
  859MOL0     H18530   0.937   8.910   4.079  0.6106 -1.5762  0.3832
  859MOL0     H18531   0.960   9.061   4.032  1.2714  2.0735  1.1535
  859MOL0     H18532   1.210   8.893   4.039  1.0218 -1.1153 -1.3933
  859MOL0     H18533   1.187   9.047   3.952  1.4233  0.0142  2.8572
  859MOL0     H18534   1.077   8.767   3.879 -2.0096  0.0514 -0.8818
  859MOL0     H18535   0.993   8.905   3.831 -0.5673 -0.6676 -0.2013
  859MOL0     H18536   1.254   8.790   3.730 -0.9494 -0.0204 -1.5788
  859MOL0     H18537   1.223   8.980   3.721 -2.3078  0.7017 -0.3655
  859MOL0     H18538   0.939   8.830   3.460 -1.1660  1.6558  0.8490
  859MOL0     H18539   1.148   9.076   4.424  3.3680 -1.7939 -1.0420
  859MOL0     H18540   1.219   9.362   4.609  1.5684  3.2119 -2.7904
  859MOL0     H18541   1.253   9.185   4.599  2.3180 -0.9192  0.3751
  859MOL0     H18542   1.375   9.289   4.564 -0.5909 -2.1861  2.0830
  860MOL0     O18543   2.052   1.556   1.434  0.7427 -0.2284  0.2939
  860MOL0     C18544   2.054   1.436   1.401 -0.6080 -0.9757 -0.7026
  860MOL0     O18545   1.973   1.344   1.443  0.5738 -0.2608  0.5225
  860MOL0     C18546   1.891   1.366   1.547 -0.5144  0.6687  0.0794
  860MOL0     C18547   1.935   1.426   1.669  0.3426  0.1213 -0.6185
  860MOL0     C18548   1.842   1.439   1.770 -1.0966  0.4075  0.6291
  860MOL0     C18549   1.708   1.397   1.759  0.2475  0.0847 -0.1203
  860MOL0     O18550   1.624   1.404   1.863 -0.0822 -0.2989  0.4544
  860MOL0     C18551   1.650   1.312   1.975 -0.4956  0.1134  0.0464
  860MOL0     C18552   1.570   1.345   2.106 -0.6480 -0.3070 -1.0420
  860MOL0     C18553   1.636   1.449   2.196 -0.4180  0.8762  0.1567
  860MOL0     C18554   1.778   1.408   2.229 -0.2197  0.0891  0.4594
  860MOL0     C18555   1.821   1.469   2.369  0.7626 -0.8363 -0.1395
  860MOL0     C18556   1.957   1.400   2.424 -0.7947 -0.3400  0.1898
  860MOL0     C18557   2.075   1.431   2.331  0.3882 -0.4571  0.3271
  860MOL0     C18558   2.115   1.313   2.237  0.5099 -0.4132 -0.5200
  860MOL0     N18559   2.182   1.366   2.113 -0.0772 -0.8546 -0.4454
  860MOL0     C18560   2.312   1.389   2.114  0.5702 -0.8709 -1.2356
  860MOL0     C18561   2.340   1.412   1.985 -0.6348  0.0556 -0.2663
  860MOL0     C18562   2.474   1.447   1.934  0.4245  1.1114 -0.0822
  860MOL0     C18563   2.522   1.337   1.842  0.2051 -0.6445 -0.1651
  860MOL0     C18564   2.662   1.364   1.803 -0.5091  1.6189  0.5783
  860MOL0     C18565   2.722   1.274   1.693 -0.7183  0.1314  0.6640
  860MOL0     O18566   2.726   1.139   1.748  0.3227  0.1386 -0.0641
  860MOL0     C18567   2.770   1.039   1.662  0.4273  0.5681 -0.3268
  860MOL0     C18568   2.716   0.916   1.671 -0.2195  0.6930 -0.4439
  860MOL0     C18569   2.745   0.804   1.578 -0.2377 -0.0317  0.3174
  860MOL0     C18570   2.694   0.665   1.597 -0.0325  0.4020  0.3013
  860MOL0     C18571   2.840   0.829   1.469 -0.2832  0.3230 -0.4582
  860MOL0     C18572   2.884   0.733   1.362  0.9108  0.5157 -0.6214
  860MOL0     O18573   2.928   0.794   1.254 -0.0445 -0.0821 -0.3508
  860MOL0     C18574   3.013   0.728   1.168  0.4013 -0.2275  0.2042
  860MOL0     C18575   3.085   0.616   1.189  0.1380  0.4231 -0.1619
  860MOL0     C18576   3.161   0.558   1.080  0.7701 -0.1695  0.2165
  860MOL0     C18577   3.162   0.612   0.954 -0.0858 -0.2067 -0.2046
  860MOL0     O18578   3.233   0.548   0.856  0.0886 -0.1617 -0.3824
  860MOL0     C18579   3.371   0.585   0.878 -0.6435 -0.0589  0.1133
  860MOL0     C18580   3.433   0.636   0.747  0.2425  0.5668 -1.3115
  860MOL0     C18581   3.449   0.515   0.656  0.1129  0.3852 -0.6180
  860MOL0     C18582   3.524   0.562   0.520  0.1192 -0.2885  0.4732
  860MOL0     C18583   3.563   0.444   0.419  0.1600  0.0394  0.0215
  860MOL0     C18584   3.565   0.494   0.278  0.4380  0.0055  0.1000
  860MOL0     C18585   3.585   0.387   0.174 -0.6048 -0.5409 -0.1323
  860MOL0     C18586   3.688   0.268   0.202 -0.2827  0.6978 -0.2235
  860MOL0    Cl18587   3.843   0.325   0.258  0.1879 -0.1384  0.5873
  860MOL0     C18588   3.069   0.708   0.932 -0.1524 -0.1509 -0.4070
  860MOL0     C18589   2.997   0.770   1.039 -0.6357 -0.3863 -0.5777
  860MOL0     O18590   2.864   0.614   1.376  0.3046  0.1519  0.2614
  860MOL0     C18591   2.912   0.951   1.480  0.4038  0.5379 -0.1849
  860MOL0     C18592   2.874   1.054   1.572  0.3834  0.3983 -0.1387
  860MOL0     N18593   2.223   1.406   1.909  0.7243 -1.0519 -0.6013
  860MOL0     N18594   2.127   1.382   1.988 -0.0005  0.0408  0.2663
  860MOL0     C18595   1.667   1.328   1.646 -0.7191  0.1346 -0.7184
  860MOL0     C18596   1.760   1.316   1.546  0.0003  1.4417 -0.3386
  860MOL0     C18597   2.159   1.380   1.316  0.2537 -0.0410 -0.7487
  860MOL0     C18598   2.122   1.340   1.183 -0.1316  0.7218  0.5528
  860MOL0     C18599   2.231   1.300   1.105 -0.5491 -0.4080  0.6923
  860MOL0     C18600   2.369   1.303   1.141  0.0505 -0.4609  0.9842
  860MOL0     O18601   2.479   1.273   1.068  0.0694 -0.2279 -0.2541
  860MOL0     C18602   2.460   1.226   0.933 -0.0476 -0.4060  0.0116
  860MOL0     C18603   2.546   1.296   0.831 -0.2085  0.6654  0.5559
  860MOL0     C18604   2.527   1.446   0.844 -0.8323  0.2898  0.0916
  860MOL0     C18605   2.596   1.529   0.726  0.7768  0.3691  0.1973
  860MOL0     C18606   2.575   1.668   0.764 -0.4372 -0.7526 -0.0276
  860MOL0     C18607   2.568   1.786   0.793 -1.0774  0.3054 -0.8007
  860MOL0     C18608   2.388   1.344   1.266 -0.0274 -0.2394  0.0008
  860MOL0     C18609   2.288   1.385   1.357  0.2134 -0.0636  0.4287
  860MOL0     C18610   2.335   1.430   1.491 -0.3681 -0.9544 -1.1292
  860MOL0     H18611   2.038   1.452   1.689 -0.3378  1.2959  1.7135
  860MOL0     H18612   1.872   1.485   1.864 -2.6178  1.4920  0.6280
  860MOL0     H18613   1.755   1.291   1.993 -0.3698  1.5561  1.1556
  860MOL0     H18614   1.609   1.215   1.942 -0.1642  0.7436 -2.3638
  860MOL0     H18615   1.470   1.378   2.077 -1.0988 -0.7368 -0.0169
  860MOL0     H18616   1.550   1.254   2.163 -0.8500 -0.5604 -1.5160
  860MOL0     H18617   1.643   1.548   2.149 -0.1454  1.1392  0.7426
  860MOL0     H18618   1.591   1.461   2.295  0.4246  0.4561  0.5928
  860MOL0     H18619   1.803   1.302   2.244  1.7440  0.6582  1.7012
  860MOL0     H18620   1.834   1.455   2.148 -1.0772 -1.3044 -0.9779
  860MOL0     H18621   1.744   1.456   2.445 -0.4344 -0.0289 -1.1765
  860MOL0     H18622   1.828   1.578   2.362 -1.7371 -0.7094 -1.6162
  860MOL0     H18623   1.966   1.439   2.526  0.9031 -1.6912  0.6147
  860MOL0     H18624   1.931   1.294   2.435 -2.1357  0.1131  1.8613
  860MOL0     H18625   2.158   1.451   2.400 -3.3203  4.0254  4.1452
  860MOL0     H18626   2.044   1.516   2.270  0.3099 -1.0233 -0.4272
  860MOL0     H18627   2.182   1.249   2.296  0.9572 -0.5762 -1.1890
  860MOL0     H18628   2.023   1.263   2.204 -0.5625  0.9880  0.2667
  860MOL0     H18629   2.373   1.392   2.203  2.0985  2.2124 -2.2603
  860MOL0     H18630   2.531   1.460   2.027  0.7162 -0.3836 -0.0360
  860MOL0     H18631   2.500   1.545   1.892  2.7304  1.2261  1.3905
  860MOL0     H18632   2.509   1.241   1.893  0.0079 -0.4515  0.1565
  860MOL0     H18633   2.461   1.334   1.751  1.2479 -2.3788 -0.8550
  860MOL0     H18634   2.678   1.466   1.766  1.3778  0.2636 -2.8284
  860MOL0     H18635   2.723   1.345   1.891  1.6167 -0.5158 -1.1979
  860MOL0     H18636   2.655   1.273   1.607 -2.1071 -0.7215  1.7157
  860MOL0     H18637   2.825   1.307   1.674 -1.5884  4.0766  1.8152
  860MOL0     H18638   2.633   0.901   1.740 -0.3392  1.0249 -0.5156
  860MOL0     H18639   2.614   0.642   1.667  1.4942 -2.4520  1.2819
  860MOL0     H18640   2.773   0.608   1.648 -1.3396 -1.1837  0.6403
  860MOL0     H18641   2.655   0.623   1.504 -0.0211 -0.6803  0.7642
  860MOL0     H18642   3.076   0.559   1.281 -2.8889 -2.1266 -1.8610
  860MOL0     H18643   3.208   0.462   1.097 -0.5772 -0.6481  1.4419
  860MOL0     H18644   3.392   0.662   0.953  0.4209 -2.5728  2.5663
  860MOL0     H18645   3.422   0.493   0.908 -0.7184 -0.3272 -0.5679
  860MOL0     H18646   3.371   0.714   0.703  0.1478  1.2014 -0.1094
  860MOL0     H18647   3.529   0.681   0.772  1.0116 -2.6762  2.6760
  860MOL0     H18648   3.349   0.475   0.634  0.1620 -0.2665  0.3064
  860MOL0     H18649   3.492   0.431   0.711  0.5823  0.5353 -0.7590
  860MOL0     H18650   3.617   0.615   0.537  1.5830 -1.8435 -2.0248
  860MOL0     H18651   3.467   0.643   0.472  0.1793  0.3408  1.4532
  860MOL0     H18652   3.663   0.404   0.436  0.7326  0.8954 -1.2091
  860MOL0     H18653   3.489   0.367   0.443 -0.6532  1.6467  3.2740
  860MOL0     H18654   3.647   0.566   0.265 -1.0809  2.0623  1.3504
  860MOL0     H18655   3.472   0.549   0.264 -0.3078  0.1237  4.2441
  860MOL0     H18656   3.609   0.442   0.082  1.8184  1.2085  1.4176
  860MOL0     H18657   3.491   0.331   0.176 -0.1945 -1.3631  3.6891
  860MOL0     H18658   3.700   0.215   0.108 -0.2233 -0.8210  0.6094
  860MOL0     H18659   3.658   0.200   0.282  1.9876  0.7389  0.7441
  860MOL0     H18660   3.051   0.750   0.833 -0.4209  2.4477  0.6579
  860MOL0     H18661   2.926   0.849   1.017 -0.3944 -0.2401 -0.8252
  860MOL0     H18662   2.980   0.981   1.401 -0.7021  0.8587 -1.0399
  860MOL0     H18663   2.933   1.144   1.558  0.5017  0.4776  0.7714
  860MOL0     H18664   1.573   1.274   1.641  0.9659 -2.9782 -2.3745
  860MOL0     H18665   1.737   1.245   1.468 -2.0192  1.4744  0.1772
  860MOL0     H18666   2.019   1.335   1.148  0.6036  1.5249 -1.9132
  860MOL0     H18667   2.193   1.263   1.010 -3.7370  3.6857  0.1037
  860MOL0     H18668   2.489   1.121   0.938 -1.5615 -0.8488 -0.2409
  860MOL0     H18669   2.360   1.256   0.900  0.5580  0.2438 -1.3343
  860MOL0     H18670   2.506   1.266   0.733  1.3719  0.5507 -0.0910
  860MOL0     H18671   2.650   1.263   0.843 -0.4062 -0.5114 -0.6196
  860MOL0     H18672   2.422   1.476   0.836 -0.6018  1.2312  0.4881
  860MOL0     H18673   2.581   1.482   0.932 -2.8081  1.4341  0.8892
  860MOL0     H18674   2.539   1.503   0.636  3.5858 -3.5391 -0.7169
  860MOL0     H18675   2.699   1.496   0.707 -0.2948 -2.2995 -1.4763
  860MOL0     H18676   2.562   1.890   0.819 -1.6576 -0.0155  0.4527
  860MOL0     H18677   2.488   1.347   1.308 -0.0590  1.8348  0.0121
  860MOL0     H18678   2.429   1.386   1.525 -0.0383  0.1893 -0.5263
  860MOL0     H18679   2.354   1.537   1.500  1.7232 -1.4601  3.9091
  860MOL0     H18680   2.256   1.409   1.564 -0.6594  3.6097  0.1480
  861MOL0     O18681   3.241   3.632   3.569 -0.0899  0.7043 -0.0324
  861MOL0     C18682   3.270   3.643   3.449 -0.4368  0.2056  0.1273
  861MOL0     O18683   3.399   3.619   3.410  0.3364 -0.1507  0.2537
  861MOL0     C18684   3.499   3.585   3.499  0.2473 -0.2289  0.5377
  861MOL0     C18685   3.547   3.452   3.500 -0.2051 -0.7886 -0.3319
  861MOL0     C18686   3.645   3.413   3.593 -0.3997  1.5475 -0.2804
  861MOL0     C18687   3.692   3.502   3.684 -0.0579  0.1648 -0.3157
  861MOL0     O18688   3.783   3.444   3.777  1.0096 -0.1479  1.1024
  861MOL0     C18689   3.853   3.530   3.874  0.4934 -0.5339  0.3048
  861MOL0     C18690   3.945   3.449   3.978 -0.1572 -0.1351  1.0244
  861MOL0     C18691   4.057   3.396   3.894  0.4705  0.2212 -0.5726
  861MOL0     C18692   4.143   3.315   3.981  0.3514 -0.0327 -0.2645
  861MOL0     C18693   4.270   3.275   3.914  0.1000  0.2469  0.7794
  861MOL0     C18694   4.377   3.233   4.008  0.2137  0.9331  0.4152
  861MOL0     C18695   4.453   3.341   4.098 -0.2649  0.9570  0.5645
  861MOL0     C18696   4.592   3.302   4.152 -0.2756  0.1294 -0.7533
  861MOL0     N18697   4.701   3.269   4.068  0.1440  0.6667  0.0342
  861MOL0     C18698   4.760   3.351   3.980 -0.8668  0.0764  0.3139
  861MOL0     C18699   4.865   3.278   3.931  0.5527 -0.0534 -0.8698
  861MOL0     C18700   4.970   3.330   3.828 -0.3046  0.1145  0.0207
  861MOL0     C18701   5.105   3.370   3.885 -0.3929  0.3355 -0.1738
  861MOL0     C18702   5.213   3.414   3.789 -0.3858 -0.5036  0.4001
  861MOL0     C18703   5.327   3.489   3.859 -0.2632 -0.0482  0.4025
  861MOL0     O18704   5.426   3.524   3.763  1.0939  0.5176  0.1176
  861MOL0     C18705   5.542   3.582   3.806 -0.2746 -0.3763  0.7630
  861MOL0     C18706   5.622   3.527   3.902  0.2403  1.1992  0.0365
  861MOL0     C18707   5.743   3.570   3.945  1.4434 -1.2425 -1.2966
  861MOL0     C18708   5.804   3.476   4.057 -0.7149  0.4350  0.4871
  861MOL0     C18709   5.789   3.693   3.898 -0.9275 -0.5401  0.9543
  861MOL0     C18710   5.926   3.742   3.927 -0.0698  0.5667 -0.7902
  861MOL0     O18711   5.946   3.867   3.881 -0.1284  0.2250  0.4050
  861MOL0     C18712   6.067   3.916   3.853 -0.4769 -0.9263 -1.0369
  861MOL0     C18713   6.140   3.851   3.747  0.0852  0.4991 -0.8246
  861MOL0     C18714   6.262   3.911   3.696  0.4944 -0.0882  0.6079
  861MOL0     C18715   6.312   4.030   3.744  1.1149  0.6338 -0.0102
  861MOL0     O18716   6.437   4.075   3.714 -1.0070  0.6946  0.3522
  861MOL0     C18717   6.501   4.165   3.809  0.5275  0.0781  0.4184
  861MOL0     C18718   6.645   4.197   3.783 -1.2949  0.0011  0.5491
  861MOL0     C18719   6.725   4.073   3.742  0.1808  0.2850  0.8028
  861MOL0     C18720   6.699   3.946   3.824 -0.1939  0.2380 -0.4591
  861MOL0     C18721   6.791   3.830   3.791 -0.3061  0.1291 -0.4921
  861MOL0     C18722   6.731   3.703   3.864 -0.2738 -0.3277  0.4075
  861MOL0     C18723   6.837   3.592   3.875  0.9777 -1.3763 -0.0818
  861MOL0     C18724   6.797   3.484   3.977 -0.2889 -0.9471 -0.5413
  861MOL0    Cl18725   6.802   3.550   4.136  0.0498  0.4496 -0.6553
  861MOL0     C18726   6.225   4.100   3.822 -0.2076 -0.3822 -1.1791
  861MOL0     C18727   6.104   4.049   3.868  1.5270 -0.1551 -0.5154
  861MOL0     O18728   6.014   3.663   3.972 -0.2408  0.1705 -0.1774
  861MOL0     C18729   5.706   3.758   3.809 -0.6499 -0.0136  0.7632
  861MOL0     C18730   5.592   3.705   3.758  1.0783 -0.1197  0.2089
  861MOL0     N18731   4.868   3.160   3.996  0.4766 -0.4686 -0.2455
  861MOL0     N18732   4.763   3.151   4.072 -0.3664  0.1613 -0.4305
  861MOL0     C18733   3.646   3.633   3.682 -0.6891 -0.5516  0.0942
  861MOL0     C18734   3.549   3.678   3.586 -0.3753  0.0686  0.0082
  861MOL0     C18735   3.163   3.676   3.350  1.0859  0.2175 -0.5507
  861MOL0     C18736   3.034   3.661   3.408  1.1091  0.2414  0.1395
  861MOL0     C18737   2.920   3.677   3.330  1.0453 -0.1355  0.4573
  861MOL0     C18738   2.928   3.685   3.184 -0.0362  0.3290  0.2980
  861MOL0     O18739   2.822   3.720   3.116  0.1392  0.0055  0.4993
  861MOL0     C18740   2.819   3.857   3.062 -0.3216 -0.3414  0.3189
  861MOL0     C18741   2.770   3.955   3.164  0.3333  0.3828 -0.1433
  861MOL0     C18742   2.627   3.929   3.200  0.6578 -0.1992 -0.7167
  861MOL0     C18743   2.601   3.996   3.330 -0.6203 -0.5800 -0.6537
  861MOL0     C18744   2.467   3.984   3.384 -0.1319  0.7398 -0.6766
  861MOL0     C18745   2.353   3.960   3.420 -0.7204  0.0430  0.2511
  861MOL0     C18746   3.057   3.684   3.132 -0.3319 -0.6185 -0.1035
  861MOL0     C18747   3.170   3.686   3.204  0.4026 -0.3711 -0.2129
  861MOL0     C18748   3.306   3.698   3.131 -0.6765  0.3618 -0.7929
  861MOL0     H18749   3.499   3.381   3.433 -1.3874  0.9192 -1.3584
  861MOL0     H18750   3.676   3.309   3.602  0.1191  1.8619  3.9050
  861MOL0     H18751   3.777   3.599   3.913 -1.8145 -1.1157 -2.7837
  861MOL0     H18752   3.925   3.596   3.826 -2.4117  1.7114 -1.2493
  861MOL0     H18753   3.971   3.530   4.046 -3.2106  0.8965  1.0940
  861MOL0     H18754   3.877   3.376   4.023 -0.4952 -0.2490  0.3528
  861MOL0     H18755   4.018   3.338   3.810 -0.8286  0.8860 -0.4665
  861MOL0     H18756   4.121   3.480   3.866  1.7237 -0.3747  0.4229
  861MOL0     H18757   4.179   3.366   4.071 -3.0001  1.5769  0.3109
  861MOL0     H18758   4.086   3.225   4.004 -2.1914  2.3089  3.8343
  861MOL0     H18759   4.313   3.347   3.844  0.1320 -0.1044  0.4348
  861MOL0     H18760   4.251   3.184   3.857  3.3686  0.3931 -0.7682
  861MOL0     H18761   4.335   3.155   4.071  0.6298 -2.3729 -3.0551
  861MOL0     H18762   4.457   3.187   3.949  1.2939 -1.5206  3.5614
  861MOL0     H18763   4.386   3.342   4.185  1.7297 -0.0397  2.2170
  861MOL0     H18764   4.450   3.445   4.067 -3.7561 -0.0004 -3.0882
  861MOL0     H18765   4.626   3.384   4.216  1.1184 -3.4877  3.7119
  861MOL0     H18766   4.568   3.216   4.216 -1.5164  0.9725 -0.0311
  861MOL0     H18767   4.723   3.448   3.948 -1.5601  0.6820  2.7636
  861MOL0     H18768   4.945   3.424   3.779  2.3144  0.7672 -0.2138
  861MOL0     H18769   4.978   3.253   3.750 -0.3245 -0.0449  0.1742
  861MOL0     H18770   5.083   3.448   3.958  0.5473 -0.2832  0.8031
  861MOL0     H18771   5.148   3.286   3.941 -2.8378 -0.8026  0.1428
  861MOL0     H18772   5.271   3.336   3.739 -0.4331  0.3065 -0.9721
  861MOL0     H18773   5.172   3.471   3.704 -1.8920  2.2855  2.8172
  861MOL0     H18774   5.290   3.577   3.914 -1.2358 -0.1932 -0.0022
  861MOL0     H18775   5.368   3.412   3.924  1.0234 -1.3306 -1.8272
  861MOL0     H18776   5.588   3.426   3.922  0.0003  0.9135 -1.6131
  861MOL0     H18777   5.734   3.408   4.106  2.4290 -0.9852  3.3631
  861MOL0     H18778   5.855   3.518   4.144 -0.9359 -0.2905  0.9750
  861MOL0     H18779   5.875   3.407   4.012 -0.0974  1.1748  0.2974
  861MOL0     H18780   6.123   3.749   3.715 -2.4653  0.8965 -0.9670
  861MOL0     H18781   6.329   3.859   3.627 -2.4259 -1.6582 -1.2415
  861MOL0     H18782   6.456   4.265   3.802  2.9617  1.3088  1.3522
  861MOL0     H18783   6.480   4.130   3.910  1.8494 -2.8908 -0.2224
  861MOL0     H18784   6.662   4.271   3.705  0.4587 -0.2133  0.6874
  861MOL0     H18785   6.700   4.230   3.872  1.3321 -1.1409 -0.5279
  861MOL0     H18786   6.830   4.103   3.738 -0.1691  1.3825 -1.0690
  861MOL0     H18787   6.695   4.056   3.638 -2.2022  0.5383  1.4013
  861MOL0     H18788   6.598   3.910   3.806  1.3256 -4.2773 -1.3209
  861MOL0     H18789   6.714   3.975   3.929 -1.7864  1.8924 -0.6449
  861MOL0     H18790   6.789   3.800   3.685 -0.4767 -1.2267 -0.1187
  861MOL0     H18791   6.891   3.853   3.827  1.6317 -0.3134 -4.9039
  861MOL0     H18792   6.646   3.666   3.805  0.6176 -0.6535 -0.6953
  861MOL0     H18793   6.708   3.730   3.968 -0.9809  0.6147  0.0264
  861MOL0     H18794   6.932   3.635   3.909  0.9642 -0.7427 -0.8044
  861MOL0     H18795   6.849   3.554   3.773  1.1561  1.5485 -1.2575
  861MOL0     H18796   6.864   3.399   3.984  1.1081  0.2247  1.2269
  861MOL0     H18797   6.700   3.440   3.954  0.7744 -2.6791 -1.8867
  861MOL0     H18798   6.260   4.194   3.863 -0.0993 -0.6521 -0.6437
  861MOL0     H18799   6.043   4.118   3.925  0.4446 -1.4674 -0.0143
  861MOL0     H18800   5.738   3.852   3.764 -0.4927 -0.3176  0.2394
  861MOL0     H18801   5.533   3.747   3.676 -1.9589 -4.3089 -0.1095
  861MOL0     H18802   3.691   3.705   3.749 -3.8697  2.1340 -0.3854
  861MOL0     H18803   3.521   3.782   3.581  2.6627  0.9203 -2.4614
  861MOL0     H18804   3.001   3.646   3.511 -1.0504  1.4580 -0.3073
  861MOL0     H18805   2.824   3.694   3.378  1.4372  3.4329  0.2771
  861MOL0     H18806   2.913   3.880   3.012 -0.3602 -2.7555 -1.0143
  861MOL0     H18807   2.747   3.857   2.980  1.2648 -0.4044 -1.1127
  861MOL0     H18808   2.787   4.056   3.126  0.2179 -0.0327 -1.3173
  861MOL0     H18809   2.825   3.949   3.258  0.4803 -0.1643 -0.2600
  861MOL0     H18810   2.562   3.967   3.120  1.2068  2.7795  0.1099
  861MOL0     H18811   2.614   3.821   3.208 -0.5807 -0.1247 -1.3894
  861MOL0     H18812   2.623   4.103   3.327 -2.4086 -0.1176  0.7700
  861MOL0     H18813   2.661   3.962   3.415 -1.3551 -0.3605 -0.0327
  861MOL0     H18814   2.249   3.950   3.447 -1.0169  0.6335 -0.6452
  861MOL0     H18815   3.062   3.673   3.024 -0.0203 -1.5562 -0.0045
  861MOL0     H18816   3.367   3.778   3.174  0.1998  0.0735 -1.4523
  861MOL0     H18817   3.363   3.606   3.145  1.6272  1.4666 -2.2420
  861MOL0     H18818   3.315   3.724   3.025  0.0909  1.3210 -0.5058
  862MOL0     O18819   8.136   7.509   8.329 -0.5579 -0.4858 -0.0259
  862MOL0     C18820   8.189   7.473   8.429 -0.2456  0.6933 -0.4834
  862MOL0     O18821   8.142   7.403   8.535 -0.4108 -0.3377 -0.4973
  862MOL0     C18822   8.010   7.376   8.540 -0.0813 -0.1495 -0.2907
  862MOL0     C18823   7.919   7.486   8.551 -0.0652  0.9323  0.6705
  862MOL0     C18824   7.779   7.475   8.555 -0.5657 -0.4485  0.5464
  862MOL0     C18825   7.731   7.349   8.537 -0.1642  0.0847 -0.4855
  862MOL0     O18826   7.601   7.326   8.541 -0.5878 -0.2431 -0.3958
  862MOL0     C18827   7.495   7.424   8.514  0.2286 -1.1014  0.2351
  862MOL0     C18828   7.365   7.357   8.518 -0.7155 -0.5368 -0.2859
  862MOL0     C18829   7.321   7.266   8.633 -0.4120  0.4771 -0.2883
  862MOL0     C18830   7.282   7.116   8.589 -0.1373 -0.0502 -0.8155
  862MOL0     C18831   7.220   7.047   8.709  0.1919 -0.0039 -0.2725
  862MOL0     C18832   7.259   6.905   8.720  0.0678 -0.1612  0.2227
  862MOL0     C18833   7.410   6.885   8.755  0.1569 -0.3543  0.2269
  862MOL0     C18834   7.455   6.734   8.781  0.6436 -0.0431 -1.1720
  862MOL0     N18835   7.386   6.634   8.705  0.3277 -0.2649 -0.6109
  862MOL0     C18836   7.279   6.555   8.742  0.8827 -0.1147 -0.2819
  862MOL0     C18837   7.245   6.483   8.638  0.3970 -0.2997  0.0137
  862MOL0     C18838   7.143   6.373   8.621 -0.4543 -0.2424 -0.3731
  862MOL0     C18839   7.205   6.247   8.559  1.1337  0.0566  0.2791
  862MOL0     C18840   7.327   6.197   8.623 -0.2416  1.4761 -0.3275
  862MOL0     C18841   7.388   6.071   8.548  0.1408  0.0435  0.7096
  862MOL0     O18842   7.311   5.954   8.567 -0.5380 -0.6980  0.1010
  862MOL0     C18843   7.381   5.834   8.568  0.0161  0.2753 -0.2446
  862MOL0     C18844   7.510   5.816   8.519  0.3471 -1.0401 -0.6173
  862MOL0     C18845   7.585   5.707   8.545 -0.0237 -0.0823 -0.6054
  862MOL0     C18846   7.727   5.704   8.498  0.4481  0.1086 -0.3723
  862MOL0     C18847   7.525   5.598   8.621  0.8324 -0.0327  0.8677
  862MOL0     C18848   7.580   5.463   8.627 -0.4426  0.3041 -0.1680
  862MOL0     O18849   7.714   5.440   8.620 -0.1848 -0.4498  0.0156
  862MOL0     C18850   7.772   5.317   8.635  0.3782 -0.0637 -0.2897
  862MOL0     C18851   7.861   5.283   8.545 -0.9928  0.6840  0.0956
  862MOL0     C18852   7.930   5.165   8.554  0.3060 -1.2805  0.1181
  862MOL0     C18853   7.894   5.070   8.652 -1.7506 -1.1662  0.6073
  862MOL0     O18854   7.971   4.963   8.649  1.0190  0.7714 -0.0813
  862MOL0     C18855   7.957   4.880   8.758 -0.0904  0.0732 -1.0201
  862MOL0     C18856   8.036   4.761   8.733  0.7239 -0.3035  0.5133
  862MOL0     C18857   8.035   4.660   8.846  0.4854 -0.1753  0.7929
  862MOL0     C18858   8.085   4.730   8.976  0.1419  0.2610 -0.0686
  862MOL0     C18859   8.066   4.623   9.081  0.0152 -0.1098  0.8381
  862MOL0     C18860   8.127   4.660   9.216  0.2832 -0.0624  0.2210
  862MOL0     C18861   8.283   4.663   9.209  0.1731  0.1596 -0.4282
  862MOL0     C18862   8.343   4.641   9.344  0.2531  0.2695  0.1340
  862MOL0    Cl18863   8.508   4.626   9.320 -0.0406  0.4574 -0.0493
  862MOL0     C18864   7.791   5.107   8.750 -0.6876  0.8306  0.0103
  862MOL0     C18865   7.730   5.223   8.730 -0.3940 -0.2322 -1.3981
  862MOL0     O18866   7.495   5.373   8.649 -0.5830 -1.3197 -0.0769
  862MOL0     C18867   7.391   5.618   8.662  0.2653 -0.3303  0.2064
  862MOL0     C18868   7.317   5.729   8.638 -0.0468 -0.2627  0.6750
  862MOL0     N18869   7.331   6.522   8.533  1.0712 -0.2425  0.4174
  862MOL0     N18870   7.421   6.606   8.579  0.8445  0.2270 -0.1689
  862MOL0     C18871   7.819   7.240   8.547 -0.4165 -0.1538 -0.9655
  862MOL0     C18872   7.959   7.250   8.538  0.9380 -0.1031  0.4986
  862MOL0     C18873   8.332   7.510   8.448 -0.2306  0.4394  0.0822
  862MOL0     C18874   8.404   7.441   8.547  0.0274  0.7333 -0.4801
  862MOL0     C18875   8.545   7.460   8.566  0.6973 -0.4479  0.5866
  862MOL0     C18876   8.615   7.543   8.478 -0.4888  0.5283 -0.1365
  862MOL0     O18877   8.752   7.562   8.463  0.4986  0.3613 -0.6937
  862MOL0     C18878   8.855   7.463   8.470 -0.1286  0.6299 -0.0277
  862MOL0     C18879   8.966   7.508   8.573  0.0838 -0.7899 -0.1576
  862MOL0     C18880   9.099   7.447   8.521  0.1584  0.6732  0.4656
  862MOL0     C18881   9.132   7.310   8.583 -0.9061 -0.2804  0.0114
  862MOL0     C18882   9.267   7.267   8.570 -0.5180 -0.5983 -0.3956
  862MOL0     C18883   9.387   7.234   8.565 -0.8290  0.2513 -0.4516
  862MOL0     C18884   8.544   7.621   8.388  0.1551 -0.7515  0.6489
  862MOL0     C18885   8.402   7.603   8.369 -0.0043 -0.7764  0.5836
  862MOL0     C18886   8.335   7.688   8.261 -0.3213 -0.1322  0.1394
  862MOL0     H18887   7.963   7.585   8.546 -1.0029  1.3338 -0.2895
  862MOL0     H18888   7.720   7.566   8.540 -1.0992 -0.7384  0.8301
  862MOL0     H18889   7.510   7.461   8.412 -3.9023  1.7857  0.3944
  862MOL0     H18890   7.499   7.514   8.577 -0.3193 -0.5627 -0.4824
  862MOL0     H18891   7.293   7.439   8.515 -0.2106 -0.1023 -2.8305
  862MOL0     H18892   7.347   7.305   8.423 -3.6964 -0.1155 -0.0429
  862MOL0     H18893   7.410   7.264   8.696 -1.1820 -2.6311  0.8450
  862MOL0     H18894   7.251   7.318   8.699  2.4248 -0.2847  3.6308
  862MOL0     H18895   7.212   7.126   8.505 -0.2819  2.2212 -0.4847
  862MOL0     H18896   7.370   7.066   8.548  0.9189  2.0032 -1.2231
  862MOL0     H18897   7.110   7.051   8.706  0.1247  0.9742  1.7018
  862MOL0     H18898   7.249   7.095   8.803 -1.2511 -0.9399  0.7056
  862MOL0     H18899   7.201   6.864   8.803 -1.0052  1.5514  0.3665
  862MOL0     H18900   7.232   6.841   8.635 -1.8342  0.0156  0.6390
  862MOL0     H18901   7.432   6.951   8.839  2.3579 -0.3702 -0.2741
  862MOL0     H18902   7.469   6.912   8.667 -0.9613 -0.4453 -0.5681
  862MOL0     H18903   7.562   6.725   8.759  1.2053 -0.7281  1.4639
  862MOL0     H18904   7.442   6.722   8.889  0.0246  3.6629 -0.7001
  862MOL0     H18905   7.227   6.554   8.837  3.1735 -2.1807  1.0549
  862MOL0     H18906   7.048   6.394   8.570  0.3702  0.0436 -1.8468
  862MOL0     H18907   7.111   6.332   8.717 -0.3166 -2.8364 -1.3654
  862MOL0     H18908   7.136   6.162   8.566 -1.3108  1.8569 -0.7161
  862MOL0     H18909   7.207   6.264   8.451 -0.5565  2.6400  0.5634
  862MOL0     H18910   7.401   6.274   8.598  3.5224 -2.3681 -2.2310
  862MOL0     H18911   7.329   6.168   8.728 -0.6975  1.9884 -0.1697
  862MOL0     H18912   7.403   6.093   8.442  1.7166  0.0587  0.9068
  862MOL0     H18913   7.479   6.058   8.607  0.3487  1.7434  0.8215
  862MOL0     H18914   7.557   5.894   8.459 -2.5284  0.3574 -1.2537
  862MOL0     H18915   7.769   5.804   8.490  1.9671 -0.6495 -2.7851
  862MOL0     H18916   7.731   5.665   8.396  0.3436 -2.9542  0.6921
  862MOL0     H18917   7.796   5.645   8.559 -0.5672  1.3248  2.1110
  862MOL0     H18918   7.874   5.350   8.461 -3.9566  1.6543  0.2969
  862MOL0     H18919   8.010   5.139   8.485  0.3833 -1.7670  0.3861
  862MOL0     H18920   7.998   4.937   8.842 -1.9965 -1.3548  0.9926
  862MOL0     H18921   7.860   4.842   8.792  0.9670 -1.9333 -0.1111
  862MOL0     H18922   7.995   4.707   8.647 -1.8798 -0.0255  1.4830
  862MOL0     H18923   8.140   4.789   8.712  1.0463 -1.5533  0.3557
  862MOL0     H18924   8.080   4.563   8.825  0.0445  0.0011 -1.1642
  862MOL0     H18925   7.933   4.640   8.879  1.5866 -2.0518  3.4077
  862MOL0     H18926   8.029   4.822   8.997  0.3367  1.1134 -2.8522
  862MOL0     H18927   8.187   4.765   8.958  0.4875 -1.1501 -1.0210
  862MOL0     H18928   7.960   4.605   9.101 -1.2886  4.3984 -0.8795
  862MOL0     H18929   8.103   4.526   9.044 -3.3317 -1.0924 -0.3039
  862MOL0     H18930   8.090   4.592   9.293  1.5413 -2.5021 -1.2298
  862MOL0     H18931   8.082   4.753   9.254 -2.3297  0.3243 -3.2746
  862MOL0     H18932   8.313   4.766   9.186  3.1859  0.1389  2.7097
  862MOL0     H18933   8.326   4.594   9.137  1.2741 -1.8901  2.0590
  862MOL0     H18934   8.318   4.546   9.392  2.7116 -0.0239  0.9806
  862MOL0     H18935   8.322   4.713   9.423 -0.3572 -2.4454  2.6441
  862MOL0     H18936   7.767   5.054   8.841 -2.7651  2.0831  0.2731
  862MOL0     H18937   7.670   5.275   8.803  1.1158  4.2639 -3.0179
  862MOL0     H18938   7.347   5.532   8.711 -0.2412 -1.0630 -1.4724
  862MOL0     H18939   7.219   5.730   8.684  1.0354 -1.0581  3.1990
  862MOL0     H18940   7.777   7.142   8.568 -0.1974  0.2980  1.9044
  862MOL0     H18941   8.026   7.165   8.529  0.6745 -0.1285 -1.7596
  862MOL0     H18942   8.370   7.356   8.605  1.9631  1.0756  1.2761
  862MOL0     H18943   8.593   7.411   8.651 -0.4056  3.7265  4.0227
  862MOL0     H18944   8.821   7.361   8.486 -1.3729  0.7808 -1.4407
  862MOL0     H18945   8.894   7.458   8.367  1.1964 -2.4666  0.5201
  862MOL0     H18946   8.939   7.473   8.673 -1.7722  3.2419  0.9385
  862MOL0     H18947   8.976   7.616   8.585 -0.1024 -0.5830 -1.6094
  862MOL0     H18948   9.082   7.438   8.414 -3.2561 -0.0311  0.9453
  862MOL0     H18949   9.184   7.516   8.525 -0.9838  2.2896 -1.2709
  862MOL0     H18950   9.064   7.237   8.538 -1.1847 -0.7762  1.2259
  862MOL0     H18951   9.114   7.311   8.690  0.2083 -3.0750  0.2990
  862MOL0     H18952   9.492   7.212   8.572 -0.8711 -0.5963 -1.9049
  862MOL0     H18953   8.595   7.694   8.325  0.6633 -2.1334 -0.6089
  862MOL0     H18954   8.309   7.617   8.183 -0.9383  0.3124 -0.0712
  862MOL0     H18955   8.241   7.734   8.293 -0.6451 -2.3145  2.6633
  862MOL0     H18956   8.399   7.767   8.221  1.7257 -1.8325 -0.1286
  863MOL0     O18957  10.790  11.551   1.535 -0.8334  0.1853 -0.1210
  863MOL0     C18958  10.764  11.661   1.488 -0.5671  0.4654 -0.3410
  863MOL0     O18959  10.641  11.728   1.497 -0.5721  0.3100  0.5970
  863MOL0     C18960  10.534  11.656   1.556  0.0819  0.3489 -0.0957
  863MOL0     C18961  10.532  11.659   1.692  0.2148  0.5726 -0.0293
  863MOL0     C18962  10.416  11.611   1.759  1.2940 -0.5619 -0.1437
  863MOL0     C18963  10.319  11.542   1.689 -0.2335  0.0527 -0.5195
  863MOL0     O18964  10.202  11.492   1.739  0.2824 -0.4734 -0.7784
  863MOL0     C18965  10.228  11.391   1.843 -0.3669 -0.0131 -0.4989
  863MOL0     C18966  10.136  11.277   1.830  0.4066  0.7852  0.9107
  863MOL0     C18967  10.133  11.169   1.929  0.4135  0.7329 -0.5597
  863MOL0     C18968  10.262  11.084   1.923  0.1282  0.7920  0.7412
  863MOL0     C18969  10.284  10.994   2.036 -0.1442  0.1868 -0.9354
  863MOL0     C18970  10.387  10.887   2.000  0.2760 -0.8969 -0.0395
  863MOL0     C18971  10.391  10.788   2.117  0.9447 -0.1538 -0.1899
  863MOL0     C18972  10.523  10.709   2.109  0.3893 -0.0329 -0.2938
  863MOL0     N18973  10.537  10.631   2.234  0.3035  0.2875 -0.6488
  863MOL0     C18974  10.646  10.650   2.316  0.1768 -0.1982 -0.6965
  863MOL0     C18975  10.649  10.526   2.378  0.2484  0.0101  0.7308
  863MOL0     C18976  10.734  10.493   2.487 -0.6135  0.6374  0.2648
  863MOL0     C18977  10.724  10.602   2.592 -0.3754 -0.4098  0.0346
  863MOL0     C18978  10.776  10.556   2.723  0.2002  0.4429  0.9544
  863MOL0     C18979  10.928  10.528   2.716  0.9713 -0.2186 -0.0669
  863MOL0     O18980  11.002  10.623   2.639 -0.0563 -0.1321 -0.5760
  863MOL0     C18981  11.138  10.602   2.650  0.5139  0.4255  0.5535
  863MOL0     C18982  11.214  10.704   2.592 -0.4293  1.5853 -0.3083
  863MOL0     C18983  11.354  10.705   2.572 -0.0235  0.0712 -0.0139
  863MOL0     C18984  11.396  10.829   2.494 -0.6642 -0.3733  0.2820
  863MOL0     C18985  11.433  10.597   2.622 -1.1956 -1.0986  0.4013
  863MOL0     C18986  11.581  10.595   2.606 -0.6379 -0.8890 -0.2450
  863MOL0     O18987  11.646  10.540   2.717 -0.7126  0.3255  0.5831
  863MOL0     C18988  11.774  10.487   2.696  0.2953  0.7803 -1.1239
  863MOL0     C18989  11.889  10.568   2.703 -0.7466 -0.6620 -0.6443
  863MOL0     C18990  12.011  10.504   2.698 -0.0468  0.1365  0.2559
  863MOL0     C18991  12.022  10.365   2.678  0.6025 -0.7308  0.0965
  863MOL0     O18992  12.149  10.303   2.664  0.3645 -0.2597  0.6106
  863MOL0     C18993  12.184  10.257   2.535 -0.6647 -0.5237  1.2536
  863MOL0     C18994  12.273  10.133   2.533 -0.5389  1.2792  0.6393
  863MOL0     C18995  12.197  10.008   2.568 -0.1266 -0.2888  0.0647
  863MOL0     C18996  12.286   9.896   2.619 -0.0464  0.2937 -0.4128
  863MOL0     C18997  12.189   9.788   2.670 -0.2443 -0.2125  0.1138
  863MOL0     C18998  12.270   9.669   2.729  0.1414  0.3660 -0.3242
  863MOL0     C18999  12.184   9.582   2.820 -0.3887 -0.0457 -0.1587
  863MOL0     C19000  12.251   9.442   2.843 -0.0453  0.4099 -1.2450
  863MOL0    Cl19001  12.154   9.326   2.936  0.2534  0.0670  0.1246
  863MOL0     C19002  11.907  10.284   2.664  0.2883 -0.8642  0.0454
  863MOL0     C19003  11.782  10.346   2.668  0.1878  0.2215 -0.4943
  863MOL0     O19004  11.632  10.657   2.516 -0.5209  0.8091 -0.7426
  863MOL0     C19005  11.361  10.494   2.684  0.5643 -0.6666  0.4114
  863MOL0     C19006  11.216  10.496   2.698 -0.5136 -0.7191 -0.3433
  863MOL0     N19007  10.537  10.450   2.342 -0.3414 -0.1692 -0.2425
  863MOL0     N19008  10.474  10.511   2.250  1.0488  0.2154  0.0679
  863MOL0     C19009  10.325  11.549   1.549 -0.6067  0.1332 -0.4132
  863MOL0     C19010  10.436  11.596   1.486  0.6696 -0.9225  0.0178
  863MOL0     C19011  10.882  11.748   1.440  0.7546 -0.8082  0.7653
  863MOL0     C19012  10.850  11.836   1.335  0.4594 -1.0497  0.3669
  863MOL0     C19013  10.940  11.915   1.276  0.5375 -0.0276  0.7341
  863MOL0     C19014  11.075  11.915   1.322  0.3853 -1.0230 -0.2787
  863MOL0     O19015  11.164  12.006   1.261  0.4512  0.2856 -0.3318
  863MOL0     C19016  11.172  11.980   1.117  0.1274  0.7729 -0.2394
  863MOL0     C19017  11.326  11.957   1.079  0.4776  0.1688 -0.4063
  863MOL0     C19018  11.407  11.867   1.182 -0.2307 -0.0915 -0.8201
  863MOL0     C19019  11.539  11.821   1.112 -0.9585  0.6584  1.0932
  863MOL0     C19020  11.643  11.766   1.209 -0.4751 -0.0267  0.6054
  863MOL0     C19021  11.740  11.734   1.276 -0.2499  0.5390 -0.7442
  863MOL0     C19022  11.110  11.832   1.430 -0.5019 -0.6395 -0.2603
  863MOL0     C19023  11.015  11.757   1.497 -0.1647  0.2338  1.2907
  863MOL0     C19024  11.043  11.682   1.622 -0.5170 -0.2541  0.7200
  863MOL0     H19025  10.600  11.724   1.746 -1.6940  1.4641  1.4471
  863MOL0     H19026  10.408  11.622   1.867  0.8823  0.7637 -0.2973
  863MOL0     H19027  10.211  11.428   1.945  0.4207 -1.7337  0.3092
  863MOL0     H19028  10.334  11.366   1.842 -0.8799 -2.5599  0.9025
  863MOL0     H19029  10.033  11.311   1.822 -0.0250 -0.6495  0.2646
  863MOL0     H19030  10.163  11.227   1.737  2.9507  1.7463  1.0246
  863MOL0     H19031  10.132  11.221   2.025 -2.4827  0.0086 -0.1006
  863MOL0     H19032  10.047  11.103   1.916 -0.4453  2.0610 -1.9915
  863MOL0     H19033  10.239  11.019   1.838  1.3430 -0.3360  1.2530
  863MOL0     H19034  10.351  11.143   1.901  0.6114 -0.5795 -1.3412
  863MOL0     H19035  10.188  10.954   2.069 -0.9221  2.0479 -0.7865
  863MOL0     H19036  10.322  11.050   2.123 -0.3194  0.1896 -0.8603
  863MOL0     H19037  10.357  10.831   1.911  0.6689  1.9549 -2.1203
  863MOL0     H19038  10.481  10.938   1.979  0.7144 -1.2905  0.8960
  863MOL0     H19039  10.306  10.719   2.112  0.4566  0.4995 -3.3725
  863MOL0     H19040  10.392  10.853   2.205 -2.9810 -2.0011  1.4569
  863MOL0     H19041  10.526  10.640   2.024 -1.6424 -1.1638  0.4721
  863MOL0     H19042  10.606  10.779   2.108  0.1934  0.2302  0.5695
  863MOL0     H19043  10.717  10.732   2.307  1.1150 -1.0542 -1.3511
  863MOL0     H19044  10.838  10.493   2.453 -0.2546 -3.5412  0.8387
  863MOL0     H19045  10.708  10.393   2.523 -0.9144  0.3637 -0.6875
  863MOL0     H19046  10.781  10.689   2.559 -0.6200 -0.6574 -1.1056
  863MOL0     H19047  10.621  10.635   2.610  0.7990  2.1424  3.1493
  863MOL0     H19048  10.749  10.633   2.796  0.3452  2.5636 -1.0969
  863MOL0     H19049  10.738  10.456   2.744  0.9269 -1.3889 -4.7124
  863MOL0     H19050  10.963  10.538   2.820 -2.0073  0.5945  0.9615
  863MOL0     H19051  10.947  10.436   2.660  2.1389  2.8204 -5.3881
  863MOL0     H19052  11.155  10.773   2.533 -0.7689 -0.2279 -2.2046
  863MOL0     H19053  11.496  10.865   2.520 -1.5874  1.4763  1.4280
  863MOL0     H19054  11.338  10.921   2.497  1.9512  1.6369 -3.5079
  863MOL0     H19055  11.385  10.810   2.387  0.9912 -3.3705  0.5163
  863MOL0     H19056  11.889  10.675   2.723  0.8893 -0.3981 -1.8670
  863MOL0     H19057  12.102  10.557   2.726 -1.1743  1.7824  0.9172
  863MOL0     H19058  12.094  10.239   2.475 -0.3937 -0.4067  0.8112
  863MOL0     H19059  12.235  10.337   2.482 -0.6466 -1.6433 -0.5075
  863MOL0     H19060  12.332  10.115   2.442 -0.9102  0.9030  0.4692
  863MOL0     H19061  12.353  10.141   2.607  0.7106  1.4863 -0.6766
  863MOL0     H19062  12.129   9.980   2.487 -0.3342 -4.3422  1.3901
  863MOL0     H19063  12.129  10.038   2.649  2.5612 -2.2572  3.3351
  863MOL0     H19064  12.354   9.935   2.695  0.9179 -0.0231 -1.0994
  863MOL0     H19065  12.346   9.852   2.539  1.7638 -1.5406  1.8238
  863MOL0     H19066  12.129   9.842   2.745 -2.3186  3.9560 -4.0146
  863MOL0     H19067  12.116   9.745   2.601 -3.2288  2.1415  1.5332
  863MOL0     H19068  12.344   9.726   2.788  1.0438  2.6549 -3.4017
  863MOL0     H19069  12.330   9.622   2.651  0.8063  1.9793 -0.8399
  863MOL0     H19070  12.087   9.574   2.771 -1.2915  2.8444  0.9784
  863MOL0     H19071  12.170   9.630   2.917  1.3650 -0.7173  0.4820
  863MOL0     H19072  12.347   9.450   2.896 -2.0303  1.6037  2.5143
  863MOL0     H19073  12.267   9.400   2.743 -0.9521  0.2344 -1.3214
  863MOL0     H19074  11.905  10.176   2.656  0.6017 -0.7969 -1.2338
  863MOL0     H19075  11.690  10.289   2.672  1.2019 -1.4461  0.7644
  863MOL0     H19076  11.427  10.415   2.717  0.6804  0.1502  2.2513
  863MOL0     H19077  11.164  10.420   2.756  0.3295 -0.0356  1.3884
  863MOL0     H19078  10.252  11.511   1.477 -0.9599  1.1150 -0.5943
  863MOL0     H19079  10.440  11.598   1.377  2.6800 -0.1816  0.0759
  863MOL0     H19080  10.757  11.836   1.278 -0.5753  1.9219  1.8679
  863MOL0     H19081  10.902  11.984   1.202 -0.4799  0.6622  1.8720
  863MOL0     H19082  11.118  11.893   1.078 -1.0318  1.5091 -0.3126
  863MOL0     H19083  11.125  12.057   1.056 -0.8228  0.4043  0.0166
  863MOL0     H19084  11.373  12.056   1.076 -0.6973  1.0092  3.3258
  863MOL0     H19085  11.310  11.911   0.981 -4.6798  0.4002  0.0785
  863MOL0     H19086  11.421  11.918   1.278  0.8699 -0.8786 -0.5356
  863MOL0     H19087  11.360  11.774   1.215 -0.1593  0.2655  0.3361
  863MOL0     H19088  11.587  11.917   1.088  0.5830 -0.6189 -1.3301
  863MOL0     H19089  11.517  11.760   1.024 -2.4605 -1.3457  2.7583
  863MOL0     H19090  11.821  11.674   1.313 -1.0429  1.2142  2.4053
  863MOL0     H19091  11.210  11.839   1.470 -0.9791 -0.9601  1.0516
  863MOL0     H19092  10.966  11.712   1.694  0.4056 -0.5166  1.8427
  863MOL0     H19093  11.042  11.575   1.603  1.8249 -0.0896 -0.8099
  863MOL0     H19094  11.142  11.709   1.662 -0.6164 -0.0681  0.8451
  864MOL0     O19095   7.868   3.821  11.140 -0.3979 -0.1950 -0.2809
  864MOL0     C19096   7.753   3.808  11.136  1.9159 -0.1317 -1.0091
  864MOL0     O19097   7.677   3.718  11.057  0.6149 -0.2499 -0.1533
  864MOL0     C19098   7.755   3.642  10.978  0.4217 -0.1637  1.2238
  864MOL0     C19099   7.783   3.690  10.846  0.0928  0.2231 -0.5190
  864MOL0     C19100   7.854   3.604  10.750  0.2387 -0.6314  0.0679
  864MOL0     C19101   7.905   3.475  10.792 -1.2324  0.4493 -0.1117
  864MOL0     O19102   7.992   3.395  10.718 -0.0782  0.3854 -0.3975
  864MOL0     C19103   8.001   3.399  10.575  0.7958 -0.5451 -0.8957
  864MOL0     C19104   8.134   3.462  10.530 -0.3481  0.0258  0.4268
  864MOL0     C19105   8.261   3.385  10.577 -0.2700  0.4921 -0.0238
  864MOL0     C19106   8.273   3.260  10.488 -1.1828  0.5545 -0.7215
  864MOL0     C19107   8.400   3.175  10.528  0.5301 -0.1097  0.1616
  864MOL0     C19108   8.384   3.017  10.499 -1.1610 -0.4611 -0.2259
  864MOL0     C19109   8.419   2.989  10.353  0.3052  0.4405  0.1771
  864MOL0     C19110   8.295   2.999  10.260 -0.7589 -0.9912  0.6773
  864MOL0     N19111   8.313   2.973  10.118 -0.5581  0.2055  0.4267
  864MOL0     C19112   8.226   2.886  10.049 -0.5779 -0.1418 -0.0907
  864MOL0     C19113   8.242   2.923   9.922 -0.4673 -0.0194  0.6829
  864MOL0     C19114   8.176   2.862   9.790  0.0314 -0.6052 -0.1733
  864MOL0     C19115   8.281   2.784   9.705  1.1530  0.3716 -0.6973
  864MOL0     C19116   8.319   2.662   9.787  0.3652  0.4204 -0.1871
  864MOL0     C19117   8.417   2.569   9.708 -0.5569  0.5302  0.1810
  864MOL0     O19118   8.343   2.532   9.582 -0.6156 -0.5318  0.1591
  864MOL0     C19119   8.414   2.479   9.479  0.7185  0.8696  0.4480
  864MOL0     C19120   8.430   2.566   9.371 -0.1713 -0.2926 -0.0381
  864MOL0     C19121   8.508   2.527   9.262 -0.0328  0.1871 -1.6790
  864MOL0     C19122   8.497   2.630   9.147 -1.3396 -0.1546  0.4025
  864MOL0     C19123   8.556   2.397   9.246 -0.7385  0.6267 -0.1404
  864MOL0     C19124   8.632   2.339   9.129 -0.2036 -0.1566  0.1641
  864MOL0     O19125   8.752   2.279   9.159 -0.9594 -0.0821  0.0577
  864MOL0     C19126   8.858   2.251   9.071  0.4933  0.1466 -0.4085
  864MOL0     C19127   8.971   2.200   9.136  0.4152 -0.9604  0.8252
  864MOL0     C19128   9.081   2.161   9.062  0.2594 -0.5594 -0.1397
  864MOL0     C19129   9.084   2.178   8.922 -0.2327 -0.7632 -0.9163
  864MOL0     O19130   9.189   2.133   8.843  0.1485  0.0656 -0.2228
  864MOL0     C19131   9.289   2.044   8.893  0.2228 -0.2054 -0.2199
  864MOL0     C19132   9.422   2.106   8.937 -0.3910 -0.6440  0.3784
  864MOL0     C19133   9.510   1.994   8.970 -0.8406 -0.0321  0.2960
  864MOL0     C19134   9.588   1.942   8.849 -0.6828 -0.3406  0.4936
  864MOL0     C19135   9.723   1.882   8.890  0.2853  0.2502 -0.0450
  864MOL0     C19136   9.754   1.771   8.798 -0.0963  0.5061 -0.5391
  864MOL0     C19137   9.865   1.801   8.703  0.3130  0.5693 -0.5232
  864MOL0     C19138   9.881   1.711   8.581  0.6677 -0.6365 -0.6759
  864MOL0    Cl19139   9.733   1.734   8.482 -0.0428 -0.0118 -0.2744
  864MOL0     C19140   8.967   2.218   8.858  0.0372  0.3178  0.9489
  864MOL0     C19141   8.856   2.251   8.931  0.2247  0.2624 -0.2566
  864MOL0     O19142   8.598   2.377   9.020 -0.3668  0.5339 -0.1470
  864MOL0     C19143   8.537   2.302   9.354 -0.0598  0.9293 -0.6184
  864MOL0     C19144   8.458   2.341   9.464  1.5179 -0.4255 -0.3892
  864MOL0     N19145   8.331   3.034   9.917  0.1774 -0.2622  0.2484
  864MOL0     N19146   8.393   3.041  10.033  0.4249 -0.0599  0.5187
  864MOL0     C19147   7.869   3.435  10.918  0.6651 -0.1203 -0.9109
  864MOL0     C19148   7.793   3.513  11.008  0.3746 -0.2873  0.0522
  864MOL0     C19149   7.676   3.911  11.206  0.0604 -0.2938  0.8690
  864MOL0     C19150   7.550   3.966  11.151  0.3992 -0.4409 -0.8096
  864MOL0     C19151   7.474   4.066  11.227 -0.7184  1.1233 -0.1786
  864MOL0     C19152   7.528   4.121  11.345 -0.3436 -0.7361 -0.5489
  864MOL0     O19153   7.480   4.237  11.407  0.2601  0.9837 -0.1462
  864MOL0     C19154   7.337   4.267  11.386  0.8792 -0.6345 -0.1159
  864MOL0     C19155   7.249   4.153  11.437 -0.2144 -0.0416  0.5992
  864MOL0     C19156   7.153   4.197  11.548 -0.0564  0.8563 -0.0846
  864MOL0     C19157   7.046   4.288  11.485 -0.2207 -0.3081 -0.2208
  864MOL0     C19158   6.919   4.284  11.561  0.5382  0.8120 -0.5188
  864MOL0     C19159   6.825   4.281  11.637  0.4745  0.2789 -0.8933
  864MOL0     C19160   7.642   4.072  11.399  0.3761  0.1334 -0.3992
  864MOL0     C19161   7.714   3.968  11.340 -0.0149  0.7751  0.4866
  864MOL0     C19162   7.843   3.926  11.407  0.5571  0.4693  0.3512
  864MOL0     H19163   7.758   3.792  10.818 -2.6771  0.0824  1.1190
  864MOL0     H19164   7.872   3.647  10.652 -2.2698  2.2002  0.6786
  864MOL0     H19165   7.917   3.454  10.532  0.6516 -0.7441 -0.8661
  864MOL0     H19166   8.009   3.300  10.529  1.4377  0.2502 -2.6149
  864MOL0     H19167   8.140   3.471  10.421  1.5729 -0.8474  0.4172
  864MOL0     H19168   8.137   3.562  10.574  1.8261  0.6008 -0.8650
  864MOL0     H19169   8.356   3.435  10.557  3.7487 -6.1196 -0.4842
  864MOL0     H19170   8.255   3.369  10.685  2.7916  2.9374  0.6814
  864MOL0     H19171   8.187   3.194  10.501 -0.2135 -0.4968  0.7750
  864MOL0     H19172   8.275   3.289  10.383  0.8739 -0.1536 -0.9371
  864MOL0     H19173   8.397   3.187  10.637 -1.9933  1.5804  0.0086
  864MOL0     H19174   8.495   3.217  10.495  0.9946 -1.3781 -0.1592
  864MOL0     H19175   8.451   2.971  10.572 -1.3265 -2.3717 -1.2107
  864MOL0     H19176   8.283   2.981  10.520 -0.9848 -1.6353 -1.2483
  864MOL0     H19177   8.446   2.883  10.347 -2.8291 -0.4197 -1.8357
  864MOL0     H19178   8.501   3.049  10.312  0.4292  0.2779  0.1855
  864MOL0     H19179   8.215   2.931  10.292 -0.4074 -1.5064  0.4811
  864MOL0     H19180   8.255   3.101  10.254 -0.7024 -0.9740  0.6058
  864MOL0     H19181   8.162   2.806  10.083 -1.9411  1.2852  0.8335
  864MOL0     H19182   8.134   2.946   9.734 -0.3786 -0.1906  0.7391
  864MOL0     H19183   8.085   2.807   9.816 -2.1370  1.4659 -2.7992
  864MOL0     H19184   8.232   2.750   9.614 -1.9066 -1.2331  1.3977
  864MOL0     H19185   8.371   2.842   9.679 -0.1530  1.7963 -2.2156
  864MOL0     H19186   8.356   2.680   9.888  4.3040 -1.2130 -1.1441
  864MOL0     H19187   8.227   2.606   9.803  1.0098 -0.0226  2.3895
  864MOL0     H19188   8.505   2.626   9.676  0.1991 -0.9854 -0.5524
  864MOL0     H19189   8.442   2.470   9.748 -3.6212 -0.2206  0.4532
  864MOL0     H19190   8.384   2.664   9.379  0.5058  0.2376 -1.9856
  864MOL0     H19191   8.447   2.592   9.057  0.8086 -1.6471 -0.2399
  864MOL0     H19192   8.600   2.659   9.121 -1.2660 -1.4820 -0.9209
  864MOL0     H19193   8.436   2.713   9.183  2.5332  3.5689 -0.7190
  864MOL0     H19194   8.969   2.199   9.245 -4.2030  2.0084  1.0691
  864MOL0     H19195   9.158   2.110   9.119  1.3695 -0.0426 -1.1279
  864MOL0     H19196   9.246   1.974   8.965  0.4704 -0.2997 -0.1620
  864MOL0     H19197   9.312   1.988   8.801 -2.6905 -2.4916  0.3063
  864MOL0     H19198   9.458   2.173   8.858 -2.5876  1.6373  1.1851
  864MOL0     H19199   9.414   2.165   9.029  2.2866  3.8686 -1.9430
  864MOL0     H19200   9.459   1.910   9.017 -1.1802 -1.2393 -2.0681
  864MOL0     H19201   9.585   2.032   9.040 -0.1429 -0.1454 -0.3787
  864MOL0     H19202   9.610   2.023   8.779  0.0899 -2.1964 -1.5025
  864MOL0     H19203   9.533   1.875   8.783  2.8515  0.6412 -3.9841
  864MOL0     H19204   9.813   1.945   8.902  1.8608 -1.9629  0.4293
  864MOL0     H19205   9.707   1.847   8.992 -3.3815  0.3356 -0.4707
  864MOL0     H19206   9.667   1.729   8.747  1.3362 -3.0967 -0.3925
  864MOL0     H19207   9.799   1.687   8.853 -0.0311 -0.4452 -1.9858
  864MOL0     H19208   9.959   1.785   8.755  1.2706  0.8114 -2.1230
  864MOL0     H19209   9.872   1.907   8.677  1.9483  2.2521  5.2970
  864MOL0     H19210   9.872   1.604   8.600 -2.3460 -0.5306 -0.9556
  864MOL0     H19211   9.973   1.737   8.527  1.8382  0.3886  1.6691
  864MOL0     H19212   8.956   2.239   8.752 -0.6430 -0.8401  0.7714
  864MOL0     H19213   8.766   2.284   8.880  1.6183  1.9347 -1.7902
  864MOL0     H19214   8.564   2.197   9.348 -3.1711 -0.1186  1.0132
  864MOL0     H19215   8.435   2.271   9.544  2.7693  0.4727  0.8002
  864MOL0     H19216   7.907   3.338  10.945 -3.0246 -1.1767  1.2101
  864MOL0     H19217   7.754   3.467  11.098 -0.3361  0.1325 -0.0246
  864MOL0     H19218   7.518   3.920  11.058 -2.1416 -1.4119  0.4512
  864MOL0     H19219   7.378   4.099  11.188  0.4772  3.5564 -1.2815
  864MOL0     H19220   7.315   4.358  11.442 -0.4537 -0.2985 -1.1183
  864MOL0     H19221   7.314   4.299  11.283  2.4759  1.0207 -0.0281
  864MOL0     H19222   7.315   4.077  11.480 -0.4397 -0.0252  0.9860
  864MOL0     H19223   7.204   4.095  11.356  0.4153 -0.2534  0.4004
  864MOL0     H19224   7.103   4.106  11.582  2.5211 -0.8530 -0.5212
  864MOL0     H19225   7.207   4.239  11.634 -0.8425 -0.9490  1.3685
  864MOL0     H19226   7.034   4.263  11.380  2.4446  0.0234 -0.6710
  864MOL0     H19227   7.087   4.390  11.490 -1.7843  0.3177  0.8311
  864MOL0     H19228   6.734   4.306  11.688  1.9939 -3.3816  4.5699
  864MOL0     H19229   7.679   4.124  11.487  2.5400  0.2791 -1.3295
  864MOL0     H19230   7.929   3.979  11.367  0.0158  0.5206 -0.7620
  864MOL0     H19231   7.831   3.944  11.515 -1.4922  1.7673 -0.0416
  864MOL0     H19232   7.866   3.820  11.396  2.8971  0.6961  2.2358
  865MOL0     O19233   9.917   1.703   0.525 -0.3207 -0.2858 -0.0980
  865MOL0     C19234   9.858   1.804   0.495  0.2306  0.4076  0.4427
  865MOL0     O19235   9.879   1.872   0.380 -0.8758 -0.4472 -0.0036
  865MOL0     C19236   9.991   1.838   0.307  0.2828 -0.4457 -0.1621
  865MOL0     C19237   9.986   1.763   0.192 -0.3662 -0.6000 -0.5776
  865MOL0     C19238  10.098   1.740   0.113 -0.4522 -0.7074 -1.4293
  865MOL0     C19239  10.223   1.799   0.157  0.5193 -0.5825 -0.5398
  865MOL0     O19240  10.326   1.771   0.078  0.7099 -0.1080  1.0433
  865MOL0     C19241  10.419   1.883   0.050  1.2034  0.3192 -1.4453
  865MOL0     C19242  10.480   1.865  -0.091  0.4371 -0.9308  0.0010
  865MOL0     C19243  10.369   1.808  -0.198 -0.2247 -0.2769 -0.7779
  865MOL0     C19244  10.422   1.818  -0.342 -0.6858 -0.8511  0.5893
  865MOL0     C19245  10.527   1.710  -0.376  0.3538  0.5344  0.4042
  865MOL0     C19246  10.571   1.712  -0.532  0.1563 -0.5711 -0.0837
  865MOL0     C19247  10.717   1.652  -0.560 -0.0642 -0.5786 -0.0080
  865MOL0     C19248  10.740   1.699  -0.705  0.5691 -0.9407 -0.2531
  865MOL0     N19249  10.843   1.808  -0.702 -0.0657 -1.0164  0.0351
  865MOL0     C19250  10.974   1.804  -0.753  0.8318  0.2063 -0.1070
  865MOL0     C19251  11.027   1.929  -0.728 -0.6844  0.6759 -1.4650
  865MOL0     C19252  11.175   1.946  -0.729 -0.2416  0.4565 -0.3854
  865MOL0     C19253  11.248   1.834  -0.801  0.6602 -0.0264  0.0758
  865MOL0     C19254  11.389   1.870  -0.833 -0.2128  1.0723  0.4381
  865MOL0     C19255  11.467   1.913  -0.709  0.2840  0.3559  0.4418
  865MOL0     O19256  11.606   1.909  -0.745 -0.8110  0.4704 -0.1352
  865MOL0     C19257  11.694   2.000  -0.693  0.0814 -0.1080 -0.2666
  865MOL0     C19258  11.676   2.067  -0.568  0.1481 -0.1879 -0.2611
  865MOL0     C19259  11.769   2.152  -0.513 -0.2338 -1.5441  0.8546
  865MOL0     C19260  11.725   2.217  -0.384 -0.3456 -0.4965 -0.7736
  865MOL0     C19261  11.895   2.177  -0.581 -1.8157 -0.4843  0.2508
  865MOL0     C19262  12.009   2.262  -0.531 -0.0570  0.6197  0.7974
  865MOL0     O19263  12.117   2.250  -0.598 -0.3979 -0.8000  0.0623
  865MOL0     C19264  12.208   2.359  -0.596  0.5100  0.4593  0.0722
  865MOL0     C19265  12.188   2.492  -0.579 -0.6536  1.4744 -0.5388
  865MOL0     C19266  12.288   2.591  -0.569 -0.9345 -0.9353 -0.0107
  865MOL0     C19267  12.418   2.554  -0.597  0.3084 -0.3694  0.3122
  865MOL0     O19268  12.509   2.655  -0.613  0.0062  0.5095 -0.1890
  865MOL0     C19269  12.621   2.661  -0.524  0.3527  0.0305  0.0469
  865MOL0     C19270  12.725   2.776  -0.551 -0.3004 -0.1635  0.4524
  865MOL0     C19271  12.793   2.757  -0.689 -0.5581 -0.1698 -0.1027
  865MOL0     C19272  12.935   2.805  -0.689 -0.7442  0.4607 -0.3543
  865MOL0     C19273  12.976   2.839  -0.840  0.2213  0.1246  0.8235
  865MOL0     C19274  13.105   2.901  -0.854 -0.0050 -1.1454 -0.4501
  865MOL0     C19275  13.134   2.948  -0.999  0.4256 -0.6522 -0.2851
  865MOL0     C19276  13.267   3.009  -1.037 -0.8417  0.0213  1.0586
  865MOL0    Cl19277  13.311   3.145  -0.924 -0.4397 -0.4344  0.3796
  865MOL0     C19278  12.451   2.424  -0.610  0.9074 -0.7056 -0.2564
  865MOL0     C19279  12.350   2.325  -0.605 -0.0369 -0.6547  0.0946
  865MOL0     O19280  11.996   2.332  -0.435  0.1810  0.2280 -0.5887
  865MOL0     C19281  11.910   2.114  -0.709  0.0278 -0.8358 -0.0442
  865MOL0     C19282  11.806   2.034  -0.769  0.7869 -0.0398  0.8925
  865MOL0     N19283  10.925   2.006  -0.676  0.1299  0.5541 -0.1338
  865MOL0     N19284  10.820   1.936  -0.668  0.3617  0.0437 -0.1532
  865MOL0     C19285  10.226   1.883   0.270 -0.4292 -0.5415 -0.8389
  865MOL0     C19286  10.110   1.901   0.351  0.4322  0.1687 -0.3370
  865MOL0     C19287   9.731   1.839   0.562 -0.3877 -0.3868  0.3751
  865MOL0     C19288   9.659   1.737   0.637  0.0519  0.0801 -0.2625
  865MOL0     C19289   9.541   1.779   0.708 -0.2849 -0.3214 -0.1679
  865MOL0     C19290   9.501   1.913   0.706 -0.6245 -0.6339  0.9070
  865MOL0     O19291   9.378   1.956   0.760  0.4014 -0.2969  0.0655
  865MOL0     C19292   9.309   1.877   0.856  0.5229 -0.3629  0.3988
  865MOL0     C19293   9.165   1.927   0.869 -0.4435 -0.0152  0.1219
  865MOL0     C19294   9.147   2.042   0.980  0.7500 -0.8524 -0.1176
  865MOL0     C19295   9.009   2.106   0.983  0.5240 -0.5835 -0.2703
  865MOL0     C19296   8.977   2.191   0.868  0.0339 -0.7836 -0.3490
  865MOL0     C19297   8.932   2.267   0.779 -0.7204  0.3812  0.0034
  865MOL0     C19298   9.571   2.015   0.634 -0.6249 -0.3424 -0.1421
  865MOL0     C19299   9.688   1.970   0.566  0.8251  1.2809 -0.7450
  865MOL0     C19300   9.759   2.088   0.516 -0.1631  0.2136 -0.6242
  865MOL0     H19301   9.895   1.711   0.164 -0.7556  0.5732 -1.5617
  865MOL0     H19302  10.085   1.667   0.034 -0.2319 -2.0884 -0.2577
  865MOL0     H19303  10.495   1.891   0.128 -1.1113 -1.4159  1.1798
  865MOL0     H19304  10.361   1.975   0.045 -0.0263 -0.2793  0.5860
  865MOL0     H19305  10.508   1.964  -0.127  1.5799 -0.6484  1.5702
  865MOL0     H19306  10.570   1.803  -0.087  0.5958 -0.6545  3.2039
  865MOL0     H19307  10.343   1.708  -0.162  1.2148 -0.6192 -0.6285
  865MOL0     H19308  10.284   1.876  -0.188  0.4975  0.3513  2.4237
  865MOL0     H19309  10.336   1.811  -0.410  0.3717 -0.6350 -0.8298
  865MOL0     H19310  10.455   1.922  -0.352 -1.4695 -0.6675 -0.2276
  865MOL0     H19311  10.508   1.616  -0.325 -0.7537  1.3884  1.6387
  865MOL0     H19312  10.621   1.735  -0.326  1.8850  0.3499 -2.1879
  865MOL0     H19313  10.500   1.667  -0.602 -0.2886 -0.2639  0.1626
  865MOL0     H19314  10.572   1.820  -0.549  0.2932 -0.4365  0.7566
  865MOL0     H19315  10.719   1.542  -0.564  0.5708 -0.6380  1.5157
  865MOL0     H19316  10.803   1.684  -0.500 -1.3110 -0.5452  1.8446
  865MOL0     H19317  10.783   1.611  -0.754  0.6894 -2.0925  1.8098
  865MOL0     H19318  10.648   1.738  -0.748 -0.1798  2.4390  3.8184
  865MOL0     H19319  11.029   1.716  -0.783  2.0025  1.0860 -0.6346
  865MOL0     H19320  11.207   1.943  -0.625  2.1530 -1.7223 -1.0950
  865MOL0     H19321  11.191   2.046  -0.771 -0.0695  0.9316  0.7753
  865MOL0     H19322  11.227   1.743  -0.744 -4.9680  1.5085  1.1223
  865MOL0     H19323  11.196   1.815  -0.896  0.0347  1.4532  0.0949
  865MOL0     H19324  11.438   1.793  -0.892  1.8310  0.8024  2.3764
  865MOL0     H19325  11.390   1.960  -0.896 -0.6568  0.3388 -0.6408
  865MOL0     H19326  11.432   2.013  -0.685 -3.2903  0.1195 -2.8655
  865MOL0     H19327  11.450   1.838  -0.631 -0.8081 -0.0493 -0.1595
  865MOL0     H19328  11.581   2.044  -0.522 -0.4942 -0.0358 -1.4496
  865MOL0     H19329  11.639   2.170  -0.337  0.3638 -2.0047 -0.9195
  865MOL0     H19330  11.701   2.322  -0.403  4.1698  0.7106 -1.0692
  865MOL0     H19331  11.800   2.206  -0.305  0.7024 -0.4024 -1.7225
  865MOL0     H19332  12.085   2.527  -0.576 -2.3321 -2.6350 -2.2694
  865MOL0     H19333  12.266   2.696  -0.556  1.6713 -0.5039  1.8025
  865MOL0     H19334  12.594   2.677  -0.420  3.6694 -0.1646  1.0428
  865MOL0     H19335  12.675   2.566  -0.520  0.4483  0.0773 -0.1094
  865MOL0     H19336  12.689   2.879  -0.542  1.0673  0.5528 -1.4469
  865MOL0     H19337  12.798   2.760  -0.471 -0.7956 -1.2117  0.6983
  865MOL0     H19338  12.728   2.812  -0.757  1.2302 -0.0431 -1.8030
  865MOL0     H19339  12.795   2.650  -0.709  1.3817 -0.4696  1.3899
  865MOL0     H19340  12.993   2.724  -0.645 -0.4187  0.7331 -0.2830
  865MOL0     H19341  12.952   2.891  -0.623  5.1735 -1.8896  1.8977
  865MOL0     H19342  12.974   2.744  -0.893 -2.6217 -1.3442  3.2407
  865MOL0     H19343  12.900   2.902  -0.888  2.4002 -0.3794 -3.7944
  865MOL0     H19344  13.184   2.829  -0.832  1.2798 -0.0421 -1.2606
  865MOL0     H19345  13.100   2.987  -0.787  1.1504 -2.7840  1.8759
  865MOL0     H19346  13.054   3.018  -1.026  0.2393 -1.1540 -1.0550
  865MOL0     H19347  13.129   2.859  -1.062  5.3955  0.6074 -3.0147
  865MOL0     H19348  13.252   3.052  -1.136  0.9926 -3.4205 -0.9134
  865MOL0     H19349  13.339   2.929  -1.056 -0.6286  1.0687 -3.5944
  865MOL0     H19350  12.551   2.397  -0.644  0.5795  0.5729 -2.3898
  865MOL0     H19351  12.385   2.224  -0.624  2.7024  0.6791 -2.9923
  865MOL0     H19352  11.999   2.130  -0.770  0.4530 -2.2938  0.1689
  865MOL0     H19353  11.816   1.984  -0.865 -0.6412  0.2920  0.5539
  865MOL0     H19354  10.314   1.941   0.295 -0.1276 -0.4309 -2.0651
  865MOL0     H19355  10.129   1.974   0.428  0.9756 -0.5595  0.2351
  865MOL0     H19356   9.687   1.633   0.647 -2.8333 -1.0237 -2.4293
  865MOL0     H19357   9.487   1.702   0.762 -0.7241 -0.5778 -0.9505
  865MOL0     H19358   9.310   1.770   0.834  2.1820 -0.1313 -0.8525
  865MOL0     H19359   9.349   1.888   0.957  2.4204 -0.8725 -0.2580
  865MOL0     H19360   9.092   1.848   0.891  0.0921 -0.7222 -0.5957
  865MOL0     H19361   9.127   1.966   0.774  2.1308 -2.4590 -2.0848
  865MOL0     H19362   9.164   1.989   1.074  2.3997  1.4843  1.0212
  865MOL0     H19363   9.223   2.118   0.958 -0.1708 -0.1543 -0.9648
  865MOL0     H19364   9.008   2.179   1.064  0.3275 -0.7843 -0.0879
  865MOL0     H19365   8.929   2.030   0.985  0.3477 -0.3882  0.2233
  865MOL0     H19366   8.906   2.328   0.695  2.0033  2.8940  0.8027
  865MOL0     H19367   9.551   2.121   0.626  1.1673  0.0694  0.3309
  865MOL0     H19368   9.734   2.178   0.574 -2.1962 -0.8957  0.2969
  865MOL0     H19369   9.865   2.061   0.517 -0.7898 -2.5014 -0.1702
  865MOL0     H19370   9.733   2.111   0.412 -0.3259  2.7888 -0.0926
  866MOL0     O19371   4.171   6.258   0.354 -0.8358  0.1501  0.0712
  866MOL0     C19372   4.173   6.209   0.472 -0.1422  0.0413 -0.6302
  866MOL0     O19373   4.277   6.229   0.565 -0.2486 -1.0317  0.5633
  866MOL0     C19374   4.396   6.299   0.522 -0.0579 -0.1173 -0.2792
  866MOL0     C19375   4.509   6.262   0.591  0.7561 -0.2547  0.1721
  866MOL0     C19376   4.638   6.331   0.561  0.3939  0.2448 -0.3713
  866MOL0     C19377   4.650   6.419   0.455  0.3819 -0.6582 -0.1336
  866MOL0     O19378   4.779   6.470   0.429 -0.1378 -0.4176 -0.5070
  866MOL0     C19379   4.797   6.606   0.402 -0.1811 -0.1319 -1.3052
  866MOL0     C19380   4.834   6.619   0.253 -0.3094  0.0140  0.6833
  866MOL0     C19381   4.816   6.768   0.210  0.7931 -0.1853 -1.3645
  866MOL0     C19382   4.893   6.798   0.083 -0.2849 -0.0515 -0.2239
  866MOL0     C19383   4.837   6.712  -0.035  0.2965 -0.3127  0.0939
  866MOL0     C19384   4.903   6.757  -0.169  0.5307 -0.0190  0.0581
  866MOL0     C19385   4.878   6.663  -0.290  0.1515  0.3326  0.1137
  866MOL0     C19386   4.936   6.522  -0.275  0.3986 -0.4645 -0.5413
  866MOL0     N19387   4.922   6.441  -0.393  0.1166  0.7547 -0.4823
  866MOL0     C19388   4.970   6.463  -0.517  0.3814 -0.5620  0.0174
  866MOL0     C19389   4.921   6.372  -0.601 -0.5753  0.2720 -0.5139
  866MOL0     C19390   4.942   6.359  -0.750  0.0729  0.2844  0.6550
  866MOL0     C19391   4.810   6.350  -0.819  0.3660 -0.9704  0.0424
  866MOL0     C19392   4.825   6.395  -0.965 -0.7730  1.0825 -0.0279
  866MOL0     C19393   4.895   6.283  -1.053 -0.5166  0.1567 -1.5118
  866MOL0     O19394   4.922   6.310  -1.188  0.4522 -0.3095  0.1971
  866MOL0     C19395   4.935   6.213  -1.284  0.6397  0.0739  0.4041
  866MOL0     C19396   4.962   6.268  -1.409 -0.0277 -0.5451  0.1871
  866MOL0     C19397   4.971   6.190  -1.520  0.1574  0.0169  0.1715
  866MOL0     C19398   5.036   6.244  -1.648  0.4756 -0.1244  0.2450
  866MOL0     C19399   4.951   6.050  -1.498  0.0958  0.8980 -0.1298
  866MOL0     C19400   4.949   5.947  -1.606  0.1247 -0.5618 -0.5219
  866MOL0     O19401   5.038   5.846  -1.598 -0.9412  0.3408  0.9946
  866MOL0     C19402   5.031   5.754  -1.689  0.1588  0.2791  0.6728
  866MOL0     C19403   4.919   5.670  -1.703 -0.7893  0.2659 -0.6256
  866MOL0     C19404   4.932   5.549  -1.777  0.0240  0.0197  0.0654
  866MOL0     C19405   5.054   5.530  -1.858  0.9839 -0.0820 -0.3381
  866MOL0     O19406   5.072   5.414  -1.935  0.2129  0.2439 -0.3659
  866MOL0     C19407   4.999   5.291  -1.909 -0.3509 -0.2990 -0.0589
  866MOL0     C19408   5.063   5.171  -1.991  0.2737 -0.0339 -0.1485
  866MOL0     C19409   5.007   5.043  -1.933 -1.0941 -0.7488 -0.0897
  866MOL0     C19410   5.057   4.916  -2.011 -0.1122 -0.4236  1.0146
  866MOL0     C19411   5.010   4.787  -1.935  0.9875 -0.3202 -0.5851
  866MOL0     C19412   5.003   4.656  -2.025  0.3790  0.0364  0.0462
  866MOL0     C19413   5.128   4.644  -2.111 -0.3675 -0.2947  0.8353
  866MOL0     C19414   5.115   4.519  -2.200  0.9245  0.5343 -0.4279
  866MOL0    Cl19415   5.222   4.515  -2.342  0.3980 -0.3554  0.0525
  866MOL0     C19416   5.154   5.626  -1.859 -0.0739  0.2766 -0.3275
  866MOL0     C19417   5.138   5.737  -1.775 -0.0671  0.2571 -0.1515
  866MOL0     O19418   4.891   5.986  -1.704  0.6940  0.7659 -0.6493
  866MOL0     C19419   4.929   5.993  -1.369 -0.2709 -0.2276 -0.0763
  866MOL0     C19420   4.934   6.077  -1.264  0.4834  0.0243  0.0768
  866MOL0     N19421   4.832   6.295  -0.529 -0.5417 -0.4918 -0.5380
  866MOL0     N19422   4.841   6.334  -0.410  0.5666 -0.1876 -0.3502
  866MOL0     C19423   4.533   6.444   0.384 -0.2454  0.5005 -0.7361
  866MOL0     C19424   4.411   6.388   0.416 -0.4083  0.0619  0.3314
  866MOL0     C19425   4.053   6.128   0.511 -0.1078  0.9260  0.9214
  866MOL0     C19426   4.066   6.030   0.612  0.3798 -0.2163 -0.0806
  866MOL0     C19427   3.966   5.932   0.635  0.1122 -0.1373  0.6902
  866MOL0     C19428   3.838   5.941   0.591  0.2906 -0.9067 -0.0415
  866MOL0     O19429   3.732   5.852   0.619 -0.7390 -0.4078 -0.6107
  866MOL0     C19430   3.747   5.770   0.734 -0.7438  0.0054  0.3061
  866MOL0     C19431   3.764   5.841   0.871 -0.3126  0.2928  0.3156
  866MOL0     C19432   3.823   5.734   0.963  0.8003  0.0211 -0.1979
  866MOL0     C19433   3.793   5.765   1.108 -0.8738 -0.0255  0.3200
  866MOL0     C19434   3.646   5.745   1.124  0.4052  0.7755  0.8244
  866MOL0     C19435   3.532   5.713   1.158  0.6285 -0.8249 -0.1087
  866MOL0     C19436   3.824   6.043   0.497  0.9881 -0.8359 -0.3437
  866MOL0     C19437   3.918   6.138   0.454  0.4207 -0.1023 -0.8616
  866MOL0     C19438   3.885   6.256   0.356 -0.1135  0.1303  0.0249
  866MOL0     H19439   4.511   6.188   0.670  0.6990 -0.8881 -0.4084
  866MOL0     H19440   4.725   6.301   0.619  0.7773  0.9603 -0.5556
  866MOL0     H19441   4.875   6.657   0.459 -2.5262  0.6096  1.4756
  866MOL0     H19442   4.707   6.661   0.431  0.5581 -0.6881  2.4961
  866MOL0     H19443   4.939   6.594   0.233  0.6970  1.7271  3.1636
  866MOL0     H19444   4.764   6.557   0.197 -1.5513  1.6215  0.3959
  866MOL0     H19445   4.708   6.786   0.206  1.2400  2.7708 -1.9892
  866MOL0     H19446   4.840   6.841   0.288 -4.4632  0.6950 -0.1584
  866MOL0     H19447   4.870   6.902   0.059  0.0650  0.2626  0.7943
  866MOL0     H19448   4.999   6.774   0.094 -1.3045 -4.8518  1.7899
  866MOL0     H19449   4.728   6.717  -0.045 -0.0353  2.1454  3.3248
  866MOL0     H19450   4.869   6.608  -0.026  1.2523 -0.3515 -2.8882
  866MOL0     H19451   4.856   6.853  -0.193 -0.5102 -0.7842 -1.1082
  866MOL0     H19452   5.012   6.752  -0.174  0.4706 -3.8308 -2.3833
  866MOL0     H19453   4.902   6.722  -0.379 -2.3817 -1.3239 -1.8133
  866MOL0     H19454   4.769   6.660  -0.296  0.1745  0.7026 -0.5204
  866MOL0     H19455   5.041   6.531  -0.245  0.5765  1.9581 -1.6823
  866MOL0     H19456   4.887   6.478  -0.188 -0.8112  3.4815  1.0068
  866MOL0     H19457   5.043   6.538  -0.548  1.7172 -1.1294  1.6529
  866MOL0     H19458   4.989   6.264  -0.777  2.7969  1.5291  0.7832
  866MOL0     H19459   5.004   6.439  -0.792 -1.3255  0.6135 -0.9498
  866MOL0     H19460   4.768   6.252  -0.795  0.8939 -0.8664  1.5048
  866MOL0     H19461   4.753   6.434  -0.778  2.2201  0.1687  0.4108
  866MOL0     H19462   4.726   6.420  -1.002 -2.9226 -3.4292  1.9366
  866MOL0     H19463   4.886   6.486  -0.970  0.0229  0.4963 -2.9984
  866MOL0     H19464   4.990   6.260  -1.004 -1.0517  3.9099  1.8656
  866MOL0     H19465   4.827   6.199  -1.037 -2.9649  2.4758  1.6031
  866MOL0     H19466   4.978   6.375  -1.410  1.4235 -0.6938  2.3715
  866MOL0     H19467   5.097   6.169  -1.699 -0.2705  1.4241 -3.2829
  866MOL0     H19468   5.092   6.330  -1.610 -2.1340  0.3777  3.2966
  866MOL0     H19469   4.956   6.288  -1.708  1.5487 -0.3788 -1.4441
  866MOL0     H19470   4.828   5.693  -1.650 -1.0681 -2.5106  0.2974
  866MOL0     H19471   4.855   5.476  -1.798  2.2149 -2.5445  0.3912
  866MOL0     H19472   4.985   5.272  -1.802 -1.3891  1.8920  0.2440
  866MOL0     H19473   4.900   5.305  -1.954 -0.6793  2.3170  1.3085
  866MOL0     H19474   5.053   5.185  -2.099 -1.6776  2.2535  0.2503
  866MOL0     H19475   5.170   5.179  -1.972  0.0596 -0.7407  1.5829
  866MOL0     H19476   4.900   5.065  -1.930 -0.7305  1.3929  3.9706
  866MOL0     H19477   5.050   5.020  -1.835  0.8650  1.3571 -0.3704
  866MOL0     H19478   5.166   4.926  -2.018 -0.0620  0.3882  2.5493
  866MOL0     H19479   5.012   4.914  -2.111 -2.1070 -2.4618  1.8753
  866MOL0     H19480   5.082   4.787  -1.852 -1.0922  1.7583  1.3751
  866MOL0     H19481   4.916   4.796  -1.880  2.6898 -2.3541  3.0797
  866MOL0     H19482   4.912   4.658  -2.086 -0.3472 -1.2083  1.0652
  866MOL0     H19483   4.986   4.574  -1.955 -0.6741  4.4846  5.7203
  866MOL0     H19484   5.215   4.619  -2.050  1.5721  0.8740 -1.2824
  866MOL0     H19485   5.145   4.733  -2.172  3.1983 -0.3100  1.5587
  866MOL0     H19486   5.009   4.505  -2.225  0.3250  0.7969  1.7209
  866MOL0     H19487   5.125   4.437  -2.129 -1.5121  1.8581  1.6335
  866MOL0     H19488   5.248   5.604  -1.909  1.0489  0.1029  1.7492
  866MOL0     H19489   5.219   5.808  -1.764  1.0911 -1.0805  0.2223
  866MOL0     H19490   4.916   5.888  -1.347  1.6206 -0.3867  0.5125
  866MOL0     H19491   4.918   6.031  -1.167 -0.7590  1.3989  0.5562
  866MOL0     H19492   4.532   6.507   0.296  0.7972 -0.3861 -1.4211
  866MOL0     H19493   4.325   6.417   0.356  0.5908  0.2428 -1.0417
  866MOL0     H19494   4.161   6.007   0.659  0.1568 -0.5760  0.1948
  866MOL0     H19495   4.001   5.851   0.699  2.3067  0.4798  0.3740
  866MOL0     H19496   3.652   5.716   0.738  0.4190 -2.2843 -1.0200
  866MOL0     H19497   3.816   5.687   0.718 -1.4425 -0.5179 -0.0638
  866MOL0     H19498   3.665   5.875   0.904  0.6208  1.1101  2.4439
  866MOL0     H19499   3.836   5.922   0.858  0.6269 -0.8308 -2.1728
  866MOL0     H19500   3.786   5.635   0.936 -1.1784  1.4306 -3.1679
  866MOL0     H19501   3.929   5.718   0.942  0.7973 -1.9052  1.0624
  866MOL0     H19502   3.832   5.864   1.134  0.9034 -0.2333 -1.2873
  866MOL0     H19503   3.841   5.698   1.179 -1.5842 -2.6577 -1.5291
  866MOL0     H19504   3.434   5.699   1.199 -0.9360  0.4859 -3.0613
  866MOL0     H19505   3.727   6.050   0.448 -0.2801 -1.2643  1.9723
  866MOL0     H19506   3.938   6.231   0.264  3.9391 -1.0106  2.4256
  866MOL0     H19507   3.777   6.260   0.337 -0.4093  1.5792  1.6984
  866MOL0     H19508   3.921   6.350   0.398 -0.9403  0.4587  0.0223
  867MOL0     O19509   7.907   0.001  10.636  1.0781  0.3468  0.8725
  867MOL0     C19510   8.026  -0.011  10.614 -0.2835 -1.2956  0.4766
  867MOL0     O19511   8.099   0.089  10.550 -0.5459 -0.5341  0.7737
  867MOL0     C19512   8.030   0.203  10.510 -0.3417  0.4048  0.3768
  867MOL0     C19513   8.063   0.337  10.544  0.1999 -0.6616  1.1117
  867MOL0     C19514   7.984   0.443  10.489 -0.1679 -0.2467 -0.4660
  867MOL0     C19515   7.879   0.420  10.401 -0.3629 -0.4876 -0.9090
  867MOL0     O19516   7.800   0.522  10.349  0.1158  0.0329  0.0469
  867MOL0     C19517   7.729   0.602  10.443  1.2323 -1.1007 -1.2398
  867MOL0     C19518   7.620   0.671  10.361  0.9381  0.1104  0.1124
  867MOL0     C19519   7.544   0.773  10.449 -0.5171  0.4422  0.7972
  867MOL0     C19520   7.437   0.839  10.370  0.3137  0.5294  0.0386
  867MOL0     C19521   7.370   0.957  10.444 -0.9384  0.3740  0.9462
  867MOL0     C19522   7.308   1.064  10.358  0.7580 -0.0249  0.8183
  867MOL0     C19523   7.265   1.205  10.424  0.7015 -0.4614  1.7509
  867MOL0     C19524   7.126   1.243  10.370  0.3409  0.6648 -0.2087
  867MOL0     N19525   7.125   1.281  10.231  0.4226 -1.1259  0.7122
  867MOL0     C19526   7.050   1.222  10.124 -0.0268 -1.0926 -0.3447
  867MOL0     C19527   7.065   1.287  10.005  0.2006 -0.0033 -1.3292
  867MOL0     C19528   7.012   1.263   9.866  0.6490  0.0550 -0.8306
  867MOL0     C19529   7.063   1.148   9.794  0.3560  0.8272 -0.2808
  867MOL0     C19530   7.041   1.138   9.645  0.0328  0.1520  0.4662
  867MOL0     C19531   7.117   1.019   9.583 -0.3818  0.5422  0.4502
  867MOL0     O19532   7.076   0.903   9.657 -0.3189  0.4381 -0.5625
  867MOL0     C19533   6.963   0.830   9.638 -0.3531 -0.7613 -0.4147
  867MOL0     C19534   6.884   0.832   9.530 -1.1912  0.2400 -0.3659
  867MOL0     C19535   6.777   0.738   9.517  0.0235 -0.1545  0.9844
  867MOL0     C19536   6.708   0.756   9.392  0.6168  0.3147  0.5378
  867MOL0     C19537   6.748   0.640   9.614  0.4609 -0.9610  0.6184
  867MOL0     C19538   6.631   0.557   9.598  0.3715  0.3044  0.2416
  867MOL0     O19539   6.517   0.612   9.552  0.7137 -0.2353  0.4993
  867MOL0     C19540   6.391   0.554   9.583  0.3973 -0.9680  0.0939
  867MOL0     C19541   6.279   0.590   9.509 -0.2419 -0.5622 -0.5551
  867MOL0     C19542   6.148   0.550   9.543 -0.1338 -1.4404 -0.0584
  867MOL0     C19543   6.129   0.470   9.650  0.5090  0.5204 -0.7273
  867MOL0     O19544   5.998   0.441   9.680  0.3256  0.1323  0.3374
  867MOL0     C19545   5.973   0.355   9.801 -0.1989 -0.2400  0.4237
  867MOL0     C19546   5.822   0.328   9.834  0.0487  0.1866  0.0382
  867MOL0     C19547   5.766   0.217   9.739  0.3023 -0.2899 -0.0487
  867MOL0     C19548   5.623   0.192   9.764 -0.1194  0.3358 -0.3823
  867MOL0     C19549   5.574   0.156   9.906 -0.3011  0.8355  0.7694
  867MOL0     C19550   5.655   0.045   9.975  0.4154  0.4762  0.5624
  867MOL0     C19551   5.570  -0.014  10.095 -0.7747 -0.8374 -0.9720
  867MOL0     C19552   5.639  -0.116  10.178  0.6168  0.4509  0.7104
  867MOL0    Cl19553   5.603  -0.258  10.085 -0.0609  0.0642 -0.1454
  867MOL0     C19554   6.243   0.425   9.717  0.7399 -0.0699  0.2439
  867MOL0     C19555   6.370   0.465   9.692  0.1325 -0.0514 -0.0140
  867MOL0     O19556   6.648   0.440   9.641 -0.6069 -0.1747  0.4903
  867MOL0     C19557   6.842   0.633   9.717 -0.7302  0.6423  1.0083
  867MOL0     C19558   6.943   0.732   9.728  0.0009 -0.1434 -0.9993
  867MOL0     N19559   7.150   1.386  10.040  0.3280  0.4382 -0.1632
  867MOL0     N19560   7.188   1.386  10.167 -0.0902  0.1145  0.5197
  867MOL0     C19561   7.856   0.292  10.371 -0.3349  0.3800  0.7029
  867MOL0     C19562   7.928   0.183  10.410  0.0260 -0.5448  0.3565
  867MOL0     C19563   8.091  -0.141  10.642  0.1753  0.5324  1.0279
  867MOL0     C19564   8.200  -0.187  10.559  0.0570  0.0519 -0.1637
  867MOL0     C19565   8.246  -0.316  10.555  0.2922  0.4333  1.1711
  867MOL0     C19566   8.197  -0.411  10.641  0.2034 -0.2753 -0.6055
  867MOL0     O19567   8.263  -0.533  10.628 -0.2535  0.2494  0.0643
  867MOL0     C19568   8.170  -0.644  10.656  0.0644 -0.6558 -0.4071
  867MOL0     C19569   8.247  -0.780  10.641 -0.3408 -0.2610  0.1146
  867MOL0     C19570   8.278  -0.809  10.492 -0.0102 -0.1665  1.3958
  867MOL0     C19571   8.337  -0.945  10.478 -0.3484  0.1205 -0.1813
  867MOL0     C19572   8.371  -0.984  10.343  0.2656  0.1281 -1.0693
  867MOL0     C19573   8.390  -1.015  10.226 -1.0339 -0.8792  0.0505
  867MOL0     C19574   8.102  -0.367  10.728  0.1306  0.2461 -0.2753
  867MOL0     C19575   8.044  -0.238  10.733  0.5038  0.6476  0.1457
  867MOL0     C19576   7.927  -0.213  10.834  0.0203 -0.5754 -0.6838
  867MOL0     H19577   8.160   0.365  10.584  1.4365  0.5533 -2.4287
  867MOL0     H19578   8.014   0.546  10.506 -2.4260  0.2483  1.0437
  867MOL0     H19579   7.798   0.676  10.485  1.3823  0.6223 -4.2041
  867MOL0     H19580   7.692   0.553  10.532 -0.1570  4.1178  1.4702
  867MOL0     H19581   7.665   0.725  10.277 -1.7286 -0.0593 -1.5541
  867MOL0     H19582   7.555   0.595  10.316  0.4224  0.5167  0.1585
  867MOL0     H19583   7.511   0.718  10.537  0.9457 -1.0039  0.4806
  867MOL0     H19584   7.614   0.843  10.495  2.6272 -1.4220 -0.8206
  867MOL0     H19585   7.479   0.873  10.274  0.4153 -0.4289 -0.2610
  867MOL0     H19586   7.362   0.767  10.338 -0.1668 -0.6491  3.4432
  867MOL0     H19587   7.443   1.006  10.508  5.6046 -2.1697 -3.4516
  867MOL0     H19588   7.290   0.908  10.501  0.2494 -2.9672 -0.0207
  867MOL0     H19589   7.386   1.092  10.286 -0.7381 -2.9812 -2.2067
  867MOL0     H19590   7.235   1.011  10.297  2.0510 -1.8315  0.7697
  867MOL0     H19591   7.345   1.279  10.411  1.0182 -1.0482  0.1158
  867MOL0     H19592   7.247   1.194  10.531  0.3311 -3.4462  1.4566
  867MOL0     H19593   7.064   1.154  10.382  0.1609  0.3587 -2.9323
  867MOL0     H19594   7.081   1.327  10.424  0.5147  1.8409 -1.8348
  867MOL0     H19595   6.997   1.128  10.135  1.5567 -2.1325 -1.3060
  867MOL0     H19596   7.047   1.347   9.806  4.4730 -2.1075 -2.0306
  867MOL0     H19597   6.903   1.263   9.868  0.5149  1.8843 -3.6762
  867MOL0     H19598   7.171   1.157   9.808  0.5648  0.3727 -1.5568
  867MOL0     H19599   7.043   1.056   9.849  1.6461 -0.5752 -2.0445
  867MOL0     H19600   6.935   1.116   9.630  0.3162 -0.1643 -1.2916
  867MOL0     H19601   7.068   1.233   9.600 -1.3610  1.3220  1.9750
  867MOL0     H19602   7.089   1.013   9.477  0.5486  2.1295  0.0868
  867MOL0     H19603   7.223   1.041   9.598 -0.5850 -0.1120  3.4992
  867MOL0     H19604   6.905   0.915   9.463 -0.0388  1.8399  1.8230
  867MOL0     H19605   6.761   0.833   9.336  0.9819 -0.6550 -0.4877
  867MOL0     H19606   6.600   0.774   9.399  0.0096 -1.8506 -1.6504
  867MOL0     H19607   6.721   0.670   9.325 -0.8147  0.5945 -0.1611
  867MOL0     H19608   6.293   0.656   9.424 -3.2628 -0.9602 -1.4671
  867MOL0     H19609   6.066   0.587   9.482  2.4532  1.8381 -1.8595
  867MOL0     H19610   6.028   0.260   9.801  0.1454 -0.0929  2.8243
  867MOL0     H19611   6.015   0.408   9.886 -0.4543  0.1037  0.3359
  867MOL0     H19612   5.811   0.289   9.936  0.4425  2.2527  0.9170
  867MOL0     H19613   5.767   0.422   9.845  0.7401  0.3690  2.4816
  867MOL0     H19614   5.809   0.116   9.741 -2.1655 -1.4173  1.9107
  867MOL0     H19615   5.765   0.253   9.636  0.9003 -2.9458 -1.0497
  867MOL0     H19616   5.599   0.107   9.699 -0.2820 -1.0061  1.3538
  867MOL0     H19617   5.561   0.281   9.752 -0.3948  0.0650 -1.0068
  867MOL0     H19618   5.567   0.252   9.958 -1.2781  0.0106  2.2239
  867MOL0     H19619   5.471   0.121   9.908  0.2331 -1.3816 -2.5817
  867MOL0     H19620   5.749   0.083  10.015  3.1534 -2.8350 -2.0586
  867MOL0     H19621   5.678  -0.037   9.906 -3.3070 -0.9666  0.8031
  867MOL0     H19622   5.468  -0.035  10.062 -1.4022 -0.4218  0.6238
  867MOL0     H19623   5.567   0.080  10.151 -0.7334 -0.7810 -1.0647
  867MOL0     H19624   5.597  -0.131  10.278 -4.1296  2.3868 -0.7127
  867MOL0     H19625   5.744  -0.087  10.186  0.6083  0.0645  2.7351
  867MOL0     H19626   6.228   0.347   9.791 -2.7671 -0.3063 -0.5344
  867MOL0     H19627   6.445   0.430   9.763  1.1338  1.5922 -0.2059
  867MOL0     H19628   6.832   0.544   9.778  3.2821 -1.4570 -0.9916
  867MOL0     H19629   7.008   0.730   9.815  0.8565  2.4813 -1.4811
  867MOL0     H19630   7.773   0.270  10.306  1.7116 -4.9337 -0.6665
  867MOL0     H19631   7.896   0.081  10.394  1.8448 -1.9834  4.4831
  867MOL0     H19632   8.245  -0.105  10.504 -0.0523  0.2956  0.1044
  867MOL0     H19633   8.321  -0.341  10.480 -0.0650  3.4966 -0.4021
  867MOL0     H19634   8.130  -0.621  10.755 -1.9707  2.5464 -1.8230
  867MOL0     H19635   8.093  -0.644  10.579 -0.3053 -1.3443 -0.0486
  867MOL0     H19636   8.174  -0.858  10.664  1.2372 -2.4440 -1.8092
  867MOL0     H19637   8.333  -0.778  10.708 -0.7771  1.4600  0.6649
  867MOL0     H19638   8.185  -0.809  10.435 -0.0100  0.4342  1.3859
  867MOL0     H19639   8.346  -0.734  10.451 -1.4390  1.1258  1.3182
  867MOL0     H19640   8.269  -1.022  10.516  2.9640 -4.4602 -2.5444
  867MOL0     H19641   8.428  -0.955  10.539  0.9725 -1.1099 -2.2142
  867MOL0     H19642   8.430  -1.043  10.131 -1.6249 -3.2242  0.4337
  867MOL0     H19643   8.059  -0.435  10.800  1.5784  1.1340  1.5352
  867MOL0     H19644   7.938  -0.111  10.871  0.4169 -0.2312 -1.7025
  867MOL0     H19645   7.828  -0.206  10.788 -1.0495 -3.1235  1.0149
  867MOL0     H19646   7.929  -0.291  10.911  3.0633 -0.2152 -0.2671
  868MOL0     O19647   0.391   6.257   0.148  0.9209  0.1032 -1.0113
  868MOL0     C19648   0.451   6.252   0.256  0.4923  0.0379 -0.5716
  868MOL0     O19649   0.562   6.173   0.287 -0.7183 -0.5835 -0.2061
  868MOL0     C19650   0.619   6.083   0.196 -0.2519 -0.2839  0.0086
  868MOL0     C19651   0.650   6.124   0.064 -0.9383  0.1603 -0.9326
  868MOL0     C19652   0.718   6.038  -0.022  0.2429 -0.4472 -0.9220
  868MOL0     C19653   0.753   5.908   0.021  0.3651 -0.1341 -0.2428
  868MOL0     O19654   0.842   5.817  -0.045 -0.4311 -0.3464 -0.1372
  868MOL0     C19655   0.951   5.871  -0.119 -0.2231  0.1948 -0.5584
  868MOL0     C19656   0.929   5.831  -0.258 -0.3740 -0.2739 -0.0767
  868MOL0     C19657   1.028   5.906  -0.346  0.0462  0.1308 -0.2032
  868MOL0     C19658   1.151   5.834  -0.393 -0.0121  1.1955  0.8610
  868MOL0     C19659   1.250   5.920  -0.478  0.8556  0.1373  1.0472
  868MOL0     C19660   1.393   5.860  -0.485  0.3823 -0.7370 -0.2655
  868MOL0     C19661   1.395   5.709  -0.495  1.1495 -0.4039  0.3117
  868MOL0     C19662   1.534   5.660  -0.505  0.6299  0.0618 -0.7133
  868MOL0     N19663   1.591   5.666  -0.639 -0.1854 -0.0178  1.3421
  868MOL0     C19664   1.708   5.730  -0.672 -0.3147  0.6483 -0.6738
  868MOL0     C19665   1.743   5.694  -0.792  0.1388 -0.2980 -0.0842
  868MOL0     C19666   1.872   5.723  -0.860  0.3917  0.9084  0.6922
  868MOL0     C19667   1.923   5.607  -0.942  0.3765 -0.2687  0.5398
  868MOL0     C19668   2.063   5.647  -1.008  0.6046  0.0898 -0.2657
  868MOL0     C19669   2.143   5.533  -1.069  0.5762  0.9017  0.1941
  868MOL0     O19670   2.279   5.581  -1.095 -0.0859  0.5002 -0.0836
  868MOL0     C19671   2.363   5.505  -1.168  0.4065  0.3047  0.1881
  868MOL0     C19672   2.370   5.362  -1.144  0.3782  0.5959  0.0914
  868MOL0     C19673   2.458   5.277  -1.207 -1.0000 -0.8496 -0.8143
  868MOL0     C19674   2.451   5.132  -1.187 -0.2210 -0.3449  0.4740
  868MOL0     C19675   2.549   5.336  -1.297 -0.1567 -0.3488 -0.0323
  868MOL0     C19676   2.649   5.253  -1.384  1.2851 -0.7010 -0.6364
  868MOL0     O19677   2.765   5.325  -1.414 -0.7500 -0.1093 -0.1572
  868MOL0     C19678   2.860   5.256  -1.492 -0.7549  0.4748 -0.0167
  868MOL0     C19679   2.843   5.233  -1.632  0.1737 -0.2037 -0.5487
  868MOL0     C19680   2.939   5.158  -1.703  0.0286  0.0249 -0.0319
  868MOL0     C19681   3.052   5.102  -1.633 -0.2241  0.6484  0.4894
  868MOL0     O19682   3.131   5.010  -1.703 -0.2706 -0.7692 -0.1095
  868MOL0     C19683   3.129   4.870  -1.662 -0.4091 -0.6187  1.0145
  868MOL0     C19684   3.275   4.827  -1.643  0.3341 -0.3763  0.4397
  868MOL0     C19685   3.343   4.811  -1.775 -0.4968 -0.2593  0.5511
  868MOL0     C19686   3.321   4.677  -1.845  0.2706  0.5257 -0.1082
  868MOL0     C19687   3.429   4.651  -1.950  0.1861 -0.2070 -0.2505
  868MOL0     C19688   3.430   4.498  -1.992  0.5415  0.0309  0.0759
  868MOL0     C19689   3.492   4.495  -2.134 -0.5540  0.5248 -0.5591
  868MOL0     C19690   3.490   4.347  -2.176  0.6372  0.0999  0.0550
  868MOL0    Cl19691   3.588   4.332  -2.326 -0.0027  0.1169  0.3338
  868MOL0     C19692   3.074   5.137  -1.501 -0.3467 -0.0244 -0.4734
  868MOL0     C19693   2.977   5.206  -1.432  0.1425 -0.1207  0.1269
  868MOL0     O19694   2.624   5.141  -1.412 -0.4393 -0.0536  0.7605
  868MOL0     C19695   2.553   5.474  -1.316 -0.6739 -0.6076 -0.3407
  868MOL0     C19696   2.464   5.559  -1.253 -0.3258 -0.8504 -1.5784
  868MOL0     N19697   1.658   5.588  -0.829  0.3364 -0.6328  0.2125
  868MOL0     N19698   1.573   5.571  -0.735 -0.3904 -1.2441  0.2365
  868MOL0     C19699   0.722   5.860   0.149  0.4826  0.0443 -0.2236
  868MOL0     C19700   0.659   5.951   0.238  0.4799  0.0550  0.5469
  868MOL0     C19701   0.388   6.335   0.359 -0.4852 -1.4332 -0.0017
  868MOL0     C19702   0.243   6.326   0.365 -0.1800  0.0297  1.0908
  868MOL0     C19703   0.169   6.410   0.445 -0.9669 -1.3262 -0.4999
  868MOL0     C19704   0.246   6.500   0.525  0.8025  0.3959 -0.2230
  868MOL0     O19705   0.192   6.587   0.614  0.8957 -0.2943 -0.2520
  868MOL0     C19706   0.077   6.547   0.693 -0.5577  0.4410  0.4365
  868MOL0     C19707   0.103   6.422   0.782 -0.2788 -0.1991  0.5078
  868MOL0     C19708  -0.017   6.388   0.873 -0.2898 -0.8256  0.0163
  868MOL0     C19709   0.023   6.295   0.982  0.8327  0.2862 -0.7738
  868MOL0     C19710  -0.069   6.319   1.097 -0.4345 -0.0598 -0.3333
  868MOL0     C19711  -0.110   6.334   1.211 -0.4891  0.5498  0.1056
  868MOL0     C19712   0.384   6.525   0.495  0.0564  0.6864 -0.2869
  868MOL0     C19713   0.460   6.436   0.422 -0.3387  0.5963 -0.0061
  868MOL0     C19714   0.614   6.457   0.412  0.7811 -0.5217  0.2483
  868MOL0     H19715   0.610   6.220   0.035  0.5580  0.7879 -1.0083
  868MOL0     H19716   0.731   6.093  -0.115  0.5792  1.5142  0.2357
  868MOL0     H19717   1.041   5.824  -0.079  1.0460  2.3343 -0.7447
  868MOL0     H19718   0.956   5.980  -0.118 -0.2099  0.2107  1.1510
  868MOL0     H19719   0.946   5.723  -0.261 -0.8289 -0.4570  2.2533
  868MOL0     H19720   0.828   5.846  -0.296 -0.7379  0.4971  1.1323
  868MOL0     H19721   0.979   5.940  -0.437 -4.1572  1.9558  2.4448
  868MOL0     H19722   1.069   5.996  -0.300 -0.3509  1.6437 -2.6565
  868MOL0     H19723   1.191   5.799  -0.297 -2.3583 -1.3968  1.0342
  868MOL0     H19724   1.113   5.743  -0.441  0.0878  0.9500  1.2376
  868MOL0     H19725   1.247   6.028  -0.459  1.1684  0.7380 -1.9111
  868MOL0     H19726   1.213   5.922  -0.580  0.4209  0.9349  1.2090
  868MOL0     H19727   1.451   5.898  -0.569  0.2902  1.0187  0.4384
  868MOL0     H19728   1.456   5.882  -0.399  2.4584  0.2037 -1.9338
  868MOL0     H19729   1.338   5.681  -0.584  0.3979  0.1537  0.6095
  868MOL0     H19730   1.339   5.656  -0.417 -0.5627 -1.7245 -1.7166
  868MOL0     H19731   1.605   5.696  -0.431  0.9839 -4.3573  1.3833
  868MOL0     H19732   1.532   5.553  -0.484  0.5621  0.2575  0.2851
  868MOL0     H19733   1.751   5.808  -0.609 -0.0764 -0.8571  1.1366
  868MOL0     H19734   1.939   5.766  -0.784  1.6250 -0.5333  0.4604
  868MOL0     H19735   1.850   5.806  -0.928  0.7131  2.2011  2.1045
  868MOL0     H19736   1.936   5.516  -0.883 -0.3145 -2.7917 -2.8935
  868MOL0     H19737   1.843   5.590  -1.015 -0.0180  1.2471  0.5796
  868MOL0     H19738   2.039   5.728  -1.077  1.3441 -0.7324 -1.5222
  868MOL0     H19739   2.127   5.687  -0.929  3.3613 -3.8233 -0.2184
  868MOL0     H19740   2.145   5.450  -0.998  0.4736 -1.7685 -2.7336
  868MOL0     H19741   2.092   5.487  -1.154  3.3980 -0.1741 -1.0582
  868MOL0     H19742   2.296   5.313  -1.081  0.3865 -0.4218 -0.6761
  868MOL0     H19743   2.404   5.100  -1.280  1.3368  1.9410 -1.2153
  868MOL0     H19744   2.404   5.092  -1.096 -3.4808 -2.5302 -1.9315
  868MOL0     H19745   2.549   5.085  -1.187  0.7531  1.5457 -0.7585
  868MOL0     H19746   2.748   5.264  -1.674 -0.0226  2.7258  1.7794
  868MOL0     H19747   2.940   5.128  -1.807 -0.4633 -0.8837  0.2170
  868MOL0     H19748   3.074   4.864  -1.568 -1.7355 -0.1400  0.3071
  868MOL0     H19749   3.088   4.799  -1.734 -0.0801 -1.0443  1.2446
  868MOL0     H19750   3.315   4.914  -1.591 -0.9946 -0.6798  2.0266
  868MOL0     H19751   3.287   4.735  -1.585 -1.6519  0.1284  1.7320
  868MOL0     H19752   3.450   4.815  -1.751 -0.1417 -1.7443 -0.6157
  868MOL0     H19753   3.322   4.893  -1.845 -3.6367 -0.0232  1.6330
  868MOL0     H19754   3.223   4.658  -1.891 -0.9323  3.0663  1.2274
  868MOL0     H19755   3.348   4.594  -1.779  1.0300  0.9984  0.1862
  868MOL0     H19756   3.397   4.712  -2.035 -0.0141 -1.6658 -1.2660
  868MOL0     H19757   3.529   4.683  -1.922 -1.1241  1.3331  3.2969
  868MOL0     H19758   3.330   4.454  -1.983  0.1182  0.8074 -0.7397
  868MOL0     H19759   3.495   4.439  -1.927 -0.5498 -3.3023 -1.6178
  868MOL0     H19760   3.589   4.545  -2.137 -0.2575  0.0584  0.6610
  868MOL0     H19761   3.439   4.560  -2.204 -1.1376  0.8713  0.1895
  868MOL0     H19762   3.386   4.314  -2.184  1.3033 -1.6969 -2.2576
  868MOL0     H19763   3.550   4.297  -2.100  1.1219  1.6025  0.7162
  868MOL0     H19764   3.160   5.104  -1.445 -2.1103 -3.0386  0.6820
  868MOL0     H19765   3.011   5.231  -1.332  0.2049 -0.3324  0.1596
  868MOL0     H19766   2.629   5.522  -1.376  0.1807 -1.4046  0.0912
  868MOL0     H19767   2.459   5.666  -1.270  1.1219 -0.1342  1.7169
  868MOL0     H19768   0.754   5.757   0.161  2.9408  0.7005 -0.5808
  868MOL0     H19769   0.649   5.933   0.345 -2.0394 -1.9968  0.0454
  868MOL0     H19770   0.184   6.261   0.300 -0.1100 -0.1603  1.2152
  868MOL0     H19771   0.061   6.410   0.450 -0.9270 -0.5466  1.0142
  868MOL0     H19772   0.069   6.630   0.764 -1.2985 -0.1024  1.0025
  868MOL0     H19773  -0.002   6.531   0.619  3.1809  2.5932 -4.6171
  868MOL0     H19774   0.192   6.451   0.840  0.1724  0.3035 -0.4110
  868MOL0     H19775   0.128   6.335   0.721 -0.2049 -0.5781  1.0687
  868MOL0     H19776  -0.041   6.489   0.909 -1.6483 -0.4052 -1.8729
  868MOL0     H19777  -0.103   6.347   0.818 -0.1833  1.7159 -2.2797
  868MOL0     H19778   0.125   6.309   1.020  1.1290  0.2666 -1.5345
  868MOL0     H19779   0.005   6.192   0.953 -0.7750 -0.4834  2.5236
  868MOL0     H19780  -0.125   6.346   1.316  0.5980  0.9657  0.2216
  868MOL0     H19781   0.429   6.604   0.555 -1.3795  0.7683  0.7427
  868MOL0     H19782   0.671   6.372   0.372  0.0458  0.3772 -2.9781
  868MOL0     H19783   0.631   6.543   0.347 -1.3611 -0.9475 -0.9315
  868MOL0     H19784   0.658   6.488   0.508 -0.4726  0.9344  0.3962
  869MOL0     O19785   8.753  11.395   3.415  0.3997 -0.3563  0.0227
  869MOL0     C19786   8.783  11.451   3.305  1.0852  0.5230  0.2199
  869MOL0     O19787   8.857  11.565   3.291  0.0021  0.5815  0.6403
  869MOL0     C19788   8.907  11.638   3.401 -0.2206  0.4125 -0.5165
  869MOL0     C19789   8.946  11.575   3.521  0.4922  0.8481 -0.6480
  869MOL0     C19790   8.988  11.656   3.625  0.5062  0.1044 -0.0883
  869MOL0     C19791   8.994  11.795   3.610  0.2061 -1.4381 -0.1891
  869MOL0     O19792   9.039  11.863   3.720  0.2084  0.1292  0.3065
  869MOL0     C19793   9.046  12.006   3.714 -0.2159  0.8598 -0.7958
  869MOL0     C19794   9.074  12.056   3.856 -1.0749 -0.3620 -0.5565
  869MOL0     C19795   9.219  12.020   3.906  0.5480  0.5585 -0.9113
  869MOL0     C19796   9.233  12.099   4.036 -0.5416  0.8272  0.8975
  869MOL0     C19797   9.370  12.073   4.100  0.3655  1.0972 -0.1484
  869MOL0     C19798   9.366  12.124   4.243  1.1071 -1.0242 -0.1033
  869MOL0     C19799   9.503  12.105   4.302  0.3130 -0.4892  0.4981
  869MOL0     C19800   9.505  12.170   4.448 -0.0032  0.1952 -0.4820
  869MOL0     N19801   9.506  12.318   4.449  0.3423  0.4094 -0.6528
  869MOL0     C19802   9.574  12.403   4.365 -0.0317  0.8426 -0.0832
  869MOL0     C19803   9.504  12.516   4.378 -0.5823  0.5224 -0.6220
  869MOL0     C19804   9.520  12.635   4.286  0.5403 -0.0626  0.6911
  869MOL0     C19805   9.411  12.621   4.172 -0.6307  0.1842  0.2724
  869MOL0     C19806   9.275  12.698   4.209 -0.1018 -0.3061  0.0548
  869MOL0     C19807   9.299  12.848   4.260  0.4842 -0.0627  1.0835
  869MOL0     O19808   9.176  12.923   4.260 -0.7029  0.2908  0.0891
  869MOL0     C19809   9.121  12.951   4.386 -0.2874 -0.7674 -0.4223
  869MOL0     C19810   9.086  12.871   4.486  0.5121  0.7078 -0.1214
  869MOL0     C19811   9.030  12.920   4.614 -0.6496 -0.5754 -0.0920
  869MOL0     C19812   8.974  12.812   4.707  0.5462  0.7127 -1.1939
  869MOL0     C19813   9.014  13.063   4.634 -0.2330 -0.6805 -0.1162
  869MOL0     C19814   8.962  13.128   4.753 -0.3031  0.6018  0.2643
  869MOL0     O19815   8.948  13.265   4.744  0.5254 -0.4488  0.1489
  869MOL0     C19816   8.857  13.324   4.830 -0.1960 -0.9931  0.7240
  869MOL0     C19817   8.729  13.352   4.782  0.9604 -0.0754 -0.3399
  869MOL0     C19818   8.637  13.420   4.871 -0.5182  0.8512 -0.3448
  869MOL0     C19819   8.662  13.454   4.998  0.6624  0.6826  0.2315
  869MOL0     O19820   8.564  13.528   5.072 -1.0826 -0.1053  0.5086
  869MOL0     C19821   8.580  13.551   5.217 -0.1518 -0.9343 -0.1688
  869MOL0     C19822   8.519  13.678   5.265  0.0994  0.3756 -0.5096
  869MOL0     C19823   8.442  13.656   5.393 -0.0112 -0.3764  0.1381
  869MOL0     C19824   8.533  13.629   5.519  0.9302 -0.3484 -0.1909
  869MOL0     C19825   8.458  13.647   5.651 -0.8152  0.4536 -0.0745
  869MOL0     C19826   8.561  13.650   5.775 -0.0678  0.2570  0.4156
  869MOL0     C19827   8.484  13.661   5.909 -0.5312 -0.0453  0.7114
  869MOL0     C19828   8.567  13.658   6.032  0.7010  0.1281 -0.4746
  869MOL0    Cl19829   8.681  13.800   6.021 -0.2722  0.1881  0.2098
  869MOL0     C19830   8.791  13.426   5.043  0.2170 -0.6965  0.0298
  869MOL0     C19831   8.886  13.359   4.960 -0.1544 -0.7033 -0.9040
  869MOL0     O19832   8.945  13.061   4.855 -0.4547 -0.0268  0.0486
  869MOL0     C19833   9.069  13.138   4.539 -0.0228 -0.0696  0.1501
  869MOL0     C19834   9.113  13.088   4.418  0.1865  0.4297 -0.0334
  869MOL0     N19835   9.403  12.508   4.465 -0.3866 -0.4213  0.2440
  869MOL0     N19836   9.397  12.390   4.503 -0.4833  0.1510 -0.1433
  869MOL0     C19837   8.949  11.853   3.493 -0.1239  0.4019 -0.3239
  869MOL0     C19838   8.913  11.773   3.389 -0.1821  0.2545 -0.1743
  869MOL0     C19839   8.727  11.392   3.182  0.3356 -0.5610  0.6450
  869MOL0     C19840   8.753  11.461   3.059 -0.0086 -0.8445 -0.9275
  869MOL0     C19841   8.710  11.416   2.932  0.6502 -0.5922  0.5811
  869MOL0     C19842   8.641  11.305   2.922  0.3753 -0.7736  0.2529
  869MOL0     O19843   8.588  11.247   2.814 -0.1769 -0.0862  0.6390
  869MOL0     C19844   8.605  11.313   2.690 -1.0463  0.2346 -0.3526
  869MOL0     C19845   8.523  11.238   2.589  0.5921  0.8454 -0.4713
  869MOL0     C19846   8.376  11.196   2.629  0.5518  0.6870  0.5789
  869MOL0     C19847   8.293  11.164   2.505  0.5294 -0.4089 -0.4896
  869MOL0     C19848   8.324  11.033   2.441 -0.7506 -0.0157 -0.2936
  869MOL0     C19849   8.345  10.918   2.411  0.3372 -0.0106  0.6047
  869MOL0     C19850   8.628  11.226   3.033  0.3225  0.1467  0.1348
  869MOL0     C19851   8.663  11.269   3.158  0.0072  0.2455 -0.7245
  869MOL0     C19852   8.626  11.176   3.278  0.2989 -0.2543 -0.6706
  869MOL0     H19853   8.938  11.467   3.533  0.0114  0.9109 -0.3445
  869MOL0     H19854   9.021  11.601   3.713  1.1819  1.3177  0.4381
  869MOL0     H19855   8.952  12.044   3.675 -0.8823  3.0645  2.5377
  869MOL0     H19856   9.120  12.039   3.640  1.0774  0.0141  0.0690
  869MOL0     H19857   9.042  12.161   3.856  1.6018  0.5324  0.4795
  869MOL0     H19858   9.004  11.996   3.914  1.8569 -3.0985  0.4420
  869MOL0     H19859   9.221  11.912   3.924  0.1370  1.0391  2.9022
  869MOL0     H19860   9.291  12.044   3.828 -0.3024 -0.3227 -2.0014
  869MOL0     H19861   9.239  12.205   4.008  1.5020 -0.1015 -2.7319
  869MOL0     H19862   9.149  12.083   4.104 -1.5541  0.9508 -0.3146
  869MOL0     H19863   9.456  12.111   4.045  1.1097 -0.9642 -0.4929
  869MOL0     H19864   9.385  11.965   4.091  1.3864  1.1610  0.6323
  869MOL0     H19865   9.348  12.231   4.233  2.8236 -0.8114 -1.2804
  869MOL0     H19866   9.279  12.084   4.297 -0.2845 -1.1230 -2.2595
  869MOL0     H19867   9.584  12.123   4.231  0.1179 -1.1280  0.1045
  869MOL0     H19868   9.520  11.997   4.307 -0.4994 -0.7726 -1.6526
  869MOL0     H19869   9.433  12.123   4.516  0.1097  1.5816  0.6468
  869MOL0     H19870   9.601  12.139   4.488  1.6479  3.2287 -1.7826
  869MOL0     H19871   9.647  12.378   4.289 -1.0465  0.1941 -0.8847
  869MOL0     H19872   9.612  12.638   4.226 -0.7934  1.5588 -1.3966
  869MOL0     H19873   9.513  12.730   4.339  2.5226  0.2925  0.3852
  869MOL0     H19874   9.446  12.659   4.076  1.9194 -3.6720 -0.5115
  869MOL0     H19875   9.387  12.516   4.157 -0.6468  0.5356 -2.6038
  869MOL0     H19876   9.207  12.689   4.124 -1.0026  1.4077  0.5474
  869MOL0     H19877   9.221  12.632   4.278 -1.7924  0.3894 -0.5470
  869MOL0     H19878   9.337  12.834   4.362  0.0993 -0.9354  1.1184
  869MOL0     H19879   9.373  12.901   4.200 -0.2706 -1.7501 -1.5483
  869MOL0     H19880   9.094  12.763   4.476 -4.6358  0.1242 -0.5606
  869MOL0     H19881   8.866  12.802   4.696  0.3433  0.9685  0.2647
  869MOL0     H19882   9.000  12.839   4.810 -3.2312  3.7412 -0.8027
  869MOL0     H19883   9.013  12.711   4.693 -0.3769  0.0142  0.8003
  869MOL0     H19884   8.692  13.324   4.684  2.2240  1.1003 -1.1720
  869MOL0     H19885   8.548  13.453   4.819 -0.7188 -0.6707 -1.0302
  869MOL0     H19886   8.538  13.466   5.272 -0.0492 -0.7833  0.1452
  869MOL0     H19887   8.684  13.556   5.250 -0.8217  2.0873  1.9435
  869MOL0     H19888   8.605  13.743   5.279 -0.3798  0.5394  2.1795
  869MOL0     H19889   8.451  13.724   5.192 -1.3024 -1.4943 -0.4532
  869MOL0     H19890   8.381  13.565   5.389  4.0064 -3.4163  1.0017
  869MOL0     H19891   8.376  13.739   5.417  0.7515  1.0171 -2.1663
  869MOL0     H19892   8.619  13.697   5.523  0.2680  0.4552  2.9978
  869MOL0     H19893   8.583  13.531   5.514 -0.9501 -1.3206 -0.7346
  869MOL0     H19894   8.389  13.732   5.650 -1.8718 -0.3778 -1.0191
  869MOL0     H19895   8.383  13.568   5.656  0.1627 -0.4712  0.3353
  869MOL0     H19896   8.621  13.740   5.761  2.8793 -1.2719  2.0784
  869MOL0     H19897   8.603  13.549   5.776 -0.2333  0.1618 -1.0325
  869MOL0     H19898   8.407  13.583   5.916  0.0651 -0.6695  0.4378
  869MOL0     H19899   8.429  13.755   5.905  1.0941  0.8840 -2.3769
  869MOL0     H19900   8.631  13.570   6.043 -1.0261 -1.1652 -0.5789
  869MOL0     H19901   8.502  13.664   6.119  0.4281 -0.9295 -0.5940
  869MOL0     H19902   8.810  13.448   5.148 -5.4703 -2.3037  1.7818
  869MOL0     H19903   8.984  13.341   5.002 -1.0061 -0.1846  1.4523
  869MOL0     H19904   9.075  13.246   4.555 -1.2904  0.1405 -0.6776
  869MOL0     H19905   9.134  13.160   4.339 -2.5245  2.9447  1.3674
  869MOL0     H19906   8.949  11.960   3.476 -0.8411  0.3591 -0.6055
  869MOL0     H19907   8.888  11.833   3.301 -0.9347  2.3026  1.3549
  869MOL0     H19908   8.820  11.546   3.063  1.7313 -2.1279 -1.1848
  869MOL0     H19909   8.739  11.463   2.838 -2.0219 -2.2284 -1.1658
  869MOL0     H19910   8.583  11.420   2.694 -0.6761  0.2754  1.2403
  869MOL0     H19911   8.710  11.307   2.663 -1.2038 -0.1781 -0.8991
  869MOL0     H19912   8.567  11.144   2.554 -0.6167  0.6484 -1.4984
  869MOL0     H19913   8.524  11.296   2.497 -1.9644  0.3229 -0.9070
  869MOL0     H19914   8.375  11.109   2.695 -0.3810 -0.2824 -0.6669
  869MOL0     H19915   8.318  11.282   2.663  1.2185  2.0877 -1.5584
  869MOL0     H19916   8.305  11.247   2.435 -0.8151  0.2109 -0.0238
  869MOL0     H19917   8.187  11.163   2.535  0.9555 -0.3436  1.1532
  869MOL0     H19918   8.366  10.815   2.393 -2.9530 -0.4941 -1.0135
  869MOL0     H19919   8.571  11.135   3.015 -0.8288  1.2616 -2.2646
  869MOL0     H19920   8.554  11.098   3.252 -1.3431  0.8563  0.2796
  869MOL0     H19921   8.716  11.131   3.321  2.0818  2.0160 -1.8125
  869MOL0     H19922   8.575  11.234   3.356  1.9232 -0.2181  0.4061
  870MOL0     O19923   4.455   4.692   2.697 -0.6685 -0.4870 -0.3923
  870MOL0     C19924   4.407   4.629   2.603  0.0725 -0.1451 -0.1253
  870MOL0     O19925   4.316   4.672   2.513 -0.2899  0.3771  0.8670
  870MOL0     C19926   4.307   4.798   2.458  0.8481  0.4723 -0.0005
  870MOL0     C19927   4.392   4.906   2.491  0.2701  0.1356  0.2606
  870MOL0     C19928   4.389   5.024   2.430  0.9911 -0.3173 -0.1523
  870MOL0     C19929   4.288   5.055   2.335 -1.4520  0.5002 -0.2057
  870MOL0     O19930   4.305   5.175   2.254  0.0579  0.8161 -0.4300
  870MOL0     C19931   4.186   5.235   2.210  0.0050  0.1935  0.8971
  870MOL0     C19932   4.149   5.343   2.312  0.6768 -0.4889 -0.7142
  870MOL0     C19933   4.247   5.464   2.299  0.7126  0.2594  0.1481
  870MOL0     C19934   4.264   5.562   2.416 -0.4278  0.4120  0.3582
  870MOL0     C19935   4.136   5.626   2.481  0.2309  0.8742  0.1986
  870MOL0     C19936   4.185   5.731   2.575 -0.4259  0.0427 -0.6770
  870MOL0     C19937   4.057   5.793   2.638 -0.0709  0.6794 -0.3267
  870MOL0     C19938   3.993   5.900   2.546 -0.1050  0.2021 -0.0944
  870MOL0     N19939   4.091   6.011   2.533 -0.1448 -0.3589  0.6379
  870MOL0     C19940   4.078   6.113   2.624 -0.0454  0.4595  0.9025
  870MOL0     C19941   4.145   6.209   2.569 -0.6908 -0.3361  1.0204
  870MOL0     C19942   4.150   6.352   2.625  0.1363  0.3422 -0.0877
  870MOL0     C19943   4.220   6.353   2.762 -0.5066 -1.8142 -0.0630
  870MOL0     C19944   4.270   6.501   2.786 -0.3222 -0.0467  0.1797
  870MOL0     C19945   4.404   6.512   2.718 -0.0418 -0.0856 -0.0984
  870MOL0     O19946   4.401   6.566   2.581 -0.5807  0.6994 -0.9175
  870MOL0     C19947   4.369   6.696   2.560  0.5780  0.7491 -0.3731
  870MOL0     C19948   4.377   6.727   2.429 -0.3765  0.0964 -0.0322
  870MOL0     C19949   4.350   6.857   2.386  0.2820 -0.0636  0.3139
  870MOL0     C19950   4.339   6.880   2.239  0.9052  0.2024  0.1013
  870MOL0     C19951   4.318   6.960   2.476 -0.1892 -0.7727 -0.2393
  870MOL0     C19952   4.327   7.100   2.449  0.2127 -0.1578  0.8206
  870MOL0     O19953   4.221   7.180   2.480  0.4151  0.2893  0.5214
  870MOL0     C19954   4.215   7.304   2.410 -0.1482  0.3142  0.2032
  870MOL0     C19955   4.243   7.423   2.474 -0.9214  0.6749  0.4901
  870MOL0     C19956   4.237   7.541   2.405  0.4100  0.3383 -0.7106
  870MOL0     C19957   4.200   7.552   2.267  0.9857 -0.2563 -0.7883
  870MOL0     O19958   4.189   7.671   2.192 -0.0727  0.1530 -0.0038
  870MOL0     C19959   4.231   7.796   2.263 -0.4627  0.0650 -0.2394
  870MOL0     C19960   4.267   7.903   2.157  0.0180 -0.5151  0.3223
  870MOL0     C19961   4.228   8.039   2.195  0.6692 -0.6875  0.0166
  870MOL0     C19962   4.308   8.098   2.319  0.8301  0.1792 -0.3259
  870MOL0     C19963   4.256   8.227   2.360  1.1580 -0.2286  0.2915
  870MOL0     C19964   4.336   8.341   2.279 -0.2829  0.5861 -0.6856
  870MOL0     C19965   4.272   8.474   2.307 -0.4437 -0.4973 -0.1335
  870MOL0     C19966   4.345   8.595   2.244  0.1995  0.3756 -0.1703
  870MOL0    Cl19967   4.345   8.598   2.065 -0.6433 -0.0097  0.0217
  870MOL0     C19968   4.153   7.430   2.210 -0.0497  0.4631 -0.3841
  870MOL0     C19969   4.160   7.309   2.275 -0.7712 -0.2247 -0.5977
  870MOL0     O19970   4.426   7.138   2.390  0.1674  0.3380 -0.3073
  870MOL0     C19971   4.324   6.927   2.608 -0.0877 -0.0916 -0.1446
  870MOL0     C19972   4.345   6.796   2.657 -0.2442 -0.4748 -0.1677
  870MOL0     N19973   4.197   6.170   2.446  0.3282 -0.0998 -0.4520
  870MOL0     N19974   4.157   6.051   2.420  0.7503 -0.0690  0.1856
  870MOL0     C19975   4.202   4.952   2.299  0.2647 -0.1607 -0.7538
  870MOL0     C19976   4.200   4.826   2.362 -0.8558 -0.3752  0.3158
  870MOL0     C19977   4.454   4.486   2.592 -0.1906 -1.8382  1.1816
  870MOL0     C19978   4.419   4.420   2.480  0.2959 -0.2115  0.1185
  870MOL0     C19979   4.454   4.282   2.468  0.0658 -0.2604  0.2602
  870MOL0     C19980   4.514   4.206   2.570  0.1050 -0.4640 -0.0330
  870MOL0     O19981   4.539   4.069   2.553  0.9081 -0.2540 -0.5365
  870MOL0     C19982   4.580   4.025   2.424  0.7457 -0.0325 -0.9451
  870MOL0     C19983   4.648   3.890   2.438  0.4129  0.5434  0.7144
  870MOL0     C19984   4.640   3.809   2.317  0.0263 -0.3232  0.5352
  870MOL0     C19985   4.691   3.666   2.336  0.2439 -0.6046 -0.6311
  870MOL0     C19986   4.706   3.593   2.207 -0.3619 -0.3233 -0.9856
  870MOL0     C19987   4.725   3.525   2.110  0.0040 -0.1590 -0.0095
  870MOL0     C19988   4.545   4.277   2.691  0.0688  0.8247  1.0757
  870MOL0     C19989   4.529   4.411   2.696 -0.8793 -0.9433 -0.7720
  870MOL0     C19990   4.590   4.479   2.822 -0.4680 -0.2277  1.0496
  870MOL0     H19991   4.479   4.884   2.553  0.0625  0.1441  0.5586
  870MOL0     H19992   4.460   5.105   2.446  0.7514 -0.3406  1.1091
  870MOL0     H19993   4.107   5.162   2.189 -2.1952  2.9664 -1.3348
  870MOL0     H19994   4.206   5.290   2.117 -1.8053  2.0045  1.4937
  870MOL0     H19995   4.054   5.395   2.302  2.5497  3.9140  1.8035
  870MOL0     H19996   4.169   5.309   2.414  1.4544 -0.5727 -0.8901
  870MOL0     H19997   4.349   5.427   2.283  1.6499  2.2481  1.0751
  870MOL0     H19998   4.214   5.511   2.206  0.5169 -0.8585 -0.3678
  870MOL0     H19999   4.322   5.510   2.493 -2.1427 -3.4093 -0.6965
  870MOL0     H20000   4.321   5.642   2.369  0.6962  0.0420  1.0495
  870MOL0     H20001   4.081   5.550   2.536 -1.2537  0.3506 -1.9171
  870MOL0     H20002   4.073   5.670   2.403  0.8893 -0.3155 -1.0367
  870MOL0     H20003   4.239   5.670   2.649  1.5738  0.5522 -1.6501
  870MOL0     H20004   4.249   5.812   2.541  1.8763 -0.6589  1.6326
  870MOL0     H20005   4.094   5.840   2.730  1.2428  0.3572 -0.6740
  870MOL0     H20006   3.994   5.706   2.660 -1.0126  1.6576  1.0550
  870MOL0     H20007   3.974   5.854   2.449  0.2572 -0.5629  0.1911
  870MOL0     H20008   3.897   5.927   2.591 -0.3959  2.0357 -1.6640
  870MOL0     H20009   4.026   6.091   2.717 -1.6395 -3.7398 -0.7508
  870MOL0     H20010   4.048   6.389   2.630 -0.1630 -0.2037 -1.6219
  870MOL0     H20011   4.201   6.420   2.556 -1.4339  0.7923 -0.8336
  870MOL0     H20012   4.146   6.326   2.838  0.3274  1.1238  1.9944
  870MOL0     H20013   4.289   6.270   2.776  0.2444 -1.4400 -1.3372
  870MOL0     H20014   4.194   6.566   2.742 -1.8339  0.2518  3.0034
  870MOL0     H20015   4.280   6.514   2.894  0.1393 -1.4819  0.3306
  870MOL0     H20016   4.469   6.576   2.778 -1.0529 -1.0622  2.1390
  870MOL0     H20017   4.447   6.412   2.718 -0.0997 -0.1885  2.9259
  870MOL0     H20018   4.402   6.639   2.371 -0.1801  0.7872 -1.0153
  870MOL0     H20019   4.239   6.914   2.210  1.3675  0.7603 -0.9120
  870MOL0     H20020   4.355   6.788   2.182  1.0787  1.5543 -2.1798
  870MOL0     H20021   4.408   6.952   2.194 -1.3898  0.3596 -3.6345
  870MOL0     H20022   4.272   7.423   2.579 -0.2921  3.0862  0.3737
  870MOL0     H20023   4.272   7.629   2.459 -0.2068  1.6836 -2.4389
  870MOL0     H20024   4.149   7.833   2.325  0.5523  0.8201  0.6599
  870MOL0     H20025   4.318   7.777   2.326 -0.2113 -0.0267 -0.6099
  870MOL0     H20026   4.374   7.911   2.141 -0.2525  0.2761 -1.2743
  870MOL0     H20027   4.219   7.885   2.060 -1.7455 -1.5122  1.3164
  870MOL0     H20028   4.122   8.038   2.223  0.7649  2.1681  0.8052
  870MOL0     H20029   4.230   8.098   2.103 -2.8820  0.5927  0.6046
  870MOL0     H20030   4.414   8.100   2.291  0.7018  0.8987 -0.8116
  870MOL0     H20031   4.293   8.030   2.404  1.6008 -1.6566 -1.6014
  870MOL0     H20032   4.147   8.231   2.363  0.9135 -3.6895  2.6218
  870MOL0     H20033   4.276   8.247   2.466 -2.9711 -1.9886  1.6310
  870MOL0     H20034   4.331   8.307   2.175 -1.5559 -1.6150  0.0377
  870MOL0     H20035   4.443   8.330   2.300 -0.3982  1.2282  0.2922
  870MOL0     H20036   4.279   8.492   2.414  1.2495 -2.6582  0.1984
  870MOL0     H20037   4.171   8.480   2.265  0.3696  0.5696 -2.0856
  870MOL0     H20038   4.445   8.589   2.287 -0.2045  0.1259  0.7721
  870MOL0     H20039   4.301   8.690   2.275 -1.0652  0.6294 -2.5499
  870MOL0     H20040   4.106   7.425   2.112 -1.7098  3.1193  0.1958
  870MOL0     H20041   4.130   7.213   2.233  1.0551 -0.7701 -0.7473
  870MOL0     H20042   4.304   7.002   2.684 -0.4101  0.1402 -0.4602
  870MOL0     H20043   4.358   6.785   2.764 -0.2295  1.8985  0.1194
  870MOL0     H20044   4.134   4.962   2.215  0.7472 -2.1153 -1.4359
  870MOL0     H20045   4.124   4.751   2.343 -1.4160  0.9073 -3.1427
  870MOL0     H20046   4.354   4.466   2.407  0.4211 -1.9908 -1.1979
  870MOL0     H20047   4.403   4.239   2.382 -1.1897  2.5023 -0.5285
  870MOL0     H20048   4.492   4.016   2.359  0.6080 -3.4942 -0.4638
  870MOL0     H20049   4.658   4.087   2.379  0.1317 -0.1742 -2.2569
  870MOL0     H20050   4.611   3.833   2.523  1.2798 -0.1187  0.6640
  870MOL0     H20051   4.752   3.917   2.458  0.6694  0.3885 -0.3426
  870MOL0     H20052   4.535   3.794   2.290 -0.1913  1.0372  0.5391
  870MOL0     H20053   4.679   3.851   2.224 -0.4823  1.8459  1.2354
  870MOL0     H20054   4.628   3.611   2.407 -0.2947 -0.0325 -0.6607
  870MOL0     H20055   4.789   3.668   2.384  0.1743  1.4387 -0.4925
  870MOL0     H20056   4.765   3.466   2.030 -1.0017 -0.6545 -0.1551
  870MOL0     H20057   4.602   4.229   2.770  0.8871  0.7471  0.4515
  870MOL0     H20058   4.631   4.399   2.885 -1.8241 -2.2288 -0.5078
  870MOL0     H20059   4.675   4.546   2.803 -0.7387 -0.0300  0.5378
  870MOL0     H20060   4.516   4.526   2.888 -2.7410  0.0973 -1.5802
  871MOL0     O20061   2.172   3.420   1.220  0.0729 -0.1489 -0.2910
  871MOL0     C20062   2.216   3.387   1.328 -0.8398 -1.3136  0.5532
  871MOL0     O20063   2.171   3.427   1.448  0.1270 -0.4025  0.2161
  871MOL0     C20064   2.072   3.523   1.464  0.1042 -0.4203  0.5019
  871MOL0     C20065   1.997   3.528   1.577 -0.3040 -0.0715 -0.0712
  871MOL0     C20066   1.918   3.630   1.619 -0.8452  0.2159  1.4307
  871MOL0     C20067   1.900   3.739   1.530 -0.0402  1.0724  0.2498
  871MOL0     O20068   1.810   3.840   1.543 -0.7118  0.0241 -0.0361
  871MOL0     C20069   1.694   3.814   1.629 -1.0174  0.7822  0.6111
  871MOL0     C20070   1.576   3.908   1.616  0.0719  0.8554  0.2373
  871MOL0     C20071   1.586   4.051   1.661 -0.0435 -0.2465 -0.2775
  871MOL0     C20072   1.627   4.149   1.549 -0.3864 -0.4224 -0.3599
  871MOL0     C20073   1.565   4.285   1.573 -1.3659  0.3246 -0.5585
  871MOL0     C20074   1.627   4.385   1.471 -0.0779 -0.6988 -0.6706
  871MOL0     C20075   1.533   4.482   1.417  0.6670 -0.2296 -1.1870
  871MOL0     C20076   1.457   4.410   1.302  0.1958  0.8597 -0.4101
  871MOL0     N20077   1.342   4.488   1.254  0.3905 -0.4697 -0.0410
  871MOL0     C20078   1.267   4.596   1.309 -0.1987  0.6906 -0.8500
  871MOL0     C20079   1.181   4.632   1.209  0.1273  0.2702  0.0108
  871MOL0     C20080   1.094   4.754   1.239  0.5567  1.4840  0.0007
  871MOL0     C20081   1.008   4.762   1.115 -0.1359 -0.5530 -0.3842
  871MOL0     C20082   0.894   4.854   1.163  0.0992 -0.8274  0.1468
  871MOL0     C20083   0.789   4.895   1.057  0.6356  0.2554 -0.3517
  871MOL0     O20084   0.718   4.776   1.021 -0.0145  0.4522 -0.3376
  871MOL0     C20085   0.657   4.759   0.898  0.5545  0.2253 -0.2102
  871MOL0     C20086   0.663   4.840   0.788  1.3695  0.1282 -1.2801
  871MOL0     C20087   0.625   4.797   0.660  0.8248 -0.3612  0.6796
  871MOL0     C20088   0.667   4.885   0.545  0.6033  1.2139 -0.2233
  871MOL0     C20089   0.545   4.677   0.647  0.7704  0.1803  0.7270
  871MOL0     C20090   0.492   4.619   0.516 -0.3947  0.0850 -0.8083
  871MOL0     O20091   0.483   4.483   0.494  0.1302  1.1248  0.1112
  871MOL0     C20092   0.431   4.443   0.374 -0.7287  0.5462  0.1176
  871MOL0     C20093   0.523   4.440   0.265 -0.4908  0.3175  0.9666
  871MOL0     C20094   0.490   4.376   0.147 -0.3626 -0.8124  0.0436
  871MOL0     C20095   0.372   4.315   0.127  1.0709 -0.4253 -0.2947
  871MOL0     O20096   0.349   4.276  -0.004 -0.4518  0.4082 -0.2621
  871MOL0     C20097   0.227   4.278  -0.065 -0.3608  0.1896  0.4004
  871MOL0     C20098   0.194   4.130  -0.078 -0.8456  0.0473 -0.1597
  871MOL0     C20099   0.078   4.117  -0.172  0.2806  0.2240  0.3945
  871MOL0     C20100   0.072   3.977  -0.235  0.8106 -0.3896 -0.0466
  871MOL0     C20101   0.181   3.960  -0.338 -0.0423 -0.8207 -0.3605
  871MOL0     C20102   0.196   3.818  -0.374 -0.0358 -0.7210 -0.1522
  871MOL0     C20103   0.304   3.777  -0.476  0.5004 -0.3746  0.5137
  871MOL0     C20104   0.268   3.633  -0.508 -0.6982 -0.2093  0.0172
  871MOL0    Cl20105   0.124   3.651  -0.615 -0.0198  0.5255  0.3468
  871MOL0     C20106   0.277   4.311   0.238 -0.3112 -0.2743 -0.1535
  871MOL0     C20107   0.308   4.373   0.363  0.4098 -0.2093 -0.6746
  871MOL0     O20108   0.468   4.707   0.432  0.3909  0.1031 -0.2717
  871MOL0     C20109   0.536   4.592   0.758  0.4704 -0.2412 -0.1077
  871MOL0     C20110   0.588   4.635   0.885 -0.1789 -0.4140  0.1664
  871MOL0     N20111   1.204   4.552   1.096  0.2235 -0.3255 -0.5206
  871MOL0     N20112   1.296   4.462   1.121 -0.6121 -0.0794 -0.4452
  871MOL0     C20113   1.965   3.738   1.406 -0.2846 -0.2499  0.0025
  871MOL0     C20114   2.064   3.633   1.379  0.7591 -1.2455 -0.8485
  871MOL0     C20115   2.314   3.284   1.316  0.5444  0.2543 -0.6907
  871MOL0     C20116   2.292   3.168   1.401  0.4465  0.4046  0.8149
  871MOL0     C20117   2.381   3.053   1.386 -0.7270  0.7857  0.3828
  871MOL0     C20118   2.486   3.058   1.293 -0.8172  0.1743 -0.2249
  871MOL0     O20119   2.577   2.950   1.284 -0.0591 -0.4300 -0.1518
  871MOL0     C20120   2.515   2.836   1.219  0.1844 -0.4258 -0.0067
  871MOL0     C20121   2.632   2.775   1.142 -0.2705 -0.2065 -0.2744
  871MOL0     C20122   2.721   2.680   1.231  0.6830  0.3447 -0.2653
  871MOL0     C20123   2.658   2.536   1.257  0.2861 -0.7958  0.3875
  871MOL0     C20124   2.605   2.534   1.384  0.1822  0.2227  0.1897
  871MOL0     C20125   2.548   2.510   1.488  0.0711  0.4115 -0.4648
  871MOL0     C20126   2.504   3.175   1.216 -0.5025  0.0023  0.2443
  871MOL0     C20127   2.425   3.294   1.238  0.7848  0.6342  0.2015
  871MOL0     C20128   2.455   3.400   1.134  0.6950  0.7607 -0.3753
  871MOL0     H20129   2.040   3.455   1.646 -0.5235  0.2088  0.3681
  871MOL0     H20130   1.890   3.634   1.724 -0.0081  0.5597  1.6518
  871MOL0     H20131   1.728   3.830   1.731 -1.4911 -0.2549  0.9435
  871MOL0     H20132   1.683   3.706   1.619  2.8295  0.3681 -0.8053
  871MOL0     H20133   1.549   3.892   1.511  1.7478 -1.5343  0.0809
  871MOL0     H20134   1.491   3.859   1.665  0.6169 -2.6733 -1.9333
  871MOL0     H20135   1.488   4.073   1.704  1.1152  0.2627  2.3335
  871MOL0     H20136   1.660   4.064   1.741  3.3839 -0.7460 -3.0974
  871MOL0     H20137   1.736   4.151   1.539 -0.1831  1.2532  1.5772
  871MOL0     H20138   1.577   4.121   1.456  2.9926  0.7685 -2.7351
  871MOL0     H20139   1.597   4.325   1.670  0.2947 -0.1876 -0.8673
  871MOL0     H20140   1.457   4.269   1.566 -1.4150  0.2360  0.2991
  871MOL0     H20141   1.702   4.439   1.529 -1.5023 -0.4288  0.9912
  871MOL0     H20142   1.691   4.338   1.396  1.1891 -1.9352  1.1015
  871MOL0     H20143   1.598   4.566   1.389 -0.0882  1.1276  0.8705
  871MOL0     H20144   1.464   4.522   1.493 -0.2226 -1.0351 -1.5535
  871MOL0     H20145   1.521   4.396   1.214  1.9413  0.6190  0.8394
  871MOL0     H20146   1.429   4.308   1.331 -0.2342  0.7311 -1.2556
  871MOL0     H20147   1.269   4.641   1.407  1.0320  1.4903 -1.2177
  871MOL0     H20148   1.169   4.834   1.238  0.0710  2.0114  2.2076
  871MOL0     H20149   1.025   4.738   1.322 -0.3355 -1.3687 -1.1594
  871MOL0     H20150   1.062   4.800   1.028  1.3704  0.4800  0.9488
  871MOL0     H20151   0.967   4.665   1.085  2.2957 -2.2074  1.2995
  871MOL0     H20152   0.843   4.809   1.248  2.3298 -2.0417  0.9252
  871MOL0     H20153   0.949   4.940   1.205 -0.0573 -0.0752 -1.1300
  871MOL0     H20154   0.726   4.966   1.110  1.2238  1.1681 -0.8465
  871MOL0     H20155   0.852   4.939   0.979  1.6312 -1.2640 -0.4503
  871MOL0     H20156   0.706   4.940   0.791  1.3227  0.2573 -3.3764
  871MOL0     H20157   0.700   4.835   0.453 -3.2185 -1.6668 -0.2568
  871MOL0     H20158   0.734   4.966   0.577  2.9989 -0.5874 -0.3701
  871MOL0     H20159   0.571   4.923   0.510  0.1840 -1.9218 -3.0064
  871MOL0     H20160   0.621   4.482   0.283 -0.8202  0.5116  2.4844
  871MOL0     H20161   0.566   4.374   0.069 -0.9115 -3.3304 -0.5213
  871MOL0     H20162   0.151   4.326  -0.001 -0.8913  0.8947 -0.7266
  871MOL0     H20163   0.234   4.324  -0.164 -0.6336 -1.3233 -0.3553
  871MOL0     H20164   0.270   4.057  -0.106  0.3362  0.6469  1.3591
  871MOL0     H20165   0.153   4.107   0.021 -2.9783  3.2193 -0.1530
  871MOL0     H20166   0.079   4.194  -0.250 -0.6274 -0.0274  0.1133
  871MOL0     H20167  -0.008   4.146  -0.110 -2.0042  2.2626 -3.3621
  871MOL0     H20168  -0.025   3.967  -0.284  1.0146  1.4938 -0.9607
  871MOL0     H20169   0.068   3.900  -0.158  0.5740  2.4824  3.0668
  871MOL0     H20170   0.166   4.021  -0.427  0.7469 -3.3523 -2.3695
  871MOL0     H20171   0.277   3.999  -0.302  0.6875 -2.1177 -0.8334
  871MOL0     H20172   0.100   3.791  -0.419  0.7965 -0.0298 -2.4748
  871MOL0     H20173   0.199   3.758  -0.283 -2.3102 -0.5524  0.0977
  871MOL0     H20174   0.403   3.807  -0.442  0.8134  2.2433 -2.3105
  871MOL0     H20175   0.277   3.833  -0.566 -1.9799 -0.0501  1.3694
  871MOL0     H20176   0.244   3.577  -0.418  1.4288 -2.9334 -0.9641
  871MOL0     H20177   0.345   3.575  -0.561 -2.0319 -3.5329  1.4445
  871MOL0     H20178   0.181   4.259   0.239  1.6056 -4.2099 -0.6797
  871MOL0     H20179   0.230   4.370   0.438  3.0940  0.9594  2.3961
  871MOL0     H20180   0.485   4.497   0.748  0.2267 -0.1639  0.3930
  871MOL0     H20181   0.583   4.580   0.978  0.4071 -0.6825  0.0460
  871MOL0     H20182   1.951   3.818   1.333  2.2092  0.8629  0.6544
  871MOL0     H20183   2.116   3.653   1.286  0.6581  2.8080 -0.2081
  871MOL0     H20184   2.210   3.164   1.471  0.2647  2.5805  0.7736
  871MOL0     H20185   2.375   2.976   1.462 -0.5350  1.4679  1.1151
  871MOL0     H20186   2.477   2.766   1.294 -0.4304  0.3838  0.4531
  871MOL0     H20187   2.446   2.859   1.137  1.4416  0.8039 -0.7828
  871MOL0     H20188   2.703   2.852   1.111 -1.3869  1.5656  1.3876
  871MOL0     H20189   2.605   2.707   1.060 -0.8886 -0.5649  0.2160
  871MOL0     H20190   2.821   2.676   1.187  0.8003 -1.4380  0.0987
  871MOL0     H20191   2.743   2.731   1.325  0.2761  1.2609 -0.6479
  871MOL0     H20192   2.739   2.463   1.246  0.8370 -0.0646 -0.6144
  871MOL0     H20193   2.586   2.509   1.179  0.5114 -5.2308  1.4804
  871MOL0     H20194   2.513   2.481   1.585  2.4036 -1.1594 -0.0098
  871MOL0     H20195   2.587   3.179   1.146 -0.5682 -0.5110  0.1338
  871MOL0     H20196   2.438   3.355   1.035  2.0936 -2.9071  0.8918
  871MOL0     H20197   2.401   3.495   1.143  3.0159  2.2032 -0.9320
  871MOL0     H20198   2.560   3.424   1.150  1.1634 -1.0418 -0.5285
  872MOL0     O20199   3.417   3.150   8.502 -0.8966  0.0337 -0.1263
  872MOL0     C20200   3.535   3.172   8.506 -0.3417 -0.2688 -0.7095
  872MOL0     O20201   3.591   3.289   8.546  0.4622 -0.3469 -0.3504
  872MOL0     C20202   3.511   3.403   8.551 -0.2851  0.7078 -0.0144
  872MOL0     C20203   3.406   3.422   8.456  0.6078 -0.0637  0.2344
  872MOL0     C20204   3.334   3.546   8.462  0.9080  0.2447 -1.0555
  872MOL0     C20205   3.367   3.645   8.550 -0.3937  0.1338  0.0921
  872MOL0     O20206   3.292   3.756   8.532 -0.3934 -0.2272 -1.2047
  872MOL0     C20207   3.214   3.782   8.658 -0.4625 -0.2751  1.1448
  872MOL0     C20208   3.159   3.924   8.640  0.8522 -0.5414 -0.0570
  872MOL0     C20209   3.037   3.936   8.549  1.0167 -0.3370 -0.2012
  872MOL0     C20210   3.011   4.076   8.499  0.2703 -0.0381  0.5772
  872MOL0     C20211   2.879   4.081   8.414  0.8255  0.1175 -0.2947
  872MOL0     C20212   2.855   4.216   8.362  0.6569 -0.2889  0.5977
  872MOL0     C20213   2.978   4.278   8.288  0.0548  0.9405  0.4574
  872MOL0     C20214   2.948   4.403   8.191 -0.0199  0.4736 -0.4338
  872MOL0     N20215   2.905   4.512   8.275  0.6344 -0.1113  0.0678
  872MOL0     C20216   2.978   4.620   8.328 -0.2738 -0.4680 -0.1691
  872MOL0     C20217   2.891   4.693   8.405 -0.1143  0.7878 -0.9115
  872MOL0     C20218   2.924   4.820   8.466  0.1405 -1.0570 -0.6486
  872MOL0     C20219   2.857   4.936   8.401  0.7591  0.0017  0.0130
  872MOL0     C20220   2.920   5.066   8.441  1.5095 -0.9912  0.1505
  872MOL0     C20221   2.859   5.177   8.351  0.3873 -0.4517 -0.3780
  872MOL0     O20222   2.915   5.308   8.346  0.3792  0.2083 -0.1303
  872MOL0     C20223   2.886   5.378   8.452 -0.1528  0.1763 -0.4116
  872MOL0     C20224   2.769   5.453   8.482 -0.4964 -0.1930 -0.1136
  872MOL0     C20225   2.739   5.508   8.605 -0.1129 -0.2938  1.2123
  872MOL0     C20226   2.605   5.581   8.612 -0.3088 -1.0562 -0.0388
  872MOL0     C20227   2.832   5.489   8.718  0.7208  0.5398  0.0566
  872MOL0     C20228   2.797   5.526   8.856  0.8479 -0.4797 -0.3434
  872MOL0     O20229   2.801   5.416   8.949 -0.3868 -0.1116  0.3368
  872MOL0     C20230   2.774   5.445   9.082 -0.5547 -0.5715 -0.4557
  872MOL0     C20231   2.653   5.496   9.124  1.0898  0.1330 -0.2467
  872MOL0     C20232   2.630   5.539   9.250  1.2991  0.2419 -0.0591
  872MOL0     C20233   2.739   5.530   9.343 -0.4719 -0.2834  0.3933
  872MOL0     O20234   2.725   5.577   9.466 -0.0630 -0.3226 -0.2550
  872MOL0     C20235   2.752   5.475   9.570 -0.5129 -0.0686 -0.1722
  872MOL0     C20236   2.758   5.564   9.699  0.9614  0.1975 -0.2127
  872MOL0     C20237   2.633   5.639   9.737  0.5992  0.5441  0.0833
  872MOL0     C20238   2.521   5.554   9.791 -0.3982  0.3305  0.2188
  872MOL0     C20239   2.409   5.626   9.879 -0.4274  0.2500 -0.3934
  872MOL0     C20240   2.301   5.530   9.933  0.7796 -0.5124 -0.3849
  872MOL0     C20241   2.201   5.607  10.028  0.3083 -1.0271  0.2520
  872MOL0     C20242   2.084   5.520  10.071  0.2377  0.5594  0.1977
  872MOL0    Cl20243   2.145   5.384  10.169  0.6648  0.0397  0.4191
  872MOL0     C20244   2.858   5.479   9.298 -0.6726 -0.5616  0.0957
  872MOL0     C20245   2.874   5.433   9.172 -1.2060 -0.5224  0.0620
  872MOL0     O20246   2.769   5.646   8.879 -0.2436  0.0457  0.8065
  872MOL0     C20247   2.953   5.419   8.684  0.3950  1.2702  0.9604
  872MOL0     C20248   2.980   5.371   8.553 -0.5603  0.7158  0.8828
  872MOL0     N20249   2.769   4.635   8.403  0.2333  0.4336 -0.1043
  872MOL0     N20250   2.778   4.528   8.325  0.7129 -0.6818  0.2304
  872MOL0     C20251   3.479   3.634   8.633  0.1007  0.0025 -0.2339
  872MOL0     C20252   3.549   3.514   8.632 -1.0803  0.2840  0.1036
  872MOL0     C20253   3.633   3.062   8.483  0.5142 -0.0059  0.3741
  872MOL0     C20254   3.606   2.930   8.533  0.3816  0.4499 -0.0162
  872MOL0     C20255   3.693   2.824   8.505 -0.0983 -0.0576  0.2267
  872MOL0     C20256   3.802   2.844   8.423  0.2811 -0.0552 -0.3561
  872MOL0     O20257   3.889   2.738   8.410 -0.2638  0.1157 -0.5258
  872MOL0     C20258   3.998   2.754   8.494  1.0806 -0.9920 -0.4439
  872MOL0     C20259   3.970   2.716   8.650  0.2832 -0.2319  0.9052
  872MOL0     C20260   3.985   2.567   8.665  0.1319  0.5115 -0.8170
  872MOL0     C20261   3.899   2.510   8.775 -0.0251 -0.2151  0.1048
  872MOL0     C20262   3.933   2.368   8.774  0.4092 -0.0653  0.8681
  872MOL0     C20263   3.950   2.244   8.750  0.1455 -1.9616 -0.1838
  872MOL0     C20264   3.831   2.970   8.364  0.4031  0.4264  0.3131
  872MOL0     C20265   3.744   3.073   8.388  0.0807  0.8826 -0.2847
  872MOL0     C20266   3.772   3.193   8.309  1.0532 -0.7457 -0.4166
  872MOL0     H20267   3.367   3.342   8.394  1.4801  0.5787 -1.1867
  872MOL0     H20268   3.243   3.566   8.407 -0.5800  0.7292  1.4560
  872MOL0     H20269   3.261   3.782   8.757 -1.0297  3.7921  1.5791
  872MOL0     H20270   3.135   3.707   8.654 -0.7427  0.0812 -1.8336
  872MOL0     H20271   3.128   3.968   8.735 -3.0182 -1.6589 -0.6262
  872MOL0     H20272   3.250   3.979   8.615 -0.1303  0.1089 -2.3975
  872MOL0     H20273   3.059   3.871   8.463 -0.8203  0.1386 -1.0840
  872MOL0     H20274   2.949   3.913   8.609  1.1311  4.6342  2.4167
  872MOL0     H20275   3.009   4.147   8.582 -0.6271  1.2758 -0.5105
  872MOL0     H20276   3.088   4.105   8.426  1.0790 -1.0669  0.9921
  872MOL0     H20277   2.792   4.043   8.468 -0.0965  1.1795 -0.9817
  872MOL0     H20278   2.882   4.002   8.338 -1.8027 -2.3808  1.9357
  872MOL0     H20279   2.772   4.208   8.291 -0.3329  1.6776  1.4421
  872MOL0     H20280   2.830   4.278   8.449  1.0493 -1.4817  1.5841
  872MOL0     H20281   3.023   4.206   8.219 -0.0467 -0.4821  1.8177
  872MOL0     H20282   3.048   4.310   8.366 -1.2924  0.8581  1.7517
  872MOL0     H20283   3.045   4.429   8.146  1.2740  0.0388  1.9445
  872MOL0     H20284   2.871   4.374   8.119  1.7965  0.1590 -2.3346
  872MOL0     H20285   3.078   4.657   8.313 -1.0588  1.8703 -0.0668
  872MOL0     H20286   3.032   4.832   8.474 -0.1168  0.3076  1.4137
  872MOL0     H20287   2.886   4.813   8.568  0.7422 -4.1675 -0.5449
  872MOL0     H20288   2.877   4.926   8.294  3.4708  1.3045  0.2960
  872MOL0     H20289   2.751   4.934   8.425  0.8735  0.5567  0.5808
  872MOL0     H20290   2.899   5.091   8.545 -1.0660 -2.8797  0.1769
  872MOL0     H20291   3.029   5.064   8.427  1.7134 -2.1510  1.7504
  872MOL0     H20292   2.866   5.137   8.250  2.4068 -0.5614 -0.2287
  872MOL0     H20293   2.754   5.172   8.382  0.7575 -1.1193  0.8080
  872MOL0     H20294   2.697   5.460   8.401  2.1884 -3.0366 -3.0380
  872MOL0     H20295   2.624   5.688   8.629  0.5613 -1.2202  0.0692
  872MOL0     H20296   2.555   5.550   8.704  0.4048  1.6823  1.3957
  872MOL0     H20297   2.543   5.569   8.523 -1.7809 -1.7362  1.0378
  872MOL0     H20298   2.575   5.511   9.050  0.5093 -2.6741 -0.3282
  872MOL0     H20299   2.540   5.585   9.289 -0.5735 -1.7756 -1.7264
  872MOL0     H20300   2.672   5.401   9.578 -1.0367  0.2535 -1.9761
  872MOL0     H20301   2.853   5.432   9.574 -0.3693  0.3512  1.0597
  872MOL0     H20302   2.788   5.512   9.790 -2.2904  2.3013  2.3126
  872MOL0     H20303   2.833   5.638   9.671  1.0395 -0.2030 -1.0839
  872MOL0     H20304   2.590   5.686   9.648  2.2819 -1.4257 -1.9103
  872MOL0     H20305   2.658   5.719   9.807 -0.2019 -0.6241  1.7686
  872MOL0     H20306   2.561   5.475   9.856  1.6160  1.3769  0.3249
  872MOL0     H20307   2.473   5.492   9.716 -2.0419  0.7311  0.8867
  872MOL0     H20308   2.444   5.678   9.969  0.7672 -0.6414 -0.3152
  872MOL0     H20309   2.356   5.699   9.817 -0.4011  1.5506  1.0283
  872MOL0     H20310   2.354   5.460   9.998  0.7161 -1.4867 -1.3423
  872MOL0     H20311   2.259   5.473   9.849 -1.6890 -0.3440  0.6502
  872MOL0     H20312   2.166   5.699   9.981 -0.1258 -0.7287  1.1442
  872MOL0     H20313   2.255   5.641  10.117 -1.8561 -2.2650  2.1402
  872MOL0     H20314   2.019   5.501   9.985  1.6554  2.2776 -1.3485
  872MOL0     H20315   2.020   5.580  10.136  0.4949  0.4066  0.5935
  872MOL0     H20316   2.941   5.487   9.367  2.3307  0.7416 -3.3343
  872MOL0     H20317   2.973   5.402   9.141 -0.0852  1.1365  1.7958
  872MOL0     H20318   3.019   5.398   8.768 -1.1896 -0.1089  1.9249
  872MOL0     H20319   3.064   5.303   8.554 -0.3277  0.9657  3.2837
  872MOL0     H20320   3.509   3.718   8.695 -0.4008  0.1204 -0.1428
  872MOL0     H20321   3.640   3.499   8.690 -1.2699  0.2973  0.4008
  872MOL0     H20322   3.514   2.923   8.589 -0.4144  0.2761 -1.3123
  872MOL0     H20323   3.663   2.731   8.554  3.2550 -1.3301  0.0943
  872MOL0     H20324   4.082   2.691   8.462  1.4756 -1.6998  1.7688
  872MOL0     H20325   4.017   2.861   8.484  0.9108 -1.1124 -2.4527
  872MOL0     H20326   3.886   2.749   8.711  2.8957  0.8379  4.2241
  872MOL0     H20327   4.043   2.763   8.717 -0.7097 -0.0744  1.9111
  872MOL0     H20328   3.951   2.524   8.570  1.8049  1.8905 -2.1061
  872MOL0     H20329   4.092   2.549   8.679  0.0587  0.3251 -0.4972
  872MOL0     H20330   3.795   2.522   8.744  1.2289  1.1871 -4.4237
  872MOL0     H20331   3.928   2.560   8.868  0.5071  0.8030 -0.5910
  872MOL0     H20332   3.958   2.143   8.717 -0.4868 -2.4108  0.9843
  872MOL0     H20333   3.913   2.975   8.294  2.3548 -2.5625  2.1001
  872MOL0     H20334   3.846   3.183   8.229 -1.4048 -0.2305 -2.9202
  872MOL0     H20335   3.682   3.211   8.249  0.0868  1.4303  1.5254
  872MOL0     H20336   3.793   3.281   8.371  2.9678  0.2768 -2.3839
  873MOL0     O20337   3.140   9.121   4.292  0.2945 -0.0485  0.1604
  873MOL0     C20338   3.049   9.147   4.210  0.1046 -1.1601 -1.3270
  873MOL0     O20339   2.916   9.127   4.228 -0.3580  0.7020 -0.4228
  873MOL0     C20340   2.871   9.149   4.357 -0.4386  0.5142 -0.6817
  873MOL0     C20341   2.752   9.088   4.385 -0.4191 -0.9847 -1.3660
  873MOL0     C20342   2.698   9.079   4.514  0.3692 -0.2041  0.0475
  873MOL0     C20343   2.759   9.146   4.616  0.0250 -0.4554  0.1900
  873MOL0     O20344   2.701   9.149   4.747  0.2507 -0.5207 -0.2447
  873MOL0     C20345   2.734   9.263   4.831  0.5107 -0.1567 -0.1085
  873MOL0     C20346   2.648   9.272   4.960 -0.3489 -0.2597 -0.1861
  873MOL0     C20347   2.645   9.148   5.035  1.0077  0.3765 -0.5190
  873MOL0     C20348   2.731   9.168   5.169  0.3221 -0.5810  0.5659
  873MOL0     C20349   2.718   9.060   5.264 -1.0150  1.0784 -0.2657
  873MOL0     C20350   2.763   8.927   5.213 -1.0640  0.5236 -0.3483
  873MOL0     C20351   2.773   8.825   5.326 -0.1880 -0.6353 -0.0660
  873MOL0     C20352   2.631   8.778   5.376  0.0114 -0.4324 -0.1030
  873MOL0     N20353   2.659   8.669   5.462  0.3632  0.5499 -0.4149
  873MOL0     C20354   2.651   8.532   5.428 -1.3377  0.5297 -0.5897
  873MOL0     C20355   2.729   8.461   5.516  1.1249  0.7336 -0.1959
  873MOL0     C20356   2.767   8.321   5.503  0.6050 -0.5439 -0.1657
  873MOL0     C20357   2.934   8.307   5.491  0.4972  0.1750 -0.2200
  873MOL0     C20358   2.964   8.335   5.353  0.5388 -0.4628  0.2036
  873MOL0     C20359   3.115   8.325   5.322  0.3369 -0.0430 -0.9305
  873MOL0     O20360   3.196   8.393   5.429 -0.2261  0.2181 -0.1408
  873MOL0     C20361   3.231   8.521   5.415  0.4769  0.6930 -0.6664
  873MOL0     C20362   3.315   8.586   5.509 -1.1033 -0.1433 -0.3530
  873MOL0     C20363   3.364   8.717   5.492 -0.1102  0.6851  1.0823
  873MOL0     C20364   3.482   8.749   5.590  0.5692  0.4742  0.5298
  873MOL0     C20365   3.313   8.795   5.386  0.9003 -1.3352  0.1657
  873MOL0     C20366   3.327   8.945   5.391 -0.2741 -0.1088  0.8674
  873MOL0     O20367   3.233   9.013   5.318  0.0096 -0.5197  0.1903
  873MOL0     C20368   3.204   9.152   5.341 -0.0541 -0.8182 -0.2977
  873MOL0     C20369   3.102   9.209   5.268 -0.5756  0.9532 -0.4048
  873MOL0     C20370   3.048   9.339   5.296  0.0295 -1.1887 -0.3264
  873MOL0     C20371   3.098   9.418   5.405 -0.3054  0.7531  0.9334
  873MOL0     O20372   3.048   9.544   5.431  0.2076  0.0956 -0.1669
  873MOL0     C20373   3.124   9.630   5.517 -0.2340  0.3891 -0.0775
  873MOL0     C20374   3.053   9.763   5.544 -0.1366  0.4780  0.4070
  873MOL0     C20375   3.005   9.838   5.411 -0.3700  0.3347 -0.4186
  873MOL0     C20376   2.904   9.943   5.454 -0.8052 -0.1888  0.2607
  873MOL0     C20377   2.823   9.993   5.335  0.2333 -0.1239  1.1994
  873MOL0     C20378   2.741  10.118   5.362  0.3138  0.0588  0.0758
  873MOL0     C20379   2.659  10.147   5.237  0.5231 -0.5888 -0.7019
  873MOL0     C20380   2.572  10.272   5.256 -0.0969 -0.0771  0.3415
  873MOL0    Cl20381   2.673  10.411   5.192  0.4568 -0.3205 -0.0145
  873MOL0     C20382   3.214   9.363   5.471  0.5116  0.3076  0.7604
  873MOL0     C20383   3.253   9.231   5.448  1.1334 -0.2733  0.5954
  873MOL0     O20384   3.429   8.997   5.437  0.2304  0.3624 -0.5477
  873MOL0     C20385   3.228   8.736   5.292  0.4497 -0.3493  0.5956
  873MOL0     C20386   3.191   8.599   5.301 -0.2451  0.0504 -1.3861
  873MOL0     N20387   2.777   8.554   5.604 -0.7745 -0.2198 -0.3037
  873MOL0     N20388   2.735   8.677   5.576 -0.5689  0.2504 -0.2774
  873MOL0     C20389   2.866   9.228   4.575  0.1528 -0.9296 -1.1384
  873MOL0     C20390   2.925   9.225   4.451 -0.1386 -0.5045 -0.1137
  873MOL0     C20391   3.095   9.173   4.067 -0.5648  0.4198  0.0977
  873MOL0     C20392   3.001   9.178   3.962 -1.2521 -0.8269  0.9031
  873MOL0     C20393   3.032   9.170   3.828 -0.9173 -0.6070  0.0539
  873MOL0     C20394   3.164   9.179   3.790 -0.2465  1.3580 -0.2287
  873MOL0     O20395   3.209   9.157   3.665  0.1678 -0.3224 -0.6259
  873MOL0     C20396   3.118   9.121   3.551 -0.0257 -0.3626  0.2091
  873MOL0     C20397   3.113   9.225   3.442  0.0828  0.0195 -0.3589
  873MOL0     C20398   3.018   9.187   3.332  0.6922  0.1131 -1.1583
  873MOL0     C20399   3.014   9.291   3.225 -0.3203 -0.3441  0.3441
  873MOL0     C20400   2.919   9.262   3.108 -0.6107 -1.4725  0.8186
  873MOL0     C20401   2.854   9.246   3.017 -0.4715  0.0955 -0.0947
  873MOL0     C20402   3.261   9.203   3.888 -0.1763  0.2786  0.7413
  873MOL0     C20403   3.228   9.198   4.027 -0.2593  0.2667 -0.8021
  873MOL0     C20404   3.345   9.221   4.115  0.1114  0.2436 -0.2991
  873MOL0     H20405   2.707   9.019   4.314  1.5456 -2.8657 -0.8845
  873MOL0     H20406   2.608   9.022   4.533 -0.5861  0.8448 -1.0783
  873MOL0     H20407   2.727   9.355   4.772 -0.0564  1.4782  2.3675
  873MOL0     H20408   2.840   9.271   4.859  0.6513  4.4603 -1.0842
  873MOL0     H20409   2.682   9.357   5.020 -0.1928 -2.6998  3.5015
  873MOL0     H20410   2.545   9.291   4.928 -0.3730  1.7862  0.9359
  873MOL0     H20411   2.539   9.130   5.055  0.5743  0.5213 -2.5037
  873MOL0     H20412   2.703   9.068   4.987  4.0328  0.6656  2.2748
  873MOL0     H20413   2.837   9.167   5.143  0.2550 -2.0167  0.2367
  873MOL0     H20414   2.690   9.257   5.217 -1.6416 -1.5077  0.6994
  873MOL0     H20415   2.612   9.045   5.282 -0.9181 -3.8228 -2.4151
  873MOL0     H20416   2.776   9.086   5.354 -0.4360  0.8584 -0.5667
  873MOL0     H20417   2.693   8.892   5.136  1.2881 -2.1269 -1.4383
  873MOL0     H20418   2.860   8.920   5.164  0.7437 -3.1199  3.2237
  873MOL0     H20419   2.838   8.864   5.405  1.0749  2.4058 -2.4095
  873MOL0     H20420   2.811   8.734   5.279 -0.2235 -0.0610 -1.2526
  873MOL0     H20421   2.572   8.857   5.423  1.4487 -0.4947  1.9522
  873MOL0     H20422   2.567   8.753   5.291  3.0862  0.4770 -2.8760
  873MOL0     H20423   2.606   8.500   5.335 -0.3681  0.1500 -0.9387
  873MOL0     H20424   2.721   8.272   5.417 -1.5841 -0.8611  1.1071
  873MOL0     H20425   2.732   8.270   5.593  0.1828  1.9988  1.1927
  873MOL0     H20426   2.992   8.364   5.564  0.4833 -0.2176  0.1020
  873MOL0     H20427   2.954   8.201   5.511  0.6977 -0.3089 -2.6775
  873MOL0     H20428   2.917   8.275   5.276 -2.1203  1.5942  0.0929
  873MOL0     H20429   2.934   8.433   5.316 -1.2385 -0.7471  0.8193
  873MOL0     H20430   3.144   8.221   5.337 -0.4792 -0.2342 -0.6544
  873MOL0     H20431   3.134   8.358   5.219  2.0787  1.6223 -0.1459
  873MOL0     H20432   3.344   8.526   5.595 -0.8097 -0.4353 -0.6548
  873MOL0     H20433   3.521   8.658   5.636  0.6583  0.4262  0.3594
  873MOL0     H20434   3.445   8.805   5.677  1.4124 -2.1157  2.7129
  873MOL0     H20435   3.563   8.809   5.546  0.2566  0.0184 -0.6862
  873MOL0     H20436   3.064   9.144   5.190 -0.1217 -2.0174  1.7028
  873MOL0     H20437   2.959   9.378   5.248 -1.9652 -0.5108  3.6091
  873MOL0     H20438   3.137   9.578   5.612  3.3211 -1.1640 -1.2464
  873MOL0     H20439   3.227   9.646   5.483 -0.2409  0.3518 -0.1151
  873MOL0     H20440   2.965   9.737   5.604 -0.4469  0.0062 -0.2500
  873MOL0     H20441   3.123   9.822   5.604  1.8358 -1.7033  0.3960
  873MOL0     H20442   2.955   9.769   5.342 -1.0037 -0.0752  0.4377
  873MOL0     H20443   3.087   9.891   5.361 -2.9405  1.1048 -4.2890
  873MOL0     H20444   2.951  10.026   5.507  0.5852 -0.7622 -0.0303
  873MOL0     H20445   2.830   9.894   5.517 -1.2548 -1.9943 -1.5576
  873MOL0     H20446   2.888  10.011   5.249  0.7516 -2.4346  1.0441
  873MOL0     H20447   2.755   9.917   5.297  2.3856 -0.8100 -1.6030
  873MOL0     H20448   2.806  10.205   5.373  1.1298 -0.0382 -2.9736
  873MOL0     H20449   2.687  10.101   5.455  0.0537 -1.9939 -0.4025
  873MOL0     H20450   2.601  10.056   5.218 -2.3039  0.8195  0.6068
  873MOL0     H20451   2.722  10.169   5.150 -0.3884  0.1982 -1.1815
  873MOL0     H20452   2.555  10.293   5.362 -1.3910 -1.4437  0.4458
  873MOL0     H20453   2.486  10.273   5.188  1.2894 -2.4134 -1.6169
  873MOL0     H20454   3.253   9.421   5.554  2.4492  2.9274 -1.7693
  873MOL0     H20455   3.327   9.201   5.521  1.9092  2.8781  1.2531
  873MOL0     H20456   3.177   8.800   5.221  0.3729 -2.2073 -1.1242
  873MOL0     H20457   3.119   8.572   5.225 -1.7437 -1.6869  0.5208
  873MOL0     H20458   2.929   9.288   4.640  1.0314 -0.2973 -2.5248
  873MOL0     H20459   3.010   9.293   4.445 -1.5292  1.4081  0.8505
  873MOL0     H20460   2.897   9.184   3.992 -2.1749 -2.4070 -1.6399
  873MOL0     H20461   2.941   9.167   3.769  1.3849  1.7859 -4.1015
  873MOL0     H20462   3.166   9.030   3.512  0.0388  0.7598 -2.5273
  873MOL0     H20463   3.015   9.098   3.582 -1.0155 -1.2590 -3.2699
  873MOL0     H20464   3.211   9.227   3.393  0.8301  0.2232  1.0892
  873MOL0     H20465   3.092   9.322   3.486 -0.8165 -0.7193  0.9111
  873MOL0     H20466   3.026   9.085   3.292 -1.5085 -1.3792  1.7645
  873MOL0     H20467   2.922   9.199   3.382  0.3877  2.9053 -2.2356
  873MOL0     H20468   3.117   9.306   3.191 -1.0055  2.7824 -0.6425
  873MOL0     H20469   2.986   9.389   3.265  1.0570  1.1874 -2.2048
  873MOL0     H20470   2.802   9.240   2.924  1.5349 -0.6670 -1.2532
  873MOL0     H20471   3.365   9.214   3.860  0.0756 -0.8938  1.1449
  873MOL0     H20472   3.313   9.249   4.215  0.9307  0.9560 -0.2255
  873MOL0     H20473   3.422   9.144   4.122  2.1690  2.3885  2.7533
  873MOL0     H20474   3.401   9.309   4.081  0.0504  0.6552  0.6412
  874MOL0     O20475   9.737   6.380   9.605  0.0004 -0.3259 -0.3738
  874MOL0     C20476   9.798   6.396   9.501 -0.3992 -0.1726 -0.4859
  874MOL0     O20477   9.932   6.364   9.491  0.1346 -0.2760 -0.3553
  874MOL0     C20478   9.995   6.290   9.593  0.1256  0.5294 -0.1886
  874MOL0     C20479  10.069   6.357   9.698  0.9704  0.0656  1.1914
  874MOL0     C20480  10.142   6.285   9.797  0.0066  0.3713  0.8101
  874MOL0     C20481  10.139   6.147   9.791 -0.3548  0.8882 -0.2133
  874MOL0     O20482  10.207   6.076   9.885 -0.5751  0.0756  0.0009
  874MOL0     C20483  10.164   6.108  10.021 -0.0473  0.7831 -1.7868
  874MOL0     C20484  10.167   5.981  10.116 -0.2487  0.1770 -0.8106
  874MOL0     C20485  10.307   5.935  10.151 -0.4745  0.1800  0.2168
  874MOL0     C20486  10.307   5.827  10.265  0.4341 -0.0001 -0.2949
  874MOL0     C20487  10.290   5.685  10.224  0.4073  0.5454  0.5221
  874MOL0     C20488  10.420   5.633  10.176  0.1536  0.3909 -0.4084
  874MOL0     C20489  10.409   5.486  10.139  0.6764 -0.8544  0.0454
  874MOL0     C20490  10.542   5.436  10.091  0.1060 -0.6923 -0.3299
  874MOL0     N20491  10.535   5.290  10.055  0.6959 -0.1363 -0.3060
  874MOL0     C20492  10.510   5.245   9.928 -0.7541 -0.6434 -0.2011
  874MOL0     C20493  10.499   5.107   9.959 -0.4250 -0.1802 -0.2108
  874MOL0     C20494  10.485   4.997   9.857  0.6227  0.8454 -0.1233
  874MOL0     C20495  10.621   4.924   9.835 -1.3520 -0.2830  0.3023
  874MOL0     C20496  10.672   4.851   9.959 -0.3839 -0.1615  0.4474
  874MOL0     C20497  10.750   4.730   9.910  0.1375  0.2159 -0.1120
  874MOL0     O20498  10.813   4.664  10.022  0.4081  0.2871 -0.5660
  874MOL0     C20499  10.884   4.541  10.005  0.1274 -0.4991  0.0962
  874MOL0     C20500  10.917   4.480   9.882  0.7155  0.1020  0.4348
  874MOL0     C20501  10.999   4.371   9.865 -0.0343 -0.9266  0.4812
  874MOL0     C20502  11.010   4.309   9.726  0.7536 -0.2526 -0.5985
  874MOL0     C20503  11.061   4.316   9.978 -0.2996  1.3554 -0.4618
  874MOL0     C20504  11.152   4.193   9.979  1.3407  0.3148  0.6571
  874MOL0     O20505  11.200   4.138   9.855 -0.0306 -0.2634 -1.1637
  874MOL0     C20506  11.301   4.046   9.863 -0.5075  1.2839  0.3383
  874MOL0     C20507  11.283   3.946   9.770  1.2721 -0.2208 -0.8301
  874MOL0     C20508  11.379   3.842   9.774 -0.7608  0.7045  0.3002
  874MOL0     C20509  11.508   3.856   9.834 -0.5174 -0.5022  0.2683
  874MOL0     O20510  11.608   3.758   9.814  0.2730 -0.0966  0.0670
  874MOL0     C20511  11.638   3.679   9.929 -0.0129  0.6367  0.3390
  874MOL0     C20512  11.539   3.560   9.939  0.0869 -0.0524  0.2562
  874MOL0     C20513  11.527   3.492   9.803  0.1346 -0.4028 -0.7058
  874MOL0     C20514  11.456   3.357   9.809 -0.6715 -0.0368  0.2656
  874MOL0     C20515  11.420   3.318   9.668 -0.3154 -0.9870 -0.2693
  874MOL0     C20516  11.448   3.173   9.660 -0.9840  0.3114 -0.1540
  874MOL0     C20517  11.377   3.110   9.532 -0.6252  0.2746 -0.4877
  874MOL0     C20518  11.244   3.045   9.573  0.5284 -0.0017 -0.7456
  874MOL0    Cl20519  11.191   2.990   9.416  0.0175 -0.3744 -0.1165
  874MOL0     C20520  11.531   3.971   9.917  0.7097 -0.1082  0.1881
  874MOL0     C20521  11.420   4.061   9.935 -0.5129  0.4795  0.7296
  874MOL0     O20522  11.168   4.140  10.089  0.1996 -0.0512 -0.5385
  874MOL0     C20523  11.034   4.375  10.103 -0.0614 -0.7505 -0.5239
  874MOL0     C20524  10.950   4.484  10.115  0.1742 -0.0980 -0.7031
  874MOL0     N20525  10.508   5.084  10.093 -0.5535 -0.7052  0.0025
  874MOL0     N20526  10.527   5.195  10.146 -0.0186  0.0531 -0.0568
  874MOL0     C20527  10.080   6.074   9.685 -0.2038 -0.4587  0.5744
  874MOL0     C20528  10.007   6.149   9.598 -0.3343 -1.3851  0.2203
  874MOL0     C20529   9.734   6.439   9.379  0.8861  0.4946 -0.1986
  874MOL0     C20530   9.806   6.429   9.255  0.5405 -0.0459  0.2196
  874MOL0     C20531   9.748   6.478   9.130  0.4161 -0.2523  0.1288
  874MOL0     C20532   9.623   6.533   9.135 -0.3358 -0.5889  0.1548
  874MOL0     O20533   9.572   6.591   9.024  0.2802  0.1736  0.0802
  874MOL0     C20534   9.496   6.500   8.941  0.3126 -0.9352 -0.1433
  874MOL0     C20535   9.359   6.452   8.992 -0.2778  0.6258 -0.2129
  874MOL0     C20536   9.270   6.572   9.002  1.2865 -0.0818 -0.5240
  874MOL0     C20537   9.143   6.547   8.908  0.2157  0.2356 -0.0412
  874MOL0     C20538   9.177   6.560   8.765  0.0362 -0.4781 -1.1658
  874MOL0     C20539   9.214   6.547   8.652  0.8491  0.0494  0.6986
  874MOL0     C20540   9.553   6.541   9.256 -1.2074  0.3129 -0.0307
  874MOL0     C20541   9.610   6.510   9.376  0.2893 -0.1690  0.3181
  874MOL0     C20542   9.509   6.533   9.485 -0.8142  0.3929  0.4090
  874MOL0     H20543  10.077   6.465   9.704 -1.3300  0.2984  0.9619
  874MOL0     H20544  10.183   6.326   9.888  2.3616 -1.6108  0.7386
  874MOL0     H20545  10.063   6.149  10.023  0.5492  2.4805  1.7338
  874MOL0     H20546  10.216   6.199  10.054 -2.8260  2.8698 -2.7814
  874MOL0     H20547  10.105   5.998  10.204 -0.6036 -2.5153 -0.4866
  874MOL0     H20548  10.129   5.902  10.051  3.3772 -0.2516 -2.6708
  874MOL0     H20549  10.366   5.906  10.063  2.1698 -2.0633  2.5575
  874MOL0     H20550  10.362   6.020  10.194  1.2592 -1.3058  1.0760
  874MOL0     H20551  10.395   5.834  10.330  1.0763 -2.4786 -0.8203
  874MOL0     H20552  10.221   5.853  10.328  0.4452 -0.4095 -0.1094
  874MOL0     H20553  10.209   5.678  10.150  0.7815  1.0631  0.0582
  874MOL0     H20554  10.261   5.623  10.309  2.8760 -3.5560 -1.3317
  874MOL0     H20555  10.455   5.688  10.088 -2.6330 -3.2674 -4.2394
  874MOL0     H20556  10.496   5.647  10.253 -0.0920 -0.1808 -0.0497
  874MOL0     H20557  10.335   5.478  10.059  3.7356  1.6246 -3.3893
  874MOL0     H20558  10.370   5.433  10.226 -4.5507  0.2384 -1.2905
  874MOL0     H20559  10.566   5.495  10.002  0.0170  0.2016  0.2353
  874MOL0     H20560  10.613   5.466  10.168  0.3191 -0.9499 -0.4211
  874MOL0     H20561  10.507   5.294   9.832  0.4374  1.0645  0.5905
  874MOL0     H20562  10.446   5.035   9.762 -0.7631 -0.7048 -0.2104
  874MOL0     H20563  10.407   4.929   9.894 -1.6514  3.5035  0.2674
  874MOL0     H20564  10.614   4.846   9.759 -0.8707 -0.6888  0.6624
  874MOL0     H20565  10.692   5.000   9.802 -0.4825 -0.3753  1.8366
  874MOL0     H20566  10.745   4.904  10.020 -0.0742 -2.5203  2.2745
  874MOL0     H20567  10.598   4.817  10.032  1.4052 -1.3275  1.8101
  874MOL0     H20568  10.687   4.654   9.863  1.1935  0.9700 -2.8944
  874MOL0     H20569  10.825   4.766   9.839 -1.8147  0.5046 -2.1470
  874MOL0     H20570  10.849   4.509   9.802  1.5863 -0.3248 -0.4665
  874MOL0     H20571  10.943   4.358   9.655  0.2235  0.7739  0.5700
  874MOL0     H20572  10.981   4.203   9.730 -1.3142  0.2198 -1.6122
  874MOL0     H20573  11.115   4.321   9.698 -0.1473  2.0569 -3.4694
  874MOL0     H20574  11.192   3.951   9.712 -0.3691  1.8818  1.6980
  874MOL0     H20575  11.370   3.766   9.697 -0.4017 -1.1146  1.9568
  874MOL0     H20576  11.735   3.629   9.924  0.2817  1.2998 -0.6569
  874MOL0     H20577  11.634   3.740  10.020  0.6696  2.7807 -1.0165
  874MOL0     H20578  11.570   3.481  10.008 -3.4117  0.3594  2.5536
  874MOL0     H20579  11.440   3.591   9.974 -0.5060 -1.3829 -0.1480
  874MOL0     H20580  11.622   3.495   9.749 -1.5396  2.7008 -3.9315
  874MOL0     H20581  11.463   3.562   9.748  1.1898 -0.6000 -2.2125
  874MOL0     H20582  11.360   3.373   9.858 -0.8614 -1.9032  0.5635
  874MOL0     H20583  11.523   3.283   9.853 -0.7279  2.1290  4.4051
  874MOL0     H20584  11.316   3.350   9.673 -0.2846 -0.9514  0.1565
  874MOL0     H20585  11.477   3.370   9.589 -3.5127  2.7085 -0.4585
  874MOL0     H20586  11.408   3.123   9.749 -1.0642  0.4863 -0.0902
  874MOL0     H20587  11.555   3.154   9.673 -1.3523 -2.2640 -0.5634
  874MOL0     H20588  11.455   3.045   9.492 -1.7489 -2.3434  1.3108
  874MOL0     H20589  11.349   3.190   9.462  0.3698  0.9371 -0.1486
  874MOL0     H20590  11.184   3.121   9.624 -0.8386 -0.5800 -1.4637
  874MOL0     H20591  11.244   2.956   9.638  1.6023 -1.6666 -2.8783
  874MOL0     H20592  11.626   3.988   9.966  0.4865  1.4375  0.1254
  874MOL0     H20593  11.438   4.150   9.995 -0.2394  1.3915 -0.6374
  874MOL0     H20594  11.077   4.327  10.191 -1.9906 -0.0516  0.8608
  874MOL0     H20595  10.914   4.512  10.214  0.6928 -2.2032  0.1562
  874MOL0     H20596  10.090   5.966   9.691  0.4147 -0.4828 -0.6278
  874MOL0     H20597   9.936   6.106   9.527 -1.7514  0.5278  0.3950
  874MOL0     H20598   9.896   6.371   9.237  0.8116  0.5243 -0.3029
  874MOL0     H20599   9.790   6.451   9.033  1.2096 -1.4373  0.7789
  874MOL0     H20600   9.489   6.540   8.840  1.3490  0.0262  0.1418
  874MOL0     H20601   9.547   6.404   8.927  2.6874 -0.0673  1.6945
  874MOL0     H20602   9.380   6.410   9.090  0.6399  0.0120 -0.6529
  874MOL0     H20603   9.317   6.366   8.938  0.7475  0.0197 -0.0692
  874MOL0     H20604   9.240   6.580   9.107  1.8263 -1.4812 -0.2343
  874MOL0     H20605   9.327   6.660   8.971  2.9594 -1.1493 -0.6425
  874MOL0     H20606   9.061   6.609   8.944 -1.0282 -1.5020  0.2163
  874MOL0     H20607   9.113   6.445   8.935 -1.6772  0.6927 -0.3334
  874MOL0     H20608   9.264   6.530   8.559  1.9493 -0.8543  1.4320
  874MOL0     H20609   9.452   6.577   9.243 -1.4184 -0.8497 -2.0541
  874MOL0     H20610   9.425   6.600   9.465 -0.2303  1.3130  0.9634
  874MOL0     H20611   9.478   6.433   9.517  3.5239 -1.7300 -1.2075
  874MOL0     H20612   9.554   6.583   9.571 -2.2782  1.5744  0.5317
  875MOL0     O20613   6.809   9.661   4.198 -0.3589  0.0198 -0.0262
  875MOL0     C20614   6.733   9.720   4.277  0.8615  0.0798  0.3577
  875MOL0     O20615   6.640   9.659   4.358  0.6711  0.1938  0.2976
  875MOL0     C20616   6.625   9.518   4.369 -0.1773 -0.4456 -0.6690
  875MOL0     C20617   6.503   9.470   4.424 -0.5167 -0.0400 -0.4144
  875MOL0     C20618   6.466   9.328   4.440  0.3800 -0.3927  0.6962
  875MOL0     C20619   6.571   9.241   4.417 -0.0190 -0.3165  0.4204
  875MOL0     O20620   6.543   9.107   4.453 -0.2676  0.2742 -0.1827
  875MOL0     C20621   6.627   9.000   4.411  0.7087  0.2931  0.7197
  875MOL0     C20622   6.547   8.872   4.449 -0.4824 -0.8495  0.2247
  875MOL0     C20623   6.622   8.745   4.436 -0.6314  0.2292  0.1988
  875MOL0     C20624   6.541   8.617   4.448  0.5341 -0.1443  0.1456
  875MOL0     C20625   6.484   8.604   4.586  0.2126 -0.0473  0.1228
  875MOL0     C20626   6.342   8.537   4.595 -1.4554  0.6028 -0.0025
  875MOL0     C20627   6.233   8.632   4.527 -0.7395 -0.1388 -0.3527
  875MOL0     C20628   6.102   8.568   4.520 -0.4499  0.1074  0.6522
  875MOL0     N20629   6.004   8.646   4.445  0.6833 -0.4478 -1.5526
  875MOL0     C20630   5.886   8.704   4.501 -1.2803 -0.4382 -0.0672
  875MOL0     C20631   5.868   8.815   4.423  0.9852 -0.3281 -0.2572
  875MOL0     C20632   5.754   8.900   4.438  0.4555 -0.6869 -0.5089
  875MOL0     C20633   5.657   8.899   4.308 -0.4906  1.3771 -0.9662
  875MOL0     C20634   5.591   8.766   4.291  0.5557  0.1450 -0.7684
  875MOL0     C20635   5.440   8.774   4.260  0.3347  0.4221  0.1502
  875MOL0     O20636   5.425   8.812   4.120 -0.2643  0.6932 -0.2178
  875MOL0     C20637   5.305   8.776   4.069  0.3885  0.1728 -0.5603
  875MOL0     C20638   5.190   8.859   4.083  0.0114 -0.2354  0.3362
  875MOL0     C20639   5.067   8.827   4.027 -0.0920  0.9121 -0.4609
  875MOL0     C20640   4.952   8.913   4.045 -0.7649  0.5707 -0.7284
  875MOL0     C20641   5.061   8.699   3.948 -0.4148  1.3053 -1.0093
  875MOL0     C20642   4.941   8.642   3.889  0.0602 -0.6390 -0.3142
  875MOL0     O20643   4.942   8.552   3.791 -0.2657  0.7116 -0.7718
  875MOL0     C20644   4.830   8.502   3.734  0.2930  0.3172 -0.4018
  875MOL0     C20645   4.735   8.575   3.667 -0.1983 -0.0157  0.4758
  875MOL0     C20646   4.617   8.529   3.600  0.2734  0.9758  0.0791
  875MOL0     C20647   4.607   8.390   3.571 -0.7498 -0.9980 -0.2000
  875MOL0     O20648   4.501   8.325   3.508 -0.3961 -0.7642 -0.7378
  875MOL0     C20649   4.408   8.396   3.430  0.5736 -0.1789  0.5568
  875MOL0     C20650   4.294   8.304   3.374 -0.6650 -0.7048 -0.0876
  875MOL0     C20651   4.218   8.233   3.487 -0.7466 -0.1942  0.5411
  875MOL0     C20652   4.133   8.117   3.433  0.2954 -0.2071  0.6895
  875MOL0     C20653   4.042   8.033   3.525  0.3034 -1.1558 -0.7488
  875MOL0     C20654   3.938   7.948   3.447 -0.5133 -0.0644  0.7905
  875MOL0     C20655   4.013   7.851   3.350 -1.5030 -0.3349  0.5026
  875MOL0     C20656   3.910   7.743   3.297 -0.3726 -0.4690 -0.0822
  875MOL0    Cl20657   3.970   7.640   3.171  0.0908  0.1879  0.3064
  875MOL0     C20658   4.698   8.320   3.642 -0.1103  0.5746  0.7715
  875MOL0     C20659   4.817   8.365   3.718  0.3009 -0.4908 -0.0148
  875MOL0     O20660   4.842   8.678   3.955 -0.0580  0.0235  0.2506
  875MOL0     C20661   5.179   8.624   3.931 -0.1421  0.4221  0.1068
  875MOL0     C20662   5.298   8.654   4.000  0.0519 -0.2237 -1.0797
  875MOL0     N20663   5.946   8.804   4.316 -0.3071 -0.9663  0.3206
  875MOL0     N20664   6.033   8.709   4.329 -0.4385 -0.3992 -0.0524
  875MOL0     C20665   6.688   9.283   4.352 -0.7907 -0.8200  0.2243
  875MOL0     C20666   6.714   9.420   4.326 -0.2325  0.9547  0.2060
  875MOL0     C20667   6.744   9.863   4.297 -0.0188  0.9580  0.6308
  875MOL0     C20668   6.629   9.922   4.339  0.7893 -0.4244 -1.4586
  875MOL0     C20669   6.611  10.065   4.323 -0.2300 -0.1240  0.1791
  875MOL0     C20670   6.725  10.150   4.288  0.0802  0.9638  0.1295
  875MOL0     O20671   6.714  10.286   4.275  0.1282 -0.4163  0.5870
  875MOL0     C20672   6.819  10.351   4.200 -0.1630 -1.5936 -0.0046
  875MOL0     C20673   6.800  10.502   4.189 -1.5460 -0.0109 -0.3994
  875MOL0     C20674   6.695  10.554   4.081 -0.4134 -0.2597  0.0346
  875MOL0     C20675   6.601  10.662   4.126  0.3675  0.1082  0.8901
  875MOL0     C20676   6.517  10.713   4.016 -0.2143 -0.7178 -0.2758
  875MOL0     C20677   6.445  10.759   3.929 -1.2187 -0.1522  0.2102
  875MOL0     C20678   6.845  10.082   4.259  0.5545 -1.0283  0.6364
  875MOL0     C20679   6.855   9.939   4.262  0.3719 -0.9142 -0.5663
  875MOL0     C20680   6.997   9.875   4.252 -0.0949 -0.4878 -1.3006
  875MOL0     H20681   6.432   9.550   4.440 -0.2799  0.2911 -0.9918
  875MOL0     H20682   6.370   9.311   4.487  0.8776 -3.0540  0.8622
  875MOL0     H20683   6.716   8.993   4.475  0.3102 -1.8082  1.1368
  875MOL0     H20684   6.649   9.001   4.304  0.7339  2.9740  0.6746
  875MOL0     H20685   6.513   8.881   4.552 -0.0944 -2.9626  0.5867
  875MOL0     H20686   6.454   8.853   4.394 -0.3229  0.1843 -0.4268
  875MOL0     H20687   6.663   8.732   4.335 -2.2878 -3.6106 -0.1475
  875MOL0     H20688   6.697   8.743   4.515 -0.5447 -1.1116  0.0947
  875MOL0     H20689   6.465   8.611   4.370  0.3621 -2.1334  0.4263
  875MOL0     H20690   6.612   8.535   4.435  0.0846 -0.6164  0.6143
  875MOL0     H20691   6.475   8.698   4.641 -0.4720  0.0127 -0.0721
  875MOL0     H20692   6.560   8.550   4.642 -2.0365 -0.4156  3.1007
  875MOL0     H20693   6.346   8.446   4.534  1.3656  0.2867  0.5002
  875MOL0     H20694   6.323   8.502   4.697  2.6881  2.9050  1.8274
  875MOL0     H20695   6.260   8.665   4.426 -1.0056  0.0132 -0.3772
  875MOL0     H20696   6.228   8.726   4.582  0.1443  0.0412 -0.5675
  875MOL0     H20697   6.114   8.472   4.470 -2.0852  1.6799 -3.1039
  875MOL0     H20698   6.052   8.563   4.617 -0.2288  2.3679  0.9483
  875MOL0     H20699   5.838   8.665   4.590 -2.6296 -0.3940 -0.7491
  875MOL0     H20700   5.801   8.998   4.427  2.2839 -1.5436 -0.5726
  875MOL0     H20701   5.706   8.884   4.535 -1.1364  4.1153 -0.2348
  875MOL0     H20702   5.576   8.968   4.333 -1.8394 -0.9460  1.6554
  875MOL0     H20703   5.711   8.925   4.216 -0.0208 -1.1447 -1.4644
  875MOL0     H20704   5.647   8.703   4.221  3.3448 -0.6243  1.9323
  875MOL0     H20705   5.591   8.717   4.388  0.7033  0.4762 -0.6010
  875MOL0     H20706   5.388   8.683   4.290  0.0932 -0.2912 -2.2612
  875MOL0     H20707   5.397   8.853   4.324  1.6637  0.3550  1.1763
  875MOL0     H20708   5.193   8.944   4.151 -0.1179  1.3315 -1.5243
  875MOL0     H20709   4.880   8.870   4.115  0.0090  1.4373  0.6373
  875MOL0     H20710   4.903   8.926   3.947 -2.8828  0.6242  0.2777
  875MOL0     H20711   4.983   9.011   4.083  0.5616 -0.8027  1.9943
  875MOL0     H20712   4.733   8.681   3.691 -0.1270 -0.4571  2.6702
  875MOL0     H20713   4.562   8.621   3.583  1.7466  2.0366  0.7463
  875MOL0     H20714   4.350   8.473   3.481 -1.0002 -0.5227 -0.6186
  875MOL0     H20715   4.454   8.433   3.338 -0.6054 -0.2356 -0.0776
  875MOL0     H20716   4.217   8.345   3.307 -1.8162 -1.6454  0.6249
  875MOL0     H20717   4.347   8.229   3.315  0.4733  0.6047 -0.7988
  875MOL0     H20718   4.140   8.295   3.533 -0.4274  0.2297  0.5183
  875MOL0     H20719   4.291   8.208   3.565  1.0852  1.1791 -0.6617
  875MOL0     H20720   4.213   8.061   3.383  0.3285  1.2358 -0.9703
  875MOL0     H20721   4.068   8.169   3.363  2.0125  2.5205  0.9499
  875MOL0     H20722   4.111   7.971   3.582  1.7666  1.6936  0.7896
  875MOL0     H20723   3.986   8.093   3.598  1.6604 -3.6415  2.5755
  875MOL0     H20724   3.867   8.012   3.394  0.0753 -0.1096 -0.0717
  875MOL0     H20725   3.868   7.896   3.512 -1.2487  1.2831  1.1128
  875MOL0     H20726   4.090   7.797   3.405 -1.9157 -0.1869  1.2460
  875MOL0     H20727   4.060   7.909   3.270 -0.2342  2.5132  3.0874
  875MOL0     H20728   3.824   7.799   3.259  0.5328  0.7990 -0.2975
  875MOL0     H20729   3.878   7.676   3.378  1.8826 -1.7629 -0.1899
  875MOL0     H20730   4.675   8.214   3.638 -3.3268  1.1864 -0.4276
  875MOL0     H20731   4.882   8.292   3.764  1.5586  2.0251  2.4997
  875MOL0     H20732   5.190   8.536   3.869  2.0554  1.0468 -0.4762
  875MOL0     H20733   5.376   8.579   3.997  0.5528  0.2732 -0.7992
  875MOL0     H20734   6.759   9.203   4.333 -0.6994 -0.4623 -1.0624
  875MOL0     H20735   6.814   9.437   4.287  1.5128 -1.5803  3.0843
  875MOL0     H20736   6.547   9.859   4.372 -0.7410  1.0513 -2.2545
  875MOL0     H20737   6.520  10.115   4.352  0.0526  0.6345 -0.2218
  875MOL0     H20738   6.907  10.336   4.263  1.2166  0.1288 -1.4153
  875MOL0     H20739   6.835  10.308   4.101  1.5765  1.5707 -1.2294
  875MOL0     H20740   6.902  10.536   4.168 -2.5212  1.9660 -2.4466
  875MOL0     H20741   6.768  10.543   4.285 -2.4374 -2.1394  0.2485
  875MOL0     H20742   6.740  10.582   3.986 -3.7965  0.4621 -1.5217
  875MOL0     H20743   6.626  10.471   4.060 -0.0944 -0.9920  1.7114
  875MOL0     H20744   6.655  10.742   4.179  1.0223 -1.0643  2.0496
  875MOL0     H20745   6.532  10.632   4.205 -1.9364  1.2162 -0.6004
  875MOL0     H20746   6.379  10.788   3.849  0.4328 -1.0251 -1.5513
  875MOL0     H20747   6.943  10.126   4.247  1.7440 -3.3408  1.3855
  875MOL0     H20748   7.067   9.957   4.273  0.0058 -1.2909  2.1114
  875MOL0     H20749   7.021   9.799   4.327  3.0769  1.6242  0.0516
  875MOL0     H20750   7.024   9.844   4.150 -0.6873 -0.6791 -1.4038
  876MOL0     O20751   5.299   1.388   7.139 -0.4210  0.6294  0.2312
  876MOL0     C20752   5.344   1.377   7.252 -0.5842  0.3577 -0.0303
  876MOL0     O20753   5.326   1.471   7.347 -0.7012 -0.4594  0.2762
  876MOL0     C20754   5.261   1.593   7.333  0.5465 -0.0655 -0.6203
  876MOL0     C20755   5.306   1.708   7.396 -0.3994 -1.2494  0.2548
  876MOL0     C20756   5.226   1.829   7.386  0.6557 -0.6070 -0.2994
  876MOL0     C20757   5.096   1.828   7.332 -0.4278  0.4080  0.6190
  876MOL0     O20758   5.017   1.941   7.310 -0.3188 -0.3176  0.3655
  876MOL0     C20759   5.040   2.055   7.389 -0.4388 -0.5814  0.7165
  876MOL0     C20760   4.967   2.175   7.329 -0.1783 -0.2016  0.5031
  876MOL0     C20761   4.813   2.169   7.351 -0.2747 -0.1894  0.5727
  876MOL0     C20762   4.743   2.293   7.296 -0.0696 -0.0959 -0.1616
  876MOL0     C20763   4.596   2.282   7.324  0.4643 -0.3166 -0.5799
  876MOL0     C20764   4.536   2.421   7.321  0.0994 -0.3452  0.1373
  876MOL0     C20765   4.405   2.429   7.398  0.3957 -0.1097 -0.5999
  876MOL0     C20766   4.339   2.566   7.395 -0.6979  0.3171 -0.6892
  876MOL0     N20767   4.204   2.567   7.436  0.7370  0.3471 -0.3577
  876MOL0     C20768   4.163   2.555   7.566  0.3393  0.4520 -0.8174
  876MOL0     C20769   4.033   2.589   7.556 -0.4962 -0.2511  0.8453
  876MOL0     C20770   3.942   2.598   7.677 -0.1345 -0.1420  0.0103
  876MOL0     C20771   4.003   2.668   7.802 -0.5921 -0.7037  0.4973
  876MOL0     C20772   3.922   2.626   7.924 -0.0545  0.2728 -0.9022
  876MOL0     C20773   3.992   2.649   8.063  0.5242  0.2931 -0.2641
  876MOL0     O20774   4.121   2.582   8.066  0.1575 -0.5911  0.2308
  876MOL0     C20775   4.123   2.447   8.102  0.2031  0.5828 -0.5554
  876MOL0     C20776   4.250   2.394   8.117  1.2004  0.3634 -0.1925
  876MOL0     C20777   4.271   2.273   8.182  0.0525  0.2416  1.4986
  876MOL0     C20778   4.415   2.225   8.190 -0.5313 -0.6406  0.4608
  876MOL0     C20779   4.157   2.185   8.207  0.2366 -0.0036 -0.1390
  876MOL0     C20780   4.170   2.051   8.264  0.3551 -0.0982  0.2344
  876MOL0     O20781   4.051   1.971   8.276  0.0049  0.7065  0.7600
  876MOL0     C20782   4.055   1.834   8.303  0.0778  1.0741  0.4676
  876MOL0     C20783   3.944   1.771   8.360  0.0955 -1.0702 -0.0255
  876MOL0     C20784   3.935   1.642   8.415  0.7014  0.1770  0.2332
  876MOL0     C20785   4.043   1.555   8.400  0.2570  0.4154 -0.4870
  876MOL0     O20786   4.045   1.431   8.484  0.5846 -0.4545  0.4683
  876MOL0     C20787   4.170   1.416   8.548  0.2342 -1.0187 -0.0121
  876MOL0     C20788   4.151   1.355   8.687  0.0348 -0.3852  0.5213
  876MOL0     C20789   4.286   1.362   8.768 -0.2621  0.2885  0.3826
  876MOL0     C20790   4.295   1.262   8.884  0.2573  0.3746 -0.2949
  876MOL0     C20791   4.319   1.107   8.845 -0.4799 -1.0034  0.2587
  876MOL0     C20792   4.326   1.001   8.965  0.3638 -0.5050  0.0582
  876MOL0     C20793   4.431   1.034   9.070 -0.4986 -0.0201 -0.7697
  876MOL0     C20794   4.568   0.974   9.048 -0.1743 -0.2154 -0.5233
  876MOL0    Cl20795   4.655   1.046   8.915  0.0963  0.0155 -0.2054
  876MOL0     C20796   4.153   1.610   8.322 -0.1776  0.2657 -0.0982
  876MOL0     C20797   4.157   1.746   8.278 -0.0097 -0.7757 -0.3588
  876MOL0     O20798   4.284   2.008   8.286  0.4988 -0.7199 -0.0550
  876MOL0     C20799   4.034   2.236   8.174  0.8294  0.7232 -1.3386
  876MOL0     C20800   4.010   2.363   8.128 -0.3239 -0.5660  0.1415
  876MOL0     N20801   3.995   2.580   7.423 -0.2752  0.7673  0.6302
  876MOL0     N20802   4.096   2.571   7.347  0.2904  0.6565 -0.2884
  876MOL0     C20803   5.049   1.709   7.272  0.8460 -0.0831 -0.4056
  876MOL0     C20804   5.133   1.599   7.270  0.0362  0.2741 -0.6821
  876MOL0     C20805   5.405   1.242   7.298 -0.7821 -0.0657 -0.2617
  876MOL0     C20806   5.387   1.186   7.428 -0.4800 -0.7477  0.9239
  876MOL0     C20807   5.437   1.063   7.471  0.7805 -0.0941 -0.2728
  876MOL0     C20808   5.505   0.982   7.384  0.0643 -1.1830 -0.0371
  876MOL0     O20809   5.556   0.853   7.419 -0.0531  0.3126  0.7980
  876MOL0     C20810   5.574   0.817   7.554 -0.0136  0.7740 -0.3804
  876MOL0     C20811   5.659   0.680   7.556  0.2092 -0.9907  0.9654
  876MOL0     C20812   5.681   0.626   7.686  0.2370 -0.1087 -0.0576
  876MOL0     C20813   5.780   0.511   7.671  0.4140 -0.3403 -0.5369
  876MOL0     C20814   5.738   0.405   7.572 -0.4986 -0.4381  0.0649
  876MOL0     C20815   5.711   0.320   7.491  0.3791  0.0172 -0.4810
  876MOL0     C20816   5.525   1.033   7.257 -0.1741 -0.5733  0.3572
  876MOL0     C20817   5.478   1.156   7.208 -0.0972  0.2109  0.5193
  876MOL0     C20818   5.504   1.185   7.069  0.0256  0.0114  0.2808
  876MOL0     H20819   5.392   1.704   7.461  2.5066 -2.1538 -3.3297
  876MOL0     H20820   5.262   1.911   7.449 -0.4219 -1.7164  1.8697
  876MOL0     H20821   5.145   2.083   7.397 -0.2443 -1.1413  0.1454
  876MOL0     H20822   5.007   2.033   7.491  1.1158  1.2835  1.6755
  876MOL0     H20823   4.993   2.268   7.381 -1.7755  1.4678 -1.5643
  876MOL0     H20824   4.991   2.179   7.223  2.4497 -0.7063  0.9870
  876MOL0     H20825   4.781   2.073   7.310  4.0558 -1.8332  0.5839
  876MOL0     H20826   4.799   2.151   7.458  0.4696 -1.8119  0.4207
  876MOL0     H20827   4.801   2.377   7.336  2.4403 -3.0228  2.9550
  876MOL0     H20828   4.751   2.306   7.187 -1.1748  1.4312 -0.1011
  876MOL0     H20829   4.581   2.237   7.422  0.9133 -2.1013 -1.2886
  876MOL0     H20830   4.545   2.225   7.246 -0.9050  0.7818 -0.5396
  876MOL0     H20831   4.592   2.499   7.372 -1.1226  1.6261 -1.4214
  876MOL0     H20832   4.501   2.454   7.223  0.0132 -2.5067 -0.6136
  876MOL0     H20833   4.431   2.393   7.498 -0.3512 -1.3860 -0.8445
  876MOL0     H20834   4.329   2.358   7.363  2.6139 -2.5657 -0.8062
  876MOL0     H20835   4.396   2.640   7.453  0.0597  1.6539 -3.0278
  876MOL0     H20836   4.359   2.592   7.291  4.3917  0.0169 -0.0655
  876MOL0     H20837   4.226   2.547   7.654 -1.1634 -1.2618  0.1635
  876MOL0     H20838   3.903   2.497   7.695  1.2029 -0.5975  0.4532
  876MOL0     H20839   3.855   2.660   7.652  2.1068  3.5839  0.7190
  876MOL0     H20840   4.108   2.638   7.808  0.0290  0.9114 -1.5788
  876MOL0     H20841   4.004   2.775   7.782  1.4033 -0.5775  1.0966
  876MOL0     H20842   3.823   2.672   7.931 -0.5437 -0.9626  1.1320
  876MOL0     H20843   3.907   2.518   7.920  0.4425  0.1797 -0.4238
  876MOL0     H20844   4.016   2.755   8.071 -1.5206  0.6918  1.5724
  876MOL0     H20845   3.931   2.630   8.152 -1.4174 -2.6450 -2.0410
  876MOL0     H20846   4.336   2.443   8.072  2.6661 -0.0853  1.9578
  876MOL0     H20847   4.437   2.217   8.297  0.1331  2.3444  0.6327
  876MOL0     H20848   4.489   2.300   8.160  0.0884 -1.0619  0.9095
  876MOL0     H20849   4.447   2.143   8.126  2.7546  0.8765 -0.0357
  876MOL0     H20850   3.858   1.835   8.380 -0.8755 -1.4315 -2.6724
  876MOL0     H20851   3.840   1.624   8.463 -0.0108  2.3015 -0.2634
  876MOL0     H20852   4.238   1.353   8.490 -1.1196 -0.4550 -2.3311
  876MOL0     H20853   4.220   1.506   8.584 -2.8991 -0.4844  3.7338
  876MOL0     H20854   4.075   1.418   8.735 -1.2308 -0.5306 -1.1759
  876MOL0     H20855   4.118   1.251   8.678 -1.3363  0.0326  0.4472
  876MOL0     H20856   4.288   1.463   8.809 -0.9347  0.1223  0.8503
  876MOL0     H20857   4.376   1.352   8.708 -0.8391  4.3039 -1.4395
  876MOL0     H20858   4.192   1.269   8.920  0.1170 -0.6238 -0.4722
  876MOL0     H20859   4.369   1.295   8.958  2.9661 -2.8923 -1.2789
  876MOL0     H20860   4.239   1.079   8.776 -2.4794  4.6170 -0.2421
  876MOL0     H20861   4.418   1.105   8.798  0.3198  3.9786  1.1579
  876MOL0     H20862   4.326   0.899   8.926  1.6900 -1.2235  1.8270
  876MOL0     H20863   4.228   1.003   9.014 -0.0231 -3.0204 -0.4923
  876MOL0     H20864   4.388   0.994   9.163 -1.0238 -0.8760 -1.3699
  876MOL0     H20865   4.440   1.143   9.076  0.7325  0.1315 -3.8261
  876MOL0     H20866   4.558   0.869   9.019 -2.9470  0.3324 -1.8178
  876MOL0     H20867   4.628   0.970   9.140  0.9964 -3.4445 -1.2691
  876MOL0     H20868   4.245   1.553   8.318 -2.1356 -3.1333 -3.1849
  876MOL0     H20869   4.249   1.780   8.232  0.4516  2.8254  2.7692
  876MOL0     H20870   3.954   2.167   8.200  1.0017  1.8852  3.2204
  876MOL0     H20871   3.914   2.409   8.107  1.7862  4.5688  0.2943
  876MOL0     H20872   4.946   1.720   7.237 -0.5573  3.1961  3.8171
  876MOL0     H20873   5.121   1.501   7.225  0.1600  0.3204 -0.8166
  876MOL0     H20874   5.315   1.224   7.499 -4.2554 -1.7156 -2.0528
  876MOL0     H20875   5.411   1.026   7.569 -2.4757 -1.4755 -1.5326
  876MOL0     H20876   5.627   0.889   7.617  1.1104 -1.4917  1.4338
  876MOL0     H20877   5.483   0.795   7.611  0.7253  0.3130  0.6440
  876MOL0     H20878   5.757   0.704   7.513  0.0562  4.6790  2.9533
  876MOL0     H20879   5.595   0.607   7.504 -4.0528  1.6828  1.9720
  876MOL0     H20880   5.712   0.701   7.759  0.0300  0.4146 -0.5027
  876MOL0     H20881   5.590   0.582   7.726  0.6621 -0.8846  0.0751
  876MOL0     H20882   5.786   0.460   7.768 -1.9918  1.4030  0.6518
  876MOL0     H20883   5.874   0.554   7.636  0.7500 -0.2218  0.4803
  876MOL0     H20884   5.729   0.235   7.428  1.3673 -0.7415  0.7776
  876MOL0     H20885   5.584   0.964   7.197 -1.2989 -1.1635 -0.1111
  876MOL0     H20886   5.562   1.277   7.083  1.2726 -0.6768 -0.2273
  876MOL0     H20887   5.582   1.118   7.033  0.5023 -0.1653  1.5906
  876MOL0     H20888   5.421   1.204   6.999 -0.6171  3.8481  1.8241
  877MOL0     O20889   8.229  11.436   7.706  0.6150 -0.1955  1.0943
  877MOL0     C20890   8.179  11.548   7.677  0.0836 -0.0539  0.0478
  877MOL0     O20891   8.048  11.583   7.697 -0.0852  0.0041 -0.2303
  877MOL0     C20892   7.956  11.501   7.767 -0.2029 -0.0825  0.4408
  877MOL0     C20893   7.989  11.417   7.879 -0.4162 -0.4882 -0.3930
  877MOL0     C20894   7.893  11.337   7.938  0.3073 -0.0495 -0.1946
  877MOL0     C20895   7.755  11.350   7.905  0.2909  0.2543 -0.3633
  877MOL0     O20896   7.657  11.279   7.967 -0.1454 -0.6776  0.2283
  877MOL0     C20897   7.683  11.205   8.092 -0.4304 -0.1617  0.3757
  877MOL0     C20898   7.721  11.057   8.048  1.1683  0.3624 -0.0469
  877MOL0     C20899   7.615  10.977   7.990  0.3243  0.6134  0.0741
  877MOL0     C20900   7.624  10.830   8.017  0.0651 -0.3096  0.3534
  877MOL0     C20901   7.513  10.752   7.939 -0.6716 -0.4404 -0.3445
  877MOL0     C20902   7.366  10.746   7.981 -1.0693  0.9820 -0.7615
  877MOL0     C20903   7.352  10.686   8.124 -1.1360  0.3368 -0.0830
  877MOL0     C20904   7.409  10.537   8.130 -0.1545 -0.0802 -0.0499
  877MOL0     N20905   7.329  10.447   8.036 -1.3371 -1.2554 -0.9194
  877MOL0     C20906   7.380  10.402   7.918  0.8369 -0.3450 -1.0973
  877MOL0     C20907   7.289  10.303   7.882 -0.4284  0.2175 -0.4156
  877MOL0     C20908   7.307  10.207   7.771 -0.5599 -0.1928 -0.8142
  877MOL0     C20909   7.288  10.259   7.633  0.7431 -0.1877  0.7647
  877MOL0     C20910   7.149  10.205   7.573 -0.3306  1.1930 -0.2656
  877MOL0     C20911   7.158  10.194   7.423  0.1632  0.1484  0.3780
  877MOL0     O20912   7.027  10.169   7.370  0.5478 -0.6135 -0.3461
  877MOL0     C20913   6.922  10.263   7.385 -0.0215 -0.9719 -0.3651
  877MOL0     C20914   6.784  10.219   7.379 -0.4597  1.0646  0.3367
  877MOL0     C20915   6.686  10.313   7.389 -0.1961 -0.2604  0.4250
  877MOL0     C20916   6.540  10.264   7.403  0.1779  0.2843 -0.4491
  877MOL0     C20917   6.721  10.449   7.395  0.3117 -0.5896  0.4752
  877MOL0     C20918   6.622  10.549   7.400 -0.3986 -0.7540 -0.5525
  877MOL0     O20919   6.552  10.586   7.291 -0.7545 -0.2720 -0.2187
  877MOL0     C20920   6.438  10.660   7.312 -0.5583  1.0078 -0.2077
  877MOL0     C20921   6.310  10.603   7.333 -0.6334  0.1745 -0.5710
  877MOL0     C20922   6.194  10.683   7.320  0.2425 -0.0522  0.6675
  877MOL0     C20923   6.213  10.821   7.295 -0.2506 -0.4796 -0.0002
  877MOL0     O20924   6.090  10.877   7.271 -0.4433  0.5016 -0.7059
  877MOL0     C20925   6.057  10.986   7.353  0.0411  0.0121 -0.6231
  877MOL0     C20926   5.945  11.075   7.296 -0.3054 -0.1070 -0.8372
  877MOL0     C20927   5.909  11.185   7.408  0.8211 -0.0423 -0.3145
  877MOL0     C20928   5.808  11.268   7.347 -0.5827  0.1936  0.0692
  877MOL0     C20929   5.801  11.419   7.390 -0.1690 -0.1040 -0.9065
  877MOL0     C20930   5.710  11.445   7.518  0.2474  0.4190  1.2252
  877MOL0     C20931   5.556  11.440   7.477  0.2991 -0.3466 -0.5632
  877MOL0     C20932   5.464  11.381   7.588 -0.4249  0.2267  0.6900
  877MOL0    Cl20933   5.504  11.207   7.610  0.2435  0.1803  0.3230
  877MOL0     C20934   6.340  10.877   7.282  0.7797 -0.2210 -0.4744
  877MOL0     C20935   6.452  10.798   7.288  0.3656  0.1606  0.2621
  877MOL0     O20936   6.600  10.594   7.513  0.0776  0.1399 -0.2176
  877MOL0     C20937   6.852  10.493   7.403 -0.2120 -0.8337  0.5857
  877MOL0     C20938   6.952  10.397   7.408  0.2002 -0.2043 -0.5198
  877MOL0     N20939   7.184  10.303   7.980  0.4560 -0.1931  0.0729
  877MOL0     N20940   7.213  10.395   8.067  1.0621  0.2932 -0.2468
  877MOL0     C20941   7.727  11.441   7.801 -0.1184  0.8742 -0.2823
  877MOL0     C20942   7.823  11.507   7.730  0.0232  0.1477 -0.4998
  877MOL0     C20943   8.276  11.646   7.619 -0.3843 -0.3647 -0.2905
  877MOL0     C20944   8.406  11.608   7.587 -0.9497  0.5788 -0.0367
  877MOL0     C20945   8.508  11.684   7.529 -0.6227  0.4668  0.0064
  877MOL0     C20946   8.475  11.813   7.479 -0.1937  0.3208 -0.4971
  877MOL0     O20947   8.554  11.893   7.405  0.7246  0.3011 -0.2429
  877MOL0     C20948   8.619  11.822   7.293  0.5823  0.1750  0.4449
  877MOL0     C20949   8.603  11.931   7.183  0.8985  0.5897 -0.2183
  877MOL0     C20950   8.737  11.983   7.143  0.3357 -1.3973 -0.0749
  877MOL0     C20951   8.766  12.121   7.077  0.3314 -0.3869  0.2985
  877MOL0     C20952   8.755  12.103   6.924 -0.3124  1.3575 -0.7139
  877MOL0     C20953   8.722  12.104   6.809 -0.3147  0.6912  0.1502
  877MOL0     C20954   8.347  11.854   7.507  0.8861 -0.6448 -0.0388
  877MOL0     C20955   8.247  11.778   7.580  0.3378 -0.1722 -1.3691
  877MOL0     C20956   8.121  11.853   7.626 -0.7245  0.0575 -0.1419
  877MOL0     H20957   8.091  11.408   7.914 -0.4473 -0.3216 -0.2568
  877MOL0     H20958   7.927  11.268   8.014  2.1444 -0.2622 -1.1439
  877MOL0     H20959   7.589  11.199   8.148  0.5336 -0.2704  2.0628
  877MOL0     H20960   7.766  11.237   8.157 -0.6570 -0.9679  1.0826
  877MOL0     H20961   7.798  11.076   7.972 -0.1251  3.7193 -0.6609
  877MOL0     H20962   7.770  11.019   8.138  0.1207  1.0543  0.8329
  877MOL0     H20963   7.514  11.005   8.022 -0.3675 -1.8817  0.2497
  877MOL0     H20964   7.615  11.002   7.883 -0.4012  1.9172  0.3474
  877MOL0     H20965   7.718  10.797   7.971 -2.4040 -1.4574 -4.5484
  877MOL0     H20966   7.615  10.796   8.120 -3.1960 -1.6724 -0.2584
  877MOL0     H20967   7.547  10.648   7.943  0.5773 -0.0985 -1.3660
  877MOL0     H20968   7.516  10.784   7.834  0.0839 -1.0276 -0.5165
  877MOL0     H20969   7.322  10.845   7.988 -0.6056  1.2156 -1.0775
  877MOL0     H20970   7.311  10.683   7.911 -1.9662  2.7526 -1.7182
  877MOL0     H20971   7.248  10.687   8.155 -1.2918  1.1091 -0.5938
  877MOL0     H20972   7.406  10.742   8.201 -0.0590 -1.5212  0.5703
  877MOL0     H20973   7.515  10.530   8.103 -0.4905 -0.9560 -1.2287
  877MOL0     H20974   7.397  10.490   8.228  0.6144  0.8229  0.4984
  877MOL0     H20975   7.468  10.434   7.863  0.8251  0.7168 -0.5245
  877MOL0     H20976   7.251  10.116   7.794 -1.3058  0.8477  1.9349
  877MOL0     H20977   7.410  10.171   7.784 -0.1371  1.4275  0.8940
  877MOL0     H20978   7.280  10.367   7.619  0.6167 -0.2497  0.3383
  877MOL0     H20979   7.375  10.226   7.576 -0.4187 -0.5975 -0.8545
  877MOL0     H20980   7.136  10.105   7.617  2.4223  1.5778  1.6757
  877MOL0     H20981   7.069  10.265   7.617 -0.5534 -0.8533  2.4271
  877MOL0     H20982   7.203  10.287   7.387 -1.8797  1.6564  1.5035
  877MOL0     H20983   7.234  10.116   7.410 -0.9814 -1.1966  1.4147
  877MOL0     H20984   6.756  10.119   7.350 -2.7072  2.4146 -2.7823
  877MOL0     H20985   6.478  10.304   7.321  2.5132  1.3829 -1.7900
  877MOL0     H20986   6.508  10.302   7.500  0.6051 -1.1303  0.2729
  877MOL0     H20987   6.529  10.156   7.416  3.0988  0.3417  5.4583
  877MOL0     H20988   6.314  10.500   7.367  2.5571  1.1503  2.7163
  877MOL0     H20989   6.097  10.644   7.349  1.7979 -4.1447  1.0241
  877MOL0     H20990   6.028  10.952   7.453 -0.5412 -1.7483 -1.3567
  877MOL0     H20991   6.148  11.048   7.357  1.0547 -1.3793 -1.1557
  877MOL0     H20992   5.984  11.113   7.201  1.4182  1.2711  0.3563
  877MOL0     H20993   5.861  11.006   7.280  1.3940 -2.5207 -0.0739
  877MOL0     H20994   5.994  11.249   7.436 -0.0596 -0.0861  2.8470
  877MOL0     H20995   5.876  11.140   7.502  3.0465 -1.6993 -0.2478
  877MOL0     H20996   5.713  11.214   7.352 -1.9694  2.5897  1.2882
  877MOL0     H20997   5.826  11.278   7.239 -0.8217  2.3507  0.1858
  877MOL0     H20998   5.903  11.453   7.408 -1.4686  2.3671  3.1742
  877MOL0     H20999   5.770  11.477   7.303  1.7758  0.8532 -1.0076
  877MOL0     H21000   5.747  11.532   7.574 -0.2342  1.0177  0.6220
  877MOL0     H21001   5.722  11.353   7.577 -2.7574 -0.9717 -0.1070
  877MOL0     H21002   5.541  11.373   7.392 -0.2683 -0.7649 -0.1415
  877MOL0     H21003   5.505  11.531   7.444 -2.1344 -1.5330 -0.3105
  877MOL0     H21004   5.358  11.391   7.561  0.0237  1.5736 -0.6800
  877MOL0     H21005   5.477  11.446   7.675  2.0395  1.7282 -0.7078
  877MOL0     H21006   6.353  10.985   7.275  3.4374 -0.1810  2.7843
  877MOL0     H21007   6.548  10.843   7.261  0.4482 -1.0983 -1.7824
  877MOL0     H21008   6.877  10.598   7.409  0.5164 -0.8411 -1.4935
  877MOL0     H21009   7.049  10.445   7.400 -1.8626  4.1607 -2.8815
  877MOL0     H21010   7.624  11.459   7.774 -0.5512 -0.9969 -0.0755
  877MOL0     H21011   7.787  11.585   7.663  2.2518 -0.1723 -2.1977
  877MOL0     H21012   8.451  11.516   7.625  2.5101  1.6071 -1.2615
  877MOL0     H21013   8.608  11.644   7.514  0.3076  1.3779  3.0259
  877MOL0     H21014   8.725  11.804   7.308  0.1843 -1.8545  1.0785
  877MOL0     H21015   8.562  11.731   7.269 -2.2584  2.0439 -0.4755
  877MOL0     H21016   8.541  12.011   7.224 -1.9048 -1.1897 -0.6893
  877MOL0     H21017   8.553  11.887   7.097 -1.5384 -1.0452  1.8570
  877MOL0     H21018   8.804  11.974   7.230 -0.2317 -2.1859  0.2856
  877MOL0     H21019   8.791  11.911   7.081 -0.2051 -2.1765  0.3408
  877MOL0     H21020   8.856  12.175   7.110 -1.2981  1.7603  1.5247
  877MOL0     H21021   8.684  12.193   7.087  1.7700  1.4309 -0.4241
  877MOL0     H21022   8.668  12.088   6.718  0.0419  1.1567 -0.1549
  877MOL0     H21023   8.321  11.957   7.484  0.8756 -0.1139  2.1073
  877MOL0     H21024   8.109  11.843   7.734  0.7666 -2.1133 -0.0840
  877MOL0     H21025   8.124  11.959   7.600 -1.1573  0.3914  1.0960
  877MOL0     H21026   8.033  11.802   7.585 -2.1082  2.5533 -0.4294
  878MOL0     O21027   6.365  10.876  10.279  0.3920 -1.1942  0.0025
  878MOL0     C21028   6.313  10.939  10.380  0.0639  0.4165  0.5882
  878MOL0     O21029   6.381  10.981  10.491 -0.1142 -0.5386 -0.8943
  878MOL0     C21030   6.510  10.964  10.512 -0.4245  0.3769  0.0248
  878MOL0     C21031   6.596  10.882  10.443  0.2666 -0.2825  0.0681
  878MOL0     C21032   6.726  10.885  10.472 -0.1391  0.8290  1.6094
  878MOL0     C21033   6.777  10.981  10.566 -0.2974  0.4872  0.7736
  878MOL0     O21034   6.911  10.988  10.591  0.3440  0.6060  0.2725
  878MOL0     C21035   6.977  10.867  10.635 -0.5715  0.0851  0.5767
  878MOL0     C21036   7.128  10.876  10.601 -0.1799 -0.1759 -0.1653
  878MOL0     C21037   7.206  10.793  10.704  0.4140 -0.5286  0.5823
  878MOL0     C21038   7.352  10.819  10.706  0.1702  0.8967 -0.2371
  878MOL0     C21039   7.420  10.750  10.816  0.3592  0.5345 -0.3957
  878MOL0     C21040   7.576  10.783  10.813  0.1571  0.1843 -0.7570
  878MOL0     C21041   7.614  10.922  10.847 -0.6160 -0.4168 -0.2304
  878MOL0     C21042   7.756  10.951  10.796 -0.3608  0.5708 -0.1200
  878MOL0     N21043   7.859  10.868  10.868 -1.0876  0.4599 -0.3543
  878MOL0     C21044   7.890  10.869  11.005 -0.1064 -0.2301  0.4860
  878MOL0     C21045   7.993  10.791  11.021  0.2066  0.8075  1.0983
  878MOL0     C21046   8.059  10.784  11.155  0.5526  0.4387  0.0861
  878MOL0     C21047   8.187  10.864  11.167  0.0531 -1.0255 -0.0570
  878MOL0     C21048   8.235  10.888  11.314 -0.5016  0.3428  0.7375
  878MOL0     C21049   8.243  10.770  11.410  0.3214  0.0905  0.5858
  878MOL0     O21050   8.312  10.811  11.526 -1.1022  0.1888 -0.2955
  878MOL0     C21051   8.454  10.816  11.528 -0.8612 -0.2577 -0.2476
  878MOL0     C21052   8.536  10.710  11.469 -0.5868 -0.3757  0.6833
  878MOL0     C21053   8.669  10.699  11.503  0.5691 -0.0502 -0.2796
  878MOL0     C21054   8.740  10.585  11.437 -0.4289  0.4778 -0.2313
  878MOL0     C21055   8.728  10.790  11.582 -0.3360  0.7652  0.3143
  878MOL0     C21056   8.868  10.791  11.603 -0.3252  0.0077 -0.3759
  878MOL0     O21057   8.928  10.906  11.573 -0.1249 -0.3535 -0.5559
  878MOL0     C21058   9.047  10.946  11.615 -0.0854  0.3199 -1.1073
  878MOL0     C21059   9.099  11.071  11.579 -0.3323 -0.2689  0.8088
  878MOL0     C21060   9.217  11.121  11.625 -0.2377  0.4223 -0.0771
  878MOL0     C21061   9.290  11.039  11.712 -0.0986  0.0680 -0.3803
  878MOL0     O21062   9.408  11.085  11.752 -0.4457 -0.2320 -0.2592
  878MOL0     C21063   9.422  11.098  11.892  0.0270 -0.5399 -0.4073
  878MOL0     C21064   9.552  11.171  11.930  0.3595  0.1002  0.4946
  878MOL0     C21065   9.677  11.076  11.904  0.0730 -0.4373 -0.6232
  878MOL0     C21066   9.800  11.113  11.989 -0.2038 -0.7337  0.5588
  878MOL0     C21067   9.920  11.032  11.955  0.2195  0.2446 -0.3316
  878MOL0     C21068   9.905  10.882  11.977 -1.0202 -0.2958  0.2307
  878MOL0     C21069  10.040  10.813  11.964  0.2009 -0.0275 -1.2043
  878MOL0     C21070  10.025  10.671  12.016 -0.2307  0.6934 -1.5755
  878MOL0    Cl21071   9.978  10.652  12.197  0.1373  0.2702  0.2939
  878MOL0     C21072   9.242  10.920  11.760  0.1837  0.3307  0.4151
  878MOL0     C21073   9.115  10.868  11.722  0.5687 -0.6064  0.2373
  878MOL0     O21074   8.925  10.689  11.633 -0.1077 -1.0995 -0.1617
  878MOL0     C21075   8.647  10.882  11.643  0.3730 -0.5551  0.2374
  878MOL0     C21076   8.512  10.900  11.620 -0.2929 -0.3263 -0.2310
  878MOL0     N21077   8.026  10.730  10.898 -0.1043 -0.4171 -0.5480
  878MOL0     N21078   7.949  10.777  10.807  1.2494 -0.2672 -0.3752
  878MOL0     C21079   6.689  11.061  10.640 -0.2999 -0.1599  0.6228
  878MOL0     C21080   6.555  11.045  10.618  0.8512 -0.7314 -0.3395
  878MOL0     C21081   6.173  10.961  10.372  0.1246 -0.3491  0.8470
  878MOL0     C21082   6.091  10.971  10.495 -0.4541  0.1153  0.0928
  878MOL0     C21083   5.946  11.000  10.499 -0.6849  0.3352 -0.2499
  878MOL0     C21084   5.885  11.024  10.379 -0.2160  0.1785 -0.9352
  878MOL0     O21085   5.751  11.053  10.388 -0.6307 -0.1747 -0.3567
  878MOL0     C21086   5.669  11.007  10.277 -0.3091  0.2857  0.7483
  878MOL0     C21087   5.525  11.007  10.331  0.2844  0.2585 -0.6496
  878MOL0     C21088   5.411  10.938  10.246  0.0222  0.2912 -0.1498
  878MOL0     C21089   5.374  10.804  10.304 -0.3111 -0.3408  0.6300
  878MOL0     C21090   5.374  10.703  10.199  0.1046 -0.1791  0.4783
  878MOL0     C21091   5.375  10.635  10.101 -0.2880  1.4208  0.2778
  878MOL0     C21092   5.953  11.003  10.253  0.3964  0.1930  0.1628
  878MOL0     C21093   6.092  10.979  10.248  0.0084 -0.5101 -0.9224
  878MOL0     C21094   6.144  10.987  10.109 -0.1926  0.7312  1.0370
  878MOL0     H21095   6.560  10.816  10.365 -0.3340  1.6753 -1.3914
  878MOL0     H21096   6.805  10.831  10.421  0.0801  1.4906  1.2433
  878MOL0     H21097   6.946  10.770  10.595 -2.2754  1.7434 -2.4801
  878MOL0     H21098   6.965  10.867  10.744 -1.5188  0.9076  0.4867
  878MOL0     H21099   7.154  10.858  10.497  3.4574 -1.0917  0.7731
  878MOL0     H21100   7.151  10.981  10.622 -4.1442  1.0260 -0.9622
  878MOL0     H21101   7.172  10.825  10.803  3.4106 -0.7443  1.8064
  878MOL0     H21102   7.209  10.683  10.702  1.1349 -0.5476  1.8201
  878MOL0     H21103   7.393  10.786  10.610  1.8429  3.0405 -0.3408
  878MOL0     H21104   7.358  10.926  10.723 -1.7621  0.8150  1.2876
  878MOL0     H21105   7.401  10.643  10.806 -0.3445  0.2862  2.6215
  878MOL0     H21106   7.378  10.788  10.910  2.3234  2.5927 -0.2819
  878MOL0     H21107   7.627  10.723  10.888 -0.5056  3.5045  2.6459
  878MOL0     H21108   7.607  10.752  10.713  1.9486  2.4673 -0.9821
  878MOL0     H21109   7.609  10.943  10.955  1.4384 -1.1176  0.0437
  878MOL0     H21110   7.543  10.988  10.798 -0.3118 -0.9993 -1.4850
  878MOL0     H21111   7.764  10.919  10.692  2.1850  0.8413 -0.0724
  878MOL0     H21112   7.767  11.059  10.804 -3.1441  0.9091  0.0009
  878MOL0     H21113   7.831  10.926  11.077  0.4541  2.6035 -1.1778
  878MOL0     H21114   8.083  10.679  11.177  1.1713  0.5065 -0.2280
  878MOL0     H21115   7.997  10.812  11.240  4.3692  3.8333  2.0667
  878MOL0     H21116   8.267  10.815  11.111 -0.9396 -1.1653 -1.4048
  878MOL0     H21117   8.177  10.963  11.122 -0.2704 -0.0625  2.0432
  878MOL0     H21118   8.336  10.927  11.294  0.4240 -1.5687  1.4160
  878MOL0     H21119   8.176  10.968  11.361 -0.1606  0.2513  1.3375
  878MOL0     H21120   8.142  10.734  11.432 -0.1797 -0.1769 -1.8243
  878MOL0     H21121   8.296  10.690  11.357 -0.0803 -0.4973  1.0542
  878MOL0     H21122   8.493  10.635  11.404 -2.7607  0.3095  1.2350
  878MOL0     H21123   8.667  10.533  11.373  0.3403 -0.4295 -0.3906
  878MOL0     H21124   8.785  10.526  11.517 -2.1928  1.0146  1.2478
  878MOL0     H21125   8.823  10.619  11.376  2.7912 -3.6245  1.3666
  878MOL0     H21126   9.041  11.130  11.510  0.8396  0.2219  0.2168
  878MOL0     H21127   9.238  11.227  11.616  2.5699  0.0947  1.5428
  878MOL0     H21128   9.339  11.162  11.923 -0.4442 -1.1430 -0.3967
  878MOL0     H21129   9.399  11.004  11.943  0.3732 -0.0138  0.7490
  878MOL0     H21130   9.557  11.266  11.876 -0.4594  0.1391  0.4819
  878MOL0     H21131   9.553  11.187  12.038  0.9382 -2.5931  0.9656
  878MOL0     H21132   9.722  11.088  11.805  0.1293  1.5219 -0.3866
  878MOL0     H21133   9.654  10.969  11.914  5.2458 -1.8801 -1.0689
  878MOL0     H21134   9.769  11.095  12.092 -0.6631  2.7950  1.1667
  878MOL0     H21135   9.824  11.219  11.977 -2.6719 -0.1364  0.3429
  878MOL0     H21136   9.943  11.051  11.850 -0.9639 -1.8913 -1.0444
  878MOL0     H21137   9.995  11.079  12.019 -0.1432  1.2900 -0.6596
  878MOL0     H21138   9.846  10.831  11.901  0.3704 -4.4472  1.6804
  878MOL0     H21139   9.863  10.845  12.071  0.0367 -0.3255  0.7047
  878MOL0     H21140  10.123  10.867  12.012  0.3427 -0.8445 -0.5257
  878MOL0     H21141  10.066  10.801  11.858  1.0007  2.5547 -1.3862
  878MOL0     H21142  10.130  10.638  12.011 -0.4690 -0.8944  1.4269
  878MOL0     H21143   9.955  10.620  11.950 -2.3927 -0.3730  1.3173
  878MOL0     H21144   9.298  10.864  11.834 -0.6405 -0.9257  0.1379
  878MOL0     H21145   9.077  10.781  11.775  2.6680 -0.0216  2.9115
  878MOL0     H21146   8.698  10.949  11.713  1.3051 -0.7399 -0.2505
  878MOL0     H21147   8.454  10.973  11.674 -0.2576 -0.9472  0.6649
  878MOL0     H21148   6.738  11.137  10.700  0.7325  0.7394 -1.2563
  878MOL0     H21149   6.481  11.117  10.652  0.0229 -0.9804 -1.5479
  878MOL0     H21150   6.130  10.954  10.595  1.4627 -0.0765 -0.6469
  878MOL0     H21151   5.908  11.012  10.600  0.3355 -0.7041  0.2779
  878MOL0     H21152   5.670  11.073  10.189 -0.2660 -1.4854 -0.6195
  878MOL0     H21153   5.700  10.907  10.248 -0.2234 -0.2039  2.4028
  878MOL0     H21154   5.498  11.112  10.340  1.6596  0.4882  1.1965
  878MOL0     H21155   5.511  10.958  10.428 -3.0961  0.4041 -0.9572
  878MOL0     H21156   5.318  10.995  10.252 -1.6937 -1.7036 -3.8864
  878MOL0     H21157   5.445  10.940  10.142 -1.0928  3.3323 -0.5590
  878MOL0     H21158   5.268  10.807  10.331 -0.2378 -1.2721  1.0632
  878MOL0     H21159   5.439  10.779  10.388 -1.2267  1.9283  2.1043
  878MOL0     H21160   5.362  10.592  10.004  1.2360  2.0601 -0.2389
  878MOL0     H21161   5.902  11.000  10.158 -0.4950 -2.2150  0.6538
  878MOL0     H21162   6.069  10.985  10.029  1.7435  3.0667 -0.9894
  878MOL0     H21163   6.213  11.071  10.097 -1.5948  1.6846 -0.8325
  878MOL0     H21164   6.198  10.895  10.085 -1.8014  0.1702 -0.7173
  879MOL0     O21165   2.603   8.196  10.309  1.0841 -1.1736 -0.6467
  879MOL0     C21166   2.496   8.199  10.247  0.1829 -0.2634  0.0744
  879MOL0     O21167   2.370   8.198  10.302 -0.4847  0.0563 -0.7994
  879MOL0     C21168   2.355   8.170  10.438 -0.3924  0.0698  0.6763
  879MOL0     C21169   2.245   8.227  10.506 -0.0498  0.3169 -0.4952
  879MOL0     C21170   2.222   8.204  10.637 -0.0116 -0.3968 -0.0966
  879MOL0     C21171   2.318   8.129  10.709 -0.9359 -0.0944 -1.1508
  879MOL0     O21172   2.298   8.109  10.849 -0.0179  0.4031 -0.2530
  879MOL0     C21173   2.382   8.208  10.914 -0.2716 -0.3431 -0.1673
  879MOL0     C21174   2.429   8.181  11.055  0.3972 -0.2783 -0.7375
  879MOL0     C21175   2.521   8.059  11.071  0.2075 -0.0786 -0.2414
  879MOL0     C21176   2.525   7.995  11.207 -0.0073  0.7407 -0.0315
  879MOL0     C21177   2.558   8.079  11.331  0.0757 -0.4603 -1.3425
  879MOL0     C21178   2.513   8.029  11.468 -0.2182  0.2701  1.2382
  879MOL0     C21179   2.533   8.132  11.579  0.1597  0.2708 -0.2572
  879MOL0     C21180   2.578   8.078  11.717  0.0238 -0.0020 -0.4385
  879MOL0     N21181   2.718   8.035  11.706  0.0001 -0.0496 -0.1061
  879MOL0     C21182   2.758   7.903  11.731 -0.7739  0.5363 -0.2000
  879MOL0     C21183   2.892   7.919  11.698  0.8221  0.4759  0.0701
  879MOL0     C21184   2.977   7.795  11.724  0.0800 -1.0719 -0.3914
  879MOL0     C21185   3.034   7.741  11.604 -0.3200  0.3123  0.0892
  879MOL0     C21186   3.077   7.590  11.605 -0.0291 -0.1791 -0.8373
  879MOL0     C21187   3.136   7.545  11.473 -0.0508  0.9304  0.8426
  879MOL0     O21188   3.220   7.425  11.486  0.5778  0.7765  0.0744
  879MOL0     C21189   3.164   7.306  11.445  0.1701  0.5988  0.0979
  879MOL0     C21190   3.250   7.196  11.468 -0.3832  0.0648  0.3019
  879MOL0     C21191   3.228   7.073  11.424 -0.7702 -0.4764 -0.9410
  879MOL0     C21192   3.327   6.965  11.444 -0.8898  0.2864  0.0363
  879MOL0     C21193   3.094   7.050  11.384 -0.4419  0.7329 -0.3481
  879MOL0     C21194   3.032   6.909  11.349 -0.1652 -0.4523 -0.2664
  879MOL0     O21195   2.896   6.908  11.312  0.3109 -0.4791 -0.3767
  879MOL0     C21196   2.842   6.791  11.278 -0.3867  0.2588 -0.3202
  879MOL0     C21197   2.710   6.771  11.322  0.9775  0.4019  0.2916
  879MOL0     C21198   2.643   6.664  11.275  0.3746  0.5153  0.1644
  879MOL0     C21199   2.695   6.565  11.199  0.2348 -0.1878  0.3756
  879MOL0     O21200   2.634   6.456  11.151 -0.2457 -0.3228 -0.8873
  879MOL0     C21201   2.581   6.360  11.246 -0.3086 -0.1569  0.4007
  879MOL0     C21202   2.426   6.378  11.272 -0.7105 -0.2164 -0.4392
  879MOL0     C21203   2.347   6.304  11.162 -0.0191  0.1098 -1.1069
  879MOL0     C21204   2.204   6.367  11.161  0.4380  0.9119  0.2553
  879MOL0     C21205   2.116   6.316  11.047  0.2831 -0.4464 -0.0821
  879MOL0     C21206   2.083   6.171  11.039 -0.0103  0.3772 -0.1853
  879MOL0     C21207   2.016   6.146  10.904  0.3571 -0.0767 -0.1151
  879MOL0     C21208   1.896   6.054  10.922 -0.5115  0.1363  0.5081
  879MOL0    Cl21209   1.788   6.088  11.063  0.4224 -0.2910 -0.6363
  879MOL0     C21210   2.816   6.590  11.141 -0.4633  0.1876 -1.1838
  879MOL0     C21211   2.900   6.700  11.182 -0.3445 -0.1531  0.4341
  879MOL0     O21212   3.103   6.810  11.373 -0.3900 -0.5167  0.1641
  879MOL0     C21213   3.002   7.152  11.367  0.0341  0.7037  0.1511
  879MOL0     C21214   3.036   7.278  11.402 -0.3830 -0.4617  1.1988
  879MOL0     N21215   2.932   8.052  11.681 -0.1706 -0.6745  0.5660
  879MOL0     N21216   2.829   8.125  11.681  0.0506  0.2151  0.3805
  879MOL0     C21217   2.414   8.057  10.638 -0.0792 -0.5665 -0.6195
  879MOL0     C21218   2.439   8.076  10.506  0.6230  0.4586  0.6963
  879MOL0     C21219   2.495   8.192  10.097  0.6116  0.2968 -0.0945
  879MOL0     C21220   2.391   8.251  10.029  0.4207 -0.7807 -0.9816
  879MOL0     C21221   2.391   8.257   9.882  1.3748 -0.2561 -0.5196
  879MOL0     C21222   2.512   8.214   9.810 -0.7460 -0.4132  0.2963
  879MOL0     O21223   2.523   8.214   9.671  0.0714 -0.2972 -0.2657
  879MOL0     C21224   2.439   8.289   9.597 -0.1401  0.1984  0.7573
  879MOL0     C21225   2.465   8.444   9.608 -0.1268  0.6557 -0.3916
  879MOL0     C21226   2.569   8.480   9.506 -0.0128  0.0219  0.4632
  879MOL0     C21227   2.559   8.624   9.440 -0.6865 -0.6564 -0.5064
  879MOL0     C21228   2.447   8.624   9.353 -0.2659  0.5581  1.0712
  879MOL0     C21229   2.353   8.604   9.280 -0.0670  0.9422  0.4107
  879MOL0     C21230   2.607   8.148   9.886 -0.5447  0.6529  0.4091
  879MOL0     C21231   2.605   8.147  10.030 -0.8705  0.1522 -0.4461
  879MOL0     C21232   2.720   8.067  10.095 -0.3909  0.3568  0.3553
  879MOL0     H21233   2.183   8.299  10.454  1.3226  1.3272 -0.7736
  879MOL0     H21234   2.143   8.256  10.691  2.5114  1.3413  2.1366
  879MOL0     H21235   2.325   8.301  10.911  1.3491  0.7061 -0.0728
  879MOL0     H21236   2.476   8.213  10.859  0.6056 -0.4006  1.2562
  879MOL0     H21237   2.479   8.267  11.100  1.8575 -0.8209 -1.2822
  879MOL0     H21238   2.342   8.161  11.118  0.6517 -2.3499 -0.9720
  879MOL0     H21239   2.491   7.989  10.992  0.2396 -1.8321  1.2321
  879MOL0     H21240   2.625   8.085  11.051  0.0247  2.0660  1.2611
  879MOL0     H21241   2.423   7.954  11.213  0.5890 -0.6316  1.8805
  879MOL0     H21242   2.599   7.915  11.204  0.6939  1.4042 -1.3656
  879MOL0     H21243   2.501   8.171  11.318 -1.6140 -1.0573  1.1262
  879MOL0     H21244   2.664   8.103  11.324  0.5239 -1.7025  0.4286
  879MOL0     H21245   2.412   7.991  11.450  0.6115 -3.3880  3.2489
  879MOL0     H21246   2.567   7.938  11.499 -1.6343 -1.2644 -0.5917
  879MOL0     H21247   2.437   8.183  11.596  1.4315  2.3689  1.1142
  879MOL0     H21248   2.606   8.208  11.550  0.2152  0.7544  1.0523
  879MOL0     H21249   2.560   8.161  11.786 -1.9254  0.2734 -1.1975
  879MOL0     H21250   2.516   8.000  11.764  1.1425 -1.1920 -0.8690
  879MOL0     H21251   2.707   7.813  11.762  1.8126 -0.0490  2.7867
  879MOL0     H21252   2.923   7.710  11.769  0.7281 -1.3411 -0.1115
  879MOL0     H21253   3.053   7.827  11.795 -0.3712  1.2409 -0.8704
  879MOL0     H21254   2.967   7.756  11.518  0.6608 -4.5757 -1.8332
  879MOL0     H21255   3.124   7.797  11.578 -1.1625  1.2493 -0.9368
  879MOL0     H21256   3.148   7.573  11.686 -1.8833  1.1530  1.2042
  879MOL0     H21257   2.990   7.535  11.643 -1.6874  1.5567 -1.9341
  879MOL0     H21258   3.053   7.540  11.402  1.3843  1.1790 -0.9079
  879MOL0     H21259   3.196   7.624  11.426 -3.7846  2.7768 -1.3571
  879MOL0     H21260   3.343   7.214  11.520  0.1276 -0.1800 -0.5087
  879MOL0     H21261   3.359   6.911  11.354 -0.8236 -2.2773  1.5105
  879MOL0     H21262   3.280   6.893  11.512  0.9354  0.1689  1.2413
  879MOL0     H21263   3.417   7.008  11.489 -2.1461  1.5212  1.4585
  879MOL0     H21264   2.671   6.851  11.384  0.1000  1.5223 -1.6379
  879MOL0     H21265   2.542   6.654  11.315 -0.0534 -1.6951 -1.3057
  879MOL0     H21266   2.592   6.261  11.201  3.4300 -0.1566  1.0452
  879MOL0     H21267   2.644   6.373  11.334 -0.9775  1.9326  0.6317
  879MOL0     H21268   2.389   6.345  11.369 -2.2374 -0.7440 -1.1750
  879MOL0     H21269   2.408   6.485  11.276  1.2930  0.1215  1.0411
  879MOL0     H21270   2.341   6.196  11.177 -0.0900 -0.2997 -3.5953
  879MOL0     H21271   2.400   6.318  11.067 -1.5126 -1.6323 -2.2765
  879MOL0     H21272   2.212   6.475  11.145 -0.8986  0.8026 -1.5654
  879MOL0     H21273   2.154   6.342  11.254  0.6662 -4.5901 -0.7953
  879MOL0     H21274   2.026   6.377  11.053  0.7146  0.4734 -2.0599
  879MOL0     H21275   2.162   6.345  10.952  2.8249 -1.2474  0.8224
  879MOL0     H21276   2.023   6.142  11.126 -2.0639  2.3678 -0.8536
  879MOL0     H21277   2.176   6.112  11.040 -0.5172 -0.5467  2.6114
  879MOL0     H21278   2.093   6.096  10.844  1.6668  1.4626  0.2150
  879MOL0     H21279   1.975   6.237  10.860 -1.5787  0.7218  3.0825
  879MOL0     H21280   1.937   5.955  10.939 -0.8592  0.0998  1.1714
  879MOL0     H21281   1.842   6.050  10.827 -1.0937 -2.0356  0.8725
  879MOL0     H21282   2.863   6.521  11.071 -1.3878 -2.5167  0.6700
  879MOL0     H21283   2.987   6.734  11.127 -0.8164  0.5386  0.1116
  879MOL0     H21284   2.899   7.136  11.340  0.3715 -4.1260  0.9453
  879MOL0     H21285   2.967   7.362  11.396  1.4114  0.9977 -0.6002
  879MOL0     H21286   2.457   7.974  10.693 -0.2753 -0.1062  0.2496
  879MOL0     H21287   2.520   8.020  10.459 -1.5124  1.2504 -4.6356
  879MOL0     H21288   2.298   8.287  10.072  0.5454  0.1107 -1.4236
  879MOL0     H21289   2.309   8.308   9.832  1.6338  0.7425  0.0355
  879MOL0     H21290   2.451   8.260   9.492  0.5404  1.5171  0.4432
  879MOL0     H21291   2.334   8.273   9.623  0.0038  1.4234  2.2777
  879MOL0     H21292   2.525   8.453   9.699 -1.0402 -4.2009  1.0347
  879MOL0     H21293   2.377   8.508   9.618  0.4863  1.6310 -1.1460
  879MOL0     H21294   2.668   8.477   9.552  1.0718  0.3488 -1.7166
  879MOL0     H21295   2.571   8.411   9.421 -1.3557  0.1390  0.3153
  879MOL0     H21296   2.647   8.647   9.379 -1.4844 -0.3604 -1.5868
  879MOL0     H21297   2.546   8.706   9.511  1.1094  0.7790 -1.7201
  879MOL0     H21298   2.258   8.609   9.231 -1.4411 -3.4175  2.1845
  879MOL0     H21299   2.698   8.122   9.833  1.0075  2.2935  2.0686
  879MOL0     H21300   2.791   8.033  10.019 -0.6828 -2.0216  1.0468
  879MOL0     H21301   2.784   8.125  10.162 -0.0074 -1.1286  1.3442
  879MOL0     H21302   2.673   7.980  10.143  1.5186 -0.2723  1.2217
  880MOL0     O21303   3.510   7.491  11.537 -0.3198 -0.5028 -0.5249
  880MOL0     C21304   3.554   7.573  11.618 -0.8901  0.0173 -0.2274
  880MOL0     O21305   3.572   7.542  11.754  0.2672 -0.6439 -0.7342
  880MOL0     C21306   3.456   7.489  11.811 -0.0549  0.8049  0.3779
  880MOL0     C21307   3.368   7.577  11.880  0.6388 -0.1582  0.7875
  880MOL0     C21308   3.245   7.528  11.937 -0.5115  0.1964 -0.2920
  880MOL0     C21309   3.208   7.393  11.911 -0.4968  0.2865 -0.2258
  880MOL0     O21310   3.076   7.337  11.937 -0.3441  0.2828 -0.1117
  880MOL0     C21311   2.960   7.414  11.979 -0.9560 -0.8932 -0.5699
  880MOL0     C21312   2.830   7.343  12.004 -0.1546  0.7354  0.0953
  880MOL0     C21313   2.852   7.228  12.100 -0.5394  0.4647 -0.3646
  880MOL0     C21314   2.725   7.176  12.159  0.7713  1.4972 -0.0057
  880MOL0     C21315   2.757   7.050  12.241 -0.1158  0.2574 -0.1045
  880MOL0     C21316   2.626   6.985  12.286 -0.6027  0.0640 -0.6542
  880MOL0     C21317   2.518   6.966  12.177 -0.1848 -1.1346 -0.4436
  880MOL0     C21318   2.571   6.870  12.060  0.6446  0.9591 -0.1131
  880MOL0     N21319   2.476   6.850  11.950  0.5809 -0.3580 -0.6188
  880MOL0     C21320   2.340   6.828  11.974 -0.3302 -0.6993  0.1028
  880MOL0     C21321   2.290   6.843  11.850 -0.4921 -1.2775 -0.0269
  880MOL0     C21322   2.146   6.829  11.819 -0.0866  0.4504 -0.6518
  880MOL0     C21323   2.107   6.691  11.771 -0.3943 -1.1287  0.4662
  880MOL0     C21324   2.105   6.576  11.865  0.0019  0.9298  0.1121
  880MOL0     C21325   2.001   6.588  11.973 -0.3046 -0.2637  0.0067
  880MOL0     O21326   2.057   6.667  12.079 -0.3959 -0.5279  0.0117
  880MOL0     C21327   1.986   6.666  12.192  0.4041 -0.4224  0.0087
  880MOL0     C21328   2.051   6.725  12.294 -0.4248 -0.1779 -0.4088
  880MOL0     C21329   2.007   6.732  12.423  0.7257 -0.7512  0.5887
  880MOL0     C21330   2.113   6.784  12.521  0.5206  0.6745 -0.2681
  880MOL0     C21331   1.878   6.695  12.450 -0.2135 -0.4686 -0.6688
  880MOL0     C21332   1.819   6.698  12.590  0.7201 -0.0293 -0.2961
  880MOL0     O21333   1.865   6.786  12.683 -0.3204  0.4055  0.3958
  880MOL0     C21334   1.813   6.786  12.809  0.4576  0.7509  0.9710
  880MOL0     C21335   1.902   6.757  12.906  1.2739 -0.2651  0.5088
  880MOL0     C21336   1.859   6.732  13.037  0.0452 -0.6073 -0.5407
  880MOL0     C21337   1.724   6.753  13.066 -0.1784  0.4633  0.1151
  880MOL0     O21338   1.672   6.729  13.188 -0.1145 -0.7835 -0.3803
  880MOL0     C21339   1.749   6.667  13.299 -0.2254  0.0941 -0.4875
  880MOL0     C21340   1.659   6.666  13.424 -0.3327 -0.1410  0.3003
  880MOL0     C21341   1.541   6.570  13.398  0.6506 -0.6411 -0.3622
  880MOL0     C21342   1.574   6.419  13.428  0.0890  0.5305  0.4715
  880MOL0     C21343   1.453   6.317  13.404 -0.3918 -0.2439 -0.0976
  880MOL0     C21344   1.330   6.350  13.491 -0.9052 -0.0215 -1.9379
  880MOL0     C21345   1.232   6.240  13.480  0.6130 -0.7854  0.2421
  880MOL0     C21346   1.199   6.195  13.343  1.2087  0.8934  0.1870
  880MOL0    Cl21347   1.129   6.336  13.258  0.5159  0.2616 -0.0465
  880MOL0     C21348   1.640   6.789  12.965 -0.5955  0.5965  0.1937
  880MOL0     C21349   1.680   6.813  12.837 -0.6289 -0.6918  0.3722
  880MOL0     O21350   1.724   6.626  12.601 -0.2812 -0.6598  0.0360
  880MOL0     C21351   1.795   6.647  12.343 -0.5378  1.2936  0.8408
  880MOL0     C21352   1.857   6.621  12.217  0.3433  0.1464 -0.2672
  880MOL0     N21353   2.395   6.882  11.761 -0.0990  0.8589  0.1001
  880MOL0     N21354   2.509   6.869  11.824 -0.2936  0.1627  0.7092
  880MOL0     C21355   3.296   7.304  11.849  0.7025 -0.0379  1.0338
  880MOL0     C21356   3.420   7.349  11.802 -0.9035  0.1766  0.3078
  880MOL0     C21357   3.626   7.703  11.572  0.7614 -0.7871 -0.7379
  880MOL0     C21358   3.740   7.738  11.649  0.0772  0.1743 -0.6357
  880MOL0     C21359   3.817   7.852  11.618  1.4986  0.3758  0.4661
  880MOL0     C21360   3.782   7.930  11.507  0.3372 -1.1451  0.4022
  880MOL0     O21361   3.857   8.047  11.474  0.2964  0.7639  0.2284
  880MOL0     C21362   3.866   8.060  11.330  0.1997  0.7998 -0.5380
  880MOL0     C21363   3.902   7.929  11.251  0.2172  1.1412  1.2011
  880MOL0     C21364   3.893   7.958  11.097  0.2434 -0.2457  0.5230
  880MOL0     C21365   4.022   8.006  11.016 -0.2828 -0.0393 -0.1890
  880MOL0     C21366   4.048   8.143  11.064 -0.0131 -0.1627 -0.4230
  880MOL0     C21367   4.085   8.255  11.103  0.1450 -0.6958 -0.6398
  880MOL0     C21368   3.671   7.899  11.434  0.5305  1.1620  0.0473
  880MOL0     C21369   3.588   7.791  11.472 -0.6561  0.3850  0.6236
  880MOL0     C21370   3.464   7.765  11.387 -0.0101 -0.7686  0.1605
  880MOL0     H21371   3.408   7.677  11.895  2.4845  0.8007 -6.6781
  880MOL0     H21372   3.181   7.604  11.981  0.0333  0.5865 -0.1677
  880MOL0     H21373   2.941   7.482  11.895  0.6855 -1.4783 -1.4678
  880MOL0     H21374   2.988   7.477  12.063  0.7255 -1.8693 -0.3412
  880MOL0     H21375   2.762   7.411  12.056 -1.5410 -0.4908 -0.0573
  880MOL0     H21376   2.780   7.303  11.916 -2.1591  2.6199  0.3050
  880MOL0     H21377   2.906   7.150  12.047 -0.1303  0.2662  0.3304
  880MOL0     H21378   2.911   7.266  12.184 -1.3993  0.9365  0.0386
  880MOL0     H21379   2.691   7.254  12.228  1.7892  1.5086  0.5160
  880MOL0     H21380   2.649   7.157  12.083 -0.4672 -0.4599  1.6206
  880MOL0     H21381   2.827   7.079  12.320  1.5719  1.7323 -2.0494
  880MOL0     H21382   2.800   6.984  12.166 -1.4505 -1.5412  0.6464
  880MOL0     H21383   2.653   6.894  12.342  0.1819 -1.2349 -3.0233
  880MOL0     H21384   2.586   7.056  12.359 -0.2525 -0.7688  0.3866
  880MOL0     H21385   2.490   7.063  12.136 -0.2425 -0.7677  0.4367
  880MOL0     H21386   2.423   6.938  12.224 -0.6247 -0.2720 -0.7967
  880MOL0     H21387   2.658   6.918  12.014  0.9962  0.5337  0.1032
  880MOL0     H21388   2.609   6.772  12.089  2.1436  1.5696  0.0887
  880MOL0     H21389   2.279   6.806  12.061 -0.9128 -1.3502 -0.4520
  880MOL0     H21390   2.119   6.908  11.748  4.0738  2.2834 -0.5019
  880MOL0     H21391   2.088   6.847  11.911  0.5426  0.3258 -0.2248
  880MOL0     H21392   2.008   6.711  11.730 -0.3535  1.3754  1.3952
  880MOL0     H21393   2.174   6.662  11.689 -1.9438 -0.9950 -0.8875
  880MOL0     H21394   2.073   6.484  11.814 -0.6461  1.3436 -0.2439
  880MOL0     H21395   2.205   6.563  11.906  0.9912  1.0931 -2.1054
  880MOL0     H21396   1.909   6.633  11.936 -0.2527 -0.8364 -0.8623
  880MOL0     H21397   1.987   6.489  12.017  1.8268 -1.1459 -1.0897
  880MOL0     H21398   2.151   6.765  12.277 -0.6539  1.2020  1.2513
  880MOL0     H21399   2.120   6.726  12.614 -1.7161 -1.2321 -1.2024
  880MOL0     H21400   2.080   6.886  12.543  0.2429  1.1216 -2.5301
  880MOL0     H21401   2.212   6.773  12.475  0.3192  0.6477 -0.6979
  880MOL0     H21402   2.002   6.745  12.865  1.4171  0.4350  0.6352
  880MOL0     H21403   1.931   6.708  13.115 -1.3883 -2.5816  0.2745
  880MOL0     H21404   1.789   6.569  13.269  4.1049  1.5128 -0.0080
  880MOL0     H21405   1.840   6.719  13.328 -0.1254 -1.0229  1.3838
  880MOL0     H21406   1.724   6.640  13.508  0.5667 -3.9226 -1.3650
  880MOL0     H21407   1.622   6.769  13.436  2.2462  0.8638  0.3417
  880MOL0     H21408   1.493   6.590  13.301 -0.4243  0.0317  0.2799
  880MOL0     H21409   1.458   6.585  13.467  1.4466 -0.8879  0.6738
  880MOL0     H21410   1.616   6.407  13.528 -0.2229 -1.7396  0.3682
  880MOL0     H21411   1.646   6.380  13.356  0.1298  2.0932 -0.3683
  880MOL0     H21412   1.422   6.318  13.299  1.9298  4.0523 -0.9677
  880MOL0     H21413   1.496   6.218  13.421 -4.0173 -2.2446 -1.5084
  880MOL0     H21414   1.290   6.449  13.465 -1.0878 -0.2087 -2.3830
  880MOL0     H21415   1.369   6.353  13.593  1.3402  1.3363 -2.7655
  880MOL0     H21416   1.139   6.264  13.534  2.6862  1.9277  3.0118
  880MOL0     H21417   1.263   6.144  13.523 -2.3109 -2.0491 -0.2000
  880MOL0     H21418   1.117   6.123  13.349 -0.3694  2.6575  0.5039
  880MOL0     H21419   1.270   6.132  13.288  0.4468  0.3065 -0.1423
  880MOL0     H21420   1.533   6.802  12.976 -0.2200  2.2644  2.4769
  880MOL0     H21421   1.612   6.822  12.754  1.4963 -0.4102 -1.4304
  880MOL0     H21422   1.694   6.628  12.379  0.0703  0.7339  2.3314
  880MOL0     H21423   1.802   6.565  12.141 -2.1949  4.0536 -1.6315
  880MOL0     H21424   3.251   7.206  11.849  0.4323  0.0608 -0.2098
  880MOL0     H21425   3.471   7.273  11.744 -0.7216  0.8192 -0.3918
  880MOL0     H21426   3.784   7.678  11.729 -1.2313  1.9175  1.5065
  880MOL0     H21427   3.903   7.876  11.679 -0.3023 -0.3331  3.5141
  880MOL0     H21428   3.772   8.106  11.299 -1.5217  0.4234  3.5166
  880MOL0     H21429   3.949   8.130  11.317  1.9987 -0.4602  2.8173
  880MOL0     H21430   3.835   7.843  11.261  1.3428  0.2510  1.3184
  880MOL0     H21431   3.995   7.877  11.276 -0.1129  0.4372  0.9884
  880MOL0     H21432   3.853   7.870  11.046  0.6521 -0.0951 -0.0744
  880MOL0     H21433   3.820   8.039  11.086  2.3884  1.4402 -3.3451
  880MOL0     H21434   4.016   8.019  10.908  1.5569  1.9309 -0.1365
  880MOL0     H21435   4.106   7.940  11.037 -0.1936 -0.1817 -0.9659
  880MOL0     H21436   4.115   8.357  11.115 -3.1073  0.4755 -1.3728
  880MOL0     H21437   3.631   7.965  11.358 -1.1662  1.9647  1.5701
  880MOL0     H21438   3.373   7.793  11.441  1.2169 -0.8435  2.3777
  880MOL0     H21439   3.451   7.822  11.294 -5.0391 -4.3091 -1.7622
  880MOL0     H21440   3.467   7.663  11.348  0.8849 -0.2424 -1.2200
  881MOL0     O21441   9.880   6.225  10.209  0.7492 -0.6070 -0.0970
  881MOL0     C21442   9.932   6.310  10.276  0.0944  0.0822  0.1890
  881MOL0     O21443   9.940   6.308  10.410 -0.2509  0.0560 -0.8385
  881MOL0     C21444   9.881   6.211  10.491  0.7195 -0.8969  0.6660
  881MOL0     C21445   9.758   6.148  10.465 -0.4496 -0.0052  0.4951
  881MOL0     C21446   9.717   6.047  10.548 -0.5482  0.5423 -0.5367
  881MOL0     C21447   9.793   6.006  10.659  0.3726  0.5150  0.3347
  881MOL0     O21448   9.746   5.908  10.743  0.0482 -0.1643  1.3035
  881MOL0     C21449   9.706   5.960  10.865 -0.5525 -0.1141  0.3867
  881MOL0     C21450   9.556   6.000  10.878 -0.4169  0.6448  0.8066
  881MOL0     C21451   9.539   6.137  10.942 -0.3849  0.7078  0.3940
  881MOL0     C21452   9.397   6.179  10.926  0.3542  0.6674 -0.0904
  881MOL0     C21453   9.354   6.309  11.000 -1.1931 -0.0281  0.0698
  881MOL0     C21454   9.218   6.377  10.950 -0.8790 -0.2854  0.1412
  881MOL0     C21455   9.092   6.293  10.989  0.7426  0.1750  0.0629
  881MOL0     C21456   8.976   6.331  10.883 -0.8409  0.6953 -0.5793
  881MOL0     N21457   8.970   6.474  10.857  0.0959 -0.4203 -0.4631
  881MOL0     C21458   8.907   6.562  10.942 -1.0161 -0.2557 -0.6818
  881MOL0     C21459   8.929   6.684  10.884  0.2951 -0.7349 -0.2560
  881MOL0     C21460   8.873   6.822  10.919  0.7005 -0.0973  0.1521
  881MOL0     C21461   8.829   6.898  10.788 -0.1358  0.1705 -0.3819
  881MOL0     C21462   8.936   6.981  10.714 -0.4264  0.6234 -0.5708
  881MOL0     C21463   8.873   7.102  10.631  0.8594 -0.1975  0.3799
  881MOL0     O21464   8.838   7.062  10.497 -0.6288 -0.4207 -0.2243
  881MOL0     C21465   8.774   7.158  10.426  0.3258  0.3553  0.5899
  881MOL0     C21466   8.734   7.289  10.456  0.9183  0.0660  0.4039
  881MOL0     C21467   8.675   7.367  10.361 -0.3139  0.4798 -0.1073
  881MOL0     C21468   8.623   7.492  10.414 -0.2844 -1.2890  0.1405
  881MOL0     C21469   8.654   7.318  10.230 -0.1568 -0.4349  0.6236
  881MOL0     C21470   8.607   7.409  10.115  0.6640  0.2165 -0.8228
  881MOL0     O21471   8.579   7.347   9.997  0.5156  0.3824 -0.0808
  881MOL0     C21472   8.530   7.411   9.890  0.3136 -0.9776  0.3160
  881MOL0     C21473   8.574   7.378   9.759 -0.0625  0.5532 -1.4197
  881MOL0     C21474   8.542   7.443   9.643  0.1786  1.4369  0.5895
  881MOL0     C21475   8.458   7.552   9.649 -0.6322  0.0552  0.5398
  881MOL0     O21476   8.416   7.620   9.533  0.2247  0.5794 -0.2933
  881MOL0     C21477   8.435   7.554   9.406  0.2335 -0.9410  0.4380
  881MOL0     C21478   8.360   7.618   9.287  0.9364  0.0589 -0.6580
  881MOL0     C21479   8.206   7.648   9.286 -0.0297  0.2804  0.4228
  881MOL0     C21480   8.131   7.520   9.268 -0.0322 -1.3661 -0.2340
  881MOL0     C21481   8.127   7.478   9.123 -0.1168 -0.1567 -0.1085
  881MOL0     C21482   8.019   7.369   9.123  0.8492 -0.3940 -0.7066
  881MOL0     C21483   7.979   7.293   8.994  0.2737 -0.4698 -0.7498
  881MOL0     C21484   8.097   7.216   8.937  0.6626  0.9920  0.0107
  881MOL0    Cl21485   8.223   7.307   8.846  0.3787 -0.0984 -0.4220
  881MOL0     C21486   8.404   7.589   9.772 -0.0321  0.2968 -0.4659
  881MOL0     C21487   8.437   7.528   9.893  1.5381  0.7056  0.1620
  881MOL0     O21488   8.599   7.530  10.138 -0.3482 -0.0646 -0.2605
  881MOL0     C21489   8.680   7.184  10.201 -0.7959  0.3275  0.8202
  881MOL0     C21490   8.747   7.106  10.293  0.2571  0.6630  0.1652
  881MOL0     N21491   9.001   6.670  10.773 -0.6852  0.5969  0.1546
  881MOL0     N21492   9.016   6.543  10.753  0.5377  0.7199  0.1447
  881MOL0     C21493   9.904   6.069  10.691 -0.6367  0.0295  0.3724
  881MOL0     C21494   9.952   6.179  10.606 -0.0413  1.4042  0.2886
  881MOL0     C21495   9.990   6.426  10.214  0.2961 -0.1363 -0.5121
  881MOL0     C21496   9.918   6.476  10.105 -0.2498  0.0529 -0.1344
  881MOL0     C21497   9.964   6.558  10.008  0.1187  0.4733 -0.0625
  881MOL0     C21498  10.086   6.611  10.029 -0.2210  0.7743 -0.7123
  881MOL0     O21499  10.136   6.697   9.945  0.1654  0.2003  1.3076
  881MOL0     C21500  10.064   6.756   9.829  0.0853 -1.0766 -0.1081
  881MOL0     C21501  10.161   6.871   9.793  1.0476 -1.5411  0.0217
  881MOL0     C21502  10.201   6.966   9.908 -0.1893 -0.4116  0.3256
  881MOL0     C21503  10.081   7.038   9.967  1.0764 -0.1408 -0.6199
  881MOL0     C21504  10.116   7.149  10.061  0.4625  0.1698 -0.5425
  881MOL0     C21505  10.139   7.242  10.133  0.2488 -1.0671 -0.1519
  881MOL0     C21506  10.169   6.563  10.138  0.0408  0.2071 -0.3130
  881MOL0     C21507  10.124   6.468  10.229 -0.0726 -0.5226  0.3413
  881MOL0     C21508  10.226   6.391  10.316  0.2313 -0.1333 -0.2782
  881MOL0     H21509   9.706   6.173  10.374 -2.4700 -0.7908  1.3813
  881MOL0     H21510   9.618   6.004  10.531  1.2842 -5.8660  1.8390
  881MOL0     H21511   9.765   6.049  10.891  1.1014 -1.1198  0.1821
  881MOL0     H21512   9.733   5.893  10.947  3.5531  0.4964 -0.2693
  881MOL0     H21513   9.515   5.998  10.777  0.6660 -0.3772  0.3604
  881MOL0     H21514   9.507   5.921  10.937  0.7192 -1.3793 -0.8071
  881MOL0     H21515   9.576   6.134  11.044 -2.2169 -0.8511  1.0772
  881MOL0     H21516   9.597   6.201  10.875 -0.3171  1.0879  0.8141
  881MOL0     H21517   9.365   6.183  10.821 -2.4437  2.6271  0.7395
  881MOL0     H21518   9.343   6.092  10.965  2.0000 -0.6357 -0.5596
  881MOL0     H21519   9.440   6.373  10.984 -0.4043 -0.8662  0.8660
  881MOL0     H21520   9.344   6.273  11.103 -0.8264 -2.6592 -0.7376
  881MOL0     H21521   9.210   6.482  10.979  1.5296 -0.6925  2.6774
  881MOL0     H21522   9.219   6.381  10.840  3.0150  1.6936  0.0821
  881MOL0     H21523   9.062   6.328  11.088 -0.7460 -0.1530 -0.2424
  881MOL0     H21524   9.114   6.186  10.990  1.6206  0.3490  1.0594
  881MOL0     H21525   8.999   6.271  10.794 -1.2160 -0.5742  0.1433
  881MOL0     H21526   8.878   6.302  10.922 -0.3542  0.0224  0.1924
  881MOL0     H21527   8.853   6.557  11.037 -1.1916 -0.7840 -0.8052
  881MOL0     H21528   8.942   6.882  10.980  1.1950 -0.0784 -0.4126
  881MOL0     H21529   8.779   6.824  10.975  0.6350  2.3436  0.0666
  881MOL0     H21530   8.788   6.833  10.711 -0.9612  0.5442 -0.2681
  881MOL0     H21531   8.754   6.967  10.827 -0.1173 -0.6634  1.2358
  881MOL0     H21532   9.011   7.014  10.786 -1.6107  0.9784  0.5262
  881MOL0     H21533   8.982   6.919  10.637 -2.2686 -1.6096  0.0332
  881MOL0     H21534   8.784   7.135  10.686  1.3537 -1.4219  2.0170
  881MOL0     H21535   8.939   7.190  10.634  1.1226 -0.2872 -1.5327
  881MOL0     H21536   8.738   7.329  10.557 -1.6636 -0.1615  0.6734
  881MOL0     H21537   8.614   7.498  10.523 -0.2120 -1.6473  0.1659
  881MOL0     H21538   8.528   7.526  10.372  1.0733  0.6075 -1.5882
  881MOL0     H21539   8.698   7.569  10.394 -0.2503 -1.1956  0.6185
  881MOL0     H21540   8.639   7.291   9.753 -2.1650 -1.0145 -4.0424
  881MOL0     H21541   8.592   7.408   9.553 -2.4985 -0.4812 -0.2546
  881MOL0     H21542   8.540   7.554   9.377  0.8584 -1.6929  2.5425
  881MOL0     H21543   8.411   7.448   9.417 -0.1719 -1.0202 -1.0065
  881MOL0     H21544   8.415   7.711   9.272  2.4948 -0.5211  1.0346
  881MOL0     H21545   8.383   7.560   9.198  0.7359 -0.7963 -0.1700
  881MOL0     H21546   8.168   7.723   9.215  0.4070  0.6618  0.5824
  881MOL0     H21547   8.185   7.679   9.389 -2.6685 -3.3952  1.1856
  881MOL0     H21548   8.029   7.538   9.303 -0.4180  0.3835 -2.0710
  881MOL0     H21549   8.167   7.444   9.337  0.5189 -1.8929 -1.0712
  881MOL0     H21550   8.098   7.551   9.047  2.7031  0.5041 -0.6861
  881MOL0     H21551   8.226   7.449   9.085 -1.1412 -2.6117 -1.1532
  881MOL0     H21552   7.924   7.413   9.153  0.4207 -0.2689 -2.1758
  881MOL0     H21553   8.045   7.296   9.200  1.2819  1.8816  1.4442
  881MOL0     H21554   7.936   7.352   8.913  0.8682  1.1168  0.0590
  881MOL0     H21555   7.900   7.226   9.029 -0.7397  1.2730  0.4513
  881MOL0     H21556   8.047   7.153   8.864 -1.3545  0.4095  1.7947
  881MOL0     H21557   8.133   7.159   9.024  1.9543 -0.5207 -1.4503
  881MOL0     H21558   8.338   7.675   9.773  0.5275  1.0135  4.9874
  881MOL0     H21559   8.379   7.550   9.981  0.7788  0.1938 -0.1951
  881MOL0     H21560   8.671   7.144  10.100  0.6276 -0.7126  1.0748
  881MOL0     H21561   8.798   7.016  10.259 -1.1407 -0.0090 -0.2560
  881MOL0     H21562   9.959   6.039  10.779 -1.9832 -2.6581  0.4039
  881MOL0     H21563  10.044   6.233  10.625  0.3799  1.0644 -0.6774
  881MOL0     H21564   9.831   6.415  10.081 -1.4207  1.0068  1.4802
  881MOL0     H21565   9.915   6.593   9.918  3.9866  2.2336 -1.6955
  881MOL0     H21566  10.048   6.684   9.748  0.4798 -0.5810 -0.6344
  881MOL0     H21567   9.967   6.796   9.860  0.7580  1.1697 -0.6958
  881MOL0     H21568  10.120   6.923   9.706  0.0469  1.5216  2.1570
  881MOL0     H21569  10.254   6.828   9.753  1.8150 -1.5937  1.7568
  881MOL0     H21570  10.258   6.907   9.981  0.5593  0.2739  0.3012
  881MOL0     H21571  10.272   7.039   9.870  0.7058 -0.2897  2.1063
  881MOL0     H21572  10.010   6.969  10.014  0.3654  2.3323  2.3164
  881MOL0     H21573  10.022   7.091   9.892  1.8384 -0.0848 -1.1817
  881MOL0     H21574  10.169   7.323  10.197 -0.6490 -0.9084  0.0905
  881MOL0     H21575  10.263   6.616  10.146 -1.3248  2.5733  1.2002
  881MOL0     H21576  10.257   6.455  10.399  0.8399  1.0262 -1.3707
  881MOL0     H21577  10.204   6.285  10.336  0.0160  0.3462  2.4627
  881MOL0     H21578  10.308   6.366  10.248 -2.1505 -3.1875 -2.3430
  882MOL0     O21579   6.414   7.409   1.340  2.0445  0.1054 -0.3013
  882MOL0     C21580   6.340   7.484   1.404  0.7568  1.0013 -0.3448
  882MOL0     O21581   6.372   7.624   1.417  0.2324  0.5428  0.1426
  882MOL0     C21582   6.440   7.672   1.317 -1.3891 -0.2225  0.2440
  882MOL0     C21583   6.542   7.753   1.356 -0.4944 -0.0335 -0.5704
  882MOL0     C21584   6.621   7.813   1.251  0.4564 -0.7336  0.0607
  882MOL0     C21585   6.599   7.775   1.118 -0.0852  0.6357 -0.4180
  882MOL0     O21586   6.699   7.807   1.033 -0.2021  0.2623 -0.3202
  882MOL0     C21587   6.766   7.687   0.976 -0.0685 -0.1953 -1.0502
  882MOL0     C21588   6.889   7.709   0.893  0.3354 -0.1009  1.4814
  882MOL0     C21589   6.866   7.804   0.779 -0.6384  0.0777 -0.0907
  882MOL0     C21590   6.981   7.868   0.716 -0.2206 -0.4359 -0.4270
  882MOL0     C21591   6.937   7.930   0.574 -0.5529  0.3666 -0.9728
  882MOL0     C21592   7.060   7.988   0.512 -0.2844  0.5897  0.1192
  882MOL0     C21593   7.121   8.092   0.605  0.3882 -1.3064  0.1848
  882MOL0     C21594   7.195   8.200   0.534 -0.3298 -0.6948  0.8601
  882MOL0     N21595   7.119   8.263   0.431  0.7963 -0.1016  0.6081
  882MOL0     C21596   6.995   8.326   0.436  1.0187  0.3648  0.7779
  882MOL0     C21597   6.989   8.396   0.320 -0.0381  0.4109  0.3221
  882MOL0     C21598   6.869   8.487   0.271 -0.1918  0.1606 -0.1753
  882MOL0     C21599   6.776   8.410   0.180 -0.1796  0.7639 -0.0464
  882MOL0     C21600   6.646   8.474   0.135 -0.2961  0.7913  1.3948
  882MOL0     C21601   6.569   8.369   0.047 -0.0233  0.4811 -0.6790
  882MOL0     O21602   6.504   8.264   0.122 -0.8802 -0.2916  0.1881
  882MOL0     C21603   6.425   8.182   0.056  0.1695  0.0971 -0.5347
  882MOL0     C21604   6.385   8.072   0.128  0.8229  0.4575  0.4180
  882MOL0     C21605   6.310   7.964   0.062 -0.1624 -0.8567 -0.1946
  882MOL0     C21606   6.264   7.846   0.149 -0.4396  0.7363 -0.5701
  882MOL0     C21607   6.284   7.972  -0.073 -0.6203  0.0689 -0.1000
  882MOL0     C21608   6.223   7.870  -0.156 -1.2069 -0.2236 -0.1524
  882MOL0     O21609   6.318   7.826  -0.247  0.6564 -0.3283  0.6598
  882MOL0     C21610   6.287   7.718  -0.323 -0.3970 -0.1661  0.0302
  882MOL0     C21611   6.227   7.737  -0.448 -0.7981 -0.8531  0.1149
  882MOL0     C21612   6.194   7.635  -0.537 -0.3112 -0.0451 -0.1800
  882MOL0     C21613   6.204   7.498  -0.486  0.2061  0.1827 -0.2211
  882MOL0     O21614   6.152   7.390  -0.559 -0.1391 -0.3644  0.0252
  882MOL0     C21615   6.190   7.389  -0.700  0.2450 -0.2108  0.0113
  882MOL0     C21616   6.207   7.242  -0.731  0.6449  1.2713  1.6317
  882MOL0     C21617   6.309   7.179  -0.630 -0.0570 -0.1343 -0.0412
  882MOL0     C21618   6.341   7.037  -0.686 -0.6865 -0.6778 -0.0145
  882MOL0     C21619   6.406   6.946  -0.579  0.1239 -0.2946 -0.1586
  882MOL0     C21620   6.455   6.813  -0.630 -0.0007  0.3927 -0.5253
  882MOL0     C21621   6.357   6.714  -0.691 -0.5079  0.7015  0.3332
  882MOL0     C21622   6.248   6.667  -0.590 -0.3516 -0.1881  0.1444
  882MOL0    Cl21623   6.172   6.512  -0.640 -0.1775  0.0723  0.0152
  882MOL0     C21624   6.263   7.472  -0.360  0.0300 -0.1972 -1.2856
  882MOL0     C21625   6.305   7.584  -0.280  0.4732 -0.3136 -0.1214
  882MOL0     O21626   6.125   7.810  -0.121 -0.2303 -0.4508  0.3811
  882MOL0     C21627   6.332   8.088  -0.141  0.6804  0.3690  0.2199
  882MOL0     C21628   6.392   8.193  -0.077 -0.0074 -0.3582  0.5151
  882MOL0     N21629   7.104   8.375   0.253  0.1163 -0.3248 -0.3344
  882MOL0     N21630   7.173   8.282   0.307  0.5091  0.0354 -0.2523
  882MOL0     C21631   6.488   7.692   1.080  0.1396 -0.2669  0.4266
  882MOL0     C21632   6.404   7.656   1.183 -1.2357 -0.0104  0.1949
  882MOL0     C21633   6.235   7.431   1.487 -0.1454  0.6861 -0.6701
  882MOL0     C21634   6.215   7.493   1.609 -0.3882 -0.2328  0.1659
  882MOL0     C21635   6.105   7.449   1.687  0.4013  0.0378 -0.1244
  882MOL0     C21636   6.020   7.337   1.654  0.8644 -0.0107  0.2599
  882MOL0     O21637   5.911   7.312   1.732  0.2788  0.2333 -0.1219
  882MOL0     C21638   5.809   7.229   1.673 -0.1300  0.7572 -0.2475
  882MOL0     C21639   5.694   7.250   1.780  0.7809 -0.2303  0.3104
  882MOL0     C21640   5.590   7.138   1.776  0.4967  0.3969 -0.6405
  882MOL0     C21641   5.485   7.155   1.892  0.6628 -0.3557  0.2546
  882MOL0     C21642   5.379   7.054   1.882  0.1998 -0.9743 -0.3737
  882MOL0     C21643   5.297   6.968   1.881 -0.4361 -0.7906  0.4971
  882MOL0     C21644   6.053   7.275   1.536 -0.9826  0.1294  0.1361
  882MOL0     C21645   6.157   7.315   1.449  0.0415 -1.0069 -0.0095
  882MOL0     C21646   6.174   7.252   1.313  0.0195 -0.0200  0.5694
  882MOL0     H21647   6.565   7.769   1.460 -1.4318 -2.6052  0.1221
  882MOL0     H21648   6.705   7.877   1.273 -0.7475  1.2551 -0.8805
  882MOL0     H21649   6.700   7.626   0.913 -0.0991  0.5708 -1.7754
  882MOL0     H21650   6.799   7.628   1.063  0.9578  2.7953  0.7471
  882MOL0     H21651   6.976   7.744   0.948  2.8968 -1.9670 -1.0877
  882MOL0     H21652   6.910   7.607   0.860 -0.1616  0.3928 -0.5307
  882MOL0     H21653   6.818   7.752   0.695 -0.6352  0.1538 -0.1392
  882MOL0     H21654   6.809   7.890   0.815  0.1225  0.2355  0.7797
  882MOL0     H21655   7.031   7.940   0.782  0.5447 -1.3293 -0.0154
  882MOL0     H21656   7.057   7.796   0.684 -1.4400 -1.3973 -1.2584
  882MOL0     H21657   6.855   8.000   0.595 -0.8106  0.5235 -2.4377
  882MOL0     H21658   6.894   7.856   0.507 -2.5093  0.0135  0.5895
  882MOL0     H21659   7.129   7.906   0.494 -2.3137 -0.8490 -1.6139
  882MOL0     H21660   7.041   8.032   0.414  0.0378  2.0508  0.6756
  882MOL0     H21661   7.189   8.041   0.674 -1.0030  0.7634  3.3306
  882MOL0     H21662   7.044   8.144   0.662  2.2764  0.4237  1.2675
  882MOL0     H21663   7.201   8.276   0.613 -0.1716 -0.9002  1.0434
  882MOL0     H21664   7.287   8.164   0.488 -1.0437  1.4613 -2.6831
  882MOL0     H21665   6.937   8.331   0.528 -0.7791  1.2502 -0.3346
  882MOL0     H21666   6.914   8.572   0.220  1.2570 -0.2584  0.3515
  882MOL0     H21667   6.806   8.516   0.356  0.2682 -1.6818  0.8630
  882MOL0     H21668   6.819   8.363   0.091 -0.3751 -4.8676  2.3743
  882MOL0     H21669   6.739   8.320   0.230  1.4535 -1.5977 -2.7644
  882MOL0     H21670   6.573   8.499   0.213 -0.9850  0.3536  0.9043
  882MOL0     H21671   6.670   8.564   0.077 -1.6457 -1.3772 -2.9393
  882MOL0     H21672   6.494   8.427  -0.007 -0.0592  0.1116 -1.0377
  882MOL0     H21673   6.643   8.331  -0.025  1.7437 -2.2089  2.2802
  882MOL0     H21674   6.413   8.069   0.233  0.2176 -0.0864  0.5738
  882MOL0     H21675   6.327   7.757   0.138 -1.5377 -0.1712  0.3020
  882MOL0     H21676   6.160   7.814   0.145 -0.0766 -0.4044 -3.5471
  882MOL0     H21677   6.263   7.873   0.255 -0.6602  3.0404 -1.1075
  882MOL0     H21678   6.215   7.841  -0.478  0.0698 -1.3201 -2.0648
  882MOL0     H21679   6.161   7.662  -0.637 -0.0853  0.0739 -0.2217
  882MOL0     H21680   6.103   7.424  -0.756 -0.3782 -1.6514  0.0191
  882MOL0     H21681   6.279   7.448  -0.721  2.3237 -2.7462  1.1525
  882MOL0     H21682   6.104   7.205  -0.738  0.1418  2.9388 -3.5552
  882MOL0     H21683   6.257   7.249  -0.827 -0.1960  1.7966  1.2151
  882MOL0     H21684   6.265   7.183  -0.530 -0.0842 -0.8008 -0.0250
  882MOL0     H21685   6.406   7.228  -0.641  0.4537 -0.6721  1.6884
  882MOL0     H21686   6.412   7.059  -0.766 -0.4741  4.1279  1.1769
  882MOL0     H21687   6.250   6.992  -0.728 -0.1131 -0.5462 -1.4619
  882MOL0     H21688   6.483   7.008  -0.533 -1.3833  0.3847  1.6239
  882MOL0     H21689   6.329   6.927  -0.503 -0.8159  2.3610 -0.3167
  882MOL0     H21690   6.498   6.752  -0.549  0.4456 -0.7806 -1.6027
  882MOL0     H21691   6.538   6.837  -0.696  2.1241  1.1145  2.2036
  882MOL0     H21692   6.413   6.627  -0.726 -0.5241  1.2969 -1.2294
  882MOL0     H21693   6.311   6.763  -0.777 -2.3097  2.6363  2.2706
  882MOL0     H21694   6.174   6.743  -0.566 -1.4026 -0.9547 -0.5508
  882MOL0     H21695   6.306   6.630  -0.505 -1.4183  2.7732  2.3114
  882MOL0     H21696   6.272   7.374  -0.315 -3.6626 -0.1405 -0.0885
  882MOL0     H21697   6.346   7.586  -0.179  1.2390 -0.4343 -0.4182
  882MOL0     H21698   6.317   8.096  -0.248  2.8992 -3.7829 -0.6505
  882MOL0     H21699   6.414   8.280  -0.138 -3.4817  0.5632  0.3221
  882MOL0     H21700   6.472   7.661   0.977 -0.5506 -1.4580  0.8692
  882MOL0     H21701   6.314   7.602   1.157  0.2786 -2.3066 -0.5719
  882MOL0     H21702   6.254   7.592   1.633  0.7336 -0.8183  0.8276
  882MOL0     H21703   6.080   7.497   1.780 -0.1303 -0.5262  0.0322
  882MOL0     H21704   5.784   7.266   1.574  1.6888 -0.0811 -1.0714
  882MOL0     H21705   5.840   7.125   1.665  1.8799  0.9544  3.0346
  882MOL0     H21706   5.646   7.349   1.776 -3.2499 -2.0137 -1.3563
  882MOL0     H21707   5.740   7.252   1.880 -0.7990  0.5185  1.0655
  882MOL0     H21708   5.532   7.130   1.684 -2.0003 -1.4831  0.9592
  882MOL0     H21709   5.631   7.037   1.787 -3.2415 -1.0676  2.1701
  882MOL0     H21710   5.432   7.250   1.883 -0.6876 -0.6024  3.8530
  882MOL0     H21711   5.545   7.141   1.982  2.1177 -3.2996 -1.0436
  882MOL0     H21712   5.244   6.877   1.861 -1.0547 -0.2401 -0.4940
  882MOL0     H21713   6.004   7.183   1.507 -1.8501  0.6709 -0.1852
  882MOL0     H21714   6.186   7.327   1.234  1.3429 -1.3910 -0.6113
  882MOL0     H21715   6.245   7.169   1.310  0.1335  0.0412  1.4038
  882MOL0     H21716   6.080   7.200   1.296  1.3694 -2.4171 -0.1740
  883MOL0     O21717   9.072   5.580   5.561  0.6294 -0.7702  0.4864
  883MOL0     C21718   8.997   5.641   5.638 -0.2973 -0.4703  1.2437
  883MOL0     O21719   8.964   5.600   5.758 -0.5758 -0.3801  0.4121
  883MOL0     C21720   9.022   5.486   5.792 -0.2008  1.5546 -0.3566
  883MOL0     C21721   9.119   5.491   5.891  0.6719  0.6840 -0.0862
  883MOL0     C21722   9.149   5.369   5.954  0.5808  0.4742  0.6803
  883MOL0     C21723   9.090   5.250   5.915 -0.7402 -0.2767 -0.3337
  883MOL0     O21724   9.146   5.139   5.981  0.2822 -0.1679  0.1326
  883MOL0     C21725   9.076   5.111   6.107  1.0801 -0.3013 -0.3616
  883MOL0     C21726   8.957   5.012   6.091  0.0050  0.4529  1.8758
  883MOL0     C21727   8.912   4.954   6.226 -0.3594 -0.6078 -0.9621
  883MOL0     C21728   8.784   4.858   6.214 -0.0661  1.2076 -0.7712
  883MOL0     C21729   8.806   4.711   6.261 -0.4488 -0.5367  0.2260
  883MOL0     C21730   8.908   4.632   6.187 -0.1742 -0.2320  0.0179
  883MOL0     C21731   8.923   4.486   6.220 -0.5942 -0.1188 -1.1285
  883MOL0     C21732   8.799   4.407   6.268 -0.0067 -0.2310  0.1529
  883MOL0     N21733   8.823   4.264   6.267  0.9513  0.0905 -0.3292
  883MOL0     C21734   8.865   4.204   6.384 -0.0953 -0.0532 -0.2260
  883MOL0     C21735   8.868   4.074   6.362 -0.0539  0.2871 -0.6518
  883MOL0     C21736   8.931   3.967   6.456  1.3719 -0.2133  0.0532
  883MOL0     C21737   9.058   3.918   6.409 -0.6174 -0.3087 -0.6888
  883MOL0     C21738   9.127   3.822   6.510 -0.3810 -0.5197  0.1003
  883MOL0     C21739   9.259   3.767   6.441 -0.5659  0.1824  0.0231
  883MOL0     O21740   9.343   3.688   6.528  0.6762  0.1833  0.3994
  883MOL0     C21741   9.294   3.567   6.561  1.1619  0.9243  0.1991
  883MOL0     C21742   9.173   3.498   6.512  0.0359  0.2291 -1.2453
  883MOL0     C21743   9.134   3.378   6.557  0.2880  0.1671  1.5386
  883MOL0     C21744   9.005   3.333   6.489 -0.2964  0.3491 -0.0975
  883MOL0     C21745   9.199   3.310   6.668  0.1684 -0.1298 -0.1798
  883MOL0     C21746   9.155   3.184   6.739  0.5606 -0.9300  0.0310
  883MOL0     O21747   9.193   3.185   6.872  0.1515  0.4661  0.2336
  883MOL0     C21748   9.191   3.059   6.945  0.2362 -0.6476 -0.5632
  883MOL0     C21749   9.119   3.055   7.068 -0.0550 -0.4347 -0.4068
  883MOL0     C21750   9.133   2.940   7.148  0.0882 -0.5375 -0.3373
  883MOL0     C21751   9.230   2.844   7.123 -0.3478  0.1180 -0.3674
  883MOL0     O21752   9.239   2.728   7.198 -0.7939  0.9772  0.0239
  883MOL0     C21753   9.153   2.701   7.314 -0.8604 -0.2635  1.3063
  883MOL0     C21754   9.156   2.547   7.352  0.6889 -0.2073  0.1076
  883MOL0     C21755   9.106   2.460   7.229  1.4080 -0.0230  0.0603
  883MOL0     C21756   9.203   2.440   7.119  0.1212 -0.3481 -0.1414
  883MOL0     C21757   9.179   2.315   7.043  0.0021  0.3727 -0.0170
  883MOL0     C21758   9.050   2.328   6.964 -0.1206 -0.3675 -0.1985
  883MOL0     C21759   9.029   2.198   6.877 -0.4186 -0.9290  0.1337
  883MOL0     C21760   9.153   2.144   6.812  0.8085 -0.1019  0.1432
  883MOL0    Cl21761   9.239   2.248   6.692  0.4551  0.1681 -0.2334
  883MOL0     C21762   9.304   2.851   7.010 -1.0570 -0.4293  0.8300
  883MOL0     C21763   9.283   2.953   6.917  0.1153  0.0144  0.0540
  883MOL0     O21764   9.127   3.088   6.669 -0.3124 -0.3292  0.4846
  883MOL0     C21765   9.327   3.360   6.702 -0.0617 -0.7864 -0.7557
  883MOL0     C21766   9.367   3.486   6.653 -0.0195 -0.2749  0.5942
  883MOL0     N21767   8.824   4.061   6.238  0.1518  0.5543  0.0319
  883MOL0     N21768   8.784   4.172   6.180 -0.5588 -0.0182  0.3941
  883MOL0     C21769   8.988   5.245   5.833  0.7720  0.2348  0.8164
  883MOL0     C21770   8.962   5.363   5.756  0.8726  0.7166 -0.5865
  883MOL0     C21771   8.917   5.753   5.587  0.0666  0.4539 -0.2958
  883MOL0     C21772   8.793   5.776   5.648  0.5677  0.4110 -0.3445
  883MOL0     C21773   8.726   5.896   5.624  0.9493 -0.0787 -0.7389
  883MOL0     C21774   8.763   5.987   5.525  0.0830 -0.1223  0.7719
  883MOL0     O21775   8.675   6.097   5.508  0.1698  0.0051 -0.6492
  883MOL0     C21776   8.641   6.121   5.376 -0.3613 -0.6881 -0.2672
  883MOL0     C21777   8.563   6.249   5.374 -0.6124 -0.2363  0.1916
  883MOL0     C21778   8.644   6.375   5.408 -0.0419  0.6434  0.2150
  883MOL0     C21779   8.793   6.373   5.364 -0.2496  0.4428 -0.1399
  883MOL0     C21780   8.812   6.399   5.220 -0.7760 -0.0470 -0.1670
  883MOL0     C21781   8.820   6.402   5.098  0.1359 -0.4564  0.4336
  883MOL0     C21782   8.880   5.956   5.452 -0.4793 -0.9498 -0.1896
  883MOL0     C21783   8.962   5.850   5.492 -0.1039 -0.4582  0.3908
  883MOL0     C21784   9.097   5.841   5.417 -1.1986 -0.9774  0.3124
  883MOL0     H21785   9.169   5.578   5.932 -1.3622  2.0785 -0.3750
  883MOL0     H21786   9.231   5.367   6.026  1.3617 -1.8752 -0.1732
  883MOL0     H21787   9.035   5.204   6.148  0.8587 -1.9543  3.5346
  883MOL0     H21788   9.150   5.071   6.177 -1.6727 -1.6919  1.9395
  883MOL0     H21789   8.870   5.062   6.046  1.2258  1.2570  0.3264
  883MOL0     H21790   8.990   4.931   6.025  0.1957  2.7816 -1.1162
  883MOL0     H21791   8.994   4.901   6.275 -1.6532  0.2397  2.4545
  883MOL0     H21792   8.883   5.033   6.295  5.5787  1.2867 -0.1357
  883MOL0     H21793   8.709   4.910   6.274 -0.5087 -0.0291 -0.2114
  883MOL0     H21794   8.730   4.849   6.119 -2.6942  0.0069  0.7034
  883MOL0     H21795   8.710   4.660   6.268 -0.3272 -0.6700  0.9731
  883MOL0     H21796   8.850   4.719   6.360 -0.1783 -2.0519  0.2481
  883MOL0     H21797   8.886   4.634   6.080 -3.3829 -3.8186  0.4151
  883MOL0     H21798   9.005   4.674   6.215 -1.3399  1.5048  1.7477
  883MOL0     H21799   8.993   4.475   6.303 -1.4853 -2.3856 -0.6086
  883MOL0     H21800   8.966   4.430   6.136 -1.5397 -0.4944 -1.3777
  883MOL0     H21801   8.776   4.445   6.368  2.1530 -0.8286  0.9278
  883MOL0     H21802   8.713   4.432   6.206 -0.5512 -2.0021  0.1352
  883MOL0     H21803   8.896   4.242   6.481 -2.9755  2.2682 -0.0833
  883MOL0     H21804   8.871   3.876   6.452  2.4714 -1.0222  1.2154
  883MOL0     H21805   8.926   4.000   6.560  0.2885 -0.5807  0.1295
  883MOL0     H21806   9.040   3.861   6.318  2.3902 -3.7025  0.5678
  883MOL0     H21807   9.121   4.004   6.381 -0.2900  0.7493  2.7807
  883MOL0     H21808   9.148   3.880   6.601 -0.2756  1.5778 -1.2041
  883MOL0     H21809   9.060   3.737   6.524 -0.4434 -0.4037  0.5321
  883MOL0     H21810   9.234   3.706   6.355  2.6934 -1.9251  0.4055
  883MOL0     H21811   9.318   3.855   6.412 -1.1427  1.3678  2.1860
  883MOL0     H21812   9.121   3.546   6.430 -1.2143 -0.3626 -0.8378
  883MOL0     H21813   8.936   3.418   6.490  0.1655  0.7274 -0.0104
  883MOL0     H21814   8.967   3.252   6.552 -1.1056  1.1236  0.4357
  883MOL0     H21815   9.016   3.298   6.386 -2.8820  0.7384 -0.5750
  883MOL0     H21816   9.045   3.133   7.083 -1.3904 -1.6764 -0.3337
  883MOL0     H21817   9.074   2.940   7.238  0.4190  0.0719 -0.1139
  883MOL0     H21818   9.186   2.758   7.402 -0.8544 -3.0612  3.2557
  883MOL0     H21819   9.053   2.734   7.286  0.0577 -1.2240 -4.1357
  883MOL0     H21820   9.255   2.512   7.383  0.9658  1.3398  1.0938
  883MOL0     H21821   9.090   2.534   7.439 -0.5390 -1.0682 -0.9268
  883MOL0     H21822   9.012   2.499   7.187  0.5951 -1.1852  0.7346
  883MOL0     H21823   9.071   2.366   7.273  0.6112  0.6616  0.9437
  883MOL0     H21824   9.306   2.430   7.155  0.0678 -1.7472 -0.3536
  883MOL0     H21825   9.203   2.528   7.054  1.6568 -0.0410  0.2306
  883MOL0     H21826   9.260   2.313   6.970  0.7903 -1.2693  0.8373
  883MOL0     H21827   9.194   2.230   7.110 -0.8912  1.0239  1.0558
  883MOL0     H21828   9.052   2.406   6.888 -1.9277  0.8323  0.9220
  883MOL0     H21829   8.965   2.341   7.032  1.1598  3.2524  0.9291
  883MOL0     H21830   8.951   2.217   6.803  0.6630  0.6300 -0.6721
  883MOL0     H21831   8.986   2.118   6.937  0.5651 -0.0834  2.0552
  883MOL0     H21832   9.117   2.048   6.774  1.8436  0.0617 -1.3154
  883MOL0     H21833   9.218   2.109   6.893 -1.3031 -1.3797  1.3847
  883MOL0     H21834   9.378   2.778   6.980 -0.7512  0.0781  0.3281
  883MOL0     H21835   9.334   2.960   6.821 -3.2464  4.5901 -1.7687
  883MOL0     H21836   9.385   3.307   6.777 -0.3717 -0.2180 -0.1080
  883MOL0     H21837   9.460   3.525   6.692  0.8565  1.4869 -2.8819
  883MOL0     H21838   8.939   5.151   5.810  0.8256  0.7858 -1.8600
  883MOL0     H21839   8.878   5.371   5.688 -1.0864 -1.2158  1.4328
  883MOL0     H21840   8.756   5.701   5.718  0.4122  1.2954  0.5317
  883MOL0     H21841   8.639   5.921   5.683  1.7842 -2.4931  1.7055
  883MOL0     H21842   8.718   6.121   5.298  0.2441  0.3774  0.3014
  883MOL0     H21843   8.570   6.043   5.350  0.4390 -1.9962  1.2486
  883MOL0     H21844   8.484   6.237   5.449  1.4389  0.6158  2.6702
  883MOL0     H21845   8.517   6.246   5.275  0.9651  2.5194 -0.7259
  883MOL0     H21846   8.591   6.465   5.374  0.6516  1.5768  1.4792
  883MOL0     H21847   8.643   6.381   5.518 -0.0139  0.9517  0.1984
  883MOL0     H21848   8.846   6.282   5.391 -1.0375 -0.0337 -0.1831
  883MOL0     H21849   8.848   6.456   5.410 -5.2072  3.0084  1.9037
  883MOL0     H21850   8.822   6.394   4.991 -0.5733  1.4981  0.2344
  883MOL0     H21851   8.903   6.023   5.370 -2.8008 -0.4594 -0.5278
  883MOL0     H21852   9.173   5.796   5.481 -0.9177 -1.0388 -0.0614
  883MOL0     H21853   9.085   5.785   5.323  1.4716  0.2778 -0.8726
  883MOL0     H21854   9.126   5.943   5.393 -1.1996 -0.6450  1.6572
  884MOL0     O21855   3.135   2.023  11.023  0.6475  0.5736 -0.2239
  884MOL0     C21856   3.239   2.082  11.043 -0.3508 -0.6192 -0.5609
  884MOL0     O21857   3.355   2.040  10.992  0.2939 -0.2293 -0.6697
  884MOL0     C21858   3.348   1.931  10.906 -0.3330  0.2911 -0.6436
  884MOL0     C21859   3.304   1.804  10.943  0.0436  0.1056 -0.4171
  884MOL0     C21860   3.315   1.693  10.860 -0.5633  0.0701  0.0421
  884MOL0     C21861   3.383   1.708  10.738 -0.7825  1.0467  0.5062
  884MOL0     O21862   3.399   1.601  10.648 -0.2510 -1.1690  0.9830
  884MOL0     C21863   3.320   1.483  10.665 -0.7172 -0.1939  0.5567
  884MOL0     C21864   3.341   1.371  10.562 -0.1917  0.3470  0.0214
  884MOL0     C21865   3.242   1.388  10.449 -0.5343 -0.5977  0.1904
  884MOL0     C21866   3.277   1.300  10.324 -0.1346  0.3311  0.3518
  884MOL0     C21867   3.210   1.357  10.191 -1.3391  0.3051 -0.1610
  884MOL0     C21868   3.253   1.273  10.067  0.4576  0.2416  0.7846
  884MOL0     C21869   3.175   1.330   9.937  0.2022 -0.5676 -0.2229
  884MOL0     C21870   3.240   1.298   9.801 -0.3610  0.2650 -0.0079
  884MOL0     N21871   3.371   1.361   9.790  0.7183  0.6199 -0.0006
  884MOL0     C21872   3.486   1.287   9.797 -0.0360  0.0037 -0.1446
  884MOL0     C21873   3.591   1.376   9.809  0.2855  0.9322 -0.8806
  884MOL0     C21874   3.745   1.369   9.838  0.0140  0.2717  0.2121
  884MOL0     C21875   3.830   1.326   9.714  1.0035 -0.5898 -0.4266
  884MOL0     C21876   3.958   1.265   9.763  0.3513 -0.1271  1.2151
  884MOL0     C21877   4.064   1.359   9.827 -0.3416 -0.2393 -0.1287
  884MOL0     O21878   4.178   1.351   9.749 -0.8040 -0.4139  0.5807
  884MOL0     C21879   4.192   1.426   9.633  0.6585 -0.4222 -0.5141
  884MOL0     C21880   4.288   1.381   9.547 -0.9376  0.0992 -0.5926
  884MOL0     C21881   4.302   1.437   9.416 -0.1584 -1.2789 -0.1026
  884MOL0     C21882   4.413   1.378   9.326 -0.4680  0.3782  0.3572
  884MOL0     C21883   4.212   1.541   9.365 -0.6811  0.2960 -0.3511
  884MOL0     C21884   4.226   1.614   9.238  0.9022 -0.3491 -0.2222
  884MOL0     O21885   4.106   1.661   9.191 -0.0193  0.6122 -0.4725
  884MOL0     C21886   4.101   1.730   9.069 -0.0592  0.7673  0.6862
  884MOL0     C21887   4.075   1.865   9.056  0.3702 -0.6253  0.1858
  884MOL0     C21888   4.062   1.934   8.933 -0.8067  0.2175  0.2068
  884MOL0     C21889   4.083   1.864   8.819 -0.9424 -0.2732 -0.4905
  884MOL0     O21890   4.077   1.935   8.700  0.0895  0.8167 -0.3095
  884MOL0     C21891   4.197   1.934   8.619 -0.3249 -0.8930  0.1188
  884MOL0     C21892   4.317   2.002   8.692  1.4184  0.2490  0.3314
  884MOL0     C21893   4.284   2.155   8.683  0.6038  0.5552  0.1591
  884MOL0     C21894   4.396   2.248   8.666 -0.5739  0.0352  0.4073
  884MOL0     C21895   4.346   2.389   8.642  0.6112 -0.3131  0.2190
  884MOL0     C21896   4.461   2.490   8.596  1.2809 -1.3315  1.9999
  884MOL0     C21897   4.402   2.631   8.559 -0.3881 -0.2175  0.2162
  884MOL0     C21898   4.502   2.704   8.470  0.3563 -0.2440  1.4426
  884MOL0    Cl21899   4.503   2.635   8.297  0.6047  0.1154 -0.0409
  884MOL0     C21900   4.108   1.724   8.829 -0.6044 -0.3180 -0.4792
  884MOL0     C21901   4.126   1.664   8.946  0.5764  0.0672 -0.1999
  884MOL0     O21902   4.333   1.641   9.187 -0.1631  0.4262  0.3732
  884MOL0     C21903   4.113   1.589   9.460 -0.2715 -0.0355  0.6044
  884MOL0     C21904   4.099   1.523   9.584 -0.0671  0.2602 -0.5633
  884MOL0     N21905   3.532   1.499   9.824 -0.5197  0.2781  1.2165
  884MOL0     N21906   3.403   1.491   9.811 -0.1008 -0.7820  0.5421
  884MOL0     C21907   3.436   1.826  10.701  0.5689 -0.1113  0.0172
  884MOL0     C21908   3.422   1.931  10.789 -0.7659 -0.4325 -1.5686
  884MOL0     C21909   3.246   2.187  11.145 -0.9934 -0.8938 -0.1745
  884MOL0     C21910   3.142   2.278  11.156  0.1663 -0.6063 -0.1467
  884MOL0     C21911   3.142   2.387  11.246  0.3144 -0.0133  0.0485
  884MOL0     C21912   3.259   2.400  11.332  1.0019 -0.3084 -0.0512
  884MOL0     O21913   3.260   2.503  11.420  1.0866 -0.7417 -0.7147
  884MOL0     C21914   3.285   2.479  11.562  1.0621 -0.4240 -0.0806
  884MOL0     C21915   3.428   2.525  11.593  0.2277 -0.5708 -0.7265
  884MOL0     C21916   3.428   2.684  11.592 -0.2338  0.3188  0.6344
  884MOL0     C21917   3.515   2.748  11.697  0.8997 -0.1588  0.0066
  884MOL0     C21918   3.495   2.695  11.829 -0.0607 -0.4770 -0.2884
  884MOL0     C21919   3.467   2.649  11.938  0.5253  0.1300  0.3827
  884MOL0     C21920   3.357   2.308  11.326 -0.2461  0.2195 -0.2063
  884MOL0     C21921   3.347   2.196  11.239  0.2229 -0.1137 -0.4587
  884MOL0     C21922   3.464   2.097  11.258 -0.0571 -0.0911 -0.1298
  884MOL0     H21923   3.259   1.785  11.040 -1.2120 -2.6996 -1.4440
  884MOL0     H21924   3.298   1.600  10.912  3.7268  0.7379  3.2032
  884MOL0     H21925   3.214   1.510  10.660 -1.0002 -1.4002 -0.2879
  884MOL0     H21926   3.351   1.452  10.765  1.0449  1.0448  0.4365
  884MOL0     H21927   3.450   1.376  10.555 -0.0394 -0.4289  1.4260
  884MOL0     H21928   3.320   1.280  10.618  2.5272 -1.1334 -1.1655
  884MOL0     H21929   3.138   1.361  10.468 -1.0751 -1.7247 -3.5095
  884MOL0     H21930   3.227   1.494  10.425 -0.8232 -0.8081 -0.5776
  884MOL0     H21931   3.383   1.276  10.315  0.7560  3.7243  0.7166
  884MOL0     H21932   3.226   1.205  10.342  0.7180 -0.6317 -1.8544
  884MOL0     H21933   3.259   1.454  10.176 -0.5083  0.5439  3.1567
  884MOL0     H21934   3.102   1.372  10.197 -1.1403  1.5526  0.8723
  884MOL0     H21935   3.359   1.282  10.038  0.3359  0.4649  0.4003
  884MOL0     H21936   3.228   1.168  10.077 -2.2294  0.7616  0.1441
  884MOL0     H21937   3.173   1.438   9.952  1.0809 -0.5906  0.1477
  884MOL0     H21938   3.078   1.279   9.943  0.2569 -0.8338 -1.4225
  884MOL0     H21939   3.235   1.191   9.783 -3.3147 -0.0082  1.7440
  884MOL0     H21940   3.176   1.343   9.725 -0.4333  1.5368  0.7671
  884MOL0     H21941   3.499   1.179   9.797 -1.0400 -0.1269 -0.5000
  884MOL0     H21942   3.757   1.294   9.918 -0.6286  0.1341  0.1835
  884MOL0     H21943   3.796   1.460   9.870 -1.5928  1.9230 -1.7044
  884MOL0     H21944   3.782   1.248   9.655  0.1725 -0.0674 -0.4417
  884MOL0     H21945   3.845   1.418   9.656  1.4798  0.0675  0.7051
  884MOL0     H21946   3.942   1.178   9.828 -1.7304 -0.7525 -0.0419
  884MOL0     H21947   4.005   1.223   9.674  0.0715  2.4208 -0.2295
  884MOL0     H21948   4.016   1.457   9.839 -0.3693  0.4975 -4.4990
  884MOL0     H21949   4.081   1.326   9.930 -0.5515 -1.6064 -0.5112
  884MOL0     H21950   4.352   1.298   9.575  0.5798  1.6261  0.7399
  884MOL0     H21951   4.459   1.295   9.381 -0.7992  0.2833  0.4931
  884MOL0     H21952   4.496   1.445   9.303 -0.0101  0.2103  1.4699
  884MOL0     H21953   4.356   1.345   9.239 -0.1478 -2.8624  1.2486
  884MOL0     H21954   4.067   1.926   9.145  1.5700  0.4454 -0.4079
  884MOL0     H21955   4.042   2.039   8.916  1.8365  0.4016 -2.6376
  884MOL0     H21956   4.231   1.836   8.584 -0.0485 -0.5695 -0.5222
  884MOL0     H21957   4.171   1.994   8.532 -1.8673 -0.3149  0.9385
  884MOL0     H21958   4.337   1.980   8.798  0.1349  0.0560  0.5492
  884MOL0     H21959   4.395   1.987   8.618 -1.4241 -1.6442 -2.4980
  884MOL0     H21960   4.233   2.185   8.775  3.3697  1.7714  1.4152
  884MOL0     H21961   4.218   2.164   8.597  0.3013 -5.1640 -0.5951
  884MOL0     H21962   4.455   2.220   8.578  1.3451  1.8166  1.0287
  884MOL0     H21963   4.456   2.253   8.757  1.3405  0.7050 -0.8026
  884MOL0     H21964   4.265   2.384   8.569 -2.9536  0.2530  3.8161
  884MOL0     H21965   4.306   2.431   8.734 -3.0170 -0.7027 -1.0400
  884MOL0     H21966   4.509   2.446   8.508 -0.3521  2.2485 -0.9665
  884MOL0     H21967   4.533   2.503   8.678 -2.3362 -1.2009  5.4892
  884MOL0     H21968   4.378   2.680   8.653 -0.4784 -0.3208  0.2473
  884MOL0     H21969   4.306   2.618   8.508  1.2772 -1.1739 -2.9600
  884MOL0     H21970   4.600   2.663   8.498  0.5168 -2.3275 -1.6287
  884MOL0     H21971   4.501   2.813   8.467 -1.1391 -0.2483  1.2009
  884MOL0     H21972   4.123   1.662   8.741 -1.9149 -1.2963 -0.0367
  884MOL0     H21973   4.147   1.558   8.955  0.1231 -0.0533 -0.5003
  884MOL0     H21974   4.044   1.671   9.444 -2.8679 -2.4496 -1.6943
  884MOL0     H21975   4.020   1.564   9.646 -1.2203 -0.4991 -1.4856
  884MOL0     H21976   3.482   1.833  10.603  2.0421 -2.0711  0.5026
  884MOL0     H21977   3.475   2.024  10.774 -1.3206  0.3476  0.9358
  884MOL0     H21978   3.056   2.262  11.091 -1.9795  1.5405  1.9361
  884MOL0     H21979   3.074   2.472  11.254 -1.7684 -1.7551  2.1452
  884MOL0     H21980   3.208   2.523  11.627  0.0693 -0.6062 -1.1107
  884MOL0     H21981   3.281   2.372  11.580  0.9387 -0.7792 -2.0376
  884MOL0     H21982   3.496   2.493  11.513  0.6551  0.3420 -0.7361
  884MOL0     H21983   3.452   2.484  11.691  0.7059  0.4622 -0.4045
  884MOL0     H21984   3.473   2.712  11.496 -2.6863 -1.1624 -1.0752
  884MOL0     H21985   3.328   2.727  11.589 -0.8813 -1.0676 -3.0570
  884MOL0     H21986   3.501   2.856  11.697 -0.0475 -0.2669 -0.3628
  884MOL0     H21987   3.621   2.747  11.669  0.9735 -0.3217  0.2869
  884MOL0     H21988   3.438   2.612  12.034 -1.5969  1.9966  0.5431
  884MOL0     H21989   3.427   2.318  11.409 -0.7437  1.6776  0.0681
  884MOL0     H21990   3.488   2.101  11.364 -0.4207 -3.1505  0.1345
  884MOL0     H21991   3.420   2.000  11.234 -0.4685  0.4256 -1.6110
  884MOL0     H21992   3.554   2.096  11.196  1.1952  3.7458  1.2845
  885MOL0     O21993   9.958   8.998  11.387  0.9766 -0.1772 -0.5663
  885MOL0     C21994  10.039   9.075  11.442  0.0353  0.1097 -0.5844
  885MOL0     O21995  10.147   9.121  11.378 -0.1867 -0.5777 -0.1873
  885MOL0     C21996  10.175   9.082  11.249 -0.5792  0.0322  0.4188
  885MOL0     C21997  10.214   9.186  11.159 -0.3176  0.8210 -0.7381
  885MOL0     C21998  10.235   9.161  11.028 -0.4925 -0.3076  0.5347
  885MOL0     C21999  10.221   9.033  10.983  0.4569  0.4817 -0.6883
  885MOL0     O22000  10.249   8.989  10.851  0.0702 -0.3700 -0.5915
  885MOL0     C22001  10.259   9.095  10.753  0.0114 -0.1631 -0.3450
  885MOL0     C22002  10.208   9.034  10.624 -1.2920  0.3769 -0.7479
  885MOL0     C22003  10.239   9.131  10.508  0.4712 -0.0725 -0.0441
  885MOL0     C22004  10.196   9.067  10.372 -0.1052 -0.4302 -1.1508
  885MOL0     C22005  10.184   9.182  10.264 -0.0031 -0.4246 -0.5507
  885MOL0     C22006  10.322   9.250  10.226  0.5532 -0.1810 -0.3053
  885MOL0     C22007  10.411   9.142  10.158  0.7978 -0.9566 -0.5958
  885MOL0     C22008  10.545   9.197  10.116 -0.1141 -0.0533  0.4650
  885MOL0     N22009  10.617   9.238  10.243 -0.2008  0.0109  1.1069
  885MOL0     C22010  10.663   9.165  10.351 -0.2788 -0.7288  0.5144
  885MOL0     C22011  10.739   9.256  10.422 -0.2289  0.1929 -0.7245
  885MOL0     C22012  10.820   9.240  10.549  0.6116 -0.1995 -0.7097
  885MOL0     C22013  10.746   9.280  10.677  0.2721  0.5263  0.4993
  885MOL0     C22014  10.753   9.431  10.707 -1.5322 -0.0113  0.0791
  885MOL0     C22015  10.780   9.459  10.853  0.5342  0.4729  0.2748
  885MOL0     O22016  10.677   9.392  10.936 -1.2451 -0.0125 -0.4008
  885MOL0     C22017  10.696   9.351  11.068  0.0770 -0.6144  0.7937
  885MOL0     C22018  10.611   9.260  11.118  0.8112 -0.7330  0.2121
  885MOL0     C22019  10.640   9.205  11.242 -0.1386  0.9519  0.4238
  885MOL0     C22020  10.547   9.092  11.286  0.2114  0.1994  0.9311
  885MOL0     C22021  10.753   9.246  11.324  0.6261 -0.4629 -0.0781
  885MOL0     C22022  10.789   9.185  11.450  0.1378  0.1282  0.6456
  885MOL0     O22023  10.823   9.053  11.437  0.1053 -0.4820  0.5498
  885MOL0     C22024  10.829   8.975  11.546 -0.1602 -0.2269 -0.3055
  885MOL0     C22025  10.732   8.865  11.560  0.4175  0.0268 -1.1956
  885MOL0     C22026  10.754   8.770  11.663  0.2165  0.0477 -0.5547
  885MOL0     C22027  10.852   8.787  11.759 -0.6494  0.1001 -0.0199
  885MOL0     O22028  10.868   8.714  11.876  0.0736  0.4053  0.1425
  885MOL0     C22029  10.766   8.618  11.927 -0.9742 -0.2535  0.3062
  885MOL0     C22030  10.779   8.604  12.078 -0.0586  0.3232 -1.3130
  885MOL0     C22031  10.682   8.506  12.145  0.2997 -0.3355  0.3242
  885MOL0     C22032  10.643   8.544  12.287 -0.3000 -0.5152  0.0917
  885MOL0     C22033  10.553   8.435  12.356 -0.9684 -0.2757  0.0584
  885MOL0     C22034  10.493   8.479  12.482 -1.3630  0.2648  0.3678
  885MOL0     C22035  10.362   8.412  12.517 -0.3174  0.8772 -0.1227
  885MOL0     C22036  10.371   8.263  12.546  0.1444 -0.6929 -0.6050
  885MOL0    Cl22037  10.223   8.230  12.637 -0.1213 -0.1373  0.1060
  885MOL0     C22038  10.945   8.897  11.747  0.2362  0.3410 -0.3178
  885MOL0     C22039  10.940   8.986  11.639  0.8415  0.0285  0.4169
  885MOL0     O22040  10.788   9.252  11.556 -0.0261 -0.2369 -0.0448
  885MOL0     C22041  10.835   9.346  11.269  0.7179 -0.9122 -0.1786
  885MOL0     C22042  10.804   9.400  11.142 -0.5667  0.5598 -0.4010
  885MOL0     N22043  10.722   9.382  10.362 -0.0714 -0.4231 -1.0022
  885MOL0     N22044  10.652   9.370  10.261 -0.2606  0.1392 -1.0984
  885MOL0     C22045  10.182   8.930  11.067  1.2452  0.1007 -0.4756
  885MOL0     C22046  10.161   8.948  11.203 -0.8957  0.0184 -0.3018
  885MOL0     C22047  10.017   9.121  11.582 -1.0365 -0.3568 -0.4245
  885MOL0     C22048  10.102   9.222  11.636 -0.1017 -0.6578  0.3552
  885MOL0     C22049  10.069   9.282  11.762  0.2474  0.1141  1.1148
  885MOL0     C22050   9.962   9.242  11.837  0.3356 -0.9464 -0.5937
  885MOL0     O22051   9.926   9.314  11.942 -0.1579  0.1609  0.0943
  885MOL0     C22052   9.876   9.255  12.060  0.3737  0.4465  0.8752
  885MOL0     C22053   9.900   9.345  12.183 -0.6342  0.3084  0.3912
  885MOL0     C22054   9.890   9.287  12.317 -0.5861 -0.4125 -0.3311
  885MOL0     C22055   9.924   9.372  12.433 -0.4539  0.2028 -0.2913
  885MOL0     C22056   9.929   9.287  12.554  0.2538  1.4536 -0.0321
  885MOL0     C22057   9.909   9.210  12.641 -1.0075  0.7734  0.0765
  885MOL0     C22058   9.879   9.144  11.778  1.1259 -0.4931 -0.6229
  885MOL0     C22059   9.910   9.073  11.659  0.0029  0.5040  0.0449
  885MOL0     C22060   9.799   8.971  11.617  0.7007 -0.2560 -0.4126
  885MOL0     H22061  10.221   9.279  11.214 -3.4780 -0.0164  1.3716
  885MOL0     H22062  10.267   9.251  10.976 -1.8790 -0.6116 -0.9396
  885MOL0     H22063  10.364   9.123  10.738 -0.0041  0.7330  1.0087
  885MOL0     H22064  10.188   9.176  10.774  1.7872  0.5416  4.3090
  885MOL0     H22065  10.245   8.933  10.603 -2.4986  0.4833 -3.9587
  885MOL0     H22066  10.101   9.017  10.642 -1.4415  1.6457 -0.3418
  885MOL0     H22067  10.182   9.222  10.530 -2.0011 -1.3763 -0.7294
  885MOL0     H22068  10.343   9.159  10.488 -0.3588  2.7138 -0.9415
  885MOL0     H22069  10.249   8.977  10.339  0.1288  0.0999 -2.2425
  885MOL0     H22070  10.095   9.035  10.402  0.5747  0.6845  2.8446
  885MOL0     H22071  10.123   9.261  10.309  0.3416 -0.9710  0.9525
  885MOL0     H22072  10.124   9.156  10.177 -0.0428 -1.3677 -0.2574
  885MOL0     H22073  10.301   9.330  10.155 -1.4421 -1.1835 -0.9245
  885MOL0     H22074  10.368   9.302  10.311  1.3440 -1.9093  0.3656
  885MOL0     H22075  10.368   9.092  10.071 -0.1964 -0.7450 -0.2442
  885MOL0     H22076  10.427   9.063  10.232 -2.5874  0.9495  2.5106
  885MOL0     H22077  10.600   9.115  10.067 -3.2553 -1.4356 -1.0200
  885MOL0     H22078  10.537   9.269  10.035  0.1488 -0.7011 -0.1496
  885MOL0     H22079  10.645   9.064  10.384 -0.9892  0.1133  2.9462
  885MOL0     H22080  10.915   9.294  10.539 -0.5612  1.6933 -2.3154
  885MOL0     H22081  10.836   9.132  10.559  0.3975 -0.0086  2.8495
  885MOL0     H22082  10.641   9.252  10.678  0.3814  0.1160  0.7658
  885MOL0     H22083  10.796   9.224  10.757  1.8679  1.6524  0.3431
  885MOL0     H22084  10.838   9.469  10.649 -1.0064 -0.7725  0.3476
  885MOL0     H22085  10.664   9.488  10.676 -1.7830 -0.2952  0.2754
  885MOL0     H22086  10.881   9.420  10.870  1.2741  1.4880 -1.4638
  885MOL0     H22087  10.784   9.568  10.866 -0.1186  0.5982 -0.4885
  885MOL0     H22088  10.520   9.238  11.063 -0.5855  1.8962  1.2638
  885MOL0     H22089  10.482   9.067  11.202  3.2686  0.2494 -1.6256
  885MOL0     H22090  10.504   9.106  11.385 -0.0886 -1.7432  1.1016
  885MOL0     H22091  10.601   8.998  11.302  0.9492  0.8660  2.6202
  885MOL0     H22092  10.659   8.857  11.479  1.5470 -3.3044 -2.0274
  885MOL0     H22093  10.674   8.698  11.676  1.0994 -0.9073 -0.2616
  885MOL0     H22094  10.663   8.651  11.909 -1.0731  0.5962  2.1707
  885MOL0     H22095  10.786   8.521  11.880 -0.8920  0.1108 -0.4407
  885MOL0     H22096  10.882   8.590  12.111 -0.1639  3.2533  0.6798
  885MOL0     H22097  10.745   8.705  12.103 -2.0287  0.6062 -4.4607
  885MOL0     H22098  10.724   8.405  12.148  1.8320  0.2646 -0.2256
  885MOL0     H22099  10.588   8.503  12.090 -0.5584  0.8912  1.6693
  885MOL0     H22100  10.576   8.630  12.291 -0.3149 -0.5016 -0.3419
  885MOL0     H22101  10.732   8.557  12.349 -1.6040 -0.4554  2.0403
  885MOL0     H22102  10.471   8.401  12.292  0.5871 -3.7504 -0.2733
  885MOL0     H22103  10.606   8.341  12.371 -1.2485 -0.2029  1.6734
  885MOL0     H22104  10.473   8.587  12.484 -0.9390  0.3436  1.7444
  885MOL0     H22105  10.573   8.463  12.555 -1.2848 -0.2691  0.1697
  885MOL0     H22106  10.294   8.429  12.434  0.1446  1.2728 -0.4327
  885MOL0     H22107  10.327   8.459  12.609 -0.5069 -0.1349  0.3345
  885MOL0     H22108  10.456   8.242  12.611  0.5767  0.1717 -0.8737
  885MOL0     H22109  10.388   8.199  12.458  0.5285 -1.1747 -0.1856
  885MOL0     H22110  11.019   8.906  11.827 -0.0879 -0.6399  0.1064
  885MOL0     H22111  11.015   9.064  11.632  1.9447 -1.1042 -4.3782
  885MOL0     H22112  10.926   9.386  11.314  0.8515  3.1285 -3.4883
  885MOL0     H22113  10.870   9.479  11.110  0.1139  1.5471  2.9941
  885MOL0     H22114  10.181   8.831  11.022 -1.8418  1.0403 -2.7929
  885MOL0     H22115  10.157   8.857  11.262  3.5657 -0.5247 -0.4465
  885MOL0     H22116  10.183   9.264  11.577  0.4529 -2.5944 -0.3451
  885MOL0     H22117  10.125   9.368  11.796 -0.4410 -0.1916  3.1460
  885MOL0     H22118   9.771   9.228  12.048 -0.4030  3.6018 -0.3373
  885MOL0     H22119   9.922   9.156  12.064  1.4426  0.7276 -2.0278
  885MOL0     H22120   9.843   9.437  12.172  1.4675  1.7215  0.6697
  885MOL0     H22121   9.998   9.390  12.165 -0.8195 -0.3531 -2.8708
  885MOL0     H22122   9.783   9.273  12.334 -0.3437 -2.3928 -0.2223
  885MOL0     H22123   9.948   9.194  12.324 -1.2948 -1.0791 -2.5980
  885MOL0     H22124   9.851   9.453  12.444 -1.3481 -0.7765  1.2796
  885MOL0     H22125  10.023   9.410  12.407  0.3798 -1.4420  0.3880
  885MOL0     H22126   9.889   9.142  12.721 -1.9654 -0.8802 -1.4905
  885MOL0     H22127   9.800   9.103  11.841  0.0723 -1.4370 -2.4625
  885MOL0     H22128   9.842   8.876  11.583 -0.4702 -0.8811 -0.2308
  885MOL0     H22129   9.730   8.966  11.702  1.4736  0.8447  0.3087
  885MOL0     H22130   9.747   9.004  11.527  0.1623 -1.0320 -0.4023
  886MOL0     O22131   4.175  10.816   1.551  0.0045 -0.2649 -0.7097
  886MOL0     C22132   4.071  10.862   1.590  1.2427  0.5836 -0.6840
  886MOL0     O22133   3.967  10.783   1.636  0.0655 -1.0397  0.2673
  886MOL0     C22134   3.963  10.646   1.613  0.5836  0.0627 -0.0460
  886MOL0     C22135   3.857  10.581   1.686  0.1613  0.3942  0.1643
  886MOL0     C22136   3.818  10.441   1.673 -0.2171 -0.4311 -0.3083
  886MOL0     C22137   3.903  10.361   1.588 -1.3016 -0.5347 -0.3423
  886MOL0     O22138   3.896  10.231   1.579 -0.4641  0.3203  0.1606
  886MOL0     C22139   3.781  10.166   1.633 -0.1167 -0.5888  0.0438
  886MOL0     C22140   3.770  10.020   1.587 -0.1918 -0.2488  1.1128
  886MOL0     C22141   3.902   9.954   1.603 -0.8131  0.2162 -1.0982
  886MOL0     C22142   3.892   9.825   1.515  0.2151 -0.8433 -0.8279
  886MOL0     C22143   4.017   9.741   1.527 -0.1870 -0.6436  0.8516
  886MOL0     C22144   4.017   9.618   1.441 -0.7942  0.3680 -0.1810
  886MOL0     C22145   4.146   9.541   1.469  0.5444 -0.3498 -1.1623
  886MOL0     C22146   4.152   9.423   1.374 -0.0964  1.0856 -0.9958
  886MOL0     N22147   4.240   9.313   1.422  0.4727 -0.0995 -0.6293
  886MOL0     C22148   4.197   9.234   1.525 -0.6348  1.2525 -0.5314
  886MOL0     C22149   4.311   9.214   1.597  1.2731  0.1775  0.4460
  886MOL0     C22150   4.316   9.164   1.745  0.2101  0.1956  0.0461
  886MOL0     C22151   4.456   9.132   1.801  0.4997 -0.8228  1.0969
  886MOL0     C22152   4.446   9.045   1.927 -0.0453  0.1617 -0.0190
  886MOL0     C22153   4.406   9.133   2.047 -0.0571 -0.2855  0.0247
  886MOL0     O22154   4.403   9.055   2.170 -0.6949  0.6396  0.2881
  886MOL0     C22155   4.295   9.010   2.228  0.5633 -0.3401  0.9067
  886MOL0     C22156   4.296   8.967   2.355  0.9284  0.2546 -0.6190
  886MOL0     C22157   4.188   8.909   2.427 -1.1238 -0.0259 -0.7995
  886MOL0     C22158   4.214   8.867   2.579  0.8785  0.6255  0.4599
  886MOL0     C22159   4.066   8.890   2.362 -0.4149 -0.6902  0.0582
  886MOL0     C22160   3.942   8.821   2.395  0.2646 -0.0294 -0.4358
  886MOL0     O22161   3.821   8.872   2.361  0.8171 -0.4417 -0.3084
  886MOL0     C22162   3.707   8.807   2.403  0.0888 -0.1444  0.9154
  886MOL0     C22163   3.657   8.702   2.338  0.5342  0.3253 -0.7979
  886MOL0     C22164   3.546   8.629   2.375  0.3088  0.4338 -0.8148
  886MOL0     C22165   3.485   8.662   2.488 -1.3117  0.3967 -0.3430
  886MOL0     O22166   3.372   8.597   2.527 -0.0514 -0.4619  0.1859
  886MOL0     C22167   3.251   8.634   2.449  0.3038 -0.1855 -0.3763
  886MOL0     C22168   3.151   8.520   2.470  0.6855 -0.5149  0.4428
  886MOL0     C22169   3.021   8.568   2.394 -0.6903 -0.2691  0.6002
  886MOL0     C22170   2.901   8.475   2.439  0.6603 -0.0545  0.1712
  886MOL0     C22171   2.773   8.519   2.373 -1.3629 -0.8864  1.0201
  886MOL0     C22172   2.643   8.461   2.434 -0.0605 -0.0529  0.2568
  886MOL0     C22173   2.510   8.517   2.373 -0.6596  0.2203  0.4217
  886MOL0     C22174   2.483   8.501   2.229 -0.4011  0.4232  0.7816
  886MOL0    Cl22175   2.476   8.327   2.198  0.0556  0.3998  0.3540
  886MOL0     C22176   3.546   8.761   2.575  0.1561  0.0408  0.6861
  886MOL0     C22177   3.652   8.837   2.524  0.1210  0.0451 -0.2897
  886MOL0     O22178   3.957   8.716   2.458  0.0675 -0.0631 -0.2688
  886MOL0     C22179   4.071   8.927   2.227 -1.1743  0.2435  0.2470
  886MOL0     C22180   4.179   8.988   2.162 -0.0601 -0.0270 -0.4438
  886MOL0     N22181   4.413   9.276   1.537  0.6758 -0.7644  0.0954
  886MOL0     N22182   4.369   9.340   1.434 -1.0071 -0.4476 -0.4553
  886MOL0     C22183   4.018  10.414   1.524  0.0824  0.3490  0.0250
  886MOL0     C22184   4.042  10.556   1.530  0.5598  0.1155  0.0993
  886MOL0     C22185   4.061  11.018   1.592 -0.8874 -0.3891 -0.1937
  886MOL0     C22186   4.176  11.091   1.590 -0.5540  0.3442  0.3277
  886MOL0     C22187   4.182  11.224   1.564  0.0522 -0.2573 -0.1215
  886MOL0     C22188   4.067  11.289   1.536  0.4039 -0.5763 -0.0085
  886MOL0     O22189   4.065  11.412   1.504  0.3792 -0.6705  0.4300
  886MOL0     C22190   4.032  11.514   1.613  0.0619  0.7841 -0.5259
  886MOL0     C22191   3.892  11.579   1.601 -0.0487 -0.3743 -0.3706
  886MOL0     C22192   3.864  11.635   1.459 -0.2785 -0.1847  0.6590
  886MOL0     C22193   3.795  11.532   1.361  0.5111 -1.0486  0.5863
  886MOL0     C22194   3.662  11.492   1.413  0.4984  0.4628  0.0268
  886MOL0     C22195   3.545  11.471   1.453  0.6908  0.2077 -0.4461
  886MOL0     C22196   3.941  11.223   1.547 -0.2756  0.1379 -0.6471
  886MOL0     C22197   3.937  11.091   1.574 -0.1049 -0.3565  0.0951
  886MOL0     C22198   3.811  11.025   1.576  0.2482  0.8768 -0.2493
  886MOL0     H22199   3.799  10.643   1.753 -2.0280  0.1761 -1.4261
  886MOL0     H22200   3.741  10.400   1.738  0.9259 -1.5418  0.3877
  886MOL0     H22201   3.687  10.218   1.614 -0.4139 -1.2173 -0.2506
  886MOL0     H22202   3.795  10.151   1.741  2.5489 -0.6445 -0.2301
  886MOL0     H22203   3.689   9.961   1.630 -0.4206 -1.1623 -0.4682
  886MOL0     H22204   3.743  10.032   1.481 -2.7190  2.2273  1.9039
  886MOL0     H22205   3.986  10.020   1.583 -1.0432  2.0627  3.0192
  886MOL0     H22206   3.903   9.931   1.710  2.7763  2.0339 -0.6142
  886MOL0     H22207   3.804   9.770   1.549 -1.4702  1.7389 -0.7508
  886MOL0     H22208   3.883   9.841   1.408  1.1603 -0.6239 -0.8819
  886MOL0     H22209   4.024   9.716   1.633 -1.2242  1.0004  1.3575
  886MOL0     H22210   4.106   9.799   1.501 -0.0315 -0.9403  0.7236
  886MOL0     H22211   3.929   9.555   1.455 -2.0684  2.0052 -0.3993
  886MOL0     H22212   4.022   9.648   1.336  1.3664 -1.5542 -0.7183
  886MOL0     H22213   4.135   9.490   1.565 -4.4928 -0.1313 -1.3278
  886MOL0     H22214   4.237   9.599   1.454 -0.8850  1.8002 -2.0654
  886MOL0     H22215   4.052   9.385   1.354 -0.6545  0.1449  2.7208
  886MOL0     H22216   4.197   9.465   1.283  0.0910  3.1576 -0.0201
  886MOL0     H22217   4.095   9.212   1.556 -1.2103  1.7189 -2.0014
  886MOL0     H22218   4.249   9.080   1.765  3.0740 -1.4808  3.9874
  886MOL0     H22219   4.270   9.240   1.809  0.9720 -0.3910  1.3272
  886MOL0     H22220   4.516   9.066   1.737  1.2822 -1.7498  2.7189
  886MOL0     H22221   4.515   9.224   1.812 -0.3612 -0.4971  3.4293
  886MOL0     H22222   4.377   8.962   1.913 -0.6867  0.8371 -0.9905
  886MOL0     H22223   4.549   9.018   1.952  0.9369  1.3752 -2.3609
  886MOL0     H22224   4.470   9.220   2.061 -1.1535  0.9498 -1.9958
  886MOL0     H22225   4.307   9.175   2.026  1.3723  3.1851 -0.4533
  886MOL0     H22226   4.383   8.997   2.412 -1.1816  0.1619  3.0251
  886MOL0     H22227   4.207   8.954   2.645 -2.1250  0.7684  0.1286
  886MOL0     H22228   4.317   8.833   2.578  0.2208 -1.5254  0.8352
  886MOL0     H22229   4.159   8.780   2.616 -1.6736  0.6787 -2.7486
  886MOL0     H22230   3.712   8.668   2.251 -0.2841 -0.9429 -0.8529
  886MOL0     H22231   3.509   8.552   2.308 -0.4149  1.4752 -1.6380
  886MOL0     H22232   3.209   8.729   2.483 -0.1007 -1.1152  1.9088
  886MOL0     H22233   3.264   8.645   2.341 -1.7906 -0.7425 -0.7366
  886MOL0     H22234   3.185   8.427   2.423  0.2354  0.2978 -1.6194
  886MOL0     H22235   3.146   8.523   2.579 -0.3157  2.6583  0.4143
  886MOL0     H22236   3.036   8.578   2.286 -1.2672 -1.9599  0.3235
  886MOL0     H22237   3.000   8.672   2.420 -0.3647 -0.1453  0.3852
  886MOL0     H22238   2.889   8.490   2.546  5.2526  0.5868  0.7998
  886MOL0     H22239   2.934   8.373   2.416  2.9216  0.7491 -0.4079
  886MOL0     H22240   2.777   8.628   2.371  1.3988 -0.9265  0.7842
  886MOL0     H22241   2.783   8.494   2.266 -2.1787 -1.9552  1.1736
  886MOL0     H22242   2.641   8.488   2.540 -1.9171  2.2590 -0.2702
  886MOL0     H22243   2.645   8.352   2.429 -2.5287 -0.1166 -0.5005
  886MOL0     H22244   2.501   8.620   2.410  0.8581 -0.7901  4.1019
  886MOL0     H22245   2.435   8.460   2.429 -0.6707 -2.4178 -2.0608
  886MOL0     H22246   2.555   8.557   2.168 -2.1556  2.0703  0.1372
  886MOL0     H22247   2.383   8.539   2.206 -0.1530  2.5500  2.8222
  886MOL0     H22248   3.496   8.798   2.663 -1.6430  2.9257 -1.3804
  886MOL0     H22249   3.705   8.914   2.578  0.9032 -0.6116 -0.0876
  886MOL0     H22250   3.986   8.908   2.162  0.3228 -2.6539 -1.0486
  886MOL0     H22251   4.181   9.012   2.057  2.2910 -0.9847 -0.6904
  886MOL0     H22252   4.081  10.338   1.478  4.2034  2.6884  1.3112
  886MOL0     H22253   4.120  10.603   1.472  0.4145  0.8089  0.4502
  886MOL0     H22254   4.269  11.037   1.608  1.7835  3.6583 -0.7674
  886MOL0     H22255   4.274  11.281   1.578 -0.5216  0.1264  2.8589
  886MOL0     H22256   4.043  11.466   1.711 -0.1669 -0.2526 -0.9854
  886MOL0     H22257   4.117  11.583   1.608  0.0117  0.7869 -1.6733
  886MOL0     H22258   3.886  11.658   1.676  0.7439 -0.6401 -0.0092
  886MOL0     H22259   3.830  11.493   1.630  3.7160 -2.9871  0.7075
  886MOL0     H22260   3.800  11.723   1.469 -0.9187 -0.7703  1.9142
  886MOL0     H22261   3.956  11.670   1.411 -0.0548 -1.4640  0.0993
  886MOL0     H22262   3.836  11.432   1.347 -0.4716 -1.5293  1.0259
  886MOL0     H22263   3.789  11.577   1.261  1.1899 -1.6367  0.2711
  886MOL0     H22264   3.449  11.461   1.500  2.4378 -1.3703  3.2040
  886MOL0     H22265   3.848  11.275   1.525 -0.3731 -0.2085 -1.0616
  886MOL0     H22266   3.814  10.938   1.511 -0.9694 -1.4884  2.6240
  886MOL0     H22267   3.780  10.989   1.675 -2.7947  0.2515 -1.3218
  886MOL0     H22268   3.728  11.093   1.555 -1.3155 -1.2853 -1.4634
  887MOL0     O22269   0.489  11.298   6.466  0.4299  0.0287  0.5204
  887MOL0     C22270   0.368  11.273   6.486 -0.8852 -0.1320  1.0152
  887MOL0     O22271   0.315  11.165   6.553  0.3386 -0.3841  0.0510
  887MOL0     C22272   0.407  11.075   6.598 -0.8955 -0.3500  0.3491
  887MOL0     C22273   0.502  11.097   6.700 -1.5987  0.0891  0.5924
  887MOL0     C22274   0.582  10.989   6.741 -0.8231  0.0279  0.2027
  887MOL0     C22275   0.582  10.860   6.680  0.0990 -0.7784  0.0282
  887MOL0     O22276   0.639  10.752   6.742  0.3020  0.1561  0.2501
  887MOL0     C22277   0.701  10.659   6.651  0.6429  0.4385 -0.0850
  887MOL0     C22278   0.771  10.543   6.721  0.0529 -0.0857 -0.2629
  887MOL0     C22279   0.672  10.431   6.754  0.1785  0.3348 -0.0353
  887MOL0     C22280   0.739  10.322   6.844 -0.7242  0.5656  0.0229
  887MOL0     C22281   0.677  10.175   6.836  0.4295 -0.3062 -0.1929
  887MOL0     C22282   0.540  10.193   6.890 -0.6449  0.4093 -0.1588
  887MOL0     C22283   0.457  10.066   6.873 -0.1384 -0.7953  0.1580
  887MOL0     C22284   0.388  10.054   6.727 -1.1355 -0.6090 -0.3004
  887MOL0     N22285   0.335   9.926   6.681 -0.1085  0.0416 -0.3207
  887MOL0     C22286   0.372   9.862   6.572 -0.2605  0.3260  0.5753
  887MOL0     C22287   0.255   9.801   6.525  0.1670  0.6521  1.1922
  887MOL0     C22288   0.243   9.702   6.403 -0.5992  0.4973  1.0519
  887MOL0     C22289   0.372   9.709   6.307  0.2254  0.4099  0.2902
  887MOL0     C22290   0.337   9.637   6.172 -0.2352  0.4849  0.4409
  887MOL0     C22291   0.445   9.632   6.076 -0.1574  0.1640  0.5377
  887MOL0     O22292   0.465   9.770   6.038 -0.1282  0.0662  0.1150
  887MOL0     C22293   0.564   9.778   5.945  0.4389 -0.5591 -0.2728
  887MOL0     C22294   0.541   9.795   5.809 -0.2016  0.4901  0.4643
  887MOL0     C22295   0.650   9.817   5.725  0.5028 -0.0917  0.0876
  887MOL0     C22296   0.616   9.797   5.579 -0.4866  0.6302 -0.2506
  887MOL0     C22297   0.782   9.829   5.781  0.8136 -0.3114 -0.1877
  887MOL0     C22298   0.893   9.834   5.691 -0.5670  0.2710  0.0835
  887MOL0     O22299   0.989   9.731   5.705  0.3982  0.1533  0.0635
  887MOL0     C22300   1.119   9.759   5.677 -0.4057  0.5926  0.8950
  887MOL0     C22301   1.188   9.665   5.589 -0.0839  0.8681 -0.1969
  887MOL0     C22302   1.315   9.685   5.533 -0.4380 -1.2729 -0.3601
  887MOL0     C22303   1.381   9.801   5.569 -0.0461 -0.1391 -0.5695
  887MOL0     O22304   1.504   9.821   5.511 -0.3564 -0.3395 -0.2608
  887MOL0     C22305   1.560   9.959   5.524 -0.4724 -0.2116  0.2740
  887MOL0     C22306   1.687   9.969   5.442  0.2160 -0.0771  1.0620
  887MOL0     C22307   1.808   9.887   5.499 -0.6950 -0.0197 -0.6823
  887MOL0     C22308   1.923   9.882   5.400 -0.3082 -0.9049  0.0462
  887MOL0     C22309   1.890   9.820   5.268 -0.5873  0.5576 -0.3043
  887MOL0     C22310   2.020   9.768   5.201 -0.0466  0.0943  0.2936
  887MOL0     C22311   1.987   9.704   5.068 -0.1176 -0.1690 -0.2523
  887MOL0     C22312   1.949   9.796   4.956  0.2932  0.0090 -1.0147
  887MOL0    Cl22313   2.095   9.880   4.880 -0.1575  0.0336 -0.0807
  887MOL0     C22314   1.323   9.892   5.666  0.5574  1.1418  0.0476
  887MOL0     C22315   1.189   9.874   5.711 -0.6990 -0.4431  1.1205
  887MOL0     O22316   0.907   9.938   5.622 -0.5855 -0.4210 -0.1800
  887MOL0     C22317   0.800   9.805   5.913 -0.8178 -0.2617 -0.9149
  887MOL0     C22318   0.691   9.778   6.004 -0.5458 -0.1801  0.0099
  887MOL0     N22319   0.160   9.819   6.627  0.1636  0.0752  0.1372
  887MOL0     N22320   0.211   9.895   6.721  0.2448  0.9818 -0.1194
  887MOL0     C22321   0.495  10.841   6.570 -1.0475 -0.8754 -0.0590
  887MOL0     C22322   0.409  10.953   6.534 -0.3523 -0.1069  0.2262
  887MOL0     C22323   0.280  11.382   6.431  0.2292  0.3166 -0.9901
  887MOL0     C22324   0.308  11.443   6.309 -0.2223 -0.4621  0.0277
  887MOL0     C22325   0.229  11.542   6.246  0.9575 -0.3915 -0.3895
  887MOL0     C22326   0.107  11.580   6.314  0.6973 -0.5205  0.1200
  887MOL0     O22327   0.004  11.662   6.266 -0.2883 -0.7794  0.1219
  887MOL0     C22328  -0.008  11.679   6.129 -0.3138 -0.7365 -0.9377
  887MOL0     C22329  -0.061  11.550   6.070  0.3365  0.3126 -0.0079
  887MOL0     C22330  -0.215  11.548   6.067  0.4634 -0.9965 -1.1197
  887MOL0     C22331  -0.267  11.394   6.046  0.1034 -0.6881 -0.0551
  887MOL0     C22332  -0.219  11.327   5.922  0.1636  0.5623  0.1585
  887MOL0     C22333  -0.164  11.275   5.824 -0.0591  0.4127  0.2151
  887MOL0     C22334   0.085  11.521   6.437 -0.0992 -0.5963  0.0797
  887MOL0     C22335   0.163  11.425   6.498 -0.8203 -0.2947  0.5115
  887MOL0     C22336   0.126  11.368   6.638 -0.5911 -0.6906  0.9194
  887MOL0     H22337   0.529  11.194   6.740  1.9790 -0.7498  0.5978
  887MOL0     H22338   0.630  10.994   6.838 -0.8632  1.1121  0.1868
  887MOL0     H22339   0.776  10.705   6.587  0.9128  1.6698  1.0717
  887MOL0     H22340   0.625  10.614   6.586  0.4734 -1.4021  1.2981
  887MOL0     H22341   0.853  10.504   6.661  1.4915  1.9034  0.2859
  887MOL0     H22342   0.818  10.586   6.810  3.7529 -1.8214 -1.1829
  887MOL0     H22343   0.582  10.475   6.799 -2.5422 -4.1926 -0.3490
  887MOL0     H22344   0.647  10.376   6.663  0.2665 -0.4272  0.3839
  887MOL0     H22345   0.842  10.319   6.807 -0.4161  2.7716  0.5782
  887MOL0     H22346   0.745  10.346   6.950 -2.2242 -1.2610  0.5946
  887MOL0     H22347   0.727  10.103   6.902 -0.6201 -0.0047  0.9680
  887MOL0     H22348   0.687  10.144   6.731 -1.8828 -0.5096 -0.4099
  887MOL0     H22349   0.548  10.230   6.992 -1.8048  1.5633 -0.4516
  887MOL0     H22350   0.487  10.269   6.831 -1.3972 -1.1395 -1.5642
  887MOL0     H22351   0.374  10.074   6.944 -1.1278 -1.5595 -0.8798
  887MOL0     H22352   0.531   9.987   6.893  1.4774  0.1767 -1.6257
  887MOL0     H22353   0.306  10.127   6.717 -0.1163  0.5304 -0.5843
  887MOL0     H22354   0.460  10.074   6.648  1.5162  0.1905  2.1553
  887MOL0     H22355   0.464   9.874   6.516  0.0897  0.3209  1.1485
  887MOL0     H22356   0.167   9.735   6.333  0.3524 -0.3020 -0.3998
  887MOL0     H22357   0.237   9.598   6.437  0.1908  0.1185  0.0702
  887MOL0     H22358   0.400   9.814   6.296 -0.0611  0.4396 -0.2027
  887MOL0     H22359   0.451   9.662   6.366 -0.5713 -1.3155  0.0334
  887MOL0     H22360   0.295   9.540   6.202  3.3868 -0.9039  1.5832
  887MOL0     H22361   0.264   9.706   6.129  0.8102  3.1065  2.6007
  887MOL0     H22362   0.537   9.596   6.123  0.6326  0.3112 -0.8206
  887MOL0     H22363   0.416   9.576   5.986 -3.6301 -0.5920  1.9648
  887MOL0     H22364   0.436   9.798   5.781 -0.3936  1.6717  1.2014
  887MOL0     H22365   0.626   9.901   5.547  2.8330 -0.2236 -2.5074
  887MOL0     H22366   0.517   9.762   5.551  0.6544 -1.9517 -1.4134
  887MOL0     H22367   0.687   9.746   5.513 -0.8827  0.9633 -0.9360
  887MOL0     H22368   1.147   9.566   5.573  0.7169  0.7133 -1.3725
  887MOL0     H22369   1.372   9.620   5.467 -0.3208 -1.2449 -0.2859
  887MOL0     H22370   1.497  10.040   5.485  1.7038 -0.1238 -3.5379
  887MOL0     H22371   1.587   9.979   5.628  2.5839 -0.3756 -0.3786
  887MOL0     H22372   1.659   9.934   5.343 -0.5845  2.9957  0.0727
  887MOL0     H22373   1.705  10.076   5.426 -0.5112  0.1159  1.4934
  887MOL0     H22374   1.778   9.782   5.510 -1.6218  0.0730 -2.1195
  887MOL0     H22375   1.849   9.923   5.594  3.1578  0.4495 -2.3219
  887MOL0     H22376   2.011   9.835   5.444  2.7949 -0.2216 -4.7101
  887MOL0     H22377   1.943   9.987   5.379 -0.2015 -0.6963  1.1235
  887MOL0     H22378   1.851   9.720   5.289  4.6584 -1.8457 -0.4741
  887MOL0     H22379   1.825   9.880   5.203  2.1921  1.5465 -2.3481
  887MOL0     H22380   2.067   9.701   5.273  0.2213  0.1343  0.1595
  887MOL0     H22381   2.091   9.849   5.182 -0.2077  0.6285  1.8166
  887MOL0     H22382   1.913   9.624   5.078  0.1160 -0.8961 -3.2571
  887MOL0     H22383   2.072   9.648   5.028  1.6739  1.8299  0.5488
  887MOL0     H22384   1.864   9.849   5.001 -0.2549 -1.6291 -0.0496
  887MOL0     H22385   1.913   9.741   4.868 -0.0981 -1.8887  0.2670
  887MOL0     H22386   1.371   9.985   5.697 -0.4135  1.7768 -0.3032
  887MOL0     H22387   1.147   9.941   5.785  0.4943 -0.6438  2.0231
  887MOL0     H22388   0.904   9.806   5.943 -1.4877  3.0465  2.0124
  887MOL0     H22389   0.712   9.767   6.110  0.8659  1.6611 -0.0212
  887MOL0     H22390   0.488  10.758   6.500  0.2488 -1.6845  0.7230
  887MOL0     H22391   0.338  10.938   6.453 -0.2499 -0.1717  0.1480
  887MOL0     H22392   0.398  11.421   6.253  1.1833 -0.5648  2.2005
  887MOL0     H22393   0.252  11.582   6.148 -2.5243  3.1463 -0.0420
  887MOL0     H22394  -0.076  11.763   6.112  0.4163  0.3905  1.2875
  887MOL0     H22395   0.082  11.709   6.075  0.2999 -0.7511  0.0631
  887MOL0     H22396  -0.018  11.469   6.130  2.9562  2.1752  0.8104
  887MOL0     H22397  -0.010  11.537   5.974 -1.4158  0.0303 -0.9240
  887MOL0     H22398  -0.241  11.591   6.165  1.4440  2.7574 -2.3574
  887MOL0     H22399  -0.250  11.613   5.986 -0.0131 -3.1776 -2.7378
  887MOL0     H22400  -0.375  11.412   6.039  0.0964 -0.5485  0.3785
  887MOL0     H22401  -0.239  11.326   6.126  2.2110  0.5408  0.3259
  887MOL0     H22402  -0.097  11.230   5.754 -1.0595  0.1281 -0.5773
  887MOL0     H22403  -0.008  11.550   6.485  0.2326  3.2959 -1.2625
  887MOL0     H22404   0.084  11.269   6.615  0.5168 -0.6978 -1.4135
  887MOL0     H22405   0.209  11.367   6.710 -0.2285 -0.3363  0.5152
  887MOL0     H22406   0.046  11.422   6.689  0.6059  4.2781 -1.8534
  888MOL0     O22407   6.626  11.077   0.928 -0.1285 -0.3500 -0.0269
  888MOL0     C22408   6.596  11.186   0.884 -0.0842  0.0426  0.3280
  888MOL0     O22409   6.470  11.211   0.828 -0.0185  0.7742 -0.4422
  888MOL0     C22410   6.362  11.141   0.860  0.3894  0.9866 -0.4447
  888MOL0     C22411   6.321  11.087   0.976 -0.3336 -0.2818 -0.2190
  888MOL0     C22412   6.196  11.037   0.999  0.2875  1.1676 -0.1525
  888MOL0     C22413   6.107  11.019   0.900 -1.2896 -0.1734 -1.2745
  888MOL0     O22414   5.985  10.974   0.935  0.1262  0.5752 -0.3313
  888MOL0     C22415   5.888  11.007   0.834 -0.9223 -0.0300 -0.3997
  888MOL0     C22416   5.745  10.971   0.886  0.1655  0.3043  0.6205
  888MOL0     C22417   5.679  11.074   0.988 -0.3713 -0.2019 -1.0865
  888MOL0     C22418   5.529  11.039   1.032 -0.5088  1.0553 -0.0029
  888MOL0     C22419   5.461  11.163   1.095 -0.2046 -0.7073  0.6221
  888MOL0     C22420   5.302  11.144   1.101 -0.6085  0.2516  0.0583
  888MOL0     C22421   5.244  11.274   1.147  0.1966 -0.6957 -0.3003
  888MOL0     C22422   5.095  11.261   1.167  0.3140  0.2158 -0.0671
  888MOL0     N22423   5.027  11.388   1.174  0.7180 -0.4841  0.1465
  888MOL0     C22424   4.975  11.465   1.074  0.5252 -0.3600  0.5958
  888MOL0     C22425   4.910  11.567   1.140 -1.0581 -0.6009  0.2404
  888MOL0     C22426   4.830  11.677   1.096  0.2481  0.5146 -0.1300
  888MOL0     C22427   4.684  11.649   1.104  1.3352  0.6221  0.0713
  888MOL0     C22428   4.596  11.671   0.986 -0.1128  0.3630 -0.6043
  888MOL0     C22429   4.456  11.642   1.022 -1.3150 -0.2455  1.1125
  888MOL0     O22430   4.373  11.620   0.908 -0.0723 -0.0918  0.5220
  888MOL0     C22431   4.354  11.500   0.843 -0.1990  0.4064 -0.8918
  888MOL0     C22432   4.262  11.490   0.733 -1.0112 -0.1343  0.2111
  888MOL0     C22433   4.238  11.369   0.663  0.1655  0.2993  0.3479
  888MOL0     C22434   4.134  11.371   0.551  0.7909  0.6152 -0.6746
  888MOL0     C22435   4.302  11.254   0.722 -0.0232  0.5970 -0.1040
  888MOL0     C22436   4.261  11.115   0.681 -0.7525 -0.9108 -0.2206
  888MOL0     O22437   4.302  11.014   0.760 -0.3452 -0.0900  0.2141
  888MOL0     C22438   4.326  10.898   0.706  0.0322  0.6355  0.7700
  888MOL0     C22439   4.231  10.796   0.716  0.5087 -0.3832  0.7259
  888MOL0     C22440   4.266  10.665   0.689  0.2056  0.3042  0.3950
  888MOL0     C22441   4.393  10.634   0.623 -1.0043 -0.4107 -0.0726
  888MOL0     O22442   4.420  10.507   0.583 -0.0478  0.8171  0.9070
  888MOL0     C22443   4.548  10.469   0.530 -0.1302 -0.2848 -0.4752
  888MOL0     C22444   4.544  10.325   0.503 -0.1099  0.1531 -0.0425
  888MOL0     C22445   4.461  10.291   0.381 -0.6067  0.1852  0.7723
  888MOL0     C22446   4.449  10.135   0.360  0.4350  0.2393 -1.0239
  888MOL0     C22447   4.365  10.099   0.235  0.1531 -0.7495  0.1774
  888MOL0     C22448   4.222  10.162   0.253  0.0302 -0.1912  0.3676
  888MOL0     C22449   4.132  10.125   0.129  0.4113 -0.7671 -0.4475
  888MOL0     C22450   4.164  10.216   0.007  0.0412 -0.6886  0.8735
  888MOL0    Cl22451   4.212  10.394   0.043 -0.1493 -0.0030 -0.4212
  888MOL0     C22452   4.494  10.736   0.618  0.3790 -0.8899 -0.4414
  888MOL0     C22453   4.459  10.860   0.665 -0.3272 -1.2209  0.7568
  888MOL0     O22454   4.206  11.094   0.572 -0.3600 -0.2767 -0.0640
  888MOL0     C22455   4.394  11.259   0.831 -0.4872  1.3122  0.2382
  888MOL0     C22456   4.424  11.387   0.892  0.5044  0.7640  0.9397
  888MOL0     N22457   4.940  11.561   1.275 -0.0330  0.6188 -0.2587
  888MOL0     N22458   4.997  11.446   1.296 -0.1541  0.0522  0.7671
  888MOL0     C22459   6.149  11.074   0.779 -0.0065  1.4217  0.4949
  888MOL0     C22460   6.272  11.125   0.757  0.1486 -0.0140 -0.5564
  888MOL0     C22461   6.699  11.297   0.887  1.2677  0.6512  0.5763
  888MOL0     C22462   6.649  11.427   0.862  0.8926 -1.1900  0.1268
  888MOL0     C22463   6.736  11.532   0.854 -0.0818 -0.4935  0.8688
  888MOL0     C22464   6.864  11.521   0.883 -0.0950  0.1308 -0.6678
  888MOL0     O22465   6.950  11.626   0.898  0.0967 -0.3986  0.4441
  888MOL0     C22466   6.944  11.738   0.803  0.0834  0.2442  0.5313
  888MOL0     C22467   7.074  11.821   0.799 -0.1342  0.7355 -0.2444
  888MOL0     C22468   7.128  11.884   0.931  0.0747 -0.3977 -0.5779
  888MOL0     C22469   7.200  11.782   1.017 -0.0492  0.0925  0.7933
  888MOL0     C22470   7.352  11.784   0.999  0.1655 -0.4383  0.1535
  888MOL0     C22471   7.470  11.771   0.971  0.1983 -1.3024 -0.2559
  888MOL0     C22472   6.915  11.393   0.909  0.7108 -0.7939  0.4559
  888MOL0     C22473   6.836  11.284   0.897 -0.5639 -0.0127 -0.0532
  888MOL0     C22474   6.891  11.144   0.899  0.7263 -0.6342  0.2697
  888MOL0     H22475   6.379  11.102   1.067 -2.6926 -1.4768  1.5928
  888MOL0     H22476   6.167  11.011   1.100 -1.1322  2.8885 -0.0711
  888MOL0     H22477   5.899  10.939   0.749  2.5162 -0.8606  0.5246
  888MOL0     H22478   5.888  11.116   0.823  0.2318  0.5670  3.7316
  888MOL0     H22479   5.673  10.956   0.805  0.8374  4.0240 -0.8358
  888MOL0     H22480   5.763  10.878   0.942 -3.1953 -1.1799 -0.4897
  888MOL0     H22481   5.730  11.073   1.085 -2.5208 -1.9350  0.1126
  888MOL0     H22482   5.697  11.174   0.947 -0.5556  1.6531  2.8274
  888MOL0     H22483   5.466  10.998   0.953 -0.4775  2.5015 -0.8055
  888MOL0     H22484   5.527  10.954   1.102 -2.8349  1.3943  0.4373
  888MOL0     H22485   5.485  11.255   1.041 -1.5696 -1.6997 -1.8180
  888MOL0     H22486   5.503  11.173   1.195  0.7413  0.8153  0.1058
  888MOL0     H22487   5.261  11.102   1.009 -1.8963  1.1923  0.1776
  888MOL0     H22488   5.282  11.067   1.176  0.7928  0.2163  0.4208
  888MOL0     H22489   5.260  11.358   1.080 -0.2403  0.6865  1.2716
  888MOL0     H22490   5.291  11.297   1.243  0.0487 -0.2965 -0.3228
  888MOL0     H22491   5.052  11.211   1.079  0.8610  0.6295 -0.5791
  888MOL0     H22492   5.085  11.196   1.254  6.1258 -1.0547  0.0731
  888MOL0     H22493   4.974  11.446   0.967 -1.5846 -3.7792  1.0980
  888MOL0     H22494   4.871  11.703   0.998  1.5063 -1.3992 -0.1734
  888MOL0     H22495   4.864  11.752   1.168 -1.4296 -0.4344  1.7683
  888MOL0     H22496   4.667  11.545   1.130 -0.5342  1.4096  2.4175
  888MOL0     H22497   4.640  11.702   1.189 -1.2847  0.5025 -1.1027
  888MOL0     H22498   4.621  11.778   0.983  0.7728  0.3996  2.8987
  888MOL0     H22499   4.635  11.625   0.895  0.4703  0.7892 -0.5777
  888MOL0     H22500   4.451  11.555   1.088 -0.4864 -2.0548 -1.0602
  888MOL0     H22501   4.416  11.735   1.063 -0.1929  1.0714 -0.6491
  888MOL0     H22502   4.217  11.580   0.693  3.6273  1.5033 -2.0931
  888MOL0     H22503   4.078  11.464   0.568 -1.0809 -0.3925 -1.0381
  888MOL0     H22504   4.054  11.297   0.565 -1.0541  2.4062 -1.3136
  888MOL0     H22505   4.182  11.353   0.455  1.4850  0.2587 -0.2735
  888MOL0     H22506   4.131  10.817   0.752 -1.1203  1.3318 -4.0521
  888MOL0     H22507   4.181  10.598   0.693 -0.6429  1.2416 -1.1710
  888MOL0     H22508   4.568  10.523   0.436  1.6496 -1.0112 -0.5516
  888MOL0     H22509   4.625  10.476   0.607 -1.4724 -1.8301  1.0625
  888MOL0     H22510   4.646  10.286   0.492 -0.8577 -2.1662  0.7354
  888MOL0     H22511   4.511  10.257   0.582  0.3172 -0.8403 -0.6922
  888MOL0     H22512   4.496  10.336   0.288  2.2241 -3.8181 -0.3775
  888MOL0     H22513   4.366  10.331   0.419 -0.7482  0.1315  0.4714
  888MOL0     H22514   4.399  10.093   0.448 -1.4368  5.9907  1.1353
  888MOL0     H22515   4.549  10.095   0.345  0.0319 -1.3516  0.2074
  888MOL0     H22516   4.403  10.156   0.150 -0.9255  1.4660  1.1080
  888MOL0     H22517   4.369   9.992   0.213 -0.7860 -0.8897  0.6394
  888MOL0     H22518   4.233  10.270   0.265 -1.2958 -0.2221  2.3139
  888MOL0     H22519   4.184  10.123   0.348  0.2852 -2.5609 -0.4300
  888MOL0     H22520   4.024  10.144   0.136  0.2547 -1.7352 -0.0118
  888MOL0     H22521   4.146  10.020   0.100  0.4607 -0.2085 -2.6314
  888MOL0     H22522   4.076  10.221  -0.058  1.2621  1.9428 -0.7522
  888MOL0     H22523   4.232  10.163  -0.060 -2.4504 -0.0181 -2.4637
  888MOL0     H22524   4.594  10.711   0.584  1.5414 -0.5535  2.4719
  888MOL0     H22525   4.538  10.934   0.666 -1.5548  0.1171  1.3047
  888MOL0     H22526   4.435  11.166   0.869 -0.9702  0.2143 -1.7761
  888MOL0     H22527   4.487  11.405   0.978 -0.0385 -2.7536  2.2614
  888MOL0     H22528   6.079  11.073   0.696 -0.3403  0.1341  0.7655
  888MOL0     H22529   6.303  11.166   0.661  0.3620 -0.2804 -0.6017
  888MOL0     H22530   6.544  11.444   0.838  1.7087  0.6146 -2.6761
  888MOL0     H22531   6.701  11.634   0.840  0.4156 -0.5795 -1.2897
  888MOL0     H22532   6.926  11.703   0.701  0.3334 -0.6667  0.7947
  888MOL0     H22533   6.863  11.809   0.824 -1.2354 -0.6780 -1.1562
  888MOL0     H22534   7.045  11.901   0.730  1.3557 -1.4929 -3.6884
  888MOL0     H22535   7.155  11.769   0.748  0.4498  2.8701 -1.5906
  888MOL0     H22536   7.183  11.971   0.894 -2.2300  0.8246 -1.3067
  888MOL0     H22537   7.043  11.918   0.991 -0.3122 -2.1698 -0.0608
  888MOL0     H22538   7.163  11.686   0.980  1.9533  0.1527 -1.6951
  888MOL0     H22539   7.176  11.776   1.123  0.2768  1.1742  0.9315
  888MOL0     H22540   7.575  11.772   0.948  0.4469  0.6012  0.6964
  888MOL0     H22541   7.017  11.369   0.939  1.7782 -0.7187 -2.7408
  888MOL0     H22542   6.879  11.089   0.993 -2.8253 -3.4449 -1.5961
  888MOL0     H22543   6.845  11.085   0.820 -1.1044  1.2167 -0.1384
  888MOL0     H22544   6.998  11.154   0.877  1.1661 -2.8562  1.1638
  889MOL0     O22545   6.108   3.882   7.526  0.6543  0.1773 -0.0244
  889MOL0     C22546   6.103   3.970   7.445 -0.0577 -0.1258  0.2694
  889MOL0     O22547   6.105   3.951   7.308  0.1465  0.3182  0.5344
  889MOL0     C22548   6.085   3.820   7.260 -1.2643 -0.4854  0.1999
  889MOL0     C22549   6.185   3.770   7.177  0.1915 -0.1976 -0.0934
  889MOL0     C22550   6.178   3.642   7.114  0.0953 -0.2384 -0.1438
  889MOL0     C22551   6.062   3.565   7.123 -0.2395  0.1659 -1.2582
  889MOL0     O22552   6.047   3.453   7.049 -0.4680 -0.0188 -0.2892
  889MOL0     C22553   5.920   3.390   7.043  0.0782 -0.6582  0.4303
  889MOL0     C22554   5.931   3.316   6.904  0.2212 -0.0708  0.6974
  889MOL0     C22555   5.914   3.429   6.791 -1.0340  0.7755 -0.0493
  889MOL0     C22556   5.910   3.359   6.645 -0.2306  0.6016  0.5343
  889MOL0     C22557   5.872   3.467   6.538 -1.0288 -0.7384 -0.3209
  889MOL0     C22558   5.782   3.408   6.421 -0.1946 -0.3485 -0.2887
  889MOL0     C22559   5.715   3.522   6.350 -0.0059  0.3655  0.6669
  889MOL0     C22560   5.813   3.598   6.252  0.2162 -0.0951 -0.3189
  889MOL0     N22561   5.711   3.670   6.170 -1.0596  0.1692 -0.0115
  889MOL0     C22562   5.630   3.778   6.210  0.3774 -0.4614  0.9205
  889MOL0     C22563   5.563   3.815   6.093 -0.8875 -0.8553 -0.9772
  889MOL0     C22564   5.449   3.918   6.082 -0.2144 -0.3494  1.0367
  889MOL0     C22565   5.320   3.852   6.104  0.7900  0.8457  0.1812
  889MOL0     C22566   5.212   3.948   6.084  0.2541 -0.3272 -0.6280
  889MOL0     C22567   5.080   3.917   6.156 -0.0762  0.3137  0.1346
  889MOL0     O22568   5.039   3.785   6.107 -1.0545 -0.0989 -0.7300
  889MOL0     C22569   4.912   3.739   6.121 -0.0498 -0.1379 -0.4721
  889MOL0     C22570   4.902   3.602   6.116  0.9534  0.3593 -0.0984
  889MOL0     C22571   4.772   3.536   6.129 -0.4539  0.2554 -0.2576
  889MOL0     C22572   4.792   3.386   6.115 -0.0563 -0.4974 -0.5579
  889MOL0     C22573   4.656   3.612   6.148  0.2969  0.2797 -0.2897
  889MOL0     C22574   4.518   3.568   6.151 -0.1366 -0.3182 -1.3714
  889MOL0     O22575   4.424   3.661   6.179  0.2739  0.4476 -0.7465
  889MOL0     C22576   4.289   3.617   6.184 -0.7067 -0.1615  0.0899
  889MOL0     C22577   4.242   3.570   6.309  0.3284  0.9767  0.2785
  889MOL0     C22578   4.114   3.510   6.309 -0.1116  0.5136 -0.0095
  889MOL0     C22579   4.036   3.500   6.191 -0.6111  0.1821  0.2051
  889MOL0     O22580   3.910   3.449   6.199  0.1567  0.4611  0.0854
  889MOL0     C22581   3.803   3.513   6.122  0.8709  0.7641 -0.5931
  889MOL0     C22582   3.665   3.473   6.172 -0.2960  0.6643 -0.0065
  889MOL0     C22583   3.646   3.312   6.187  0.1557  0.5892 -0.5415
  889MOL0     C22584   3.525   3.263   6.258  0.8408  0.0714 -0.2029
  889MOL0     C22585   3.432   3.201   6.164 -0.1861 -0.3979 -0.5240
  889MOL0     C22586   3.294   3.165   6.227  0.0435 -0.1644  0.0933
  889MOL0     C22587   3.300   3.061   6.342 -0.0467 -0.4387  0.4834
  889MOL0     C22588   3.159   3.013   6.392 -0.1482 -0.0871  0.5349
  889MOL0    Cl22589   3.085   3.129   6.501 -0.7193  0.1654 -0.2570
  889MOL0     C22590   4.088   3.547   6.069 -0.1736  0.2343  0.6615
  889MOL0     C22591   4.211   3.606   6.070 -0.8778  0.1868  0.1873
  889MOL0     O22592   4.492   3.452   6.125 -0.7213  0.1552  0.3651
  889MOL0     C22593   4.679   3.748   6.163 -0.2027 -0.7714 -0.7708
  889MOL0     C22594   4.807   3.818   6.145  0.6886  0.2705 -0.4757
  889MOL0     N22595   5.602   3.735   5.981 -0.3494  0.1206 -0.1683
  889MOL0     N22596   5.696   3.659   6.037  0.4544 -0.0285 -0.0317
  889MOL0     C22597   5.960   3.617   7.209  0.0618  0.3999 -0.1476
  889MOL0     C22598   5.968   3.742   7.277 -0.1028  0.1550 -0.1795
  889MOL0     C22599   6.119   4.103   7.517 -0.1707 -0.5836  0.0576
  889MOL0     C22600   6.066   4.102   7.652 -0.6892  0.1680  0.0210
  889MOL0     C22601   6.069   4.219   7.727  0.4569  0.7573 -0.2046
  889MOL0     C22602   6.101   4.343   7.665 -0.0287  0.0795 -0.5176
  889MOL0     O22603   6.083   4.452   7.739 -0.0502 -0.7266  1.0646
  889MOL0     C22604   5.946   4.490   7.741 -0.1930 -0.9962  0.3307
  889MOL0     C22605   5.908   4.579   7.620 -0.6017 -0.5261  0.4065
  889MOL0     C22606   6.004   4.701   7.593 -0.1730  0.1245  0.1730
  889MOL0     C22607   5.960   4.776   7.471 -0.0986 -0.7737  0.4860
  889MOL0     C22608   6.028   4.906   7.457 -0.4452  0.3952 -0.3354
  889MOL0     C22609   6.078   5.017   7.445  1.0148  0.1911 -0.1475
  889MOL0     C22610   6.157   4.344   7.531 -0.3311 -0.2151 -0.5492
  889MOL0     C22611   6.178   4.220   7.463  0.4261 -0.0810 -1.0162
  889MOL0     C22612   6.255   4.221   7.335 -0.2511 -0.8298  0.5358
  889MOL0     H22613   6.273   3.831   7.159 -0.8432  1.5619  0.6201
  889MOL0     H22614   6.259   3.595   7.059  1.6075  0.2668  1.5839
  889MOL0     H22615   5.846   3.468   7.028 -0.1919 -1.1069 -0.7392
  889MOL0     H22616   5.920   3.324   7.130 -0.0127 -0.4729  0.5699
  889MOL0     H22617   6.027   3.265   6.893  0.9667  1.4699 -0.2301
  889MOL0     H22618   5.850   3.244   6.889  2.1600 -2.3080  0.4605
  889MOL0     H22619   5.829   3.494   6.810 -0.1596  1.3119  2.3720
  889MOL0     H22620   5.998   3.499   6.797  2.1090 -2.6780  0.6907
  889MOL0     H22621   6.004   3.314   6.612 -1.2092  0.4707 -2.3416
  889MOL0     H22622   5.829   3.286   6.649 -1.3998  1.8162 -0.0412
  889MOL0     H22623   5.964   3.513   6.500 -1.1204  0.1458  0.4915
  889MOL0     H22624   5.806   3.545   6.576 -2.2504 -2.3517  1.0069
  889MOL0     H22625   5.826   3.335   6.353  0.2600  0.1458 -0.5317
  889MOL0     H22626   5.710   3.343   6.472 -1.1797 -0.1565 -1.4072
  889MOL0     H22627   5.675   3.588   6.428 -1.6454 -1.3714  1.3778
  889MOL0     H22628   5.628   3.478   6.300  1.3210 -0.7071 -0.7721
  889MOL0     H22629   5.879   3.657   6.316  0.0151 -1.8580  1.6668
  889MOL0     H22630   5.872   3.526   6.195 -0.9792 -1.0303 -0.4200
  889MOL0     H22631   5.602   3.816   6.308  0.8536  1.2763  0.4175
  889MOL0     H22632   5.442   3.965   5.984 -0.2694 -1.2008  0.6279
  889MOL0     H22633   5.462   4.004   6.149  0.3140  0.5129 -0.1378
  889MOL0     H22634   5.288   3.776   6.032 -2.9590  1.9661  0.4762
  889MOL0     H22635   5.322   3.809   6.204  1.9594  2.3043  0.8264
  889MOL0     H22636   5.229   4.048   6.125 -1.6221 -0.0264 -0.4944
  889MOL0     H22637   5.188   3.956   5.978 -2.3017 -0.7187 -0.1401
  889MOL0     H22638   5.092   3.909   6.264  1.1067  4.6171  0.4944
  889MOL0     H22639   5.009   3.995   6.130  0.7006  1.6544  1.8856
  889MOL0     H22640   4.995   3.547   6.108  1.4438  0.5975  2.7937
  889MOL0     H22641   4.789   3.369   6.007 -1.1778  0.1316 -0.6417
  889MOL0     H22642   4.714   3.338   6.176  0.9141  0.7326  1.7825
  889MOL0     H22643   4.883   3.347   6.160 -0.0200 -2.9440 -2.5573
  889MOL0     H22644   4.291   3.562   6.405  1.2461 -2.8802 -0.3581
  889MOL0     H22645   4.073   3.486   6.406 -1.4224  3.1972  0.2088
  889MOL0     H22646   3.806   3.622   6.132 -0.5299  0.7021  1.1465
  889MOL0     H22647   3.815   3.479   6.019  0.0577  3.7306 -1.7820
  889MOL0     H22648   3.662   3.513   6.274  0.0232 -0.3542  0.4225
  889MOL0     H22649   3.594   3.514   6.100 -1.2948  2.9912  2.1559
  889MOL0     H22650   3.728   3.266   6.242 -0.9234 -0.1758  0.4842
  889MOL0     H22651   3.642   3.281   6.082  0.2393  2.8768 -1.2715
  889MOL0     H22652   3.490   3.346   6.320  1.4051  1.5115 -1.7156
  889MOL0     H22653   3.556   3.187   6.331  2.3559  0.7354 -0.1090
  889MOL0     H22654   3.411   3.274   6.085  0.0618  1.3213  0.9539
  889MOL0     H22655   3.482   3.109   6.130 -2.6867 -2.3296  0.7324
  889MOL0     H22656   3.211   3.133   6.164 -3.1292  2.8709  2.3683
  889MOL0     H22657   3.265   3.259   6.274  0.4448  0.2260 -0.4339
  889MOL0     H22658   3.350   3.103   6.431  2.5026  1.3488 -1.6388
  889MOL0     H22659   3.370   2.985   6.307  0.1869  0.3704 -0.8854
  889MOL0     H22660   3.189   2.928   6.454 -1.3177  0.0639  1.3311
  889MOL0     H22661   3.095   2.983   6.309 -3.1830  0.8547  2.3742
  889MOL0     H22662   4.027   3.521   5.983 -0.4225  0.3243  0.8087
  889MOL0     H22663   4.261   3.640   5.980 -0.6754  1.0422  0.6177
  889MOL0     H22664   4.595   3.809   6.193 -0.5885 -3.2229  3.9645
  889MOL0     H22665   4.813   3.925   6.160 -1.6405  0.2711  1.0885
  889MOL0     H22666   5.878   3.550   7.227 -0.3827  0.4846 -1.7679
  889MOL0     H22667   5.893   3.780   7.346 -0.2430 -1.9115  0.8645
  889MOL0     H22668   6.039   4.008   7.698 -2.5938 -0.4208 -2.1387
  889MOL0     H22669   6.036   4.202   7.829  1.3649 -3.0591 -0.3712
  889MOL0     H22670   5.881   4.402   7.737  1.5594 -2.3339 -3.6227
  889MOL0     H22671   5.927   4.552   7.829 -1.3408 -2.5596  1.2512
  889MOL0     H22672   5.808   4.614   7.647  0.3196  3.7534 -0.9412
  889MOL0     H22673   5.914   4.524   7.526  0.5277  0.3079 -0.0224
  889MOL0     H22674   6.000   4.772   7.676  2.9344  3.7728 -2.4422
  889MOL0     H22675   6.108   4.668   7.582  0.8544  2.3061  2.3528
  889MOL0     H22676   5.853   4.796   7.466  0.2208  0.7540 -2.3080
  889MOL0     H22677   5.979   4.709   7.387 -3.6163 -2.0165  0.4987
  889MOL0     H22678   6.114   5.115   7.421 -2.0689  1.7861  1.0640
  889MOL0     H22679   6.178   4.442   7.487  0.9889 -0.1840  0.0999
  889MOL0     H22680   6.195   4.242   7.246  0.2463  1.6876  0.7070
  889MOL0     H22681   6.337   4.290   7.357  0.9066 -2.3515  1.1951
  889MOL0     H22682   6.298   4.126   7.303  3.5938  1.5020 -2.1243
  890MOL0     O22683   3.499   2.929   2.214  0.5640 -0.5793  0.2935
  890MOL0     C22684   3.423   2.848   2.272 -0.4199  0.1579 -0.0490
  890MOL0     O22685   3.308   2.871   2.337 -0.2104  0.1219  0.1659
  890MOL0     C22686   3.269   3.002   2.359  0.3715 -1.0688  0.4355
  890MOL0     C22687   3.360   3.107   2.397 -0.3443  0.1581 -0.3102
  890MOL0     C22688   3.302   3.236   2.415 -0.3410 -0.2989 -0.5082
  890MOL0     C22689   3.167   3.266   2.394 -0.1458 -0.6143  0.5497
  890MOL0     O22690   3.106   3.395   2.393  0.7801 -0.1568  0.1100
  890MOL0     C22691   3.189   3.498   2.440 -0.1385 -1.1016  0.5340
  890MOL0     C22692   3.090   3.613   2.466  0.7332  0.3553  0.3960
  890MOL0     C22693   3.148   3.731   2.531  0.4769 -0.4171 -0.1990
  890MOL0     C22694   3.142   3.708   2.688  0.9843 -0.7126  0.2776
  890MOL0     C22695   3.208   3.826   2.771 -0.2757  0.2988  0.1151
  890MOL0     C22696   3.353   3.873   2.739  0.3288  0.4145  0.2615
  890MOL0     C22697   3.453   3.764   2.777 -0.8088 -0.1975 -0.0229
  890MOL0     C22698   3.593   3.786   2.733 -0.9405 -0.3377  0.1968
  890MOL0     N22699   3.623   3.805   2.590  0.5788 -0.0074 -0.1862
  890MOL0     C22700   3.614   3.711   2.492 -0.4840  0.3854 -0.6152
  890MOL0     C22701   3.662   3.772   2.382  0.3285  0.9828 -1.1003
  890MOL0     C22702   3.673   3.703   2.248 -0.6062 -0.4180  1.0008
  890MOL0     C22703   3.541   3.663   2.190  0.5360  0.1545 -0.1431
  890MOL0     C22704   3.533   3.577   2.061 -1.0661  0.5481 -0.9921
  890MOL0     C22705   3.435   3.470   2.064 -0.8896  0.2700 -0.1662
  890MOL0     O22706   3.431   3.408   1.939 -0.3551 -0.3264 -0.3937
  890MOL0     C22707   3.388   3.279   1.944  0.0849  0.2780  0.0534
  890MOL0     C22708   3.474   3.176   1.920 -0.6386  0.6050  0.1976
  890MOL0     C22709   3.435   3.042   1.921  0.9743  0.7702  0.9528
  890MOL0     C22710   3.539   2.938   1.874 -0.1455 -0.5583  0.3852
  890MOL0     C22711   3.293   3.016   1.949 -1.1295 -0.5112 -1.3435
  890MOL0     C22712   3.232   2.878   1.941 -0.0193  0.1148 -0.2393
  890MOL0     O22713   3.318   2.770   1.951 -0.5931 -0.6398  0.6095
  890MOL0     C22714   3.277   2.642   1.924 -1.1773  0.6150  0.2781
  890MOL0     C22715   3.370   2.549   1.873 -0.3360 -1.3119 -0.3683
  890MOL0     C22716   3.334   2.414   1.857  0.0161 -0.4213 -2.0075
  890MOL0     C22717   3.200   2.371   1.882 -0.5794  0.1566 -0.0681
  890MOL0     O22718   3.157   2.241   1.861  0.3934  0.0821 -0.4428
  890MOL0     C22719   3.221   2.167   1.757 -0.2400  0.3509  0.0450
  890MOL0     C22720   3.325   2.072   1.814 -0.2660  0.1793  0.2849
  890MOL0     C22721   3.334   1.959   1.708 -0.1161 -0.1625  0.6333
  890MOL0     C22722   3.386   1.987   1.569  0.2619  0.1518  0.0156
  890MOL0     C22723   3.399   1.850   1.494  0.7085 -0.0844 -0.5100
  890MOL0     C22724   3.498   1.869   1.379  0.3929  0.6947 -0.0458
  890MOL0     C22725   3.528   1.752   1.272  0.3831 -0.2727 -0.6367
  890MOL0     C22726   3.396   1.702   1.211  0.6905  0.2642 -0.2009
  890MOL0    Cl22727   3.321   1.818   1.088 -0.3272 -0.4791  0.2185
  890MOL0     C22728   3.108   2.457   1.933  0.2208 -0.5801  0.8341
  890MOL0     C22729   3.147   2.594   1.957  0.0620 -0.4778  0.3897
  890MOL0     O22730   3.113   2.875   1.910  0.4509  0.0693 -0.7420
  890MOL0     C22731   3.210   3.120   1.961 -0.4267  0.4065  0.2414
  890MOL0     C22732   3.253   3.249   1.964 -0.4539  0.1335  1.1848
  890MOL0     N22733   3.697   3.893   2.416  1.2343 -0.2988  0.1543
  890MOL0     N22734   3.670   3.914   2.539 -0.9242 -0.3037  0.1851
  890MOL0     C22735   3.079   3.158   2.372  0.1934 -0.6033 -0.4408
  890MOL0     C22736   3.136   3.032   2.362 -0.2156  0.7422 -0.9814
  890MOL0     C22737   3.444   2.705   2.259  0.3090 -0.3975 -0.3815
  890MOL0     C22738   3.343   2.612   2.249 -0.3248  0.5797  0.4026
  890MOL0     C22739   3.364   2.471   2.231 -0.5404  0.0917 -0.4944
  890MOL0     C22740   3.497   2.421   2.228  0.0789 -0.5036  0.1076
  890MOL0     O22741   3.523   2.287   2.227 -0.4375  0.5050 -0.2004
  890MOL0     C22742   3.441   2.169   2.236 -0.1709  0.4922 -0.0684
  890MOL0     C22743   3.458   2.134   2.376  0.1183  0.2049  0.1133
  890MOL0     C22744   3.606   2.074   2.394  0.2354  0.2481 -0.8776
  890MOL0     C22745   3.606   1.926   2.367  0.6164  0.5747 -0.0774
  890MOL0     C22746   3.734   1.878   2.414 -0.1657 -0.1597 -0.2680
  890MOL0     C22747   3.841   1.846   2.460 -0.1147  0.8477  0.2093
  890MOL0     C22748   3.599   2.511   2.264  0.0320 -0.2715  0.6439
  890MOL0     C22749   3.579   2.654   2.267 -0.0322  0.7615  0.1593
  890MOL0     C22750   3.699   2.733   2.317 -0.1881 -0.2062  1.4007
  890MOL0     H22751   3.464   3.094   2.423  0.2823  2.6145 -1.2813
  890MOL0     H22752   3.365   3.316   2.454 -0.1006 -0.9823  0.5767
  890MOL0     H22753   3.256   3.527   2.358 -0.5728 -2.3227 -0.2846
  890MOL0     H22754   3.243   3.473   2.532  0.4549  0.4255  0.6248
  890MOL0     H22755   3.044   3.646   2.372 -1.1834 -2.0371  0.4127
  890MOL0     H22756   3.005   3.572   2.521  0.1454 -1.9440 -2.0118
  890MOL0     H22757   3.255   3.736   2.507  0.6441 -2.5479 -0.0477
  890MOL0     H22758   3.099   3.827   2.510 -0.8775 -1.0818 -0.1627
  890MOL0     H22759   3.039   3.696   2.723  1.8407 -0.2659  3.1851
  890MOL0     H22760   3.208   3.624   2.714  2.3060 -0.1554 -1.1213
  890MOL0     H22761   3.192   3.795   2.875 -1.2094  1.8244  0.4618
  890MOL0     H22762   3.148   3.915   2.750 -0.0135  0.6945  1.0053
  890MOL0     H22763   3.364   3.895   2.632  0.5409  0.0733  0.2097
  890MOL0     H22764   3.370   3.957   2.806  0.2065 -1.4091  2.7058
  890MOL0     H22765   3.414   3.670   2.736  0.9400 -1.5108  1.1978
  890MOL0     H22766   3.465   3.747   2.885 -1.8045  0.0195  0.1336
  890MOL0     H22767   3.624   3.879   2.781  1.8828  0.4624 -2.8263
  890MOL0     H22768   3.664   3.714   2.776 -0.2006  1.5697  2.3457
  890MOL0     H22769   3.583   3.608   2.500 -1.6883  0.8675  2.5766
  890MOL0     H22770   3.744   3.620   2.241 -0.1919 -0.0611  0.9161
  890MOL0     H22771   3.707   3.776   2.174  0.0393 -1.8634 -0.1964
  890MOL0     H22772   3.509   3.596   2.270 -0.7349  0.0613 -0.7035
  890MOL0     H22773   3.472   3.747   2.187 -1.2926 -1.2922 -0.3722
  890MOL0     H22774   3.499   3.645   1.982 -1.6090 -0.5518 -1.7306
  890MOL0     H22775   3.633   3.543   2.033  0.1229  0.7627  2.5058
  890MOL0     H22776   3.468   3.394   2.135 -1.6156  0.3098  0.2249
  890MOL0     H22777   3.334   3.504   2.087 -0.8183  0.4370 -0.0948
  890MOL0     H22778   3.580   3.201   1.910  0.2584 -2.7746 -0.0597
  890MOL0     H22779   3.497   2.879   1.792  0.2279  1.3324 -1.2364
  890MOL0     H22780   3.564   2.863   1.950 -0.6782 -0.1916  0.9279
  890MOL0     H22781   3.632   2.987   1.844 -0.2928 -2.2961 -3.5853
  890MOL0     H22782   3.472   2.572   1.845 -0.7626 -0.7757 -1.5924
  890MOL0     H22783   3.403   2.341   1.815  1.8413 -2.1586  3.1805
  890MOL0     H22784   3.135   2.115   1.715 -0.4475 -1.2823  2.2717
  890MOL0     H22785   3.265   2.232   1.681 -1.4539  0.7306 -0.3433
  890MOL0     H22786   3.419   2.116   1.849 -0.3981 -1.6966  3.3818
  890MOL0     H22787   3.285   2.022   1.903  2.3837 -2.3172  0.2249
  890MOL0     H22788   3.239   1.906   1.703 -0.2607 -0.1468  2.5119
  890MOL0     H22789   3.408   1.885   1.740 -1.1741 -1.4544  0.1571
  890MOL0     H22790   3.482   2.038   1.583 -1.3105  2.8560  1.7913
  890MOL0     H22791   3.311   2.052   1.522  1.5602  3.1476  1.7927
  890MOL0     H22792   3.421   1.766   1.562 -0.3270  0.2449  0.2518
  890MOL0     H22793   3.299   1.834   1.453 -0.3086  0.5210  1.6007
  890MOL0     H22794   3.588   1.903   1.430 -0.4554 -0.5942  2.4526
  890MOL0     H22795   3.465   1.957   1.321 -0.2595 -1.3125 -2.9627
  890MOL0     H22796   3.577   1.667   1.322 -0.7076 -1.6330 -1.8164
  890MOL0     H22797   3.587   1.797   1.192  1.1486  1.4179  0.7920
  890MOL0     H22798   3.315   1.678   1.280  0.8592 -0.8695 -0.3803
  890MOL0     H22799   3.434   1.612   1.162  1.3816  0.2190  0.3887
  890MOL0     H22800   3.010   2.416   1.953 -0.7601  0.9772 -0.5716
  890MOL0     H22801   3.067   2.650   2.005 -3.9447 -3.0591 -2.6006
  890MOL0     H22802   3.104   3.104   1.975 -0.1133 -0.7179  1.5719
  890MOL0     H22803   3.181   3.330   1.972  0.4756  1.0881  0.2034
  890MOL0     H22804   2.974   3.184   2.357  0.4644  2.8069  2.3268
  890MOL0     H22805   3.065   2.952   2.344 -0.8817  1.0808  0.0194
  890MOL0     H22806   3.242   2.649   2.234 -2.3381 -3.4720  2.3962
  890MOL0     H22807   3.278   2.410   2.205 -1.2963  1.2835 -0.8905
  890MOL0     H22808   3.337   2.185   2.208 -0.7121  0.8299  1.9425
  890MOL0     H22809   3.476   2.096   2.162 -0.5986  2.1820 -2.0350
  890MOL0     H22810   3.384   2.060   2.407 -1.7997  0.6280 -3.0695
  890MOL0     H22811   3.434   2.218   2.442 -1.4169 -0.4695  0.4487
  890MOL0     H22812   3.690   2.115   2.337  2.3095 -1.7149  0.6460
  890MOL0     H22813   3.637   2.083   2.498 -0.7106 -3.0682 -0.1833
  890MOL0     H22814   3.594   1.912   2.259  0.3741  4.9279 -0.7947
  890MOL0     H22815   3.532   1.875   2.429  0.6517  4.2796  3.4694
  890MOL0     H22816   3.934   1.812   2.500  0.6409  1.1849 -1.1594
  890MOL0     H22817   3.687   2.447   2.274 -0.5407 -0.8240  2.5095
  890MOL0     H22818   3.694   2.756   2.424 -0.0971  0.0069  1.3583
  890MOL0     H22819   3.790   2.674   2.301  0.7981  1.6235 -0.0132
  890MOL0     H22820   3.715   2.827   2.265 -0.1706 -1.2454 -0.5696
  891MOL0     O22821   0.253   1.087   2.811  0.5434  0.8185 -0.0395
  891MOL0     C22822   0.341   1.004   2.809  0.5611 -0.1108  0.1804
  891MOL0     O22823   0.466   1.013   2.868  0.1120 -0.0620  0.2017
  891MOL0     C22824   0.492   1.140   2.914 -0.1058 -0.8505  0.5924
  891MOL0     C22825   0.606   1.215   2.856 -0.2190 -0.5262 -0.9849
  891MOL0     C22826   0.642   1.340   2.901  0.1399  0.2410 -0.9536
  891MOL0     C22827   0.560   1.393   3.010  0.6008  0.0648  1.1526
  891MOL0     O22828   0.570   1.529   3.026  0.3727 -0.0826 -0.5139
  891MOL0     C22829   0.443   1.595   3.022 -0.0994 -0.5883  0.1190
  891MOL0     C22830   0.464   1.750   3.000 -0.2186  0.4657  0.5588
  891MOL0     C22831   0.498   1.821   3.129 -0.0743 -0.5661 -0.0510
  891MOL0     C22832   0.388   1.845   3.236  0.4553 -0.5832  0.8899
  891MOL0     C22833   0.425   1.814   3.381 -0.1105  0.3401 -0.6591
  891MOL0     C22834   0.296   1.814   3.461 -0.1780  0.2397  0.4471
  891MOL0     C22835   0.323   1.801   3.612 -0.4103 -0.0648 -0.3574
  891MOL0     C22836   0.195   1.743   3.677  0.6811 -0.3636 -0.5359
  891MOL0     N22837   0.201   1.743   3.822 -0.1349  0.2235  0.1591
  891MOL0     C22838   0.179   1.632   3.891 -0.0420  0.6654  0.0419
  891MOL0     C22839   0.162   1.670   4.017  0.1715 -0.7855  0.3204
  891MOL0     C22840   0.151   1.582   4.129  0.0073  0.3987 -0.6382
  891MOL0     C22841   0.036   1.638   4.217 -0.2025 -0.2212 -1.4994
  891MOL0     C22842  -0.005   1.531   4.319 -0.0581 -0.4622  0.3654
  891MOL0     C22843   0.096   1.495   4.431 -0.6568  0.1594 -0.0193
  891MOL0     O22844   0.012   1.452   4.533 -0.9183  0.1634 -0.7383
  891MOL0     C22845   0.061   1.387   4.640  0.0330  0.7106 -0.2341
  891MOL0     C22846  -0.034   1.336   4.735 -0.3419 -1.1770  0.2603
  891MOL0     C22847   0.014   1.266   4.858 -0.3953  0.4343 -0.4101
  891MOL0     C22848  -0.083   1.194   4.952 -0.6732 -0.2574 -0.4775
  891MOL0     C22849   0.155   1.247   4.881  0.7610 -1.1788 -0.5309
  891MOL0     C22850   0.222   1.188   5.010  0.3165 -0.6983  0.7137
  891MOL0     O22851   0.340   1.120   4.987 -0.7274  0.4448  0.0650
  891MOL0     C22852   0.404   1.074   5.103  1.4084 -1.1005 -0.4219
  891MOL0     C22853   0.357   0.955   5.160 -0.1052 -0.4051 -0.4887
  891MOL0     C22854   0.388   0.915   5.287  0.6192 -0.0378 -0.9871
  891MOL0     C22855   0.471   0.992   5.372  1.0362  0.7955 -0.7382
  891MOL0     O22856   0.506   0.964   5.504  0.1624  0.7124  0.1918
  891MOL0     C22857   0.498   0.831   5.546 -0.8280 -0.0842 -0.3915
  891MOL0     C22858   0.516   0.831   5.702  1.1161 -0.4311  0.9416
  891MOL0     C22859   0.432   0.937   5.782 -0.0996 -0.6499 -0.7772
  891MOL0     C22860   0.290   0.891   5.818 -0.2186 -0.0614  0.3824
  891MOL0     C22861   0.211   1.010   5.877 -0.3640 -0.6399  0.1606
  891MOL0     C22862   0.063   0.988   5.917 -0.2404  0.2600  0.3201
  891MOL0     C22863   0.054   0.920   6.053  0.3668  0.1413 -0.5446
  891MOL0     C22864   0.080   1.008   6.179 -0.2248  0.3467  0.3877
  891MOL0    Cl22865   0.083   0.900   6.333  0.3852 -0.0486  0.2572
  891MOL0     C22866   0.537   1.105   5.300  0.2216 -0.4453 -0.0114
  891MOL0     C22867   0.506   1.145   5.170  0.1987  0.9096  0.6764
  891MOL0     O22868   0.164   1.201   5.122 -0.6072 -0.8338  0.1726
  891MOL0     C22869   0.235   1.305   4.782 -0.0597  0.0176 -0.0672
  891MOL0     C22870   0.191   1.378   4.673  0.4380 -0.1408  0.1380
  891MOL0     N22871   0.158   1.815   4.004 -0.1033  0.2010 -0.4693
  891MOL0     N22872   0.191   1.855   3.893  0.0180  0.4909 -0.9001
  891MOL0     C22873   0.466   1.316   3.075  0.3841 -0.2984  0.2545
  891MOL0     C22874   0.428   1.198   3.018  0.7936 -0.3817 -0.0569
  891MOL0     C22875   0.293   0.869   2.750 -0.0227  0.0491 -0.6072
  891MOL0     C22876   0.378   0.763   2.776  0.0221 -0.0199  0.6196
  891MOL0     C22877   0.335   0.636   2.746  1.1907 -0.4322  1.0633
  891MOL0     C22878   0.223   0.606   2.677 -1.4133  0.2032  0.6753
  891MOL0     O22879   0.199   0.476   2.647 -0.0125 -0.3496 -0.4033
  891MOL0     C22880   0.189   0.428   2.513 -0.4491  0.3987 -0.8057
  891MOL0     C22881   0.331   0.442   2.450 -0.0110 -0.4156 -0.6347
  891MOL0     C22882   0.352   0.360   2.321  0.7068 -0.0106 -0.2403
  891MOL0     C22883   0.427   0.439   2.215  0.8036 -0.0462  0.3840
  891MOL0     C22884   0.435   0.351   2.101  0.2884  0.4137  0.7811
  891MOL0     C22885   0.466   0.311   1.993 -0.7668  0.0188 -0.1128
  891MOL0     C22886   0.141   0.709   2.640  0.8234  0.1014 -0.2358
  891MOL0     C22887   0.170   0.845   2.678  0.7585 -0.1016 -0.4153
  891MOL0     C22888   0.064   0.947   2.612 -0.7310 -0.9037  0.4616
  891MOL0     H22889   0.658   1.182   2.766  1.9728  0.8879 -0.3133
  891MOL0     H22890   0.722   1.391   2.849  2.1638 -3.3357 -1.6939
  891MOL0     H22891   0.392   1.572   3.116 -3.0490 -0.7573 -1.3736
  891MOL0     H22892   0.384   1.554   2.939  0.8167 -1.1311 -0.2759
  891MOL0     H22893   0.537   1.765   2.920  1.6306  0.3408  2.1645
  891MOL0     H22894   0.369   1.789   2.961  0.5989 -0.8143 -3.0981
  891MOL0     H22895   0.582   1.765   3.172  0.2532  2.0294  3.0968
  891MOL0     H22896   0.539   1.915   3.089  2.6256 -2.2416 -1.5517
  891MOL0     H22897   0.372   1.953   3.232 -1.3082 -0.8329  0.4447
  891MOL0     H22898   0.296   1.792   3.212  1.2464 -1.2977 -0.7217
  891MOL0     H22899   0.491   1.896   3.411 -1.2787  0.6960  1.0851
  891MOL0     H22900   0.473   1.716   3.386  1.5252  1.0780 -1.2525
  891MOL0     H22901   0.246   1.908   3.437 -0.3437 -0.7622 -4.0611
  891MOL0     H22902   0.224   1.737   3.432 -1.6969  1.0197  1.9460
  891MOL0     H22903   0.361   1.893   3.657  2.2717 -1.6353  0.8464
  891MOL0     H22904   0.407   1.736   3.637 -0.8125  1.0869  5.1927
  891MOL0     H22905   0.115   1.816   3.661  1.0041  0.0377 -0.3620
  891MOL0     H22906   0.147   1.654   3.636 -1.9413  0.3774  0.6362
  891MOL0     H22907   0.163   1.535   3.846  1.0680  0.2409  0.5258
  891MOL0     H22908   0.245   1.574   4.184  0.9809 -0.7175 -2.3249
  891MOL0     H22909   0.126   1.480   4.097 -1.0809 -0.3143  2.1917
  891MOL0     H22910   0.073   1.721   4.278 -2.1573 -1.8477  2.2676
  891MOL0     H22911  -0.051   1.662   4.157  0.7772  1.3031 -2.3685
  891MOL0     H22912  -0.099   1.564   4.365 -1.4507  1.9167 -3.6454
  891MOL0     H22913  -0.037   1.437   4.272 -0.4148 -0.7089  1.0921
  891MOL0     H22914   0.156   1.406   4.409 -0.7088 -0.2907  1.5481
  891MOL0     H22915   0.171   1.573   4.445 -0.9822  0.7102 -1.1754
  891MOL0     H22916  -0.140   1.336   4.711 -0.3332  0.9884  0.0180
  891MOL0     H22917  -0.184   1.209   4.911 -0.6411  3.8775  0.4593
  891MOL0     H22918  -0.084   1.235   5.053  0.5466 -0.7350 -0.2543
  891MOL0     H22919  -0.059   1.088   4.962 -0.4926  0.0016  3.0111
  891MOL0     H22920   0.287   0.893   5.105 -2.3512  1.8201 -0.3107
  891MOL0     H22921   0.347   0.827   5.335  1.7773  0.9475  2.0119
  891MOL0     H22922   0.401   0.789   5.520 -0.3648 -0.1061 -2.2454
  891MOL0     H22923   0.579   0.769   5.507 -0.8424 -0.0110 -0.5362
  891MOL0     H22924   0.495   0.728   5.733 -3.4289 -0.0980 -0.3391
  891MOL0     H22925   0.618   0.847   5.737  0.2236  2.7566  2.4959
  891MOL0     H22926   0.442   1.030   5.725  0.7261 -1.9528 -2.8748
  891MOL0     H22927   0.478   0.954   5.880 -3.8003 -1.7367  1.3227
  891MOL0     H22928   0.301   0.812   5.894 -1.3340 -0.1223  0.5009
  891MOL0     H22929   0.243   0.840   5.734 -0.4153 -1.9524  1.5570
  891MOL0     H22930   0.265   1.064   5.955 -0.2488  2.0198 -1.6260
  891MOL0     H22931   0.224   1.074   5.789  2.3437  2.4304  2.5523
  891MOL0     H22932   0.021   0.926   5.838  2.7392  1.3407 -2.2907
  891MOL0     H22933   0.004   1.079   5.931 -1.0036 -0.3853  1.4742
  891MOL0     H22934   0.129   0.840   6.048  2.9505  2.1640  2.3754
  891MOL0     H22935  -0.044   0.872   6.066 -0.4362  1.9515  0.4126
  891MOL0     H22936   0.005   1.087   6.187 -1.2939 -0.1798 -2.7907
  891MOL0     H22937   0.177   1.058   6.170 -0.7082  1.1006 -1.0201
  891MOL0     H22938   0.599   1.166   5.365  0.2149 -1.3500  0.8816
  891MOL0     H22939   0.536   1.239   5.124 -0.2350  0.3320 -0.8679
  891MOL0     H22940   0.341   1.306   4.805 -0.4193  1.3789  1.7188
  891MOL0     H22941   0.274   1.417   4.614  2.1576 -3.9201 -0.2549
  891MOL0     H22942   0.412   1.368   3.153 -2.8192  1.9183 -3.0899
  891MOL0     H22943   0.348   1.142   3.065  0.9550 -0.1517  0.5066
  891MOL0     H22944   0.471   0.781   2.829  0.5137  0.2174 -0.3042
  891MOL0     H22945   0.384   0.543   2.773  0.2299 -1.3693 -0.3196
  891MOL0     H22946   0.163   0.322   2.516  2.3338 -0.3287  0.2333
  891MOL0     H22947   0.105   0.471   2.457 -0.3309 -0.3894 -1.6154
  891MOL0     H22948   0.403   0.402   2.521 -1.5394  0.3374  1.4683
  891MOL0     H22949   0.357   0.548   2.446 -0.0091 -0.2979  1.4713
  891MOL0     H22950   0.396   0.262   2.342  0.6917  0.4388  2.1615
  891MOL0     H22951   0.251   0.343   2.282  1.0111 -0.8747 -0.6818
  891MOL0     H22952   0.528   0.469   2.245  1.1220 -1.9189  1.3599
  891MOL0     H22953   0.371   0.529   2.188  1.1259 -0.0326 -0.2501
  891MOL0     H22954   0.505   0.279   1.899 -1.1705  1.0075 -0.6302
  891MOL0     H22955   0.068   0.686   2.563 -0.4420  0.4371  0.8281
  891MOL0     H22956   0.120   1.012   2.544 -1.0553  0.2423  1.2529
  891MOL0     H22957  -0.019   0.905   2.555 -2.2916  1.4111  0.8630
  891MOL0     H22958   0.020   1.025   2.676 -1.2452  2.5876 -3.6671
  892MOL0     O22959   2.668   5.743  10.601 -0.5769 -0.4619 -0.0387
  892MOL0     C22960   2.722   5.694  10.503 -0.1769 -0.4249  1.0331
  892MOL0     O22961   2.734   5.756  10.375  0.0920  0.5612 -0.1306
  892MOL0     C22962   2.773   5.888  10.364  0.4188  0.0107 -0.1560
  892MOL0     C22963   2.813   5.977  10.466  0.6850  0.2033  0.6571
  892MOL0     C22964   2.864   6.108  10.434  0.8551 -0.1558  0.4244
  892MOL0     C22965   2.854   6.164  10.305  0.2337 -0.5170  0.2112
  892MOL0     O22966   2.907   6.291  10.282  0.0154  0.2750  0.4036
  892MOL0     C22967   2.876   6.392  10.380  0.6537 -0.2083  1.0737
  892MOL0     C22968   2.976   6.507  10.354  0.7820 -0.3978 -0.4239
  892MOL0     C22969   2.965   6.559  10.211 -0.2939 -0.5819  0.5648
  892MOL0     C22970   3.099   6.629  10.177  0.3486  0.7639  0.5548
  892MOL0     C22971   3.105   6.690  10.039  0.4995  0.3417 -1.1617
  892MOL0     C22972   3.250   6.723  10.001  1.0362  0.1930 -0.0890
  892MOL0     C22973   3.244   6.807   9.869 -0.7592  0.3899 -0.0238
  892MOL0     C22974   3.369   6.876   9.818  0.6673  0.3588 -0.0324
  892MOL0     N22975   3.490   6.796   9.809  0.0619  0.4116  0.8887
  892MOL0     C22976   3.486   6.661   9.779 -0.9027 -0.2466  1.5717
  892MOL0     C22977   3.606   6.610   9.818  0.1518 -0.0955  0.2891
  892MOL0     C22978   3.635   6.462   9.823 -0.4904 -0.2922  0.3114
  892MOL0     C22979   3.657   6.403   9.684  0.2683  0.1181 -1.2561
  892MOL0     C22980   3.717   6.267   9.685  0.2765  0.8162  0.5975
  892MOL0     C22981   3.755   6.226   9.550  0.0767 -0.4361  0.0714
  892MOL0     O22982   3.639   6.235   9.465 -0.2640  0.3853 -0.2726
  892MOL0     C22983   3.635   6.150   9.344  0.4369 -0.7227 -0.6840
  892MOL0     C22984   3.508   6.131   9.303 -0.5625  0.3476  0.5365
  892MOL0     C22985   3.484   6.068   9.173  0.1177 -0.6877 -1.3286
  892MOL0     C22986   3.350   6.054   9.125  0.0826  0.3479  0.7791
  892MOL0     C22987   3.594   6.018   9.100  0.9812  0.2141  0.2691
  892MOL0     C22988   3.591   5.940   8.967 -0.0249 -0.6028  0.1304
  892MOL0     O22989   3.642   6.012   8.868 -0.5448  0.7838  0.6165
  892MOL0     C22990   3.739   5.945   8.799 -0.3166  0.6232  0.2250
  892MOL0     C22991   3.875   5.948   8.830  0.3103  0.0235 -0.6081
  892MOL0     C22992   3.970   5.867   8.767 -0.0641  0.0578  0.8651
  892MOL0     C22993   3.931   5.776   8.670  0.1716 -0.4058  0.7433
  892MOL0     O22994   4.022   5.710   8.584  0.0183 -0.6343  0.4125
  892MOL0     C22995   4.070   5.797   8.486  0.5801 -0.6843  0.1433
  892MOL0     C22996   4.142   5.735   8.366  0.0555 -0.1178  0.0883
  892MOL0     C22997   4.275   5.686   8.400  0.1488 -0.0050 -0.0436
  892MOL0     C22998   4.364   5.651   8.286 -1.1375  0.1321 -0.0676
  892MOL0     C22999   4.494   5.597   8.346 -0.2406  0.7036 -0.2048
  892MOL0     C23000   4.600   5.558   8.248 -0.5582 -0.4274 -0.6269
  892MOL0     C23001   4.543   5.457   8.162  0.0277 -0.0703  0.4226
  892MOL0     C23002   4.641   5.369   8.100 -0.1759  0.7758  0.2199
  892MOL0    Cl23003   4.681   5.229   8.199 -0.3188 -0.1031 -0.2092
  892MOL0     C23004   3.794   5.770   8.641  0.4774  0.8107  0.4316
  892MOL0     C23005   3.701   5.840   8.719  0.4299  0.0824  0.0720
  892MOL0     O23006   3.545   5.825   8.973  0.1292  0.6957  0.9487
  892MOL0     C23007   3.724   6.041   9.149  0.7573 -0.8311 -0.0112
  892MOL0     C23008   3.743   6.109   9.268 -0.1597  0.1763  0.4944
  892MOL0     N23009   3.682   6.721   9.867  0.3345  0.2727 -0.2139
  892MOL0     N23010   3.603   6.823   9.877 -1.0708 -0.7314  0.2800
  892MOL0     C23011   2.806   6.074  10.199  0.1781 -0.3715 -0.0745
  892MOL0     C23012   2.763   5.936  10.228  0.5247  0.0490 -0.9897
  892MOL0     C23013   2.778   5.555  10.515  0.8871 -0.1761  0.2001
  892MOL0     C23014   2.878   5.526  10.423  0.3370  0.0294  0.4138
  892MOL0     C23015   2.952   5.413  10.445  0.7346  0.2364 -0.6710
  892MOL0     C23016   2.908   5.308  10.527 -0.2210 -0.0863  0.3020
  892MOL0     O23017   2.983   5.197  10.521 -0.5382 -0.1280 -0.5992
  892MOL0     C23018   2.955   5.080  10.599  0.1902 -0.5697  0.3462
  892MOL0     C23019   3.041   4.967  10.550 -0.1327 -1.1766 -0.0559
  892MOL0     C23020   3.039   4.835  10.617  0.1148 -0.0666  0.0808
  892MOL0     C23021   3.132   4.722  10.567  0.1444 -0.0175 -0.5258
  892MOL0     C23022   3.106   4.701  10.426 -0.2300 -0.2007  0.2479
  892MOL0     C23023   3.089   4.679  10.312 -0.0130 -0.6670  0.2725
  892MOL0     C23024   2.795   5.320  10.599 -0.1125 -0.4803  0.1922
  892MOL0     C23025   2.734   5.446  10.598  0.4574  0.1223  0.8013
  892MOL0     C23026   2.597   5.461  10.678 -0.7588  1.3018 -0.4475
  892MOL0     H23027   2.814   5.950  10.571 -1.4530 -0.3731  0.5773
  892MOL0     H23028   2.908   6.162  10.518 -0.5757 -0.5423  1.4728
  892MOL0     H23029   2.890   6.359  10.484 -0.3128 -3.2153  0.3640
  892MOL0     H23030   2.778   6.435  10.360  2.1891  2.2194 -2.0751
  892MOL0     H23031   2.962   6.593  10.419  2.7169  0.4447 -1.0523
  892MOL0     H23032   3.074   6.464  10.375  0.6153  0.2773  1.9808
  892MOL0     H23033   2.942   6.472  10.149  0.0423 -1.8846  2.2225
  892MOL0     H23034   2.889   6.637  10.195 -0.0683 -0.6807 -1.2623
  892MOL0     H23035   3.118   6.704  10.255 -0.2554 -1.8711  3.4478
  892MOL0     H23036   3.173   6.548  10.181  1.1393  1.1021 -3.3485
  892MOL0     H23037   3.040   6.776  10.054 -0.3292 -0.3968 -0.3702
  892MOL0     H23038   3.052   6.617   9.977  2.1182 -3.6149  1.6098
  892MOL0     H23039   3.304   6.786  10.073  2.7945 -3.2951  1.9181
  892MOL0     H23040   3.310   6.634   9.981 -1.5625 -1.3145 -1.8442
  892MOL0     H23041   3.166   6.883   9.883 -2.3806 -1.1856 -0.2034
  892MOL0     H23042   3.219   6.746   9.781 -0.1342  1.5229 -1.0305
  892MOL0     H23043   3.328   6.918   9.726 -1.4164 -3.8088 -1.2490
  892MOL0     H23044   3.408   6.958   9.878  1.3309 -1.9366  2.9266
  892MOL0     H23045   3.409   6.600   9.733  0.1398 -1.3381  1.2240
  892MOL0     H23046   3.561   6.399   9.874  1.7699 -2.2092  1.4279
  892MOL0     H23047   3.725   6.457   9.885 -1.1326  2.2533  1.5645
  892MOL0     H23048   3.570   6.413   9.618  0.6148  1.0516 -1.5805
  892MOL0     H23049   3.723   6.479   9.643  0.4127  0.8973  0.3546
  892MOL0     H23050   3.812   6.278   9.739 -0.0468  1.3300  1.0798
  892MOL0     H23051   3.660   6.192   9.740 -1.4931  0.8748 -1.0464
  892MOL0     H23052   3.836   6.291   9.517  0.2885 -0.3749  0.6959
  892MOL0     H23053   3.795   6.125   9.561 -0.5115 -0.5512  1.3869
  892MOL0     H23054   3.426   6.184   9.351 -0.5298  1.3355 -0.4647
  892MOL0     H23055   3.344   5.987   9.039  1.2875  2.0668 -0.7359
  892MOL0     H23056   3.324   6.155   9.090  1.5889  2.2437  4.6218
  892MOL0     H23057   3.282   6.021   9.203  1.9143 -3.3044  1.0125
  892MOL0     H23058   3.904   6.034   8.890  2.4848 -1.9864  1.5016
  892MOL0     H23059   4.074   5.890   8.789  0.5880 -0.4879 -1.4093
  892MOL0     H23060   3.993   5.848   8.427  3.1620  1.3051 -1.7249
  892MOL0     H23061   4.129   5.876   8.531  0.9097 -0.4848 -0.6156
  892MOL0     H23062   4.083   5.651   8.329 -4.1214  1.0857  3.2630
  892MOL0     H23063   4.147   5.819   8.295 -2.7381  0.7041  0.7184
  892MOL0     H23064   4.271   5.597   8.463  2.5057  0.2903  0.6151
  892MOL0     H23065   4.323   5.756   8.470 -0.9341 -0.1347  0.8518
  892MOL0     H23066   4.380   5.745   8.234  1.4842  0.1861  0.6817
  892MOL0     H23067   4.316   5.571   8.229  0.9260 -3.6361  2.9365
  892MOL0     H23068   4.535   5.659   8.427 -1.1340 -0.2449  1.0198
  892MOL0     H23069   4.460   5.507   8.398 -3.5646  0.8514 -1.8682
  892MOL0     H23070   4.671   5.500   8.309 -0.3092 -2.2305 -2.5088
  892MOL0     H23071   4.655   5.643   8.207  0.8143 -1.0051 -0.0626
  892MOL0     H23072   4.512   5.506   8.069  4.2422 -0.7963 -1.6335
  892MOL0     H23073   4.468   5.392   8.208 -0.4024 -0.1980 -0.4324
  892MOL0     H23074   4.730   5.431   8.085  1.3481 -1.3842 -0.0651
  892MOL0     H23075   4.616   5.338   7.998  0.4463  0.6803  0.0934
  892MOL0     H23076   3.745   5.707   8.568 -0.9148  1.7072  0.5542
  892MOL0     H23077   3.597   5.831   8.692  1.0749  1.5813 -3.4410
  892MOL0     H23078   3.813   6.010   9.094 -0.2013  2.8037 -4.2174
  892MOL0     H23079   3.840   6.127   9.311 -0.3814  0.0745  1.0438
  892MOL0     H23080   2.782   6.112  10.100  1.2605  2.1134  0.5490
  892MOL0     H23081   2.722   5.860  10.163 -0.8036 -1.2234  1.2299
  892MOL0     H23082   2.915   5.585  10.339  1.1574 -0.2512  0.5733
  892MOL0     H23083   3.047   5.391  10.397  0.1291 -3.3230 -0.4901
  892MOL0     H23084   2.977   5.100  10.705 -1.7193  1.5120  0.4275
  892MOL0     H23085   2.851   5.054  10.577  0.2693 -1.5771  1.0646
  892MOL0     H23086   3.145   5.001  10.555 -0.8224  1.2111 -0.4972
  892MOL0     H23087   3.016   4.956  10.444  2.0520 -1.6061 -0.5698
  892MOL0     H23088   3.050   4.859  10.723  0.0020  1.8603 -0.2923
  892MOL0     H23089   2.933   4.808  10.617 -1.0312  3.8014 -0.1040
  892MOL0     H23090   3.113   4.629  10.621  6.0984 -0.2827  1.8793
  892MOL0     H23091   3.239   4.738  10.586  0.3569  1.8208 -2.7701
  892MOL0     H23092   3.072   4.649  10.211  0.6622 -2.5829  0.6988
  892MOL0     H23093   2.757   5.246  10.669 -1.9558 -1.0117 -1.2931
  892MOL0     H23094   2.596   5.488  10.784 -1.7218  1.1990 -0.4208
  892MOL0     H23095   2.537   5.537  10.629  1.1600  4.4909  1.7434
  892MOL0     H23096   2.538   5.369  10.673 -0.2056  1.0151 -2.0903
  893MOL0     O23097   3.157   0.115   2.225  0.3123  0.3237  0.1999
  893MOL0     C23098   3.272   0.090   2.224 -0.7424 -0.2715  0.4971
  893MOL0     O23099   3.324  -0.028   2.273 -0.0138 -0.9424  0.1669
  893MOL0     C23100   3.241  -0.109   2.347  0.2750  0.4928 -0.1609
  893MOL0     C23101   3.241  -0.089   2.485  0.5662 -1.1657 -0.6627
  893MOL0     C23102   3.158  -0.162   2.562 -0.8058 -0.7900 -0.3919
  893MOL0     C23103   3.099  -0.282   2.517  0.7598 -0.6667  0.5585
  893MOL0     O23104   3.021  -0.348   2.608 -0.3385 -0.3194  0.0137
  893MOL0     C23105   2.919  -0.437   2.561 -0.2151 -0.2482  1.1358
  893MOL0     C23106   2.800  -0.354   2.534  0.1685  0.7905  0.6610
  893MOL0     C23107   2.684  -0.441   2.484 -0.1460  0.2161 -0.1425
  893MOL0     C23108   2.637  -0.540   2.587 -0.3636 -0.1849  0.6002
  893MOL0     C23109   2.493  -0.586   2.542 -0.0244 -0.1952  0.0642
  893MOL0     C23110   2.425  -0.692   2.632  0.5823  0.0759  0.2146
  893MOL0     C23111   2.492  -0.829   2.606 -0.9537  0.7672 -0.4386
  893MOL0     C23112   2.457  -0.925   2.719 -0.2154  0.0828  0.1822
  893MOL0     N23113   2.485  -1.067   2.678  0.3382 -0.5084 -0.5441
  893MOL0     C23114   2.414  -1.134   2.589  0.1480  0.6215  0.0497
  893MOL0     C23115   2.484  -1.248   2.566 -0.9333 -0.1242 -0.5209
  893MOL0     C23116   2.454  -1.366   2.467 -0.9402  0.7085  0.0750
  893MOL0     C23117   2.308  -1.407   2.469 -0.6972  0.7504 -0.1520
  893MOL0     C23118   2.282  -1.507   2.351 -0.7884 -0.4969 -0.5728
  893MOL0     C23119   2.360  -1.634   2.369  0.1447 -0.4868  0.1702
  893MOL0     O23120   2.306  -1.722   2.277 -0.6687  0.5045  0.3128
  893MOL0     C23121   2.376  -1.841   2.251  0.5064  0.2256 -1.1072
  893MOL0     C23122   2.472  -1.905   2.325  0.0153 -0.9207  0.1716
  893MOL0     C23123   2.527  -2.032   2.299  0.3443  0.9119 -0.5822
  893MOL0     C23124   2.623  -2.087   2.398  0.3117  0.3810  0.3368
  893MOL0     C23125   2.467  -2.114   2.195 -0.0878 -0.0854 -0.8928
  893MOL0     C23126   2.506  -2.256   2.161 -0.9124 -0.1851  0.4130
  893MOL0     O23127   2.636  -2.278   2.164 -0.8930  0.3035 -0.1509
  893MOL0     C23128   2.693  -2.407   2.161 -0.2223  0.2207 -0.0813
  893MOL0     C23129   2.627  -2.527   2.196 -1.0871  0.4987 -0.0091
  893MOL0     C23130   2.694  -2.649   2.202 -1.0448  0.1038  0.3673
  893MOL0     C23131   2.825  -2.659   2.147 -0.4462  0.3152  1.0141
  893MOL0     O23132   2.879  -2.773   2.117 -0.5387  0.3346  0.1918
  893MOL0     C23133   2.860  -2.793   1.971  0.0791  0.4683 -0.5731
  893MOL0     C23134   2.867  -2.938   1.941 -1.2085 -0.1728  0.9962
  893MOL0     C23135   3.003  -3.008   1.941  0.8059 -0.3725 -0.3858
  893MOL0     C23136   2.970  -3.149   1.893  1.0998 -0.5807  0.1587
  893MOL0     C23137   3.083  -3.255   1.910  0.3065 -0.6171  0.1696
  893MOL0     C23138   3.113  -3.287   2.052  0.4729 -0.3395  0.2328
  893MOL0     C23139   3.240  -3.381   2.065  0.5245  0.7255 -0.3477
  893MOL0     C23140   3.373  -3.321   2.029 -0.3092  0.1571  0.0362
  893MOL0    Cl23141   3.430  -3.224   2.160 -0.2406  0.3738 -0.6414
  893MOL0     C23142   2.892  -2.545   2.120  0.4184  0.1407  0.1471
  893MOL0     C23143   2.819  -2.421   2.119  0.9682  0.1018  0.9571
  893MOL0     O23144   2.414  -2.326   2.125  0.0133 -0.5187 -0.4490
  893MOL0     C23145   2.374  -2.048   2.114 -0.9843  0.1096 -0.2337
  893MOL0     C23146   2.331  -1.918   2.147 -0.5713 -1.6038 -0.0698
  893MOL0     N23147   2.595  -1.237   2.646 -0.1434 -0.3249  0.0008
  893MOL0     N23148   2.595  -1.129   2.716  0.3149  0.0669  0.1028
  893MOL0     C23149   3.104  -0.309   2.374  0.2089 -0.6590 -0.2036
  893MOL0     C23150   3.182  -0.224   2.291  0.0988 -1.0048 -0.2860
  893MOL0     C23151   3.374   0.192   2.182  0.5280 -1.0584 -0.5571
  893MOL0     C23152   3.509   0.170   2.202 -0.6065  0.1010  0.2724
  893MOL0     C23153   3.606   0.263   2.145 -0.1012  0.0761 -0.3895
  893MOL0     C23154   3.565   0.371   2.075  0.1210  0.8098  0.0289
  893MOL0     O23155   3.657   0.453   2.012  0.1742 -0.5277  0.0335
  893MOL0     C23156   3.632   0.466   1.864 -0.0662 -0.0866 -0.9814
  893MOL0     C23157   3.755   0.529   1.808  0.2951 -0.4905 -0.2750
  893MOL0     C23158   3.837   0.420   1.749 -0.3827 -0.6376 -0.1905
  893MOL0     C23159   3.978   0.480   1.731  0.2572 -0.2436 -0.0392
  893MOL0     C23160   4.055   0.374   1.658 -0.3798  0.0588 -0.4427
  893MOL0     C23161   4.120   0.307   1.586  0.3859  0.7034 -0.2567
  893MOL0     C23162   3.430   0.401   2.057 -0.5748  0.6306  0.0427
  893MOL0     C23163   3.327   0.309   2.109  0.3686  1.1238  0.4132
  893MOL0     C23164   3.186   0.351   2.076 -0.8695 -0.6558 -0.5795
  893MOL0     H23165   3.305  -0.019   2.538  1.6001 -3.5556  1.4809
  893MOL0     H23166   3.149  -0.136   2.667 -1.7089 -2.1506 -0.1016
  893MOL0     H23167   2.902  -0.507   2.643 -0.1339 -3.1400 -1.1780
  893MOL0     H23168   2.940  -0.502   2.476  0.4999 -0.3568  1.3935
  893MOL0     H23169   2.771  -0.298   2.623  2.3850  0.8000  1.4399
  893MOL0     H23170   2.824  -0.274   2.462 -2.1316  2.5318  1.6884
  893MOL0     H23171   2.598  -0.380   2.455 -0.2385  0.1420 -0.0254
  893MOL0     H23172   2.716  -0.492   2.392 -0.8479 -0.9373  0.2352
  893MOL0     H23173   2.711  -0.618   2.606  0.4526  0.6471  0.8557
  893MOL0     H23174   2.634  -0.491   2.685 -2.1828  0.4747  0.2527
  893MOL0     H23175   2.486  -0.628   2.441 -5.9349  0.8373 -0.3171
  893MOL0     H23176   2.426  -0.501   2.529  2.9941  2.2544 -0.6479
  893MOL0     H23177   2.429  -0.662   2.737  3.8543 -0.1698  0.2667
  893MOL0     H23178   2.321  -0.699   2.599  1.5357 -3.4295 -2.6831
  893MOL0     H23179   2.600  -0.815   2.593 -0.1881 -3.1841  0.4963
  893MOL0     H23180   2.454  -0.869   2.512  0.7323  0.0098 -0.8245
  893MOL0     H23181   2.526  -0.909   2.802 -0.7146  1.2330  0.4002
  893MOL0     H23182   2.352  -0.912   2.748  0.2014  0.0035  1.8482
  893MOL0     H23183   2.325  -1.111   2.532  1.3517 -0.6492 -2.5265
  893MOL0     H23184   2.528  -1.446   2.468 -1.3484  0.3250 -0.0751
  893MOL0     H23185   2.456  -1.332   2.363 -0.6184 -2.2454 -0.9792
  893MOL0     H23186   2.276  -1.464   2.556 -2.1443  0.0255 -1.1141
  893MOL0     H23187   2.234  -1.327   2.465 -0.9064  0.5141 -1.6142
  893MOL0     H23188   2.177  -1.535   2.340  0.0255 -3.7603 -1.0313
  893MOL0     H23189   2.310  -1.463   2.255 -1.5803 -2.9893 -2.0565
  893MOL0     H23190   2.467  -1.618   2.354  0.2594 -2.1162 -0.9488
  893MOL0     H23191   2.329  -1.674   2.467 -2.3869  4.1398  1.5667
  893MOL0     H23192   2.502  -1.856   2.417  0.4722 -1.9353  0.5762
  893MOL0     H23193   2.719  -2.045   2.367 -0.3633  2.6160  1.1436
  893MOL0     H23194   2.625  -2.197   2.395 -1.1133  0.0766  4.3466
  893MOL0     H23195   2.597  -2.059   2.500 -0.7748  3.3399 -0.6570
  893MOL0     H23196   2.532  -2.524   2.247 -1.3226 -0.7157 -0.3456
  893MOL0     H23197   2.648  -2.732   2.255 -2.1057  1.0936  1.0445
  893MOL0     H23198   2.758  -2.768   1.941  0.5034  3.1743 -0.0984
  893MOL0     H23199   2.929  -2.732   1.912 -0.3780  0.5647 -1.0154
  893MOL0     H23200   2.795  -3.001   1.994 -1.8655 -2.0851 -1.9521
  893MOL0     H23201   2.830  -2.940   1.839  0.1225  0.6765  0.4681
  893MOL0     H23202   3.019  -3.012   2.049 -1.1904 -1.0829 -0.0744
  893MOL0     H23203   3.080  -2.964   1.877 -0.4356 -0.9516 -2.3820
  893MOL0     H23204   2.933  -3.140   1.790  0.2277 -0.3165  0.4896
  893MOL0     H23205   2.888  -3.183   1.956  1.4404 -0.5157  0.6368
  893MOL0     H23206   3.057  -3.349   1.860  0.5093 -0.5665 -0.0370
  893MOL0     H23207   3.177  -3.229   1.861  0.2776 -0.6225  0.1110
  893MOL0     H23208   3.028  -3.333   2.105  0.7599 -0.6133  0.4578
  893MOL0     H23209   3.143  -3.197   2.107 -1.0833  2.0907 -2.5596
  893MOL0     H23210   3.243  -3.464   1.994  4.5712 -0.7425  1.2352
  893MOL0     H23211   3.251  -3.413   2.169 -0.2487  1.1452 -0.1279
  893MOL0     H23212   3.365  -3.246   1.950  0.5190  0.5256  0.2944
  893MOL0     H23213   3.453  -3.390   2.003  0.6184  1.8712 -1.9449
  893MOL0     H23214   2.995  -2.550   2.085  0.2518  1.8164 -0.6515
  893MOL0     H23215   2.878  -2.333   2.095  0.8298  0.4922  2.0197
  893MOL0     H23216   2.340  -2.102   2.027  2.5970 -3.2799  0.2124
  893MOL0     H23217   2.252  -1.869   2.091 -0.5478 -0.9333  0.4681
  893MOL0     H23218   3.052  -0.397   2.336 -0.3474  0.3234 -1.7859
  893MOL0     H23219   3.207  -0.228   2.186  1.4790 -0.3659 -0.0080
  893MOL0     H23220   3.543   0.087   2.263  2.0779  0.8888 -0.0002
  893MOL0     H23221   3.709   0.233   2.154  1.3458  2.6567 -4.8874
  893MOL0     H23222   3.629   0.365   1.823 -0.7145 -1.8191  2.9165
  893MOL0     H23223   3.543   0.523   1.836 -0.2071 -0.3561 -1.0877
  893MOL0     H23224   3.815   0.585   1.881 -0.9687  0.4745  0.0452
  893MOL0     H23225   3.718   0.595   1.729 -0.7968  0.3199  0.8741
  893MOL0     H23226   3.845   0.340   1.823 -2.1299 -0.2490  0.4611
  893MOL0     H23227   3.803   0.387   1.650  2.1257 -0.8198 -1.0613
  893MOL0     H23228   4.032   0.506   1.823 -0.8274  1.6436  0.1361
  893MOL0     H23229   3.965   0.558   1.655 -1.4052 -2.7697 -2.5436
  893MOL0     H23230   4.169   0.232   1.527  1.4463  0.3061  1.0690
  893MOL0     H23231   3.411   0.496   2.010  1.1220  1.1148  0.2597
  893MOL0     H23232   3.131   0.379   2.166  3.1321  0.6116  1.7736
  893MOL0     H23233   3.184   0.437   2.008 -0.0909  2.6417  3.1862
  893MOL0     H23234   3.118   0.279   2.031 -1.3133 -0.3342 -0.4271
  894MOL0     O23235   6.471   2.252   5.367 -0.1608  0.2038 -0.1081
  894MOL0     C23236   6.590   2.257   5.398 -0.2480  0.7314  0.7460
  894MOL0     O23237   6.651   2.341   5.490  0.5180  0.1116 -0.4296
  894MOL0     C23238   6.588   2.450   5.542 -0.1316  0.3376 -0.5872
  894MOL0     C23239   6.475   2.514   5.493  0.4420 -0.4300 -0.0015
  894MOL0     C23240   6.428   2.628   5.564  0.2090 -0.4233  0.5167
  894MOL0     C23241   6.473   2.675   5.690 -0.4072 -0.5546 -0.1190
  894MOL0     O23242   6.431   2.784   5.772  0.6494  0.0693  0.4188
  894MOL0     C23243   6.331   2.884   5.733  0.7699 -0.3954 -0.5077
  894MOL0     C23244   6.343   3.018   5.791 -0.0278 -0.2213  0.5343
  894MOL0     C23245   6.380   3.024   5.944 -0.6817  0.1957  0.0646
  894MOL0     C23246   6.472   3.149   5.983  0.3492 -0.6042  0.4404
  894MOL0     C23247   6.614   3.130   5.950 -0.9416  1.1374 -0.8206
  894MOL0     C23248   6.678   3.047   6.061  0.1127 -0.2123  0.8790
  894MOL0     C23249   6.810   2.993   6.034 -0.1954 -0.2584 -0.2329
  894MOL0     C23250   6.869   2.929   6.160 -0.0274 -0.6659  0.1677
  894MOL0     N23251   6.958   2.811   6.131  0.3182 -0.0901 -0.3162
  894MOL0     C23252   7.027   2.797   6.014  0.2033  1.2501  0.3922
  894MOL0     C23253   7.123   2.700   6.040  0.1653  0.2306 -0.4865
  894MOL0     C23254   7.241   2.656   5.950  0.8304 -0.4440 -0.2646
  894MOL0     C23255   7.207   2.530   5.860  1.4056  0.1588 -1.1777
  894MOL0     C23256   7.160   2.578   5.717 -0.2450  0.5619  0.3171
  894MOL0     C23257   7.151   2.449   5.634 -1.0079 -0.0655  0.0682
  894MOL0     O23258   7.051   2.363   5.679 -0.2017 -0.4345  0.1542
  894MOL0     C23259   7.047   2.239   5.627  0.0891 -0.4064  0.3074
  894MOL0     C23260   6.943   2.156   5.672 -0.3156  1.0595 -0.0332
  894MOL0     C23261   6.922   2.027   5.615  0.4113 -0.1351 -0.3645
  894MOL0     C23262   6.790   1.971   5.654 -0.3059 -0.5105  0.0929
  894MOL0     C23263   7.018   1.975   5.519  0.6861  0.2271  0.2531
  894MOL0     C23264   7.002   1.832   5.455  0.0336 -0.2187  0.1175
  894MOL0     O23265   6.909   1.750   5.502 -0.0807 -0.2498  0.3540
  894MOL0     C23266   6.911   1.613   5.468  1.0299  0.0718  0.0639
  894MOL0     C23267   7.009   1.525   5.510 -0.8026 -0.8618 -0.6060
  894MOL0     C23268   7.004   1.395   5.484  0.2523  0.2924 -0.7001
  894MOL0     C23269   6.896   1.336   5.407  0.2988 -0.0435 -0.6676
  894MOL0     O23270   6.894   1.196   5.379 -1.5628  0.4325 -0.4112
  894MOL0     C23271   6.931   1.167   5.249 -0.3265 -0.6218  0.6756
  894MOL0     C23272   6.947   1.013   5.233  0.1005 -1.0767 -0.0617
  894MOL0     C23273   7.068   0.968   5.319  1.1635  0.6230  0.2177
  894MOL0     C23274   7.007   0.932   5.459 -0.3023 -0.3376 -0.0888
  894MOL0     C23275   7.115   0.901   5.562 -0.6045  0.4383  0.6448
  894MOL0     C23276   7.182   1.033   5.603 -0.6001 -0.2876 -0.3093
  894MOL0     C23277   7.272   1.018   5.730 -0.3826 -0.3155  0.2643
  894MOL0     C23278   7.394   1.109   5.728  0.3784 -0.0609 -0.1283
  894MOL0    Cl23279   7.503   1.082   5.857  0.0584 -0.6029  0.4425
  894MOL0     C23280   6.799   1.422   5.369  0.8068  0.0522  0.0979
  894MOL0     C23281   6.800   1.559   5.405  0.5783  0.1530 -0.4321
  894MOL0     O23282   7.087   1.802   5.368  0.3143 -0.8862 -0.5684
  894MOL0     C23283   7.124   2.061   5.479  0.2042 -0.6154 -0.1550
  894MOL0     C23284   7.132   2.188   5.527 -0.1786  0.5116 -0.3130
  894MOL0     N23285   7.102   2.647   6.168 -0.2867  0.5686 -0.0749
  894MOL0     N23286   7.003   2.712   6.223  0.1683  0.0896  0.4495
  894MOL0     C23287   6.574   2.591   5.748  0.2161 -0.0039  0.1093
  894MOL0     C23288   6.630   2.490   5.672 -0.4531  0.5551 -0.4008
  894MOL0     C23289   6.678   2.156   5.326  0.0439 -0.8623  0.0897
  894MOL0     C23290   6.629   2.019   5.312 -0.4106  0.3198 -0.3427
  894MOL0     C23291   6.716   1.928   5.242 -0.0716  0.3775  0.0466
  894MOL0     C23292   6.831   1.970   5.178  0.2320  0.4549  0.2076
  894MOL0     O23293   6.922   1.897   5.103  1.2249  0.1936 -0.0161
  894MOL0     C23294   6.868   1.776   5.039 -0.4597 -0.7432  0.8023
  894MOL0     C23295   6.920   1.642   5.081 -0.8285  0.1069  0.3804
  894MOL0     C23296   7.070   1.630   5.042  0.1347  0.6989 -0.1631
  894MOL0     C23297   7.135   1.495   5.056  0.6704 -0.2935  0.1560
  894MOL0     C23298   7.104   1.407   4.934  0.4994 -0.5599  0.1472
  894MOL0     C23299   7.080   1.349   4.834 -0.1233 -0.2549 -0.0357
  894MOL0     C23300   6.874   2.100   5.199  0.1752 -0.5153 -0.4133
  894MOL0     C23301   6.800   2.194   5.275 -0.6670 -0.4771  0.2699
  894MOL0     C23302   6.862   2.335   5.290  0.7085 -0.6144 -1.1437
  894MOL0     H23303   6.419   2.495   5.403 -1.4383  3.0912  0.2592
  894MOL0     H23304   6.339   2.678   5.527 -0.3098 -0.7670  1.2609
  894MOL0     H23305   6.231   2.846   5.757  0.4817  0.7289  0.1487
  894MOL0     H23306   6.339   2.898   5.625 -1.9706  2.0880 -0.5303
  894MOL0     H23307   6.425   3.064   5.734  0.1552 -1.9711 -0.6986
  894MOL0     H23308   6.261   3.088   5.773  1.7696  1.9255  0.3103
  894MOL0     H23309   6.291   3.041   6.005  1.0435  2.5557  2.1115
  894MOL0     H23310   6.431   2.933   5.977 -2.2978 -0.5240  0.6393
  894MOL0     H23311   6.429   3.230   5.924  2.5221 -1.4159 -2.4677
  894MOL0     H23312   6.473   3.174   6.089  2.5531 -0.6965  0.4951
  894MOL0     H23313   6.662   3.228   5.939 -0.6711  1.2729  1.1321
  894MOL0     H23314   6.617   3.068   5.860 -0.0129 -1.1963  0.7067
  894MOL0     H23315   6.683   3.111   6.150  4.0759  2.8157 -1.1714
  894MOL0     H23316   6.617   2.963   6.094  0.9140 -1.0364  0.3138
  894MOL0     H23317   6.873   3.075   6.000  1.6430 -1.6778 -0.4040
  894MOL0     H23318   6.819   2.927   5.947  3.0814 -1.9601  1.2412
  894MOL0     H23319   6.921   3.003   6.221  1.0252 -1.0706 -0.2122
  894MOL0     H23320   6.781   2.897   6.217 -0.5019 -0.3748 -0.3947
  894MOL0     H23321   7.015   2.856   5.924 -4.4457 -0.8209 -0.6192
  894MOL0     H23322   7.317   2.629   6.024  1.6494  0.4086 -0.7640
  894MOL0     H23323   7.280   2.740   5.892 -1.0873 -0.5866 -1.8695
  894MOL0     H23324   7.290   2.459   5.861 -0.3286 -1.9546 -1.0659
  894MOL0     H23325   7.126   2.478   5.910  1.9962  0.0025 -0.3709
  894MOL0     H23326   7.067   2.634   5.721 -0.2258  0.6078  0.1560
  894MOL0     H23327   7.248   2.632   5.680 -1.0329  1.0816 -0.8617
  894MOL0     H23328   7.123   2.475   5.531  1.3168 -1.3200 -0.9786
  894MOL0     H23329   7.254   2.417   5.615 -0.9074 -0.6170  1.4348
  894MOL0     H23330   6.872   2.205   5.737  0.7064  1.1903  1.0205
  894MOL0     H23331   6.745   1.916   5.570  0.7096 -3.2232  1.2190
  894MOL0     H23332   6.710   2.034   5.695  0.3780 -1.2716  2.7539
  894MOL0     H23333   6.789   1.896   5.734 -3.3197  2.1026  2.7920
  894MOL0     H23334   7.087   1.559   5.578 -1.8161 -0.2456  0.2785
  894MOL0     H23335   7.092   1.339   5.511  0.3261  0.7704  0.0830
  894MOL0     H23336   6.851   1.202   5.182 -2.5251 -1.7464  2.5634
  894MOL0     H23337   7.020   1.226   5.224 -0.4049  0.0893  1.9801
  894MOL0     H23338   6.853   0.966   5.263 -1.0329 -0.1988 -2.0431
  894MOL0     H23339   6.980   0.988   5.132  1.0938  0.4059 -0.1515
  894MOL0     H23340   7.147   1.042   5.332  1.4305  0.7853 -1.9420
  894MOL0     H23341   7.097   0.873   5.274  0.4514  0.3546  0.3133
  894MOL0     H23342   6.952   0.838   5.448  3.4028 -2.9043  1.0490
  894MOL0     H23343   6.932   1.004   5.492 -0.6791 -0.7809  0.0426
  894MOL0     H23344   7.091   0.844   5.652  0.9029 -1.3884 -0.0194
  894MOL0     H23345   7.189   0.846   5.503 -1.0785  0.3507  0.1223
  894MOL0     H23346   7.108   1.108   5.633  2.1570  3.4328 -2.0477
  894MOL0     H23347   7.235   1.076   5.517  3.4119 -3.1362  0.4126
  894MOL0     H23348   7.312   0.916   5.734  1.6639 -0.0469 -5.1384
  894MOL0     H23349   7.213   1.033   5.821  0.1208 -3.7705  1.3347
  894MOL0     H23350   7.369   1.215   5.732  1.0197  0.0536  1.7807
  894MOL0     H23351   7.447   1.094   5.634 -1.4373  1.4612 -1.4617
  894MOL0     H23352   6.721   1.383   5.305 -1.3559  2.2487  1.2049
  894MOL0     H23353   6.716   1.622   5.378  0.2042 -1.2982 -2.9731
  894MOL0     H23354   7.192   2.042   5.397 -0.0322 -1.2157 -0.2166
  894MOL0     H23355   7.221   2.238   5.490  0.7928 -1.2742 -0.4927
  894MOL0     H23356   6.601   2.596   5.853  1.1238 -1.8009 -0.0069
  894MOL0     H23357   6.707   2.428   5.717 -0.1769 -0.5855 -2.3459
  894MOL0     H23358   6.533   1.986   5.350  0.7967  0.4451  3.1941
  894MOL0     H23359   6.678   1.828   5.226 -2.2529  1.3738 -1.4350
  894MOL0     H23360   6.758   1.771   5.040 -0.7378  1.1097 -2.9880
  894MOL0     H23361   6.902   1.785   4.936  3.4539 -2.0069  1.8289
  894MOL0     H23362   6.869   1.558   5.035 -2.6772  1.2962  0.1558
  894MOL0     H23363   6.906   1.625   5.189  0.2014 -6.2486 -0.0870
  894MOL0     H23364   7.079   1.659   4.937  0.8240  2.6398  0.3798
  894MOL0     H23365   7.127   1.707   5.095  1.8776  0.6880 -1.8970
  894MOL0     H23366   7.099   1.450   5.149 -0.0188  1.2439  0.6511
  894MOL0     H23367   7.244   1.508   5.059  0.4203  1.8401  1.5278
  894MOL0     H23368   7.077   1.284   4.749 -1.0020  1.7239 -1.5837
  894MOL0     H23369   6.953   2.134   5.133  0.3948  0.0464  0.1301
  894MOL0     H23370   6.783   2.410   5.288  0.4846 -0.7730  0.5341
  894MOL0     H23371   6.908   2.352   5.387  4.0309 -2.3850 -2.2509
  894MOL0     H23372   6.937   2.365   5.215  1.4675  0.1000 -0.1185
  895MOL0     O23373   1.082   3.289   8.956  0.3171  0.3468 -0.5522
  895MOL0     C23374   1.063   3.357   9.058 -0.0611 -0.5522 -0.2371
  895MOL0     O23375   1.093   3.320   9.180 -0.6124  0.2247 -0.1883
  895MOL0     C23376   1.126   3.192   9.217  0.3947  0.0532  0.4231
  895MOL0     C23377   1.106   3.077   9.139  0.0494  0.2720 -0.5171
  895MOL0     C23378   1.129   2.952   9.195 -0.0170 -0.1466  0.5756
  895MOL0     C23379   1.171   2.938   9.326 -0.5240 -0.3479 -0.1523
  895MOL0     O23380   1.200   2.818   9.391  0.2700  0.4078  0.2388
  895MOL0     C23381   1.093   2.764   9.469 -0.4619 -0.0984 -0.0727
  895MOL0     C23382   0.976   2.712   9.384  0.3775  0.0408 -0.1632
  895MOL0     C23383   0.864   2.639   9.450 -0.4364  0.3301 -0.6353
  895MOL0     C23384   0.793   2.565   9.345  0.0818 -0.0602 -0.3766
  895MOL0     C23385   0.659   2.499   9.404  0.7935  0.7557  0.0738
  895MOL0     C23386   0.572   2.435   9.303  0.7840  0.6439  0.3415
  895MOL0     C23387   0.425   2.418   9.348  0.4019  0.4275  0.3138
  895MOL0     C23388   0.338   2.554   9.332 -0.3854  0.0905  0.2075
  895MOL0     N23389   0.288   2.580   9.200 -0.3434 -0.6496  1.0459
  895MOL0     C23390   0.359   2.583   9.073 -0.2671  0.0024 -0.4186
  895MOL0     C23391   0.258   2.631   8.994  1.0549  0.5551 -0.5172
  895MOL0     C23392   0.288   2.666   8.850 -0.6612  0.0281 -0.6220
  895MOL0     C23393   0.255   2.566   8.746  1.1306 -0.4775  0.3106
  895MOL0     C23394   0.105   2.555   8.725  0.2113  0.2535 -0.4566
  895MOL0     C23395   0.048   2.422   8.687 -0.1225  0.4167  0.3237
  895MOL0     O23396   0.103   2.316   8.766 -0.4765 -0.2250  0.2566
  895MOL0     C23397   0.081   2.182   8.735  0.4950  0.5214 -0.3424
  895MOL0     C23398   0.160   2.096   8.814  0.3370 -0.1761 -0.2632
  895MOL0     C23399   0.156   1.953   8.793  0.3170 -0.2701 -0.0515
  895MOL0     C23400   0.251   1.852   8.864  0.6753 -0.5082 -0.1704
  895MOL0     C23401   0.074   1.900   8.691  1.7332 -0.3097 -0.5798
  895MOL0     C23402   0.059   1.758   8.649 -0.0459  0.1018  0.7867
  895MOL0     O23403  -0.060   1.720   8.573 -0.5337  0.1069  0.0573
  895MOL0     C23404  -0.081   1.587   8.546 -0.1000  1.0583 -0.1317
  895MOL0     C23405  -0.126   1.556   8.426  0.7740 -0.0667  0.9472
  895MOL0     C23406  -0.157   1.420   8.388 -1.4406 -0.1271  0.2454
  895MOL0     C23407  -0.155   1.321   8.488  0.2085 -0.1138  0.1652
  895MOL0     O23408  -0.183   1.190   8.464  0.2598  0.1385 -0.9745
  895MOL0     C23409  -0.214   1.140   8.331 -0.2043  0.0397  0.5883
  895MOL0     C23410  -0.258   0.983   8.341  0.6672  0.4834 -0.3064
  895MOL0     C23411  -0.346   0.957   8.457  0.0914 -1.0270 -0.0878
  895MOL0     C23412  -0.338   0.799   8.495  0.9562  0.2217  0.1808
  895MOL0     C23413  -0.418   0.753   8.615  0.1489 -0.2290  0.4335
  895MOL0     C23414  -0.577   0.734   8.589 -0.4985  0.1220 -0.2692
  895MOL0     C23415  -0.633   0.663   8.725 -0.0132 -0.0523 -0.8312
  895MOL0     C23416  -0.652   0.745   8.852 -0.8827  0.1559 -0.1328
  895MOL0    Cl23417  -0.776   0.882   8.831  0.9217 -0.0833 -0.5052
  895MOL0     C23418  -0.101   1.356   8.611 -0.3719  0.3524  0.3284
  895MOL0     C23419  -0.068   1.491   8.652 -0.2330  1.4997 -0.8736
  895MOL0     O23420   0.145   1.673   8.680 -0.5237 -0.2413  0.0030
  895MOL0     C23421  -0.023   1.996   8.635  0.3911  0.8245  0.1248
  895MOL0     C23422  -0.009   2.131   8.644 -0.2179 -0.0571 -0.8046
  895MOL0     N23423   0.136   2.642   9.061 -0.1788 -0.1960 -0.0505
  895MOL0     N23424   0.153   2.603   9.180 -0.2974 -0.2861  0.4041
  895MOL0     C23425   1.174   3.049   9.405 -0.9956 -0.3606 -0.5838
  895MOL0     C23426   1.156   3.174   9.349 -0.7463  0.6508 -0.6640
  895MOL0     C23427   0.999   3.492   9.050  0.3227 -0.1724  0.1016
  895MOL0     C23428   0.964   3.549   9.168  0.0152  0.0384 -0.2876
  895MOL0     C23429   0.894   3.673   9.180 -0.8011  0.0422  0.2442
  895MOL0     C23430   0.863   3.742   9.060  0.3620  0.4723 -0.2822
  895MOL0     O23431   0.798   3.867   9.078 -0.1500  0.8675 -0.1051
  895MOL0     C23432   0.729   3.931   8.971  0.1263 -0.4586  0.5079
  895MOL0     C23433   0.657   4.062   9.017  0.3394  0.0895 -0.0621
  895MOL0     C23434   0.754   4.164   9.092  0.7058 -0.7391  0.0335
  895MOL0     C23435   0.689   4.296   9.090  1.2402 -0.4433 -0.3077
  895MOL0     C23436   0.564   4.285   9.174  0.6143 -0.5418  0.2046
  895MOL0     C23437   0.459   4.277   9.237  0.5455 -0.3091  0.6158
  895MOL0     C23438   0.896   3.686   8.939 -0.0951  0.1278  0.1093
  895MOL0     C23439   0.969   3.571   8.932 -0.5419  1.3149 -0.2216
  895MOL0     C23440   0.998   3.520   8.793  0.1303 -0.8071 -0.0874
  895MOL0     H23441   1.083   3.082   9.033 -2.0115  0.9423 -0.0893
  895MOL0     H23442   1.119   2.866   9.129 -1.4143  0.2964  0.1641
  895MOL0     H23443   1.071   2.843   9.541  2.4635  0.5925  0.1805
  895MOL0     H23444   1.141   2.678   9.518 -1.9073 -1.2305 -0.5784
  895MOL0     H23445   0.939   2.798   9.328 -2.0724 -0.8850 -0.1063
  895MOL0     H23446   1.018   2.651   9.304 -0.1743  0.9745 -1.1887
  895MOL0     H23447   0.907   2.563   9.516  1.0891 -0.3675 -2.3294
  895MOL0     H23448   0.800   2.704   9.509  0.5953  1.5126 -0.7821
  895MOL0     H23449   0.766   2.624   9.256 -3.6340 -0.5992  0.2390
  895MOL0     H23450   0.858   2.486   9.304  2.2336  1.4619 -0.1078
  895MOL0     H23451   0.604   2.576   9.460  0.3921  1.0497 -0.7097
  895MOL0     H23452   0.698   2.427   9.476  0.4721 -0.6859 -1.1437
  895MOL0     H23453   0.589   2.502   9.218 -0.5364  0.0881 -0.3998
  895MOL0     H23454   0.625   2.343   9.277  0.2586  0.1558  0.9396
  895MOL0     H23455   0.412   2.379   9.449  2.2207  0.8683  0.7650
  895MOL0     H23456   0.372   2.350   9.281 -0.0588 -0.8278  1.8944
  895MOL0     H23457   0.245   2.539   9.387 -0.0193 -2.9811  0.1429
  895MOL0     H23458   0.377   2.647   9.375 -1.5476  1.7504 -2.1320
  895MOL0     H23459   0.462   2.569   9.039 -0.8160 -0.3235 -2.0191
  895MOL0     H23460   0.396   2.677   8.839 -0.6297  0.0103 -0.3231
  895MOL0     H23461   0.241   2.761   8.823  0.5613 -0.0341 -3.3274
  895MOL0     H23462   0.306   2.587   8.652 -1.3514  1.1253 -0.7971
  895MOL0     H23463   0.290   2.464   8.764 -1.7837 -1.7248 -0.5054
  895MOL0     H23464   0.042   2.576   8.811 -0.6451  0.0903 -1.0285
  895MOL0     H23465   0.093   2.622   8.639  2.1396 -0.4250 -1.3043
  895MOL0     H23466  -0.061   2.419   8.680 -0.0298 -1.8866 -3.3469
  895MOL0     H23467   0.077   2.406   8.582 -2.6879 -3.4383 -0.0035
  895MOL0     H23468   0.214   2.144   8.896 -0.6506 -0.9083  0.8512
  895MOL0     H23469   0.203   1.764   8.908  1.5558 -0.2495  1.3857
  895MOL0     H23470   0.299   1.912   8.942 -1.6564 -2.1034  2.6918
  895MOL0     H23471   0.334   1.825   8.798  1.1804  0.7907 -0.0948
  895MOL0     H23472  -0.126   1.640   8.358 -0.7632 -1.1236 -0.4248
  895MOL0     H23473  -0.174   1.398   8.283 -0.9037  1.0251 -0.1036
  895MOL0     H23474  -0.301   1.190   8.289 -1.1018 -2.7608 -1.1192
  895MOL0     H23475  -0.126   1.155   8.268  0.1705  0.4618  1.1993
  895MOL0     H23476  -0.300   0.942   8.249 -0.7477  1.0060  0.0851
  895MOL0     H23477  -0.171   0.918   8.355 -0.3933 -0.6378  1.4900
  895MOL0     H23478  -0.451   0.978   8.436 -0.4386 -2.0753  1.3138
  895MOL0     H23479  -0.332   1.015   8.549 -1.1422  0.9186 -1.0599
  895MOL0     H23480  -0.235   0.764   8.498  0.4453 -1.4351 -0.6359
  895MOL0     H23481  -0.386   0.752   8.409 -0.9365  0.5839  0.9818
  895MOL0     H23482  -0.374   0.659   8.651  1.1445 -0.2003 -0.6569
  895MOL0     H23483  -0.404   0.827   8.694 -2.2659  0.5267  0.2438
  895MOL0     H23484  -0.587   0.652   8.517 -1.9463 -0.5929  0.7001
  895MOL0     H23485  -0.626   0.821   8.545 -0.3606 -0.6490 -2.0467
  895MOL0     H23486  -0.561   0.585   8.750 -1.8157 -1.1999  1.1013
  895MOL0     H23487  -0.724   0.609   8.699 -1.0050  1.3598 -0.4373
  895MOL0     H23488  -0.562   0.800   8.882 -0.3459 -1.0474  0.5082
  895MOL0     H23489  -0.677   0.680   8.935  3.2472  0.3915  1.5281
  895MOL0     H23490  -0.103   1.273   8.681  0.6946 -2.8550 -3.1014
  895MOL0     H23491  -0.050   1.502   8.758 -1.6750  0.0528 -0.4332
  895MOL0     H23492  -0.103   1.957   8.572  1.4916 -1.0341 -0.1913
  895MOL0     H23493  -0.087   2.189   8.594 -1.6846  1.4148  2.8342
  895MOL0     H23494   1.199   3.038   9.510 -0.8618  1.6949 -0.3604
  895MOL0     H23495   1.167   3.270   9.399 -1.3372  0.5910 -0.4111
  895MOL0     H23496   0.994   3.504   9.262 -1.8199 -3.2928 -1.1469
  895MOL0     H23497   0.876   3.714   9.278  3.4308 -1.1992  1.7594
  895MOL0     H23498   0.807   3.944   8.895  2.3131  0.0103  2.7192
  895MOL0     H23499   0.648   3.871   8.926  1.0253 -1.0649 -0.3475
  895MOL0     H23500   0.575   4.039   9.085  1.1123 -0.1364  0.8138
  895MOL0     H23501   0.620   4.120   8.932  2.9501  1.0481 -0.6475
  895MOL0     H23502   0.775   4.126   9.192  3.0388 -1.8481 -0.7977
  895MOL0     H23503   0.854   4.168   9.047  0.0944 -0.6035 -1.3841
  895MOL0     H23504   0.667   4.311   8.984  3.1512  2.4283 -0.4037
  895MOL0     H23505   0.737   4.388   9.124 -0.0534  0.8588 -1.8689
  895MOL0     H23506   0.375   4.241   9.292 -0.2578 -0.0894 -0.4196
  895MOL0     H23507   0.876   3.744   8.850  0.6594  1.2657  0.6653
  895MOL0     H23508   1.027   3.601   8.726  0.9566 -1.0869 -0.0779
  895MOL0     H23509   1.086   3.455   8.792  1.5888  1.0001 -3.1469
  895MOL0     H23510   0.912   3.466   8.752  0.3873 -0.0413 -1.6995
  896MOL0     O23511   1.902   0.276   6.246  0.4757  0.6600  0.0345
  896MOL0     C23512   1.986   0.346   6.185  0.0789 -0.2587  0.4792
  896MOL0     O23513   2.020   0.331   6.054  0.0262  0.5468 -0.0302
  896MOL0     C23514   1.939   0.242   5.975 -0.8220 -0.5611  0.1976
  896MOL0     C23515   1.987   0.115   5.946 -0.3440 -0.0524 -0.4217
  896MOL0     C23516   1.921   0.026   5.865 -0.5550  0.1853  0.9340
  896MOL0     C23517   1.803   0.068   5.798 -0.2330  0.3727  1.2730
  896MOL0     O23518   1.739   0.002   5.692  0.1297  0.2879 -0.5878
  896MOL0     C23519   1.818  -0.083   5.606 -0.4700 -0.9177 -0.7300
  896MOL0     C23520   1.756  -0.110   5.473 -0.2910  0.1445 -0.5466
  896MOL0     C23521   1.710   0.028   5.411  0.5974  0.1400 -0.7512
  896MOL0     C23522   1.691   0.028   5.267  0.2312 -0.5052 -0.0848
  896MOL0     C23523   1.613   0.152   5.216 -0.5500  0.1085 -0.5936
  896MOL0     C23524   1.546   0.124   5.083 -0.1785  0.2464 -0.6046
  896MOL0     C23525   1.421   0.216   5.047 -0.2933 -0.1488 -0.2566
  896MOL0     C23526   1.457   0.369   5.051 -0.2647 -0.1231 -0.1664
  896MOL0     N23527   1.354   0.465   5.023 -0.2512 -0.3265 -0.2062
  896MOL0     C23528   1.249   0.452   4.934  0.2796  0.0822 -0.2431
  896MOL0     C23529   1.158   0.559   4.954 -0.5473 -0.0075 -0.0435
  896MOL0     C23530   1.041   0.590   4.870  0.3297  0.1187  0.4543
  896MOL0     C23531   1.007   0.479   4.763 -0.3308 -0.4620  0.2499
  896MOL0     C23532   0.885   0.527   4.689 -0.7481  0.3857 -0.3426
  896MOL0     C23533   0.824   0.439   4.587  0.2617 -0.5189 -0.0871
  896MOL0     O23534   0.754   0.343   4.662  1.1587  0.0688 -0.1474
  896MOL0     C23535   0.625   0.307   4.614 -0.1949 -0.2313 -0.1410
  896MOL0     C23536   0.595   0.172   4.587  1.2696 -0.5725  0.1852
  896MOL0     C23537   0.465   0.145   4.540 -0.6019 -0.0459  0.0303
  896MOL0     C23538   0.433   0.002   4.506  0.0120  0.5157 -0.7972
  896MOL0     C23539   0.366   0.241   4.528 -0.0479 -0.0070 -0.8101
  896MOL0     C23540   0.220   0.219   4.496 -0.4269 -0.6235  0.4196
  896MOL0     O23541   0.168   0.104   4.527 -0.3943 -0.2217  0.7416
  896MOL0     C23542   0.034   0.080   4.497  0.7370  0.2185  0.6343
  896MOL0     C23543   0.015  -0.020   4.408 -1.1346  0.1339 -0.0269
  896MOL0     C23544  -0.114  -0.063   4.370  1.3400 -0.5297  0.0606
  896MOL0     C23545  -0.234  -0.005   4.427  0.4214  0.2714  0.4719
  896MOL0     O23546  -0.356  -0.052   4.370 -0.5160  0.0234  0.2822
  896MOL0     C23547  -0.474   0.028   4.401 -0.2661  0.2641  0.4540
  896MOL0     C23548  -0.563   0.025   4.271  0.7860  0.5105  0.0034
  896MOL0     C23549  -0.487   0.086   4.152 -0.4298 -0.1674  0.4294
  896MOL0     C23550  -0.594   0.105   4.036 -0.4064  1.1764  0.7112
  896MOL0     C23551  -0.510   0.102   3.901 -0.4797 -0.6093 -0.6459
  896MOL0     C23552  -0.599   0.135   3.777 -0.0053  0.7342  0.1076
  896MOL0     C23553  -0.629   0.292   3.771  0.2173  0.1910  0.0546
  896MOL0     C23554  -0.721   0.316   3.649 -0.0304  0.2304 -1.2361
  896MOL0    Cl23555  -0.790   0.479   3.635  0.0056 -0.1058  0.5279
  896MOL0     C23556  -0.204   0.100   4.518  0.4500  0.4922 -1.7962
  896MOL0     C23557  -0.077   0.142   4.545 -0.4041 -0.2564  0.0085
  896MOL0     O23558   0.157   0.314   4.455 -0.3976  0.0491  0.6389
  896MOL0     C23559   0.404   0.379   4.561 -0.1116  1.0695 -0.1318
  896MOL0     C23560   0.535   0.404   4.593  0.5342 -0.2514  0.1376
  896MOL0     N23561   1.217   0.639   5.047  0.7323 -0.2952 -0.0292
  896MOL0     N23562   1.321   0.576   5.095  0.0573  0.1226 -0.0297
  896MOL0     C23563   1.758   0.199   5.812  0.0580 -1.0842 -0.6076
  896MOL0     C23564   1.824   0.297   5.897 -0.9670  0.5774 -1.1269
  896MOL0     C23565   2.052   0.450   6.264  0.1096 -0.0970 -0.4566
  896MOL0     C23566   2.188   0.474   6.242 -0.4696  1.2880  0.0494
  896MOL0     C23567   2.258   0.560   6.321 -0.3357  1.0594 -0.1749
  896MOL0     C23568   2.196   0.624   6.430  0.3036 -1.3727  0.1342
  896MOL0     O23569   2.270   0.714   6.512  0.8673  1.1747  0.7065
  896MOL0     C23570   2.418   0.742   6.508 -0.6690  0.2959 -0.0291
  896MOL0     C23571   2.463   0.755   6.655  0.9096  0.1394 -0.1920
  896MOL0     C23572   2.592   0.844   6.659  0.6683  0.5858  0.9745
  896MOL0     C23573   2.714   0.803   6.576  0.7700 -0.1559 -0.3659
  896MOL0     C23574   2.837   0.851   6.627  0.0432 -0.0350 -0.5476
  896MOL0     C23575   2.946   0.884   6.665 -0.2687  0.1410  0.6837
  896MOL0     C23576   2.064   0.596   6.455  0.0432  0.2820 -0.0761
  896MOL0     C23577   1.981   0.524   6.371 -0.8824  0.5396  0.5394
  896MOL0     C23578   1.843   0.491   6.411 -0.4977  0.8901 -0.7198
  896MOL0     H23579   2.068   0.068   6.001  0.7092 -0.7777 -2.4773
  896MOL0     H23580   1.953  -0.075   5.845 -1.3524 -0.1653  1.3713
  896MOL0     H23581   1.839  -0.177   5.657 -0.5780 -1.0820 -0.9891
  896MOL0     H23582   1.920  -0.043   5.604 -0.1026 -1.4742  2.2669
  896MOL0     H23583   1.837  -0.147   5.408  1.0403  2.3332 -0.2445
  896MOL0     H23584   1.672  -0.179   5.482  0.8665 -0.9704  4.6472
  896MOL0     H23585   1.619   0.053   5.465  0.7607  0.2687 -0.5324
  896MOL0     H23586   1.778   0.104   5.451  2.2836 -2.2896  1.3147
  896MOL0     H23587   1.787   0.015   5.218  0.3587 -1.8194  0.4747
  896MOL0     H23588   1.627  -0.059   5.250  0.0246 -0.4351  0.3021
  896MOL0     H23589   1.667   0.244   5.193 -1.3355  1.2281  1.7664
  896MOL0     H23590   1.539   0.177   5.293 -1.5079  0.1191 -1.4900
  896MOL0     H23591   1.617   0.135   5.000  3.3276  2.0987  2.3790
  896MOL0     H23592   1.505   0.022   5.087  3.4666 -1.4103 -1.4082
  896MOL0     H23593   1.344   0.209   5.125 -1.4863  0.2591 -1.3614
  896MOL0     H23594   1.371   0.196   4.952 -0.7863  1.7947 -0.4502
  896MOL0     H23595   1.497   0.396   5.150 -1.9451  0.8180  0.2866
  896MOL0     H23596   1.545   0.368   4.986  0.6086 -3.7682  0.8545
  896MOL0     H23597   1.245   0.377   4.856  1.8058  2.0209 -2.3197
  896MOL0     H23598   1.065   0.684   4.819  2.6045 -0.2273  0.8152
  896MOL0     H23599   0.953   0.609   4.932 -1.8706 -3.2760 -1.2995
  896MOL0     H23600   1.093   0.468   4.696 -1.5353 -3.8418 -0.9473
  896MOL0     H23601   0.981   0.384   4.812  1.2936 -2.2130 -2.0934
  896MOL0     H23602   0.813   0.559   4.766  0.9321  3.9846 -0.0548
  896MOL0     H23603   0.906   0.611   4.622 -0.4760  1.4744  1.0611
  896MOL0     H23604   0.762   0.510   4.531  0.2901 -1.0670 -0.8223
  896MOL0     H23605   0.892   0.400   4.511  0.1888 -0.2479 -0.2960
  896MOL0     H23606   0.663   0.091   4.611  0.5484 -0.7457  1.8459
  896MOL0     H23607   0.385  -0.040   4.595  2.1690  0.6040  0.4685
  896MOL0     H23608   0.527  -0.048   4.484 -0.6839 -0.3511 -1.9457
  896MOL0     H23609   0.369  -0.005   4.417 -2.7058  1.3468  0.9700
  896MOL0     H23610   0.103  -0.070   4.369  0.7815  2.7674  0.6169
  896MOL0     H23611  -0.147  -0.151   4.317  0.9116 -0.8880  0.8949
  896MOL0     H23612  -0.533  -0.012   4.484 -1.2078 -1.1973 -0.8601
  896MOL0     H23613  -0.453   0.134   4.420 -0.3488  0.2925  0.3885
  896MOL0     H23614  -0.593  -0.080   4.261  0.4734  0.4022  1.8214
  896MOL0     H23615  -0.660   0.073   4.288 -0.8487 -1.4879 -2.7758
  896MOL0     H23616  -0.413   0.010   4.131  1.5918  1.1620  2.2809
  896MOL0     H23617  -0.432   0.175   4.185  0.6088 -0.8108  0.4635
  896MOL0     H23618  -0.652   0.198   4.041 -0.7337  1.0578 -0.4936
  896MOL0     H23619  -0.665   0.021   4.032  0.8122  0.1402  0.2775
  896MOL0     H23620  -0.427   0.173   3.903  0.2511 -1.3248 -2.6249
  896MOL0     H23621  -0.453   0.009   3.887  1.4466  0.3555  0.3595
  896MOL0     H23622  -0.701   0.096   3.786  0.1119 -0.2706 -2.2470
  896MOL0     H23623  -0.540   0.098   3.693 -0.9252 -3.0712  0.9447
  896MOL0     H23624  -0.528   0.333   3.762  0.4841 -0.6398 -0.9175
  896MOL0     H23625  -0.684   0.335   3.855 -0.0961 -0.9172  0.4261
  896MOL0     H23626  -0.804   0.245   3.651 -0.0941  0.0495  4.0155
  896MOL0     H23627  -0.660   0.304   3.559  0.1664  3.2265 -1.5867
  896MOL0     H23628  -0.286   0.157   4.560 -1.1078 -3.1929  0.6751
  896MOL0     H23629  -0.059   0.224   4.614  1.6808 -0.5087 -0.1916
  896MOL0     H23630   0.339   0.466   4.560  0.9661  1.9015 -0.0681
  896MOL0     H23631   0.553   0.510   4.607 -2.0171  0.1684  0.8864
  896MOL0     H23632   1.680   0.239   5.747 -2.4926  1.2290  3.4816
  896MOL0     H23633   1.794   0.401   5.907  0.3067  0.8874 -0.2318
  896MOL0     H23634   2.247   0.414   6.173 -1.2425  0.9458 -0.3172
  896MOL0     H23635   2.366   0.564   6.307 -0.5923 -0.8364 -4.1348
  896MOL0     H23636   2.473   0.658   6.463 -1.1654  0.0518 -0.1901
  896MOL0     H23637   2.435   0.836   6.455  0.1982  1.0466  1.5218
  896MOL0     H23638   2.478   0.655   6.698 -0.0455  0.7824  1.7347
  896MOL0     H23639   2.389   0.808   6.714  3.1132  0.9250  2.0407
  896MOL0     H23640   2.562   0.947   6.639 -3.7479 -0.8992 -1.4346
  896MOL0     H23641   2.623   0.845   6.764 -0.1353  1.4300  1.2229
  896MOL0     H23642   2.707   0.828   6.470 -0.7809 -0.0603 -0.2645
  896MOL0     H23643   2.719   0.694   6.568  0.7286 -0.0550 -2.1145
  896MOL0     H23644   3.048   0.895   6.695  0.7268 -1.3862 -1.8315
  896MOL0     H23645   2.030   0.633   6.551 -0.7394 -1.6387  0.4196
  896MOL0     H23646   1.807   0.568   6.480  1.7458  1.6810 -0.3416
  896MOL0     H23647   1.774   0.486   6.327 -1.2901 -1.6916 -0.0174
  896MOL0     H23648   1.833   0.397   6.468  2.3044  1.9036  1.7267
  897MOL0     O23649   0.777   3.747   8.637 -0.1236  0.3234 -0.4340
  897MOL0     C23650   0.714   3.789   8.542  1.5676 -0.3892  0.4972
  897MOL0     O23651   0.624   3.713   8.478 -1.0574 -0.3639  0.2020
  897MOL0     C23652   0.599   3.580   8.504 -0.0779  0.3653  0.1471
  897MOL0     C23653   0.708   3.486   8.502  0.9435 -0.4328 -0.4744
  897MOL0     C23654   0.675   3.355   8.521 -0.4749  0.4084 -0.6691
  897MOL0     C23655   0.538   3.303   8.532 -0.0409  0.8818 -1.1899
  897MOL0     O23656   0.518   3.169   8.558 -0.4685  0.1715 -0.1840
  897MOL0     C23657   0.620   3.086   8.615 -0.1114  0.7168 -0.6951
  897MOL0     C23658   0.553   2.970   8.689 -0.5485  0.3071 -0.4439
  897MOL0     C23659   0.417   2.927   8.623 -0.0520 -0.4690  0.1111
  897MOL0     C23660   0.419   2.891   8.467 -0.4952 -0.3298 -1.1931
  897MOL0     C23661   0.280   2.824   8.427 -0.2242 -0.3368  0.3875
  897MOL0     C23662   0.285   2.784   8.276  0.5505 -0.4101  0.0107
  897MOL0     C23663   0.164   2.715   8.216  0.7787  0.5983 -0.0255
  897MOL0     C23664   0.144   2.745   8.063  0.4555  0.4495 -1.3925
  897MOL0     N23665   0.043   2.667   7.997 -0.2750 -0.3239 -0.1990
  897MOL0     C23666  -0.077   2.636   8.049 -0.0341 -0.5842 -1.0130
  897MOL0     C23667  -0.123   2.525   7.981  0.0434  0.6993  0.3538
  897MOL0     C23668  -0.246   2.434   8.019 -0.3309  0.8067 -0.6380
  897MOL0     C23669  -0.361   2.417   7.918 -0.4019 -0.5042 -0.1189
  897MOL0     C23670  -0.322   2.420   7.766  0.3315  0.4989  0.4445
  897MOL0     C23671  -0.241   2.304   7.723 -0.5441  0.5792  1.1426
  897MOL0     O23672  -0.333   2.189   7.702 -0.3263  0.6512  0.0263
  897MOL0     C23673  -0.389   2.113   7.807 -0.7720  0.4304 -0.7044
  897MOL0     C23674  -0.511   2.057   7.796 -0.5698 -0.1137  0.2067
  897MOL0     C23675  -0.569   1.963   7.878 -0.6412 -0.0409 -0.1786
  897MOL0     C23676  -0.671   1.863   7.820 -0.7699 -0.5954 -1.0059
  897MOL0     C23677  -0.507   1.942   8.000 -0.8822  0.3187  1.0272
  897MOL0     C23678  -0.538   1.829   8.095 -0.3742 -0.2649 -0.5375
  897MOL0     O23679  -0.474   1.843   8.213  0.2312 -0.3268  0.3118
  897MOL0     C23680  -0.480   1.745   8.310  0.3065 -0.0228  0.0157
  897MOL0     C23681  -0.435   1.776   8.442 -0.0113 -0.8636  0.2325
  897MOL0     C23682  -0.448   1.692   8.554 -0.7772  0.1328 -0.0848
  897MOL0     C23683  -0.489   1.558   8.532 -0.0917  0.3625 -0.6268
  897MOL0     O23684  -0.516   1.482   8.638 -0.4607  0.1019 -0.2029
  897MOL0     C23685  -0.524   1.337   8.631  0.5403 -0.4415  0.5257
  897MOL0     C23686  -0.530   1.271   8.766 -0.4225 -0.7517 -0.3520
  897MOL0     C23687  -0.632   1.339   8.855 -0.3906  0.1244  0.3223
  897MOL0     C23688  -0.671   1.257   8.980  0.2023 -0.1606 -0.1901
  897MOL0     C23689  -0.715   1.365   9.083 -0.2662  1.2790  0.0707
  897MOL0     C23690  -0.766   1.289   9.214  0.8550 -0.4381 -0.4042
  897MOL0     C23691  -0.738   1.385   9.333  0.1779  0.8690  0.2426
  897MOL0     C23692  -0.789   1.333   9.466 -0.2510  0.0753  0.3187
  897MOL0    Cl23693  -0.966   1.314   9.471 -0.4135 -0.0802 -0.5814
  897MOL0     C23694  -0.508   1.517   8.396 -0.5427 -0.5521  0.2045
  897MOL0     C23695  -0.518   1.611   8.294 -0.1258  0.6448  0.0093
  897MOL0     O23696  -0.618   1.742   8.067  0.0630  0.2421  0.1213
  897MOL0     C23697  -0.383   2.013   8.021  0.2166 -0.2315 -0.9902
  897MOL0     C23698  -0.329   2.098   7.931 -1.3805 -0.1608  0.2282
  897MOL0     N23699  -0.031   2.501   7.879  0.0002 -0.6483  0.1275
  897MOL0     N23700   0.061   2.587   7.889  0.4239  0.2465 -0.2000
  897MOL0     C23701   0.428   3.397   8.515 -0.6046  0.0352 -0.5852
  897MOL0     C23702   0.463   3.532   8.506 -0.7756 -0.2594 -0.6894
  897MOL0     C23703   0.741   3.921   8.482  0.6619 -0.6661  0.4367
  897MOL0     C23704   0.875   3.947   8.450 -0.6131 -0.5848  0.6172
  897MOL0     C23705   0.912   4.083   8.404  0.6910  0.0070  0.7200
  897MOL0     C23706   0.821   4.184   8.399  0.4368 -0.7703 -1.6149
  897MOL0     O23707   0.862   4.310   8.363  0.6954  0.3666 -0.0261
  897MOL0     C23708   0.768   4.414   8.360 -0.0919 -0.7852  0.0695
  897MOL0     C23709   0.825   4.550   8.321  0.9296  0.1083 -0.3434
  897MOL0     C23710   0.850   4.543   8.179  0.4420 -0.8769 -0.4919
  897MOL0     C23711   0.969   4.450   8.122 -0.2862 -0.7144  0.3758
  897MOL0     C23712   1.019   4.493   7.995  0.5555 -0.1294  0.2060
  897MOL0     C23713   1.032   4.534   7.884  0.2953  0.5596  0.0737
  897MOL0     C23714   0.681   4.141   8.410 -0.6999 -0.0636 -0.5040
  897MOL0     C23715   0.642   4.021   8.463 -0.1585  0.3570 -0.0925
  897MOL0     C23716   0.500   3.993   8.511  0.2102 -0.0411  0.1173
  897MOL0     H23717   0.812   3.517   8.492  0.8806 -0.1462 -0.2593
  897MOL0     H23718   0.754   3.282   8.530  1.8793  2.8666 -0.2262
  897MOL0     H23719   0.693   3.133   8.682  2.7633 -1.2734 -2.2150
  897MOL0     H23720   0.676   3.033   8.537 -0.9872 -0.1730 -0.7413
  897MOL0     H23721   0.615   2.880   8.686  1.1558  1.1892  3.0107
  897MOL0     H23722   0.538   3.004   8.792  1.0659  0.6422 -0.3003
  897MOL0     H23723   0.384   2.847   8.690 -0.7535  1.9845  2.8870
  897MOL0     H23724   0.335   2.998   8.636 -0.5885 -1.0144 -0.2387
  897MOL0     H23725   0.446   2.972   8.399  0.4356  0.7943  0.4661
  897MOL0     H23726   0.496   2.815   8.450 -1.8537 -1.5984 -1.9066
  897MOL0     H23727   0.201   2.899   8.438  0.7023  0.5321  1.3556
  897MOL0     H23728   0.249   2.740   8.489  2.1003 -0.8588  0.9289
  897MOL0     H23729   0.291   2.870   8.209 -1.0785 -0.6734 -0.5064
  897MOL0     H23730   0.367   2.714   8.262 -0.0277 -1.0841 -0.0622
  897MOL0     H23731   0.071   2.749   8.262  0.7030 -0.0282  0.3031
  897MOL0     H23732   0.157   2.609   8.243 -2.1502  0.7318  0.0012
  897MOL0     H23733   0.112   2.849   8.051  2.5099  1.1249 -1.3695
  897MOL0     H23734   0.236   2.735   8.004  0.6684  0.7036 -1.1014
  897MOL0     H23735  -0.129   2.673   8.137 -1.9668 -1.8061 -1.5545
  897MOL0     H23736  -0.270   2.472   8.119  3.6529 -0.1770  0.8654
  897MOL0     H23737  -0.204   2.334   8.025  1.2409  1.4921  0.4630
  897MOL0     H23738  -0.418   2.328   7.948 -0.1618 -0.2569  1.1356
  897MOL0     H23739  -0.432   2.499   7.930  1.3777  0.9022  1.3436
  897MOL0     H23740  -0.409   2.436   7.703 -2.3338 -2.2728  3.1087
  897MOL0     H23741  -0.258   2.509   7.757  1.4402 -0.3414 -0.2113
  897MOL0     H23742  -0.192   2.331   7.629  1.3278 -0.2879  1.8327
  897MOL0     H23743  -0.157   2.282   7.789  1.1130  0.6865 -0.8108
  897MOL0     H23744  -0.569   2.063   7.704  1.7092 -1.7865 -1.4505
  897MOL0     H23745  -0.764   1.869   7.878  1.4272 -0.8373  2.9347
  897MOL0     H23746  -0.626   1.764   7.822  0.8401  0.0217 -2.9523
  897MOL0     H23747  -0.696   1.891   7.718 -1.1674 -1.1969 -1.0784
  897MOL0     H23748  -0.396   1.877   8.451 -2.8596  0.3892 -0.3109
  897MOL0     H23749  -0.424   1.729   8.653 -2.2538  1.6776 -0.2549
  897MOL0     H23750  -0.620   1.298   8.597  1.0321 -0.3196 -1.0715
  897MOL0     H23751  -0.443   1.299   8.569  1.4018  4.1466 -1.5634
  897MOL0     H23752  -0.561   1.167   8.764  0.9983 -1.2397 -3.3859
  897MOL0     H23753  -0.426   1.281   8.800 -0.9049  0.3587  0.8787
  897MOL0     H23754  -0.721   1.358   8.794 -1.1664 -1.5801  0.8764
  897MOL0     H23755  -0.593   1.439   8.877  1.2448 -0.9485  2.7154
  897MOL0     H23756  -0.587   1.195   9.013 -0.0040  0.6720  2.0280
  897MOL0     H23757  -0.755   1.204   8.935 -0.2712  2.2070 -2.3500
  897MOL0     H23758  -0.631   1.427   9.117  1.9835 -2.3839  1.7831
  897MOL0     H23759  -0.798   1.429   9.052  0.3549  1.6539 -0.8929
  897MOL0     H23760  -0.725   1.189   9.229  0.3421 -0.5062  0.6470
  897MOL0     H23761  -0.873   1.267   9.205  0.2357  2.4716 -1.1326
  897MOL0     H23762  -0.789   1.480   9.318  1.2047  1.2767 -0.8082
  897MOL0     H23763  -0.629   1.397   9.337  0.3686  0.5011 -2.2614
  897MOL0     H23764  -0.761   1.405   9.543  1.1542 -0.7479  0.6278
  897MOL0     H23765  -0.737   1.241   9.495  0.6490 -0.3337 -2.3220
  897MOL0     H23766  -0.538   1.416   8.370 -1.9503  0.3910 -2.1325
  897MOL0     H23767  -0.546   1.566   8.199  4.7978  0.2847 -1.5734
  897MOL0     H23768  -0.318   2.005   8.108  0.8354 -1.2639 -1.5372
  897MOL0     H23769  -0.229   2.135   7.950 -0.3608 -2.4990 -0.1397
  897MOL0     H23770   0.323   3.377   8.532 -0.7908  0.6006 -1.0364
  897MOL0     H23771   0.388   3.611   8.506  2.6758  3.3550 -0.9935
  897MOL0     H23772   0.951   3.869   8.447 -1.6021 -1.5366 -0.8508
  897MOL0     H23773   1.015   4.118   8.394 -0.0181  2.1687  0.4746
  897MOL0     H23774   0.692   4.388   8.286  2.2741 -0.5016 -2.5905
  897MOL0     H23775   0.724   4.435   8.458 -2.5763  1.6133 -1.4095
  897MOL0     H23776   0.919   4.572   8.373  0.4644 -1.2263  1.1219
  897MOL0     H23777   0.749   4.623   8.351 -1.6725 -1.9919 -1.4214
  897MOL0     H23778   0.762   4.521   8.119 -0.7605  1.2083  0.3915
  897MOL0     H23779   0.884   4.644   8.156 -0.2458 -0.2000  1.3017
  897MOL0     H23780   0.942   4.344   8.122  2.5264 -1.5061  0.4152
  897MOL0     H23781   1.053   4.461   8.191 -0.6661 -1.7757  1.0397
  897MOL0     H23782   1.054   4.586   7.793 -0.6148  1.3662  0.3007
  897MOL0     H23783   0.595   4.207   8.399 -1.1776 -0.8667 -1.9825
  897MOL0     H23784   0.497   3.992   8.620  2.4950 -0.1004  0.2227
  897MOL0     H23785   0.434   4.073   8.477  0.9567 -0.1537 -1.7276
  897MOL0     H23786   0.463   3.902   8.462  1.9646  0.8715 -3.1958
  898MOL0     O23787   3.516   0.186   3.690  0.0387  0.4895 -0.2095
  898MOL0     C23788   3.623   0.141   3.651  0.0779 -0.7452  0.0401
  898MOL0     O23789   3.670   0.172   3.534  0.2837  0.1169  0.6876
  898MOL0     C23790   3.606   0.251   3.448  0.0230 -0.2786  0.0114
  898MOL0     C23791   3.661   0.366   3.420  0.2187  0.4656  0.3248
  898MOL0     C23792   3.596   0.453   3.325  0.6510 -0.2525  0.0223
  898MOL0     C23793   3.473   0.425   3.265 -0.4123 -0.0642 -0.3630
  898MOL0     O23794   3.421   0.501   3.170  0.5240 -0.8635  0.4233
  898MOL0     C23795   3.428   0.653   3.166 -0.5122  0.1973 -0.4316
  898MOL0     C23796   3.317   0.712   3.250  0.3715  0.1234  0.2124
  898MOL0     C23797   3.179   0.645   3.251  0.3445  0.2899 -0.3406
  898MOL0     C23798   3.073   0.703   3.343  0.0273 -0.2156  0.3833
  898MOL0     C23799   2.942   0.650   3.304  0.5031  0.7650  0.6858
  898MOL0     C23800   2.825   0.727   3.356 -0.1767  0.0028  0.4498
  898MOL0     C23801   2.855   0.769   3.501 -0.2048 -0.1503  0.1567
  898MOL0     C23802   2.732   0.841   3.546 -0.7386  0.2412 -0.3269
  898MOL0     N23803   2.728   0.868   3.682  0.1814 -0.5578 -0.7787
  898MOL0     C23804   2.731   0.773   3.782 -0.5488 -0.7597  0.1607
  898MOL0     C23805   2.745   0.849   3.896  0.0850 -0.6700 -0.7616
  898MOL0     C23806   2.739   0.784   4.036  0.5313 -0.1447 -0.3494
  898MOL0     C23807   2.802   0.644   4.055 -0.8076 -0.7290  0.8939
  898MOL0     C23808   2.777   0.598   4.196 -0.3269  0.6089 -0.0196
  898MOL0     C23809   2.834   0.457   4.224  0.3937 -0.4723 -0.9476
  898MOL0     O23810   2.813   0.419   4.359 -0.1104 -0.2278  0.6350
  898MOL0     C23811   2.927   0.403   4.437  1.2421 -0.5087  0.6218
  898MOL0     C23812   2.953   0.270   4.474 -0.0406  0.3915  1.1584
  898MOL0     C23813   3.059   0.252   4.565 -0.0154 -1.0680  0.7032
  898MOL0     C23814   3.077   0.108   4.604 -1.0278  0.5344  0.0862
  898MOL0     C23815   3.147   0.365   4.606  0.5635  0.1758  0.8622
  898MOL0     C23816   3.275   0.342   4.686  0.4866  0.7619  0.8261
  898MOL0     O23817   3.341   0.223   4.684  0.6098  1.0848  0.0231
  898MOL0     C23818   3.442   0.204   4.783  0.8392 -0.2315  0.1556
  898MOL0     C23819   3.555   0.280   4.780  0.0290  0.5842  0.2996
  898MOL0     C23820   3.655   0.261   4.877  0.2873  0.0590  0.4252
  898MOL0     C23821   3.625   0.172   4.990  0.1079 -0.3205 -0.1971
  898MOL0     O23822   3.709   0.169   5.102 -0.9081 -0.3101  0.5607
  898MOL0     C23823   3.855   0.213   5.095 -0.1105  0.5534  0.1320
  898MOL0     C23824   3.934   0.156   5.207  0.7855  0.2805 -0.3068
  898MOL0     C23825   3.947   0.009   5.207 -1.0863  1.2592  0.3885
  898MOL0     C23826   3.992  -0.044   5.336  0.2910  0.1469 -0.6058
  898MOL0     C23827   4.014  -0.199   5.343 -0.7883  0.0697  1.1907
  898MOL0     C23828   4.086  -0.240   5.471  0.2286  0.5409 -0.0292
  898MOL0     C23829   4.234  -0.194   5.484 -0.3466  0.6389 -0.1055
  898MOL0     C23830   4.280  -0.197   5.625 -0.2295  0.7508 -0.0614
  898MOL0    Cl23831   4.458  -0.156   5.624 -0.5294 -0.5645 -0.0823
  898MOL0     C23832   3.512   0.085   4.987  0.7711  0.2408 -0.4483
  898MOL0     C23833   3.422   0.097   4.877 -0.9466  0.4962 -0.8057
  898MOL0     O23834   3.311   0.440   4.745 -0.2739  0.0320 -0.6848
  898MOL0     C23835   3.112   0.501   4.559 -0.0690 -0.1224  0.0512
  898MOL0     C23836   2.999   0.512   4.480 -0.1290  1.5554  0.8636
  898MOL0     N23837   2.760   0.979   3.864 -0.9710  0.4392 -0.2329
  898MOL0     N23838   2.759   0.987   3.737  0.7017 -0.4188 -0.9564
  898MOL0     C23839   3.421   0.302   3.288 -0.8677 -0.5245  0.5610
  898MOL0     C23840   3.487   0.213   3.374  0.8163 -0.4201 -0.0376
  898MOL0     C23841   3.699   0.026   3.723  1.1096 -0.1116 -1.0041
  898MOL0     C23842   3.615  -0.056   3.806 -0.7040  0.2300  0.3585
  898MOL0     C23843   3.670  -0.158   3.886  0.8875 -0.5721 -0.2011
  898MOL0     C23844   3.809  -0.175   3.894  0.4738  0.9875 -0.5977
  898MOL0     O23845   3.834  -0.283   3.976 -0.1029 -0.9265  0.3334
  898MOL0     C23846   3.966  -0.328   3.977  0.9577 -0.7868  0.4332
  898MOL0     C23847   3.947  -0.470   4.032  0.7797  1.0414  0.7621
  898MOL0     C23848   4.091  -0.514   4.072  0.0750  0.4411 -0.0813
  898MOL0     C23849   4.115  -0.664   4.085 -0.1894  1.0479  0.3650
  898MOL0     C23850   4.005  -0.730   4.168 -0.6822  0.3867 -0.7102
  898MOL0     C23851   3.927  -0.792   4.245  0.3683  1.2173  0.0528
  898MOL0     C23852   3.899  -0.098   3.814  0.3996 -0.0804  0.1093
  898MOL0     C23853   3.839  -0.001   3.726 -0.9666 -0.6895  0.1900
  898MOL0     C23854   3.929   0.087   3.640  0.0057  1.2146 -0.6022
  898MOL0     H23855   3.751   0.402   3.470  3.0252  0.5274 -4.1710
  898MOL0     H23856   3.642   0.547   3.296 -1.5884  0.8991 -0.0321
  898MOL0     H23857   3.415   0.678   3.060 -2.0982 -1.4073 -0.6605
  898MOL0     H23858   3.520   0.699   3.203 -0.1406 -1.9999  1.6267
  898MOL0     H23859   3.346   0.707   3.356 -3.5731  0.9168  1.4941
  898MOL0     H23860   3.313   0.818   3.224  1.7791  0.2331  0.3395
  898MOL0     H23861   3.140   0.634   3.150 -1.8611  0.4818  0.4147
  898MOL0     H23862   3.188   0.540   3.280 -0.9064 -0.2175 -1.6807
  898MOL0     H23863   3.104   0.679   3.445  5.0608  0.9680 -0.5604
  898MOL0     H23864   3.078   0.812   3.344  1.6348 -0.2458  1.8157
  898MOL0     H23865   2.918   0.554   3.350 -0.5937 -0.1217 -1.5812
  898MOL0     H23866   2.934   0.643   3.195  4.1785  1.7721  0.2197
  898MOL0     H23867   2.807   0.817   3.296 -0.9213  0.1716  0.9155
  898MOL0     H23868   2.735   0.668   3.338 -1.2657  2.2160 -2.0367
  898MOL0     H23869   2.924   0.852   3.516 -3.1371  2.5320 -0.1142
  898MOL0     H23870   2.875   0.679   3.559  0.8904  0.9893  1.6262
  898MOL0     H23871   2.722   0.933   3.488  2.8320 -0.0539 -1.6344
  898MOL0     H23872   2.638   0.789   3.525 -0.7402  0.1335 -0.0661
  898MOL0     H23873   2.729   0.665   3.771  5.8784 -1.0648 -2.2943
  898MOL0     H23874   2.639   0.798   4.078  0.5314  2.4808 -1.0407
  898MOL0     H23875   2.795   0.853   4.099 -3.1787  1.8724  1.0554
  898MOL0     H23876   2.765   0.582   3.973  0.1855 -0.3659  0.1584
  898MOL0     H23877   2.909   0.656   4.039 -1.0396  0.9883  0.4861
  898MOL0     H23878   2.829   0.664   4.266 -0.7570  0.6927  0.2261
  898MOL0     H23879   2.668   0.604   4.210 -0.4502  1.5046 -1.1751
  898MOL0     H23880   2.773   0.392   4.161 -1.0511 -0.4701  0.3811
  898MOL0     H23881   2.942   0.455   4.205  0.6401 -2.3730  0.3564
  898MOL0     H23882   2.892   0.191   4.431 -1.5984  1.2090  1.8030
  898MOL0     H23883   3.043   0.087   4.706 -1.8534 -1.8622 -0.5941
  898MOL0     H23884   3.183   0.086   4.595 -1.3085 -1.4718  1.0798
  898MOL0     H23885   3.026   0.032   4.544  0.4290 -3.5750  3.5366
  898MOL0     H23886   3.572   0.360   4.709  2.5966  2.3058  2.6275
  898MOL0     H23887   3.747   0.319   4.884  2.5934 -3.2196 -0.2006
  898MOL0     H23888   3.899   0.183   5.000 -0.7336  1.4585 -0.4548
  898MOL0     H23889   3.858   0.322   5.100 -1.9215  0.8021 -2.5074
  898MOL0     H23890   4.040   0.182   5.198  1.8927 -2.9430  1.5073
  898MOL0     H23891   3.886   0.186   5.300 -0.1582 -0.2641 -0.6102
  898MOL0     H23892   4.027  -0.017   5.137 -1.6029 -2.1784  0.8977
  898MOL0     H23893   3.856  -0.046   5.181  1.4693 -1.8661 -3.1046
  898MOL0     H23894   3.920  -0.012   5.411 -0.2424  0.3890 -1.2109
  898MOL0     H23895   4.087   0.005   5.359  2.4607 -3.8662 -0.0396
  898MOL0     H23896   3.919  -0.252   5.330 -1.4611  1.3590  0.6722
  898MOL0     H23897   4.076  -0.233   5.260 -0.0037  0.4243  1.6273
  898MOL0     H23898   4.076  -0.349   5.475  0.3698  0.5523  1.0042
  898MOL0     H23899   4.029  -0.200   5.556 -0.4452  2.0266 -1.1359
  898MOL0     H23900   4.253  -0.092   5.449 -6.3387  1.5493 -1.8447
  898MOL0     H23901   4.297  -0.258   5.423 -0.1293  1.4041 -0.6998
  898MOL0     H23902   4.271  -0.301   5.658  2.5469  0.7566  1.0524
  898MOL0     H23903   4.223  -0.137   5.696 -1.3842 -0.1173 -0.2265
  898MOL0     H23904   3.506   0.009   5.065  0.4366 -1.8553 -2.3883
  898MOL0     H23905   3.337   0.032   4.861 -0.4677 -0.0848 -1.0527
  898MOL0     H23906   3.172   0.590   4.577 -0.8904  0.6634 -0.9683
  898MOL0     H23907   2.962   0.612   4.462  0.4124  1.5410 -0.4277
  898MOL0     H23908   3.335   0.268   3.232 -0.6642  0.3390 -0.3110
  898MOL0     H23909   3.446   0.113   3.376 -0.2455  0.0218  1.0139
  898MOL0     H23910   3.511  -0.034   3.830 -0.6611 -1.1681  2.0062
  898MOL0     H23911   3.608  -0.227   3.941  0.2844  0.9134  1.0377
  898MOL0     H23912   3.988  -0.330   3.870 -0.5817 -1.4757  0.0876
  898MOL0     H23913   4.037  -0.265   4.030  1.9121 -2.7388  1.5931
  898MOL0     H23914   3.910  -0.550   3.967 -0.2338 -0.0781  2.6196
  898MOL0     H23915   3.881  -0.460   4.119 -2.5926 -0.6904 -1.3933
  898MOL0     H23916   4.158  -0.474   3.996 -1.5504  0.2273 -1.7012
  898MOL0     H23917   4.127  -0.475   4.167 -0.1920 -3.0119  1.5705
  898MOL0     H23918   4.209  -0.685   4.137 -1.1451 -1.5130  1.2327
  898MOL0     H23919   4.117  -0.706   3.984 -1.9971 -0.3635  0.8644
  898MOL0     H23920   3.854  -0.830   4.312 -0.2646  2.2037 -0.0528
  898MOL0     H23921   4.006  -0.112   3.826  0.1021 -0.1766  3.6084
  898MOL0     H23922   3.907   0.072   3.533  1.0954 -1.8463 -0.5065
  898MOL0     H23923   3.930   0.194   3.662  0.1224  0.3560  4.9816
  898MOL0     H23924   4.031   0.053   3.659 -0.0911  1.6920  0.8747
  899MOL0     O23925   6.627   4.708   1.403  0.7010  0.0437  0.2401
  899MOL0     C23926   6.521   4.759   1.446 -0.8307  0.3969 -0.4547
  899MOL0     O23927   6.484   4.776   1.574  0.1160  0.3086 -1.2075
  899MOL0     C23928   6.555   4.722   1.680 -0.2751 -0.0159  0.6952
  899MOL0     C23929   6.483   4.659   1.779  0.2863  0.2636 -1.0837
  899MOL0     C23930   6.547   4.573   1.874  0.5211 -0.7810 -0.2008
  899MOL0     C23931   6.684   4.583   1.886 -0.0195 -0.0174  0.2982
  899MOL0     O23932   6.747   4.521   1.994  0.1294  0.0696  0.2727
  899MOL0     C23933   6.866   4.576   2.049 -0.1646 -0.2042 -0.3515
  899MOL0     C23934   6.886   4.522   2.195  0.6218 -0.3878 -0.7843
  899MOL0     C23935   6.900   4.370   2.204  0.3965  0.6878 -0.8415
  899MOL0     C23936   6.920   4.332   2.348 -0.2789  0.7001  0.6357
  899MOL0     C23937   6.999   4.196   2.373 -0.2528  0.0140  0.0746
  899MOL0     C23938   6.993   4.175   2.524  0.2410 -0.0528 -0.8369
  899MOL0     C23939   7.044   4.042   2.579 -0.2369 -0.0026  0.0806
  899MOL0     C23940   6.950   3.925   2.617  0.0452 -0.6082  0.1997
  899MOL0     N23941   7.005   3.833   2.716 -0.6403 -0.6975  1.0267
  899MOL0     C23942   6.949   3.781   2.834 -0.7695  0.1438 -0.1587
  899MOL0     C23943   7.023   3.672   2.856  0.0924 -0.0112 -0.7015
  899MOL0     C23944   7.011   3.582   2.977  0.8044 -0.9076 -0.6889
  899MOL0     C23945   6.879   3.518   2.973  0.7058 -0.2586 -0.2109
  899MOL0     C23946   6.860   3.432   3.105  0.1789 -0.2151  0.6354
  899MOL0     C23947   6.732   3.364   3.128  0.8013 -0.6554 -0.0391
  899MOL0     O23948   6.732   3.226   3.096  0.2927 -0.1076  0.1176
  899MOL0     C23949   6.607   3.162   3.082 -0.1341  0.4963  0.3955
  899MOL0     C23950   6.489   3.206   3.145 -0.8777 -0.0026 -0.1756
  899MOL0     C23951   6.364   3.161   3.120 -0.0428  0.0338 -0.9587
  899MOL0     C23952   6.243   3.226   3.199 -1.0494  0.3541 -0.3795
  899MOL0     C23953   6.349   3.061   3.015 -0.0795  0.4410  0.0880
  899MOL0     C23954   6.218   3.001   2.962  0.1130 -0.9580  0.3261
  899MOL0     O23955   6.217   2.948   2.836 -0.2534 -0.2226 -0.0814
  899MOL0     C23956   6.103   2.928   2.766  0.8038 -0.0270  0.1569
  899MOL0     C23957   6.016   2.817   2.780  0.2119 -0.1139 -0.2340
  899MOL0     C23958   5.893   2.816   2.721  0.2092  0.5099  0.2916
  899MOL0     C23959   5.851   2.928   2.641 -0.0190  0.6781 -0.1814
  899MOL0     O23960   5.725   2.922   2.586  0.3409  0.6460 -0.0732
  899MOL0     C23961   5.622   3.004   2.650  0.4251 -0.3450 -0.4885
  899MOL0     C23962   5.589   2.959   2.789  1.0051  0.5489 -0.0398
  899MOL0     C23963   5.476   3.042   2.859 -1.1453  0.2660 -0.6636
  899MOL0     C23964   5.438   2.984   2.998 -0.6353  0.2475  0.3856
  899MOL0     C23965   5.311   3.030   3.063  0.1481  0.2164 -0.0202
  899MOL0     C23966   5.271   2.936   3.178  0.1300  0.4443 -0.8839
  899MOL0     C23967   5.118   2.948   3.209 -0.2255 -0.1133  0.2314
  899MOL0     C23968   5.074   2.858   3.326 -0.5452 -0.7888  0.0599
  899MOL0    Cl23969   4.905   2.842   3.307 -0.2552 -0.1984  0.3114
  899MOL0     C23970   5.934   3.042   2.626  1.0342 -0.3918 -0.1828
  899MOL0     C23971   6.053   3.039   2.692 -0.2186 -0.2253  0.2435
  899MOL0     O23972   6.117   3.020   3.029  0.2041  0.4873  1.3122
  899MOL0     C23973   6.469   3.015   2.954 -0.0853 -0.4310 -0.1186
  899MOL0     C23974   6.599   3.058   2.994 -0.0422  0.9315  0.2042
  899MOL0     N23975   7.127   3.665   2.767  0.8579  0.2373 -0.5776
  899MOL0     N23976   7.128   3.771   2.695 -0.9759  0.3845 -1.0960
  899MOL0     C23977   6.754   4.665   1.791 -0.2195 -0.1626 -0.0445
  899MOL0     C23978   6.700   4.730   1.679  0.7789  0.5964 -0.0004
  899MOL0     C23979   6.421   4.805   1.351  0.6396 -0.3436  0.2974
  899MOL0     C23980   6.287   4.835   1.398 -0.1214 -0.2469  0.2713
  899MOL0     C23981   6.198   4.895   1.313 -0.2434  0.1589 -0.3701
  899MOL0     C23982   6.221   4.921   1.175  0.3055 -0.3286  0.3214
  899MOL0     O23983   6.110   4.960   1.099 -0.6093 -0.3455 -0.5605
  899MOL0     C23984   6.138   5.039   0.975 -0.0135  0.7513  0.3461
  899MOL0     C23985   6.065   4.976   0.860  0.2278  0.1542 -0.2336
  899MOL0     C23986   6.151   4.862   0.814  0.0000  1.0011  0.6490
  899MOL0     C23987   6.075   4.797   0.692  0.8827  0.4807 -0.5211
  899MOL0     C23988   6.149   4.683   0.626  0.6880 -0.3981 -0.6469
  899MOL0     C23989   6.217   4.606   0.571  0.0336 -0.5748 -1.6044
  899MOL0     C23990   6.356   4.906   1.131 -0.5570 -0.1231 -0.1417
  899MOL0     C23991   6.449   4.841   1.214  0.6808  0.4659 -1.2247
  899MOL0     C23992   6.586   4.825   1.150  0.6209  0.2780  0.0265
  899MOL0     H23993   6.376   4.644   1.773 -0.2141  0.0012  4.1348
  899MOL0     H23994   6.500   4.497   1.936  0.4556  0.2014  1.0161
  899MOL0     H23995   6.866   4.686   2.043  1.9598 -0.2214 -1.8335
  899MOL0     H23996   6.949   4.536   1.990  1.1073  2.4252 -0.5297
  899MOL0     H23997   6.990   4.546   2.221  2.2512 -1.6908 -5.0488
  899MOL0     H23998   6.813   4.551   2.270  1.3397  0.6258 -0.4550
  899MOL0     H23999   6.813   4.315   2.169 -0.3279  0.5153  1.0802
  899MOL0     H24000   6.983   4.333   2.143 -0.8639 -0.8495 -1.6782
  899MOL0     H24001   6.945   4.423   2.402  6.4445  1.1282 -2.2279
  899MOL0     H24002   6.823   4.313   2.394 -0.2791  0.6509  0.6168
  899MOL0     H24003   7.098   4.189   2.326  0.3193 -4.7326  1.4531
  899MOL0     H24004   6.948   4.118   2.317 -0.7680  0.6804 -0.4011
  899MOL0     H24005   7.061   4.249   2.569  0.3193 -0.6728  0.1073
  899MOL0     H24006   6.896   4.193   2.571  0.6558  3.9652 -1.1743
  899MOL0     H24007   7.102   4.063   2.670 -3.0786  0.3504  1.9335
  899MOL0     H24008   7.104   4.000   2.499  0.6921 -1.9983  1.7242
  899MOL0     H24009   6.856   3.962   2.658 -2.1104 -4.1420 -1.0786
  899MOL0     H24010   6.917   3.876   2.525  0.4031  0.6339 -0.6154
  899MOL0     H24011   6.865   3.813   2.895 -0.6393  1.7521 -0.7526
  899MOL0     H24012   7.019   3.639   3.070  0.4873  2.6093 -2.6376
  899MOL0     H24013   7.091   3.507   2.979  0.0697 -1.7049  0.5538
  899MOL0     H24014   6.796   3.590   2.968  0.6122 -0.4351 -1.9375
  899MOL0     H24015   6.878   3.445   2.891 -1.5251 -1.4078  0.7348
  899MOL0     H24016   6.938   3.358   3.122 -0.3885 -0.6966  1.1665
  899MOL0     H24017   6.881   3.512   3.176  2.0096  2.3452 -2.4920
  899MOL0     H24018   6.732   3.363   3.237 -0.5763 -1.1346 -0.0179
  899MOL0     H24019   6.655   3.430   3.087  1.6307 -0.5981 -1.5661
  899MOL0     H24020   6.505   3.270   3.231 -3.5200  1.8535 -0.9430
  899MOL0     H24021   6.273   3.291   3.282  1.8279 -1.1942 -0.0765
  899MOL0     H24022   6.179   3.142   3.230 -1.9071  2.3981  4.1930
  899MOL0     H24023   6.189   3.285   3.124 -1.4503  0.9029  0.3294
  899MOL0     H24024   6.026   2.732   2.847 -1.4015 -1.5059 -1.6646
  899MOL0     H24025   5.832   2.727   2.719  1.6206 -0.4956 -2.7092
  899MOL0     H24026   5.655   3.109   2.645 -1.1810  0.2913  1.0387
  899MOL0     H24027   5.533   2.997   2.587  1.1938  1.3182 -1.8618
  899MOL0     H24028   5.536   2.864   2.777  0.4821  0.9736 -1.3460
  899MOL0     H24029   5.675   2.961   2.856  2.2116  2.0812 -1.5289
  899MOL0     H24030   5.387   3.038   2.795 -1.2878  2.8892 -0.7290
  899MOL0     H24031   5.514   3.143   2.875 -1.6030  0.1165  1.6156
  899MOL0     H24032   5.524   2.992   3.064  0.3108 -3.1545 -0.2198
  899MOL0     H24033   5.430   2.879   2.967 -1.4413  1.1162 -2.6137
  899MOL0     H24034   5.322   3.134   3.093  0.6388  0.2134 -0.1842
  899MOL0     H24035   5.232   3.011   2.990 -0.3767 -2.2589  1.0642
  899MOL0     H24036   5.341   2.938   3.262  0.3936 -0.0360 -1.0919
  899MOL0     H24037   5.291   2.831   3.154 -1.3787 -0.5248  1.7124
  899MOL0     H24038   5.070   2.904   3.121  1.6832 -2.1584  0.1131
  899MOL0     H24039   5.082   3.051   3.208 -1.4161 -0.4990  1.1252
  899MOL0     H24040   5.098   2.891   3.427 -1.6859 -0.8676  0.3679
  899MOL0     H24041   5.127   2.762   3.321  3.8792  1.4664 -1.3996
  899MOL0     H24042   5.896   3.129   2.574  0.0389  1.8014  3.8070
  899MOL0     H24043   6.106   3.133   2.682 -3.1551  1.6379  1.1008
  899MOL0     H24044   6.472   2.944   2.872  0.6115  0.7180 -1.1157
  899MOL0     H24045   6.691   3.028   2.945  0.4842  3.2831 -0.3832
  899MOL0     H24046   6.861   4.677   1.805 -0.4521  1.2718  0.7171
  899MOL0     H24047   6.760   4.792   1.612  2.7910 -1.6166 -0.3988
  899MOL0     H24048   6.252   4.834   1.501 -0.2719  2.0849  0.2980
  899MOL0     H24049   6.104   4.938   1.348 -1.1275  1.3901 -3.8176
  899MOL0     H24050   6.094   5.139   0.986 -2.6023  0.4494 -4.5020
  899MOL0     H24051   6.244   5.050   0.948 -0.3960  2.5445 -0.5604
  899MOL0     H24052   6.048   5.051   0.782  1.5225  0.1248 -0.5614
  899MOL0     H24053   5.967   4.941   0.894 -0.6280  2.0660 -0.5445
  899MOL0     H24054   6.243   4.894   0.765  0.9304 -2.8713 -0.5061
  899MOL0     H24055   6.171   4.797   0.900 -4.1960 -0.4005  0.8353
  899MOL0     H24056   6.048   4.876   0.622 -2.0166  1.1251  1.1652
  899MOL0     H24057   5.978   4.753   0.718  1.2922  0.1261  0.4608
  899MOL0     H24058   6.295   4.552   0.520  1.1141  1.2397 -1.9539
  899MOL0     H24059   6.380   4.943   1.032 -2.7215 -0.3347 -0.7851
  899MOL0     H24060   6.651   4.877   1.221 -1.0743 -0.2779  2.0807
  899MOL0     H24061   6.614   4.720   1.140  2.1844  0.3605  2.5480
  899MOL0     H24062   6.594   4.870   1.051 -0.0027 -0.6607 -0.4643
  900MOL0     O24063   0.762   9.683   8.943 -0.1996 -0.3180 -0.0753
  900MOL0     C24064   0.653   9.691   9.001 -0.9959 -0.1089  0.1881
  900MOL0     O24065   0.633   9.634   9.125 -0.8611  0.0297  0.1886
  900MOL0     C24066   0.730   9.544   9.168 -0.0246  0.2010  1.1116
  900MOL0     C24067   0.745   9.415   9.108 -0.0149  0.4314 -0.6647
  900MOL0     C24068   0.855   9.338   9.145  0.5733 -0.1696  0.7546
  900MOL0     C24069   0.950   9.383   9.240  0.2858  0.9852  0.9894
  900MOL0     O24070   1.062   9.312   9.277 -0.0328 -0.6499 -0.5330
  900MOL0     C24071   1.154   9.256   9.173  0.5897 -1.2433  0.8648
  900MOL0     C24072   1.286   9.319   9.177  0.1939  0.5447  0.3299
  900MOL0     C24073   1.372   9.296   9.052  0.5943 -0.3577  0.3813
  900MOL0     C24074   1.411   9.148   9.027 -0.2959  0.5735  0.5340
  900MOL0     C24075   1.511   9.131   8.917  0.6877  0.5411 -0.8581
  900MOL0     C24076   1.504   8.993   8.863 -0.3209  0.4590  0.5963
  900MOL0     C24077   1.609   8.964   8.769 -0.4315  0.2191  0.7331
  900MOL0     C24078   1.741   8.945   8.829 -0.6260 -0.2156  0.1576
  900MOL0     N24079   1.737   8.841   8.932 -1.1346 -1.2502 -0.3188
  900MOL0     C24080   1.737   8.711   8.905  0.3388  0.1362 -0.2875
  900MOL0     C24081   1.747   8.660   9.032  0.4998  0.1227 -0.5904
  900MOL0     C24082   1.766   8.513   9.056 -0.0742 -0.3373 -0.1307
  900MOL0     C24083   1.922   8.494   9.097  0.9453  0.2681 -0.4581
  900MOL0     C24084   1.954   8.351   9.122 -0.1815  0.7351  0.9291
  900MOL0     C24085   2.103   8.343   9.158  0.7449 -0.6443 -0.5901
  900MOL0     O24086   2.136   8.203   9.191 -0.4227 -0.1770  0.0446
  900MOL0     C24087   2.106   8.148   9.313 -0.4178  0.5853 -0.1336
  900MOL0     C24088   2.159   8.022   9.322  0.2555  0.4011  0.1266
  900MOL0     C24089   2.154   7.956   9.445  0.1835  0.6171  0.0693
  900MOL0     C24090   2.221   7.826   9.450  0.5944  0.6623  1.4113
  900MOL0     C24091   2.103   8.020   9.565 -0.0466  0.6805 -0.2482
  900MOL0     C24092   2.095   7.964   9.696 -0.1422 -0.8422 -0.4192
  900MOL0     O24093   2.111   8.060   9.795  0.5746  0.5899 -0.0928
  900MOL0     C24094   2.093   8.005   9.923 -0.2738 -0.7590 -0.5168
  900MOL0     C24095   2.207   7.996  10.011  1.1992  0.5910  0.2102
  900MOL0     C24096   2.179   7.955  10.149  0.0993 -0.7692  0.0236
  900MOL0     C24097   2.054   7.929  10.196 -0.1703 -0.2393  0.5071
  900MOL0     O24098   2.020   7.889  10.323 -1.0474  0.1501 -0.0861
  900MOL0     C24099   2.131   7.853  10.412 -0.4338 -0.9478  0.7183
  900MOL0     C24100   2.068   7.789  10.536 -0.9577 -0.0793 -1.0316
  900MOL0     C24101   2.174   7.798  10.642  0.2353 -0.1338  1.1932
  900MOL0     C24102   2.142   7.720  10.763  1.1288 -0.7201 -0.1219
  900MOL0     C24103   2.241   7.759  10.878  0.1964  0.4034 -0.7532
  900MOL0     C24104   2.376   7.693  10.840  0.9652  0.4640 -0.1245
  900MOL0     C24105   2.475   7.671  10.953 -0.9361  1.3744 -0.7022
  900MOL0     C24106   2.420   7.641  11.090  0.9322 -1.7132 -0.6294
  900MOL0    Cl24107   2.552   7.607  11.208 -0.5961  0.0495 -0.3027
  900MOL0     C24108   1.956   7.933  10.100  0.4393 -0.7004 -1.2049
  900MOL0     C24109   1.970   7.974   9.969  0.6956  0.5210  0.3979
  900MOL0     O24110   2.070   7.843   9.704 -0.0239 -0.9519  0.1043
  900MOL0     C24111   2.048   8.149   9.553 -0.3833 -0.1212  0.2476
  900MOL0     C24112   2.052   8.216   9.429  0.7989 -0.1301  0.2619
  900MOL0     N24113   1.724   8.754   9.125 -0.3145 -0.5018 -1.0196
  900MOL0     N24114   1.738   8.863   9.060  0.5799 -0.4214 -0.7867
  900MOL0     C24115   0.937   9.504   9.289 -0.2633 -0.0959  0.4331
  900MOL0     C24116   0.825   9.587   9.260 -1.1567  0.1372  0.8087
  900MOL0     C24117   0.549   9.762   8.930  0.0334  1.1238 -0.9938
  900MOL0     C24118   0.431   9.775   9.010 -0.4987 -0.5629  0.1779
  900MOL0     C24119   0.316   9.828   8.949  0.0082 -1.1051 -0.1951
  900MOL0     C24120   0.309   9.855   8.812 -0.2858  0.5784  0.0889
  900MOL0     O24121   0.188   9.888   8.766 -0.5417  0.2249 -0.4254
  900MOL0     C24122   0.177   9.947   8.633 -0.3924 -1.4878 -0.5134
  900MOL0     C24123   0.026   9.998   8.630  0.1091  0.5178  0.4542
  900MOL0     C24124  -0.015  10.114   8.720 -0.3202 -0.1310 -0.5373
  900MOL0     C24125   0.075  10.241   8.696 -0.3540 -0.2357  0.3749
  900MOL0     C24126   0.013  10.365   8.749  0.6778 -0.2166 -0.1013
  900MOL0     C24127  -0.052  10.445   8.812  0.1342 -0.4824 -0.4997
  900MOL0     C24128   0.428   9.841   8.736  0.4963 -0.0524 -0.4672
  900MOL0     C24129   0.546   9.791   8.790  0.1840  0.3590 -0.1349
  900MOL0     C24130   0.650   9.750   8.695 -0.7952  0.4592  0.2288
  900MOL0     H24131   0.684   9.377   9.027  1.8122 -4.7539 -0.0028
  900MOL0     H24132   0.874   9.253   9.081 -1.1778  1.7725 -2.6326
  900MOL0     H24133   1.122   9.280   9.071  1.3688 -2.7884  0.2180
  900MOL0     H24134   1.156   9.147   9.184 -1.7868 -1.4808 -0.4242
  900MOL0     H24135   1.286   9.427   9.195  1.0244  1.1752 -2.7805
  900MOL0     H24136   1.339   9.274   9.262  1.7450 -0.6309 -1.1806
  900MOL0     H24137   1.324   9.332   8.961 -1.2338 -2.7592  0.3142
  900MOL0     H24138   1.459   9.361   9.065 -1.1755  2.2056  0.2160
  900MOL0     H24139   1.455   9.114   9.121  1.5888 -2.9277 -1.4138
  900MOL0     H24140   1.324   9.082   9.014  0.0371  0.0982  0.6937
  900MOL0     H24141   1.600   9.145   8.979  2.0397 -5.3479 -0.8829
  900MOL0     H24142   1.486   9.208   8.843 -2.1787 -1.6947 -2.4139
  900MOL0     H24143   1.503   8.917   8.941 -3.2000 -0.1305  0.1015
  900MOL0     H24144   1.417   8.968   8.802  1.2526 -0.4334 -1.4339
  900MOL0     H24145   1.614   9.029   8.681  1.0301  0.8225  1.2271
  900MOL0     H24146   1.592   8.865   8.725 -0.8030  1.0597 -1.1428
  900MOL0     H24147   1.801   8.906   8.746  1.0400 -1.2614  1.7763
  900MOL0     H24148   1.780   9.041   8.864  1.8493 -0.8618 -0.6197
  900MOL0     H24149   1.752   8.677   8.803  1.3593  3.3874 -1.3470
  900MOL0     H24150   1.743   8.451   8.968 -0.3468 -0.4476  0.0176
  900MOL0     H24151   1.693   8.480   9.130 -0.3341  2.0183  0.7326
  900MOL0     H24152   1.989   8.532   9.019 -1.4991  1.7381 -1.9907
  900MOL0     H24153   1.945   8.537   9.195  0.6309 -0.4719 -0.0588
  900MOL0     H24154   1.881   8.303   9.189 -1.1157  3.4727  2.0068
  900MOL0     H24155   1.926   8.288   9.037 -2.5007 -1.4814  3.1692
  900MOL0     H24156   2.160   8.368   9.068  0.0285 -3.0792 -1.7795
  900MOL0     H24157   2.128   8.405   9.245  2.4374 -3.5382  1.1367
  900MOL0     H24158   2.187   7.963   9.236  0.4232  1.9065 -0.8849
  900MOL0     H24159   2.299   7.837   9.527  0.2172  2.8498  1.5531
  900MOL0     H24160   2.274   7.804   9.357 -1.0189  0.4148  0.5190
  900MOL0     H24161   2.156   7.747   9.487  0.2507  0.2790  0.0201
  900MOL0     H24162   2.302   8.012   9.961  1.0293  0.9166 -0.0121
  900MOL0     H24163   2.273   7.943  10.202  1.2051  3.4000 -0.5983
  900MOL0     H24164   2.203   7.784  10.369  0.2561  1.1434 -1.7154
  900MOL0     H24165   2.173   7.949  10.444 -4.3332  1.4602 -0.6855
  900MOL0     H24166   1.989   7.851  10.581  2.1577  1.6134  2.6757
  900MOL0     H24167   2.027   7.689  10.520 -1.2707 -0.1460  0.0747
  900MOL0     H24168   2.190   7.900  10.679  1.5225  0.1646 -0.0748
  900MOL0     H24169   2.270   7.779  10.592 -1.0063 -1.2451 -0.8720
  900MOL0     H24170   2.127   7.616  10.734  0.0667 -1.1762  1.8738
  900MOL0     H24171   2.039   7.727  10.799  0.8551 -0.8977 -0.8580
  900MOL0     H24172   2.252   7.868  10.886  0.2087  0.5286 -2.1690
  900MOL0     H24173   2.198   7.726  10.973  0.1554  1.2021 -0.4917
  900MOL0     H24174   2.427   7.751  10.762  0.3882 -0.7210 -1.4206
  900MOL0     H24175   2.360   7.596  10.792  1.6422  0.7555 -0.9655
  900MOL0     H24176   2.541   7.757  10.967 -1.5323  1.3294  5.1630
  900MOL0     H24177   2.530   7.579  10.936 -0.6947  1.3328  0.2379
  900MOL0     H24178   2.355   7.554  11.073 -1.0729 -0.4497  0.1502
  900MOL0     H24179   2.348   7.714  11.127 -0.1922 -2.1001 -1.9656
  900MOL0     H24180   1.852   7.905  10.111 -0.5899  1.8583 -3.2965
  900MOL0     H24181   1.888   7.970   9.898 -1.0727  0.1280  2.3557
  900MOL0     H24182   2.018   8.204   9.641  1.3731 -0.4600  1.1053
  900MOL0     H24183   2.024   8.320   9.416  1.7563  0.2384  0.9620
  900MOL0     H24184   1.017   9.534   9.357 -0.3333 -0.7259  0.7968
  900MOL0     H24185   0.827   9.689   9.296  1.5608  0.2624  0.4466
  900MOL0     H24186   0.430   9.748   9.116  1.4961 -1.4187  0.0316
  900MOL0     H24187   0.223   9.858   8.996  1.5479  2.1690  1.0934
  900MOL0     H24188   0.239  10.036   8.618 -4.1300  2.0324  2.5608
  900MOL0     H24189   0.196   9.866   8.562  1.2565 -1.9660  0.4117
  900MOL0     H24190  -0.042   9.915   8.653  0.8837 -0.9094 -1.9407
  900MOL0     H24191   0.016  10.028   8.525 -1.1832  0.3740  0.5284
  900MOL0     H24192  -0.116  10.136   8.684 -0.0381  1.0447 -0.6438
  900MOL0     H24193  -0.023  10.081   8.823  1.4034 -2.8138 -1.1605
  900MOL0     H24194   0.104  10.250   8.591 -2.9491 -2.4886 -0.6477
  900MOL0     H24195   0.166  10.223   8.754 -1.0314 -1.4232  1.1209
  900MOL0     H24196  -0.112  10.511   8.870 -0.5870  0.8915 -2.7052
  900MOL0     H24197   0.417   9.850   8.628 -3.5637  1.4928 -0.1027
  900MOL0     H24198   0.746   9.788   8.732 -0.9973 -1.3403  2.8889
  900MOL0     H24199   0.652   9.641   8.697 -0.3412  0.4722  1.2127
  900MOL0     H24200   0.630   9.786   8.594  0.7109  1.4451  0.2410
  901MOL0     O24201   6.874  10.280   5.661  0.1103 -0.3497  0.0196
  901MOL0     C24202   6.754  10.247   5.627  0.2403  0.5945  0.3371
  901MOL0     O24203   6.641  10.317   5.662 -0.5222  0.7707  0.5191
  901MOL0     C24204   6.642  10.375   5.778 -0.2862 -0.6384 -0.0036
  901MOL0     C24205   6.703  10.341   5.894  0.2216  0.3654 -0.0255
  901MOL0     C24206   6.670  10.399   6.019 -0.3002 -0.8098 -0.2596
  901MOL0     C24207   6.573  10.505   6.035  0.4224  0.2127  0.4251
  901MOL0     O24208   6.532  10.561   6.145  0.0429  0.5045 -0.6191
  901MOL0     C24209   6.513  10.484   6.267 -0.0604  0.3162  0.4829
  901MOL0     C24210   6.504  10.592   6.375  0.6049 -0.1952 -0.0643
  901MOL0     C24211   6.359  10.643   6.383  0.5842  0.0800  1.1131
  901MOL0     C24212   6.300  10.625   6.520 -0.1729 -0.8040 -0.0804
  901MOL0     C24213   6.151  10.602   6.511 -0.1233 -0.0555  0.6773
  901MOL0     C24214   6.075  10.635   6.642 -0.1171  0.3508  0.1178
  901MOL0     C24215   5.920  10.608   6.625 -0.0418 -0.7470 -0.6231
  901MOL0     C24216   5.840  10.698   6.720 -0.0832 -0.7505  0.0439
  901MOL0     N24217   5.695  10.700   6.692 -0.5996  0.3829  0.4031
  901MOL0     C24218   5.610  10.622   6.755 -0.0524  0.6642 -0.2569
  901MOL0     C24219   5.489  10.654   6.702  0.2911 -0.3966  0.4164
  901MOL0     C24220   5.357  10.598   6.737 -0.6199 -0.2590  0.1747
  901MOL0     C24221   5.352  10.444   6.726 -0.9419  0.4404 -0.0693
  901MOL0     C24222   5.213  10.387   6.703 -0.3386 -0.0072  0.2762
  901MOL0     C24223   5.169  10.398   6.554  0.0276 -0.5059  0.3749
  901MOL0     O24224   5.238  10.315   6.464  0.5844  0.0119 -0.4419
  901MOL0     C24225   5.203  10.317   6.328  0.8324  0.5810  0.8131
  901MOL0     C24226   5.194  10.195   6.261 -0.4732  0.3721 -1.2656
  901MOL0     C24227   5.158  10.188   6.124 -0.7334  0.0917 -0.2977
  901MOL0     C24228   5.133  10.057   6.067 -0.6397  0.3564  0.2292
  901MOL0     C24229   5.143  10.310   6.057  0.1500 -0.3009 -0.5924
  901MOL0     C24230   5.111  10.321   5.914  0.1196 -0.2899 -0.8032
  901MOL0     O24231   5.143  10.435   5.857  0.3938 -0.2446 -0.0329
  901MOL0     C24232   5.099  10.460   5.731  0.5053  0.0656  0.8233
  901MOL0     C24233   5.168  10.411   5.623 -0.3822  0.3357 -0.3919
  901MOL0     C24234   5.140  10.444   5.494  1.0126 -0.0267  0.7114
  901MOL0     C24235   5.022  10.521   5.472  0.2457  0.3833 -0.3004
  901MOL0     O24236   4.975  10.536   5.347  0.1335  0.3079  0.2443
  901MOL0     C24237   4.892  10.437   5.297 -0.0676  0.9100  0.3844
  901MOL0     C24238   4.845  10.463   5.156  0.1938 -0.3281  0.0168
  901MOL0     C24239   4.756  10.348   5.101 -0.6981 -0.5648  0.1465
  901MOL0     C24240   4.714  10.399   4.963  0.4121 -0.2123  0.5856
  901MOL0     C24241   4.609  10.296   4.910 -0.4409 -0.2119 -0.1870
  901MOL0     C24242   4.567  10.333   4.762  0.0736  0.2988 -0.0819
  901MOL0     C24243   4.481  10.217   4.692 -0.3777 -0.2655  0.5295
  901MOL0     C24244   4.358  10.177   4.772  1.8296  0.3637 -0.6805
  901MOL0    Cl24245   4.261  10.313   4.830  0.0478  0.7928 -0.0937
  901MOL0     C24246   4.947  10.573   5.577  0.9041  0.0599  0.5803
  901MOL0     C24247   4.986  10.546   5.709 -0.2310  0.5736  0.2984
  901MOL0     O24248   5.047  10.230   5.853  0.2178  0.2002  0.2613
  901MOL0     C24249   5.155  10.435   6.124 -0.5095 -0.9172  0.5408
  901MOL0     C24250   5.186  10.434   6.259 -1.1735  0.2906  0.1591
  901MOL0     N24251   5.511  10.762   6.613 -0.3676  0.0966 -0.5688
  901MOL0     N24252   5.641  10.775   6.587  0.3385  0.2353 -0.7748
  901MOL0     C24253   6.505  10.535   5.916  0.6394 -0.3873  0.5297
  901MOL0     C24254   6.548  10.483   5.792  0.0230 -0.9153  0.6425
  901MOL0     C24255   6.743  10.126   5.538 -0.6219  0.7519 -0.5549
  901MOL0     C24256   6.646  10.121   5.439 -0.0749 -0.5138  0.1745
  901MOL0     C24257   6.639  10.022   5.340  0.0386  0.9144  0.0842
  901MOL0     C24258   6.729   9.913   5.349  0.2540  0.9172  0.1240
  901MOL0     O24259   6.720   9.797   5.269 -1.1540  1.2456 -0.4554
  901MOL0     C24260   6.613   9.768   5.184  0.1593  0.1426  0.2813
  901MOL0     C24261   6.481   9.747   5.256  0.1792  0.9044 -0.3589
  901MOL0     C24262   6.485   9.643   5.373  0.0158  0.6062 -0.1077
  901MOL0     C24263   6.495   9.503   5.313  0.4318  0.0634 -0.1092
  901MOL0     C24264   6.519   9.414   5.428  0.1342 -0.6577 -0.5497
  901MOL0     C24265   6.539   9.354   5.533  0.5432 -0.1176 -0.3177
  901MOL0     C24266   6.830   9.916   5.443 -0.6582  0.9801 -0.2844
  901MOL0     C24267   6.832  10.018   5.542 -0.5362  0.0522  0.1526
  901MOL0     C24268   6.940  10.002   5.640 -0.4632 -0.2518  0.1767
  901MOL0     H24269   6.776  10.261   5.895 -1.1889 -0.9566  0.0832
  901MOL0     H24270   6.722  10.363   6.108  1.6544  2.4596  0.0807
  901MOL0     H24271   6.593  10.413   6.289 -0.6661 -0.8076 -0.8341
  901MOL0     H24272   6.420  10.428   6.276  0.2834 -0.6477 -1.5022
  901MOL0     H24273   6.536  10.555   6.473  1.6468 -1.0915 -0.7163
  901MOL0     H24274   6.563  10.683   6.356 -1.2325  1.4556  1.6535
  901MOL0     H24275   6.357  10.750   6.361  0.7704 -0.6673 -3.4080
  901MOL0     H24276   6.307  10.616   6.291  2.1749 -1.0648  0.5180
  901MOL0     H24277   6.345  10.542   6.575 -2.6148 -2.8149 -0.9383
  901MOL0     H24278   6.320  10.720   6.570 -2.6766  1.0683 -2.3214
  901MOL0     H24279   6.139  10.497   6.483  2.5308  0.2860 -2.1528
  901MOL0     H24280   6.106  10.654   6.426  0.8946 -1.3887 -0.7279
  901MOL0     H24281   6.109  10.584   6.733 -2.9036  0.6294  1.4171
  901MOL0     H24282   6.091  10.740   6.669  0.9557  0.0852  0.5498
  901MOL0     H24283   5.911  10.499   6.623  1.7696 -0.9586  0.8089
  901MOL0     H24284   5.885  10.654   6.532  0.5431  3.0044  0.8565
  901MOL0     H24285   5.862  10.695   6.827 -0.7527  1.0560  0.2682
  901MOL0     H24286   5.872  10.798   6.690  1.0698 -1.1544 -0.1230
  901MOL0     H24287   5.629  10.550   6.835 -2.9791 -0.3440 -0.3428
  901MOL0     H24288   5.281  10.650   6.677 -3.0518 -0.1973  3.0782
  901MOL0     H24289   5.340  10.627   6.841 -3.0371  1.7624 -0.6875
  901MOL0     H24290   5.412  10.410   6.641  0.5921  2.5519  0.0793
  901MOL0     H24291   5.400  10.384   6.804 -1.6318  1.6546  1.3279
  901MOL0     H24292   5.208  10.282   6.735  1.0868 -1.3711 -3.3512
  901MOL0     H24293   5.142  10.435   6.770 -2.1165 -0.4733 -1.1759
  901MOL0     H24294   5.061  10.386   6.546 -0.0353 -1.6819  2.4959
  901MOL0     H24295   5.191  10.499   6.519  1.4207 -0.5431  1.0894
  901MOL0     H24296   5.215  10.102   6.313  0.8808  1.1312 -0.3920
  901MOL0     H24297   5.190  10.058   5.973  1.3468 -2.0758  1.2772
  901MOL0     H24298   5.026  10.039   6.062 -0.1441 -3.0921 -0.1898
  901MOL0     H24299   5.169   9.968   6.120 -1.3595  0.1710  0.4093
  901MOL0     H24300   5.255  10.349   5.646 -1.3820  0.5125  5.3017
  901MOL0     H24301   5.197  10.404   5.410  0.6373  0.2073  0.3398
  901MOL0     H24302   4.955  10.348   5.288 -3.6393 -1.7883 -0.3895
  901MOL0     H24303   4.803  10.405   5.353  1.8314  0.1844  3.1665
  901MOL0     H24304   4.794  10.560   5.161  1.8128  0.8865 -3.6715
  901MOL0     H24305   4.929  10.481   5.088  1.1818  1.9718  1.7059
  901MOL0     H24306   4.667  10.338   5.165 -2.3974  0.1156 -1.9871
  901MOL0     H24307   4.820  10.260   5.103 -2.0784 -1.6331 -0.7689
  901MOL0     H24308   4.803  10.403   4.899 -1.6212  0.3904 -2.4321
  901MOL0     H24309   4.673  10.500   4.965 -1.3104 -0.8707  0.8188
  901MOL0     H24310   4.645  10.193   4.906  2.0217  0.5758 -0.4525
  901MOL0     H24311   4.521  10.295   4.975 -0.5835  1.4443 -0.2926
  901MOL0     H24312   4.659  10.331   4.702  0.7338 -0.1413  0.9111
  901MOL0     H24313   4.525  10.434   4.759 -2.3974 -0.6824 -1.0790
  901MOL0     H24314   4.561  10.143   4.685  2.5766  2.7620 -0.7089
  901MOL0     H24315   4.458  10.249   4.590 -1.4417  4.6391  2.0489
  901MOL0     H24316   4.388  10.118   4.860 -0.1379  2.4394  1.5239
  901MOL0     H24317   4.298  10.107   4.713  1.0065  1.4494 -1.1485
  901MOL0     H24318   4.858  10.634   5.565  1.4089  0.6583 -0.1309
  901MOL0     H24319   4.928  10.589   5.790  0.6799 -0.7022  1.6626
  901MOL0     H24320   5.135  10.530   6.077  0.5838  0.0769  1.9876
  901MOL0     H24321   5.180  10.538   6.292 -3.1862  0.7431 -1.4256
  901MOL0     H24322   6.416  10.598   5.917  1.9586  1.5324  1.4565
  901MOL0     H24323   6.491  10.520   5.707 -0.9242 -1.1972  1.1467
  901MOL0     H24324   6.569  10.197   5.430  0.1358 -0.4023 -0.7933
  901MOL0     H24325   6.550  10.014   5.278 -1.4052 -1.9074  2.2670
  901MOL0     H24326   6.599   9.856   5.121 -1.4508  0.0651  0.4717
  901MOL0     H24327   6.623   9.688   5.110 -1.5789  0.1884 -0.0490
  901MOL0     H24328   6.410   9.715   5.180  1.1533 -1.3091 -0.4169
  901MOL0     H24329   6.445   9.840   5.301 -0.3991  0.4043  0.2242
  901MOL0     H24330   6.565   9.664   5.444 -1.0376 -0.1408  1.3571
  901MOL0     H24331   6.393   9.633   5.432  0.1840  1.0668  0.2424
  901MOL0     H24332   6.578   9.484   5.244  1.1087 -0.7705  0.8970
  901MOL0     H24333   6.403   9.480   5.259  1.6261 -1.9688 -1.4713
  901MOL0     H24334   6.560   9.297   5.621 -3.7683  1.7621  2.2216
  901MOL0     H24335   6.904   9.835   5.444  1.2231  2.6319  0.4814
  901MOL0     H24336   6.909  10.033   5.740 -0.7202  3.6539 -0.9061
  901MOL0     H24337   6.967   9.897   5.645  0.7013 -0.0957 -1.8383
  901MOL0     H24338   7.027  10.062   5.612 -1.7557  1.3980 -0.5704
  902MOL0     O24339  10.010   4.642   8.342 -0.1049  0.0866  0.4428
  902MOL0     C24340  10.053   4.531   8.317  0.6337 -0.3003 -0.7629
  902MOL0     O24341   9.986   4.427   8.254  0.2643  0.1784 -0.4714
  902MOL0     C24342   9.859   4.450   8.198 -1.1983  0.7386  0.4750
  902MOL0     C24343   9.849   4.469   8.062  0.9370  2.1402 -0.5219
  902MOL0     C24344   9.724   4.489   8.013 -0.2882 -0.5580 -0.7398
  902MOL0     C24345   9.605   4.475   8.091 -0.2800 -0.4299  0.5549
  902MOL0     O24346   9.490   4.509   8.030  0.3497  0.5083 -1.6549
  902MOL0     C24347   9.359   4.514   8.110 -0.0063  0.5517  0.2890
  902MOL0     C24348   9.259   4.606   8.033  0.0415  0.4765  0.0563
  902MOL0     C24349   9.233   4.749   8.096 -0.1290  0.8266 -0.1470
  902MOL0     C24350   9.115   4.810   8.024  0.5545 -0.2037 -0.5874
  902MOL0     C24351   9.160   4.885   7.900 -0.2082 -0.6837 -0.6047
  902MOL0     C24352   9.215   5.016   7.964  0.0325  0.5475 -0.0135
  902MOL0     C24353   9.337   5.075   7.892  0.4552 -0.5518  0.2568
  902MOL0     C24354   9.451   5.118   7.989 -0.1610 -0.1106  0.5955
  902MOL0     N24355   9.571   5.181   7.925  0.8849  0.1645 -0.0640
  902MOL0     C24356   9.651   5.126   7.819  0.3461  0.5389 -0.7696
  902MOL0     C24357   9.764   5.203   7.815  0.1303  0.6766 -0.4234
  902MOL0     C24358   9.875   5.181   7.721  0.7689  0.4121 -0.1706
  902MOL0     C24359   9.899   5.276   7.606 -0.1866  0.4424 -0.4309
  902MOL0     C24360   9.773   5.313   7.518  0.0792  0.9082  0.5637
  902MOL0     C24361   9.805   5.405   7.402 -0.6434 -0.4907  0.3133
  902MOL0     O24362   9.901   5.327   7.317  0.1737  0.2389  0.3502
  902MOL0     C24363   9.870   5.286   7.186  0.0774  0.1343  0.8213
  902MOL0     C24364   9.971   5.219   7.112 -0.1382 -0.6324  0.4690
  902MOL0     C24365   9.943   5.158   6.988 -0.6624  1.3931  0.2592
  902MOL0     C24366  10.054   5.064   6.943 -0.3574 -0.7610  0.2200
  902MOL0     C24367   9.816   5.181   6.921  0.1675  0.1343  0.7010
  902MOL0     C24368   9.776   5.118   6.797  0.5023 -0.0209 -1.8217
  902MOL0     O24369   9.661   5.176   6.743 -0.0552 -0.2449 -0.0678
  902MOL0     C24370   9.614   5.123   6.628  0.1580  0.1136  0.1861
  902MOL0     C24371   9.677   5.059   6.514 -0.3606 -0.9575 -0.0410
  902MOL0     C24372   9.597   5.034   6.401 -0.6795 -0.2033  0.8846
  902MOL0     C24373   9.465   5.055   6.390  0.0632  0.3680 -0.7398
  902MOL0     O24374   9.383   4.998   6.298 -0.2053 -0.0330 -0.7469
  902MOL0     C24375   9.423   4.889   6.210  0.1231  0.1257 -0.1524
  902MOL0     C24376   9.312   4.853   6.117 -0.6909  0.5656  0.4124
  902MOL0     C24377   9.360   4.730   6.041  0.4854  0.0676  0.4193
  902MOL0     C24378   9.248   4.658   5.966 -0.8936 -0.4623 -0.0855
  902MOL0     C24379   9.303   4.549   5.872  0.7417  1.0061  0.7563
  902MOL0     C24380   9.218   4.424   5.879 -0.1342 -0.4602  0.8268
  902MOL0     C24381   9.242   4.335   5.764  0.3895  0.4408 -0.4804
  902MOL0     C24382   9.176   4.196   5.782 -0.5546 -0.5321  0.3277
  902MOL0    Cl24383   9.172   4.119   5.634  0.1529 -0.0595 -0.0407
  902MOL0     C24384   9.403   5.120   6.492 -0.7181 -1.0351  0.6382
  902MOL0     C24385   9.482   5.157   6.608  0.1969 -0.0951  0.4915
  902MOL0     O24386   9.828   5.008   6.765  0.1830 -0.5494 -0.2401
  902MOL0     C24387   9.724   5.268   6.983  0.2604 -0.1836  0.2002
  902MOL0     C24388   9.754   5.309   7.115  0.0370 -0.2448 -0.4333
  902MOL0     N24389   9.759   5.287   7.923 -0.3969 -0.4808 -0.0780
  902MOL0     N24390   9.644   5.279   7.977 -0.1043  0.0323  0.0337
  902MOL0     C24391   9.619   4.447   8.222 -1.0061  0.0085  0.2175
  902MOL0     C24392   9.743   4.444   8.279 -0.0948  0.0556  1.6186
  902MOL0     C24393  10.191   4.496   8.368 -0.1847 -0.7482 -0.6459
  902MOL0     C24394  10.294   4.595   8.368 -0.1915  0.1969 -0.2627
  902MOL0     C24395  10.423   4.567   8.398  0.5367 -0.5060  0.2802
  902MOL0     C24396  10.448   4.450   8.458  0.4901 -0.1820  0.5100
  902MOL0     O24397  10.572   4.432   8.515  0.6680  0.5856  0.4195
  902MOL0     C24398  10.561   4.456   8.656  0.1492 -0.3563  0.1048
  902MOL0     C24399  10.687   4.429   8.738 -0.7731 -0.1313  0.0797
  902MOL0     C24400  10.800   4.515   8.686  0.6563  0.1577  0.7733
  902MOL0     C24401  10.811   4.644   8.770  0.3815  0.8462  0.6761
  902MOL0     C24402  10.880   4.626   8.904  0.5525 -0.0991 -0.2995
  902MOL0     C24403  10.925   4.622   9.020 -0.0456 -0.2451 -1.0269
  902MOL0     C24404  10.348   4.344   8.456 -0.5616  0.4023 -0.1071
  902MOL0     C24405  10.223   4.367   8.413 -0.2587 -0.0939 -0.4801
  902MOL0     C24406  10.122   4.253   8.419 -0.3657  0.6930  0.2292
  902MOL0     H24407   9.936   4.483   7.998  2.0962 -0.4551  0.3641
  902MOL0     H24408   9.720   4.506   7.905  1.2224 -2.2257 -1.1142
  902MOL0     H24409   9.381   4.548   8.212 -0.1655 -0.8875  0.8200
  902MOL0     H24410   9.308   4.419   8.127 -1.0598  1.3648  1.9373
  902MOL0     H24411   9.290   4.614   7.928  1.2354  0.6406  0.4068
  902MOL0     H24412   9.164   4.555   8.020  0.0675  0.9042 -2.3630
  902MOL0     H24413   9.224   4.733   8.204  1.3002 -0.9977 -0.2607
  902MOL0     H24414   9.325   4.808   8.086  1.0917 -1.1777 -1.2673
  902MOL0     H24415   9.036   4.738   8.001  1.5930 -1.3195 -0.7321
  902MOL0     H24416   9.058   4.882   8.084 -2.1730  1.0377 -4.3170
  902MOL0     H24417   9.086   4.908   7.822  1.3727  0.2869 -1.8881
  902MOL0     H24418   9.234   4.819   7.855  2.9055 -0.7938  4.0153
  902MOL0     H24419   9.133   5.088   7.967 -1.3508 -0.8504 -1.8317
  902MOL0     H24420   9.247   5.009   8.069  3.6233  2.2384 -0.8468
  902MOL0     H24421   9.293   5.160   7.839 -2.3454 -1.7492  0.5097
  902MOL0     H24422   9.377   5.009   7.813 -3.3802 -3.4056  0.4146
  902MOL0     H24423   9.413   5.177   8.073  1.7305 -1.4991  2.5551
  902MOL0     H24424   9.494   5.027   8.032  1.1603 -0.0979 -0.6442
  902MOL0     H24425   9.623   5.044   7.754  0.3339 -1.4794  1.6163
  902MOL0     H24426   9.874   5.080   7.679 -4.8111  0.3132 -0.5855
  902MOL0     H24427   9.965   5.195   7.782  0.1201  4.1210  0.1727
  902MOL0     H24428   9.933   5.365   7.660 -0.1584 -0.4966  1.1865
  902MOL0     H24429   9.990   5.247   7.553  1.3730 -1.2447  2.8646
  902MOL0     H24430   9.754   5.214   7.474  3.5397  0.2558  0.2370
  902MOL0     H24431   9.694   5.352   7.583 -1.9628 -0.3057 -1.0488
  902MOL0     H24432   9.713   5.429   7.347 -1.0874 -0.7148  0.9451
  902MOL0     H24433   9.856   5.491   7.447  2.6287 -2.5334  0.8190
  902MOL0     H24434  10.065   5.191   7.159  0.2503  0.0911  0.1452
  902MOL0     H24435  10.148   5.099   6.985 -0.0655 -1.4268  0.1317
  902MOL0     H24436  10.069   5.060   6.835  2.8767 -0.5204  0.5905
  902MOL0     H24437  10.039   4.963   6.983  2.5469 -1.4947 -0.3445
  902MOL0     H24438   9.779   5.021   6.514  0.4941  1.0504 -2.5326
  902MOL0     H24439   9.646   4.996   6.312  1.8629  0.5048  1.8750
  902MOL0     H24440   9.501   4.917   6.139  0.3540 -0.1970 -0.0284
  902MOL0     H24441   9.442   4.799   6.270 -4.4957  1.3187  3.7764
  902MOL0     H24442   9.218   4.841   6.172  0.9494 -0.9629  3.1084
  902MOL0     H24443   9.303   4.931   6.041 -0.6341 -0.6993 -0.9241
  902MOL0     H24444   9.380   4.657   6.120  2.6228 -0.1493 -0.2500
  902MOL0     H24445   9.445   4.748   5.975 -1.7920 -1.4755 -3.3495
  902MOL0     H24446   9.190   4.727   5.905  1.2153  0.1061 -1.5769
  902MOL0     H24447   9.181   4.611   6.039 -1.4552 -0.0768 -0.3474
  902MOL0     H24448   9.305   4.584   5.768 -2.1465  0.9827  0.6070
  902MOL0     H24449   9.400   4.523   5.915  0.2781 -0.5689  0.9343
  902MOL0     H24450   9.112   4.451   5.885 -0.0905 -0.0201 -0.2575
  902MOL0     H24451   9.231   4.366   5.971  0.4785 -0.0277  1.0198
  902MOL0     H24452   9.350   4.315   5.763 -0.0750 -2.6533 -0.4969
  902MOL0     H24453   9.207   4.381   5.671 -0.9406 -4.3683 -2.6750
  902MOL0     H24454   9.076   4.218   5.822 -0.4676  2.8517 -1.0171
  902MOL0     H24455   9.240   4.131   5.843  1.2176  1.0394  0.2052
  902MOL0     H24456   9.298   5.143   6.480 -0.3218  0.8384  0.3567
  902MOL0     H24457   9.428   5.228   6.671  0.8290  0.6100  0.2499
  902MOL0     H24458   9.626   5.293   6.943 -1.5792 -0.1713  4.2771
  902MOL0     H24459   9.673   5.368   7.156 -1.5120 -2.5233 -0.0235
  902MOL0     H24460   9.536   4.424   8.287 -2.1886 -1.6438 -1.7251
  902MOL0     H24461   9.747   4.417   8.384 -0.0469 -0.3008  1.5271
  902MOL0     H24462  10.267   4.695   8.336 -1.3247  0.6675  1.9670
  902MOL0     H24463  10.511   4.630   8.386 -0.1861  0.4253 -0.2740
  902MOL0     H24464  10.533   4.562   8.660  0.0915 -0.3763  0.2502
  902MOL0     H24465  10.478   4.412   8.713 -1.2688  2.9636  0.8865
  902MOL0     H24466  10.717   4.323   8.738 -0.5128 -0.0574  0.0375
  902MOL0     H24467  10.670   4.453   8.843 -1.9390  0.4876 -0.2327
  902MOL0     H24468  10.896   4.463   8.681  0.2863 -0.4556 -0.3347
  902MOL0     H24469  10.782   4.538   8.580  3.6280  1.8271  0.5240
  902MOL0     H24470  10.707   4.677   8.782  1.1078  3.4271  0.4304
  902MOL0     H24471  10.859   4.723   8.711 -0.2743  0.7997  0.0601
  902MOL0     H24472  10.976   4.612   9.114 -0.6981  1.9509 -0.3892
  902MOL0     H24473  10.389   4.248   8.486  2.7815  1.6736 -0.1723
  902MOL0     H24474  10.037   4.293   8.475 -0.0935 -0.9274  1.9010
  902MOL0     H24475  10.087   4.238   8.317 -0.8265 -0.1319  0.5039
  902MOL0     H24476  10.153   4.161   8.470 -3.6879  0.2996  1.7904
  903MOL0     O24477   2.146   9.859  10.151  0.4919 -0.6745 -0.0918
  903MOL0     C24478   2.265   9.810  10.155  0.1096  1.1818 -1.0396
  903MOL0     O24479   2.359   9.821  10.057 -0.7498 -0.1724 -0.0110
  903MOL0     C24480   2.326   9.887   9.944  0.2397  0.6566  0.4040
  903MOL0     C24481   2.384   9.819   9.839 -0.1961  0.5795 -0.3793
  903MOL0     C24482   2.363   9.856   9.706  0.2860 -0.2914 -0.5679
  903MOL0     C24483   2.300   9.979   9.676 -0.5037  0.4491  0.0140
  903MOL0     O24484   2.287  10.025   9.549  0.6342 -0.1467 -0.0152
  903MOL0     C24485   2.203   9.962   9.455  0.4026  0.5055  0.3607
  903MOL0     C24486   2.163  10.035   9.324 -0.1410  1.0283  0.2542
  903MOL0     C24487   2.078  10.163   9.355 -0.0531  0.3151 -0.2496
  903MOL0     C24488   2.080  10.261   9.237 -0.1726  0.1494  0.3582
  903MOL0     C24489   1.983  10.368   9.265  0.4274  0.1409 -0.6847
  903MOL0     C24490   1.833  10.341   9.233 -0.4139  0.7638  1.0560
  903MOL0     C24491   1.753  10.471   9.250  0.1791  0.7407  0.3122
  903MOL0     C24492   1.603  10.447   9.251  0.2698 -0.0651  0.8802
  903MOL0     N24493   1.552  10.448   9.391 -0.6124  0.4099 -0.2148
  903MOL0     C24494   1.542  10.558   9.475  0.1664  0.0213  0.9127
  903MOL0     C24495   1.493  10.499   9.584 -0.6099  0.5804  0.5956
  903MOL0     C24496   1.461  10.588   9.707  0.4540 -1.0841 -1.2252
  903MOL0     C24497   1.365  10.521   9.808 -0.4547  0.2329  0.5362
  903MOL0     C24498   1.439  10.440   9.912 -0.3987  0.1707 -0.9365
  903MOL0     C24499   1.334  10.383  10.010 -0.6373 -0.3205 -0.5226
  903MOL0     O24500   1.266  10.477  10.080 -0.3603 -0.2425  0.1217
  903MOL0     C24501   1.316  10.540  10.189 -0.5373  0.2802 -0.3702
  903MOL0     C24502   1.423  10.492  10.274  1.2513  0.3116  0.6049
  903MOL0     C24503   1.473  10.567  10.381  0.2048  0.3602  0.1243
  903MOL0     C24504   1.569  10.505  10.485  0.1169  0.4818 -0.7516
  903MOL0     C24505   1.413  10.696  10.402  0.0174 -0.5995  0.9899
  903MOL0     C24506   1.444  10.779  10.522  0.3232  0.1711 -0.0474
  903MOL0     O24507   1.367  10.885  10.545  0.0498  1.0740 -0.5769
  903MOL0     C24508   1.411  10.965  10.650  0.3535 -0.5035 -0.3649
  903MOL0     C24509   1.511  11.062  10.630 -0.4589 -0.5915  0.6148
  903MOL0     C24510   1.560  11.134  10.734 -1.5659 -0.0473 -0.3999
  903MOL0     C24511   1.523  11.116  10.858  0.4421  0.4128  0.5840
  903MOL0     O24512   1.590  11.184  10.956 -1.1056  0.0619 -0.2328
  903MOL0     C24513   1.700  11.121  11.017  0.2407  0.6191  0.9793
  903MOL0     C24514   1.707  11.115  11.163  1.0386 -0.7665 -0.7501
  903MOL0     C24515   1.683  11.250  11.231  0.6916  0.2411  1.1129
  903MOL0     C24516   1.613  11.244  11.367 -0.4571  0.5176  0.2693
  903MOL0     C24517   1.552  11.392  11.408  0.0518  1.1615 -0.4016
  903MOL0     C24518   1.427  11.418  11.317  0.8102 -0.5404 -0.4103
  903MOL0     C24519   1.340  11.518  11.386  0.6404  0.0284 -0.9776
  903MOL0     C24520   1.423  11.650  11.408 -0.6532 -0.3796 -0.3584
  903MOL0    Cl24521   1.317  11.781  11.367  0.3169 -0.3070 -0.0610
  903MOL0     C24522   1.420  11.038  10.882  0.5744  0.4256 -0.4528
  903MOL0     C24523   1.366  10.953  10.783 -0.1845  0.5755 -0.5063
  903MOL0     O24524   1.527  10.734  10.602  0.3724 -0.3876 -0.4040
  903MOL0     C24525   1.323  10.753  10.313 -0.6615  0.8277 -0.2437
  903MOL0     C24526   1.268  10.674  10.212 -0.0102 -0.0055  0.8479
  903MOL0     N24527   1.480  10.366   9.577  0.3448  0.2573  0.4374
  903MOL0     N24528   1.508  10.336   9.460 -0.2169 -0.1140 -0.6154
  903MOL0     C24529   2.245  10.056   9.782 -0.2470  0.5160 -0.5604
  903MOL0     C24530   2.270  10.017   9.916 -0.0337 -0.1958 -0.2486
  903MOL0     C24531   2.321   9.729  10.270  0.1649  0.0598 -0.9074
  903MOL0     C24532   2.450   9.665  10.260  0.5705  0.0000 -0.9326
  903MOL0     C24533   2.508   9.591  10.362  0.4594 -0.6968  0.2982
  903MOL0     C24534   2.439   9.573  10.486  0.3124 -0.2977  0.6138
  903MOL0     O24535   2.506   9.510  10.586  0.0016 -0.1632 -0.2078
  903MOL0     C24536   2.432   9.495  10.710 -0.0303 -0.4472  0.7203
  903MOL0     C24537   2.517   9.408  10.801 -0.5670 -0.0082  0.2695
  903MOL0     C24538   2.656   9.474  10.821 -0.1678 -0.0853  0.2508
  903MOL0     C24539   2.733   9.391  10.923  0.7031  0.0803  0.0551
  903MOL0     C24540   2.666   9.364  11.046 -0.7215 -0.6759 -0.3553
  903MOL0     C24541   2.613   9.349  11.153  0.0597  0.5531 -0.4674
  903MOL0     C24542   2.307   9.625  10.490 -0.4911 -0.1656  0.8562
  903MOL0     C24543   2.249   9.702  10.388  0.1720 -0.6363 -0.4081
  903MOL0     C24544   2.117   9.773  10.414  0.0161 -0.0819  0.3987
  903MOL0     H24545   2.443   9.731   9.863 -1.1393  0.7546  3.2016
  903MOL0     H24546   2.399   9.821   9.610  2.5183  0.9538 -0.2314
  903MOL0     H24547   2.105   9.936   9.495 -0.7014 -0.0146 -2.4805
  903MOL0     H24548   2.264   9.874   9.433  0.1921 -0.3012  2.7440
  903MOL0     H24549   2.256  10.048   9.268  0.0528 -1.7969 -0.2445
  903MOL0     H24550   2.099   9.963   9.271 -2.5712  0.4591  3.5948
  903MOL0     H24551   1.974  10.134   9.368 -0.3303  1.2663 -0.2899
  903MOL0     H24552   2.099  10.219   9.447  0.6748  1.4919 -1.1041
  903MOL0     H24553   2.179  10.307   9.238 -0.0027 -0.0464 -2.1172
  903MOL0     H24554   2.053  10.211   9.144 -2.7242  3.0794 -0.6754
  903MOL0     H24555   2.007  10.465   9.220 -2.6991  1.2201 -0.2252
  903MOL0     H24556   1.991  10.403   9.368  1.4303  2.6177 -1.5167
  903MOL0     H24557   1.808  10.306   9.133 -1.0501  0.3847  1.3385
  903MOL0     H24558   1.800  10.270   9.310  1.2133 -2.3682 -0.9077
  903MOL0     H24559   1.767  10.526   9.156 -1.5972  1.3084  0.3434
  903MOL0     H24560   1.791  10.537   9.328  2.7025 -0.3393  0.1116
  903MOL0     H24561   1.561  10.541   9.214 -0.0714 -0.7705 -0.6028
  903MOL0     H24562   1.575  10.360   9.191  3.3939 -0.9366  0.4742
  903MOL0     H24563   1.561  10.664   9.466 -0.3398  0.0451  0.1013
  903MOL0     H24564   1.397  10.671   9.674  0.5330 -0.9160 -0.9549
  903MOL0     H24565   1.552  10.626   9.755  0.1729 -2.6264  0.6752
  903MOL0     H24566   1.304  10.594   9.862 -0.4917  0.2786  0.4344
  903MOL0     H24567   1.290  10.457   9.759 -1.3952  1.9861 -0.4262
  903MOL0     H24568   1.503  10.369   9.859 -0.3547  0.4141 -1.2139
  903MOL0     H24569   1.501  10.507   9.972  0.0030 -0.7536 -0.2965
  903MOL0     H24570   1.266  10.320   9.952  0.9558 -1.7367 -0.9503
  903MOL0     H24571   1.388  10.314  10.076 -1.8001 -1.2096 -0.4706
  903MOL0     H24572   1.455  10.390  10.259 -0.3091  0.0666 -1.4449
  903MOL0     H24573   1.503  10.490  10.570 -0.5358 -1.1065 -1.5208
  903MOL0     H24574   1.653  10.566  10.522  0.0925 -1.5550  3.0867
  903MOL0     H24575   1.613  10.408  10.462  0.1007 -0.0455  1.2802
  903MOL0     H24576   1.559  11.061  10.532 -3.5472  0.9099 -1.0755
  903MOL0     H24577   1.620  11.218  10.700 -0.1178 -1.0477 -0.3979
  903MOL0     H24578   1.691  11.017  10.985 -0.7732  0.9938  0.0078
  903MOL0     H24579   1.795  11.161  10.980  1.0108 -1.7368  0.2083
  903MOL0     H24580   1.643  11.038  11.206  2.4872 -1.2748  0.6130
  903MOL0     H24581   1.807  11.079  11.190  1.8580  1.4160 -0.6255
  903MOL0     H24582   1.645  11.332  11.169  1.4924  0.2788  0.6562
  903MOL0     H24583   1.788  11.275  11.250  2.5106 -4.4108 -1.2318
  903MOL0     H24584   1.679  11.214  11.449  0.0551  0.3496 -0.1988
  903MOL0     H24585   1.541  11.162  11.351  0.1854  0.1120 -0.6119
  903MOL0     H24586   1.519  11.394  11.513 -0.5203  1.6686 -0.5860
  903MOL0     H24587   1.629  11.464  11.380  0.8576  0.7980  0.7922
  903MOL0     H24588   1.373  11.323  11.305 -2.2417  0.9736  0.3432
  903MOL0     H24589   1.453  11.457  11.218  1.5519 -1.2116 -0.4883
  903MOL0     H24590   1.294  11.490  11.482 -0.5102  0.9332 -1.2469
  903MOL0     H24591   1.252  11.544  11.326 -0.9173 -0.4131  1.0021
  903MOL0     H24592   1.511  11.655  11.343 -0.8151  2.2053 -0.4951
  903MOL0     H24593   1.460  11.668  11.510  0.9150 -0.1583 -0.9398
  903MOL0     H24594   1.370  11.027  10.977  1.1332 -1.3604 -0.3188
  903MOL0     H24595   1.277  10.892  10.799  0.7253 -1.0770 -1.4423
  903MOL0     H24596   1.283  10.849  10.343 -1.0194  0.5900  0.0570
  903MOL0     H24597   1.200  10.706  10.134  0.4188 -4.2658 -1.5833
  903MOL0     H24598   2.180  10.139   9.756  0.5322  1.5578  0.6921
  903MOL0     H24599   2.227  10.075   9.997 -1.2071 -1.2471 -0.0918
  903MOL0     H24600   2.516   9.672  10.174  3.2723 -0.5254  0.9678
  903MOL0     H24601   2.612   9.570  10.338  1.9713  1.1131  4.2899
  903MOL0     H24602   2.425   9.598  10.747  1.3712 -0.6688  1.6663
  903MOL0     H24603   2.336   9.443  10.710  0.3608 -1.2587  3.0168
  903MOL0     H24604   2.516   9.306  10.764 -4.0023 -0.6581  1.7330
  903MOL0     H24605   2.479   9.392  10.903 -1.1880  0.7583  0.1693
  903MOL0     H24606   2.718   9.484  10.731  2.6409 -4.3411  1.3918
  903MOL0     H24607   2.637   9.572  10.865 -0.8793 -0.4568  0.7867
  903MOL0     H24608   2.832   9.431  10.948  0.7513 -0.7947  1.3296
  903MOL0     H24609   2.754   9.297  10.871  0.8747  1.9840 -3.6466
  903MOL0     H24610   2.577   9.313  11.246 -2.1984 -1.1202 -1.8962
  903MOL0     H24611   2.246   9.616  10.579  0.5739 -0.2950  1.5997
  903MOL0     H24612   2.141   9.880  10.410  2.0048 -0.3495  2.4586
  903MOL0     H24613   2.043   9.749  10.338 -0.5711 -0.1654  0.9903
  903MOL0     H24614   2.065   9.734  10.502  2.8657 -3.7704  0.7209
  904MOL0     O24615   4.800   9.824   7.768  0.3547  0.1092 -0.1892
  904MOL0     C24616   4.855   9.878   7.677 -0.0504 -0.1973  0.5606
  904MOL0     O24617   4.855   9.823   7.552 -0.1829 -0.0608  0.1500
  904MOL0     C24618   4.831   9.685   7.542 -0.3094  1.0207 -0.3081
  904MOL0     C24619   4.702   9.632   7.552  0.5917  1.0449 -0.7852
  904MOL0     C24620   4.690   9.490   7.579 -0.2862 -0.7829 -0.2266
  904MOL0     C24621   4.807   9.416   7.570 -0.1091  0.9017 -0.3822
  904MOL0     O24622   4.794   9.279   7.574 -0.1400 -0.0088 -1.0866
  904MOL0     C24623   4.857   9.180   7.485  0.0846 -0.6294  0.5637
  904MOL0     C24624   4.960   9.115   7.578 -0.5518 -0.0167  0.6547
  904MOL0     C24625   5.062   9.034   7.504 -0.3207 -0.6470  1.6277
  904MOL0     C24626   5.178   9.113   7.436 -1.0249 -0.8984  0.1477
  904MOL0     C24627   5.286   9.014   7.373 -0.6367  0.3290  0.0323
  904MOL0     C24628   5.243   8.946   7.247 -0.5881  0.4685  0.4533
  904MOL0     C24629   5.353   8.870   7.188 -1.1872 -0.0516 -0.7131
  904MOL0     C24630   5.372   8.732   7.258 -0.1910 -0.6610  1.0733
  904MOL0     N24631   5.264   8.641   7.226  0.0735  0.5057  0.9668
  904MOL0     C24632   5.222   8.596   7.094 -0.3844 -0.1143  0.2382
  904MOL0     C24633   5.118   8.517   7.126 -0.7197  0.0620 -1.0590
  904MOL0     C24634   5.049   8.421   7.028  0.1308 -0.0181 -1.1900
  904MOL0     C24635   5.138   8.291   7.021  0.9203  0.7051  0.2786
  904MOL0     C24636   5.087   8.184   7.114  0.4957  1.1074 -0.7163
  904MOL0     C24637   5.166   8.040   7.107 -0.3766  0.2536 -0.8492
  904MOL0     O24638   5.156   7.992   7.240  0.2846 -0.0326  0.2823
  904MOL0     C24639   5.265   8.010   7.317 -0.3345  0.5098 -0.2179
  904MOL0     C24640   5.331   8.128   7.329  0.7292  0.0612 -0.7169
  904MOL0     C24641   5.450   8.150   7.394 -0.2793  0.1918  0.0977
  904MOL0     C24642   5.498   8.290   7.421  0.2488 -1.0915 -1.1218
  904MOL0     C24643   5.516   8.035   7.456  0.4632 -0.3418 -0.0901
  904MOL0     C24644   5.643   8.046   7.534 -0.3822 -0.2588 -0.1741
  904MOL0     O24645   5.752   8.111   7.472  1.0275  0.3723  0.6642
  904MOL0     C24646   5.859   8.149   7.554  0.5896  0.1927  0.4589
  904MOL0     C24647   5.852   8.247   7.651  0.8221  0.4678  1.2355
  904MOL0     C24648   5.966   8.272   7.728 -0.4264  0.5717 -0.1728
  904MOL0     C24649   6.084   8.201   7.711  0.0166 -0.2564 -0.3493
  904MOL0     O24650   6.196   8.219   7.790  0.1189 -0.1157  0.8524
  904MOL0     C24651   6.195   8.318   7.902  0.0010  0.0825  0.6267
  904MOL0     C24652   6.323   8.305   7.989 -0.2501  0.3461  0.5242
  904MOL0     C24653   6.460   8.346   7.927  0.6651  0.2965 -0.1545
  904MOL0     C24654   6.580   8.276   7.999 -0.2878 -0.4758 -0.1663
  904MOL0     C24655   6.709   8.317   7.914 -0.0178 -0.1783  0.0346
  904MOL0     C24656   6.835   8.270   7.988  0.1573 -0.5539  0.3247
  904MOL0     C24657   6.951   8.254   7.891 -0.5611  0.7674 -0.1969
  904MOL0     C24658   6.967   8.375   7.802 -0.2147  1.2556  0.4507
  904MOL0    Cl24659   7.132   8.375   7.718  0.0126 -0.1577  0.5493
  904MOL0     C24660   6.092   8.098   7.613 -0.4561 -0.4944  0.4289
  904MOL0     C24661   5.980   8.076   7.537  0.4809 -0.0704 -0.0544
  904MOL0     O24662   5.650   7.989   7.645 -0.8965 -0.0848  0.4602
  904MOL0     C24663   5.439   7.912   7.454 -0.3519 -0.0186 -0.4991
  904MOL0     C24664   5.324   7.901   7.378  0.4716  1.1415 -0.1624
  904MOL0     N24665   5.107   8.508   7.268  0.2362 -0.3855  0.8722
  904MOL0     N24666   5.191   8.587   7.318 -0.5807 -0.2908 -0.1838
  904MOL0     C24667   4.931   9.471   7.565  0.0525 -0.5211 -0.0334
  904MOL0     C24668   4.944   9.605   7.551  0.5542 -0.6427  0.4145
  904MOL0     C24669   4.906  10.016   7.699 -0.5206 -0.0701  0.4690
  904MOL0     C24670   4.891  10.079   7.819  0.2226  0.5598  0.1339
  904MOL0     C24671   4.921  10.208   7.844 -0.0854  0.3309  0.0255
  904MOL0     C24672   4.984  10.287   7.753 -0.4221  0.4419 -0.2099
  904MOL0     O24673   5.025  10.421   7.768  0.2783 -0.1045  0.1191
  904MOL0     C24674   4.972  10.496   7.882  0.7477 -0.1596 -0.2598
  904MOL0     C24675   5.012  10.642   7.868 -0.4336 -0.9344 -0.1641
  904MOL0     C24676   5.157  10.678   7.893 -0.3067 -0.5083 -0.1871
  904MOL0     C24677   5.180  10.830   7.861 -0.1846  0.1215 -0.2387
  904MOL0     C24678   5.304  10.894   7.910 -0.5483 -0.4593  0.1016
  904MOL0     C24679   5.404  10.948   7.952  0.6661 -0.2475  0.1642
  904MOL0     C24680   5.012  10.226   7.622  0.6280 -1.0928 -0.4638
  904MOL0     C24681   4.979  10.084   7.599 -0.8510 -0.8017  0.2871
  904MOL0     C24682   5.012  10.030   7.459 -0.3715 -0.5378 -0.6138
  904MOL0     H24683   4.610   9.685   7.571  0.0713 -0.2788  0.6284
  904MOL0     H24684   4.595   9.438   7.583  0.1582 -1.6125  3.4902
  904MOL0     H24685   4.919   9.226   7.408 -0.4405 -2.2313 -0.8860
  904MOL0     H24686   4.789   9.108   7.438 -2.7966  1.6352  1.0131
  904MOL0     H24687   5.020   9.195   7.624  2.6049 -1.6435 -0.3594
  904MOL0     H24688   4.911   9.054   7.655 -3.9874  1.7699  0.0617
  904MOL0     H24689   5.115   8.966   7.571 -0.3399 -1.3684  0.9179
  904MOL0     H24690   5.013   8.965   7.435  0.0225  0.5025  0.2009
  904MOL0     H24691   5.153   9.184   7.356  0.4041  2.2600  2.2699
  904MOL0     H24692   5.225   9.184   7.505 -1.0746 -0.6985 -0.0199
  904MOL0     H24693   5.319   8.947   7.453  0.1568  2.0753  1.2358
  904MOL0     H24694   5.380   9.070   7.359 -0.9394  1.1492  1.1415
  904MOL0     H24695   5.164   8.874   7.269 -0.5297  0.6783  1.4010
  904MOL0     H24696   5.204   9.011   7.168  0.4804 -1.2445 -1.5799
  904MOL0     H24697   5.437   8.939   7.197 -0.5723 -1.0055  1.4107
  904MOL0     H24698   5.349   8.868   7.078  0.8962  2.2154 -0.9186
  904MOL0     H24699   5.465   8.691   7.218 -0.3092 -0.0618  0.1559
  904MOL0     H24700   5.382   8.747   7.366  0.6987 -0.4208  0.9656
  904MOL0     H24701   5.253   8.620   6.993  0.0957  0.0148  0.4164
  904MOL0     H24702   5.036   8.476   6.934 -1.2515  0.8668 -0.5117
  904MOL0     H24703   4.950   8.386   7.059  0.6166 -3.0068 -2.6267
  904MOL0     H24704   5.125   8.251   6.920  0.7897 -1.5962  1.1479
  904MOL0     H24705   5.243   8.310   7.045  1.1569 -0.7829  0.5242
  904MOL0     H24706   5.080   8.227   7.214 -1.7400  2.6687 -1.4613
  904MOL0     H24707   4.983   8.155   7.097  0.6519 -2.7392  3.1246
  904MOL0     H24708   5.118   7.969   7.039 -1.9685  0.8230 -0.3506
  904MOL0     H24709   5.273   8.053   7.085  0.5912 -0.9137  2.5656
  904MOL0     H24710   5.264   8.206   7.294 -0.3103 -0.3759  0.2281
  904MOL0     H24711   5.606   8.304   7.405 -0.2808  2.1906 -2.6580
  904MOL0     H24712   5.459   8.319   7.519  0.3801  2.3754 -1.9577
  904MOL0     H24713   5.442   8.363   7.362  0.3482  0.3786  0.5222
  904MOL0     H24714   5.760   8.303   7.668  1.1937  1.2737  0.6594
  904MOL0     H24715   5.969   8.361   7.791 -1.9406  2.2949 -2.3801
  904MOL0     H24716   6.200   8.422   7.870  2.6737 -1.2070 -3.9156
  904MOL0     H24717   6.111   8.286   7.965 -1.0938 -0.2097 -0.9223
  904MOL0     H24718   6.304   8.374   8.072 -2.4537  1.6747 -0.9809
  904MOL0     H24719   6.320   8.205   8.034 -0.5857  0.7194  1.3582
  904MOL0     H24720   6.469   8.453   7.946  1.3457  0.0740  0.8245
  904MOL0     H24721   6.470   8.329   7.819  1.6842  2.9019 -0.5364
  904MOL0     H24722   6.559   8.170   8.010  1.9253 -0.8553  0.9752
  904MOL0     H24723   6.599   8.318   8.098  0.9837  1.4162 -1.1258
  904MOL0     H24724   6.707   8.267   7.816  0.0334 -1.9635  0.9118
  904MOL0     H24725   6.706   8.425   7.901  0.2091 -0.1874 -0.0906
  904MOL0     H24726   6.828   8.173   8.038  3.2920 -0.6871  0.7292
  904MOL0     H24727   6.854   8.344   8.067 -1.6817  0.4262 -0.0838
  904MOL0     H24728   6.934   8.165   7.829 -0.9765 -0.6760  1.8815
  904MOL0     H24729   7.047   8.240   7.940 -0.0089 -0.7777 -1.6123
  904MOL0     H24730   6.952   8.461   7.868  0.0028  1.9169 -0.3271
  904MOL0     H24731   6.899   8.373   7.716  1.1252  0.8857 -0.6454
  904MOL0     H24732   6.179   8.036   7.588  0.2771  0.9913 -0.9210
  904MOL0     H24733   5.981   7.993   7.467 -1.7944  0.6365 -1.0247
  904MOL0     H24734   5.476   7.829   7.512 -3.3429 -0.4400  0.9546
  904MOL0     H24735   5.272   7.806   7.368  1.0860  0.7569  0.2657
  904MOL0     H24736   5.018   9.407   7.566  0.6173  0.2319 -0.2762
  904MOL0     H24737   5.041   9.653   7.545 -0.7899  2.0415 -2.2321
  904MOL0     H24738   4.841  10.031   7.903  0.3386 -0.7054 -0.4853
  904MOL0     H24739   4.885  10.260   7.932 -4.4163  0.0938 -1.3891
  904MOL0     H24740   4.863  10.489   7.890  0.5586  1.9155 -0.4269
  904MOL0     H24741   5.018  10.461   7.975  0.8801  0.9236  0.1016
  904MOL0     H24742   4.948  10.708   7.928 -0.2884 -1.4502  0.5697
  904MOL0     H24743   4.990  10.667   7.763 -0.9943  1.1092  0.3794
  904MOL0     H24744   5.188  10.658   7.996 -0.6547 -0.3934 -0.0587
  904MOL0     H24745   5.222  10.615   7.832 -0.5755 -0.9533 -0.0213
  904MOL0     H24746   5.097  10.892   7.898 -0.5721 -1.9814  2.8026
  904MOL0     H24747   5.172  10.844   7.752 -1.2545 -1.1978 -0.3509
  904MOL0     H24748   5.487  10.984   8.010  0.9278  2.7697 -1.8816
  904MOL0     H24749   5.060  10.285   7.544 -1.3072 -2.4032 -2.8095
  904MOL0     H24750   4.935  10.041   7.381 -0.8630  0.3562 -0.0274
  904MOL0     H24751   5.103  10.086   7.434  1.5213 -2.1808  2.1233
  904MOL0     H24752   5.047   9.927   7.462  0.2136 -0.3336  2.2723
  905MOL0     O24753   0.171   2.076   2.408  1.0273  0.1983 -0.5443
  905MOL0     C24754   0.066   2.098   2.473 -0.3921  1.1613 -0.0043
  905MOL0     O24755  -0.060   2.124   2.413 -0.2907  0.9166 -0.6725
  905MOL0     C24756  -0.076   2.111   2.274  0.6962 -0.2230  0.2135
  905MOL0     C24757  -0.184   2.192   2.224 -0.6308  0.0483 -0.4792
  905MOL0     C24758  -0.218   2.197   2.089 -0.9651  0.3597 -0.1326
  905MOL0     C24759  -0.143   2.127   2.001  0.4400 -0.5041  0.2883
  905MOL0     O24760  -0.193   2.148   1.876 -0.0246 -0.3009  0.3676
  905MOL0     C24761  -0.113   2.094   1.772  0.3759 -0.0478 -0.1081
  905MOL0     C24762  -0.142   2.146   1.637  0.0096  0.2599  0.4041
  905MOL0     C24763  -0.083   2.056   1.533  0.0225 -0.1945  0.1308
  905MOL0     C24764  -0.102   2.120   1.396  0.4304  0.6991 -0.3049
  905MOL0     C24765   0.001   2.081   1.294 -0.4884 -0.3893 -0.0234
  905MOL0     C24766   0.027   1.933   1.270 -0.1173 -0.5308 -0.1863
  905MOL0     C24767  -0.090   1.861   1.211  0.0203 -0.4432  0.9942
  905MOL0     C24768  -0.076   1.712   1.221 -0.3769 -0.8477  0.7724
  905MOL0     N24769  -0.168   1.647   1.123 -0.0459  0.7380 -0.8086
  905MOL0     C24770  -0.213   1.512   1.130  0.0080 -0.0337 -1.2217
  905MOL0     C24771  -0.284   1.495   1.014 -0.4181 -0.5729  0.6975
  905MOL0     C24772  -0.348   1.368   0.975  1.3338 -0.6356  0.0257
  905MOL0     C24773  -0.247   1.254   0.969  0.3459 -0.3429  0.0287
  905MOL0     C24774  -0.134   1.275   0.862 -0.5589 -0.3118  1.0052
  905MOL0     C24775  -0.044   1.157   0.849 -0.4424  0.8930  0.7696
  905MOL0     O24776  -0.116   1.062   0.769  0.6560 -0.3146 -0.2101
  905MOL0     C24777  -0.061   0.938   0.747  0.6769 -0.6951  0.1911
  905MOL0     C24778  -0.116   0.855   0.651 -0.0970  0.3666  0.4749
  905MOL0     C24779  -0.066   0.723   0.624  0.0505 -0.3489  0.3761
  905MOL0     C24780  -0.117   0.650   0.498  0.5104 -0.7857  0.2627
  905MOL0     C24781   0.039   0.669   0.697 -0.0372 -0.2896 -0.1510
  905MOL0     C24782   0.089   0.532   0.700 -0.1402 -0.0620  0.4563
  905MOL0     O24783   0.026   0.440   0.621  0.5783 -1.0888  0.7303
  905MOL0     C24784   0.059   0.306   0.637  0.8719  0.0991 -0.7582
  905MOL0     C24785  -0.033   0.215   0.691 -1.4491  1.2055 -0.6659
  905MOL0     C24786   0.007   0.080   0.703 -0.2157 -0.3801  0.6408
  905MOL0     C24787   0.138   0.044   0.671  0.2046 -0.6492  0.5349
  905MOL0     O24788   0.195  -0.082   0.681  0.2981 -0.6328  0.2154
  905MOL0     C24789   0.125  -0.190   0.746 -0.5344  0.1012  0.5643
  905MOL0     C24790   0.201  -0.322   0.764 -0.1327 -0.9592  0.5463
  905MOL0     C24791   0.241  -0.397   0.626 -0.3120  0.0391  0.0816
  905MOL0     C24792   0.297  -0.541   0.656 -0.3334 -0.7711 -0.5562
  905MOL0     C24793   0.260  -0.630   0.532 -0.2506  0.4243  0.6321
  905MOL0     C24794   0.367  -0.621   0.415 -1.0334 -0.7165  0.3359
  905MOL0     C24795   0.314  -0.651   0.279 -0.4088 -0.0621  0.5880
  905MOL0     C24796   0.418  -0.675   0.163 -0.5271  0.3447  0.1130
  905MOL0    Cl24797   0.536  -0.795   0.215 -0.0407  0.3514  0.0562
  905MOL0     C24798   0.216   0.136   0.607  0.1185 -0.1366  0.5265
  905MOL0     C24799   0.180   0.263   0.585  0.4036 -0.2251  0.0440
  905MOL0     O24800   0.180   0.502   0.787 -0.0617  0.5018 -0.7050
  905MOL0     C24801   0.097   0.757   0.782  0.7446  1.1768 -0.3781
  905MOL0     C24802   0.052   0.887   0.808  0.8805 -0.0764  0.7150
  905MOL0     N24803  -0.257   1.609   0.935  0.2916  0.5463 -0.7871
  905MOL0     N24804  -0.181   1.691   0.998  0.0250 -0.4941 -0.6453
  905MOL0     C24805  -0.046   2.038   2.046  0.0205 -0.1500  0.7560
  905MOL0     C24806  -0.006   2.031   2.175  0.0065  0.1607 -0.3736
  905MOL0     C24807   0.088   2.115   2.623  0.0785 -0.4363 -0.5430
  905MOL0     C24808  -0.025   2.102   2.699 -0.5865 -0.3911 -0.0352
  905MOL0     C24809  -0.021   2.122   2.839 -0.1600 -0.0187  0.5068
  905MOL0     C24810   0.099   2.157   2.900 -0.5526  0.3899 -0.0830
  905MOL0     O24811   0.085   2.184   3.033  1.2677  0.0577 -0.6548
  905MOL0     C24812   0.186   2.246   3.118  0.8485  0.0148 -0.0675
  905MOL0     C24813   0.141   2.342   3.223 -0.2908 -0.5323 -1.0280
  905MOL0     C24814   0.035   2.288   3.325 -0.1377 -0.1554  0.3719
  905MOL0     C24815   0.098   2.173   3.408 -0.1527 -0.7461  0.5440
  905MOL0     C24816   0.010   2.113   3.504  0.5213  0.7183  0.6773
  905MOL0     C24817  -0.058   2.105   3.605 -1.0722 -0.0048  1.2716
  905MOL0     C24818   0.211   2.167   2.819 -0.0317  0.1527  0.6805
  905MOL0     C24819   0.210   2.148   2.678 -0.4663  1.2411 -0.4611
  905MOL0     C24820   0.331   2.177   2.604  0.0573 -1.3172 -0.6920
  905MOL0     H24821  -0.232   2.267   2.287  2.9134  4.2386 -2.1973
  905MOL0     H24822  -0.293   2.266   2.051 -0.7595  0.3914 -0.4895
  905MOL0     H24823  -0.126   1.985   1.780 -1.8513  0.0047 -1.9327
  905MOL0     H24824  -0.007   2.111   1.796  1.0719 -0.0761 -2.7845
  905MOL0     H24825  -0.250   2.153   1.622 -0.0184  2.0374  1.2507
  905MOL0     H24826  -0.099   2.245   1.624  2.0438 -0.6027  0.1510
  905MOL0     H24827   0.020   2.024   1.552  0.0996 -1.2880 -1.8363
  905MOL0     H24828  -0.131   1.958   1.529  0.9608 -0.6748  0.4597
  905MOL0     H24829  -0.203   2.103   1.357  0.6194 -2.0816  0.1637
  905MOL0     H24830  -0.103   2.229   1.401 -0.7170  0.8717 -2.8766
  905MOL0     H24831   0.096   2.122   1.330 -0.3298  0.0693 -0.9441
  905MOL0     H24832  -0.015   2.144   1.206 -0.2584  0.7410  0.7258
  905MOL0     H24833   0.118   1.926   1.210  0.6417 -0.9627  0.9733
  905MOL0     H24834   0.041   1.901   1.374 -2.8822  2.6352  1.3555
  905MOL0     H24835  -0.096   1.892   1.106 -2.2905 -0.7569  0.9815
  905MOL0     H24836  -0.192   1.888   1.241 -1.3561 -3.2868 -0.7878
  905MOL0     H24837   0.030   1.685   1.214  0.5693  2.0538  2.1221
  905MOL0     H24838  -0.098   1.697   1.328 -0.5279  1.5429  1.1395
  905MOL0     H24839  -0.213   1.448   1.217 -0.1025  1.8861  0.2711
  905MOL0     H24840  -0.408   1.381   0.885 -0.6325  0.9796  1.4765
  905MOL0     H24841  -0.431   1.354   1.045  1.2375 -3.2376 -0.4996
  905MOL0     H24842  -0.202   1.232   1.066  0.3374  0.9467  0.3413
  905MOL0     H24843  -0.310   1.173   0.931  3.4703 -1.4533 -3.3069
  905MOL0     H24844  -0.180   1.306   0.768  1.4556 -0.7633 -0.1993
  905MOL0     H24845  -0.071   1.362   0.883  0.2887 -0.4454 -0.7962
  905MOL0     H24846   0.043   1.174   0.785 -2.5091 -0.7656 -2.8004
  905MOL0     H24847   0.000   1.133   0.946  0.7326  3.0459  0.8218
  905MOL0     H24848  -0.199   0.896   0.595  1.5651  2.6542 -0.4488
  905MOL0     H24849  -0.193   0.712   0.450  2.1509 -0.5795 -2.2353
  905MOL0     H24850  -0.154   0.549   0.518  2.9879 -1.1084  4.1906
  905MOL0     H24851  -0.028   0.650   0.434  1.9135  0.3369  2.1211
  905MOL0     H24852  -0.118   0.256   0.746  0.7797 -0.4363  4.6653
  905MOL0     H24853  -0.056   0.008   0.754 -1.1718 -0.3106 -0.3904
  905MOL0     H24854   0.109  -0.165   0.851 -0.0216 -0.4454  0.7803
  905MOL0     H24855   0.030  -0.198   0.692 -0.1004  0.3755 -0.2637
  905MOL0     H24856   0.287  -0.311   0.831  0.1037 -2.2090  0.4650
  905MOL0     H24857   0.148  -0.396   0.823  0.8196 -0.7490  1.7047
  905MOL0     H24858   0.328  -0.348   0.581 -0.4766  1.9549  1.7229
  905MOL0     H24859   0.165  -0.397   0.548  0.6472  1.3081 -0.8964
  905MOL0     H24860   0.246  -0.575   0.747  0.8045 -5.1012 -1.2780
  905MOL0     H24861   0.403  -0.539   0.681  0.0799 -0.8084 -2.2175
  905MOL0     H24862   0.269  -0.736   0.561  2.1044  0.6819  1.0179
  905MOL0     H24863   0.157  -0.626   0.495  0.1612 -1.0657 -0.8115
  905MOL0     H24864   0.450  -0.685   0.446  3.3896  4.1490 -0.0561
  905MOL0     H24865   0.417  -0.524   0.410  2.1078 -2.2901 -1.3505
  905MOL0     H24866   0.247  -0.572   0.244  1.3393  2.7743  3.1573
  905MOL0     H24867   0.256  -0.742   0.300  0.7703 -0.3305  3.0809
  905MOL0     H24868   0.469  -0.586   0.128  1.1102 -1.2165 -1.7032
  905MOL0     H24869   0.364  -0.711   0.075  0.5350  0.2132 -0.4984
  905MOL0     H24870   0.306   0.103   0.555 -0.8264  0.2700 -1.4298
  905MOL0     H24871   0.238   0.339   0.534  3.4413 -1.6603  1.1161
  905MOL0     H24872   0.172   0.718   0.850  0.0797  0.9737  0.2612
  905MOL0     H24873   0.101   0.954   0.878 -0.6225  4.5649 -2.1994
  905MOL0     H24874  -0.015   1.965   1.972  0.2952  0.8844 -0.1818
  905MOL0     H24875   0.080   1.977   2.213 -0.5825 -0.7479 -0.2920
  905MOL0     H24876  -0.123   2.087   2.656 -1.1687 -1.2003  1.5001
  905MOL0     H24877  -0.117   2.112   2.888 -1.3158  2.8326 -0.9328
  905MOL0     H24878   0.243   2.163   3.162 -1.5868 -0.4746  2.4564
  905MOL0     H24879   0.246   2.310   3.053  1.9074  1.5728  2.2994
  905MOL0     H24880   0.094   2.415   3.157  1.2608 -0.2683 -1.8925
  905MOL0     H24881   0.219   2.386   3.286 -1.6167  0.3035  0.1149
  905MOL0     H24882   0.008   2.375   3.387 -2.3095 -1.0148  0.7378
  905MOL0     H24883  -0.056   2.265   3.269 -0.9351  3.7627 -0.2878
  905MOL0     H24884   0.182   2.219   3.461 -1.9009  1.9169  1.2457
  905MOL0     H24885   0.120   2.088   3.344 -2.1655 -1.0263  0.1527
  905MOL0     H24886  -0.102   2.097   3.702  2.5125  0.0086  3.0866
  905MOL0     H24887   0.305   2.210   2.851 -0.5786  2.7961 -0.9459
  905MOL0     H24888   0.315   2.265   2.541 -2.0562 -0.1743  1.3012
  905MOL0     H24889   0.411   2.195   2.677 -0.0496  1.6057 -1.1859
  905MOL0     H24890   0.371   2.087   2.555  3.5438 -1.9175  2.7378
  906MOL0     O24891   7.681  11.469  10.318 -0.1265  0.8449 -0.1666
  906MOL0     C24892   7.617  11.478  10.423 -0.1651 -0.5978 -1.2100
  906MOL0     O24893   7.599  11.379  10.516 -0.1660 -0.4919  0.3189
  906MOL0     C24894   7.649  11.257  10.489  0.2363  0.3806  1.0369
  906MOL0     C24895   7.563  11.142  10.484  0.1096  0.2485 -0.3203
  906MOL0     C24896   7.610  11.015  10.465  0.7344  0.2765  0.8318
  906MOL0     C24897   7.744  10.999  10.426 -0.0745 -0.7162 -0.1899
  906MOL0     O24898   7.768  10.868  10.387 -0.0880  0.2891 -0.3840
  906MOL0     C24899   7.893  10.832  10.315 -0.3025 -0.5270  0.0728
  906MOL0     C24900   7.896  10.683  10.262  0.3335  0.6820  0.4884
  906MOL0     C24901   7.920  10.550  10.343 -0.7052 -0.8673  0.7025
  906MOL0     C24902   7.820  10.506  10.449 -0.3151  0.2800  0.0744
  906MOL0     C24903   7.676  10.522  10.409  0.9532  0.1942 -0.4647
  906MOL0     C24904   7.588  10.474  10.529 -0.3895 -0.3601 -0.2568
  906MOL0     C24905   7.442  10.509  10.500 -0.1230 -0.1308 -0.1503
  906MOL0     C24906   7.371  10.422  10.399  0.9220  0.0471 -0.1496
  906MOL0     N24907   7.247  10.486  10.364 -0.1503  0.3633 -0.3889
  906MOL0     C24908   7.236  10.576  10.259 -0.3645  0.2606  0.0104
  906MOL0     C24909   7.111  10.627  10.270  0.1439 -0.4218 -0.2041
  906MOL0     C24910   7.038  10.744  10.206 -0.9399  0.1353 -0.6607
  906MOL0     C24911   7.063  10.755  10.061  0.2818 -0.9245  0.8174
  906MOL0     C24912   6.989  10.879  10.003  0.3553 -0.0383 -0.1652
  906MOL0     C24913   7.043  10.919   9.871 -0.0021 -0.0929  0.0292
  906MOL0     O24914   7.024  10.818   9.778 -0.7001 -0.2282  0.7060
  906MOL0     C24915   6.948  10.835   9.665  0.8208  0.5322  0.1804
  906MOL0     C24916   6.811  10.832   9.673 -0.1483  0.7908 -0.3564
  906MOL0     C24917   6.735  10.868   9.565 -0.5728  0.4111  0.2683
  906MOL0     C24918   6.586  10.866   9.590  0.4900 -1.0599  0.7801
  906MOL0     C24919   6.801  10.901   9.438  0.7705  0.3897 -0.2119
  906MOL0     C24920   6.722  10.943   9.320  0.2830 -0.0839  0.4084
  906MOL0     O24921   6.615  11.027   9.342 -0.2138  0.9136  0.3801
  906MOL0     C24922   6.551  11.108   9.244 -1.6914  0.4782  1.2549
  906MOL0     C24923   6.421  11.145   9.257  0.1711  0.0552  0.6653
  906MOL0     C24924   6.362  11.251   9.185 -0.6189  0.0270  0.1782
  906MOL0     C24925   6.442  11.325   9.091  0.1060  0.5921  0.4771
  906MOL0     O24926   6.412  11.441   9.041  0.2273 -0.7144  0.2090
  906MOL0     C24927   6.291  11.505   9.092  0.7284  0.0730 -0.7520
  906MOL0     C24928   6.267  11.653   9.045  0.5175  0.5817  0.1869
  906MOL0     C24929   6.282  11.665   8.895 -0.0348  0.0286 -0.1531
  906MOL0     C24930   6.278  11.815   8.838 -0.1281  0.3177  0.3162
  906MOL0     C24931   6.251  11.814   8.682 -0.3126 -0.4946 -0.2733
  906MOL0     C24932   6.357  11.733   8.612  0.3938  0.3486  0.2189
  906MOL0     C24933   6.334  11.702   8.460  0.2192  0.8924 -0.7121
  906MOL0     C24934   6.292  11.815   8.370  0.1348  0.8479 -0.0442
  906MOL0    Cl24935   6.345  11.799   8.203  0.3953 -0.1249  0.1779
  906MOL0     C24936   6.574  11.279   9.062  0.2047 -0.2057 -0.0848
  906MOL0     C24937   6.630  11.183   9.144  0.3340 -0.8245  0.5258
  906MOL0     O24938   6.766  10.908   9.211  0.1107 -0.4805  0.2329
  906MOL0     C24939   6.943  10.878   9.437 -1.1316 -0.1377  0.5119
  906MOL0     C24940   7.014  10.854   9.547 -0.1528 -0.8294  0.2472
  906MOL0     N24941   7.060  10.585  10.389 -0.0073 -0.4022 -0.4807
  906MOL0     N24942   7.140  10.494  10.444 -0.0708  0.0545  0.3507
  906MOL0     C24943   7.840  11.106  10.453  0.3906  0.4030  0.2454
  906MOL0     C24944   7.786  11.227  10.494  0.7991 -0.2056 -0.2409
  906MOL0     C24945   7.544  11.605  10.448  0.2063 -0.3384  0.9317
  906MOL0     C24946   7.516  11.644  10.578  0.6967 -0.0509 -0.0329
  906MOL0     C24947   7.450  11.758  10.609  0.3521 -1.0350 -0.3924
  906MOL0     C24948   7.412  11.852  10.514 -0.5853  1.2216  0.2810
  906MOL0     O24949   7.342  11.973  10.533 -0.6954  0.4893 -0.3926
  906MOL0     C24950   7.261  11.993  10.645 -0.3408 -0.3646 -0.5865
  906MOL0     C24951   7.232  12.142  10.646  0.2774  0.2153  0.7748
  906MOL0     C24952   7.150  12.174  10.763  0.2441  1.2545 -0.0155
  906MOL0     C24953   7.002  12.120  10.753 -1.6296 -0.3102  0.1758
  906MOL0     C24954   6.913  12.198  10.839 -0.5211  0.5261  0.4726
  906MOL0     C24955   6.849  12.261  10.919  0.5669  0.2407  0.0905
  906MOL0     C24956   7.444  11.817  10.376 -1.0347 -0.4380 -0.1129
  906MOL0     C24957   7.514  11.703  10.345  0.8796  0.1123 -0.6129
  906MOL0     C24958   7.542  11.681  10.203  0.5225 -0.2201 -0.3620
  906MOL0     H24959   7.460  11.167  10.505  0.0330 -1.4349  1.6958
  906MOL0     H24960   7.532  10.941  10.451  1.3738 -0.0868 -1.0209
  906MOL0     H24961   7.981  10.861  10.374 -0.6340  1.7389 -0.4365
  906MOL0     H24962   7.891  10.890  10.222 -0.0877  0.6894  0.8103
  906MOL0     H24963   7.797  10.669  10.217  1.6253  1.1576 -2.7778
  906MOL0     H24964   7.975  10.680  10.186  1.2261 -1.2325  1.4237
  906MOL0     H24965   7.937  10.473  10.268  2.3766  1.0140 -0.7378
  906MOL0     H24966   8.015  10.563  10.395  1.8241 -2.2404 -3.1542
  906MOL0     H24967   7.835  10.399  10.465 -0.1851 -0.0789 -2.1644
  906MOL0     H24968   7.859  10.561  10.535  4.3757  0.4665 -1.8912
  906MOL0     H24969   7.638  10.463  10.325 -1.0900  0.2047  0.3761
  906MOL0     H24970   7.653  10.628  10.391 -0.6630  0.0919  0.7394
  906MOL0     H24971   7.603  10.369  10.554  2.7737 -0.7529 -3.1147
  906MOL0     H24972   7.610  10.525  10.623 -2.2592  0.3068 -0.1329
  906MOL0     H24973   7.433  10.605  10.448 -1.1863 -1.1056 -1.8790
  906MOL0     H24974   7.388  10.505  10.595  2.1282 -1.0466  1.1722
  906MOL0     H24975   7.427  10.401  10.307 -0.0475  1.0452 -0.9921
  906MOL0     H24976   7.335  10.324  10.432 -2.6945  0.9659 -0.9462
  906MOL0     H24977   7.309  10.616  10.189 -0.9116 -0.4246 -0.9644
  906MOL0     H24978   7.061  10.839  10.255 -0.5432 -0.2867 -0.0141
  906MOL0     H24979   6.931  10.721  10.214 -0.2594 -3.3574  0.0741
  906MOL0     H24980   7.167  10.780  10.040 -0.6851  0.9282 -2.4942
  906MOL0     H24981   7.036  10.667  10.003 -2.3146  0.4057 -0.1636
  906MOL0     H24982   6.880  10.875   9.992  0.1598 -0.4024  1.5611
  906MOL0     H24983   7.009  10.962  10.071 -0.4623 -0.0597  0.1114
  906MOL0     H24984   6.995  11.009   9.834  0.0284  0.6827  1.7717
  906MOL0     H24985   7.150  10.941   9.880  0.3534 -1.4814 -0.3966
  906MOL0     H24986   6.750  10.807   9.759 -2.2095 -0.1795 -2.0257
  906MOL0     H24987   6.557  10.958   9.643  1.2947  0.0170 -0.5841
  906MOL0     H24988   6.552  10.779   9.646 -1.1840 -1.8666 -1.3304
  906MOL0     H24989   6.529  10.869   9.496  0.2304 -1.4330  0.9222
  906MOL0     H24990   6.367  11.081   9.327 -2.2956  0.6395 -0.6069
  906MOL0     H24991   6.264  11.272   9.227 -1.0661  2.4696 -1.8518
  906MOL0     H24992   6.207  11.442   9.062  2.2553 -1.7526 -1.4463
  906MOL0     H24993   6.301  11.508   9.201  0.4865 -1.5895 -0.6545
  906MOL0     H24994   6.179  11.710   9.077 -1.0344 -0.7687 -1.4716
  906MOL0     H24995   6.360  11.703   9.072  0.5559  1.0045 -0.7155
  906MOL0     H24996   6.197  11.604   8.863 -1.0726  2.2124 -1.9009
  906MOL0     H24997   6.370  11.610   8.862  0.1599 -1.4376  2.5583
  906MOL0     H24998   6.380  11.851   8.853 -0.5607  1.4290  0.6626
  906MOL0     H24999   6.209  11.871   8.902  2.3653  0.2691  3.2997
  906MOL0     H25000   6.153  11.773   8.655 -1.7349  3.4150 -1.7759
  906MOL0     H25001   6.238  11.919   8.653  0.7384 -0.2856 -0.0114
  906MOL0     H25002   6.359  11.632   8.653 -3.2450  0.7633  1.8040
  906MOL0     H25003   6.449  11.786   8.636 -0.6198  2.8950 -1.1191
  906MOL0     H25004   6.265  11.619   8.439 -0.4389  1.4533 -0.7937
  906MOL0     H25005   6.434  11.670   8.431  0.3757  0.3891  0.3372
  906MOL0     H25006   6.323  11.910   8.415 -2.3813  1.2689  0.9413
  906MOL0     H25007   6.183  11.814   8.364  0.1342  0.6129  0.0221
  906MOL0     H25008   6.629  11.333   8.986 -0.6690  1.1021  0.1743
  906MOL0     H25009   6.733  11.160   9.121  0.7898  2.2566 -1.0794
  906MOL0     H25010   6.996  10.900   9.345 -0.6481 -2.4784  0.1656
  906MOL0     H25011   7.117  10.887   9.542 -1.3285  3.9675  1.7361
  906MOL0     H25012   7.948  11.094  10.453  0.1818 -2.3914  1.3816
  906MOL0     H25013   7.854  11.305  10.525 -0.1762  0.0465  1.3686
  906MOL0     H25014   7.544  11.576  10.657  0.0293  0.6016  0.7787
  906MOL0     H25015   7.417  11.768  10.712 -1.5521 -1.0788 -0.9672
  906MOL0     H25016   7.170  11.933  10.653  0.1757 -1.0525  0.3887
  906MOL0     H25017   7.325  11.982  10.733  1.4110  1.8290 -1.4984
  906MOL0     H25018   7.177  12.159  10.553  1.0783 -0.3470  0.1791
  906MOL0     H25019   7.323  12.203  10.641 -2.0593  3.9408 -0.6040
  906MOL0     H25020   7.205  12.141  10.851  2.8273 -3.3130 -2.9762
  906MOL0     H25021   7.130  12.282  10.760 -0.8974  1.3570  4.5625
  906MOL0     H25022   7.015  12.017  10.787 -1.3515  0.0919  1.3393
  906MOL0     H25023   6.979  12.128  10.646  0.3852  1.6480 -0.1885
  906MOL0     H25024   6.787  12.335  10.965  1.0043  0.9415 -0.4230
  906MOL0     H25025   7.407  11.892  10.307 -0.7429 -1.9224 -1.9652
  906MOL0     H25026   7.650  11.669  10.193  0.5607  1.3191 -2.3230
  906MOL0     H25027   7.499  11.586  10.170 -2.0523  0.1598  1.4849
  906MOL0     H25028   7.494  11.756  10.139  0.4614  0.6336  0.6469
  907MOL0     O25029   9.251   6.713   0.919  0.4369 -0.2635  0.1520
  907MOL0     C25030   9.374   6.733   0.902 -0.5566 -0.2797  0.0192
  907MOL0     O25031   9.476   6.667   0.965  0.3133 -0.4834 -0.3156
  907MOL0     C25032   9.444   6.561   1.036  0.1740 -0.6182 -0.4316
  907MOL0     C25033   9.397   6.575   1.170 -0.2268 -1.3416  0.2141
  907MOL0     C25034   9.371   6.462   1.248 -0.2551  0.7700  0.6000
  907MOL0     C25035   9.378   6.338   1.180  1.3151  0.5839  0.3418
  907MOL0     O25036   9.333   6.227   1.240  0.2809  0.0682 -0.0577
  907MOL0     C25037   9.402   6.176   1.361 -0.2977  0.1981  0.2118
  907MOL0     C25038   9.323   6.068   1.437 -0.7208 -0.5041 -0.2941
  907MOL0     C25039   9.194   6.128   1.496 -0.3198 -0.7837  0.1407
  907MOL0     C25040   9.105   6.009   1.523 -0.5110 -0.4060  0.3976
  907MOL0     C25041   8.973   6.045   1.580  0.9303  0.2188  0.2048
  907MOL0     C25042   8.889   6.146   1.501  1.5994 -0.9637 -0.3030
  907MOL0     C25043   8.743   6.121   1.542 -0.7369 -0.5435 -0.0752
  907MOL0     C25044   8.668   6.200   1.436  0.8886 -0.3997 -0.4568
  907MOL0     N25045   8.549   6.257   1.496  0.3878 -0.5806  0.2507
  907MOL0     C25046   8.433   6.185   1.513 -0.9536  0.7772 -0.0615
  907MOL0     C25047   8.339   6.279   1.510  0.0929 -0.2010  1.1953
  907MOL0     C25048   8.203   6.253   1.542  0.6113 -0.0978  0.4848
  907MOL0     C25049   8.158   6.304   1.675  0.3612 -0.1515  0.4295
  907MOL0     C25050   8.011   6.320   1.674  0.9211  0.6028 -0.7969
  907MOL0     C25051   7.963   6.289   1.818 -0.2826 -0.5221  0.3568
  907MOL0     O25052   7.820   6.322   1.823 -1.1789 -0.7865 -0.7618
  907MOL0     C25053   7.732   6.242   1.755  0.8443 -1.0503 -0.1107
  907MOL0     C25054   7.604   6.298   1.719 -1.0775  0.6522 -1.2981
  907MOL0     C25055   7.509   6.222   1.639  0.3368 -0.3178 -0.3719
  907MOL0     C25056   7.385   6.290   1.585 -0.4814 -0.0785 -0.4792
  907MOL0     C25057   7.536   6.089   1.608 -0.3350  0.6001  0.8263
  907MOL0     C25058   7.448   6.004   1.521 -0.3147  0.1343  0.0590
  907MOL0     O25059   7.501   5.883   1.501 -0.5252  0.1438 -0.2233
  907MOL0     C25060   7.418   5.792   1.442  0.4969 -0.6409 -0.3247
  907MOL0     C25061   7.389   5.791   1.304 -0.0872  1.2663  0.5346
  907MOL0     C25062   7.310   5.690   1.252 -0.8649  0.2536  0.4263
  907MOL0     C25063   7.262   5.588   1.326  0.5627  0.4797  0.6447
  907MOL0     O25064   7.179   5.481   1.276  0.2473 -0.3457  0.0392
  907MOL0     C25065   7.168   5.474   1.127 -0.1785  0.0777 -0.0049
  907MOL0     C25066   7.083   5.345   1.098  0.3425 -0.6359  0.1244
  907MOL0     C25067   6.933   5.376   1.096 -0.5006  0.1100 -0.5068
  907MOL0     C25068   6.849   5.267   1.049  0.2476 -0.0833  0.7836
  907MOL0     C25069   6.704   5.327   1.029  0.2471  0.4951  0.4626
  907MOL0     C25070   6.602   5.222   0.988 -0.1286  0.3424  0.1835
  907MOL0     C25071   6.453   5.257   0.963 -0.7511  0.2705  0.5334
  907MOL0     C25072   6.415   5.277   0.814 -0.2262  0.5974 -0.9295
  907MOL0    Cl25073   6.457   5.126   0.713 -0.3352 -0.4896 -0.1527
  907MOL0     C25074   7.302   5.577   1.460  1.2644 -0.2112 -0.9477
  907MOL0     C25075   7.366   5.685   1.522 -0.7189 -0.6599 -0.1842
  907MOL0     O25076   7.336   6.042   1.486 -0.0952 -0.2022  0.0680
  907MOL0     C25077   7.659   6.028   1.651  0.6104 -0.0314  0.1394
  907MOL0     C25078   7.754   6.105   1.719 -0.0786  0.7622  0.1800
  907MOL0     N25079   8.400   6.402   1.504  0.5084 -0.8561 -0.5773
  907MOL0     N25080   8.528   6.383   1.520 -0.0200 -0.6492  0.5307
  907MOL0     C25081   9.411   6.322   1.048 -0.0283  0.9395  0.3784
  907MOL0     C25082   9.454   6.433   0.977  0.4358  0.8892 -0.7157
  907MOL0     C25083   9.414   6.849   0.807  1.1220  0.1488  0.6143
  907MOL0     C25084   9.319   6.946   0.787  0.1539 -0.4934  0.2468
  907MOL0     C25085   9.343   7.044   0.690  0.2994 -1.0603 -0.5055
  907MOL0     C25086   9.469   7.056   0.629  0.6247  0.8255 -0.0112
  907MOL0     O25087   9.499   7.142   0.521  1.3757 -0.1257 -0.7418
  907MOL0     C25088   9.391   7.206   0.444  0.4432 -0.1681  0.3125
  907MOL0     C25089   9.447   7.259   0.310  1.6797 -0.0674  0.6219
  907MOL0     C25090   9.333   7.302   0.215 -0.4226  0.4145 -0.2320
  907MOL0     C25091   9.333   7.256   0.071 -0.2794 -0.8108 -0.2638
  907MOL0     C25092   9.218   7.314  -0.006 -0.3456  0.4501  0.3158
  907MOL0     C25093   9.128   7.349  -0.080  0.2007  0.6051 -0.2482
  907MOL0     C25094   9.563   6.969   0.668  0.3816 -0.0605 -0.8660
  907MOL0     C25095   9.551   6.858   0.752  0.5888 -0.9722  0.1021
  907MOL0     C25096   9.655   6.758   0.753  0.2579  0.2843 -0.4268
  907MOL0     H25097   9.392   6.674   1.213 -0.2147  0.0946 -2.7885
  907MOL0     H25098   9.345   6.462   1.353  0.4265 -0.7104  0.8019
  907MOL0     H25099   9.416   6.254   1.437  2.7749 -0.7379  0.7412
  907MOL0     H25100   9.495   6.122   1.341 -1.2402 -0.7337 -2.0932
  907MOL0     H25101   9.294   5.983   1.374  1.5884  0.2652 -2.5609
  907MOL0     H25102   9.376   6.033   1.526  0.8118 -1.9135 -1.7020
  907MOL0     H25103   9.210   6.184   1.588 -2.2428 -0.8532  0.5701
  907MOL0     H25104   9.155   6.194   1.418  5.8028  0.1989 -2.6611
  907MOL0     H25105   9.103   5.938   1.439  1.7189  0.7144 -0.7032
  907MOL0     H25106   9.158   5.963   1.607  0.3695 -1.7446 -0.8384
  907MOL0     H25107   8.987   6.072   1.685 -3.5320  1.3258  0.7359
  907MOL0     H25108   8.926   5.946   1.585  2.4984 -0.5685  0.0310
  907MOL0     H25109   8.925   6.248   1.521 -3.1735  1.5758 -2.9770
  907MOL0     H25110   8.903   6.132   1.394 -0.0370  1.9098 -1.0064
  907MOL0     H25111   8.725   6.158   1.643 -2.5193 -0.7113 -0.3019
  907MOL0     H25112   8.707   6.018   1.533 -0.9287 -0.7556  2.4872
  907MOL0     H25113   8.719   6.294   1.413  1.4247 -0.6294 -0.2206
  907MOL0     H25114   8.648   6.155   1.338 -2.4956 -0.4249  0.1278
  907MOL0     H25115   8.416   6.078   1.515  2.3835  0.1386  2.1285
  907MOL0     H25116   8.173   6.148   1.530  0.5226 -0.0766  0.5225
  907MOL0     H25117   8.153   6.318   1.470  0.4764 -0.9958 -0.2583
  907MOL0     H25118   8.190   6.229   1.749  2.6098  2.2197  2.0294
  907MOL0     H25119   8.213   6.394   1.702  1.6486  0.2543 -3.0729
  907MOL0     H25120   7.975   6.418   1.642  1.6986  1.3883  0.6323
  907MOL0     H25121   7.963   6.243   1.613 -0.0659 -0.4314  1.1873
  907MOL0     H25122   7.980   6.185   1.849 -0.7837 -0.2251  1.6866
  907MOL0     H25123   8.012   6.357   1.888  0.5957  1.1074 -1.7176
  907MOL0     H25124   7.584   6.397   1.760  3.4743  1.5203 -0.5743
  907MOL0     H25125   7.383   6.269   1.477 -4.6809 -0.6263 -0.4592
  907MOL0     H25126   7.400   6.398   1.599 -0.3749 -0.1933  0.3393
  907MOL0     H25127   7.295   6.245   1.629 -0.4775  1.3275  1.0550
  907MOL0     H25128   7.432   5.871   1.244  2.7301 -1.4136 -1.3233
  907MOL0     H25129   7.283   5.693   1.147  4.1699  1.7907 -1.0968
  907MOL0     H25130   7.106   5.554   1.088 -1.2188 -1.7273 -2.2860
  907MOL0     H25131   7.264   5.470   1.074  1.0357  0.5104  2.0542
  907MOL0     H25132   7.108   5.300   1.002 -1.8827 -1.4186 -0.1459
  907MOL0     H25133   7.101   5.265   1.171 -1.2730  0.1978  1.5219
  907MOL0     H25134   6.898   5.469   1.051 -0.7641  0.2964  0.0735
  907MOL0     H25135   6.897   5.370   1.199  0.6385 -2.1886 -0.1755
  907MOL0     H25136   6.852   5.180   1.115 -1.5395  0.6177  1.8865
  907MOL0     H25137   6.880   5.242   0.948 -1.0689 -2.1633  0.8317
  907MOL0     H25138   6.670   5.350   1.131 -1.1668  0.4813  0.0011
  907MOL0     H25139   6.713   5.420   0.972 -2.3728  1.4488  1.4636
  907MOL0     H25140   6.616   5.138   1.057 -0.5019  0.2396  0.1342
  907MOL0     H25141   6.630   5.181   0.891  0.3550 -1.5559  1.0885
  907MOL0     H25142   6.434   5.351   1.017  1.7345  1.0758  0.1403
  907MOL0     H25143   6.385   5.181   1.003 -1.0179 -0.3447 -1.0393
  907MOL0     H25144   6.463   5.364   0.768 -0.8306  1.0344 -0.7364
  907MOL0     H25145   6.307   5.286   0.805 -0.4423 -1.7670 -1.6049
  907MOL0     H25146   7.268   5.492   1.519  1.4817  0.1352 -0.3125
  907MOL0     H25147   7.371   5.683   1.630  3.6236  0.2549 -0.1999
  907MOL0     H25148   7.694   5.936   1.605 -1.9927 -0.1559 -1.8685
  907MOL0     H25149   7.855   6.069   1.730 -0.6092 -0.1858  2.5482
  907MOL0     H25150   9.402   6.222   1.007 -0.1978  1.5476 -1.1329
  907MOL0     H25151   9.481   6.425   0.872 -3.2196  0.6990 -1.7606
  907MOL0     H25152   9.220   6.933   0.830 -1.1160 -0.5388 -2.4887
  907MOL0     H25153   9.261   7.114   0.674 -1.1479 -2.4655  0.4881
  907MOL0     H25154   9.312   7.136   0.417 -2.3870  2.6766  0.5658
  907MOL0     H25155   9.348   7.276   0.517  0.2041 -2.1587  2.1903
  907MOL0     H25156   9.510   7.185   0.261  0.7803  0.4558 -1.4060
  907MOL0     H25157   9.519   7.335   0.339 -0.6373  1.4146  2.9483
  907MOL0     H25158   9.247   7.266   0.273  1.4386 -1.5381  1.4775
  907MOL0     H25159   9.329   7.410   0.229  0.7640  0.0463  4.7793
  907MOL0     H25160   9.323   7.148   0.071  0.8021 -0.9284 -0.3554
  907MOL0     H25161   9.430   7.294   0.036 -0.9757  2.2230  0.7636
  907MOL0     H25162   9.046   7.374  -0.144 -1.4942 -1.3101  1.0708
  907MOL0     H25163   9.656   6.986   0.615  0.1990  2.0466 -0.6066
  907MOL0     H25164   9.604   6.667   0.721 -1.5259  0.5940  1.3346
  907MOL0     H25165   9.734   6.767   0.678 -0.0695 -1.4342 -1.0309
  907MOL0     H25166   9.698   6.752   0.853 -1.1914  2.4997  0.3945
  908MOL0     O25167   9.533   6.618   7.769 -0.2413  0.4054  0.1644
  908MOL0     C25168   9.424   6.562   7.736  0.4501 -0.4606 -0.1025
  908MOL0     O25169   9.307   6.555   7.818  0.7516  0.3498 -0.2342
  908MOL0     C25170   9.270   6.633   7.930  0.0467 -0.7281 -0.2777
  908MOL0     C25171   9.129   6.668   7.952 -0.8449  0.6063 -0.6473
  908MOL0     C25172   9.094   6.741   8.060  0.0416 -0.3316 -0.0542
  908MOL0     C25173   9.188   6.786   8.158 -0.6560  0.0371 -1.2023
  908MOL0     O25174   9.144   6.874   8.256  0.4044 -0.3438 -0.1572
  908MOL0     C25175   9.233   6.989   8.281  0.7367 -0.8743  0.8964
  908MOL0     C25176   9.131   7.108   8.292 -0.9489 -0.2227  0.0492
  908MOL0     C25177   9.028   7.118   8.181  0.0091  1.2784  0.2331
  908MOL0     C25178   8.955   7.247   8.210 -0.0098  0.1966  0.2947
  908MOL0     C25179   8.813   7.256   8.145  0.4287  0.0842 -0.0423
  908MOL0     C25180   8.713   7.178   8.240  1.3963  0.6495  0.1618
  908MOL0     C25181   8.570   7.178   8.183 -0.8683 -0.1543 -0.3191
  908MOL0     C25182   8.479   7.079   8.244 -0.9162 -0.2310 -0.1021
  908MOL0     N25183   8.344   7.122   8.209 -0.8257 -0.3258 -0.1011
  908MOL0     C25184   8.291   7.153   8.082  0.0054 -0.7166  0.3262
  908MOL0     C25185   8.164   7.190   8.098  0.8409  0.0243 -0.5632
  908MOL0     C25186   8.066   7.233   7.992 -0.3016 -0.8831 -0.7916
  908MOL0     C25187   8.111   7.339   7.881 -0.4433  0.5618 -0.9072
  908MOL0     C25188   8.124   7.475   7.933 -0.2423 -0.7819  0.4483
  908MOL0     C25189   8.213   7.569   7.849 -1.8012  0.3113 -0.5615
  908MOL0     O25190   8.351   7.532   7.868  0.1273  0.3444  0.2723
  908MOL0     C25191   8.440   7.607   7.799  0.9680  0.2480  0.0082
  908MOL0     C25192   8.565   7.547   7.793  0.1637  0.0361 -0.0305
  908MOL0     C25193   8.669   7.606   7.726 -0.2236  0.1647  0.5433
  908MOL0     C25194   8.808   7.549   7.737 -1.1204  0.0434  0.1334
  908MOL0     C25195   8.647   7.725   7.652  0.3699 -0.0244 -0.3562
  908MOL0     C25196   8.740   7.775   7.553  1.1448 -0.4963  0.0034
  908MOL0     O25197   8.777   7.907   7.550  0.4089  0.9964  0.0791
  908MOL0     C25198   8.856   7.947   7.445 -0.4626 -0.0862 -0.3719
  908MOL0     C25199   8.820   8.056   7.373  0.1444 -0.2768 -0.2420
  908MOL0     C25200   8.915   8.114   7.271 -0.6661  0.6090 -0.0946
  908MOL0     C25201   9.036   8.053   7.239  1.4575 -0.0284  0.2436
  908MOL0     O25202   9.132   8.092   7.152 -0.3749 -0.6483 -0.4350
  908MOL0     C25203   9.091   8.128   7.021 -0.1159 -0.5541 -0.6323
  908MOL0     C25204   9.115   8.013   6.930  0.0470  0.9286 -0.7584
  908MOL0     C25205   9.099   8.034   6.786  0.3952  0.6638 -0.0447
  908MOL0     C25206   9.220   8.111   6.728  0.0162  0.5043  0.3554
  908MOL0     C25207   9.197   8.152   6.581 -0.2567  0.4377 -0.6781
  908MOL0     C25208   9.081   8.256   6.551  0.2838  0.3368  0.8813
  908MOL0     C25209   9.119   8.394   6.602  0.1970  0.1971 -0.3508
  908MOL0     C25210   9.017   8.495   6.553  0.6027  0.0609  0.0812
  908MOL0    Cl25211   9.068   8.657   6.569 -0.2003 -0.1822  0.2784
  908MOL0     C25212   9.079   7.953   7.330 -0.4714 -0.5670 -0.4841
  908MOL0     C25213   8.994   7.906   7.437  0.7193 -0.4081 -0.1069
  908MOL0     O25214   8.766   7.694   7.464  0.3853 -0.0525  0.2742
  908MOL0     C25215   8.520   7.789   7.660 -0.7114 -0.5965  0.7771
  908MOL0     C25216   8.421   7.733   7.738 -0.3664  0.8221  1.1092
  908MOL0     N25217   8.133   7.170   8.232 -0.1064  0.1265  0.8883
  908MOL0     N25218   8.237   7.138   8.298  0.0922 -0.8160  0.6260
  908MOL0     C25219   9.324   6.745   8.139  0.6415 -1.1306 -0.2408
  908MOL0     C25220   9.357   6.669   8.031  0.3707  0.9464 -0.9538
  908MOL0     C25221   9.404   6.510   7.600 -1.9953 -0.3764  1.0012
  908MOL0     C25222   9.320   6.402   7.578  0.9733 -0.4119  0.0779
  908MOL0     C25223   9.296   6.359   7.446 -0.8575 -0.2437 -0.0212
  908MOL0     C25224   9.355   6.417   7.332 -0.6147  0.1856 -0.3944
  908MOL0     O25225   9.329   6.354   7.210 -0.7041  0.3641  0.2101
  908MOL0     C25226   9.385   6.401   7.092 -1.0851 -0.7135  0.1953
  908MOL0     C25227   9.317   6.322   6.968 -0.1208 -0.3623 -0.1550
  908MOL0     C25228   9.357   6.360   6.825 -0.3332 -0.3728 -0.4418
  908MOL0     C25229   9.300   6.499   6.796  0.6784  0.2023  0.0878
  908MOL0     C25230   9.341   6.522   6.658 -0.0959 -0.8571  0.5979
  908MOL0     C25231   9.371   6.550   6.541 -0.4693  0.3489  0.1471
  908MOL0     C25232   9.430   6.538   7.365  0.2985  0.0686  0.6998
  908MOL0     C25233   9.470   6.578   7.491  0.3522  0.3656  0.2008
  908MOL0     C25234   9.552   6.706   7.502  0.2207 -1.3061  0.0817
  908MOL0     H25235   9.059   6.647   7.871 -1.4055 -0.6014  0.1219
  908MOL0     H25236   8.993   6.778   8.073 -0.4032 -1.9954  1.5332
  908MOL0     H25237   9.298   7.014   8.196  0.5846  1.1218  1.3247
  908MOL0     H25238   9.297   6.974   8.368 -1.8693 -0.1670  3.0532
  908MOL0     H25239   9.083   7.092   8.389  2.4507  1.6671  2.2569
  908MOL0     H25240   9.194   7.198   8.295 -0.8247 -0.2966 -0.3666
  908MOL0     H25241   9.072   7.102   8.082  0.9033 -1.4027  0.9801
  908MOL0     H25242   8.953   7.038   8.181  2.4097 -1.2901 -3.3038
  908MOL0     H25243   8.952   7.257   8.319 -0.1476 -0.4518  0.3583
  908MOL0     H25244   9.025   7.320   8.169  1.6294 -1.3347  0.2482
  908MOL0     H25245   8.813   7.224   8.040  2.3285 -1.2488  0.3020
  908MOL0     H25246   8.785   7.361   8.140  0.7909  0.1307 -2.0311
  908MOL0     H25247   8.735   7.071   8.247  0.6484  0.3502 -1.5051
  908MOL0     H25248   8.724   7.215   8.342 -2.5026 -2.1585  1.8904
  908MOL0     H25249   8.580   7.158   8.076 -1.8823 -1.8774 -0.1155
  908MOL0     H25250   8.520   7.275   8.186  1.4442  1.1544 -1.1951
  908MOL0     H25251   8.500   6.975   8.219 -2.1341 -0.4158 -0.3935
  908MOL0     H25252   8.481   7.075   8.354  3.0276 -1.4078 -0.0678
  908MOL0     H25253   8.345   7.162   7.988  0.8335 -2.1688  0.6364
  908MOL0     H25254   7.977   7.276   8.038 -1.3139 -1.7341 -1.8836
  908MOL0     H25255   8.037   7.138   7.945 -0.0240 -0.8110 -1.1163
  908MOL0     H25256   8.206   7.311   7.834 -2.1178 -1.4335 -3.3932
  908MOL0     H25257   8.039   7.371   7.806  1.9432  1.8566 -2.7967
  908MOL0     H25258   8.024   7.521   7.935 -0.5089 -1.1789 -1.3501
  908MOL0     H25259   8.160   7.488   8.035  2.8958  0.2465 -0.6477
  908MOL0     H25260   8.187   7.558   7.743  0.4313 -4.5360 -0.8748
  908MOL0     H25261   8.196   7.671   7.885 -0.5947 -0.0726  1.2515
  908MOL0     H25262   8.584   7.456   7.849 -1.3125  0.3914  1.1367
  908MOL0     H25263   8.885   7.626   7.728 -0.6392 -0.5777 -1.4654
  908MOL0     H25264   8.827   7.463   7.672 -1.0706  1.4121 -1.7460
  908MOL0     H25265   8.832   7.515   7.838  0.1479 -1.3668 -0.6092
  908MOL0     H25266   8.719   8.096   7.380 -0.4946 -1.7238 -0.8012
  908MOL0     H25267   8.908   8.210   7.222 -1.4591 -0.4823 -2.2509
  908MOL0     H25268   8.984   8.153   7.017 -0.2088  1.2013  4.9542
  908MOL0     H25269   9.149   8.214   6.986  2.6651 -2.0114  0.1183
  908MOL0     H25270   9.220   7.986   6.947  0.1034  0.3304 -1.9560
  908MOL0     H25271   9.065   7.927   6.976 -0.7333  1.3952 -0.7207
  908MOL0     H25272   9.002   8.080   6.764  0.7016  0.8832 -0.9878
  908MOL0     H25273   9.088   7.935   6.739 -1.7919 -0.2663  2.2008
  908MOL0     H25274   9.308   8.046   6.730 -0.5234 -0.2347  2.2434
  908MOL0     H25275   9.245   8.204   6.781  1.8306  0.5523 -0.4977
  908MOL0     H25276   9.291   8.184   6.534  0.5057 -2.4467 -1.3426
  908MOL0     H25277   9.181   8.051   6.543 -0.0744 -0.2215  0.9203
  908MOL0     H25278   8.989   8.216   6.595 -0.1505 -0.3040 -0.5285
  908MOL0     H25279   9.060   8.262   6.444 -0.9570  0.9826  1.1472
  908MOL0     H25280   9.220   8.417   6.569 -0.7304  3.3814 -1.2867
  908MOL0     H25281   9.105   8.391   6.710 -3.6079 -1.5558 -0.7218
  908MOL0     H25282   8.924   8.480   6.608  1.2229 -4.6877  0.2583
  908MOL0     H25283   9.000   8.473   6.448  3.1926 -3.1919  0.1924
  908MOL0     H25284   9.186   7.933   7.329  0.0187  1.7496 -0.6291
  908MOL0     H25285   9.042   7.832   7.500  3.0944 -1.4290 -2.8764
  908MOL0     H25286   8.505   7.882   7.606 -1.1756 -0.1385  1.6645
  908MOL0     H25287   8.323   7.779   7.742  0.4668  2.8781 -0.5597
  908MOL0     H25288   9.399   6.792   8.202 -0.8758 -0.8809  1.4680
  908MOL0     H25289   9.456   6.625   8.021 -0.8395 -2.4761  0.5946
  908MOL0     H25290   9.286   6.343   7.662  0.4457  0.2031  0.2997
  908MOL0     H25291   9.237   6.271   7.422 -0.4864  0.0660 -2.3850
  908MOL0     H25292   9.377   6.510   7.088  0.4491 -0.3717  3.2462
  908MOL0     H25293   9.490   6.372   7.088 -0.6802  0.5464  0.8976
  908MOL0     H25294   9.213   6.357   6.976  1.4717  5.5474 -0.5092
  908MOL0     H25295   9.318   6.213   6.976 -0.3761 -0.6588 -3.2101
  908MOL0     H25296   9.465   6.349   6.823 -0.3063 -0.5935  0.9541
  908MOL0     H25297   9.313   6.287   6.757 -2.4690 -1.6768  2.1352
  908MOL0     H25298   9.346   6.577   6.858 -0.4437  1.6009 -0.7735
  908MOL0     H25299   9.192   6.500   6.812  0.6402 -4.0342  1.3154
  908MOL0     H25300   9.385   6.561   6.435  0.3182  0.1134  0.2193
  908MOL0     H25301   9.466   6.593   7.278  0.2685 -2.2089 -0.8394
  908MOL0     H25302   9.495   6.793   7.537 -0.1556 -1.6241  0.2608
  908MOL0     H25303   9.643   6.687   7.561  1.6264  1.7235 -0.8967
  908MOL0     H25304   9.596   6.725   7.404 -1.5183 -0.0271 -0.5023
  909MOL0     O25305   8.004   8.610   5.062 -0.5034 -0.4195  0.1319
  909MOL0     C25306   8.024   8.731   5.051  0.4334 -0.7599 -0.1584
  909MOL0     O25307   8.072   8.792   4.941  0.7782 -0.1550  0.5074
  909MOL0     C25308   8.115   8.718   4.830  0.7370 -0.2761  0.6551
  909MOL0     C25309   8.029   8.642   4.753 -0.0811 -0.1115 -0.8031
  909MOL0     C25310   8.080   8.549   4.659  0.8206  0.5052 -0.9313
  909MOL0     C25311   8.215   8.536   4.645  0.1508  0.0608  0.6930
  909MOL0     O25312   8.254   8.439   4.556  0.1021  0.2842  0.2767
  909MOL0     C25313   8.393   8.432   4.504  0.3308 -0.3952  0.2732
  909MOL0     C25314   8.387   8.371   4.361 -0.4289 -0.4945 -0.4550
  909MOL0     C25315   8.347   8.222   4.346 -0.2916  0.4066 -0.6871
  909MOL0     C25316   8.458   8.113   4.367 -0.3022 -0.4455  0.0795
  909MOL0     C25317   8.543   8.084   4.231 -0.7043  0.4304  0.5441
  909MOL0     C25318   8.458   8.009   4.134 -0.1193  0.2533  0.1167
  909MOL0     C25319   8.449   7.857   4.156  0.0575  0.0770  0.0513
  909MOL0     C25320   8.578   7.782   4.111  0.4925 -0.6309 -0.3719
  909MOL0     N25321   8.564   7.638   4.131  0.1731  0.9592 -0.4989
  909MOL0     C25322   8.543   7.537   4.033 -0.4695  0.2412 -0.3319
  909MOL0     C25323   8.538   7.424   4.109 -0.6566  0.9594  0.5098
  909MOL0     C25324   8.524   7.286   4.054 -0.1189 -0.1532  0.6975
  909MOL0     C25325   8.638   7.258   3.959  0.2832  0.0939  0.3139
  909MOL0     C25326   8.773   7.205   4.017  0.0009 -0.3376 -0.0159
  909MOL0     C25327   8.755   7.078   4.104  1.1189  0.0598  0.5673
  909MOL0     O25328   8.666   6.977   4.051  0.1861  0.9741  0.7687
  909MOL0     C25329   8.631   6.861   4.119  0.6164 -0.8402 -0.2604
  909MOL0     C25330   8.516   6.799   4.081 -0.0783  0.6484  0.5751
  909MOL0     C25331   8.489   6.665   4.112 -0.2236 -0.1133 -0.4267
  909MOL0     C25332   8.364   6.603   4.052  0.0189 -0.8252  0.3953
  909MOL0     C25333   8.581   6.590   4.192 -0.0914  0.6034 -0.5248
  909MOL0     C25334   8.560   6.451   4.235  0.7605  0.6719 -0.1084
  909MOL0     O25335   8.436   6.416   4.264  0.7040 -0.1304 -0.1190
  909MOL0     C25336   8.412   6.287   4.311 -0.3591  0.4065 -1.0820
  909MOL0     C25337   8.502   6.202   4.391 -0.0334  0.0685 -0.7640
  909MOL0     C25338   8.458   6.070   4.439 -0.1020 -0.1587 -0.6586
  909MOL0     C25339   8.328   6.028   4.407 -0.2846  0.5333  0.1023
  909MOL0     O25340   8.279   5.898   4.434 -0.8269  0.3067 -0.9209
  909MOL0     C25341   8.356   5.799   4.491 -0.1133  0.9701  0.1651
  909MOL0     C25342   8.287   5.659   4.499  0.5471 -0.3679 -0.7211
  909MOL0     C25343   8.260   5.602   4.361  0.3267 -0.6192  0.1364
  909MOL0     C25344   8.196   5.465   4.377  1.1989  0.1051 -0.6470
  909MOL0     C25345   8.134   5.398   4.252  0.7284  0.2332  0.2032
  909MOL0     C25346   8.207   5.442   4.113 -0.1065  0.1510  0.1531
  909MOL0     C25347   8.153   5.362   4.003 -0.4956 -0.2780  0.4962
  909MOL0     C25348   8.233   5.400   3.873  0.2365 -0.6158 -0.9772
  909MOL0    Cl25349   8.205   5.292   3.744 -0.0769 -0.1046 -0.3435
  909MOL0     C25350   8.243   6.123   4.340 -0.0286 -0.4379  0.1739
  909MOL0     C25351   8.283   6.248   4.294 -0.1027  0.5807 -0.7904
  909MOL0     O25352   8.657   6.375   4.237  0.5023 -0.5593  0.1988
  909MOL0     C25353   8.699   6.656   4.231 -0.1108 -0.1405  1.1723
  909MOL0     C25354   8.727   6.791   4.195  0.2007  0.5061  0.9912
  909MOL0     N25355   8.558   7.451   4.236 -0.3422 -0.0044 -0.7679
  909MOL0     N25356   8.575   7.577   4.251 -0.0899 -0.8999 -0.0557
  909MOL0     C25357   8.294   8.619   4.718 -0.4588  0.8661 -0.6168
  909MOL0     C25358   8.246   8.712   4.807 -0.5662  0.2891  0.3423
  909MOL0     C25359   8.043   8.813   5.172  0.1096 -0.3961 -0.1092
  909MOL0     C25360   8.153   8.900   5.193  0.4169 -0.4206  0.9262
  909MOL0     C25361   8.165   8.969   5.307  0.3341  0.0428 -0.4715
  909MOL0     C25362   8.065   8.964   5.403 -0.4794 -0.0901 -0.5356
  909MOL0     O25363   8.094   9.027   5.526  0.6007  0.3975 -0.0639
  909MOL0     C25364   8.007   8.985   5.640 -0.6893 -0.5694 -0.1891
  909MOL0     C25365   8.058   9.077   5.755  0.7699  0.0249 -0.0274
  909MOL0     C25366   8.192   9.028   5.806 -0.4122  0.0647 -0.7429
  909MOL0     C25367   8.208   9.084   5.943 -0.2755  0.0488 -0.2041
  909MOL0     C25368   8.262   9.214   5.933 -0.7517  0.7472  0.4829
  909MOL0     C25369   8.314   9.326   5.922  0.3512 -0.6767 -0.5845
  909MOL0     C25370   7.953   8.893   5.387  0.4510  0.4510 -0.1109
  909MOL0     C25371   7.935   8.815   5.269 -0.5738 -0.4465 -0.9625
  909MOL0     C25372   7.800   8.749   5.236 -0.5906 -0.2006  0.7765
  909MOL0     H25373   7.921   8.654   4.756  0.1397  1.7626  0.7487
  909MOL0     H25374   8.010   8.484   4.606 -1.1376  0.1038  1.9235
  909MOL0     H25375   8.456   8.367   4.566 -1.5536 -1.2435  1.3725
  909MOL0     H25376   8.437   8.532   4.497 -0.0618 -0.1801  0.8004
  909MOL0     H25377   8.332   8.432   4.289  0.0856 -1.4353 -1.6722
  909MOL0     H25378   8.488   8.377   4.320 -0.5790 -0.5124 -0.8266
  909MOL0     H25379   8.269   8.205   4.421 -1.0980 -2.6536 -2.0840
  909MOL0     H25380   8.296   8.204   4.251  1.3593 -2.6135 -1.1144
  909MOL0     H25381   8.523   8.138   4.450 -0.9631  0.8648  0.2387
  909MOL0     H25382   8.405   8.021   4.396  0.0467 -0.4342  0.7533
  909MOL0     H25383   8.628   8.019   4.252 -2.2045 -2.5644 -1.9250
  909MOL0     H25384   8.573   8.181   4.189 -3.4310  0.5973 -1.3219
  909MOL0     H25385   8.362   8.053   4.106 -1.2587 -1.4848  1.0758
  909MOL0     H25386   8.518   8.027   4.044  2.5499  3.0355  2.2602
  909MOL0     H25387   8.362   7.822   4.100  1.9767 -3.5479 -1.0549
  909MOL0     H25388   8.445   7.839   4.264  3.3250  1.3431  0.5125
  909MOL0     H25389   8.600   7.795   4.004  2.5881  1.1953  0.2229
  909MOL0     H25390   8.663   7.817   4.170 -1.7982 -0.0407  2.8476
  909MOL0     H25391   8.536   7.560   3.927 -1.5458  0.2907 -0.2541
  909MOL0     H25392   8.437   7.292   3.989  0.0235  0.1930  0.5397
  909MOL0     H25393   8.512   7.214   4.136 -0.2851  1.6675  2.3228
  909MOL0     H25394   8.607   7.185   3.884 -3.0702  2.2905 -0.6508
  909MOL0     H25395   8.663   7.345   3.897  0.0289 -1.9096 -2.8182
  909MOL0     H25396   8.830   7.182   3.927 -2.9913  0.8038 -2.3809
  909MOL0     H25397   8.816   7.290   4.070 -2.5488 -0.4901  2.5456
  909MOL0     H25398   8.857   7.052   4.135  1.4418  1.2675  0.5598
  909MOL0     H25399   8.709   7.112   4.197 -1.9089  1.5403 -1.3051
  909MOL0     H25400   8.448   6.863   4.026 -0.5526 -0.8884 -0.7009
  909MOL0     H25401   8.316   6.671   3.980  0.2439  0.8758  1.7793
  909MOL0     H25402   8.293   6.578   4.132 -0.5381  4.5183  1.9820
  909MOL0     H25403   8.390   6.513   3.996 -0.9767  0.6564 -2.6808
  909MOL0     H25404   8.591   6.245   4.436  0.5300 -0.9853 -0.8358
  909MOL0     H25405   8.515   6.006   4.506  1.2851  0.2635 -1.4016
  909MOL0     H25406   8.453   5.786   4.442 -1.5447 -2.3903 -2.1311
  909MOL0     H25407   8.372   5.825   4.596 -0.8280  2.4049 -0.0549
  909MOL0     H25408   8.351   5.585   4.548  1.6448  1.5451  0.8431
  909MOL0     H25409   8.191   5.660   4.551  0.7145 -0.9757 -0.3890
  909MOL0     H25410   8.354   5.598   4.306  1.9397  0.5322  2.6218
  909MOL0     H25411   8.186   5.660   4.306  0.1108 -1.9458 -1.0427
  909MOL0     H25412   8.116   5.465   4.451  1.4585 -2.9557 -0.2310
  909MOL0     H25413   8.278   5.404   4.415  1.0492  0.2332 -0.1188
  909MOL0     H25414   8.147   5.289   4.255 -0.6376  0.0271 -0.5283
  909MOL0     H25415   8.027   5.420   4.246  0.5549 -0.4015  0.8489
  909MOL0     H25416   8.314   5.431   4.130  0.2258 -0.6089 -2.1243
  909MOL0     H25417   8.183   5.545   4.085 -0.1198  0.0490 -0.2106
  909MOL0     H25418   8.049   5.395   3.990  0.0303  0.9316 -0.9633
  909MOL0     H25419   8.167   5.257   4.031  3.8147  0.3715  1.4759
  909MOL0     H25420   8.340   5.399   3.895 -0.0360 -2.7613  0.5423
  909MOL0     H25421   8.198   5.497   3.835 -1.6913 -0.6637  0.5320
  909MOL0     H25422   8.140   6.098   4.319  0.0202 -0.5518  0.0714
  909MOL0     H25423   8.223   6.308   4.226 -0.9903 -1.5629 -2.0031
  909MOL0     H25424   8.778   6.604   4.284  1.3848 -2.3972 -2.8803
  909MOL0     H25425   8.823   6.832   4.223 -0.1413  2.5931 -0.6429
  909MOL0     H25426   8.400   8.600   4.703 -0.2131  2.5731 -1.3023
  909MOL0     H25427   8.332   8.759   4.853  0.0686 -1.7908  1.3990
  909MOL0     H25428   8.234   8.907   5.120  1.2716  2.9293  2.0034
  909MOL0     H25429   8.256   9.013   5.346  2.2577 -4.3339  0.5162
  909MOL0     H25430   7.902   9.007   5.620 -0.7666  0.2319  0.9766
  909MOL0     H25431   8.008   8.878   5.658  0.4253 -0.7708 -1.3357
  909MOL0     H25432   7.986   9.076   5.837  1.4915 -2.9948  0.6917
  909MOL0     H25433   8.060   9.180   5.719 -0.7025  0.7308  1.7813
  909MOL0     H25434   8.185   8.919   5.813 -2.4201  0.1029 -1.5750
  909MOL0     H25435   8.274   9.066   5.744  0.5259 -0.1464  0.3409
  909MOL0     H25436   8.283   9.022   5.993  0.1704  0.3710 -0.4559
  909MOL0     H25437   8.118   9.072   6.003 -0.7640 -2.3133 -1.3122
  909MOL0     H25438   8.350   9.427   5.931 -2.5822  0.3212  1.3953
  909MOL0     H25439   7.874   8.879   5.460  0.2543  0.5163 -0.3077
  909MOL0     H25440   7.824   8.643   5.252  1.2885  0.4815  3.1358
  909MOL0     H25441   7.723   8.780   5.307  0.6958  2.7096  1.0215
  909MOL0     H25442   7.774   8.765   5.131  2.2972  1.1183  0.1658
  910MOL0     O25443   9.814   0.549   9.850 -0.2939  0.0078  0.2766
  910MOL0     C25444   9.750   0.492   9.939  0.1769  0.9846  0.7611
  910MOL0     O25445   9.782   0.381  10.015 -0.2243  0.7302  0.1749
  910MOL0     C25446   9.902   0.319   9.990  0.5728 -0.0071  0.2296
  910MOL0     C25447   9.915   0.199   9.935  0.0811  0.7534 -0.4724
  910MOL0     C25448  10.038   0.127   9.942 -0.0295 -0.5661 -0.5258
  910MOL0     C25449  10.158   0.188   9.985  0.1033 -0.3763 -1.0839
  910MOL0     O25450  10.272   0.115   9.996 -0.0345  0.4824 -0.6343
  910MOL0     C25451  10.395   0.190   9.974 -0.5938  0.6775 -0.2125
  910MOL0     C25452  10.433   0.215   9.821 -0.4288  0.5049  0.6322
  910MOL0     C25453  10.410   0.088   9.729 -0.3569 -0.0948  0.5302
  910MOL0     C25454  10.481   0.089   9.595 -0.0648 -0.9168 -0.5742
  910MOL0     C25455  10.466  -0.041   9.505  0.2074  0.5575 -0.1741
  910MOL0     C25456  10.326  -0.101   9.467  0.5200  0.3190 -1.1117
  910MOL0     C25457  10.238  -0.001   9.387  0.0557  0.5566 -0.9487
  910MOL0     C25458  10.154   0.111   9.447 -0.0580  0.3212 -1.2390
  910MOL0     N25459  10.035   0.075   9.524  0.8701  0.8513 -0.0673
  910MOL0     C25460   9.901   0.118   9.516 -0.9978  0.5900  0.3549
  910MOL0     C25461   9.835   0.055   9.623 -0.4022 -0.1188  1.1516
  910MOL0     C25462   9.687   0.074   9.640 -0.0706 -0.4912  0.1061
  910MOL0     C25463   9.593  -0.018   9.550  0.2505 -0.2933  0.8604
  910MOL0     C25464   9.588  -0.161   9.600 -0.9392  0.4094 -0.3039
  910MOL0     C25465   9.514  -0.249   9.492  0.5451  0.1166  0.4819
  910MOL0     O25466   9.433  -0.361   9.547  0.2336 -0.3375 -0.0408
  910MOL0     C25467   9.303  -0.342   9.599 -0.7173 -0.6053 -0.5443
  910MOL0     C25468   9.230  -0.226   9.579 -0.2185 -0.0129  0.4823
  910MOL0     C25469   9.092  -0.218   9.600 -0.5105  0.0809 -0.6261
  910MOL0     C25470   9.027  -0.078   9.569 -0.4237  1.4727  0.1408
  910MOL0     C25471   9.027  -0.321   9.670  0.2540 -1.3943  0.6261
  910MOL0     C25472   8.883  -0.313   9.690 -0.0877  0.5613  0.7200
  910MOL0     O25473   8.805  -0.273   9.586 -0.0225 -0.1843  0.3181
  910MOL0     C25474   8.670  -0.251   9.608  0.2089 -0.1412 -0.2433
  910MOL0     C25475   8.625  -0.116   9.642 -0.7653 -0.0401  1.0016
  910MOL0     C25476   8.490  -0.089   9.672 -0.2535 -0.4109 -0.0247
  910MOL0     C25477   8.395  -0.192   9.650 -0.4789 -0.6421  1.6639
  910MOL0     O25478   8.266  -0.147   9.669 -0.5706 -0.3082 -1.1773
  910MOL0     C25479   8.173  -0.251   9.712  0.4268 -0.5894 -0.2172
  910MOL0     C25480   8.032  -0.204   9.734  0.3362 -0.1078 -0.5971
  910MOL0     C25481   7.998  -0.092   9.840  0.3514  0.5880  0.0218
  910MOL0     C25482   7.847  -0.081   9.830 -0.7091  0.2024 -0.0380
  910MOL0     C25483   7.771   0.034   9.886  0.7586  0.7267 -1.1099
  910MOL0     C25484   7.814   0.174   9.846 -0.1265 -0.2455  0.4966
  910MOL0     C25485   7.711   0.272   9.892 -1.0478 -0.6291 -0.6983
  910MOL0     C25486   7.746   0.409   9.825  1.1261  0.6747  0.1365
  910MOL0    Cl25487   7.696   0.391   9.652 -0.0118 -0.2006 -0.6267
  910MOL0     C25488   8.436  -0.318   9.622 -0.1745 -0.4110 -0.4527
  910MOL0     C25489   8.577  -0.351   9.604  0.5426 -0.6909 -0.2431
  910MOL0     O25490   8.844  -0.327   9.809 -0.2610 -0.2452  0.4964
  910MOL0     C25491   9.107  -0.429   9.715 -0.8583  0.7875 -0.0896
  910MOL0     C25492   9.242  -0.440   9.682  0.1388 -0.8690 -0.4282
  910MOL0     N25493   9.929  -0.018   9.696 -0.4824 -0.4367 -0.2641
  910MOL0     N25494  10.039  -0.005   9.636  0.4698 -0.3220 -0.4607
  910MOL0     C25495  10.140   0.319  10.042  0.1517  0.3589  0.0051
  910MOL0     C25496  10.020   0.384  10.044  0.2040  0.4866  1.1960
  910MOL0     C25497   9.631   0.571   9.998  0.6486 -0.3064  0.1188
  910MOL0     C25498   9.612   0.566  10.141  0.6174 -0.1566 -0.6734
  910MOL0     C25499   9.502   0.632  10.199 -0.1038  0.2519 -1.5419
  910MOL0     C25500   9.417   0.715  10.127 -1.0816  0.6393  0.2327
  910MOL0     O25501   9.293   0.762  10.182 -0.5525  0.3517 -0.5496
  910MOL0     C25502   9.269   0.765  10.324  0.8785  0.7866 -0.5073
  910MOL0     C25503   9.131   0.695  10.343  0.7525 -0.2053  0.7554
  910MOL0     C25504   9.023   0.783  10.270 -0.4082  0.1317 -0.0026
  910MOL0     C25505   8.881   0.739  10.314  0.3978  0.7151 -1.0928
  910MOL0     C25506   8.857   0.729  10.456  0.3560 -0.5742 -0.7238
  910MOL0     C25507   8.847   0.733  10.572 -0.1961 -0.6954  0.0930
  910MOL0     C25508   9.439   0.721   9.988 -0.4346  0.9072  0.0917
  910MOL0     C25509   9.544   0.662   9.923 -0.8719  0.0918  0.4579
  910MOL0     C25510   9.570   0.679   9.779  0.1924  0.7574  0.6305
  910MOL0     H25511   9.834   0.149   9.883  2.1828 -0.0430 -3.2548
  910MOL0     H25512  10.048   0.023   9.914  3.4740 -0.4496 -0.1623
  910MOL0     H25513  10.478   0.135  10.019  0.2127  2.0047 -0.0223
  910MOL0     H25514  10.390   0.279  10.037  0.4371  1.0789 -0.6781
  910MOL0     H25515  10.382   0.305   9.783 -0.0259  1.3724  2.0730
  910MOL0     H25516  10.537   0.249   9.818  0.3677 -1.8217 -1.2206
  910MOL0     H25517  10.455   0.015   9.797 -0.5533  0.5954  1.4243
  910MOL0     H25518  10.306   0.058   9.716 -0.7884  1.5734 -0.2121
  910MOL0     H25519  10.440   0.177   9.545 -0.1154  0.6749  2.0948
  910MOL0     H25520  10.590   0.081   9.599  0.0070  0.2273  1.7254
  910MOL0     H25521  10.516  -0.129   9.548 -1.5589 -1.2338 -1.5634
  910MOL0     H25522  10.519  -0.028   9.410  0.3929 -1.7018 -0.4517
  910MOL0     H25523  10.344  -0.184   9.399  1.4313  0.4229 -1.0205
  910MOL0     H25524  10.279  -0.138   9.559 -0.1204  0.6884 -1.2867
  910MOL0     H25525  10.172  -0.061   9.324  0.4018 -0.8405 -0.0343
  910MOL0     H25526  10.314   0.046   9.324  1.2265  0.1029  0.0861
  910MOL0     H25527  10.221   0.177   9.504  0.4813  1.2555 -2.8967
  910MOL0     H25528  10.124   0.174   9.363 -3.3693  1.1295  0.3659
  910MOL0     H25529   9.870   0.183   9.434  1.7092  0.3023 -0.9962
  910MOL0     H25530   9.661   0.180   9.631  1.1795 -0.2314 -0.6191
  910MOL0     H25531   9.660   0.077   9.746  0.9424  0.1140  0.3599
  910MOL0     H25532   9.494   0.025   9.530 -0.2905 -1.4730  0.8924
  910MOL0     H25533   9.650  -0.014   9.457  1.5545  1.4696  1.6771
  910MOL0     H25534   9.687  -0.205   9.615 -1.9075 -2.7068 -1.9789
  910MOL0     H25535   9.550  -0.170   9.702  2.5235 -1.4757  1.0009
  910MOL0     H25536   9.461  -0.198   9.411  1.7857  1.2879  0.3534
  910MOL0     H25537   9.586  -0.311   9.438 -2.0280  0.2899 -3.4976
  910MOL0     H25538   9.276  -0.149   9.517  2.1099 -1.5937  0.1458
  910MOL0     H25539   9.110  -0.013   9.542  1.8191 -1.1884  0.1980
  910MOL0     H25540   8.970  -0.043   9.656 -2.6630 -0.1454 -0.5802
  910MOL0     H25541   8.960  -0.092   9.484  1.9107  3.1816 -2.1203
  910MOL0     H25542   8.702  -0.040   9.629 -0.8763  0.6406  3.7630
  910MOL0     H25543   8.476   0.018   9.688  0.9236 -0.3359  0.6831
  910MOL0     H25544   8.157  -0.321   9.630 -3.5431  1.1205 -1.1130
  910MOL0     H25545   8.200  -0.301   9.805 -2.0567  2.4257  2.3524
  910MOL0     H25546   7.986  -0.181   9.638 -1.9625 -0.0533  0.4434
  910MOL0     H25547   7.970  -0.294   9.738 -1.4290  1.0592 -0.7996
  910MOL0     H25548   8.051   0.001   9.817 -1.2214  1.6710  0.6119
  910MOL0     H25549   8.026  -0.128   9.940  0.8000  0.1743 -0.2476
  910MOL0     H25550   7.812  -0.176   9.869  1.5253 -1.1297 -1.0649
  910MOL0     H25551   7.825  -0.075   9.723 -1.3676  0.7345  0.1199
  910MOL0     H25552   7.668   0.014   9.855  1.4354 -2.4384 -1.6967
  910MOL0     H25553   7.783   0.042   9.994 -1.1524 -0.5834 -0.7509
  910MOL0     H25554   7.824   0.184   9.738 -1.1274  0.7308  0.4735
  910MOL0     H25555   7.912   0.197   9.889  1.2543 -2.4212 -1.3090
  910MOL0     H25556   7.714   0.274  10.001  1.7117  0.9988 -0.7212
  910MOL0     H25557   7.610   0.256   9.854 -2.0709  2.3218  0.5096
  910MOL0     H25558   7.849   0.441   9.840  1.3287 -0.2934  0.8702
  910MOL0     H25559   7.680   0.487   9.865  1.5668  0.9509  0.3356
  910MOL0     H25560   8.363  -0.399   9.621 -2.6400  1.4762  3.2334
  910MOL0     H25561   8.609  -0.452   9.578 -2.6502 -2.4752  1.9201
  910MOL0     H25562   9.078  -0.501   9.791  1.6359  1.2372  1.4031
  910MOL0     H25563   9.298  -0.525   9.719  2.0719  0.8204  0.7611
  910MOL0     H25564  10.222   0.365  10.097 -0.1927  0.0310  0.8005
  910MOL0     H25565  10.023   0.487  10.079  3.1162  1.2103 -0.7387
  910MOL0     H25566   9.676   0.505  10.203 -1.1936 -0.3685  1.1236
  910MOL0     H25567   9.494   0.614  10.306  1.8385 -1.7826 -1.6529
  910MOL0     H25568   9.338   0.701  10.380  0.5947  0.6522 -0.3085
  910MOL0     H25569   9.278   0.867  10.362  0.1533  0.3319  0.9807
  910MOL0     H25570   9.109   0.698  10.450 -0.7120  2.5179  0.4629
  910MOL0     H25571   9.133   0.591  10.307  1.4587  0.9659 -3.0561
  910MOL0     H25572   9.034   0.889  10.298 -0.5042 -0.1158  0.9879
  910MOL0     H25573   9.042   0.797  10.163  1.1086 -0.3768  0.1816
  910MOL0     H25574   8.867   0.634  10.285  0.2319  0.8698 -1.5842
  910MOL0     H25575   8.804   0.801  10.266 -0.7009 -0.7237 -1.2676
  910MOL0     H25576   8.835   0.728  10.679  1.4006 -1.1350  0.2874
  910MOL0     H25577   9.366   0.787   9.942 -1.1730 -0.0392 -0.1266
  910MOL0     H25578   9.660   0.737   9.758 -0.9106  1.2244 -3.8821
  910MOL0     H25579   9.578   0.585   9.724  1.3014  1.5451 -0.6174
  910MOL0     H25580   9.494   0.740   9.729 -0.5456 -2.3437 -2.4684
  911MOL0     O25581   9.415   2.766  10.370 -0.0571  0.0595  0.4636
  911MOL0     C25582   9.315   2.800  10.427 -0.0625 -0.3542  0.0752
  911MOL0     O25583   9.306   2.805  10.560  0.4308 -0.3249  0.5423
  911MOL0     C25584   9.436   2.792  10.624  0.4155 -1.2972 -0.5161
  911MOL0     C25585   9.536   2.898  10.611 -0.2647 -0.7221  0.0664
  911MOL0     C25586   9.652   2.895  10.682  0.2269 -0.1452 -0.7608
  911MOL0     C25587   9.687   2.792  10.772  0.2133 -0.3487 -0.3878
  911MOL0     O25588   9.802   2.802  10.840  0.2191 -0.3490 -0.5736
  911MOL0     C25589   9.833   2.684  10.921 -0.6056 -0.4857 -0.8886
  911MOL0     C25590   9.974   2.712  10.974 -0.3906  0.7013 -0.3361
  911MOL0     C25591   9.992   2.787  11.108 -0.0699  1.0756  0.4219
  911MOL0     C25592  10.130   2.754  11.156 -0.6254 -0.2376  0.2370
  911MOL0     C25593  10.163   2.823  11.292 -0.3600  0.1646  1.2938
  911MOL0     C25594  10.308   2.795  11.331  0.0129 -0.6509 -0.5278
  911MOL0     C25595  10.325   2.869  11.461  0.1460  0.4944  1.0107
  911MOL0     C25596  10.474   2.892  11.496 -0.7863 -0.3780  0.0538
  911MOL0     N25597  10.522   2.788  11.584 -1.5204 -0.5107  0.3823
  911MOL0     C25598  10.504   2.775  11.721  0.0587  0.4502 -0.2638
  911MOL0     C25599  10.551   2.654  11.752 -0.5774  0.7028 -0.1732
  911MOL0     C25600  10.588   2.608  11.893 -0.5520 -0.0616 -0.1332
  911MOL0     C25601  10.457   2.552  11.953  0.3749  1.6580 -0.6384
  911MOL0     C25602  10.483   2.412  12.015  0.5500  0.2116 -0.5316
  911MOL0     C25603  10.360   2.362  12.103 -0.8373  0.3433 -0.2394
  911MOL0     O25604  10.386   2.225  12.101 -0.0974  0.1774  0.1426
  911MOL0     C25605  10.293   2.154  12.181  0.6208 -0.3852  0.7635
  911MOL0     C25606  10.172   2.206  12.227  0.5040 -0.7791 -0.3019
  911MOL0     C25607  10.081   2.125  12.307  0.0990  0.7711 -0.0009
  911MOL0     C25608   9.953   2.182  12.342  0.4411 -0.7371  0.4471
  911MOL0     C25609  10.123   1.994  12.350 -0.3361  0.5306  0.0584
  911MOL0     C25610  10.059   1.908  12.454 -0.5363  0.4458 -0.7071
  911MOL0     O25611  10.113   1.788  12.470 -0.1206  0.9076 -1.0756
  911MOL0     C25612  10.063   1.696  12.562  0.2713  0.4734 -0.1653
  911MOL0     C25613  10.078   1.569  12.514  0.4597 -0.7928  0.7259
  911MOL0     C25614  10.037   1.465  12.589 -0.8371  0.4696  0.8146
  911MOL0     C25615   9.980   1.479  12.711 -0.0340 -0.0711 -0.0901
  911MOL0     O25616   9.940   1.367  12.786  0.0246  0.7300  0.1916
  911MOL0     C25617   9.966   1.360  12.923  0.6225  0.7058  0.3134
  911MOL0     C25618   9.962   1.212  12.965  0.2899 -0.0639 -0.4068
  911MOL0     C25619   9.977   1.205  13.122  0.1473 -0.3922  0.8113
  911MOL0     C25620   9.841   1.235  13.197 -1.0248  0.3515  0.0541
  911MOL0     C25621   9.841   1.227  13.351 -0.2109 -0.2711  0.3275
  911MOL0     C25622   9.869   1.089  13.419  0.2529  0.8106  0.4980
  911MOL0     C25623   9.745   0.998  13.386 -0.6162 -0.3699 -0.1164
  911MOL0     C25624   9.722   0.875  13.482  1.2783  0.6104  0.5157
  911MOL0    Cl25625   9.582   0.785  13.391 -0.0592 -0.1801 -0.1477
  911MOL0     C25626   9.975   1.608  12.765 -1.0314 -1.2314 -0.1226
  911MOL0     C25627  10.015   1.721  12.690 -0.1927  0.6036 -0.1124
  911MOL0     O25628   9.959   1.945  12.514  0.6128 -0.6926  0.2367
  911MOL0     C25629  10.248   1.943  12.293  0.0049 -0.5645 -0.3214
  911MOL0     C25630  10.325   2.024  12.216 -0.3553  0.1407  0.6970
  911MOL0     N25631  10.586   2.586  11.638 -0.1660  0.4164  0.2506
  911MOL0     N25632  10.563   2.663  11.538  0.0787  0.2077  0.2485
  911MOL0     C25633   9.593   2.690  10.780  0.5721  0.4388 -0.1438
  911MOL0     C25634   9.475   2.683  10.704  0.6865 -1.5335 -0.4001
  911MOL0     C25635   9.197   2.852  10.353  0.2213  0.5987  0.8202
  911MOL0     C25636   9.216   2.839  10.222  0.6347  1.0581 -0.2536
  911MOL0     C25637   9.123   2.902  10.134 -0.2915  0.2295  0.3436
  911MOL0     C25638   9.014   2.966  10.182  0.4594 -0.1108 -1.3729
  911MOL0     O25639   8.924   2.989  10.080 -0.0505  0.2588  0.1108
  911MOL0     C25640   8.800   3.051  10.099 -0.9719 -0.0449  0.2787
  911MOL0     C25641   8.741   3.063   9.959 -0.7575 -0.1701  0.4334
  911MOL0     C25642   8.739   2.950   9.865  0.8860 -0.6059  0.9861
  911MOL0     C25643   8.641   2.955   9.745 -0.0601 -0.2860 -0.6484
  911MOL0     C25644   8.684   2.851   9.656 -1.0729 -0.1885 -0.8553
  911MOL0     C25645   8.710   2.757   9.576 -0.0494 -0.4302 -0.7202
  911MOL0     C25646   8.991   2.974  10.320 -0.3559  0.7565  1.0898
  911MOL0     C25647   9.093   2.922  10.408 -0.2431 -0.1830  0.6914
  911MOL0     C25648   9.072   2.928  10.563 -0.5876  0.0304 -0.1098
  911MOL0     H25649   9.507   2.972  10.536 -0.9860 -3.3964 -2.5256
  911MOL0     H25650   9.730   2.970  10.686  0.4879 -0.4624  0.3380
  911MOL0     H25651   9.831   2.604  10.847 -1.0226  1.4207 -3.0519
  911MOL0     H25652   9.763   2.666  11.003  0.8068 -0.0934  0.4547
  911MOL0     H25653  10.020   2.613  10.986  1.2504  1.2812 -1.4826
  911MOL0     H25654  10.038   2.765  10.904  3.3593  1.2428  3.1424
  911MOL0     H25655   9.981   2.896  11.105 -1.0034  1.2260  4.2704
  911MOL0     H25656   9.925   2.753  11.188 -1.3439 -2.5165 -1.9024
  911MOL0     H25657  10.142   2.646  11.169  1.1760  0.0900  1.7908
  911MOL0     H25658  10.209   2.781  11.085 -0.2706 -1.9073 -0.0253
  911MOL0     H25659  10.105   2.769  11.367 -0.1418 -0.6969  0.8561
  911MOL0     H25660  10.153   2.931  11.301 -1.2899  0.2954 -0.7185
  911MOL0     H25661  10.330   2.689  11.341  1.5846 -0.2118  1.5742
  911MOL0     H25662  10.379   2.823  11.252 -0.2353  2.3879  0.1923
  911MOL0     H25663  10.262   2.822  11.537 -2.5800  0.5360 -1.0422
  911MOL0     H25664  10.294   2.973  11.449  3.0871  1.3963  0.4278
  911MOL0     H25665  10.536   2.882  11.406  1.3674 -0.6491  1.4958
  911MOL0     H25666  10.494   2.988  11.544 -0.4309 -0.2565 -0.3307
  911MOL0     H25667  10.464   2.850  11.789 -1.0377 -1.5556  1.4361
  911MOL0     H25668  10.619   2.695  11.952 -0.8609  0.3526 -0.5703
  911MOL0     H25669  10.675   2.543  11.881  0.7262  1.9634 -3.3849
  911MOL0     H25670  10.401   2.624  12.013  0.4162  0.0141  1.4974
  911MOL0     H25671  10.383   2.528  11.876  0.4452  0.0584 -0.2475
  911MOL0     H25672  10.504   2.340  11.935 -4.2822 -1.1103 -0.9590
  911MOL0     H25673  10.562   2.418  12.091 -0.3675  1.3722  0.3649
  911MOL0     H25674  10.362   2.400  12.206 -1.2811  1.3124 -0.5836
  911MOL0     H25675  10.268   2.394  12.054 -0.9523  2.3301  1.1371
  911MOL0     H25676  10.139   2.309  12.216  3.4612  0.4071  0.9457
  911MOL0     H25677   9.880   2.105  12.315 -0.2137  0.7160 -2.4179
  911MOL0     H25678   9.924   2.277  12.296 -1.4977 -1.1748  0.6650
  911MOL0     H25679   9.953   2.200  12.450  3.0967  2.5001  0.0609
  911MOL0     H25680  10.122   1.552  12.417 -0.8112  0.8893 -0.1902
  911MOL0     H25681  10.051   1.367  12.544  2.4710 -0.7160  3.9597
  911MOL0     H25682  10.067   1.396  12.948  0.9534  1.2364 -1.6021
  911MOL0     H25683   9.892   1.416  12.982 -0.2103 -0.8872  0.8271
  911MOL0     H25684   9.865   1.168  12.938 -1.1050  3.1880 -1.1616
  911MOL0     H25685  10.048   1.160  12.921 -1.4776 -2.7726 -0.9377
  911MOL0     H25686  10.043   1.283  13.161  1.5417 -0.2642 -1.5723
  911MOL0     H25687  10.015   1.105  13.145 -1.9915 -1.7164 -0.9982
  911MOL0     H25688   9.764   1.167  13.160 -2.3472  1.4215  0.7298
  911MOL0     H25689   9.806   1.334  13.169 -0.1851 -0.0026 -2.4607
  911MOL0     H25690   9.905   1.307  13.389 -2.8736  0.6463  3.2808
  911MOL0     H25691   9.746   1.267  13.387  0.6635  2.6276 -0.2857
  911MOL0     H25692   9.868   1.091  13.528 -0.7221 -1.6493  0.5911
  911MOL0     H25693   9.961   1.045  13.381  0.2000  2.2579 -1.4543
  911MOL0     H25694   9.769   0.959  13.287  2.4194 -2.4435  1.2914
  911MOL0     H25695   9.650   1.052  13.391  0.1635  1.0187  0.4907
  911MOL0     H25696   9.689   0.913  13.579 -2.2495  0.6167 -0.5694
  911MOL0     H25697   9.804   0.804  13.493 -0.8921 -2.3371 -0.9094
  911MOL0     H25698   9.937   1.626  12.865  3.1544  2.5542  1.1203
  911MOL0     H25699  10.000   1.820  12.731 -2.7795  0.0255  0.4569
  911MOL0     H25700  10.288   1.848  12.326  0.2749  0.2895  1.9224
  911MOL0     H25701  10.421   1.985  12.183 -1.6880 -1.1204 -1.9845
  911MOL0     H25702   9.617   2.605  10.842  1.6941  0.1584 -0.9261
  911MOL0     H25703   9.410   2.597  10.696  1.8893 -2.6372  1.0167
  911MOL0     H25704   9.289   2.775  10.172  0.1027 -0.6520  1.0581
  911MOL0     H25705   9.129   2.890  10.026  1.2016  1.3158  0.2812
  911MOL0     H25706   8.732   2.985  10.153 -0.8017  0.6444  1.3740
  911MOL0     H25707   8.792   3.152  10.140  0.2544  0.7638 -1.3567
  911MOL0     H25708   8.793   3.147   9.911 -0.9608 -0.3574 -0.1127
  911MOL0     H25709   8.638   3.099   9.968 -1.3728 -0.5469 -3.5820
  911MOL0     H25710   8.840   2.945   9.823  0.3877  0.9081 -0.5086
  911MOL0     H25711   8.713   2.853   9.909  1.9117 -1.2207  0.2702
  911MOL0     H25712   8.653   3.045   9.685  0.6082  0.3586  0.4296
  911MOL0     H25713   8.543   2.953   9.793 -0.2100 -2.4584 -0.9376
  911MOL0     H25714   8.723   2.695   9.489  1.5030  1.6722 -2.0882
  911MOL0     H25715   8.891   2.997  10.356 -2.1785 -1.3503 -2.1880
  911MOL0     H25716   8.991   3.000  10.574 -0.1582  0.3387  1.1569
  911MOL0     H25717   9.048   2.834  10.615  0.5738  0.9820  2.3074
  911MOL0     H25718   9.158   2.972  10.613  0.7288 -0.7086 -1.6364
  912MOL0     O25719   7.763   1.676   3.778  0.2135  0.1971 -0.1633
  912MOL0     C25720   7.737   1.798   3.742  0.1947  0.6238 -0.1482
  912MOL0     O25721   7.627   1.869   3.796 -0.2069 -0.8103  0.0336
  912MOL0     C25722   7.533   1.792   3.858  0.5706  0.0572 -1.0190
  912MOL0     C25723   7.498   1.827   3.989  0.1363 -0.1175 -0.2720
  912MOL0     C25724   7.379   1.780   4.040 -0.1798 -0.6792  0.3926
  912MOL0     C25725   7.303   1.679   3.973  0.2621 -1.6157  0.2119
  912MOL0     O25726   7.184   1.632   4.019  0.0940  1.6619 -0.4980
  912MOL0     C25727   7.132   1.704   4.127  0.0551  0.0404 -0.8663
  912MOL0     C25728   7.014   1.630   4.187  0.0770 -1.0060 -0.4742
  912MOL0     C25729   6.897   1.633   4.088 -0.3015 -0.8728  0.3462
  912MOL0     C25730   6.796   1.735   4.123  0.1854  0.0150  0.8612
  912MOL0     C25731   6.665   1.689   4.056 -0.1735  0.4182  0.2713
  912MOL0     C25732   6.676   1.663   3.906  0.7325 -0.5516 -0.2448
  912MOL0     C25733   6.550   1.677   3.839  0.3386 -0.1465  0.1129
  912MOL0     C25734   6.440   1.585   3.885  0.0228 -0.2466  0.5065
  912MOL0     N25735   6.469   1.457   3.840 -0.0436  0.1360 -0.1803
  912MOL0     C25736   6.462   1.406   3.708 -0.0535  0.0570 -0.6623
  912MOL0     C25737   6.484   1.277   3.715 -0.1696  0.5034  0.1412
  912MOL0     C25738   6.477   1.186   3.597 -0.7165 -0.0812 -0.2547
  912MOL0     C25739   6.579   1.071   3.607 -0.7757  1.7746  0.5135
  912MOL0     C25740   6.575   0.992   3.474 -0.8417 -0.7901  0.0314
  912MOL0     C25741   6.665   0.868   3.492  0.4489  0.8927 -0.1822
  912MOL0     O25742   6.800   0.883   3.529  0.6309  1.0405  0.2357
  912MOL0     C25743   6.876   0.766   3.495  1.0027  0.1637 -0.8863
  912MOL0     C25744   6.849   0.659   3.578 -0.0676  1.0817  0.2033
  912MOL0     C25745   6.925   0.538   3.549 -0.2714  0.0567 -0.7700
  912MOL0     C25746   6.923   0.424   3.655 -1.2621 -0.2716  0.3686
  912MOL0     C25747   7.018   0.537   3.440  0.2922  1.6456 -0.9129
  912MOL0     C25748   7.076   0.405   3.404  0.3313 -0.4118  0.4099
  912MOL0     O25749   7.174   0.365   3.476  0.0943 -0.3362  0.2861
  912MOL0     C25750   7.228   0.243   3.451 -0.0982  0.0821  0.6820
  912MOL0     C25751   7.149   0.125   3.468 -0.3517  0.4202 -0.7098
  912MOL0     C25752   7.205  -0.001   3.447  0.3184 -0.1864 -0.4871
  912MOL0     C25753   7.332  -0.015   3.399 -0.5824  0.4556  1.1489
  912MOL0     O25754   7.385  -0.148   3.384  0.1329 -0.4483  0.2126
  912MOL0     C25755   7.506  -0.169   3.325 -0.0821  0.5565  0.2817
  912MOL0     C25756   7.558  -0.311   3.361 -0.1897 -0.1082  0.7064
  912MOL0     C25757   7.593  -0.325   3.511 -0.2678 -0.1274  0.1675
  912MOL0     C25758   7.605  -0.469   3.551 -1.0237  0.3733 -0.9765
  912MOL0     C25759   7.622  -0.487   3.695  0.1281  0.6105 -0.6279
  912MOL0     C25760   7.498  -0.540   3.766  0.1149  0.0373 -0.2424
  912MOL0     C25761   7.518  -0.535   3.919  0.0045 -0.3552 -0.5876
  912MOL0     C25762   7.413  -0.628   3.982  0.0704 -0.4617  1.1055
  912MOL0    Cl25763   7.246  -0.576   3.939 -0.3892 -0.0953  0.4074
  912MOL0     C25764   7.411   0.099   3.374 -0.2782  0.3665 -0.8837
  912MOL0     C25765   7.355   0.228   3.402 -0.3956 -0.3510  0.5733
  912MOL0     O25766   7.058   0.364   3.288 -0.0978 -0.0519 -0.3342
  912MOL0     C25767   7.035   0.651   3.357 -0.8786 -0.4427 -0.7636
  912MOL0     C25768   6.970   0.766   3.399  0.0357  0.7294 -0.1180
  912MOL0     N25769   6.513   1.248   3.849  0.7901  0.1392 -0.6299
  912MOL0     N25770   6.499   1.359   3.922  0.4826  0.2076 -0.2386
  912MOL0     C25771   7.347   1.627   3.858 -0.3468 -0.8934 -0.3014
  912MOL0     C25772   7.460   1.681   3.802 -0.0305  0.2614  0.3745
  912MOL0     C25773   7.813   1.864   3.642 -0.5926 -0.1375  0.2733
  912MOL0     C25774   7.748   1.948   3.552 -0.3090 -0.6158  0.5736
  912MOL0     C25775   7.808   2.009   3.444  0.5590 -0.1143  0.7297
  912MOL0     C25776   7.947   2.012   3.445 -0.4413 -0.0308  0.0387
  912MOL0     O25777   8.010   2.076   3.340  0.4060  0.3035  0.3468
  912MOL0     C25778   8.028   2.214   3.378  0.0193  0.0179  0.4446
  912MOL0     C25779   8.155   2.256   3.298  0.2911  0.0873  0.3851
  912MOL0     C25780   8.154   2.389   3.223  0.5814 -0.8081 -0.1976
  912MOL0     C25781   8.293   2.438   3.181 -0.9217 -0.2607 -0.9282
  912MOL0     C25782   8.305   2.582   3.211  0.2120 -0.9590  0.0869
  912MOL0     C25783   8.311   2.702   3.243 -0.5720  0.8255  0.1339
  912MOL0     C25784   8.023   1.940   3.544 -0.7409 -0.6860  0.0467
  912MOL0     C25785   7.953   1.851   3.637 -0.5431 -0.8842  0.3073
  912MOL0     C25786   8.043   1.774   3.742  0.3531 -0.0087 -0.5556
  912MOL0     H25787   7.549   1.909   4.037  1.3544  1.2279 -3.5609
  912MOL0     H25788   7.346   1.829   4.131  1.6555 -2.1910  1.9381
  912MOL0     H25789   7.092   1.801   4.092  0.0811 -0.3621 -2.0532
  912MOL0     H25790   7.193   1.708   4.217  0.5084 -1.8063 -1.0575
  912MOL0     H25791   7.041   1.528   4.216  1.8292 -0.5359 -0.3124
  912MOL0     H25792   6.989   1.685   4.279 -1.1181 -0.0376 -1.3488
  912MOL0     H25793   6.925   1.634   3.982 -0.0392  1.9080  0.3502
  912MOL0     H25794   6.851   1.536   4.107  2.3443 -2.1222  0.9173
  912MOL0     H25795   6.778   1.750   4.230  1.3357 -0.1035  1.0866
  912MOL0     H25796   6.838   1.831   4.089  0.9703 -1.5431 -3.1277
  912MOL0     H25797   6.583   1.760   4.070 -1.7015  0.0923 -4.9248
  912MOL0     H25798   6.633   1.592   4.096 -0.9545  0.3905 -0.3988
  912MOL0     H25799   6.753   1.729   3.865  0.7590 -1.0884 -1.0770
  912MOL0     H25800   6.726   1.566   3.895  1.9426 -0.0726  0.7435
  912MOL0     H25801   6.570   1.664   3.733  1.2058 -0.3492  0.2993
  912MOL0     H25802   6.520   1.782   3.848  2.2954  0.5791 -1.2842
  912MOL0     H25803   6.418   1.603   3.991  1.0595  2.0968  0.3850
  912MOL0     H25804   6.349   1.621   3.837 -2.4086 -4.0466  1.7615
  912MOL0     H25805   6.441   1.467   3.621 -3.0833 -2.4048 -1.8700
  912MOL0     H25806   6.498   1.261   3.521 -2.1123  1.6505  0.9845
  912MOL0     H25807   6.377   1.144   3.594 -0.4738 -0.8054  1.0717
  912MOL0     H25808   6.685   1.092   3.625  0.8075 -4.3431  0.4990
  912MOL0     H25809   6.544   1.001   3.683 -2.8768 -0.1235 -2.0105
  912MOL0     H25810   6.475   0.954   3.451 -1.9089  2.1503 -0.6724
  912MOL0     H25811   6.625   1.054   3.399  3.0570  0.7759  3.5110
  912MOL0     H25812   6.618   0.804   3.567 -1.8866  1.5780 -0.9672
  912MOL0     H25813   6.667   0.805   3.402  2.3440 -0.5857  0.8105
  912MOL0     H25814   6.777   0.665   3.660  0.4716  1.4868  0.6619
  912MOL0     H25815   6.890   0.326   3.620 -2.4222 -1.0140  3.2553
  912MOL0     H25816   6.833   0.431   3.717 -2.6854 -1.5179 -1.4135
  912MOL0     H25817   7.017   0.418   3.710  0.2329  0.7376 -1.9440
  912MOL0     H25818   7.046   0.133   3.502  0.9284  2.0705  3.4280
  912MOL0     H25819   7.146  -0.083   3.486  0.7632  0.9201  2.7864
  912MOL0     H25820   7.492  -0.158   3.217 -1.8368  3.6952  0.7235
  912MOL0     H25821   7.579  -0.099   3.365 -0.4716  0.7515  0.6552
  912MOL0     H25822   7.472  -0.374   3.339 -0.5379  1.4211 -3.1054
  912MOL0     H25823   7.644  -0.344   3.301  0.8767  0.4055  1.9076
  912MOL0     H25824   7.515  -0.272   3.567  0.9225  2.7075 -0.6572
  912MOL0     H25825   7.684  -0.267   3.533 -0.4242  1.0763 -2.0840
  912MOL0     H25826   7.698  -0.509   3.508  0.6171  1.6142  1.2388
  912MOL0     H25827   7.523  -0.530   3.512 -2.0645  0.6498  0.6868
  912MOL0     H25828   7.698  -0.566   3.706 -0.0151  0.4603 -0.7184
  912MOL0     H25829   7.645  -0.390   3.740  0.4779  0.1566  0.1881
  912MOL0     H25830   7.481  -0.645   3.742  1.8496 -0.1410 -0.8076
  912MOL0     H25831   7.423  -0.468   3.732  0.0761 -0.2859 -0.8513
  912MOL0     H25832   7.508  -0.438   3.968 -0.6526 -0.7113  0.0009
  912MOL0     H25833   7.615  -0.579   3.943 -0.1841 -0.8844 -0.7883
  912MOL0     H25834   7.417  -0.608   4.090 -2.6209  0.7300  1.0683
  912MOL0     H25835   7.436  -0.735   3.978  0.7722 -0.2694 -0.7123
  912MOL0     H25836   7.513   0.100   3.339 -0.6268  0.4367 -1.9444
  912MOL0     H25837   7.421   0.306   3.367 -2.2778 -0.1105 -2.9507
  912MOL0     H25838   7.102   0.645   3.271  0.2117 -1.1587  0.1051
  912MOL0     H25839   6.999   0.861   3.356  1.5178 -0.8276 -2.8495
  912MOL0     H25840   7.298   1.543   3.811 -0.9973 -2.9846  3.6853
  912MOL0     H25841   7.492   1.629   3.712 -1.7007  2.2640 -1.5258
  912MOL0     H25842   7.645   1.981   3.561 -0.7100 -1.6539 -0.1161
  912MOL0     H25843   7.763   2.074   3.369 -1.6476  0.2490  2.2754
  912MOL0     H25844   7.944   2.277   3.346 -1.3437  1.3303  5.6142
  912MOL0     H25845   8.039   2.224   3.486 -0.5935  0.3663  0.4806
  912MOL0     H25846   8.181   2.180   3.224 -0.8921  2.4690 -2.6739
  912MOL0     H25847   8.233   2.270   3.374  0.1045  0.0840  0.5799
  912MOL0     H25848   8.099   2.370   3.131  1.7161  1.1214 -1.3586
  912MOL0     H25849   8.107   2.459   3.293  1.9464  0.9085 -0.8968
  912MOL0     H25850   8.301   2.422   3.073 -0.9922  1.0029 -1.1341
  912MOL0     H25851   8.378   2.394   3.234  1.6307  2.7962 -2.2083
  912MOL0     H25852   8.328   2.804   3.272 -2.2124  1.0828  0.2987
  912MOL0     H25853   8.131   1.950   3.551 -0.8061 -0.6151  1.1543
  912MOL0     H25854   7.991   1.773   3.838  1.1245 -1.4660 -0.1293
  912MOL0     H25855   8.071   1.671   3.715  0.5668  0.0044 -0.3833
  912MOL0     H25856   8.133   1.833   3.758  0.5365 -0.7069  1.1383
  913MOL0     O25857   3.536   9.112   7.590  0.0746 -0.4101  0.7591
  913MOL0     C25858   3.487   9.186   7.679 -0.6008 -0.0263 -0.7355
  913MOL0     O25859   3.367   9.165   7.742  0.3315 -0.7044  0.2296
  913MOL0     C25860   3.303   9.052   7.738 -0.1625  1.1522 -0.2519
  913MOL0     C25861   3.360   8.928   7.704 -0.1093 -0.6351 -0.1511
  913MOL0     C25862   3.278   8.821   7.718  0.4935  0.0070 -0.0933
  913MOL0     C25863   3.141   8.809   7.752 -0.4674 -0.0551  0.3400
  913MOL0     O25864   3.059   8.699   7.739 -0.2653 -0.2507 -0.2909
  913MOL0     C25865   3.112   8.563   7.752  0.1674 -0.3905  0.5461
  913MOL0     C25866   2.998   8.465   7.737  0.2102  0.4153 -0.5795
  913MOL0     C25867   3.042   8.324   7.767  0.0007 -1.2343  0.3215
  913MOL0     C25868   3.078   8.290   7.907  0.6023 -0.2423 -0.1022
  913MOL0     C25869   3.106   8.141   7.924  0.3801 -0.7231 -0.3656
  913MOL0     C25870   3.209   8.085   7.832  0.0893 -0.7855 -0.6019
  913MOL0     C25871   3.220   7.941   7.864  1.0857 -0.9037 -0.7348
  913MOL0     C25872   3.322   7.920   7.977  0.5271  0.5031  0.0564
  913MOL0     N25873   3.454   7.945   7.932 -0.9957 -0.0088 -0.4516
  913MOL0     C25874   3.523   7.864   7.842  1.1257  0.0301  0.6673
  913MOL0     C25875   3.652   7.919   7.827  0.6740 -0.1513 -0.1837
  913MOL0     C25876   3.761   7.867   7.740 -0.8559  0.1365 -0.5617
  913MOL0     C25877   3.731   7.857   7.589 -0.1664  0.8803 -0.0178
  913MOL0     C25878   3.858   7.836   7.511 -0.1997  0.0952  0.2731
  913MOL0     C25879   3.841   7.777   7.370 -0.2491 -0.4854  0.4488
  913MOL0     O25880   3.731   7.843   7.298  0.3219 -0.0478 -0.0073
  913MOL0     C25881   3.739   7.976   7.266  0.1442  0.1299  0.2715
  913MOL0     C25882   3.858   8.042   7.258 -0.6358  0.1731  0.1680
  913MOL0     C25883   3.862   8.186   7.240 -1.7700 -0.6904 -0.8320
  913MOL0     C25884   4.004   8.250   7.229  1.0133 -0.2838 -0.5199
  913MOL0     C25885   3.741   8.262   7.232 -0.0107 -0.4058  0.5705
  913MOL0     C25886   3.730   8.409   7.199  0.6544  0.4808  0.3886
  913MOL0     O25887   3.618   8.471   7.238  0.5860  0.6512 -0.0647
  913MOL0     C25888   3.593   8.600   7.204  0.1134 -0.8232 -0.2438
  913MOL0     C25889   3.627   8.650   7.077  0.4019  0.6929 -0.2529
  913MOL0     C25890   3.607   8.784   7.038  0.1357 -0.4383 -0.0985
  913MOL0     C25891   3.543   8.866   7.132  0.0233  0.3138  0.3303
  913MOL0     O25892   3.532   8.996   7.090 -0.2801  0.4606  0.3762
  913MOL0     C25893   3.579   9.093   7.182 -0.0579  0.3303  0.0761
  913MOL0     C25894   3.583   9.234   7.120  0.1094 -0.6223 -0.5929
  913MOL0     C25895   3.699   9.257   7.037 -0.7043  0.2347  0.5335
  913MOL0     C25896   3.841   9.265   7.106  0.1589  1.1253  0.0728
  913MOL0     C25897   3.945   9.329   7.003  0.4058  1.2710 -0.8107
  913MOL0     C25898   4.094   9.302   7.047 -1.0065 -0.4266 -0.6219
  913MOL0     C25899   4.192   9.386   6.964  1.1811  0.3513  1.0402
  913MOL0     C25900   4.191   9.337   6.813 -1.1354  0.5546 -0.4965
  913MOL0    Cl25901   4.288   9.444   6.715 -0.2460 -0.5273  0.0249
  913MOL0     C25902   3.511   8.819   7.255 -0.3451  0.4211 -0.3965
  913MOL0     C25903   3.536   8.688   7.291  0.6895 -0.4273  1.1251
  913MOL0     O25904   3.823   8.460   7.138 -0.2622  0.5453 -0.2717
  913MOL0     C25905   3.623   8.190   7.225  0.4403  0.8678  0.5149
  913MOL0     C25906   3.620   8.045   7.241  0.1951 -1.1703  0.1215
  913MOL0     N25907   3.654   8.025   7.916 -0.6338  0.2265 -0.1920
  913MOL0     N25908   3.539   8.044   7.967  0.4243  0.0571 -0.8877
  913MOL0     C25909   3.087   8.931   7.768 -0.0882 -0.4069 -0.1683
  913MOL0     C25910   3.168   9.049   7.772  0.3294 -0.3312  0.8636
  913MOL0     C25911   3.557   9.305   7.730 -0.2527  0.2007 -0.0299
  913MOL0     C25912   3.524   9.351   7.862 -0.2096  0.2101 -0.5314
  913MOL0     C25913   3.587   9.463   7.917  0.8561 -0.2684  0.6455
  913MOL0     C25914   3.666   9.546   7.840  0.8148 -0.5790  0.1108
  913MOL0     O25915   3.721   9.643   7.908 -0.4211 -0.9923  0.2120
  913MOL0     C25916   3.786   9.753   7.847 -0.0227 -1.2890 -0.6918
  913MOL0     C25917   3.791   9.879   7.941  0.5953  0.2808  1.1272
  913MOL0     C25918   3.649   9.952   7.946 -0.3657 -0.6608 -0.2251
  913MOL0     C25919   3.628  10.034   8.073  0.0495  0.1367  0.1432
  913MOL0     C25920   3.738  10.122   8.105 -0.1397 -0.2195 -1.0532
  913MOL0     C25921   3.826  10.196   8.130  0.0144  0.1192 -0.1195
  913MOL0     C25922   3.687   9.512   7.709  0.1139 -0.1519 -0.8059
  913MOL0     C25923   3.638   9.395   7.655 -0.1162  0.1213  0.5872
  913MOL0     C25924   3.671   9.376   7.508 -0.0146 -0.1837  0.5279
  913MOL0     H25925   3.458   8.898   7.670  0.6526 -0.3823  1.6845
  913MOL0     H25926   3.340   8.733   7.700 -1.1625 -1.7408  2.2764
  913MOL0     H25927   3.166   8.559   7.847  1.8509  0.5660 -0.3052
  913MOL0     H25928   3.180   8.548   7.667 -0.6748  0.3601 -0.2879
  913MOL0     H25929   2.919   8.487   7.810  1.2546 -1.6369  1.2732
  913MOL0     H25930   2.958   8.468   7.635 -4.4069 -4.7014  0.5408
  913MOL0     H25931   2.963   8.258   7.732  1.5933 -1.9931 -2.1173
  913MOL0     H25932   3.131   8.302   7.707  0.1954  0.3603 -0.0323
  913MOL0     H25933   3.168   8.349   7.926  0.9972 -0.4938 -1.1446
  913MOL0     H25934   3.007   8.318   7.986  2.6724 -1.2940  2.2980
  913MOL0     H25935   3.009   8.091   7.925  1.1005 -2.1737  1.2578
  913MOL0     H25936   3.137   8.130   8.028 -1.5004 -1.6811  0.1313
  913MOL0     H25937   3.166   8.092   7.731 -1.8781  0.0283  0.2543
  913MOL0     H25938   3.303   8.140   7.824  0.4227 -1.2990 -0.2196
  913MOL0     H25939   3.247   7.880   7.777  0.5201 -0.5036 -1.1958
  913MOL0     H25940   3.130   7.893   7.904  0.6511  1.2169  0.9825
  913MOL0     H25941   3.301   7.991   8.058  0.3337 -1.9926  2.3634
  913MOL0     H25942   3.313   7.818   8.016 -0.6167  0.3004 -0.7096
  913MOL0     H25943   3.478   7.780   7.789  0.5786  0.6040  0.2058
  913MOL0     H25944   3.782   7.763   7.768  0.1501  0.0283 -1.6076
  913MOL0     H25945   3.846   7.931   7.767  1.3859 -3.8292  2.9846
  913MOL0     H25946   3.653   7.782   7.574  1.2664 -0.4077 -1.2714
  913MOL0     H25947   3.677   7.949   7.562  2.8351  2.8445  0.2321
  913MOL0     H25948   3.916   7.929   7.501  1.9531 -1.3149 -1.1804
  913MOL0     H25949   3.922   7.761   7.558  2.3285 -0.2909 -3.3708
  913MOL0     H25950   3.930   7.783   7.308 -0.9421 -3.4856 -1.0332
  913MOL0     H25951   3.804   7.674   7.375 -1.7176 -0.0358 -0.3610
  913MOL0     H25952   3.951   7.987   7.249 -1.0729 -0.2769 -2.4197
  913MOL0     H25953   4.018   8.288   7.128  2.7392 -0.0677 -0.2307
  913MOL0     H25954   4.093   8.192   7.254  0.5460 -1.3842 -1.3336
  913MOL0     H25955   4.011   8.334   7.299 -1.3274 -3.0162  3.4851
  913MOL0     H25956   3.664   8.578   7.006 -1.4564  0.9507 -1.5390
  913MOL0     H25957   3.638   8.822   6.941 -2.2685 -0.8945 -1.1181
  913MOL0     H25958   3.513   9.088   7.269  0.9523  2.5570  1.0560
  913MOL0     H25959   3.680   9.069   7.218  0.2444 -1.3229 -1.6501
  913MOL0     H25960   3.499   9.254   7.053  1.5855  4.7570 -1.2939
  913MOL0     H25961   3.579   9.319   7.189 -3.3303  1.0349 -2.5877
  913MOL0     H25962   3.678   9.347   6.978  1.4779  1.9588  2.2409
  913MOL0     H25963   3.695   9.171   6.969 -1.1003  0.9999 -0.4530
  913MOL0     H25964   3.858   9.160   7.133  1.4903  1.6577  1.4990
  913MOL0     H25965   3.838   9.314   7.204 -0.5121  3.3892 -1.0121
  913MOL0     H25966   3.939   9.271   6.910  0.8367  1.7148 -1.1224
  913MOL0     H25967   3.919   9.434   6.988 -2.0358  0.9680  0.7151
  913MOL0     H25968   4.111   9.194   7.041  0.2666 -0.1895 -1.9433
  913MOL0     H25969   4.113   9.320   7.153  0.8236 -2.1255 -0.6028
  913MOL0     H25970   4.294   9.380   7.001  1.0889 -0.2202  1.2072
  913MOL0     H25971   4.153   9.489   6.968  1.7127  0.5285  1.7436
  913MOL0     H25972   4.089   9.346   6.774 -1.2178 -0.9043 -0.6761
  913MOL0     H25973   4.227   9.234   6.801 -0.7610  0.5234  0.8082
  913MOL0     H25974   3.457   8.882   7.326 -1.4775 -0.3354 -0.5628
  913MOL0     H25975   3.492   8.646   7.382 -0.8512 -2.1690 -0.3398
  913MOL0     H25976   3.522   8.227   7.208  0.8934  1.4547 -1.0546
  913MOL0     H25977   3.529   7.987   7.228 -1.4786  1.2265  0.5627
  913MOL0     H25978   2.980   8.945   7.764 -0.4865 -2.5623 -5.5522
  913MOL0     H25979   3.119   9.142   7.799 -0.9135  0.0138 -2.1821
  913MOL0     H25980   3.478   9.290   7.939 -3.8671 -0.9355 -3.3256
  913MOL0     H25981   3.578   9.469   8.025 -0.0334 -2.7376  0.7815
  913MOL0     H25982   3.887   9.718   7.823 -1.2517 -3.5621 -3.0570
  913MOL0     H25983   3.729   9.794   7.763  1.4670  2.3136 -0.1176
  913MOL0     H25984   3.871   9.943   7.903  0.1282  1.0265  1.3781
  913MOL0     H25985   3.815   9.858   8.046  2.4997  3.6644  1.4727
  913MOL0     H25986   3.646  10.015   7.857 -0.6426 -2.4641 -1.5415
  913MOL0     H25987   3.574   9.878   7.916 -0.4494  0.7345 -3.9855
  913MOL0     H25988   3.624   9.956   8.150  0.4283  0.5585  0.5937
  913MOL0     H25989   3.538  10.097   8.070 -0.7176 -0.9631 -1.3464
  913MOL0     H25990   3.907  10.261   8.154 -2.9312  3.4631  1.8670
  913MOL0     H25991   3.741   9.587   7.651 -0.0359 -0.4857 -1.3739
  913MOL0     H25992   3.758   9.311   7.490 -0.1826  0.2477 -2.2254
  913MOL0     H25993   3.587   9.336   7.451  0.0404  1.1170 -0.5017
  913MOL0     H25994   3.693   9.474   7.465 -0.5347  0.3851  1.5341
  914MOL0     O25995   5.454   3.086   3.860  0.7790 -0.2424  0.8022
  914MOL0     C25996   5.486   2.993   3.780  0.8229 -0.4264 -0.4799
  914MOL0     O25997   5.590   2.994   3.698  0.4271 -0.1647 -0.1650
  914MOL0     C25998   5.684   3.093   3.694  0.0050 -0.4313 -0.1339
  914MOL0     C25999   5.642   3.227   3.680  0.4807  0.8093  0.0907
  914MOL0     C26000   5.731   3.331   3.655 -0.1090  0.2599  0.4221
  914MOL0     C26001   5.869   3.288   3.640  0.6540  0.9423  0.4531
  914MOL0     O26002   5.968   3.373   3.598  0.0343  0.7773  0.0505
  914MOL0     C26003   5.939   3.482   3.508 -0.8652 -0.1252  0.3996
  914MOL0     C26004   6.067   3.564   3.460  0.6303  0.3371 -0.0925
  914MOL0     C26005   6.027   3.697   3.400 -0.2002 -0.5847  0.1861
  914MOL0     C26006   6.153   3.762   3.333  0.0551 -0.5397 -0.3398
  914MOL0     C26007   6.203   3.679   3.211 -0.4456  0.4753  0.2020
  914MOL0     C26008   6.352   3.711   3.186  0.5455 -0.3327  0.1092
  914MOL0     C26009   6.371   3.838   3.110 -0.0235 -0.6221  0.1578
  914MOL0     C26010   6.514   3.852   3.074 -0.1307 -1.6211  1.1081
  914MOL0     N26011   6.538   3.958   2.969 -0.7018 -0.5277  0.8333
  914MOL0     C26012   6.469   4.077   2.962 -0.6337  0.4799  0.5485
  914MOL0     C26013   6.545   4.157   2.891 -0.2925 -0.8422  0.0796
  914MOL0     C26014   6.519   4.298   2.844 -0.9139  0.7161 -0.1944
  914MOL0     C26015   6.647   4.392   2.814  1.0177 -0.5246 -0.2032
  914MOL0     C26016   6.609   4.505   2.717 -0.4842 -0.5494  0.3310
  914MOL0     C26017   6.492   4.586   2.767 -0.4583  0.2140 -0.0766
  914MOL0     O26018   6.369   4.534   2.698 -0.1859 -0.0982 -0.9070
  914MOL0     C26019   6.245   4.593   2.718  0.8421  0.8756  0.5642
  914MOL0     C26020   6.219   4.695   2.803  0.3666 -0.2465  1.0830
  914MOL0     C26021   6.098   4.770   2.799  0.3187  0.7762  0.5264
  914MOL0     C26022   6.103   4.897   2.894 -0.8518  0.1610  0.0650
  914MOL0     C26023   6.009   4.736   2.697  0.8031  0.0541 -0.2686
  914MOL0     C26024   5.876   4.813   2.671 -0.0372 -0.7596 -0.0044
  914MOL0     O26025   5.797   4.766   2.572 -0.0559  0.9926  0.1326
  914MOL0     C26026   5.681   4.839   2.554  0.3993  0.5283  0.6811
  914MOL0     C26027   5.583   4.852   2.654  0.4355 -0.1184  0.4477
  914MOL0     C26028   5.454   4.898   2.620 -0.4817  0.4011  0.1998
  914MOL0     C26029   5.420   4.945   2.489  0.1623 -0.0056 -0.3789
  914MOL0     O26030   5.293   5.007   2.453  0.2176  0.4099  0.9268
  914MOL0     C26031   5.226   4.952   2.339  0.2145  0.0739  0.1296
  914MOL0     C26032   5.087   5.016   2.317 -0.2251 -0.2699 -0.1750
  914MOL0     C26033   5.008   4.931   2.206 -0.6549 -0.2642 -0.4488
  914MOL0     C26034   4.852   4.928   2.241 -0.5715  1.6722  0.5867
  914MOL0     C26035   4.786   4.806   2.176 -0.3453 -0.2005 -1.2347
  914MOL0     C26036   4.628   4.814   2.201  0.2054  1.0187  0.1957
  914MOL0     C26037   4.555   4.702   2.119 -0.4946 -0.5890  0.3484
  914MOL0     C26038   4.586   4.560   2.160 -0.0466  0.8927 -0.1172
  914MOL0    Cl26039   4.480   4.453   2.065 -0.2039  0.0996 -0.0793
  914MOL0     C26040   5.522   4.924   2.392 -0.3950  0.3108  0.0103
  914MOL0     C26041   5.648   4.881   2.427 -0.1422 -0.4075  0.5631
  914MOL0     O26042   5.866   4.917   2.731 -0.1583 -0.2992  0.0075
  914MOL0     C26043   6.029   4.621   2.621 -0.8088 -0.2694  0.3182
  914MOL0     C26044   6.152   4.562   2.624  0.3165 -0.1015 -0.0621
  914MOL0     N26045   6.658   4.089   2.848 -0.3118 -0.5700 -0.7648
  914MOL0     N26046   6.657   3.979   2.909 -0.2283  0.4343  0.9516
  914MOL0     C26047   5.912   3.155   3.669  0.7174 -0.7339 -0.6129
  914MOL0     C26048   5.820   3.059   3.694 -0.4211  1.1272  0.1878
  914MOL0     C26049   5.387   2.884   3.752  0.5573 -0.2444 -1.4111
  914MOL0     C26050   5.434   2.768   3.689 -0.4489 -0.1849  0.5612
  914MOL0     C26051   5.347   2.662   3.658  1.1544 -0.0929  0.4815
  914MOL0     C26052   5.210   2.682   3.680  0.6923  0.8433  0.3316
  914MOL0     O26053   5.107   2.594   3.650  0.6175  0.1064 -0.0325
  914MOL0     C26054   5.140   2.493   3.546  0.1549  0.9062 -0.0323
  914MOL0     C26055   5.207   2.363   3.613 -0.2164 -0.9206 -0.4886
  914MOL0     C26056   5.177   2.231   3.532 -0.5183  0.2148 -0.5092
  914MOL0     C26057   5.231   2.125   3.624 -0.5277 -0.1174 -0.0487
  914MOL0     C26058   5.383   2.129   3.613 -0.6437 -0.5759 -0.2632
  914MOL0     C26059   5.510   2.130   3.612 -0.4112 -0.2067  0.0388
  914MOL0     C26060   5.162   2.788   3.753  0.0419  0.7408 -0.3648
  914MOL0     C26061   5.248   2.895   3.787  0.5745 -0.1251 -0.1114
  914MOL0     C26062   5.168   3.002   3.853  0.1212  0.7375  0.5181
  914MOL0     H26063   5.536   3.253   3.676  0.2864  0.1693  0.6830
  914MOL0     H26064   5.699   3.430   3.625  0.2908 -0.0170 -1.0002
  914MOL0     H26065   5.872   3.555   3.556 -1.5392 -0.1902 -0.4144
  914MOL0     H26066   5.892   3.445   3.417  0.4787  0.6651 -0.6541
  914MOL0     H26067   6.132   3.565   3.549 -0.5528 -1.5356  0.8654
  914MOL0     H26068   6.110   3.506   3.378  2.9334  2.5940 -0.6155
  914MOL0     H26069   5.945   3.676   3.331 -1.4372  0.1884  1.3682
  914MOL0     H26070   5.971   3.762   3.467 -6.0461 -2.7992 -1.9681
  914MOL0     H26071   6.117   3.858   3.293  1.0339  0.4331  1.0250
  914MOL0     H26072   6.227   3.782   3.412 -0.5236 -0.3454  0.1602
  914MOL0     H26073   6.121   3.690   3.140 -1.5121 -3.7924  0.4804
  914MOL0     H26074   6.201   3.571   3.229  0.7112  0.5002  0.5406
  914MOL0     H26075   6.400   3.727   3.283 -0.2912  2.8359  0.0873
  914MOL0     H26076   6.397   3.635   3.120  0.7091  1.2091 -1.6330
  914MOL0     H26077   6.340   3.918   3.177  0.7333  1.7950 -2.1986
  914MOL0     H26078   6.310   3.848   3.019  0.1053 -2.6749 -0.2141
  914MOL0     H26079   6.584   3.877   3.154  4.5158  1.6206 -3.3042
  914MOL0     H26080   6.549   3.762   3.024  1.0455 -0.3695 -0.3962
  914MOL0     H26081   6.368   4.087   3.003 -2.3647 -0.2341 -3.1525
  914MOL0     H26082   6.455   4.341   2.921 -1.0025 -0.9965  0.7385
  914MOL0     H26083   6.458   4.287   2.754 -2.6925 -0.2784  1.0696
  914MOL0     H26084   6.689   4.437   2.905  1.1305  2.4860 -1.6013
  914MOL0     H26085   6.735   4.336   2.783  2.2836 -0.3724  2.7808
  914MOL0     H26086   6.692   4.575   2.722 -1.0052  0.0092  1.9591
  914MOL0     H26087   6.604   4.469   2.614 -0.1657  1.2520 -0.3495
  914MOL0     H26088   6.484   4.577   2.876  3.1897  2.0388  0.5094
  914MOL0     H26089   6.511   4.689   2.735  0.8281 -0.0395 -0.1438
  914MOL0     H26090   6.305   4.732   2.858  0.6405 -1.1507  1.2676
  914MOL0     H26091   6.207   4.924   2.915 -1.1689  2.2975 -0.7839
  914MOL0     H26092   6.054   4.872   2.989  4.1876 -1.3971  2.6422
  914MOL0     H26093   6.062   4.986   2.845  1.1278  1.3570  0.4752
  914MOL0     H26094   5.610   4.831   2.758  1.2876 -0.1839  0.2178
  914MOL0     H26095   5.368   4.912   2.684  1.0642 -1.7846  3.0145
  914MOL0     H26096   5.282   4.965   2.246 -2.6429  0.0516 -1.7090
  914MOL0     H26097   5.221   4.844   2.355  0.3399  0.0464 -0.0136
  914MOL0     H26098   5.033   5.022   2.412  2.4422  1.0495  1.3872
  914MOL0     H26099   5.093   5.119   2.282  0.3396 -0.5683 -0.9912
  914MOL0     H26100   5.048   4.829   2.199 -3.3689 -1.5557  1.3288
  914MOL0     H26101   5.026   4.959   2.101 -1.6669  1.6631 -0.1544
  914MOL0     H26102   4.797   5.019   2.213 -1.2422  0.8670 -0.8276
  914MOL0     H26103   4.834   4.918   2.349  0.5630  0.0104  0.6461
  914MOL0     H26104   4.807   4.794   2.070 -0.4351 -1.4395 -1.1297
  914MOL0     H26105   4.820   4.712   2.222 -0.3297  1.0140  1.4401
  914MOL0     H26106   4.596   4.911   2.161 -1.7876  0.3451  0.0518
  914MOL0     H26107   4.608   4.812   2.309  0.1249  0.9602  0.1795
  914MOL0     H26108   4.584   4.708   2.013  1.1504 -2.8171  0.6035
  914MOL0     H26109   4.452   4.739   2.128  0.3402  1.3516  2.8619
  914MOL0     H26110   4.569   4.545   2.267  0.4307  4.4925  0.5793
  914MOL0     H26111   4.690   4.529   2.145 -1.1720 -3.1016 -1.0123
  914MOL0     H26112   5.508   4.945   2.286  1.2000 -0.3491 -0.3528
  914MOL0     H26113   5.726   4.860   2.354  0.5735 -3.7489  2.1037
  914MOL0     H26114   5.959   4.591   2.544 -0.9577  0.3892  0.1938
  914MOL0     H26115   6.184   4.491   2.547  2.2464  0.7124 -0.0851
  914MOL0     H26116   6.019   3.140   3.661  1.0220 -0.2617  1.8702
  914MOL0     H26117   5.864   2.961   3.712 -0.2345  1.2174  0.2255
  914MOL0     H26118   5.531   2.766   3.640  0.1853  0.3722  1.7516
  914MOL0     H26119   5.392   2.580   3.603  2.5988 -0.4233  2.0902
  914MOL0     H26120   5.049   2.452   3.501  2.5502 -1.5104 -3.1246
  914MOL0     H26121   5.185   2.539   3.457  2.8644  2.0618  1.8203
  914MOL0     H26122   5.188   2.363   3.721 -0.9801 -1.4217 -0.6127
  914MOL0     H26123   5.315   2.376   3.605 -0.5100  2.1291 -0.6800
  914MOL0     H26124   5.070   2.218   3.514 -0.3038 -1.0125 -0.9799
  914MOL0     H26125   5.235   2.224   3.440 -1.1081  1.0467 -0.9615
  914MOL0     H26126   5.204   2.038   3.563 -0.2267  1.1188 -2.0420
  914MOL0     H26127   5.196   2.138   3.727 -1.2716  3.0427 -0.5907
  914MOL0     H26128   5.612   2.102   3.600 -0.6620 -2.3563  2.0307
  914MOL0     H26129   5.059   2.787   3.787  0.2258  0.9270  0.2021
  914MOL0     H26130   5.198   3.014   3.958  0.3086  2.9263  0.2718
  914MOL0     H26131   5.200   3.094   3.803 -2.0967  0.9713 -0.5875
  914MOL0     H26132   5.060   2.989   3.848  0.5337 -3.4470 -3.5654
  915MOL0     O26133   5.604   1.604   6.769 -0.1548 -0.0761 -0.6003
  915MOL0     C26134   5.537   1.706   6.782 -0.0849  0.8056 -0.5494
  915MOL0     O26135   5.571   1.822   6.852  0.0615  0.5127 -0.1181
  915MOL0     C26136   5.702   1.836   6.876  0.9836  0.1426  0.5693
  915MOL0     C26137   5.736   1.835   7.011  0.0246 -0.1827 -0.5905
  915MOL0     C26138   5.875   1.851   7.054 -0.2415 -0.3971 -0.4475
  915MOL0     C26139   5.978   1.871   6.954  0.2725  0.3667  0.1508
  915MOL0     O26140   6.107   1.881   6.992  0.3005 -0.1748  0.6612
  915MOL0     C26141   6.207   1.889   6.889  0.3359 -0.0715  0.3492
  915MOL0     C26142   6.338   1.920   6.958  0.3793 -0.9615 -1.2320
  915MOL0     C26143   6.415   1.789   6.995 -0.0528  0.2465 -0.7213
  915MOL0     C26144   6.368   1.720   7.116  0.7202  0.9474  0.4025
  915MOL0     C26145   6.450   1.598   7.141 -1.3068 -0.4891  0.0092
  915MOL0     C26146   6.398   1.520   7.255 -0.9456  0.3645  0.6128
  915MOL0     C26147   6.438   1.564   7.401  0.5314 -0.1372  0.6928
  915MOL0     C26148   6.365   1.482   7.501 -0.7021  0.3540  0.1673
  915MOL0     N26149   6.354   1.340   7.478  0.1238  0.1751 -0.2949
  915MOL0     C26150   6.425   1.239   7.542 -0.5143 -0.1137 -0.7446
  915MOL0     C26151   6.366   1.123   7.491  0.2550  0.5258 -1.1121
  915MOL0     C26152   6.408   0.985   7.529  0.0986  0.0290 -0.0070
  915MOL0     C26153   6.332   0.929   7.648 -0.0189 -0.2781  1.3457
  915MOL0     C26154   6.334   0.777   7.666  0.1229 -0.1584  0.5847
  915MOL0     C26155   6.219   0.691   7.602  0.9471  0.3312 -0.0204
  915MOL0     O26156   6.088   0.731   7.645 -0.0177 -0.3568 -0.5912
  915MOL0     C26157   6.055   0.689   7.772 -0.5556 -0.0688 -0.4330
  915MOL0     C26158   6.107   0.577   7.837 -0.4632  0.7452  0.3421
  915MOL0     C26159   6.070   0.533   7.961  0.0301  0.5286 -1.1046
  915MOL0     C26160   6.129   0.404   8.027 -0.1151  0.0981  0.4251
  915MOL0     C26161   5.983   0.617   8.041  0.3424 -0.1778 -0.0637
  915MOL0     C26162   5.940   0.588   8.182 -0.7860  1.1816 -0.4603
  915MOL0     O26163   5.921   0.702   8.261 -0.4706  0.2557  0.1060
  915MOL0     C26164   5.957   0.681   8.389  0.0096  0.1953  0.6181
  915MOL0     C26165   6.088   0.633   8.420  0.2552 -0.6375 -0.4669
  915MOL0     C26166   6.118   0.591   8.547 -0.3597 -0.7102  0.0094
  915MOL0     C26167   6.018   0.597   8.646 -0.3756 -0.1791 -0.1154
  915MOL0     O26168   6.038   0.571   8.782  0.2112  0.6005  0.5166
  915MOL0     C26169   6.142   0.647   8.850  0.5652  0.7190 -1.8388
  915MOL0     C26170   6.116   0.603   9.001 -0.4078 -0.5978 -0.3934
  915MOL0     C26171   5.994   0.672   9.059 -0.9403  0.3750  0.2133
  915MOL0     C26172   5.991   0.663   9.209  0.2099 -0.0019 -0.4859
  915MOL0     C26173   5.901   0.776   9.256 -0.2996 -0.1499  0.2399
  915MOL0     C26174   5.753   0.785   9.220  0.1563  0.0542  1.6109
  915MOL0     C26175   5.705   0.941   9.243 -0.9464 -0.1908 -0.1891
  915MOL0     C26176   5.550   0.959   9.228  0.8663  0.6469  0.4053
  915MOL0    Cl26177   5.499   0.915   9.058  0.2641  0.1391  0.6415
  915MOL0     C26178   5.887   0.654   8.620 -0.7735  0.2432 -0.3478
  915MOL0     C26179   5.863   0.698   8.489 -0.4452  1.0648  0.7674
  915MOL0     O26180   5.940   0.469   8.225  0.2641 -0.1118  0.7252
  915MOL0     C26181   5.925   0.726   7.978  0.9036 -0.7970  0.7863
  915MOL0     C26182   5.966   0.766   7.852  0.6263  0.4411 -0.3759
  915MOL0     N26183   6.278   1.159   7.389  0.0591  0.2353 -1.0359
  915MOL0     N26184   6.255   1.290   7.396  0.3251  0.1217 -0.6986
  915MOL0     C26185   5.939   1.864   6.816  0.8031  0.3785 -0.4509
  915MOL0     C26186   5.803   1.848   6.777 -0.7566 -0.2100 -0.1921
  915MOL0     C26187   5.401   1.684   6.739  0.1524  0.1653 -0.4830
  915MOL0     C26188   5.375   1.668   6.601 -0.4799 -0.3352 -0.2500
  915MOL0     C26189   5.233   1.673   6.561 -0.7980 -0.8914  0.1300
  915MOL0     C26190   5.126   1.683   6.649  0.3428  0.1064 -0.3250
  915MOL0     O26191   4.991   1.690   6.600 -0.0855 -0.0846  0.1684
  915MOL0     C26192   4.877   1.675   6.686 -0.0277 -0.7526  0.2205
  915MOL0     C26193   4.851   1.536   6.733  0.3858  0.4164  0.3158
  915MOL0     C26194   4.700   1.512   6.785 -0.3653 -0.2548 -0.1979
  915MOL0     C26195   4.675   1.372   6.851  0.8457 -1.3869 -0.5077
  915MOL0     C26196   4.543   1.381   6.910 -0.1806  0.9822 -0.1876
  915MOL0     C26197   4.428   1.376   6.946 -0.1289  0.7596  0.4093
  915MOL0     C26198   5.153   1.679   6.782  0.4626  1.1202 -0.6517
  915MOL0     C26199   5.288   1.685   6.834 -0.3361  0.0097  0.0560
  915MOL0     C26200   5.306   1.703   6.979  0.5531  0.2275  0.1717
  915MOL0     H26201   5.659   1.826   7.087  0.8231 -0.7343  0.1851
  915MOL0     H26202   5.910   1.856   7.156  0.5965  0.2312 -0.7506
  915MOL0     H26203   6.175   1.970   6.823  1.3058 -1.3297 -1.7686
  915MOL0     H26204   6.215   1.800   6.825 -0.7730 -0.8555  1.2504
  915MOL0     H26205   6.399   1.987   6.896 -2.0455  1.1046 -1.5964
  915MOL0     H26206   6.310   1.980   7.046 -1.0322  1.0121 -2.9157
  915MOL0     H26207   6.393   1.715   6.918 -0.1061 -0.0718 -0.4016
  915MOL0     H26208   6.521   1.816   7.001 -0.4444  1.4707  1.8097
  915MOL0     H26209   6.385   1.781   7.206  1.8918 -1.1042  1.6503
  915MOL0     H26210   6.260   1.706   7.109  0.5623  2.2476  0.0182
  915MOL0     H26211   6.553   1.634   7.154 -1.1212 -0.2325 -1.8942
  915MOL0     H26212   6.451   1.540   7.048  1.8323 -0.6283  0.0184
  915MOL0     H26213   6.289   1.525   7.257 -0.9217  2.5835 -0.6060
  915MOL0     H26214   6.435   1.418   7.243 -0.0864  0.7427 -0.0181
  915MOL0     H26215   6.390   1.662   7.406  2.9765  1.1322  0.3484
  915MOL0     H26216   6.542   1.583   7.429  0.9103 -1.0074 -0.0616
  915MOL0     H26217   6.407   1.495   7.601  2.1351  0.6612 -0.9603
  915MOL0     H26218   6.264   1.524   7.506 -2.1335 -2.6099 -1.4295
  915MOL0     H26219   6.489   1.238   7.630 -1.8351  0.9096  0.2747
  915MOL0     H26220   6.516   0.988   7.544  0.3414  0.4503 -1.6359
  915MOL0     H26221   6.398   0.921   7.441  1.6651  3.8511 -3.3388
  915MOL0     H26222   6.385   0.988   7.723 -0.2477  1.6798  0.0393
  915MOL0     H26223   6.228   0.962   7.636  0.2181 -0.6730 -3.6810
  915MOL0     H26224   6.424   0.748   7.611 -1.0000 -2.2261 -0.2914
  915MOL0     H26225   6.342   0.753   7.773 -6.2330 -0.3705  1.4292
  915MOL0     H26226   6.222   0.714   7.496 -0.5782  1.0116  0.0648
  915MOL0     H26227   6.241   0.584   7.612 -2.5338 -0.7213 -1.9583
  915MOL0     H26228   6.179   0.512   7.789  0.7083  3.6954 -2.2844
  915MOL0     H26229   6.060   0.325   8.057  3.1836 -3.2821 -0.1631
  915MOL0     H26230   6.200   0.435   8.104  0.4558  1.1754 -0.5104
  915MOL0     H26231   6.188   0.364   7.944 -1.3258 -0.5992 -0.1308
  915MOL0     H26232   6.176   0.614   8.359  1.0659 -0.2707  0.5684
  915MOL0     H26233   6.218   0.552   8.563 -0.3836 -2.6437 -3.4050
  915MOL0     H26234   6.242   0.613   8.825  1.6584  2.7132 -0.4648
  915MOL0     H26235   6.137   0.755   8.835 -3.0252  0.7821 -1.0813
  915MOL0     H26236   6.107   0.495   9.010 -1.1589 -0.6737 -1.8125
  915MOL0     H26237   6.199   0.627   9.068  0.1291  0.5033 -1.4250
  915MOL0     H26238   5.909   0.619   9.015  1.6541 -3.1437 -1.0199
  915MOL0     H26239   5.989   0.779   9.037 -2.5396  0.3429  0.3021
  915MOL0     H26240   6.092   0.649   9.249  1.4476 -1.5356 -3.7267
  915MOL0     H26241   5.944   0.566   9.228  1.9136 -0.9626 -0.9339
  915MOL0     H26242   5.895   0.763   9.364 -0.4476 -0.5918  0.1797
  915MOL0     H26243   5.950   0.873   9.244 -0.8672 -0.1823 -3.3659
  915MOL0     H26244   5.683   0.716   9.269 -0.8885  0.9859  1.4631
  915MOL0     H26245   5.747   0.762   9.114 -0.1386  2.3953  1.0720
  915MOL0     H26246   5.758   1.007   9.174  2.1564 -0.3312  1.8880
  915MOL0     H26247   5.728   0.969   9.346  1.6929 -0.1029 -0.7413
  915MOL0     H26248   5.517   1.062   9.244 -0.4356  0.4849 -1.0395
  915MOL0     H26249   5.491   0.887   9.286  1.2361 -1.5628 -1.7919
  915MOL0     H26250   5.816   0.665   8.701  0.1133 -0.1587  0.5026
  915MOL0     H26251   5.762   0.734   8.469 -0.5733  0.5203  0.4199
  915MOL0     H26252   5.864   0.788   8.043 -1.5608 -4.2273  2.0509
  915MOL0     H26253   5.911   0.854   7.819 -1.8491  0.4131  3.1135
  915MOL0     H26254   6.010   1.860   6.734 -2.0522 -0.2875 -3.0366
  915MOL0     H26255   5.777   1.831   6.673  3.2900  1.3495 -1.7001
  915MOL0     H26256   5.450   1.654   6.524  0.5681 -1.3460  0.9080
  915MOL0     H26257   5.212   1.685   6.456  2.1912  1.0901 -0.3664
  915MOL0     H26258   4.882   1.748   6.767  0.2639  0.9564 -1.2907
  915MOL0     H26259   4.793   1.717   6.630 -0.0228  1.0441  1.4831
  915MOL0     H26260   4.924   1.500   6.806  2.4938  0.3543 -1.7042
  915MOL0     H26261   4.864   1.470   6.647 -1.1988 -1.8156  1.6786
  915MOL0     H26262   4.677   1.587   6.861  3.2668  0.9712 -0.1419
  915MOL0     H26263   4.630   1.544   6.707  0.4833  1.7582 -0.2048
  915MOL0     H26264   4.747   1.363   6.932  0.0357 -2.3841  0.1310
  915MOL0     H26265   4.687   1.292   6.778 -2.3942 -2.3000 -0.2183
  915MOL0     H26266   4.329   1.381   6.988  0.5017 -1.3835  2.4179
  915MOL0     H26267   5.062   1.679   6.841 -0.8072 -1.2385 -2.4719
  915MOL0     H26268   5.251   1.620   7.024 -0.9720 -1.2207 -3.8538
  915MOL0     H26269   5.404   1.696   7.028 -0.4326  0.4866  2.3002
  915MOL0     H26270   5.256   1.794   7.013  2.3221  1.4659 -0.3741
  916MOL0     O26271   8.003   7.944   3.636  0.4142 -0.2492 -0.3117
  916MOL0     C26272   8.121   7.899   3.653  1.0528 -0.9220 -0.2847
  916MOL0     O26273   8.231   7.979   3.667  0.6178  0.7560  0.1221
  916MOL0     C26274   8.208   8.111   3.683  1.0618  0.0703  0.4037
  916MOL0     C26275   8.138   8.193   3.589 -0.5963  0.2881  0.6592
  916MOL0     C26276   8.114   8.327   3.616  0.1902 -1.4076 -0.1173
  916MOL0     C26277   8.172   8.380   3.728  0.0487 -0.4718  0.0518
  916MOL0     O26278   8.165   8.515   3.737 -0.3236 -0.1964  1.0079
  916MOL0     C26279   8.281   8.591   3.709  0.3265  0.0205  0.8382
  916MOL0     C26280   8.262   8.650   3.571 -0.7977 -0.1846  0.3852
  916MOL0     C26281   8.402   8.708   3.535  0.1329 -0.0523 -0.4312
  916MOL0     C26282   8.439   8.831   3.613 -0.2209 -0.9008 -0.1567
  916MOL0     C26283   8.581   8.877   3.577 -0.6123 -1.2613 -0.7331
  916MOL0     C26284   8.681   8.796   3.661  0.4488 -0.1055  0.1780
  916MOL0     C26285   8.811   8.872   3.674  0.0119 -0.7999 -0.3185
  916MOL0     C26286   8.821   8.967   3.792 -0.5808 -0.1022 -0.2681
  916MOL0     N26287   8.889   8.909   3.910  0.8307 -0.2415 -0.1123
  916MOL0     C26288   8.926   8.779   3.922  0.3638 -0.8666  0.3834
  916MOL0     C26289   9.018   8.791   4.021  0.3428 -0.5247 -0.8266
  916MOL0     C26290   9.103   8.681   4.071 -0.0317 -0.0957 -0.2859
  916MOL0     C26291   9.020   8.546   4.089  0.6556 -1.0653  0.7113
  916MOL0     C26292   9.100   8.424   4.131 -0.0070  0.1545 -0.8802
  916MOL0     C26293   9.200   8.382   4.015  0.3877  0.5687  0.0308
  916MOL0     O26294   9.145   8.260   3.956  0.4551 -0.1252 -0.1560
  916MOL0     C26295   9.205   8.135   3.976 -0.1422  0.0610 -0.8685
  916MOL0     C26296   9.305   8.116   4.072 -0.4262  0.1040 -0.3577
  916MOL0     C26297   9.383   8.005   4.072 -0.6825  0.0544  0.3792
  916MOL0     C26298   9.506   7.985   4.160 -0.3455 -0.3081 -0.0363
  916MOL0     C26299   9.339   7.890   3.992  0.0324  0.2124 -1.1133
  916MOL0     C26300   9.403   7.760   3.982  0.9330 -0.7389  0.8324
  916MOL0     O26301   9.385   7.690   3.860 -0.3087  0.2835 -0.3288
  916MOL0     C26302   9.438   7.559   3.853  0.1874 -0.3820  0.6936
  916MOL0     C26303   9.366   7.466   3.784 -0.1963  0.5057 -0.1500
  916MOL0     C26304   9.417   7.337   3.752 -0.1713 -0.0803  0.2746
  916MOL0     C26305   9.547   7.304   3.793  0.7930 -1.1907 -0.3097
  916MOL0     O26306   9.590   7.183   3.758  0.0749  0.4770 -0.4704
  916MOL0     C26307   9.720   7.123   3.783  1.3258  0.3043  0.5945
  916MOL0     C26308   9.742   6.990   3.710  0.6603 -0.1824  0.9318
  916MOL0     C26309   9.855   6.917   3.779  0.2472  0.3257 -0.3607
  916MOL0     C26310   9.874   6.787   3.706  0.3642  0.0874 -0.0423
  916MOL0     C26311   9.988   6.717   3.774 -0.7395 -0.1186  0.5914
  916MOL0     C26312  10.027   6.575   3.720  0.8309  0.0127 -0.8778
  916MOL0     C26313  10.030   6.554   3.570  0.6897 -1.0368  0.2705
  916MOL0     C26314  10.150   6.641   3.516  0.6504  0.4778 -0.4961
  916MOL0    Cl26315  10.299   6.568   3.578  0.4392  0.1113  0.4540
  916MOL0     C26316   9.621   7.402   3.872  0.2656 -0.9329  0.4834
  916MOL0     C26317   9.565   7.529   3.899 -0.2742 -0.5225 -0.3178
  916MOL0     O26318   9.455   7.712   4.085  0.6347 -1.5409 -0.4530
  916MOL0     C26319   9.232   7.913   3.901 -0.2164  0.6718  0.4076
  916MOL0     C26320   9.175   8.038   3.888 -1.0033 -0.3793  0.6376
  916MOL0     N26321   9.009   8.916   4.079  0.1788 -0.6443 -0.0442
  916MOL0     N26322   8.924   8.984   4.014  1.2257  0.2998  0.4286
  916MOL0     C26323   8.243   8.300   3.819  0.2051  0.0507  0.0024
  916MOL0     C26324   8.253   8.166   3.797 -0.3253  1.1956  0.4275
  916MOL0     C26325   8.143   7.756   3.626 -0.1422  0.8614 -0.3193
  916MOL0     C26326   8.120   7.684   3.501 -0.4400 -0.9809 -0.0452
  916MOL0     C26327   8.154   7.546   3.498 -0.7900 -0.2189 -0.5212
  916MOL0     C26328   8.211   7.476   3.598  0.0580  0.4580  0.6817
  916MOL0     O26329   8.230   7.338   3.583  0.8375  0.3793  0.6792
  916MOL0     C26330   8.297   7.258   3.685  0.3405 -0.3982  0.5570
  916MOL0     C26331   8.292   7.108   3.631 -0.3156  0.0822 -0.0080
  916MOL0     C26332   8.379   7.017   3.709  0.0503  0.7912  0.7252
  916MOL0     C26333   8.313   6.884   3.734 -0.2834 -0.5669 -0.4419
  916MOL0     C26334   8.199   6.887   3.822 -0.2683  0.1397  0.7026
  916MOL0     C26335   8.106   6.884   3.906 -0.9422 -0.3753 -0.4484
  916MOL0     C26336   8.228   7.538   3.717 -0.0381 -0.2154 -1.0590
  916MOL0     C26337   8.210   7.678   3.733 -0.4985  0.3130 -0.6005
  916MOL0     C26338   8.244   7.735   3.866 -0.5988  0.4897 -0.1039
  916MOL0     H26339   8.111   8.154   3.491  1.2837 -0.7305  0.4906
  916MOL0     H26340   8.058   8.400   3.558  1.7480  0.5204  0.6696
  916MOL0     H26341   8.375   8.536   3.710  0.9118  1.0017  1.6711
  916MOL0     H26342   8.296   8.662   3.791  1.7403 -1.3923  1.8795
  916MOL0     H26343   8.243   8.567   3.502 -0.8578 -0.0625  0.2543
  916MOL0     H26344   8.174   8.715   3.572 -0.4003  0.4030 -0.8114
  916MOL0     H26345   8.479   8.634   3.556 -0.2517 -0.0246  1.1831
  916MOL0     H26346   8.402   8.742   3.431 -0.6194  0.6524 -0.2183
  916MOL0     H26347   8.371   8.913   3.587 -2.6576 -2.8539 -0.3202
  916MOL0     H26348   8.433   8.819   3.721  1.8621 -1.2914 -0.0483
  916MOL0     H26349   8.606   8.983   3.593 -2.4514 -0.8225 -0.5630
  916MOL0     H26350   8.601   8.857   3.471  0.0660 -1.1677 -0.6255
  916MOL0     H26351   8.630   8.772   3.755  0.1313 -3.3952 -0.7223
  916MOL0     H26352   8.700   8.700   3.612  1.1486 -0.7812  1.6840
  916MOL0     H26353   8.851   8.925   3.587  2.7776 -2.5665 -0.2457
  916MOL0     H26354   8.877   8.786   3.686  2.9599  0.7709 -3.6277
  916MOL0     H26355   8.870   9.059   3.758 -2.9867  1.6082  0.6271
  916MOL0     H26356   8.718   8.999   3.807 -0.3443 -0.5759  3.0991
  916MOL0     H26357   8.903   8.690   3.864  3.5930 -2.1030  0.7705
  916MOL0     H26358   9.146   8.713   4.167  0.2863  0.0979 -0.4947
  916MOL0     H26359   9.188   8.663   4.005  1.5631 -0.4788  1.7553
  916MOL0     H26360   8.929   8.540   4.149  0.0047 -1.6568 -0.3133
  916MOL0     H26361   9.000   8.516   3.986  1.0105 -1.7824  0.8483
  916MOL0     H26362   9.162   8.439   4.220  2.4900 -0.3285 -2.4657
  916MOL0     H26363   9.028   8.344   4.156 -2.3478  1.9100 -1.6365
  916MOL0     H26364   9.205   8.457   3.936  0.0007  1.4911  0.8491
  916MOL0     H26365   9.304   8.375   4.049  0.2627  0.9259  0.5109
  916MOL0     H26366   9.330   8.198   4.139  2.6329 -0.8552 -0.1277
  916MOL0     H26367   9.489   7.891   4.213 -0.6437 -0.7233 -0.8586
  916MOL0     H26368   9.521   8.058   4.241  0.6788 -1.0938  0.5144
  916MOL0     H26369   9.597   7.985   4.099  1.1736 -0.3732  2.0789
  916MOL0     H26370   9.262   7.477   3.754 -0.4629  4.5296  1.6698
  916MOL0     H26371   9.352   7.267   3.701 -0.2534  2.7191 -4.0288
  916MOL0     H26372   9.791   7.201   3.752 -0.5431  1.7082 -0.3630
  916MOL0     H26373   9.714   7.110   3.891  0.6441 -1.1470  0.4092
  916MOL0     H26374   9.650   6.931   3.708 -0.3379  1.2184 -2.2001
  916MOL0     H26375   9.759   6.999   3.602 -2.5974 -2.4831  0.0641
  916MOL0     H26376   9.829   6.878   3.878  1.9990 -1.2495 -0.4704
  916MOL0     H26377   9.953   6.963   3.791  0.7927 -1.0751  0.8365
  916MOL0     H26378   9.893   6.807   3.600 -3.7677 -0.1803 -1.0179
  916MOL0     H26379   9.784   6.726   3.700  1.7974 -2.3122  1.3505
  916MOL0     H26380  10.077   6.779   3.763 -0.8267  0.2936  2.0923
  916MOL0     H26381   9.984   6.711   3.883  2.2817  1.3522  0.8833
  916MOL0     H26382   9.939   6.518   3.753  1.6176 -0.3457  0.6625
  916MOL0     H26383  10.113   6.543   3.779 -2.0302 -1.1027  3.1840
  916MOL0     H26384   9.942   6.593   3.518 -0.7514 -0.6737  2.8355
  916MOL0     H26385  10.052   6.448   3.553  0.6320 -0.7429 -1.9453
  916MOL0     H26386  10.144   6.747   3.543  0.9865  0.1775  0.8279
  916MOL0     H26387  10.148   6.635   3.406 -4.7180 -2.6775 -0.5538
  916MOL0     H26388   9.722   7.373   3.897 -0.6241 -4.6774  0.3118
  916MOL0     H26389   9.622   7.609   3.944 -1.5323  0.2003  0.0473
  916MOL0     H26390   9.201   7.833   3.834 -1.2826  0.7758  0.7602
  916MOL0     H26391   9.100   8.050   3.811  0.1673  1.0354 -0.3214
  916MOL0     H26392   8.288   8.336   3.911  2.4383  1.1644 -1.4280
  916MOL0     H26393   8.304   8.106   3.872 -3.8433 -0.0457  2.0841
  916MOL0     H26394   8.078   7.732   3.414 -2.7846 -0.8108  1.0947
  916MOL0     H26395   8.141   7.475   3.417 -4.4514 -3.2602  2.3349
  916MOL0     H26396   8.401   7.287   3.702  1.0153 -2.2349 -0.2002
  916MOL0     H26397   8.253   7.247   3.785 -0.3817  2.6539  0.6754
  916MOL0     H26398   8.319   7.108   3.525  2.7371  1.3145  0.6706
  916MOL0     H26399   8.190   7.077   3.657 -0.5706  0.5331 -0.4640
  916MOL0     H26400   8.476   6.998   3.662 -1.1393 -0.6060 -1.3580
  916MOL0     H26401   8.398   7.062   3.807 -0.9558  2.4012  0.2226
  916MOL0     H26402   8.388   6.815   3.773 -1.3889 -0.9066  1.1968
  916MOL0     H26403   8.278   6.839   3.640  1.4309 -3.5114  0.2104
  916MOL0     H26404   8.028   6.875   3.978  0.6247 -0.2141  1.3517
  916MOL0     H26405   8.270   7.475   3.795  2.9443  1.0557 -1.5101
  916MOL0     H26406   8.170   7.810   3.897 -1.6886 -0.5492 -0.1011
  916MOL0     H26407   8.258   7.658   3.942  1.3090 -1.0928 -1.9294
  916MOL0     H26408   8.346   7.774   3.859  1.3496 -3.1547  3.8458
  917MOL0     O26409  11.195   9.216   1.091  0.0089 -0.6774  1.5611
  917MOL0     C26410  11.196   9.239   1.212 -1.6257  0.0976 -0.4442
  917MOL0     O26411  11.229   9.360   1.279 -0.4942 -0.1585  0.0721
  917MOL0     C26412  11.292   9.459   1.203  0.1580 -0.0288  0.4668
  917MOL0     C26413  11.428   9.490   1.217  0.8043 -0.1406 -0.0596
  917MOL0     C26414  11.496   9.579   1.139  0.7732 -0.0959 -0.2489
  917MOL0     C26415  11.428   9.643   1.038 -1.1882  0.5247 -0.0949
  917MOL0     O26416  11.482   9.744   0.959 -0.1836  0.5911 -0.2173
  917MOL0     C26417  11.601   9.811   1.002  0.7697 -0.3838 -0.4175
  917MOL0     C26418  11.595   9.964   0.953  0.5059  0.3621 -0.3215
  917MOL0     C26419  11.564   9.981   0.805 -0.1039  0.4085 -0.3239
  917MOL0     C26420  11.666   9.915   0.702 -0.2139 -0.5495 -0.8882
  917MOL0     C26421  11.643   9.934   0.555 -0.0070  0.1482  0.0356
  917MOL0     C26422  11.735   9.860   0.460  1.1750  0.1297 -1.0051
  917MOL0     C26423  11.699   9.882   0.313 -0.6154 -0.3194 -0.0367
  917MOL0     C26424  11.795   9.803   0.225 -0.0309 -0.2001  0.8359
  917MOL0     N26425  11.758   9.798   0.084  0.1186  0.2275  0.1456
  917MOL0     C26426  11.779   9.914   0.002 -0.0563 -0.5619  0.0390
  917MOL0     C26427  11.685   9.901  -0.092  0.7476 -0.0308  0.1527
  917MOL0     C26428  11.672   9.993  -0.209 -0.0570 -0.9345  0.8953
  917MOL0     C26429  11.765   9.975  -0.330  0.2812 -0.3907 -0.3495
  917MOL0     C26430  11.773   9.836  -0.389  0.0745 -0.8438 -1.0826
  917MOL0     C26431  11.851   9.827  -0.521  0.3872 -0.3048 -0.3540
  917MOL0     O26432  11.771   9.903  -0.618 -0.2574  0.3843  0.0141
  917MOL0     C26433  11.821   9.945  -0.742 -0.3777 -0.4525  0.2068
  917MOL0     C26434  11.917   9.880  -0.812 -0.1528 -0.6928  0.7067
  917MOL0     C26435  11.952   9.916  -0.948 -0.5024 -0.6880 -0.0645
  917MOL0     C26436  12.043   9.823  -1.018 -0.0216 -0.6351  0.3791
  917MOL0     C26437  11.895  10.033  -1.011 -0.0170  0.5600 -0.4664
  917MOL0     C26438  11.912  10.079  -1.149  1.4202 -0.0427 -0.1255
  917MOL0     O26439  11.865  10.202  -1.175 -0.0789 -0.3393  0.5646
  917MOL0     C26440  11.847  10.232  -1.301  0.5980 -0.6584  0.4210
  917MOL0     C26441  11.943  10.318  -1.362  0.4354  0.7284 -0.6981
  917MOL0     C26442  11.932  10.362  -1.499  0.0585  0.2471  0.0419
  917MOL0     C26443  11.832  10.311  -1.580  0.9149 -0.8213  0.9843
  917MOL0     O26444  11.822  10.359  -1.710 -0.0610  0.2066  0.2234
  917MOL0     C26445  11.837  10.243  -1.807  0.0612 -0.5760  0.6813
  917MOL0     C26446  11.781  10.286  -1.944  0.2466  0.6473  0.0525
  917MOL0     C26447  11.630  10.333  -1.942  0.2005 -0.2727  0.0417
  917MOL0     C26448  11.542  10.257  -1.851  0.1871  0.3808 -0.0317
  917MOL0     C26449  11.401  10.273  -1.893  0.0351 -0.0184  1.4612
  917MOL0     C26450  11.304  10.166  -1.850 -0.7030 -0.1701  0.3130
  917MOL0     C26451  11.191  10.185  -1.951  0.5468 -0.6803 -2.0113
  917MOL0     C26452  11.053  10.154  -1.880  1.0780  0.3949 -0.3249
  917MOL0    Cl26453  11.030   9.975  -1.858 -0.1120 -0.4695  0.3285
  917MOL0     C26454  11.743  10.219  -1.525  0.6611 -0.0607 -0.2600
  917MOL0     C26455  11.755  10.186  -1.390  0.4946 -0.4559 -0.4029
  917MOL0     O26456  11.954   9.995  -1.232  0.2017  0.1782 -0.2404
  917MOL0     C26457  11.809  10.104  -0.919  0.2259 -0.3604  0.6387
  917MOL0     C26458  11.771  10.066  -0.791  0.2736  0.9754  0.2259
  917MOL0     N26459  11.606   9.798  -0.067  0.2475 -0.6937 -0.0170
  917MOL0     N26460  11.644   9.729   0.045 -0.7739 -0.3019 -0.1547
  917MOL0     C26461  11.292   9.611   1.013 -0.4945 -0.3402  0.1735
  917MOL0     C26462  11.230   9.523   1.093  0.1800 -0.3016 -0.2452
  917MOL0     C26463  11.167   9.126   1.312  1.4540  1.0091  0.2829
  917MOL0     C26464  11.204   9.142   1.438  0.1633 -0.3910 -0.8713
  917MOL0     C26465  11.178   9.051   1.542  0.0236  0.2663  1.7814
  917MOL0     C26466  11.106   8.934   1.522 -0.0882 -0.3367  0.1354
  917MOL0     O26467  11.081   8.852   1.623 -0.8769  0.8361 -0.5344
  917MOL0     C26468  11.032   8.724   1.601  0.3287  0.5358 -1.6190
  917MOL0     C26469  11.156   8.636   1.560 -0.2221  0.5128 -0.1639
  917MOL0     C26470  11.130   8.481   1.542 -0.6038  0.6127  0.3918
  917MOL0     C26471  11.014   8.431   1.458 -0.4101  0.2918 -0.2255
  917MOL0     C26472  11.009   8.287   1.447 -0.5077  1.3186 -0.1476
  917MOL0     C26473  11.010   8.165   1.422  0.5139 -0.0071  0.1639
  917MOL0     C26474  11.062   8.917   1.389  0.1511 -0.6524  0.7724
  917MOL0     C26475  11.096   9.002   1.286  0.5146 -0.1511  0.0506
  917MOL0     C26476  11.059   8.965   1.147  0.8867 -0.4381  0.6574
  917MOL0     H26477  11.481   9.433   1.293 -1.7931 -3.0720 -0.2507
  917MOL0     H26478  11.603   9.585   1.157  0.9610  3.2695 -1.7920
  917MOL0     H26479  11.692   9.770   0.956 -0.6263 -1.5319 -2.2990
  917MOL0     H26480  11.614   9.801   1.110 -0.9660 -0.4495 -0.1820
  917MOL0     H26481  11.513  10.007   1.011 -2.0282 -2.4045 -1.5266
  917MOL0     H26482  11.681  10.030   0.968  0.1031  1.6550 -3.0648
  917MOL0     H26483  11.468   9.931   0.790 -1.5701  1.5624  3.8200
  917MOL0     H26484  11.540  10.086   0.785 -2.4624 -0.0107  0.0096
  917MOL0     H26485  11.764   9.952   0.733 -0.1392  0.1612 -1.9399
  917MOL0     H26486  11.659   9.807   0.719 -1.2165 -0.9684 -3.4665
  917MOL0     H26487  11.639  10.041   0.531 -4.5397  0.3781  0.9468
  917MOL0     H26488  11.540   9.898   0.555 -0.2459  0.6767  2.3914
  917MOL0     H26489  11.836   9.899   0.480  0.7235  1.6311 -1.5122
  917MOL0     H26490  11.731   9.753   0.484 -1.0768  0.1204 -1.2588
  917MOL0     H26491  11.689   9.988   0.288 -0.1330  0.1027  1.4600
  917MOL0     H26492  11.605   9.827   0.300  0.3852 -2.8050  2.2172
  917MOL0     H26493  11.892   9.854   0.229 -0.7289  1.3246 -0.5493
  917MOL0     H26494  11.792   9.701   0.264  0.5126 -0.8256 -0.6915
  917MOL0     H26495  11.848   9.995   0.025  0.5669 -1.7291  2.5687
  917MOL0     H26496  11.690  10.094  -0.169 -1.7793  1.4455 -3.6804
  917MOL0     H26497  11.567   9.991  -0.240  0.2931 -0.2328 -0.4085
  917MOL0     H26498  11.725  10.035  -0.413  0.5179  1.6425  0.9353
  917MOL0     H26499  11.865  10.006  -0.299 -0.2028  2.3400 -1.2850
  917MOL0     H26500  11.827   9.767  -0.323  0.6414  0.3185 -0.2915
  917MOL0     H26501  11.670   9.807  -0.407 -1.2083  3.0983 -1.1302
  917MOL0     H26502  11.945   9.881  -0.505 -1.4548  2.6651  1.4961
  917MOL0     H26503  11.859   9.720  -0.541 -0.5312 -0.5156  0.3144
  917MOL0     H26504  11.957   9.793  -0.761  0.3047 -0.5703  0.5668
  917MOL0     H26505  11.993   9.784  -1.107 -0.5136  1.0781 -0.1256
  917MOL0     H26506  12.062   9.729  -0.965  1.2397 -0.7716 -0.2887
  917MOL0     H26507  12.142   9.861  -1.044  0.7347 -1.3807  1.9908
  917MOL0     H26508  12.026  10.350  -1.299 -0.3646  0.2829  0.6222
  917MOL0     H26509  12.017  10.419  -1.537  0.2906 -0.0584  0.1032
  917MOL0     H26510  11.940  10.206  -1.822 -0.2682 -0.5350 -2.2494
  917MOL0     H26511  11.788  10.155  -1.765 -0.4404 -0.0847  1.1177
  917MOL0     H26512  11.830  10.371  -1.992  2.1119 -1.1887 -1.5113
  917MOL0     H26513  11.805  10.197  -2.003 -0.6145 -0.5067  1.3757
  917MOL0     H26514  11.587  10.339  -2.042 -3.2016  6.5387  1.3240
  917MOL0     H26515  11.627  10.437  -1.905  2.1193 -0.3107  0.4085
  917MOL0     H26516  11.553  10.296  -1.750  0.8551 -0.4040  0.2031
  917MOL0     H26517  11.565  10.150  -1.844  3.2941  1.1042  3.7563
  917MOL0     H26518  11.361  10.366  -1.852 -3.1433 -1.1498  1.1818
  917MOL0     H26519  11.393  10.281  -2.002 -0.9950  1.7384  1.6321
  917MOL0     H26520  11.274  10.184  -1.746  1.2435  3.7149  0.4041
  917MOL0     H26521  11.352  10.069  -1.863  2.8342  1.2877  1.4996
  917MOL0     H26522  11.197  10.123  -2.041  0.7949 -0.7991 -1.9138
  917MOL0     H26523  11.181  10.290  -1.978  1.7282 -0.4039 -1.4211
  917MOL0     H26524  10.971  10.189  -1.944 -2.3264 -1.2640  2.7406
  917MOL0     H26525  11.040  10.200  -1.781 -1.1036 -0.4795 -0.1551
  917MOL0     H26526  11.658  10.181  -1.580 -0.0718 -1.9230  1.9956
  917MOL0     H26527  11.683  10.116  -1.347 -0.9012  1.6630  0.8804
  917MOL0     H26528  11.763  10.194  -0.959  2.5147 -0.0484 -1.5551
  917MOL0     H26529  11.700  10.116  -0.726  1.2190  1.8259  0.6300
  917MOL0     H26530  11.249   9.668   0.931  0.2665 -0.9858 -0.6994
  917MOL0     H26531  11.129   9.495   1.067  0.0922 -1.1157  0.8999
  917MOL0     H26532  11.269   9.225   1.462  3.1942 -1.8906 -3.1780
  917MOL0     H26533  11.199   9.085   1.643 -0.3777  2.2321  1.2321
  917MOL0     H26534  10.991   8.691   1.697 -0.5208 -2.0470 -2.7618
  917MOL0     H26535  10.951   8.706   1.530 -1.1166 -1.9976  0.4577
  917MOL0     H26536  11.227   8.647   1.643 -0.6098 -0.2569  0.2860
  917MOL0     H26537  11.215   8.671   1.475  2.8558  0.7168  1.8884
  917MOL0     H26538  11.224   8.437   1.505  1.1828  3.4952  1.2199
  917MOL0     H26539  11.121   8.426   1.636  0.5456 -1.0441 -0.4258
  917MOL0     H26540  11.003   8.478   1.360 -2.4884 -4.2633 -2.5097
  917MOL0     H26541  10.919   8.452   1.509 -1.6769 -3.2529 -0.7861
  917MOL0     H26542  10.997   8.063   1.391 -1.5057 -0.7056  2.8478
  917MOL0     H26543  10.995   8.837   1.362 -1.4111 -0.6697  4.1828
  917MOL0     H26544  11.149   8.951   1.087  2.2513  2.1586  1.9216
  917MOL0     H26545  11.009   8.869   1.132  1.1365 -0.4469 -0.1364
  917MOL0     H26546  11.007   9.050   1.103  2.2537  0.6040  0.9936
  918MOL0     O26547  10.572   9.741   6.552 -0.0384 -0.1491  0.2948
  918MOL0     C26548  10.653   9.828   6.524  0.3343 -0.2120  0.4064
  918MOL0     O26549  10.686   9.924   6.614 -0.7028  0.4521 -0.3145
  918MOL0     C26550  10.661   9.900   6.747 -0.2838 -0.6648 -1.0476
  918MOL0     C26551  10.739   9.801   6.824 -0.1629 -1.2208 -0.2769
  918MOL0     C26552  10.721   9.788   6.968  0.2423 -0.5758  0.1178
  918MOL0     C26553  10.612   9.857   7.032  0.7322  0.1556  0.4728
  918MOL0     O26554  10.601   9.860   7.163 -0.0624  0.1008 -0.5999
  918MOL0     C26555  10.640   9.737   7.221 -0.1855 -0.5757 -0.0163
  918MOL0     C26556  10.560   9.718   7.348  0.1570  0.0097 -0.1410
  918MOL0     C26557  10.467   9.591   7.346 -0.5604  0.4332 -1.0989
  918MOL0     C26558  10.334   9.599   7.280 -0.4001 -1.0931 -0.4189
  918MOL0     C26559  10.277   9.454   7.259 -0.3164 -0.5834 -0.5780
  918MOL0     C26560  10.136   9.454   7.194  1.1506 -0.2926 -0.7445
  918MOL0     C26561  10.100   9.551   7.080 -0.0302 -1.3104  0.0655
  918MOL0     C26562  10.188   9.524   6.955  0.1498  0.2373 -0.5062
  918MOL0     N26563  10.149   9.617   6.854  1.1269  0.0725  0.3816
  918MOL0     C26564  10.212   9.732   6.808 -0.0801  0.9495  0.1028
  918MOL0     C26565  10.143   9.753   6.691 -0.1167 -0.1517  0.0663
  918MOL0     C26566  10.174   9.852   6.584  0.4033  0.1447  0.5250
  918MOL0     C26567  10.170   9.993   6.637  0.2250 -0.0430  0.0536
  918MOL0     C26568  10.237  10.108   6.549 -0.9402  0.2709 -0.1998
  918MOL0     C26569  10.138  10.154   6.442  0.0848 -0.0451 -0.4688
  918MOL0     O26570  10.163  10.276   6.374 -0.5809 -0.6268 -0.0891
  918MOL0     C26571  10.283  10.292   6.304  0.5011 -0.0092  1.6018
  918MOL0     C26572  10.324  10.422   6.267 -0.0739 -0.2461 -0.0685
  918MOL0     C26573  10.427  10.439   6.175  0.0866  0.1810 -1.5495
  918MOL0     C26574  10.469  10.577   6.149 -0.0481 -0.4600 -0.3164
  918MOL0     C26575  10.502  10.330   6.123 -0.4039 -0.5732  0.0684
  918MOL0     C26576  10.611  10.344   6.022  0.3362  1.3421 -0.2170
  918MOL0     O26577  10.695  10.234   6.012 -0.3918 -0.3445  0.6568
  918MOL0     C26578  10.816  10.257   5.950 -0.3485 -0.0615 -0.2685
  918MOL0     C26579  10.836  10.212   5.828 -0.3855  1.6203 -0.4917
  918MOL0     C26580  10.950  10.231   5.767 -0.8823 -0.6515  0.1115
  918MOL0     C26581  11.056  10.303   5.827  0.1242 -0.6734 -0.7710
  918MOL0     O26582  11.166  10.332   5.754 -0.2008  0.0115 -0.3402
  918MOL0     C26583  11.243  10.212   5.732 -0.1523  0.3409  0.0087
  918MOL0     C26584  11.390  10.251   5.751  0.5883 -0.2721  0.0218
  918MOL0     C26585  11.431  10.366   5.657 -0.3768  0.0215  0.0502
  918MOL0     C26586  11.432  10.324   5.511 -0.5332 -1.2035  0.8855
  918MOL0     C26587  11.448  10.462   5.426 -0.4070  0.1362  0.3665
  918MOL0     C26588  11.600  10.503   5.410  0.4544 -0.8711 -0.3121
  918MOL0     C26589  11.629  10.613   5.304  0.7369  0.6399  0.5279
  918MOL0     C26590  11.777  10.640   5.294 -0.3118  0.3246 -0.3449
  918MOL0    Cl26591  11.862  10.497   5.240 -0.3478  0.4688  0.1946
  918MOL0     C26592  11.038  10.351   5.951  0.2977 -0.7637  0.0327
  918MOL0     C26593  10.914  10.329   6.016 -0.5162  0.8175 -0.2682
  918MOL0     O26594  10.631  10.445   5.963 -0.0492 -0.3000  0.8123
  918MOL0     C26595  10.457  10.191   6.151  0.6358 -0.7013 -0.0478
  918MOL0     C26596  10.346  10.182   6.246 -0.5620  0.0374 -0.5333
  918MOL0     N26597  10.035   9.669   6.689 -0.6805 -0.2680 -0.2735
  918MOL0     N26598  10.035   9.587   6.787 -0.0339 -0.4371  0.2750
  918MOL0     C26599  10.529   9.944   6.943  0.0102  0.8154 -0.6733
  918MOL0     C26600  10.555   9.963   6.812 -0.0337  0.5386  1.6201
  918MOL0     C26601  10.695   9.851   6.385 -0.5925 -0.0399 -0.1168
  918MOL0     C26602  10.729   9.978   6.345  0.7399  0.1620  0.5341
  918MOL0     C26603  10.785  10.009   6.222 -0.2130  0.3026 -0.6287
  918MOL0     C26604  10.833   9.908   6.138 -0.1167  0.4006 -0.2030
  918MOL0     O26605  10.909   9.941   6.027 -0.0523  0.3420  0.0230
  918MOL0     C26606  10.971   9.832   5.950 -0.0301 -0.5183  0.8459
  918MOL0     C26607  11.038   9.903   5.832 -0.8312  0.1510  0.0409
  918MOL0     C26608  11.145   9.810   5.778  0.7922 -0.3088  0.4039
  918MOL0     C26609  11.173   9.848   5.629  0.8198 -0.3985 -0.0455
  918MOL0     C26610  11.275   9.767   5.565 -0.8816 -0.0267 -0.4656
  918MOL0     C26611  11.356   9.698   5.520  0.5561 -0.0923  0.6294
  918MOL0     C26612  10.801   9.775   6.178 -0.7685 -0.3468  0.6823
  918MOL0     C26613  10.727   9.746   6.300 -0.6031 -0.1443  1.0136
  918MOL0     C26614  10.706   9.603   6.319  0.0853 -1.0153  0.5350
  918MOL0     H26615  10.806   9.742   6.763 -0.7038 -2.6024  0.4231
  918MOL0     H26616  10.783   9.711   7.012  3.6634 -0.7952 -4.3004
  918MOL0     H26617  10.746   9.727   7.245  0.1031 -0.2008 -1.0795
  918MOL0     H26618  10.612   9.650   7.161  0.7525 -0.9981  0.1508
  918MOL0     H26619  10.627   9.719   7.434 -0.5779  3.0248  0.5114
  918MOL0     H26620  10.498   9.807   7.361 -0.1343 -0.3378  0.9287
  918MOL0     H26621  10.529   9.509   7.308  0.2417  0.5656 -0.1127
  918MOL0     H26622  10.445   9.556   7.447 -2.9084  1.1884 -1.3011
  918MOL0     H26623  10.269   9.654   7.349  1.9061  0.2918  0.7402
  918MOL0     H26624  10.335   9.656   7.186 -3.3325  1.6860  0.9996
  918MOL0     H26625  10.274   9.405   7.357  1.8824 -1.8337 -1.0786
  918MOL0     H26626  10.345   9.407   7.188  0.9457  0.0980  0.1455
  918MOL0     H26627  10.130   9.351   7.156  1.2564  0.0673 -1.7617
  918MOL0     H26628  10.066   9.485   7.271  0.6033 -1.8840 -0.5627
  918MOL0     H26629  10.108   9.653   7.119  2.6280 -2.1536  2.0034
  918MOL0     H26630   9.994   9.543   7.053 -0.7086 -0.2029  2.1412
  918MOL0     H26631  10.296   9.532   6.971  0.6854 -0.3504 -3.2610
  918MOL0     H26632  10.164   9.423   6.920 -0.9132 -0.0140  0.8493
  918MOL0     H26633  10.305   9.777   6.839 -0.5095 -0.0235  3.1046
  918MOL0     H26634  10.086   9.852   6.518 -0.3843  0.1889  1.5592
  918MOL0     H26635  10.261   9.821   6.525 -1.4475 -0.8435 -1.8869
  918MOL0     H26636  10.063  10.006   6.653 -0.1892 -3.7224  1.1318
  918MOL0     H26637  10.212   9.999   6.738 -2.8115 -0.0922  1.4122
  918MOL0     H26638  10.273  10.188   6.614  2.8529 -1.9799  0.7629
  918MOL0     H26639  10.328  10.062   6.509 -0.6403 -0.0627  0.8530
  918MOL0     H26640  10.119  10.080   6.363 -1.2081 -1.4028  1.0438
  918MOL0     H26641  10.041  10.171   6.489 -1.8734 -3.5745 -2.7367
  918MOL0     H26642  10.266  10.510   6.292 -1.4422 -0.5607 -1.9005
  918MOL0     H26643  10.572  10.585   6.185 -1.5573  2.8511  4.2823
  918MOL0     H26644  10.417  10.651   6.211 -4.0273 -1.4551 -2.1718
  918MOL0     H26645  10.453  10.614   6.047 -0.7012  0.6430  0.1680
  918MOL0     H26646  10.754  10.152   5.789 -0.6439  0.1263  2.1021
  918MOL0     H26647  10.969  10.180   5.673 -0.5586 -2.6559  1.2079
  918MOL0     H26648  11.227  10.144   5.816 -1.2183 -1.0163 -1.2276
  918MOL0     H26649  11.222  10.157   5.639  1.3173 -1.6469  0.7867
  918MOL0     H26650  11.406  10.283   5.854 -3.3201  0.4067  0.5646
  918MOL0     H26651  11.451  10.165   5.719  0.4978 -0.3741  0.1218
  918MOL0     H26652  11.528  10.397   5.697 -0.0106 -0.9056 -0.0921
  918MOL0     H26653  11.371  10.454   5.682  0.8578  0.5234  1.3774
  918MOL0     H26654  11.340  10.270   5.487 -0.5678 -0.0765 -1.7766
  918MOL0     H26655  11.521  10.263   5.493 -0.4124 -0.4470 -1.3256
  918MOL0     H26656  11.422  10.442   5.322  4.8299  0.0802 -1.1788
  918MOL0     H26657  11.389  10.539   5.478 -1.0362  1.5704 -2.3061
  918MOL0     H26658  11.642  10.407   5.376 -0.0282 -0.3566 -2.4895
  918MOL0     H26659  11.644  10.527   5.507 -0.7466  2.1272 -0.4207
  918MOL0     H26660  11.581  10.711   5.310 -2.6973 -0.5627 -2.7551
  918MOL0     H26661  11.619  10.577   5.201  3.2315  0.7857  0.1891
  918MOL0     H26662  11.823  10.675   5.387  1.2952 -1.4305 -0.4156
  918MOL0     H26663  11.787  10.716   5.216  3.8805 -0.7794 -1.1522
  918MOL0     H26664  11.109  10.418   5.999  1.6734 -2.1905  0.0693
  918MOL0     H26665  10.884  10.381   6.107  0.7186  1.9193 -0.4581
  918MOL0     H26666  10.504  10.109   6.098  0.7298  0.1712 -1.3679
  918MOL0     H26667  10.297  10.086   6.256  2.5231 -1.4067  3.0187
  918MOL0     H26668  10.442  10.000   6.977  1.2271  2.5253 -0.2640
  918MOL0     H26669  10.482  10.022   6.756  0.6665 -0.2485 -0.1891
  918MOL0     H26670  10.711  10.057   6.418  0.2224 -1.5321  2.3035
  918MOL0     H26671  10.814  10.111   6.203  4.8281 -1.1243 -2.2489
  918MOL0     H26672  11.045   9.791   6.019  0.1859  2.0390  2.2756
  918MOL0     H26673  10.908   9.750   5.917  2.3819 -2.8128  1.5855
  918MOL0     H26674  11.084  10.001   5.852 -0.1179  0.8750 -4.3213
  918MOL0     H26675  10.961   9.903   5.755 -0.9373 -1.2533  0.1176
  918MOL0     H26676  11.236   9.794   5.837  1.0520 -0.5598 -0.0627
  918MOL0     H26677  11.108   9.707   5.773 -0.1999  0.0883 -2.7884
  918MOL0     H26678  11.210   9.951   5.634 -4.2035  1.7778 -1.4175
  918MOL0     H26679  11.082   9.839   5.569 -0.4384 -2.9789  2.0687
  918MOL0     H26680  11.424   9.636   5.466  1.1099  2.1092 -1.3318
  918MOL0     H26681  10.825   9.690   6.114  1.5236  0.6813  0.0522
  918MOL0     H26682  10.716   9.552   6.223 -2.0187  1.7509 -1.3088
  918MOL0     H26683  10.789   9.574   6.385  0.4595  0.0648  0.5649
  918MOL0     H26684  10.604   9.581   6.350  0.3974 -4.6795 -0.6454
  919MOL0     O26685   9.092   9.964   1.375 -0.4937  0.3943 -0.1529
  919MOL0     C26686   9.153   9.869   1.329 -0.1977 -0.1961  0.2913
  919MOL0     O26687   9.097   9.787   1.230 -0.7081 -0.8225  0.0023
  919MOL0     C26688   8.961   9.789   1.210  0.2174  0.2286 -0.8696
  919MOL0     C26689   8.873   9.699   1.276  0.3524 -0.0361  0.0793
  919MOL0     C26690   8.737   9.714   1.268 -0.0646  0.5130 -0.5474
  919MOL0     C26691   8.683   9.797   1.170 -0.0929 -0.6829 -0.0352
  919MOL0     O26692   8.552   9.790   1.130 -0.3752  0.2884 -0.9557
  919MOL0     C26693   8.449   9.814   1.224 -0.2582  0.7015  0.7092
  919MOL0     C26694   8.367   9.684   1.218  0.6722  0.7012 -0.4996
  919MOL0     C26695   8.234   9.705   1.297 -0.2234  1.0184 -0.1259
  919MOL0     C26696   8.139   9.588   1.277  0.0177 -0.1418  0.1948
  919MOL0     C26697   8.000   9.613   1.334 -0.3236 -0.2856  0.1480
  919MOL0     C26698   7.910   9.496   1.305 -0.2520 -0.2179 -0.5473
  919MOL0     C26699   7.766   9.512   1.364  0.3106 -0.0620 -0.0358
  919MOL0     C26700   7.686   9.641   1.332  0.0561  0.2597 -0.2484
  919MOL0     N26701   7.655   9.655   1.188 -0.1270 -0.9384 -0.6782
  919MOL0     C26702   7.547   9.597   1.135  0.3750  0.6308 -0.3797
  919MOL0     C26703   7.542   9.640   1.002  0.4697 -0.0537 -0.9977
  919MOL0     C26704   7.442   9.607   0.901  0.5385  0.0915 -0.6922
  919MOL0     C26705   7.504   9.570   0.771 -0.5609  0.1917  0.0752
  919MOL0     C26706   7.438   9.633   0.646 -0.1317  0.0083 -0.4586
  919MOL0     C26707   7.489   9.776   0.631  0.9626  0.2583 -1.2030
  919MOL0     O26708   7.407   9.845   0.539  0.5095 -0.2030 -0.6485
  919MOL0     C26709   7.463   9.864   0.417 -0.3927 -0.4198 -0.1919
  919MOL0     C26710   7.480   9.995   0.369  0.0026 -0.2717 -0.4554
  919MOL0     C26711   7.525  10.019   0.242 -0.0730  0.3117 -1.1594
  919MOL0     C26712   7.540  10.159   0.211 -0.0229 -0.1162 -0.2147
  919MOL0     C26713   7.559   9.912   0.150 -0.1161 -0.6733 -0.8655
  919MOL0     C26714   7.626   9.936   0.013  0.1463 -0.4589 -0.3453
  919MOL0     O26715   7.670   9.824  -0.049  0.0938  0.0950  0.4613
  919MOL0     C26716   7.717   9.838  -0.175 -0.3955 -0.0515  0.7340
  919MOL0     C26717   7.623   9.839  -0.279  0.0895 -0.1109 -0.2188
  919MOL0     C26718   7.664   9.854  -0.411 -0.1928 -0.5582 -0.0023
  919MOL0     C26719   7.800   9.860  -0.449 -0.7240  0.0462 -0.8388
  919MOL0     O26720   7.844   9.854  -0.577  0.3360  0.4139  0.0918
  919MOL0     C26721   7.782   9.948  -0.667  0.0295 -0.5030 -0.6914
  919MOL0     C26722   7.796  10.098  -0.644 -0.6423  0.0287  0.4738
  919MOL0     C26723   7.942  10.149  -0.657 -0.0988 -0.4279 -0.0297
  919MOL0     C26724   7.939  10.299  -0.688 -0.2346  0.0648  0.6137
  919MOL0     C26725   8.075  10.357  -0.712 -0.1101 -0.5804 -0.3852
  919MOL0     C26726   8.162  10.366  -0.589  0.3665  0.1607  1.5924
  919MOL0     C26727   8.314  10.386  -0.619 -0.2742  0.4027  1.5604
  919MOL0     C26728   8.403  10.335  -0.521  0.2377  0.0004 -0.4284
  919MOL0    Cl26729   8.369  10.406  -0.360 -0.0685 -0.2504 -0.2028
  919MOL0     C26730   7.895   9.848  -0.347 -0.7188 -0.6510 -0.9967
  919MOL0     C26731   7.857   9.852  -0.210  1.0041 -0.5409 -0.6289
  919MOL0     O26732   7.625  10.055  -0.036  0.1550  0.4183  0.2951
  919MOL0     C26733   7.553   9.783   0.202  0.7649 -0.4737  0.2604
  919MOL0     C26734   7.507   9.761   0.337 -0.7223 -0.0611  0.7700
  919MOL0     N26735   7.646   9.734   0.989 -0.9856  0.1171  0.0163
  919MOL0     N26736   7.709   9.744   1.100 -0.0775  0.7903 -0.2365
  919MOL0     C26737   8.768   9.884   1.109 -0.1842  0.0401  0.1293
  919MOL0     C26738   8.901   9.881   1.131  0.6231 -0.4817  0.2946
  919MOL0     C26739   9.283   9.817   1.384  0.0350 -0.9284 -0.1007
  919MOL0     C26740   9.380   9.760   1.303 -0.4409 -0.0382 -0.0953
  919MOL0     C26741   9.501   9.719   1.361  0.0121 -0.0153  0.1588
  919MOL0     C26742   9.531   9.748   1.499 -0.6514 -0.1761  0.4844
  919MOL0     O26743   9.661   9.715   1.556  0.3257 -1.3388  0.2577
  919MOL0     C26744   9.752   9.643   1.465  0.3520 -0.0809 -0.7593
  919MOL0     C26745   9.870   9.603   1.556 -0.0330 -0.5476  0.7693
  919MOL0     C26746   9.843   9.507   1.673  0.6014  1.0767 -0.1042
  919MOL0     C26747   9.961   9.471   1.751  0.0676  0.3061 -0.1474
  919MOL0     C26748   9.919   9.374   1.853  0.5162 -0.4500 -0.2092
  919MOL0     C26749   9.889   9.277   1.920 -0.3380 -0.1770 -0.6674
  919MOL0     C26750   9.438   9.814   1.575  0.1004 -0.7124  0.9288
  919MOL0     C26751   9.314   9.851   1.520  0.4973  0.3777 -0.2601
  919MOL0     C26752   9.217   9.911   1.626 -0.5853 -0.5444  0.2327
  919MOL0     H26753   8.907   9.619   1.342 -1.8367 -0.9477  0.2151
  919MOL0     H26754   8.675   9.642   1.322  0.3339 -1.3366 -2.4441
  919MOL0     H26755   8.400   9.903   1.181 -0.5999 -1.5985 -4.3740
  919MOL0     H26756   8.484   9.834   1.326 -0.9832  0.0071  1.1007
  919MOL0     H26757   8.359   9.646   1.116  4.7153  2.4551 -1.6725
  919MOL0     H26758   8.414   9.600   1.270  1.6845 -1.3335 -4.3524
  919MOL0     H26759   8.259   9.691   1.403  1.3381  1.1056 -0.4711
  919MOL0     H26760   8.188   9.802   1.274  0.5823  1.5713  0.5293
  919MOL0     H26761   8.138   9.573   1.169 -1.1438 -1.5616  0.3658
  919MOL0     H26762   8.183   9.495   1.313 -1.0922  0.3088  3.0416
  919MOL0     H26763   7.962   9.702   1.283  0.5231  2.0000  3.2005
  919MOL0     H26764   8.026   9.636   1.438  0.0604  0.9089 -0.1938
  919MOL0     H26765   7.883   9.472   1.201 -3.6149 -3.6579  0.8978
  919MOL0     H26766   7.947   9.402   1.346 -0.6460 -0.0668  0.1618
  919MOL0     H26767   7.764   9.482   1.469  0.5256 -0.5036 -0.1548
  919MOL0     H26768   7.703   9.438   1.312  0.3505  0.0185 -0.1984
  919MOL0     H26769   7.590   9.625   1.381  0.3657 -0.3460  0.1748
  919MOL0     H26770   7.734   9.734   1.365 -2.2965  1.1753  0.7798
  919MOL0     H26771   7.484   9.529   1.192  3.2199 -0.0669  2.1775
  919MOL0     H26772   7.391   9.700   0.877  0.5872  0.1208 -0.6801
  919MOL0     H26773   7.370   9.532   0.938  0.9108  0.6478  1.2814
  919MOL0     H26774   7.613   9.581   0.778 -0.2306 -2.1948 -0.3306
  919MOL0     H26775   7.499   9.461   0.766  2.6792 -0.1977  2.2282
  919MOL0     H26776   7.477   9.583   0.556  1.0500  0.1261 -0.0329
  919MOL0     H26777   7.331   9.622   0.662  0.0946 -1.0317  0.4392
  919MOL0     H26778   7.488   9.825   0.729  1.0625 -1.8134 -0.0895
  919MOL0     H26779   7.595   9.762   0.607  1.4586  1.7855 -0.0689
  919MOL0     H26780   7.459  10.068   0.446 -3.3154  0.5948 -1.9777
  919MOL0     H26781   7.494  10.226   0.285 -0.9670 -0.2077 -0.6942
  919MOL0     H26782   7.488  10.178   0.116  0.1880 -0.1433 -0.3348
  919MOL0     H26783   7.645  10.187   0.198  0.0718 -0.8231 -1.1239
  919MOL0     H26784   7.520   9.817  -0.252  0.1358  0.0294  0.0712
  919MOL0     H26785   7.597   9.854  -0.496  2.7747 -1.6257 -2.5261
  919MOL0     H26786   7.826   9.928  -0.765  2.3732 -0.7795  0.3428
  919MOL0     H26787   7.678   9.918  -0.680  0.2314 -1.0596 -1.0503
  919MOL0     H26788   7.745  10.157  -0.722 -1.1617 -0.3326  0.5322
  919MOL0     H26789   7.753  10.120  -0.546 -0.8772 -1.0194  0.6184
  919MOL0     H26790   8.004  10.100  -0.733  0.4312  0.9219 -0.4980
  919MOL0     H26791   7.996  10.142  -0.562 -0.0348  1.7549  0.1447
  919MOL0     H26792   7.884  10.346  -0.606 -1.7674 -0.8719  0.1707
  919MOL0     H26793   7.893  10.308  -0.787  1.3087  0.6312 -0.0737
  919MOL0     H26794   8.136  10.297  -0.781 -0.3448 -0.5657 -0.6095
  919MOL0     H26795   8.058  10.454  -0.760 -1.9720 -0.3361  0.6797
  919MOL0     H26796   8.153  10.279  -0.524 -0.0069 -1.5917 -0.6974
  919MOL0     H26797   8.115  10.445  -0.530 -3.1569 -1.7332  1.5594
  919MOL0     H26798   8.341  10.489  -0.647 -0.0830 -0.0916 -0.1818
  919MOL0     H26799   8.333  10.330  -0.711 -1.2106 -1.6760  2.5767
  919MOL0     H26800   8.507  10.351  -0.552  0.1446 -0.7332 -1.1608
  919MOL0     H26801   8.404  10.226  -0.508  0.1532  0.1386  0.9218
  919MOL0     H26802   7.999   9.848  -0.378 -0.3330 -0.0033  0.2209
  919MOL0     H26803   7.939   9.848  -0.138  2.0772 -1.3411 -1.8414
  919MOL0     H26804   7.575   9.690   0.150 -1.9269 -1.1892  0.2720
  919MOL0     H26805   7.499   9.659   0.373  1.2323 -0.8185 -0.7542
  919MOL0     H26806   8.728   9.959   1.042  0.3694 -0.7044 -1.0733
  919MOL0     H26807   8.937   9.971   1.081 -2.7708  0.2673 -1.1047
  919MOL0     H26808   9.356   9.736   1.200 -3.8445 -0.5699  0.6815
  919MOL0     H26809   9.580   9.678   1.299 -0.3226 -1.1869  0.4855
  919MOL0     H26810   9.721   9.557   1.405 -3.4798  1.5212 -1.2877
  919MOL0     H26811   9.780   9.709   1.383  2.9316 -0.1910 -0.0611
  919MOL0     H26812   9.932   9.679   1.604  0.1723 -0.8854  1.0435
  919MOL0     H26813   9.938   9.558   1.483 -0.3931 -1.2322  0.8491
  919MOL0     H26814   9.767   9.555   1.736 -3.3009 -1.0720 -2.7584
  919MOL0     H26815   9.805   9.410   1.642  3.1475 -0.4644  1.2211
  919MOL0     H26816  10.016   9.557   1.791  1.3418 -0.0655 -1.0284
  919MOL0     H26817  10.022   9.412   1.682 -1.0110  2.2730 -3.0121
  919MOL0     H26818   9.870   9.188   1.977  1.0140  0.2277  0.4790
  919MOL0     H26819   9.463   9.824   1.681  0.6181 -1.3884  0.8817
  919MOL0     H26820   9.124   9.853   1.622 -0.7469 -0.3054 -3.5372
  919MOL0     H26821   9.251   9.886   1.727 -3.3575 -2.9407  0.7111
  919MOL0     H26822   9.208  10.019   1.607  2.0455 -0.2945  0.0636
  920MOL0     O26823   7.969   5.731  10.369  0.5601  0.4694 -0.4178
  920MOL0     C26824   7.985   5.713  10.244 -1.1882  0.7642 -0.0519
  920MOL0     O26825   7.889   5.702  10.147 -0.0519 -0.8143  0.4060
  920MOL0     C26826   7.763   5.719  10.188 -0.5929  0.3671 -0.4762
  920MOL0     C26827   7.680   5.608  10.170 -0.1671  0.6157  0.1453
  920MOL0     C26828   7.544   5.614  10.208  0.2751  1.0622 -0.1662
  920MOL0     C26829   7.483   5.724  10.260 -0.7609 -0.3881 -1.0346
  920MOL0     O26830   7.350   5.739  10.305  0.2596 -0.1599  0.1452
  920MOL0     C26831   7.283   5.622  10.329 -0.1884 -0.2025  1.3885
  920MOL0     C26832   7.151   5.653  10.394 -0.5249  0.1915 -0.1823
  920MOL0     C26833   7.163   5.748  10.512  0.6454  0.4697 -0.0468
  920MOL0     C26834   7.017   5.787  10.560  0.2181  0.3727 -0.4752
  920MOL0     C26835   7.022   5.842  10.703  0.1244  0.4293 -0.1404
  920MOL0     C26836   6.885   5.890  10.745 -0.4776  0.0600 -0.7956
  920MOL0     C26837   6.885   5.912  10.898  0.1214 -0.9879 -0.9660
  920MOL0     C26838   6.749   5.958  10.968 -0.6295  0.4268  0.1471
  920MOL0     N26839   6.700   6.097  10.948  0.0378  0.2025  1.1423
  920MOL0     C26840   6.751   6.217  11.008  0.0770  1.0493 -0.2543
  920MOL0     C26841   6.651   6.305  10.979 -1.1521 -0.0801  0.4917
  920MOL0     C26842   6.656   6.455  10.996 -0.6577  0.2321  0.6118
  920MOL0     C26843   6.773   6.519  11.067 -0.3908 -0.1883  0.9053
  920MOL0     C26844   6.896   6.515  10.978 -0.2150  0.1443  0.0009
  920MOL0     C26845   7.012   6.547  11.063  0.3491  0.8308  1.2204
  920MOL0     O26846   7.045   6.434  11.150 -0.1011 -0.4874 -0.5136
  920MOL0     C26847   7.115   6.326  11.102 -0.1206 -0.5844  0.2198
  920MOL0     C26848   7.170   6.306  10.971  0.6636 -0.0669 -1.1364
  920MOL0     C26849   7.240   6.198  10.932  0.6025 -0.3912  1.1620
  920MOL0     C26850   7.313   6.196  10.798  0.5767 -0.1479  0.5345
  920MOL0     C26851   7.246   6.086  11.020  0.7163 -0.3962  0.0663
  920MOL0     C26852   7.300   5.946  10.978  0.1326 -0.5388  0.3305
  920MOL0     O26853   7.399   5.947  10.876  0.2637 -0.3842 -0.1931
  920MOL0     C26854   7.458   5.828  10.839 -0.3971 -0.8667  0.2869
  920MOL0     C26855   7.503   5.717  10.922 -0.3676 -0.4352  0.4349
  920MOL0     C26856   7.554   5.606  10.863  0.7174 -0.1126  1.0266
  920MOL0     C26857   7.578   5.598  10.726  0.2102 -0.1350  0.2371
  920MOL0     O26858   7.626   5.479  10.676  0.2090  0.3409  0.4454
  920MOL0     C26859   7.743   5.477  10.589 -1.0897 -0.0792  0.7007
  920MOL0     C26860   7.867   5.552  10.660 -0.5746  0.0135  0.0470
  920MOL0     C26861   7.932   5.490  10.788 -0.6464 -0.5230  0.7580
  920MOL0     C26862   8.058   5.571  10.829 -0.0465  0.4791  0.5070
  920MOL0     C26863   8.093   5.511  10.969 -0.1627  0.3308 -0.0047
  920MOL0     C26864   8.220   5.579  11.017 -0.1342  0.1250 -0.5432
  920MOL0     C26865   8.283   5.502  11.126 -0.1888 -0.1115 -0.9744
  920MOL0     C26866   8.373   5.596  11.221 -0.9126 -0.4879 -0.2250
  920MOL0    Cl26867   8.277   5.671  11.354 -0.3848 -0.1317 -0.4467
  920MOL0     C26868   7.540   5.706  10.642  0.3464 -0.5326 -0.0415
  920MOL0     C26869   7.479   5.817  10.700  0.2145 -0.1140  0.7627
  920MOL0     O26870   7.246   5.848  11.032  0.2632 -0.2417  0.7231
  920MOL0     C26871   7.178   6.101  11.144 -0.3321 -0.1377  0.8903
  920MOL0     C26872   7.122   6.221  11.189  0.2668 -0.8611 -0.3643
  920MOL0     N26873   6.554   6.247  10.899  0.6861  0.0326  1.1705
  920MOL0     N26874   6.585   6.124  10.878  0.9227  0.2569 -0.5526
  920MOL0     C26875   7.561   5.837  10.276  0.2531  0.4100  0.6638
  920MOL0     C26876   7.696   5.838  10.229 -0.0977  0.7301  0.8839
  920MOL0     C26877   8.127   5.680  10.211  0.4233 -0.4104 -0.8882
  920MOL0     C26878   8.185   5.733  10.092 -0.8544  0.1294  0.6392
  920MOL0     C26879   8.320   5.717  10.062 -0.6798 -0.0021 -0.3669
  920MOL0     C26880   8.403   5.640  10.138  0.3102 -0.0666  0.2156
  920MOL0     O26881   8.537   5.627  10.119 -0.0596  0.2116 -0.5544
  920MOL0     C26882   8.605   5.750  10.099  0.2716  0.2638  0.1458
  920MOL0     C26883   8.750   5.711  10.058  0.8125  0.5994  0.3411
  920MOL0     C26884   8.818   5.660  10.187 -0.4814 -0.2706  0.3687
  920MOL0     C26885   8.902   5.761  10.264 -0.1544 -0.6597  1.0491
  920MOL0     C26886   8.837   5.878  10.329 -0.4047 -0.0664  0.8201
  920MOL0     C26887   8.775   5.952  10.397  0.3286  0.0445  0.4051
  920MOL0     C26888   8.342   5.575  10.247  0.5086  0.1532 -0.1669
  920MOL0     C26889   8.209   5.586  10.282  1.1991  0.3544 -0.0489
  920MOL0     C26890   8.165   5.501  10.400 -0.2110 -0.6165  0.0021
  920MOL0     H26891   7.709   5.519  10.115 -1.2132  0.6543 -0.4836
  920MOL0     H26892   7.483   5.534  10.168 -0.4902  1.8476 -0.5995
  920MOL0     H26893   7.349   5.577  10.404 -2.1567 -1.5763  2.3918
  920MOL0     H26894   7.276   5.567  10.235  0.2482  2.8511 -0.5565
  920MOL0     H26895   7.078   5.683  10.318 -4.0513 -4.0281  1.0824
  920MOL0     H26896   7.105   5.561  10.432 -4.8099  0.7484 -3.2662
  920MOL0     H26897   7.218   5.705  10.596  0.8726  2.6719  0.9836
  920MOL0     H26898   7.215   5.841  10.489 -0.0425  0.6066 -1.1379
  920MOL0     H26899   6.971   5.861  10.493 -0.3513 -0.4929 -1.0601
  920MOL0     H26900   6.953   5.698  10.559  1.2145 -0.3949 -2.4724
  920MOL0     H26901   7.093   5.925  10.714  1.0112 -0.1633 -1.2750
  920MOL0     H26902   7.049   5.763  10.774  1.6411 -0.3181 -1.4673
  920MOL0     H26903   6.844   5.982  10.701  1.4147  1.5305  0.3622
  920MOL0     H26904   6.810   5.815  10.715 -0.2945  0.3551 -2.0523
  920MOL0     H26905   6.965   5.983  10.921  0.1582 -2.1218  3.3292
  920MOL0     H26906   6.913   5.821  10.953 -3.4344  0.2590  3.4646
  920MOL0     H26907   6.673   5.882  10.948 -3.3558  2.6857  1.2302
  920MOL0     H26908   6.764   5.946  11.075 -0.2643 -0.4607  0.0045
  920MOL0     H26909   6.840   6.239  11.066  0.2198 -2.2653  0.9703
  920MOL0     H26910   6.569   6.471  11.060 -0.9099 -0.6088  0.4894
  920MOL0     H26911   6.650   6.505  10.899  0.0741  1.7050  1.3046
  920MOL0     H26912   6.737   6.619  11.091 -4.0763 -1.2722  0.4475
  920MOL0     H26913   6.794   6.482  11.167  0.9032  3.3274  2.0742
  920MOL0     H26914   6.904   6.418  10.926 -0.2305  0.7022 -1.0845
  920MOL0     H26915   6.885   6.587  10.896 -4.7562 -1.8983 -1.5334
  920MOL0     H26916   7.092   6.580  10.996 -3.4415  1.9193 -3.2927
  920MOL0     H26917   6.991   6.623  11.139 -0.2045  3.0796 -1.0222
  920MOL0     H26918   7.157   6.373  10.886  1.6065  1.8711  0.1649
  920MOL0     H26919   7.272   6.123  10.728  2.0779  0.6795 -1.3174
  920MOL0     H26920   7.421   6.183  10.815  1.0921  2.7320 -0.0585
  920MOL0     H26921   7.306   6.298  10.760 -0.3660 -0.7253 -0.8802
  920MOL0     H26922   7.489   5.723  11.030  1.0363 -0.9903  0.6648
  920MOL0     H26923   7.578   5.511  10.912  1.3001  0.0928  1.1537
  920MOL0     H26924   7.773   5.378  10.553 -0.5290 -0.3563  1.8703
  920MOL0     H26925   7.732   5.540  10.501  4.6075 -0.4261 -0.6096
  920MOL0     H26926   7.940   5.558  10.579  0.8594 -0.8178  1.2074
  920MOL0     H26927   7.852   5.657  10.686  4.3313  0.3834  2.4399
  920MOL0     H26928   7.952   5.383  10.771  0.5267  0.1309 -3.0396
  920MOL0     H26929   7.860   5.512  10.867  0.3884  2.3970  0.9980
  920MOL0     H26930   8.031   5.676  10.828 -0.5271  0.3541  0.2248
  920MOL0     H26931   8.140   5.553  10.759 -1.1936  3.3870 -1.7870
  920MOL0     H26932   8.027   5.510  11.055  2.6851 -4.7157  2.5613
  920MOL0     H26933   8.096   5.404  10.947 -1.9376  0.0409  0.9761
  920MOL0     H26934   8.214   5.684  11.048  0.4263 -0.4679  1.7964
  920MOL0     H26935   8.287   5.579  10.931  0.1523 -1.0431 -0.3386
  920MOL0     H26936   8.341   5.416  11.094  3.1211  1.9714 -1.0485
  920MOL0     H26937   8.200   5.468  11.190  1.7508  0.4826  2.0728
  920MOL0     H26938   8.421   5.677  11.166 -2.7110  1.1942  0.5947
  920MOL0     H26939   8.456   5.537  11.261  1.1443 -0.4229 -3.9480
  920MOL0     H26940   7.531   5.710  10.534  1.4857 -1.4573 -0.1836
  920MOL0     H26941   7.445   5.897  10.636  2.3406  1.4644  1.5078
  920MOL0     H26942   7.169   6.012  11.206 -0.3139 -0.6815  0.1270
  920MOL0     H26943   7.068   6.227  11.283 -2.1962 -3.4495 -1.4719
  920MOL0     H26944   7.520   5.926  10.321 -2.5591  0.6370 -2.0032
  920MOL0     H26945   7.772   5.916  10.235  0.5855  0.2131 -0.5328
  920MOL0     H26946   8.134   5.798  10.022  3.4058  2.6653 -0.5204
  920MOL0     H26947   8.357   5.780   9.981 -1.3220  0.8358 -0.0274
  920MOL0     H26948   8.569   5.799  10.008  1.6239 -1.4367 -1.3820
  920MOL0     H26949   8.595   5.815  10.187  1.1841 -1.6968  1.7960
  920MOL0     H26950   8.787   5.805  10.016  1.0485  0.0945 -0.5950
  920MOL0     H26951   8.747   5.636   9.979  2.2521  1.2434 -0.3548
  920MOL0     H26952   8.745   5.613  10.253  2.5463 -3.8219  1.5458
  920MOL0     H26953   8.898   5.591  10.159  0.9786  1.8247 -0.8444
  920MOL0     H26954   8.975   5.789  10.188  0.7065 -4.7344  0.1035
  920MOL0     H26955   8.969   5.714  10.336  2.2843 -1.6597 -1.6415
  920MOL0     H26956   8.715   5.992  10.477  0.4260  0.9813  0.0260
  920MOL0     H26957   8.399   5.518  10.320  0.1059  0.4790  0.4002
  920MOL0     H26958   8.181   5.393  10.392  0.1184 -0.5451 -0.3841
  920MOL0     H26959   8.208   5.534  10.495 -1.2771 -0.5435  0.4653
  920MOL0     H26960   8.057   5.513  10.407 -0.3785 -2.9374  2.6887
  921MOL0     O26961   0.006   6.308   1.844  0.4064  0.1539  0.0582
  921MOL0     C26962  -0.117   6.311   1.844  0.0866 -0.2944 -0.7931
  921MOL0     O26963  -0.185   6.414   1.790 -0.0734  0.0356  0.5880
  921MOL0     C26964  -0.128   6.494   1.691 -0.1095 -0.1793 -0.5840
  921MOL0     C26965  -0.168   6.630   1.696 -0.7450 -0.0476 -0.3262
  921MOL0     C26966  -0.122   6.721   1.596 -0.7795  0.5000 -0.7590
  921MOL0     C26967  -0.051   6.676   1.481  0.1001 -0.0643 -0.4942
  921MOL0     O26968  -0.035   6.755   1.372  0.5039 -0.7611  0.1697
  921MOL0     C26969  -0.142   6.750   1.281  0.5626 -0.4810  0.2824
  921MOL0     C26970  -0.124   6.863   1.179  0.1292 -0.4389  0.0422
  921MOL0     C26971  -0.240   6.869   1.075  0.2307  0.0256 -0.9604
  921MOL0     C26972  -0.185   6.897   0.934  0.4210 -0.0610 -0.0436
  921MOL0     C26973  -0.288   6.881   0.818 -0.7434  0.1752  0.4985
  921MOL0     C26974  -0.393   6.993   0.823  1.5399 -0.4156  0.0866
  921MOL0     C26975  -0.472   6.995   0.688 -0.2532  0.2991  0.3075
  921MOL0     C26976  -0.577   7.104   0.715 -1.0444  0.2665 -0.3202
  921MOL0     N26977  -0.662   7.132   0.591 -0.2713 -0.3293 -1.0562
  921MOL0     C26978  -0.623   7.221   0.492 -0.0101 -0.0900  0.2992
  921MOL0     C26979  -0.665   7.176   0.377 -0.1272 -0.3874 -0.3649
  921MOL0     C26980  -0.643   7.236   0.247 -1.0111  0.0486  0.2444
  921MOL0     C26981  -0.503   7.178   0.190  0.8967  0.1594  0.5058
  921MOL0     C26982  -0.464   7.247   0.063  0.5225 -0.6835  0.1464
  921MOL0     C26983  -0.380   7.167  -0.035 -0.4142  0.0214 -0.4160
  921MOL0     O26984  -0.349   7.262  -0.141  0.3704  0.4291  0.1195
  921MOL0     C26985  -0.315   7.215  -0.263 -0.5104  0.6589  0.9818
  921MOL0     C26986  -0.263   7.306  -0.359 -0.3265  0.3969  0.4762
  921MOL0     C26987  -0.203   7.268  -0.486 -0.2230 -0.7635 -0.1729
  921MOL0     C26988  -0.151   7.369  -0.578  0.2561  0.8286  0.3077
  921MOL0     C26989  -0.202   7.130  -0.525 -0.5070 -0.8223 -0.2485
  921MOL0     C26990  -0.143   7.066  -0.649 -0.2593 -0.4055  1.3576
  921MOL0     O26991  -0.155   6.921  -0.657  0.1843  0.2043 -0.3025
  921MOL0     C26992  -0.090   6.846  -0.753  0.7670  0.8377  1.2088
  921MOL0     C26993   0.043   6.849  -0.775  0.3434 -0.3504  0.1485
  921MOL0     C26994   0.105   6.758  -0.865  0.2474  0.2725  0.0588
  921MOL0     C26995   0.024   6.678  -0.945  0.1358 -0.5277 -0.2237
  921MOL0     O26996   0.070   6.574  -1.025 -0.1287  0.6289  0.2728
  921MOL0     C26997   0.206   6.586  -1.068  0.1426 -0.6626  0.5912
  921MOL0     C26998   0.241   6.498  -1.187  0.7214  0.7543  1.3146
  921MOL0     C26999   0.263   6.349  -1.150 -0.4029 -0.4923 -0.0663
  921MOL0     C27000   0.401   6.283  -1.191 -0.0523  0.8846 -0.0292
  921MOL0     C27001   0.423   6.271  -1.342  1.0340  0.1475  0.7685
  921MOL0     C27002   0.567   6.296  -1.389 -0.1432  1.0938  0.2013
  921MOL0     C27003   0.617   6.224  -1.517 -0.1647  0.0377 -0.9378
  921MOL0     C27004   0.730   6.298  -1.580  0.2637  0.6450  0.3291
  921MOL0    Cl27005   0.873   6.294  -1.477  0.2564  0.4035  0.1964
  921MOL0     C27006  -0.124   6.682  -0.930 -0.8000  0.7463 -0.2612
  921MOL0     C27007  -0.177   6.771  -0.835  0.9162  0.4072 -0.5714
  921MOL0     O27008  -0.089   7.128  -0.739 -0.2330 -1.1937  0.2242
  921MOL0     C27009  -0.264   7.040  -0.438 -0.8116 -0.3570  0.6946
  921MOL0     C27010  -0.308   7.072  -0.313 -0.1721 -0.3285 -0.5265
  921MOL0     N27011  -0.743   7.067   0.402  0.1791  0.8060 -0.1709
  921MOL0     N27012  -0.731   7.037   0.530 -0.0989 -0.1587  0.8416
  921MOL0     C27013  -0.009   6.541   1.478 -0.1033 -0.6000 -0.0300
  921MOL0     C27014  -0.046   6.453   1.580  0.5191 -0.2238  0.1970
  921MOL0     C27015  -0.206   6.207   1.891 -0.2806  0.5216  0.6251
  921MOL0     C27016  -0.343   6.222   1.874  0.4542  0.0322  0.6272
  921MOL0     C27017  -0.436   6.126   1.913 -0.5552 -1.5949  0.0177
  921MOL0     C27018  -0.397   6.010   1.980 -0.3717  0.1910 -0.9070
  921MOL0     O27019  -0.479   5.899   2.019 -0.1960 -0.9313  0.0973
  921MOL0     C27020  -0.626   5.920   2.022  0.5476 -0.6684  0.3532
  921MOL0     C27021  -0.686   5.889   1.877 -0.6554 -0.1130  0.1902
  921MOL0     C27022  -0.713   5.736   1.854  0.7215  0.2069 -0.6669
  921MOL0     C27023  -0.801   5.707   1.730  0.6834 -0.3510 -0.4834
  921MOL0     C27024  -0.745   5.756   1.602 -0.7644 -0.0093 -0.8117
  921MOL0     C27025  -0.707   5.792   1.494  0.4203 -0.3325 -0.8161
  921MOL0     C27026  -0.253   5.997   1.999 -0.0077 -0.3754 -0.3586
  921MOL0     C27027  -0.160   6.091   1.962 -0.4576 -0.4102 -0.0855
  921MOL0     C27028  -0.010   6.059   2.000 -1.2515  0.0398  0.6307
  921MOL0     H27029  -0.233   6.658   1.778  2.1306 -2.0156  2.9165
  921MOL0     H27030  -0.152   6.824   1.614  0.7633  0.6344  1.5526
  921MOL0     H27031  -0.229   6.769   1.344  2.0319  3.8295  1.3162
  921MOL0     H27032  -0.151   6.651   1.235 -3.2789 -1.6087  3.0033
  921MOL0     H27033  -0.108   6.961   1.226  0.1446 -1.0739  1.4185
  921MOL0     H27034  -0.028   6.842   1.131  1.1839 -2.7050  2.7848
  921MOL0     H27035  -0.313   6.789   1.083 -1.3202  1.3821 -1.0184
  921MOL0     H27036  -0.301   6.957   1.099 -2.8807 -2.5281  1.4144
  921MOL0     H27037  -0.141   6.997   0.934 -0.3924  0.3560 -2.1251
  921MOL0     H27038  -0.111   6.822   0.905 -2.6141 -2.9530 -0.8644
  921MOL0     H27039  -0.331   6.781   0.824  2.5844 -1.3542  0.4107
  921MOL0     H27040  -0.228   6.899   0.728  0.3860 -1.0330  0.9870
  921MOL0     H27041  -0.462   6.969   0.904  4.6349 -1.1850  2.7353
  921MOL0     H27042  -0.353   7.093   0.842 -0.3346  0.4752 -0.4787
  921MOL0     H27043  -0.530   6.903   0.671  0.8926 -0.1777 -1.2357
  921MOL0     H27044  -0.396   7.022   0.614  2.2824 -3.0465  1.4020
  921MOL0     H27045  -0.627   7.081   0.810  0.1548 -0.6183  0.1289
  921MOL0     H27046  -0.522   7.194   0.744 -1.6978  0.0577  1.7665
  921MOL0     H27047  -0.542   7.291   0.506  0.7028 -0.7851 -0.2489
  921MOL0     H27048  -0.638   7.345   0.245 -1.2588  0.0573  0.0330
  921MOL0     H27049  -0.729   7.219   0.182 -0.0487  3.0280 -1.9996
  921MOL0     H27050  -0.423   7.207   0.258 -0.1264  0.7190  1.4964
  921MOL0     H27051  -0.497   7.069   0.176  2.3412 -0.0095  2.1173
  921MOL0     H27052  -0.558   7.282   0.017  0.4215 -0.3923  0.5724
  921MOL0     H27053  -0.411   7.340   0.083  0.7286 -0.6352 -0.5875
  921MOL0     H27054  -0.288   7.123   0.005 -0.2713  0.9945  0.3859
  921MOL0     H27055  -0.442   7.085  -0.072 -0.3204 -2.3755  4.0694
  921MOL0     H27056  -0.259   7.412  -0.333  0.9834  1.0040 -1.9152
  921MOL0     H27057  -0.047   7.345  -0.603 -0.3946 -2.2562  0.2140
  921MOL0     H27058  -0.156   7.470  -0.537 -0.4817 -0.7007  4.4350
  921MOL0     H27059  -0.206   7.371  -0.672  0.3679  1.1445  0.2474
  921MOL0     H27060   0.111   6.909  -0.715 -0.4120  1.6088 -0.8837
  921MOL0     H27061   0.213   6.759  -0.878  0.1397 -2.1928 -1.5795
  921MOL0     H27062   0.225   6.688  -1.103 -0.0640 -1.3935 -1.8974
  921MOL0     H27063   0.281   6.568  -0.991  1.0103  0.1403 -0.0392
  921MOL0     H27064   0.163   6.497  -1.263  0.4456  1.2007  1.5852
  921MOL0     H27065   0.334   6.533  -1.235 -0.1072  1.8950  0.4907
  921MOL0     H27066   0.191   6.284  -1.202  1.6843 -2.0176 -1.1994
  921MOL0     H27067   0.234   6.333  -1.046  0.5103  0.7027  0.3897
  921MOL0     H27068   0.418   6.183  -1.149 -0.0128 -0.6080 -3.2796
  921MOL0     H27069   0.479   6.350  -1.155 -0.1638  1.0333 -0.0629
  921MOL0     H27070   0.407   6.167  -1.370  1.8487  0.1409  0.2755
  921MOL0     H27071   0.356   6.333  -1.401 -1.1658 -0.4399  2.5235
  921MOL0     H27072   0.641   6.257  -1.318 -0.4049 -0.6199 -0.4022
  921MOL0     H27073   0.573   6.401  -1.416 -0.7365  0.1073 -4.6813
  921MOL0     H27074   0.543   6.190  -1.590  1.9390 -1.7153 -2.3790
  921MOL0     H27075   0.653   6.123  -1.495 -2.6134 -1.0933 -1.7825
  921MOL0     H27076   0.705   6.405  -1.587  3.1286  1.4146  0.5208
  921MOL0     H27077   0.751   6.259  -1.680  0.2120 -0.7372  0.8473
  921MOL0     H27078  -0.185   6.615  -0.990 -1.1987  2.9875 -2.5620
  921MOL0     H27079  -0.283   6.767  -0.815  1.0342 -1.2265 -0.1060
  921MOL0     H27080  -0.273   6.934  -0.462  2.5208 -0.6575  0.3396
  921MOL0     H27081  -0.333   6.987  -0.250 -0.1114 -0.5523 -0.8047
  921MOL0     H27082   0.046   6.501   1.393 -1.9161 -0.1222 -1.4859
  921MOL0     H27083  -0.022   6.348   1.576  0.5729 -0.1879 -0.6658
  921MOL0     H27084  -0.378   6.316   1.833  2.7998  3.0303  4.8326
  921MOL0     H27085  -0.535   6.160   1.883 -0.5152 -1.2146  0.2995
  921MOL0     H27086  -0.681   5.874   2.105  0.5467 -2.3113 -0.5241
  921MOL0     H27087  -0.635   6.026   2.046  2.2292 -0.6485  0.9499
  921MOL0     H27088  -0.614   5.928   1.804  1.4468  0.5884  2.4801
  921MOL0     H27089  -0.776   5.950   1.868 -1.5502 -1.5015 -0.8189
  921MOL0     H27090  -0.616   5.688   1.843 -0.9021 -2.9617 -2.3465
  921MOL0     H27091  -0.757   5.691   1.944  0.7227  1.1469 -0.1755
  921MOL0     H27092  -0.889   5.762   1.765  1.9207  0.6307  1.2369
  921MOL0     H27093  -0.834   5.603   1.730 -1.5945  0.2570 -3.1585
  921MOL0     H27094  -0.675   5.835   1.401 -0.9621  0.4117 -0.9712
  921MOL0     H27095  -0.210   5.909   2.046  3.9951  0.6028 -1.7827
  921MOL0     H27096   0.007   5.965   2.054  1.1082 -0.5205 -0.9059
  921MOL0     H27097   0.045   6.046   1.906 -1.0240  0.4113  0.7088
  921MOL0     H27098   0.028   6.141   2.062 -1.4002 -1.4197  2.7626
  922MOL0     O27099   0.814   4.746   8.580  0.6645 -0.6129  0.5062
  922MOL0     C27100   0.865   4.691   8.676  0.8075 -0.3589 -0.3102
  922MOL0     O27101   0.823   4.578   8.735 -0.1013 -0.2034 -0.5735
  922MOL0     C27102   0.703   4.530   8.701 -0.6393 -0.0838  1.3101
  922MOL0     C27103   0.574   4.587   8.679  0.1048 -0.4250 -0.2597
  922MOL0     C27104   0.462   4.508   8.655 -0.0041  0.4574 -0.2683
  922MOL0     C27105   0.477   4.365   8.654  0.1087  0.0791  1.4637
  922MOL0     O27106   0.360   4.296   8.630  0.2492  0.1253  0.1653
  922MOL0     C27107   0.243   4.316   8.725 -1.0673 -0.1958  0.5983
  922MOL0     C27108   0.283   4.251   8.858  0.7677 -0.2862  0.3402
  922MOL0     C27109   0.275   4.100   8.861  0.4926 -0.1704  0.2433
  922MOL0     C27110   0.136   4.039   8.844  0.1125 -0.7123 -0.3226
  922MOL0     C27111   0.146   3.886   8.840 -1.0382 -0.7403 -0.8095
  922MOL0     C27112   0.009   3.827   8.828  0.3802 -0.6115 -0.0905
  922MOL0     C27113   0.010   3.677   8.778  0.2677 -0.7622  0.2540
  922MOL0     C27114   0.047   3.657   8.633 -0.7189  0.1632  0.2120
  922MOL0     N27115  -0.030   3.736   8.535 -0.0609 -0.7722 -0.3555
  922MOL0     C27116  -0.005   3.858   8.477  0.1887 -0.1905 -0.0803
  922MOL0     C27117  -0.115   3.892   8.402  0.4848  0.3035 -0.9431
  922MOL0     C27118  -0.125   4.023   8.330 -0.0745 -0.2999 -1.1567
  922MOL0     C27119  -0.024   4.026   8.212 -1.4290 -0.3669 -0.3180
  922MOL0     C27120   0.121   4.036   8.255 -0.0778 -0.2282 -0.6412
  922MOL0     C27121   0.210   4.084   8.130  0.9971 -0.2019 -0.2718
  922MOL0     O27122   0.350   4.048   8.167  0.8070 -0.1235  0.7571
  922MOL0     C27123   0.440   4.102   8.089 -0.0305 -0.1362  0.2375
  922MOL0     C27124   0.564   4.047   8.085  0.8024  0.4832 -0.1742
  922MOL0     C27125   0.671   4.098   8.009  0.7667 -0.1021  0.2717
  922MOL0     C27126   0.800   4.022   8.016  0.4897 -0.1693  0.7183
  922MOL0     C27127   0.638   4.198   7.909  0.5499  0.0769 -0.4996
  922MOL0     C27128   0.729   4.246   7.803 -0.0435  0.3975 -0.0611
  922MOL0     O27129   0.705   4.365   7.745  0.1881 -0.3984 -0.5687
  922MOL0     C27130   0.793   4.408   7.646 -1.2550 -0.4753 -0.6282
  922MOL0     C27131   0.865   4.336   7.544  0.6012  0.5109 -1.6394
  922MOL0     C27132   0.957   4.390   7.459 -0.4078  0.3165  0.1174
  922MOL0     C27133   0.986   4.524   7.453  0.2543 -0.1503 -1.0094
  922MOL0     O27134   1.085   4.582   7.368  0.7496 -0.1978 -0.0683
  922MOL0     C27135   1.165   4.692   7.409  0.7294  0.1329 -0.4744
  922MOL0     C27136   1.254   4.742   7.294  0.4014  0.4124  0.6591
  922MOL0     C27137   1.196   4.851   7.204  0.5529  0.4081  1.2557
  922MOL0     C27138   1.249   4.857   7.060 -0.4211 -0.9988  0.4026
  922MOL0     C27139   1.400   4.902   7.046  0.4992 -0.0595  0.3020
  922MOL0     C27140   1.441   4.955   6.903  0.4028  1.2084 -0.5037
  922MOL0     C27141   1.523   4.860   6.823 -0.2818  0.6669  0.0407
  922MOL0     C27142   1.453   4.738   6.761 -0.4858 -0.2111 -0.3199
  922MOL0    Cl27143   1.305   4.800   6.679 -0.4074 -0.5749 -0.1484
  922MOL0     C27144   0.899   4.602   7.538 -0.4345  0.0861  0.0072
  922MOL0     C27145   0.810   4.545   7.633 -0.3712 -0.4723 -0.2241
  922MOL0     O27146   0.821   4.165   7.768 -0.6458  1.0057 -0.1540
  922MOL0     C27147   0.519   4.268   7.922 -0.8165 -0.7934  0.1796
  922MOL0     C27148   0.426   4.224   8.011  0.0418 -0.3205 -0.6881
  922MOL0     N27149  -0.208   3.789   8.425 -0.0093 -0.0539  0.4844
  922MOL0     N27150  -0.154   3.695   8.506  0.0810 -0.7566 -0.2942
  922MOL0     C27151   0.592   4.311   8.689  0.6508 -0.5007 -0.3691
  922MOL0     C27152   0.701   4.396   8.718  0.5689  0.1005 -0.4660
  922MOL0     C27153   0.997   4.728   8.723 -0.0229 -0.1960 -0.3365
  922MOL0     C27154   1.044   4.692   8.850  0.7591 -0.7282  0.9659
  922MOL0     C27155   1.170   4.718   8.911  1.1403 -0.3065  0.0685
  922MOL0     C27156   1.259   4.800   8.836  0.0786 -0.8557  0.3762
  922MOL0     O27157   1.378   4.844   8.883  0.8648 -0.0703 -0.5661
  922MOL0     C27158   1.353   4.965   8.954 -0.6142 -0.4447  0.6135
  922MOL0     C27159   1.440   4.969   9.072  0.0627 -1.4485 -0.3797
  922MOL0     C27160   1.417   5.099   9.151  0.9545 -1.4698 -1.2460
  922MOL0     C27161   1.343   5.081   9.290 -0.7389 -0.2736  0.3024
  922MOL0     C27162   1.202   5.037   9.260 -0.1674 -0.4669  0.5801
  922MOL0     C27163   1.089   5.008   9.228  0.5719  0.9043  0.0989
  922MOL0     C27164   1.217   4.838   8.711 -1.4743 -1.0368 -0.5260
  922MOL0     C27165   1.089   4.820   8.658  0.4491  0.8049  0.2048
  922MOL0     C27166   1.072   4.882   8.526  0.2410  0.6618  0.3609
  922MOL0     H27167   0.559   4.694   8.673 -2.3746 -0.6222  0.9424
  922MOL0     H27168   0.363   4.543   8.682  0.5315  0.3885  1.9506
  922MOL0     H27169   0.165   4.249   8.688  0.3329 -1.6653  0.2080
  922MOL0     H27170   0.202   4.418   8.730  0.3016  0.5153 -1.3379
  922MOL0     H27171   0.380   4.292   8.886  0.4077  0.5575  0.3900
  922MOL0     H27172   0.214   4.296   8.930  1.2203  2.6253 -0.8997
  922MOL0     H27173   0.349   4.064   8.789  0.4558  1.1033 -0.4513
  922MOL0     H27174   0.301   4.072   8.963  0.4510 -1.2147 -0.0207
  922MOL0     H27175   0.083   4.069   8.935  0.1148  1.7003 -1.0510
  922MOL0     H27176   0.079   4.068   8.755  0.5248  0.8570 -0.1177
  922MOL0     H27177   0.183   3.854   8.938 -1.5686 -0.8519 -0.6449
  922MOL0     H27178   0.214   3.856   8.760 -1.5107 -2.3595 -0.6416
  922MOL0     H27179  -0.056   3.819   8.916 -0.6997 -3.1057 -1.0310
  922MOL0     H27180  -0.049   3.898   8.769 -0.5697 -1.0244  0.3316
  922MOL0     H27181  -0.082   3.619   8.791 -0.4505  0.1665 -0.6101
  922MOL0     H27182   0.087   3.629   8.840 -0.7297 -0.0191  2.1359
  922MOL0     H27183   0.153   3.683   8.643 -0.5397 -0.8851  1.3127
  922MOL0     H27184   0.041   3.552   8.602 -0.4547 -0.2716  1.5544
  922MOL0     H27185   0.086   3.914   8.494  0.2325 -0.9008  2.4014
  922MOL0     H27186  -0.117   4.108   8.399 -1.3910 -1.1638  0.1037
  922MOL0     H27187  -0.223   4.032   8.280 -0.0707  0.0559 -1.1050
  922MOL0     H27188  -0.025   3.929   8.161  2.9925  0.4463 -2.4793
  922MOL0     H27189  -0.045   4.097   8.132 -1.3960 -1.6674 -1.5001
  922MOL0     H27190   0.133   4.094   8.347  0.0709 -2.2200  0.6495
  922MOL0     H27191   0.158   3.934   8.265 -2.8570 -1.5913 -2.8732
  922MOL0     H27192   0.179   4.030   8.040 -0.8372 -1.0730  0.8107
  922MOL0     H27193   0.193   4.191   8.121 -0.7697 -0.3549  0.6491
  922MOL0     H27194   0.574   3.955   8.142  0.3444  0.1627 -0.6132
  922MOL0     H27195   0.818   3.975   7.919 -2.0720 -0.2384  0.2182
  922MOL0     H27196   0.801   3.951   8.099  0.5656 -1.2464 -0.1798
  922MOL0     H27197   0.878   4.097   8.035 -2.0396  1.8649  4.4169
  922MOL0     H27198   0.847   4.231   7.526 -4.3674  0.6895  0.7541
  922MOL0     H27199   1.002   4.328   7.382  1.3747  1.7474 -0.0645
  922MOL0     H27200   1.107   4.775   7.450 -1.8298 -1.0846 -1.3753
  922MOL0     H27201   1.233   4.646   7.481  0.0123  2.6674  2.0030
  922MOL0     H27202   1.346   4.781   7.337  2.4970 -3.2520 -0.0591
  922MOL0     H27203   1.280   4.658   7.229 -1.7361  1.4217 -1.6888
  922MOL0     H27204   1.214   4.949   7.250  2.0760  0.3317  0.8789
  922MOL0     H27205   1.088   4.835   7.197  0.8850 -1.3564 -3.8365
  922MOL0     H27206   1.177   4.927   7.019 -0.3986 -0.7281  0.8150
  922MOL0     H27207   1.245   4.764   7.003  3.1933  0.2142 -2.2165
  922MOL0     H27208   1.409   4.982   7.120 -0.2302  1.4409 -1.1653
  922MOL0     H27209   1.462   4.816   7.072 -0.2265 -0.4567  0.7378
  922MOL0     H27210   1.504   5.044   6.912  2.1782 -0.2267  2.5062
  922MOL0     H27211   1.348   4.976   6.848  0.5750  2.7277 -0.2433
  922MOL0     H27212   1.603   4.811   6.879 -1.3897 -0.9404  0.2549
  922MOL0     H27213   1.578   4.911   6.744 -1.2742  2.6025  0.5297
  922MOL0     H27214   1.424   4.672   6.844  1.5934  3.2295  3.5287
  922MOL0     H27215   1.515   4.683   6.690  3.1131  0.3729  2.1107
  922MOL0     H27216   0.902   4.711   7.529 -0.1711  0.0334 -0.6125
  922MOL0     H27217   0.763   4.609   7.707 -0.9358  0.9568 -1.7513
  922MOL0     H27218   0.494   4.350   7.855  0.6128  1.3761  2.1586
  922MOL0     H27219   0.347   4.298   8.016  0.4604  0.0158  2.8363
  922MOL0     H27220   0.619   4.206   8.684  4.5905  0.3427  0.0036
  922MOL0     H27221   0.797   4.352   8.744  0.5998 -0.6535 -1.7766
  922MOL0     H27222   0.986   4.626   8.913 -0.2242  2.3424  3.5523
  922MOL0     H27223   1.194   4.683   9.011  0.3123 -0.5159  0.2039
  922MOL0     H27224   1.370   5.051   8.888 -1.7619  1.1246  2.2605
  922MOL0     H27225   1.248   4.968   8.984 -0.1234  1.6312  2.3586
  922MOL0     H27226   1.548   4.963   9.055  0.6973  1.5481  1.7573
  922MOL0     H27227   1.419   4.880   9.133 -0.3125  0.3864  2.3441
  922MOL0     H27228   1.511   5.152   9.171 -0.2985 -0.4146  2.7653
  922MOL0     H27229   1.348   5.165   9.097 -0.9980  1.9340  4.5378
  922MOL0     H27230   1.326   5.179   9.333 -1.5693  0.5527 -1.7627
  922MOL0     H27231   1.396   5.012   9.357  0.0549  0.3872  0.3651
  922MOL0     H27232   0.989   4.974   9.212  0.3966  0.0822  2.5230
  922MOL0     H27233   1.292   4.890   8.653  3.4888 -3.0029  3.4109
  922MOL0     H27234   0.973   4.904   8.485  0.3685 -1.5626 -1.2846
  922MOL0     H27235   1.137   4.970   8.514  1.0560 -0.1084 -1.1901
  922MOL0     H27236   1.115   4.803   8.465  2.2387  1.6011  0.4737
  923MOL0     O27237   6.625   6.741   1.056  0.7040  0.0314  0.0379
  923MOL0     C27238   6.727   6.677   1.017 -0.0277  0.7012 -0.5055
  923MOL0     O27239   6.756   6.545   1.047  0.0400  0.4285  0.2804
  923MOL0     C27240   6.693   6.488   1.158 -0.2528  0.1119 -0.0720
  923MOL0     C27241   6.764   6.461   1.268  0.4627  0.9234  0.9025
  923MOL0     C27242   6.712   6.385   1.371  0.2550 -0.3316 -0.7179
  923MOL0     C27243   6.589   6.329   1.359 -0.2769  0.0360  0.3620
  923MOL0     O27244   6.539   6.275   1.474 -0.5937 -0.2660 -0.0923
  923MOL0     C27245   6.410   6.221   1.463 -0.6097  0.3398  0.0893
  923MOL0     C27246   6.364   6.177   1.608  0.5961 -0.0395  0.2636
  923MOL0     C27247   6.462   6.082   1.677 -0.9653  0.1458 -0.5304
  923MOL0     C27248   6.442   6.053   1.827 -0.1252 -0.5466  0.1608
  923MOL0     C27249   6.540   5.953   1.890 -0.0735 -0.0539 -0.6973
  923MOL0     C27250   6.529   5.933   2.042  0.5748 -0.1656  0.0421
  923MOL0     C27251   6.656   6.006   2.097 -0.0773  1.1107 -1.1851
  923MOL0     C27252   6.647   6.009   2.258  0.2421  1.2338 -0.0245
  923MOL0     N27253   6.784   5.988   2.299  0.7394 -0.7480 -0.8629
  923MOL0     C27254   6.882   6.087   2.339 -0.5911  0.8326  0.2221
  923MOL0     C27255   6.992   6.020   2.375  0.3588 -0.8587 -0.0884
  923MOL0     C27256   7.115   6.058   2.439 -0.3798 -0.4266  0.2180
  923MOL0     C27257   7.115   6.192   2.507  0.3745 -0.1002 -1.5053
  923MOL0     C27258   7.244   6.274   2.537  0.7635  0.8734  0.3087
  923MOL0     C27259   7.222   6.421   2.585  0.6422 -0.1996 -0.5755
  923MOL0     O27260   7.210   6.512   2.470 -0.0377  0.0168 -0.1027
  923MOL0     C27261   7.315   6.596   2.441  0.7542  0.0036 -0.3570
  923MOL0     C27262   7.448   6.566   2.468  0.4470 -0.2918 -0.8344
  923MOL0     C27263   7.550   6.654   2.421 -0.0372 -0.3677  0.1573
  923MOL0     C27264   7.692   6.597   2.433  0.0074 -0.4787 -0.6595
  923MOL0     C27265   7.510   6.781   2.366  0.3279  0.0628 -0.0174
  923MOL0     C27266   7.608   6.869   2.314 -0.2564 -0.7653 -0.2837
  923MOL0     O27267   7.572   6.997   2.275  0.4676 -0.4475  0.0638
  923MOL0     C27268   7.663   7.076   2.222  0.1518 -0.3535  1.0318
  923MOL0     C27269   7.721   7.056   2.097 -0.4494  0.3702  0.2619
  923MOL0     C27270   7.797   7.157   2.044 -0.4624  0.6249  0.1854
  923MOL0     C27271   7.839   7.273   2.109  0.7518  0.2009 -0.3788
  923MOL0     O27272   7.907   7.369   2.038 -0.8107  0.9422 -0.4886
  923MOL0     C27273   7.930   7.495   2.100 -0.8422 -0.5185  0.1577
  923MOL0     C27274   8.020   7.567   1.996 -0.1059  0.1185  0.1860
  923MOL0     C27275   7.931   7.659   1.910  0.3213  0.2304  0.1523
  923MOL0     C27276   7.884   7.785   1.973  0.0109 -0.2158 -0.8113
  923MOL0     C27277   7.768   7.859   1.906 -0.5023 -0.4173  0.6038
  923MOL0     C27278   7.774   8.016   1.913 -1.7392  0.2208 -0.8834
  923MOL0     C27279   7.657   8.090   1.853 -0.2253 -0.1709  0.4463
  923MOL0     C27280   7.635   8.232   1.918  0.3311  0.0086 -0.5818
  923MOL0    Cl27281   7.787   8.326   1.882 -0.3654  0.0482  0.1004
  923MOL0     C27282   7.796   7.284   2.245 -0.7748  1.0719 -1.1401
  923MOL0     C27283   7.709   7.189   2.297  0.3961 -0.9303  0.0078
  923MOL0     O27284   7.716   6.823   2.284  0.2407  0.4832 -0.0077
  923MOL0     C27285   7.370   6.813   2.359  0.4431  0.0189 -0.6745
  923MOL0     C27286   7.279   6.713   2.377 -0.5019  0.9817 -1.3948
  923MOL0     N27287   6.972   5.894   2.329  0.7775  0.4582 -0.7257
  923MOL0     N27288   6.854   5.878   2.282 -0.7220  0.2302  0.7813
  923MOL0     C27289   6.505   6.368   1.245 -0.4270  1.0301 -0.3150
  923MOL0     C27290   6.565   6.446   1.152  0.0622 -0.6630 -0.3801
  923MOL0     C27291   6.828   6.757   0.942 -1.1008 -0.3462  0.4372
  923MOL0     C27292   6.964   6.718   0.962  0.7162 -0.4651  0.1275
  923MOL0     C27293   7.065   6.788   0.896  0.1257  0.5051  0.4021
  923MOL0     C27294   7.036   6.908   0.822  0.2401  0.4468  0.1692
  923MOL0     O27295   7.143   6.973   0.769  0.3039  0.1540 -0.2633
  923MOL0     C27296   7.177   7.100   0.833  0.2513  0.6282  0.4020
  923MOL0     C27297   7.242   7.171   0.713 -0.0042  0.4421 -0.0135
  923MOL0     C27298   7.307   7.308   0.754  0.8329 -0.3577  0.7875
  923MOL0     C27299   7.201   7.420   0.778 -0.0387 -0.1871  0.6677
  923MOL0     C27300   7.140   7.470   0.649 -0.2016  0.2772 -0.5808
  923MOL0     C27301   7.070   7.510   0.568  0.6120 -0.0186 -0.6004
  923MOL0     C27302   6.904   6.940   0.802 -0.5965  0.0027  0.7646
  923MOL0     C27303   6.801   6.871   0.860 -0.3574 -0.4077 -0.0906
  923MOL0     C27304   6.656   6.919   0.843  0.5366  0.3565  0.4158
  923MOL0     H27305   6.869   6.480   1.288  0.9823 -1.3187  0.5080
  923MOL0     H27306   6.763   6.372   1.466 -1.0463 -2.4742 -0.2359
  923MOL0     H27307   6.423   6.139   1.392  1.9226  0.0334  0.8180
  923MOL0     H27308   6.342   6.300   1.429 -0.4191  2.9573  4.8413
  923MOL0     H27309   6.355   6.271   1.664 -0.2195  0.9777 -1.4992
  923MOL0     H27310   6.262   6.137   1.611  0.0630  1.1420 -1.1531
  923MOL0     H27311   6.441   5.991   1.620 -1.2829  0.6325 -1.1954
  923MOL0     H27312   6.561   6.115   1.646 -1.6903  1.0364 -2.0211
  923MOL0     H27313   6.461   6.147   1.880 -1.2330  0.2208 -0.7353
  923MOL0     H27314   6.341   6.028   1.861 -0.1158 -1.9316 -0.7644
  923MOL0     H27315   6.642   5.979   1.861  0.2656 -1.1407 -0.5084
  923MOL0     H27316   6.509   5.855   1.852 -1.6990 -0.1963  0.8372
  923MOL0     H27317   6.436   5.972   2.082 -1.5716 -1.9798 -2.7239
  923MOL0     H27318   6.535   5.825   2.063 -0.3652 -0.5933 -1.6824
  923MOL0     H27319   6.663   6.113   2.075  0.9232  1.4424  0.5022
  923MOL0     H27320   6.744   5.950   2.064 -1.0290  0.0724 -2.0489
  923MOL0     H27321   6.594   6.088   2.312  1.3310  0.0121  3.0636
  923MOL0     H27322   6.603   5.911   2.279  0.2263  0.9991 -1.0931
  923MOL0     H27323   6.855   6.192   2.343  0.8546  1.1684  2.0658
  923MOL0     H27324   7.200   6.061   2.370 -0.8563 -5.3646 -0.9367
  923MOL0     H27325   7.150   5.975   2.501  2.7233  1.5443  1.3498
  923MOL0     H27326   7.051   6.260   2.448 -0.6528  1.3561  1.1064
  923MOL0     H27327   7.055   6.193   2.599 -0.6641  1.6707 -2.1273
  923MOL0     H27328   7.290   6.216   2.618 -0.4507 -0.2247  0.2361
  923MOL0     H27329   7.324   6.252   2.465  0.0640  1.5740 -0.6917
  923MOL0     H27330   7.127   6.423   2.639  0.1522 -3.4376 -1.1003
  923MOL0     H27331   7.286   6.447   2.669 -1.0863 -1.2907  1.1719
  923MOL0     H27332   7.470   6.473   2.520  0.2524  1.1834  2.0112
  923MOL0     H27333   7.748   6.668   2.494 -1.8496  1.7433 -1.4232
  923MOL0     H27334   7.746   6.603   2.338  0.0109 -2.6544 -0.8602
  923MOL0     H27335   7.688   6.498   2.480 -1.7307  0.6708  1.7994
  923MOL0     H27336   7.686   6.973   2.035 -0.3244  0.4733  0.0543
  923MOL0     H27337   7.823   7.154   1.938  1.8298  1.8429  0.6314
  923MOL0     H27338   7.835   7.544   2.124 -0.1662  1.3105 -0.7278
  923MOL0     H27339   7.989   7.481   2.191  1.6896 -0.6398 -1.4072
  923MOL0     H27340   8.093   7.629   2.049  0.1124 -0.0956  0.1351
  923MOL0     H27341   8.075   7.499   1.932  2.0492  3.5535 -1.9319
  923MOL0     H27342   7.846   7.600   1.876  0.5048 -0.9594  1.6273
  923MOL0     H27343   7.993   7.685   1.824 -1.7281 -0.7627 -1.7354
  923MOL0     H27344   7.976   7.844   1.979  1.8360 -2.7672 -2.2786
  923MOL0     H27345   7.853   7.752   2.073  0.1617  3.3752  0.5768
  923MOL0     H27346   7.774   7.835   1.800  0.9372 -0.9745  0.7887
  923MOL0     H27347   7.670   7.817   1.929 -0.7847 -0.3949 -0.5085
  923MOL0     H27348   7.864   8.037   1.854 -1.7418 -1.7157 -1.6315
  923MOL0     H27349   7.794   8.050   2.015 -1.4756  1.2990 -1.2738
  923MOL0     H27350   7.563   8.034   1.862  0.3223 -0.9551  1.5705
  923MOL0     H27351   7.676   8.101   1.746  0.9778 -3.6903  0.1485
  923MOL0     H27352   7.622   8.227   2.026  0.9180 -0.4037 -0.5288
  923MOL0     H27353   7.550   8.276   1.864 -0.0368 -0.0167 -0.0395
  923MOL0     H27354   7.820   7.366   2.312  0.2200  2.3936 -3.0224
  923MOL0     H27355   7.673   7.201   2.398 -1.2693  2.3277 -0.8027
  923MOL0     H27356   7.340   6.906   2.311  1.9102  1.6298  1.3283
  923MOL0     H27357   7.174   6.728   2.357 -1.0129 -2.5912 -2.1220
  923MOL0     H27358   6.403   6.332   1.236  0.7880 -2.7704 -0.6635
  923MOL0     H27359   6.519   6.481   1.060  1.9560 -0.2345 -1.2073
  923MOL0     H27360   6.990   6.633   1.024 -2.6966 -1.4984  0.3320
  923MOL0     H27361   7.160   6.738   0.910 -0.4845 -0.5525  0.8553
  923MOL0     H27362   7.091   7.162   0.858 -2.1131 -0.6571 -3.6033
  923MOL0     H27363   7.236   7.085   0.924  0.3459  1.3969  0.4684
  923MOL0     H27364   7.180   7.202   0.628 -1.7213 -2.4572  0.0531
  923MOL0     H27365   7.310   7.092   0.678 -2.1230 -1.5286  0.0688
  923MOL0     H27366   7.374   7.299   0.840 -0.3491 -0.3409  1.7272
  923MOL0     H27367   7.372   7.340   0.672 -1.3945 -1.4460 -1.5296
  923MOL0     H27368   7.246   7.508   0.825  1.1375 -1.3787  1.8355
  923MOL0     H27369   7.129   7.381   0.850  0.4571  1.1315  1.9311
  923MOL0     H27370   6.999   7.561   0.505 -1.8260  1.6368  3.1718
  923MOL0     H27371   6.883   7.035   0.753 -2.6979 -0.4432  0.6932
  923MOL0     H27372   6.646   7.000   0.770  1.4125  1.3982  1.4133
  923MOL0     H27373   6.591   6.838   0.808 -1.8768  1.7287  1.4281
  923MOL0     H27374   6.627   6.964   0.938  1.5471 -0.2606  1.0382
  924MOL0     O27375   9.166   9.342   5.842 -0.7093 -0.3195 -0.6461
  924MOL0     C27376   9.185   9.431   5.923 -0.7831  0.7414  0.2245
  924MOL0     O27377   9.189   9.554   5.889  0.3710 -0.9071  0.8975
  924MOL0     C27378   9.165   9.589   5.756  0.1813  0.1330  0.9262
  924MOL0     C27379   9.251   9.560   5.653 -1.0874 -0.7300  1.5957
  924MOL0     C27380   9.216   9.589   5.523 -0.3062 -0.6816  0.1765
  924MOL0     C27381   9.090   9.652   5.487 -0.0140  0.7776 -0.8979
  924MOL0     O27382   9.071   9.687   5.358  0.8348 -0.5311 -0.5574
  924MOL0     C27383   8.961   9.637   5.293  0.8311 -0.3723 -0.4323
  924MOL0     C27384   9.011   9.553   5.173  0.7815  0.0886  0.4093
  924MOL0     C27385   8.898   9.478   5.105 -0.5259 -0.5537  0.4822
  924MOL0     C27386   8.950   9.390   4.989 -1.1122  0.4846 -0.6844
  924MOL0     C27387   8.834   9.294   4.961 -0.0479  0.5875  0.7253
  924MOL0     C27388   8.867   9.203   4.833 -0.5918 -0.5494 -0.4560
  924MOL0     C27389   8.744   9.115   4.826 -0.2043 -0.0327  0.6857
  924MOL0     C27390   8.696   9.008   4.933 -0.3248  0.6042 -0.8300
  924MOL0     N27391   8.700   8.870   4.879 -0.1778  1.1900 -0.7293
  924MOL0     C27392   8.786   8.770   4.916  0.1792  0.5398  0.4496
  924MOL0     C27393   8.752   8.665   4.845 -0.2098 -0.4476  0.0646
  924MOL0     C27394   8.799   8.523   4.846  0.5075 -0.4129 -0.5443
  924MOL0     C27395   8.772   8.420   4.730  1.1646 -1.0358  0.0803
  924MOL0     C27396   8.901   8.400   4.651 -0.0815 -0.9155  0.8291
  924MOL0     C27397   8.889   8.299   4.538  0.9832  0.5348 -0.8030
  924MOL0     O27398   8.857   8.166   4.585 -0.7787  0.6621 -0.0255
  924MOL0     C27399   8.880   8.061   4.501 -0.2301  0.9768 -1.1360
  924MOL0     C27400   8.892   8.061   4.363  0.1788 -0.5647 -0.5813
  924MOL0     C27401   8.904   7.938   4.284  0.5606  0.2212  0.4118
  924MOL0     C27402   8.943   7.948   4.143  0.2274 -0.3475  0.3947
  924MOL0     C27403   8.905   7.812   4.356  0.3109 -0.4080  0.4875
  924MOL0     C27404   8.935   7.686   4.293  0.1587 -0.0291  0.2015
  924MOL0     O27405   9.004   7.596   4.374  0.1944 -0.5974  0.0719
  924MOL0     C27406   9.017   7.475   4.310  0.6060 -0.2785  0.5359
  924MOL0     C27407   9.105   7.450   4.198  1.6525 -0.7749 -0.1048
  924MOL0     C27408   9.148   7.326   4.152  1.7769  0.0862  0.3221
  924MOL0     C27409   9.110   7.209   4.230  0.2165  0.1944 -0.2870
  924MOL0     O27410   9.115   7.081   4.184  0.3085  0.1058  0.5924
  924MOL0     C27411   9.212   7.055   4.088  0.0429 -0.4688 -0.3211
  924MOL0     C27412   9.209   6.919   4.021  0.8846 -0.4962 -0.2762
  924MOL0     C27413   9.075   6.890   3.956 -0.1300 -0.0890  0.0478
  924MOL0     C27414   9.080   6.749   3.904  0.4793 -0.1085  0.1436
  924MOL0     C27415   8.942   6.723   3.841  0.5419 -1.5523  0.0639
  924MOL0     C27416   8.937   6.580   3.779 -0.5154 -1.0906  0.1540
  924MOL0     C27417   8.800   6.556   3.727  0.4226  0.1693 -0.6168
  924MOL0     C27418   8.783   6.411   3.678  0.5184  0.5905 -0.3213
  924MOL0    Cl27419   8.608   6.369   3.678 -0.3807 -0.1435  0.1079
  924MOL0     C27420   9.026   7.236   4.335  0.2276 -0.6183 -1.6202
  924MOL0     C27421   8.980   7.359   4.375  0.2425 -0.4904  0.1839
  924MOL0     O27422   8.896   7.663   4.172 -0.9441  0.1248 -0.2607
  924MOL0     C27423   8.875   7.818   4.493  0.2639  0.7227 -1.0118
  924MOL0     C27424   8.869   7.938   4.560  0.0008  0.8467 -0.5281
  924MOL0     N27425   8.641   8.700   4.774  0.2164 -0.0824 -0.7286
  924MOL0     N27426   8.616   8.826   4.788 -0.1354 -0.3187  0.2125
  924MOL0     C27427   9.007   9.694   5.591 -0.0836  1.1868 -0.1931
  924MOL0     C27428   9.039   9.653   5.725  0.5929 -0.3776 -0.9121
  924MOL0     C27429   9.208   9.402   6.067 -0.8226 -0.6660  0.2045
  924MOL0     C27430   9.258   9.502   6.155  0.5502 -0.5928  1.0019
  924MOL0     C27431   9.276   9.474   6.294 -0.7254  0.3909  1.2878
  924MOL0     C27432   9.267   9.339   6.342 -0.0256 -0.1127  0.5934
  924MOL0     O27433   9.313   9.306   6.467 -0.7984  0.0630 -0.4012
  924MOL0     C27434   9.385   9.182   6.471  0.2073 -0.3524 -0.2505
  924MOL0     C27435   9.460   9.169   6.600  0.5098 -0.1949  0.2084
  924MOL0     C27436   9.566   9.065   6.610  0.7579 -0.4371  0.0260
  924MOL0     C27437   9.653   9.086   6.736  0.2994  0.4819 -0.5382
  924MOL0     C27438   9.733   9.210   6.741 -0.5859 -0.2756 -0.1953
  924MOL0     C27439   9.803   9.309   6.752 -0.5229 -0.0027 -0.4861
  924MOL0     C27440   9.204   9.253   6.258 -0.0925  0.7233 -0.5836
  924MOL0     C27441   9.174   9.284   6.122 -0.2271 -0.3961 -0.0130
  924MOL0     C27442   9.114   9.160   6.058 -0.3456  0.4291 -0.0985
  924MOL0     H27443   9.349   9.518   5.670 -0.0191 -1.4789 -4.3310
  924MOL0     H27444   9.287   9.558   5.447  2.4359  1.3028  1.7318
  924MOL0     H27445   8.892   9.715   5.260  0.9211  0.3771  1.0393
  924MOL0     H27446   8.912   9.565   5.361  0.3963  0.9957  0.7572
  924MOL0     H27447   9.058   9.620   5.101 -0.9247  3.7655  2.4292
  924MOL0     H27448   9.069   9.472   5.217 -3.5023 -1.2690  4.3549
  924MOL0     H27449   8.842   9.425   5.183 -0.5545  0.0240  0.8593
  924MOL0     H27450   8.829   9.549   5.057  2.0762  0.0879 -2.5762
  924MOL0     H27451   8.968   9.451   4.900  1.0288  3.3484  1.5124
  924MOL0     H27452   9.043   9.336   5.010 -1.9524 -0.8891 -0.3557
  924MOL0     H27453   8.738   9.339   4.933 -1.1648 -1.5769  0.8520
  924MOL0     H27454   8.809   9.231   5.048  0.9639 -0.0242  0.5882
  924MOL0     H27455   8.865   9.250   4.734 -1.1660 -3.1287 -1.7716
  924MOL0     H27456   8.967   9.163   4.848  0.2272  1.5979  0.1638
  924MOL0     H27457   8.755   9.061   4.732 -0.6890  0.8084  0.1321
  924MOL0     H27458   8.664   9.185   4.800 -1.2410 -0.6384  2.1012
  924MOL0     H27459   8.756   9.031   5.022  2.6979 -1.6700 -2.1139
  924MOL0     H27460   8.591   9.024   4.956  0.3867  3.6794  0.9375
  924MOL0     H27461   8.859   8.781   4.996  0.3646 -0.6292  0.4628
  924MOL0     H27462   8.764   8.474   4.937  0.8116 -3.0917 -1.7806
  924MOL0     H27463   8.905   8.514   4.869 -0.1377 -3.6858  1.7769
  924MOL0     H27464   8.748   8.323   4.775 -0.3668 -0.8153 -0.1911
  924MOL0     H27465   8.691   8.448   4.662  0.1783  0.4678  1.7692
  924MOL0     H27466   8.923   8.495   4.601 -1.8649 -0.7278  0.3182
  924MOL0     H27467   8.980   8.367   4.718 -0.4140  1.6031  2.5610
  924MOL0     H27468   8.800   8.327   4.481  1.7947 -1.0331 -2.9484
  924MOL0     H27469   8.969   8.312   4.465  2.3023  1.1630  0.6673
  924MOL0     H27470   8.894   8.161   4.319 -2.4331  1.4168  3.2819
  924MOL0     H27471   8.897   7.873   4.077 -1.5621  0.6272  0.4774
  924MOL0     H27472   9.052   7.935   4.139  0.4087  1.2699 -0.9177
  924MOL0     H27473   8.912   8.045   4.102  0.7118 -0.0320  0.7648
  924MOL0     H27474   9.148   7.544   4.167  2.8580 -0.5023  2.1883
  924MOL0     H27475   9.198   7.320   4.056 -0.2567  4.9802 -1.3652
  924MOL0     H27476   9.198   7.120   4.000 -1.8155 -1.2968 -0.6802
  924MOL0     H27477   9.310   7.084   4.127 -0.7010  2.3095 -0.2975
  924MOL0     H27478   9.283   6.903   3.942  1.2792 -3.3011  0.5324
  924MOL0     H27479   9.233   6.842   4.095  0.4131 -0.3450  0.0380
  924MOL0     H27480   9.059   6.947   3.864 -0.2261 -0.5952 -0.2572
  924MOL0     H27481   8.996   6.907   4.030  1.5725  3.0508  1.2787
  924MOL0     H27482   9.093   6.671   3.981 -2.9664 -3.3250 -2.1667
  924MOL0     H27483   9.153   6.730   3.825 -2.8632 -3.5002 -2.5269
  924MOL0     H27484   8.861   6.747   3.910  0.6928  1.7862 -0.7696
  924MOL0     H27485   8.920   6.799   3.765 -0.1819 -0.9046  0.9061
  924MOL0     H27486   8.975   6.513   3.858  0.3466  1.3374  1.9303
  924MOL0     H27487   9.008   6.577   3.696 -1.0570 -0.2965 -0.3444
  924MOL0     H27488   8.778   6.627   3.647  1.3766 -1.2826 -2.2417
  924MOL0     H27489   8.726   6.573   3.805 -0.0688 -4.1927  0.1387
  924MOL0     H27490   8.826   6.345   3.753 -0.4012 -1.0622 -1.1781
  924MOL0     H27491   8.832   6.398   3.581 -1.7207 -0.3517 -1.4026
  924MOL0     H27492   8.984   7.150   4.387  1.6348 -1.7406 -2.2778
  924MOL0     H27493   8.911   7.349   4.459 -2.7765 -1.5365 -2.2402
  924MOL0     H27494   8.872   7.718   4.536  2.6120  0.9810 -0.1267
  924MOL0     H27495   8.850   7.941   4.667 -2.4643 -2.0471 -0.7283
  924MOL0     H27496   8.912   9.739   5.562 -1.3369 -0.4858  1.1007
  924MOL0     H27497   8.971   9.667   5.808 -1.5447 -3.2804 -2.0136
  924MOL0     H27498   9.292   9.591   6.102  1.1981 -1.3775  0.0617
  924MOL0     H27499   9.333   9.543   6.355  0.8615 -2.7969  3.7612
  924MOL0     H27500   9.325   9.091   6.455 -0.8488  0.0867  1.0260
  924MOL0     H27501   9.448   9.182   6.382 -0.8213 -1.6809 -1.0289
  924MOL0     H27502   9.385   9.157   6.679  1.7902 -0.6022  1.3983
  924MOL0     H27503   9.512   9.264   6.608  1.0131 -0.2771 -1.5660
  924MOL0     H27504   9.507   8.972   6.606 -1.1928  0.7952 -2.0478
  924MOL0     H27505   9.632   9.068   6.523  0.9294  2.1059  0.1724
  924MOL0     H27506   9.723   9.003   6.752  1.6147  2.1861  5.3349
  924MOL0     H27507   9.590   9.097   6.825  1.0029  1.0160 -0.0909
  924MOL0     H27508   9.857   9.402   6.742 -0.9492  0.2580 -0.3948
  924MOL0     H27509   9.187   9.154   6.297  0.9500  0.0094 -1.8370
  924MOL0     H27510   9.005   9.161   6.060 -0.4487 -1.2183 -1.7112
  924MOL0     H27511   9.145   9.147   5.954 -0.5625  1.3531 -0.2862
  924MOL0     H27512   9.147   9.068   6.108  2.7604 -0.4715 -3.3483
  925MOL0     O27513   9.207   5.311   9.829 -0.4900  0.0861 -0.1209
  925MOL0     C27514   9.142   5.371   9.747  0.2599  0.3006  0.3620
  925MOL0     O27515   9.107   5.511   9.753  0.6168  0.1647 -0.5428
  925MOL0     C27516   9.142   5.592   9.855 -0.6569 -0.6786  0.3221
  925MOL0     C27517   9.231   5.563   9.957  0.7519  1.0837 -1.2077
  925MOL0     C27518   9.278   5.668  10.040 -1.3779  0.0271  0.4171
  925MOL0     C27519   9.221   5.790  10.040  0.7066 -0.6316  0.2519
  925MOL0     O27520   9.246   5.882  10.128  0.2721  0.2632 -0.5405
  925MOL0     C27521   9.297   5.849  10.262  0.2988  0.2972 -0.5946
  925MOL0     C27522   9.307   5.988  10.337 -0.4386 -0.8733 -0.1040
  925MOL0     C27523   9.210   5.993  10.457  0.0385  0.9100  0.8304
  925MOL0     C27524   9.220   6.105  10.563  0.4824  0.2129 -0.0652
  925MOL0     C27525   9.182   6.245  10.504  0.4809 -0.4129 -0.3623
  925MOL0     C27526   9.034   6.258  10.474 -0.0841  0.1978 -0.6021
  925MOL0     C27527   8.997   6.392  10.421  0.2415  0.0652 -0.4944
  925MOL0     C27528   8.840   6.401  10.386  0.0606 -0.1328 -0.8102
  925MOL0     N27529   8.756   6.375  10.506  1.2669 -0.2540  0.3143
  925MOL0     C27530   8.736   6.462  10.611 -0.1065  0.3767 -0.0857
  925MOL0     C27531   8.637   6.412  10.692  0.6268  0.0793 -0.1552
  925MOL0     C27532   8.577   6.465  10.822 -0.2319 -1.0713  0.3690
  925MOL0     C27533   8.443   6.542  10.804  1.1068 -0.3884 -0.5888
  925MOL0     C27534   8.385   6.579  10.951  0.7977  0.0523  0.6461
  925MOL0     C27535   8.278   6.679  10.941 -0.1873  0.3895  0.1328
  925MOL0     O27536   8.346   6.786  10.889  0.0344 -0.3830  0.1940
  925MOL0     C27537   8.313   6.833  10.760  0.1813 -0.1713 -0.6869
  925MOL0     C27538   8.415   6.896  10.687  0.4310  0.6245 -0.9682
  925MOL0     C27539   8.374   6.955  10.564 -0.8563  0.1077 -0.5098
  925MOL0     C27540   8.488   7.021  10.479 -0.2967 -0.2181 -0.5342
  925MOL0     C27541   8.240   6.960  10.521  0.0190  0.9924  0.5978
  925MOL0     C27542   8.199   7.028  10.393  0.5609  0.2217 -0.2743
  925MOL0     O27543   8.248   6.991  10.260  0.9306  0.4671  0.2656
  925MOL0     C27544   8.233   7.097  10.159  0.3359 -0.1224 -0.2640
  925MOL0     C27545   8.336   7.106  10.083 -0.0528 -0.7892 -0.3334
  925MOL0     C27546   8.335   7.163   9.958  0.2918  0.7076  0.0435
  925MOL0     C27547   8.219   7.217   9.902 -0.3069  0.2311 -0.8690
  925MOL0     O27548   8.216   7.262   9.770  1.0771  0.0330 -0.2084
  925MOL0     C27549   8.144   7.383   9.753 -0.9532  0.3391  0.7233
  925MOL0     C27550   8.021   7.359   9.673  0.5155  0.6445  0.8490
  925MOL0     C27551   7.968   7.497   9.618  0.3857 -0.6396 -0.1605
  925MOL0     C27552   7.825   7.490   9.562  0.8862  0.6692 -0.1361
  925MOL0     C27553   7.751   7.618   9.570  0.2581 -1.0221  0.2264
  925MOL0     C27554   7.775   7.739   9.475  0.4437  0.2015  0.3243
  925MOL0     C27555   7.766   7.692   9.330 -0.0975  0.2961 -0.0485
  925MOL0     C27556   7.807   7.812   9.244 -0.4768  0.0529  0.3147
  925MOL0    Cl27557   7.830   7.740   9.074 -0.2239  0.1764 -0.1880
  925MOL0     C27558   8.109   7.227   9.991 -0.2851 -0.4945  0.3959
  925MOL0     C27559   8.115   7.158  10.112  0.4394 -0.1688 -0.0778
  925MOL0     O27560   8.134   7.128  10.425  0.6778 -0.4772  0.3164
  925MOL0     C27561   8.146   6.886  10.591 -0.4502 -1.0412  0.3179
  925MOL0     C27562   8.183   6.838  10.718  0.2123 -0.6446 -1.4161
  925MOL0     N27563   8.592   6.296  10.631 -0.2649  0.0899  0.7385
  925MOL0     N27564   8.674   6.265  10.525  1.2907 -0.1687  0.7941
  925MOL0     C27565   9.131   5.827   9.938  0.3333 -0.3297 -1.0664
  925MOL0     C27566   9.097   5.724   9.841 -0.4684 -0.3783 -0.1263
  925MOL0     C27567   9.081   5.297   9.632  0.4220 -1.2134  0.2631
  925MOL0     C27568   9.086   5.355   9.504  0.0674  0.8077 -0.3647
  925MOL0     C27569   9.030   5.292   9.395  1.0920  0.4055  0.0654
  925MOL0     C27570   8.968   5.163   9.412 -0.5194  0.3659 -0.4265
  925MOL0     O27571   8.922   5.103   9.296  0.1341  0.3209  0.0997
  925MOL0     C27572   8.816   5.003   9.310 -0.8922 -0.5246  0.0105
  925MOL0     C27573   8.708   5.027   9.203 -0.2386 -0.0117 -0.4623
  925MOL0     C27574   8.644   4.907   9.139 -0.1534  0.8827 -0.4671
  925MOL0     C27575   8.559   4.951   9.021 -0.0447  1.3112 -0.2873
  925MOL0     C27576   8.490   4.834   8.952  0.6636 -0.1771 -0.0539
  925MOL0     C27577   8.451   4.734   8.899 -0.0990 -0.3783 -0.2535
  925MOL0     C27578   8.958   5.113   9.538 -0.2732  1.2537  0.0438
  925MOL0     C27579   9.025   5.179   9.647  0.5304  0.5488  1.1275
  925MOL0     C27580   9.016   5.113   9.782 -0.0931 -0.2134  0.6517
  925MOL0     H27581   9.284   5.470   9.977  0.0772  1.4040  3.0843
  925MOL0     H27582   9.354   5.653  10.115 -2.8125  0.3755  2.0113
  925MOL0     H27583   9.397   5.806  10.265  0.1317 -0.0326  1.7466
  925MOL0     H27584   9.230   5.783  10.318 -0.4530  2.9739  1.9051
  925MOL0     H27585   9.412   6.016  10.355  0.1267 -3.8407  1.7838
  925MOL0     H27586   9.269   6.063  10.266 -0.1781 -0.8343 -0.2033
  925MOL0     H27587   9.107   5.996  10.418 -0.5031  2.8308  2.2737
  925MOL0     H27588   9.214   5.898  10.511 -0.0212  0.3864 -0.0488
  925MOL0     H27589   9.153   6.073  10.643  0.9823 -2.6925 -0.6794
  925MOL0     H27590   9.324   6.115  10.595  2.1591 -1.7983 -4.1334
  925MOL0     H27591   9.253   6.278  10.428  0.4704  2.6467  0.8145
  925MOL0     H27592   9.193   6.321  10.582 -2.3286 -0.9814  0.6733
  925MOL0     H27593   9.008   6.184  10.398  1.0274 -0.4727 -0.3668
  925MOL0     H27594   8.969   6.235  10.558 -0.4516  0.7151 -0.7402
  925MOL0     H27595   9.043   6.417  10.324 -1.2412  1.4876 -0.8622
  925MOL0     H27596   9.023   6.481  10.478 -0.6751  1.2878 -1.9111
  925MOL0     H27597   8.808   6.500  10.353  3.0967  1.4629  0.6243
  925MOL0     H27598   8.817   6.334  10.303 -0.4423  0.2993 -1.0232
  925MOL0     H27599   8.789   6.556  10.627  1.1160 -0.5618  1.7110
  925MOL0     H27600   8.641   6.527  10.884 -0.9697  0.4236 -0.3192
  925MOL0     H27601   8.545   6.389  10.894  1.7059 -0.4941  1.9227
  925MOL0     H27602   8.463   6.632  10.746  2.5297  0.1838  0.7195
  925MOL0     H27603   8.377   6.474  10.748 -1.8136  0.9055  1.0597
  925MOL0     H27604   8.341   6.490  10.999  2.1397  0.2932  2.4338
  925MOL0     H27605   8.469   6.604  11.016  1.2491 -1.4232  0.6799
  925MOL0     H27606   8.197   6.639  10.879 -3.6954 -0.7801  4.9094
  925MOL0     H27607   8.242   6.700  11.042  1.9292  0.9196  0.8315
  925MOL0     H27608   8.518   6.900  10.719 -0.1142  0.9842  0.8368
  925MOL0     H27609   8.472   7.122  10.441  0.4619  0.5166  1.0038
  925MOL0     H27610   8.510   6.954  10.395  1.3404  1.7040 -1.7397
  925MOL0     H27611   8.586   7.021  10.528  0.0457  0.9434 -1.1788
  925MOL0     H27612   8.416   7.038  10.107  1.4949  1.1780  0.3828
  925MOL0     H27613   8.418   7.155   9.888 -0.4626 -1.7193 -0.6984
  925MOL0     H27614   8.135   7.443   9.844  1.2194  1.3475  0.3595
  925MOL0     H27615   8.207   7.443   9.686  0.5779  0.5555  2.2846
  925MOL0     H27616   8.043   7.294   9.587 -1.9306  2.5097 -1.3682
  925MOL0     H27617   7.938   7.310   9.725 -0.2706  0.0061 -0.9134
  925MOL0     H27618   8.038   7.533   9.543  0.9354 -1.4232 -0.0443
  925MOL0     H27619   7.983   7.562   9.705  2.2500 -0.9519 -0.1947
  925MOL0     H27620   7.772   7.416   9.622  2.6875 -1.5055 -1.0967
  925MOL0     H27621   7.822   7.468   9.455 -1.1890  1.9732 -0.4068
  925MOL0     H27622   7.643   7.602   9.561  0.3860 -2.1356  0.6052
  925MOL0     H27623   7.770   7.645   9.674  1.3646  0.8754 -0.4090
  925MOL0     H27624   7.866   7.795   9.499 -1.7087  3.4544  1.6348
  925MOL0     H27625   7.690   7.805   9.498 -0.4067 -1.4132  2.1146
  925MOL0     H27626   7.667   7.647   9.314  0.1423 -1.3294  2.4621
  925MOL0     H27627   7.843   7.618   9.307  0.9981  2.1897 -3.2176
  925MOL0     H27628   7.908   7.846   9.267 -0.8884  0.6159  1.3446
  925MOL0     H27629   7.725   7.885   9.245 -1.1306 -0.5875 -1.6596
  925MOL0     H27630   8.016   7.271   9.958 -0.7993 -0.8955  1.2848
  925MOL0     H27631   8.024   7.145  10.170  1.8007  0.5594  2.3499
  925MOL0     H27632   8.043   6.866  10.562 -0.1634  0.4020 -1.9619
  925MOL0     H27633   8.109   6.805  10.789  1.5208  2.0316  1.4304
  925MOL0     H27634   9.075   5.920   9.937 -0.8856 -1.0170 -0.1938
  925MOL0     H27635   9.035   5.771   9.765 -0.5071  1.6538  1.0854
  925MOL0     H27636   9.144   5.443   9.475 -0.4290  0.8135 -1.3741
  925MOL0     H27637   9.039   5.329   9.293  0.0839 -2.0193 -0.9747
  925MOL0     H27638   8.865   4.907   9.289 -2.9265 -1.8682  1.0702
  925MOL0     H27639   8.774   4.990   9.410 -1.3573 -0.6316 -0.1949
  925MOL0     H27640   8.757   5.076   9.118 -1.6214  3.0886  0.3895
  925MOL0     H27641   8.626   5.092   9.235 -0.4887 -1.1551  1.3636
  925MOL0     H27642   8.721   4.837   9.107 -0.3167 -0.0520  1.0952
  925MOL0     H27643   8.581   4.857   9.213  1.9678  2.5501  2.6879
  925MOL0     H27644   8.628   4.994   8.948 -0.8098 -1.7322 -3.0316
  925MOL0     H27645   8.490   5.024   9.065 -1.1912  0.6141 -0.8621
  925MOL0     H27646   8.423   4.636   8.867 -2.2646 -0.3863  1.3989
  925MOL0     H27647   8.916   5.013   9.545  1.2284  0.7165  2.6606
  925MOL0     H27648   9.116   5.108   9.826  0.6517  0.5242 -0.8500
  925MOL0     H27649   8.949   5.173   9.845  1.3661 -0.3558  2.4163
  925MOL0     H27650   8.980   5.010   9.774  0.2150 -0.5805  3.1584
  926MOL0     O27651   4.235   3.320   9.733 -0.2439  0.1642  0.1581
  926MOL0     C27652   4.289   3.364   9.834  0.6851  0.2430 -0.6469
  926MOL0     O27653   4.256   3.496   9.885 -0.5205  0.5939  0.6462
  926MOL0     C27654   4.152   3.556   9.820  0.4656 -0.3544 -0.1286
  926MOL0     C27655   4.015   3.515   9.838  0.9748 -0.6586  0.1700
  926MOL0     C27656   3.909   3.596   9.784  0.3467  0.1514 -0.0877
  926MOL0     C27657   3.937   3.726   9.724  0.8599  0.6597 -1.1742
  926MOL0     O27658   3.845   3.808   9.677 -0.0686 -0.7313  0.5161
  926MOL0     C27659   3.712   3.769   9.645 -1.1275  0.0314  0.5972
  926MOL0     C27660   3.613   3.838   9.740  0.7756 -0.6176  0.6864
  926MOL0     C27661   3.512   3.940   9.673 -0.6629  0.2933  0.4690
  926MOL0     C27662   3.439   3.894   9.553 -0.0654  0.0701 -0.2195
  926MOL0     C27663   3.289   3.935   9.547 -0.3436 -0.6589  0.1052
  926MOL0     C27664   3.214   3.860   9.441 -0.9515 -0.3900  0.9531
  926MOL0     C27665   3.066   3.873   9.468  0.5056 -0.6728  0.9733
  926MOL0     C27666   3.004   4.012   9.432  0.2918  0.6670 -0.1720
  926MOL0     N27667   2.992   4.096   9.555 -0.6532  0.1071 -0.1885
  926MOL0     C27668   3.092   4.157   9.621  0.4160  1.0516 -0.8359
  926MOL0     C27669   3.042   4.187   9.744  0.4590  0.3990  0.0079
  926MOL0     C27670   3.115   4.262   9.850  0.0512  0.0465 -0.9609
  926MOL0     C27671   3.101   4.196   9.991 -0.1498 -0.3162 -0.0227
  926MOL0     C27672   3.153   4.281  10.106  0.0364  0.7759 -0.3396
  926MOL0     C27673   3.307   4.273  10.133 -1.0721 -0.4135  0.5678
  926MOL0     O27674   3.383   4.350  10.039  0.2259  0.4677 -0.2198
  926MOL0     C27675   3.449   4.461  10.077 -0.2487 -0.9537 -0.8456
  926MOL0     C27676   3.406   4.563  10.175  0.2202 -0.4742  0.0263
  926MOL0     C27677   3.490   4.684  10.197  0.0392  0.5351 -0.3871
  926MOL0     C27678   3.436   4.787  10.290 -0.5055 -0.9986 -0.6855
  926MOL0     C27679   3.616   4.691  10.123 -0.0145 -0.2598  0.6399
  926MOL0     C27680   3.704   4.801  10.113  0.1703 -0.2622  0.0342
  926MOL0     O27681   3.832   4.781  10.074 -0.4737  0.6136 -0.1730
  926MOL0     C27682   3.887   4.876  10.000 -0.6390  0.4838  0.5043
  926MOL0     C27683   4.011   4.936  10.023  0.0909  0.2254  0.1411
  926MOL0     C27684   4.072   5.021   9.928 -0.3444  0.5085  0.2202
  926MOL0     C27685   4.006   5.066   9.811  0.4130  0.2275 -0.6535
  926MOL0     O27686   4.071   5.158   9.723 -1.1514  0.1386  0.2978
  926MOL0     C27687   4.065   5.111   9.597 -0.3561  0.9108  0.6327
  926MOL0     C27688   4.147   5.197   9.499 -0.0906  0.1681 -0.0600
  926MOL0     C27689   4.132   5.351   9.520 -0.0051 -0.7421  1.2787
  926MOL0     C27690   4.210   5.435   9.418  0.2494  0.2148  0.0955
  926MOL0     C27691   4.160   5.578   9.425  0.5481  0.0823  0.0584
  926MOL0     C27692   4.261   5.676   9.353 -0.2024  0.3760  0.2012
  926MOL0     C27693   4.241   5.827   9.388  0.0304  0.2857 -0.0768
  926MOL0     C27694   4.097   5.880   9.363  0.0250 -0.3452 -0.0070
  926MOL0    Cl27695   4.047   5.883   9.198  0.1392 -0.1027 -0.4543
  926MOL0     C27696   3.885   5.003   9.788  0.5144 -0.0370 -0.1575
  926MOL0     C27697   3.829   4.916   9.881 -0.8557  1.2723  0.0144
  926MOL0     O27698   3.657   4.916  10.131  0.5208 -0.3305  0.6681
  926MOL0     C27699   3.648   4.584  10.038  0.3039  0.7006  1.0446
  926MOL0     C27700   3.567   4.475  10.011  0.4872 -0.7490  0.5100
  926MOL0     N27701   2.907   4.146   9.756 -0.4327 -0.2857  0.6861
  926MOL0     N27702   2.891   4.078   9.642 -0.2540 -0.3890 -0.5348
  926MOL0     C27703   4.068   3.751   9.703  0.1939 -0.3210  0.5684
  926MOL0     C27704   4.180   3.681   9.752  0.5829  0.0102 -0.5873
  926MOL0     C27705   4.408   3.303   9.887  0.2670  0.1558  0.3354
  926MOL0     C27706   4.480   3.365   9.986  0.3797  0.4817 -0.4486
  926MOL0     C27707   4.582   3.303  10.056 -0.4341 -0.9074  0.2041
  926MOL0     C27708   4.632   3.184  10.006 -0.6715 -0.5122 -0.2887
  926MOL0     O27709   4.755   3.129  10.037 -0.6566  0.0135  0.5294
  926MOL0     C27710   4.772   3.100  10.180  0.4963  0.4335  0.7134
  926MOL0     C27711   4.709   2.967  10.225  1.0845 -0.8128 -0.3547
  926MOL0     C27712   4.571   2.978  10.279  1.1546 -0.6123 -0.7882
  926MOL0     C27713   4.575   3.023  10.431  0.0614  0.2756 -0.5832
  926MOL0     C27714   4.598   2.917  10.522 -0.6990 -0.2652  0.0914
  926MOL0     C27715   4.599   2.809  10.575 -0.3946  0.2352 -1.2485
  926MOL0     C27716   4.569   3.124   9.901 -0.3127  0.4017 -0.4736
  926MOL0     C27717   4.454   3.171   9.842  0.5749 -0.6100  0.4903
  926MOL0     C27718   4.387   3.078   9.746 -1.1513  0.7688 -0.1095
  926MOL0     H27719   3.985   3.422   9.884 -1.6672 -1.6707 -3.2745
  926MOL0     H27720   3.804   3.571   9.790  0.4485 -0.5335 -0.9401
  926MOL0     H27721   3.700   3.661   9.633  1.5200 -0.0892 -2.3246
  926MOL0     H27722   3.700   3.808   9.543 -0.1313  2.7740  1.4523
  926MOL0     H27723   3.562   3.754   9.788 -0.2857  0.1402  0.9262
  926MOL0     H27724   3.670   3.883   9.821  1.3713 -1.5950  0.8117
  926MOL0     H27725   3.435   3.957   9.749 -1.8572 -0.4989 -0.5321
  926MOL0     H27726   3.562   4.037   9.673  0.1210 -0.0858  1.9381
  926MOL0     H27727   3.490   3.926   9.461 -0.7278 -1.5567 -1.2052
  926MOL0     H27728   3.454   3.785   9.557 -0.9360 -0.0370  0.3120
  926MOL0     H27729   3.289   4.040   9.516 -1.4604 -0.5047  0.5736
  926MOL0     H27730   3.242   3.922   9.645  1.0884 -1.2857  0.7320
  926MOL0     H27731   3.244   3.890   9.340 -1.9065 -1.5514  0.3038
  926MOL0     H27732   3.255   3.760   9.459  0.8287  0.1308  0.0726
  926MOL0     H27733   3.023   3.839   9.562 -0.6989 -1.9357  0.0024
  926MOL0     H27734   3.024   3.805   9.394 -0.8063  1.6848 -0.5760
  926MOL0     H27735   3.053   4.064   9.349 -0.2579 -1.0036 -1.5956
  926MOL0     H27736   2.900   4.003   9.399  1.1999 -0.5266 -3.0360
  926MOL0     H27737   3.177   4.197   9.566 -1.4245  1.9268 -3.2735
  926MOL0     H27738   3.056   4.354   9.850 -0.4241 -0.2043  1.0303
  926MOL0     H27739   3.221   4.272   9.826  0.7494 -2.9346  0.3065
  926MOL0     H27740   2.994   4.190  10.016 -0.0496  1.4542  0.9989
  926MOL0     H27741   3.145   4.095   9.995 -0.4501 -0.5147 -1.2626
  926MOL0     H27742   3.135   4.387  10.088 -0.4043  0.5217 -1.4649
  926MOL0     H27743   3.107   4.247  10.199  1.2483 -0.8634 -0.2930
  926MOL0     H27744   3.336   4.304  10.234  0.4445 -1.2245  0.3980
  926MOL0     H27745   3.337   4.168  10.129  1.8205  0.3740 -1.6615
  926MOL0     H27746   3.315   4.558  10.234  0.9225  0.9792  1.3094
  926MOL0     H27747   3.381   4.738  10.371 -0.5364  0.4743  0.2232
  926MOL0     H27748   3.368   4.855  10.239 -1.1257 -0.9539  0.1784
  926MOL0     H27749   3.506   4.855  10.339 -0.8941 -2.1020  1.5194
  926MOL0     H27750   4.046   4.919  10.125 -0.4982  3.1600  0.9373
  926MOL0     H27751   4.173   5.058   9.940  1.5093 -2.4236 -3.8711
  926MOL0     H27752   4.101   5.008   9.601 -5.0685 -1.0505 -0.2768
  926MOL0     H27753   3.963   5.095   9.560 -0.3855 -0.6692  1.3158
  926MOL0     H27754   4.255   5.186   9.509 -0.0216  2.0227  1.9235
  926MOL0     H27755   4.117   5.174   9.396 -1.5612  0.9716  0.1584
  926MOL0     H27756   4.168   5.380   9.620  2.0859  0.0435  0.3733
  926MOL0     H27757   4.024   5.366   9.515 -0.0598 -1.1109  1.2978
  926MOL0     H27758   4.188   5.401   9.316  0.8650  0.9035 -0.2748
  926MOL0     H27759   4.313   5.432   9.455  1.3630  1.4969 -2.6205
  926MOL0     H27760   4.059   5.578   9.385 -1.0196  0.5123  3.6457
  926MOL0     H27761   4.146   5.602   9.531  3.1584  3.0316 -0.1142
  926MOL0     H27762   4.265   5.661   9.245  1.2409  0.2182  0.2621
  926MOL0     H27763   4.360   5.652   9.391  0.0727 -0.8282 -1.2004
  926MOL0     H27764   4.323   5.873   9.331  1.8484 -0.5346  1.7729
  926MOL0     H27765   4.252   5.835   9.496 -0.8792 -2.0440  0.2382
  926MOL0     H27766   4.088   5.977   9.412  0.0976  1.2293 -2.8932
  926MOL0     H27767   4.020   5.820   9.413 -2.6878  1.5121 -1.6530
  926MOL0     H27768   3.828   5.033   9.701 -1.3631 -2.0273  0.3219
  926MOL0     H27769   3.731   4.874   9.861 -1.1628 -0.1613  3.7619
  926MOL0     H27770   3.743   4.582   9.985 -0.4760  2.0150 -0.5073
  926MOL0     H27771   3.575   4.408   9.926 -1.0479  0.3381 -0.5600
  926MOL0     H27772   4.076   3.838   9.639 -1.6764  0.7755  1.7739
  926MOL0     H27773   4.284   3.708   9.739  0.9424 -0.6717  0.6901
  926MOL0     H27774   4.457   3.468  10.011 -0.8808 -0.0608  0.6935
  926MOL0     H27775   4.646   3.352  10.129 -0.7959  3.3048 -2.0042
  926MOL0     H27776   4.875   3.083  10.212  0.3642 -1.1904  0.3339
  926MOL0     H27777   4.746   3.179  10.251  2.1823 -0.8372  2.8696
  926MOL0     H27778   4.767   2.938  10.313 -0.4981  1.3405  1.5101
  926MOL0     H27779   4.709   2.889  10.148  0.3293 -1.1997  0.0185
  926MOL0     H27780   4.511   3.055  10.229  0.1728 -0.1827  0.9656
  926MOL0     H27781   4.523   2.880  10.275 -1.8278  0.6737  0.2809
  926MOL0     H27782   4.479   3.066  10.461 -0.6017 -1.9014  0.6640
  926MOL0     H27783   4.655   3.096  10.448 -0.4623  0.2657  2.6037
  926MOL0     H27784   4.592   2.713  10.622 -2.5901  0.3198 -1.2651
  926MOL0     H27785   4.605   3.029   9.863  0.7690  0.6174 -0.0093
  926MOL0     H27786   4.286   3.049   9.776 -1.1779  0.5444 -0.4111
  926MOL0     H27787   4.388   3.119   9.644 -2.1288 -0.3070 -0.5701
  926MOL0     H27788   4.434   2.980   9.743  1.7033  1.9575  1.2556
  927MOL0     O27789   5.646   5.078   5.509 -0.3676 -0.6727 -0.0150
  927MOL0     C27790   5.534   5.024   5.526 -0.5659 -0.4415 -0.0608
  927MOL0     O27791   5.435   5.040   5.447  0.5793 -0.7017 -0.3594
  927MOL0     C27792   5.455   5.086   5.319  0.0973  1.2262 -1.4825
  927MOL0     C27793   5.356   5.157   5.256 -0.1947  0.6458 -0.4989
  927MOL0     C27794   5.373   5.191   5.121  0.1425 -0.1549  0.4154
  927MOL0     C27795   5.480   5.150   5.045  0.0367 -0.6518  1.2402
  927MOL0     O27796   5.494   5.180   4.909 -0.4288  0.2667 -0.2237
  927MOL0     C27797   5.384   5.133   4.824  0.6633  0.4826  0.0109
  927MOL0     C27798   5.400   4.988   4.803 -0.7787  0.3163  0.2887
  927MOL0     C27799   5.285   4.914   4.737  1.0082  0.1294  0.1758
  927MOL0     C27800   5.290   4.759   4.758  0.2122 -0.2674 -0.4580
  927MOL0     C27801   5.182   4.668   4.687 -0.3018  0.3327 -0.7400
  927MOL0     C27802   5.186   4.530   4.745 -0.1070  0.2064  0.8076
  927MOL0     C27803   5.068   4.445   4.690  0.7512  0.9259 -0.5449
  927MOL0     C27804   5.070   4.409   4.539 -0.7809 -0.3881  0.5065
  927MOL0     N27805   4.957   4.465   4.472  0.0892  0.8347  0.0916
  927MOL0     C27806   4.969   4.572   4.381 -0.5997 -0.3088 -0.0613
  927MOL0     C27807   4.847   4.601   4.329 -1.4918 -0.0009 -0.8412
  927MOL0     C27808   4.807   4.719   4.250  0.0694  0.4917 -1.3286
  927MOL0     C27809   4.823   4.714   4.099  0.6238  0.3773  0.5934
  927MOL0     C27810   4.760   4.591   4.030  0.3230  0.2085  0.0195
  927MOL0     C27811   4.674   4.631   3.906  0.2716  0.1696  0.0428
  927MOL0     O27812   4.761   4.718   3.836 -0.1412 -0.1712  0.8282
  927MOL0     C27813   4.726   4.767   3.710 -0.4791  0.5846 -0.1389
  927MOL0     C27814   4.827   4.762   3.608  0.0073  0.2119 -0.7335
  927MOL0     C27815   4.799   4.798   3.473  0.3832  0.0646 -0.0591
  927MOL0     C27816   4.917   4.821   3.374  0.7468 -0.4811  0.4203
  927MOL0     C27817   4.664   4.813   3.438 -0.1464  0.1683 -0.0237
  927MOL0     C27818   4.617   4.820   3.299 -0.2140  0.1534 -0.0604
  927MOL0     O27819   4.538   4.926   3.266 -0.2620 -0.1373 -0.7360
  927MOL0     C27820   4.534   4.967   3.138  0.1690 -0.4154  0.3548
  927MOL0     C27821   4.589   5.098   3.109  0.0417  0.7092 -0.3120
  927MOL0     C27822   4.573   5.157   2.981  0.4335  0.2603  0.2699
  927MOL0     C27823   4.493   5.089   2.883  0.6589 -0.5763 -0.8348
  927MOL0     O27824   4.477   5.148   2.754 -0.3061  0.3205 -0.0846
  927MOL0     C27825   4.410   5.271   2.749 -0.0990 -0.3552  0.1534
  927MOL0     C27826   4.270   5.258   2.811  0.9339 -0.2874 -0.2702
  927MOL0     C27827   4.182   5.369   2.756  0.4581  0.0692  0.2985
  927MOL0     C27828   4.038   5.341   2.784  0.0440 -0.2727  0.3184
  927MOL0     C27829   3.978   5.272   2.673  0.1279 -1.2681  0.6570
  927MOL0     C27830   3.831   5.249   2.693  0.2551 -0.5164 -0.6273
  927MOL0     C27831   3.740   5.365   2.680  0.0694 -0.1328  0.4717
  927MOL0     C27832   3.691   5.394   2.536  0.3135  0.1484 -0.7072
  927MOL0    Cl27833   3.789   5.510   2.451 -0.3078  0.0445 -0.0839
  927MOL0     C27834   4.440   4.964   2.908 -0.7882 -0.0193 -0.6871
  927MOL0     C27835   4.453   4.908   3.041 -0.3763 -0.3909 -0.2344
  927MOL0     O27836   4.667   4.746   3.210  0.5228 -0.0146 -0.0973
  927MOL0     C27837   4.560   4.808   3.531  0.1992 -0.3519  0.1725
  927MOL0     C27838   4.596   4.780   3.664 -0.6979 -0.4904 -0.4338
  927MOL0     N27839   4.754   4.514   4.395 -1.0604 -0.0669  0.4629
  927MOL0     N27840   4.817   4.431   4.475 -0.1217  0.3560  0.0459
  927MOL0     C27841   5.580   5.085   5.108  0.2820  0.9785 -0.0148
  927MOL0     C27842   5.569   5.056   5.240 -0.2864 -0.2362 -1.1540
  927MOL0     C27843   5.508   4.939   5.647  0.4897 -1.6163  0.2963
  927MOL0     C27844   5.619   4.860   5.680  0.0809 -0.6291 -0.2784
  927MOL0     C27845   5.614   4.768   5.781 -0.7555  0.1805 -0.2112
  927MOL0     C27846   5.503   4.747   5.854 -0.5018 -0.8847 -1.0655
  927MOL0     O27847   5.514   4.666   5.966  0.6150  0.7251 -0.6908
  927MOL0     C27848   5.416   4.680   6.072  0.2296 -0.0987  0.4952
  927MOL0     C27849   5.483   4.621   6.201  0.7833 -0.3541  0.3021
  927MOL0     C27850   5.609   4.706   6.231 -0.0260 -0.6165  0.5433
  927MOL0     C27851   5.585   4.831   6.317 -0.6347  0.8373  0.1719
  927MOL0     C27852   5.535   4.808   6.449  0.8152  0.6211 -0.2686
  927MOL0     C27853   5.502   4.779   6.566 -0.0250 -0.9595  1.5311
  927MOL0     C27854   5.389   4.822   5.825 -0.4362 -0.0051 -0.5102
  927MOL0     C27855   5.382   4.916   5.719  0.5099 -0.3457 -0.4476
  927MOL0     C27856   5.258   5.003   5.701  0.0062 -0.9149 -0.1590
  927MOL0     H27857   5.261   5.184   5.302 -1.8245  0.1834 -3.3431
  927MOL0     H27858   5.293   5.241   5.067 -3.9415 -3.1066  3.0638
  927MOL0     H27859   5.382   5.180   4.725 -2.4027 -1.6796 -1.0970
  927MOL0     H27860   5.288   5.150   4.872  1.8762 -0.6325  3.0759
  927MOL0     H27861   5.489   4.967   4.743 -0.8132 -0.6282  0.5505
  927MOL0     H27862   5.411   4.934   4.897  2.9583  2.0339  1.0257
  927MOL0     H27863   5.188   4.954   4.767 -2.3307 -4.4602 -3.0492
  927MOL0     H27864   5.305   4.928   4.630 -0.7231 -0.3319 -0.2330
  927MOL0     H27865   5.391   4.723   4.736 -0.8514 -1.8604 -3.2883
  927MOL0     H27866   5.274   4.741   4.865  2.1904  0.9413  0.0992
  927MOL0     H27867   5.195   4.663   4.579 -2.0829 -4.1259 -0.9591
  927MOL0     H27868   5.085   4.709   4.716 -0.3624 -0.3608  0.0812
  927MOL0     H27869   5.281   4.485   4.712 -0.2656 -0.9737  1.8657
  927MOL0     H27870   5.196   4.515   4.853 -0.9568  0.7700  0.9684
  927MOL0     H27871   4.975   4.498   4.714  0.4124  0.8613 -1.6732
  927MOL0     H27872   5.072   4.355   4.753 -1.3312  0.0303 -1.5958
  927MOL0     H27873   5.161   4.439   4.486 -1.4295  2.2616  0.7581
  927MOL0     H27874   5.066   4.300   4.524 -1.8412 -0.0281 -2.4347
  927MOL0     H27875   5.061   4.622   4.351 -1.1932  1.0396  0.2609
  927MOL0     H27876   4.870   4.797   4.292  2.3404 -1.4858 -0.8980
  927MOL0     H27877   4.704   4.740   4.283  0.2348 -1.3275  0.5056
  927MOL0     H27878   4.773   4.804   4.064 -0.4780 -0.0971  0.8935
  927MOL0     H27879   4.930   4.721   4.079  0.6839  2.4731  1.3997
  927MOL0     H27880   4.840   4.519   4.012 -0.4029 -1.0635  1.6465
  927MOL0     H27881   4.681   4.541   4.087 -1.7654 -0.5538 -3.2562
  927MOL0     H27882   4.662   4.543   3.842  2.7761 -1.0781  1.1498
  927MOL0     H27883   4.575   4.661   3.941  0.1234  0.0732 -0.2910
  927MOL0     H27884   4.932   4.761   3.636  0.3994  2.6086 -1.8739
  927MOL0     H27885   4.911   4.739   3.303 -2.7842 -1.6021  1.8124
  927MOL0     H27886   5.012   4.840   3.426 -0.7770  3.4100  2.1563
  927MOL0     H27887   4.897   4.913   3.320  1.3905 -0.9189 -0.5916
  927MOL0     H27888   4.652   5.140   3.186 -2.2360 -0.9507  2.6821
  927MOL0     H27889   4.616   5.256   2.976  1.5175 -0.1421  1.2300
  927MOL0     H27890   4.469   5.350   2.797  1.9518 -0.8881 -1.3612
  927MOL0     H27891   4.384   5.308   2.650 -1.4321  2.3630  1.4027
  927MOL0     H27892   4.221   5.165   2.778  1.0548  0.1449 -1.7216
  927MOL0     H27893   4.263   5.269   2.920  0.2744  3.4273 -0.5558
  927MOL0     H27894   4.202   5.370   2.648 -1.9146 -1.8244 -0.2567
  927MOL0     H27895   4.223   5.463   2.794  0.3415  1.2048 -2.1724
  927MOL0     H27896   3.990   5.439   2.794 -0.3519 -0.6818  3.8771
  927MOL0     H27897   4.017   5.282   2.874 -0.6229 -0.9273 -0.2410
  927MOL0     H27898   4.003   5.333   2.586  1.5534  2.1878  3.2709
  927MOL0     H27899   4.044   5.187   2.657  2.5924  0.6683 -0.1641
  927MOL0     H27900   3.822   5.210   2.795  1.3322 -0.8177 -0.6274
  927MOL0     H27901   3.790   5.181   2.618 -1.4175  1.0819 -1.2515
  927MOL0     H27902   3.788   5.456   2.718  2.8616 -2.1343  2.1499
  927MOL0     H27903   3.647   5.358   2.739 -1.5125  1.5530 -1.6415
  927MOL0     H27904   3.588   5.430   2.542  0.0105 -0.8643  2.0621
  927MOL0     H27905   3.691   5.302   2.477 -0.2794  0.6723 -1.5483
  927MOL0     H27906   4.402   4.901   2.829  0.6751 -2.0769  0.1424
  927MOL0     H27907   4.417   4.809   3.068  0.0667  0.0274  2.1080
  927MOL0     H27908   4.456   4.805   3.499  0.9148 -1.5040 -2.3132
  927MOL0     H27909   4.513   4.772   3.733 -1.6691  2.3705 -1.1352
  927MOL0     H27910   5.669   5.053   5.054  0.7722  2.0937  0.1033
  927MOL0     H27911   5.647   4.997   5.288 -1.6605 -2.0035 -1.0087
  927MOL0     H27912   5.715   4.863   5.630  0.7823  1.6286  1.0399
  927MOL0     H27913   5.698   4.700   5.792  0.1066  0.5123 -3.7399
  927MOL0     H27914   5.397   4.787   6.083  1.2296  0.0244  1.1863
  927MOL0     H27915   5.326   4.625   6.041 -0.2892  0.3256  1.2389
  927MOL0     H27916   5.520   4.519   6.186  0.2413 -0.3175 -1.4625
  927MOL0     H27917   5.409   4.611   6.281 -1.1440 -3.5065 -1.7178
  927MOL0     H27918   5.683   4.649   6.289  1.3963  0.5783 -0.0299
  927MOL0     H27919   5.664   4.737   6.142  1.1472 -0.0899  1.4099
  927MOL0     H27920   5.506   4.877   6.257 -1.5007 -1.1670 -0.2872
  927MOL0     H27921   5.677   4.891   6.321  1.4451 -2.1214 -0.1575
  927MOL0     H27922   5.476   4.781   6.670 -0.2324 -0.0929  1.4625
  927MOL0     H27923   5.297   4.816   5.882 -0.3699 -0.9518 -0.4828
  927MOL0     H27924   5.211   5.021   5.798 -0.0660  0.2353 -0.3828
  927MOL0     H27925   5.276   5.100   5.654  2.2892 -1.0600  0.3213
  927MOL0     H27926   5.191   4.953   5.630  0.9388  2.9797 -4.3003
  928MOL0     O27927   4.652   4.480   5.145  0.3327  0.0955 -0.0119
  928MOL0     C27928   4.555   4.518   5.217  0.2609  0.2094  0.4944
  928MOL0     O27929   4.556   4.512   5.360 -0.0977  0.3049  0.4072
  928MOL0     C27930   4.652   4.425   5.414  0.6342  0.0255 -0.3485
  928MOL0     C27931   4.602   4.302   5.449  0.0548  0.3265 -0.6277
  928MOL0     C27932   4.677   4.203   5.505 -1.3339  0.4247 -0.1234
  928MOL0     C27933   4.817   4.224   5.521  0.1891 -0.5054  0.4006
  928MOL0     O27934   4.906   4.132   5.580  0.5512  0.0446 -0.2299
  928MOL0     C27935   4.846   4.037   5.658 -0.1802 -0.2520 -0.4243
  928MOL0     C27936   4.943   3.948   5.745 -0.6922  0.2875  0.3287
  928MOL0     C27937   5.039   3.861   5.662 -0.1743  0.1399  0.4418
  928MOL0     C27938   5.100   3.741   5.743  0.3420  0.4025  1.0034
  928MOL0     C27939   5.167   3.638   5.647  0.6193 -0.0470  0.0190
  928MOL0     C27940   5.288   3.682   5.571 -0.1801  0.5556  0.4161
  928MOL0     C27941   5.403   3.697   5.670  0.6836  0.2199 -0.4758
  928MOL0     C27942   5.544   3.732   5.607  0.2787 -0.1948  0.3532
  928MOL0     N27943   5.532   3.810   5.481  0.4731  0.7943  0.1459
  928MOL0     C27944   5.527   3.949   5.473 -0.4351  0.5362 -0.2665
  928MOL0     C27945   5.555   3.980   5.346 -0.9572  0.2644 -0.1700
  928MOL0     C27946   5.560   4.112   5.281 -0.4067 -1.2484 -0.4411
  928MOL0     C27947   5.643   4.206   5.377  0.1816  1.6034 -0.7759
  928MOL0     C27948   5.722   4.313   5.294  0.0551 -0.6897 -0.2496
  928MOL0     C27949   5.799   4.408   5.389  0.9534  0.1798  0.1239
  928MOL0     O27950   5.712   4.487   5.484 -0.5047  0.4048 -0.4066
  928MOL0     C27951   5.615   4.548   5.432  0.0249 -0.0261 -0.3974
  928MOL0     C27952   5.613   4.610   5.304  0.1136  0.7495 -0.3839
  928MOL0     C27953   5.504   4.687   5.256  0.0564  1.4325 -0.6671
  928MOL0     C27954   5.509   4.749   5.111  0.6758  0.6736 -0.6491
  928MOL0     C27955   5.399   4.705   5.337  1.0432 -0.7797 -0.2944
  928MOL0     C27956   5.282   4.778   5.289 -0.0712  0.1463 -0.2520
  928MOL0     O27957   5.212   4.862   5.374  0.4867 -0.2215  0.4198
  928MOL0     C27958   5.081   4.890   5.356 -0.2995 -0.5711  0.3796
  928MOL0     C27959   5.032   5.019   5.395  0.4444  0.7981  0.8919
  928MOL0     C27960   4.893   5.039   5.379  0.3933 -0.6611  0.6549
  928MOL0     C27961   4.805   4.945   5.333 -0.3053 -0.6009  0.5661
  928MOL0     O27962   4.674   4.972   5.307  0.1320  0.2436 -0.7270
  928MOL0     C27963   4.617   4.931   5.178 -0.7991 -0.1997  0.2090
  928MOL0     C27964   4.578   5.051   5.093  0.0781  0.1134 -0.4921
  928MOL0     C27965   4.434   5.105   5.121  0.7692 -0.2902  0.0566
  928MOL0     C27966   4.323   5.009   5.075  0.4819 -0.0443 -0.7493
  928MOL0     C27967   4.205   5.091   5.017 -0.1295  0.0077  0.6231
  928MOL0     C27968   4.099   4.996   4.958 -0.3924 -0.0962 -0.4935
  928MOL0     C27969   3.977   5.080   4.897 -0.5362  1.2304  0.9785
  928MOL0     C27970   4.017   5.203   4.813  0.1924 -0.2009  0.3797
  928MOL0    Cl27971   4.132   5.174   4.681 -0.0998  0.4383  0.1331
  928MOL0     C27972   4.855   4.814   5.315  0.2046  0.1827 -0.0180
  928MOL0     C27973   4.991   4.791   5.327  0.7254 -0.4838 -1.0736
  928MOL0     O27974   5.234   4.742   5.175  0.6830 -0.7567 -0.0314
  928MOL0     C27975   5.405   4.653   5.465 -0.8681  0.3475 -0.2448
  928MOL0     C27976   5.506   4.568   5.509 -0.6686  0.5599 -0.6163
  928MOL0     N27977   5.590   3.863   5.284  0.7070 -0.8778 -0.2337
  928MOL0     N27978   5.564   3.761   5.365  0.2115 -0.0215  0.2581
  928MOL0     C27979   4.871   4.348   5.481 -0.1515 -0.9605 -0.5223
  928MOL0     C27980   4.784   4.452   5.432 -0.3482  0.7350 -0.2846
  928MOL0     C27981   4.434   4.574   5.154  0.5620 -0.2618  0.3418
  928MOL0     C27982   4.415   4.548   5.017 -0.0811  0.0781 -0.2447
  928MOL0     C27983   4.287   4.589   4.962 -0.2818 -0.2201 -0.8007
  928MOL0     C27984   4.193   4.658   5.032 -0.3033 -0.1039  1.0751
  928MOL0     O27985   4.094   4.706   4.952 -0.0547  0.3778 -0.8498
  928MOL0     C27986   4.012   4.605   4.889 -0.0783 -0.0618 -0.5075
  928MOL0     C27987   3.862   4.656   4.876 -0.5214  0.3969  0.4303
  928MOL0     C27988   3.776   4.565   4.788  0.1278 -0.4818  0.0884
  928MOL0     C27989   3.633   4.620   4.784 -0.8723 -0.0260  0.0992
  928MOL0     C27990   3.575   4.593   4.656 -0.2369  0.4088  0.1354
  928MOL0     C27991   3.532   4.570   4.546  0.8617  0.3047  0.2905
  928MOL0     C27992   4.218   4.692   5.158  0.6129 -0.1184 -0.6977
  928MOL0     C27993   4.332   4.645   5.227 -0.9965  0.8250  0.7666
  928MOL0     C27994   4.349   4.693   5.366  0.3748  0.2511  0.4167
  928MOL0     H27995   4.497   4.278   5.439  0.1991 -2.3129  2.5345
  928MOL0     H27996   4.646   4.101   5.526  2.2977 -0.8374 -0.1640
  928MOL0     H27997   4.793   3.971   5.588 -1.3445 -1.8471  1.8413
  928MOL0     H27998   4.766   4.077   5.720 -1.3597 -1.2373 -1.2569
  928MOL0     H27999   4.994   4.024   5.803  0.4967 -1.7130  2.0572
  928MOL0     H28000   4.886   3.885   5.815  2.9988 -1.9049  1.6631
  928MOL0     H28001   4.981   3.829   5.576  0.6408 -0.0004 -0.0658
  928MOL0     H28002   5.128   3.916   5.631  0.9328  0.7129  4.0722
  928MOL0     H28003   5.173   3.768   5.820  0.7721  0.1099  0.7061
  928MOL0     H28004   5.019   3.695   5.801  1.1593 -0.5850  1.3903
  928MOL0     H28005   5.089   3.603   5.579  0.6293  0.1019 -0.0693
  928MOL0     H28006   5.204   3.553   5.705  2.1127  0.9392  0.5577
  928MOL0     H28007   5.316   3.598   5.507  1.7707  0.8721  0.7862
  928MOL0     H28008   5.272   3.771   5.509 -3.3287 -2.3892 -3.5374
  928MOL0     H28009   5.403   3.609   5.734  1.2441 -3.0368 -4.5292
  928MOL0     H28010   5.377   3.786   5.728  0.2224 -0.7113  0.7931
  928MOL0     H28011   5.601   3.777   5.688 -3.5684  0.7395  2.8423
  928MOL0     H28012   5.604   3.644   5.584  2.0849  0.9237  0.6361
  928MOL0     H28013   5.527   4.029   5.546 -1.7491  0.0679  0.2779
  928MOL0     H28014   5.459   4.148   5.260  0.6241  1.8777 -0.5766
  928MOL0     H28015   5.608   4.116   5.183  0.5383 -2.3005 -0.0486
  928MOL0     H28016   5.593   4.243   5.467  1.6116  1.0441  0.3105
  928MOL0     H28017   5.724   4.142   5.413 -2.0489 -1.3042 -0.5934
  928MOL0     H28018   5.800   4.269   5.231 -0.4759 -0.8612 -0.8013
  928MOL0     H28019   5.661   4.379   5.231  4.6086  5.0214  0.4936
  928MOL0     H28020   5.864   4.342   5.447 -0.2308 -0.0094  1.2721
  928MOL0     H28021   5.865   4.473   5.331  2.1448 -2.4325 -1.6583
  928MOL0     H28022   5.706   4.599   5.249 -1.6242  0.4729 -3.5220
  928MOL0     H28023   5.446   4.837   5.098 -0.0198  0.1734 -0.6856
  928MOL0     H28024   5.468   4.674   5.043  0.3343  0.1279  0.1373
  928MOL0     H28025   5.610   4.783   5.086  0.8559  1.0199  0.4815
  928MOL0     H28026   5.101   5.095   5.431  3.1367 -0.2267 -1.6450
  928MOL0     H28027   4.846   5.134   5.402 -0.8211  0.0260 -3.6953
  928MOL0     H28028   4.685   4.868   5.119 -2.6879 -0.4688 -1.8201
  928MOL0     H28029   4.529   4.868   5.192  1.8655 -3.7692  2.7121
  928MOL0     H28030   4.658   5.124   5.103  1.8147 -1.6379 -0.8277
  928MOL0     H28031   4.586   5.029   4.986 -2.2307 -0.9550 -0.5232
  928MOL0     H28032   4.417   5.196   5.064 -1.3161 -1.3932 -1.1912
  928MOL0     H28033   4.427   5.124   5.228 -2.6387 -3.4158  0.5715
  928MOL0     H28034   4.298   4.949   5.163  0.7429 -0.1945 -0.7796
  928MOL0     H28035   4.364   4.941   5.001  2.1616  0.4045 -0.2632
  928MOL0     H28036   4.156   5.144   5.099 -1.9819  0.8631 -0.9589
  928MOL0     H28037   4.247   5.144   4.932 -4.0343 -2.7839 -3.5546
  928MOL0     H28038   4.059   4.927   5.033 -2.5937  1.3524 -0.2420
  928MOL0     H28039   4.146   4.940   4.876 -2.1168  0.7845 -2.1489
  928MOL0     H28040   3.910   5.113   4.978 -1.3070 -0.0973  0.8997
  928MOL0     H28041   3.922   5.012   4.832 -1.3556  0.1600  2.7220
  928MOL0     H28042   4.041   5.283   4.884 -1.7257 -0.2075  1.0906
  928MOL0     H28043   3.931   5.246   4.760  0.5646  2.4339  1.7388
  928MOL0     H28044   4.788   4.737   5.279  0.7040  0.5634 -1.8633
  928MOL0     H28045   5.018   4.688   5.309 -1.4492 -0.9653 -1.8260
  928MOL0     H28046   5.315   4.665   5.525 -1.2693 -1.7883 -0.3410
  928MOL0     H28047   5.498   4.527   5.609  0.9625  1.1041 -0.2359
  928MOL0     H28048   4.973   4.375   5.503  0.0718 -1.1620 -1.2837
  928MOL0     H28049   4.824   4.552   5.418  2.7400  0.4492  4.2579
  928MOL0     H28050   4.495   4.507   4.957 -0.5583 -2.2170  0.5932
  928MOL0     H28051   4.273   4.579   4.855  0.0882  2.7935 -1.2137
  928MOL0     H28052   4.055   4.585   4.790  0.9845 -0.0112 -0.0736
  928MOL0     H28053   4.006   4.515   4.951 -2.1755  0.6598  0.4410
  928MOL0     H28054   3.858   4.756   4.833  0.8058 -1.4808 -4.9348
  928MOL0     H28055   3.808   4.669   4.970 -3.4896 -3.9547 -0.3270
  928MOL0     H28056   3.819   4.574   4.688 -1.3464  1.3738 -0.4416
  928MOL0     H28057   3.769   4.461   4.820  1.7386 -0.0190  2.1102
  928MOL0     H28058   3.645   4.728   4.797  2.1316 -0.3922  1.0071
  928MOL0     H28059   3.570   4.579   4.863 -0.9406  2.0946  1.2219
  928MOL0     H28060   3.479   4.544   4.457  2.8941  0.2624 -0.9591
  928MOL0     H28061   4.153   4.758   5.215 -0.4243 -1.2955 -0.4795
  928MOL0     H28062   4.282   4.778   5.377  3.4376  3.2240 -1.7051
  928MOL0     H28063   4.336   4.597   5.416  1.9488 -0.7430 -0.9502
  928MOL0     H28064   4.452   4.717   5.394  0.9385 -2.1215  0.6030
  929MOL0     O28065  10.354   5.592   4.312  0.2775  1.0616 -0.3806
  929MOL0     C28066  10.344   5.512   4.221  0.8013 -0.0353 -1.0031
  929MOL0     O28067  10.265   5.527   4.114  0.8464  0.1762  1.0661
  929MOL0     C28068  10.175   5.626   4.092 -0.2297  0.0747  0.0126
  929MOL0     C28069  10.160   5.663   3.954 -0.0372  0.1525 -0.9966
  929MOL0     C28070  10.074   5.763   3.914  0.1660 -0.0157 -0.0927
  929MOL0     C28071   9.998   5.822   4.011  0.5441  0.0720  0.2523
  929MOL0     O28072   9.936   5.935   3.963  0.3194  0.0491  0.3321
  929MOL0     C28073   9.897   6.034   4.064  0.0445 -0.9474  0.1151
  929MOL0     C28074   9.756   6.003   4.115 -0.5560 -0.9858  0.1141
  929MOL0     C28075   9.640   6.094   4.066 -0.1095 -0.1848  0.0776
  929MOL0     C28076   9.505   6.084   4.142 -0.2907 -0.5634 -0.0786
  929MOL0     C28077   9.426   5.957   4.102  0.3008 -0.1849 -0.6336
  929MOL0     C28078   9.331   5.898   4.217  0.3934 -0.1683  0.4189
  929MOL0     C28079   9.262   5.765   4.178  0.3543  0.0777 -0.3369
  929MOL0     C28080   9.150   5.791   4.084 -0.6001 -0.1482 -0.5892
  929MOL0     N28081   9.078   5.684   4.023  0.1131 -0.0396 -0.3707
  929MOL0     C28082   8.947   5.696   3.987  0.5945  0.1116 -0.9384
  929MOL0     C28083   8.914   5.597   3.899 -0.0097  0.4390 -0.1504
  929MOL0     C28084   8.774   5.574   3.838  0.2968  0.1889 -0.6431
  929MOL0     C28085   8.712   5.446   3.903  0.4466  0.9351 -0.3985
  929MOL0     C28086   8.674   5.486   4.047  0.6211  1.3017 -0.3209
  929MOL0     C28087   8.621   5.367   4.132  0.2929 -0.9005  0.0654
  929MOL0     O28088   8.717   5.263   4.170  0.0328  0.0212 -0.3233
  929MOL0     C28089   8.835   5.300   4.232  1.4562  0.7588  0.3764
  929MOL0     C28090   8.833   5.323   4.370 -0.2314 -0.0896  0.6833
  929MOL0     C28091   8.950   5.358   4.438 -0.6227 -0.1010  1.4096
  929MOL0     C28092   8.935   5.406   4.582 -1.0671  1.0276 -0.2374
  929MOL0     C28093   9.074   5.386   4.362 -0.2085 -0.1265 -0.4078
  929MOL0     C28094   9.202   5.438   4.423 -0.8851 -0.3019 -0.5635
  929MOL0     O28095   9.294   5.458   4.329 -0.3839  0.0842 -0.7126
  929MOL0     C28096   9.422   5.505   4.360 -0.1213 -0.2955 -0.8814
  929MOL0     C28097   9.468   5.572   4.473 -0.3959  0.1329  0.0383
  929MOL0     C28098   9.597   5.623   4.480  0.0304  0.6054  0.3821
  929MOL0     C28099   9.683   5.594   4.372 -0.4329  0.0370  0.4725
  929MOL0     O28100   9.814   5.654   4.358  0.6335 -0.3117 -0.2464
  929MOL0     C28101   9.869   5.715   4.466 -1.6112  0.0320 -0.2503
  929MOL0     C28102   9.925   5.609   4.569  0.1899  0.6709  0.2750
  929MOL0     C28103  10.054   5.526   4.540 -0.9656  0.2563  0.9906
  929MOL0     C28104  10.016   5.400   4.459 -0.2943  0.0282 -0.5229
  929MOL0     C28105  10.138   5.306   4.446  0.3969  0.0880 -0.3165
  929MOL0     C28106  10.163   5.220   4.568  0.4991 -0.0732  0.3613
  929MOL0     C28107  10.063   5.101   4.594  0.2010  0.1039  0.7627
  929MOL0     C28108  10.065   5.067   4.746  0.4466 -0.1705 -0.9288
  929MOL0    Cl28109   9.964   4.923   4.786  0.4026  0.5188 -0.1107
  929MOL0     C28110   9.648   5.518   4.264 -0.4406  0.0375 -0.0882
  929MOL0     C28111   9.511   5.476   4.258 -0.8321 -0.6123  0.1359
  929MOL0     O28112   9.215   5.466   4.546 -0.6355  0.1560  0.8209
  929MOL0     C28113   9.064   5.372   4.224  0.2112 -0.1380 -0.8805
  929MOL0     C28114   8.951   5.312   4.154 -0.3296 -1.6707  0.2213
  929MOL0     N28115   9.032   5.534   3.865  0.4597 -0.6727  0.6991
  929MOL0     N28116   9.125   5.578   3.946  0.0897 -0.1746  0.3898
  929MOL0     C28117  10.016   5.793   4.147 -1.4834  0.6273  0.0118
  929MOL0     C28118  10.107   5.697   4.187  0.6449  0.1940 -0.3114
  929MOL0     C28119  10.429   5.391   4.236 -0.9867  0.3526 -0.9392
  929MOL0     C28120  10.550   5.408   4.306 -0.9657  1.4890 -0.4722
  929MOL0     C28121  10.634   5.301   4.338  0.0078  0.0061 -0.1928
  929MOL0     C28122  10.605   5.182   4.294 -0.2593  1.3206  0.3209
  929MOL0     O28123  10.703   5.086   4.318  0.0335  0.2896 -0.3596
  929MOL0     C28124  10.638   4.973   4.381 -0.5127 -0.2157  0.2335
  929MOL0     C28125  10.723   4.859   4.420 -1.1516 -0.7316  0.2740
  929MOL0     C28126  10.810   4.892   4.545  0.2319 -0.6816 -0.4303
  929MOL0     C28127  10.744   4.915   4.674 -0.9680  0.2686  0.1261
  929MOL0     C28128  10.836   4.887   4.779  0.3313  0.1104 -0.4458
  929MOL0     C28129  10.919   4.878   4.865 -0.8005  0.2223 -0.6763
  929MOL0     C28130  10.486   5.162   4.220  0.7894  0.3518  1.3273
  929MOL0     C28131  10.396   5.264   4.189 -0.9232  0.4195  0.3195
  929MOL0     C28132  10.271   5.243   4.103  0.0245  0.1303 -0.0674
  929MOL0     H28133  10.207   5.604   3.876  0.5157 -0.1498 -0.4478
  929MOL0     H28134  10.075   5.802   3.813 -1.7487 -0.8822 -0.4961
  929MOL0     H28135   9.892   6.126   4.004 -3.5643 -0.5916  0.7067
  929MOL0     H28136   9.973   6.040   4.141 -0.7137  1.1283  0.7913
  929MOL0     H28137   9.735   5.896   4.099 -2.2934 -0.4411 -1.6371
  929MOL0     H28138   9.768   6.014   4.223 -0.8871 -2.2877  0.3064
  929MOL0     H28139   9.679   6.196   4.071  0.9694 -0.5698 -0.1728
  929MOL0     H28140   9.622   6.065   3.962  1.4925 -2.8395  0.4548
  929MOL0     H28141   9.531   6.061   4.246 -1.5869  0.9104  0.6321
  929MOL0     H28142   9.451   6.178   4.128 -2.2951 -1.4208  1.4184
  929MOL0     H28143   9.505   5.886   4.079  1.1442  0.9098 -1.2178
  929MOL0     H28144   9.383   5.977   4.003  0.5499  3.5424 -0.1352
  929MOL0     H28145   9.393   5.872   4.303  2.7259 -0.4678 -1.2413
  929MOL0     H28146   9.248   5.964   4.244  0.3297  0.0868 -0.3805
  929MOL0     H28147   9.222   5.721   4.270  1.6520 -0.5597 -0.0529
  929MOL0     H28148   9.338   5.700   4.134  0.9407 -0.8120  1.8332
  929MOL0     H28149   9.077   5.852   4.138  0.8241 -1.1516  2.6623
  929MOL0     H28150   9.190   5.846   3.998  1.0987 -0.2115  0.1167
  929MOL0     H28151   8.867   5.759   4.025 -0.1917 -2.4141  2.1111
  929MOL0     H28152   8.790   5.537   3.736  2.2335 -0.5868 -0.0886
  929MOL0     H28153   8.712   5.664   3.849  1.3494  0.9548 -0.7720
  929MOL0     H28154   8.626   5.406   3.850  2.3149 -4.0183 -0.2378
  929MOL0     H28155   8.781   5.361   3.913 -1.7003 -0.9511 -0.9059
  929MOL0     H28156   8.758   5.534   4.099  1.0014 -0.7658  1.1231
  929MOL0     H28157   8.591   5.557   4.044  1.2023  1.9787 -2.6684
  929MOL0     H28158   8.569   5.390   4.225  1.1107 -3.2509  1.1960
  929MOL0     H28159   8.543   5.315   4.075  1.0298 -0.5445 -1.3171
  929MOL0     H28160   8.736   5.314   4.416  0.0770 -2.3678  1.0195
  929MOL0     H28161   8.832   5.402   4.617 -1.0730 -2.5429 -0.3267
  929MOL0     H28162   8.976   5.506   4.596  1.5244  0.3372 -2.0551
  929MOL0     H28163   8.989   5.339   4.650  0.6377  0.2686 -2.2337
  929MOL0     H28164   9.390   5.609   4.539 -1.2860 -0.0081 -0.8941
  929MOL0     H28165   9.620   5.690   4.562 -1.4793  1.4010  0.1912
  929MOL0     H28166   9.953   5.766   4.418 -1.9332  0.5119 -0.3043
  929MOL0     H28167   9.803   5.788   4.515  1.3812  0.2964  4.0091
  929MOL0     H28168   9.956   5.668   4.656 -0.2128  0.1241  0.7993
  929MOL0     H28169   9.848   5.539   4.603  0.3171  0.2457 -0.2954
  929MOL0     H28170  10.091   5.491   4.637  2.8795 -0.3050 -0.4855
  929MOL0     H28171  10.134   5.585   4.494  0.5530 -1.9141  0.6738
  929MOL0     H28172  10.001   5.438   4.358  0.0090 -0.7362 -0.8656
  929MOL0     H28173   9.934   5.345   4.507 -0.6957 -0.7733 -2.0656
  929MOL0     H28174  10.120   5.242   4.359 -4.3639  1.3553 -0.5595
  929MOL0     H28175  10.235   5.354   4.428  0.4899  0.0312  0.0201
  929MOL0     H28176  10.158   5.279   4.660 -0.1740 -0.5208  0.6247
  929MOL0     H28177  10.257   5.165   4.569 -0.9171 -2.7268  2.1754
  929MOL0     H28178  10.091   5.014   4.532  0.6771  1.2092 -0.6331
  929MOL0     H28179   9.963   5.119   4.554  0.8423 -1.0404 -1.5901
  929MOL0     H28180  10.027   5.144   4.813 -1.5326 -1.6783 -0.2083
  929MOL0     H28181  10.169   5.044   4.771  1.2802  1.2613 -2.8376
  929MOL0     H28182   9.714   5.521   4.177  0.4273  0.5992  0.5686
  929MOL0     H28183   9.470   5.427   4.170  2.1249 -1.9255 -0.6118
  929MOL0     H28184   9.149   5.410   4.168  2.2652  3.1145  3.7841
  929MOL0     H28185   8.961   5.304   4.046  0.7465 -0.7740  0.2412
  929MOL0     H28186   9.939   5.833   4.213 -2.6694 -1.9442  0.3127
  929MOL0     H28187  10.115   5.685   4.294 -0.4635  1.3711 -0.0743
  929MOL0     H28188  10.584   5.507   4.335 -0.6598  0.3602  3.6614
  929MOL0     H28189  10.728   5.330   4.385 -0.1268  0.3586 -0.1351
  929MOL0     H28190  10.572   5.003   4.462  1.8471  1.3488  1.7040
  929MOL0     H28191  10.575   4.925   4.306 -1.8418  0.3894  0.9302
  929MOL0     H28192  10.795   4.846   4.339  1.1155  2.1472  1.6177
  929MOL0     H28193  10.663   4.769   4.438 -1.6831 -0.4149  0.1041
  929MOL0     H28194  10.877   4.806   4.554  1.8679  0.6052  0.2400
  929MOL0     H28195  10.877   4.977   4.525 -1.4557  0.8301  0.0722
  929MOL0     H28196  10.664   4.840   4.676 -1.3523  0.5260 -2.2160
  929MOL0     H28197  10.693   5.012   4.675  0.4232  1.0220  0.9331
  929MOL0     H28198  10.994   4.888   4.942  0.5251  0.9405 -2.0089
  929MOL0     H28199  10.481   5.058   4.189  0.9249  0.0867  2.1605
  929MOL0     H28200  10.245   5.137   4.102  0.7919 -0.0742  0.4813
  929MOL0     H28201  10.182   5.298   4.134 -1.7483 -2.6816  0.1892
  929MOL0     H28202  10.299   5.272   4.002 -1.6161  1.3228 -0.2084
  930MOL0     O28203   1.898   7.927   5.775  0.0560 -0.0504 -0.3929
  930MOL0     C28204   1.788   7.964   5.729 -1.0695  0.1097  1.0141
  930MOL0     O28205   1.719   7.907   5.619 -0.4266 -0.1255 -0.3807
  930MOL0     C28206   1.756   7.786   5.577  0.9539  0.4647 -0.5730
  930MOL0     C28207   1.756   7.774   5.436  1.0532  0.3644 -0.4674
  930MOL0     C28208   1.793   7.652   5.380 -0.0599  0.9360 -0.0096
  930MOL0     C28209   1.831   7.538   5.454  1.1914 -0.5736  0.0499
  930MOL0     O28210   1.890   7.439   5.381  0.6251  0.2252 -0.2335
  930MOL0     C28211   1.870   7.308   5.426  1.0437 -0.0800 -0.5104
  930MOL0     C28212   1.956   7.205   5.352 -0.5240  0.1248  0.2740
  930MOL0     C28213   1.975   7.233   5.205 -0.1603  0.5223 -0.9094
  930MOL0     C28214   1.841   7.201   5.127 -0.7119  0.2908 -0.0383
  930MOL0     C28215   1.858   7.202   4.974  0.3666 -1.0458  0.1754
  930MOL0     C28216   1.722   7.161   4.904 -0.6815  0.3542 -0.2844
  930MOL0     C28217   1.624   7.278   4.932  0.7875 -0.2626 -0.0822
  930MOL0     C28218   1.497   7.242   4.845  0.1871  0.0278  0.6712
  930MOL0     N28219   1.378   7.318   4.865  0.6662  0.3659 -0.8027
  930MOL0     C28220   1.264   7.297   4.944 -0.1629  0.3587  0.0207
  930MOL0     C28221   1.176   7.384   4.906  0.7265 -0.4717 -0.5200
  930MOL0     C28222   1.038   7.406   4.961  0.4466 -0.0115  1.0098
  930MOL0     C28223   0.977   7.545   4.933 -1.2776 -0.4284  0.0469
  930MOL0     C28224   0.847   7.555   5.004  0.0316  0.4816  0.0109
  930MOL0     C28225   0.793   7.694   4.977 -0.5183 -0.4763 -0.0654
  930MOL0     O28226   0.763   7.697   4.839  0.2599  0.3934  0.1916
  930MOL0     C28227   0.716   7.816   4.792  0.4584  1.2377  0.0091
  930MOL0     C28228   0.691   7.929   4.862 -0.6084  0.0937  0.4036
  930MOL0     C28229   0.627   8.041   4.797  0.3583  0.4378  0.1212
  930MOL0     C28230   0.547   8.139   4.885 -0.1283  0.2835 -0.5435
  930MOL0     C28231   0.618   8.049   4.652  0.6447  0.2022  0.1823
  930MOL0     C28232   0.571   8.177   4.588 -0.6076  0.1513 -0.1320
  930MOL0     O28233   0.632   8.301   4.608 -0.0831  0.0015 -0.0563
  930MOL0     C28234   0.765   8.297   4.644 -0.2876  0.2580 -0.2946
  930MOL0     C28235   0.805   8.374   4.764 -0.4732 -0.7015  0.1768
  930MOL0     C28236   0.934   8.354   4.811 -0.3636 -1.0445  0.9518
  930MOL0     C28237   1.017   8.255   4.756 -0.0016  0.3601 -1.5794
  930MOL0     O28238   1.142   8.227   4.818  0.7762  0.4897 -0.7699
  930MOL0     C28239   1.134   8.104   4.890  0.1873  0.9057 -0.3704
  930MOL0     C28240   1.230   7.995   4.836 -0.8719 -0.4148  0.7006
  930MOL0     C28241   1.376   8.051   4.833  0.7613  0.4620 -0.3613
  930MOL0     C28242   1.485   7.948   4.793 -0.7471  0.3573  0.0847
  930MOL0     C28243   1.493   7.820   4.885  0.2292  0.1718 -0.8641
  930MOL0     C28244   1.640   7.759   4.901  0.5967  0.4501  0.4235
  930MOL0     C28245   1.730   7.840   4.982 -0.1885 -0.4389  0.2557
  930MOL0     C28246   1.878   7.813   4.975  0.1352  0.3494  1.0486
  930MOL0    Cl28247   1.954   7.892   4.825 -0.3234 -0.4878 -0.0786
  930MOL0     C28248   0.971   8.176   4.644 -0.0892  0.4228 -0.7008
  930MOL0     C28249   0.850   8.205   4.585 -0.0750 -0.4099 -0.3181
  930MOL0     O28250   0.489   8.156   4.496 -0.5177 -0.4831 -0.5598
  930MOL0     C28251   0.646   7.928   4.586  0.0812  0.5996  0.0679
  930MOL0     C28252   0.676   7.807   4.652  0.3598 -0.6660  0.2729
  930MOL0     N28253   1.237   7.470   4.811 -0.1146  0.2547  0.3623
  930MOL0     N28254   1.357   7.423   4.784  0.3075  0.9831 -0.3483
  930MOL0     C28255   1.811   7.541   5.597 -0.0194  0.7194  0.6925
  930MOL0     C28256   1.774   7.669   5.655 -0.5361 -0.4893  1.0849
  930MOL0     C28257   1.698   8.056   5.806  0.2405  0.5168 -0.9851
  930MOL0     C28258   1.578   8.108   5.744  0.0098 -0.4244 -0.0909
  930MOL0     C28259   1.492   8.197   5.793 -0.1945 -0.0280 -0.7191
  930MOL0     C28260   1.509   8.234   5.929  0.1761 -0.4405 -0.3397
  930MOL0     O28261   1.410   8.311   5.988 -0.3149  0.8123 -0.5025
  930MOL0     C28262   1.445   8.419   6.071 -0.5892 -0.2522 -0.6184
  930MOL0     C28263   1.325   8.518   6.080  0.4739 -0.6901 -0.5854
  930MOL0     C28264   1.323   8.621   5.977 -0.0240 -0.7894 -0.3388
  930MOL0     C28265   1.317   8.562   5.837 -0.7322  0.6015  0.6968
  930MOL0     C28266   1.451   8.554   5.765  0.2415  0.1487 -0.2211
  930MOL0     C28267   1.568   8.561   5.735  0.2128 -0.1721  0.7483
  930MOL0     C28268   1.624   8.189   5.998  0.6347  0.0518  0.4740
  930MOL0     C28269   1.718   8.104   5.938  0.4887 -0.7796 -0.0520
  930MOL0     C28270   1.830   8.064   6.044 -0.0042  0.6894  0.2807
  930MOL0     H28271   1.729   7.857   5.371  4.0366  0.5220 -1.6846
  930MOL0     H28272   1.800   7.653   5.271  2.9737  0.0206  0.0600
  930MOL0     H28273   1.765   7.298   5.399  1.3807  0.8868 -2.3130
  930MOL0     H28274   1.882   7.290   5.534 -1.5020 -0.8984 -0.2941
  930MOL0     H28275   2.057   7.207   5.394  1.0274  1.8610 -3.1493
  930MOL0     H28276   1.921   7.102   5.365  1.9484 -0.8092  0.2173
  930MOL0     H28277   2.011   7.336   5.191 -0.8792  1.7119  4.2593
  930MOL0     H28278   2.049   7.161   5.167 -1.6704 -1.8586  0.4423
  930MOL0     H28279   1.830   7.096   5.157  0.3455 -1.2570 -4.2521
  930MOL0     H28280   1.766   7.267   5.170  0.2477  1.0396  0.5362
  930MOL0     H28281   1.923   7.119   4.944  0.5154 -1.2102  0.9308
  930MOL0     H28282   1.905   7.293   4.936 -0.1555 -0.4487  0.9620
  930MOL0     H28283   1.736   7.153   4.796 -2.4542 -0.7002 -0.4750
  930MOL0     H28284   1.684   7.067   4.945 -1.2934  1.6108  2.2412
  930MOL0     H28285   1.653   7.380   4.908 -4.0042  1.2882 -0.4472
  930MOL0     H28286   1.588   7.271   5.036  0.7174  2.1566  0.1151
  930MOL0     H28287   1.523   7.253   4.740 -0.8600  2.2875  0.5988
  930MOL0     H28288   1.468   7.140   4.871 -0.4818 -0.0112 -0.2210
  930MOL0     H28289   1.242   7.214   5.011 -1.1811  0.6407  0.0442
  930MOL0     H28290   1.046   7.372   5.065 -0.3117 -2.3062  0.3819
  930MOL0     H28291   0.972   7.327   4.925  0.1461  1.4516 -1.8970
  930MOL0     H28292   1.040   7.625   4.974 -1.8414  1.7750 -3.0356
  930MOL0     H28293   0.965   7.552   4.825 -3.0597 -2.2949  0.0722
  930MOL0     H28294   0.779   7.475   4.972 -1.4033  1.9713 -0.7690
  930MOL0     H28295   0.870   7.535   5.109  0.9689 -0.4525 -0.3530
  930MOL0     H28296   0.704   7.696   5.041  0.0686  0.7938  0.7608
  930MOL0     H28297   0.869   7.771   4.998  0.6740 -1.0542 -2.0349
  930MOL0     H28298   0.713   7.932   4.968  0.4124  0.8988  0.1887
  930MOL0     H28299   0.569   8.123   4.991  0.6028  2.0882 -0.3916
  930MOL0     H28300   0.445   8.108   4.865 -0.3029 -0.0631  0.7884
  930MOL0     H28301   0.563   8.246   4.868  2.2164  0.3184  1.3290
  930MOL0     H28302   0.734   8.444   4.807 -0.4575 -1.2731  1.1677
  930MOL0     H28303   0.983   8.419   4.883 -0.4912 -1.4993  1.4556
  930MOL0     H28304   1.154   8.128   4.995  0.6205  1.5373 -0.5955
  930MOL0     H28305   1.032   8.065   4.897  0.5907  0.0830  1.7694
  930MOL0     H28306   1.226   7.898   4.886  1.0528 -2.2494 -2.3681
  930MOL0     H28307   1.214   7.991   4.728 -1.1462  1.6529  0.6165
  930MOL0     H28308   1.391   8.088   4.935 -0.4477  3.7867 -1.2429
  930MOL0     H28309   1.393   8.125   4.753  5.0861 -1.7202 -1.8196
  930MOL0     H28310   1.581   7.999   4.784 -2.1543  2.9009 -1.5233
  930MOL0     H28311   1.467   7.926   4.687 -3.1098  2.4119 -0.0469
  930MOL0     H28312   1.447   7.832   4.983  1.1213 -1.2969 -0.2331
  930MOL0     H28313   1.430   7.743   4.840 -1.1463 -1.1570  2.9366
  930MOL0     H28314   1.688   7.742   4.804  3.1521  2.0019  1.3276
  930MOL0     H28315   1.624   7.665   4.953  1.3401  0.6152  0.9546
  930MOL0     H28316   1.702   7.831   5.088  1.7546  0.5554  0.9143
  930MOL0     H28317   1.714   7.948   4.968  0.2482 -0.3058  0.7241
  930MOL0     H28318   1.888   7.705   4.964 -1.7195  0.2330  0.0012
  930MOL0     H28319   1.938   7.860   5.053 -2.3693  2.4098  1.9095
  930MOL0     H28320   1.034   8.105   4.592 -0.9610  0.5823 -2.0113
  930MOL0     H28321   0.820   8.147   4.497 -2.3393 -1.3546  0.9795
  930MOL0     H28322   0.633   7.928   4.478 -1.8971 -2.8245  0.1205
  930MOL0     H28323   0.678   7.707   4.609 -2.7127  0.7758 -3.7794
  930MOL0     H28324   1.822   7.459   5.667 -4.0144 -1.3819 -0.8538
  930MOL0     H28325   1.766   7.685   5.762  0.9798  1.4607  0.9692
  930MOL0     H28326   1.546   8.074   5.646  0.9232  0.0105 -0.5570
  930MOL0     H28327   1.402   8.234   5.746  0.6018  0.4400 -1.9583
  930MOL0     H28328   1.473   8.389   6.173  0.2822  0.2269 -0.7078
  930MOL0     H28329   1.538   8.467   6.041 -0.3344  0.4147  1.0874
  930MOL0     H28330   1.325   8.569   6.177  0.0147  2.2173 -2.0302
  930MOL0     H28331   1.242   8.447   6.080 -0.2033  0.0757  0.4054
  930MOL0     H28332   1.232   8.681   5.993 -0.1829 -1.2128  0.4286
  930MOL0     H28333   1.414   8.681   5.987 -1.4929  1.6009 -0.5119
  930MOL0     H28334   1.260   8.635   5.778  1.9922  1.9080 -0.5199
  930MOL0     H28335   1.258   8.471   5.822  0.8209 -0.2567 -0.5442
  930MOL0     H28336   1.668   8.562   5.698  0.5646 -3.1969  1.3976
  930MOL0     H28337   1.624   8.232   6.097 -2.2018  0.2446  0.4777
  930MOL0     H28338   1.794   8.074   6.147 -1.8112  2.8486 -0.4756
  930MOL0     H28339   1.858   7.963   6.016 -2.9394  0.3975 -2.1713
  930MOL0     H28340   1.920   8.126   6.046 -0.0494  0.7898 -0.4119
  931MOL0     O28341   1.887   0.122   9.023  0.2790 -0.2463  0.3789
  931MOL0     C28342   1.925   0.235   9.053  0.9548 -1.2460  0.3300
  931MOL0     O28343   1.929   0.345   8.968  0.0880 -0.1651 -0.3179
  931MOL0     C28344   1.908   0.339   8.829 -0.9447  0.0499  0.1724
  931MOL0     C28345   1.852   0.450   8.776 -0.7749 -0.2908  0.0834
  931MOL0     C28346   1.818   0.450   8.641  0.3815  0.1638 -0.3790
  931MOL0     C28347   1.835   0.339   8.556  0.1642  0.4192  0.0369
  931MOL0     O28348   1.813   0.342   8.420  0.2761 -0.0583 -0.0587
  931MOL0     C28349   1.734   0.447   8.356 -1.3928 -0.3319 -1.1326
  931MOL0     C28350   1.764   0.435   8.209 -0.0153  0.0608  0.4583
  931MOL0     C28351   1.776   0.287   8.147  0.5253  0.6245 -0.4389
  931MOL0     C28352   1.792   0.292   7.999  0.1904  0.0303 -0.2797
  931MOL0     C28353   1.698   0.214   7.916  0.3119  0.1488 -0.4138
  931MOL0     C28354   1.560   0.250   7.936 -0.0671  0.2921 -0.5745
  931MOL0     C28355   1.508   0.363   7.847 -0.6704  0.0139 -0.8421
  931MOL0     C28356   1.499   0.504   7.910 -0.2127  0.6021  0.3032
  931MOL0     N28357   1.419   0.606   7.843 -0.0156 -0.7195  0.3978
  931MOL0     C28358   1.433   0.647   7.716 -0.1807  0.0509  1.0502
  931MOL0     C28359   1.327   0.724   7.689  0.0701 -0.6200  0.5358
  931MOL0     C28360   1.294   0.797   7.563  0.0014  1.0550  0.3733
  931MOL0     C28361   1.174   0.726   7.503 -0.0016  0.1009  0.9857
  931MOL0     C28362   1.206   0.620   7.412  0.2109  0.3952  0.2878
  931MOL0     C28363   1.076   0.576   7.346  0.2195  0.5903  0.4051
  931MOL0     O28364   1.113   0.458   7.272  0.3615 -0.3048  0.0090
  931MOL0     C28365   1.019   0.362   7.246 -0.3307  0.0509 -0.1379
  931MOL0     C28366   1.038   0.223   7.295  0.6690 -0.8819  1.2861
  931MOL0     C28367   0.936   0.132   7.283 -0.3585  0.5878  0.9689
  931MOL0     C28368   0.950  -0.007   7.343  0.3061 -0.5129 -0.5178
  931MOL0     C28369   0.809   0.170   7.241 -0.2092  0.1541 -0.2207
  931MOL0     C28370   0.685   0.083   7.246 -0.7121 -0.9103  0.7637
  931MOL0     O28371   0.604   0.076   7.131 -0.0306  0.2503  0.7013
  931MOL0     C28372   0.506  -0.024   7.131  0.1240  0.0549 -0.4659
  931MOL0     C28373   0.549  -0.153   7.111 -0.1088  0.6467 -1.0359
  931MOL0     C28374   0.450  -0.258   7.111 -1.4192 -0.1039 -0.1280
  931MOL0     C28375   0.313  -0.227   7.145 -0.4429 -0.1881 -1.2085
  931MOL0     O28376   0.207  -0.308   7.130  0.1782  0.8529  0.6461
  931MOL0     C28377   0.225  -0.431   7.053  1.1793 -0.1855  0.1532
  931MOL0     C28378   0.093  -0.494   7.019 -0.0725  1.0619  0.2787
  931MOL0     C28379   0.060  -0.490   6.879  0.0426  0.1095 -0.1520
  931MOL0     C28380   0.106  -0.599   6.784 -0.1855 -0.3347 -0.3995
  931MOL0     C28381   0.018  -0.609   6.660  0.0558  1.0891 -0.2087
  931MOL0     C28382  -0.095  -0.709   6.696  0.5434  0.2653 -0.0150
  931MOL0     C28383  -0.051  -0.847   6.658 -0.3556  0.2634 -0.8302
  931MOL0     C28384  -0.162  -0.941   6.696 -0.5657  0.9973 -0.2122
  931MOL0    Cl28385  -0.176  -0.943   6.875  0.1793  0.2787 -0.0447
  931MOL0     C28386   0.279  -0.093   7.185 -0.2174  0.8777  0.3826
  931MOL0     C28387   0.374   0.009   7.176  0.7944  0.7756 -0.0697
  931MOL0     O28388   0.669   0.023   7.346 -0.1311 -0.5074 -0.7363
  931MOL0     C28389   0.794   0.298   7.182 -0.5087 -0.9242 -0.4439
  931MOL0     C28390   0.899   0.392   7.193  0.9253  0.8400  0.0996
  931MOL0     N28391   1.260   0.752   7.809  0.0620 -0.4963 -0.7537
  931MOL0     N28392   1.308   0.668   7.893 -0.0527  0.0635  0.5434
  931MOL0     C28393   1.891   0.226   8.613 -0.8480  0.3475 -0.7211
  931MOL0     C28394   1.925   0.221   8.745  0.3125 -1.0761  0.5105
  931MOL0     C28395   1.942   0.269   9.196  0.0793  0.5355 -0.0664
  931MOL0     C28396   1.969   0.401   9.228 -0.0188  1.4229 -0.1640
  931MOL0     C28397   1.969   0.443   9.354  0.0328 -0.5541  0.1693
  931MOL0     C28398   1.952   0.360   9.464  0.0267  0.0199  0.4526
  931MOL0     O28399   1.963   0.408   9.594  0.0710 -0.3458  0.2214
  931MOL0     C28400   1.898   0.532   9.634 -1.2432  0.4281  0.4756
  931MOL0     C28401   1.814   0.512   9.757 -0.6678 -0.2875  0.8004
  931MOL0     C28402   1.711   0.397   9.733 -0.4198  0.5917 -0.0876
  931MOL0     C28403   1.588   0.391   9.824 -0.6309 -0.7323 -0.0583
  931MOL0     C28404   1.626   0.390   9.966  0.3065  0.0555 -0.1688
  931MOL0     C28405   1.644   0.377  10.087 -0.4925 -0.1415 -0.6931
  931MOL0     C28406   1.935   0.221   9.438  0.2927  0.0916 -0.9644
  931MOL0     C28407   1.938   0.175   9.308 -0.2330 -0.2596  0.7095
  931MOL0     C28408   1.942   0.026   9.290 -0.3662  0.6268 -0.6552
  931MOL0     H28409   1.854   0.537   8.840  2.1776 -1.1268  1.2839
  931MOL0     H28410   1.793   0.543   8.590  3.2814 -0.0575 -2.4157
  931MOL0     H28411   1.765   0.547   8.387  2.5817 -1.6062 -0.4166
  931MOL0     H28412   1.631   0.428   8.387 -1.3271  0.4986 -0.3562
  931MOL0     H28413   1.683   0.486   8.157 -0.1572 -3.1044 -2.8712
  931MOL0     H28414   1.859   0.485   8.188  0.0030 -0.4883 -0.8737
  931MOL0     H28415   1.865   0.236   8.187 -0.8247 -1.1442  0.4224
  931MOL0     H28416   1.696   0.218   8.177  0.7304  0.0784 -1.1338
  931MOL0     H28417   1.765   0.395   7.972 -5.0501 -1.0042 -0.0700
  931MOL0     H28418   1.898   0.270   7.987  0.3064 -1.7208  2.9678
  931MOL0     H28419   1.714   0.110   7.946 -1.7312 -0.0275  0.2289
  931MOL0     H28420   1.721   0.234   7.811 -2.6822 -2.0319 -1.6135
  931MOL0     H28421   1.505   0.159   7.909  2.6932 -1.0768 -1.9247
  931MOL0     H28422   1.544   0.273   8.042 -0.8903 -1.5086 -0.2703
  931MOL0     H28423   1.405   0.327   7.837  0.4508 -4.8351  1.9282
  931MOL0     H28424   1.538   0.352   7.742  1.9910 -0.4743 -0.1135
  931MOL0     H28425   1.456   0.487   8.009 -1.4383 -2.4627 -0.6548
  931MOL0     H28426   1.596   0.548   7.935  0.2731 -0.2544 -0.0499
  931MOL0     H28427   1.507   0.622   7.641 -1.9621 -1.9244 -0.1520
  931MOL0     H28428   1.377   0.797   7.492  1.0239 -3.3979  1.3071
  931MOL0     H28429   1.261   0.900   7.582 -1.1228  0.5764  1.1447
  931MOL0     H28430   1.114   0.681   7.582 -0.6075 -1.3324 -0.2367
  931MOL0     H28431   1.128   0.805   7.442 -1.5211 -0.4495  1.3895
  931MOL0     H28432   1.277   0.656   7.337  1.8810  3.9592  3.2408
  931MOL0     H28433   1.254   0.533   7.459 -0.6855  0.9158  2.2360
  931MOL0     H28434   0.993   0.548   7.411  1.5578 -0.3611  1.8003
  931MOL0     H28435   1.051   0.659   7.280  3.3887 -0.1578 -1.9914
  931MOL0     H28436   1.132   0.205   7.347 -0.0278 -0.6715  2.6469
  931MOL0     H28437   0.902  -0.013   7.442 -1.5767  1.2781 -1.2455
  931MOL0     H28438   1.058  -0.023   7.347  1.0514  3.3526 -1.3872
  931MOL0     H28439   0.912  -0.085   7.277  1.7668 -2.2216  0.5556
  931MOL0     H28440   0.651  -0.182   7.087 -1.0190 -1.2459 -2.9877
  931MOL0     H28441   0.484  -0.360   7.101  1.8700  0.7101  1.4012
  931MOL0     H28442   0.272  -0.410   6.956 -0.9719 -0.5573 -1.0290
  931MOL0     H28443   0.281  -0.500   7.117 -0.9950  0.4728  2.9479
  931MOL0     H28444   0.093  -0.602   7.036 -1.7465  0.6107 -2.0635
  931MOL0     H28445   0.009  -0.461   7.082  0.7865  1.1679  1.4132
  931MOL0     H28446   0.094  -0.390   6.850  2.1492 -0.2672  0.8454
  931MOL0     H28447  -0.049  -0.482   6.880 -0.0174  0.9622  4.0892
  931MOL0     H28448   0.086  -0.690   6.841  1.0471 -0.5604 -0.3205
  931MOL0     H28449   0.213  -0.598   6.765 -0.2108 -3.4554 -1.1703
  931MOL0     H28450  -0.022  -0.518   6.614 -0.4535  0.7718 -0.4080
  931MOL0     H28451   0.080  -0.642   6.576  2.8426  1.4001  1.5923
  931MOL0     H28452  -0.180  -0.675   6.636  0.6747  3.1228  1.2485
  931MOL0     H28453  -0.131  -0.698   6.799  1.4322  0.2122  0.3142
  931MOL0     H28454   0.035  -0.887   6.712 -1.2440 -0.7298 -0.1172
  931MOL0     H28455  -0.027  -0.852   6.551 -0.1239  0.7952 -0.8100
  931MOL0     H28456  -0.132  -1.038   6.657  2.3706 -0.2347  4.3114
  931MOL0     H28457  -0.255  -0.904   6.653  0.3791  3.5903 -0.2603
  931MOL0     H28458   0.181  -0.052   7.207 -0.3968  0.4513  0.3874
  931MOL0     H28459   0.336   0.108   7.199  1.2581  0.8693  0.3169
  931MOL0     H28460   0.704   0.324   7.126 -1.2592 -3.1993 -0.3969
  931MOL0     H28461   0.889   0.487   7.143 -0.9596 -0.6677 -2.6112
  931MOL0     H28462   1.909   0.136   8.555 -2.8468  0.1664 -1.1341
  931MOL0     H28463   1.973   0.132   8.784  3.3286 -1.3161 -3.1277
  931MOL0     H28464   1.983   0.483   9.158  0.4598  1.7078  0.2633
  931MOL0     H28465   1.978   0.551   9.362 -1.3170 -0.3675 -0.4604
  931MOL0     H28466   1.967   0.616   9.640  1.0439 -1.3134 -0.2258
  931MOL0     H28467   1.829   0.562   9.554  0.4890  1.8640 -0.5409
  931MOL0     H28468   1.762   0.602   9.790 -1.6552 -1.3901  2.3417
  931MOL0     H28469   1.875   0.488   9.844  0.1373 -3.0405 -0.4134
  931MOL0     H28470   1.680   0.388   9.628  0.1155 -0.9185 -0.1457
  931MOL0     H28471   1.765   0.303   9.745  0.3628  1.2111  1.6112
  931MOL0     H28472   1.544   0.296   9.795 -1.6732  0.5958 -3.3746
  931MOL0     H28473   1.531   0.484   9.811  1.8864  0.6672 -1.9673
  931MOL0     H28474   1.659   0.376  10.193  0.0667 -0.1945 -0.7702
  931MOL0     H28475   1.935   0.156   9.525 -2.3195 -0.6696 -1.4266
  931MOL0     H28476   1.857   0.001   9.226 -0.0200 -1.0072 -0.5136
  931MOL0     H28477   2.034  -0.015   9.247 -1.3368 -2.7013  0.2082
  931MOL0     H28478   1.928  -0.021   9.388 -0.1520  1.1583 -0.3656
  932MOL0     O28479   2.748   6.881  10.638  0.3158  0.8462 -0.3161
  932MOL0     C28480   2.838   6.818  10.695  0.5838 -0.2668 -0.2630
  932MOL0     O28481   2.960   6.868  10.738  0.7617  0.2907  0.0294
  932MOL0     C28482   2.956   6.995  10.779 -0.1135 -0.1204 -0.2760
  932MOL0     C28483   3.002   7.014  10.917  0.2108  0.0721  1.1307
  932MOL0     C28484   3.037   7.137  10.972  0.0898 -0.0281  0.1808
  932MOL0     C28485   3.024   7.251  10.887 -0.0191  0.4116  0.1427
  932MOL0     O28486   3.063   7.368  10.939  0.2017  0.6855 -0.5193
  932MOL0     C28487   3.101   7.470  10.854  0.4160 -0.3671 -0.6414
  932MOL0     C28488   3.147   7.579  10.949 -0.2795 -1.0456  0.0354
  932MOL0     C28489   3.053   7.626  11.062  0.1149  0.2511 -1.1321
  932MOL0     C28490   3.106   7.766  11.122 -0.6061 -0.2591  0.6834
  932MOL0     C28491   3.011   7.826  11.229  0.2290 -0.0279 -0.2634
  932MOL0     C28492   3.082   7.939  11.325 -0.4428  1.3887  0.9892
  932MOL0     C28493   3.081   8.086  11.286  0.6822  0.0911  0.4451
  932MOL0     C28494   3.100   8.188  11.402 -0.1399 -0.0552  0.1355
  932MOL0     N28495   3.224   8.166  11.484 -0.0683  0.2875 -0.2513
  932MOL0     C28496   3.254   8.109  11.600  0.2334  0.4303  0.7674
  932MOL0     C28497   3.389   8.111  11.615  1.1835  1.1401  0.0989
  932MOL0     C28498   3.459   8.032  11.719 -0.5358  0.9448  0.5296
  932MOL0     C28499   3.414   8.062  11.867  0.3111 -0.6151 -0.3720
  932MOL0     C28500   3.499   7.991  11.971  0.3108  0.0353  0.2656
  932MOL0     C28501   3.603   8.080  12.031  0.1801 -0.3563  0.2741
  932MOL0     O28502   3.695   8.115  11.925  1.2233  1.1674  0.2491
  932MOL0     C28503   3.798   8.202  11.949 -0.5027 -0.7120  0.2211
  932MOL0     C28504   3.826   8.255  12.073 -0.0782  0.1203  1.2039
  932MOL0     C28505   3.932   8.340  12.091  1.0536 -0.7206  0.2966
  932MOL0     C28506   3.963   8.400  12.231 -0.4068  0.2419 -0.2634
  932MOL0     C28507   4.009   8.380  11.980 -0.2393 -0.7847  0.0652
  932MOL0     C28508   4.108   8.486  11.984 -0.3183  0.7979 -0.5919
  932MOL0     O28509   4.086   8.596  12.060 -0.4522  0.3633 -0.6785
  932MOL0     C28510   4.181   8.694  12.072  0.2336  0.6690  0.1836
  932MOL0     C28511   4.274   8.695  12.181  0.4714 -0.2796  0.4915
  932MOL0     C28512   4.367   8.797  12.185  0.4550 -0.4732  0.2491
  932MOL0     C28513   4.379   8.879  12.077 -0.4990  0.4901  0.5444
  932MOL0     O28514   4.489   8.960  12.074  0.5081  0.1089 -0.4363
  932MOL0     C28515   4.537   9.001  11.942  0.1092  0.5021  0.0359
  932MOL0     C28516   4.682   9.038  11.939  0.8586  0.1343  0.1956
  932MOL0     C28517   4.720   9.153  12.033  0.5247  1.1607  0.4427
  932MOL0     C28518   4.871   9.187  12.026 -0.0479 -0.3687  0.7714
  932MOL0     C28519   4.926   9.289  12.121 -0.1545 -0.1392  1.0213
  932MOL0     C28520   5.074   9.317  12.085 -0.5041  0.6934 -0.2378
  932MOL0     C28521   5.107   9.458  12.108  1.0957  0.5910  0.3182
  932MOL0     C28522   5.248   9.496  12.070 -0.9095  0.2267  0.0704
  932MOL0    Cl28523   5.277   9.456  11.890 -0.2882  0.1641 -0.1794
  932MOL0     C28524   4.278   8.889  11.973  0.3474 -0.7143 -0.0273
  932MOL0     C28525   4.188   8.788  11.970 -0.4330  0.1115  0.3085
  932MOL0     O28526   4.214   8.453  11.932  0.4920  0.0697  0.1748
  932MOL0     C28527   3.988   8.324  11.850  0.4720  0.3854 -0.4681
  932MOL0     C28528   3.887   8.225  11.841 -0.4934  0.4173  0.7812
  932MOL0     N28529   3.451   8.175  11.510 -0.0520 -0.3015 -0.2946
  932MOL0     N28530   3.341   8.199  11.431  1.0096  0.0616 -0.7161
  932MOL0     C28531   2.980   7.237  10.754  0.2346 -0.4118  0.2356
  932MOL0     C28532   2.948   7.111  10.696  0.3715  0.6588 -0.3843
  932MOL0     C28533   2.818   6.669  10.700  0.1243  0.7312 -0.4740
  932MOL0     C28534   2.903   6.595  10.786  0.3105 -0.4682  0.1433
  932MOL0     C28535   2.896   6.460  10.806  0.6022  0.2800  0.0107
  932MOL0     C28536   2.800   6.391  10.734  0.2429  0.6912  0.0715
  932MOL0     O28537   2.795   6.253  10.723  0.0536 -0.8156 -0.2641
  932MOL0     C28538   2.779   6.166  10.835 -0.3063 -0.4242 -0.5815
  932MOL0     C28539   2.631   6.133  10.864 -0.2979 -0.5906  0.7484
  932MOL0     C28540   2.564   6.063  10.743 -0.1763 -0.6409  1.7497
  932MOL0     C28541   2.414   6.050  10.753  0.6519  0.0213  0.0137
  932MOL0     C28542   2.344   5.993  10.635 -0.1712  0.0716 -0.0837
  932MOL0     C28543   2.267   5.954  10.553 -0.8055  0.4767  0.2791
  932MOL0     C28544   2.700   6.460  10.659 -0.0839 -0.8054  0.2516
  932MOL0     C28545   2.711   6.596  10.641  0.1825 -0.3316 -0.6890
  932MOL0     C28546   2.612   6.644  10.544  0.0762  0.0812  0.3568
  932MOL0     H28547   3.021   6.926  10.977 -2.0866 -2.8608 -2.0601
  932MOL0     H28548   3.078   7.138  11.072  1.8508 -0.3154 -0.4856
  932MOL0     H28549   3.009   7.504  10.806  0.5074 -0.1900 -0.6907
  932MOL0     H28550   3.176   7.440  10.781  1.0447  1.5015 -0.7948
  932MOL0     H28551   3.240   7.540  10.991  1.0652 -0.5710 -2.3213
  932MOL0     H28552   3.176   7.670  10.896  0.4799 -0.7384  0.9567
  932MOL0     H28553   2.950   7.647  11.033  0.3931  2.9733 -0.4187
  932MOL0     H28554   3.050   7.541  11.132  2.0109  0.1111 -1.1790
  932MOL0     H28555   3.200   7.750  11.176 -2.6334  0.1879  4.7350
  932MOL0     H28556   3.129   7.833  11.038  0.7789 -0.5203  0.8204
  932MOL0     H28557   2.988   7.743  11.297  2.5088 -0.9095 -0.4969
  932MOL0     H28558   2.921   7.877  11.193  1.0807  1.6848 -0.0467
  932MOL0     H28559   3.033   7.943  11.423  2.2785  2.1604  2.3915
  932MOL0     H28560   3.187   7.911  11.338 -0.4667  0.2955 -0.7379
  932MOL0     H28561   2.987   8.114  11.238  1.2382 -1.0768 -1.4057
  932MOL0     H28562   3.155   8.101  11.208  1.2781  0.1101  1.0058
  932MOL0     H28563   3.119   8.287  11.359 -1.0355  0.5598  1.1260
  932MOL0     H28564   3.015   8.185  11.471 -0.9948 -0.5315 -0.9243
  932MOL0     H28565   3.185   8.068  11.673  0.4467  0.2772  0.8822
  932MOL0     H28566   3.568   8.044  11.712 -0.6448  1.7314  0.0785
  932MOL0     H28567   3.438   7.928  11.692 -2.4091  1.2548  0.6975
  932MOL0     H28568   3.422   8.169  11.889 -1.4675 -0.5317 -0.0136
  932MOL0     H28569   3.308   8.040  11.881 -0.4196  1.8502 -1.3953
  932MOL0     H28570   3.435   7.942  12.045  0.3907  1.5977  1.4366
  932MOL0     H28571   3.548   7.907  11.922 -4.3697 -2.5086 -0.6905
  932MOL0     H28572   3.558   8.167  12.080  1.1571  0.2237  0.1566
  932MOL0     H28573   3.656   8.015  12.101 -0.7319 -0.1817  1.1516
  932MOL0     H28574   3.756   8.237  12.154 -1.9988 -2.1545 -0.7965
  932MOL0     H28575   4.067   8.433  12.234 -1.0349  2.3269  0.6028
  932MOL0     H28576   3.927   8.336  12.312 -3.5528  0.0837 -1.6378
  932MOL0     H28577   3.901   8.490  12.239 -4.0727 -2.0941  0.0526
  932MOL0     H28578   4.264   8.612  12.251  3.3149 -0.9436  0.2134
  932MOL0     H28579   4.441   8.796  12.264 -1.7546 -1.1690  2.4466
  932MOL0     H28580   4.535   8.908  11.885  2.1806 -0.0029  0.7046
  932MOL0     H28581   4.471   9.082  11.909  0.4683  1.3211  1.2694
  932MOL0     H28582   4.742   8.957  11.981 -0.1281 -1.7034 -1.7315
  932MOL0     H28583   4.720   9.063  11.839 -0.5620 -1.3611 -0.7733
  932MOL0     H28584   4.697   9.114  12.132  1.0503 -0.2901  0.0209
  932MOL0     H28585   4.656   9.242  12.025  2.0612  2.5552  2.6210
  932MOL0     H28586   4.901   9.213  11.924 -0.1780  0.4788  0.9408
  932MOL0     H28587   4.911   9.089  12.051 -0.9553 -1.6169 -2.2047
  932MOL0     H28588   4.869   9.382  12.122  0.1831  0.1059 -0.1488
  932MOL0     H28589   4.912   9.238  12.216  0.4965 -4.0896 -0.8177
  932MOL0     H28590   5.098   9.280  11.985 -0.7837  1.5368 -0.6247
  932MOL0     H28591   5.139   9.262  12.154 -0.3692 -0.5653 -1.3255
  932MOL0     H28592   5.092   9.486  12.213  2.9402 -1.3906  1.1841
  932MOL0     H28593   5.041   9.509  12.037  2.1476 -2.1410 -2.8850
  932MOL0     H28594   5.318   9.452  12.143 -0.8610 -0.5667 -0.4389
  932MOL0     H28595   5.261   9.603  12.083 -1.8331  0.2528  0.8659
  932MOL0     H28596   4.281   8.959  11.890 -1.2157  1.9829  2.0265
  932MOL0     H28597   4.135   8.775  11.876 -2.6905 -1.2314  1.6705
  932MOL0     H28598   4.032   8.378  11.767 -1.4028  2.0477 -0.4555
  932MOL0     H28599   3.872   8.171  11.748 -2.4958 -0.1509  1.3756
  932MOL0     H28600   2.978   7.320  10.684 -0.9213  0.2799  1.0576
  932MOL0     H28601   2.939   7.087  10.591 -1.1491 -0.3748 -0.0465
  932MOL0     H28602   2.960   6.643  10.864 -1.0689  0.9183  0.3572
  932MOL0     H28603   2.966   6.410  10.873 -0.2781 -0.5289  0.3614
  932MOL0     H28604   2.831   6.073  10.811  2.0201  0.9920 -1.2943
  932MOL0     H28605   2.828   6.212  10.921  1.7474  1.3407 -2.5768
  932MOL0     H28606   2.576   6.222  10.895  0.1333  0.5970 -1.6292
  932MOL0     H28607   2.619   6.060  10.945 -1.3496 -0.7607  0.4559
  932MOL0     H28608   2.582   6.117  10.650  0.5975 -1.0400  1.6584
  932MOL0     H28609   2.599   5.966  10.707 -2.3066  0.1648 -3.2534
  932MOL0     H28610   2.361   6.145  10.768  0.5917 -0.2548  1.7679
  932MOL0     H28611   2.388   5.984  10.836 -1.7269  0.5244 -0.2549
  932MOL0     H28612   2.211   5.929  10.465  0.3133 -0.7989 -0.1146
  932MOL0     H28613   2.620   6.400  10.615  0.0255 -0.3060 -0.6434
  932MOL0     H28614   2.553   6.562  10.504  0.8216 -0.6730  0.7499
  932MOL0     H28615   2.545   6.720  10.587 -2.4524 -1.3948 -0.8149
  932MOL0     H28616   2.671   6.696  10.468  0.5196  1.3926  1.5422
  933MOL0     O28617   0.960   8.229   1.148 -0.4317  0.3641  0.1857
  933MOL0     C28618   1.026   8.238   1.046 -0.7269 -0.3749  1.1565
  933MOL0     O28619   0.987   8.309   0.938 -0.4139  0.8739  1.3625
  933MOL0     C28620   0.864   8.373   0.940  0.1188 -0.3326 -0.5166
  933MOL0     C28621   0.856   8.498   0.997 -0.0941  0.2177 -0.2776
  933MOL0     C28622   0.729   8.563   0.989 -0.0478  0.3659 -0.3005
  933MOL0     C28623   0.615   8.497   0.936 -0.1232  0.1238 -0.9724
  933MOL0     O28624   0.499   8.575   0.952  0.8015  0.4487 -0.6597
  933MOL0     C28625   0.386   8.497   1.005  0.4016 -0.2844 -0.1968
  933MOL0     C28626   0.259   8.580   1.034  0.0173  0.1122 -0.1571
  933MOL0     C28627   0.287   8.702   1.124 -0.7605  1.6666  0.4652
  933MOL0     C28628   0.309   8.654   1.266  0.3294  0.0557 -0.7278
  933MOL0     C28629   0.325   8.769   1.366 -0.7174 -1.2771  0.3894
  933MOL0     C28630   0.441   8.869   1.340  0.5446  0.7928 -0.1939
  933MOL0     C28631   0.583   8.804   1.319  0.2845  0.0597  0.3766
  933MOL0     C28632   0.631   8.704   1.424  1.0483 -0.1856  0.7748
  933MOL0     N28633   0.778   8.692   1.432  0.3447  0.4129 -0.5862
  933MOL0     C28634   0.864   8.645   1.340  0.3987 -0.6270  0.2806
  933MOL0     C28635   0.985   8.630   1.409  0.4781 -0.7491  1.0561
  933MOL0     C28636   1.103   8.564   1.330  0.4519  0.5546 -0.4557
  933MOL0     C28637   1.227   8.655   1.330 -0.1446 -0.0359  0.5924
  933MOL0     C28638   1.207   8.783   1.262  0.6900 -0.0561  0.2643
  933MOL0     C28639   1.188   8.765   1.104  0.9106  0.4386 -0.5397
  933MOL0     O28640   1.148   8.891   1.049  0.6161 -0.0939 -0.1071
  933MOL0     C28641   1.060   8.876   0.949 -0.6912 -0.0670  0.4445
  933MOL0     C28642   1.062   8.770   0.852 -0.5747 -0.7800  1.1443
  933MOL0     C28643   0.975   8.772   0.742  0.7357 -0.2177  0.3829
  933MOL0     C28644   1.003   8.657   0.645 -0.6078 -0.8919  0.2736
  933MOL0     C28645   0.879   8.879   0.741 -0.6814 -0.1200 -1.2430
  933MOL0     C28646   0.767   8.884   0.641  1.1631  0.0422  0.1446
  933MOL0     O28647   0.641   8.936   0.674  0.0046 -0.0793 -0.3016
  933MOL0     C28648   0.570   8.989   0.575  0.7292  0.4221  0.4764
  933MOL0     C28649   0.602   9.118   0.521  0.0855 -0.6328 -0.5525
  933MOL0     C28650   0.525   9.174   0.415  0.6472  0.2122 -0.4227
  933MOL0     C28651   0.413   9.095   0.360 -1.1276 -0.3333  0.0219
  933MOL0     O28652   0.336   9.136   0.257 -0.2286  0.7631  0.0402
  933MOL0     C28653   0.361   9.261   0.194 -1.2267  0.3862  0.4502
  933MOL0     C28654   0.272   9.259   0.085 -0.5584  0.8450  0.0345
  933MOL0     C28655   0.299   9.371  -0.011 -0.1382 -0.8400 -0.9316
  933MOL0     C28656   0.421   9.356  -0.107 -0.0713  0.4672  0.3218
  933MOL0     C28657   0.451   9.486  -0.182  0.4482 -0.2468 -0.3606
  933MOL0     C28658   0.595   9.486  -0.247  0.7039  0.1376  0.9885
  933MOL0     C28659   0.586   9.578  -0.367  0.5616 -0.8162  0.0715
  933MOL0     C28660   0.732   9.625  -0.400  0.1744 -0.6842  0.2276
  933MOL0    Cl28661   0.720   9.730  -0.548  0.1406 -0.3322  0.2564
  933MOL0     C28662   0.388   8.976   0.420  0.1524  1.0769 -0.2237
  933MOL0     C28663   0.461   8.916   0.519 -0.3768  0.7686  0.1945
  933MOL0     O28664   0.790   8.843   0.532 -0.2429 -0.2619 -0.1036
  933MOL0     C28665   0.884   8.983   0.837  0.7945  0.1404  0.3557
  933MOL0     C28666   0.958   8.975   0.944  0.1837 -0.7316 -0.2066
  933MOL0     N28667   0.962   8.658   1.538 -0.8331  0.5081  0.1915
  933MOL0     N28668   0.839   8.684   1.551  0.5121  0.5555 -0.4366
  933MOL0     C28669   0.626   8.367   0.879  0.6693 -0.0796 -0.6328
  933MOL0     C28670   0.754   8.306   0.887 -0.1714  1.2756  0.5485
  933MOL0     C28671   1.159   8.170   1.048  0.1042  0.3709  0.5188
  933MOL0     C28672   1.203   8.103   1.166  0.2587  0.4989  0.7256
  933MOL0     C28673   1.330   8.045   1.176  0.0700  0.1396 -0.5922
  933MOL0     C28674   1.421   8.047   1.075 -1.0072  0.3701 -0.1018
  933MOL0     O28675   1.539   7.975   1.089  0.2183 -0.5228 -0.1056
  933MOL0     C28676   1.626   7.940   0.975  0.6942 -0.3742  0.1456
  933MOL0     C28677   1.671   7.796   1.000  0.0353 -1.0116 -0.0659
  933MOL0     C28678   1.552   7.701   1.034  0.3895  0.8624  0.0172
  933MOL0     C28679   1.603   7.576   1.106  0.9205  0.8864  0.9464
  933MOL0     C28680   1.594   7.609   1.248  0.2198  0.3446 -0.2763
  933MOL0     C28681   1.565   7.643   1.363  0.1340  0.0117  1.2385
  933MOL0     C28682   1.392   8.132   0.972 -1.0861  0.4336  0.5838
  933MOL0     C28683   1.262   8.186   0.950 -0.4972 -0.8545 -0.2653
  933MOL0     C28684   1.245   8.281   0.839  0.2003 -0.2945 -0.3327
  933MOL0     H28685   0.941   8.546   1.046 -0.3799  2.4057 -1.7705
  933MOL0     H28686   0.722   8.665   1.026  0.5597  0.4577 -0.4210
  933MOL0     H28687   0.417   8.451   1.099  1.7884 -3.0610 -1.8926
  933MOL0     H28688   0.351   8.420   0.936  1.6850  0.5718 -1.8762
  933MOL0     H28689   0.225   8.616   0.936  2.8652  4.2690  0.1254
  933MOL0     H28690   0.184   8.510   1.072  1.0422 -3.6446 -4.2050
  933MOL0     H28691   0.385   8.746   1.103  0.4345 -1.3952 -1.0545
  933MOL0     H28692   0.214   8.782   1.107 -0.1240  2.2793  0.5672
  933MOL0     H28693   0.219   8.605   1.305  0.3481 -2.6908 -3.6969
  933MOL0     H28694   0.383   8.574   1.277  0.1086 -0.0317  0.2356
  933MOL0     H28695   0.335   8.736   1.470  0.0832 -0.9614  0.4214
  933MOL0     H28696   0.234   8.829   1.361  0.0139 -0.0219  1.3518
  933MOL0     H28697   0.423   8.912   1.241 -0.3359 -3.8487 -2.3328
  933MOL0     H28698   0.436   8.951   1.412  1.1548 -0.6549  1.5636
  933MOL0     H28699   0.641   8.896   1.311 -2.6267  2.0063 -0.1896
  933MOL0     H28700   0.597   8.761   1.220  1.4621  1.3247 -0.0382
  933MOL0     H28701   0.591   8.731   1.523 -2.4957 -0.9180 -0.2924
  933MOL0     H28702   0.581   8.609   1.403  0.2357  0.5558 -0.8204
  933MOL0     H28703   0.853   8.620   1.235  1.8910 -0.0230 -0.0498
  933MOL0     H28704   1.069   8.525   1.233 -1.0405 -1.6743  0.8909
  933MOL0     H28705   1.136   8.480   1.390 -0.8133 -2.0119 -3.1073
  933MOL0     H28706   1.252   8.668   1.436  1.3775 -0.9606  0.3750
  933MOL0     H28707   1.308   8.608   1.275 -0.5254  0.9010 -0.8301
  933MOL0     H28708   1.119   8.833   1.303  0.4802  1.9107 -2.3167
  933MOL0     H28709   1.291   8.850   1.286  1.1636 -1.5295  3.1998
  933MOL0     H28710   1.285   8.733   1.066  1.4909  1.8204 -0.2937
  933MOL0     H28711   1.113   8.686   1.100 -0.5481  1.2836  4.1373
  933MOL0     H28712   1.147   8.704   0.842  0.4491  0.4142  1.7656
  933MOL0     H28713   0.989   8.571   0.711  2.3643 -1.1191  0.7539
  933MOL0     H28714   1.108   8.663   0.614 -1.2300  1.0977 -1.7070
  933MOL0     H28715   0.938   8.648   0.557 -2.7713  3.1039  1.2206
  933MOL0     H28716   0.692   9.160   0.567  0.3206 -2.1879  0.4935
  933MOL0     H28717   0.543   9.273   0.375  1.4302 -0.3967 -1.6460
  933MOL0     H28718   0.329   9.342   0.260 -1.3176  2.3725 -1.9009
  933MOL0     H28719   0.467   9.265   0.165 -0.5849  3.6348  2.6371
  933MOL0     H28720   0.267   9.166   0.027 -2.6367  1.0095 -0.1455
  933MOL0     H28721   0.172   9.255   0.130 -0.2778  0.4424  0.6409
  933MOL0     H28722   0.315   9.460   0.049 -2.2182 -0.4531 -0.8706
  933MOL0     H28723   0.216   9.401  -0.075  1.2668  3.1383 -1.1474
  933MOL0     H28724   0.405   9.280  -0.184  0.7187  0.8537 -0.2388
  933MOL0     H28725   0.507   9.317  -0.054 -0.0181  0.8594  0.5306
  933MOL0     H28726   0.367   9.503  -0.251 -1.4979  0.7585  2.0961
  933MOL0     H28727   0.444   9.568  -0.110 -2.4594  1.2066 -2.0670
  933MOL0     H28728   0.622   9.385  -0.281  1.9718 -0.1374  2.7016
  933MOL0     H28729   0.663   9.523  -0.170  2.0675 -0.5534  0.1643
  933MOL0     H28730   0.535   9.671  -0.338 -1.0753 -1.3784 -0.8948
  933MOL0     H28731   0.523   9.543  -0.449  2.2125  2.0922 -2.6306
  933MOL0     H28732   0.804   9.543  -0.412  0.5273 -0.1590 -1.5755
  933MOL0     H28733   0.773   9.687  -0.320 -0.5387  0.3664 -0.2009
  933MOL0     H28734   0.294   8.930   0.391  0.9046 -1.0655  0.5303
  933MOL0     H28735   0.410   8.829   0.560 -1.0761 -0.1443 -2.4476
  933MOL0     H28736   0.812   9.064   0.833 -0.3335 -0.8559 -2.3959
  933MOL0     H28737   0.954   9.053   1.020  0.1947 -0.4488 -0.4912
  933MOL0     H28738   0.535   8.318   0.845  1.2003 -1.2100 -0.4788
  933MOL0     H28739   0.767   8.214   0.832  1.3160  2.0503 -0.4892
  933MOL0     H28740   1.146   8.097   1.258 -2.4610 -0.6954 -0.9388
  933MOL0     H28741   1.356   7.984   1.262 -0.2997 -0.1804 -0.7030
  933MOL0     H28742   1.580   7.954   0.877  0.6451 -2.1362 -0.1176
  933MOL0     H28743   1.710   8.010   0.976  1.2186 -0.6839 -3.9628
  933MOL0     H28744   1.742   7.792   1.082  2.3101 -0.8920 -1.9292
  933MOL0     H28745   1.722   7.750   0.915 -2.2730 -3.1472 -0.4362
  933MOL0     H28746   1.478   7.752   1.096  1.2375 -0.3480  2.1178
  933MOL0     H28747   1.504   7.671   0.940  2.2807  0.5445 -0.9104
  933MOL0     H28748   1.710   7.560   1.087  1.2299  0.1394  3.0747
  933MOL0     H28749   1.543   7.489   1.080 -0.5356  2.0727  0.1532
  933MOL0     H28750   1.544   7.698   1.453 -4.0643  2.0820 -0.7072
  933MOL0     H28751   1.469   8.146   0.897  2.2010 -3.7561  2.7450
  933MOL0     H28752   1.155   8.265   0.778  0.0739 -0.8461 -0.0069
  933MOL0     H28753   1.246   8.384   0.876 -1.2290 -0.8234  1.2867
  933MOL0     H28754   1.331   8.260   0.775  2.2698 -1.0454  2.5216
  934MOL0     O28755   7.219   9.916   2.407 -0.1279 -0.7155 -0.3544
  934MOL0     C28756   7.335   9.946   2.376 -0.6515  0.3778 -0.0359
  934MOL0     O28757   7.421  10.030   2.449  0.5630  0.0693 -0.8289
  934MOL0     C28758   7.367  10.105   2.542  1.0048  0.2648  0.8182
  934MOL0     C28759   7.326  10.054   2.660 -1.0074 -0.0490 -0.0735
  934MOL0     C28760   7.258  10.135   2.751  0.2528  0.3855 -0.0709
  934MOL0     C28761   7.222  10.268   2.718 -0.2391  0.3197 -1.1760
  934MOL0     O28762   7.145  10.346   2.807 -0.4379  1.0630  0.3097
  934MOL0     C28763   7.010  10.337   2.768  0.9778  0.9065  0.5184
  934MOL0     C28764   6.944  10.408   2.881  0.5668 -1.4314 -0.1870
  934MOL0     C28765   6.792  10.387   2.877  0.6081 -0.0529 -1.5607
  934MOL0     C28766   6.705  10.469   2.774  0.1100  0.5238 -0.9925
  934MOL0     C28767   6.680  10.613   2.825 -0.1901  0.6971 -0.1960
  934MOL0     C28768   6.632  10.653   2.966  0.4384 -0.2241 -0.4341
  934MOL0     C28769   6.589  10.807   2.993  0.1110 -0.1336  0.6579
  934MOL0     C28770   6.523  10.823   3.128  0.4640 -0.7376 -0.3030
  934MOL0     N28771   6.389  10.761   3.127 -0.6041  0.7791 -0.3297
  934MOL0     C28772   6.285  10.814   3.062 -1.2476 -0.6971 -0.0964
  934MOL0     C28773   6.187  10.722   3.067  1.0154 -0.7788  0.2714
  934MOL0     C28774   6.054  10.745   2.994  0.5893  0.5839 -0.1393
  934MOL0     C28775   5.998  10.612   2.928 -0.4422 -0.8829 -0.4041
  934MOL0     C28776   5.858  10.636   2.870  0.3916  0.7084 -1.0891
  934MOL0     C28777   5.802  10.505   2.811  0.8687 -0.1504  0.0355
  934MOL0     O28778   5.895  10.452   2.713 -0.1845  0.0599  0.3286
  934MOL0     C28779   5.853  10.334   2.656 -0.0475 -0.1491 -0.5290
  934MOL0     C28780   5.716  10.278   2.665 -0.4909 -0.3074  0.0605
  934MOL0     C28781   5.679  10.159   2.602  0.2073 -0.4076  0.6620
  934MOL0     C28782   5.544  10.105   2.624 -0.0990  0.2182  0.4315
  934MOL0     C28783   5.758  10.112   2.497 -0.2340 -0.3251  0.0858
  934MOL0     C28784   5.737   9.992   2.413 -0.3399  0.1156  0.8355
  934MOL0     O28785   5.813   9.993   2.304  0.5330 -0.5866  0.9657
  934MOL0     C28786   5.809   9.880   2.218  0.5081 -0.1679 -0.0910
  934MOL0     C28787   5.906   9.790   2.219 -0.0067  0.0620 -0.7058
  934MOL0     C28788   5.890   9.682   2.133 -0.1478  0.0245  0.1222
  934MOL0     C28789   5.776   9.658   2.057 -0.5859  0.8683  0.2636
  934MOL0     O28790   5.742   9.536   2.001  0.6180 -0.1458 -0.2436
  934MOL0     C28791   5.772   9.498   1.862 -0.0505 -0.0094  0.0257
  934MOL0     C28792   5.639   9.448   1.807 -0.1542  0.4491 -0.3130
  934MOL0     C28793   5.519   9.536   1.835 -0.1611 -0.5785  0.1224
  934MOL0     C28794   5.395   9.470   1.760  0.3208 -0.7117 -0.4816
  934MOL0     C28795   5.279   9.571   1.734 -1.1820 -0.3715 -1.1713
  934MOL0     C28796   5.209   9.590   1.869 -0.0377 -0.3420  0.6937
  934MOL0     C28797   5.090   9.687   1.850  0.1748 -0.0819  0.5459
  934MOL0     C28798   5.058   9.747   1.980 -0.3111  0.0721  0.3571
  934MOL0    Cl28799   4.903   9.659   2.029  0.4854 -0.2320 -0.3051
  934MOL0     C28800   5.674   9.753   2.059  0.6852  0.1202 -0.2781
  934MOL0     C28801   5.695   9.868   2.139  0.5518  0.2464  0.1326
  934MOL0     O28802   5.675   9.890   2.453  0.0157  0.4083 -0.5484
  934MOL0     C28803   5.885  10.167   2.485 -1.0642  0.3488  0.2008
  934MOL0     C28804   5.932  10.272   2.565 -0.3992 -0.1694  0.2018
  934MOL0     N28805   6.233  10.614   3.134 -0.8364 -0.5404 -1.1284
  934MOL0     N28806   6.361  10.635   3.166  0.1278  0.1872  0.4565
  934MOL0     C28807   7.267  10.313   2.595  0.1644  0.4603 -0.2973
  934MOL0     C28808   7.340  10.238   2.505  0.1793  0.4236 -0.8999
  934MOL0     C28809   7.392   9.880   2.256  0.2538 -0.3285  0.6498
  934MOL0     C28810   7.505   9.939   2.200  0.5765 -0.2077 -0.0993
  934MOL0     C28811   7.569   9.873   2.099  0.7280  0.6839  0.1098
  934MOL0     C28812   7.524   9.746   2.042 -0.2880 -0.6564  0.1279
  934MOL0     O28813   7.593   9.707   1.929  0.6103  0.2712  0.3384
  934MOL0     C28814   7.521   9.647   1.814 -0.3911  0.3813 -0.3699
  934MOL0     C28815   7.566   9.494   1.786  0.7146  0.5822 -0.2693
  934MOL0     C28816   7.680   9.446   1.873 -0.1985 -0.4862  0.1010
  934MOL0     C28817   7.705   9.292   1.844 -0.0185  0.2069  0.9936
  934MOL0     C28818   7.829   9.234   1.903 -0.9250  0.2420  1.0732
  934MOL0     C28819   7.938   9.183   1.931  0.6930  1.1859 -0.5344
  934MOL0     C28820   7.408   9.695   2.099 -0.2092 -0.1226  0.4196
  934MOL0     C28821   7.334   9.765   2.197  0.0699  0.1695 -0.2632
  934MOL0     C28822   7.209   9.685   2.237  1.3043  0.2617  0.5305
  934MOL0     H28823   7.331   9.946   2.666 -0.8100 -0.4297 -4.1447
  934MOL0     H28824   7.212  10.094   2.840 -3.0548  0.6026 -1.5109
  934MOL0     H28825   6.964  10.238   2.773  2.1810  0.3410  0.6761
  934MOL0     H28826   7.003  10.384   2.670  0.4902  1.4533  0.8052
  934MOL0     H28827   6.974  10.385   2.984 -2.2872  2.2527  1.6831
  934MOL0     H28828   6.975  10.511   2.863 -2.3592 -0.3229  0.5444
  934MOL0     H28829   6.774  10.280   2.864  1.8910 -0.5096  0.1235
  934MOL0     H28830   6.760  10.423   2.975  1.7700  0.1223 -1.2244
  934MOL0     H28831   6.759  10.472   2.680  2.2698 -0.6156  0.1311
  934MOL0     H28832   6.610  10.415   2.767 -2.3898  4.3900 -0.0844
  934MOL0     H28833   6.609  10.649   2.750  1.4224  0.0429 -2.1139
  934MOL0     H28834   6.767  10.674   2.799 -0.9663  0.9144 -2.4494
  934MOL0     H28835   6.540  10.599   2.991 -0.2459  1.0291 -0.1922
  934MOL0     H28836   6.707  10.633   3.044  1.8597  0.9407 -1.4401
  934MOL0     H28837   6.520  10.842   2.916 -0.0384 -0.2460  0.7404
  934MOL0     H28838   6.681  10.867   2.987 -0.3923  0.5092 -2.3732
  934MOL0     H28839   6.583  10.784   3.212  1.0114 -0.4416 -0.5544
  934MOL0     H28840   6.525  10.931   3.148 -3.3012 -0.4058 -0.9624
  934MOL0     H28841   6.285  10.907   3.008  0.0137  0.1197  1.2384
  934MOL0     H28842   6.069  10.821   2.916 -2.2334  3.1772  1.6531
  934MOL0     H28843   5.973  10.792   3.049  1.3306  0.0838  1.4368
  934MOL0     H28844   6.079  10.583   2.860  0.7003  1.1241  0.0323
  934MOL0     H28845   5.989  10.536   3.006  3.4094 -3.1244 -1.8421
  934MOL0     H28846   5.792  10.691   2.939  0.3587 -0.1894 -0.3929
  934MOL0     H28847   5.861  10.702   2.783 -1.1463  0.1841 -1.5741
  934MOL0     H28848   5.781  10.440   2.896 -1.2953  0.6882  0.2045
  934MOL0     H28849   5.704  10.535   2.772  0.6399 -2.3933 -1.2746
  934MOL0     H28850   5.649  10.332   2.731  0.9109 -0.4505  1.6565
  934MOL0     H28851   5.496  10.169   2.699  1.8487  0.9985  1.0657
  934MOL0     H28852   5.554   9.998   2.645  3.9214  0.5033  0.8020
  934MOL0     H28853   5.486  10.109   2.531 -0.7237 -3.1435  0.5258
  934MOL0     H28854   5.989   9.790   2.289  0.4514 -3.4095 -1.0878
  934MOL0     H28855   5.966   9.607   2.117 -0.7443 -0.2311 -1.7829
  934MOL0     H28856   5.808   9.584   1.806 -0.1644 -0.8290 -1.3374
  934MOL0     H28857   5.847   9.419   1.849  0.7514  0.5409  1.1308
  934MOL0     H28858   5.646   9.434   1.699 -1.4246  1.6190 -0.5805
  934MOL0     H28859   5.602   9.354   1.848  1.6942 -0.0521  0.2709
  934MOL0     H28860   5.534   9.640   1.805 -0.2347 -0.6391 -0.1299
  934MOL0     H28861   5.482   9.529   1.937 -0.8418 -2.9266 -0.2269
  934MOL0     H28862   5.349   9.385   1.811 -3.9490  1.6611  0.0592
  934MOL0     H28863   5.423   9.452   1.655  1.0186  2.0920 -0.8582
  934MOL0     H28864   5.321   9.666   1.698 -1.3905  0.8804  1.6641
  934MOL0     H28865   5.205   9.528   1.666 -0.9870 -0.0463 -1.5950
  934MOL0     H28866   5.280   9.624   1.946  0.2048 -0.6797  0.6205
  934MOL0     H28867   5.173   9.492   1.903  0.0804 -2.2630 -4.0378
  934MOL0     H28868   5.002   9.639   1.806  1.0747  0.4210 -1.9718
  934MOL0     H28869   5.113   9.766   1.778  0.8293  0.2292  1.0799
  934MOL0     H28870   5.036   9.853   1.965 -2.4045 -0.5267 -1.4316
  934MOL0     H28871   5.141   9.750   2.051 -1.1996 -0.6930  1.4515
  934MOL0     H28872   5.582   9.733   2.006 -0.7255  1.5977  1.4899
  934MOL0     H28873   5.619   9.945   2.142  3.2777  3.2985 -2.1183
  934MOL0     H28874   5.959  10.127   2.417  1.9774  2.2921  2.0796
  934MOL0     H28875   6.030  10.313   2.542  0.3865 -2.4018 -0.7644
  934MOL0     H28876   7.259  10.415   2.559  1.2263  0.1808 -1.3847
  934MOL0     H28877   7.353  10.265   2.401 -2.7383  2.0082 -0.9607
  934MOL0     H28878   7.551  10.026   2.245 -0.3613 -0.4678  1.4253
  934MOL0     H28879   7.661   9.926   2.074  1.8650  1.3276  4.7166
  934MOL0     H28880   7.412   9.648   1.823 -0.3035 -0.8215  1.1537
  934MOL0     H28881   7.545   9.706   1.725 -0.9079  2.3183  0.7111
  934MOL0     H28882   7.600   9.474   1.684 -0.0905 -0.1846 -0.3930
  934MOL0     H28883   7.478   9.431   1.800  1.3541  0.2921  3.5488
  934MOL0     H28884   7.764   9.505   1.834  2.2756 -2.4235  2.2017
  934MOL0     H28885   7.674   9.473   1.979  1.3898  2.0393 -0.3773
  934MOL0     H28886   7.704   9.284   1.735  0.3335  1.9141  0.8317
  934MOL0     H28887   7.620   9.227   1.866 -1.2852  0.8859 -1.4915
  934MOL0     H28888   8.025   9.126   1.958  0.3340 -0.2954 -2.3124
  934MOL0     H28889   7.367   9.603   2.057  2.8876  0.4609 -4.6988
  934MOL0     H28890   7.223   9.607   2.313 -0.6818 -1.4694 -0.7516
  934MOL0     H28891   7.128   9.752   2.264  1.4603  0.6287  0.0969
  934MOL0     H28892   7.167   9.629   2.152  0.7240  2.6864 -0.8586
  935MOL0     O28893   5.177   7.255   6.444 -0.0638 -0.8430 -0.3568
  935MOL0     C28894   5.261   7.204   6.371 -0.1733 -0.2785  0.4942
  935MOL0     O28895   5.327   7.274   6.274  0.2754  0.1504 -0.0777
  935MOL0     C28896   5.324   7.411   6.267  0.0149 -0.0188 -0.8732
  935MOL0     C28897   5.433   7.484   6.312  0.0499 -0.5853 -0.2378
  935MOL0     C28898   5.433   7.618   6.309 -0.4559 -0.7879 -0.4299
  935MOL0     C28899   5.323   7.691   6.253  0.9332 -0.0276  0.6361
  935MOL0     O28900   5.318   7.831   6.232  0.4449 -0.2127 -0.1453
  935MOL0     C28901   5.419   7.920   6.284 -0.4726  0.6642  0.7300
  935MOL0     C28902   5.405   7.935   6.439  0.2464  0.3232 -0.1634
  935MOL0     C28903   5.430   8.074   6.487  0.3038 -0.5404 -0.2769
  935MOL0     C28904   5.309   8.184   6.482 -0.0601 -0.4005 -0.7124
  935MOL0     C28905   5.338   8.309   6.567 -0.0804 -0.3280 -0.3149
  935MOL0     C28906   5.447   8.393   6.493  0.2949 -0.7622  0.1444
  935MOL0     C28907   5.518   8.498   6.586  0.3918  0.5541  0.0251
  935MOL0     C28908   5.429   8.627   6.596 -0.8383 -0.6411  0.6084
  935MOL0     N28909   5.477   8.703   6.712  0.5932 -0.6657 -0.2559
  935MOL0     C28910   5.604   8.761   6.740  0.6873  0.0543 -0.0476
  935MOL0     C28911   5.602   8.799   6.876  0.7906 -0.0398 -0.1285
  935MOL0     C28912   5.719   8.882   6.933  0.5493  0.0494 -0.0393
  935MOL0     C28913   5.816   8.803   7.016 -1.0660  0.3490 -0.0929
  935MOL0     C28914   5.873   8.678   6.939 -0.1449  0.2793 -0.0273
  935MOL0     C28915   5.995   8.602   6.999  0.0790 -0.9225 -0.1637
  935MOL0     O28916   6.092   8.688   7.064  0.2120 -0.1924  0.4896
  935MOL0     C28917   6.187   8.725   6.978 -0.3881 -0.6598 -0.4742
  935MOL0     C28918   6.292   8.637   6.935  0.8001 -0.0863  0.5442
  935MOL0     C28919   6.397   8.684   6.856 -0.7834  0.4435 -0.1634
  935MOL0     C28920   6.514   8.588   6.814  0.1144 -0.0318 -0.5068
  935MOL0     C28921   6.400   8.818   6.814  0.7583 -0.3413  0.0468
  935MOL0     C28922   6.500   8.881   6.732 -0.1809  0.0042  0.3694
  935MOL0     O28923   6.522   9.013   6.765  0.2249 -0.4121 -0.0521
  935MOL0     C28924   6.601   9.087   6.679  0.4109  0.4384  0.2671
  935MOL0     C28925   6.546   9.138   6.557  0.7666  0.0353  0.0302
  935MOL0     C28926   6.631   9.196   6.464 -0.2408  0.5338 -0.8476
  935MOL0     C28927   6.768   9.208   6.486  0.4461 -0.6457 -0.5505
  935MOL0     O28928   6.843   9.264   6.391  0.2632  0.7189 -0.4538
  935MOL0     C28929   6.988   9.246   6.403 -0.6389 -0.1607  0.2517
  935MOL0     C28930   7.058   9.287   6.274  0.2250  0.1358  0.9276
  935MOL0     C28931   7.005   9.418   6.224 -0.3264 -0.1248  0.1618
  935MOL0     C28932   7.088   9.483   6.116  0.6298  0.9328  0.0691
  935MOL0     C28933   7.049   9.634   6.108  0.2673 -0.3832  0.2409
  935MOL0     C28934   7.086   9.691   5.970 -0.8697  0.4110  0.3775
  935MOL0     C28935   7.239   9.674   5.945 -0.2703  0.2947  0.8951
  935MOL0     C28936   7.294   9.745   5.814 -0.3875  0.6248  0.2113
  935MOL0    Cl28937   7.199   9.670   5.681 -0.2246 -0.2748  0.1610
  935MOL0     C28938   6.812   9.163   6.616 -0.6652 -0.5801  0.1265
  935MOL0     C28939   6.733   9.101   6.706 -0.1064 -0.2312 -0.0134
  935MOL0     O28940   6.550   8.822   6.639 -0.0358 -0.1315 -0.6137
  935MOL0     C28941   6.296   8.902   6.856  0.2752  0.1410 -0.1564
  935MOL0     C28942   6.191   8.848   6.934 -0.0003  0.1236  1.1427
  935MOL0     N28943   5.471   8.767   6.917  0.1689  0.0169 -0.4475
  935MOL0     N28944   5.408   8.703   6.831 -0.3617 -0.0905 -0.1359
  935MOL0     C28945   5.208   7.615   6.214  0.5288 -1.1128  0.4787
  935MOL0     C28946   5.209   7.476   6.224  0.0297 -0.6173  0.7989
  935MOL0     C28947   5.280   7.063   6.398  0.0762  0.7762 -0.2055
  935MOL0     C28948   5.415   7.009   6.394  0.4900 -0.3014  0.6106
  935MOL0     C28949   5.444   6.870   6.411  0.0531  0.2249  0.5880
  935MOL0     C28950   5.337   6.776   6.428  0.3625 -0.7788 -0.3281
  935MOL0     O28951   5.360   6.643   6.436  0.3165  0.3091  0.0423
  935MOL0     C28952   5.482   6.587   6.373 -0.3591 -0.0365 -1.0949
  935MOL0     C28953   5.478   6.587   6.224  0.5960 -0.1287 -0.5091
  935MOL0     C28954   5.391   6.474   6.162 -0.1414 -0.5809  0.7971
  935MOL0     C28955   5.407   6.462   6.011  0.7388 -0.9548 -0.0578
  935MOL0     C28956   5.301   6.382   5.947 -0.4891  0.4589 -0.0103
  935MOL0     C28957   5.205   6.322   5.901 -0.0787 -0.0994  0.8205
  935MOL0     C28958   5.205   6.826   6.422  0.0118  0.2414  0.6788
  935MOL0     C28959   5.178   6.965   6.399  0.5163 -0.9860 -0.3033
  935MOL0     C28960   5.030   6.992   6.356  0.7056 -0.4265 -0.4176
  935MOL0     H28961   5.524   7.436   6.347  1.7985  1.4582 -1.6911
  935MOL0     H28962   5.523   7.666   6.345 -1.2015  2.4186 -2.3542
  935MOL0     H28963   5.395   8.018   6.242 -1.6429  1.0083  2.0921
  935MOL0     H28964   5.524   7.909   6.255  0.9259  4.0445  3.6673
  935MOL0     H28965   5.305   7.900   6.467  0.2381  0.6221  0.1920
  935MOL0     H28966   5.471   7.860   6.483  0.9701  0.4534 -1.0160
  935MOL0     H28967   5.448   8.062   6.594 -0.3578 -2.3650 -0.3357
  935MOL0     H28968   5.519   8.110   6.434 -0.0032 -1.1629 -1.2520
  935MOL0     H28969   5.289   8.215   6.380 -4.1512 -1.5889 -0.4300
  935MOL0     H28970   5.220   8.137   6.525 -0.7192 -1.2991 -2.9422
  935MOL0     H28971   5.378   8.277   6.663 -0.2940 -1.3766 -0.5643
  935MOL0     H28972   5.247   8.365   6.591  1.2628  1.8579 -0.0412
  935MOL0     H28973   5.524   8.323   6.457  2.6328 -0.3637  3.9077
  935MOL0     H28974   5.406   8.446   6.406 -2.1929 -0.0307  1.6489
  935MOL0     H28975   5.611   8.531   6.539  1.1634  2.8810  2.9102
  935MOL0     H28976   5.532   8.449   6.683  0.7481  1.3966  0.4096
  935MOL0     H28977   5.445   8.698   6.515  0.9320  0.9394  2.2435
  935MOL0     H28978   5.328   8.598   6.627 -0.7222  2.2932  4.4686
  935MOL0     H28979   5.693   8.767   6.679  1.0140  2.9124  0.5680
  935MOL0     H28980   5.693   8.968   6.996 -0.3820 -1.9258  2.4483
  935MOL0     H28981   5.780   8.915   6.849  0.9228 -0.8124 -0.1102
  935MOL0     H28982   5.898   8.873   7.032  0.5611 -1.5059  0.1463
  935MOL0     H28983   5.758   8.784   7.107  1.8831  0.9209  2.0576
  935MOL0     H28984   5.798   8.600   6.924  3.4592 -3.1142 -2.5531
  935MOL0     H28985   5.893   8.700   6.833 -2.0828 -2.8341 -1.1703
  935MOL0     H28986   5.960   8.519   7.060 -3.2671 -0.1192 -0.7784
  935MOL0     H28987   6.047   8.563   6.911  0.1135 -0.5673 -0.3043
  935MOL0     H28988   6.281   8.535   6.970  1.0943  0.1848  1.4495
  935MOL0     H28989   6.607   8.645   6.827 -1.6431  3.1040 -0.8022
  935MOL0     H28990   6.507   8.561   6.708 -0.1485 -1.3564 -0.1602
  935MOL0     H28991   6.505   8.496   6.871  1.7555  0.5272  0.7319
  935MOL0     H28992   6.441   9.135   6.531  0.6134 -0.0716  0.6315
  935MOL0     H28993   6.589   9.224   6.368 -2.2462  1.9871  0.3913
  935MOL0     H28994   7.039   9.298   6.485  3.2377 -0.6209 -1.6104
  935MOL0     H28995   7.006   9.143   6.435  0.2466  0.8342  3.2722
  935MOL0     H28996   7.165   9.288   6.296  0.7790 -3.0651 -0.9653
  935MOL0     H28997   7.057   9.201   6.206  0.7582  0.5559  0.3837
  935MOL0     H28998   6.991   9.486   6.308 -0.4645  0.6669 -0.4945
  935MOL0     H28999   6.907   9.408   6.178  0.2153  2.4796 -1.7995
  935MOL0     H29000   7.068   9.435   6.020 -0.3536 -0.2029  0.8150
  935MOL0     H29001   7.194   9.472   6.141  0.7282  1.9170  0.1085
  935MOL0     H29002   6.943   9.648   6.128  0.7999  0.3339  2.8741
  935MOL0     H29003   7.100   9.690   6.186  1.9476 -0.1637 -0.9513
  935MOL0     H29004   7.068   9.798   5.957 -0.4517  0.1889 -3.1969
  935MOL0     H29005   7.032   9.637   5.892 -1.1306 -0.8105  1.3805
  935MOL0     H29006   7.265   9.568   5.943 -0.5467  0.2444 -0.5945
  935MOL0     H29007   7.289   9.718   6.032  1.0647 -0.8044  0.7081
  935MOL0     H29008   7.399   9.725   5.792  0.1173  1.3410  1.8471
  935MOL0     H29009   7.293   9.854   5.820 -1.3322  0.9680 -3.7262
  935MOL0     H29010   6.918   9.171   6.640 -0.4761  3.2357 -1.2547
  935MOL0     H29011   6.780   9.032   6.776  3.4290  0.0027 -1.8783
  935MOL0     H29012   6.285   9.007   6.829 -2.0532 -0.4993 -1.9752
  935MOL0     H29013   6.113   8.915   6.970  3.2873  3.4698  2.7285
  935MOL0     H29014   5.120   7.669   6.181  1.2999  0.2486  0.5580
  935MOL0     H29015   5.127   7.416   6.183  0.1205  0.7999 -1.6183
  935MOL0     H29016   5.499   7.075   6.373  0.1064 -0.5437 -1.9201
  935MOL0     H29017   5.551   6.848   6.410  0.7511  2.8454 -3.1682
  935MOL0     H29018   5.575   6.633   6.409 -1.0741  1.2590 -0.8299
  935MOL0     H29019   5.495   6.484   6.406  3.1353  0.0051 -1.9722
  935MOL0     H29020   5.579   6.581   6.182 -0.6781 -3.7932 -3.5118
  935MOL0     H29021   5.439   6.683   6.188 -2.0172 -1.3568 -1.1304
  935MOL0     H29022   5.427   6.379   6.204  1.3385  0.1184  1.1927
  935MOL0     H29023   5.286   6.479   6.191 -0.2629 -2.3357  0.7600
  935MOL0     H29024   5.508   6.433   5.981  1.6867  3.4736 -2.0883
  935MOL0     H29025   5.392   6.560   5.963  0.4227 -0.4358  1.0662
  935MOL0     H29026   5.118   6.264   5.879 -0.2224 -0.1842  1.5627
  935MOL0     H29027   5.116   6.765   6.422  1.8601 -2.6533  0.3155
  935MOL0     H29028   5.025   7.021   6.251 -0.2647  1.5933  0.1343
  935MOL0     H29029   4.958   6.911   6.360  1.8919 -1.4781  1.0815
  935MOL0     H29030   5.001   7.077   6.419  0.5212  1.0642 -2.3926
  936MOL0     O29031   6.120   4.141   4.160 -0.8323  0.1788  0.3552
  936MOL0     C29032   6.146   4.127   4.278 -0.7386 -0.1871 -0.2929
  936MOL0     O29033   6.252   4.197   4.344  0.5857 -0.3457 -0.2523
  936MOL0     C29034   6.324   4.277   4.256 -1.0415 -0.0395  0.2138
  936MOL0     C29035   6.266   4.398   4.219 -0.0614 -0.2831 -1.7746
  936MOL0     C29036   6.310   4.475   4.114 -0.2214 -0.5199  0.0402
  936MOL0     C29037   6.435   4.452   4.061  0.0761  0.1000 -0.0909
  936MOL0     O29038   6.467   4.545   3.966 -0.0880 -0.0470  0.4538
  936MOL0     C29039   6.602   4.581   3.945  0.6992 -0.2677 -0.9888
  936MOL0     C29040   6.627   4.682   3.835 -0.1340  0.2908 -0.1788
  936MOL0     C29041   6.589   4.616   3.707 -0.2884  0.2835  0.9819
  936MOL0     C29042   6.620   4.705   3.585  1.1388 -0.1999  0.6699
  936MOL0     C29043   6.571   4.855   3.577  0.1438 -1.3885 -0.2215
  936MOL0     C29044   6.574   4.894   3.425 -0.2095  0.4661  0.2116
  936MOL0     C29045   6.721   4.938   3.378 -1.1436  0.9463 -0.2747
  936MOL0     C29046   6.791   5.027   3.467  0.2971 -0.3023  0.5177
  936MOL0     N29047   6.917   5.080   3.414 -0.4617  0.3843  1.0225
  936MOL0     C29048   6.953   5.112   3.280  0.5071  0.0918 -0.1524
  936MOL0     C29049   7.069   5.169   3.283 -0.7742 -0.1654 -0.2063
  936MOL0     C29050   7.132   5.222   3.152 -0.5207  0.1902 -0.0362
  936MOL0     C29051   7.204   5.107   3.079  0.1718 -0.3313 -0.7617
  936MOL0     C29052   7.274   5.149   2.947  0.5407 -1.1873 -0.4531
  936MOL0     C29053   7.344   5.049   2.869  0.0795 -0.2765 -0.2849
  936MOL0     O29054   7.449   5.003   2.945  0.1736  0.4525 -0.0687
  936MOL0     C29055   7.533   4.900   2.905  0.0981 -0.2324  0.2894
  936MOL0     C29056   7.621   4.862   3.000 -0.2150  0.5738 -0.6389
  936MOL0     C29057   7.718   4.763   2.974  0.9669 -0.1715 -0.4444
  936MOL0     C29058   7.795   4.725   3.095 -0.5010 -0.8448  0.7354
  936MOL0     C29059   7.718   4.689   2.847  0.8098 -0.0300 -0.3805
  936MOL0     C29060   7.794   4.569   2.818 -0.0178  0.3245  0.4999
  936MOL0     O29061   7.802   4.520   2.680 -0.4045  0.1550 -0.2722
  936MOL0     C29062   7.872   4.401   2.665 -0.1241  0.1505  0.8020
  936MOL0     C29063   7.817   4.292   2.596 -0.3162 -0.0102  0.9745
  936MOL0     C29064   7.884   4.165   2.585  0.3869 -0.4705  0.0136
  936MOL0     C29065   7.999   4.140   2.662 -0.4468  0.2596 -0.7307
  936MOL0     O29066   8.069   4.022   2.651  0.1475 -1.0011 -0.4646
  936MOL0     C29067   8.055   3.957   2.526 -0.7527  0.1121 -0.0803
  936MOL0     C29068   8.178   3.868   2.498 -0.8224 -0.1783  0.3456
  936MOL0     C29069   8.245   3.796   2.622  0.2309  0.0223  0.3807
  936MOL0     C29070   8.352   3.691   2.597 -0.2084  0.1413  0.0644
  936MOL0     C29071   8.446   3.660   2.716  0.0804  1.1682  0.4570
  936MOL0     C29072   8.531   3.529   2.685  0.8028  0.5856 -0.7005
  936MOL0     C29073   8.596   3.485   2.812  0.3534 -0.2808 -0.9070
  936MOL0     C29074   8.729   3.412   2.785  0.1465 -0.5038  0.4506
  936MOL0    Cl29075   8.804   3.374   2.942  0.5986  0.4990  0.0245
  936MOL0     C29076   8.058   4.249   2.729  0.0801  0.6075 -0.2754
  936MOL0     C29077   7.996   4.374   2.730  0.2795 -0.0705  0.0972
  936MOL0     O29078   7.834   4.511   2.912 -0.2384 -0.5305  0.2479
  936MOL0     C29079   7.620   4.730   2.751 -0.0472  0.0178  0.6963
  936MOL0     C29080   7.528   4.831   2.777  0.2204 -0.8762 -0.1313
  936MOL0     N29081   7.097   5.193   3.419  0.4186  0.9631  0.4740
  936MOL0     N29082   7.021   5.114   3.493  0.1821 -0.5773  0.9188
  936MOL0     C29083   6.502   4.333   4.086 -0.1784  0.5083 -1.3052
  936MOL0     C29084   6.434   4.247   4.177 -0.3557  0.4392  0.1355
  936MOL0     C29085   6.038   4.059   4.363  0.5178  0.2750 -0.2962
  936MOL0     C29086   5.993   3.930   4.328 -0.8310  0.2152  0.3055
  936MOL0     C29087   5.906   3.860   4.397 -0.5639  0.7534 -0.5843
  936MOL0     C29088   5.870   3.905   4.523 -0.0326  0.1669  0.0897
  936MOL0     O29089   5.784   3.828   4.595 -0.3316 -0.1721 -0.1741
  936MOL0     C29090   5.815   3.815   4.740 -0.1270 -0.5379  0.8975
  936MOL0     C29091   5.759   3.690   4.807  0.0485 -0.4733 -0.1774
  936MOL0     C29092   5.856   3.571   4.787 -0.3848  0.1244  0.6526
  936MOL0     C29093   5.903   3.548   4.638 -0.1796 -0.5934 -0.2354
  936MOL0     C29094   5.779   3.534   4.549  0.0563 -0.4868  0.0901
  936MOL0     C29095   5.672   3.535   4.491  0.7188  0.1763  0.1765
  936MOL0     C29096   5.913   4.029   4.575 -0.5162 -0.7759  0.2454
  936MOL0     C29097   5.992   4.106   4.487 -1.4459 -0.3418 -0.4854
  936MOL0     C29098   6.018   4.259   4.531 -0.6304  1.6596 -0.4379
  936MOL0     H29099   6.180   4.427   4.278 -0.0260 -0.7184 -1.5032
  936MOL0     H29100   6.254   4.563   4.087  1.1970  1.0579  1.9587
  936MOL0     H29101   6.664   4.493   3.926  3.8122  1.1705  1.4637
  936MOL0     H29102   6.640   4.633   4.033 -1.8714  0.7501 -0.3966
  936MOL0     H29103   6.558   4.766   3.852 -0.9472 -0.5464  0.8198
  936MOL0     H29104   6.732   4.713   3.834  0.5598 -1.7087 -3.5236
  936MOL0     H29105   6.631   4.516   3.692  1.4342  1.1663 -0.5173
  936MOL0     H29106   6.482   4.594   3.712 -0.4941  1.3626  1.7594
  936MOL0     H29107   6.727   4.690   3.564  0.5501 -1.8682 -1.5321
  936MOL0     H29108   6.585   4.653   3.495  0.0692 -1.0621  1.5572
  936MOL0     H29109   6.640   4.915   3.636  0.6228 -0.3590 -1.7627
  936MOL0     H29110   6.472   4.867   3.621  0.3409  1.0026 -0.3284
  936MOL0     H29111   6.534   4.817   3.358  2.7649 -0.9225 -0.1255
  936MOL0     H29112   6.515   4.985   3.412 -0.0646  0.2972 -2.1656
  936MOL0     H29113   6.713   4.979   3.277  1.2600 -2.3699 -2.0136
  936MOL0     H29114   6.783   4.849   3.363  1.1474  2.2431  0.9439
  936MOL0     H29115   6.720   5.109   3.481 -2.1749 -2.1577 -0.4265
  936MOL0     H29116   6.804   4.966   3.556 -3.1758  0.9567  2.0879
  936MOL0     H29117   6.882   5.102   3.199 -0.4747  1.9695  0.4204
  936MOL0     H29118   7.205   5.301   3.171 -0.7227  0.4334 -0.2618
  936MOL0     H29119   7.064   5.271   3.081  0.9618 -1.2245 -2.5932
  936MOL0     H29120   7.280   5.062   3.144 -0.1407  2.4240  1.7351
  936MOL0     H29121   7.134   5.027   3.054  0.3475  0.0536 -2.6346
  936MOL0     H29122   7.199   5.201   2.886 -0.3124 -2.2206 -0.3072
  936MOL0     H29123   7.342   5.232   2.969  2.2641 -1.8909 -2.7406
  936MOL0     H29124   7.274   4.967   2.852 -1.8968  1.2268  0.1946
  936MOL0     H29125   7.389   5.097   2.782  1.9512  0.0723  0.8237
  936MOL0     H29126   7.619   4.927   3.087  0.2815  2.3428 -1.9042
  936MOL0     H29127   7.762   4.625   3.126 -2.8355 -1.0392 -1.9767
  936MOL0     H29128   7.789   4.793   3.180  3.8423  2.1712 -0.9878
  936MOL0     H29129   7.903   4.728   3.073  0.1977 -3.2866  3.2415
  936MOL0     H29130   7.716   4.292   2.557  0.2032  2.0244 -0.5133
  936MOL0     H29131   7.829   4.087   2.533  0.1423 -0.3107  0.0273
  936MOL0     H29132   7.965   3.894   2.523  0.2006 -1.9802  4.8709
  936MOL0     H29133   8.040   4.028   2.445 -3.9734  0.9315  1.0790
  936MOL0     H29134   8.143   3.783   2.438 -1.1322 -1.8843  2.7909
  936MOL0     H29135   8.251   3.918   2.434  1.8135 -3.1953  0.7064
  936MOL0     H29136   8.173   3.747   2.688  0.4447 -1.4962 -0.4808
  936MOL0     H29137   8.287   3.883   2.675 -1.7568  0.3552  1.5190
  936MOL0     H29138   8.414   3.730   2.516 -1.7624  0.5434 -0.9969
  936MOL0     H29139   8.316   3.598   2.551  1.6841 -0.4078 -0.3889
  936MOL0     H29140   8.502   3.748   2.746 -0.1140  1.6903 -0.6509
  936MOL0     H29141   8.382   3.625   2.798  0.2507 -1.0708 -0.2988
  936MOL0     H29142   8.608   3.540   2.607  3.3188 -1.3496  1.3285
  936MOL0     H29143   8.458   3.449   2.674  1.6410 -0.5795  1.5719
  936MOL0     H29144   8.532   3.412   2.864 -0.7797 -1.1152 -3.3545
  936MOL0     H29145   8.608   3.571   2.879 -0.8608 -0.7437 -0.0520
  936MOL0     H29146   8.815   3.458   2.735 -0.8595  0.6217 -0.2902
  936MOL0     H29147   8.706   3.316   2.738  0.2099 -0.3977  0.2010
  936MOL0     H29148   8.153   4.246   2.780  0.3017  1.8667 -0.5744
  936MOL0     H29149   8.030   4.462   2.784  1.0266 -1.4168  1.8976
  936MOL0     H29150   7.599   4.666   2.666  1.9324  2.6721 -2.0328
  936MOL0     H29151   7.468   4.863   2.693  1.6366  0.9932 -0.4902
  936MOL0     H29152   6.603   4.318   4.047  0.3257 -0.6252  0.3268
  936MOL0     H29153   6.476   4.150   4.205 -2.0847 -0.9404 -1.7079
  936MOL0     H29154   6.019   3.893   4.230  0.5273  0.5672  0.5145
  936MOL0     H29155   5.882   3.760   4.365  0.9418  0.3142 -0.4011
  936MOL0     H29156   5.922   3.836   4.747  0.0331  1.1039 -3.3544
  936MOL0     H29157   5.769   3.900   4.792 -0.0723  2.3715 -3.2911
  936MOL0     H29158   5.654   3.671   4.783  0.0812  0.1333 -0.8442
  936MOL0     H29159   5.749   3.707   4.915  3.0421 -1.6426  0.3951
  936MOL0     H29160   5.950   3.582   4.841  1.7366 -2.6368 -2.0489
  936MOL0     H29161   5.812   3.477   4.823  1.5655 -1.1806 -0.1834
  936MOL0     H29162   5.955   3.452   4.647 -0.4446 -0.7382 -0.2417
  936MOL0     H29163   5.965   3.631   4.603 -0.7182  0.2592  0.7678
  936MOL0     H29164   5.580   3.531   4.437  1.9454 -1.8583 -1.9502
  936MOL0     H29165   5.887   4.066   4.673  3.6268 -0.4253  1.3894
  936MOL0     H29166   5.960   4.284   4.620 -0.4575 -1.5198  0.6836
  936MOL0     H29167   6.122   4.279   4.561 -0.9853  0.3509  1.9590
  936MOL0     H29168   5.989   4.321   4.446 -0.2215  0.5180 -1.4221
  937MOL0     O29169   0.305   7.103   0.738  0.1075 -0.0528  0.9173
  937MOL0     C29170   0.332   7.223   0.740 -1.2116  0.6018  0.4460
  937MOL0     O29171   0.366   7.292   0.853 -0.2350 -0.1361  0.2478
  937MOL0     C29172   0.429   7.237   0.958 -0.3621  1.0557 -0.1016
  937MOL0     C29173   0.421   7.301   1.078 -0.3452 -0.2326  0.7186
  937MOL0     C29174   0.474   7.239   1.185  0.5208 -0.4967 -0.6441
  937MOL0     C29175   0.545   7.110   1.183 -0.4132 -0.5067  0.1108
  937MOL0     O29176   0.587   7.040   1.283 -0.4060  0.1455  0.3948
  937MOL0     C29177   0.581   7.103   1.413  0.1037  0.2729  0.7958
  937MOL0     C29178   0.592   7.002   1.527  0.2742 -0.2368  0.1146
  937MOL0     C29179   0.729   6.933   1.536 -1.1186  0.3068  0.6076
  937MOL0     C29180   0.704   6.790   1.598 -0.0764  0.4064 -0.8395
  937MOL0     C29181   0.683   6.787   1.750  0.2670 -0.2275 -0.1621
  937MOL0     C29182   0.604   6.666   1.810 -0.8399 -0.0790  0.2387
  937MOL0     C29183   0.584   6.668   1.962 -0.5132 -0.2915 -0.7282
  937MOL0     C29184   0.538   6.538   2.014  0.3024 -1.0941  1.1583
  937MOL0     N29185   0.561   6.540   2.152 -0.4424 -0.2656  0.1913
  937MOL0     C29186   0.473   6.577   2.249 -0.3385 -0.1355 -1.3596
  937MOL0     C29187   0.528   6.544   2.367 -0.2102 -0.3300 -1.1160
  937MOL0     C29188   0.455   6.554   2.496  0.1595 -0.5928  0.5418
  937MOL0     C29189   0.313   6.503   2.484  0.3627 -0.2988  0.2810
  937MOL0     C29190   0.305   6.351   2.462 -0.4162  0.0325  0.8394
  937MOL0     C29191   0.349   6.265   2.581 -1.0212 -0.2940  0.5538
  937MOL0     O29192   0.292   6.334   2.696 -1.4045  0.7903 -0.0675
  937MOL0     C29193   0.164   6.301   2.745  0.2362  0.6490 -0.4244
  937MOL0     C29194   0.117   6.384   2.853 -0.9640 -0.1576  0.1910
  937MOL0     C29195  -0.006   6.365   2.903  0.1525 -0.7000  0.7559
  937MOL0     C29196  -0.054   6.470   3.012 -0.3313  0.6712  0.5668
  937MOL0     C29197  -0.091   6.267   2.852  0.4211  0.2941  0.6264
  937MOL0     C29198  -0.240   6.266   2.879 -0.3019 -0.1462  0.8780
  937MOL0     O29199  -0.325   6.209   2.791  0.6639  0.4067 -0.4146
  937MOL0     C29200  -0.451   6.167   2.832  0.7002  0.7546  0.1956
  937MOL0     C29201  -0.548   6.246   2.885 -0.0893  0.1574  0.6268
  937MOL0     C29202  -0.674   6.194   2.933  1.4104  0.3641  0.7988
  937MOL0     C29203  -0.698   6.058   2.939 -1.4426  0.0352 -0.1316
  937MOL0     O29204  -0.804   5.993   2.989 -0.4282 -0.2169 -0.6680
  937MOL0     C29205  -0.917   6.070   3.013 -0.4102  0.4404  0.0178
  937MOL0     C29206  -1.030   5.964   3.038 -0.4254  0.5441  0.3222
  937MOL0     C29207  -1.007   5.879   3.170  0.1230 -0.4424 -0.8900
  937MOL0     C29208  -0.918   5.761   3.153  0.4052  0.1224 -0.2979
  937MOL0     C29209  -0.950   5.637   3.245  0.1546 -0.5666  0.6050
  937MOL0     C29210  -0.847   5.516   3.219 -0.2870 -0.4010  0.0021
  937MOL0     C29211  -0.831   5.489   3.068 -0.2587 -0.3448  0.5358
  937MOL0     C29212  -0.745   5.361   3.041  0.4325  0.1681 -1.0084
  937MOL0    Cl29213  -0.597   5.360   3.145  0.4084  0.2379 -0.3507
  937MOL0     C29214  -0.599   5.976   2.875  0.1992 -0.4898 -0.2494
  937MOL0     C29215  -0.483   6.029   2.813 -0.0209 -0.5480 -0.1272
  937MOL0     O29216  -0.274   6.324   2.979 -0.0127 -0.1211 -0.0481
  937MOL0     C29217  -0.043   6.178   2.759  0.3092 -0.7021  1.0845
  937MOL0     C29218   0.077   6.198   2.696 -0.9192  0.3826  1.0033
  937MOL0     N29219   0.648   6.474   2.348  0.5827 -0.4624  0.7819
  937MOL0     N29220   0.660   6.466   2.218  0.2155 -0.7392  0.2344
  937MOL0     C29221   0.568   7.060   1.057  0.1936 -0.1555 -0.0628
  937MOL0     C29222   0.505   7.108   0.950  0.1033  0.0715 -0.4515
  937MOL0     C29223   0.322   7.313   0.611  0.7238  0.0105  0.5761
  937MOL0     C29224   0.268   7.440   0.634 -0.0125 -0.5139  0.1848
  937MOL0     C29225   0.255   7.528   0.522  0.5556  1.3518 -0.5399
  937MOL0     C29226   0.290   7.497   0.386  0.1995 -0.3700 -0.1424
  937MOL0     O29227   0.261   7.581   0.282  0.3316  0.1378  0.3931
  937MOL0     C29228   0.306   7.723   0.288 -0.7697 -0.0456  0.3659
  937MOL0     C29229   0.238   7.829   0.193  0.1078  0.3636  0.2017
  937MOL0     C29230   0.112   7.891   0.263 -0.1116 -0.3020  0.2709
  937MOL0     C29231  -0.008   7.786   0.264  0.2284 -0.2046 -0.3160
  937MOL0     C29232  -0.036   7.742   0.400 -0.4874 -0.0983 -0.9477
  937MOL0     C29233  -0.076   7.691   0.507  0.0066 -0.1656  0.1292
  937MOL0     C29234   0.342   7.371   0.374  0.2818 -0.0770  0.1031
  937MOL0     C29235   0.363   7.282   0.479  0.9426  0.3152  0.5525
  937MOL0     C29236   0.425   7.145   0.456  0.9335 -0.1334 -0.4933
  937MOL0     H29237   0.370   7.395   1.093 -0.2785 -0.6196  4.7001
  937MOL0     H29238   0.467   7.299   1.276 -1.2919 -1.1341 -0.3208
  937MOL0     H29239   0.478   7.137   1.427 -0.7994 -2.0024  0.1279
  937MOL0     H29240   0.658   7.181   1.411  2.0211 -1.5119 -1.7340
  937MOL0     H29241   0.581   7.056   1.621 -2.4028  0.3515 -0.4513
  937MOL0     H29242   0.506   6.935   1.533 -1.3411  1.8038  5.1950
  937MOL0     H29243   0.787   6.927   1.443  1.7190  3.0034  2.0118
  937MOL0     H29244   0.797   6.998   1.591  0.0188 -0.4812  0.1811
  937MOL0     H29245   0.612   6.753   1.551  1.7465 -2.2166 -2.6363
  937MOL0     H29246   0.788   6.721   1.583  2.2191  2.2806  2.2103
  937MOL0     H29247   0.628   6.878   1.774 -4.2263 -1.4534 -4.0973
  937MOL0     H29248   0.780   6.778   1.800  0.5925 -1.5318 -0.9553
  937MOL0     H29249   0.500   6.655   1.777 -1.4962  1.0891  1.8355
  937MOL0     H29250   0.665   6.580   1.780 -1.5710 -0.5648  0.0944
  937MOL0     H29251   0.520   6.750   1.996  2.5859  2.0098  0.0542
  937MOL0     H29252   0.682   6.681   2.008 -0.2391 -0.1129 -1.3552
  937MOL0     H29253   0.434   6.517   1.987  0.5563 -2.7834  1.4044
  937MOL0     H29254   0.600   6.457   1.973  2.6708  2.6968 -3.9446
  937MOL0     H29255   0.374   6.617   2.233 -0.0822  0.4044 -1.6274
  937MOL0     H29256   0.436   6.659   2.523  3.1435  0.2958 -0.4701
  937MOL0     H29257   0.511   6.508   2.578  4.3271  0.2262 -1.5641
  937MOL0     H29258   0.260   6.552   2.566  1.3439 -1.3533  1.5896
  937MOL0     H29259   0.252   6.540   2.400  0.3316 -0.5788  0.1779
  937MOL0     H29260   0.200   6.328   2.445 -0.2814  0.0875 -0.1092
  937MOL0     H29261   0.348   6.323   2.365 -0.0262  0.8206  0.7731
  937MOL0     H29262   0.309   6.163   2.587 -1.3312 -0.2330 -0.3543
  937MOL0     H29263   0.457   6.250   2.589 -1.0169 -0.3266  0.4387
  937MOL0     H29264   0.178   6.465   2.892 -2.4854  0.8468  0.5714
  937MOL0     H29265  -0.139   6.518   2.963 -0.4006  0.6694  0.6853
  937MOL0     H29266   0.023   6.546   3.031  0.0830  1.4846 -3.5248
  937MOL0     H29267  -0.085   6.409   3.098 -0.4098 -1.0491 -0.6336
  937MOL0     H29268  -0.523   6.351   2.897 -0.9480  0.3486  0.7994
  937MOL0     H29269  -0.740   6.272   2.970 -1.8998 -0.7740 -2.2241
  937MOL0     H29270  -0.901   6.134   3.100 -3.5785 -1.9126  2.6378
  937MOL0     H29271  -0.942   6.137   2.930 -1.3570  2.2842  1.6977
  937MOL0     H29272  -1.124   6.019   3.052 -2.1975 -1.9805 -0.8899
  937MOL0     H29273  -1.046   5.906   2.947 -1.5732  0.9870  0.2131
  937MOL0     H29274  -1.103   5.859   3.218  0.0633  0.4226 -0.6298
  937MOL0     H29275  -0.943   5.925   3.246 -0.1539 -3.1427  1.1429
  937MOL0     H29276  -0.814   5.793   3.146 -0.4035  3.1373 -0.0384
  937MOL0     H29277  -0.946   5.725   3.054  1.4847  0.0638 -0.5917
  937MOL0     H29278  -0.948   5.664   3.352  1.5170  1.7432  0.0811
  937MOL0     H29279  -1.048   5.605   3.209  0.7049 -1.6932  0.0808
  937MOL0     H29280  -0.876   5.424   3.270 -0.8110 -0.4117 -0.3093
  937MOL0     H29281  -0.749   5.552   3.251 -0.7706  0.5612  0.4436
  937MOL0     H29282  -0.772   5.570   3.023  1.1929 -0.8015  1.5632
  937MOL0     H29283  -0.927   5.485   3.016  0.3475 -1.0687 -0.5579
  937MOL0     H29284  -0.712   5.347   2.937  0.7122 -2.1280 -0.6767
  937MOL0     H29285  -0.802   5.268   3.046 -1.2987  1.2251 -0.2449
  937MOL0     H29286  -0.602   5.868   2.866 -1.1865 -0.5606  0.7682
  937MOL0     H29287  -0.413   5.961   2.765  2.0794  2.2422 -1.2778
  937MOL0     H29288  -0.096   6.086   2.733 -2.0817  1.0869 -0.9355
  937MOL0     H29289   0.120   6.128   2.625 -0.3336  0.5012  1.2392
  937MOL0     H29290   0.625   6.968   1.051  1.0150  0.4339 -1.7009
  937MOL0     H29291   0.519   7.071   0.849  0.6106  0.8651 -0.6788
  937MOL0     H29292   0.231   7.480   0.728  1.7479  2.4151 -0.2392
  937MOL0     H29293   0.207   7.623   0.545  1.1831  2.5822 -3.7863
  937MOL0     H29294   0.306   7.761   0.391 -1.8174 -1.3623  0.8802
  937MOL0     H29295   0.412   7.721   0.263 -0.2184  0.7065  2.3887
  937MOL0     H29296   0.190   7.771   0.113 -2.0073  0.2184  1.4807
  937MOL0     H29297   0.316   7.898   0.161  3.0461 -2.6485  0.3187
  937MOL0     H29298   0.130   7.933   0.362  2.6202 -1.8014  0.5079
  937MOL0     H29299   0.084   7.972   0.195  1.8473  0.2469  0.0548
  937MOL0     H29300   0.024   7.694   0.214 -2.0018 -1.2411  0.0311
  937MOL0     H29301  -0.099   7.833   0.226  0.8332  0.8454 -0.5030
  937MOL0     H29302  -0.099   7.652   0.604  0.0982  1.5347  0.8701
  937MOL0     H29303   0.365   7.344   0.272 -2.0743  1.0440 -0.7808
  937MOL0     H29304   0.458   7.147   0.351  1.1979 -0.1237 -0.4109
  937MOL0     H29305   0.518   7.146   0.513  0.0949 -1.0575  0.9352
  937MOL0     H29306   0.359   7.062   0.480  0.1936  0.4447 -0.4985
  938MOL0     O29307   2.672  11.199   4.061 -0.5307  0.3772  0.5017
  938MOL0     C29308   2.581  11.128   4.104  0.0220 -0.2447  0.1687
  938MOL0     O29309   2.592  11.007   4.166 -0.4767  0.0026  0.7639
  938MOL0     C29310   2.717  10.937   4.147 -0.3590 -0.1930  0.6842
  938MOL0     C29311   2.709  10.797   4.141  0.1519  0.5777 -0.4129
  938MOL0     C29312   2.817  10.714   4.133 -0.0762  0.2859 -0.6067
  938MOL0     C29313   2.941  10.770   4.120 -0.0168 -0.2611  0.1111
  938MOL0     O29314   3.058  10.701   4.080  0.4434  0.7824  0.4547
  938MOL0     C29315   3.061  10.561   4.097  0.1555 -0.5051 -0.1006
  938MOL0     C29316   3.058  10.487   3.958  0.6791  0.3314  0.6456
  938MOL0     C29317   3.031  10.337   3.977  0.3204  1.1253  0.4207
  938MOL0     C29318   2.972  10.276   3.846  0.2695 -0.3394  0.0467
  938MOL0     C29319   2.951  10.115   3.845  0.1184  0.0075  0.1056
  938MOL0     C29320   2.832  10.081   3.937  0.2693  0.2921  0.6066
  938MOL0     C29321   2.696  10.105   3.869 -0.0355  0.5157 -0.1786
  938MOL0     C29322   2.583  10.140   3.960 -0.4695  1.3789  0.3801
  938MOL0     N29323   2.581  10.052   4.080  0.3511  0.6070  0.5106
  938MOL0     C29324   2.568   9.913   4.070  0.6672  0.6119 -0.4779
  938MOL0     C29325   2.570   9.867   4.196 -0.0407 -0.2066  0.5678
  938MOL0     C29326   2.546   9.727   4.241 -0.8381  0.4975 -0.2982
  938MOL0     C29327   2.468   9.696   4.371 -0.0455 -0.9524 -0.0934
  938MOL0     C29328   2.552   9.719   4.494 -0.1676 -0.1625 -0.2182
  938MOL0     C29329   2.490   9.653   4.619  0.6559 -0.3333 -0.6993
  938MOL0     O29330   2.501   9.516   4.612 -0.0008  0.9537 -0.2121
  938MOL0     C29331   2.407   9.452   4.694 -1.4570  0.0691  0.0801
  938MOL0     C29332   2.394   9.319   4.676 -0.4455  0.5743 -0.3660
  938MOL0     C29333   2.303   9.250   4.760  0.2913  0.3253  0.4231
  938MOL0     C29334   2.318   9.096   4.731  0.0842 -0.7532  0.6042
  938MOL0     C29335   2.227   9.301   4.871  0.3966  0.9503  0.6583
  938MOL0     C29336   2.116   9.235   4.953 -1.3335 -0.7182 -0.1600
  938MOL0     O29337   2.066   9.108   4.921  0.2192 -0.1382 -0.5352
  938MOL0     C29338   1.947   9.048   4.951 -0.3797  0.2657 -0.2317
  938MOL0     C29339   1.861   9.106   5.043  0.0522  0.2750  0.1760
  938MOL0     C29340   1.742   9.040   5.083  0.8432  0.6120 -0.7014
  938MOL0     C29341   1.713   8.913   5.024  0.7141 -0.6310  0.5852
  938MOL0     O29342   1.597   8.861   5.064  0.3233  0.3132 -0.4133
  938MOL0     C29343   1.617   8.724   5.127 -0.1852  0.1172 -0.1866
  938MOL0     C29344   1.618   8.742   5.274 -0.8252  0.4051  0.0862
  938MOL0     C29345   1.476   8.778   5.331 -0.2731 -0.8423  0.8918
  938MOL0     C29346   1.493   8.804   5.477 -0.9773 -0.1075  0.3510
  938MOL0     C29347   1.584   8.927   5.499 -0.3623 -0.0090 -0.6072
  938MOL0     C29348   1.552   8.993   5.630  0.0438 -1.0791 -1.0033
  938MOL0     C29349   1.587   8.912   5.757  0.5485  0.0103  0.1413
  938MOL0     C29350   1.625   8.996   5.879  0.3865 -0.1529  0.1344
  938MOL0    Cl29351   1.806   9.025   5.870  0.0024 -0.1198 -0.3277
  938MOL0     C29352   1.803   8.848   4.941  0.4631  0.6285  0.6497
  938MOL0     C29353   1.919   8.915   4.911  0.1892  0.0980  0.1044
  938MOL0     O29354   2.086   9.308   5.046  0.0269  0.7041  0.3258
  938MOL0     C29355   2.259   9.435   4.892  0.1303 -0.0917 -0.0906
  938MOL0     C29356   2.339   9.509   4.803 -0.3177 -0.1568 -0.3478
  938MOL0     N29357   2.583   9.981   4.280  0.2510  0.4840  0.7177
  938MOL0     N29358   2.591  10.092   4.214  0.3110  0.0466 -0.2003
  938MOL0     C29359   2.956  10.911   4.125  0.3207  0.6801  0.3486
  938MOL0     C29360   2.849  10.990   4.142  0.2051  0.1357  0.8043
  938MOL0     C29361   2.443  11.190   4.086  0.2792  0.5415  0.0764
  938MOL0     C29362   2.427  11.272   3.980  0.6397  0.1298 -0.3596
  938MOL0     C29363   2.297  11.312   3.932 -0.9440  0.3084  0.0246
  938MOL0     C29364   2.183  11.281   4.004  0.0262  0.3183 -0.0767
  938MOL0     O29365   2.058  11.331   3.969  0.0117  0.0276 -0.6076
  938MOL0     C29366   2.038  11.432   3.863  0.3045  0.3536  0.7948
  938MOL0     C29367   2.048  11.587   3.901  0.1254 -0.0043  0.6107
  938MOL0     C29368   2.047  11.662   3.762 -0.2885 -0.3217  0.2460
  938MOL0     C29369   2.012  11.812   3.773 -0.1933 -0.5625 -0.1710
  938MOL0     C29370   2.062  11.875   3.645  0.2951  0.8485  0.3417
  938MOL0     C29371   2.085  11.925   3.538  1.1622 -0.4826  0.1570
  938MOL0     C29372   2.204  11.205   4.121  0.4497 -0.4676 -0.3799
  938MOL0     C29373   2.332  11.159   4.162  0.8181 -0.7914 -0.4678
  938MOL0     C29374   2.334  11.075   4.295  0.0163  0.0085 -0.1439
  938MOL0     H29375   2.612  10.748   4.137  0.9718 -1.1217 -0.4950
  938MOL0     H29376   2.789  10.610   4.118  0.6024  0.1137 -0.7303
  938MOL0     H29377   2.985  10.526   4.168 -0.4152  1.8750  0.5435
  938MOL0     H29378   3.148  10.544   4.161 -0.5500  0.5432  1.1886
  938MOL0     H29379   2.979  10.524   3.893  0.1095 -2.6096 -0.5290
  938MOL0     H29380   3.154  10.507   3.909 -1.1751 -0.5263 -3.8823
  938MOL0     H29381   3.111  10.271   4.009  1.8916  1.4981 -2.4030
  938MOL0     H29382   2.955  10.335   4.056 -2.4515  1.1613 -2.0903
  938MOL0     H29383   2.884  10.328   3.807 -1.1741 -2.3839  0.3941
  938MOL0     H29384   3.049  10.306   3.774 -0.5513  0.8821 -0.3448
  938MOL0     H29385   3.043  10.074   3.888 -0.1220  1.0657  1.7179
  938MOL0     H29386   2.933  10.077   3.743 -0.5865  0.5151  0.0344
  938MOL0     H29387   2.840   9.980   3.980  0.6137  0.7076  1.5690
  938MOL0     H29388   2.837  10.146   4.026  1.5569  2.0481 -0.6729
  938MOL0     H29389   2.674  10.011   3.818  2.6671 -1.4979  2.0956
  938MOL0     H29390   2.694  10.169   3.780  1.0746  0.1897 -0.4494
  938MOL0     H29391   2.600  10.235   4.011 -0.6783  1.5830  0.0696
  938MOL0     H29392   2.491  10.154   3.902  0.2197  1.7978 -0.6390
  938MOL0     H29393   2.562   9.855   3.978 -0.6228 -0.7943  0.4550
  938MOL0     H29394   2.641   9.675   4.249 -2.3584 -2.5944 -1.0762
  938MOL0     H29395   2.485   9.682   4.163 -0.4096  2.3696 -1.7961
  938MOL0     H29396   2.384   9.766   4.377 -2.0653 -2.8716 -3.0722
  938MOL0     H29397   2.446   9.588   4.373  1.3925 -1.2599  1.8392
  938MOL0     H29398   2.654   9.687   4.471  0.4035  1.1485  0.3846
  938MOL0     H29399   2.573   9.824   4.517  2.7671 -1.3576  3.5549
  938MOL0     H29400   2.541   9.689   4.709 -0.6338  0.0358 -0.0924
  938MOL0     H29401   2.383   9.671   4.631  0.8618  0.2711  0.3677
  938MOL0     H29402   2.462   9.277   4.602  0.8782 -1.1624  1.6982
  938MOL0     H29403   2.354   9.065   4.632 -1.1698  3.5047 -1.4456
  938MOL0     H29404   2.219   9.050   4.732  0.1096 -0.8098  0.5650
  938MOL0     H29405   2.372   9.043   4.810  1.2241 -0.8634 -0.2203
  938MOL0     H29406   1.891   9.196   5.097  3.4391 -1.1390  0.8945
  938MOL0     H29407   1.671   9.085   5.152  1.9898 -1.7984  2.2694
  938MOL0     H29408   1.534   8.655   5.105 -0.1603  0.4558 -1.4277
  938MOL0     H29409   1.709   8.679   5.089 -0.1114  0.9895 -1.0890
  938MOL0     H29410   1.648   8.647   5.318  0.6597  2.2314  3.3554
  938MOL0     H29411   1.695   8.815   5.300 -0.5751  0.0221  0.4222
  938MOL0     H29412   1.424   8.682   5.319  0.7020 -1.1704 -1.1721
  938MOL0     H29413   1.439   8.865   5.276  0.8310  0.1557  1.6913
  938MOL0     H29414   1.541   8.714   5.517 -2.2036 -1.1733 -0.4791
  938MOL0     H29415   1.401   8.828   5.532 -1.0655  1.9292 -0.6302
  938MOL0     H29416   1.688   8.894   5.501 -0.2220  0.4191 -0.5842
  938MOL0     H29417   1.570   8.994   5.413 -2.6840 -0.9959 -1.0841
  938MOL0     H29418   1.449   9.030   5.625  1.0142  2.2167  0.4404
  938MOL0     H29419   1.620   9.078   5.632 -1.1666 -0.1017  0.2179
  938MOL0     H29420   1.672   8.849   5.730  1.3239  1.5191 -1.0436
  938MOL0     H29421   1.503   8.851   5.791  0.2408 -0.6012 -1.6231
  938MOL0     H29422   1.600   8.952   5.976  1.2465  0.0435  0.4576
  938MOL0     H29423   1.568   9.089   5.879 -2.2413 -1.6425 -1.1881
  938MOL0     H29424   1.800   8.756   4.882 -0.9635  1.0666 -0.0176
  938MOL0     H29425   1.988   8.857   4.850 -1.1202  0.8095 -2.1808
  938MOL0     H29426   2.211   9.498   4.967 -1.7908 -1.7019  0.1428
  938MOL0     H29427   2.368   9.610   4.831 -1.8866  0.4654 -0.8059
  938MOL0     H29428   3.053  10.953   4.105  0.6479 -0.7344 -1.2909
  938MOL0     H29429   2.863  11.097   4.149 -1.3925  0.3757  0.5274
  938MOL0     H29430   2.509  11.301   3.915 -0.0613  1.2499 -0.7795
  938MOL0     H29431   2.294  11.364   3.837 -1.5263 -0.3161 -0.3014
  938MOL0     H29432   2.114  11.423   3.785 -0.0788  1.1972  0.3205
  938MOL0     H29433   1.940  11.402   3.825  1.3582 -4.9587  1.5041
  938MOL0     H29434   2.145  11.599   3.951  1.2753  1.5379 -1.8166
  938MOL0     H29435   1.962  11.627   3.956 -0.5230  2.5150 -1.9842
  938MOL0     H29436   2.137  11.647   3.702  2.3235  1.6627  3.2964
  938MOL0     H29437   1.964  11.618   3.706  0.8123  0.5585 -2.2150
  938MOL0     H29438   2.063  11.859   3.857 -2.8378  0.5435  0.9270
  938MOL0     H29439   1.906  11.821   3.796 -0.7148 -2.4342 -1.5896
  938MOL0     H29440   2.126  11.978   3.454  1.9513  1.1353  1.4999
  938MOL0     H29441   2.123  11.168   4.183 -0.9199  1.6132 -0.8196
  938MOL0     H29442   2.242  11.088   4.353  0.4321  0.2235  0.4764
  938MOL0     H29443   2.364  10.975   4.265  1.8183  1.1962 -2.6609
  938MOL0     H29444   2.409  11.121   4.360 -0.2061  0.7577 -0.4102
  939MOL0     O29445  10.086   4.228   2.944  0.0085  0.1915 -0.4243
  939MOL0     C29446  10.143   4.324   2.995  0.7317  0.3540  0.9003
  939MOL0     O29447  10.110   4.454   2.980  0.1234  0.8729 -0.2901
  939MOL0     C29448  10.011   4.513   2.905 -0.3425 -0.3049  0.2669
  939MOL0     C29449  10.044   4.650   2.871 -0.7810 -0.2711 -0.6816
  939MOL0     C29450   9.946   4.735   2.821  0.7223  1.1074  0.0407
  939MOL0     C29451   9.810   4.682   2.803 -0.2617  0.3116  0.3870
  939MOL0     O29452   9.705   4.754   2.755  0.0998  0.1061 -0.1954
  939MOL0     C29453   9.664   4.706   2.627 -0.3103 -0.2377  1.1514
  939MOL0     C29454   9.608   4.824   2.556  0.3705  0.2178  0.0030
  939MOL0     C29455   9.722   4.920   2.517  0.2994 -0.8643 -0.5652
  939MOL0     C29456   9.667   5.039   2.436 -0.1687  0.8249 -0.6196
  939MOL0     C29457   9.775   5.154   2.419  0.2965  0.7512 -0.4378
  939MOL0     C29458   9.720   5.267   2.332  0.7144 -0.5214  0.1785
  939MOL0     C29459   9.829   5.366   2.304 -0.1095  0.0957  0.0511
  939MOL0     C29460   9.785   5.512   2.278  0.4583  1.9205  1.1030
  939MOL0     N29461   9.693   5.532   2.167 -1.0630  0.2199  1.4405
  939MOL0     C29462   9.591   5.626   2.170  0.3719  0.3357 -0.2487
  939MOL0     C29463   9.527   5.601   2.053  0.2041  0.1383 -0.3515
  939MOL0     C29464   9.418   5.679   1.990 -0.1380  0.6168  0.0796
  939MOL0     C29465   9.280   5.672   2.064 -0.9790  0.7045  0.5063
  939MOL0     C29466   9.168   5.742   1.979  0.1554  0.1881 -0.8447
  939MOL0     C29467   9.098   5.669   1.869  0.0351  0.3476 -1.1559
  939MOL0     O29468   8.991   5.748   1.823 -0.0682  0.6286  0.3826
  939MOL0     C29469   8.894   5.674   1.766  0.0909 -0.0794 -0.2595
  939MOL0     C29470   8.767   5.737   1.758  1.0327  0.0810 -0.6258
  939MOL0     C29471   8.657   5.670   1.701 -1.0050  0.0097 -0.7176
  939MOL0     C29472   8.530   5.762   1.714  1.1699 -0.0343 -0.9724
  939MOL0     C29473   8.666   5.544   1.644  0.3316  0.1578  0.4409
  939MOL0     C29474   8.558   5.471   1.573 -0.1797  0.8901 -0.2103
  939MOL0     O29475   8.431   5.471   1.622 -0.0353 -0.0586  0.2917
  939MOL0     C29476   8.338   5.398   1.570 -0.5661  0.3818  0.0331
  939MOL0     C29477   8.274   5.315   1.660  0.0392 -0.2642  0.6532
  939MOL0     C29478   8.162   5.250   1.615  0.1623  1.1669  0.7533
  939MOL0     C29479   8.123   5.244   1.483  0.0719 -0.2674 -0.4064
  939MOL0     O29480   8.020   5.164   1.456 -0.2138  0.1684 -0.3667
  939MOL0     C29481   8.044   5.086   1.338 -0.2935 -0.5362  0.2555
  939MOL0     C29482   7.933   4.982   1.327  0.1487  0.2541  0.1711
  939MOL0     C29483   7.956   4.881   1.209 -0.6744  0.8131  0.2262
  939MOL0     C29484   7.876   4.752   1.217  0.6435 -0.3593  0.1613
  939MOL0     C29485   7.928   4.667   1.337  0.5497 -0.6505  0.0793
  939MOL0     C29486   7.828   4.562   1.387  0.4776 -0.0386  0.4974
  939MOL0     C29487   7.877   4.479   1.499 -0.4185 -0.1386  0.3895
  939MOL0     C29488   7.947   4.347   1.452 -0.1036  0.3702 -0.7983
  939MOL0    Cl29489   8.098   4.379   1.377 -0.3104  0.1168  0.2324
  939MOL0     C29490   8.177   5.340   1.393  0.3518 -0.2577  0.6190
  939MOL0     C29491   8.290   5.421   1.438  0.7040  0.4937 -1.4811
  939MOL0     O29492   8.588   5.401   1.475 -0.1944  0.2108  0.5848
  939MOL0     C29493   8.797   5.479   1.642 -0.9502  0.9300 -0.5453
  939MOL0     C29494   8.902   5.552   1.701 -0.6957 -0.8352 -0.7249
  939MOL0     N29495   9.595   5.499   1.983  0.5739 -0.1491  0.4335
  939MOL0     N29496   9.690   5.451   2.055  0.8135  0.1668 -0.1407
  939MOL0     C29497   9.779   4.544   2.841 -0.1276  0.1156  0.0820
  939MOL0     C29498   9.885   4.461   2.889 -0.0673  0.2785 -0.3656
  939MOL0     C29499  10.257   4.303   3.086  0.1130 -0.4362  0.8128
  939MOL0     C29500  10.357   4.401   3.090 -0.1998 -1.3146  0.0052
  939MOL0     C29501  10.487   4.388   3.143 -0.0868  0.6507 -0.9713
  939MOL0     C29502  10.521   4.257   3.190  0.3080 -0.5884 -0.6324
  939MOL0     O29503  10.646   4.242   3.241 -0.5203 -0.3178  0.0976
  939MOL0     C29504  10.712   4.114   3.272  0.4993 -0.2505 -1.6360
  939MOL0     C29505  10.836   4.147   3.343  0.6244  0.3603 -0.5876
  939MOL0     C29506  10.912   4.028   3.388 -0.1593  0.5303 -0.2644
  939MOL0     C29507  11.058   4.052   3.442 -0.6613 -0.4350  0.1630
  939MOL0     C29508  11.054   4.096   3.585  0.4114  0.0334  0.3043
  939MOL0     C29509  11.055   4.141   3.692  0.5435  0.7788  1.1899
  939MOL0     C29510  10.422   4.160   3.202 -0.1209 -0.2283 -0.3920
  939MOL0     C29511  10.291   4.176   3.150  0.7086  1.0867 -0.1829
  939MOL0     C29512  10.204   4.054   3.147 -0.4888  0.7280 -0.6071
  939MOL0     H29513  10.144   4.691   2.879 -0.8227  0.6981 -3.6671
  939MOL0     H29514   9.967   4.836   2.788 -2.3155  1.4914 -1.0246
  939MOL0     H29515   9.584   4.632   2.635 -0.7466  0.3591  2.7111
  939MOL0     H29516   9.747   4.665   2.570  1.2837 -0.1279  3.2924
  939MOL0     H29517   9.567   4.781   2.465 -2.9932  2.5087  0.2876
  939MOL0     H29518   9.530   4.872   2.616 -0.9758 -2.4851  0.5399
  939MOL0     H29519   9.771   4.954   2.609 -2.9260 -0.2296  1.0574
  939MOL0     H29520   9.796   4.870   2.454  1.0381  0.2302 -0.5965
  939MOL0     H29521   9.616   5.007   2.345 -1.9515  0.1697  0.5529
  939MOL0     H29522   9.590   5.097   2.488 -0.5290 -0.1494 -0.0362
  939MOL0     H29523   9.863   5.115   2.366  2.3785  1.7092  2.1061
  939MOL0     H29524   9.793   5.184   2.523 -2.0159 -0.9980  0.5646
  939MOL0     H29525   9.686   5.229   2.236 -0.3336  2.7014 -0.8692
  939MOL0     H29526   9.634   5.311   2.385  1.4631  0.4813  0.5998
  939MOL0     H29527   9.881   5.319   2.220 -1.6723 -0.9909 -0.3517
  939MOL0     H29528   9.907   5.381   2.380 -1.5962  0.1581  1.6303
  939MOL0     H29529   9.734   5.538   2.372 -0.1886 -0.2960  1.4323
  939MOL0     H29530   9.874   5.573   2.264  1.4211  0.3289 -0.0858
  939MOL0     H29531   9.572   5.698   2.249  0.9335  1.1305 -0.8147
  939MOL0     H29532   9.400   5.645   1.888 -1.4542 -0.1068  0.5178
  939MOL0     H29533   9.441   5.785   1.977  1.4300  0.3848  0.7820
  939MOL0     H29534   9.261   5.565   2.076  0.0036  0.3197 -1.0050
  939MOL0     H29535   9.290   5.717   2.163  4.1104  0.3718  0.4016
  939MOL0     H29536   9.086   5.749   2.051  0.2371 -1.1506 -0.6106
  939MOL0     H29537   9.199   5.840   1.940  4.2115 -1.4016 -2.0736
  939MOL0     H29538   9.172   5.644   1.792  0.4808  0.5942 -0.8118
  939MOL0     H29539   9.065   5.572   1.907 -1.9185  0.7374 -1.7369
  939MOL0     H29540   8.751   5.838   1.795  3.6906  0.4215 -0.2273
  939MOL0     H29541   8.549   5.866   1.687 -1.6194  1.5720  2.3482
  939MOL0     H29542   8.505   5.769   1.821  0.7526 -4.4860 -0.5660
  939MOL0     H29543   8.456   5.737   1.638  1.9834  2.0160 -2.4975
  939MOL0     H29544   8.309   5.323   1.762 -0.0090  3.3074  0.5322
  939MOL0     H29545   8.119   5.180   1.687 -0.4933  1.4960  0.6934
  939MOL0     H29546   8.041   5.158   1.256  1.3488  2.6166  2.6925
  939MOL0     H29547   8.143   5.039   1.335  0.7074  1.5008 -0.9298
  939MOL0     H29548   7.945   4.927   1.421 -1.2184 -2.1167 -0.9338
  939MOL0     H29549   7.837   5.032   1.317  0.6006  0.7584 -2.1493
  939MOL0     H29550   8.060   4.849   1.198 -0.9527  0.9159 -4.5528
  939MOL0     H29551   7.949   4.930   1.112  1.2712 -0.2681 -0.5241
  939MOL0     H29552   7.877   4.694   1.125 -0.1899 -0.3411  0.1344
  939MOL0     H29553   7.773   4.780   1.241  1.2074 -0.3358  2.9357
  939MOL0     H29554   8.018   4.613   1.307 -0.4968 -1.5299 -1.7012
  939MOL0     H29555   7.946   4.728   1.426 -1.9635 -0.6216  0.6372
  939MOL0     H29556   7.803   4.494   1.304 -1.3344  0.4943  0.5629
  939MOL0     H29557   7.737   4.619   1.410  0.0839 -0.9272  1.1846
  939MOL0     H29558   7.796   4.442   1.563  0.1741 -2.3235 -0.0535
  939MOL0     H29559   7.943   4.535   1.566  2.7504 -0.9627 -1.7899
  939MOL0     H29560   7.883   4.291   1.383 -2.0255  0.1900  1.0284
  939MOL0     H29561   7.954   4.293   1.547  0.1359 -0.0257 -1.0366
  939MOL0     H29562   8.131   5.348   1.295  0.9844 -1.7670  0.1722
  939MOL0     H29563   8.335   5.504   1.385 -0.5151  0.8649 -1.9776
  939MOL0     H29564   8.816   5.381   1.600 -1.4181  0.7329 -0.2928
  939MOL0     H29565   9.000   5.505   1.703 -0.4713 -0.3602  1.0346
  939MOL0     H29566   9.681   4.503   2.824  0.0827  0.4268 -2.1361
  939MOL0     H29567   9.870   4.357   2.915  0.8044 -0.0731 -1.1920
  939MOL0     H29568  10.339   4.502   3.053 -1.1976  1.0739  5.8959
  939MOL0     H29569  10.561   4.467   3.133  0.8075 -0.1308 -0.6046
  939MOL0     H29570  10.663   4.041   3.337  2.4984 -0.6788 -0.5395
  939MOL0     H29571  10.733   4.080   3.170  1.2432 -0.5062 -1.4032
  939MOL0     H29572  10.818   4.202   3.436  1.5479 -1.4896  0.7745
  939MOL0     H29573  10.897   4.218   3.287  0.2394  0.9052 -0.3171
  939MOL0     H29574  10.854   3.972   3.462 -0.9508  0.0426 -1.2435
  939MOL0     H29575  10.915   3.966   3.298 -3.1528 -0.6986  0.3601
  939MOL0     H29576  11.123   4.118   3.383  2.4433 -1.9402  1.6740
  939MOL0     H29577  11.108   3.954   3.439 -0.4201 -0.3316  0.7040
  939MOL0     H29578  11.054   4.187   3.789  1.0472  0.4785  1.3466
  939MOL0     H29579  10.444   4.069   3.257  0.6827  0.6806  0.8466
  939MOL0     H29580  10.195   3.991   3.058 -3.8152 -1.6040  1.1272
  939MOL0     H29581  10.240   3.985   3.224 -0.9429  0.9384 -0.1994
  939MOL0     H29582  10.099   4.067   3.176 -0.1931  0.6333  0.5429
  940MOL0     O29583   6.484   5.313   5.601  0.0493 -0.3799  0.7832
  940MOL0     C29584   6.482   5.351   5.486 -0.1672  0.4922  0.8517
  940MOL0     O29585   6.393   5.443   5.437 -0.4539  0.8170 -0.7694
  940MOL0     C29586   6.294   5.504   5.499  0.3308 -0.3903 -0.2054
  940MOL0     C29587   6.188   5.543   5.415 -0.4311 -0.0132 -0.0793
  940MOL0     C29588   6.072   5.599   5.466  0.0157 -0.7439 -0.4588
  940MOL0     C29589   6.052   5.619   5.606 -0.1467 -0.8472  0.5126
  940MOL0     O29590   5.921   5.648   5.634 -0.1654  0.2884  0.5024
  940MOL0     C29591   5.911   5.722   5.760 -0.0039  0.0557  0.2019
  940MOL0     C29592   5.766   5.772   5.771 -0.1115  0.3664 -0.1464
  940MOL0     C29593   5.661   5.660   5.782 -0.4634  0.5354  0.0900
  940MOL0     C29594   5.665   5.594   5.919  1.4258 -0.5449 -0.3790
  940MOL0     C29595   5.699   5.442   5.889  1.1157 -0.9682  0.5282
  940MOL0     C29596   5.564   5.372   5.843 -0.8340 -0.0134  0.5918
  940MOL0     C29597   5.569   5.217   5.849  0.3096  0.2726  0.5616
  940MOL0     C29598   5.563   5.157   5.991  0.0840 -0.1627 -1.2222
  940MOL0     N29599   5.456   5.210   6.075  0.6267 -1.3195 -0.2899
  940MOL0     C29600   5.462   5.304   6.178 -0.2003  0.5430  0.1922
  940MOL0     C29601   5.340   5.284   6.236 -0.3991  0.0811 -0.1894
  940MOL0     C29602   5.284   5.362   6.355  0.9923 -0.8140 -0.1777
  940MOL0     C29603   5.335   5.322   6.490  0.1757 -0.3060  1.2446
  940MOL0     C29604   5.248   5.384   6.600  0.3112  0.3444  0.3640
  940MOL0     C29605   5.259   5.530   6.618  0.5021 -0.6944 -0.3392
  940MOL0     O29606   5.375   5.567   6.690  0.0932 -0.5173  0.2729
  940MOL0     C29607   5.372   5.617   6.814 -0.3997 -0.1796 -0.4500
  940MOL0     C29608   5.472   5.707   6.861 -0.6275  0.5740 -0.6918
  940MOL0     C29609   5.478   5.768   6.989  0.3688 -0.0059 -0.1894
  940MOL0     C29610   5.587   5.874   7.016  0.4611  0.8283  0.7195
  940MOL0     C29611   5.381   5.722   7.085  0.9572  0.0169  0.0882
  940MOL0     C29612   5.373   5.754   7.223  0.1963 -0.2415 -0.5280
  940MOL0     O29613   5.270   5.698   7.296 -0.0518 -0.3645  0.4367
  940MOL0     C29614   5.297   5.649   7.419  0.0017 -0.4210  0.1834
  940MOL0     C29615   5.416   5.596   7.474 -0.1634  0.2960 -0.9285
  940MOL0     C29616   5.421   5.554   7.605  0.0669  0.0774 -0.2851
  940MOL0     C29617   5.318   5.583   7.694 -0.0061 -0.1074  0.0246
  940MOL0     O29618   5.341   5.553   7.829  0.7720 -0.0150 -0.2318
  940MOL0     C29619   5.231   5.498   7.911  1.0174 -0.5350  0.0091
  940MOL0     C29620   5.193   5.351   7.881  0.2348 -0.5348 -0.4421
  940MOL0     C29621   5.309   5.256   7.937 -0.0162  0.1809 -0.5672
  940MOL0     C29622   5.292   5.108   7.890 -0.7020 -0.5218  0.1041
  940MOL0     C29623   5.170   5.035   7.930 -0.7848 -0.0617  0.2312
  940MOL0     C29624   5.144   5.018   8.079 -0.1010  0.3174 -1.3832
  940MOL0     C29625   5.040   4.906   8.107  0.3980  0.5365 -1.0431
  940MOL0     C29626   5.057   4.772   8.032 -0.7978  0.5539 -0.2181
  940MOL0    Cl29627   4.985   4.781   7.866 -0.2600  0.1706  0.4398
  940MOL0     C29628   5.209   5.652   7.641 -0.1881  0.0654  0.3427
  940MOL0     C29629   5.203   5.685   7.512  0.4051 -0.3245  0.4772
  940MOL0     O29630   5.454   5.830   7.273  0.0698 -0.4678  0.1990
  940MOL0     C29631   5.281   5.632   7.036 -0.0277  0.3045 -0.5071
  940MOL0     C29632   5.289   5.573   6.910  1.2865 -0.8349 -0.2461
  940MOL0     N29633   5.277   5.185   6.185  0.6220  1.3349  0.5917
  940MOL0     N29634   5.343   5.134   6.087 -0.1719  0.0408  0.0862
  940MOL0     C29635   6.158   5.575   5.690 -0.0675  0.0220  0.2802
  940MOL0     C29636   6.272   5.519   5.632 -0.4481 -0.1443 -1.1320
  940MOL0     C29637   6.586   5.303   5.390 -0.7991  0.6576 -0.5481
  940MOL0     C29638   6.622   5.394   5.292  0.2877  0.1495  0.3835
  940MOL0     C29639   6.719   5.368   5.195  0.6934 -0.0058 -0.0175
  940MOL0     C29640   6.793   5.244   5.204 -0.6461 -0.7137  0.4509
  940MOL0     O29641   6.921   5.224   5.158  0.8115  0.2633 -0.8091
  940MOL0     C29642   6.953   5.261   5.023  0.7720  0.0755  0.5318
  940MOL0     C29643   6.939   5.141   4.929 -0.0224  0.8273  1.0917
  940MOL0     C29644   7.079   5.074   4.912  0.7349 -0.1172 -0.0443
  940MOL0     C29645   7.152   5.102   4.777 -0.3558 -1.3900 -0.0241
  940MOL0     C29646   7.120   5.230   4.716 -1.0903  0.1184  0.2952
  940MOL0     C29647   7.109   5.343   4.669  0.3772 -0.4240  0.1271
  940MOL0     C29648   6.757   5.148   5.304  0.1185 -0.6991  0.6163
  940MOL0     C29649   6.649   5.178   5.396  0.0419  1.0491  0.4282
  940MOL0     C29650   6.592   5.070   5.485 -0.5239 -0.1117  0.0914
  940MOL0     H29651   6.201   5.527   5.308 -1.6612 -0.1658 -0.2217
  940MOL0     H29652   5.987   5.629   5.405  0.0303 -2.4023 -1.3570
  940MOL0     H29653   5.972   5.810   5.737  2.1752 -2.1506 -3.4265
  940MOL0     H29654   5.947   5.670   5.849  2.9334 -0.7939 -1.3657
  940MOL0     H29655   5.757   5.835   5.860 -0.4517  2.0718 -1.3512
  940MOL0     H29656   5.748   5.834   5.683  0.3975  0.0028 -0.5106
  940MOL0     H29657   5.556   5.689   5.773 -1.0703 -0.8561  2.0123
  940MOL0     H29658   5.686   5.592   5.700 -1.4741 -1.0170  1.0090
  940MOL0     H29659   5.746   5.632   5.982 -0.0349  1.3745  0.4331
  940MOL0     H29660   5.566   5.604   5.964  0.4400 -2.2357 -2.0448
  940MOL0     H29661   5.719   5.385   5.980 -2.0688  1.0202  2.6876
  940MOL0     H29662   5.788   5.431   5.828  0.6084 -2.3412 -0.0024
  940MOL0     H29663   5.480   5.400   5.907 -1.4979 -1.9758  0.6524
  940MOL0     H29664   5.540   5.402   5.741 -0.8993  1.0404  0.9022
  940MOL0     H29665   5.662   5.185   5.802  0.6097  2.0978 -0.1768
  940MOL0     H29666   5.485   5.186   5.786  0.3076 -0.6355  1.0057
  940MOL0     H29667   5.554   5.049   5.979  0.4840 -0.2370 -0.8690
  940MOL0     H29668   5.658   5.176   6.042 -0.4347  0.9961 -0.6273
  940MOL0     H29669   5.541   5.368   6.216  0.7311 -0.8408  0.6378
  940MOL0     H29670   5.176   5.357   6.338  1.5043 -0.4324 -4.9788
  940MOL0     H29671   5.321   5.463   6.340  2.5426 -0.9548  2.1363
  940MOL0     H29672   5.321   5.214   6.503  1.1112 -0.5375  0.4301
  940MOL0     H29673   5.441   5.347   6.486 -0.3772  2.6608  2.8471
  940MOL0     H29674   5.143   5.362   6.578  0.6879 -0.4488 -0.7159
  940MOL0     H29675   5.255   5.345   6.702 -1.1302 -0.6983  0.0889
  940MOL0     H29676   5.268   5.581   6.522 -3.6941 -2.3089 -1.8444
  940MOL0     H29677   5.171   5.563   6.674 -0.0584 -4.0210  1.0253
  940MOL0     H29678   5.535   5.740   6.779 -2.1144  1.8982 -1.3374
  940MOL0     H29679   5.660   5.874   6.934 -0.3399 -0.7492 -0.0278
  940MOL0     H29680   5.637   5.865   7.113  0.2406  1.0657  0.8555
  940MOL0     H29681   5.547   5.976   7.011  0.4937  0.7975 -0.2665
  940MOL0     H29682   5.494   5.570   7.403 -0.0544  0.8926 -1.0263
  940MOL0     H29683   5.503   5.494   7.642 -1.0866 -2.4025 -1.5630
  940MOL0     H29684   5.256   5.509   8.016  2.0835  0.3038 -0.3207
  940MOL0     H29685   5.135   5.550   7.902  1.6580  0.9267  1.2122
  940MOL0     H29686   5.103   5.329   7.939 -1.2481  6.3944  0.7692
  940MOL0     H29687   5.190   5.338   7.772 -1.3634 -0.4014 -0.4374
  940MOL0     H29688   5.310   5.255   8.047  2.6736 -1.0063 -0.5102
  940MOL0     H29689   5.410   5.295   7.917 -0.2779  0.5648 -1.1505
  940MOL0     H29690   5.382   5.050   7.915 -1.5585 -1.4793  1.0852
  940MOL0     H29691   5.287   5.110   7.781  1.7002  0.5170 -0.0537
  940MOL0     H29692   5.085   5.079   7.878 -1.0541  1.3859  1.8247
  940MOL0     H29693   5.190   4.934   7.891  3.0137  1.2736 -1.8450
  940MOL0     H29694   5.102   5.108   8.123 -0.8978 -0.2958 -0.8587
  940MOL0     H29695   5.227   4.988   8.144 -3.0526 -3.3543  1.1980
  940MOL0     H29696   4.940   4.947   8.089  1.1197  3.2022  0.4099
  940MOL0     H29697   5.041   4.877   8.212  3.6334 -0.7489 -1.3140
  940MOL0     H29698   5.002   4.698   8.091 -1.5920  0.9650 -0.4200
  940MOL0     H29699   5.162   4.744   8.026 -0.9548 -1.0911  2.8343
  940MOL0     H29700   5.122   5.671   7.704 -0.4314 -1.0746  0.3795
  940MOL0     H29701   5.122   5.748   7.477 -0.8357 -1.1655  1.7128
  940MOL0     H29702   5.219   5.573   7.104  1.8629 -0.4314  0.6710
  940MOL0     H29703   5.201   5.513   6.894 -0.8040  1.8694  0.4364
  940MOL0     H29704   6.141   5.562   5.797  0.8324  1.8191  0.6890
  940MOL0     H29705   6.329   5.465   5.708 -0.6328  0.0038 -0.8862
  940MOL0     H29706   6.577   5.493   5.284  1.4519  1.1326  4.1259
  940MOL0     H29707   6.756   5.455   5.142 -0.3644  0.2057 -0.4385
  940MOL0     H29708   6.894   5.350   5.003  0.8256  1.0538  4.0251
  940MOL0     H29709   7.054   5.301   5.010  0.0641  1.5729 -0.5764
  940MOL0     H29710   6.891   5.153   4.831  1.4120 -0.9876  0.1060
  940MOL0     H29711   6.875   5.072   4.985 -1.5872  2.3892  1.3305
  940MOL0     H29712   7.134   5.101   5.002  0.5759  1.1951 -0.3232
  940MOL0     H29713   7.065   4.966   4.912 -2.3638  0.1847 -1.2184
  940MOL0     H29714   7.114   5.032   4.701 -1.3291 -1.4701  0.5149
  940MOL0     H29715   7.259   5.088   4.795  0.2213  0.8588 -1.2422
  940MOL0     H29716   7.083   5.437   4.624 -1.6002 -1.1028 -0.2403
  940MOL0     H29717   6.827   5.071   5.335  2.7281  1.4591  0.4602
  940MOL0     H29718   6.486   5.092   5.497 -0.6099 -1.6908  3.6230
  940MOL0     H29719   6.606   4.970   5.443 -2.6224 -1.7646  2.9671
  940MOL0     H29720   6.643   5.066   5.582  1.8696  2.6051 -0.8972
  941MOL0     O29721   6.624   6.413  11.325 -0.1204 -0.2103  0.3501
  941MOL0     C29722   6.570   6.389  11.432  0.8943  0.3323 -1.3821
  941MOL0     O29723   6.627   6.412  11.558 -0.4477  1.1227  0.9634
  941MOL0     C29724   6.759   6.383  11.588  0.1857 -0.3886  0.4513
  941MOL0     C29725   6.844   6.296  11.519 -0.3701 -0.0958  0.5424
  941MOL0     C29726   6.973   6.263  11.569 -0.8286  0.1562  1.0297
  941MOL0     C29727   7.016   6.317  11.687  0.8276  0.7489  0.0319
  941MOL0     O29728   7.143   6.292  11.729  1.0118  0.7875  0.0331
  941MOL0     C29729   7.243   6.264  11.643 -0.2355  0.7126 -0.5746
  941MOL0     C29730   7.373   6.255  11.730 -1.0559 -0.1008  0.2074
  941MOL0     C29731   7.363   6.134  11.830  0.3460  0.0296  0.7966
  941MOL0     C29732   7.482   6.152  11.922 -0.3308 -1.2135  0.2737
  941MOL0     C29733   7.464   6.070  12.052 -0.0504 -0.0037  0.6383
  941MOL0     C29734   7.603   6.082  12.119  0.0138 -0.1116  1.6807
  941MOL0     C29735   7.616   6.046  12.265  0.3862 -0.3485  0.0469
  941MOL0     C29736   7.533   6.135  12.360  0.1316 -0.4715  0.0070
  941MOL0     N29737   7.573   6.111  12.502  0.5665  0.6819  0.2125
  941MOL0     C29738   7.590   6.216  12.587 -0.3516 -0.1409  1.1278
  941MOL0     C29739   7.632   6.155  12.703  0.4031 -0.6433 -0.2957
  941MOL0     C29740   7.676   6.233  12.825 -0.3788 -0.3335  0.3691
  941MOL0     C29741   7.834   6.244  12.834  0.1604  0.1928 -0.1409
  941MOL0     C29742   7.887   6.308  12.706 -0.8670  0.4060 -1.3595
  941MOL0     C29743   8.035   6.328  12.725 -0.1352  0.1050 -0.4227
  941MOL0     O29744   8.061   6.427  12.826 -0.3191  1.4270 -0.1264
  941MOL0     C29745   8.060   6.560  12.809  0.3762 -0.6542  0.0321
  941MOL0     C29746   8.129   6.649  12.902 -0.3666 -0.4721 -0.2813
  941MOL0     C29747   8.119   6.790  12.900  0.4653 -0.1991 -0.3529
  941MOL0     C29748   8.200   6.867  13.000 -0.2088 -0.2593  0.3347
  941MOL0     C29749   8.019   6.849  12.816 -0.1061 -0.7011  0.2418
  941MOL0     C29750   7.980   7.001  12.805 -0.4931  0.6581  0.0645
  941MOL0     O29751   7.853   7.025  12.748  0.1333 -0.3002 -0.3246
  941MOL0     C29752   7.799   7.146  12.726  0.2502  0.1380 -0.0510
  941MOL0     C29753   7.658   7.155  12.705 -0.1760  0.4759  0.0616
  941MOL0     C29754   7.593   7.281  12.693 -0.2743  0.6877 -0.2513
  941MOL0     C29755   7.658   7.400  12.677  0.1924 -0.7502 -0.3602
  941MOL0     O29756   7.580   7.515  12.630 -0.0235  0.8075 -0.2761
  941MOL0     C29757   7.657   7.638  12.622 -0.0084  0.9753  0.5011
  941MOL0     C29758   7.582   7.751  12.552 -1.0829  0.7617 -0.6179
  941MOL0     C29759   7.550   7.689  12.416 -0.9951 -0.1727  0.6227
  941MOL0     C29760   7.482   7.786  12.326  0.1015  0.2599  0.5351
  941MOL0     C29761   7.483   7.725  12.183  1.0650  0.0824 -0.8245
  941MOL0     C29762   7.625   7.709  12.117 -0.4606  0.0644 -0.4019
  941MOL0     C29763   7.624   7.674  11.972  0.5754  0.3932  0.4485
  941MOL0     C29764   7.665   7.527  11.943 -0.4453 -0.2110 -1.0544
  941MOL0    Cl29765   7.573   7.399  12.026 -0.1163 -0.6982  0.4593
  941MOL0     C29766   7.799   7.390  12.697 -0.1734  0.0245  0.3340
  941MOL0     C29767   7.863   7.268  12.722  1.2713  0.5037  0.0328
  941MOL0     O29768   8.044   7.087  12.870 -0.6092  0.9010 -0.2115
  941MOL0     C29769   7.955   6.765  12.710 -0.0442  1.0299  0.2829
  941MOL0     C29770   7.982   6.626  12.713  0.0121  0.1007 -0.1400
  941MOL0     N29771   7.625   6.019  12.687  0.2407  0.3925  0.2763
  941MOL0     N29772   7.604   5.994  12.565  0.0384 -0.1846 -0.3601
  941MOL0     C29773   6.930   6.401  11.763 -1.0030 -0.0118 -0.3810
  941MOL0     C29774   6.804   6.442  11.711 -0.3120  0.4408  0.8810
  941MOL0     C29775   6.425   6.358  11.450 -0.5933  0.1311 -0.1950
  941MOL0     C29776   6.353   6.394  11.565 -0.3059 -0.3479  0.4298
  941MOL0     C29777   6.224   6.348  11.586  0.6251 -0.2818  0.7732
  941MOL0     C29778   6.158   6.265  11.492  0.4288 -0.8802 -0.9488
  941MOL0     O29779   6.039   6.213  11.520  0.1089 -0.3504 -0.0150
  941MOL0     C29780   6.019   6.123  11.626  0.1380  0.9738 -0.1259
  941MOL0     C29781   5.917   6.183  11.714  0.3139 -0.1396  0.3653
  941MOL0     C29782   5.855   6.087  11.811 -0.1096 -0.1200  0.1739
  941MOL0     C29783   5.778   6.153  11.920 -0.5294  0.2858 -1.5020
  941MOL0     C29784   5.640   6.163  11.881  0.4081  1.1630  0.0731
  941MOL0     C29785   5.536   6.147  11.829  0.1303 -0.6037 -0.1748
  941MOL0     C29786   6.226   6.237  11.380 -0.7289  0.9636 -0.1234
  941MOL0     C29787   6.355   6.276  11.358 -0.5447 -0.5314 -0.5599
  941MOL0     C29788   6.421   6.220  11.239  0.2416  0.2167 -0.5725
  941MOL0     H29789   6.800   6.263  11.425 -1.3132  1.1921  0.5091
  941MOL0     H29790   7.038   6.196  11.513  0.7368  3.3412 -1.2939
  941MOL0     H29791   7.260   6.344  11.570  4.5238  0.4730 -0.0450
  941MOL0     H29792   7.229   6.169  11.591  2.5750 -0.0553 -0.1044
  941MOL0     H29793   7.459   6.247  11.664 -1.6225 -0.5331 -0.4964
  941MOL0     H29794   7.372   6.348  11.788 -2.0532 -2.0714  3.6250
  941MOL0     H29795   7.266   6.138  11.881 -0.0326 -1.5615  0.2588
  941MOL0     H29796   7.375   6.033  11.789  4.7011 -0.2238  2.1675
  941MOL0     H29797   7.568   6.125  11.859 -0.8833  0.9741 -1.5920
  941MOL0     H29798   7.489   6.257  11.953 -5.0379 -1.5209  3.3286
  941MOL0     H29799   7.433   5.966  12.039  0.2283  0.0882 -0.9533
  941MOL0     H29800   7.387   6.123  12.109  2.7437  4.1816  0.9673
  941MOL0     H29801   7.671   6.011  12.070 -2.6669 -0.9887 -1.1287
  941MOL0     H29802   7.648   6.181  12.110 -3.6963  1.5752 -0.9137
  941MOL0     H29803   7.716   6.066  12.306  1.0094 -1.6939 -0.7500
  941MOL0     H29804   7.579   5.945  12.285 -1.9821  0.8686  2.5377
  941MOL0     H29805   7.556   6.239  12.338  1.4636 -0.5600  0.8969
  941MOL0     H29806   7.426   6.109  12.361 -0.2652  1.0508 -0.2703
  941MOL0     H29807   7.587   6.323  12.569  2.4792 -0.6485 -4.7250
  941MOL0     H29808   7.641   6.163  12.902 -2.2922  0.2857  0.1188
  941MOL0     H29809   7.639   6.335  12.843  1.9565  0.4156  1.4067
  941MOL0     H29810   7.858   6.301  12.924  0.1032  1.1060 -0.6874
  941MOL0     H29811   7.868   6.140  12.830 -1.9214 -0.5780  0.6905
  941MOL0     H29812   7.875   6.233  12.627  2.6976 -1.8852  0.0219
  941MOL0     H29813   7.833   6.397  12.673 -0.2916  1.2356 -0.1326
  941MOL0     H29814   8.084   6.230  12.733  0.7712  0.3872 -2.0649
  941MOL0     H29815   8.080   6.359  12.631 -1.6908  0.8397 -0.9420
  941MOL0     H29816   8.185   6.605  12.984 -2.0702  1.4269  2.0588
  941MOL0     H29817   8.263   6.936  12.944 -1.8630  0.3521 -0.8703
  941MOL0     H29818   8.266   6.803  13.059  0.5433  0.2537  0.0565
  941MOL0     H29819   8.134   6.921  13.068 -1.5869 -0.0742 -1.0822
  941MOL0     H29820   7.600   7.064  12.692 -0.7084  1.1104 -2.8898
  941MOL0     H29821   7.485   7.274  12.682 -0.1549 -0.4192 -0.9014
  941MOL0     H29822   7.681   7.672  12.723 -0.3646 -1.6101  1.5267
  941MOL0     H29823   7.744   7.622  12.558 -1.8339  2.0957 -2.4572
  941MOL0     H29824   7.492   7.782  12.606 -1.9971 -1.0506 -0.9932
  941MOL0     H29825   7.652   7.834  12.541  1.4701 -1.0476  0.7712
  941MOL0     H29826   7.525   7.584  12.399  0.6831 -0.3860 -0.8131
  941MOL0     H29827   7.653   7.685  12.380 -0.2979 -0.2708  2.5433
  941MOL0     H29828   7.549   7.873  12.332  3.5054 -2.2423  1.6393
  941MOL0     H29829   7.384   7.823  12.356 -1.2664 -0.2930 -2.8461
  941MOL0     H29830   7.441   7.624  12.188  0.9519  0.1588  0.0368
  941MOL0     H29831   7.420   7.788  12.121 -0.3161  1.0045  1.3703
  941MOL0     H29832   7.670   7.625  12.170 -0.5640  1.6108  2.3144
  941MOL0     H29833   7.682   7.802  12.121 -1.5731  0.7211  1.2232
  941MOL0     H29834   7.679   7.740  11.905  1.3325 -1.7507 -1.1733
  941MOL0     H29835   7.520   7.699  11.951 -1.8959 -5.8206  2.9510
  941MOL0     H29836   7.772   7.521  11.965 -0.8927  0.5343  1.6102
  941MOL0     H29837   7.661   7.507  11.835 -3.1369 -0.8812 -0.9052
  941MOL0     H29838   7.866   7.474  12.685  1.0335 -0.8825  0.5548
  941MOL0     H29839   7.971   7.279  12.726  1.0446  2.8705  1.7429
  941MOL0     H29840   7.893   6.798  12.628 -3.5786  0.7559  2.6386
  941MOL0     H29841   7.924   6.568  12.643  0.2926  0.7273 -0.9047
  941MOL0     H29842   6.966   6.448  11.854  0.0640 -1.8583  0.1983
  941MOL0     H29843   6.733   6.503  11.766 -0.7847 -0.1721  0.9562
  941MOL0     H29844   6.395   6.470  11.630  0.4202  0.4999 -0.9727
  941MOL0     H29845   6.162   6.397  11.661  0.8693 -2.8163  2.7868
  941MOL0     H29846   5.988   6.022  11.596 -1.1258  0.5999  2.1584
  941MOL0     H29847   6.116   6.105  11.672 -0.2469 -1.9522 -0.2099
  941MOL0     H29848   5.840   6.231  11.652  0.3130 -3.8673 -2.9251
  941MOL0     H29849   5.960   6.270  11.764  2.3715 -0.2631 -1.0891
  941MOL0     H29850   5.813   5.993  11.773  1.8462 -1.3358  0.8773
  941MOL0     H29851   5.942   6.043  11.862  0.0300  1.2764  1.2046
  941MOL0     H29852   5.820   6.248  11.952  0.8016 -1.2762  1.8313
  941MOL0     H29853   5.779   6.088  12.009  1.3053  0.4583 -1.3658
  941MOL0     H29854   5.442   6.138  11.778  1.5290  0.2566 -3.0788
  941MOL0     H29855   6.176   6.169  11.313  2.0328  0.0422 -1.4008
  941MOL0     H29856   6.356   6.141  11.200 -2.9458  1.6926  1.3720
  941MOL0     H29857   6.426   6.292  11.157 -2.9399  0.2248 -0.9007
  941MOL0     H29858   6.525   6.190  11.256  0.7385  1.3518 -1.4375
  942MOL0     O29859   1.070   3.445   9.817  0.6337 -0.2089 -0.6795
  942MOL0     C29860   1.125   3.470   9.715  0.5225  0.3302  0.3863
  942MOL0     O29861   1.052   3.493   9.606  0.1041 -0.4633  0.1742
  942MOL0     C29862   0.917   3.472   9.594  0.7352 -0.1157  0.3649
  942MOL0     C29863   0.820   3.540   9.664 -0.2221  0.4917 -0.2849
  942MOL0     C29864   0.689   3.503   9.638 -0.0895  0.2711  0.5170
  942MOL0     C29865   0.647   3.402   9.547  0.0776  0.2314 -0.7264
  942MOL0     O29866   0.515   3.362   9.539  0.5260 -0.9775  0.7962
  942MOL0     C29867   0.467   3.353   9.404 -0.3343 -0.0411  0.6141
  942MOL0     C29868   0.339   3.429   9.390  0.1508 -0.6512 -1.0769
  942MOL0     C29869   0.350   3.559   9.464 -0.1856  0.0520 -0.6857
  942MOL0     C29870   0.446   3.656   9.397  0.4406  0.9295  0.3691
  942MOL0     C29871   0.445   3.790   9.475  1.2999 -0.3662 -0.1438
  942MOL0     C29872   0.544   3.871   9.403  0.3241 -0.7155  0.4247
  942MOL0     C29873   0.573   4.001   9.476 -0.1547 -0.0913  0.2330
  942MOL0     C29874   0.676   3.976   9.582 -0.4548  0.2161  1.0833
  942MOL0     N29875   0.719   4.079   9.676 -0.4600  0.4659 -0.0113
  942MOL0     C29876   0.823   4.071   9.765  0.1591 -0.1029 -1.3017
  942MOL0     C29877   0.822   4.197   9.825  0.3919  0.8089  0.0394
  942MOL0     C29878   0.927   4.245   9.918  0.3803  0.4221 -0.8896
  942MOL0     C29879   1.005   4.356   9.843  0.7164  0.6961  0.0802
  942MOL0     C29880   1.116   4.417   9.930  0.2868  0.2009 -0.5979
  942MOL0     C29881   1.192   4.521   9.853 -0.3592 -0.0472  0.3844
  942MOL0     O29882   1.309   4.550   9.931 -0.2977 -0.2937 -0.8568
  942MOL0     C29883   1.407   4.635   9.876  0.8363 -0.2180 -1.5428
  942MOL0     C29884   1.501   4.693   9.965 -0.1113 -0.3090 -0.0926
  942MOL0     C29885   1.596   4.790   9.924 -0.7231  0.9037 -0.7384
  942MOL0     C29886   1.669   4.857  10.032 -0.6842 -0.2204  0.5400
  942MOL0     C29887   1.614   4.821   9.786  0.3107  0.3042 -0.7442
  942MOL0     C29888   1.712   4.915   9.728  0.8903 -0.0003 -0.0311
  942MOL0     O29889   1.667   4.987   9.624  0.2853 -0.6097 -0.2484
  942MOL0     C29890   1.735   5.100   9.585 -0.6279  0.1707  1.0705
  942MOL0     C29891   1.754   5.221   9.662  0.8013  0.5221  0.2046
  942MOL0     C29892   1.833   5.323   9.616 -0.3171 -0.2717 -0.1151
  942MOL0     C29893   1.891   5.326   9.489 -0.4098  0.1728  0.1651
  942MOL0     O29894   1.986   5.423   9.455 -0.5042 -0.5848 -0.1137
  942MOL0     C29895   2.084   5.459   9.551  0.2652  0.7268  0.3238
  942MOL0     C29896   2.220   5.493   9.485  0.2709  0.3627 -0.0471
  942MOL0     C29897   2.275   5.395   9.378  0.4577 -0.0081 -0.4356
  942MOL0     C29898   2.325   5.265   9.437 -0.5248 -0.1815 -0.9771
  942MOL0     C29899   2.347   5.146   9.341 -0.1601  0.1088  0.1774
  942MOL0     C29900   2.492   5.099   9.312 -0.4311  0.7524  0.5053
  942MOL0     C29901   2.589   5.121   9.427  0.7485 -0.4824 -0.3861
  942MOL0     C29902   2.725   5.062   9.404 -0.0622 -0.1759 -0.6052
  942MOL0    Cl29903   2.809   5.060   9.554  0.1316 -0.0873 -0.9676
  942MOL0     C29904   1.873   5.206   9.410 -1.5568 -0.3544 -1.1727
  942MOL0     C29905   1.797   5.096   9.456 -0.4250 -0.8584 -0.3136
  942MOL0     O29906   1.824   4.915   9.764 -0.5080 -0.0356 -0.8215
  942MOL0     C29907   1.513   4.771   9.693 -1.0497 -0.0475 -0.2365
  942MOL0     C29908   1.411   4.676   9.740  0.1979 -0.0408  0.2532
  942MOL0     N29909   0.718   4.273   9.774  0.5701 -0.1448  0.1189
  942MOL0     N29910   0.663   4.201   9.671 -0.5326 -0.1355 -0.3849
  942MOL0     C29911   0.754   3.332   9.491  0.8008 -0.2402  0.0063
  942MOL0     C29912   0.886   3.371   9.508  0.4528 -0.3399 -0.6986
  942MOL0     C29913   1.267   3.490   9.724 -0.5526 -0.1274  0.0329
  942MOL0     C29914   1.314   3.628   9.715  0.5525  0.5046 -0.4643
  942MOL0     C29915   1.453   3.639   9.715 -0.0159 -0.8353 -0.7139
  942MOL0     C29916   1.544   3.533   9.741  0.2878  0.6149  0.6174
  942MOL0     O29917   1.680   3.548   9.741  0.5283  0.1301 -0.6463
  942MOL0     C29918   1.738   3.669   9.786  0.0384 -0.2706 -0.4620
  942MOL0     C29919   1.688   3.726   9.919 -0.6292  0.0700 -0.7028
  942MOL0     C29920   1.804   3.760  10.017  0.7968 -0.9188 -0.7319
  942MOL0     C29921   1.755   3.862  10.124 -0.0232  0.1488  0.1107
  942MOL0     C29922   1.842   3.897  10.232  0.2694  0.6032  0.0102
  942MOL0     C29923   1.900   3.911  10.338 -0.4941  0.0989  0.2449
  942MOL0     C29924   1.490   3.401   9.745 -0.9618 -0.0402  1.1102
  942MOL0     C29925   1.355   3.375   9.737  0.4103  0.1096  0.2934
  942MOL0     C29926   1.307   3.234   9.759 -1.1282 -0.1278  0.3460
  942MOL0     H29927   0.846   3.613   9.741  2.1875  1.5407 -1.9380
  942MOL0     H29928   0.607   3.541   9.699  0.7104  0.4337  1.5154
  942MOL0     H29929   0.450   3.247   9.385  0.6995  0.3088 -2.9418
  942MOL0     H29930   0.538   3.387   9.329 -2.1630  1.4785 -0.5401
  942MOL0     H29931   0.318   3.445   9.284  2.8241  0.1733 -1.5690
  942MOL0     H29932   0.254   3.375   9.432  0.2889  0.5233  0.8885
  942MOL0     H29933   0.251   3.601   9.489  0.5319  0.2533  2.2535
  942MOL0     H29934   0.399   3.551   9.562 -0.7864 -0.4466 -0.4143
  942MOL0     H29935   0.546   3.612   9.395  0.2055  0.1522  2.8428
  942MOL0     H29936   0.429   3.666   9.289  1.6807  3.3248  0.3264
  942MOL0     H29937   0.469   3.766   9.579 -1.2365  1.0966  0.8690
  942MOL0     H29938   0.350   3.842   9.463  1.3067  0.0011  1.2459
  942MOL0     H29939   0.633   3.810   9.385 -0.0628 -0.4665 -2.9401
  942MOL0     H29940   0.508   3.903   9.305  0.2775  1.7791  1.2104
  942MOL0     H29941   0.479   4.029   9.525  0.4957  3.6611 -0.4189
  942MOL0     H29942   0.604   4.082   9.409  2.1000 -0.0862  1.1987
  942MOL0     H29943   0.655   3.880   9.630  3.6157 -1.5081 -0.1842
  942MOL0     H29944   0.775   3.967   9.538  0.4064  1.2641  2.6879
  942MOL0     H29945   0.883   3.981   9.771  2.5308  1.4000 -1.1567
  942MOL0     H29946   1.005   4.172   9.940  0.7708  1.3560  1.1016
  942MOL0     H29947   0.871   4.289  10.002 -1.7290 -2.3628 -0.6992
  942MOL0     H29948   1.050   4.310   9.754  2.2981 -0.6257  1.4812
  942MOL0     H29949   0.935   4.428   9.800  2.5758  1.9283 -1.0228
  942MOL0     H29950   1.083   4.463  10.023  1.2697 -1.8983  0.8530
  942MOL0     H29951   1.191   4.341   9.956  2.2201  1.9937 -0.6818
  942MOL0     H29952   1.230   4.476   9.761  0.3315  2.2279 -0.5210
  942MOL0     H29953   1.149   4.619   9.829 -0.2454 -0.0176  0.3032
  942MOL0     H29954   1.484   4.690  10.073 -3.5433  0.8480 -0.4568
  942MOL0     H29955   1.634   4.961  10.033  2.5590  1.0533 -1.7710
  942MOL0     H29956   1.775   4.844  10.012 -0.6216  1.1297 -0.1393
  942MOL0     H29957   1.650   4.818  10.132  2.2286  1.7759  2.0195
  942MOL0     H29958   1.717   5.222   9.764  1.7240 -5.0626  0.9346
  942MOL0     H29959   1.842   5.415   9.672 -3.0974  1.5266 -2.3985
  942MOL0     H29960   2.040   5.537   9.614  0.3876  2.7536 -1.9632
  942MOL0     H29961   2.105   5.370   9.611  3.4373  1.1872  0.0608
  942MOL0     H29962   2.204   5.590   9.437  1.8291 -0.4602 -2.4039
  942MOL0     H29963   2.290   5.498   9.568 -0.9395  3.1207  0.9267
  942MOL0     H29964   2.353   5.458   9.332  1.9034 -1.0153  0.5413
  942MOL0     H29965   2.193   5.379   9.307  1.3707  2.1610 -2.1314
  942MOL0     H29966   2.265   5.233   9.523  2.6773  1.3676  2.0377
  942MOL0     H29967   2.414   5.307   9.483 -0.6107  0.1813 -1.1471
  942MOL0     H29968   2.282   5.068   9.379  0.6889 -0.0884  1.2683
  942MOL0     H29969   2.300   5.167   9.244 -1.2762 -0.1943  0.6438
  942MOL0     H29970   2.532   5.172   9.241  2.5100 -0.9114  0.2655
  942MOL0     H29971   2.496   5.000   9.266 -0.4605  1.6560 -1.5614
  942MOL0     H29972   2.533   5.074   9.507  1.7695  0.8198  1.1585
  942MOL0     H29973   2.594   5.230   9.434  2.0378 -0.4871 -0.8797
  942MOL0     H29974   2.781   5.118   9.328  1.0273  1.6596  1.4352
  942MOL0     H29975   2.713   4.957   9.376  1.9470 -1.5459  3.0159
  942MOL0     H29976   1.919   5.199   9.311 -1.9318  0.5145 -1.4098
  942MOL0     H29977   1.786   5.009   9.392  4.4981 -2.0524  0.0459
  942MOL0     H29978   1.491   4.788   9.588 -0.5302  0.7585 -0.2195
  942MOL0     H29979   1.334   4.637   9.674 -0.1895 -2.2586  1.9099
  942MOL0     H29980   0.752   3.244   9.428  0.3972 -3.5055  4.1126
  942MOL0     H29981   0.967   3.317   9.460  2.7836  1.0415  1.3918
  942MOL0     H29982   1.242   3.705   9.691  0.1603 -0.0269 -1.0170
  942MOL0     H29983   1.483   3.742   9.699 -2.5370  0.2631  0.9408
  942MOL0     H29984   1.847   3.657   9.786  0.4019  0.9934 -5.3433
  942MOL0     H29985   1.725   3.747   9.710  0.4233 -1.8834 -2.2583
  942MOL0     H29986   1.646   3.642   9.975  2.6833 -0.9872  0.3841
  942MOL0     H29987   1.611   3.799   9.891 -0.8905 -0.7511 -2.2528
  942MOL0     H29988   1.840   3.670  10.067 -1.1139 -0.4347  1.7431
  942MOL0     H29989   1.892   3.801   9.967  2.2179 -3.2698 -0.2909
  942MOL0     H29990   1.661   3.825  10.165 -0.5758 -0.3300 -1.5022
  942MOL0     H29991   1.720   3.958  10.086 -0.4623 -0.2800 -0.5996
  942MOL0     H29992   1.940   3.903  10.437  0.6820  2.7190  0.0684
  942MOL0     H29993   1.558   3.316   9.747 -1.2747 -0.4101 -1.3278
  942MOL0     H29994   1.324   3.217   9.865  0.2398  0.4945  0.2528
  942MOL0     H29995   1.202   3.223   9.730 -0.9594  2.0600 -1.4355
  942MOL0     H29996   1.374   3.170   9.701  0.1651 -0.1354  1.7969
  943MOL0     O29997   3.473  11.124   8.908 -0.3718 -0.4700  0.4416
  943MOL0     C29998   3.569  11.183   8.967 -0.4808 -0.3874 -0.3586
  943MOL0     O29999   3.577  11.314   8.992  0.2428 -0.0537 -0.2478
  943MOL0     C30000   3.499  11.400   8.916  0.2199  0.7792 -0.4714
  943MOL0     C30001   3.393  11.466   8.977 -0.1054  0.2085  0.4733
  943MOL0     C30002   3.323  11.562   8.907  0.6138 -0.9491  0.3240
  943MOL0     C30003   3.350  11.605   8.779 -0.8701  0.4911  1.1327
  943MOL0     O30004   3.271  11.704   8.730 -0.1230  0.2663  0.0525
  943MOL0     C30005   3.313  11.766   8.607  0.5097 -0.0054  0.0590
  943MOL0     C30006   3.417  11.879   8.639  0.5318 -0.3729 -0.0052
  943MOL0     C30007   3.450  11.964   8.520 -0.3772  0.1642 -0.1586
  943MOL0     C30008   3.559  12.064   8.568  0.8298  0.1382  0.1908
  943MOL0     C30009   3.617  12.149   8.455 -0.6299 -0.0145 -0.2187
  943MOL0     C30010   3.516  12.234   8.380 -0.4476  0.5345 -0.2248
  943MOL0     C30011   3.404  12.304   8.464 -0.0658 -0.8374  0.1786
  943MOL0     C30012   3.454  12.425   8.534  0.2831 -1.3286 -0.0990
  943MOL0     N30013   3.552  12.510   8.465  0.2665  0.4685  0.7366
  943MOL0     C30014   3.523  12.619   8.382  0.2282 -0.4839  1.1657
  943MOL0     C30015   3.636  12.686   8.351 -0.2423  0.1967  0.1216
  943MOL0     C30016   3.644  12.791   8.242 -0.3731 -0.5738  0.5792
  943MOL0     C30017   3.726  12.913   8.284  0.4617 -1.0128 -0.2503
  943MOL0     C30018   3.635  13.040   8.271 -0.2177 -0.3224  0.6025
  943MOL0     C30019   3.532  13.055   8.393 -0.3340  0.3221  0.3588
  943MOL0     O30020   3.448  12.938   8.397 -0.2505  0.6914  0.5345
  943MOL0     C30021   3.331  12.957   8.465  0.9432  0.5882 -0.8238
  943MOL0     C30022   3.341  13.002   8.593 -0.1165  0.3418 -0.1257
  943MOL0     C30023   3.220  13.009   8.668 -0.3918 -0.2376  0.1776
  943MOL0     C30024   3.260  13.034   8.811  0.9813 -0.0909  0.0274
  943MOL0     C30025   3.095  12.986   8.615  0.7312 -0.1404 -0.6852
  943MOL0     C30026   2.970  13.002   8.692  1.0661 -0.3875 -0.0854
  943MOL0     O30027   2.863  12.967   8.623 -0.1454 -0.5421  0.7397
  943MOL0     C30028   2.736  13.001   8.659  1.0617  0.0514 -0.1586
  943MOL0     C30029   2.646  12.938   8.564  0.3056 -0.0402 -0.8955
  943MOL0     C30030   2.509  12.955   8.574  0.5056 -0.7652  0.0885
  943MOL0     C30031   2.460  13.039   8.672 -0.0573 -0.0721  0.3904
  943MOL0     O30032   2.321  13.044   8.697  0.1943  0.1190 -0.0903
  943MOL0     C30033   2.256  13.173   8.707 -0.6102  0.0869  0.0696
  943MOL0     C30034   2.100  13.165   8.726 -0.3502 -0.2086  0.1404
  943MOL0     C30035   2.033  13.294   8.771  0.7970  0.0399  0.5051
  943MOL0     C30036   2.000  13.370   8.642  0.1254  0.0243 -0.0805
  943MOL0     C30037   1.962  13.511   8.672 -0.1705 -0.5795 -0.0392
  943MOL0     C30038   1.909  13.595   8.563 -0.2194  0.3290 -0.2379
  943MOL0     C30039   1.763  13.589   8.560 -0.5287  0.0430 -0.4754
  943MOL0     C30040   1.695  13.668   8.451 -0.5002 -1.1292 -0.2344
  943MOL0    Cl30041   1.519  13.644   8.458  0.2351 -0.2336  0.0415
  943MOL0     C30042   2.549  13.101   8.768  0.1261  0.2717  0.3675
  943MOL0     C30043   2.681  13.078   8.758 -0.6837  0.5658  0.4178
  943MOL0     O30044   2.969  13.077   8.791  0.4508 -0.9315  0.1128
  943MOL0     C30045   3.089  12.940   8.484  0.2928  0.4797  0.6136
  943MOL0     C30046   3.206  12.928   8.408 -0.4927  0.9369 -0.7697
  943MOL0     N30047   3.740  12.621   8.433 -0.2203 -0.2869  0.0699
  943MOL0     N30048   3.689  12.514   8.496 -0.2449 -0.0751  0.1767
  943MOL0     C30049   3.446  11.531   8.705 -0.3260 -1.3176  0.4615
  943MOL0     C30050   3.514  11.430   8.777 -0.3967  0.1278  0.4307
  943MOL0     C30051   3.668  11.088   9.020 -0.8516  0.5166 -0.1051
  943MOL0     C30052   3.727  10.995   8.927 -0.7118  0.1358  0.2137
  943MOL0     C30053   3.827  10.909   8.971 -1.0269 -0.8465 -0.6071
  943MOL0     C30054   3.878  10.915   9.099  0.3512 -0.3141 -1.0318
  943MOL0     O30055   3.989  10.843   9.140  0.1752  0.3472  0.0037
  943MOL0     C30056   3.965  10.761   9.254 -0.1556 -0.2745 -0.6263
  943MOL0     C30057   4.014  10.616   9.225  0.9963  0.1426  0.4556
  943MOL0     C30058   4.104  10.578   9.334  0.1221 -0.3462  0.1048
  943MOL0     C30059   4.151  10.438   9.336 -0.6550  1.2440  0.0862
  943MOL0     C30060   4.276  10.434   9.398 -0.1506 -0.1138 -0.5420
  943MOL0     C30061   4.396  10.446   9.441  0.5205  0.4961  0.8209
  943MOL0     C30062   3.819  11.011   9.190 -0.2706  0.1721  0.7763
  943MOL0     C30063   3.714  11.091   9.156  0.5341  0.1138  0.4818
  943MOL0     C30064   3.655  11.194   9.260 -0.1813 -0.5541  0.6193
  943MOL0     H30065   3.362  11.441   9.078 -1.4409 -2.5970 -0.5555
  943MOL0     H30066   3.246  11.621   8.957  0.2279 -1.8554  0.8223
  943MOL0     H30067   3.224  11.822   8.580  1.5254  1.9726  0.6181
  943MOL0     H30068   3.335  11.698   8.524  2.9673 -1.6419  1.9123
  943MOL0     H30069   3.375  11.945   8.716  3.4476  2.7992 -0.9063
  943MOL0     H30070   3.501  11.836   8.693 -0.0817  0.1335  1.3944
  943MOL0     H30071   3.490  11.898   8.443 -0.4135  2.0031 -1.8330
  943MOL0     H30072   3.358  12.002   8.475  0.2903 -1.1921 -2.8722
  943MOL0     H30073   3.525  12.128   8.649 -0.6023 -0.6273  0.2297
  943MOL0     H30074   3.647  12.012   8.609  2.6045  3.5046  1.0457
  943MOL0     H30075   3.658  12.090   8.373 -0.6572 -0.7228  0.2622
  943MOL0     H30076   3.699  12.199   8.507 -0.3981  1.2643 -1.7394
  943MOL0     H30077   3.578  12.300   8.318  1.2111 -0.7628 -0.0254
  943MOL0     H30078   3.470  12.159   8.316  0.2361 -1.0561  1.0606
  943MOL0     H30079   3.368  12.234   8.539 -0.0561  0.1485  1.1232
  943MOL0     H30080   3.315  12.339   8.411  0.7608  3.7415  1.3663
  943MOL0     H30081   3.376  12.496   8.563  0.1496 -0.1295 -3.0622
  943MOL0     H30082   3.503  12.411   8.631 -0.8802  2.3963  1.2078
  943MOL0     H30083   3.426  12.647   8.343  0.2556  0.7117  1.9158
  943MOL0     H30084   3.545  12.825   8.212  0.5946  1.9185  0.0197
  943MOL0     H30085   3.688  12.743   8.154 -0.6999  0.2325 -0.0357
  943MOL0     H30086   3.753  12.904   8.390 -3.8221 -0.7457  1.0838
  943MOL0     H30087   3.814  12.916   8.220 -0.3352 -0.2095 -1.3347
  943MOL0     H30088   3.706  13.123   8.261  0.0602 -0.7105 -0.7847
  943MOL0     H30089   3.582  13.047   8.176 -0.8233  1.3121  1.0110
  943MOL0     H30090   3.589  13.061   8.487  2.9699 -0.1716 -1.4831
  943MOL0     H30091   3.472  13.146   8.378  0.0742  0.6131  0.4707
  943MOL0     H30092   3.438  13.017   8.639 -0.6152  1.0154  0.7327
  943MOL0     H30093   3.225  12.953   8.876  0.7321 -0.7890 -0.9664
  943MOL0     H30094   3.227  13.134   8.841 -0.6214  0.5862 -3.5107
  943MOL0     H30095   3.369  13.040   8.818  1.2069  1.5565 -3.3245
  943MOL0     H30096   2.674  12.862   8.492 -2.6420 -4.1066  1.7980
  943MOL0     H30097   2.447  12.907   8.499  0.6775  1.4272 -1.5714
  943MOL0     H30098   2.298  13.217   8.798  0.0912 -1.6989  0.6484
  943MOL0     H30099   2.270  13.221   8.610 -2.6164  0.1070 -0.2475
  943MOL0     H30100   2.061  13.120   8.634  1.7163 -3.0553  0.5083
  943MOL0     H30101   2.083  13.098   8.811  0.2872  1.7600  1.9115
  943MOL0     H30102   2.103  13.344   8.839 -2.8851  2.7868  2.6004
  943MOL0     H30103   1.940  13.280   8.826  0.4915 -3.4932 -0.6165
  943MOL0     H30104   1.913  13.329   8.590 -0.4893  0.7077  0.3890
  943MOL0     H30105   2.080  13.387   8.569 -0.7654 -1.0989 -1.3782
  943MOL0     H30106   1.909  13.524   8.767  0.6518 -0.7904  0.4586
  943MOL0     H30107   2.059  13.557   8.692  0.5168 -1.1683 -1.8359
  943MOL0     H30108   1.955  13.562   8.470  0.8569 -3.2637  1.4042
  943MOL0     H30109   1.935  13.700   8.578 -0.0107 -0.0933  3.1564
  943MOL0     H30110   1.722  13.627   8.654 -1.9188  1.2649 -1.5232
  943MOL0     H30111   1.721  13.487   8.561 -1.1802  0.1789  3.5367
  943MOL0     H30112   1.722  13.631   8.352  1.9716 -1.3373  0.4369
  943MOL0     H30113   1.724  13.773   8.450 -0.2609 -1.2017 -1.0374
  943MOL0     H30114   2.521  13.160   8.854  0.8663  3.3810 -1.3731
  943MOL0     H30115   2.745  13.120   8.835  0.8485  1.0538 -1.0589
  943MOL0     H30116   2.993  12.928   8.434  0.0911  0.4629  1.0003
  943MOL0     H30117   3.193  12.901   8.304  0.4037 -0.2145 -0.5913
  943MOL0     H30118   3.466  11.549   8.600  0.5049 -3.9421  0.0852
  943MOL0     H30119   3.595  11.377   8.727  0.5893 -0.6777  2.7193
  943MOL0     H30120   3.691  11.002   8.825 -3.3867 -1.9010  0.8777
  943MOL0     H30121   3.881  10.850   8.897  3.2500  1.1959  0.5360
  943MOL0     H30122   4.010  10.806   9.343 -1.8429  0.6788 -0.2072
  943MOL0     H30123   3.860  10.760   9.285 -0.2061  4.8072  0.1323
  943MOL0     H30124   4.054  10.608   9.124  0.3326 -2.5792  0.3272
  943MOL0     H30125   3.921  10.558   9.226  0.5896  0.7349 -0.9700
  943MOL0     H30126   4.188  10.648   9.333 -0.9508  1.3285  4.4885
  943MOL0     H30127   4.071  10.606   9.434  4.1554  3.5182  0.6983
  943MOL0     H30128   4.156  10.395   9.236  1.0955  2.3993 -0.3764
  943MOL0     H30129   4.094  10.376   9.405 -2.4118  1.9971 -0.6311
  943MOL0     H30130   4.494  10.450   9.484 -0.0944 -3.1168  2.9849
  943MOL0     H30131   3.854  11.030   9.291 -2.0442 -0.6719  1.5922
  943MOL0     H30132   3.698  11.291   9.235 -0.7466 -0.1234  1.2810
  943MOL0     H30133   3.547  11.206   9.246 -0.1277  1.5319  1.6400
  943MOL0     H30134   3.675  11.186   9.367 -0.8866  1.3822  0.9291
  944MOL0     O30135   1.543  10.953   0.072  0.0582 -0.4285  0.0492
  944MOL0     C30136   1.432  10.984   0.022 -0.6616  0.2503 -0.2782
  944MOL0     O30137   1.383  10.954  -0.103 -0.0493 -0.6138 -0.1825
  944MOL0     C30138   1.444  10.875  -0.200  0.0324 -0.8364  0.6336
  944MOL0     C30139   1.422  10.909  -0.334  0.1046  0.5586 -0.8037
  944MOL0     C30140   1.503  10.844  -0.435  0.0077 -0.2915 -0.2985
  944MOL0     C30141   1.592  10.736  -0.406 -0.1689  0.0248  1.1374
  944MOL0     O30142   1.664  10.680  -0.501 -0.1420 -0.0146  0.3832
  944MOL0     C30143   1.675  10.539  -0.504  0.1741 -0.9368  0.0013
  944MOL0     C30144   1.710  10.499  -0.645 -0.1605 -0.0411 -0.7477
  944MOL0     C30145   1.678  10.348  -0.658 -0.3126  0.0864  0.1558
  944MOL0     C30146   1.703  10.279  -0.801 -0.4888  0.3164 -0.2864
  944MOL0     C30147   1.649  10.132  -0.794  0.5631  1.1019  0.2172
  944MOL0     C30148   1.700  10.043  -0.671 -0.7056 -0.8550  0.4378
  944MOL0     C30149   1.669   9.893  -0.698  0.0248 -0.0895 -0.5564
  944MOL0     C30150   1.740   9.794  -0.596  0.3392 -0.6622  0.2373
  944MOL0     N30151   1.695   9.812  -0.456 -0.0411  0.4715  0.3680
  944MOL0     C30152   1.760   9.908  -0.377  0.3505 -0.2801 -0.1212
  944MOL0     C30153   1.675   9.922  -0.268 -0.8981  0.3469  0.7055
  944MOL0     C30154   1.709   9.987  -0.145  0.2940 -0.8646 -0.5169
  944MOL0     C30155   1.621   9.956  -0.024  0.5484 -0.4289  0.1858
  944MOL0     C30156   1.644   9.807   0.028 -0.0502  0.2851 -1.1483
  944MOL0     C30157   1.782   9.783   0.085  0.5106 -0.6398  0.2079
  944MOL0     O30158   1.811   9.879   0.189 -0.4401  0.1331  0.2508
  944MOL0     C30159   1.936   9.889   0.244  0.0484  0.2045 -0.4066
  944MOL0     C30160   1.955   9.978   0.354  0.4203  0.6959 -0.1541
  944MOL0     C30161   2.083  10.003   0.407  0.7420 -0.8943 -0.0553
  944MOL0     C30162   2.083  10.094   0.528  0.3271 -0.0631  0.1320
  944MOL0     C30163   2.195   9.926   0.357 -0.0658 -0.0578 -0.4980
  944MOL0     C30164   2.320   9.936   0.422  0.3613 -0.3115  0.3064
  944MOL0     O30165   2.348  10.032   0.512  0.3608  0.5809  0.3657
  944MOL0     C30166   2.477  10.055   0.550 -0.6891 -0.0305 -0.3026
  944MOL0     C30167   2.575   9.960   0.593  0.4962  0.0366 -0.4113
  944MOL0     C30168   2.694  10.013   0.653 -0.4026 -0.3799  0.2392
  944MOL0     C30169   2.726  10.150   0.635 -0.3549  0.1572 -0.9335
  944MOL0     O30170   2.842  10.212   0.672  0.9593 -0.2341  0.0314
  944MOL0     C30171   2.953  10.125   0.711 -0.6363  0.1955 -0.0269
  944MOL0     C30172   3.017  10.035   0.596 -0.9361 -0.3125 -0.2743
  944MOL0     C30173   3.122   9.939   0.657  0.5773  0.0218  0.5378
  944MOL0     C30174   3.196   9.877   0.533 -1.0089  0.0015  0.6844
  944MOL0     C30175   3.286   9.753   0.569 -0.8075 -1.0149 -0.5311
  944MOL0     C30176   3.385   9.798   0.674  0.1917 -0.4452  0.6715
  944MOL0     C30177   3.479   9.683   0.707  0.5725  0.0049  0.1930
  944MOL0     C30178   3.537   9.703   0.847  0.7792 -0.1866  0.1459
  944MOL0    Cl30179   3.414   9.693   0.978 -0.4528  0.0697  0.0351
  944MOL0     C30180   2.633  10.233   0.582  0.8850 -0.0610  0.4299
  944MOL0     C30181   2.510  10.191   0.545 -0.0581  0.4341  0.0128
  944MOL0     O30182   2.408   9.867   0.366  0.5905  0.6886  0.3408
  944MOL0     C30183   2.173   9.849   0.236 -0.6738  0.5501 -0.6118
  944MOL0     C30184   2.050   9.825   0.185 -0.8142 -0.3912  0.3126
  944MOL0     N30185   1.564   9.851  -0.291  0.5016  0.0396  0.3213
  944MOL0     N30186   1.572   9.786  -0.401  0.2405  0.1662  0.2174
  944MOL0     C30187   1.611  10.707  -0.271  0.1552  0.0125 -0.0183
  944MOL0     C30188   1.542  10.778  -0.178  0.7157 -0.4247 -0.1737
  944MOL0     C30189   1.340  11.082   0.092 -0.5073  0.3930  0.5523
  944MOL0     C30190   1.239  11.160   0.024  0.1242  1.2630 -0.0894
  944MOL0     C30191   1.157  11.254   0.092  0.4989 -0.5436 -0.2113
  944MOL0     C30192   1.184  11.274   0.230 -0.9655  0.8970  0.1487
  944MOL0     O30193   1.120  11.382   0.296  0.0212  0.2762 -0.2529
  944MOL0     C30194   1.125  11.391   0.442  0.0160  0.0314 -0.9323
  944MOL0     C30195   1.020  11.489   0.489 -0.3371  0.3042 -0.6805
  944MOL0     C30196   0.984  11.469   0.641 -0.2845 -0.5582  1.1409
  944MOL0     C30197   0.879  11.565   0.690 -0.3685 -0.3910  0.4942
  944MOL0     C30198   0.924  11.698   0.712  0.9850 -0.0183  1.6558
  944MOL0     C30199   0.968  11.811   0.732  0.4232 -0.3269  0.4830
  944MOL0     C30200   1.278  11.191   0.297  0.6425 -0.7567 -0.3684
  944MOL0     C30201   1.352  11.097   0.234  0.4212  0.2228  0.3300
  944MOL0     C30202   1.427  10.997   0.318  0.3019 -0.0766  1.3470
  944MOL0     H30203   1.345  10.980  -0.363 -0.2762  0.0654 -1.0275
  944MOL0     H30204   1.494  10.873  -0.539  0.5277  1.5989  0.1465
  944MOL0     H30205   1.574  10.507  -0.478  0.3482 -0.2608  1.6375
  944MOL0     H30206   1.739  10.514  -0.419  2.0405  1.6075 -0.5461
  944MOL0     H30207   1.657  10.554  -0.723  2.1963  0.9837 -1.7475
  944MOL0     H30208   1.815  10.517  -0.670  0.6128 -2.1443  0.6835
  944MOL0     H30209   1.752  10.292  -0.599 -0.9695 -0.6496  0.2996
  944MOL0     H30210   1.578  10.328  -0.620 -0.5039 -2.1205 -1.2828
  944MOL0     H30211   1.656  10.335  -0.881  1.4706  0.2011 -1.5964
  944MOL0     H30212   1.807  10.283  -0.836  0.7784  0.5522  3.1170
  944MOL0     H30213   1.654  10.087  -0.894  2.6752 -0.0101  0.7441
  944MOL0     H30214   1.543  10.144  -0.771  0.0400 -1.0959 -0.7701
  944MOL0     H30215   1.810  10.048  -0.667 -0.6885 -0.4575 -0.2359
  944MOL0     H30216   1.651  10.068  -0.577  1.0758 -4.4168  2.5225
  944MOL0     H30217   1.693   9.861  -0.800  1.8099 -1.3943  0.2291
  944MOL0     H30218   1.562   9.869  -0.693  0.2612 -1.1124 -0.0950
  944MOL0     H30219   1.712   9.694  -0.630 -0.2446  0.3949 -2.7323
  944MOL0     H30220   1.849   9.805  -0.599  0.2953  0.5979 -3.9963
  944MOL0     H30221   1.860   9.948  -0.391  0.2955 -0.0191  0.2378
  944MOL0     H30222   1.708  10.096  -0.146  0.4097 -0.8245  1.0553
  944MOL0     H30223   1.815   9.971  -0.125  0.8787  1.9669 -0.8985
  944MOL0     H30224   1.638  10.033   0.051 -1.8261  1.7426 -1.3415
  944MOL0     H30225   1.515   9.967  -0.050  0.3197 -0.4951  1.0859
  944MOL0     H30226   1.562   9.798   0.100  0.4668  0.2413 -0.5622
  944MOL0     H30227   1.637   9.740  -0.059 -2.4684 -2.0122  0.6651
  944MOL0     H30228   1.796   9.683   0.128 -2.0470 -0.5679  1.3767
  944MOL0     H30229   1.861   9.788   0.009  0.4928  2.8620  0.2786
  944MOL0     H30230   1.877  10.034   0.403  1.3348 -0.5369  2.9865
  944MOL0     H30231   2.102  10.197   0.500 -2.7077  1.6662  3.5435
  944MOL0     H30232   2.146  10.063   0.612  2.2879  0.5947 -1.0250
  944MOL0     H30233   1.980  10.099   0.565 -0.2560 -1.5769 -1.1650
  944MOL0     H30234   2.550   9.855   0.594 -1.6880  0.5028  0.7674
  944MOL0     H30235   2.765   9.942   0.694 -1.7181 -0.7782  1.9376
  944MOL0     H30236   3.028  10.191   0.755  0.2865 -1.5154  1.0885
  944MOL0     H30237   2.926  10.065   0.799  1.3884  0.4347  0.8018
  944MOL0     H30238   2.942   9.978   0.540  0.1317 -0.7427 -1.3347
  944MOL0     H30239   3.072  10.106   0.533 -2.2446 -0.6537 -1.8596
  944MOL0     H30240   3.077   9.849   0.701  3.8195 -2.1941 -0.3190
  944MOL0     H30241   3.186   9.987   0.731  0.5066 -3.0677  2.8030
  944MOL0     H30242   3.270   9.950   0.499  0.0024 -0.1974  2.3108
  944MOL0     H30243   3.126   9.857   0.452 -1.1457  0.5217  0.6693
  944MOL0     H30244   3.224   9.670   0.602 -1.3012  0.0116  1.2715
  944MOL0     H30245   3.339   9.734   0.475 -0.9870  1.5376 -1.2363
  944MOL0     H30246   3.332   9.834   0.763 -1.9592  2.3350 -1.5495
  944MOL0     H30247   3.445   9.881   0.636  1.5673 -0.8616  1.8571
  944MOL0     H30248   3.559   9.678   0.633 -2.2936 -0.1267 -3.1350
  944MOL0     H30249   3.424   9.588   0.707 -0.1199  0.1964  4.5449
  944MOL0     H30250   3.590   9.798   0.860  2.5470 -1.0383 -0.5453
  944MOL0     H30251   3.617   9.629   0.855  0.7534 -0.5501 -2.2365
  944MOL0     H30252   2.654  10.338   0.563  0.4140 -0.2927 -1.5479
  944MOL0     H30253   2.434  10.257   0.508 -2.0012 -1.2083  0.8444
  944MOL0     H30254   2.258   9.797   0.192  2.7682  5.0514  0.0223
  944MOL0     H30255   2.056   9.776   0.089  1.1953 -0.0784  0.2273
  944MOL0     H30256   1.677  10.622  -0.253 -0.0788  0.2091  2.0389
  944MOL0     H30257   1.564  10.764  -0.073 -0.7676 -1.1920  0.0676
  944MOL0     H30258   1.209  11.140  -0.078 -0.7043 -1.0864  0.5520
  944MOL0     H30259   1.072  11.303   0.045  2.1476  2.3238 -0.4595
  944MOL0     H30260   1.089  11.297   0.484  0.2934  0.9774  1.6028
  944MOL0     H30261   1.221  11.419   0.486 -2.1996  2.4477  2.8930
  944MOL0     H30262   0.932  11.469   0.426  0.7595  2.7291 -3.2174
  944MOL0     H30263   1.041  11.594   0.464 -1.1333  0.1031 -2.3107
  944MOL0     H30264   0.941  11.369   0.650  1.4744 -1.3497  1.1599
  944MOL0     H30265   1.073  11.477   0.705  1.4827 -0.5708 -1.1849
  944MOL0     H30266   0.842  11.523   0.784  0.3537 -1.2760  0.3922
  944MOL0     H30267   0.796  11.557   0.619  1.1783 -0.2927 -1.4246
  944MOL0     H30268   0.991  11.914   0.721 -5.1729  1.2758  0.5307
  944MOL0     H30269   1.299  11.205   0.403 -2.6823  0.6416  0.2678
  944MOL0     H30270   1.536  11.007   0.330  0.2699 -1.1339  2.6902
  944MOL0     H30271   1.398  10.993   0.423  1.2851 -4.3392  1.6405
  944MOL0     H30272   1.414  10.894   0.283  3.2202  0.3075 -1.3322
  945MOL0     O30273   8.740   8.294   8.452 -0.4154 -0.1044  0.5506
  945MOL0     C30274   8.765   8.179   8.469 -0.0234 -0.4931  0.2215
  945MOL0     O30275   8.887   8.126   8.441 -0.3096 -0.5250  0.0255
  945MOL0     C30276   8.997   8.210   8.427 -1.0882  0.9677 -0.5261
  945MOL0     C30277   9.076   8.234   8.541 -0.2404  0.0109  0.5129
  945MOL0     C30278   9.196   8.310   8.515 -0.2560  0.6644  0.0473
  945MOL0     C30279   9.225   8.360   8.395 -0.6956  0.0101  0.4063
  945MOL0     O30280   9.334   8.442   8.404 -0.0430 -0.0303 -0.1321
  945MOL0     C30281   9.398   8.480   8.279  0.2646  0.1917  0.3896
  945MOL0     C30282   9.531   8.555   8.303 -0.3614 -0.0596  0.4462
  945MOL0     C30283   9.626   8.463   8.380 -0.1939  1.4468 -0.0639
  945MOL0     C30284   9.759   8.535   8.412 -0.5346  0.0740 -0.3002
  945MOL0     C30285   9.860   8.423   8.465  0.5619  0.3648 -0.7181
  945MOL0     C30286   9.984   8.491   8.530  0.6072 -0.1734 -0.5280
  945MOL0     C30287  10.057   8.382   8.606  0.9333 -0.3834  0.5034
  945MOL0     C30288  10.188   8.422   8.672  0.0285  0.6482  1.0227
  945MOL0     N30289  10.187   8.532   8.769 -0.1593  0.3603  0.5777
  945MOL0     C30290  10.224   8.666   8.740 -0.8342  0.3558 -0.6967
  945MOL0     C30291  10.235   8.720   8.864  0.0636  0.3938 -0.2001
  945MOL0     C30292  10.287   8.858   8.896  0.0387  0.2571  0.0411
  945MOL0     C30293  10.380   8.863   9.016  0.8096  0.7160 -0.2153
  945MOL0     C30294  10.450   9.000   9.038  0.6862 -0.1042  0.1894
  945MOL0     C30295  10.574   8.989   9.127  0.8938  0.5574  0.1093
  945MOL0     O30296  10.510   8.977   9.263  0.8122 -0.1648 -0.1316
  945MOL0     C30297  10.556   9.059   9.364  0.4808  0.6269  0.2455
  945MOL0     C30298  10.663   9.148   9.364 -0.4676  0.2503 -0.7356
  945MOL0     C30299  10.707   9.229   9.472  0.4888 -0.0758 -0.3644
  945MOL0     C30300  10.827   9.309   9.450  0.3826 -0.1536  1.0833
  945MOL0     C30301  10.637   9.222   9.591 -0.3386 -0.3737  0.0274
  945MOL0     C30302  10.675   9.300   9.714 -0.3361 -0.0950 -0.2233
  945MOL0     O30303  10.783   9.388   9.713  0.7114 -0.0369  0.2396
  945MOL0     C30304  10.840   9.452   9.828  0.2188  1.0521  0.5660
  945MOL0     C30305  10.828   9.393   9.960  0.2817  0.6030  1.0443
  945MOL0     C30306  10.880   9.476  10.062  0.4914  1.0916 -0.6326
  945MOL0     C30307  10.933   9.602  10.046 -0.0518  0.0480  0.2679
  945MOL0     O30308  11.007   9.667  10.142  0.3206  0.2984  0.1576
  945MOL0     C30309  11.005   9.606  10.275 -0.0604  0.0427 -0.9031
  945MOL0     C30310  11.094   9.688  10.371 -0.0447  0.3929 -0.3371
  945MOL0     C30311  11.084   9.612  10.513 -0.2991  0.2482  0.7045
  945MOL0     C30312  11.206   9.514  10.514 -0.6720 -0.3606  0.1355
  945MOL0     C30313  11.249   9.478  10.660  0.4514  0.2011 -0.2458
  945MOL0     C30314  11.321   9.602  10.720  0.3576 -0.0913  0.3251
  945MOL0     C30315  11.363   9.590  10.865  0.0734  0.0879  0.8097
  945MOL0     C30316  11.429   9.718  10.913  0.3068  0.3269 -0.4479
  945MOL0    Cl30317  11.415   9.728  11.094 -0.5891  0.1033  0.0411
  945MOL0     C30318  10.951   9.653   9.912  0.8910  0.0015 -0.5761
  945MOL0     C30319  10.905   9.575   9.812 -0.5022  0.6049  0.3844
  945MOL0     O30320  10.607   9.269   9.814  0.3051  0.1141  0.3111
  945MOL0     C30321  10.531   9.127   9.593  0.6288 -0.4103  0.9301
  945MOL0     C30322  10.487   9.050   9.485 -0.1906 -0.4540  0.3013
  945MOL0     N30323  10.186   8.627   8.958 -0.2844 -0.0065 -0.4723
  945MOL0     N30324  10.157   8.517   8.901  0.4390 -0.1025 -0.1663
  945MOL0     C30325   9.144   8.333   8.280  0.2767  0.0865 -0.0265
  945MOL0     C30326   9.031   8.253   8.297 -0.0102  0.3734 -0.0253
  945MOL0     C30327   8.649   8.093   8.516 -0.4340 -0.6005 -0.7478
  945MOL0     C30328   8.522   8.157   8.544 -0.5958  0.0244 -0.2361
  945MOL0     C30329   8.409   8.089   8.591 -1.0874 -0.0724 -1.1725
  945MOL0     C30330   8.421   7.960   8.634 -0.3668 -0.6707  1.5126
  945MOL0     O30331   8.304   7.908   8.668  0.4443  0.1715  0.4036
  945MOL0     C30332   8.304   7.777   8.730  0.1493 -0.7712  0.1933
  945MOL0     C30333   8.192   7.782   8.844 -0.2424 -0.1310  0.0523
  945MOL0     C30334   8.052   7.744   8.790  1.0907 -0.4792  0.2924
  945MOL0     C30335   8.007   7.826   8.669  0.4933  1.4182  0.0852
  945MOL0     C30336   7.858   7.815   8.673 -0.5221  1.1112 -0.1456
  945MOL0     C30337   7.738   7.814   8.658  0.5267  0.9107 -0.2621
  945MOL0     C30338   8.547   7.892   8.614  0.2128  0.2220 -0.0302
  945MOL0     C30339   8.656   7.957   8.546  0.7545  0.5846  0.0555
  945MOL0     C30340   8.781   7.869   8.522  0.3498 -0.2684  0.0812
  945MOL0     H30341   9.057   8.185   8.635  1.0831 -0.1943  0.6976
  945MOL0     H30342   9.264   8.318   8.599  1.1245  1.8528 -1.1158
  945MOL0     H30343   9.337   8.551   8.221  2.2298  3.3258  1.9001
  945MOL0     H30344   9.415   8.390   8.220 -3.4653 -0.9473  0.8262
  945MOL0     H30345   9.585   8.589   8.214 -1.0540 -0.8207 -0.2962
  945MOL0     H30346   9.516   8.645   8.363 -3.8032 -0.3733  0.2807
  945MOL0     H30347   9.586   8.428   8.475  3.2851  1.3576  1.5379
  945MOL0     H30348   9.649   8.373   8.321 -0.8981  0.9187  0.4510
  945MOL0     H30349   9.800   8.580   8.321  0.0808 -1.6057 -0.9005
  945MOL0     H30350   9.738   8.612   8.487  2.5794  1.0550 -0.2689
  945MOL0     H30351   9.891   8.367   8.376  0.1495 -2.7192  0.9273
  945MOL0     H30352   9.805   8.353   8.529 -0.0994  1.8135  0.3524
  945MOL0     H30353  10.050   8.542   8.459 -1.2672  0.9742 -1.5401
  945MOL0     H30354   9.953   8.566   8.604  3.1187 -0.5676  1.0333
  945MOL0     H30355  10.075   8.307   8.529 -2.8781  0.6600 -1.6918
  945MOL0     H30356   9.987   8.341   8.680  0.6372  2.3659  1.8658
  945MOL0     H30357  10.240   8.336   8.714  0.1332  0.1128 -0.1593
  945MOL0     H30358  10.248   8.450   8.585 -0.2313  3.2116  1.5685
  945MOL0     H30359  10.260   8.700   8.644 -2.2516 -0.5373 -1.5809
  945MOL0     H30360  10.201   8.916   8.931  0.3092  1.0150 -0.5212
  945MOL0     H30361  10.334   8.900   8.807 -0.4574  1.7203  0.4370
  945MOL0     H30362  10.322   8.839   9.105  1.7238  2.1851  0.8233
  945MOL0     H30363  10.455   8.784   9.009  0.5429  0.4940 -0.5928
  945MOL0     H30364  10.479   9.038   8.939  1.6396 -2.6057 -0.5613
  945MOL0     H30365  10.381   9.065   9.091  0.0622 -3.7508  4.4049
  945MOL0     H30366  10.641   8.903   9.113  0.6172  0.7742 -3.4831
  945MOL0     H30367  10.639   9.077   9.122  0.0452  1.4568  3.0528
  945MOL0     H30368  10.731   9.143   9.279  2.1134 -0.7495  1.2502
  945MOL0     H30369  10.784   9.408   9.434 -3.6355 -1.3759  2.9022
  945MOL0     H30370  10.881   9.275   9.361  0.8264  0.9466  0.9170
  945MOL0     H30371  10.911   9.304   9.520  3.1724 -3.4569 -2.0856
  945MOL0     H30372  10.781   9.297   9.979  2.5856 -1.3941 -2.2744
  945MOL0     H30373  10.888   9.424  10.157  2.4356 -0.5278 -1.6167
  945MOL0     H30374  10.901   9.594  10.307  0.3967 -1.4097  0.1660
  945MOL0     H30375  11.047   9.505  10.270  1.2929  0.5655 -0.5309
  945MOL0     H30376  11.194   9.694  10.328 -0.5028 -0.4556 -1.5941
  945MOL0     H30377  11.055   9.789  10.383 -0.8715 -0.1176  1.6744
  945MOL0     H30378  10.988   9.562  10.518 -1.4049  2.1794 -0.0699
  945MOL0     H30379  11.087   9.681  10.598  2.3676  3.2681 -1.5722
  945MOL0     H30380  11.293   9.565  10.470 -1.7935  2.6547  1.1337
  945MOL0     H30381  11.200   9.429  10.446  1.0666  0.5906 -1.2972
  945MOL0     H30382  11.167   9.454  10.729  0.7506 -0.3567 -0.0784
  945MOL0     H30383  11.319   9.394  10.662  0.0396 -0.1931 -1.4983
  945MOL0     H30384  11.255   9.689  10.720 -0.0325 -0.2563  3.9196
  945MOL0     H30385  11.413   9.620  10.664 -0.0713  0.5091 -0.1959
  945MOL0     H30386  11.445   9.518  10.876  0.3204  0.4733  1.5835
  945MOL0     H30387  11.279   9.568  10.931 -1.7644  1.8006 -0.8162
  945MOL0     H30388  11.370   9.802  10.875 -0.6858 -0.8722 -1.6737
  945MOL0     H30389  11.531   9.726  10.874  1.5446  2.6967  2.8426
  945MOL0     H30390  11.012   9.740   9.892 -0.8405  1.6420  0.9652
  945MOL0     H30391  10.918   9.620   9.714 -0.7710 -1.2367 -0.5365
  945MOL0     H30392  10.480   9.112   9.688  1.1333  1.0394  1.4594
  945MOL0     H30393  10.407   8.977   9.484  1.3062 -2.1749  0.0698
  945MOL0     H30394   9.159   8.375   8.181  1.2275 -2.3461 -0.9924
  945MOL0     H30395   8.952   8.235   8.225 -0.2026 -0.5002  0.3918
  945MOL0     H30396   8.512   8.265   8.543  0.1740  0.0989 -0.2944
  945MOL0     H30397   8.314   8.141   8.593  0.5478  3.2712 -2.3915
  945MOL0     H30398   8.279   7.694   8.663  1.4242  0.7664 -2.3381
  945MOL0     H30399   8.401   7.746   8.770 -0.2464 -1.0257  0.9705
  945MOL0     H30400   8.207   7.879   8.892  1.0869  0.8691 -2.2630
  945MOL0     H30401   8.209   7.712   8.927 -0.0879 -0.9026 -0.6229
  945MOL0     H30402   8.054   7.637   8.765 -1.4518 -0.6964  0.7326
  945MOL0     H30403   7.974   7.761   8.865  0.4321 -2.0482  0.0184
  945MOL0     H30404   8.056   7.777   8.584 -1.8198 -1.4476  0.2423
  945MOL0     H30405   8.044   7.928   8.674  1.2292  1.2650 -1.4944
  945MOL0     H30406   7.634   7.792   8.646  0.7164 -1.4010  1.5663
  945MOL0     H30407   8.553   7.790   8.652  0.2038 -0.3922 -1.6142
  945MOL0     H30408   8.882   7.908   8.542 -0.3803  0.8681  1.7350
  945MOL0     H30409   8.776   7.775   8.577 -0.3962 -0.8402 -0.9522
  945MOL0     H30410   8.777   7.849   8.415  2.7608  0.4192 -0.2166
  946MOL0     O30411   8.016   5.721   7.809  0.0962 -0.8487 -1.1767
  946MOL0     C30412   7.901   5.681   7.790  1.3382  0.4473 -0.1741
  946MOL0     O30413   7.846   5.564   7.846 -0.4166 -0.3097 -0.4849
  946MOL0     C30414   7.923   5.499   7.933 -0.4034 -1.0420 -0.7535
  946MOL0     C30415   7.903   5.516   8.074 -0.4231 -0.7502 -0.7790
  946MOL0     C30416   7.990   5.454   8.167  0.6563 -0.4021 -0.2555
  946MOL0     C30417   8.083   5.368   8.119  0.9892  0.9861  0.7876
  946MOL0     O30418   8.162   5.296   8.200 -0.0571 -0.6083  0.1156
  946MOL0     C30419   8.304   5.285   8.169  0.5393 -0.3719 -1.0134
  946MOL0     C30420   8.388   5.279   8.303  0.3891  0.0220  0.0248
  946MOL0     C30421   8.437   5.420   8.347 -0.0180 -0.3368 -0.3687
  946MOL0     C30422   8.526   5.413   8.477  1.0733 -0.9022 -0.7176
  946MOL0     C30423   8.629   5.531   8.487 -0.5025  0.8082 -0.0786
  946MOL0     C30424   8.725   5.524   8.601 -0.1022 -0.1876  0.1690
  946MOL0     C30425   8.810   5.395   8.592 -0.2812 -0.6755 -0.8058
  946MOL0     C30426   8.895   5.368   8.464  0.7491 -0.9058 -0.1603
  946MOL0     N30427   8.821   5.289   8.369 -0.5996  0.3019 -0.2239
  946MOL0     C30428   8.765   5.166   8.396 -0.6103  0.3693 -0.2822
  946MOL0     C30429   8.718   5.118   8.285 -0.8834 -0.7146  0.0293
  946MOL0     C30430   8.664   4.980   8.284 -1.0536 -0.5113 -0.9643
  946MOL0     C30431   8.613   4.937   8.146  0.8045  0.1426 -0.1646
  946MOL0     C30432   8.723   4.861   8.077 -0.4082 -0.0481 -0.2512
  946MOL0     C30433   8.674   4.800   7.950  1.1901 -0.3718 -0.3613
  946MOL0     O30434   8.773   4.720   7.890 -0.3109 -0.1788 -0.4563
  946MOL0     C30435   8.800   4.591   7.945  0.3818 -0.6426  0.8933
  946MOL0     C30436   8.911   4.518   7.911  0.5262 -0.3622 -0.9701
  946MOL0     C30437   8.941   4.385   7.952  0.3202  0.1875  1.0017
  946MOL0     C30438   9.071   4.322   7.909 -0.1576 -0.1318  0.2634
  946MOL0     C30439   8.848   4.316   8.033 -0.0549  0.2281  0.0473
  946MOL0     C30440   8.858   4.177   8.080 -0.2924 -0.0884 -0.4894
  946MOL0     O30441   8.757   4.139   8.170 -0.7055 -0.0855  0.4034
  946MOL0     C30442   8.781   4.087   8.296  0.5599 -0.1248  0.3682
  946MOL0     C30443   8.895   4.081   8.371  0.0288  0.0224 -0.2719
  946MOL0     C30444   8.904   4.028   8.502  0.0096  0.1003  0.2362
  946MOL0     C30445   8.781   4.000   8.576 -1.0816 -0.2536 -0.0438
  946MOL0     O30446   8.779   3.979   8.712 -0.5113 -0.2936  0.3958
  946MOL0     C30447   8.890   3.919   8.773 -0.5443 -0.3881 -0.4495
  946MOL0     C30448   8.850   3.862   8.909 -0.4936  0.1526 -0.2505
  946MOL0     C30449   8.752   3.749   8.905  0.7342  0.0301  0.0736
  946MOL0     C30450   8.702   3.708   9.046 -0.1034 -0.3489 -0.3400
  946MOL0     C30451   8.609   3.589   9.065  0.1226  0.3388 -0.1983
  946MOL0     C30452   8.481   3.598   8.993 -0.4193  0.4831  0.5772
  946MOL0     C30453   8.384   3.476   9.009 -0.0070 -0.9464  0.1889
  946MOL0     C30454   8.265   3.495   8.919 -0.2595 -0.5709 -1.1280
  946MOL0    Cl30455   8.169   3.354   8.936  0.3105 -0.2062 -0.4198
  946MOL0     C30456   8.669   4.009   8.503  0.7164  0.7862 -1.0772
  946MOL0     C30457   8.665   4.048   8.372  0.4789  0.2650  0.1248
  946MOL0     O30458   8.959   4.107   8.049  0.6204  0.1781 -0.2100
  946MOL0     C30459   8.723   4.380   8.058 -0.5214 -0.9805 -0.2445
  946MOL0     C30460   8.703   4.517   8.013 -0.3153 -0.4491 -0.1880
  946MOL0     N30461   8.724   5.216   8.187 -0.1238  0.2249 -1.2481
  946MOL0     N30462   8.790   5.321   8.237 -0.2612 -0.3655  0.4482
  946MOL0     C30463   8.094   5.340   7.979 -0.0915 -0.3389 -0.3873
  946MOL0     C30464   8.011   5.400   7.885  0.1101  0.8598 -0.3318
  946MOL0     C30465   7.818   5.764   7.692 -0.2805 -0.7944  1.0246
  946MOL0     C30466   7.884   5.876   7.628 -0.1653 -0.3808 -0.4722
  946MOL0     C30467   7.815   5.964   7.541 -0.2488  0.1528 -0.6587
  946MOL0     C30468   7.683   5.929   7.506 -0.3905 -0.1417  0.9602
  946MOL0     O30469   7.616   6.010   7.410 -0.0421 -0.2557  0.5345
  946MOL0     C30470   7.643   6.148   7.407  0.4675  0.1598 -0.5393
  946MOL0     C30471   7.513   6.223   7.364  0.2749  0.2205  0.8198
  946MOL0     C30472   7.391   6.187   7.445  0.7236  0.2512 -0.3672
  946MOL0     C30473   7.272   6.262   7.388  0.9782  0.4551  0.1771
  946MOL0     C30474   7.175   6.285   7.495 -0.6378 -0.2780 -0.5172
  946MOL0     C30475   7.094   6.296   7.588 -0.1602  1.2361  0.2048
  946MOL0     C30476   7.617   5.815   7.547  0.2641 -0.1116  0.1419
  946MOL0     C30477   7.690   5.734   7.642  0.2998  0.6160  0.2348
  946MOL0     C30478   7.607   5.609   7.687  0.2067  0.7161 -0.9883
  946MOL0     H30479   7.823   5.585   8.100  3.1873  2.5309  3.2316
  946MOL0     H30480   7.982   5.458   8.275 -3.7341  0.2859 -0.4299
  946MOL0     H30481   8.349   5.370   8.115  1.3761  1.5905  2.4684
  946MOL0     H30482   8.314   5.192   8.112  5.4859  0.4840 -2.0156
  946MOL0     H30483   8.325   5.233   8.379  1.2847 -2.5412 -0.6794
  946MOL0     H30484   8.468   5.204   8.295 -2.7498 -3.5103 -0.7313
  946MOL0     H30485   8.501   5.460   8.268  0.0605  1.2320  0.4384
  946MOL0     H30486   8.352   5.490   8.353 -0.6462 -0.9531 -1.6371
  946MOL0     H30487   8.458   5.422   8.562  1.4391  2.0254 -0.6211
  946MOL0     H30488   8.566   5.313   8.497  0.7746 -0.5734  2.0195
  946MOL0     H30489   8.570   5.622   8.482 -2.5140 -0.4869 -2.9094
  946MOL0     H30490   8.683   5.523   8.392 -1.3950 -2.0501 -0.4731
  946MOL0     H30491   8.780   5.617   8.617  3.8547 -2.4346  0.9165
  946MOL0     H30492   8.662   5.519   8.690 -3.1237  1.9150 -1.6853
  946MOL0     H30493   8.748   5.308   8.615 -1.5230  0.7682  1.7287
  946MOL0     H30494   8.876   5.406   8.679  0.8151  0.9705 -1.7916
  946MOL0     H30495   8.908   5.462   8.409 -1.9896 -0.0377  0.5153
  946MOL0     H30496   8.995   5.334   8.491 -0.1312 -3.3732  0.2378
  946MOL0     H30497   8.768   5.105   8.486  3.4031  1.9134  0.8618
  946MOL0     H30498   8.579   4.978   8.353 -1.3806  3.5665 -1.0157
  946MOL0     H30499   8.740   4.913   8.326  0.2861  0.5007 -1.6733
  946MOL0     H30500   8.536   4.860   8.159  1.3410 -0.2767  0.5394
  946MOL0     H30501   8.564   5.018   8.090 -0.6874 -0.2501  0.5288
  946MOL0     H30502   8.819   4.909   8.055 -0.2501  0.2720  1.0167
  946MOL0     H30503   8.755   4.773   8.135  1.4895  1.1658  0.6814
  946MOL0     H30504   8.579   4.748   7.966 -0.6410  2.6255 -0.5528
  946MOL0     H30505   8.649   4.883   7.883  2.6139  1.7764  1.5841
  946MOL0     H30506   8.974   4.586   7.853 -0.5547  2.7856  1.2769
  946MOL0     H30507   9.050   4.239   7.841 -0.1693 -0.4188  0.6121
  946MOL0     H30508   9.127   4.294   7.999  0.8957  0.6184 -0.1447
  946MOL0     H30509   9.137   4.393   7.859  1.2574 -0.1985  1.9280
  946MOL0     H30510   8.989   4.101   8.321  0.5907 -1.5800  0.1071
  946MOL0     H30511   8.991   4.026   8.567 -0.7874  0.3657  1.3445
  946MOL0     H30512   8.922   3.832   8.714  2.9530 -1.2459  2.3237
  946MOL0     H30513   8.962   3.999   8.793 -0.3404  0.7147 -4.6381
  946MOL0     H30514   8.948   3.833   8.949 -0.7651 -0.9020 -0.2967
  946MOL0     H30515   8.814   3.942   8.973 -2.7098 -1.6301  0.8740
  946MOL0     H30516   8.814   3.669   8.862  1.9890  0.3903  1.1298
  946MOL0     H30517   8.666   3.776   8.845  0.4198 -1.6182 -0.2788
  946MOL0     H30518   8.675   3.797   9.103 -3.0644 -1.7106  0.5918
  946MOL0     H30519   8.795   3.679   9.097  0.7169  1.0729 -0.9737
  946MOL0     H30520   8.667   3.505   9.026  1.4179  2.1331 -2.3372
  946MOL0     H30521   8.583   3.577   9.171  0.5348 -0.4386 -0.1759
  946MOL0     H30522   8.521   3.591   8.892  4.4704  0.2455  2.2276
  946MOL0     H30523   8.430   3.690   9.023  1.3018  1.6218  0.1935
  946MOL0     H30524   8.369   3.471   9.117  4.8472 -2.2212  1.0593
  946MOL0     H30525   8.446   3.388   8.988  0.7165 -0.0591 -1.6088
  946MOL0     H30526   8.302   3.515   8.818 -0.1364 -3.4493 -1.7390
  946MOL0     H30527   8.207   3.585   8.944  0.2867 -0.3304 -0.7260
  946MOL0     H30528   8.577   3.994   8.558 -0.8565  4.9298 -2.2288
  946MOL0     H30529   8.570   4.062   8.322  1.3063  0.8278 -1.3700
  946MOL0     H30530   8.643   4.332   8.114  0.5151  1.0135  3.2306
  946MOL0     H30531   8.604   4.557   8.034 -1.4316 -2.0519 -2.0026
  946MOL0     H30532   8.165   5.264   7.946 -0.2815  0.2237 -2.1842
  946MOL0     H30533   8.024   5.389   7.778 -0.8960 -0.2117 -0.3642
  946MOL0     H30534   7.986   5.909   7.643  0.3153 -1.4220 -1.3743
  946MOL0     H30535   7.863   6.056   7.508  0.0767  0.4630  0.6536
  946MOL0     H30536   7.675   6.199   7.498  2.1577  1.3676 -1.7452
  946MOL0     H30537   7.723   6.173   7.336  0.0396  0.2134 -1.0071
  946MOL0     H30538   7.506   6.180   7.263 -0.7349 -3.4491  2.2775
  946MOL0     H30539   7.524   6.331   7.357 -2.9431  0.5697 -2.1416
  946MOL0     H30540   7.371   6.080   7.435  4.3440 -0.4771 -0.9269
  946MOL0     H30541   7.416   6.204   7.550  1.7920  0.5114 -0.6503
  946MOL0     H30542   7.213   6.201   7.319  1.0025 -0.4391  0.9199
  946MOL0     H30543   7.294   6.360   7.344  0.9500  1.3511  2.0454
  946MOL0     H30544   7.012   6.305   7.656 -1.1215 -0.0156 -0.7335
  946MOL0     H30545   7.513   5.799   7.519 -0.1468  0.2259  1.4384
  946MOL0     H30546   7.574   5.624   7.790  1.9400  3.4676 -0.7174
  946MOL0     H30547   7.517   5.579   7.632 -1.7282 -1.0264  2.7931
  946MOL0     H30548   7.667   5.518   7.678  3.3592  2.5512 -0.1321
  947MOL0     O30549   8.744   5.481   0.643 -0.5405 -0.2922  0.0872
  947MOL0     C30550   8.855   5.512   0.601  0.0950  0.2885 -0.0251
  947MOL0     O30551   8.935   5.428   0.524 -0.1047 -0.2152 -0.0501
  947MOL0     C30552   8.890   5.317   0.468  0.3284 -0.9755  0.0280
  947MOL0     C30553   8.986   5.225   0.426  0.3366 -0.5526  0.4944
  947MOL0     C30554   8.948   5.104   0.363 -0.2634  0.2652  0.5370
  947MOL0     C30555   8.819   5.068   0.343  1.5949  0.5701 -0.5774
  947MOL0     O30556   8.776   4.945   0.302  0.6035 -0.5479 -0.1737
  947MOL0     C30557   8.876   4.861   0.251  0.5739  0.6208  0.2749
  947MOL0     C30558   8.794   4.739   0.199 -0.6111 -0.2364 -0.0878
  947MOL0     C30559   8.697   4.786   0.095  0.1261  0.7601  0.5385
  947MOL0     C30560   8.626   4.665   0.027  1.1939  0.0949 -0.4992
  947MOL0     C30561   8.509   4.701  -0.069  0.9726  0.7557  1.0175
  947MOL0     C30562   8.457   4.568  -0.135 -0.1813  0.9477 -0.4688
  947MOL0     C30563   8.308   4.571  -0.165 -0.6346  0.9824  0.9261
  947MOL0     C30564   8.264   4.680  -0.272  0.2536 -0.4968 -0.1829
  947MOL0     N30565   8.316   4.659  -0.407 -0.2081  0.1874  0.3389
  947MOL0     C30566   8.255   4.577  -0.495  0.2042 -0.0017 -0.2639
  947MOL0     C30567   8.305   4.610  -0.618  0.0128 -0.1945 -0.5351
  947MOL0     C30568   8.244   4.578  -0.751  0.1287 -0.0538 -0.7583
  947MOL0     C30569   8.285   4.433  -0.806 -0.0641  0.1757 -0.0729
  947MOL0     C30570   8.216   4.402  -0.938  0.7513  0.4421  1.0567
  947MOL0     C30571   8.278   4.487  -1.053 -0.3487  0.4042 -0.5163
  947MOL0     O30572   8.263   4.423  -1.180  0.1910 -0.4654  0.1607
  947MOL0     C30573   8.133   4.453  -1.232  0.2634 -0.1695 -0.1598
  947MOL0     C30574   8.112   4.582  -1.286 -1.0711  0.1865 -0.4945
  947MOL0     C30575   7.989   4.621  -1.346 -0.1367 -0.0318 -0.4353
  947MOL0     C30576   7.987   4.758  -1.398  0.3066 -0.8294  0.3149
  947MOL0     C30577   7.883   4.527  -1.346 -0.6272  0.4158  0.5218
  947MOL0     C30578   7.753   4.552  -1.404  0.3465 -0.5209  0.0664
  947MOL0     O30579   7.689   4.450  -1.466 -0.6357  0.1142 -0.3045
  947MOL0     C30580   7.575   4.474  -1.537  0.0392 -0.1739  0.5986
  947MOL0     C30581   7.576   4.513  -1.679 -0.1269 -0.5302  0.7650
  947MOL0     C30582   7.455   4.543  -1.740 -1.5152  0.3832  0.5415
  947MOL0     C30583   7.337   4.518  -1.669 -0.1117 -0.5439  0.6693
  947MOL0     O30584   7.226   4.521  -1.748 -0.3038  0.1340  0.4995
  947MOL0     C30585   7.099   4.573  -1.697  0.4901  0.1025  0.5911
  947MOL0     C30586   7.096   4.721  -1.641 -0.0858  0.2101  0.3749
  947MOL0     C30587   7.098   4.738  -1.492 -0.6752  0.2323 -0.1360
  947MOL0     C30588   7.072   4.883  -1.458  0.3693 -0.1871 -0.1949
  947MOL0     C30589   7.142   4.941  -1.337 -1.0474  0.1885 -0.4146
  947MOL0     C30590   7.298   4.973  -1.358  0.0505  0.1963 -0.5300
  947MOL0     C30591   7.372   4.941  -1.222  0.4182  0.3733  0.1963
  947MOL0     C30592   7.518   4.905  -1.239 -0.9127 -0.4266 -0.9190
  947MOL0    Cl30593   7.590   4.908  -1.075 -0.1863  0.2673 -0.3684
  947MOL0     C30594   7.327   4.491  -1.535 -0.1960  0.7055 -0.6290
  947MOL0     C30595   7.454   4.464  -1.466  0.5470 -0.2702 -0.1325
  947MOL0     O30596   7.708   4.665  -1.405  0.3431 -0.2680  0.2071
  947MOL0     C30597   7.907   4.391  -1.304  0.2601 -0.8915 -0.7586
  947MOL0     C30598   8.031   4.357  -1.248 -0.1099  0.3150  0.9819
  947MOL0     N30599   8.411   4.691  -0.596 -0.1025 -0.1312 -0.1218
  947MOL0     N30600   8.398   4.737  -0.476 -1.2850  0.3288  0.5227
  947MOL0     C30601   8.721   5.166   0.381  0.4050  0.2747  0.1551
  947MOL0     C30602   8.759   5.290   0.434  0.1019  0.7919 -0.0973
  947MOL0     C30603   8.913   5.631   0.657 -0.3373  0.5883 -0.3143
  947MOL0     C30604   9.053   5.644   0.656 -0.9012  0.6511 -1.0383
  947MOL0     C30605   9.113   5.750   0.726 -0.7848  0.1261 -0.2551
  947MOL0     C30606   9.038   5.847   0.776  0.7007  0.2958 -0.3145
  947MOL0     O30607   9.110   5.957   0.830  0.4168  0.2393 -0.2709
  947MOL0     C30608   9.091   5.983   0.970  0.4026 -0.2915 -0.2226
  947MOL0     C30609   9.210   5.939   1.065 -1.4257  0.1370 -0.2354
  947MOL0     C30610   9.199   5.798   1.124 -0.8736 -0.2659 -1.4169
  947MOL0     C30611   9.306   5.714   1.073 -0.4563  0.8202 -1.0354
  947MOL0     C30612   9.309   5.575   1.133  0.1125  0.7154  0.2889
  947MOL0     C30613   9.313   5.468   1.197  0.4028 -0.1916 -0.0680
  947MOL0     C30614   8.898   5.845   0.773 -0.0678  1.2044 -0.8938
  947MOL0     C30615   8.834   5.730   0.721  0.0619 -1.5584  0.0535
  947MOL0     C30616   8.683   5.750   0.716  0.7973  0.2385 -0.1097
  947MOL0     H30617   9.092   5.249   0.437 -0.4077  5.1401 -1.3578
  947MOL0     H30618   9.028   5.039   0.330  0.8860  1.5455  0.6860
  947MOL0     H30619   8.926   4.824   0.341  2.5811  1.6193 -0.3564
  947MOL0     H30620   8.941   4.905   0.174  0.4557  1.3723  0.5973
  947MOL0     H30621   8.866   4.668   0.156 -1.1618 -2.3144  2.1768
  947MOL0     H30622   8.747   4.700   0.290 -1.2483  1.1724  0.2136
  947MOL0     H30623   8.617   4.846   0.139 -1.6013  1.2588 -2.9841
  947MOL0     H30624   8.740   4.850   0.017 -0.3084 -1.9343 -2.1050
  947MOL0     H30625   8.692   4.595  -0.025 -1.6749 -4.0881  0.9184
  947MOL0     H30626   8.579   4.609   0.109  0.4111  2.4397  0.7307
  947MOL0     H30627   8.544   4.772  -0.144  3.4335 -0.7670  0.6255
  947MOL0     H30628   8.427   4.740  -0.008 -0.1220  0.1356 -0.0303
  947MOL0     H30629   8.515   4.538  -0.223  0.1986  2.9736 -0.9543
  947MOL0     H30630   8.478   4.485  -0.068  3.0210  1.6753 -0.4203
  947MOL0     H30631   8.260   4.582  -0.067  0.1464 -2.5131  1.8264
  947MOL0     H30632   8.289   4.469  -0.197 -0.7466  1.8885 -2.2718
  947MOL0     H30633   8.155   4.675  -0.266  0.2246  1.2661  2.1217
  947MOL0     H30634   8.295   4.782  -0.246 -0.5216 -0.4018  0.3836
  947MOL0     H30635   8.163   4.521  -0.479  1.1912 -2.6793 -2.9927
  947MOL0     H30636   8.267   4.657  -0.824  1.3152  1.4714  1.1477
  947MOL0     H30637   8.138   4.578  -0.724  0.8726  0.0933  2.4686
  947MOL0     H30638   8.394   4.425  -0.810  0.0156  0.8994  0.2897
  947MOL0     H30639   8.254   4.363  -0.728  1.5257  1.8609  2.2445
  947MOL0     H30640   8.234   4.297  -0.965 -0.1554  1.1712 -3.1918
  947MOL0     H30641   8.107   4.410  -0.930  0.7158  2.7700 -0.6346
  947MOL0     H30642   8.233   4.587  -1.055 -1.0574  0.1417  0.7565
  947MOL0     H30643   8.383   4.510  -1.032 -0.6702  0.3343  1.3797
  947MOL0     H30644   8.203   4.640  -1.298  0.6980 -1.9056  1.6977
  947MOL0     H30645   8.088   4.793  -1.422  0.2293 -1.1513 -0.5091
  947MOL0     H30646   7.927   4.821  -1.331  1.8347  0.1361  0.8266
  947MOL0     H30647   7.925   4.767  -1.488 -0.2656 -0.9467  0.6914
  947MOL0     H30648   7.671   4.533  -1.728 -0.1347  0.4792  1.1277
  947MOL0     H30649   7.455   4.573  -1.845 -2.2226 -0.2897  0.3424
  947MOL0     H30650   7.032   4.555  -1.782  2.3290 -1.5786 -0.5812
  947MOL0     H30651   7.061   4.503  -1.622 -0.3510  1.5106  1.5300
  947MOL0     H30652   7.184   4.761  -1.691 -0.5018 -1.5956 -2.0002
  947MOL0     H30653   6.999   4.764  -1.668  1.0961  0.9158 -3.1493
  947MOL0     H30654   7.196   4.709  -1.454 -1.2904 -1.6707  0.1208
  947MOL0     H30655   7.027   4.665  -1.452  0.2540 -0.9666 -0.6156
  947MOL0     H30656   6.965   4.895  -1.434  0.8460  2.6758  0.8960
  947MOL0     H30657   7.096   4.950  -1.540 -2.2601 -2.2411 -2.8518
  947MOL0     H30658   7.089   5.030  -1.301 -1.1830  2.3925 -5.1753
  947MOL0     H30659   7.148   4.866  -1.258  2.9608  1.1775  0.4184
  947MOL0     H30660   7.309   5.079  -1.384  1.8967  1.7417  5.2082
  947MOL0     H30661   7.349   4.911  -1.433  2.0693 -0.5838  1.3803
  947MOL0     H30662   7.329   4.850  -1.178 -0.7702 -0.3322 -2.2292
  947MOL0     H30663   7.354   5.026  -1.155 -0.4425  1.2587 -1.1008
  947MOL0     H30664   7.560   4.993  -1.289 -3.5780  3.2208  2.6426
  947MOL0     H30665   7.528   4.813  -1.298  0.3319 -2.3976  2.1012
  947MOL0     H30666   7.235   4.469  -1.482 -0.7010  3.0696 -0.3893
  947MOL0     H30667   7.463   4.440  -1.360 -1.0142  2.5632  0.7425
  947MOL0     H30668   7.824   4.321  -1.310  1.7143 -3.5616  4.4770
  947MOL0     H30669   8.036   4.255  -1.212  1.3794 -0.6545 -1.6910
  947MOL0     H30670   8.617   5.149   0.353  0.8186 -2.4339  0.0506
  947MOL0     H30671   8.681   5.365   0.442 -1.2479 -0.2957 -2.1391
  947MOL0     H30672   9.112   5.567   0.608  1.0775 -0.0620  2.1992
  947MOL0     H30673   9.222   5.749   0.725 -0.7717 -0.1618 -2.1645
  947MOL0     H30674   9.096   6.092   0.958  2.2578 -0.6056 -3.6284
  947MOL0     H30675   8.994   5.945   1.002 -0.7291  0.2350 -2.7671
  947MOL0     H30676   9.215   6.014   1.144  1.3109  0.9404 -1.0740
  947MOL0     H30677   9.311   5.951   1.024 -1.7710  0.6752 -0.9537
  947MOL0     H30678   9.203   5.815   1.232 -0.4055  0.0686 -1.4815
  947MOL0     H30679   9.104   5.752   1.095 -2.5020  1.0643  1.3716
  947MOL0     H30680   9.400   5.753   1.114 -0.1193 -1.7293  0.8630
  947MOL0     H30681   9.295   5.718   0.964  0.0809  0.0734 -1.1211
  947MOL0     H30682   9.324   5.376   1.252  1.6856  0.3670  0.6403
  947MOL0     H30683   8.840   5.933   0.797 -0.2778  0.6770  0.6770
  947MOL0     H30684   8.642   5.718   0.811 -0.9240 -0.4049 -1.0365
  947MOL0     H30685   8.646   5.850   0.689  1.1327 -0.0953 -1.9602
  947MOL0     H30686   8.635   5.697   0.634  0.7466  2.1411 -1.3897
  948MOL0     O30687   1.452   6.055   3.874  0.0989  0.7081 -0.2895
  948MOL0     C30688   1.569   6.026   3.898  1.1807 -0.5020  0.1592
  948MOL0     O30689   1.619   6.012   4.025 -0.5242  0.0870  0.3460
  948MOL0     C30690   1.540   6.035   4.132  0.6058  0.3172  0.7677
  948MOL0     C30691   1.437   5.942   4.180 -0.3984 -0.5566  0.1020
  948MOL0     C30692   1.363   5.974   4.291 -0.3023 -0.2982 -0.2864
  948MOL0     C30693   1.377   6.105   4.358 -0.0209  0.8073  0.1872
  948MOL0     O30694   1.301   6.128   4.475 -0.7337  0.2466  0.1561
  948MOL0     C30695   1.375   6.133   4.595 -0.2809 -0.5352  0.4197
  948MOL0     C30696   1.294   6.175   4.722  0.1794 -0.4696  0.7307
  948MOL0     C30697   1.294   6.328   4.732 -0.1143  0.2814  1.0069
  948MOL0     C30698   1.187   6.404   4.821 -0.0881  0.6034 -0.5182
  948MOL0     C30699   1.210   6.555   4.845 -1.5818  0.3497 -0.3274
  948MOL0     C30700   1.108   6.608   4.947 -0.0116 -0.4615  0.1318
  948MOL0     C30701   1.148   6.746   5.005  0.3837 -0.6559 -0.5652
  948MOL0     C30702   1.050   6.795   5.112  0.5706 -0.3982 -1.5524
  948MOL0     N30703   1.087   6.928   5.169  0.0512 -0.1520  0.0954
  948MOL0     C30704   1.155   6.948   5.291  1.3328 -0.4094 -0.0373
  948MOL0     C30705   1.140   7.079   5.312 -0.9049 -0.4420  0.4674
  948MOL0     C30706   1.189   7.155   5.430 -0.3038 -0.6121  0.5005
  948MOL0     C30707   1.073   7.195   5.538 -0.3302  0.1752  0.3016
  948MOL0     C30708   0.934   7.228   5.476 -0.4212  0.1609 -0.0417
  948MOL0     C30709   0.961   7.357   5.385  0.2824  0.2736  0.3396
  948MOL0     O30710   0.994   7.469   5.463 -0.2048  0.1954 -0.7336
  948MOL0     C30711   0.969   7.593   5.409  0.5746 -0.3879  0.0509
  948MOL0     C30712   1.067   7.654   5.335  1.2721  1.2703 -0.0374
  948MOL0     C30713   1.044   7.778   5.273  0.2276 -0.1623 -0.7108
  948MOL0     C30714   1.154   7.834   5.193  0.0553  0.2066 -0.5147
  948MOL0     C30715   0.927   7.850   5.298  0.2811 -0.0516 -0.3065
  948MOL0     C30716   0.899   7.993   5.258 -0.7960  0.4468  0.4074
  948MOL0     O30717   0.769   8.029   5.285 -0.3972 -0.8286 -0.7312
  948MOL0     C30718   0.722   8.152   5.248  0.3950 -0.0627 -1.0570
  948MOL0     C30719   0.585   8.175   5.277  0.1363  0.4324 -0.1838
  948MOL0     C30720   0.514   8.291   5.245 -0.0687 -0.8460 -0.0718
  948MOL0     C30721   0.583   8.407   5.201  0.5254  0.2074  0.4336
  948MOL0     O30722   0.523   8.527   5.176  0.3550  0.6976 -1.1346
  948MOL0     C30723   0.376   8.551   5.198 -0.5174 -0.0662  0.6230
  948MOL0     C30724   0.290   8.499   5.086 -0.6481 -0.4471 -0.1466
  948MOL0     C30725   0.342   8.518   4.948  0.0624 -0.4641  0.1855
  948MOL0     C30726   0.306   8.654   4.886  0.3962 -0.3274  0.4732
  948MOL0     C30727   0.386   8.657   4.749 -0.4279  0.2395  0.6248
  948MOL0     C30728   0.335   8.558   4.638 -0.2393 -0.5138  0.7568
  948MOL0     C30729   0.397   8.611   4.509 -0.3089 -0.1366 -0.3158
  948MOL0     C30730   0.353   8.547   4.381 -0.2417  0.7701 -0.0686
  948MOL0    Cl30731   0.445   8.626   4.257 -0.6483 -0.1685  0.1516
  948MOL0     C30732   0.718   8.394   5.192  0.3274 -0.4759 -0.2466
  948MOL0     C30733   0.794   8.270   5.211  0.3235 -0.0398 -0.0226
  948MOL0     O30734   0.983   8.057   5.205 -0.6624  0.0007  0.2315
  948MOL0     C30735   0.831   7.778   5.369  0.0664 -0.7034  0.4834
  948MOL0     C30736   0.847   7.654   5.422 -0.1110  0.0938 -1.0181
  948MOL0     N30737   1.078   7.129   5.197 -0.9362  0.2177  0.6365
  948MOL0     N30738   1.051   7.043   5.104  0.1560 -0.5649  0.3091
  948MOL0     C30739   1.484   6.196   4.316 -0.3712  0.1970  0.8222
  948MOL0     C30740   1.556   6.156   4.198  0.8569 -0.1209  0.4498
  948MOL0     C30741   1.658   6.004   3.784 -0.2399  0.6214  1.1520
  948MOL0     C30742   1.606   6.031   3.658 -0.2761 -0.2382 -0.3819
  948MOL0     C30743   1.683   6.003   3.543  0.7720 -0.2504  0.0397
  948MOL0     C30744   1.820   5.967   3.547  0.9977  0.6116 -0.5880
  948MOL0     O30745   1.881   5.944   3.427  0.8691  0.8017 -0.3810
  948MOL0     C30746   2.024   5.947   3.426  0.2175 -0.4007 -0.2395
  948MOL0     C30747   2.097   5.817   3.471  0.1205  0.0735  0.2333
  948MOL0     C30748   2.041   5.698   3.391 -0.2380  0.7040 -0.1541
  948MOL0     C30749   2.133   5.576   3.389  0.2601 -0.8715  0.8814
  948MOL0     C30750   2.267   5.607   3.332  0.3998 -0.4147  0.4840
  948MOL0     C30751   2.372   5.627   3.278  0.3860  0.3054 -0.9916
  948MOL0     C30752   1.873   5.955   3.678 -0.0268 -0.1266 -0.6821
  948MOL0     C30753   1.795   5.984   3.792 -0.8686 -0.6418  0.7078
  948MOL0     C30754   1.881   5.999   3.916 -0.3200 -0.5766 -0.2282
  948MOL0     H30755   1.436   5.844   4.134  0.2188 -0.5016 -0.0429
  948MOL0     H30756   1.295   5.906   4.340 -3.2586  2.6963  0.1009
  948MOL0     H30757   1.466   6.193   4.584  0.7872 -1.5704  2.8372
  948MOL0     H30758   1.421   6.035   4.611 -0.8600 -0.9929 -0.6745
  948MOL0     H30759   1.196   6.132   4.702 -0.7027  0.9553  1.8468
  948MOL0     H30760   1.334   6.146   4.820 -2.3228  2.6038  2.8530
  948MOL0     H30761   1.385   6.362   4.781 -2.3178  4.4763  2.7446
  948MOL0     H30762   1.275   6.374   4.634 -1.6399  0.3743  1.3320
  948MOL0     H30763   1.099   6.386   4.758 -0.3953  2.5560 -0.7010
  948MOL0     H30764   1.161   6.346   4.911  0.3256 -0.3612 -1.0028
  948MOL0     H30765   1.221   6.603   4.747  2.2419  1.7420  0.6439
  948MOL0     H30766   1.311   6.559   4.885 -0.4622 -1.8321 -2.6628
  948MOL0     H30767   1.009   6.629   4.906 -0.2084  0.4817  1.0396
  948MOL0     H30768   1.091   6.536   5.027  0.0586  0.5257  1.0504
  948MOL0     H30769   1.146   6.831   4.936  0.0034 -0.1047  0.1098
  948MOL0     H30770   1.246   6.748   5.052 -0.8252 -0.9234  2.1223
  948MOL0     H30771   0.953   6.803   5.062 -0.5278 -1.5679  0.2680
  948MOL0     H30772   1.040   6.717   5.188  3.3170  0.0263 -0.6249
  948MOL0     H30773   1.214   6.880   5.351  0.4096 -2.4740 -1.3613
  948MOL0     H30774   1.230   7.254   5.408 -0.0176 -1.1637 -1.5923
  948MOL0     H30775   1.257   7.092   5.488  1.0639  0.8849  0.6131
  948MOL0     H30776   1.060   7.103   5.595 -3.0712  1.1288  1.3825
  948MOL0     H30777   1.111   7.280   5.597  1.8114  0.7774 -1.7913
  948MOL0     H30778   0.895   7.136   5.431  1.8308 -0.8254 -0.1356
  948MOL0     H30779   0.860   7.262   5.548 -1.2759 -2.6538  0.5400
  948MOL0     H30780   1.035   7.344   5.306 -2.4146 -0.4709 -2.2918
  948MOL0     H30781   0.868   7.376   5.329  0.6738 -0.8162 -0.7416
  948MOL0     H30782   1.155   7.593   5.319 -2.3796 -4.1687 -2.3201
  948MOL0     H30783   1.177   7.929   5.243 -1.2309  0.6940 -0.7955
  948MOL0     H30784   1.123   7.855   5.090 -1.6700  2.2748  0.3530
  948MOL0     H30785   1.246   7.774   5.198  1.9488  2.9806  0.4329
  948MOL0     H30786   0.536   8.087   5.317 -2.6271  2.2456  0.6882
  948MOL0     H30787   0.407   8.297   5.263 -0.5626  0.9026 -2.9251
  948MOL0     H30788   0.342   8.508   5.293 -0.6086 -0.5324  0.3803
  948MOL0     H30789   0.348   8.657   5.199 -4.2116 -0.7786 -3.0169
  948MOL0     H30790   0.282   8.393   5.112  1.2122 -0.5261  0.2295
  948MOL0     H30791   0.184   8.525   5.099 -0.9693 -1.9947  0.6836
  948MOL0     H30792   0.308   8.432   4.889 -0.3606 -1.9231  2.4064
  948MOL0     H30793   0.452   8.513   4.943  0.3409  0.2919  3.2378
  948MOL0     H30794   0.331   8.738   4.952 -0.6659  0.1081  0.3294
  948MOL0     H30795   0.200   8.662   4.861  0.5128  0.9200  0.3427
  948MOL0     H30796   0.379   8.761   4.716  1.9624 -0.1328 -1.3404
  948MOL0     H30797   0.493   8.637   4.757 -0.5088  0.3765  2.3250
  948MOL0     H30798   0.226   8.573   4.642 -0.1754  0.3160 -0.3512
  948MOL0     H30799   0.358   8.454   4.660 -2.0375 -1.0944  0.0958
  948MOL0     H30800   0.500   8.578   4.525  1.2722  4.4899  0.5739
  948MOL0     H30801   0.387   8.720   4.509 -0.7655 -0.1417  1.4911
  948MOL0     H30802   0.246   8.551   4.363  0.0824  0.8833 -2.1853
  948MOL0     H30803   0.370   8.439   4.381  1.0442  0.9470 -0.3391
  948MOL0     H30804   0.778   8.481   5.165 -0.9962  0.5199 -0.1464
  948MOL0     H30805   0.902   8.272   5.197  0.2619  0.1807 -0.4726
  948MOL0     H30806   0.737   7.829   5.387 -1.1904 -2.1035 -1.7057
  948MOL0     H30807   0.766   7.604   5.476  2.0200 -3.4440 -0.7951
  948MOL0     H30808   1.488   6.292   4.366  1.5718  0.2856  0.5674
  948MOL0     H30809   1.627   6.230   4.160  0.5656 -1.0373 -2.1215
  948MOL0     H30810   1.506   6.068   3.637 -1.9587 -3.5193  1.0683
  948MOL0     H30811   1.637   6.003   3.445  0.2232  0.6968  0.2835
  948MOL0     H30812   2.057   5.968   3.324 -0.5799 -1.9876 -0.8567
  948MOL0     H30813   2.060   6.034   3.483  0.9125 -1.6920  1.3747
  948MOL0     H30814   2.075   5.795   3.576 -2.2847 -0.9907 -0.4300
  948MOL0     H30815   2.203   5.831   3.449 -0.6905  2.8425 -2.5356
  948MOL0     H30816   1.936   5.678   3.412  0.0998 -0.0363  0.8614
  948MOL0     H30817   2.033   5.725   3.285 -0.9158  1.8065  0.1608
  948MOL0     H30818   2.090   5.495   3.330  1.7622 -2.9551  2.4944
  948MOL0     H30819   2.143   5.519   3.482 -0.5383 -0.6885  1.0951
  948MOL0     H30820   2.465   5.644   3.228 -0.1451 -0.3913 -2.2801
  948MOL0     H30821   1.981   5.953   3.688 -0.1109 -3.7729  1.1333
  948MOL0     H30822   1.989   5.988   3.903  0.0872 -0.8683  2.6376
  948MOL0     H30823   1.859   6.094   3.966  1.8674  0.5586 -1.2658
  948MOL0     H30824   1.851   5.918   3.983 -2.9516  0.8244  0.3876
  949MOL0     O30825   7.890   1.549  10.310  0.2532  0.5150 -0.1485
  949MOL0     C30826   7.778   1.525  10.350 -0.4224 -0.1391  1.3846
  949MOL0     O30827   7.736   1.404  10.375  0.3180  0.3963  0.0959
  949MOL0     C30828   7.818   1.293  10.401  0.6826 -0.4836  0.4934
  949MOL0     C30829   7.960   1.299  10.434 -0.2022 -0.8095 -0.2429
  949MOL0     C30830   8.035   1.183  10.443 -0.1784 -0.8448  0.6666
  949MOL0     C30831   7.974   1.059  10.428 -0.4199  0.1572  0.0026
  949MOL0     O30832   8.044   0.940  10.432  0.1936  0.6980  0.0299
  949MOL0     C30833   8.192   0.952  10.432  0.4292 -0.2296 -0.1385
  949MOL0     C30834   8.267   0.819  10.476  0.3862  0.1026 -0.4935
  949MOL0     C30835   8.195   0.722  10.578  0.3644 -0.5371 -0.3227
  949MOL0     C30836   8.225   0.781  10.723  0.5125 -0.6060 -0.5020
  949MOL0     C30837   8.164   0.689  10.824  0.6025  0.4562 -1.1478
  949MOL0     C30838   8.228   0.549  10.839 -0.6344  0.9654  0.2891
  949MOL0     C30839   8.148   0.463  10.932  0.1957  0.4005 -0.0215
  949MOL0     C30840   8.218   0.349  11.007 -0.2139 -0.6075  0.2278
  949MOL0     N30841   8.137   0.294  11.117 -0.5002  0.6656 -0.2828
  949MOL0     C30842   8.146   0.319  11.250 -0.5098 -0.1436 -0.8830
  949MOL0     C30843   8.036   0.264  11.303 -0.1868 -0.5251 -0.6467
  949MOL0     C30844   8.010   0.297  11.451  0.4739 -0.7355  0.6800
  949MOL0     C30845   7.861   0.263  11.485  0.1789 -0.3512  0.1377
  949MOL0     C30846   7.823   0.318  11.619  0.4277  0.0326  0.6052
  949MOL0     C30847   7.704   0.254  11.689 -0.2570  0.6430  0.5885
  949MOL0     O30848   7.720   0.115  11.707 -0.5280 -0.4951  0.0941
  949MOL0     C30849   7.814   0.066  11.788  0.4267  0.4501 -0.1445
  949MOL0     C30850   7.942   0.047  11.733 -0.3574 -0.7611  0.4714
  949MOL0     C30851   8.047  -0.013  11.806  0.4490  0.9520  0.3069
  949MOL0     C30852   8.178  -0.039  11.745 -0.3177  0.9763  0.4242
  949MOL0     C30853   8.021  -0.063  11.936  0.2827 -0.4614  0.1360
  949MOL0     C30854   8.111  -0.137  12.021 -0.4759  0.6050 -0.4881
  949MOL0     O30855   8.238  -0.094  12.036  0.0868 -0.3559  0.6175
  949MOL0     C30856   8.343  -0.165  12.057 -0.8148  0.8035 -0.5306
  949MOL0     C30857   8.462  -0.099  12.082 -0.0665 -0.0486  0.8807
  949MOL0     C30858   8.584  -0.169  12.104  0.8303 -0.5835 -0.2910
  949MOL0     C30859   8.587  -0.304  12.080 -0.2909 -0.2493  0.6088
  949MOL0     O30860   8.708  -0.379  12.096 -0.2454 -0.1298  0.0671
  949MOL0     C30861   8.736  -0.480  11.994  0.2014 -0.0985 -0.4459
  949MOL0     C30862   8.874  -0.456  11.936  0.4708 -0.2326  0.7816
  949MOL0     C30863   8.986  -0.504  12.031  0.5444  0.4465  0.3294
  949MOL0     C30864   9.034  -0.381  12.111  0.7306 -0.2508  0.8335
  949MOL0     C30865   9.162  -0.415  12.182  0.7417 -0.2272 -0.1688
  949MOL0     C30866   9.225  -0.310  12.271 -0.9440  0.4675 -0.6134
  949MOL0     C30867   9.370  -0.346  12.316  0.0170 -0.1312  0.3867
  949MOL0     C30868   9.389  -0.483  12.380 -0.3151 -1.1358 -0.2242
  949MOL0    Cl30869   9.328  -0.502  12.544  0.1103 -0.5407  0.0403
  949MOL0     C30870   8.464  -0.375  12.047 -0.7013 -0.3391 -1.0623
  949MOL0     C30871   8.338  -0.302  12.039 -0.2049 -0.1745  0.0179
  949MOL0     O30872   8.051  -0.228  12.087 -0.0001 -0.5752  0.2509
  949MOL0     C30873   7.888  -0.041  11.989 -0.1883  0.1005  0.3170
  949MOL0     C30874   7.780   0.014  11.913  0.3441  0.3553  0.2710
  949MOL0     N30875   7.965   0.196  11.212  0.1708  0.1794  0.8086
  949MOL0     N30876   8.023   0.219  11.095  0.6373 -0.2910  0.1833
  949MOL0     C30877   7.837   1.048  10.397 -0.4796 -0.3092  0.0528
  949MOL0     C30878   7.762   1.165  10.382 -0.9055 -1.5975 -1.2310
  949MOL0     C30879   7.679   1.628  10.368  0.3271  0.3727  0.1683
  949MOL0     C30880   7.703   1.728  10.465 -0.2607  0.6866  0.5048
  949MOL0     C30881   7.603   1.816  10.505 -0.4496  0.4512  0.5025
  949MOL0     C30882   7.474   1.803  10.444  0.6517 -0.1840  1.1072
  949MOL0     O30883   7.382   1.894  10.485 -0.0639 -0.6312  0.3168
  949MOL0     C30884   7.342   1.912  10.617 -1.1376 -0.2005 -0.1514
  949MOL0     C30885   7.259   1.817  10.680 -0.3730 -0.3667 -0.2555
  949MOL0     C30886   7.168   1.752  10.577  0.2867  0.0330 -0.6068
  949MOL0     C30887   7.060   1.684  10.666  0.7124  0.3586  0.6994
  949MOL0     C30888   6.964   1.601  10.587 -0.4746 -0.7030 -0.2101
  949MOL0     C30889   6.879   1.539  10.529 -0.8226  0.5732  0.3156
  949MOL0     C30890   7.448   1.709  10.342  0.0471  0.6038  1.0950
  949MOL0     C30891   7.547   1.619  10.310  0.1700  0.3549 -0.6850
  949MOL0     C30892   7.522   1.517  10.208  0.0213 -1.0581  0.2563
  949MOL0     H30893   8.013   1.392  10.454  1.3492 -1.4023 -1.4000
  949MOL0     H30894   8.141   1.203  10.460 -0.9408  1.4414  3.5474
  949MOL0     H30895   8.233   1.026  10.501  0.6419 -1.8030  1.4987
  949MOL0     H30896   8.229   0.974  10.331  3.6724  0.5623  1.1166
  949MOL0     H30897   8.294   0.772  10.382 -0.1448 -0.7217 -0.2417
  949MOL0     H30898   8.366   0.854  10.510  0.9985 -0.4933 -1.6282
  949MOL0     H30899   8.088   0.712  10.557  0.4785  0.7893 -1.6286
  949MOL0     H30900   8.244   0.626  10.559  0.9380 -0.4721  0.7430
  949MOL0     H30901   8.330   0.794  10.752 -0.5392  3.1077  2.5532
  949MOL0     H30902   8.188   0.881  10.746  1.6529 -0.7009  2.1121
  949MOL0     H30903   8.059   0.673  10.796  0.6780 -1.3053 -0.5358
  949MOL0     H30904   8.172   0.733  10.924  0.1606 -0.5375 -0.6558
  949MOL0     H30905   8.249   0.491  10.749  0.1586  2.3560 -0.4580
  949MOL0     H30906   8.324   0.573  10.887 -0.9338  1.6867  0.5451
  949MOL0     H30907   8.074   0.418  10.865  2.2443 -2.7199 -0.4172
  949MOL0     H30908   8.117   0.528  11.014  2.5290  0.5284  0.8402
  949MOL0     H30909   8.246   0.276  10.931 -1.0531  0.8571 -1.5840
  949MOL0     H30910   8.308   0.380  11.062  1.0381 -1.6681 -1.1319
  949MOL0     H30911   8.214   0.393  11.291  1.6868 -1.8713 -1.2438
  949MOL0     H30912   8.024   0.405  11.462 -2.1897 -0.4822  2.3959
  949MOL0     H30913   8.078   0.239  11.514  1.2042 -0.9142 -0.2567
  949MOL0     H30914   7.798   0.316  11.413  1.0428 -0.6574 -0.8646
  949MOL0     H30915   7.857   0.156  11.464  0.7072 -0.4183  0.3721
  949MOL0     H30916   7.909   0.309  11.685  0.2992 -0.6024  0.6864
  949MOL0     H30917   7.810   0.427  11.614  0.3342 -0.0068 -0.2856
  949MOL0     H30918   7.674   0.310  11.777 -5.6597  1.5472 -1.3996
  949MOL0     H30919   7.623   0.261  11.615  0.7657  1.8540 -0.4513
  949MOL0     H30920   7.964   0.074  11.630 -2.2527  0.1646  0.2722
  949MOL0     H30921   8.208  -0.143  11.758 -0.4604  0.9912  0.8817
  949MOL0     H30922   8.237   0.033  11.803 -2.8025  2.0712  1.7762
  949MOL0     H30923   8.193  -0.024  11.637  2.4765  2.5877  0.9331
  949MOL0     H30924   8.469   0.005  12.110  0.4924 -0.4254  2.2155
  949MOL0     H30925   8.680  -0.120  12.116 -0.1931  1.8069 -1.1095
  949MOL0     H30926   8.721  -0.581  12.033 -3.1509 -1.1387 -3.8595
  949MOL0     H30927   8.677  -0.471  11.903 -0.0708 -1.0057 -0.3688
  949MOL0     H30928   8.873  -0.507  11.840 -3.6239  0.2842  0.3893
  949MOL0     H30929   8.887  -0.349  11.914 -0.3255 -0.7383 -2.5770
  949MOL0     H30930   9.068  -0.537  11.967 -0.4286 -1.0817 -0.1721
  949MOL0     H30931   8.948  -0.589  12.087 -2.2466  1.3371 -0.0705
  949MOL0     H30932   8.959  -0.352  12.184  0.9295  2.0585  0.1779
  949MOL0     H30933   9.064  -0.298  12.047  1.7679 -2.2131 -1.3985
  949MOL0     H30934   9.143  -0.501  12.248 -2.8839  0.9893  0.5990
  949MOL0     H30935   9.234  -0.448  12.106  0.7261 -1.6359  0.3958
  949MOL0     H30936   9.162  -0.290  12.359 -2.3124 -1.0931 -1.1887
  949MOL0     H30937   9.235  -0.218  12.212  0.8385  1.9342  1.7748
  949MOL0     H30938   9.411  -0.268  12.382  0.6934  2.9470 -3.3202
  949MOL0     H30939   9.430  -0.342  12.225  1.5909  0.1935  1.3881
  949MOL0     H30940   9.495  -0.510  12.380 -0.7418 -3.0253  0.8883
  949MOL0     H30941   9.331  -0.557  12.325 -3.6431  0.5692  0.7182
  949MOL0     H30942   8.467  -0.479  12.016 -3.7595 -0.7639 -0.3069
  949MOL0     H30943   8.246  -0.356  12.020 -1.6621  2.1712 -0.0125
  949MOL0     H30944   7.869  -0.069  12.092 -0.6865 -0.6183  0.0463
  949MOL0     H30945   7.682   0.033  11.955  0.2956  1.1892 -0.1934
  949MOL0     H30946   7.786   0.954  10.379  4.1108 -2.5021 -3.6238
  949MOL0     H30947   7.656   1.162  10.359 -1.0689  1.2048 -1.1731
  949MOL0     H30948   7.802   1.747  10.505  2.5500 -0.1284 -5.0422
  949MOL0     H30949   7.605   1.902  10.571  0.4703  0.1804  0.8385
  949MOL0     H30950   7.431   1.919  10.680 -0.0255  2.5390 -1.8478
  949MOL0     H30951   7.303   2.014  10.613  1.5128  0.8692 -0.8717
  949MOL0     H30952   7.207   1.872  10.759  1.0678  1.4718 -0.5277
  949MOL0     H30953   7.327   1.740  10.716  0.4258  0.4276 -0.0223
  949MOL0     H30954   7.125   1.825  10.508 -2.2003  0.4385  1.2299
  949MOL0     H30955   7.218   1.681  10.512 -2.9277 -2.0759 -1.0221
  949MOL0     H30956   6.998   1.765  10.705 -1.1959  1.5013 -4.0069
  949MOL0     H30957   7.103   1.629  10.751  0.9064 -1.3003 -0.4176
  949MOL0     H30958   6.798   1.498  10.473  0.1326 -1.6653  0.4410
  949MOL0     H30959   7.348   1.706  10.300 -0.7482 -2.4708  2.8563
  949MOL0     H30960   7.422   1.538  10.171  0.1531  3.8653  1.9874
  949MOL0     H30961   7.588   1.521  10.120 -0.0739 -2.0443  0.1242
  949MOL0     H30962   7.532   1.415  10.248 -0.7548 -0.4191  2.1977
  950MOL0     O30963   7.498   9.155   7.825  0.5918 -0.9026  0.0699
  950MOL0     C30964   7.515   9.274   7.864  0.4495 -0.2387  0.3083
  950MOL0     O30965   7.424   9.347   7.943  0.3121 -0.0017  0.4632
  950MOL0     C30966   7.312   9.288   7.991 -0.6347  0.3261  0.2634
  950MOL0     C30967   7.216   9.374   8.046 -0.1589  0.1791 -0.5329
  950MOL0     C30968   7.108   9.315   8.105 -0.3818 -0.5132 -0.2391
  950MOL0     C30969   7.082   9.182   8.120  0.1959 -0.5972  0.6921
  950MOL0     O30970   6.973   9.121   8.174 -0.3266 -0.2596 -0.1229
  950MOL0     C30971   6.845   9.183   8.159  0.3809  0.1922 -0.6833
  950MOL0     C30972   6.754   9.072   8.093  0.0069 -1.0865  0.7647
  950MOL0     C30973   6.754   9.100   7.937  1.2299  1.0457 -0.8807
  950MOL0     C30974   6.667   9.001   7.869 -0.7247  1.0665 -0.6437
  950MOL0     C30975   6.704   8.998   7.721 -0.5341 -0.7085 -0.2303
  950MOL0     C30976   6.613   8.910   7.647  0.7678 -0.1370  0.6211
  950MOL0     C30977   6.602   8.769   7.699  0.7850 -0.2758 -0.1465
  950MOL0     C30978   6.519   8.666   7.623 -0.4025  0.0984 -0.4309
  950MOL0     N30979   6.559   8.652   7.478 -0.3272  0.0570 -0.1175
  950MOL0     C30980   6.687   8.634   7.425  0.7205  0.0508  0.7730
  950MOL0     C30981   6.659   8.636   7.287 -0.9034  0.5484 -0.3831
  950MOL0     C30982   6.761   8.607   7.187 -0.5719 -0.4176  1.0124
  950MOL0     C30983   6.812   8.736   7.113  0.2489 -0.3756  0.1231
  950MOL0     C30984   6.933   8.724   7.011  0.1423  0.8678  0.4757
  950MOL0     C30985   7.017   8.845   6.989 -0.4331 -0.1875  0.1444
  950MOL0     O30986   7.083   8.843   6.858 -0.0009 -0.1707 -0.6428
  950MOL0     C30987   7.133   8.965   6.812 -0.4318  0.7783  0.0956
  950MOL0     C30988   7.187   8.963   6.687 -0.1191 -0.2839  0.4533
  950MOL0     C30989   7.246   9.078   6.623  0.4534 -0.0063 -0.4998
  950MOL0     C30990   7.318   9.070   6.499  0.1570  0.2230 -0.0746
  950MOL0     C30991   7.249   9.198   6.706 -0.0699  0.1433 -0.6117
  950MOL0     C30992   7.315   9.320   6.654 -0.4402  0.2187  1.0353
  950MOL0     O30993   7.291   9.352   6.528  0.7046  0.0228 -1.1324
  950MOL0     C30994   7.329   9.469   6.471  0.3576  1.0793 -0.2094
  950MOL0     C30995   7.431   9.456   6.375  0.9482 -0.3108  0.2824
  950MOL0     C30996   7.474   9.565   6.296  0.0745  0.2840 -0.3692
  950MOL0     C30997   7.429   9.698   6.342  1.0262  0.0649 -0.0177
  950MOL0     O30998   7.476   9.819   6.292 -0.3121 -0.0494  0.2657
  950MOL0     C30999   7.593   9.814   6.207  0.2917 -0.4156 -0.5365
  950MOL0     C31000   7.647   9.954   6.177 -0.9453 -0.4788 -0.1620
  950MOL0     C31001   7.582  10.023   6.056  0.2826  0.0630 -0.8326
  950MOL0     C31002   7.595  10.177   6.046  0.3716  0.1818 -1.0485
  950MOL0     C31003   7.719  10.215   5.970  0.1530  0.4724 -0.0915
  950MOL0     C31004   7.723  10.368   5.953 -0.2803 -0.7260  0.6442
  950MOL0     C31005   7.860  10.402   5.885  0.0540  0.3676  0.1564
  950MOL0     C31006   7.897  10.545   5.855 -0.1060  0.2647  0.4260
  950MOL0    Cl31007   8.024  10.521   5.733 -0.2318 -0.1051  0.3892
  950MOL0     C31008   7.333   9.709   6.449 -0.3066 -0.9751  0.0414
  950MOL0     C31009   7.274   9.594   6.501 -0.8732  0.1970  0.0498
  950MOL0     O31010   7.359   9.404   6.740  0.2077  0.3288 -0.2886
  950MOL0     C31011   7.194   9.200   6.832  0.5030 -0.1232 -0.4793
  950MOL0     C31012   7.137   9.086   6.883  0.8170 -0.9176 -0.2796
  950MOL0     N31013   6.530   8.666   7.260 -0.5262 -0.3250  0.9800
  950MOL0     N31014   6.473   8.662   7.374 -0.3346 -0.4742 -0.3203
  950MOL0     C31015   7.177   9.098   8.069  0.7438  0.1048 -0.2941
  950MOL0     C31016   7.289   9.152   8.004 -0.1099  0.3318  0.3895
  950MOL0     C31017   7.634   9.345   7.806  0.4091 -1.1315 -0.2674
  950MOL0     C31018   7.723   9.270   7.727 -1.2647  0.3700  0.4569
  950MOL0     C31019   7.840   9.325   7.676  0.0766 -0.2960  0.6947
  950MOL0     C31020   7.887   9.455   7.697  0.3074 -0.0821 -0.6628
  950MOL0     O31021   7.993   9.513   7.630 -0.0411 -0.0910  0.6992
  950MOL0     C31022   8.097   9.438   7.555  1.0754  0.2471 -0.3563
  950MOL0     C31023   8.203   9.527   7.480  0.2673 -0.1919  0.0994
  950MOL0     C31024   8.316   9.455   7.403 -0.3699  0.3120 -0.1691
  950MOL0     C31025   8.359   9.522   7.269 -1.0634 -0.4547  0.5661
  950MOL0     C31026   8.267   9.506   7.160  0.0017  0.2293  0.3370
  950MOL0     C31027   8.194   9.499   7.066  0.0237 -0.6924 -0.2158
  950MOL0     C31028   7.806   9.531   7.773  0.0952 -0.5700  0.1622
  950MOL0     C31029   7.675   9.482   7.823 -0.7268 -0.1578 -0.1793
  950MOL0     C31030   7.591   9.574   7.883 -0.3440 -0.2900 -0.9213
  950MOL0     H31031   7.220   9.481   8.032  2.5408 -0.1256 -3.0666
  950MOL0     H31032   7.034   9.384   8.144  0.7901  1.0827 -0.7237
  950MOL0     H31033   6.837   9.271   8.094 -1.1519 -0.0658 -0.8860
  950MOL0     H31034   6.808   9.203   8.260 -4.9938 -0.3189 -2.2411
  950MOL0     H31035   6.782   8.968   8.109 -0.1883 -1.2968 -0.1568
  950MOL0     H31036   6.649   9.076   8.125 -0.2685  1.7831 -0.1745
  950MOL0     H31037   6.706   9.198   7.926 -4.3120 -0.7541  2.7407
  950MOL0     H31038   6.859   9.110   7.909  2.0153 -1.5869  0.7309
  950MOL0     H31039   6.692   8.906   7.917  1.1973  0.4136 -2.7538
  950MOL0     H31040   6.561   9.021   7.885 -0.1598  2.5618  1.6819
  950MOL0     H31041   6.806   8.957   7.713 -1.1675 -2.1942 -1.0428
  950MOL0     H31042   6.713   9.094   7.669 -2.6617 -0.8913 -1.0262
  950MOL0     H31043   6.513   8.954   7.646  0.7460  0.0772 -3.1971
  950MOL0     H31044   6.642   8.914   7.542  0.5387  2.7534  0.5711
  950MOL0     H31045   6.558   8.781   7.798  2.5087  1.5460  0.4511
  950MOL0     H31046   6.700   8.720   7.702  0.1358 -1.6084  3.0036
  950MOL0     H31047   6.501   8.568   7.670 -0.4050  1.1137  1.8388
  950MOL0     H31048   6.420   8.713   7.619 -0.8393 -0.8872 -2.1566
  950MOL0     H31049   6.782   8.617   7.474  0.5063  2.0575  2.0011
  950MOL0     H31050   6.712   8.543   7.113  0.8069 -0.4636  0.1106
  950MOL0     H31051   6.852   8.563   7.228  1.8882  2.0122 -1.3378
  950MOL0     H31052   6.719   8.778   7.072  0.4411  0.9254  0.9610
  950MOL0     H31053   6.848   8.816   7.178 -0.1084  3.2313 -3.7331
  950MOL0     H31054   6.978   8.626   7.031 -4.5923 -2.1520 -1.7126
  950MOL0     H31055   6.872   8.709   6.921 -0.1903  0.6253  0.7380
  950MOL0     H31056   6.960   8.938   7.000  0.1759  0.1488  0.5480
  950MOL0     H31057   7.100   8.844   7.060  0.6091 -0.2050 -1.0534
  950MOL0     H31058   7.190   8.872   6.628  1.0578 -0.5799  0.9482
  950MOL0     H31059   7.420   9.103   6.519  0.4600  0.6286 -2.1058
  950MOL0     H31060   7.261   9.117   6.418 -0.0351  2.5859  1.3131
  950MOL0     H31061   7.329   8.967   6.466 -1.1051 -0.5905  1.8508
  950MOL0     H31062   7.475   9.360   6.346 -1.4006 -1.4766  0.3786
  950MOL0     H31063   7.550   9.561   6.219 -1.3244 -0.5351 -1.7743
  950MOL0     H31064   7.677   9.765   6.257 -0.4632 -2.4037 -1.1484
  950MOL0     H31065   7.577   9.754   6.117 -1.2581 -0.8386 -0.0042
  950MOL0     H31066   7.640  10.010   6.270 -1.6669  1.3291 -1.2539
  950MOL0     H31067   7.754   9.960   6.155 -0.9566  5.3566 -0.1623
  950MOL0     H31068   7.475  10.003   6.065  0.0433  0.8811 -1.7212
  950MOL0     H31069   7.616   9.966   5.968 -0.7448 -0.6072 -0.8172
  950MOL0     H31070   7.578  10.226   6.143 -0.1180 -4.9218  1.8262
  950MOL0     H31071   7.508  10.193   5.982 -2.7652 -0.7155  2.5961
  950MOL0     H31072   7.808  10.184   6.026 -0.0669 -1.1916 -0.6011
  950MOL0     H31073   7.735  10.162   5.876 -2.9756 -0.1072 -0.4184
  950MOL0     H31074   7.700  10.420   6.046  1.6244 -2.1331  1.9625
  950MOL0     H31075   7.647  10.386   5.875  1.4826  0.6292 -0.8522
  950MOL0     H31076   7.867  10.352   5.788  1.3114  3.2161 -1.3183
  950MOL0     H31077   7.929  10.354   5.955 -0.9458 -3.4655 -1.1964
  950MOL0     H31078   7.930  10.596   5.946 -0.3979  0.7899  0.2389
  950MOL0     H31079   7.807  10.599   5.823 -3.1838 -4.1469  0.7353
  950MOL0     H31080   7.290   9.795   6.500  0.8681 -0.6764  0.5473
  950MOL0     H31081   7.203   9.585   6.582 -0.0545  1.0574  0.8946
  950MOL0     H31082   7.188   9.288   6.895  1.4031 -1.6436  1.8610
  950MOL0     H31083   7.077   9.096   6.973 -2.4555  0.6083 -2.4293
  950MOL0     H31084   7.158   8.992   8.088  0.1095  0.3408  0.4354
  950MOL0     H31085   7.367   9.079   7.985 -2.4037 -2.0510 -0.3782
  950MOL0     H31086   7.694   9.167   7.707 -2.1971  0.5531  0.7770
  950MOL0     H31087   7.885   9.249   7.614 -1.2563  0.3130 -1.1140
  950MOL0     H31088   8.157   9.375   7.622  0.2170 -0.9012 -0.6522
  950MOL0     H31089   8.043   9.368   7.492 -2.5597  0.9270  1.7143
  950MOL0     H31090   8.241   9.605   7.547 -5.5044  0.9344  2.7220
  950MOL0     H31091   8.143   9.583   7.408  1.3635 -1.9288 -2.2596
  950MOL0     H31092   8.401   9.456   7.473  0.0263  3.7498 -0.5482
  950MOL0     H31093   8.299   9.347   7.400  1.1867 -0.0033  0.9535
  950MOL0     H31094   8.456   9.482   7.237  0.0597  1.7253  1.0013
  950MOL0     H31095   8.376   9.629   7.286 -0.8820 -0.0101 -2.0255
  950MOL0     H31096   8.132   9.492   6.978 -0.5544  2.8138 -0.2411
  950MOL0     H31097   7.818   9.638   7.774  0.7927 -0.6438  1.0559
  950MOL0     H31098   7.656   9.660   7.902  1.0597 -1.8511  2.1875
  950MOL0     H31099   7.502   9.584   7.821 -0.6254 -0.8152 -0.6103
  950MOL0     H31100   7.555   9.541   7.981 -0.1662  0.7423 -0.4978
  951MOL0     O31101   5.976   2.523   3.267  0.6144  0.0168 -0.2180
  951MOL0     C31102   6.043   2.616   3.313  0.1754  0.1740  0.1674
  951MOL0     O31103   6.008   2.689   3.418  0.6400 -0.0802 -0.3523
  951MOL0     C31104   5.965   2.623   3.531  0.1824 -0.8208 -0.6989
  951MOL0     C31105   6.005   2.504   3.587 -0.3220 -0.2992  0.5752
  951MOL0     C31106   5.954   2.462   3.707  0.2081 -0.2528 -0.6711
  951MOL0     C31107   5.848   2.521   3.769  0.8203 -0.6749 -0.8710
  951MOL0     O31108   5.808   2.485   3.896  0.9554 -0.2717 -0.2032
  951MOL0     C31109   5.769   2.353   3.914 -0.4421  0.7870  0.2063
  951MOL0     C31110   5.615   2.335   3.920  0.6363  0.0236 -0.8478
  951MOL0     C31111   5.526   2.452   3.980 -0.2798  0.8665  0.4006
  951MOL0     C31112   5.554   2.475   4.127  0.3656  0.5813  0.6740
  951MOL0     C31113   5.453   2.576   4.184 -0.4816  0.4305  1.2979
  951MOL0     C31114   5.494   2.636   4.320  0.2642 -0.1135  0.4257
  951MOL0     C31115   5.397   2.744   4.370  0.3300 -0.2567 -0.6353
  951MOL0     C31116   5.432   2.793   4.515  0.4629  0.1117  0.4501
  951MOL0     N31117   5.420   2.686   4.619  0.2288  0.2771  0.1026
  951MOL0     C31118   5.500   2.661   4.735 -0.6348  0.1659 -0.2736
  951MOL0     C31119   5.429   2.572   4.813  0.1295  1.0519 -0.0400
  951MOL0     C31120   5.479   2.499   4.930  0.5043 -0.7044  0.8674
  951MOL0     C31121   5.419   2.538   5.060  0.3481 -0.2178 -0.2297
  951MOL0     C31122   5.282   2.613   5.049  0.3391  0.5803  0.1142
  951MOL0     C31123   5.241   2.698   5.168  0.7755 -0.4092 -0.4683
  951MOL0     O31124   5.229   2.627   5.284  1.1192 -0.2913 -0.9448
  951MOL0     C31125   5.104   2.578   5.328 -0.4936  0.7125  0.4740
  951MOL0     C31126   5.114   2.477   5.423  0.1896  0.4439 -0.1672
  951MOL0     C31127   5.000   2.410   5.474 -0.1406  0.0090 -0.6777
  951MOL0     C31128   5.023   2.323   5.595 -0.3080 -0.5985  1.0317
  951MOL0     C31129   4.870   2.447   5.432 -0.2255  0.1543  0.1134
  951MOL0     C31130   4.738   2.389   5.491 -0.6198 -0.1170 -1.2901
  951MOL0     O31131   4.744   2.259   5.522 -0.3025  0.1066  0.3591
  951MOL0     C31132   4.626   2.192   5.561  0.3313  0.1130 -0.2415
  951MOL0     C31133   4.496   2.217   5.512  0.3496 -0.2092 -0.4319
  951MOL0     C31134   4.390   2.146   5.571  0.4069  0.4300  0.3708
  951MOL0     C31135   4.409   2.037   5.659  0.1614  0.3683  0.1112
  951MOL0     O31136   4.301   1.960   5.692 -0.2577  0.0544 -0.0142
  951MOL0     C31137   4.308   1.850   5.790 -0.3571 -0.5158  1.0994
  951MOL0     C31138   4.321   1.903   5.934  0.7644 -0.1909  0.1720
  951MOL0     C31139   4.213   2.003   5.990 -0.4916 -1.6572  0.9588
  951MOL0     C31140   4.089   1.929   6.039  1.1145 -0.7027  0.0767
  951MOL0     C31141   3.982   2.027   6.063 -0.0580  0.7836 -0.4534
  951MOL0     C31142   3.979   2.106   6.200 -1.0697  0.6896  1.2780
  951MOL0     C31143   3.869   2.202   6.204 -0.8530 -0.0637 -0.0200
  951MOL0     C31144   3.915   2.339   6.259 -0.2990  0.4650  0.6788
  951MOL0    Cl31145   3.764   2.415   6.318 -0.2263  0.3844 -0.4760
  951MOL0     C31146   4.540   2.014   5.701  0.0316 -0.8553 -0.2128
  951MOL0     C31147   4.644   2.094   5.664  0.5120  0.0800 -0.3487
  951MOL0     O31148   4.652   2.465   5.517 -0.1262  0.3221  0.5235
  951MOL0     C31149   4.860   2.547   5.339 -0.1500 -0.8190  1.0202
  951MOL0     C31150   4.981   2.604   5.286  0.9574 -0.6190 -0.7398
  951MOL0     N31151   5.313   2.542   4.747 -0.6099 -0.0506 -0.4818
  951MOL0     N31152   5.309   2.615   4.637  0.0756 -0.4203  0.5079
  951MOL0     C31153   5.796   2.643   3.717 -1.0548 -0.2679 -0.8648
  951MOL0     C31154   5.855   2.688   3.599 -1.2185 -0.2870  0.7776
  951MOL0     C31155   6.163   2.646   3.236  0.2257 -0.1893  1.1426
  951MOL0     C31156   6.189   2.582   3.111 -0.6572 -0.3382 -0.4028
  951MOL0     C31157   6.303   2.600   3.040 -0.7078 -0.1492  0.1886
  951MOL0     C31158   6.402   2.690   3.084 -0.3507 -0.0845  0.4509
  951MOL0     O31159   6.522   2.718   3.018  0.8639 -0.1956  0.6244
  951MOL0     C31160   6.599   2.597   2.979  0.4076  0.3623 -0.0181
  951MOL0     C31161   6.733   2.649   2.914  1.7039 -0.2266 -0.5502
  951MOL0     C31162   6.818   2.743   3.002 -0.0845  0.2939  0.2231
  951MOL0     C31163   6.933   2.787   2.913 -0.3876 -0.6574  0.5558
  951MOL0     C31164   6.981   2.912   2.957 -1.1463 -0.1429  0.2097
  951MOL0     C31165   6.996   3.030   3.000 -0.1091  0.2969 -0.2645
  951MOL0     C31166   6.382   2.762   3.201 -1.0211  0.2301 -0.5509
  951MOL0     C31167   6.263   2.739   3.272 -0.4741  0.8041 -1.5875
  951MOL0     C31168   6.257   2.816   3.401  0.1510 -1.0115 -0.5172
  951MOL0     H31169   6.085   2.452   3.536 -0.9348 -0.2724 -0.4346
  951MOL0     H31170   5.990   2.365   3.740 -2.2170 -1.6055 -1.7150
  951MOL0     H31171   5.817   2.310   4.002  0.8439 -3.2747 -2.1913
  951MOL0     H31172   5.804   2.296   3.827 -1.4786  1.1109 -0.4408
  951MOL0     H31173   5.573   2.310   3.823 -0.7543  3.8974 -1.4244
  951MOL0     H31174   5.602   2.248   3.986  0.7412 -0.8056 -1.9013
  951MOL0     H31175   5.559   2.544   3.931 -0.2502  0.4948 -0.2931
  951MOL0     H31176   5.421   2.434   3.954 -0.3094 -0.8083  1.5391
  951MOL0     H31177   5.540   2.379   4.178  3.9630 -2.0178 -2.6345
  951MOL0     H31178   5.659   2.502   4.140  0.5913 -0.9862  2.4663
  951MOL0     H31179   5.352   2.534   4.187 -0.7881  1.0590  0.3466
  951MOL0     H31180   5.450   2.659   4.113  5.2765  1.9316  2.2907
  951MOL0     H31181   5.502   2.560   4.398  1.2335 -0.1070  0.3424
  951MOL0     H31182   5.593   2.682   4.317  1.8224 -3.2785 -0.5128
  951MOL0     H31183   5.294   2.707   4.365 -0.5621  0.7483  4.7035
  951MOL0     H31184   5.399   2.827   4.298  2.1453  2.2985  2.1214
  951MOL0     H31185   5.527   2.846   4.524  1.5711 -1.9294  1.6327
  951MOL0     H31186   5.357   2.868   4.540  2.2481  1.7314  1.1243
  951MOL0     H31187   5.596   2.703   4.760  1.4653 -2.4765 -3.0410
  951MOL0     H31188   5.587   2.493   4.942  0.4391  0.0258  1.9823
  951MOL0     H31189   5.452   2.396   4.906  1.4735 -0.3371 -2.2508
  951MOL0     H31190   5.415   2.443   5.115  1.9949  0.0253  0.3707
  951MOL0     H31191   5.493   2.596   5.117 -0.7975 -1.3437  2.6183
  951MOL0     H31192   5.285   2.688   4.969 -2.1807  0.4796 -0.1437
  951MOL0     H31193   5.201   2.547   5.019  0.3621 -1.5261  4.0419
  951MOL0     H31194   5.325   2.765   5.188 -1.3982  2.8010 -1.2713
  951MOL0     H31195   5.158   2.768   5.158  0.7674 -0.1978  0.9022
  951MOL0     H31196   5.217   2.472   5.456 -0.1966 -1.3666  0.8439
  951MOL0     H31197   4.985   2.376   5.682  0.2386 -1.3759  1.7659
  951MOL0     H31198   5.126   2.285   5.602  0.8192  0.8774 -3.6899
  951MOL0     H31199   4.967   2.229   5.585 -0.6700 -0.1893 -1.7669
  951MOL0     H31200   4.479   2.307   5.453 -3.4783  1.9520  3.4307
  951MOL0     H31201   4.287   2.177   5.560  1.0882  2.9166  0.3548
  951MOL0     H31202   4.214   1.795   5.788 -0.2608 -0.9449  4.2328
  951MOL0     H31203   4.390   1.788   5.751  0.3712  1.2322 -0.3310
  951MOL0     H31204   4.315   1.811   5.993  3.9020  0.6422  2.0194
  951MOL0     H31205   4.419   1.947   5.955  0.2032 -0.0743  2.8845
  951MOL0     H31206   4.186   2.079   5.915  0.6685  0.2793  2.4048
  951MOL0     H31207   4.264   2.054   6.072  1.1903 -0.8687 -0.5092
  951MOL0     H31208   4.130   1.885   6.130  0.6048  0.1307  0.7262
  951MOL0     H31209   4.047   1.854   5.971 -0.1879 -0.4002  0.5234
  951MOL0     H31210   3.978   2.092   5.975 -2.4824 -2.3318 -2.8769
  951MOL0     H31211   3.888   1.972   6.056  0.7102 -0.4166 -1.9611
  951MOL0     H31212   4.077   2.154   6.206  0.8893 -2.7606 -0.0748
  951MOL0     H31213   3.956   2.051   6.292 -0.9877 -2.0471 -0.2327
  951MOL0     H31214   3.787   2.163   6.265 -0.5235  2.3378  2.1347
  951MOL0     H31215   3.827   2.220   6.105 -2.6028 -4.2778 -0.2671
  951MOL0     H31216   3.958   2.406   6.184  0.2078 -1.2516 -0.6472
  951MOL0     H31217   3.987   2.318   6.339 -1.9020 -1.7351  1.6414
  951MOL0     H31218   4.556   1.942   5.780 -1.4523  2.3759  3.3598
  951MOL0     H31219   4.744   2.082   5.705  0.7868 -1.7215 -1.4485
  951MOL0     H31220   4.761   2.587   5.317  0.6937  1.0442  0.4065
  951MOL0     H31221   4.970   2.694   5.225 -1.5769  1.7530  2.7893
  951MOL0     H31222   5.719   2.702   3.767  0.6092  1.6348 -0.4245
  951MOL0     H31223   5.819   2.785   3.566  1.0757  1.3383  2.7427
  951MOL0     H31224   6.115   2.519   3.063 -0.1287 -2.6756  1.6409
  951MOL0     H31225   6.331   2.549   2.949 -2.7799 -3.5088  1.2394
  951MOL0     H31226   6.612   2.535   3.068  0.7785  2.8920  1.7906
  951MOL0     H31227   6.544   2.533   2.909 -0.6955  1.4400 -0.1591
  951MOL0     H31228   6.717   2.703   2.820 -2.9218 -0.1492  0.0164
  951MOL0     H31229   6.793   2.560   2.895  0.1912 -1.1800 -1.1105
  951MOL0     H31230   6.756   2.824   3.041 -0.1389 -0.6555  2.2409
  951MOL0     H31231   6.862   2.694   3.090  0.7830 -0.9924 -0.8716
  951MOL0     H31232   6.904   2.798   2.808  1.4013 -0.7891  0.0202
  951MOL0     H31233   7.011   2.711   2.919 -1.2966 -1.5574  1.5618
  951MOL0     H31234   7.005   3.125   3.048  0.4837 -0.2876  0.8428
  951MOL0     H31235   6.468   2.819   3.236  0.3672 -2.9225  1.6331
  951MOL0     H31236   6.274   2.753   3.489 -0.2521  2.3510  2.1737
  951MOL0     H31237   6.338   2.889   3.403 -1.6254  1.0625  0.1066
  951MOL0     H31238   6.160   2.866   3.404  0.9228  0.5783  2.3698
  952MOL0     O31239  10.234   2.582  10.416  0.1135 -0.3793 -0.2648
  952MOL0     C31240  10.122   2.601  10.449  0.6098  1.0288  0.3442
  952MOL0     O31241  10.081   2.623  10.588 -0.1438  0.0082  0.3001
  952MOL0     C31242  10.183   2.630  10.683 -0.4212  1.1845 -0.2390
  952MOL0     C31243  10.244   2.756  10.703 -0.1973  0.5033  0.0435
  952MOL0     C31244  10.362   2.775  10.788  0.6315  0.2334  0.2825
  952MOL0     C31245  10.405   2.668  10.870 -0.2149 -0.5306 -0.1970
  952MOL0     O31246  10.508   2.685  10.962 -0.6614  0.0633  0.2412
  952MOL0     C31247  10.538   2.584  11.058  0.6530 -0.2419  0.1288
  952MOL0     C31248  10.646   2.634  11.146 -0.1076 -0.8848  0.0214
  952MOL0     C31249  10.746   2.529  11.181  0.2455 -0.6102  0.2446
  952MOL0     C31250  10.874   2.576  11.259  0.2898  0.4722 -0.2742
  952MOL0     C31251  10.968   2.460  11.316 -0.0197 -0.7142  0.4782
  952MOL0     C31252  11.020   2.353  11.212 -0.4338  0.1270 -1.0122
  952MOL0     C31253  11.110   2.413  11.108  0.7255 -0.3412  0.5647
  952MOL0     C31254  11.177   2.294  11.050 -0.1132  0.2334  0.2844
  952MOL0     N31255  11.289   2.333  10.971 -0.0712  0.2698  0.1000
  952MOL0     C31256  11.411   2.379  11.026 -0.0215 -1.2574  0.1119
  952MOL0     C31257  11.480   2.389  10.912  0.5392  0.6200 -0.6645
  952MOL0     C31258  11.616   2.434  10.900 -0.2867 -0.2584  0.3243
  952MOL0     C31259  11.636   2.575  10.959 -0.6397 -0.0042  0.3921
  952MOL0     C31260  11.787   2.598  10.986  0.6938  1.0215  0.7443
  952MOL0     C31261  11.834   2.675  11.104  0.4020 -0.5814 -0.3087
  952MOL0     O31262  11.975   2.698  11.107 -0.1552 -0.3327 -0.5692
  952MOL0     C31263  11.989   2.839  11.096 -0.6915 -0.0973  0.2196
  952MOL0     C31264  12.008   2.911  11.216 -0.6812  0.0704 -0.5196
  952MOL0     C31265  12.036   3.051  11.203  0.1099  0.1685 -0.3345
  952MOL0     C31266  12.068   3.128  11.332  0.6003 -0.9252  0.2369
  952MOL0     C31267  12.043   3.107  11.081 -0.3850  0.1284 -1.5595
  952MOL0     C31268  12.069   3.255  11.054 -1.1544 -0.6634 -1.2345
  952MOL0     O31269  12.131   3.286  10.940 -0.1594 -0.9050  0.1864
  952MOL0     C31270  12.152   3.415  10.912 -0.0693 -0.3175  0.3325
  952MOL0     C31271  12.236   3.499  10.979 -0.2934  0.1515 -0.2916
  952MOL0     C31272  12.250   3.639  10.942 -0.2181 -0.5748 -0.3549
  952MOL0     C31273  12.191   3.689  10.829 -0.0833 -0.7693 -0.2427
  952MOL0     O31274  12.199   3.823  10.791 -0.7896  0.6598 -0.1739
  952MOL0     C31275  12.069   3.886  10.779  0.5226 -0.5496 -0.2425
  952MOL0     C31276  12.056   4.012  10.870 -0.3692  0.1707 -0.6997
  952MOL0     C31277  12.134   4.144  10.828 -0.0935  0.5738  0.2195
  952MOL0     C31278  12.147   4.245  10.938  0.4416 -0.1474 -0.0962
  952MOL0     C31279  12.015   4.320  10.966  0.1394  1.0967  0.7247
  952MOL0     C31280  12.047   4.438  11.066  0.8722  1.1518  0.8214
  952MOL0     C31281  12.131   4.422  11.188  0.7384 -0.3691 -0.6559
  952MOL0     C31282  12.073   4.330  11.291 -0.4911 -0.7243 -0.2505
  952MOL0    Cl31283  12.202   4.224  11.352  0.4497 -0.0267 -0.2125
  952MOL0     C31284  12.103   3.600  10.759  0.8611 -1.2531 -0.1915
  952MOL0     C31285  12.092   3.470  10.798  0.6226  0.1664  0.0114
  952MOL0     O31286  12.039   3.339  11.136  0.2126  0.5077 -0.8529
  952MOL0     C31287  12.026   3.026  10.963 -0.3961 -1.5943  0.4568
  952MOL0     C31288  11.998   2.897  10.966  0.8610  0.2215  0.3327
  952MOL0     N31289  11.404   2.338  10.805 -0.1942  0.3748  0.5681
  952MOL0     N31290  11.289   2.305  10.841  0.0940  0.7139  0.3839
  952MOL0     C31291  10.326   2.549  10.863  0.8247  0.8079  0.0282
  952MOL0     C31292  10.227   2.528  10.769  0.5810 -0.1278 -0.5382
  952MOL0     C31293  10.025   2.573  10.340 -1.0691  0.1690  0.4871
  952MOL0     C31294  10.067   2.495  10.234 -0.1613 -0.1642 -0.2257
  952MOL0     C31295   9.972   2.468  10.137 -0.3750  1.2146 -0.2381
  952MOL0     C31296   9.849   2.528  10.137 -0.2376 -0.1583  0.4388
  952MOL0     O31297   9.777   2.505  10.020  0.1921 -0.2115  0.2414
  952MOL0     C31298   9.657   2.578  10.003  0.1270  0.2929 -0.4560
  952MOL0     C31299   9.564   2.520   9.887  0.1476 -0.4203 -1.6419
  952MOL0     C31300   9.426   2.585   9.884 -0.1265  0.8874 -0.0689
  952MOL0     C31301   9.423   2.709   9.791  0.7143 -0.3173  0.3137
  952MOL0     C31302   9.292   2.723   9.722  0.0442 -0.6868 -0.0816
  952MOL0     C31303   9.183   2.732   9.667 -0.6319 -0.2841  0.0504
  952MOL0     C31304   9.819   2.617  10.239  0.0898  0.0889  1.0385
  952MOL0     C31305   9.897   2.627  10.353  0.3839 -0.7019 -1.3314
  952MOL0     C31306   9.848   2.704  10.473  0.5139 -0.4022 -1.0204
  952MOL0     H31307  10.197   2.841  10.654  1.8838  0.2165 -2.6657
  952MOL0     H31308  10.410   2.872  10.798  2.6111 -0.6608 -0.0737
  952MOL0     H31309  10.572   2.491  11.011  1.3458  0.2621 -0.3895
  952MOL0     H31310  10.450   2.556  11.117  0.9792 -0.3604  0.5712
  952MOL0     H31311  10.706   2.701  11.084 -2.4481 -0.7842 -2.3360
  952MOL0     H31312  10.610   2.693  11.230  2.6852 -0.1358  0.7928
  952MOL0     H31313  10.694   2.453  11.240 -0.8374 -2.0715 -2.4272
  952MOL0     H31314  10.779   2.478  11.090  1.3436 -0.6256  0.6331
  952MOL0     H31315  10.938   2.638  11.195  0.1625  1.0685  0.1582
  952MOL0     H31316  10.829   2.637  11.339 -0.9436  0.5431 -0.9966
  952MOL0     H31317  10.916   2.398  11.390 -1.9974  0.3383  0.0240
  952MOL0     H31318  11.050   2.508  11.370  0.4743  0.9309 -1.5999
  952MOL0     H31319  11.086   2.287  11.269 -0.9892  0.3200 -0.1261
  952MOL0     H31320  10.944   2.290  11.165  1.5411 -0.5539 -3.4583
  952MOL0     H31321  11.179   2.477  11.164 -0.2535  0.2796  1.0919
  952MOL0     H31322  11.039   2.472  11.048  0.6925  1.1079  1.9449
  952MOL0     H31323  11.221   2.218  11.116  3.5231 -0.4230 -2.5276
  952MOL0     H31324  11.108   2.244  10.982  2.0650 -0.2816 -1.7038
  952MOL0     H31325  11.438   2.390  11.131 -1.4173 -0.3076  0.4019
  952MOL0     H31326  11.646   2.432  10.795  0.6098 -0.1625  0.5718
  952MOL0     H31327  11.679   2.357  10.947  0.3346 -1.8622 -2.8266
  952MOL0     H31328  11.608   2.645  10.879  1.9860  0.9478  0.1753
  952MOL0     H31329  11.576   2.592  11.048  0.2126 -1.3659  1.2544
  952MOL0     H31330  11.823   2.495  10.993  1.7821  1.0038 -2.7657
  952MOL0     H31331  11.837   2.634  10.895 -0.8165 -2.0501 -1.4828
  952MOL0     H31332  11.779   2.770  11.098 -0.7794 -1.1919  0.4233
  952MOL0     H31333  11.794   2.622  11.191 -0.7378 -0.5154 -0.7763
  952MOL0     H31334  12.010   2.850  11.305  1.4630 -0.4070 -0.8236
  952MOL0     H31335  12.075   3.060  11.418  0.7346  0.9654  1.7862
  952MOL0     H31336  11.979   3.187  11.354  0.5897 -0.5983 -0.6517
  952MOL0     H31337  12.156   3.193  11.337  0.2687 -0.4457  5.6719
  952MOL0     H31338  12.282   3.475  11.074 -2.8344 -1.5744  0.6235
  952MOL0     H31339  12.316   3.713  10.985  1.0118 -1.8437 -0.0007
  952MOL0     H31340  12.057   3.917  10.675  1.7154 -1.8529 -0.7967
  952MOL0     H31341  11.989   3.813  10.793 -0.6328  0.8783  1.0263
  952MOL0     H31342  11.951   4.034  10.891  0.5524  2.1021  2.7410
  952MOL0     H31343  12.078   3.984  10.974 -0.8286  0.5163 -0.5068
  952MOL0     H31344  12.092   4.196  10.742 -3.7716 -2.4439 -0.0257
  952MOL0     H31345  12.230   4.105  10.793 -1.9482 -4.7676  0.2058
  952MOL0     H31346  12.228   4.317  10.925 -0.1176  0.7096  1.0151
  952MOL0     H31347  12.170   4.180  11.023  1.1638  0.1655 -0.0484
  952MOL0     H31348  11.970   4.351  10.871  0.4047 -0.4387  0.0721
  952MOL0     H31349  11.944   4.252  11.015  1.0502 -0.7134 -0.4019
  952MOL0     H31350  11.950   4.476  11.098  0.0030  1.0376 -1.4956
  952MOL0     H31351  12.093   4.513  11.001  4.1160  0.1622  1.7855
  952MOL0     H31352  12.143   4.523  11.230  2.5835 -0.0304 -1.8828
  952MOL0     H31353  12.233   4.399  11.154  1.3456 -0.4207  1.1181
  952MOL0     H31354  11.988   4.277  11.247 -0.0825 -1.0306 -0.6732
  952MOL0     H31355  12.044   4.394  11.375 -0.8504  0.9247 -1.5567
  952MOL0     H31356  12.051   3.652  10.678  1.6529  2.2326  1.3302
  952MOL0     H31357  12.034   3.406  10.731  0.9474  0.6843 -0.7815
  952MOL0     H31358  12.028   3.078  10.868 -0.2106  1.4311  2.0108
  952MOL0     H31359  11.979   2.834  10.879 -3.0799 -1.6502  2.3051
  952MOL0     H31360  10.351   2.461  10.922  0.4615 -0.6955 -1.9235
  952MOL0     H31361  10.190   2.428  10.750  0.6842 -0.4410  0.8471
  952MOL0     H31362  10.162   2.441  10.233  1.4482  2.4703 -0.7200
  952MOL0     H31363   9.999   2.392  10.064 -2.8240 -0.7628  0.7504
  952MOL0     H31364   9.595   2.560  10.091 -1.1114  1.9595 -0.9358
  952MOL0     H31365   9.669   2.685   9.984 -1.6601  0.7636  0.8479
  952MOL0     H31366   9.557   2.412   9.904  0.4589  0.0786  2.9137
  952MOL0     H31367   9.617   2.535   9.792  1.3177  0.0868 -0.9285
  952MOL0     H31368   9.369   2.504   9.837  2.0862 -0.8270 -0.0152
  952MOL0     H31369   9.400   2.614   9.986 -1.6421  0.4842 -0.3227
  952MOL0     H31370   9.498   2.691   9.713  0.1795 -2.3110  0.2101
  952MOL0     H31371   9.442   2.797   9.852  0.7388  0.8429 -1.3050
  952MOL0     H31372   9.093   2.712   9.614 -0.1642 -0.0981 -0.8298
  952MOL0     H31373   9.727   2.674  10.237 -0.3584 -0.5764  2.0811
  952MOL0     H31374   9.836   2.641  10.562 -0.0117  0.9111 -0.1348
  952MOL0     H31375   9.913   2.785  10.508  0.2038 -0.0057 -1.3558
  952MOL0     H31376   9.750   2.750  10.463  0.6092  0.9664  2.8302
  953MOL0     O31377   6.590   6.869   4.699 -0.1109 -0.6258 -0.5891
  953MOL0     C31378   6.618   6.747   4.723 -0.5378 -0.8881 -0.3309
  953MOL0     O31379   6.743   6.700   4.718 -0.1122  0.1360 -0.2202
  953MOL0     C31380   6.837   6.750   4.637  0.2524 -1.0068  0.0239
  953MOL0     C31381   6.958   6.791   4.696  0.5925  0.5698  0.9197
  953MOL0     C31382   7.061   6.846   4.616 -0.3428 -0.5414 -1.0095
  953MOL0     C31383   7.047   6.872   4.483 -0.3364  0.9417  0.8862
  953MOL0     O31384   7.147   6.941   4.421  1.0059 -0.6701  0.6541
  953MOL0     C31385   7.162   6.909   4.282  0.1476 -0.6609  0.1800
  953MOL0     C31386   7.299   6.976   4.242 -0.4167  0.0672 -0.8830
  953MOL0     C31387   7.295   7.124   4.217  0.1055  0.5669  0.8053
  953MOL0     C31388   7.410   7.170   4.130 -0.8219  0.0205 -0.9478
  953MOL0     C31389   7.424   7.324   4.124  0.2263 -0.3277 -0.2987
  953MOL0     C31390   7.293   7.397   4.086  0.7419 -0.2839 -1.3977
  953MOL0     C31391   7.322   7.527   4.016  0.9501  0.1015  0.1267
  953MOL0     C31392   7.196   7.606   3.972 -0.2258  0.5332  1.3446
  953MOL0     N31393   7.085   7.530   3.905  0.3932 -0.3798  0.7688
  953MOL0     C31394   7.086   7.481   3.773  0.3416 -0.2786  0.2541
  953MOL0     C31395   6.964   7.443   3.744 -0.3513  0.5982 -0.2995
  953MOL0     C31396   6.908   7.384   3.613  0.3311  0.5611 -0.8388
  953MOL0     C31397   6.933   7.230   3.616  0.7250 -0.1307 -0.0122
  953MOL0     C31398   6.886   7.176   3.476  0.3595 -0.3757 -0.9223
  953MOL0     C31399   6.937   7.028   3.459  0.2745 -0.5085  0.2753
  953MOL0     O31400   7.079   7.036   3.449 -0.3446  0.1169  0.4527
  953MOL0     C31401   7.153   6.918   3.429  0.3491 -0.1566 -0.2797
  953MOL0     C31402   7.252   6.918   3.329 -0.6079  0.0769  0.3086
  953MOL0     C31403   7.333   6.811   3.302 -0.0680 -0.2310 -0.2472
  953MOL0     C31404   7.431   6.829   3.195 -0.5911  0.2738  0.0592
  953MOL0     C31405   7.319   6.692   3.382 -0.3898  0.5729  0.0773
  953MOL0     C31406   7.391   6.563   3.357 -0.5186  0.4267  0.5849
  953MOL0     O31407   7.415   6.487   3.468  0.4674 -0.2657 -0.1121
  953MOL0     C31408   7.498   6.380   3.452  0.3257  0.6872 -0.9448
  953MOL0     C31409   7.611   6.359   3.544 -1.3853 -0.0713 -0.5566
  953MOL0     C31410   7.690   6.244   3.529 -0.9714  0.1952 -0.3113
  953MOL0     C31411   7.654   6.139   3.434 -0.4561 -0.4056  0.9412
  953MOL0     O31412   7.716   6.016   3.422  0.5191  0.2195  0.1988
  953MOL0     C31413   7.857   6.007   3.410 -0.1575  1.0345 -0.6205
  953MOL0     C31414   7.906   5.865   3.373  0.9453  0.7156 -1.3073
  953MOL0     C31415   8.056   5.835   3.382 -0.0599 -0.0248 -0.0480
  953MOL0     C31416   8.075   5.685   3.341 -0.7805 -0.2768 -0.0823
  953MOL0     C31417   8.225   5.637   3.338 -0.2342  0.4872 -0.4287
  953MOL0     C31418   8.283   5.625   3.482 -0.0811 -0.4782 -0.6579
  953MOL0     C31419   8.430   5.565   3.483 -0.3609  0.0705 -0.4392
  953MOL0     C31420   8.462   5.517   3.623  0.1624  0.5066 -0.4810
  953MOL0    Cl31421   8.430   5.646   3.760  0.2188  0.1063  0.2236
  953MOL0     C31422   7.530   6.159   3.359 -0.3584  0.1742 -0.7578
  953MOL0     C31423   7.464   6.279   3.366  0.0796 -0.0775 -0.5126
  953MOL0     O31424   7.427   6.530   3.242  0.1490 -1.1442 -0.0748
  953MOL0     C31425   7.217   6.695   3.481 -0.6483  0.2733  0.6346
  953MOL0     C31426   7.128   6.799   3.499  0.1781  0.0267 -0.5797
  953MOL0     N31427   6.883   7.477   3.846  0.1488  0.1941  0.0087
  953MOL0     N31428   6.958   7.529   3.948  0.9679  0.3612  0.6319
  953MOL0     C31429   6.931   6.820   4.427 -0.3113 -0.1745 -0.0274
  953MOL0     C31430   6.825   6.770   4.502  0.0223 -0.2015 -0.6335
  953MOL0     C31431   6.505   6.664   4.765 -0.9354 -0.3542  0.7145
  953MOL0     C31432   6.516   6.531   4.729 -1.2511 -0.2314  0.1219
  953MOL0     C31433   6.430   6.443   4.781  0.7184  0.0956  0.1607
  953MOL0     C31434   6.319   6.477   4.861 -0.4505 -0.0200 -0.0166
  953MOL0     O31435   6.254   6.380   4.918  0.1200  0.2604 -0.0675
  953MOL0     C31436   6.116   6.395   4.939  0.1953 -0.0344  0.0711
  953MOL0     C31437   6.054   6.272   4.999  0.4162 -0.5407 -0.1486
  953MOL0     C31438   6.066   6.141   4.907 -0.6542  0.2110 -1.1000
  953MOL0     C31439   6.027   6.016   4.998 -0.0078  0.5051  0.9788
  953MOL0     C31440   5.908   6.033   5.083  0.2057  0.3587 -0.0494
  953MOL0     C31441   5.813   6.040   5.159  0.1816  0.9020 -0.7902
  953MOL0     C31442   6.306   6.609   4.900 -0.6343  1.1507 -0.1589
  953MOL0     C31443   6.392   6.711   4.834 -0.0209  0.0579 -0.2967
  953MOL0     C31444   6.370   6.853   4.877 -0.2001 -1.3620  0.9705
  953MOL0     H31445   6.977   6.772   4.802  1.3885 -0.2907  0.6393
  953MOL0     H31446   7.151   6.889   4.660 -0.7919  1.7595 -2.2065
  953MOL0     H31447   7.076   6.935   4.220 -0.2925 -1.3450  0.4977
  953MOL0     H31448   7.174   6.801   4.268  0.7094 -0.1930 -4.4373
  953MOL0     H31449   7.389   6.956   4.301 -1.2557  0.8018  0.7162
  953MOL0     H31450   7.320   6.929   4.146  2.1067  0.8691 -0.7942
  953MOL0     H31451   7.200   7.147   4.168  0.5500 -2.2375 -1.6921
  953MOL0     H31452   7.290   7.182   4.309  0.0045  0.0402  1.1339
  953MOL0     H31453   7.503   7.132   4.174 -0.3710  0.8021 -1.1955
  953MOL0     H31454   7.394   7.144   4.025  1.6218  0.9571 -1.6271
  953MOL0     H31455   7.508   7.348   4.058 -0.2542  1.6794 -0.2329
  953MOL0     H31456   7.464   7.344   4.225  4.4185 -5.2879 -0.5099
  953MOL0     H31457   7.235   7.325   4.027 -0.7751 -1.2105  1.0952
  953MOL0     H31458   7.239   7.417   4.178  0.7729 -2.0069 -0.9674
  953MOL0     H31459   7.381   7.495   3.930  0.9364 -1.1221  0.5455
  953MOL0     H31460   7.386   7.599   4.068  0.0948  1.9576 -1.2632
  953MOL0     H31461   7.146   7.647   4.060 -0.3570 -0.4707  1.7419
  953MOL0     H31462   7.224   7.688   3.904 -0.4147 -2.2415 -2.3857
  953MOL0     H31463   7.168   7.487   3.703  0.1677 -2.0082 -0.1399
  953MOL0     H31464   6.963   7.434   3.532 -0.0383  3.7021  0.6829
  953MOL0     H31465   6.802   7.411   3.610  0.2788  0.4087 -0.3585
  953MOL0     H31466   7.033   7.195   3.641  0.3628 -0.5220  0.9324
  953MOL0     H31467   6.861   7.184   3.683  0.7777  1.3995  1.1556
  953MOL0     H31468   6.776   7.174   3.480  0.3639 -0.1811  2.7376
  953MOL0     H31469   6.926   7.231   3.390  0.8399 -0.5001 -0.7801
  953MOL0     H31470   6.895   6.965   3.538 -3.3610  0.5449 -0.6511
  953MOL0     H31471   6.892   6.991   3.367  1.3048  1.6804 -1.2125
  953MOL0     H31472   7.266   7.016   3.286 -2.1626  0.8316  1.4638
  953MOL0     H31473   7.513   6.757   3.198 -1.3801 -0.6022  1.3548
  953MOL0     H31474   7.477   6.929   3.196 -3.1091  1.7073 -3.8158
  953MOL0     H31475   7.393   6.816   3.093  0.6799 -3.4607 -0.0581
  953MOL0     H31476   7.626   6.437   3.618 -2.4192  2.1676 -2.5650
  953MOL0     H31477   7.782   6.240   3.588  0.5703 -1.9993 -2.6481
  953MOL0     H31478   7.879   6.076   3.327 -1.1089 -0.1961 -1.9387
  953MOL0     H31479   7.905   6.046   3.500 -0.3797  1.1284 -0.5419
  953MOL0     H31480   7.854   5.788   3.431  2.9025  0.5918  0.3641
  953MOL0     H31481   7.882   5.840   3.269  0.1277  1.1874 -1.2415
  953MOL0     H31482   8.094   5.857   3.482 -0.3582  0.7798 -0.1101
  953MOL0     H31483   8.120   5.900   3.321 -0.5371  1.0408  0.5709
  953MOL0     H31484   8.024   5.664   3.247 -0.8394  1.5025 -0.4935
  953MOL0     H31485   8.026   5.622   3.416 -1.2135 -0.3337 -0.4117
  953MOL0     H31486   8.228   5.541   3.286  0.2161  0.5877 -0.5869
  953MOL0     H31487   8.288   5.707   3.282  0.1015  0.6626  0.1687
  953MOL0     H31488   8.222   5.548   3.531 -1.4939 -0.3294 -2.0934
  953MOL0     H31489   8.275   5.711   3.549 -1.1389 -1.9316  1.1807
  953MOL0     H31490   8.493   5.648   3.450 -0.7761  0.8021  0.5411
  953MOL0     H31491   8.442   5.478   3.418  0.0446  1.3147 -2.1077
  953MOL0     H31492   8.567   5.488   3.615 -0.0335 -1.3203  2.2031
  953MOL0     H31493   8.395   5.433   3.643  1.1914 -0.4101 -0.7841
  953MOL0     H31494   7.487   6.086   3.290 -2.1081  0.3290  0.1198
  953MOL0     H31495   7.387   6.296   3.291 -1.2119 -1.4429  0.4506
  953MOL0     H31496   7.210   6.604   3.540 -0.3817  0.4486  0.9422
  953MOL0     H31497   7.055   6.801   3.580  3.0125  1.4443  2.1469
  953MOL0     H31498   6.903   6.838   4.324  0.2141  2.1523  0.1782
  953MOL0     H31499   6.730   6.737   4.461 -0.8076  0.1316  0.9651
  953MOL0     H31500   6.603   6.490   4.678 -1.2600 -1.0961  0.7755
  953MOL0     H31501   6.451   6.339   4.760  2.0583  1.0109 -3.9965
  953MOL0     H31502   6.095   6.476   5.009 -2.2372  2.4609 -3.1979
  953MOL0     H31503   6.061   6.415   4.847  0.9562  1.6327 -0.0532
  953MOL0     H31504   5.952   6.293   5.034  1.2911 -3.6326  5.4154
  953MOL0     H31505   6.121   6.258   5.084 -1.1889 -0.9554  1.1163
  953MOL0     H31506   6.002   6.155   4.819 -0.0190 -2.4500 -2.0484
  953MOL0     H31507   6.169   6.122   4.876 -1.0435 -0.9894 -1.6821
  953MOL0     H31508   6.111   5.981   5.060  1.7867 -0.2829 -1.7217
  953MOL0     H31509   6.019   5.932   4.928 -1.0388  1.2173  0.2155
  953MOL0     H31510   5.717   6.049   5.206  0.8141  0.4413  0.6228
  953MOL0     H31511   6.228   6.639   4.969 -0.0652  0.7513  0.6824
  953MOL0     H31512   6.320   6.915   4.802 -0.4208 -0.3095  1.9618
  953MOL0     H31513   6.296   6.861   4.958 -0.5774 -1.1099  0.6049
  953MOL0     H31514   6.461   6.897   4.918 -1.5462  0.6304  2.0006
  954MOL0     O31515   3.329  10.860   5.645 -0.5083  0.1160 -0.7160
  954MOL0     C31516   3.442  10.829   5.603 -0.2163 -0.3035  0.0460
  954MOL0     O31517   3.506  10.721   5.639 -0.4728 -0.5410 -0.4074
  954MOL0     C31518   3.503  10.678   5.766 -0.2041 -0.1434 -0.8215
  954MOL0     C31519   3.408  10.585   5.810 -0.1233  0.1996 -0.4553
  954MOL0     C31520   3.426  10.521   5.936  0.2249 -0.1270  0.0474
  954MOL0     C31521   3.521  10.564   6.031 -0.9982 -0.5801 -0.5280
  954MOL0     O31522   3.539  10.512   6.158  0.3393  0.0356  0.0457
  954MOL0     C31523   3.431  10.450   6.229 -0.7797  0.2958 -0.3511
  954MOL0     C31524   3.448  10.479   6.375  0.0356 -0.9352 -0.3672
  954MOL0     C31525   3.478  10.626   6.388  0.0795  0.3643 -0.3281
  954MOL0     C31526   3.479  10.664   6.530 -0.3522 -0.3227 -0.4887
  954MOL0     C31527   3.519  10.818   6.531 -0.3779 -0.1924 -0.8756
  954MOL0     C31528   3.514  10.864   6.673  0.0968 -0.4231  0.0482
  954MOL0     C31529   3.651  10.815   6.733 -0.1648  0.2844  0.1155
  954MOL0     C31530   3.745  10.936   6.758 -0.0336 -0.7193  0.1484
  954MOL0     N31531   3.690  11.034   6.854 -0.5283 -0.7843 -0.3741
  954MOL0     C31532   3.565  11.015   6.928 -0.0236  0.2718  0.8909
  954MOL0     C31533   3.520  11.138   6.956 -0.6876 -0.0395 -0.1148
  954MOL0     C31534   3.389  11.181   7.015  0.1866  0.2737  0.8911
  954MOL0     C31535   3.263  11.146   6.933 -0.8318  0.5765 -0.9152
  954MOL0     C31536   3.148  11.236   6.985 -0.6558  0.1739  0.4313
  954MOL0     C31537   3.007  11.184   6.958 -0.3347 -0.9023 -0.0776
  954MOL0     O31538   2.999  11.044   6.968  0.6333 -0.3015  0.2936
  954MOL0     C31539   2.886  10.987   6.925  1.1004  0.8270  0.0122
  954MOL0     C31540   2.765  11.050   6.877 -0.5905  1.1712 -0.4975
  954MOL0     C31541   2.654  10.973   6.827 -0.7595 -0.3764  0.5732
  954MOL0     C31542   2.537  11.053   6.765 -0.1992  0.4980 -0.6622
  954MOL0     C31543   2.667  10.837   6.826 -0.4538  0.0677 -0.7852
  954MOL0     C31544   2.556  10.748   6.778  0.3894 -1.0165 -0.3260
  954MOL0     O31545   2.450  10.801   6.710  0.0163 -0.2220 -0.7977
  954MOL0     C31546   2.377  10.722   6.628  0.0416 -0.8744  0.6233
  954MOL0     C31547   2.262  10.673   6.695 -1.1450 -0.0265  0.0665
  954MOL0     C31548   2.169  10.596   6.624 -1.0242 -0.3677 -0.5506
  954MOL0     C31549   2.181  10.572   6.490 -0.3938 -0.5162 -0.3822
  954MOL0     O31550   2.094  10.489   6.435  0.4067  0.0863 -0.1964
  954MOL0     C31551   2.137  10.416   6.316 -0.1404 -0.5392 -0.0379
  954MOL0     C31552   2.022  10.313   6.305 -0.1841 -0.8446  0.5938
  954MOL0     C31553   2.060  10.221   6.184  0.4526 -0.0587 -0.1297
  954MOL0     C31554   1.942  10.143   6.118  0.7574  0.3085 -0.3325
  954MOL0     C31555   1.995  10.032   6.021  0.4972 -0.1488  0.0974
  954MOL0     C31556   1.886   9.979   5.916  0.2108 -0.4221  0.3973
  954MOL0     C31557   1.826  10.081   5.819 -0.3356  0.4682 -0.2138
  954MOL0     C31558   1.916  10.171   5.747  0.3050  0.2064  0.5970
  954MOL0    Cl31559   1.854  10.244   5.592  0.0939 -0.6633 -0.4300
  954MOL0     C31560   2.303  10.623   6.422  0.1833 -0.3000 -0.2556
  954MOL0     C31561   2.398  10.695   6.496 -0.3176 -0.2310 -0.2814
  954MOL0     O31562   2.558  10.632   6.809 -0.4611 -0.0638  0.1111
  954MOL0     C31563   2.784  10.775   6.886  0.6380 -0.5439 -0.7770
  954MOL0     C31564   2.883  10.852   6.936  0.7375  0.1787 -0.2135
  954MOL0     N31565   3.608  11.230   6.890 -0.7504  0.0328  0.4506
  954MOL0     N31566   3.713  11.167   6.840  0.1426 -1.2353 -0.1454
  954MOL0     C31567   3.621  10.659   5.987 -0.7839  0.3546 -0.4692
  954MOL0     C31568   3.609  10.717   5.862  0.3223 -0.6070  0.2640
  954MOL0     C31569   3.500  10.901   5.493 -0.2668 -0.6135  0.3082
  954MOL0     C31570   3.617  10.855   5.427 -0.0929  0.9186  0.4417
  954MOL0     C31571   3.688  10.942   5.339 -0.7141  0.8460  0.7360
  954MOL0     C31572   3.636  11.057   5.298 -0.8724 -0.9691 -0.2723
  954MOL0     O31573   3.709  11.116   5.202 -0.6231 -0.7865  0.1514
  954MOL0     C31574   3.664  11.227   5.117  1.1659 -0.4711 -0.1237
  954MOL0     C31575   3.764  11.225   4.997 -0.4350 -0.0081 -0.5278
  954MOL0     C31576   3.753  11.353   4.917  1.0284  0.8763  0.8298
  954MOL0     C31577   3.875  11.370   4.832 -0.1532  0.5624  0.9967
  954MOL0     C31578   3.878  11.509   4.765  0.4624  0.5783 -0.2193
  954MOL0     C31579   3.866  11.599   4.685  0.9091  0.0688  0.2668
  954MOL0     C31580   3.520  11.102   5.360 -0.3443  0.1078 -1.2410
  954MOL0     C31581   3.453  11.029   5.453  0.3030  0.5999 -0.3611
  954MOL0     C31582   3.332  11.102   5.514  0.4552 -0.3767  1.1708
  954MOL0     H31583   3.334  10.532   5.751  0.1201 -0.8010  0.1096
  954MOL0     H31584   3.353  10.444   5.959 -0.3524  0.7841  1.3872
  954MOL0     H31585   3.440  10.341   6.221 -2.1579  0.1400  0.0292
  954MOL0     H31586   3.335  10.486   6.190 -1.7082 -0.0209  1.5581
  954MOL0     H31587   3.350  10.475   6.422  0.2293 -0.6860  0.0703
  954MOL0     H31588   3.520  10.409   6.417 -0.0367 -0.6516  0.2331
  954MOL0     H31589   3.576  10.653   6.347  1.3426  2.3253  3.5477
  954MOL0     H31590   3.401  10.688   6.341 -0.9456 -0.0260  0.7814
  954MOL0     H31591   3.379  10.646   6.571  1.0533 -2.5953  2.2572
  954MOL0     H31592   3.543  10.606   6.596 -0.6294  0.6992  0.7137
  954MOL0     H31593   3.435  10.872   6.487  1.5793  3.3458 -0.6193
  954MOL0     H31594   3.601  10.844   6.464 -1.1369  2.5890 -0.8238
  954MOL0     H31595   3.500  10.972   6.663  0.1756 -0.2922  1.2392
  954MOL0     H31596   3.429  10.836   6.735 -1.0918  3.8719  0.7139
  954MOL0     H31597   3.702  10.747   6.664  1.3693  2.7445 -1.3649
  954MOL0     H31598   3.641  10.767   6.830 -0.2693  2.8718  1.4543
  954MOL0     H31599   3.836  10.896   6.805  0.9636 -0.0340 -1.1360
  954MOL0     H31600   3.755  10.993   6.666 -3.6417  0.9634  0.6181
  954MOL0     H31601   3.513  10.922   6.948 -1.5754  0.4400 -1.9069
  954MOL0     H31602   3.390  11.291   7.020  2.2837  0.2554  1.9426
  954MOL0     H31603   3.381  11.134   7.114 -0.4763 -3.1081 -0.6294
  954MOL0     H31604   3.283  11.166   6.828  3.2726 -1.5508 -0.7016
  954MOL0     H31605   3.253  11.040   6.957  0.0375  0.4943 -0.9113
  954MOL0     H31606   3.163  11.236   7.093 -1.6343 -1.4701  0.5923
  954MOL0     H31607   3.160  11.335   6.939  1.0880  0.0202  0.4689
  954MOL0     H31608   2.946  11.232   7.034 -0.0977 -1.2321  0.3261
  954MOL0     H31609   2.983  11.221   6.858  1.2774 -1.8412 -0.8618
  954MOL0     H31610   2.769  11.158   6.864  2.4324  1.0517 -1.3600
  954MOL0     H31611   2.541  11.022   6.660 -1.2471  0.7509 -0.7855
  954MOL0     H31612   2.552  11.162   6.763  0.2931  0.4435 -0.1473
  954MOL0     H31613   2.440  11.025   6.807  0.2287  0.5477  0.3869
  954MOL0     H31614   2.252  10.698   6.800  0.7718  0.3803  0.1929
  954MOL0     H31615   2.093  10.561   6.693  1.2856 -1.8561  1.3715
  954MOL0     H31616   2.142  10.483   6.230  2.9983 -0.6287 -0.0525
  954MOL0     H31617   2.229  10.359   6.329 -1.5533 -3.5226 -1.9793
  954MOL0     H31618   2.001  10.258   6.397 -2.4216 -0.1883  0.5364
  954MOL0     H31619   1.925  10.361   6.292 -1.0283 -2.2966  1.3369
  954MOL0     H31620   2.134  10.151   6.223 -0.1310 -0.5935  0.0357
  954MOL0     H31621   2.099  10.280   6.101  0.2964 -0.7284 -0.6947
  954MOL0     H31622   1.886  10.212   6.053  3.2542  0.2490 -2.7442
  954MOL0     H31623   1.876  10.104   6.195 -0.2620  1.8692 -0.3717
  954MOL0     H31624   2.070  10.082   5.959  0.1302  0.1161 -0.1400
  954MOL0     H31625   2.039   9.951   6.080  1.5775 -0.0617 -0.5605
  954MOL0     H31626   1.799   9.950   5.976 -1.8385 -0.3281 -2.3510
  954MOL0     H31627   1.915   9.890   5.860 -2.6803 -0.8240 -0.6208
  954MOL0     H31628   1.743  10.130   5.869  1.6574  2.0837  1.7431
  954MOL0     H31629   1.762  10.022   5.753 -2.8947  1.0207  1.6482
  954MOL0     H31630   2.012  10.122   5.728 -0.2623 -1.2136  1.2911
  954MOL0     H31631   1.951  10.252   5.812  0.8658 -0.2430  0.8613
  954MOL0     H31632   2.302  10.605   6.316 -4.5616 -1.2588 -0.2745
  954MOL0     H31633   2.489  10.734   6.451 -0.1794  3.6512  2.7459
  954MOL0     H31634   2.798  10.668   6.897  0.3616 -0.4488  0.6534
  954MOL0     H31635   2.956  10.797   6.995 -1.4241 -2.5129  0.1535
  954MOL0     H31636   3.707  10.676   6.051 -0.0619 -0.6882 -1.1433
  954MOL0     H31637   3.677  10.800   5.848 -0.3990 -0.1191 -0.4026
  954MOL0     H31638   3.655  10.760   5.462 -0.5119  0.3399 -0.6192
  954MOL0     H31639   3.786  10.903   5.315 -1.8643 -1.8829  0.0847
  954MOL0     H31640   3.564  11.208   5.078  0.0735  1.4697  1.5448
  954MOL0     H31641   3.659  11.329   5.158 -1.3125  0.3784 -2.2594
  954MOL0     H31642   3.753  11.139   4.930  0.9381 -1.0067  0.4630
  954MOL0     H31643   3.860  11.222   5.049  0.7674  0.2061 -2.6295
  954MOL0     H31644   3.654  11.359   4.872  0.1503  1.2007  2.6844
  954MOL0     H31645   3.752  11.436   4.988 -0.1750  2.7250 -1.2234
  954MOL0     H31646   3.873  11.295   4.752 -1.6105  2.0133 -0.4235
  954MOL0     H31647   3.967  11.363   4.889  0.1948  2.4561  0.7435
  954MOL0     H31648   3.851  11.695   4.641  3.0428  1.9677  3.2863
  954MOL0     H31649   3.468  11.192   5.327 -2.0481 -1.1320 -2.0647
  954MOL0     H31650   3.236  11.058   5.485 -0.3408  0.7012  2.0630
  954MOL0     H31651   3.344  11.103   5.623  0.3677 -0.1512  1.1792
  954MOL0     H31652   3.324  11.206   5.481  1.6841 -1.5267 -3.3340
  955MOL0     O31653   0.679   9.782   4.005  0.2945  0.1645 -0.3122
  955MOL0     C31654   0.800   9.762   3.983  0.3681  0.2003 -0.0109
  955MOL0     O31655   0.903   9.843   4.028  0.8309  0.0257 -0.7928
  955MOL0     C31656   0.880   9.966   4.091 -0.1478  0.3884 -0.2319
  955MOL0     C31657   0.810   9.962   4.216 -0.0853 -0.7521  0.5625
  955MOL0     C31658   0.798  10.081   4.290 -0.6320 -0.8466 -0.2793
  955MOL0     C31659   0.845  10.204   4.232 -0.6844  0.4758  0.0662
  955MOL0     O31660   0.810  10.319   4.303 -0.1575  0.6182  0.2181
  955MOL0     C31661   0.869  10.442   4.268  1.0284  0.3708 -0.8071
  955MOL0     C31662   0.804  10.549   4.350 -0.7166  0.0406 -0.8506
  955MOL0     C31663   0.828  10.531   4.497  0.2678  0.3316 -0.4632
  955MOL0     C31664   0.721  10.588   4.596 -0.3004  0.3141  0.9339
  955MOL0     C31665   0.766  10.576   4.736 -0.7629 -0.0399 -0.4533
  955MOL0     C31666   0.858  10.692   4.768 -0.2609  0.1588 -0.0044
  955MOL0     C31667   0.894  10.684   4.911 -0.4471 -0.4370 -0.7305
  955MOL0     C31668   0.944  10.822   4.951 -1.1135  0.8578  0.8080
  955MOL0     N31669   0.993  10.817   5.089  0.0011 -0.4439  0.8886
  955MOL0     C31670   1.047  10.713   5.160  0.3166 -0.0682 -0.8071
  955MOL0     C31671   1.095  10.770   5.272 -0.6200 -0.0779 -0.4190
  955MOL0     C31672   1.168  10.695   5.373 -0.9228 -0.2051 -0.1039
  955MOL0     C31673   1.274  10.780   5.431 -0.7721 -0.5395  0.0461
  955MOL0     C31674   1.388  10.795   5.341  0.2194 -0.9814  0.8903
  955MOL0     C31675   1.506  10.849   5.410  0.3967  0.5690  0.7880
  955MOL0     O31676   1.545  10.774   5.521  0.3298  0.0433  0.4420
  955MOL0     C31677   1.649  10.822   5.596 -0.3997  0.7933 -0.1354
  955MOL0     C31678   1.776  10.780   5.561  0.2710  0.4373  0.2879
  955MOL0     C31679   1.889  10.838   5.615  0.3239 -0.6148 -0.1910
  955MOL0     C31680   2.018  10.802   5.557 -0.7481 -0.4814 -0.3061
  955MOL0     C31681   1.873  10.928   5.728  0.8874  0.4818 -0.6201
  955MOL0     C31682   1.993  10.977   5.799 -0.0741  0.7256  0.1974
  955MOL0     O31683   1.978  11.099   5.864  0.8712 -0.4066  0.0445
  955MOL0     C31684   2.091  11.169   5.898 -0.3897 -0.4169 -0.4296
  955MOL0     C31685   2.192  11.191   5.805  0.6654 -0.0796 -0.0566
  955MOL0     C31686   2.307  11.279   5.821 -0.0076 -0.3324  0.9073
  955MOL0     C31687   2.307  11.361   5.930 -0.0336 -0.1505 -0.8257
  955MOL0     O31688   2.401  11.464   5.926  0.0097  0.2046  0.7176
  955MOL0     C31689   2.441  11.529   6.049 -1.1369  0.2320  0.3462
  955MOL0     C31690   2.552  11.626   6.011  0.0451 -0.4979  0.3826
  955MOL0     C31691   2.606  11.711   6.133  0.5603 -0.0719 -0.0331
  955MOL0     C31692   2.654  11.848   6.075  0.8964  0.0333 -0.6879
  955MOL0     C31693   2.675  11.968   6.181  1.8222 -0.5658  0.7840
  955MOL0     C31694   2.750  12.087   6.111  0.4501  0.0755 -0.0420
  955MOL0     C31695   2.781  12.192   6.218 -0.0913 -0.2103  0.0085
  955MOL0     C31696   2.924  12.241   6.198 -0.4531  0.4980 -0.2250
  955MOL0    Cl31697   2.935  12.330   6.033 -0.2847  0.0756  0.4790
  955MOL0     C31698   2.208  11.337   6.031  0.4468 -0.1797  0.2463
  955MOL0     C31699   2.103  11.242   6.014 -0.1032 -0.1490  0.1442
  955MOL0     O31700   2.093  10.902   5.820  0.7962 -0.2032  0.1244
  955MOL0     C31701   1.745  10.966   5.772  0.0995  0.6715 -0.3789
  955MOL0     C31702   1.638  10.903   5.712 -0.3434  0.1627  0.6014
  955MOL0     N31703   1.072  10.907   5.274 -0.0839 -0.3413 -0.6756
  955MOL0     N31704   1.011  10.935   5.163 -0.1282 -0.0163 -0.0346
  955MOL0     C31705   0.919  10.202   4.106 -0.2372 -1.4182 -0.8878
  955MOL0     C31706   0.933  10.085   4.033  0.2155 -0.7218 -0.1301
  955MOL0     C31707   0.844   9.649   3.915 -0.1292  0.0966 -0.1825
  955MOL0     C31708   0.984   9.622   3.912 -0.3149 -0.4251  0.1564
  955MOL0     C31709   1.031   9.511   3.848  0.1664  0.2268  0.1713
  955MOL0     C31710   0.953   9.432   3.769 -0.2715  0.7548 -0.0149
  955MOL0     O31711   1.019   9.323   3.713  0.2228 -0.5337  0.2914
  955MOL0     C31712   0.940   9.208   3.654 -0.2356  0.1902 -0.3959
  955MOL0     C31713   0.947   9.208   3.502  0.7309 -0.1016 -0.1586
  955MOL0     C31714   0.856   9.323   3.447  0.4863 -0.3732 -0.2896
  955MOL0     C31715   0.914   9.365   3.320 -0.0033 -0.0756  0.2466
  955MOL0     C31716   0.903   9.276   3.199  0.8622 -0.6324  0.0484
  955MOL0     C31717   0.894   9.195   3.109 -0.3851 -0.4746  1.0894
  955MOL0     C31718   0.819   9.453   3.786 -0.1994 -0.4274 -0.1422
  955MOL0     C31719   0.758   9.560   3.848  0.5704 -0.1081  0.2053
  955MOL0     C31720   0.602   9.558   3.838 -0.0166 -0.4289  0.3041
  955MOL0     H31721   0.770   9.866   4.249 -1.8851 -0.4471 -0.5555
  955MOL0     H31722   0.742  10.067   4.382 -0.7900  0.1322 -0.2181
  955MOL0     H31723   0.860  10.456   4.160 -2.7438  0.0445 -0.6729
  955MOL0     H31724   0.975  10.447   4.294  1.2761  3.6190 -1.9215
  955MOL0     H31725   0.843  10.643   4.310  3.1799  0.7353  3.6672
  955MOL0     H31726   0.697  10.543   4.328 -0.6865  1.9219 -1.7189
  955MOL0     H31727   0.835  10.426   4.528 -4.2956 -0.0147  0.0573
  955MOL0     H31728   0.924  10.580   4.519 -0.3630  1.0429  0.8438
  955MOL0     H31729   0.700  10.694   4.575 -0.4888 -0.1160 -1.2408
  955MOL0     H31730   0.625  10.538   4.583 -0.4680  0.2785  2.2106
  955MOL0     H31731   0.810  10.476   4.746 -1.1062 -0.5942 -3.4919
  955MOL0     H31732   0.683  10.588   4.806 -1.3061  0.0963 -1.1071
  955MOL0     H31733   0.939  10.709   4.696  0.7376  0.3384  1.1221
  955MOL0     H31734   0.804  10.787   4.765  2.4562  1.9121  1.4379
  955MOL0     H31735   0.977  10.614   4.927 -1.5406 -1.3267  1.4916
  955MOL0     H31736   0.814  10.647   4.976 -3.3661  0.0457 -3.7790
  955MOL0     H31737   1.029  10.843   4.885 -1.0849 -2.4866 -0.3962
  955MOL0     H31738   0.870  10.903   4.942 -1.3510  0.6106  0.5113
  955MOL0     H31739   1.069  10.611   5.131  0.7839  0.4508 -2.3572
  955MOL0     H31740   1.217  10.608   5.328  1.0618  0.7915 -0.0049
  955MOL0     H31741   1.105  10.651   5.451  0.3733 -1.8433  0.0699
  955MOL0     H31742   1.234  10.874   5.469 -0.0631  0.0775 -0.7013
  955MOL0     H31743   1.311  10.738   5.525 -0.7796  0.6910  0.6124
  955MOL0     H31744   1.423  10.695   5.315  2.3723 -0.3497  1.1407
  955MOL0     H31745   1.372  10.847   5.246  1.2797  2.4432  2.4092
  955MOL0     H31746   1.595  10.843   5.346  0.0683  1.7515  0.1923
  955MOL0     H31747   1.496  10.955   5.436 -1.4653  1.0174 -1.4666
  955MOL0     H31748   1.803  10.710   5.483 -0.9073 -0.8251  0.9729
  955MOL0     H31749   2.046  10.733   5.636  2.7089  2.2502  1.1425
  955MOL0     H31750   2.094  10.880   5.561  2.1220 -3.0778 -1.0370
  955MOL0     H31751   2.019  10.760   5.456  2.8884 -0.4077 -0.4311
  955MOL0     H31752   2.181  11.128   5.717  0.2152 -1.1402  0.7324
  955MOL0     H31753   2.390  11.267   5.751  0.7105  0.7460  1.5313
  955MOL0     H31754   2.355  11.576   6.096 -0.6137  2.8031 -1.1215
  955MOL0     H31755   2.485  11.447   6.107  2.3160 -1.8184 -4.4265
  955MOL0     H31756   2.638  11.577   5.966 -0.1141 -0.5442  0.1254
  955MOL0     H31757   2.513  11.694   5.935  1.4127 -0.6435 -0.4848
  955MOL0     H31758   2.685  11.653   6.182 -1.1492 -0.9331  1.8793
  955MOL0     H31759   2.538  11.720   6.218  1.9742  1.1085  1.0344
  955MOL0     H31760   2.572  11.878   6.009  1.7077  2.2973 -0.7628
  955MOL0     H31761   2.735  11.831   6.003 -0.2097  1.1197 -2.2657
  955MOL0     H31762   2.577  11.990   6.223  1.9798  3.4317 -0.5301
  955MOL0     H31763   2.729  11.921   6.263  3.7408 -3.2180 -1.7726
  955MOL0     H31764   2.690  12.127   6.028  0.5745 -0.8464 -0.5936
  955MOL0     H31765   2.843  12.055   6.063 -0.3093 -1.9093 -0.3333
  955MOL0     H31766   2.767  12.156   6.320  2.0821  2.6853  1.4895
  955MOL0     H31767   2.713  12.275   6.195 -0.4340 -0.9274 -1.7207
  955MOL0     H31768   2.986  12.151   6.195 -0.6020  0.3711  0.3283
  955MOL0     H31769   2.963  12.300   6.281  0.9955 -1.3479  0.4842
  955MOL0     H31770   2.199  11.393   6.123 -2.0228  0.2087 -0.1665
  955MOL0     H31771   2.019  11.253   6.082 -0.7888  2.3252 -1.0243
  955MOL0     H31772   1.735  11.019   5.866 -1.5429 -3.7433  2.2249
  955MOL0     H31773   1.541  10.938   5.746 -1.3321  0.4446 -2.2693
  955MOL0     H31774   0.956  10.283   4.045 -1.3243 -1.3125 -1.4233
  955MOL0     H31775   1.005  10.089   3.952  2.6076 -0.4824  1.8761
  955MOL0     H31776   1.065   9.668   3.968 -2.0132  1.1854  1.4093
  955MOL0     H31777   1.135   9.485   3.867  0.4432  1.4920  0.4301
  955MOL0     H31778   0.989   9.117   3.688 -0.4693  0.4069  0.5415
  955MOL0     H31779   0.839   9.212   3.696  0.2519 -3.8352  1.6944
  955MOL0     H31780   0.918   9.109   3.465  0.5420 -0.0441 -0.1635
  955MOL0     H31781   1.053   9.228   3.480  0.2843  2.3454 -0.2933
  955MOL0     H31782   0.761   9.271   3.432  1.4311 -2.4477  0.5142
  955MOL0     H31783   0.823   9.403   3.514 -0.0945  0.3420 -1.4062
  955MOL0     H31784   1.020   9.382   3.337 -0.2276  1.4939  0.1717
  955MOL0     H31785   0.873   9.462   3.290  1.1387  0.0813 -0.9093
  955MOL0     H31786   0.907   9.122   3.032  0.6693  1.3298 -0.5464
  955MOL0     H31787   0.743   9.390   3.740  1.0638  0.5420 -3.9369
  955MOL0     H31788   0.560   9.657   3.856 -0.3679 -0.6304  0.6147
  955MOL0     H31789   0.565   9.521   3.742 -0.9864  2.2920 -0.4720
  955MOL0     H31790   0.563   9.491   3.915 -0.5355 -1.5226 -0.8892
  956MOL0     O31791   1.843   2.880  10.938  0.4960 -0.8108 -0.0012
  956MOL0     C31792   1.901   2.994  10.950  0.6771 -0.4745 -0.1211
  956MOL0     O31793   1.869   3.079  11.041 -0.2776 -0.6409 -0.3672
  956MOL0     C31794   1.784   3.045  11.144 -0.0827  1.2571  0.0229
  956MOL0     C31795   1.645   3.012  11.129 -0.0739 -0.7947  0.1953
  956MOL0     C31796   1.567   2.972  11.226 -0.2203 -0.2024 -0.4927
  956MOL0     C31797   1.625   2.979  11.356 -0.1797  0.2970 -0.9267
  956MOL0     O31798   1.542   2.951  11.466 -0.1568 -0.5154 -0.5511
  956MOL0     C31799   1.574   3.013  11.591 -0.0714 -0.4327  0.4657
  956MOL0     C31800   1.490   2.956  11.704  0.2469  0.4664 -0.0638
  956MOL0     C31801   1.343   2.994  11.688  0.0896  0.2297 -1.6655
  956MOL0     C31802   1.312   3.133  11.731 -0.0047  0.6458 -0.7473
  956MOL0     C31803   1.171   3.147  11.768 -0.0627 -0.2019 -0.4412
  956MOL0     C31804   1.146   3.297  11.806 -0.4873  0.5452  0.6684
  956MOL0     C31805   1.017   3.333  11.871  0.9371  0.3749 -1.0127
  956MOL0     C31806   0.972   3.481  11.875  0.1829 -1.0823 -0.6162
  956MOL0     N31807   0.857   3.505  11.969  1.0587  0.7397  0.9747
  956MOL0     C31808   0.765   3.602  11.961  0.5580 -0.4336 -0.1395
  956MOL0     C31809   0.680   3.581  12.067 -0.2953  0.0281  0.1362
  956MOL0     C31810   0.547   3.655  12.098  0.1517 -0.4648  0.4847
  956MOL0     C31811   0.530   3.751  12.220  0.1748 -0.8601  0.4852
  956MOL0     C31812   0.500   3.681  12.345  0.0985 -0.0059  0.0776
  956MOL0     C31813   0.490   3.775  12.467  0.6822 -0.4280  0.7882
  956MOL0     O31814   0.458   3.705  12.587  0.6840  0.6500 -0.0020
  956MOL0     C31815   0.428   3.780  12.696 -0.6653  0.3162  1.4425
  956MOL0     C31816   0.383   3.715  12.812 -0.0498  0.6364  0.4595
  956MOL0     C31817   0.346   3.784  12.936  0.7687  0.7115 -0.0176
  956MOL0     C31818   0.300   3.700  13.049  0.1988  0.0268 -0.0098
  956MOL0     C31819   0.351   3.922  12.936 -0.3050 -0.0002 -1.1985
  956MOL0     C31820   0.315   3.999  13.059 -0.0266 -0.8834 -0.0086
  956MOL0     O31821   0.268   4.125  13.029  0.1772 -0.0508  0.3953
  956MOL0     C31822   0.205   4.201  13.119  0.0053  0.2429  0.4544
  956MOL0     C31823   0.137   4.149  13.231  0.3457 -0.0472 -1.0001
  956MOL0     C31824   0.092   4.237  13.329 -0.5812  0.3177  0.5684
  956MOL0     C31825   0.111   4.373  13.320 -0.3355 -1.6506 -0.3304
  956MOL0     O31826   0.054   4.460  13.411 -0.1302 -0.3707 -0.3887
  956MOL0     C31827  -0.033   4.564  13.373  0.8570 -0.1846 -0.1261
  956MOL0     C31828  -0.169   4.513  13.343  0.0358  0.0104  0.2538
  956MOL0     C31829  -0.263   4.618  13.289 -0.1231  0.1802  0.0053
  956MOL0     C31830  -0.406   4.558  13.260 -0.0764  1.0021 -0.9420
  956MOL0     C31831  -0.500   4.527  13.380 -0.6402 -0.6324 -0.2305
  956MOL0     C31832  -0.588   4.648  13.406  0.9809 -0.7596 -0.9503
  956MOL0     C31833  -0.642   4.642  13.551 -0.5876  0.3536  0.6541
  956MOL0     C31834  -0.533   4.670  13.664 -0.4790  0.8469 -0.3212
  956MOL0    Cl31835  -0.446   4.826  13.651  0.2345 -0.0386 -0.2745
  956MOL0     C31836   0.177   4.427  13.211  0.2006 -0.0213 -0.1833
  956MOL0     C31837   0.223   4.341  13.109 -0.2106  0.8297  0.0229
  956MOL0     O31838   0.349   3.956  13.171 -0.1597 -0.3688  0.1067
  956MOL0     C31839   0.404   3.988  12.823 -0.7516 -0.1037 -0.2748
  956MOL0     C31840   0.432   3.923  12.703 -0.0841 -0.8036 -0.5751
  956MOL0     N31841   0.727   3.470  12.141  0.2234 -0.0255  0.1764
  956MOL0     N31842   0.833   3.421  12.077  0.0122  0.0794 -0.5930
  956MOL0     C31843   1.770   2.995  11.374  1.2345 -0.2244 -0.1830
  956MOL0     C31844   1.848   3.024  11.259 -0.0423 -0.3300 -0.0255
  956MOL0     C31845   2.024   3.027  10.880 -0.5674  0.5389  0.0689
  956MOL0     C31846   2.096   3.148  10.906  0.3611  0.2783 -1.3085
  956MOL0     C31847   2.211   3.176  10.838 -0.4663 -0.3792 -0.6859
  956MOL0     C31848   2.252   3.099  10.729  0.0026 -0.6802  0.4194
  956MOL0     O31849   2.350   3.136  10.642  0.3993 -0.2335  0.0798
  956MOL0     C31850   2.397   3.269  10.644 -0.6317  0.1937 -0.2924
  956MOL0     C31851   2.476   3.312  10.519 -0.1304 -0.2692  0.4154
  956MOL0     C31852   2.562   3.197  10.487 -0.5339  0.6852 -0.8463
  956MOL0     C31853   2.690   3.219  10.411  0.1123  0.5709 -0.1429
  956MOL0     C31854   2.660   3.290  10.291 -0.9251 -0.8105  0.5997
  956MOL0     C31855   2.676   3.340  10.184  0.3634 -0.7115 -0.2344
  956MOL0     C31856   2.176   2.984  10.690  0.5826  0.8797 -0.0663
  956MOL0     C31857   2.068   2.939  10.771 -0.1455 -0.0987 -0.5947
  956MOL0     C31858   2.006   2.811  10.727  0.1329  0.9853  0.4376
  956MOL0     H31859   1.593   3.020  11.034 -1.3952 -1.5168  0.8269
  956MOL0     H31860   1.464   2.941  11.215 -0.8685  1.5156  0.4373
  956MOL0     H31861   1.557   3.121  11.589 -0.7766 -0.5486 -1.0529
  956MOL0     H31862   1.675   2.993  11.628 -0.2123  1.9369  2.3452
  956MOL0     H31863   1.488   2.847  11.706  0.1918  0.3703  4.3147
  956MOL0     H31864   1.537   2.975  11.801  2.3785  0.1559 -0.9587
  956MOL0     H31865   1.314   2.996  11.583  1.0662  1.8347 -1.9468
  956MOL0     H31866   1.283   2.931  11.754  0.5766 -0.3187 -1.7437
  956MOL0     H31867   1.378   3.151  11.816  2.6985 -1.9027 -2.1497
  956MOL0     H31868   1.334   3.214  11.661 -1.0633  1.6366  0.0163
  956MOL0     H31869   1.138   3.091  11.856 -2.4021  0.4928 -0.8017
  956MOL0     H31870   1.102   3.116  11.689  1.4422 -1.5511 -1.2700
  956MOL0     H31871   1.227   3.350  11.857  2.0779 -1.5086 -0.9975
  956MOL0     H31872   1.137   3.340  11.706  1.3743 -0.6325 -0.0669
  956MOL0     H31873   1.011   3.287  11.970 -2.4621  2.1670 -0.2357
  956MOL0     H31874   0.930   3.285  11.825  0.1746 -0.9767  1.6184
  956MOL0     H31875   1.049   3.540  11.926 -2.1546 -0.0704  1.9629
  956MOL0     H31876   0.953   3.509  11.771 -0.9563 -1.4781 -0.5307
  956MOL0     H31877   0.743   3.671  11.880  0.2341  0.0590  0.3602
  956MOL0     H31878   0.471   3.577  12.107  0.9073 -1.2560  0.1735
  956MOL0     H31879   0.521   3.722  12.016 -0.5322 -0.8575  0.3755
  956MOL0     H31880   0.616   3.817  12.227 -2.3517  2.7981  0.2082
  956MOL0     H31881   0.449   3.816  12.186  0.4405 -0.6333  0.2843
  956MOL0     H31882   0.401   3.640  12.325  1.8036 -3.3726 -2.3562
  956MOL0     H31883   0.573   3.604  12.373 -1.9682 -2.0687  0.0878
  956MOL0     H31884   0.580   3.836  12.464 -1.3017  2.7990 -3.3055
  956MOL0     H31885   0.414   3.848  12.437  1.3829 -0.0101  0.0170
  956MOL0     H31886   0.386   3.607  12.814 -2.0741  0.5564  1.3548
  956MOL0     H31887   0.216   3.752  13.095  0.5989 -0.5628  1.4331
  956MOL0     H31888   0.375   3.696  13.128 -0.2222 -1.9858  0.3347
  956MOL0     H31889   0.275   3.596  13.027 -0.6979  0.3304 -0.4613
  956MOL0     H31890   0.114   4.044  13.242 -0.2312 -0.0283 -1.9240
  956MOL0     H31891   0.022   4.201  13.403 -1.8414 -0.3806 -0.9009
  956MOL0     H31892  -0.041   4.637  13.454 -0.1750  0.3565 -0.6864
  956MOL0     H31893  -0.000   4.618  13.283  0.3918  1.9121  0.8954
  956MOL0     H31894  -0.164   4.429  13.272 -1.9612 -1.9697  2.3030
  956MOL0     H31895  -0.216   4.474  13.433 -1.6209  0.4848 -0.3716
  956MOL0     H31896  -0.238   4.663  13.192 -3.9743  1.8576 -0.4073
  956MOL0     H31897  -0.268   4.703  13.358 -0.4958  1.5580 -1.6567
  956MOL0     H31898  -0.390   4.462  13.211 -0.2143 -0.6053  1.9663
  956MOL0     H31899  -0.458   4.617  13.183  0.6940  0.0827 -2.2047
  956MOL0     H31900  -0.559   4.436  13.366  1.3134 -2.3508  1.7976
  956MOL0     H31901  -0.435   4.508  13.466  2.0065  0.9896 -1.7272
  956MOL0     H31902  -0.674   4.663  13.340  0.7143 -1.7949 -0.8588
  956MOL0     H31903  -0.523   4.735  13.390 -0.0004 -0.2176 -2.1667
  956MOL0     H31904  -0.694   4.549  13.574 -1.5619  0.7399  0.1002
  956MOL0     H31905  -0.726   4.713  13.557 -1.1813 -0.2071 -0.6378
  956MOL0     H31906  -0.470   4.581  13.668 -1.8703 -0.1878 -0.6695
  956MOL0     H31907  -0.581   4.674  13.762  0.9290  0.3036  0.4039
  956MOL0     H31908   0.190   4.534  13.207  1.8410 -0.2208 -3.4881
  956MOL0     H31909   0.284   4.361  13.022  0.0507 -0.2747 -0.0599
  956MOL0     H31910   0.423   4.095  12.830  1.0433 -0.3431 -0.9357
  956MOL0     H31911   0.460   3.985  12.618  4.6139 -1.5640  0.1400
  956MOL0     H31912   1.805   2.968  11.473 -0.4982 -1.2283  0.2000
  956MOL0     H31913   1.956   3.032  11.270 -0.1249 -0.3477  0.9409
  956MOL0     H31914   2.079   3.208  10.994  0.2032 -1.6511  0.0320
  956MOL0     H31915   2.264   3.267  10.864  1.8391 -1.4179 -1.4719
  956MOL0     H31916   2.319   3.345  10.637  0.5567  1.5483  0.6399
  956MOL0     H31917   2.453   3.285  10.736 -0.8939  0.5292 -0.1892
  956MOL0     H31918   2.530   3.407  10.531  0.0418  0.5272 -4.6892
  956MOL0     H31919   2.404   3.334  10.440 -3.4579  0.3368  3.3449
  956MOL0     H31920   2.588   3.144  10.580 -1.0189  0.0069 -1.0872
  956MOL0     H31921   2.504   3.127  10.426 -0.8257 -0.7864  1.0214
  956MOL0     H31922   2.737   3.123  10.389  1.0371  0.8625  0.5222
  956MOL0     H31923   2.758   3.276  10.474 -0.3255 -1.9867  2.8953
  956MOL0     H31924   2.706   3.378  10.089  3.1149  1.0437  1.2001
  956MOL0     H31925   2.222   2.920  10.615 -1.6565 -0.1246 -0.6885
  956MOL0     H31926   1.901   2.834  10.708  0.2636  0.3479 -1.2307
  956MOL0     H31927   2.055   2.767  10.640 -2.8289 -0.3524 -0.6585
  956MOL0     H31928   2.007   2.731  10.802  1.2946 -1.4369 -2.0021
  957MOL0     O31929   8.945   2.554  10.932  0.3168 -0.8491 -0.5570
  957MOL0     C31930   8.846   2.620  10.903  0.2049 -1.2493 -0.2373
  957MOL0     O31931   8.764   2.684  10.996  0.5075 -0.3357  0.4864
  957MOL0     C31932   8.798   2.673  11.123 -0.6371  1.3564 -0.5486
  957MOL0     C31933   8.812   2.541  11.179 -0.4452  0.5921 -0.1269
  957MOL0     C31934   8.853   2.528  11.314 -0.6117 -0.0579  0.0468
  957MOL0     C31935   8.865   2.641  11.400  0.0468  0.0445 -0.5719
  957MOL0     O31936   8.896   2.629  11.529 -0.4107  0.4410 -0.6369
  957MOL0     C31937   9.012   2.716  11.560 -0.1263  0.8675 -0.1638
  957MOL0     C31938   9.067   2.677  11.699  0.3019 -0.5304 -0.5725
  957MOL0     C31939   9.161   2.788  11.760 -0.2842 -0.2100 -0.2968
  957MOL0     C31940   9.251   2.709  11.863 -0.2211  0.2960 -0.2028
  957MOL0     C31941   9.350   2.805  11.930 -0.3345  0.2627 -0.3072
  957MOL0     C31942   9.434   2.725  12.038  0.0253 -0.5908  0.4942
  957MOL0     C31943   9.519   2.805  12.133 -0.6068  0.8088  0.0432
  957MOL0     C31944   9.444   2.908  12.219  0.6102  0.0472  1.0270
  957MOL0     N31945   9.332   2.846  12.294  0.2285  0.3198  0.2485
  957MOL0     C31946   9.352   2.783  12.408 -0.1052  0.4171 -1.0395
  957MOL0     C31947   9.224   2.752  12.441  0.0802  0.2321  1.0302
  957MOL0     C31948   9.196   2.673  12.569 -0.5705 -0.3364  0.3458
  957MOL0     C31949   9.091   2.564  12.529 -0.0871  0.7177  0.2479
  957MOL0     C31950   8.996   2.533  12.641  0.9672 -0.6294  0.2227
  957MOL0     C31951   9.060   2.485  12.769  0.3702 -0.4105 -0.1896
  957MOL0     O31952   9.142   2.372  12.743 -0.0146 -0.0494  0.0148
  957MOL0     C31953   9.220   2.333  12.848 -0.6066 -0.2124 -0.3974
  957MOL0     C31954   9.177   2.238  12.942  0.6641  0.2326  0.5879
  957MOL0     C31955   9.241   2.209  13.058 -0.0769  0.8731  0.3443
  957MOL0     C31956   9.173   2.099  13.144  0.3958 -0.2432  0.5502
  957MOL0     C31957   9.359   2.282  13.089  0.8026  0.7817  0.3181
  957MOL0     C31958   9.430   2.278  13.227  0.8121  0.1681 -0.1812
  957MOL0     O31959   9.406   2.167  13.297  0.0096 -0.2650  0.2651
  957MOL0     C31960   9.493   2.140  13.402 -0.3635  0.7336  0.7069
  957MOL0     C31961   9.623   2.078  13.369 -0.6419 -0.7623  0.0510
  957MOL0     C31962   9.708   2.051  13.488 -0.1335  0.4563  0.3731
  957MOL0     C31963   9.656   2.049  13.620 -0.5579 -0.0241 -0.4221
  957MOL0     O31964   9.715   1.996  13.730 -0.5402  0.9815  0.1490
  957MOL0     C31965   9.836   1.927  13.712  0.1133 -0.3384  0.4121
  957MOL0     C31966   9.846   1.847  13.833 -0.3838  0.8474  0.0225
  957MOL0     C31967   9.972   1.750  13.836 -0.4388 -0.3880 -0.4673
  957MOL0     C31968   9.968   1.641  13.725  0.9890  0.0329 -0.3799
  957MOL0     C31969  10.080   1.542  13.756  0.2101 -0.0809  0.2093
  957MOL0     C31970  10.082   1.431  13.639 -0.1238 -1.0009  0.4985
  957MOL0     C31971  10.200   1.333  13.663  0.5533 -1.0752  0.9357
  957MOL0     C31972  10.202   1.231  13.555 -0.3085  0.4226  0.6188
  957MOL0    Cl31973  10.332   1.119  13.586 -0.1283  0.1592 -0.3208
  957MOL0     C31974   9.524   2.099  13.641 -1.5717  0.7413  0.0209
  957MOL0     C31975   9.443   2.145  13.534 -0.2588  0.0292 -0.1636
  957MOL0     O31976   9.490   2.379  13.274  0.3674  0.0739 -0.2297
  957MOL0     C31977   9.398   2.387  13.005 -0.5865  0.3072 -0.0535
  957MOL0     C31978   9.319   2.413  12.889  0.2974 -0.4542  0.2159
  957MOL0     N31979   9.127   2.820  12.359 -0.1465 -0.2759  0.6703
  957MOL0     N31980   9.200   2.873  12.269  0.3545 -0.2338 -0.1519
  957MOL0     C31981   8.839   2.760  11.336 -0.0621 -0.8543 -0.3686
  957MOL0     C31982   8.819   2.779  11.202  0.1172 -0.3282  0.2686
  957MOL0     C31983   8.801   2.631  10.762  0.0248  0.7291  0.2141
  957MOL0     C31984   8.678   2.677  10.730  0.3371 -0.1906  0.5009
  957MOL0     C31985   8.633   2.690  10.595 -0.4070  1.0149 -0.3749
  957MOL0     C31986   8.716   2.653  10.484  0.7344  1.2893 -0.9205
  957MOL0     O31987   8.655   2.649  10.356  0.1888 -0.0344 -0.1681
  957MOL0     C31988   8.745   2.629  10.242  1.2556 -0.9008 -0.4506
  957MOL0     C31989   8.646   2.661  10.129 -0.1636  0.4483 -0.5863
  957MOL0     C31990   8.542   2.549  10.119  0.2622  0.1319  0.3047
  957MOL0     C31991   8.581   2.418  10.050  0.2121 -0.4336  0.5567
  957MOL0     C31992   8.467   2.336  10.017  0.6431 -0.1159  0.8419
  957MOL0     C31993   8.384   2.261   9.995 -0.2080 -0.2442  1.5025
  957MOL0     C31994   8.843   2.590  10.513  0.9747 -0.0060 -1.0158
  957MOL0     C31995   8.888   2.580  10.649  0.6387 -0.8408  0.4588
  957MOL0     C31996   9.032   2.543  10.662 -0.8490 -0.0054  0.0274
  957MOL0     H31997   8.794   2.449  11.124 -0.3221 -0.7023  1.9166
  957MOL0     H31998   8.853   2.429  11.358  0.7856 -0.1449 -0.1342
  957MOL0     H31999   8.990   2.823  11.556  1.6834  1.2296 -1.5932
  957MOL0     H32000   9.093   2.697  11.489  0.5274  1.6260  0.3638
  957MOL0     H32001   8.988   2.648  11.770  0.8486 -2.0121 -0.5343
  957MOL0     H32002   9.129   2.587  11.697  0.3654 -0.5031 -0.0580
  957MOL0     H32003   9.228   2.825  11.681 -2.2476 -1.3554 -2.6172
  957MOL0     H32004   9.121   2.874  11.814  2.2044 -0.4555  2.1662
  957MOL0     H32005   9.200   2.665  11.949  0.8751  2.0563  1.4398
  957MOL0     H32006   9.313   2.635  11.811  1.7774  1.3847  0.5141
  957MOL0     H32007   9.285   2.880  11.974 -1.7570  0.0176 -1.8882
  957MOL0     H32008   9.423   2.859  11.869  0.6001 -0.9093 -0.2788
  957MOL0     H32009   9.366   2.665  12.100 -1.0519  2.6511  2.7662
  957MOL0     H32010   9.500   2.664  11.976 -1.2726 -1.6541  0.1310
  957MOL0     H32011   9.597   2.848  12.069 -0.6979 -0.8475 -1.2407
  957MOL0     H32012   9.569   2.744  12.209 -1.9621 -0.8333 -0.3291
  957MOL0     H32013   9.512   2.947  12.296  2.3706 -2.8155  1.0667
  957MOL0     H32014   9.422   2.991  12.150  1.0908 -0.9026 -0.3092
  957MOL0     H32015   9.440   2.742  12.455  0.1559 -0.6511 -2.3698
  957MOL0     H32016   9.149   2.738  12.644 -0.2001 -0.9764  1.1542
  957MOL0     H32017   9.291   2.630  12.602  1.0908  2.2832 -0.6571
  957MOL0     H32018   9.046   2.590  12.432  2.8128  0.8830 -1.1796
  957MOL0     H32019   9.140   2.469  12.501 -0.4993  1.0660 -1.8733
  957MOL0     H32020   8.945   2.627  12.662  5.8991  2.0122  2.1094
  957MOL0     H32021   8.919   2.465  12.605 -1.2547  1.3363  1.0621
  957MOL0     H32022   9.099   2.576  12.817 -3.8841  0.3504  2.3381
  957MOL0     H32023   8.978   2.445  12.829 -0.2590 -2.7635 -2.4076
  957MOL0     H32024   9.105   2.163  12.912 -0.2604 -0.3542  3.9064
  957MOL0     H32025   9.189   2.119  13.250  0.7361 -1.1972  0.6814
  957MOL0     H32026   9.211   2.002  13.112  1.3404  0.9064 -2.1621
  957MOL0     H32027   9.065   2.103  13.126  0.6372  4.9810 -1.5088
  957MOL0     H32028   9.659   2.069  13.268  0.3418 -1.5818  0.4605
  957MOL0     H32029   9.808   2.019  13.461 -0.1411 -0.0805  0.9492
  957MOL0     H32030   9.832   1.857  13.628 -1.2756 -1.1160  1.0861
  957MOL0     H32031   9.910   2.008  13.714 -0.6398  0.3495  1.1602
  957MOL0     H32032   9.847   1.913  13.920  1.2741 -0.0757  0.7595
  957MOL0     H32033   9.751   1.794  13.844 -0.6372  1.4258  0.7511
  957MOL0     H32034   9.964   1.707  13.936  0.2096 -2.2005 -1.1622
  957MOL0     H32035  10.059   1.816  13.832 -0.3752 -0.5158 -1.3182
  957MOL0     H32036   9.994   1.680  13.626 -0.6241 -1.1125 -1.2870
  957MOL0     H32037   9.880   1.577  13.732  0.9541  0.0609 -0.5667
  957MOL0     H32038  10.176   1.594  13.760 -1.3840  3.0463  1.8717
  957MOL0     H32039  10.066   1.492  13.853 -2.7850  2.0341  1.0189
  957MOL0     H32040  10.085   1.475  13.539 -1.6195 -1.4362  0.2326
  957MOL0     H32041   9.984   1.384  13.656 -2.7695  3.5635 -0.4617
  957MOL0     H32042  10.176   1.282  13.757 -2.4287  0.5406  1.1749
  957MOL0     H32043  10.302   1.370  13.676  0.7917 -0.4999 -1.9016
  957MOL0     H32044  10.208   1.270  13.454  1.7866 -5.4673 -1.9900
  957MOL0     H32045  10.115   1.167  13.575  0.7095 -0.0156  4.5546
  957MOL0     H32046   9.502   2.119  13.745  2.4973  1.6387  0.8891
  957MOL0     H32047   9.344   2.187  13.551  0.0889 -0.3743  3.9497
  957MOL0     H32048   9.473   2.461  13.026 -2.1849  2.3924 -1.3327
  957MOL0     H32049   9.338   2.502  12.831  0.9992 -0.5506  0.2946
  957MOL0     H32050   8.846   2.859  11.380  2.2016 -0.1413 -2.0973
  957MOL0     H32051   8.817   2.875  11.152  2.3847 -1.3105 -1.9406
  957MOL0     H32052   8.620   2.727  10.806 -2.1879  1.6620 -2.3703
  957MOL0     H32053   8.538   2.732  10.564 -0.8172  0.3681 -0.0251
  957MOL0     H32054   8.830   2.696  10.257  0.7581 -0.8787  3.1410
  957MOL0     H32055   8.787   2.528  10.237  0.9960 -1.0277 -0.0737
  957MOL0     H32056   8.713   2.658  10.043 -2.4088  0.8606 -2.4599
  957MOL0     H32057   8.596   2.757  10.145  0.9474  0.6543  2.3654
  957MOL0     H32058   8.508   2.519  10.219 -1.0847  3.8141  1.1337
  957MOL0     H32059   8.456   2.587  10.063  0.3119 -1.0946 -0.6368
  957MOL0     H32060   8.653   2.356  10.105 -0.7318 -0.5535  1.6837
  957MOL0     H32061   8.614   2.441   9.948  1.5278  0.6258  1.1985
  957MOL0     H32062   8.315   2.182   9.971 -1.3305  0.8810  0.9082
  957MOL0     H32063   8.917   2.558  10.441  0.0179  0.7500 -2.3752
  957MOL0     H32064   9.099   2.539  10.575  0.0819  3.2271  0.4401
  957MOL0     H32065   9.082   2.619  10.723 -3.2312  1.7510 -0.0840
  957MOL0     H32066   9.036   2.443  10.705  3.7764 -2.1727 -4.4162
  958MOL0     O32067   8.075   1.823   5.274  0.4076  0.4661 -0.3848
  958MOL0     C32068   8.177   1.766   5.230  0.6633 -0.2761 -0.1309
  958MOL0     O32069   8.205   1.745   5.091  0.2200  0.1828  0.7792
  958MOL0     C32070   8.111   1.782   4.994  0.5091  0.2357 -0.0860
  958MOL0     C32071   8.131   1.895   4.915  0.3108 -0.7013 -0.8414
  958MOL0     C32072   8.029   1.940   4.824 -0.1917 -0.4007 -0.0286
  958MOL0     C32073   7.931   1.853   4.789  0.0895  0.1375  0.8570
  958MOL0     O32074   7.853   1.893   4.683  0.1842  0.5557  0.0136
  958MOL0     C32075   7.749   1.813   4.637  0.7963 -0.5016 -0.0729
  958MOL0     C32076   7.788   1.713   4.553 -0.2515 -0.1754  0.7903
  958MOL0     C32077   7.844   1.770   4.421  0.5416  0.0257 -0.7519
  958MOL0     C32078   7.745   1.845   4.335  0.5536 -0.1258 -0.4841
  958MOL0     C32079   7.814   1.890   4.205  0.0619  0.4653  0.2444
  958MOL0     C32080   7.929   1.984   4.234 -0.8412 -0.8370 -0.4456
  958MOL0     C32081   7.981   2.057   4.101  0.0052  0.8868 -0.6309
  958MOL0     C32082   7.939   2.200   4.089 -0.1704  0.7660  0.3328
  958MOL0     N32083   7.972   2.253   3.960 -0.2380 -0.3332  0.9014
  958MOL0     C32084   8.069   2.334   3.921  0.6850  0.3119  0.5963
  958MOL0     C32085   8.047   2.351   3.791  0.2536  0.3718 -0.5813
  958MOL0     C32086   8.161   2.415   3.701  0.1749  0.5012 -0.8203
  958MOL0     C32087   8.110   2.547   3.639  1.0382  0.3212  0.5830
  958MOL0     C32088   8.224   2.649   3.642 -0.6965 -0.5537  0.9233
  958MOL0     C32089   8.177   2.791   3.604  0.0072  0.2510  1.0710
  958MOL0     O32090   8.282   2.874   3.550 -0.5846  0.9523 -0.3422
  958MOL0     C32091   8.254   3.005   3.516 -0.3010  0.7579 -0.3764
  958MOL0     C32092   8.128   3.064   3.508 -0.1861  0.3380 -0.0347
  958MOL0     C32093   8.104   3.202   3.483 -0.1030  0.1455 -0.6305
  958MOL0     C32094   7.961   3.249   3.481  0.1694 -0.0872  0.1359
  958MOL0     C32095   8.212   3.283   3.459  0.3355  0.1430  0.3079
  958MOL0     C32096   8.206   3.424   3.405 -0.7402 -0.3053 -0.2715
  958MOL0     O32097   8.308   3.508   3.449  0.1032 -0.5378 -0.1850
  958MOL0     C32098   8.354   3.609   3.369 -0.1488  0.4034 -0.5247
  958MOL0     C32099   8.382   3.593   3.231  0.3877 -0.7677  0.4713
  958MOL0     C32100   8.410   3.698   3.149  0.2359 -0.4222 -1.2221
  958MOL0     C32101   8.405   3.833   3.209  0.2076  0.4276  0.1491
  958MOL0     O32102   8.422   3.950   3.131  0.2158  0.8966 -0.2313
  958MOL0     C32103   8.479   3.937   3.002 -0.1095  0.0172  0.1957
  958MOL0     C32104   8.533   4.073   2.973 -0.9637  0.4104  0.6506
  958MOL0     C32105   8.432   4.180   2.993  0.2881  0.5501  0.3716
  958MOL0     C32106   8.449   4.263   3.114  0.7513 -0.1699 -1.3281
  958MOL0     C32107   8.320   4.339   3.160 -0.6701  0.8489  0.0482
  958MOL0     C32108   8.351   4.405   3.290  0.0746 -0.3673 -0.7380
  958MOL0     C32109   8.215   4.461   3.355  0.0919 -0.7150  0.0527
  958MOL0     C32110   8.216   4.489   3.503  0.9178  0.5059  0.0295
  958MOL0    Cl32111   8.052   4.509   3.567  0.3642  0.5301 -0.2570
  958MOL0     C32112   8.395   3.851   3.341 -0.3544  0.0427  0.1242
  958MOL0     C32113   8.358   3.741   3.423 -0.2201  1.3416  0.1005
  958MOL0     O32114   8.121   3.456   3.315 -0.6940  0.8871  0.4913
  958MOL0     C32115   8.339   3.222   3.462  0.8593  0.0510  0.2602
  958MOL0     C32116   8.363   3.092   3.498  0.1589  0.3208 -0.6514
  958MOL0     N32117   7.934   2.284   3.752  0.1287  0.4554 -0.5242
  958MOL0     N32118   7.896   2.230   3.857  0.6537  0.0643  1.1103
  958MOL0     C32119   7.922   1.726   4.858  0.3048 -0.8035 -0.4267
  958MOL0     C32120   8.007   1.696   4.964 -0.4121  1.0110  0.0796
  958MOL0     C32121   8.281   1.717   5.317 -0.3403 -0.0693 -0.1950
  958MOL0     C32122   8.407   1.696   5.257 -1.0750 -0.2204  0.1519
  958MOL0     C32123   8.515   1.644   5.330  0.1245  0.0419 -0.2526
  958MOL0     C32124   8.503   1.621   5.469  0.2087  0.5897  0.6337
  958MOL0     O32125   8.604   1.560   5.548 -0.2188 -0.2422 -0.1284
  958MOL0     C32126   8.585   1.416   5.558  0.3530  0.6398  0.1887
  958MOL0     C32127   8.636   1.343   5.433  0.1758  0.9391  1.0620
  958MOL0     C32128   8.785   1.309   5.439  0.9104 -1.0433  0.0455
  958MOL0     C32129   8.858   1.292   5.309 -0.0594  0.1270  0.3054
  958MOL0     C32130   8.878   1.418   5.238  0.0643 -0.0150  0.4215
  958MOL0     C32131   8.907   1.526   5.191  0.2520 -0.0759 -0.2524
  958MOL0     C32132   8.383   1.665   5.534 -0.0027  0.4635  1.0318
  958MOL0     C32133   8.271   1.715   5.463  0.5733  0.1372  0.5895
  958MOL0     C32134   8.166   1.764   5.550  0.3317  0.3354 -0.5270
  958MOL0     H32135   8.221   1.954   4.921 -0.1670 -0.1583  2.4360
  958MOL0     H32136   8.034   2.022   4.753 -0.2974 -1.3538 -1.1624
  958MOL0     H32137   7.674   1.871   4.582  4.1493 -0.0464 -4.7315
  958MOL0     H32138   7.690   1.782   4.724 -3.2099 -0.1305 -2.4275
  958MOL0     H32139   7.855   1.643   4.602 -0.1961 -0.3220  0.5115
  958MOL0     H32140   7.711   1.647   4.512  1.2009  0.8297 -4.2747
  958MOL0     H32141   7.927   1.831   4.460  0.7758  0.6702 -2.1864
  958MOL0     H32142   7.889   1.690   4.362 -1.3185 -3.5302  2.2090
  958MOL0     H32143   7.652   1.788   4.323 -0.8066  2.1553 -1.2870
  958MOL0     H32144   7.712   1.937   4.384  0.1800  0.1423 -1.2311
  958MOL0     H32145   7.730   1.933   4.151 -0.6686 -2.4292 -1.1258
  958MOL0     H32146   7.853   1.808   4.144 -0.6925  0.5439 -0.3562
  958MOL0     H32147   7.907   2.067   4.302 -1.7591 -0.4596 -1.1865
  958MOL0     H32148   8.017   1.931   4.271 -0.3026  1.7620  2.4014
  958MOL0     H32149   7.939   1.997   4.020 -1.2704 -0.6680  1.1108
  958MOL0     H32150   8.090   2.044   4.105 -0.3165 -4.0662 -1.6661
  958MOL0     H32151   7.835   2.199   4.120  0.1832 -1.6525  1.6303
  958MOL0     H32152   7.992   2.260   4.163 -3.7325  4.7937  0.0231
  958MOL0     H32153   8.145   2.373   3.988  1.8124 -0.1008 -0.4251
  958MOL0     H32154   8.185   2.326   3.642 -0.7667  1.2664 -2.3894
  958MOL0     H32155   8.239   2.433   3.776 -1.8050 -0.1140  1.5630
  958MOL0     H32156   8.070   2.519   3.541 -2.1784 -3.9587  2.8101
  958MOL0     H32157   8.032   2.603   3.691  1.0257  1.5115 -0.6599
  958MOL0     H32158   8.263   2.645   3.744 -0.9203 -3.3151  0.9723
  958MOL0     H32159   8.292   2.616   3.563 -1.1390  0.7207 -0.0215
  958MOL0     H32160   8.104   2.774   3.525  1.4368 -1.8457  0.0783
  958MOL0     H32161   8.131   2.849   3.684 -1.8823  4.0288 -2.4154
  958MOL0     H32162   8.043   2.998   3.523 -0.8576  1.3719  0.8967
  958MOL0     H32163   7.909   3.211   3.392  1.5209 -1.9967  0.0941
  958MOL0     H32164   7.951   3.357   3.483  0.3416 -0.0714  1.8368
  958MOL0     H32165   7.912   3.215   3.572  0.2812 -1.0742 -0.1525
  958MOL0     H32166   8.372   3.491   3.195  2.7154 -0.9433  0.1818
  958MOL0     H32167   8.446   3.677   3.049 -1.5144  1.3485 -2.3210
  958MOL0     H32168   8.552   3.855   2.998  2.0104  1.6490  2.6183
  958MOL0     H32169   8.393   3.916   2.939 -0.5251  2.4507 -0.1339
  958MOL0     H32170   8.624   4.093   3.030 -1.2587 -2.6622  2.3801
  958MOL0     H32171   8.572   4.075   2.870  0.2409  2.0809  1.0958
  958MOL0     H32172   8.333   4.134   3.002  0.1813  1.1116  2.7822
  958MOL0     H32173   8.428   4.252   2.911  1.4768  3.5643  2.7476
  958MOL0     H32174   8.530   4.329   3.082 -0.3320  2.3367  0.8002
  958MOL0     H32175   8.488   4.202   3.197 -2.6400 -0.2826  0.3623
  958MOL0     H32176   8.293   4.416   3.086  0.9903  2.1663  0.7482
  958MOL0     H32177   8.240   4.271   3.189 -0.3711  0.2583 -0.4740
  958MOL0     H32178   8.426   4.485   3.290  0.6669 -0.8860  0.6320
  958MOL0     H32179   8.380   4.319   3.351 -2.5381 -1.4817 -0.9216
  958MOL0     H32180   8.129   4.399   3.330 -2.7175  3.1968 -0.8984
  958MOL0     H32181   8.184   4.551   3.301 -0.2881 -0.1189  1.2236
  958MOL0     H32182   8.272   4.577   3.536  3.3020 -0.7675 -0.3898
  958MOL0     H32183   8.265   4.410   3.560  0.6403 -2.0679 -3.0485
  958MOL0     H32184   8.400   3.954   3.373 -0.9344  0.9326 -2.4776
  958MOL0     H32185   8.337   3.749   3.529 -0.7273 -0.9954  0.2386
  958MOL0     H32186   8.428   3.282   3.449  1.4912 -1.2898 -2.2141
  958MOL0     H32187   8.451   3.029   3.502  0.1074  0.2981  0.3932
  958MOL0     H32188   7.842   1.657   4.833  0.8554 -0.5114 -3.3501
  958MOL0     H32189   7.999   1.601   5.016 -0.0207  2.0669  2.1689
  958MOL0     H32190   8.428   1.715   5.152  2.2047  1.8254  1.0160
  958MOL0     H32191   8.607   1.624   5.277  0.6497 -0.7387  0.9219
  958MOL0     H32192   8.638   1.367   5.640  0.7120 -1.8825 -1.4269
  958MOL0     H32193   8.478   1.392   5.562  0.3129  0.8518  0.3734
  958MOL0     H32194   8.611   1.403   5.345 -0.3110  1.2875  1.4326
  958MOL0     H32195   8.594   1.243   5.423  1.4601  0.5286 -0.6757
  958MOL0     H32196   8.825   1.401   5.484 -2.8144  0.2464  1.0927
  958MOL0     H32197   8.808   1.220   5.498  1.9610 -1.5879 -1.1585
  958MOL0     H32198   8.801   1.220   5.249 -1.5454 -1.1199  3.0114
  958MOL0     H32199   8.959   1.258   5.334  0.2947  1.6957  1.1183
  958MOL0     H32200   8.934   1.622   5.151 -1.1358 -0.2713 -1.7768
  958MOL0     H32201   8.377   1.650   5.641 -1.1813 -3.5129  0.5718
  958MOL0     H32202   8.163   1.873   5.560 -0.9958  0.3689 -0.9872
  958MOL0     H32203   8.061   1.737   5.531 -0.9912  1.0937  4.2147
  958MOL0     H32204   8.186   1.731   5.652  0.5444 -2.8020 -1.4842
  959MOL0     O32205   4.254  10.221   4.131 -0.8546 -0.5501  0.2793
  959MOL0     C32206   4.338  10.311   4.099 -0.2119  0.8110 -0.0742
  959MOL0     O32207   4.467  10.308   4.122  0.4006 -0.5319 -0.6733
  959MOL0     C32208   4.523  10.224   4.222  0.4096 -0.1097 -0.1279
  959MOL0     C32209   4.508  10.079   4.228 -0.1270 -0.7892 -0.4039
  959MOL0     C32210   4.600  10.013   4.308  0.1311  0.4458 -0.2354
  959MOL0     C32211   4.701  10.073   4.385 -0.7157  0.4332  0.6757
  959MOL0     O32212   4.788  10.020   4.468  1.0899 -0.1364  0.4393
  959MOL0     C32213   4.792   9.875   4.471 -0.2099  1.0474  0.2796
  959MOL0     C32214   4.893   9.836   4.576 -0.2446 -0.2282  0.4486
  959MOL0     C32215   4.846   9.884   4.716 -0.1837  0.0226  0.3174
  959MOL0     C32216   4.917   9.806   4.819 -0.0267 -0.0908 -0.3350
  959MOL0     C32217   4.855   9.854   4.958  0.0411  0.4537  0.1481
  959MOL0     C32218   4.730   9.780   4.991  0.2926  0.0182  0.1585
  959MOL0     C32219   4.676   9.818   5.139 -0.1122  0.4949  0.0701
  959MOL0     C32220   4.651   9.970   5.138 -0.3779 -0.0068  0.3875
  959MOL0     N32221   4.531  10.000   5.213 -0.0364 -0.3695 -0.2603
  959MOL0     C32222   4.525  10.048   5.344 -0.6525 -0.6402  0.1070
  959MOL0     C32223   4.390  10.045   5.377  0.7032 -1.0948 -0.6205
  959MOL0     C32224   4.330  10.057   5.519  0.0140  0.4765  0.5746
  959MOL0     C32225   4.180  10.087   5.534 -0.1021 -0.1648 -0.4116
  959MOL0     C32226   4.131  10.235   5.502 -0.3533 -0.3338 -0.1821
  959MOL0     C32227   4.206  10.343   5.593  0.3918  0.8692 -0.1299
  959MOL0     O32228   4.163  10.476   5.560 -0.0093 -0.0570 -0.4951
  959MOL0     C32229   4.123  10.561   5.666 -0.7789  0.4845 -0.4822
  959MOL0     C32230   4.051  10.675   5.627  0.7006 -0.6870 -0.2369
  959MOL0     C32231   4.006  10.774   5.717 -1.2183  0.4085  0.6838
  959MOL0     C32232   3.930  10.882   5.645  0.3317  0.5459  1.2759
  959MOL0     C32233   4.031  10.757   5.861  0.3644 -0.2218 -1.6249
  959MOL0     C32234   3.989  10.849   5.969 -0.0416 -0.7707 -1.2469
  959MOL0     O32235   4.033  10.816   6.098  0.2342  0.3303 -0.1041
  959MOL0     C32236   4.019  10.907   6.193 -1.0353 -0.6796  0.2593
  959MOL0     C32237   4.133  10.969   6.239 -0.3379  0.3480 -0.2879
  959MOL0     C32238   4.141  11.070   6.341  0.5930 -0.0501 -0.5661
  959MOL0     C32239   4.017  11.114   6.392 -0.1668  0.8544  0.6237
  959MOL0     O32240   4.021  11.213   6.489 -0.3972  0.0252  0.3776
  959MOL0     C32241   3.901  11.284   6.526  0.1853  0.5207  0.4001
  959MOL0     C32242   3.931  11.406   6.606 -0.8278  0.5481  0.2552
  959MOL0     C32243   4.022  11.502   6.530 -0.8379  0.0233  0.7141
  959MOL0     C32244   4.084  11.610   6.617 -0.0958  0.0764  0.0591
  959MOL0     C32245   3.986  11.713   6.680  0.0964  0.2495  0.2156
  959MOL0     C32246   4.067  11.809   6.766  0.6157  0.1071 -0.4077
  959MOL0     C32247   3.959  11.882   6.846  0.7199  0.0638 -0.0686
  959MOL0     C32248   4.007  11.964   6.967 -0.1195 -0.1183  0.3087
  959MOL0    Cl32249   4.003  11.870   7.119  0.0550 -0.2434  0.0833
  959MOL0     C32250   3.890  11.063   6.332  0.1128  1.0009 -0.8141
  959MOL0     C32251   3.898  10.957   6.235 -0.2966 -0.4412 -0.3394
  959MOL0     O32252   3.924  10.947   5.941 -0.8670 -0.0260  0.1309
  959MOL0     C32253   4.095  10.635   5.896  0.1385  0.0014  0.0684
  959MOL0     C32254   4.147  10.545   5.808 -0.6482  0.6645 -0.0665
  959MOL0     N32255   4.324  10.007   5.267  0.1411  0.5579  0.7851
  959MOL0     N32256   4.404   9.992   5.166 -0.9593  0.3162 -0.5958
  959MOL0     C32257   4.704  10.211   4.380 -0.0025  0.6909  0.2192
  959MOL0     C32258   4.608  10.285   4.312  0.6315 -0.0635  0.5250
  959MOL0     C32259   4.289  10.414   3.999 -0.3155 -0.8240 -0.5848
  959MOL0     C32260   4.388  10.497   3.939  0.8513 -0.9030  0.4563
  959MOL0     C32261   4.349  10.606   3.855  0.4403 -0.1173  1.1052
  959MOL0     C32262   4.208  10.612   3.809  0.7579 -0.0975  0.0658
  959MOL0     O32263   4.184  10.710   3.715 -0.2707 -0.0702 -0.4536
  959MOL0     C32264   4.054  10.724   3.655 -0.9184  0.6835 -0.0697
  959MOL0     C32265   3.942  10.789   3.741  0.7565  0.3575 -0.3736
  959MOL0     C32266   3.814  10.767   3.679 -0.5166 -0.9228  0.8045
  959MOL0     C32267   3.705  10.749   3.778  0.4602  0.4342  0.1202
  959MOL0     C32268   3.668  10.877   3.831  0.4391  0.0588 -0.8118
  959MOL0     C32269   3.644  10.986   3.877 -0.0988 -0.1692  0.4855
  959MOL0     C32270   4.118  10.513   3.854  0.4965  0.3059  0.1746
  959MOL0     C32271   4.151  10.426   3.953 -0.8000 -0.5908 -0.2417
  959MOL0     C32272   4.029  10.340   4.007  0.0060 -1.0145 -0.2156
  959MOL0     H32273   4.431  10.036   4.165 -0.3382  1.1535 -1.5408
  959MOL0     H32274   4.600   9.905   4.316 -1.5418  0.5257  1.4376
  959MOL0     H32275   4.825   9.827   4.379 -1.5754  0.3926  0.1052
  959MOL0     H32276   4.695   9.832   4.498 -0.5951  1.5367 -0.2794
  959MOL0     H32277   4.905   9.727   4.574  1.7153 -0.0692 -2.6539
  959MOL0     H32278   4.982   9.889   4.543 -2.6287  2.3980 -2.3568
  959MOL0     H32279   4.862   9.992   4.724 -0.4822  0.0278  0.8758
  959MOL0     H32280   4.738   9.865   4.721 -0.0593 -0.5378  0.9292
  959MOL0     H32281   4.884   9.704   4.802 -0.1002  0.4886 -4.6888
  959MOL0     H32282   5.027   9.811   4.814  0.1045  1.5380  2.3483
  959MOL0     H32283   4.846   9.962   4.969  0.5631  0.4667  0.4949
  959MOL0     H32284   4.925   9.817   5.033 -0.0348 -0.4812 -0.2186
  959MOL0     H32285   4.655   9.804   4.915  0.5926 -1.8550 -0.7928
  959MOL0     H32286   4.753   9.674   4.995 -0.5374 -0.2430 -1.3201
  959MOL0     H32287   4.742   9.787   5.221 -2.4803  1.7608  2.5974
  959MOL0     H32288   4.582   9.767   5.157 -1.0988  2.8016  2.0519
  959MOL0     H32289   4.734  10.035   5.166 -0.7179  1.0381 -0.8976
  959MOL0     H32290   4.626   9.986   5.032 -1.3300 -0.2465  0.5658
  959MOL0     H32291   4.606  10.084   5.407  1.3719 -0.4111 -2.4748
  959MOL0     H32292   4.396  10.117   5.583  0.1504 -1.2385  2.1339
  959MOL0     H32293   4.339   9.960   5.568 -0.9891  0.2698  0.3814
  959MOL0     H32294   4.121  10.032   5.460  1.2497  0.8916 -2.3776
  959MOL0     H32295   4.140  10.064   5.633 -1.0853  2.0950 -0.2365
  959MOL0     H32296   4.181  10.240   5.405  2.9762 -1.0408  1.3378
  959MOL0     H32297   4.023  10.247   5.490 -0.4721 -0.8428  0.3671
  959MOL0     H32298   4.176  10.323   5.697  0.0594  2.4746  0.1137
  959MOL0     H32299   4.315  10.348   5.584  0.3763  1.1428 -0.1748
  959MOL0     H32300   4.029  10.677   5.521 -0.7302  0.4894  0.0411
  959MOL0     H32301   3.988  10.969   5.611 -0.2925  0.4063 -0.1883
  959MOL0     H32302   3.853  10.920   5.714  1.2127  1.1589  1.9448
  959MOL0     H32303   3.880  10.836   5.560 -1.2740  2.1672  1.2669
  959MOL0     H32304   4.230  10.935   6.202  0.2467  0.0945  1.3984
  959MOL0     H32305   4.237  11.104   6.379  0.9281  0.5052 -1.8683
  959MOL0     H32306   3.843  11.326   6.443  0.2104 -0.3809 -0.0760
  959MOL0     H32307   3.834  11.228   6.592  0.3180 -1.0989 -0.7859
  959MOL0     H32308   3.837  11.447   6.643  0.2045 -0.0183  4.0316
  959MOL0     H32309   3.970  11.378   6.705  1.3259  0.9930 -0.4013
  959MOL0     H32310   3.974  11.528   6.435 -0.2364 -1.0064  0.1062
  959MOL0     H32311   4.111  11.442   6.506 -1.9297 -1.1117 -0.6551
  959MOL0     H32312   4.147  11.677   6.557  1.1549 -2.1222 -1.2018
  959MOL0     H32313   4.141  11.568   6.700  1.8562  2.2790 -0.0466
  959MOL0     H32314   3.927  11.758   6.600  1.1042 -1.4530 -1.5630
  959MOL0     H32315   3.913  11.661   6.743 -0.5892  2.2275  1.1528
  959MOL0     H32316   4.117  11.884   6.704 -2.9716  1.2116 -2.2267
  959MOL0     H32317   4.119  11.745   6.838 -2.9540 -2.2952  0.3155
  959MOL0     H32318   3.895  11.808   6.893  0.1000  0.0869 -0.8604
  959MOL0     H32319   3.891  11.944   6.787  1.2301  1.0894  0.3786
  959MOL0     H32320   3.941  12.050   6.975  0.6110  0.3695  1.2518
  959MOL0     H32321   4.112  11.991   6.948 -0.2114 -0.4753 -0.7838
  959MOL0     H32322   3.798  11.114   6.360 -0.6584 -0.5216 -0.4826
  959MOL0     H32323   3.811  10.911   6.188  1.5054 -0.2392 -4.2028
  959MOL0     H32324   4.109  10.613   6.001 -1.6993  3.1445  1.1158
  959MOL0     H32325   4.200  10.461   5.850  0.4056  0.2745 -2.0409
  959MOL0     H32326   4.781  10.256   4.441  1.6548 -0.6694 -0.7885
  959MOL0     H32327   4.623  10.392   4.304  1.9075 -0.2199  0.6482
  959MOL0     H32328   4.492  10.492   3.970  0.4721 -1.8943  1.6720
  959MOL0     H32329   4.427  10.670   3.818 -1.2587  2.1485  1.2244
  959MOL0     H32330   4.069  10.782   3.563  0.5229 -1.3580 -1.1803
  959MOL0     H32331   4.018  10.625   3.629 -1.8530 -0.1039  3.5599
  959MOL0     H32332   3.944  10.898   3.755  1.2490  0.3214 -0.1094
  959MOL0     H32333   3.949  10.745   3.841 -0.9463 -2.4275 -1.3665
  959MOL0     H32334   3.788  10.848   3.610 -1.3953 -3.6399 -2.3529
  959MOL0     H32335   3.819  10.676   3.618  1.0208 -0.8917  0.8551
  959MOL0     H32336   3.740  10.688   3.861  0.9851 -1.9533 -1.7597
  959MOL0     H32337   3.614  10.708   3.733  0.4092  1.3691 -0.6768
  959MOL0     H32338   3.612  11.080   3.919 -0.0323 -0.5127  1.3264
  959MOL0     H32339   4.022  10.508   3.803  1.3514 -1.8127 -1.3679
  959MOL0     H32340   4.003  10.248   3.954 -1.7678  0.0925 -1.3725
  959MOL0     H32341   4.027  10.321   4.115 -0.3519 -1.6361 -0.3242
  959MOL0     H32342   3.940  10.403   3.994  1.4146  0.9022 -1.0798
  960MOL0     O32343   2.646  10.794   8.462 -0.2156 -0.4464 -0.1313
  960MOL0     C32344   2.737  10.763   8.390 -0.7774 -0.1521 -1.1521
  960MOL0     O32345   2.722  10.717   8.267  0.3186 -0.6477  0.9260
  960MOL0     C32346   2.599  10.729   8.207  0.3729  1.0064  0.1169
  960MOL0     C32347   2.599  10.789   8.081  0.1438 -0.2168 -0.3045
  960MOL0     C32348   2.486  10.821   8.008 -0.5849 -0.2483  0.5821
  960MOL0     C32349   2.360  10.777   8.060 -1.0433 -0.0651  0.6767
  960MOL0     O32350   2.250  10.812   7.986  0.3405 -0.2573 -0.0515
  960MOL0     C32351   2.152  10.711   7.966 -1.0110 -0.3142 -0.7191
  960MOL0     C32352   2.043  10.775   7.882  0.9145  0.6254 -0.6095
  960MOL0     C32353   1.981  10.896   7.957 -0.1659 -0.0758  0.0997
  960MOL0     C32354   1.914  10.999   7.865 -0.3019  0.7839  0.9687
  960MOL0     C32355   1.881  11.134   7.915 -0.1461  0.0852 -0.3116
  960MOL0     C32356   1.816  11.222   7.809 -0.2587  0.1554 -0.1336
  960MOL0     C32357   1.803  11.363   7.860 -0.1030 -0.2847 -0.3566
  960MOL0     C32358   1.801  11.469   7.744 -0.3875 -0.0811  0.6175
  960MOL0     N32359   1.679  11.458   7.654  0.7078 -0.7814 -0.8998
  960MOL0     C32360   1.552  11.498   7.697  0.0086 -0.5606  0.6848
  960MOL0     C32361   1.473  11.510   7.584  0.2064 -0.2049 -0.2470
  960MOL0     C32362   1.327  11.541   7.579 -0.6334  0.7638 -0.0332
  960MOL0     C32363   1.281  11.650   7.684 -1.1087  0.0702  1.1203
  960MOL0     C32364   1.149  11.708   7.648  0.2838 -0.4078 -0.4014
  960MOL0     C32365   1.067  11.778   7.758  0.9092  0.1806 -0.0679
  960MOL0     O32366   0.955  11.692   7.795 -0.5426 -0.0117 -0.2744
  960MOL0     C32367   0.832  11.725   7.739 -0.4224 -0.0703  0.3345
  960MOL0     C32368   0.721  11.702   7.814 -0.0828  0.1968  0.0572
  960MOL0     C32369   0.594  11.733   7.775 -0.0043 -0.1112 -1.2498
  960MOL0     C32370   0.488  11.715   7.879  0.3094  0.2120 -0.7789
  960MOL0     C32371   0.569  11.794   7.650 -0.1044  0.5822  0.0490
  960MOL0     C32372   0.439  11.825   7.596  0.5194  0.4021  0.4066
  960MOL0     O32373   0.338  11.854   7.677  0.3021  0.6579  0.0588
  960MOL0     C32374   0.207  11.811   7.646  0.5131 -0.5534  0.1373
  960MOL0     C32375   0.165  11.718   7.554  0.5129  0.1977  0.2837
  960MOL0     C32376   0.029  11.660   7.566 -0.5242 -0.0743  0.5123
  960MOL0     C32377  -0.056  11.714   7.658  0.0919  0.1163 -0.2846
  960MOL0     O32378  -0.187  11.658   7.672 -0.9013 -1.0459  0.0356
  960MOL0     C32379  -0.240  11.576   7.576 -0.2365 -0.2423  0.6837
  960MOL0     C32380  -0.387  11.539   7.618 -0.9264 -0.6696 -0.2413
  960MOL0     C32381  -0.492  11.645   7.618  0.3719  0.1738 -0.6280
  960MOL0     C32382  -0.643  11.578   7.620  0.5237 -0.0944 -0.2591
  960MOL0     C32383  -0.756  11.685   7.597  0.1222  0.4199 -0.5874
  960MOL0     C32384  -0.890  11.598   7.619 -0.2221  0.0190 -0.5117
  960MOL0     C32385  -1.019  11.663   7.593  0.0219 -0.5558 -0.1531
  960MOL0     C32386  -1.023  11.749   7.471 -0.3963 -0.5791 -0.0448
  960MOL0    Cl32387  -1.178  11.839   7.459 -0.1212  0.0988 -0.4762
  960MOL0     C32388  -0.010  11.824   7.741 -0.4161  0.1247  0.1084
  960MOL0     C32389   0.123  11.869   7.734 -0.2180 -1.2807 -0.2618
  960MOL0     O32390   0.430  11.823   7.472  0.0319  0.1610 -0.1218
  960MOL0     C32391   0.682  11.817   7.572  0.0375 -1.0507  0.9100
  960MOL0     C32392   0.807  11.784   7.614  0.5129  0.7376  0.4230
  960MOL0     N32393   1.558  11.488   7.468  0.1320 -0.2122 -0.9838
  960MOL0     N32394   1.681  11.467   7.515  0.1854  0.1497 -0.4833
  960MOL0     C32395   2.361  10.709   8.182  0.7909 -0.2536 -0.0798
  960MOL0     C32396   2.474  10.697   8.260  0.8092  0.9085 -0.4639
  960MOL0     C32397   2.879  10.771   8.441 -0.4438 -1.0669 -0.2097
  960MOL0     C32398   2.989  10.771   8.350  0.3861  1.2264  0.3477
  960MOL0     C32399   3.122  10.786   8.383  0.5685 -0.6163 -0.4239
  960MOL0     C32400   3.157  10.804   8.518 -0.1170 -0.6342 -0.0132
  960MOL0     O32401   3.293  10.816   8.543 -0.2283 -0.2779 -0.4467
  960MOL0     C32402   3.346  10.873   8.668 -0.5674  0.0641 -0.3239
  960MOL0     C32403   3.388  10.770   8.776 -0.5654 -0.0699  0.4049
  960MOL0     C32404   3.522  10.705   8.725 -0.1332 -0.1395 -0.1811
  960MOL0     C32405   3.579  10.618   8.835  0.8418  0.5896  0.5348
  960MOL0     C32406   3.716  10.580   8.807  0.8104 -0.1221  0.1636
  960MOL0     C32407   3.816  10.525   8.769 -0.4590 -0.5293 -0.2740
  960MOL0     C32408   3.058  10.799   8.621 -0.4914  0.9103  0.2154
  960MOL0     C32409   2.918  10.790   8.574  0.0484  0.9544 -0.3989
  960MOL0     C32410   2.811  10.793   8.682 -0.0406  0.0676  0.1969
  960MOL0     H32411   2.699  10.806   8.042  2.9560 -3.3717  4.4585
  960MOL0     H32412   2.482  10.852   7.904  2.1521 -1.7798 -0.1041
  960MOL0     H32413   2.096  10.687   8.057 -0.2463  2.2076  0.5057
  960MOL0     H32414   2.192  10.619   7.923  3.1737 -0.7159  3.2790
  960MOL0     H32415   2.065  10.797   7.777 -2.2872  0.2081 -1.4820
  960MOL0     H32416   1.967  10.696   7.883  3.4856 -2.0200  0.7771
  960MOL0     H32417   1.907  10.862   8.030 -0.0540 -0.2630  0.1273
  960MOL0     H32418   2.057  10.945   8.019 -0.4961 -2.2765  2.4122
  960MOL0     H32419   1.977  11.015   7.777 -0.2385  0.8198  1.0209
  960MOL0     H32420   1.823  10.945   7.836  0.9419  0.0577 -1.9589
  960MOL0     H32421   1.972  11.177   7.959 -1.3269  2.8517 -0.4062
  960MOL0     H32422   1.815  11.124   8.002 -2.4120  0.9962 -1.8321
  960MOL0     H32423   1.883  11.212   7.724 -2.4349  0.4502 -1.9788
  960MOL0     H32424   1.720  11.180   7.777 -0.5926  1.6432 -1.1728
  960MOL0     H32425   1.873  11.388   7.940 -2.5960 -1.3573  2.3305
  960MOL0     H32426   1.715  11.370   7.925  0.0896 -3.5266  0.3800
  960MOL0     H32427   1.802  11.560   7.804 -2.5962  1.1591 -1.0705
  960MOL0     H32428   1.897  11.463   7.692  0.1623 -1.9022  1.7373
  960MOL0     H32429   1.520  11.524   7.797  0.0293  1.8711  0.1093
  960MOL0     H32430   1.263  11.458   7.609 -0.0659  0.6157  0.8101
  960MOL0     H32431   1.299  11.586   7.483 -2.0203  3.0813  1.3462
  960MOL0     H32432   1.274  11.595   7.779  2.9082  0.2468  1.7146
  960MOL0     H32433   1.360  11.724   7.698  0.4977 -1.4021  0.2189
  960MOL0     H32434   1.159  11.787   7.572  0.0861  3.1777  2.9941
  960MOL0     H32435   1.091  11.630   7.598 -1.8501  3.2114 -4.3021
  960MOL0     H32436   1.126  11.802   7.847  1.3938  0.8311 -0.5581
  960MOL0     H32437   1.027  11.876   7.728  2.7613  0.4857 -1.7496
  960MOL0     H32438   0.739  11.654   7.910  0.1527  0.3716  0.1033
  960MOL0     H32439   0.464  11.813   7.922  1.6468  0.1443  0.2021
  960MOL0     H32440   0.513  11.659   7.969  1.8245  3.3240  0.9008
  960MOL0     H32441   0.400  11.668   7.833  0.6666  1.1288 -2.5026
  960MOL0     H32442   0.233  11.668   7.486  2.8499  3.7277 -0.2363
  960MOL0     H32443   0.004  11.591   7.485  0.3593  1.3888 -1.0671
  960MOL0     H32444  -0.247  11.621   7.476  2.4744  1.7573  1.2891
  960MOL0     H32445  -0.191  11.479   7.581 -1.1153 -0.6738  1.1640
  960MOL0     H32446  -0.418  11.454   7.557 -0.1811 -1.7000  0.7680
  960MOL0     H32447  -0.374  11.500   7.719  1.5947 -1.8038 -0.9335
  960MOL0     H32448  -0.485  11.717   7.536 -2.7364 -0.6407 -1.7501
  960MOL0     H32449  -0.486  11.706   7.709  2.4355  1.6239 -1.6582
  960MOL0     H32450  -0.658  11.533   7.718 -1.1761 -0.4396 -0.6533
  960MOL0     H32451  -0.653  11.503   7.541  1.4753 -0.7713  0.2380
  960MOL0     H32452  -0.748  11.763   7.673 -1.5828  0.5271 -0.4746
  960MOL0     H32453  -0.746  11.722   7.495  1.8126 -1.1969 -1.0616
  960MOL0     H32454  -0.901  11.557   7.719  0.3803 -2.6534 -1.4610
  960MOL0     H32455  -0.880  11.515   7.549  3.5714  0.7264 -1.0336
  960MOL0     H32456  -1.051  11.726   7.677 -1.0298 -1.8388  0.4345
  960MOL0     H32457  -1.102  11.593   7.581 -0.8660  0.4133  0.1812
  960MOL0     H32458  -1.013  11.687   7.382 -0.5544  2.8586 -2.6583
  960MOL0     H32459  -0.942  11.822   7.465  0.6618 -1.8178 -1.5822
  960MOL0     H32460  -0.066  11.866   7.824 -1.3281  1.0288 -0.9289
  960MOL0     H32461   0.158  11.945   7.804 -2.5543 -0.2043 -0.1706
  960MOL0     H32462   0.677  11.878   7.482  0.6214 -1.0718  0.8573
  960MOL0     H32463   0.892  11.794   7.546 -0.9255 -2.3115 -2.1199
  960MOL0     H32464   2.266  10.675   8.223  0.9362 -4.8873 -2.9249
  960MOL0     H32465   2.461  10.673   8.365 -2.5080  4.1498  0.0750
  960MOL0     H32466   2.962  10.757   8.245  0.1686  2.8344  0.1769
  960MOL0     H32467   3.200  10.786   8.307  0.1229  2.4584 -0.9944
  960MOL0     H32468   3.432  10.938   8.651 -1.6090  1.5200 -0.2456
  960MOL0     H32469   3.269  10.942   8.705  1.7642  1.6816  1.8879
  960MOL0     H32470   3.313  10.692   8.769 -3.5493  2.4717  1.6173
  960MOL0     H32471   3.387  10.816   8.876 -1.1921  1.8944 -0.4596
  960MOL0     H32472   3.508  10.650   8.632  2.3414  0.0157 -0.7101
  960MOL0     H32473   3.588  10.788   8.701  0.4744 -1.6688 -4.7215
  960MOL0     H32474   3.514  10.530   8.836  1.3643  0.1627  2.5100
  960MOL0     H32475   3.575  10.660   8.936  2.1549 -0.2482  0.9656
  960MOL0     H32476   3.905  10.475   8.736 -0.1484  1.4598 -2.7829
  960MOL0     H32477   3.097  10.809   8.722  2.4643  2.8267 -0.9813
  960MOL0     H32478   2.853  10.774   8.781 -0.0405 -0.8671  0.0188
  960MOL0     H32479   2.757  10.888   8.675  0.3660  0.3015  0.1779
  960MOL0     H32480   2.745  10.707   8.668 -1.5957  1.6386 -3.3014
  961MOL0     O32481   8.109   2.355   2.787 -0.1958 -0.4722 -1.0385
  961MOL0     C32482   8.225   2.395   2.767 -0.0907  1.3471  0.2722
  961MOL0     O32483   8.256   2.513   2.714  0.2858  0.1911 -0.5038
  961MOL0     C32484   8.159   2.617   2.706  0.8051  0.0295  0.0979
  961MOL0     C32485   8.178   2.717   2.802 -0.1476  0.3990  0.3406
  961MOL0     C32486   8.100   2.830   2.797 -0.0037  0.3998 -0.1303
  961MOL0     C32487   8.005   2.850   2.703  0.0831 -0.0629  0.6312
  961MOL0     O32488   7.945   2.972   2.700 -0.2344 -0.4680  0.2158
  961MOL0     C32489   7.816   2.992   2.645  0.1409  0.4310 -0.6333
  961MOL0     C32490   7.756   3.107   2.726  1.0876  0.7095 -0.3889
  961MOL0     C32491   7.848   3.234   2.730  0.2318 -1.1459 -0.0084
  961MOL0     C32492   7.783   3.352   2.822 -0.2055  1.0666 -0.3640
  961MOL0     C32493   7.873   3.464   2.796 -0.3090 -0.0127 -0.2045
  961MOL0     C32494   7.905   3.531   2.924  0.3381  0.0750 -0.7462
  961MOL0     C32495   8.032   3.617   2.927 -0.5414  0.3089 -0.9002
  961MOL0     C32496   8.063   3.702   3.050 -0.2201 -0.5965  0.1881
  961MOL0     N32497   7.989   3.838   3.051 -0.2691 -0.8010  0.0290
  961MOL0     C32498   8.044   3.963   3.032 -0.8608 -0.0798  0.4796
  961MOL0     C32499   7.943   4.050   3.052 -0.2375  0.2391  0.7329
  961MOL0     C32500   7.958   4.198   3.047 -0.8727 -0.8309 -0.6326
  961MOL0     C32501   7.924   4.280   3.172  0.5083 -0.0285  0.4123
  961MOL0     C32502   7.762   4.293   3.195  0.2858 -0.3611 -0.8096
  961MOL0     C32503   7.718   4.349   3.334 -0.9695 -0.4645 -0.1200
  961MOL0     O32504   7.740   4.252   3.440  0.4839  0.4909  0.2279
  961MOL0     C32505   7.621   4.187   3.465 -0.0879 -0.7168 -0.1180
  961MOL0     C32506   7.521   4.252   3.531  1.0858 -0.0528  0.1915
  961MOL0     C32507   7.398   4.188   3.551  0.6420  0.8285 -0.0950
  961MOL0     C32508   7.295   4.276   3.623  1.0053  0.3485 -1.5113
  961MOL0     C32509   7.382   4.047   3.520 -0.1114 -0.3817 -0.4575
  961MOL0     C32510   7.255   3.974   3.522  0.7057 -0.0621  0.1703
  961MOL0     O32511   7.255   3.855   3.465  0.1874 -0.1235 -0.0226
  961MOL0     C32512   7.140   3.787   3.447  0.3833 -0.7595 -0.6366
  961MOL0     C32513   7.133   3.666   3.507 -0.7751 -0.0137  0.2041
  961MOL0     C32514   7.017   3.590   3.490 -0.3797 -0.0461  0.8994
  961MOL0     C32515   6.904   3.642   3.430  1.1987  0.6830  0.5111
  961MOL0     O32516   6.792   3.559   3.432 -0.7873 -0.2408 -0.7130
  961MOL0     C32517   6.667   3.626   3.463  0.5399 -1.2938  0.0451
  961MOL0     C32518   6.550   3.528   3.438  0.0320 -0.2092 -0.4320
  961MOL0     C32519   6.560   3.421   3.549 -0.5790 -0.0615 -0.2820
  961MOL0     C32520   6.431   3.325   3.551 -0.2945 -2.0017 -0.5319
  961MOL0     C32521   6.416   3.231   3.680  1.0063  0.5865 -0.5824
  961MOL0     C32522   6.306   3.132   3.632  0.1481  0.0785 -0.1909
  961MOL0     C32523   6.242   3.045   3.741 -0.8158  0.2942  0.3817
  961MOL0     C32524   6.345   2.947   3.805 -0.5306 -0.4688  0.7293
  961MOL0    Cl32525   6.259   2.855   3.917 -0.4431 -0.4421  0.1891
  961MOL0     C32526   6.924   3.770   3.359 -0.3272 -1.2681  0.1809
  961MOL0     C32527   7.043   3.840   3.372  1.3237  0.1265 -0.2023
  961MOL0     O32528   7.153   4.026   3.574 -0.5355 -0.6424 -0.4015
  961MOL0     C32529   7.494   3.981   3.463  0.5890  0.2470 -0.2218
  961MOL0     C32530   7.609   4.053   3.439  0.5211 -0.4564  0.6903
  961MOL0     N32531   7.843   3.981   3.113 -0.0043  0.1630 -0.0162
  961MOL0     N32532   7.863   3.859   3.107 -0.5723  0.6188 -0.2798
  961MOL0     C32533   7.975   2.745   2.608 -0.5194  0.3578 -0.8992
  961MOL0     C32534   8.056   2.628   2.611  0.9988  0.5040 -1.1835
  961MOL0     C32535   8.339   2.295   2.775  0.7434  0.8685 -1.1504
  961MOL0     C32536   8.441   2.297   2.678 -0.5885 -0.4881 -0.4493
  961MOL0     C32537   8.548   2.211   2.688 -0.3777 -0.6852  0.1828
  961MOL0     C32538   8.560   2.128   2.797 -0.0585  0.0375  0.8800
  961MOL0     O32539   8.670   2.048   2.820 -0.3786  0.4684  0.2099
  961MOL0     C32540   8.801   2.084   2.757 -0.5924 -0.0011 -0.3729
  961MOL0     C32541   8.917   2.002   2.805  0.1636  0.2814 -0.1959
  961MOL0     C32542   8.915   2.013   2.955 -0.1641 -0.0229  1.0577
  961MOL0     C32543   9.048   1.972   3.030  0.1202  0.7727  0.3481
  961MOL0     C32544   9.155   2.064   3.008 -0.4304  0.5588  0.3470
  961MOL0     C32545   9.215   2.168   2.981  0.6071 -0.3197 -0.0356
  961MOL0     C32546   8.448   2.104   2.867 -0.3039  0.6078  0.0237
  961MOL0     C32547   8.337   2.184   2.863 -0.0279 -0.2972  0.0129
  961MOL0     C32548   8.224   2.144   2.947  0.1664 -0.7355  0.2683
  961MOL0     H32549   8.254   2.702   2.878 -1.2220  0.5985  1.4788
  961MOL0     H32550   8.104   2.899   2.881 -1.8157  1.4687 -0.8768
  961MOL0     H32551   7.745   2.908   2.654 -0.6326  0.5636 -3.9853
  961MOL0     H32552   7.821   3.024   2.540  0.1491 -2.4114 -1.5845
  961MOL0     H32553   7.657   3.131   2.686  0.7981 -0.4654 -0.3999
  961MOL0     H32554   7.733   3.075   2.828  0.7688 -2.3721 -1.3472
  961MOL0     H32555   7.947   3.202   2.764  1.5744  1.2934 -1.3744
  961MOL0     H32556   7.871   3.276   2.632  0.6101 -0.3522  0.4054
  961MOL0     H32557   7.680   3.368   2.790 -0.5943  0.6965  0.6431
  961MOL0     H32558   7.770   3.315   2.924 -1.0666 -0.3784 -0.9672
  961MOL0     H32559   7.824   3.520   2.716 -0.7337  1.9431  1.3423
  961MOL0     H32560   7.973   3.426   2.773 -0.5093 -0.5769 -0.1381
  961MOL0     H32561   7.831   3.611   2.940  3.4689  3.4243 -1.5970
  961MOL0     H32562   7.910   3.462   3.008  2.6924 -1.9857 -2.4510
  961MOL0     H32563   8.035   3.681   2.839 -2.5994  0.3862 -0.9619
  961MOL0     H32564   8.116   3.547   2.916  2.0555  3.1697 -0.4165
  961MOL0     H32565   8.038   3.643   3.139  0.4361 -1.2202 -0.0327
  961MOL0     H32566   8.167   3.730   3.065 -0.4805  1.6664 -1.6905
  961MOL0     H32567   8.146   3.983   3.000 -1.0054  1.3002  0.8578
  961MOL0     H32568   7.896   4.242   2.968  0.1278 -0.8835 -1.4720
  961MOL0     H32569   8.059   4.216   3.010 -0.1960 -2.9727  0.0533
  961MOL0     H32570   7.975   4.240   3.260  0.4328  1.0506  0.9643
  961MOL0     H32571   7.964   4.381   3.160  0.3192  0.0803  0.6711
  961MOL0     H32572   7.737   4.365   3.117 -2.1413  0.8310  0.9498
  961MOL0     H32573   7.716   4.197   3.171  0.1276 -0.5630  0.2524
  961MOL0     H32574   7.782   4.429   3.372  3.3740 -3.1683 -1.1077
  961MOL0     H32575   7.617   4.390   3.326 -0.8604 -0.2480 -0.4270
  961MOL0     H32576   7.547   4.351   3.566  1.1311 -0.4630  1.3657
  961MOL0     H32577   7.329   4.379   3.638 -0.2141  0.2577  3.6571
  961MOL0     H32578   7.282   4.240   3.726 -1.4468 -2.2077 -2.5985
  961MOL0     H32579   7.199   4.283   3.572 -1.0645 -0.1230  2.0119
  961MOL0     H32580   7.213   3.635   3.572  0.2713  4.3287  1.3334
  961MOL0     H32581   7.026   3.498   3.547 -0.6795  1.3623  3.3633
  961MOL0     H32582   6.669   3.642   3.572 -0.5493 -2.1792  0.2057
  961MOL0     H32583   6.651   3.722   3.412  1.2181 -0.5494  1.1808
  961MOL0     H32584   6.456   3.583   3.448 -0.0782  0.2744 -3.3813
  961MOL0     H32585   6.540   3.491   3.336  0.9402  0.6191 -0.8433
  961MOL0     H32586   6.560   3.470   3.647  3.9345 -1.1805  0.4814
  961MOL0     H32587   6.649   3.369   3.514 -0.4892  0.0862 -0.2722
  961MOL0     H32588   6.448   3.257   3.468 -0.2591 -0.8394 -1.5029
  961MOL0     H32589   6.332   3.371   3.541 -1.6485 -3.5896  3.5077
  961MOL0     H32590   6.507   3.175   3.702  0.9370  1.8062  3.5238
  961MOL0     H32591   6.373   3.279   3.769 -3.2303 -1.3186 -1.3353
  961MOL0     H32592   6.358   3.057   3.570  1.4682  1.5699 -0.9518
  961MOL0     H32593   6.228   3.193   3.586 -0.5084  0.8669  1.8703
  961MOL0     H32594   6.166   2.985   3.690 -1.5296 -1.0313  2.8056
  961MOL0     H32595   6.198   3.092   3.829  1.6198 -2.2421  3.2063
  961MOL0     H32596   6.433   2.999   3.845 -0.0889  0.7911 -1.6729
  961MOL0     H32597   6.382   2.877   3.730  2.1464  0.6790  0.8504
  961MOL0     H32598   6.845   3.829   3.313  2.2491  0.7559 -1.9456
  961MOL0     H32599   7.059   3.930   3.313 -1.5442  0.4067 -0.6814
  961MOL0     H32600   7.487   3.878   3.430 -0.5004 -0.3702  1.7375
  961MOL0     H32601   7.684   3.991   3.391  0.5413 -0.0856  0.2313
  961MOL0     H32602   7.892   2.762   2.540 -2.5851  3.8174  2.1020
  961MOL0     H32603   8.020   2.555   2.539  0.5879  0.3204 -0.7987
  961MOL0     H32604   8.442   2.361   2.591  1.1337 -3.3278 -2.7309
  961MOL0     H32605   8.631   2.215   2.618 -2.3516  3.0222 -2.3492
  961MOL0     H32606   8.786   2.060   2.651  0.4031 -0.9178 -0.3264
  961MOL0     H32607   8.816   2.192   2.768 -2.3908  0.0480  2.5857
  961MOL0     H32608   9.010   2.055   2.783 -0.7715  2.9598  1.7063
  961MOL0     H32609   8.901   1.899   2.771  2.4027  0.5069 -2.1925
  961MOL0     H32610   8.903   2.121   2.971  1.4855  0.5545 -1.1217
  961MOL0     H32611   8.832   1.952   2.991 -1.5907  0.7282 -0.7992
  961MOL0     H32612   9.071   1.871   2.993 -1.3834  1.3602 -2.4694
  961MOL0     H32613   9.011   1.980   3.133 -3.3069  1.3500 -0.7846
  961MOL0     H32614   9.275   2.248   2.942 -2.0133  0.3917 -2.9815
  961MOL0     H32615   8.445   2.014   2.928 -0.0219  1.0315  0.6659
  961MOL0     H32616   8.249   2.079   3.031 -0.0195  1.0889  1.8079
  961MOL0     H32617   8.165   2.234   2.969  0.4973  0.2683 -2.5312
  961MOL0     H32618   8.155   2.079   2.893 -0.9704 -0.6109  1.4970
  962MOL0     O32619   0.775   6.309   4.673 -0.1598 -0.1991  0.2439
  962MOL0     C32620   0.789   6.394   4.589 -0.5171 -1.0533 -0.0223
  962MOL0     O32621   0.790   6.375   4.450 -0.2529 -0.6154  0.0325
  962MOL0     C32622   0.791   6.248   4.413 -0.0904  0.8761  0.0161
  962MOL0     C32623   0.677   6.193   4.353 -0.2152 -0.8064 -0.8970
  962MOL0     C32624   0.672   6.055   4.315 -0.3788 -0.1415  0.3769
  962MOL0     C32625   0.785   5.978   4.335 -0.5580 -0.7095 -0.5090
  962MOL0     O32626   0.782   5.845   4.302  0.6542  0.5893  0.3345
  962MOL0     C32627   0.712   5.764   4.398  0.0640 -0.2371 -0.2646
  962MOL0     C32628   0.783   5.632   4.409 -0.3174  0.6494 -0.3530
  962MOL0     C32629   0.725   5.530   4.499  1.0250  0.3745  0.2523
  962MOL0     C32630   0.757   5.564   4.637 -0.9029 -0.2075 -1.8117
  962MOL0     C32631   0.696   5.477   4.745  0.0209 -0.1094 -0.3945
  962MOL0     C32632   0.752   5.520   4.880  0.1305 -0.1203 -0.4389
  962MOL0     C32633   0.679   5.435   4.989 -0.4752 -0.3168  0.1898
  962MOL0     C32634   0.529   5.468   5.007 -0.3494 -0.1360 -0.2825
  962MOL0     N32635   0.458   5.383   5.102  0.1286  0.4762 -0.2379
  962MOL0     C32636   0.412   5.251   5.077  0.6963 -0.2976 -0.6136
  962MOL0     C32637   0.357   5.210   5.194 -0.7928 -1.3862 -0.2783
  962MOL0     C32638   0.280   5.081   5.203  0.6094  0.5485  0.4269
  962MOL0     C32639   0.380   4.966   5.198 -0.1775 -0.9062  0.5935
  962MOL0     C32640   0.305   4.832   5.191  0.3092  0.3994 -0.2976
  962MOL0     C32641   0.229   4.795   5.063  0.2635  0.2295  0.1638
  962MOL0     O32642   0.317   4.740   4.960  0.1839 -0.2381  0.6153
  962MOL0     C32643   0.262   4.675   4.849 -0.2386  0.2014 -0.0860
  962MOL0     C32644   0.125   4.652   4.829 -0.8944  0.6755  0.0322
  962MOL0     C32645   0.081   4.590   4.713  0.6963  0.7943 -0.8865
  962MOL0     C32646  -0.075   4.578   4.711  0.1661  0.4516 -0.9109
  962MOL0     C32647   0.167   4.525   4.627 -0.8437 -0.0460 -0.1200
  962MOL0     C32648   0.135   4.432   4.515  0.7566 -0.5975  0.4103
  962MOL0     O32649   0.225   4.330   4.480 -0.2431  0.0151  0.2498
  962MOL0     C32650   0.168   4.248   4.382 -0.2755  0.0594  1.0005
  962MOL0     C32651   0.139   4.277   4.241  0.0308 -0.2016 -0.3742
  962MOL0     C32652   0.082   4.172   4.161 -0.5890 -0.3459  0.3281
  962MOL0     C32653   0.040   4.052   4.208 -0.0719  0.1740 -0.6170
  962MOL0     O32654  -0.016   3.951   4.135 -0.0507  0.2966  0.5706
  962MOL0     C32655  -0.107   3.989   4.035  0.5720  0.2065  0.4323
  962MOL0     C32656  -0.250   3.945   4.075  0.3319 -0.0250  0.2736
  962MOL0     C32657  -0.314   3.827   3.987 -0.2658 -0.6175 -0.4402
  962MOL0     C32658  -0.348   3.856   3.840  0.3340  0.9001  0.8199
  962MOL0     C32659  -0.423   3.742   3.761 -0.6045  0.3308  0.9448
  962MOL0     C32660  -0.568   3.719   3.831  0.4306 -0.2448  0.0724
  962MOL0     C32661  -0.668   3.635   3.751  0.0438 -0.4660 -0.1367
  962MOL0     C32662  -0.637   3.488   3.742  0.5499 -0.5308  0.6974
  962MOL0    Cl32663  -0.760   3.424   3.641 -0.4948  0.0329  0.1002
  962MOL0     C32664   0.059   4.025   4.337 -0.3224 -0.7664 -0.5334
  962MOL0     C32665   0.118   4.119   4.424 -0.0533 -0.2906 -0.4656
  962MOL0     O32666   0.032   4.459   4.451  0.0049 -0.7724 -0.3095
  962MOL0     C32667   0.312   4.542   4.646 -0.3765  0.2071 -0.5171
  962MOL0     C32668   0.351   4.620   4.752  0.7446 -0.7074  0.5277
  962MOL0     N32669   0.378   5.313   5.297 -0.6021 -0.0615 -0.1330
  962MOL0     N32670   0.438   5.414   5.234  0.8929 -0.0202  0.0166
  962MOL0     C32671   0.912   6.035   4.378 -0.7185 -0.1938  0.9069
  962MOL0     C32672   0.912   6.168   4.418  0.7627 -1.2263 -0.0083
  962MOL0     C32673   0.823   6.528   4.628 -0.0281  0.5468 -0.1494
  962MOL0     C32674   0.924   6.604   4.566  0.0048  0.9433 -0.4208
  962MOL0     C32675   0.945   6.739   4.586 -0.2858  0.1247 -0.0685
  962MOL0     C32676   0.858   6.804   4.673  0.5896 -0.3432 -0.2111
  962MOL0     O32677   0.886   6.939   4.689 -0.3579  0.5881 -0.4723
  962MOL0     C32678   0.794   7.027   4.756  0.5758 -0.4283  0.9133
  962MOL0     C32679   0.797   7.041   4.908 -0.5171  0.0966 -0.3938
  962MOL0     C32680   0.691   7.143   4.946  0.4790 -0.3342  0.1919
  962MOL0     C32681   0.714   7.187   5.086  0.5017 -0.5744  0.5410
  962MOL0     C32682   0.612   7.289   5.137  1.1312  0.3331  0.0066
  962MOL0     C32683   0.530   7.367   5.193 -0.7722 -0.5823 -0.9709
  962MOL0     C32684   0.757   6.734   4.732  0.0723 -0.0628  0.1754
  962MOL0     C32685   0.732   6.595   4.714  0.6531  0.1743 -0.2956
  962MOL0     C32686   0.610   6.536   4.778 -0.7161  0.3572  0.4360
  962MOL0     H32687   0.588   6.254   4.342 -0.1536 -0.2613  1.2008
  962MOL0     H32688   0.580   6.010   4.278 -1.1031  0.0338  1.8646
  962MOL0     H32689   0.609   5.739   4.369 -0.9522  0.7440  2.1909
  962MOL0     H32690   0.716   5.811   4.497  1.6941 -5.5663  2.5988
  962MOL0     H32691   0.789   5.586   4.310 -2.2601  1.1369 -0.7316
  962MOL0     H32692   0.886   5.651   4.438 -0.2744  0.2272 -0.2173
  962MOL0     H32693   0.619   5.523   4.471  1.8956 -2.8815 -2.8824
  962MOL0     H32694   0.766   5.432   4.475  0.8457  0.2134  0.5853
  962MOL0     H32695   0.865   5.560   4.654 -1.0195  1.4921 -0.3023
  962MOL0     H32696   0.734   5.670   4.651  0.4628 -0.0592 -0.4128
  962MOL0     H32697   0.704   5.369   4.733 -1.8586 -0.4115  0.5952
  962MOL0     H32698   0.587   5.491   4.736  0.0216 -0.4917 -1.0914
  962MOL0     H32699   0.861   5.514   4.871 -0.0082 -2.5590 -1.3640
  962MOL0     H32700   0.730   5.625   4.898 -1.5194  0.0806 -3.0488
  962MOL0     H32701   0.735   5.457   5.081 -0.0428 -0.1616 -0.1095
  962MOL0     H32702   0.697   5.328   4.971 -1.3246 -0.0528 -2.7777
  962MOL0     H32703   0.530   5.571   5.044  2.2997 -0.3477  0.4309
  962MOL0     H32704   0.473   5.469   4.913  0.0170 -1.1079 -0.5188
  962MOL0     H32705   0.417   5.200   4.981 -1.6450 -1.0298 -0.4148
  962MOL0     H32706   0.211   5.065   5.120 -0.2883 -2.2857  1.5998
  962MOL0     H32707   0.205   5.072   5.282  0.1845  0.2255 -0.0086
  962MOL0     H32708   0.445   4.986   5.112 -1.3892  2.2899  0.3145
  962MOL0     H32709   0.445   4.977   5.285  1.2368  2.5592 -0.7205
  962MOL0     H32710   0.385   4.760   5.216  1.3926  2.4911  2.9288
  962MOL0     H32711   0.230   4.824   5.270  0.3504  1.5113 -0.1287
  962MOL0     H32712   0.158   4.715   5.084 -2.5733  2.7799  1.0804
  962MOL0     H32713   0.173   4.874   5.012  0.8848  1.2616  1.0403
  962MOL0     H32714   0.055   4.692   4.902 -0.1797  2.3126 -0.1457
  962MOL0     H32715  -0.098   4.477   4.745 -1.1252  1.7111  2.3289
  962MOL0     H32716  -0.122   4.607   4.617 -0.9689 -0.6244 -0.6899
  962MOL0     H32717  -0.121   4.646   4.783 -1.0717  0.1822 -1.4341
  962MOL0     H32718   0.177   4.365   4.190  3.2332 -2.2329 -1.7766
  962MOL0     H32719   0.088   4.187   4.054 -0.2619  0.1824  0.4165
  962MOL0     H32720  -0.102   4.097   4.018 -0.9236  0.0137 -1.5323
  962MOL0     H32721  -0.079   3.930   3.947  2.5791 -0.8126  1.6639
  962MOL0     H32722  -0.246   3.914   4.180  1.6812 -3.5010 -0.6768
  962MOL0     H32723  -0.320   4.028   4.061  0.3173 -0.3544 -1.8614
  962MOL0     H32724  -0.410   3.806   4.036 -0.9091  4.6908  1.2382
  962MOL0     H32725  -0.243   3.745   3.999  1.4455  0.7183 -0.9177
  962MOL0     H32726  -0.257   3.881   3.785  0.1384 -1.8731 -0.9561
  962MOL0     H32727  -0.410   3.947   3.842  1.0937  1.4228  1.5345
  962MOL0     H32728  -0.406   3.777   3.659  2.6499 -1.1767  0.8485
  962MOL0     H32729  -0.363   3.651   3.759 -1.8990 -0.5679  1.3818
  962MOL0     H32730  -0.601   3.822   3.852 -2.3610 -0.4976 -2.4786
  962MOL0     H32731  -0.556   3.667   3.926  2.8494 -2.1668 -1.1881
  962MOL0     H32732  -0.673   3.688   3.656 -2.4443  1.1030  0.7768
  962MOL0     H32733  -0.770   3.642   3.792 -0.0700  0.4845 -0.5639
  962MOL0     H32734  -0.639   3.438   3.839  0.4205 -0.3627  0.7810
  962MOL0     H32735  -0.540   3.473   3.694  0.7099  0.6910  0.6071
  962MOL0     H32736   0.029   3.930   4.380  0.6603 -2.2600 -2.9158
  962MOL0     H32737   0.143   4.092   4.526  1.0420 -4.2447 -1.6165
  962MOL0     H32738   0.386   4.497   4.580 -0.5286 -0.5311 -0.1997
  962MOL0     H32739   0.456   4.638   4.773  1.2677  0.1360 -2.3787
  962MOL0     H32740   1.003   5.975   4.376 -0.2930  0.4321 -0.9874
  962MOL0     H32741   1.000   6.221   4.454  0.1782 -0.2082 -0.0630
  962MOL0     H32742   0.988   6.561   4.489  2.7237  1.7452  1.2323
  962MOL0     H32743   1.018   6.794   4.527 -2.2239  1.4755 -1.3027
  962MOL0     H32744   0.792   7.128   4.713 -3.5013 -1.5404 -2.1078
  962MOL0     H32745   0.698   6.983   4.731  1.4048 -1.4409 -0.6242
  962MOL0     H32746   0.897   7.084   4.921  0.7856 -2.0181 -2.5711
  962MOL0     H32747   0.786   6.945   4.960 -2.4660  0.2411 -0.4613
  962MOL0     H32748   0.710   7.234   4.888  2.2232 -0.1748  0.9561
  962MOL0     H32749   0.588   7.107   4.934  0.0531  0.8860  0.0445
  962MOL0     H32750   0.812   7.236   5.086  0.9134 -1.3735 -0.5278
  962MOL0     H32751   0.719   7.108   5.162 -0.1195 -0.5337  0.6353
  962MOL0     H32752   0.464   7.443   5.229  0.2449  1.3746 -2.9840
  962MOL0     H32753   0.685   6.787   4.793  0.0715 -1.7199  1.7160
  962MOL0     H32754   0.533   6.612   4.762 -0.4525  0.7658  1.0867
  962MOL0     H32755   0.575   6.444   4.731  1.3291 -0.3554  0.2051
  962MOL0     H32756   0.620   6.515   4.885  0.9956 -1.7855 -0.0601
  963MOL0     O32757   7.552  10.334   4.717 -0.2020 -0.1159 -0.3492
  963MOL0     C32758   7.520  10.337   4.838  0.7155 -0.0730  1.4785
  963MOL0     O32759   7.443  10.436   4.899 -0.6709 -0.4910 -0.1032
  963MOL0     C32760   7.389  10.551   4.838  0.2621 -0.5345 -0.3989
  963MOL0     C32761   7.349  10.649   4.932 -1.0246 -0.3907 -0.2495
  963MOL0     C32762   7.311  10.777   4.883 -0.7824 -0.2911 -0.3953
  963MOL0     C32763   7.298  10.801   4.748 -0.5943  0.2256 -0.0694
  963MOL0     O32764   7.270  10.929   4.700  0.0496  0.4201  0.0741
  963MOL0     C32765   7.130  10.971   4.720  0.2831  0.7359  0.9881
  963MOL0     C32766   7.049  10.949   4.592 -0.1658  0.5510 -0.3000
  963MOL0     C32767   7.131  10.968   4.464  0.9706  0.2826  0.8391
  963MOL0     C32768   7.056  10.942   4.338  0.5519 -0.6953  1.0507
  963MOL0     C32769   7.137  10.859   4.234  0.3526  0.1329  0.1262
  963MOL0     C32770   7.181  10.719   4.279  1.4191  0.5378 -0.1070
  963MOL0     C32771   7.205  10.614   4.166 -0.0768 -0.2031 -0.7669
  963MOL0     C32772   7.243  10.481   4.232 -0.3247  0.7275  0.1800
  963MOL0     N32773   7.235  10.355   4.151  0.4027  0.1963 -0.3182
  963MOL0     C32774   7.316  10.311   4.056 -0.4026  0.5392 -0.2199
  963MOL0     C32775   7.262  10.193   4.021 -0.2446  0.1474  0.3819
  963MOL0     C32776   7.318  10.096   3.914  0.2151  0.1579 -0.4525
  963MOL0     C32777   7.216   9.979   3.886  0.7799 -0.9726 -0.3047
  963MOL0     C32778   7.277   9.874   3.799 -0.1569 -0.0632  0.1894
  963MOL0     C32779   7.185   9.752   3.776  0.0804  0.6023 -0.0964
  963MOL0     O32780   7.164   9.679   3.897  0.9341 -0.5901 -0.6949
  963MOL0     C32781   7.068   9.582   3.896 -0.2464 -0.1726  0.2657
  963MOL0     C32782   7.055   9.497   3.791 -0.0588  0.3365 -0.6329
  963MOL0     C32783   6.965   9.389   3.782  0.5545 -0.6029 -0.5604
  963MOL0     C32784   6.965   9.301   3.656  0.5898  0.0204  0.9311
  963MOL0     C32785   6.871   9.366   3.894  0.5739 -0.1188  1.4827
  963MOL0     C32786   6.775   9.251   3.890  0.1722 -0.7270  1.0969
  963MOL0     O32787   6.712   9.229   4.010 -0.6461  0.2797  0.3887
  963MOL0     C32788   6.606   9.151   4.015  0.4444 -0.5405 -0.0972
  963MOL0     C32789   6.603   9.020   3.963 -0.7564 -0.0559 -0.7922
  963MOL0     C32790   6.487   8.951   3.948  0.2286  0.6859  0.8041
  963MOL0     C32791   6.368   9.012   3.994  0.9829  0.2861 -0.4168
  963MOL0     O32792   6.245   8.945   3.975  0.8840  0.3990  0.0511
  963MOL0     C32793   6.260   8.803   3.987  0.4610  0.0005  0.2111
  963MOL0     C32794   6.128   8.735   4.023 -0.5117  0.1836  0.1031
  963MOL0     C32795   6.035   8.710   3.891 -0.1207 -0.3340  0.0144
  963MOL0     C32796   5.891   8.687   3.930 -0.3239 -0.2551  0.0433
  963MOL0     C32797   5.801   8.665   3.807  0.0214 -0.8282 -1.0046
  963MOL0     C32798   5.657   8.683   3.824 -0.1313  0.2156  0.4319
  963MOL0     C32799   5.586   8.668   3.694 -0.5210  0.2245  0.0156
  963MOL0     C32800   5.597   8.786   3.594 -0.0272  0.1009  0.8104
  963MOL0    Cl32801   5.555   8.939   3.681  0.0360  0.4055  0.0746
  963MOL0     C32802   6.365   9.128   4.060 -1.2203 -0.8747  0.7764
  963MOL0     C32803   6.491   9.199   4.067  0.9699  0.1253  0.1634
  963MOL0     O32804   6.743   9.202   3.778 -0.4645  0.0140 -0.5819
  963MOL0     C32805   6.892   9.441   4.004  0.1242 -0.2216 -0.8500
  963MOL0     C32806   6.997   9.544   4.009  0.2442  0.0204  0.5707
  963MOL0     N32807   7.157  10.165   4.098  0.6289 -0.1458 -0.6819
  963MOL0     N32808   7.135  10.273   4.161  1.0464 -0.7692 -0.5457
  963MOL0     C32809   7.326  10.703   4.648 -0.1737 -0.3235 -0.6214
  963MOL0     C32810   7.379  10.581   4.702 -0.3536 -0.2193  0.5474
  963MOL0     C32811   7.549  10.214   4.922 -0.5940  0.8409  0.2942
  963MOL0     C32812   7.446  10.129   4.957 -1.4411  0.2734  1.3607
  963MOL0     C32813   7.462  10.011   5.018 -0.7228  0.4876  0.8847
  963MOL0     C32814   7.586   9.963   5.046 -0.4577 -0.3182  0.2156
  963MOL0     O32815   7.616   9.845   5.112 -0.0148  0.0912  0.6490
  963MOL0     C32816   7.514   9.795   5.198  0.3058  0.1478 -0.6378
  963MOL0     C32817   7.429   9.695   5.121  0.1141 -0.1343  1.1336
  963MOL0     C32818   7.350   9.598   5.203  0.3681 -0.2562 -0.8138
  963MOL0     C32819   7.255   9.665   5.297 -0.9183  1.4478  0.3953
  963MOL0     C32820   7.129   9.703   5.223 -0.1546  0.7428  0.2432
  963MOL0     C32821   7.045   9.744   5.153  0.4090 -0.4015  0.7718
  963MOL0     C32822   7.688  10.037   5.007 -0.2066 -0.0710  0.2173
  963MOL0     C32823   7.676  10.161   4.948  0.3047 -0.6690  0.1797
  963MOL0     C32824   7.806  10.232   4.910  0.1610 -0.7579  0.3250
  963MOL0     H32825   7.367  10.640   5.038  1.6262 -5.0889 -0.8499
  963MOL0     H32826   7.283  10.853   4.954  2.4715  1.1299 -0.4370
  963MOL0     H32827   7.129  11.077   4.747 -1.0093  0.4725  2.0554
  963MOL0     H32828   7.078  10.920   4.802  0.4896  1.2119  1.4185
  963MOL0     H32829   7.005  10.848   4.587 -1.4712  1.1610 -2.2401
  963MOL0     H32830   6.962  11.015   4.591  1.7665  3.2792  0.4316
  963MOL0     H32831   7.182  11.065   4.459  1.4541  0.0126  0.4326
  963MOL0     H32832   7.222  10.907   4.456  1.1421  0.4396  1.5153
  963MOL0     H32833   6.958  10.897   4.358  0.7272 -1.7911 -0.3689
  963MOL0     H32834   7.044  11.041   4.294 -0.1985 -1.1284  0.2235
  963MOL0     H32835   7.219  10.925   4.204 -1.1223  2.9800  1.8728
  963MOL0     H32836   7.069  10.847   4.149 -1.5466  1.0371  1.4392
  963MOL0     H32837   7.262  10.736   4.352  0.2555  4.7909  0.4644
  963MOL0     H32838   7.104  10.665   4.335  0.4717 -0.4303 -2.2569
  963MOL0     H32839   7.292  10.636   4.103  2.6154 -5.6514  0.4098
  963MOL0     H32840   7.114  10.607   4.106 -1.7570 -2.2892  1.8227
  963MOL0     H32841   7.344  10.494   4.271  1.0335 -2.6579 -1.7541
  963MOL0     H32842   7.187  10.467   4.325  1.4875  1.3045  1.4125
  963MOL0     H32843   7.401  10.363   4.011 -0.2712 -0.6801 -1.4736
  963MOL0     H32844   7.407  10.048   3.956 -0.8020 -2.9600 -1.6523
  963MOL0     H32845   7.349  10.149   3.823 -0.2357  0.2051 -0.5767
  963MOL0     H32846   7.184   9.935   3.981 -1.3830  1.5895  0.2903
  963MOL0     H32847   7.123  10.025   3.849  0.0429 -0.7676  1.6804
  963MOL0     H32848   7.298   9.917   3.701 -1.8653 -2.9351 -1.5616
  963MOL0     H32849   7.369   9.842   3.850  1.1026  4.5375  1.3300
  963MOL0     H32850   7.087   9.780   3.736 -1.4683 -1.1040  2.2041
  963MOL0     H32851   7.240   9.680   3.716 -1.9550 -0.0305 -1.3234
  963MOL0     H32852   7.133   9.493   3.716 -2.1385  0.1663 -2.9444
  963MOL0     H32853   6.888   9.344   3.591  3.5250  0.5777 -2.5208
  963MOL0     H32854   6.946   9.193   3.662  1.7642 -0.2222  0.6968
  963MOL0     H32855   7.053   9.317   3.592  1.6888 -1.1772  2.0713
  963MOL0     H32856   6.693   8.975   3.922 -1.1721 -2.0599  0.3560
  963MOL0     H32857   6.476   8.864   3.885  2.5868  1.2678 -0.5430
  963MOL0     H32858   6.281   8.751   3.893  0.9567 -0.1128  0.3808
  963MOL0     H32859   6.324   8.767   4.069 -0.3224 -0.8639  0.4605
  963MOL0     H32860   6.150   8.639   4.070  1.5754 -0.5530 -2.1197
  963MOL0     H32861   6.085   8.802   4.097 -0.0309 -0.3347  0.8687
  963MOL0     H32862   6.071   8.624   3.834  0.7140 -0.3400  0.5263
  963MOL0     H32863   6.042   8.795   3.821  0.4322 -1.5507 -1.4663
  963MOL0     H32864   5.862   8.781   3.977 -1.4032  0.6935 -2.3530
  963MOL0     H32865   5.886   8.609   4.007  1.1890 -0.1211  0.3026
  963MOL0     H32866   5.846   8.720   3.724 -4.7891  0.4833 -3.0873
  963MOL0     H32867   5.824   8.564   3.771 -2.1772 -1.5839 -0.4402
  963MOL0     H32868   5.629   8.780   3.865 -0.3770  1.1451 -1.7570
  963MOL0     H32869   5.615   8.614   3.898 -1.7645  1.4983  0.7773
  963MOL0     H32870   5.478   8.652   3.701 -1.0964  1.9187 -3.3037
  963MOL0     H32871   5.621   8.578   3.642 -0.5794  1.5076 -2.3883
  963MOL0     H32872   5.536   8.773   3.504  2.0782 -1.7508 -0.4234
  963MOL0     H32873   5.699   8.808   3.563 -0.8477  0.5632 -1.9088
  963MOL0     H32874   6.279   9.172   4.111 -0.1659  0.5889  1.3523
  963MOL0     H32875   6.483   9.295   4.116  0.5490 -0.3714  1.0868
  963MOL0     H32876   6.812   9.423   4.075  0.2899 -1.1232 -0.8743
  963MOL0     H32877   7.001   9.614   4.092  0.6570 -0.0575  0.6181
  963MOL0     H32878   7.316  10.739   4.546 -2.3592  0.2096 -0.2686
  963MOL0     H32879   7.430  10.508   4.640 -0.5043 -0.3464  0.5736
  963MOL0     H32880   7.350  10.152   4.912 -1.8882 -0.3815  1.9521
  963MOL0     H32881   7.374   9.948   5.030  0.3371 -1.5271 -1.0435
  963MOL0     H32882   7.553   9.741   5.285  4.0337  0.9223 -1.6577
  963MOL0     H32883   7.449   9.871   5.242 -0.4621 -0.7177 -0.2671
  963MOL0     H32884   7.504   9.642   5.062  2.1384  2.0174  1.6195
  963MOL0     H32885   7.368   9.738   5.041  1.7499 -3.1839 -2.0179
  963MOL0     H32886   7.292   9.535   5.135  0.9784 -0.6913 -0.9393
  963MOL0     H32887   7.409   9.528   5.261 -0.3227  1.0470  1.6046
  963MOL0     H32888   7.294   9.755   5.344 -0.0940  1.4677 -0.2976
  963MOL0     H32889   7.240   9.589   5.375  1.7750  0.1756 -0.1972
  963MOL0     H32890   6.988   9.787   5.073  2.3606  0.2350 -0.3239
  963MOL0     H32891   7.786  10.013   5.048 -0.3391  0.3750  0.8173
  963MOL0     H32892   7.785  10.331   4.869 -3.0767 -1.8474 -0.9779
  963MOL0     H32893   7.880  10.219   4.989 -0.1159 -1.1427  0.5271
  963MOL0     H32894   7.851  10.171   4.831  0.4581 -1.5151  1.0555
  964MOL0     O32895   8.546   2.446   7.334  0.4136 -0.2208  0.3773
  964MOL0     C32896   8.644   2.383   7.363 -0.2925 -1.1847  0.6284
  964MOL0     O32897   8.760   2.441   7.412 -0.9862 -0.2704 -0.2221
  964MOL0     C32898   8.770   2.578   7.402 -0.8846 -0.3058  0.4211
  964MOL0     C32899   8.745   2.653   7.512  0.0125  1.0150 -0.6379
  964MOL0     C32900   8.743   2.788   7.516  0.1500 -1.1106  0.9115
  964MOL0     C32901   8.775   2.863   7.398  0.1339  0.2934  0.2117
  964MOL0     O32902   8.802   2.998   7.413 -0.0773 -0.1459  1.5613
  964MOL0     C32903   8.781   3.099   7.310  0.3113  0.0753 -0.0427
  964MOL0     C32904   8.838   3.240   7.352  0.6878  0.3745  0.8497
  964MOL0     C32905   8.849   3.335   7.237 -0.1684 -0.1830  0.4659
  964MOL0     C32906   8.728   3.405   7.189  0.6193  0.1256 -0.2153
  964MOL0     C32907   8.753   3.502   7.073 -0.9075  0.4642  0.3138
  964MOL0     C32908   8.622   3.561   7.017  0.2568  0.2261 -0.1878
  964MOL0     C32909   8.550   3.639   7.117 -0.3311  0.2377 -1.2009
  964MOL0     C32910   8.476   3.765   7.068 -0.0036 -0.0550  1.4251
  964MOL0     N32911   8.438   3.873   7.156 -0.2863  1.0282  0.0091
  964MOL0     C32912   8.516   3.985   7.186 -0.5643 -0.5791 -1.5061
  964MOL0     C32913   8.438   4.077   7.238  0.1044 -1.3435 -0.2563
  964MOL0     C32914   8.478   4.218   7.292 -1.3920 -0.8858 -0.1644
  964MOL0     C32915   8.465   4.318   7.185  1.1751  0.3367  0.5946
  964MOL0     C32916   8.569   4.278   7.077  0.7844 -0.6965  0.0985
  964MOL0     C32917   8.548   4.397   6.972  0.1499  0.6997  0.0357
  964MOL0     O32918   8.625   4.516   6.995 -0.4994 -0.6863 -0.0240
  964MOL0     C32919   8.570   4.639   7.005  0.2369 -0.2435  0.4228
  964MOL0     C32920   8.658   4.746   6.972 -0.0260 -0.1798  0.5831
  964MOL0     C32921   8.628   4.874   6.992 -0.2475  0.0533  0.9387
  964MOL0     C32922   8.748   4.979   6.982  1.0621  0.6401 -0.8197
  964MOL0     C32923   8.494   4.912   7.028 -0.2452  1.0658 -0.7688
  964MOL0     C32924   8.457   5.052   7.048 -0.3170 -0.6275  0.4747
  964MOL0     O32925   8.413   5.096   7.164 -0.2280 -0.5886  1.3050
  964MOL0     C32926   8.479   5.204   7.214  0.5424 -0.6260 -0.3733
  964MOL0     C32927   8.581   5.175   7.307 -0.6284  0.1682  0.2196
  964MOL0     C32928   8.641   5.283   7.371  0.3185 -0.4077 -0.3792
  964MOL0     C32929   8.612   5.413   7.339  0.0116 -0.0089 -0.2572
  964MOL0     O32930   8.679   5.520   7.388 -0.1759  0.3666 -0.1203
  964MOL0     C32931   8.678   5.527   7.529 -0.5879  0.1767 -0.9208
  964MOL0     C32932   8.633   5.662   7.569 -1.1610  0.8783 -0.2334
  964MOL0     C32933   8.553   5.735   7.451  0.5165 -0.0252  0.2941
  964MOL0     C32934   8.477   5.853   7.510  0.3846  0.8520 -0.0099
  964MOL0     C32935   8.378   5.909   7.410 -0.8622  0.0285  0.1246
  964MOL0     C32936   8.335   6.046   7.452  1.2137 -0.0723  1.3092
  964MOL0     C32937   8.233   6.095   7.337  0.7311 -0.0965  0.7010
  964MOL0     C32938   8.224   6.249   7.319 -0.2359  0.5858 -0.8397
  964MOL0    Cl32939   8.397   6.318   7.339  0.3094 -0.0754  0.1212
  964MOL0     C32940   8.514   5.440   7.236  0.5763  0.0815  0.1792
  964MOL0     C32941   8.441   5.332   7.185 -0.2068 -0.8227  0.1103
  964MOL0     O32942   8.453   5.115   6.934 -0.3128 -1.0960  0.4072
  964MOL0     C32943   8.394   4.800   7.041 -0.9115 -1.6433  0.7231
  964MOL0     C32944   8.436   4.667   7.034 -0.0625  0.7705 -0.1032
  964MOL0     N32945   8.305   4.033   7.242  1.4448 -0.0089 -1.1336
  964MOL0     N32946   8.311   3.918   7.185  0.0927  0.6438  0.7263
  964MOL0     C32947   8.790   2.792   7.280  0.0314 -0.6115  0.6107
  964MOL0     C32948   8.792   2.655   7.283  0.9595  0.3824  0.3489
  964MOL0     C32949   8.652   2.236   7.343  0.2215  0.5476  0.1647
  964MOL0     C32950   8.718   2.179   7.232 -0.0131  1.5017 -0.4395
  964MOL0     C32951   8.703   2.041   7.199  0.6386  0.1416  0.3885
  964MOL0     C32952   8.625   1.957   7.275  0.3210  1.1749  0.3032
  964MOL0     O32953   8.591   1.822   7.247 -0.4344  0.6248 -0.0502
  964MOL0     C32954   8.639   1.765   7.122  0.4976  0.5724  0.7301
  964MOL0     C32955   8.588   1.629   7.121  0.1663 -0.1423 -0.2172
  964MOL0     C32956   8.666   1.542   7.028 -0.7105 -0.3732  0.1210
  964MOL0     C32957   8.608   1.410   7.005  0.2829  0.4557 -0.2873
  964MOL0     C32958   8.491   1.400   6.916  0.1018  0.0970  0.7696
  964MOL0     C32959   8.399   1.401   6.835  1.2036 -0.0028  0.7854
  964MOL0     C32960   8.551   2.013   7.389 -0.0204  0.7792 -0.6668
  964MOL0     C32961   8.569   2.148   7.417  0.3962 -0.5663  0.2952
  964MOL0     C32962   8.473   2.195   7.525 -0.1871  0.1904  0.0481
  964MOL0     H32963   8.715   2.597   7.600 -4.2890  0.1100 -2.4011
  964MOL0     H32964   8.731   2.860   7.596  1.5807  2.3050 -1.7041
  964MOL0     H32965   8.677   3.095   7.274  1.1918 -2.3064 -2.7148
  964MOL0     H32966   8.842   3.059   7.228 -0.6191 -3.3858  0.7929
  964MOL0     H32967   8.785   3.292   7.432  0.1769  0.6033  0.3691
  964MOL0     H32968   8.935   3.220   7.399  0.0437 -1.7859  1.4206
  964MOL0     H32969   8.920   3.413   7.269  0.2322  0.4140 -1.7040
  964MOL0     H32970   8.887   3.284   7.148 -1.1550  0.6172 -0.4295
  964MOL0     H32971   8.661   3.324   7.157  0.8703 -2.0980  4.1598
  964MOL0     H32972   8.672   3.454   7.270  1.8721  0.9755  0.1578
  964MOL0     H32973   8.797   3.453   6.986 -0.8655 -0.3159  0.7616
  964MOL0     H32974   8.825   3.584   7.081  1.2925 -0.7936 -3.7750
  964MOL0     H32975   8.657   3.616   6.929  1.5383  1.1017  0.8516
  964MOL0     H32976   8.569   3.471   6.983  3.2007 -0.2233 -4.3958
  964MOL0     H32977   8.615   3.682   7.192 -3.4903  0.2759  1.7716
  964MOL0     H32978   8.476   3.578   7.170  1.0066 -2.0793 -1.8484
  964MOL0     H32979   8.540   3.811   6.992 -0.4299 -3.7447 -1.4204
  964MOL0     H32980   8.392   3.721   7.015  2.7359 -1.9655 -1.7097
  964MOL0     H32981   8.623   3.991   7.166  0.1736 -2.0195  1.4666
  964MOL0     H32982   8.581   4.207   7.325 -2.1800 -1.5688  2.2424
  964MOL0     H32983   8.433   4.251   7.386 -1.0009  3.0752 -1.1708
  964MOL0     H32984   8.365   4.309   7.142  0.0483 -1.9835  3.3400
  964MOL0     H32985   8.481   4.416   7.231 -2.3452  0.8010  1.1629
  964MOL0     H32986   8.672   4.276   7.115  1.3570 -2.2560 -1.4100
  964MOL0     H32987   8.543   4.184   7.028  1.5857 -0.2591 -1.2115
  964MOL0     H32988   8.581   4.356   6.876 -1.4523 -0.3328 -0.1133
  964MOL0     H32989   8.440   4.414   6.965 -0.0005  0.5174  1.4505
  964MOL0     H32990   8.762   4.718   6.973  1.2944  4.0691  0.6670
  964MOL0     H32991   8.846   4.931   6.984  2.2645  3.0078  0.6762
  964MOL0     H32992   8.752   5.037   7.074 -0.6831 -4.3177  2.8165
  964MOL0     H32993   8.734   5.037   6.890  1.8286 -1.5484 -2.3906
  964MOL0     H32994   8.611   5.072   7.327 -0.3164 -0.0671 -1.2867
  964MOL0     H32995   8.714   5.256   7.447  0.7563 -3.8194 -1.8333
  964MOL0     H32996   8.610   5.458   7.580  1.7086 -1.2067  0.4545
  964MOL0     H32997   8.781   5.510   7.562 -0.6017  0.8358 -0.5352
  964MOL0     H32998   8.566   5.651   7.655 -0.1851 -0.7364  0.3729
  964MOL0     H32999   8.716   5.725   7.601 -1.4728  1.7257 -1.0611
  964MOL0     H33000   8.475   5.673   7.407  1.1432  0.7097 -2.0638
  964MOL0     H33001   8.612   5.770   7.364  1.5566 -2.4894 -0.0712
  964MOL0     H33002   8.546   5.931   7.545  0.1626  0.6834  0.8417
  964MOL0     H33003   8.421   5.820   7.598 -1.3111 -0.8211 -1.6393
  964MOL0     H33004   8.423   5.913   7.310 -2.1565  0.8814 -0.4449
  964MOL0     H33005   8.291   5.844   7.395 -0.9627  0.8847 -4.5958
  964MOL0     H33006   8.415   6.119   7.471  0.8763  1.6709 -2.7330
  964MOL0     H33007   8.279   6.029   7.544 -2.0723 -1.3180 -0.7347
  964MOL0     H33008   8.129   6.065   7.350 -0.1793  1.7578 -1.4734
  964MOL0     H33009   8.276   6.054   7.245  0.2203  1.3863 -0.2483
  964MOL0     H33010   8.142   6.291   7.377 -0.5260 -0.2442 -0.6329
  964MOL0     H33011   8.202   6.263   7.213 -0.2453 -0.9052 -1.0646
  964MOL0     H33012   8.492   5.540   7.199 -0.3380  0.8122  2.5148
  964MOL0     H33013   8.352   5.341   7.123 -2.3190 -3.5968  2.4076
  964MOL0     H33014   8.288   4.826   7.040 -1.2086 -2.7161 -1.9136
  964MOL0     H33015   8.372   4.580   7.043  0.1653  0.3203 -2.2186
  964MOL0     H33016   8.793   2.847   7.187 -0.0725 -0.0903  0.9092
  964MOL0     H33017   8.801   2.601   7.189 -2.0990  0.2761  0.0173
  964MOL0     H33018   8.747   2.249   7.154 -2.3662  1.2147 -1.6493
  964MOL0     H33019   8.763   2.002   7.117  2.7062  1.6001  1.1399
  964MOL0     H33020   8.605   1.814   7.030  0.0308  0.7103  0.9677
  964MOL0     H33021   8.747   1.769   7.110  0.4790  0.1790  0.4555
  964MOL0     H33022   8.486   1.634   7.081  0.0999 -1.1901 -0.2135
  964MOL0     H33023   8.580   1.586   7.221  0.1234 -1.2243 -0.6790
  964MOL0     H33024   8.676   1.582   6.927 -1.3916 -4.3847 -1.7293
  964MOL0     H33025   8.753   1.532   7.094  0.6266 -1.3310 -1.6936
  964MOL0     H33026   8.581   1.356   7.097  0.4068  1.5626  0.4190
  964MOL0     H33027   8.688   1.353   6.957 -0.5687  0.3217 -1.5794
  964MOL0     H33028   8.321   1.406   6.762  3.9901  0.3672 -2.4493
  964MOL0     H33029   8.484   1.949   7.444  2.0529 -0.3693  0.6687
  964MOL0     H33030   8.410   2.278   7.490 -3.6727 -0.2948  4.3887
  964MOL0     H33031   8.402   2.118   7.554 -1.9199  1.1589 -1.3750
  964MOL0     H33032   8.536   2.223   7.610  1.5735  0.4931 -1.2890
  965MOL0     O33033   8.259   9.933   4.034 -0.0952  0.7443  0.3632
  965MOL0     C33034   8.233   9.863   4.128 -0.8832 -0.6095 -0.3057
  965MOL0     O33035   8.298   9.747   4.163 -0.6785 -0.0294  0.8436
  965MOL0     C33036   8.366   9.676   4.063  0.0474  0.5390  0.8289
  965MOL0     C33037   8.494   9.647   4.081  0.2484 -0.4038 -0.4078
  965MOL0     C33038   8.563   9.556   4.006 -0.7681  0.3301 -0.2110
  965MOL0     C33039   8.504   9.504   3.890 -0.0354  0.7645  0.0407
  965MOL0     O33040   8.558   9.415   3.806 -0.2765 -0.7252  1.2210
  965MOL0     C33041   8.701   9.425   3.779 -0.4300  0.3740  0.0775
  965MOL0     C33042   8.729   9.542   3.696  0.3709 -0.2891  0.9266
  965MOL0     C33043   8.879   9.573   3.678  0.8078 -0.0012 -0.3498
  965MOL0     C33044   8.919   9.687   3.599  0.2507  0.6892  0.9446
  965MOL0     C33045   9.040   9.676   3.510  0.4949  0.0478 -0.2808
  965MOL0     C33046   9.173   9.651   3.584  0.2210 -0.1060 -0.7492
  965MOL0     C33047   9.222   9.782   3.655  0.6419 -1.1379  0.1859
  965MOL0     C33048   9.343   9.745   3.738 -0.1361 -0.2728  0.0364
  965MOL0     N33049   9.455   9.703   3.648  0.2909 -0.0217  0.4555
  965MOL0     C33050   9.487   9.568   3.638 -0.2415 -0.3036  0.7982
  965MOL0     C33051   9.570   9.567   3.523  0.2521 -1.2324 -0.3971
  965MOL0     C33052   9.641   9.453   3.476 -0.6884  0.3938 -0.1060
  965MOL0     C33053   9.785   9.449   3.537  0.9138  0.0255 -0.3200
  965MOL0     C33054   9.884   9.341   3.472  1.2397 -0.2727  0.0584
  965MOL0     C33055   9.852   9.201   3.489  1.2311 -0.2186  0.2913
  965MOL0     O33056   9.739   9.159   3.402 -0.2158 -0.0306 -0.4436
  965MOL0     C33057   9.779   9.117   3.276  0.7026  0.0060 -0.9090
  965MOL0     C33058   9.675   9.082   3.194 -0.1322  0.2657 -0.1934
  965MOL0     C33059   9.697   9.075   3.056 -0.6269 -0.0881  0.1445
  965MOL0     C33060   9.571   9.054   2.971  0.3047 -0.8874  0.2958
  965MOL0     C33061   9.831   9.087   3.001 -0.2538  0.3062  0.0089
  965MOL0     C33062   9.862   9.077   2.859  0.1056  0.5946 -0.2986
  965MOL0     O33063   9.992   9.050   2.826  0.7104 -0.6208 -0.1912
  965MOL0     C33064  10.013   8.982   2.713 -0.1894  0.3350 -0.3623
  965MOL0     C33065  10.086   8.870   2.715  0.3697  0.5028  0.0357
  965MOL0     C33066  10.121   8.806   2.596 -0.3485 -0.4340 -1.3695
  965MOL0     C33067  10.091   8.857   2.474 -0.2005  0.1879  0.6357
  965MOL0     O33068  10.135   8.788   2.362 -0.0407 -0.1933  0.0540
  965MOL0     C33069  10.032   8.713   2.291 -0.1953 -0.6462  0.1870
  965MOL0     C33070  10.058   8.744   2.144  0.0219 -0.7200 -0.9921
  965MOL0     C33071   9.982   8.659   2.044 -0.1051  0.3907 -0.2997
  965MOL0     C33072   9.987   8.728   1.904  0.3434 -0.0818 -0.2869
  965MOL0     C33073   9.919   8.864   1.869 -0.4754 -0.4546 -0.2449
  965MOL0     C33074   9.769   8.893   1.905  0.0754  0.0913 -0.2353
  965MOL0     C33075   9.680   8.768   1.873  0.2118 -0.0157 -0.5423
  965MOL0     C33076   9.528   8.774   1.898 -0.1392 -0.2199 -0.3507
  965MOL0    Cl33077   9.465   8.922   1.831 -0.1487  0.1895 -0.4393
  965MOL0     C33078  10.035   8.986   2.474  0.0654  0.0428  0.6337
  965MOL0     C33079   9.984   9.041   2.587 -1.0098  0.2283 -0.6432
  965MOL0     O33080   9.773   9.115   2.780 -0.2657  0.1907  0.0126
  965MOL0     C33081   9.943   9.115   3.086  0.6525 -0.5103  0.5768
  965MOL0     C33082   9.909   9.140   3.223  0.1994  0.7234  0.7876
  965MOL0     N33083   9.572   9.696   3.470 -0.9589  0.1954  0.4574
  965MOL0     N33084   9.510   9.779   3.540  0.0248  0.3955 -0.3720
  965MOL0     C33085   8.374   9.548   3.863 -0.0234 -0.6445 -0.6169
  965MOL0     C33086   8.301   9.622   3.949  0.3363  0.3663 -0.7750
  965MOL0     C33087   8.161   9.928   4.235  0.2084 -0.0649  0.0808
  965MOL0     C33088   8.082   9.841   4.306 -0.1763 -1.3663 -0.6965
  965MOL0     C33089   7.997   9.883   4.408 -0.8918  0.6842  0.1869
  965MOL0     C33090   7.983  10.016   4.428  0.2543  0.0701  0.6343
  965MOL0     O33091   7.876  10.067   4.505  0.2216  0.7348 -0.7713
  965MOL0     C33092   7.759   9.989   4.537 -0.5467  0.8643 -0.3809
  965MOL0     C33093   7.665   9.946   4.421 -0.0912  0.3396 -0.1100
  965MOL0     C33094   7.554  10.051   4.392 -0.4168 -0.3218 -1.2796
  965MOL0     C33095   7.506  10.059   4.246  0.6189 -0.5963  0.0215
  965MOL0     C33096   7.459   9.933   4.190 -0.0568 -0.1356  0.1267
  965MOL0     C33097   7.421   9.829   4.138 -1.1229  0.9280 -0.1223
  965MOL0     C33098   8.063  10.113   4.356 -0.3619  0.8368  0.9608
  965MOL0     C33099   8.157  10.071   4.262  0.3898  0.2221  0.5190
  965MOL0     C33100   8.229  10.179   4.185 -0.1060  0.2834 -0.5808
  965MOL0     H33101   8.543   9.690   4.167  0.9491 -0.8770 -0.5639
  965MOL0     H33102   8.665   9.542   4.041 -0.7139  3.1085  1.0511
  965MOL0     H33103   8.743   9.344   3.719  3.9798  0.4982  2.5784
  965MOL0     H33104   8.770   9.414   3.862  3.2735 -0.7563 -2.8448
  965MOL0     H33105   8.690   9.517   3.596  0.2507 -1.4158  1.2426
  965MOL0     H33106   8.671   9.630   3.725 -0.3716 -0.5005  0.1331
  965MOL0     H33107   8.909   9.593   3.782 -0.6972  0.6940 -0.0253
  965MOL0     H33108   8.948   9.489   3.665  2.0355  1.2073 -2.1627
  965MOL0     H33109   8.833   9.704   3.533  1.1022  2.6213  0.2380
  965MOL0     H33110   8.928   9.778   3.659  0.1389  0.4089  1.3903
  965MOL0     H33111   9.045   9.769   3.453 -0.5757  1.3690  1.6468
  965MOL0     H33112   9.019   9.588   3.449 -2.2355  0.6233 -0.2700
  965MOL0     H33113   9.161   9.575   3.661 -1.6145  2.8053  2.0795
  965MOL0     H33114   9.248   9.619   3.510 -1.3344 -0.8548 -2.0502
  965MOL0     H33115   9.142   9.830   3.712 -1.7863 -0.5358 -3.3247
  965MOL0     H33116   9.264   9.855   3.585  0.9705 -1.7770 -0.2913
  965MOL0     H33117   9.367   9.827   3.807 -0.0945 -0.5930  0.4058
  965MOL0     H33118   9.323   9.652   3.791 -3.7605 -3.3364 -5.7062
  965MOL0     H33119   9.472   9.485   3.705 -0.4868 -1.2783 -0.4190
  965MOL0     H33120   9.649   9.464   3.367  4.5246 -0.3537 -0.0377
  965MOL0     H33121   9.603   9.355   3.503  1.7767  0.2814  3.6972
  965MOL0     H33122   9.829   9.549   3.540  0.2332  0.3407 -0.4834
  965MOL0     H33123   9.771   9.423   3.642 -1.3862  1.6216 -0.1643
  965MOL0     H33124   9.908   9.379   3.372 -0.5660 -1.2049 -0.7709
  965MOL0     H33125   9.979   9.355   3.525  0.5776 -1.2376  1.5711
  965MOL0     H33126   9.943   9.141   3.493  0.5695 -1.2307  3.8141
  965MOL0     H33127   9.806   9.184   3.587 -4.4968 -1.1575 -2.1535
  965MOL0     H33128   9.576   9.071   3.237  0.0656 -0.3962  0.1165
  965MOL0     H33129   9.547   9.151   2.926  0.5883  0.1399  2.2696
  965MOL0     H33130   9.482   9.018   3.024 -0.5867 -3.2764 -2.5709
  965MOL0     H33131   9.596   8.991   2.885  2.2284  1.8954 -1.3751
  965MOL0     H33132  10.110   8.821   2.809 -0.5000  2.0122  1.0887
  965MOL0     H33133  10.173   8.712   2.582  4.4682  1.9829 -1.8104
  965MOL0     H33134  10.047   8.607   2.316 -1.6567 -0.2812  3.0602
  965MOL0     H33135   9.932   8.742   2.325  0.0075  1.5182 -0.9098
  965MOL0     H33136  10.025   8.847   2.128 -4.7083 -1.4848  1.8469
  965MOL0     H33137  10.167   8.731   2.133  1.2290  2.9873  3.3267
  965MOL0     H33138   9.875   8.651   2.070  0.2953  0.8534  1.6471
  965MOL0     H33139  10.027   8.560   2.053 -1.2243  0.0163  1.9111
  965MOL0     H33140   9.957   8.641   1.845  2.0814  0.0363 -1.4083
  965MOL0     H33141  10.091   8.755   1.883  0.9722 -2.1220 -0.0270
  965MOL0     H33142   9.981   8.942   1.914  0.8898  1.1503 -4.3983
  965MOL0     H33143   9.930   8.870   1.760  2.9160 -1.2278 -0.0795
  965MOL0     H33144   9.727   8.977   1.849 -2.2730 -0.8818 -0.0213
  965MOL0     H33145   9.756   8.914   2.012  1.8700  0.7999 -0.1069
  965MOL0     H33146   9.719   8.683   1.930  0.6097  1.2813  1.2249
  965MOL0     H33147   9.677   8.745   1.766 -1.9326 -0.3101 -0.4612
  965MOL0     H33148   9.497   8.755   2.001 -2.3437 -0.0118 -0.9089
  965MOL0     H33149   9.495   8.691   1.835 -4.6350  1.4560 -0.6002
  965MOL0     H33150  10.017   9.038   2.380  0.9928 -1.0182 -0.1630
  965MOL0     H33151   9.932   9.135   2.590  1.8410  1.9341 -0.5667
  965MOL0     H33152  10.045   9.115   3.048  0.1583 -3.3115 -1.0770
  965MOL0     H33153   9.991   9.184   3.279 -0.1552  1.1408  0.9923
  965MOL0     H33154   8.342   9.510   3.767  1.7823  3.9470 -3.4258
  965MOL0     H33155   8.197   9.641   3.925  0.7214  3.0065 -0.6759
  965MOL0     H33156   8.090   9.733   4.301  0.0260 -1.3031 -2.1989
  965MOL0     H33157   7.940   9.804   4.455  1.4949 -3.2931 -2.9952
  965MOL0     H33158   7.796   9.893   4.574  4.5783  2.6159 -0.2174
  965MOL0     H33159   7.703  10.043   4.614  0.4541 -1.4427  2.1110
  965MOL0     H33160   7.602   9.864   4.456 -2.3682  2.2764  0.5816
  965MOL0     H33161   7.731   9.926   4.336  1.4564  3.4860  0.2005
  965MOL0     H33162   7.465  10.039   4.455  0.0771  2.8425  0.2608
  965MOL0     H33163   7.578  10.156   4.415  1.2941  0.1434 -4.6756
  965MOL0     H33164   7.587  10.101   4.186 -1.6818  2.0866 -1.4365
  965MOL0     H33165   7.421  10.128   4.249  0.2764 -1.0476  1.2566
  965MOL0     H33166   7.384   9.734   4.104 -0.5795  0.6367  0.0718
  965MOL0     H33167   8.050  10.220   4.365 -0.2114  1.0952 -1.2656
  965MOL0     H33168   8.224  10.273   4.240  0.4378 -0.2777  0.4534
  965MOL0     H33169   8.331  10.140   4.175 -0.0559  0.1991  0.2612
  965MOL0     H33170   8.176  10.194   4.090  0.0026 -0.7614 -0.8257
  966MOL0     O33171   8.451   7.889   2.373  1.1260 -0.1042 -0.1984
  966MOL0     C33172   8.460   7.849   2.484  0.4049 -0.5840  0.0263
  966MOL0     O33173   8.462   7.713   2.517  0.3440 -0.6461 -0.5140
  966MOL0     C33174   8.448   7.615   2.424 -0.9530 -0.1281 -0.0224
  966MOL0     C33175   8.530   7.506   2.446 -0.7214 -0.1529 -0.5567
  966MOL0     C33176   8.543   7.414   2.344 -0.4538 -0.5330  0.4145
  966MOL0     C33177   8.470   7.423   2.231 -0.3867  0.0010  0.6751
  966MOL0     O33178   8.496   7.335   2.131  0.1978  1.0077 -0.0863
  966MOL0     C33179   8.514   7.387   2.005  0.4679 -1.0677 -0.1604
  966MOL0     C33180   8.558   7.271   1.908  0.2872  0.4986  0.7550
  966MOL0     C33181   8.446   7.181   1.859 -0.4983  0.2533 -0.5232
  966MOL0     C33182   8.356   7.253   1.760  0.9595 -0.1789  1.0885
  966MOL0     C33183   8.253   7.159   1.709 -0.4267  0.0843  1.3465
  966MOL0     C33184   8.130   7.151   1.790 -0.3822  0.4366  0.2650
  966MOL0     C33185   8.018   7.063   1.727  0.2673 -0.2706 -0.3380
  966MOL0     C33186   7.951   7.122   1.604 -0.2067  0.2619 -0.2438
  966MOL0     N33187   7.897   7.258   1.626  1.4510  0.3588 -0.1227
  966MOL0     C33188   7.930   7.363   1.552 -0.3893 -0.1704  0.2771
  966MOL0     C33189   7.867   7.470   1.605  0.7302  0.3024 -0.2202
  966MOL0     C33190   7.857   7.607   1.548 -0.0965 -0.6403 -0.4650
  966MOL0     C33191   7.752   7.607   1.431  0.5174 -1.0547  0.0255
  966MOL0     C33192   7.602   7.579   1.472 -0.2426  0.1115  0.2399
  966MOL0     C33193   7.559   7.696   1.563  0.2712  0.6681  0.8767
  966MOL0     O33194   7.424   7.686   1.611  0.6864 -0.0702 -0.1165
  966MOL0     C33195   7.376   7.606   1.705 -0.5077 -0.5424  0.6305
  966MOL0     C33196   7.457   7.529   1.778  0.1554 -0.4930  0.5533
  966MOL0     C33197   7.411   7.451   1.887  0.2712  0.3281  0.8581
  966MOL0     C33198   7.509   7.370   1.970  0.7282 -0.7924  0.0460
  966MOL0     C33199   7.271   7.464   1.914  0.0766 -0.1722  1.0133
  966MOL0     C33200   7.205   7.398   2.022  0.2592  0.4350 -0.2396
  966MOL0     O33201   7.225   7.264   2.034 -0.2783  0.5870  0.0412
  966MOL0     C33202   7.169   7.196   2.138  0.9477  0.7640 -0.0553
  966MOL0     C33203   7.057   7.116   2.113  0.7896 -1.1092 -1.3982
  966MOL0     C33204   7.016   7.026   2.210  0.8392 -0.1002 -0.1386
  966MOL0     C33205   7.056   7.034   2.348  0.0069  0.3026  0.6153
  966MOL0     O33206   7.000   6.974   2.450  0.0728 -0.3836 -0.4366
  966MOL0     C33207   6.853   6.963   2.457 -0.6204 -0.5070  0.2596
  966MOL0     C33208   6.796   7.011   2.590  0.5039  0.4424  0.6742
  966MOL0     C33209   6.849   6.925   2.710 -0.0949 -0.2293 -0.4587
  966MOL0     C33210   6.786   6.789   2.737  0.3679  0.0005  0.7130
  966MOL0     C33211   6.656   6.784   2.821 -0.8696  0.3847  0.1317
  966MOL0     C33212   6.619   6.639   2.858  0.3263 -0.1475 -0.4320
  966MOL0     C33213   6.498   6.641   2.959 -0.5396  0.1305 -0.2940
  966MOL0     C33214   6.446   6.490   2.972  0.1920  0.0684 -0.5489
  966MOL0    Cl33215   6.352   6.478   3.132 -0.3122 -0.2169 -0.0712
  966MOL0     C33216   7.173   7.111   2.369 -0.1252  0.6777  0.3035
  966MOL0     C33217   7.229   7.192   2.266 -0.3658 -0.6494  0.7863
  966MOL0     O33218   7.141   7.469   2.103  0.3555 -0.1505  0.5753
  966MOL0     C33219   7.187   7.536   1.835  0.4182 -0.8578  0.0224
  966MOL0     C33220   7.240   7.603   1.730  0.1316 -0.8706  0.3182
  966MOL0     N33221   7.792   7.422   1.715  0.0783  0.1150  0.0667
  966MOL0     N33222   7.806   7.290   1.723  0.6725 -0.0225 -0.4708
  966MOL0     C33223   8.366   7.514   2.224  0.1752 -0.5567  0.6289
  966MOL0     C33224   8.348   7.610   2.315 -1.5541  0.3553 -0.1766
  966MOL0     C33225   8.476   7.954   2.591  0.0628 -0.7631 -0.3263
  966MOL0     C33226   8.466   7.903   2.730 -0.1116  0.0964 -0.3067
  966MOL0     C33227   8.478   7.985   2.834  0.0790  0.6685  0.0471
  966MOL0     C33228   8.473   8.126   2.821  0.1952  0.0572 -0.3454
  966MOL0     O33229   8.464   8.210   2.931  0.5380 -0.0432 -0.1126
  966MOL0     C33230   8.453   8.160   3.069  0.1373  0.2302 -0.1704
  966MOL0     C33231   8.306   8.124   3.079 -0.6539  0.6183 -0.2403
  966MOL0     C33232   8.260   8.093   3.221  0.5057 -0.3570  0.4035
  966MOL0     C33233   8.340   7.990   3.305  0.6682 -0.7036  0.0366
  966MOL0     C33234   8.359   7.870   3.225 -0.5652  0.2335  0.1972
  966MOL0     C33235   8.378   7.772   3.158  0.1852 -0.0583 -0.3879
  966MOL0     C33236   8.477   8.182   2.695  0.0536 -0.1947 -0.0295
  966MOL0     C33237   8.476   8.096   2.574  0.7338  0.1131  0.4742
  966MOL0     C33238   8.480   8.174   2.429  0.8299  0.2708  0.2940
  966MOL0     H33239   8.596   7.491   2.530  0.3900 -0.9918 -1.5448
  966MOL0     H33240   8.609   7.328   2.353  0.5007  0.2146  0.6361
  966MOL0     H33241   8.597   7.457   2.014 -1.2952  0.8117  4.2339
  966MOL0     H33242   8.428   7.435   1.959  1.8211  2.7871  0.9777
  966MOL0     H33243   8.607   7.327   1.828 -1.6304  0.6186 -0.4079
  966MOL0     H33244   8.637   7.215   1.959 -1.4621 -1.8286  1.0973
  966MOL0     H33245   8.494   7.092   1.818  0.5287  1.0168 -1.0212
  966MOL0     H33246   8.376   7.159   1.940 -1.0402  0.0451 -1.0426
  966MOL0     H33247   8.311   7.346   1.796 -0.7484 -1.1309  1.4896
  966MOL0     H33248   8.422   7.287   1.679 -0.6390  1.2531  0.3157
  966MOL0     H33249   8.293   7.060   1.684  0.2280  0.8613 -0.9907
  966MOL0     H33250   8.221   7.203   1.614  1.0238  3.2797  2.1830
  966MOL0     H33251   8.157   7.093   1.878  1.1435 -0.3941 -0.6909
  966MOL0     H33252   8.078   7.241   1.824 -3.3104 -0.8485 -0.5410
  966MOL0     H33253   7.945   7.050   1.807  0.8960  1.7289  0.6196
  966MOL0     H33254   8.057   6.962   1.711 -0.4913 -0.6888  0.4136
  966MOL0     H33255   8.028   7.134   1.527 -2.0182  1.7699 -1.9325
  966MOL0     H33256   7.875   7.056   1.562  1.6433 -3.1912  1.3946
  966MOL0     H33257   7.985   7.371   1.458 -1.9063  0.9117 -0.5729
  966MOL0     H33258   7.955   7.633   1.507 -1.0450  0.3812 -2.1848
  966MOL0     H33259   7.825   7.678   1.625  0.1347 -2.4912  1.4473
  966MOL0     H33260   7.762   7.697   1.370  1.3105 -2.0663 -1.4389
  966MOL0     H33261   7.778   7.537   1.350  1.4902  2.5200 -3.0491
  966MOL0     H33262   7.540   7.567   1.383 -1.5746  2.1723  0.8238
  966MOL0     H33263   7.596   7.494   1.540  1.8775 -0.0094  0.3409
  966MOL0     H33264   7.631   7.717   1.644  0.1746 -0.6976  1.3387
  966MOL0     H33265   7.564   7.790   1.507  0.6014  0.6722  0.9091
  966MOL0     H33266   7.563   7.520   1.762  0.8317  4.2704  0.8714
  966MOL0     H33267   7.611   7.379   1.932 -0.0636 -1.6618 -2.4667
  966MOL0     H33268   7.470   7.268   1.978 -1.4410 -0.0745 -0.6010
  966MOL0     H33269   7.508   7.407   2.073 -5.2372  3.3071 -0.9444
  966MOL0     H33270   6.998   7.127   2.023 -3.4142  1.5598  1.2960
  966MOL0     H33271   6.947   6.949   2.178 -0.1197  0.3536  0.7683
  966MOL0     H33272   6.791   7.021   2.388  0.7036 -0.0965 -0.6352
  966MOL0     H33273   6.820   6.861   2.436 -2.7008 -0.3011  2.1624
  966MOL0     H33274   6.826   7.116   2.600  4.6705 -0.0637 -3.3346
  966MOL0     H33275   6.687   7.005   2.590  0.4790 -4.2006 -2.4716
  966MOL0     H33276   6.849   6.994   2.795 -1.7532 -1.6080  0.7155
  966MOL0     H33277   6.955   6.911   2.684  0.1133  0.3771  0.0204
  966MOL0     H33278   6.852   6.715   2.783 -0.6654 -1.3272  0.1431
  966MOL0     H33279   6.748   6.754   2.640  0.4343  3.6446 -0.7963
  966MOL0     H33280   6.681   6.841   2.911 -1.7126  0.3253  0.4138
  966MOL0     H33281   6.583   6.829   2.754  0.6556 -1.0377 -2.6657
  966MOL0     H33282   6.699   6.587   2.911  0.3504  0.4266  0.0981
  966MOL0     H33283   6.574   6.586   2.774 -1.6781  0.7673  0.0071
  966MOL0     H33284   6.419   6.696   2.906 -3.0213 -1.5778  1.4141
  966MOL0     H33285   6.513   6.682   3.059 -1.6179  1.6726 -0.7298
  966MOL0     H33286   6.521   6.411   2.981 -0.6699 -1.1002 -2.9774
  966MOL0     H33287   6.388   6.473   2.881  0.5140  4.7632 -1.8936
  966MOL0     H33288   7.236   7.108   2.458  2.7677 -3.0769 -1.5723
  966MOL0     H33289   7.320   7.253   2.267  0.9076 -2.4778  1.2287
  966MOL0     H33290   7.082   7.538   1.863  0.9849  0.0894  2.3304
  966MOL0     H33291   7.175   7.667   1.671  0.9135  0.4340  0.8295
  966MOL0     H33292   8.300   7.506   2.137  2.3090  1.5842 -1.3215
  966MOL0     H33293   8.261   7.675   2.308 -1.9282 -0.1292 -0.0342
  966MOL0     H33294   8.460   7.795   2.739  2.7502 -0.1677 -0.5032
  966MOL0     H33295   8.494   7.939   2.931  0.6707  3.8389  1.5814
  966MOL0     H33296   8.518   8.075   3.095 -1.1473 -0.6582  0.2247
  966MOL0     H33297   8.475   8.236   3.144  2.3071 -0.6918  0.2097
  966MOL0     H33298   8.290   8.031   3.024 -1.2746  1.3059 -1.2691
  966MOL0     H33299   8.247   8.207   3.037 -3.0321 -0.7341  0.2542
  966MOL0     H33300   8.278   8.183   3.281  2.0864 -1.4270  1.6285
  966MOL0     H33301   8.155   8.063   3.223 -0.0897  1.5826  1.4089
  966MOL0     H33302   8.292   7.961   3.399  1.4075  1.3299  1.0826
  966MOL0     H33303   8.428   8.044   3.338  1.2730 -1.0096 -1.0256
  966MOL0     H33304   8.391   7.669   3.131  0.7843 -0.4125  1.1147
  966MOL0     H33305   8.473   8.290   2.682  2.2840 -0.1472 -0.6930
  966MOL0     H33306   8.559   8.143   2.360  1.4967  1.9471  0.2516
  966MOL0     H33307   8.387   8.155   2.377  1.9763 -1.1128 -1.3443
  966MOL0     H33308   8.490   8.283   2.439 -0.0662  0.9809 -4.3259
  967MOL0     O33309   0.805   4.679   2.585  0.2815 -0.4041  0.2779
  967MOL0     C33310   0.747   4.606   2.503  0.3364 -0.3168 -0.7213
  967MOL0     O33311   0.621   4.631   2.461 -0.3703 -0.2295 -0.7238
  967MOL0     C33312   0.556   4.740   2.520 -0.4897  0.9105 -0.9320
  967MOL0     C33313   0.501   4.727   2.652 -0.7747  0.8891 -0.3448
  967MOL0     C33314   0.436   4.829   2.715  0.7326 -0.1437 -0.0433
  967MOL0     C33315   0.429   4.954   2.648 -0.0750  0.4357 -0.1953
  967MOL0     O33316   0.377   5.070   2.707 -0.0839  0.8970  0.2711
  967MOL0     C33317   0.285   5.060   2.815  0.5343 -0.6120  0.0301
  967MOL0     C33318   0.244   5.211   2.856 -0.8782  0.2162 -0.0902
  967MOL0     C33319   0.357   5.307   2.899 -0.7761  0.6122 -0.4973
  967MOL0     C33320   0.322   5.455   2.914 -0.3399  0.0019 -0.4119
  967MOL0     C33321   0.442   5.559   2.900  0.0343  1.0026  0.1551
  967MOL0     C33322   0.565   5.526   2.991  0.9046  0.4752  0.7522
  967MOL0     C33323   0.697   5.598   2.970 -0.1236  0.4349 -0.3268
  967MOL0     C33324   0.685   5.747   2.998  0.0390  0.6627 -0.9690
  967MOL0     N33325   0.776   5.775   3.106  0.2312 -0.6122  0.6379
  967MOL0     C33326   0.912   5.779   3.113  0.1234 -0.5449  0.8691
  967MOL0     C33327   0.947   5.801   3.243 -0.4313 -0.3663  0.8711
  967MOL0     C33328   1.090   5.833   3.297  1.6302  1.3424 -0.3022
  967MOL0     C33329   1.107   5.977   3.337 -0.2412  0.8041  0.1687
  967MOL0     C33330   1.240   5.993   3.415  0.8765 -0.0049 -0.0472
  967MOL0     C33331   1.273   6.142   3.421  0.4377 -0.1646  0.7065
  967MOL0     O33332   1.283   6.214   3.301 -0.5558 -0.7577  0.4290
  967MOL0     C33333   1.229   6.344   3.308  0.3307  0.7442 -0.2187
  967MOL0     C33334   1.297   6.455   3.365  0.3408  0.4683  0.5154
  967MOL0     C33335   1.244   6.580   3.384 -0.0520 -0.3174 -0.7010
  967MOL0     C33336   1.334   6.694   3.442 -0.3840 -0.3344  1.4611
  967MOL0     C33337   1.109   6.602   3.337  0.0385 -0.5724 -0.1768
  967MOL0     C33338   1.035   6.733   3.341 -0.6707 -0.1552 -0.3900
  967MOL0     O33339   0.958   6.760   3.227 -0.5216 -0.2716 -0.1509
  967MOL0     C33340   0.888   6.875   3.238  0.0068  0.7176 -1.1702
  967MOL0     C33341   0.954   6.994   3.228 -0.4154  0.0327 -0.5332
  967MOL0     C33342   0.880   7.103   3.210 -0.1333 -0.9693  1.0749
  967MOL0     C33343   0.737   7.103   3.211 -0.2054  0.3217  0.6778
  967MOL0     O33344   0.652   7.206   3.192  0.3569 -0.6889 -0.0676
  967MOL0     C33345   0.700   7.325   3.115 -0.2836 -0.4832 -0.1094
  967MOL0     C33346   0.584   7.396   3.047 -0.8308  0.0925 -0.4685
  967MOL0     C33347   0.469   7.307   2.984  0.4418 -0.3101  0.1551
  967MOL0     C33348   0.380   7.374   2.885 -0.4947  0.2393  1.1307
  967MOL0     C33349   0.441   7.425   2.748 -0.0764  0.1352  0.8782
  967MOL0     C33350   0.327   7.501   2.669  0.2272  0.5294  0.5389
  967MOL0     C33351   0.203   7.418   2.609 -0.6062 -0.6432  0.1590
  967MOL0     C33352   0.097   7.500   2.539 -0.2764  0.9866  0.8052
  967MOL0    Cl33353   0.184   7.632   2.437  0.0057  0.2193 -0.1525
  967MOL0     C33354   0.673   6.983   3.212 -0.3561  1.1508  0.0179
  967MOL0     C33355   0.744   6.865   3.230 -0.2449  0.3713  0.4106
  967MOL0     O33356   1.071   6.817   3.428 -0.4579  0.4471  0.0979
  967MOL0     C33357   1.045   6.493   3.272 -0.8100  0.7684 -0.5657
  967MOL0     C33358   1.099   6.361   3.259 -0.7607 -1.2668 -0.0599
  967MOL0     N33359   0.828   5.805   3.314 -0.5457  0.2379  0.7183
  967MOL0     N33360   0.730   5.786   3.231 -0.4614  1.0797 -0.4016
  967MOL0     C33361   0.478   4.968   2.518  0.0490 -0.0337 -0.9496
  967MOL0     C33362   0.549   4.861   2.465 -0.2210  0.7000  0.5112
  967MOL0     C33363   0.819   4.500   2.429 -0.3985  0.1201 -0.7309
  967MOL0     C33364   0.790   4.490   2.289 -0.5122  0.6513 -0.6442
  967MOL0     C33365   0.833   4.388   2.214 -0.7027 -1.0861  0.4164
  967MOL0     C33366   0.913   4.286   2.270  0.2076  0.5216  0.1801
  967MOL0     O33367   0.959   4.194   2.181 -0.3099  0.0883 -0.1470
  967MOL0     C33368   1.085   4.234   2.128 -0.0485  0.1362 -0.4500
  967MOL0     C33369   1.078   4.295   1.992  0.6861  0.3520  0.0342
  967MOL0     C33370   1.000   4.218   1.894 -0.7307  0.2873  0.1127
  967MOL0     C33371   1.045   4.250   1.754  0.3738 -0.0799  0.3812
  967MOL0     C33372   1.072   4.390   1.724  0.4181  0.7649 -0.0049
  967MOL0     C33373   1.100   4.504   1.706  0.2314  0.3504  0.4788
  967MOL0     C33374   0.949   4.301   2.406  0.3728  0.5569  0.4927
  967MOL0     C33375   0.905   4.404   2.484  0.3375  0.1315 -0.6929
  967MOL0     C33376   0.931   4.381   2.635  0.4445 -0.3809  0.5572
  967MOL0     H33377   0.527   4.641   2.713  0.8794  1.2350 -0.5191
  967MOL0     H33378   0.419   4.818   2.822  0.6747 -0.8615 -0.1245
  967MOL0     H33379   0.321   5.013   2.907 -2.0703 -3.2650 -0.1710
  967MOL0     H33380   0.202   5.001   2.775  0.4128 -0.2572 -0.2430
  967MOL0     H33381   0.195   5.257   2.769  2.8373 -1.4723 -3.4206
  967MOL0     H33382   0.177   5.199   2.941 -0.8485  1.1755  0.0774
  967MOL0     H33383   0.408   5.263   2.985  0.1245 -0.4175 -1.5213
  967MOL0     H33384   0.436   5.302   2.824  1.7382  0.2871  2.0052
  967MOL0     H33385   0.243   5.481   2.843  1.3783 -0.5589 -2.6698
  967MOL0     H33386   0.277   5.468   3.013 -2.6146 -2.5725 -0.9790
  967MOL0     H33387   0.390   5.650   2.931 -1.6587  0.7967 -1.8442
  967MOL0     H33388   0.478   5.569   2.797  1.4736 -0.9703  0.4095
  967MOL0     H33389   0.544   5.534   3.098  1.7904 -2.2014  1.2075
  967MOL0     H33390   0.581   5.421   2.967  0.8404  0.4510  0.8145
  967MOL0     H33391   0.718   5.585   2.863 -0.9248 -2.0065 -0.2473
  967MOL0     H33392   0.773   5.553   3.033 -1.2714 -0.8598  0.1929
  967MOL0     H33393   0.694   5.801   2.904 -2.6801 -0.9578 -2.2969
  967MOL0     H33394   0.580   5.765   3.026 -0.1351 -2.0470  0.4570
  967MOL0     H33395   0.980   5.784   3.028 -3.7637  2.2447 -2.4057
  967MOL0     H33396   1.167   5.799   3.228  1.7244 -3.7725  1.8864
  967MOL0     H33397   1.101   5.774   3.388 -1.1110 -1.0081 -1.3268
  967MOL0     H33398   1.100   6.041   3.248  0.4253  0.1984 -0.3309
  967MOL0     H33399   1.014   5.989   3.393 -0.2889 -2.1606  0.9021
  967MOL0     H33400   1.241   5.952   3.516  3.2590 -0.2426 -0.1182
  967MOL0     H33401   1.321   5.937   3.368 -0.1851 -0.9355 -0.8372
  967MOL0     H33402   1.195   6.183   3.485  0.7515 -0.3339  1.2019
  967MOL0     H33403   1.362   6.150   3.484  1.4985 -0.5140 -0.7032
  967MOL0     H33404   1.400   6.446   3.400  0.3979  0.0703  0.2490
  967MOL0     H33405   1.342   6.780   3.376  3.0452  0.4376  2.6961
  967MOL0     H33406   1.431   6.650   3.468  0.7260  1.2977  0.2665
  967MOL0     H33407   1.308   6.738   3.539  0.9855 -0.2114  1.7886
  967MOL0     H33408   1.062   6.998   3.237 -0.5822  2.5561  1.1140
  967MOL0     H33409   0.940   7.193   3.205  1.0309 -1.3886  4.6218
  967MOL0     H33410   0.756   7.395   3.178 -1.0427  1.3554 -1.3778
  967MOL0     H33411   0.770   7.289   3.039  2.1701  0.8898  1.3646
  967MOL0     H33412   0.536   7.443   3.133 -2.6452 -4.1570  1.1219
  967MOL0     H33413   0.613   7.467   2.969 -1.0279  0.1550 -0.4859
  967MOL0     H33414   0.392   7.272   3.053 -1.9838 -1.5480 -2.9429
  967MOL0     H33415   0.523   7.221   2.944  1.8884  1.5115 -2.0572
  967MOL0     H33416   0.325   7.457   2.931 -0.5469 -0.1252  1.7332
  967MOL0     H33417   0.300   7.307   2.852 -1.5525  2.1032 -0.3147
  967MOL0     H33418   0.519   7.497   2.773  3.1252 -3.2208  1.3651
  967MOL0     H33419   0.491   7.346   2.692  0.1362  0.2178  0.9512
  967MOL0     H33420   0.389   7.550   2.594  1.4664  0.5822  1.5611
  967MOL0     H33421   0.284   7.574   2.738 -1.5308  0.8083 -0.7735
  967MOL0     H33422   0.146   7.375   2.692 -1.3850 -4.0780 -1.9520
  967MOL0     H33423   0.233   7.336   2.542 -1.0626 -0.6133 -0.0859
  967MOL0     H33424   0.042   7.558   2.614  0.4498  0.3726  1.8386
  967MOL0     H33425   0.016   7.454   2.482 -2.3774  3.0311  1.9725
  967MOL0     H33426   0.565   6.976   3.207 -0.2570 -2.3901  0.1572
  967MOL0     H33427   0.706   6.764   3.218  1.7082 -0.6327  1.9697
  967MOL0     H33428   0.943   6.505   3.238 -0.8489 -1.2227 -1.3274
  967MOL0     H33429   1.051   6.271   3.221  1.9988 -1.6043 -3.2015
  967MOL0     H33430   0.459   5.059   2.462 -2.1133 -0.1213 -0.4493
  967MOL0     H33431   0.600   4.871   2.369  2.1044 -2.1429  1.3025
  967MOL0     H33432   0.724   4.567   2.249  1.4615  1.6849 -2.0569
  967MOL0     H33433   0.803   4.375   2.110 -3.0058  0.6469  0.7617
  967MOL0     H33434   1.134   4.309   2.191 -1.0925  0.2830  0.2136
  967MOL0     H33435   1.153   4.148   2.124  2.3748  2.0097 -2.8462
  967MOL0     H33436   1.181   4.313   1.958  1.7130  1.9901  3.5758
  967MOL0     H33437   1.021   4.388   2.000  2.3799  1.3522  1.1161
  967MOL0     H33438   1.028   4.113   1.906  2.1902  0.7701 -1.4221
  967MOL0     H33439   0.892   4.232   1.904 -0.8773 -0.1939 -0.7574
  967MOL0     H33440   0.972   4.205   1.686 -2.5914  3.6759  0.7486
  967MOL0     H33441   1.136   4.196   1.727  0.4347  0.9406 -1.6524
  967MOL0     H33442   1.143   4.600   1.689  2.4441 -0.1309  2.6885
  967MOL0     H33443   1.012   4.223   2.448 -1.0415 -2.1528 -2.0562
  967MOL0     H33444   0.856   4.309   2.668 -0.6666 -0.6020 -2.1873
  967MOL0     H33445   1.033   4.351   2.659  1.0808  0.1785 -1.2665
  967MOL0     H33446   0.921   4.476   2.689  2.3672 -0.2805  0.7801
  968MOL0     O33447  10.971   3.498   9.738 -0.2762  1.0844  0.7053
  968MOL0     C33448  10.865   3.526   9.787  0.4995 -0.3340  0.1119
  968MOL0     O33449  10.758   3.439   9.805  0.1416 -0.1468  0.0963
  968MOL0     C33450  10.783   3.301   9.794 -0.7119 -0.6528 -0.3774
  968MOL0     C33451  10.876   3.228   9.879 -0.0490  0.5710 -0.0714
  968MOL0     C33452  10.916   3.092   9.849 -0.7726 -1.0431  0.1596
  968MOL0     C33453  10.841   3.024   9.764 -0.2270  0.0608 -0.3827
  968MOL0     O33454  10.885   2.892   9.756  0.1236  0.4834  0.3011
  968MOL0     C33455  10.858   2.812   9.639 -0.1884 -0.2239  1.1831
  968MOL0     C33456  10.893   2.672   9.687  0.2199  0.7566 -0.8720
  968MOL0     C33457  10.848   2.563   9.586  0.0878 -0.1029  0.7037
  968MOL0     C33458  10.908   2.425   9.633  0.1069  0.6590  0.1658
  968MOL0     C33459  10.927   2.321   9.522  0.1706 -0.2090 -1.1395
  968MOL0     C33460  10.801   2.297   9.430 -0.2741 -0.6233 -0.1220
  968MOL0     C33461  10.806   2.172   9.338  0.1473  0.9343 -0.5031
  968MOL0     C33462  10.679   2.159   9.254  0.0375  0.5776 -0.8182
  968MOL0     N33463  10.690   2.067   9.148 -0.0999 -0.0847 -0.0854
  968MOL0     C33464  10.802   2.042   9.068 -0.0319  0.3396  0.1169
  968MOL0     C33465  10.789   1.917   9.018  0.0913 -0.8613  0.5648
  968MOL0     C33466  10.891   1.835   8.931  0.0922 -0.1045 -0.2016
  968MOL0     C33467  10.834   1.806   8.790 -0.0103 -1.0756  0.3616
  968MOL0     C33468  10.786   1.944   8.710 -0.5809  0.0584 -0.5597
  968MOL0     C33469  10.885   1.994   8.605 -0.3943  0.5466 -0.3154
  968MOL0     O33470  10.996   2.052   8.677 -0.2851 -0.4099  0.2834
  968MOL0     C33471  11.066   2.151   8.615 -0.7137  0.2820  1.0571
  968MOL0     C33472  11.078   2.171   8.481 -0.4389 -0.5477  0.0574
  968MOL0     C33473  11.155   2.273   8.422 -0.3803 -0.4266  0.1760
  968MOL0     C33474  11.167   2.275   8.271 -0.6167  1.3474  0.6689
  968MOL0     C33475  11.204   2.376   8.508  0.3186  0.3533 -0.8931
  968MOL0     C33476  11.267   2.505   8.456 -0.1654 -0.3306  0.4101
  968MOL0     O33477  11.203   2.622   8.490 -0.2039  0.6068 -0.0063
  968MOL0     C33478  11.246   2.732   8.411 -0.4283  0.5004 -0.4515
  968MOL0     C33479  11.370   2.793   8.411  0.5556  1.2050  0.2440
  968MOL0     C33480  11.407   2.907   8.329 -0.7989  0.7580  0.6286
  968MOL0     C33481  11.305   2.962   8.245  0.8339 -0.0059 -0.3903
  968MOL0     O33482  11.321   3.063   8.153 -0.5146 -0.2414 -0.2462
  968MOL0     C33483  11.452   3.127   8.139  0.0410  0.4204 -0.5175
  968MOL0     C33484  11.464   3.206   8.002 -0.6313  0.1885  0.4352
  968MOL0     C33485  11.373   3.332   8.002 -0.3719  0.0301 -0.3050
  968MOL0     C33486  11.372   3.403   7.866 -0.9027 -0.1368  0.2824
  968MOL0     C33487  11.282   3.525   7.857 -0.3260  0.0077 -0.1224
  968MOL0     C33488  11.273   3.555   7.707 -0.5289 -0.1261  0.6647
  968MOL0     C33489  11.221   3.696   7.678 -0.1112  0.2460 -0.6186
  968MOL0     C33490  11.081   3.714   7.732  0.0896  0.4361 -0.8113
  968MOL0    Cl33491  11.025   3.890   7.738 -0.1471  0.0398 -0.0357
  968MOL0     C33492  11.174   2.896   8.243 -0.6610 -0.7158  0.1932
  968MOL0     C33493  11.155   2.783   8.324  0.4952  0.4091  0.7685
  968MOL0     O33494  11.368   2.489   8.385  0.2914 -0.5353  0.1219
  968MOL0     C33495  11.182   2.368   8.643 -0.4138  0.3945  0.0561
  968MOL0     C33496  11.121   2.250   8.692 -0.4731  0.9673  0.4880
  968MOL0     N33497  10.663   1.874   9.050  0.7015 -0.5031 -0.9345
  968MOL0     N33498  10.601   1.973   9.116 -1.4889 -0.0105  0.0567
  968MOL0     C33499  10.728   3.082   9.691 -0.3352 -0.4086 -0.1263
  968MOL0     C33500  10.700   3.223   9.713 -1.4678 -0.0562  0.8036
  968MOL0     C33501  10.843   3.668   9.837  0.1126  0.4014 -0.7342
  968MOL0     C33502  10.720   3.714   9.813  0.2062 -1.6691  0.6794
  968MOL0     C33503  10.680   3.843   9.850  0.8224 -0.0660 -0.2707
  968MOL0     C33504  10.774   3.929   9.919 -0.8249  0.0565  0.6411
  968MOL0     O33505  10.736   4.055   9.946  0.6381 -0.1370 -0.1849
  968MOL0     C33506  10.776   4.134  10.057 -0.3524  0.5244  0.1722
  968MOL0     C33507  10.700   4.078  10.178 -0.5778  0.4718 -0.7176
  968MOL0     C33508  10.760   4.160  10.295 -0.2058  0.3975 -0.9503
  968MOL0     C33509  10.892   4.087  10.340 -0.5307  0.6821 -0.8293
  968MOL0     C33510  10.985   4.173  10.424  0.4584 -0.1544 -0.8977
  968MOL0     C33511  11.076   4.232  10.483  0.1355 -0.7145 -0.6089
  968MOL0     C33512  10.900   3.876   9.950  0.8667 -0.3913  0.1202
  968MOL0     C33513  10.944   3.753   9.904  0.4062  0.8864 -0.0264
  968MOL0     C33514  11.092   3.717   9.929  0.3462 -0.5315  0.1392
  968MOL0     H33515  10.930   3.278   9.959  2.3709  0.5913 -1.6207
  968MOL0     H33516  11.004   3.066   9.907  0.8087 -0.1189 -1.6869
  968MOL0     H33517  10.925   2.849   9.561  0.6830 -1.2118  1.4382
  968MOL0     H33518  10.755   2.807   9.601  0.8132  1.6312 -2.1413
  968MOL0     H33519  10.998   2.665   9.719 -0.6209 -1.3912  1.8797
  968MOL0     H33520  10.832   2.658   9.777 -3.7622 -1.3695 -3.6194
  968MOL0     H33521  10.739   2.551   9.583  0.1868 -0.8610 -0.3754
  968MOL0     H33522  10.867   2.582   9.480  2.3547  3.2057  1.5575
  968MOL0     H33523  11.006   2.440   9.678  1.2867 -0.4373 -1.8973
  968MOL0     H33524  10.851   2.379   9.714  3.7215 -1.4598  1.7445
  968MOL0     H33525  10.951   2.224   9.566 -1.5893  0.0463  0.5023
  968MOL0     H33526  11.014   2.357   9.465  2.9725  2.0655  3.9545
  968MOL0     H33527  10.704   2.287   9.481 -1.1139 -1.5609 -1.8053
  968MOL0     H33528  10.790   2.386   9.367 -0.6005 -1.8019 -1.7851
  968MOL0     H33529  10.833   2.079   9.390  0.0774  1.3329  0.2643
  968MOL0     H33530  10.889   2.179   9.268 -1.4191 -0.7596 -2.6883
  968MOL0     H33531  10.595   2.124   9.315  1.0173 -3.7734 -1.6466
  968MOL0     H33532  10.644   2.253   9.212  0.4000  0.6879 -0.8732
  968MOL0     H33533  10.884   2.108   9.044 -0.5805  0.9229 -0.1852
  968MOL0     H33534  10.906   1.745   8.991 -0.0814 -0.0126 -0.0199
  968MOL0     H33535  10.983   1.893   8.926 -0.6265  0.9860 -3.2695
  968MOL0     H33536  10.911   1.755   8.731  1.6111 -0.7877  2.1408
  968MOL0     H33537  10.735   1.759   8.792 -1.4288  1.7357  2.0707
  968MOL0     H33538  10.690   1.927   8.660 -1.0799  1.5218 -0.1312
  968MOL0     H33539  10.771   2.020   8.787  2.3349 -0.1055  0.2818
  968MOL0     H33540  10.913   1.915   8.534 -0.2114  1.4333 -1.2623
  968MOL0     H33541  10.829   2.074   8.556 -0.6260  1.2115  0.9830
  968MOL0     H33542  11.032   2.100   8.413  1.1325 -0.9301 -0.6623
  968MOL0     H33543  11.128   2.371   8.236 -1.2963  0.3354 -1.5069
  968MOL0     H33544  11.100   2.203   8.223  1.1692  0.0606 -0.0223
  968MOL0     H33545  11.272   2.273   8.240 -0.1276  3.0407  2.0687
  968MOL0     H33546  11.448   2.751   8.474  0.5705  0.0940 -0.4940
  968MOL0     H33547  11.505   2.953   8.333  0.0035 -0.8294  0.2062
  968MOL0     H33548  11.478   3.188   8.226  0.6081  0.5120 -0.7481
  968MOL0     H33549  11.529   3.050   8.136 -0.4985 -0.2700  1.4904
  968MOL0     H33550  11.568   3.234   7.983 -0.2762  0.5664  2.6847
  968MOL0     H33551  11.441   3.139   7.918 -1.6491  2.2985 -1.0511
  968MOL0     H33552  11.398   3.409   8.076 -2.2989  1.2346 -0.8644
  968MOL0     H33553  11.267   3.312   8.021 -0.7777  3.6121  2.3093
  968MOL0     H33554  11.347   3.328   7.790 -1.6266 -1.8660  2.1333
  968MOL0     H33555  11.475   3.432   7.845 -0.8095 -1.0640 -0.6027
  968MOL0     H33556  11.183   3.501   7.897 -0.6758  0.3412 -0.7719
  968MOL0     H33557  11.320   3.608   7.918  0.5412  0.0201 -0.6720
  968MOL0     H33558  11.219   3.482   7.645 -0.9527  0.9789 -0.3073
  968MOL0     H33559  11.375   3.556   7.668 -0.4123 -1.9972  0.8259
  968MOL0     H33560  11.229   3.721   7.572 -1.3315  1.3651 -0.4872
  968MOL0     H33561  11.288   3.763   7.731  0.1897  1.4049 -2.3676
  968MOL0     H33562  11.069   3.682   7.836  0.6473 -2.4094 -1.5345
  968MOL0     H33563  11.022   3.648   7.666  4.4094 -2.8452 -1.8737
  968MOL0     H33564  11.086   2.935   8.193  0.3426 -0.1349 -1.1904
  968MOL0     H33565  11.056   2.741   8.329  0.2922  0.9591  1.5332
  968MOL0     H33566  11.215   2.449   8.708 -1.3398 -0.1982  1.2916
  968MOL0     H33567  11.134   2.224   8.796  1.4929  3.5184  0.9904
  968MOL0     H33568  10.662   3.024   9.629 -3.3335 -0.7939  3.1232
  968MOL0     H33569  10.622   3.274   9.657  0.2059 -0.9141 -2.5719
  968MOL0     H33570  10.641   3.664   9.758 -0.6205 -1.7779  1.9246
  968MOL0     H33571  10.586   3.888   9.819  0.5994  0.4543  1.0658
  968MOL0     H33572  10.885   4.125  10.068 -0.4637 -1.7595 -0.1684
  968MOL0     H33573  10.759   4.242  10.054 -0.5146  0.4820 -0.6465
  968MOL0     H33574  10.722   3.972  10.186 -1.0243  0.4004 -0.4280
  968MOL0     H33575  10.591   4.086  10.174 -0.9173 -2.7447 -0.2161
  968MOL0     H33576  10.790   4.260  10.261 -1.6035 -0.0502 -3.8426
  968MOL0     H33577  10.685   4.175  10.373  0.7284  1.2081 -0.1838
  968MOL0     H33578  10.950   4.053  10.254  0.7774 -0.2437  0.3857
  968MOL0     H33579  10.866   3.998  10.398  0.8142  1.0938  0.4693
  968MOL0     H33580  11.157   4.276  10.538 -2.1726  2.0082  0.8599
  968MOL0     H33581  10.956   3.932  10.024  1.3784 -0.8086  0.0519
  968MOL0     H33582  11.112   3.635   9.998 -2.2570  0.0048  1.6583
  968MOL0     H33583  11.137   3.695   9.831  1.2167  0.2541  0.3480
  968MOL0     H33584  11.142   3.810   9.958  0.7578 -0.7412  0.1225
  969MOL0     O33585   2.816   0.920   5.083 -0.2722  0.4132  0.1818
  969MOL0     C33586   2.932   0.897   5.127 -0.3823  0.9352  0.0854
  969MOL0     O33587   2.998   0.775   5.120  0.7718  0.1352  0.3889
  969MOL0     C33588   2.922   0.675   5.054  0.2723  0.4795  0.2663
  969MOL0     C33589   2.819   0.615   5.124 -0.3566  0.5487  1.0497
  969MOL0     C33590   2.767   0.497   5.067 -0.4864  0.2436  0.2631
  969MOL0     C33591   2.821   0.438   4.951 -0.2523 -0.5191  0.2807
  969MOL0     O33592   2.746   0.326   4.902  0.0095  0.5403 -0.4061
  969MOL0     C33593   2.794   0.244   4.793 -1.0457 -0.6303  0.2374
  969MOL0     C33594   2.757   0.094   4.800  0.0444 -0.3432  0.8814
  969MOL0     C33595   2.828   0.031   4.919 -0.1629 -0.0443  0.6894
  969MOL0     C33596   2.801  -0.117   4.930 -1.1481  0.3187  0.1871
  969MOL0     C33597   2.882  -0.176   5.052  0.2399  0.3664 -0.3621
  969MOL0     C33598   2.879  -0.329   5.051  0.9011  0.0395  0.6491
  969MOL0     C33599   2.937  -0.384   5.175 -0.5967 -0.3823  1.2214
  969MOL0     C33600   3.080  -0.357   5.209  1.0290 -0.0006  0.2358
  969MOL0     N33601   3.165  -0.398   5.102 -0.5007 -0.1071 -0.1135
  969MOL0     C33602   3.219  -0.302   5.017 -0.1433  0.4291 -0.4320
  969MOL0     C33603   3.282  -0.366   4.926 -1.2672 -0.4445 -0.6021
  969MOL0     C33604   3.380  -0.317   4.820  0.0987  0.0666  1.3650
  969MOL0     C33605   3.294  -0.296   4.692 -0.1385 -0.0167  0.1999
  969MOL0     C33606   3.377  -0.265   4.570 -0.5437 -0.2629 -0.3940
  969MOL0     C33607   3.299  -0.257   4.432  0.6556 -0.1170  0.8850
  969MOL0     O33608   3.243  -0.127   4.400  0.2659 -0.0203  0.1862
  969MOL0     C33609   3.157  -0.118   4.294  0.2440 -0.0162 -0.2052
  969MOL0     C33610   3.114   0.012   4.259 -0.0159  0.3353 -0.0460
  969MOL0     C33611   3.035   0.040   4.141  0.2570 -0.2122  0.0428
  969MOL0     C33612   2.997   0.185   4.110 -0.0940 -0.4139 -0.3567
  969MOL0     C33613   2.999  -0.071   4.057  0.0884  0.5750  0.7258
  969MOL0     C33614   2.929  -0.051   3.932 -0.6516  0.1086  1.1491
  969MOL0     O33615   2.806   0.024   3.937 -0.4717  0.0899 -0.3277
  969MOL0     C33616   2.707  -0.011   3.848  0.5238 -0.6815  0.4763
  969MOL0     C33617   2.606   0.085   3.833  0.8500 -0.1022 -0.5633
  969MOL0     C33618   2.496   0.067   3.742  0.2626  0.3762  0.8435
  969MOL0     C33619   2.488  -0.056   3.670 -0.1801 -0.6890 -0.1185
  969MOL0     O33620   2.391  -0.089   3.583  0.4671 -0.6429  0.2932
  969MOL0     C33621   2.365   0.009   3.484  0.7436  0.2489  0.2271
  969MOL0     C33622   2.255  -0.055   3.400 -0.3696  0.3910 -0.2091
  969MOL0     C33623   2.222   0.013   3.265 -0.1885  0.5755  0.3169
  969MOL0     C33624   2.118  -0.061   3.185 -0.9884  0.5939 -0.0968
  969MOL0     C33625   2.069   0.013   3.067  0.7260 -0.2437  0.4594
  969MOL0     C33626   2.186   0.037   2.972  0.4970 -0.1460 -0.0912
  969MOL0     C33627   2.135   0.090   2.837 -1.0006  0.4799  0.0232
  969MOL0     C33628   2.172   0.235   2.822  0.3187 -0.2924 -0.8540
  969MOL0    Cl33629   2.352   0.256   2.831  0.3148  0.1538  0.2669
  969MOL0     C33630   2.586  -0.150   3.690 -0.1474 -0.2584 -0.8034
  969MOL0     C33631   2.699  -0.127   3.767  0.2524 -0.4695 -0.6535
  969MOL0     O33632   2.980  -0.108   3.826 -0.1726 -0.4338  0.1212
  969MOL0     C33633   3.046  -0.193   4.095 -0.2527  0.6576  0.2409
  969MOL0     C33634   3.122  -0.223   4.211 -0.5702 -0.0938 -0.0473
  969MOL0     N33635   3.286  -0.500   4.960 -0.3808 -0.1876 -0.3218
  969MOL0     N33636   3.203  -0.521   5.064 -0.4704 -1.1211  0.4683
  969MOL0     C33637   2.932   0.496   4.888 -1.0215  0.2906  0.2128
  969MOL0     C33638   2.977   0.622   4.936  0.0170  0.9950 -0.1470
  969MOL0     C33639   3.029   1.001   5.172  0.3942 -0.6794  0.7146
  969MOL0     C33640   3.162   0.962   5.193 -1.0030  0.7631  0.8322
  969MOL0     C33641   3.262   1.049   5.242  0.3235 -0.1994 -0.4493
  969MOL0     C33642   3.234   1.183   5.262 -0.2590  1.1747 -0.8185
  969MOL0     O33643   3.347   1.263   5.302 -0.1518 -0.1753 -0.0741
  969MOL0     C33644   3.324   1.398   5.354  1.1898  0.3954 -0.1011
  969MOL0     C33645   3.439   1.465   5.428 -0.4928  0.3500 -0.3130
  969MOL0     C33646   3.526   1.546   5.334 -0.2231  0.1398 -0.7881
  969MOL0     C33647   3.647   1.483   5.261  0.3873  0.1949 -0.5168
  969MOL0     C33648   3.706   1.573   5.164 -0.4251  0.5739  0.0256
  969MOL0     C33649   3.766   1.632   5.084  0.1678  0.3552 -0.3100
  969MOL0     C33650   3.108   1.228   5.232 -2.5224 -0.3143  0.2062
  969MOL0     C33651   3.001   1.147   5.193 -0.3918 -0.7824  0.8100
  969MOL0     C33652   2.860   1.207   5.173  0.7522  0.4879 -0.1490
  969MOL0     H33653   2.781   0.654   5.218 -1.1537  2.8226 -0.1531
  969MOL0     H33654   2.677   0.455   5.110 -1.4411 -0.1720 -1.9919
  969MOL0     H33655   2.902   0.233   4.776 -0.9320 -0.7445  0.9998
  969MOL0     H33656   2.753   0.281   4.699 -0.0079  1.7608  0.6530
  969MOL0     H33657   2.654   0.087   4.835 -0.2892  0.3154  0.0637
  969MOL0     H33658   2.781   0.051   4.703 -2.9917 -0.1677 -0.0592
  969MOL0     H33659   2.936   0.038   4.900 -0.0406 -2.9082 -0.1829
  969MOL0     H33660   2.790   0.082   5.008  2.1297  2.6800  0.2746
  969MOL0     H33661   2.693  -0.134   4.935 -1.2502  1.2930  2.8169
  969MOL0     H33662   2.834  -0.178   4.846 -0.1361 -1.7675  1.9935
  969MOL0     H33663   2.842  -0.130   5.143 -2.1077 -2.9165  0.4509
  969MOL0     H33664   2.986  -0.143   5.043  0.3448 -0.4685 -2.8098
  969MOL0     H33665   2.779  -0.371   5.036  0.8937  0.4547 -0.6271
  969MOL0     H33666   2.942  -0.355   4.965 -0.4055 -2.2124  0.2976
  969MOL0     H33667   2.937  -0.493   5.160  1.7998 -0.3324  0.4629
  969MOL0     H33668   2.871  -0.356   5.257 -1.6092 -2.4746  1.1942
  969MOL0     H33669   3.098  -0.251   5.233 -1.4817  0.8747 -1.4110
  969MOL0     H33670   3.107  -0.412   5.299 -0.6486  0.5309  1.1120
  969MOL0     H33671   3.209  -0.194   5.019  2.7921  0.8589 -2.5217
  969MOL0     H33672   3.458  -0.392   4.804  0.6336  1.1037 -1.2513
  969MOL0     H33673   3.425  -0.229   4.867  1.2851 -1.8617  4.1613
  969MOL0     H33674   3.238  -0.385   4.665 -1.7707  0.6845  1.1091
  969MOL0     H33675   3.226  -0.216   4.723  0.2064 -0.0046  0.9589
  969MOL0     H33676   3.425  -0.173   4.605 -3.2883 -0.6123  5.4742
  969MOL0     H33677   3.447  -0.347   4.551  0.2755  0.4639 -0.5787
  969MOL0     H33678   3.359  -0.293   4.349  2.3469  1.4594  1.3606
  969MOL0     H33679   3.222  -0.333   4.449  1.0028 -0.7947 -0.4521
  969MOL0     H33680   3.156   0.098   4.309 -0.1428  1.5156 -1.8395
  969MOL0     H33681   3.025   0.254   4.190 -3.4237 -0.4689  1.0081
  969MOL0     H33682   2.888   0.190   4.116 -0.2799 -2.4101 -1.5028
  969MOL0     H33683   3.038   0.228   4.018 -0.5930 -1.6870 -1.1957
  969MOL0     H33684   2.617   0.172   3.898 -1.4408  0.7944 -1.2742
  969MOL0     H33685   2.416   0.138   3.728 -1.9701 -1.9159  1.2821
  969MOL0     H33686   2.345   0.112   3.514 -0.7998  0.0288  0.0092
  969MOL0     H33687   2.454   0.015   3.420 -0.0620 -0.2214 -0.9694
  969MOL0     H33688   2.285  -0.159   3.382 -1.1460 -0.2082  1.7788
  969MOL0     H33689   2.165  -0.048   3.462  0.3410  0.4113  0.8421
  969MOL0     H33690   2.313   0.013   3.205 -2.3140 -0.1379 -3.1964
  969MOL0     H33691   2.189   0.114   3.293  0.6483  0.3143  2.4115
  969MOL0     H33692   2.033  -0.090   3.248 -0.4941  0.4779  0.5283
  969MOL0     H33693   2.162  -0.159   3.165 -2.5842 -0.1901  0.0725
  969MOL0     H33694   1.999  -0.058   3.022  3.5098 -2.5336 -0.5344
  969MOL0     H33695   2.030   0.112   3.091  3.7355  0.7579  1.6303
  969MOL0     H33696   2.239  -0.053   2.939 -0.6595 -0.6820 -0.5349
  969MOL0     H33697   2.250   0.114   3.016  0.9220 -0.1714 -0.6609
  969MOL0     H33698   2.026   0.090   2.826 -1.3295  0.2540  2.6076
  969MOL0     H33699   2.178   0.032   2.755  2.3967  1.1655  1.1583
  969MOL0     H33700   2.113   0.291   2.895  1.5622 -3.0603  2.5809
  969MOL0     H33701   2.140   0.256   2.719  0.4074  0.1905 -0.7840
  969MOL0     H33702   2.580  -0.243   3.634  1.2994 -0.7912 -0.1131
  969MOL0     H33703   2.766  -0.210   3.791  2.3000  0.8116 -1.6515
  969MOL0     H33704   3.037  -0.275   4.024  0.9443  0.5936  0.1336
  969MOL0     H33705   3.170  -0.320   4.219  5.0508  1.9246 -3.0867
  969MOL0     H33706   2.980   0.467   4.796 -1.3071 -2.5613  0.8763
  969MOL0     H33707   3.063   0.679   4.902 -0.2736  2.0392  0.8159
  969MOL0     H33708   3.199   0.860   5.194 -1.5569  0.5552  0.4184
  969MOL0     H33709   3.362   1.021   5.274  0.0933  1.3075  1.7838
  969MOL0     H33710   3.296   1.455   5.265 -0.6100  0.3379  0.3911
  969MOL0     H33711   3.237   1.403   5.420  1.1035 -1.7605  0.0392
  969MOL0     H33712   3.502   1.397   5.485 -2.0518 -0.1627  0.8767
  969MOL0     H33713   3.393   1.540   5.493 -2.1194 -2.9481  2.7297
  969MOL0     H33714   3.471   1.610   5.264 -0.9728  1.2826  0.8034
  969MOL0     H33715   3.577   1.616   5.400  1.6247 -0.8464 -1.0952
  969MOL0     H33716   3.622   1.393   5.203  2.2652 -0.7394  0.0480
  969MOL0     H33717   3.718   1.469   5.343 -0.3206  1.8057  0.4212
  969MOL0     H33718   3.821   1.678   5.004  0.6146 -1.7540 -1.2902
  969MOL0     H33719   3.087   1.334   5.242  1.0126  0.5345  0.0612
  969MOL0     H33720   2.846   1.298   5.233  0.1965 -1.4147  2.7895
  969MOL0     H33721   2.851   1.225   5.065  4.0673  4.5817 -0.0192
  969MOL0     H33722   2.782   1.136   5.201  0.5364  0.8883  0.2744
  970MOL0     O33723   5.860   1.090   0.643 -0.3325 -0.2874 -0.5509
  970MOL0     C33724   5.785   1.031   0.720  0.2320  1.5516 -0.3943
  970MOL0     O33725   5.812   0.909   0.781 -0.3331 -0.5700  0.3562
  970MOL0     C33726   5.928   0.839   0.753  0.0600 -0.4594  0.3525
  970MOL0     C33727   5.977   0.817   0.623  0.3932 -0.5353 -0.0527
  970MOL0     C33728   6.098   0.752   0.606  0.0297  0.2879 -0.0332
  970MOL0     C33729   6.181   0.718   0.710  0.3266 -0.8307  0.3297
  970MOL0     O33730   6.303   0.652   0.694  1.0974 -0.2696 -0.1575
  970MOL0     C33731   6.361   0.636   0.564 -0.5439 -0.4653 -0.8073
  970MOL0     C33732   6.420   0.769   0.522 -0.3126  0.5140 -1.0008
  970MOL0     C33733   6.542   0.805   0.605 -0.1554 -0.7052  0.6195
  970MOL0     C33734   6.593   0.938   0.562 -0.7352 -1.1727 -0.6098
  970MOL0     C33735   6.683   0.996   0.673 -0.4293 -0.2011 -0.0887
  970MOL0     C33736   6.810   0.913   0.705 -1.1989 -0.2343  0.0752
  970MOL0     C33737   6.900   0.883   0.586  0.5131  0.3686  0.3500
  970MOL0     C33738   6.945   0.997   0.501 -0.0956  0.4343 -0.6115
  970MOL0     N33739   7.004   0.949   0.378  0.2524 -0.0943  0.2562
  970MOL0     C33740   6.980   1.010   0.256  0.6635  0.2193 -0.7576
  970MOL0     C33741   7.053   0.947   0.161  0.1045  0.7891  0.0537
  970MOL0     C33742   7.058   0.966   0.016 -0.8366  0.7085  0.0362
  970MOL0     C33743   7.205   0.950  -0.027  0.3281 -0.7607 -0.6478
  970MOL0     C33744   7.301   1.059   0.006  0.6613  0.6513 -0.7257
  970MOL0     C33745   7.449   1.014   0.019  0.4072  0.9613  0.3130
  970MOL0     O33746   7.530   1.124   0.050 -0.5429  0.0640  0.4656
  970MOL0     C33747   7.587   1.195  -0.046 -0.4106  0.9833  0.1962
  970MOL0     C33748   7.574   1.327  -0.056  0.0569  0.8342  0.3121
  970MOL0     C33749   7.610   1.407  -0.165 -0.0933 -0.9705  0.6427
  970MOL0     C33750   7.557   1.557  -0.165 -0.1170  0.1665  0.0380
  970MOL0     C33751   7.678   1.343  -0.280 -0.2685  0.1106  0.0506
  970MOL0     C33752   7.723   1.411  -0.409  0.2454 -0.2245  0.2648
  970MOL0     O33753   7.694   1.546  -0.430 -0.7168 -0.7626 -0.0928
  970MOL0     C33754   7.760   1.605  -0.533  0.3889 -1.0232  0.4411
  970MOL0     C33755   7.681   1.683  -0.619  0.5395 -0.9677  0.2323
  970MOL0     C33756   7.751   1.747  -0.725  0.1867 -0.5150  0.2472
  970MOL0     C33757   7.885   1.729  -0.742 -0.1655  1.0372  0.3239
  970MOL0     O33758   7.942   1.764  -0.863  0.0187 -1.0009  0.2520
  970MOL0     C33759   8.022   1.668  -0.927 -0.3628  1.0564  0.4870
  970MOL0     C33760   8.163   1.716  -0.927 -0.4240 -0.3047  0.4383
  970MOL0     C33761   8.258   1.608  -0.984 -0.5047 -0.0899 -1.3471
  970MOL0     C33762   8.389   1.676  -1.029 -0.1979 -0.5224 -0.1965
  970MOL0     C33763   8.466   1.578  -1.109  0.1737 -1.3381 -0.2545
  970MOL0     C33764   8.566   1.651  -1.184 -1.2474 -0.3401  0.1426
  970MOL0     C33765   8.656   1.562  -1.279  0.1485  0.1655 -0.3323
  970MOL0     C33766   8.765   1.635  -1.364  0.1710  0.6963  0.1531
  970MOL0    Cl33767   8.894   1.649  -1.235 -0.4009  0.0986  0.3978
  970MOL0     C33768   7.958   1.649  -0.654  0.0989 -0.9830  0.3296
  970MOL0     C33769   7.887   1.583  -0.559  0.8820 -0.1382 -0.3911
  970MOL0     O33770   7.761   1.333  -0.506 -0.0545  0.3049  0.6346
  970MOL0     C33771   7.701   1.206  -0.265  0.1447  0.0077  0.5302
  970MOL0     C33772   7.659   1.139  -0.154 -0.6840  1.3695 -0.0702
  970MOL0     N33773   7.134   0.853   0.230 -0.5420  0.3024 -0.5531
  970MOL0     N33774   7.119   0.878   0.361 -0.0569  0.4542  0.3384
  970MOL0     C33775   6.135   0.742   0.832  0.8389 -0.3991 -0.5236
  970MOL0     C33776   6.012   0.804   0.857  0.9253  0.5658  0.1308
  970MOL0     C33777   5.646   1.092   0.750  0.1398  0.1861  0.2630
  970MOL0     C33778   5.628   1.229   0.721  0.3177 -0.2619 -0.5586
  970MOL0     C33779   5.502   1.294   0.735  0.2776 -0.1050 -0.4817
  970MOL0     C33780   5.391   1.230   0.784 -1.1130  0.0456  0.0770
  970MOL0     O33781   5.271   1.279   0.811 -0.5782 -0.7748  0.6155
  970MOL0     C33782   5.235   1.321   0.947  0.1143  0.7794 -0.2156
  970MOL0     C33783   5.293   1.455   0.998  0.5807  0.0178  0.8263
  970MOL0     C33784   5.250   1.567   0.898 -0.4072  0.1006  0.5877
  970MOL0     C33785   5.284   1.697   0.961 -0.3337 -0.4455 -0.6073
  970MOL0     C33786   5.226   1.797   0.872 -0.7242  0.7780 -0.8403
  970MOL0     C33787   5.183   1.895   0.814 -0.2747  0.6081 -0.2147
  970MOL0     C33788   5.408   1.095   0.818  0.1583  0.0638  0.8811
  970MOL0     C33789   5.531   1.021   0.794  0.1877  0.6806 -0.0188
  970MOL0     C33790   5.540   0.874   0.812  0.1619  0.0161  0.5158
  970MOL0     H33791   5.922   0.836   0.532 -1.4363  1.9567  1.4320
  970MOL0     H33792   6.125   0.727   0.504  0.7758  4.5525 -1.0571
  970MOL0     H33793   6.281   0.608   0.495 -0.2408  1.3951 -1.9974
  970MOL0     H33794   6.437   0.557   0.559 -0.0596 -0.0708  0.0751
  970MOL0     H33795   6.450   0.769   0.417  0.1475 -1.0227 -0.8997
  970MOL0     H33796   6.344   0.844   0.543 -0.0931  0.3354  0.6103
  970MOL0     H33797   6.515   0.819   0.710  0.5908  0.5610  0.6581
  970MOL0     H33798   6.610   0.719   0.602 -0.9850 -1.5637  3.6454
  970MOL0     H33799   6.661   0.924   0.478  3.6036  1.9818  1.9264
  970MOL0     H33800   6.523   1.015   0.527 -1.9533 -1.1986  1.5438
  970MOL0     H33801   6.634   1.006   0.770  0.5620  1.6435  0.2658
  970MOL0     H33802   6.715   1.097   0.646  2.6806 -0.1218  3.1811
  970MOL0     H33803   6.854   0.974   0.785 -1.0774  1.1223 -0.9895
  970MOL0     H33804   6.785   0.813   0.743 -0.2965 -0.0116  1.3196
  970MOL0     H33805   6.838   0.811   0.530 -0.9716  0.1110  2.2201
  970MOL0     H33806   6.991   0.834   0.622 -0.2818 -1.4868 -0.0443
  970MOL0     H33807   6.856   1.056   0.476 -0.3814  0.7239  0.9796
  970MOL0     H33808   7.017   1.061   0.553 -2.3539  2.7372 -0.0618
  970MOL0     H33809   6.910   1.090   0.232  0.7591  0.7783  0.7296
  970MOL0     H33810   7.024   1.060  -0.029  2.3861  0.1871 -4.1958
  970MOL0     H33811   7.000   0.883  -0.027  0.6283  0.4513 -1.5634
  970MOL0     H33812   7.249   0.855   0.006 -0.5811  0.1498  3.9166
  970MOL0     H33813   7.211   0.945  -0.136 -1.7684  0.5014 -0.8763
  970MOL0     H33814   7.293   1.145  -0.062 -0.7889  1.5093  0.4619
  970MOL0     H33815   7.279   1.097   0.106  1.2520 -1.2406  0.1558
  970MOL0     H33816   7.452   0.940   0.099  0.6305  2.1922  1.4810
  970MOL0     H33817   7.493   0.968  -0.070  0.8570  0.7142  0.6541
  970MOL0     H33818   7.524   1.378   0.026  0.5250 -4.9841  4.9459
  970MOL0     H33819   7.458   1.555  -0.118  0.1196 -2.5774  0.5772
  970MOL0     H33820   7.549   1.601  -0.264  1.3832 -0.4701 -0.4004
  970MOL0     H33821   7.612   1.625  -0.098  0.5245 -1.2391  0.9815
  970MOL0     H33822   7.573   1.698  -0.614  0.1993  0.3815 -5.0167
  970MOL0     H33823   7.702   1.812  -0.797  0.4056  2.4232  2.5551
  970MOL0     H33824   8.015   1.564  -0.893 -0.3707  0.6632 -0.6755
  970MOL0     H33825   8.004   1.670  -1.035  1.9483  0.3606  0.0427
  970MOL0     H33826   8.184   1.805  -0.988  0.2906 -0.9228 -0.2531
  970MOL0     H33827   8.177   1.737  -0.821 -3.7428  0.1520  0.8621
  970MOL0     H33828   8.208   1.570  -1.074  2.2720  1.5302 -3.7513
  970MOL0     H33829   8.290   1.543  -0.902 -0.4771  0.5167 -0.8656
  970MOL0     H33830   8.450   1.719  -0.948  1.0552 -0.4469 -1.1490
  970MOL0     H33831   8.363   1.760  -1.094 -1.2870 -0.9948 -0.3804
  970MOL0     H33832   8.513   1.504  -1.043 -0.2126 -0.7312  0.7290
  970MOL0     H33833   8.405   1.533  -1.188  0.8730  0.2554 -1.7552
  970MOL0     H33834   8.633   1.699  -1.113  0.4197 -0.6326 -1.1665
  970MOL0     H33835   8.522   1.740  -1.229 -2.2120 -0.8152  0.1081
  970MOL0     H33836   8.598   1.517  -1.360  2.0884 -1.5107 -0.8816
  970MOL0     H33837   8.699   1.483  -1.217 -0.1140  2.2535  2.7462
  970MOL0     H33838   8.731   1.729  -1.408  0.8410  1.4194  1.1356
  970MOL0     H33839   8.793   1.559  -1.438 -1.9149 -0.9192  0.9127
  970MOL0     H33840   8.067   1.648  -0.664 -0.0029  0.5054 -1.6689
  970MOL0     H33841   7.944   1.516  -0.496 -0.1650 -0.3293  0.3902
  970MOL0     H33842   7.743   1.146  -0.344  0.8183 -1.4058  1.9168
  970MOL0     H33843   7.678   1.032  -0.152 -3.3703  0.7868 -1.0803
  970MOL0     H33844   6.197   0.712   0.916 -0.3801  0.2863  0.6461
  970MOL0     H33845   5.979   0.820   0.959  2.8191  0.9156  0.7296
  970MOL0     H33846   5.700   1.298   0.677 -0.8369 -0.5880 -3.1813
  970MOL0     H33847   5.483   1.399   0.717 -0.1424 -0.0623  0.1831
  970MOL0     H33848   5.125   1.316   0.953  0.0928 -1.2839 -1.2968
  970MOL0     H33849   5.271   1.245   1.016  0.9698 -1.2048 -2.6955
  970MOL0     H33850   5.401   1.437   1.000  0.8460  1.3127 -0.0006
  970MOL0     H33851   5.277   1.480   1.103 -1.3372 -1.6077  0.9848
  970MOL0     H33852   5.311   1.562   0.807 -2.7725 -0.0803 -1.0945
  970MOL0     H33853   5.142   1.558   0.882 -0.5411 -2.3869  2.2023
  970MOL0     H33854   5.392   1.717   0.957 -0.1963 -0.9515  0.3685
  970MOL0     H33855   5.260   1.703   1.067 -1.8768 -0.6955 -0.9160
  970MOL0     H33856   5.151   1.973   0.748 -1.6178 -0.4498 -0.8550
  970MOL0     H33857   5.317   1.047   0.853  0.1703  0.2017  1.1036
  970MOL0     H33858   5.627   0.845   0.871  0.6223  1.7719  0.7746
  970MOL0     H33859   5.450   0.821   0.845  0.7440 -1.3176  0.0408
  970MOL0     H33860   5.562   0.823   0.718 -4.3780 -1.5468  0.0611
  971MOL0     O33861   0.825   1.578   8.065  0.3340 -1.0013 -0.0303
  971MOL0     C33862   0.840   1.598   8.190  0.0502 -0.9482  0.2014
  971MOL0     O33863   0.910   1.698   8.244 -0.4822  0.7850  0.0955
  971MOL0     C33864   0.999   1.768   8.166 -0.0326 -0.5253  0.0947
  971MOL0     C33865   0.983   1.822   8.040  0.5719  0.4547 -0.4049
  971MOL0     C33866   1.073   1.896   7.980  0.2732 -0.3835 -1.2003
  971MOL0     C33867   1.198   1.919   8.046  0.7762  0.0510  0.0329
  971MOL0     O33868   1.304   1.992   7.984  0.2379  0.2887  0.0557
  971MOL0     C33869   1.331   1.959   7.847  0.0246 -0.5353 -0.0285
  971MOL0     C33870   1.474   1.957   7.800  0.4955  0.1858 -0.3435
  971MOL0     C33871   1.577   1.905   7.892 -0.1420 -0.4703  0.8509
  971MOL0     C33872   1.707   1.929   7.816 -1.1551 -0.2322  0.5304
  971MOL0     C33873   1.841   1.902   7.892  0.2721 -0.1613 -0.3243
  971MOL0     C33874   1.966   1.946   7.820 -0.1522  0.0660 -0.8175
  971MOL0     C33875   2.101   1.944   7.905 -0.3411  0.5061 -0.0394
  971MOL0     C33876   2.228   1.967   7.825 -0.1372 -0.2350 -0.0270
  971MOL0     N33877   2.209   2.087   7.731  0.7004  0.3911  0.3158
  971MOL0     C33878   2.159   2.079   7.604  0.3783 -0.0987  0.2310
  971MOL0     C33879   2.125   2.209   7.567  0.0377 -0.7314 -0.7905
  971MOL0     C33880   2.048   2.231   7.439  1.0548  0.2331 -0.7532
  971MOL0     C33881   1.892   2.210   7.446 -0.6535  1.0101  1.0303
  971MOL0     C33882   1.854   2.061   7.453 -0.0349  0.4808  0.4366
  971MOL0     C33883   1.885   1.981   7.329  0.3265  0.6326  0.1474
  971MOL0     O33884   1.820   1.846   7.354 -0.6347  0.4124 -0.0400
  971MOL0     C33885   1.856   1.725   7.291  0.2815  0.4755 -0.1321
  971MOL0     C33886   1.963   1.717   7.194  0.6315 -0.5057  0.0829
  971MOL0     C33887   1.986   1.602   7.122  0.3747  0.0835  0.5781
  971MOL0     C33888   2.097   1.622   7.013  0.0615  0.8589 -0.4080
  971MOL0     C33889   1.917   1.485   7.150 -0.2717  0.1871 -0.3988
  971MOL0     C33890   1.950   1.358   7.085 -1.3874 -0.0949  0.2947
  971MOL0     O33891   1.849   1.289   7.018 -0.5891 -0.0647  0.6361
  971MOL0     C33892   1.878   1.160   6.977  1.3201 -0.3142 -0.5894
  971MOL0     C33893   1.827   1.052   7.048 -0.0508  0.2767 -1.0502
  971MOL0     C33894   1.870   0.922   7.033  0.8000 -0.4813  0.1918
  971MOL0     C33895   1.960   0.893   6.928  0.3074 -0.3665 -0.2498
  971MOL0     O33896   2.020   0.776   6.905 -0.1672 -0.2347 -0.5727
  971MOL0     C33897   2.024   0.675   7.006 -0.5308 -0.0826 -0.6598
  971MOL0     C33898   2.098   0.557   6.973 -0.2116 -0.7388  1.0972
  971MOL0     C33899   2.037   0.496   6.852  0.0580  0.0880  0.7031
  971MOL0     C33900   2.112   0.361   6.830 -0.1436 -0.1127  0.1708
  971MOL0     C33901   2.083   0.289   6.697  0.6535 -0.4026 -1.0181
  971MOL0     C33902   2.143   0.148   6.703 -0.7647  0.3865  0.5279
  971MOL0     C33903   2.124   0.060   6.578  0.1686  1.2359 -0.6333
  971MOL0     C33904   2.207   0.084   6.455  0.4048 -1.1997 -0.0892
  971MOL0    Cl33905   2.219  -0.054   6.346 -0.3670  0.4964  0.3395
  971MOL0     C33906   1.993   1.001   6.848  0.5284  0.9528  0.4098
  971MOL0     C33907   1.956   1.134   6.866  0.2657 -0.7026 -0.7306
  971MOL0     O33908   2.067   1.324   7.090 -0.7642  0.3139  0.4402
  971MOL0     C33909   1.809   1.492   7.233  0.2915 -0.3117 -0.4711
  971MOL0     C33910   1.784   1.607   7.304  0.1196 -0.0787  0.3939
  971MOL0     N33911   2.157   2.291   7.678  0.3904  0.5645  0.6230
  971MOL0     N33912   2.203   2.218   7.767  0.7410 -0.2035  1.1335
  971MOL0     C33913   1.224   1.859   8.170  0.5770  0.5361  0.0185
  971MOL0     C33914   1.122   1.779   8.230  0.5608  1.0345  0.5141
  971MOL0     C33915   0.756   1.521   8.286 -0.6000 -0.4525 -0.7300
  971MOL0     C33916   0.719   1.588   8.410  0.1063 -0.1876  0.0134
  971MOL0     C33917   0.643   1.526   8.509 -0.4428  0.6545  0.1367
  971MOL0     C33918   0.590   1.396   8.483 -1.0802 -0.7191 -0.5425
  971MOL0     O33919   0.508   1.332   8.566 -0.1808 -0.3163 -0.4615
  971MOL0     C33920   0.371   1.370   8.586  1.3085 -0.1514 -0.3865
  971MOL0     C33921   0.278   1.270   8.510  0.1252 -0.4432  0.6524
  971MOL0     C33922   0.261   1.127   8.572 -0.3372  0.0798  0.7698
  971MOL0     C33923   0.155   1.050   8.488 -0.0771 -0.3335 -0.2636
  971MOL0     C33924   0.197   1.000   8.356 -0.2248 -0.1968 -0.0683
  971MOL0     C33925   0.219   0.966   8.245 -1.4700  1.5122  0.2892
  971MOL0     C33926   0.622   1.340   8.366 -0.2094  0.3879  0.3594
  971MOL0     C33927   0.718   1.387   8.270  0.4242 -0.3351 -0.0529
  971MOL0     C33928   0.771   1.295   8.164  0.5426 -0.3011 -0.0036
  971MOL0     H33929   0.883   1.810   7.998 -0.2131 -0.0869  1.5446
  971MOL0     H33930   1.053   1.937   7.881 -0.7977 -2.0614 -1.7214
  971MOL0     H33931   1.294   2.042   7.786  3.7182  1.7343  0.5165
  971MOL0     H33932   1.286   1.859   7.837  1.7496 -1.5868  2.0300
  971MOL0     H33933   1.484   1.898   7.708  2.9607 -2.8554  1.6819
  971MOL0     H33934   1.501   2.057   7.763  1.1514  0.1987  0.1460
  971MOL0     H33935   1.573   1.940   7.995  0.3053 -0.1908  0.7739
  971MOL0     H33936   1.566   1.796   7.896  1.3289 -0.7248 -0.9437
  971MOL0     H33937   1.709   1.862   7.729  0.6731 -0.5888  0.8005
  971MOL0     H33938   1.725   2.029   7.776  0.7973 -0.7087  0.1148
  971MOL0     H33939   1.845   1.797   7.922  1.3740 -0.6080 -1.9454
  971MOL0     H33940   1.836   1.964   7.983 -0.5875 -0.5446 -0.1036
  971MOL0     H33941   1.985   1.883   7.732  0.0991  0.1892 -0.8508
  971MOL0     H33942   1.953   2.049   7.785  1.3342  1.2279  1.8114
  971MOL0     H33943   2.111   1.841   7.941 -1.2277  0.5480  0.3532
  971MOL0     H33944   2.093   2.012   7.990  1.4408 -0.0929  0.6561
  971MOL0     H33945   2.317   1.975   7.887 -1.3374  0.7763  1.6719
  971MOL0     H33946   2.235   1.881   7.758  1.1552  0.9870 -1.5488
  971MOL0     H33947   2.140   1.992   7.542 -0.8278  1.3479 -1.5213
  971MOL0     H33948   2.094   2.166   7.363 -0.9669  0.0213 -1.8577
  971MOL0     H33949   2.062   2.335   7.407 -0.8223  0.7857  0.0795
  971MOL0     H33950   1.844   2.251   7.535 -0.8386  2.4038  0.3249
  971MOL0     H33951   1.843   2.260   7.362 -1.9366 -1.4577  0.2133
  971MOL0     H33952   1.911   2.013   7.533 -2.0022 -2.0775  0.4210
  971MOL0     H33953   1.747   2.044   7.466  0.0604 -0.3928  0.1438
  971MOL0     H33954   1.828   2.016   7.242 -5.5786 -1.6507  2.5231
  971MOL0     H33955   1.994   1.983   7.321  0.4411  0.0767  1.3084
  971MOL0     H33956   2.005   1.808   7.151  0.3241 -1.8881 -3.4222
  971MOL0     H33957   2.195   1.617   7.062  1.9755 -0.0915 -3.9249
  971MOL0     H33958   2.089   1.711   6.950 -0.9469  2.4927  1.8861
  971MOL0     H33959   2.100   1.528   6.957  0.9248 -1.3843  3.1065
  971MOL0     H33960   1.754   1.072   7.125  0.3352  1.1315 -0.8951
  971MOL0     H33961   1.824   0.861   7.110  1.8468 -1.7371 -0.1353
  971MOL0     H33962   2.076   0.716   7.093  1.0864 -0.0644 -1.5854
  971MOL0     H33963   1.925   0.649   7.043 -0.0883  1.2650  1.6613
  971MOL0     H33964   2.200   0.583   6.943  0.1633  0.2285  3.0335
  971MOL0     H33965   2.094   0.487   7.058  0.7440 -2.0711  0.0913
  971MOL0     H33966   2.039   0.550   6.757  0.5110 -1.2044 -0.0449
  971MOL0     H33967   1.930   0.478   6.869 -1.3145  4.2596 -2.0970
  971MOL0     H33968   2.075   0.296   6.910 -1.1333  1.2894  0.9083
  971MOL0     H33969   2.218   0.377   6.850 -0.3345  1.7800 -0.1613
  971MOL0     H33970   1.978   0.291   6.667  1.6768 -1.4364 -5.4127
  971MOL0     H33971   2.131   0.342   6.614  2.1218  0.6048  0.4191
  971MOL0     H33972   2.092   0.090   6.781  1.1168 -5.3646 -1.9552
  971MOL0     H33973   2.250   0.139   6.723 -0.9417 -3.8526  0.4328
  971MOL0     H33974   2.017   0.081   6.565 -0.4630  0.7346  2.8756
  971MOL0     H33975   2.139  -0.045   6.605 -1.4486  1.2648  0.5258
  971MOL0     H33976   2.305   0.118   6.490  1.4492 -0.1927 -3.6271
  971MOL0     H33977   2.168   0.177   6.412  2.0008  0.4942  1.8884
  971MOL0     H33978   2.069   0.978   6.775 -0.0990 -4.6680  1.0513
  971MOL0     H33979   1.989   1.213   6.798  2.1670 -0.8247 -0.0277
  971MOL0     H33980   1.741   1.408   7.252  1.2698 -1.6229 -2.4261
  971MOL0     H33981   1.698   1.604   7.371 -0.9415 -3.3802 -0.9001
  971MOL0     H33982   1.316   1.878   8.223 -0.0967 -2.4732  2.5557
  971MOL0     H33983   1.138   1.716   8.317 -0.5327  2.4666  1.8053
  971MOL0     H33984   0.737   1.694   8.422  0.6242 -0.4843  2.2029
  971MOL0     H33985   0.625   1.574   8.604 -1.8560 -0.5071  0.4995
  971MOL0     H33986   0.353   1.378   8.694  3.3704 -2.1060  0.1691
  971MOL0     H33987   0.346   1.462   8.533  0.3727 -0.3675 -0.3273
  971MOL0     H33988   0.320   1.245   8.412 -2.4534 -1.3205 -0.3133
  971MOL0     H33989   0.181   1.319   8.495 -0.3626 -1.6142 -0.1600
  971MOL0     H33990   0.356   1.073   8.571 -1.2688 -1.6445  0.3505
  971MOL0     H33991   0.216   1.140   8.671 -0.9205  2.4656  0.2477
  971MOL0     H33992   0.066   1.114   8.482  0.9887  1.7824  3.4371
  971MOL0     H33993   0.123   0.962   8.545  0.3319 -0.2620  0.0768
  971MOL0     H33994   0.224   0.926   8.146 -1.6170 -2.0198  1.5990
  971MOL0     H33995   0.564   1.250   8.349  0.8396  0.0391 -1.7187
  971MOL0     H33996   0.779   1.347   8.068 -0.1550  0.5822  0.4034
  971MOL0     H33997   0.868   1.261   8.201 -0.4883 -1.2407  1.9487
  971MOL0     H33998   0.698   1.216   8.144 -0.6566  0.1536  2.2282
  972MOL0     O33999   7.271  10.475  11.284 -0.3725 -1.2337 -0.8633
  972MOL0     C34000   7.344  10.557  11.229  0.0823 -0.9058  0.0572
  972MOL0     O34001   7.330  10.595  11.104  1.1650  0.4170  0.0739
  972MOL0     C34002   7.197  10.608  11.059 -0.2731  0.0866 -0.4014
  972MOL0     C34003   7.132  10.736  11.073 -0.0321  0.3006  0.5460
  972MOL0     C34004   7.011  10.759  11.019  0.4603  0.1929 -0.7399
  972MOL0     C34005   6.943  10.660  10.960  0.4194  1.0942  0.7411
  972MOL0     O34006   6.817  10.673  10.906  0.5596 -0.6954  0.2350
  972MOL0     C34007   6.731  10.799  10.928 -0.8523 -0.0052  0.0486
  972MOL0     C34008   6.677  10.806  11.077 -0.0315 -0.4259  0.5038
  972MOL0     C34009   6.588  10.925  11.092 -0.0732 -0.2391  0.0003
  972MOL0     C34010   6.436  10.893  11.058 -0.5747  0.2331  0.1432
  972MOL0     C34011   6.328  11.010  11.063  0.0619 -0.3816 -1.0603
  972MOL0     C34012   6.318  11.084  10.935 -0.8582  0.4273  0.5846
  972MOL0     C34013   6.241  11.214  10.963 -0.0855 -0.1509 -0.3335
  972MOL0     C34014   6.314  11.325  11.038 -0.3961 -0.1977  0.1013
  972MOL0     N34015   6.207  11.401  11.105 -0.5989  0.1363  0.5692
  972MOL0     C34016   6.144  11.517  11.044 -0.6627 -0.0380  0.3238
  972MOL0     C34017   6.049  11.557  11.131 -0.2020 -0.1592  0.0904
  972MOL0     C34018   5.953  11.661  11.100  0.8672 -0.5025 -1.1755
  972MOL0     C34019   5.841  11.625  11.002 -0.2160  0.4829  0.6723
  972MOL0     C34020   5.715  11.700  11.045  0.9752  0.1641  0.6652
  972MOL0     C34021   5.608  11.668  10.945  0.4925  0.3386 -0.5370
  972MOL0     O34022   5.483  11.732  10.981  0.2354  0.3027 -0.7294
  972MOL0     C34023   5.387  11.735  10.879  0.5015 -0.6918 -0.7450
  972MOL0     C34024   5.372  11.653  10.771  0.4639  0.5198  0.0986
  972MOL0     C34025   5.276  11.665  10.672  1.4317  0.3709  0.6525
  972MOL0     C34026   5.278  11.572  10.556  0.4668  1.2817  0.9340
  972MOL0     C34027   5.180  11.774  10.686 -0.0732  0.5761 -0.7225
  972MOL0     C34028   5.065  11.805  10.591  0.6714 -1.1626  0.5328
  972MOL0     O34029   4.966  11.892  10.616  0.4725 -0.1693 -0.0414
  972MOL0     C34030   4.878  11.940  10.524  0.3859  0.1357  0.5694
  972MOL0     C34031   4.738  11.930  10.547 -0.0816 -0.4302 -0.2798
  972MOL0     C34032   4.649  11.970  10.448 -0.8277 -0.7255  0.2692
  972MOL0     C34033   4.694  12.035  10.328  0.0360  1.1903  0.0713
  972MOL0     O34034   4.615  12.102  10.239  0.3300 -0.5691  0.2826
  972MOL0     C34035   4.581  12.026  10.124  0.7113 -0.4857  0.4786
  972MOL0     C34036   4.456  12.082  10.050  0.0562  0.5095  0.0066
  972MOL0     C34037   4.482  12.217   9.973 -0.5031 -0.5728  0.1194
  972MOL0     C34038   4.358  12.271   9.901  0.2343 -0.1578 -0.3130
  972MOL0     C34039   4.360  12.420   9.855 -0.4302  0.0813  0.5023
  972MOL0     C34040   4.332  12.524   9.968  0.1863  0.2425  0.0865
  972MOL0     C34041   4.418  12.642   9.959  0.9443  0.4341 -0.2559
  972MOL0     C34042   4.440  12.693  10.100 -0.0677 -0.3796 -1.3251
  972MOL0    Cl34043   4.287  12.735  10.179 -0.1205  0.4769 -0.0240
  972MOL0     C34044   4.834  12.053  10.312  1.4974 -0.3317 -0.0553
  972MOL0     C34045   4.924  11.996  10.402 -0.3238 -0.4645 -0.0846
  972MOL0     O34046   5.079  11.751  10.482 -0.0274  0.4754  0.0971
  972MOL0     C34047   5.186  11.863  10.805 -0.2335  1.3325  0.6754
  972MOL0     C34048   5.288  11.833  10.891  0.4198  0.5690  0.1331
  972MOL0     N34049   6.060  11.481  11.246 -0.4821 -0.1917  0.3018
  972MOL0     N34050   6.145  11.387  11.225 -0.5599  0.2577  0.5798
  972MOL0     C34051   7.001  10.538  10.943 -0.5162  0.3126 -0.4895
  972MOL0     C34052   7.131  10.508  10.992 -1.3532 -0.7464  0.9443
  972MOL0     C34053   7.473  10.616  11.297  0.2463  0.0564 -0.1718
  972MOL0     C34054   7.525  10.738  11.249  0.5840 -0.5077  0.5674
  972MOL0     C34055   7.624  10.808  11.319 -0.2665  0.3443 -0.2238
  972MOL0     C34056   7.671  10.754  11.438 -1.1133 -0.0894 -0.0393
  972MOL0     O34057   7.762  10.831  11.514  0.2674  0.4584 -0.6575
  972MOL0     C34058   7.750  10.814  11.655 -0.2912  0.1124  0.3467
  972MOL0     C34059   7.838  10.918  11.725 -0.8955  0.0862  0.4029
  972MOL0     C34060   7.987  10.887  11.726  0.3144  0.0256  0.2856
  972MOL0     C34061   8.059  11.004  11.778 -0.0665 -0.7592  0.1969
  972MOL0     C34062   8.042  11.134  11.699  0.6177 -0.7298  0.4892
  972MOL0     C34063   8.028  11.242  11.644 -0.3326 -0.5559  0.1645
  972MOL0     C34064   7.614  10.630  11.483  0.0186 -0.9612 -0.6965
  972MOL0     C34065   7.521  10.558  11.415  0.9293  0.2658  0.1493
  972MOL0     C34066   7.479  10.427  11.478  0.8160 -0.7407 -0.0537
  972MOL0     H34067   7.183  10.822  11.116  1.9194  0.1234 -1.2685
  972MOL0     H34068   6.975  10.861  11.020  3.6094  1.4239  0.4686
  972MOL0     H34069   6.643  10.793  10.863 -1.5206 -2.7604  1.0721
  972MOL0     H34070   6.793  10.886  10.908 -0.0451 -0.6968 -0.5542
  972MOL0     H34071   6.625  10.714  11.104 -0.3733  0.4123  2.9174
  972MOL0     H34072   6.763  10.814  11.145 -0.8592  0.3470  1.4888
  972MOL0     H34073   6.596  10.949  11.199  3.5230 -3.2372  0.5830
  972MOL0     H34074   6.617  11.011  11.032  0.8926 -0.0752  0.6699
  972MOL0     H34075   6.430  10.844  10.961  2.2970  0.3949 -0.2117
  972MOL0     H34076   6.404  10.818  11.131 -1.6451  0.8302  0.3034
  972MOL0     H34077   6.332  11.065  11.157 -0.7004 -0.3501 -1.0415
  972MOL0     H34078   6.231  10.959  11.072  0.4930 -0.7999  2.1725
  972MOL0     H34079   6.415  11.114  10.893 -0.9642  2.9414  1.9503
  972MOL0     H34080   6.259  11.035  10.858  0.4126  2.4295 -1.8263
  972MOL0     H34081   6.160  11.178  11.027  1.5327  0.1030  2.0051
  972MOL0     H34082   6.214  11.261  10.868  1.1226  2.4272  0.4958
  972MOL0     H34083   6.381  11.292  11.118 -0.4754  1.9726  1.1447
  972MOL0     H34084   6.360  11.391  10.964 -0.7777 -0.7164 -0.6042
  972MOL0     H34085   6.151  11.557  10.943 -0.8666  0.5185  0.5257
  972MOL0     H34086   6.002  11.751  11.062  0.0892  1.0297  1.2692
  972MOL0     H34087   5.897  11.687  11.190  1.6137 -0.0326 -0.8365
  972MOL0     H34088   5.856  11.643  10.895  0.1403 -3.7766 -0.1637
  972MOL0     H34089   5.829  11.516  11.002  2.9400  0.0232 -1.4047
  972MOL0     H34090   5.672  11.677  11.143 -3.5707  2.8554 -0.4152
  972MOL0     H34091   5.715  11.809  11.043 -0.7674  0.2291 -2.8382
  972MOL0     H34092   5.644  11.700  10.846  1.9860 -2.0883 -0.8505
  972MOL0     H34093   5.592  11.560  10.942 -2.2579  0.5236  2.6254
  972MOL0     H34094   5.443  11.572  10.762  1.1390  0.5609  3.4673
  972MOL0     H34095   5.361  11.504  10.578 -1.2658 -1.2452  0.1275
  972MOL0     H34096   5.299  11.623  10.461  0.6129 -1.3007 -0.5330
  972MOL0     H34097   5.194  11.505  10.537  3.4849 -2.6160 -0.0425
  972MOL0     H34098   4.713  11.872  10.635  3.1105 -1.8822 -0.1718
  972MOL0     H34099   4.551  11.930  10.474  0.0203 -1.8042  1.9936
  972MOL0     H34100   4.664  12.024  10.053  0.4010  0.0637  0.0892
  972MOL0     H34101   4.552  11.922  10.141  0.8934 -0.6875 -0.4010
  972MOL0     H34102   4.422  12.016   9.969 -1.8230 -1.0012  1.8857
  972MOL0     H34103   4.367  12.098  10.112 -1.1070 -3.1839 -0.4353
  972MOL0     H34104   4.568  12.206   9.905 -0.6301  0.4859 -0.2349
  972MOL0     H34105   4.498  12.303  10.039 -1.8121  0.6960 -1.1406
  972MOL0     H34106   4.267  12.268   9.963 -1.0016  2.0124 -1.8836
  972MOL0     H34107   4.328  12.215   9.812 -3.1194  1.1025 -0.1373
  972MOL0     H34108   4.455  12.441   9.806 -1.3304  0.2114 -1.3060
  972MOL0     H34109   4.288  12.441   9.775  0.0905  1.0905  0.2828
  972MOL0     H34110   4.355  12.475  10.063 -2.4695 -0.9136  0.2091
  972MOL0     H34111   4.226  12.549   9.961  0.4339  0.8337 -2.5967
  972MOL0     H34112   4.373  12.718   9.895 -0.2735 -0.8922 -1.0275
  972MOL0     H34113   4.522  12.623   9.931  1.5211  3.0585 -0.1142
  972MOL0     H34114   4.492  12.788  10.096 -3.4144  1.6195 -1.5678
  972MOL0     H34115   4.491  12.619  10.163 -2.7534 -0.2937  1.1846
  972MOL0     H34116   4.888  12.092  10.226  1.1264 -0.6317 -0.4297
  972MOL0     H34117   5.032  12.006  10.393 -0.3630  0.7274  0.5927
  972MOL0     H34118   5.114  11.941  10.823 -0.9670  0.8464 -0.0852
  972MOL0     H34119   5.295  11.892  10.982  4.9533  0.0448  0.3204
  972MOL0     H34120   6.946  10.458  10.896 -0.6449 -0.9292  1.6385
  972MOL0     H34121   7.183  10.414  11.010 -0.1021 -0.1738  0.4442
  972MOL0     H34122   7.493  10.785  11.156  1.2436  0.7491  0.9584
  972MOL0     H34123   7.647  10.908  11.284  3.4527 -0.1335  0.4637
  972MOL0     H34124   7.651  10.822  11.701 -0.4409 -4.5286  1.2458
  972MOL0     H34125   7.781  10.713  11.682  1.4398  0.3738 -0.5064
  972MOL0     H34126   7.813  10.916  11.831  1.0338  0.8914  0.9258
  972MOL0     H34127   7.820  11.013  11.676  2.2525 -0.2421 -1.7085
  972MOL0     H34128   8.011  10.793  11.777  1.1869 -0.1720 -0.4530
  972MOL0     H34129   8.017  10.859  11.624 -0.9744  1.5600 -0.5537
  972MOL0     H34130   8.165  10.981  11.766 -0.1627 -1.9421  1.3889
  972MOL0     H34131   8.040  11.013  11.885 -2.9655  2.6626 -0.3957
  972MOL0     H34132   8.021  11.314  11.565  0.4744 -1.5337 -0.8240
  972MOL0     H34133   7.642  10.587  11.578 -1.6649 -0.2123  0.1865
  972MOL0     H34134   7.465  10.355  11.397 -0.7900  0.7123 -1.1438
  972MOL0     H34135   7.538  10.395  11.565  1.6810 -0.8749 -0.6808
  972MOL0     H34136   7.379  10.453  11.515  1.0629 -0.6090  0.5359
  973MOL0     O34137   3.085   8.638   3.471 -0.4924 -0.1568  0.2127
  973MOL0     C34138   3.156   8.701   3.554  0.0810  0.6458 -0.7527
  973MOL0     O34139   3.274   8.762   3.526 -0.4071 -0.0546  0.2590
  973MOL0     C34140   3.338   8.758   3.407  0.7135  0.1486 -0.2971
  973MOL0     C34141   3.303   8.816   3.282  0.0114 -0.7872  0.1733
  973MOL0     C34142   3.390   8.821   3.171  0.2983  0.1505  0.7862
  973MOL0     C34143   3.510   8.752   3.180 -0.1329 -0.4002  0.2456
  973MOL0     O34144   3.586   8.742   3.067  0.2951  0.3122 -0.2704
  973MOL0     C34145   3.685   8.842   3.041 -1.6241 -0.3248  0.6265
  973MOL0     C34146   3.731   8.829   2.890 -0.4302  0.0688 -0.7617
  973MOL0     C34147   3.795   8.697   2.854 -0.8048  0.2365 -0.3860
  973MOL0     C34148   3.942   8.687   2.902  0.6037 -0.2456 -0.3815
  973MOL0     C34149   3.996   8.550   2.898  1.1669  1.3104 -0.0866
  973MOL0     C34150   3.944   8.475   3.014  0.3442 -0.1552  0.1936
  973MOL0     C34151   3.969   8.326   2.986  0.3972 -0.1519 -0.4871
  973MOL0     C34152   3.990   8.243   3.108 -0.1208 -0.4870  0.4371
  973MOL0     N34153   3.853   8.211   3.158 -0.6634 -0.0778 -0.1126
  973MOL0     C34154   3.788   8.296   3.248  0.3138 -0.8802 -0.0122
  973MOL0     C34155   3.676   8.230   3.272  0.5578 -0.4561 -0.2287
  973MOL0     C34156   3.568   8.266   3.382  0.3580 -0.5679  0.8344
  973MOL0     C34157   3.579   8.160   3.493 -0.2709  0.1236 -0.1718
  973MOL0     C34158   3.549   8.009   3.464  0.4987 -0.4126  0.9121
  973MOL0     C34159   3.453   7.940   3.553 -0.5139  1.1558 -0.6490
  973MOL0     O34160   3.328   7.970   3.498 -0.5163 -0.0622 -0.3719
  973MOL0     C34161   3.215   7.893   3.526 -0.1887  0.8748  0.8887
  973MOL0     C34162   3.185   7.755   3.489 -0.2211  0.5022  0.2541
  973MOL0     C34163   3.071   7.685   3.527 -0.3215 -0.3588 -0.2018
  973MOL0     C34164   3.062   7.544   3.480  0.7855 -0.5217  0.3201
  973MOL0     C34165   2.972   7.761   3.603 -0.5725 -0.9977 -0.3789
  973MOL0     C34166   2.859   7.697   3.669  0.2640 -0.1857  0.1841
  973MOL0     O34167   2.774   7.778   3.740  0.6466  0.6777 -0.0178
  973MOL0     C34168   2.633   7.748   3.740 -1.0756  0.3560 -0.0085
  973MOL0     C34169   2.559   7.776   3.625 -0.1030  0.4581 -0.4744
  973MOL0     C34170   2.418   7.755   3.634 -0.2513  0.0416 -0.2992
  973MOL0     C34171   2.356   7.720   3.755 -0.1980 -0.8928  0.9688
  973MOL0     O34172   2.217   7.712   3.761 -0.1058 -0.0907  0.6230
  973MOL0     C34173   2.137   7.802   3.682 -1.3906 -0.5812  0.5394
  973MOL0     C34174   1.986   7.794   3.716 -0.6700  0.6044  0.3382
  973MOL0     C34175   1.938   7.648   3.715  0.5605 -0.2454  0.7910
  973MOL0     C34176   1.796   7.631   3.749  0.3626  0.2351  0.8526
  973MOL0     C34177   1.746   7.487   3.752  0.5229  0.9551  0.0952
  973MOL0     C34178   1.594   7.469   3.765  0.3566 -0.4105 -0.8954
  973MOL0     C34179   1.561   7.502   3.918 -0.1808  0.2475 -0.6654
  973MOL0     C34180   1.414   7.519   3.946 -0.2699  0.0421  0.3284
  973MOL0    Cl34181   1.372   7.521   4.118  0.0700 -0.1682 -0.2154
  973MOL0     C34182   2.431   7.705   3.867 -0.4085  0.6227  0.6083
  973MOL0     C34183   2.574   7.712   3.862 -0.2033  0.3851 -0.1543
  973MOL0     O34184   2.835   7.578   3.646  0.0333  1.3437  0.0537
  973MOL0     C34185   3.003   7.892   3.643 -0.0448  0.0162  1.3853
  973MOL0     C34186   3.116   7.954   3.602  0.8377  0.1372  0.8988
  973MOL0     N34187   3.669   8.121   3.196 -0.0040 -0.0489  0.7261
  973MOL0     N34188   3.769   8.107   3.122 -0.1495  0.2876  0.2660
  973MOL0     C34189   3.549   8.683   3.296  0.3668  0.0084  0.7740
  973MOL0     C34190   3.460   8.688   3.404 -0.9155  0.2811 -0.2650
  973MOL0     C34191   3.116   8.693   3.702 -0.9831 -0.2906 -0.6869
  973MOL0     C34192   3.193   8.779   3.792  0.1098  0.6193  0.7817
  973MOL0     C34193   3.164   8.794   3.928  0.1159  0.4105  0.5457
  973MOL0     C34194   3.054   8.718   3.979 -0.3042  0.8434  0.8322
  973MOL0     O34195   3.025   8.695   4.103  0.8801 -0.4879  0.2385
  973MOL0     C34196   3.067   8.793   4.200 -0.1787  0.5644  0.0795
  973MOL0     C34197   3.065   8.750   4.343 -1.2855  0.1248  1.1462
  973MOL0     C34198   3.146   8.623   4.388  0.5476  0.1020  0.3341
  973MOL0     C34199   3.292   8.634   4.367  0.7834  0.3529 -0.3098
  973MOL0     C34200   3.352   8.721   4.471 -0.5761 -1.0729 -0.2130
  973MOL0     C34201   3.410   8.786   4.554  0.2070  0.1903 -0.4463
  973MOL0     C34202   2.977   8.640   3.890  0.0647 -1.1523  0.3326
  973MOL0     C34203   3.013   8.620   3.747 -0.1847 -0.0180 -0.2483
  973MOL0     C34204   2.928   8.530   3.667  2.0591  0.2040  0.1312
  973MOL0     H34205   3.214   8.878   3.277  0.7412  0.5120  2.2544
  973MOL0     H34206   3.369   8.870   3.076  3.1155  2.0144  0.9714
  973MOL0     H34207   3.777   8.825   3.099 -0.0252 -1.3369 -2.0141
  973MOL0     H34208   3.649   8.945   3.044  0.2765  0.3725  3.0766
  973MOL0     H34209   3.639   8.844   2.833 -1.9437 -0.0117  1.5534
  973MOL0     H34210   3.798   8.910   2.860 -1.5005  0.3674 -2.5194
  973MOL0     H34211   3.733   8.613   2.886  1.0975 -1.0498  0.0968
  973MOL0     H34212   3.803   8.685   2.745  3.5713  0.7910 -0.2942
  973MOL0     H34213   4.007   8.746   2.838  1.4289 -0.2135  0.4616
  973MOL0     H34214   3.950   8.736   3.000 -3.2219 -1.0337  0.4850
  973MOL0     H34215   4.105   8.546   2.899  1.1369 -0.4158 -0.2149
  973MOL0     H34216   3.965   8.496   2.807  0.2476 -0.3193  1.1331
  973MOL0     H34217   3.990   8.515   3.104 -0.7598 -0.7950  1.0757
  973MOL0     H34218   3.836   8.495   3.014  1.0091  4.7645  0.4043
  973MOL0     H34219   4.062   8.316   2.930 -0.9659 -2.8599 -2.5111
  973MOL0     H34220   3.888   8.284   2.925 -1.0727  0.9638  0.6242
  973MOL0     H34221   4.042   8.150   3.084 -0.8221 -0.4350 -1.4814
  973MOL0     H34222   4.060   8.290   3.177  0.2987  1.9813 -1.5547
  973MOL0     H34223   3.831   8.385   3.292 -2.3077  0.0232  0.9378
  973MOL0     H34224   3.475   8.262   3.324  1.6332 -1.3185 -1.2927
  973MOL0     H34225   3.583   8.365   3.426 -3.3456  0.6136 -0.2094
  973MOL0     H34226   3.680   8.160   3.535  0.1624 -0.9018 -1.1852
  973MOL0     H34227   3.513   8.199   3.571 -1.2149 -0.9941 -0.3917
  973MOL0     H34228   3.510   7.998   3.362 -1.3304 -0.9524  1.6307
  973MOL0     H34229   3.642   7.952   3.479  0.0139 -1.0452  1.6066
  973MOL0     H34230   3.485   7.835   3.559  1.7355  1.5320 -3.5225
  973MOL0     H34231   3.458   7.990   3.650  2.1196 -1.1864  0.5727
  973MOL0     H34232   3.256   7.702   3.427 -1.9906 -1.4191 -0.2449
  973MOL0     H34233   3.142   7.517   3.410 -0.6246 -1.9598 -0.8192
  973MOL0     H34234   2.979   7.547   3.408  2.9953  0.3688 -2.3456
  973MOL0     H34235   3.060   7.467   3.558 -0.3518 -1.8419 -0.9278
  973MOL0     H34236   2.596   7.798   3.526  0.3475  1.4020 -0.1041
  973MOL0     H34237   2.365   7.773   3.541  2.4923  0.3814 -1.9282
  973MOL0     H34238   2.151   7.909   3.698 -0.3386 -0.7723  1.0144
  973MOL0     H34239   2.152   7.775   3.577 -0.7177  0.3219  0.3965
  973MOL0     H34240   1.960   7.841   3.811 -0.2342  1.8371 -0.1362
  973MOL0     H34241   1.934   7.851   3.638  2.1297  0.9578 -1.3867
  973MOL0     H34242   1.996   7.587   3.785  1.9209  0.2471  0.1192
  973MOL0     H34243   1.954   7.599   3.619  0.2911 -1.9216  1.5684
  973MOL0     H34244   1.740   7.689   3.675 -2.8389 -1.7139  1.5490
  973MOL0     H34245   1.768   7.677   3.843 -1.4722 -2.9163  2.0117
  973MOL0     H34246   1.778   7.443   3.657  1.1233 -0.1400  0.7887
  973MOL0     H34247   1.797   7.439   3.836  1.6355  0.1621 -0.9951
  973MOL0     H34248   1.557   7.369   3.741 -1.9681  0.7039 -2.3226
  973MOL0     H34249   1.552   7.548   3.701  1.7130  1.0915 -0.0083
  973MOL0     H34250   1.604   7.591   3.965  1.1721 -2.9730  5.1226
  973MOL0     H34251   1.596   7.424   3.986 -1.3818 -0.4241 -0.7868
  973MOL0     H34252   1.355   7.439   3.901  2.1832 -0.6161 -1.9935
  973MOL0     H34253   1.386   7.618   3.908  2.4013  0.7194 -0.1296
  973MOL0     H34254   2.361   7.688   3.948  0.8547  3.5030  2.4790
  973MOL0     H34255   2.630   7.708   3.955 -2.4584  0.2566  1.2833
  973MOL0     H34256   2.939   7.955   3.703 -2.1064 -1.8806  1.2978
  973MOL0     H34257   3.134   8.057   3.633  2.2411  0.8260 -1.9008
  973MOL0     H34258   3.641   8.626   3.293 -0.3335 -1.1072 -0.7461
  973MOL0     H34259   3.485   8.636   3.496  2.8327  0.1151 -1.2291
  973MOL0     H34260   3.273   8.845   3.758 -0.9345  1.8512  0.6755
  973MOL0     H34261   3.231   8.850   3.993  0.8617  0.7656 -0.4929
  973MOL0     H34262   3.170   8.826   4.182 -0.3637 -0.2222 -3.0926
  973MOL0     H34263   3.004   8.882   4.192 -0.3197  0.6456  1.7117
  973MOL0     H34264   2.960   8.725   4.365 -1.2771  2.1738  3.9654
  973MOL0     H34265   3.098   8.836   4.400  2.1195  2.5596 -3.7710
  973MOL0     H34266   3.114   8.591   4.488  0.3088 -0.1577  0.1751
  973MOL0     H34267   3.115   8.542   4.322 -0.7766  2.0526 -1.5819
  973MOL0     H34268   3.324   8.666   4.268 -0.1372 -1.1032 -1.1015
  973MOL0     H34269   3.331   8.533   4.380 -0.4107 -0.1023 -0.2050
  973MOL0     H34270   3.460   8.850   4.624  0.9884  1.0600 -1.7453
  973MOL0     H34271   2.891   8.594   3.937 -1.7275  0.1573 -1.5306
  973MOL0     H34272   2.851   8.581   3.609 -0.3182  0.2976  3.1119
  973MOL0     H34273   2.985   8.473   3.593  2.1115  0.7130 -0.2262
  973MOL0     H34274   2.866   8.463   3.727 -1.7731  0.1545 -3.4368
  974MOL0     O34275   3.935   1.218   0.181 -0.9006  0.2385  0.2898
  974MOL0     C34276   3.984   1.149   0.274  0.0453 -0.4542  0.5939
  974MOL0     O34277   3.923   1.033   0.314  0.7862  0.1217  0.7946
  974MOL0     C34278   3.836   0.972   0.234 -0.0834  0.0230 -0.0213
  974MOL0     C34279   3.694   0.982   0.234  0.9751  0.6906 -1.5691
  974MOL0     C34280   3.609   0.894   0.157  0.0915  0.4621  0.1983
  974MOL0     C34281   3.678   0.802   0.074 -0.8705 -0.2023 -0.3314
  974MOL0     O34282   3.604   0.716   0.004  0.2207 -0.4942  0.1293
  974MOL0     C34283   3.481   0.764  -0.070  0.2729 -0.4766 -0.8571
  974MOL0     C34284   3.366   0.675   0.000  0.2222  0.3719  0.4580
  974MOL0     C34285   3.235   0.717  -0.072  0.2953  0.8587 -0.2363
  974MOL0     C34286   3.126   0.612  -0.024 -0.2124 -0.2023  0.4083
  974MOL0     C34287   3.117   0.602   0.138 -0.2764  0.5566 -0.0757
  974MOL0     C34288   3.071   0.733   0.206 -1.0874  0.7872  0.8196
  974MOL0     C34289   3.023   0.715   0.355 -0.7092  1.4603  1.0032
  974MOL0     C34290   3.148   0.689   0.438  0.0248 -0.4898  0.2863
  974MOL0     N34291   3.229   0.813   0.448 -0.6705 -0.5588 -0.4184
  974MOL0     C34292   3.205   0.918   0.528 -0.1928 -0.0021 -0.4690
  974MOL0     C34293   3.307   1.011   0.506  0.3564 -0.5714  1.4575
  974MOL0     C34294   3.306   1.152   0.572  0.7615  0.0235 -0.4020
  974MOL0     C34295   3.295   1.260   0.477  0.9702  0.0634  0.2957
  974MOL0     C34296   3.191   1.264   0.367  0.5347  0.1222  0.3903
  974MOL0     C34297   3.204   1.375   0.275  0.2562 -0.7303 -0.3532
  974MOL0     O34298   3.320   1.352   0.188  0.3208 -0.8043  0.2879
  974MOL0     C34299   3.306   1.263   0.084 -0.2950 -0.2170  0.7510
  974MOL0     C34300   3.179   1.230   0.024  0.3217  0.4857  0.0987
  974MOL0     C34301   3.181   1.136  -0.084 -0.9797 -0.2113  1.2904
  974MOL0     C34302   3.046   1.102  -0.139  0.5678 -0.2032 -0.2266
  974MOL0     C34303   3.309   1.092  -0.145  0.6236 -0.7552  0.5542
  974MOL0     C34304   3.321   1.008  -0.259  0.0751  0.1659  0.5348
  974MOL0     O34305   3.451   0.963  -0.305  0.0663 -0.7313 -0.1331
  974MOL0     C34306   3.460   0.919  -0.434 -1.1496  0.0780 -0.9713
  974MOL0     C34307   3.538   0.997  -0.519 -0.1986 -0.1506 -0.4710
  974MOL0     C34308   3.564   0.955  -0.650 -1.4926  0.3529 -0.5419
  974MOL0     C34309   3.515   0.831  -0.693 -1.7108  0.2691 -1.2382
  974MOL0     O34310   3.556   0.788  -0.817  0.2722 -0.7061 -0.0217
  974MOL0     C34311   3.478   0.684  -0.872 -0.2065 -0.1248  0.9476
  974MOL0     C34312   3.533   0.669  -1.021  0.8369 -0.8125 -0.4214
  974MOL0     C34313   3.450   0.555  -1.098 -0.1853 -0.3478 -0.2729
  974MOL0     C34314   3.504   0.409  -1.097  0.0479 -0.1592  2.4221
  974MOL0     C34315   3.386   0.304  -1.121  0.3042 -0.4750 -0.0134
  974MOL0     C34316   3.364   0.294  -1.275 -0.3010 -0.3660 -0.5753
  974MOL0     C34317   3.257   0.193  -1.323  0.6272  0.1167 -0.1029
  974MOL0     C34318   3.269   0.164  -1.471 -0.9689 -0.2092  0.0418
  974MOL0    Cl34319   3.128   0.157  -1.570  0.4282  0.6095 -0.1342
  974MOL0     C34320   3.426   0.754  -0.605 -0.0042 -0.3731 -0.0602
  974MOL0     C34321   3.411   0.797  -0.475  0.0146  0.2790  0.3771
  974MOL0     O34322   3.210   0.972  -0.313 -1.2981 -0.3793  0.1733
  974MOL0     C34323   3.422   1.141  -0.089 -0.0455 -0.2412  0.6491
  974MOL0     C34324   3.423   1.222   0.025  0.1685 -0.2874 -0.1404
  974MOL0     N34325   3.392   0.957   0.407  0.9200  0.0597  0.2621
  974MOL0     N34326   3.352   0.838   0.389  0.2764 -0.2435  0.3796
  974MOL0     C34327   3.823   0.787   0.075 -0.3180 -0.0640 -0.5645
  974MOL0     C34328   3.895   0.877   0.161  0.7200  0.1984 -0.4536
  974MOL0     C34329   4.110   1.193   0.344 -0.2470  0.0173  0.2869
  974MOL0     C34330   4.171   1.094   0.420  0.2686 -0.9090 -0.2405
  974MOL0     C34331   4.282   1.123   0.501  0.1602  0.7171 -1.2187
  974MOL0     C34332   4.347   1.246   0.505 -0.0094 -0.4500  0.0558
  974MOL0     O34333   4.460   1.273   0.592  0.1673 -0.0412 -0.1299
  974MOL0     C34334   4.429   1.370   0.685  0.2087 -0.3636 -0.0689
  974MOL0     C34335   4.311   1.339   0.792 -0.3166 -0.2503  0.6227
  974MOL0     C34336   4.275   1.451   0.878 -0.2819  0.4523  0.5421
  974MOL0     C34337   4.246   1.417   1.025  0.8060 -0.2453  0.0163
  974MOL0     C34338   4.150   1.307   1.042  0.0496 -0.0519 -0.3926
  974MOL0     C34339   4.072   1.213   1.062 -0.4271  0.0888 -0.3033
  974MOL0     C34340   4.284   1.351   0.427 -0.9220  0.2324 -0.4926
  974MOL0     C34341   4.174   1.319   0.344  0.2048  0.0178 -0.4999
  974MOL0     C34342   4.120   1.434   0.269  0.1835  0.4132 -0.5549
  974MOL0     H34343   3.661   1.062   0.300  2.6579 -0.1161  0.3311
  974MOL0     H34344   3.501   0.900   0.165  0.0902 -0.8463  1.6433
  974MOL0     H34345   3.484   0.745  -0.177  1.9581 -1.3244 -0.6916
  974MOL0     H34346   3.455   0.867  -0.044  1.3882 -0.8546  2.1462
  974MOL0     H34347   3.378   0.567  -0.016  1.4638  0.7792 -1.5701
  974MOL0     H34348   3.367   0.702   0.106 -0.3168  3.3760 -0.2258
  974MOL0     H34349   3.210   0.819  -0.041 -0.8798  0.5994 -0.2551
  974MOL0     H34350   3.249   0.714  -0.180 -0.1141  0.4558 -0.2820
  974MOL0     H34351   3.030   0.640  -0.067  1.6016  1.4642 -3.0241
  974MOL0     H34352   3.158   0.514  -0.062 -2.5784 -0.8082 -0.1355
  974MOL0     H34353   3.208   0.574   0.191  0.1785  0.8008 -0.7051
  974MOL0     H34354   3.043   0.523   0.149  0.7367 -0.6910 -1.6946
  974MOL0     H34355   3.150   0.808   0.201  0.7136 -1.0798  0.3903
  974MOL0     H34356   2.984   0.756   0.143 -1.1748 -5.4572 -2.0451
  974MOL0     H34357   2.957   0.628   0.347  1.4736 -0.0895 -3.6266
  974MOL0     H34358   2.973   0.808   0.386 -0.4242  1.8152  0.4297
  974MOL0     H34359   3.120   0.656   0.539  0.6810 -1.0520  0.2944
  974MOL0     H34360   3.209   0.613   0.388  0.4928  3.1663 -5.5880
  974MOL0     H34361   3.120   0.929   0.596  0.2391 -0.2525  0.1265
  974MOL0     H34362   3.405   1.156   0.619  1.3763 -3.1433 -1.1918
  974MOL0     H34363   3.216   1.160   0.633  0.2177 -0.2452 -1.1554
  974MOL0     H34364   3.296   1.359   0.525 -3.4738  0.9863 -0.9861
  974MOL0     H34365   3.386   1.261   0.416  2.0566  0.5314  1.8609
  974MOL0     H34366   3.213   1.176   0.305 -1.2798  1.4173 -2.2677
  974MOL0     H34367   3.097   1.248   0.421  0.4435 -6.2742 -0.8972
  974MOL0     H34368   3.117   1.393   0.211 -0.4469  0.0431  0.7788
  974MOL0     H34369   3.209   1.459   0.345  1.0731 -0.8977 -0.1998
  974MOL0     H34370   3.085   1.264   0.067 -0.1420 -1.8726  1.0913
  974MOL0     H34371   3.032   0.994  -0.138 -1.6074 -0.0231 -2.2868
  974MOL0     H34372   3.021   1.140  -0.238  1.9287  1.6312  0.0652
  974MOL0     H34373   2.961   1.140  -0.080  1.0516 -1.7457  1.5654
  974MOL0     H34374   3.572   1.096  -0.489 -3.5957  1.3636 -1.0549
  974MOL0     H34375   3.615   1.015  -0.724  0.6369  0.4705  0.9465
  974MOL0     H34376   3.478   0.589  -0.817  0.8566 -1.2868 -0.9320
  974MOL0     H34377   3.373   0.714  -0.880  0.4769  2.1786 -0.2862
  974MOL0     H34378   3.521   0.768  -1.066 -1.4778 -1.5048 -1.4650
  974MOL0     H34379   3.641   0.650  -1.031  1.2735  1.5926 -0.8518
  974MOL0     H34380   3.440   0.575  -1.205  2.1697 -0.9149 -0.6680
  974MOL0     H34381   3.354   0.547  -1.047  1.0919 -0.9377  2.2159
  974MOL0     H34382   3.563   0.378  -1.011  5.5166 -4.2092 -2.0420
  974MOL0     H34383   3.585   0.398  -1.169 -1.1991 -2.8977  1.2992
  974MOL0     H34384   3.424   0.208  -1.085  0.1748 -0.7684 -0.6545
  974MOL0     H34385   3.300   0.341  -1.064  0.0249 -0.8199 -0.2134
  974MOL0     H34386   3.461   0.270  -1.321 -0.3251  0.5047 -1.0973
  974MOL0     H34387   3.328   0.392  -1.308  0.7439 -0.0551 -0.8625
  974MOL0     H34388   3.162   0.246  -1.321 -0.0856 -1.0967 -0.7686
  974MOL0     H34389   3.242   0.105  -1.259 -2.4233  0.8718  0.3427
  974MOL0     H34390   3.318   0.067  -1.481 -0.8769 -0.2183  0.5193
  974MOL0     H34391   3.336   0.234  -1.520 -2.7605  0.4846 -1.5217
  974MOL0     H34392   3.377   0.661  -0.633 -0.1272  0.0053 -1.1206
  974MOL0     H34393   3.344   0.737  -0.414  0.1641 -1.8937 -1.4350
  974MOL0     H34394   3.519   1.129  -0.135  0.4914  1.5190  1.2288
  974MOL0     H34395   3.517   1.266   0.059 -1.0935  1.3561  1.4050
  974MOL0     H34396   3.864   0.703   0.020 -1.2340  0.9155 -2.8730
  974MOL0     H34397   4.002   0.860   0.175  0.2245 -2.8271  0.3407
  974MOL0     H34398   4.146   0.988   0.417  2.7499 -1.5802  0.6644
  974MOL0     H34399   4.323   1.043   0.562 -4.4625 -1.3482 -0.3969
  974MOL0     H34400   4.519   1.407   0.735  0.2623 -1.0542  0.3687
  974MOL0     H34401   4.401   1.462   0.635  0.3233 -0.2993 -0.0163
  974MOL0     H34402   4.352   1.260   0.856  1.6933  2.4714  2.9889
  974MOL0     H34403   4.228   1.295   0.737 -0.6196  1.9177 -0.7742
  974MOL0     H34404   4.366   1.512   0.870 -0.0833  0.3537  1.9086
  974MOL0     H34405   4.195   1.512   0.837  0.3670 -0.0689 -1.6336
  974MOL0     H34406   4.191   1.500   1.072  0.2032  0.5176 -1.9317
  974MOL0     H34407   4.342   1.394   1.071  1.5647 -1.9509 -2.2589
  974MOL0     H34408   4.000   1.134   1.063  0.1400 -0.4443 -0.4774
  974MOL0     H34409   4.331   1.447   0.415  0.0546 -0.3736 -1.7468
  974MOL0     H34410   4.188   1.520   0.260  1.3862 -0.6692 -2.5364
  974MOL0     H34411   4.092   1.410   0.166  1.2679  0.8118 -0.9555
  974MOL0     H34412   4.026   1.464   0.315 -0.5884 -4.8661  1.9970
  975MOL0     O34413   3.736  11.398  11.112 -0.1406  0.0981 -0.0978
  975MOL0     C34414   3.701  11.282  11.105 -0.1433  0.1971  0.3519
  975MOL0     O34415   3.731  11.181  11.195  0.0379 -0.5895  0.1250
  975MOL0     C34416   3.804  11.220  11.306  0.2395 -0.1905  0.3211
  975MOL0     C34417   3.941  11.221  11.299  0.6740  1.2468  0.0775
  975MOL0     C34418   4.025  11.255  11.408  0.4512 -0.8425 -0.8529
  975MOL0     C34419   3.966  11.284  11.533 -1.1503 -0.3332 -0.0443
  975MOL0     O34420   4.067  11.308  11.624 -0.6779  0.7959  0.0517
  975MOL0     C34421   4.042  11.360  11.757 -0.4398  0.5205 -0.2851
  975MOL0     C34422   3.989  11.502  11.763  0.2890  0.7769  0.1102
  975MOL0     C34423   4.080  11.593  11.680 -0.3958  0.2791 -0.4237
  975MOL0     C34424   4.213  11.624  11.747 -0.7486 -0.3793 -0.1472
  975MOL0     C34425   4.270  11.751  11.700  0.2236  0.4381 -0.3859
  975MOL0     C34426   4.214  11.878  11.763  0.6473 -0.7469  1.2725
  975MOL0     C34427   4.272  11.997  11.700 -0.6526  0.6852  0.5719
  975MOL0     C34428   4.235  12.113  11.785  0.5200  0.7404 -0.2218
  975MOL0     N34429   4.265  12.239  11.713  0.4991 -0.7733  0.8677
  975MOL0     C34430   4.214  12.298  11.596  0.1442 -0.3805 -0.4031
  975MOL0     C34431   4.263  12.426  11.593 -0.7992 -0.0445  0.8270
  975MOL0     C34432   4.244  12.526  11.479  0.7106 -0.1112  0.2065
  975MOL0     C34433   4.199  12.664  11.526 -0.3217  0.1743  0.6910
  975MOL0     C34434   4.306  12.761  11.565 -0.1524  0.4847 -0.1621
  975MOL0     C34435   4.282  12.881  11.482  0.0514 -0.8530  0.0301
  975MOL0     O34436   4.395  12.974  11.514  0.3810  0.0563  0.5568
  975MOL0     C34437   4.391  13.090  11.434 -0.0057  0.2501 -0.7228
  975MOL0     C34438   4.505  13.164  11.450 -0.3366  0.2467  0.8619
  975MOL0     C34439   4.524  13.283  11.378  0.4553  0.0839 -0.5347
  975MOL0     C34440   4.655  13.352  11.408  0.6829  0.5923  0.2361
  975MOL0     C34441   4.421  13.331  11.287  0.4001  0.3928 -0.2652
  975MOL0     C34442   4.425  13.456  11.203 -1.3408  0.2889  1.0100
  975MOL0     O34443   4.310  13.496  11.133 -0.3540  0.4509  0.5069
  975MOL0     C34444   4.304  13.625  11.082  0.1301  0.1803 -0.5944
  975MOL0     C34445   4.236  13.669  10.964  0.4738 -0.7775 -0.2076
  975MOL0     C34446   4.227  13.801  10.923  0.0601  0.4063 -0.4300
  975MOL0     C34447   4.278  13.906  11.002  0.1318  0.5013 -0.7890
  975MOL0     O34448   4.270  14.044  10.977 -0.5563  0.5848  0.6674
  975MOL0     C34449   4.237  14.089  10.844 -0.7847 -0.2859  0.6464
  975MOL0     C34450   4.244  14.239  10.849  0.2654  0.3755 -0.7220
  975MOL0     C34451   4.108  14.286  10.932 -0.1209  0.3983  0.4903
  975MOL0     C34452   4.095  14.444  10.923  0.8067 -1.2926 -0.5701
  975MOL0     C34453   4.005  14.508  11.032  0.4242  0.3584 -0.0438
  975MOL0     C34454   4.014  14.655  11.042  0.1334 -1.2146 -0.7084
  975MOL0     C34455   3.980  14.744  10.925 -1.3322 -0.1143  0.3626
  975MOL0     C34456   4.112  14.801  10.869 -0.6596 -0.2627  0.5808
  975MOL0    Cl34457   4.255  14.862  10.987 -0.2479 -0.0327  0.0888
  975MOL0     C34458   4.326  13.873  11.132 -1.0661 -0.5817 -0.5967
  975MOL0     C34459   4.351  13.736  11.162 -0.1145 -0.1146  0.3515
  975MOL0     O34460   4.528  13.517  11.196 -0.1317  0.2339 -0.1803
  975MOL0     C34461   4.305  13.249  11.282 -0.1723  0.9120  0.2794
  975MOL0     C34462   4.291  13.135  11.354  0.9691  0.1602  0.4495
  975MOL0     N34463   4.327  12.441  11.710 -0.5765 -0.0235  0.2412
  975MOL0     N34464   4.334  12.335  11.774 -0.2099  0.4248 -0.1874
  975MOL0     C34465   3.824  11.293  11.546 -0.1310 -1.4758 -0.2406
  975MOL0     C34466   3.750  11.268  11.423  0.7602 -0.3568  0.7802
  975MOL0     C34467   3.618  11.229  10.988 -0.0184 -0.0535 -0.8948
  975MOL0     C34468   3.537  11.115  11.010  0.6434  1.3088  0.0565
  975MOL0     C34469   3.442  11.071  10.922 -0.8579 -0.1608  1.1776
  975MOL0     C34470   3.437  11.130  10.795  0.1690  0.1014  0.4041
  975MOL0     O34471   3.346  11.094  10.700 -0.1020  0.5248  0.2509
  975MOL0     C34472   3.243  11.003  10.732 -0.1460 -0.4567 -0.6265
  975MOL0     C34473   3.169  10.970  10.607 -0.4455  0.9286 -0.2513
  975MOL0     C34474   3.244  10.877  10.510  0.3700 -0.3348 -0.0086
  975MOL0     C34475   3.180  10.907  10.375  0.4335 -0.3210  0.9226
  975MOL0     C34476   3.238  11.016  10.295 -1.0127  0.3844 -0.2858
  975MOL0     C34477   3.296  11.114  10.243  0.0851  0.6481  0.0995
  975MOL0     C34478   3.532  11.224  10.765 -0.3272  0.5306  0.3150
  975MOL0     C34479   3.614  11.288  10.864  0.4740  0.4082  0.3041
  975MOL0     C34480   3.666  11.420  10.834 -1.0256 -0.3122  0.6045
  975MOL0     H34481   3.981  11.195  11.201  0.3727 -1.9413  0.6912
  975MOL0     H34482   4.131  11.271  11.389  0.7589 -2.5699 -0.8062
  975MOL0     H34483   4.137  11.370  11.810  1.1530 -0.9711 -2.6637
  975MOL0     H34484   3.981  11.299  11.824 -0.6873  5.1722  4.4378
  975MOL0     H34485   3.890  11.504  11.716  0.2766  1.0607  0.1499
  975MOL0     H34486   3.964  11.536  11.864 -0.1210 -0.7430  0.5462
  975MOL0     H34487   4.096  11.564  11.576 -0.3217  1.8357 -0.8759
  975MOL0     H34488   4.027  11.688  11.665 -1.3033  0.5196  3.3572
  975MOL0     H34489   4.205  11.619  11.856 -0.4861  0.6266 -0.0783
  975MOL0     H34490   4.279  11.545  11.709  1.3977  1.1081  0.3267
  975MOL0     H34491   4.271  11.754  11.591 -2.8889 -2.4824 -0.6367
  975MOL0     H34492   4.374  11.754  11.734 -0.2404  2.7181  1.0261
  975MOL0     H34493   4.106  11.882  11.746  1.0499  1.7671 -1.5145
  975MOL0     H34494   4.237  11.883  11.870  0.9850 -0.0713  1.1727
  975MOL0     H34495   4.241  12.010  11.596 -1.2190  1.6456  0.8481
  975MOL0     H34496   4.382  11.997  11.696 -0.6697  1.8450 -2.0662
  975MOL0     H34497   4.132  12.099  11.817  0.9688  0.3882  1.1021
  975MOL0     H34498   4.296  12.107  11.876 -1.4735 -0.7139  1.0871
  975MOL0     H34499   4.150  12.249  11.523  0.4032 -0.1146 -0.8162
  975MOL0     H34500   4.164  12.483  11.419 -1.1052  0.1653  2.3106
  975MOL0     H34501   4.336  12.548  11.424 -0.9815  4.7362 -1.1928
  975MOL0     H34502   4.151  12.703  11.436 -0.5726  2.5780  1.8020
  975MOL0     H34503   4.123  12.664  11.605  1.6680  1.8811  2.7508
  975MOL0     H34504   4.289  12.770  11.673  0.0102 -1.5143  0.0695
  975MOL0     H34505   4.409  12.727  11.546 -0.8011 -2.5642  1.1865
  975MOL0     H34506   4.280  12.863  11.375  3.5783  0.5470 -0.3993
  975MOL0     H34507   4.182  12.919  11.505 -0.5591 -1.5541 -1.3602
  975MOL0     H34508   4.577  13.126  11.521  3.3843  2.5853 -1.3425
  975MOL0     H34509   4.629  13.455  11.434  1.4645  0.8214  0.1276
  975MOL0     H34510   4.711  13.340  11.316 -1.4671 -2.9841 -0.8043
  975MOL0     H34511   4.734  13.320  11.476  0.6372  2.8008  1.4273
  975MOL0     H34512   4.203  13.591  10.896 -1.6334  1.6252 -2.1826
  975MOL0     H34513   4.175  13.822  10.831  0.5413 -0.0073 -0.8006
  975MOL0     H34514   4.319  14.058  10.779  2.4610  2.6286  3.0029
  975MOL0     H34515   4.136  14.051  10.823  0.1999 -1.8575 -1.6092
  975MOL0     H34516   4.337  14.268  10.899 -0.6440 -3.7770  4.3880
  975MOL0     H34517   4.241  14.270  10.745  1.2663 -1.1300 -1.2252
  975MOL0     H34518   4.128  14.242  11.030 -1.0237  0.0186  0.5078
  975MOL0     H34519   4.009  14.243  10.917 -0.6050  2.0037 -1.3294
  975MOL0     H34520   4.064  14.471  10.822 -1.7766  1.3981  0.7819
  975MOL0     H34521   4.190  14.498  10.935 -0.7965  1.7089 -0.3325
  975MOL0     H34522   3.904  14.484  10.999  0.5088 -0.3570  0.1806
  975MOL0     H34523   4.027  14.464  11.130  2.3688  0.3417 -0.4406
  975MOL0     H34524   4.109  14.689  11.084  1.3535  2.5129 -5.4936
  975MOL0     H34525   3.941  14.678  11.120 -0.3984  1.2154 -1.8074
  975MOL0     H34526   3.906  14.817  10.959 -0.5909  0.2184  1.3100
  975MOL0     H34527   3.935  14.681  10.847 -0.5797  0.2102 -0.3409
  975MOL0     H34528   4.081  14.881  10.801 -0.9448 -2.7926 -2.5104
  975MOL0     H34529   4.161  14.726  10.806  0.3277  0.6500  0.2416
  975MOL0     H34530   4.353  13.956  11.196  2.0562 -1.8542 -0.1007
  975MOL0     H34531   4.391  13.719  11.262 -1.5471 -3.1514  0.5128
  975MOL0     H34532   4.232  13.264  11.203 -0.8261 -3.3848 -0.1743
  975MOL0     H34533   4.205  13.070  11.341  0.7150  0.8526 -1.7649
  975MOL0     H34534   3.768  11.316  11.636 -0.9734 -1.5647 -0.7260
  975MOL0     H34535   3.643  11.284  11.420  0.6117 -1.2653  0.8099
  975MOL0     H34536   3.536  11.068  11.108 -1.3713 -2.1863 -1.4543
  975MOL0     H34537   3.376  10.991  10.954 -2.7318 -0.1921 -2.2680
  975MOL0     H34538   3.271  10.903  10.766 -0.4014 -2.1260 -4.7160
  975MOL0     H34539   3.167  11.026  10.808  1.6248 -1.3293  1.5069
  975MOL0     H34540   3.154  11.068  10.561 -1.8145 -0.0620 -2.0397
  975MOL0     H34541   3.064  10.944  10.627 -0.0681 -1.3804 -1.0030
  975MOL0     H34542   3.353  10.882  10.509  0.5060 -2.5680 -0.7256
  975MOL0     H34543   3.210  10.777  10.538 -0.0181  0.0276  0.8607
  975MOL0     H34544   3.073  10.929  10.383  0.3778 -0.8594  1.7177
  975MOL0     H34545   3.188  10.821  10.309  1.1981 -2.0765  3.1679
  975MOL0     H34546   3.349  11.199  10.205  0.6253 -0.1377 -0.9604
  975MOL0     H34547   3.530  11.265  10.664 -0.6861 -2.8943 -1.1884
  975MOL0     H34548   3.774  11.405  10.843 -0.5414  3.0823  2.3304
  975MOL0     H34549   3.641  11.464  10.737 -0.0016 -0.9646  0.0217
  975MOL0     H34550   3.627  11.487  10.911 -2.9537 -2.7527  1.8702
  976MOL0     O34551   0.374   2.826   4.169 -0.1963  0.0685  0.2403
  976MOL0     C34552   0.489   2.862   4.208  0.3531  0.2959 -0.5976
  976MOL0     O34553   0.597   2.891   4.127 -0.1182  0.8364 -0.4254
  976MOL0     C34554   0.564   2.948   4.005 -0.0794  0.4924 -0.3552
  976MOL0     C34555   0.570   3.085   3.972 -0.3919 -0.4057  0.4647
  976MOL0     C34556   0.557   3.123   3.835 -0.0417 -0.8603 -0.0116
  976MOL0     C34557   0.531   3.035   3.736 -0.3443 -0.9459 -0.8307
  976MOL0     O34558   0.510   3.068   3.608  0.3629 -0.5878 -0.3998
  976MOL0     C34559   0.373   3.100   3.576  0.5598  0.3296 -0.1019
  976MOL0     C34560   0.345   3.241   3.602 -0.3762  0.6268  0.1879
  976MOL0     C34561   0.232   3.297   3.511 -0.1325  0.2891 -0.3449
  976MOL0     C34562   0.289   3.354   3.370  0.3620  0.2296 -0.8432
  976MOL0     C34563   0.178   3.399   3.273 -0.5743 -0.0475 -0.3428
  976MOL0     C34564   0.089   3.288   3.235  0.1817 -0.2859  0.6251
  976MOL0     C34565   0.156   3.176   3.157  0.3323  0.5643  0.8324
  976MOL0     C34566   0.055   3.092   3.073  0.7550  0.3060 -0.2757
  976MOL0     N34567   0.122   3.014   2.976 -0.1675  0.4769  0.4393
  976MOL0     C34568   0.111   2.880   2.953 -1.4213  1.8160  0.3973
  976MOL0     C34569   0.211   2.854   2.865  0.3115  1.1029 -0.3653
  976MOL0     C34570   0.256   2.719   2.806 -0.1067  0.8455  0.4429
  976MOL0     C34571   0.219   2.690   2.662 -1.3607  0.3026  0.3389
  976MOL0     C34572   0.097   2.595   2.659 -0.1035  0.1281 -0.0415
  976MOL0     C34573  -0.045   2.659   2.668  0.1083 -0.2295 -0.1276
  976MOL0     O34574  -0.143   2.562   2.631 -0.1872 -0.4844 -0.1231
  976MOL0     C34575  -0.212   2.491   2.722  0.1644  0.8691 -0.3412
  976MOL0     C34576  -0.264   2.380   2.664  0.1082  0.3350 -0.5046
  976MOL0     C34577  -0.326   2.288   2.744  0.2891  0.0124 -0.0054
  976MOL0     C34578  -0.391   2.175   2.678  0.5081 -1.0421  0.2864
  976MOL0     C34579  -0.339   2.308   2.883  0.1728  0.3687  0.1644
  976MOL0     C34580  -0.412   2.213   2.974 -0.8993  0.8962 -1.1722
  976MOL0     O34581  -0.365   2.209   3.110  0.1277  0.1463  0.4972
  976MOL0     C34582  -0.423   2.125   3.208 -0.8515 -0.9934 -0.4440
  976MOL0     C34583  -0.331   2.096   3.306 -0.0840  0.0376  0.2051
  976MOL0     C34584  -0.369   2.019   3.419  0.6895 -0.4457  0.0876
  976MOL0     C34585  -0.498   1.954   3.413  0.1641  0.7632  0.0822
  976MOL0     O34586  -0.543   1.866   3.512 -0.8003  0.0250  0.8195
  976MOL0     C34587  -0.522   1.927   3.642  0.3003 -0.2756  0.6274
  976MOL0     C34588  -0.590   1.850   3.754  0.2403 -0.5519 -0.4220
  976MOL0     C34589  -0.739   1.880   3.752  0.1286 -0.0615  0.4254
  976MOL0     C34590  -0.825   1.848   3.880 -0.0401  0.8979 -0.0746
  976MOL0     C34591  -0.970   1.834   3.845  0.6560 -0.5687  0.2379
  976MOL0     C34592  -1.050   1.804   3.974 -0.1308  0.1154  0.2658
  976MOL0     C34593  -1.183   1.774   3.930  1.0489 -0.1362 -0.5743
  976MOL0     C34594  -1.280   1.706   4.033 -0.6267  0.2268  0.2634
  976MOL0    Cl34595  -1.203   1.632   4.173 -0.1624 -0.3606  0.3483
  976MOL0     C34596  -0.576   1.969   3.302  0.3923 -0.1121 -0.7111
  976MOL0     C34597  -0.553   2.064   3.205 -0.0458  0.3314 -0.4062
  976MOL0     O34598  -0.511   2.148   2.930  0.0152 -0.6214  0.1113
  976MOL0     C34599  -0.277   2.409   2.942  0.0173 -0.7023  0.1876
  976MOL0     C34600  -0.218   2.504   2.863 -0.2106  0.2427  0.2415
  976MOL0     N34601   0.265   2.978   2.819  0.0041  1.2573 -0.2605
  976MOL0     N34602   0.211   3.066   2.899  0.4069 -0.0908  1.0664
  976MOL0     C34603   0.528   2.901   3.774  0.3796  0.0111  0.1956
  976MOL0     C34604   0.546   2.856   3.902  0.3601  0.1174 -0.0242
  976MOL0     C34605   0.500   2.828   4.349 -0.3685  0.4845 -0.8595
  976MOL0     C34606   0.387   2.836   4.438  0.9970 -0.5090 -0.1902
  976MOL0     C34607   0.401   2.811   4.570 -0.5058 -0.5001 -0.0576
  976MOL0     C34608   0.528   2.769   4.624  0.9203  0.2721  0.5073
  976MOL0     O34609   0.565   2.751   4.755 -0.3130 -0.0207 -0.0350
  976MOL0     C34610   0.457   2.755   4.852 -0.2948  0.1615  0.0464
  976MOL0     C34611   0.523   2.743   4.986  0.1921 -0.6991 -0.9729
  976MOL0     C34612   0.578   2.605   5.010 -0.6565  0.0048 -0.2473
  976MOL0     C34613   0.569   2.562   5.161  0.3343  0.0976 -0.3793
  976MOL0     C34614   0.631   2.671   5.245  0.1087 -0.0321 -0.3340
  976MOL0     C34615   0.679   2.771   5.291 -0.2562 -0.0762 -0.0293
  976MOL0     C34616   0.644   2.773   4.542  0.0445  0.6945  0.7012
  976MOL0     C34617   0.635   2.792   4.406 -0.7365 -0.5735 -0.6400
  976MOL0     C34618   0.762   2.770   4.328 -0.2802  0.2277 -0.0348
  976MOL0     H34619   0.597   3.162   4.044 -2.4690  1.7872 -0.9652
  976MOL0     H34620   0.576   3.222   3.795  1.7696 -0.7728  0.9605
  976MOL0     H34621   0.315   3.036   3.643  0.1744 -2.5387 -2.9648
  976MOL0     H34622   0.339   3.076   3.475  1.7393  0.4952 -0.5586
  976MOL0     H34623   0.310   3.257   3.705 -2.0403  1.7593 -0.5083
  976MOL0     H34624   0.431   3.306   3.585  1.2398 -1.8050 -1.5624
  976MOL0     H34625   0.169   3.209   3.494 -0.5335 -0.0350  2.3276
  976MOL0     H34626   0.176   3.377   3.560 -0.9685 -0.7327  0.4138
  976MOL0     H34627   0.342   3.448   3.389  0.1176  0.1730  0.1837
  976MOL0     H34628   0.349   3.283   3.313 -0.4203  0.0084 -1.4067
  976MOL0     H34629   0.238   3.440   3.191  0.5226  0.8041  0.8426
  976MOL0     H34630   0.122   3.479   3.322 -1.4233  0.7957 -2.5954
  976MOL0     H34631   0.025   3.237   3.308 -1.3687 -1.5004 -1.4899
  976MOL0     H34632   0.023   3.339   3.164 -0.1066 -2.9626 -1.1523
  976MOL0     H34633   0.194   3.099   3.224 -1.8841 -0.5213  0.9444
  976MOL0     H34634   0.240   3.221   3.103  0.4915  0.1376  0.7235
  976MOL0     H34635  -0.012   3.034   3.136 -0.9718  1.9771 -0.4883
  976MOL0     H34636  -0.008   3.164   3.020  0.2627  1.2447  1.5154
  976MOL0     H34637   0.057   2.806   3.011  0.1260 -0.6102 -1.0638
  976MOL0     H34638   0.235   2.636   2.874  4.3527 -1.5630 -0.6962
  976MOL0     H34639   0.365   2.727   2.815  0.0417  0.2925 -0.7609
  976MOL0     H34640   0.187   2.784   2.614  2.4013  1.8841  0.5656
  976MOL0     H34641   0.304   2.639   2.617 -0.2641  0.4426  2.1999
  976MOL0     H34642   0.113   2.536   2.569  2.9063  1.3505 -0.4480
  976MOL0     H34643   0.106   2.520   2.738  1.8463  0.2351 -0.1119
  976MOL0     H34644  -0.058   2.694   2.771 -1.6519 -1.6907  0.1941
  976MOL0     H34645  -0.053   2.744   2.599  0.3494  0.7447  1.0119
  976MOL0     H34646  -0.232   2.359   2.563 -1.5533 -1.0490 -0.7851
  976MOL0     H34647  -0.381   2.185   2.569 -2.2473  2.5008  0.1694
  976MOL0     H34648  -0.498   2.184   2.702  0.6291 -0.3342  0.5566
  976MOL0     H34649  -0.360   2.076   2.711  0.1410 -1.3161 -0.1641
  976MOL0     H34650  -0.228   2.130   3.298  0.3155 -0.8589  1.1975
  976MOL0     H34651  -0.310   2.009   3.509 -4.6527 -2.3650  3.8442
  976MOL0     H34652  -0.415   1.908   3.652  0.8914 -0.0159 -3.5056
  976MOL0     H34653  -0.545   2.034   3.642 -0.3166 -0.4003  1.4340
  976MOL0     H34654  -0.573   1.743   3.739 -2.7082 -1.2277  0.3573
  976MOL0     H34655  -0.552   1.877   3.853  1.5038  0.7984 -1.2353
  976MOL0     H34656  -0.785   1.824   3.670  0.1480  0.2434  0.2013
  976MOL0     H34657  -0.757   1.986   3.729 -0.0205  0.4458  2.6939
  976MOL0     H34658  -0.819   1.933   3.948 -2.7817  0.4053  0.8675
  976MOL0     H34659  -0.783   1.761   3.932  1.6977  1.6851 -0.0640
  976MOL0     H34660  -1.003   1.924   3.793  0.2104 -1.1263 -0.4665
  976MOL0     H34661  -0.991   1.755   3.772 -3.0992 -0.1400  0.6613
  976MOL0     H34662  -1.045   1.888   4.044 -0.9847  0.7669 -0.4367
  976MOL0     H34663  -1.006   1.713   4.016  0.1843  0.8528  1.5829
  976MOL0     H34664  -1.176   1.708   3.843  2.4057  0.5332 -0.9975
  976MOL0     H34665  -1.223   1.866   3.888  4.1012  1.5923  0.0232
  976MOL0     H34666  -1.319   1.615   3.984 -0.8249 -0.5123  1.7510
  976MOL0     H34667  -1.363   1.767   4.069 -1.2132 -0.8250  0.7374
  976MOL0     H34668  -0.666   1.908   3.297 -0.4655  1.0731 -0.1137
  976MOL0     H34669  -0.623   2.092   3.127  1.7633  5.3254 -0.5570
  976MOL0     H34670  -0.288   2.415   3.050 -2.8024 -2.5780  0.1243
  976MOL0     H34671  -0.185   2.586   2.926  1.0269 -1.3361  1.7359
  976MOL0     H34672   0.503   2.831   3.696  0.5354  0.2744 -0.0913
  976MOL0     H34673   0.547   2.748   3.919 -0.3090  0.2660  1.0563
  976MOL0     H34674   0.289   2.856   4.395  0.9855  2.1813  0.9312
  976MOL0     H34675   0.318   2.824   4.640  0.0899  2.2830  0.2295
  976MOL0     H34676   0.409   2.853   4.854 -0.4905  0.0978 -0.8191
  976MOL0     H34677   0.381   2.678   4.835  1.5170 -1.8342  0.6322
  976MOL0     H34678   0.445   2.765   5.060 -2.0252 -3.0767 -2.4385
  976MOL0     H34679   0.603   2.817   4.985  0.2154 -0.7132 -0.5150
  976MOL0     H34680   0.515   2.535   4.955  1.0136 -1.0846 -0.8396
  976MOL0     H34681   0.681   2.593   4.973 -1.3316 -0.6583 -2.0303
  976MOL0     H34682   0.620   2.466   5.169  2.2149  0.9391 -1.4555
  976MOL0     H34683   0.465   2.548   5.190  0.2447 -3.2476 -1.8780
  976MOL0     H34684   0.728   2.861   5.324 -1.2976  0.6632 -0.4305
  976MOL0     H34685   0.739   2.748   4.588 -0.3581 -1.4746  0.4177
  976MOL0     H34686   0.822   2.691   4.373 -0.8610 -1.0604 -1.4202
  976MOL0     H34687   0.740   2.722   4.232 -0.5510 -1.4288  0.8212
  976MOL0     H34688   0.819   2.863   4.328  2.1149 -1.1395 -1.7913
  977MOL0     O34689   1.579   8.622   7.507  0.8704 -0.1538 -0.2996
  977MOL0     C34690   1.453   8.611   7.506 -0.4654  0.3313 -0.8231
  977MOL0     O34691   1.387   8.498   7.449 -0.2954  0.7764  0.2950
  977MOL0     C34692   1.448   8.382   7.420 -0.3589 -0.1536  0.3552
  977MOL0     C34693   1.450   8.337   7.289  0.4348 -0.2916  0.0723
  977MOL0     C34694   1.510   8.213   7.262  0.4069 -0.1407 -0.0405
  977MOL0     C34695   1.565   8.143   7.365  0.2795  0.8068  0.4770
  977MOL0     O34696   1.619   8.016   7.337  0.5433 -0.5799  0.1227
  977MOL0     C34697   1.561   7.901   7.397 -0.0498 -0.1361  0.3443
  977MOL0     C34698   1.651   7.779   7.407 -0.5014 -0.8466  0.0440
  977MOL0     C34699   1.769   7.813   7.501  0.6142 -0.4778 -0.6728
  977MOL0     C34700   1.816   7.687   7.578  0.4154  0.0679  0.0340
  977MOL0     C34701   1.914   7.740   7.688  0.7977  0.3443 -0.5588
  977MOL0     C34702   1.999   7.623   7.732 -0.9168 -0.6396  0.0958
  977MOL0     C34703   2.144   7.666   7.779 -0.5824 -0.5519 -0.4858
  977MOL0     C34704   2.194   7.555   7.881  0.1116 -0.3625  0.1021
  977MOL0     N34705   2.135   7.582   8.008  0.7700 -0.2393 -0.8967
  977MOL0     C34706   2.144   7.495   8.119 -0.1671 -0.3563  0.1379
  977MOL0     C34707   2.047   7.530   8.206  1.2698 -0.6819  0.5122
  977MOL0     C34708   2.050   7.481   8.350  0.8979  0.1196 -0.4401
  977MOL0     C34709   1.951   7.365   8.364  0.1436 -1.3486 -0.3594
  977MOL0     C34710   1.921   7.335   8.508 -0.6965  0.0892  0.0054
  977MOL0     C34711   1.832   7.208   8.516 -0.0097  0.0748  0.8377
  977MOL0     O34712   1.711   7.247   8.459  0.3438  0.0307 -0.1875
  977MOL0     C34713   1.604   7.156   8.451  1.5797 -0.3576  0.4532
  977MOL0     C34714   1.478   7.210   8.417 -0.4628  0.2157 -0.4044
  977MOL0     C34715   1.361   7.133   8.406 -1.0624 -0.1806  0.5302
  977MOL0     C34716   1.242   7.209   8.368 -0.0316  0.2967  0.8207
  977MOL0     C34717   1.371   6.993   8.427 -0.4156  0.3077  0.4622
  977MOL0     C34718   1.257   6.895   8.416 -0.0201 -0.4639 -1.0711
  977MOL0     O34719   1.294   6.767   8.410 -0.1184 -0.2767 -0.6613
  977MOL0     C34720   1.207   6.672   8.435 -0.3417 -0.6208 -0.3387
  977MOL0     C34721   1.235   6.618   8.565 -1.1375 -0.1048 -0.2742
  977MOL0     C34722   1.161   6.504   8.605  0.8663 -0.3348  0.0985
  977MOL0     C34723   1.057   6.467   8.515  0.1679  1.0389 -0.1515
  977MOL0     O34724   0.975   6.355   8.555 -0.2244 -0.5815  0.4894
  977MOL0     C34725   0.964   6.257   8.452  0.6338  0.2447  0.6786
  977MOL0     C34726   1.067   6.152   8.477 -0.2875 -0.6677  0.5165
  977MOL0     C34727   1.037   6.008   8.422  0.3319 -0.1010 -0.2889
  977MOL0     C34728   0.897   5.947   8.442  0.3897  0.8227 -0.0586
  977MOL0     C34729   0.836   5.942   8.588 -0.0820  1.2109 -0.2044
  977MOL0     C34730   0.921   5.849   8.679  0.1772  0.9221 -1.1962
  977MOL0     C34731   0.873   5.859   8.829 -0.7343 -0.1321  0.3265
  977MOL0     C34732   0.918   5.740   8.913  0.0920  0.2657 -0.2713
  977MOL0    Cl34733   0.793   5.617   8.909 -0.1222 -0.3331 -0.3975
  977MOL0     C34734   1.026   6.528   8.390 -0.4586 -0.6482  0.3569
  977MOL0     C34735   1.112   6.631   8.353 -0.0871  0.1484  0.8093
  977MOL0     O34736   1.140   6.933   8.426  0.3775 -0.7540  0.1128
  977MOL0     C34737   1.498   6.940   8.465 -0.8080  0.6539 -0.3868
  977MOL0     C34738   1.616   7.023   8.474 -0.1540 -0.6010  0.7985
  977MOL0     N34739   1.971   7.632   8.149 -0.3826  0.8126 -0.9526
  977MOL0     N34740   2.020   7.654   8.032  0.2463  0.4621  0.8072
  977MOL0     C34741   1.577   8.189   7.490  0.5361 -0.1057  0.5964
  977MOL0     C34742   1.509   8.306   7.522 -0.3114  0.2321  0.3961
  977MOL0     C34743   1.382   8.730   7.535 -0.3908 -0.3236 -0.2242
  977MOL0     C34744   1.456   8.848   7.580 -0.6093 -0.2124  0.7728
  977MOL0     C34745   1.387   8.966   7.602 -0.1390 -0.2146  1.5777
  977MOL0     C34746   1.253   8.988   7.566 -0.6031  0.2863  0.2674
  977MOL0     O34747   1.196   9.116   7.574  0.4195 -0.3722 -0.3944
  977MOL0     C34748   1.061   9.121   7.534  0.0924  0.1314  0.2177
  977MOL0     C34749   1.008   9.261   7.558 -1.0485  0.4878  0.5828
  977MOL0     C34750   0.982   9.298   7.704  0.1463 -1.6564 -0.1508
  977MOL0     C34751   1.084   9.407   7.751  0.3058  0.0217  0.9820
  977MOL0     C34752   1.073   9.411   7.901 -0.5937  0.0383 -0.4010
  977MOL0     C34753   1.083   9.413   8.024 -0.0538  0.1347 -0.1494
  977MOL0     C34754   1.187   8.869   7.513  0.6705  0.1182 -0.3711
  977MOL0     C34755   1.250   8.746   7.492 -0.7901  0.1093  0.2707
  977MOL0     C34756   1.162   8.652   7.414 -0.3828  0.2492  0.5223
  977MOL0     H34757   1.398   8.389   7.210 -0.3384 -0.0803  0.7100
  977MOL0     H34758   1.526   8.164   7.166 -1.3057 -1.7530  0.4518
  977MOL0     H34759   1.475   7.856   7.347 -0.3720 -0.0731  0.8393
  977MOL0     H34760   1.531   7.932   7.497  4.3437  2.1736  1.2033
  977MOL0     H34761   1.586   7.696   7.437 -2.7570  0.7024 -0.2912
  977MOL0     H34762   1.684   7.748   7.308 -1.6991 -0.2025 -0.5747
  977MOL0     H34763   1.846   7.867   7.446  1.1971  0.1197  0.6649
  977MOL0     H34764   1.735   7.888   7.573  0.2840 -0.0457 -1.2764
  977MOL0     H34765   1.737   7.632   7.629  0.4785 -0.8080 -0.7926
  977MOL0     H34766   1.862   7.616   7.510 -1.3239 -2.3429  1.2550
  977MOL0     H34767   1.864   7.780   7.777  0.5890 -3.4157  1.2099
  977MOL0     H34768   1.972   7.825   7.650  0.2371  0.3829 -1.3512
  977MOL0     H34769   1.942   7.565   7.805 -0.6310 -0.5753  0.3674
  977MOL0     H34770   2.028   7.560   7.647 -0.0526 -0.5045  0.2839
  977MOL0     H34771   2.147   7.763   7.829  3.3039 -1.0257  0.4978
  977MOL0     H34772   2.205   7.676   7.689 -0.5526 -1.8744 -0.6335
  977MOL0     H34773   2.166   7.453   7.852  1.1319 -0.0658 -2.1497
  977MOL0     H34774   2.304   7.557   7.887  0.2308 -0.1256 -1.6897
  977MOL0     H34775   2.229   7.432   8.143  1.8939  1.3489 -2.1734
  977MOL0     H34776   2.023   7.557   8.424  0.2494 -2.5973  2.3245
  977MOL0     H34777   2.154   7.452   8.368  0.6741 -2.8246 -3.0224
  977MOL0     H34778   1.857   7.387   8.312  0.6169  2.3959  0.0823
  977MOL0     H34779   1.991   7.276   8.314 -1.4832 -2.5553  0.3919
  977MOL0     H34780   2.007   7.313   8.572 -0.4128 -0.5034 -0.5653
  977MOL0     H34781   1.868   7.421   8.550  1.6788  3.2295 -2.9183
  977MOL0     H34782   1.866   7.120   8.462 -0.1666  0.8290 -0.5392
  977MOL0     H34783   1.808   7.181   8.619 -0.3606 -3.1133  0.0145
  977MOL0     H34784   1.478   7.318   8.410 -0.8756  0.7385  4.4551
  977MOL0     H34785   1.195   7.135   8.302  0.6313 -0.4485  1.1753
  977MOL0     H34786   1.254   7.287   8.293 -0.9568 -2.0438 -1.9707
  977MOL0     H34787   1.179   7.222   8.456 -0.9812 -2.5161  0.6589
  977MOL0     H34788   1.313   6.650   8.633  1.4711 -2.1275 -2.1306
  977MOL0     H34789   1.163   6.444   8.695 -1.4192 -0.0091  0.4318
  977MOL0     H34790   0.866   6.209   8.460  1.4133 -2.5230 -3.5152
  977MOL0     H34791   0.967   6.279   8.345  0.3178 -0.6862  0.4637
  977MOL0     H34792   1.155   6.192   8.425 -0.6971 -2.4540 -1.6806
  977MOL0     H34793   1.098   6.135   8.581  0.9176 -1.1607  0.0964
  977MOL0     H34794   1.109   5.940   8.469  2.0548  1.0174 -1.2109
  977MOL0     H34795   1.058   5.996   8.315  2.3828 -2.2524  0.2715
  977MOL0     H34796   0.926   5.846   8.412  1.0924  1.3660 -1.3006
  977MOL0     H34797   0.829   5.977   8.361  1.1032  0.9420 -0.6312
  977MOL0     H34798   0.840   6.046   8.621 -2.0230  0.8124  1.4774
  977MOL0     H34799   0.731   5.912   8.590 -0.7210  3.1803 -1.2803
  977MOL0     H34800   1.028   5.872   8.673 -0.2002  2.3557 -3.3252
  977MOL0     H34801   0.909   5.745   8.650  0.9816  0.8820 -1.4214
  977MOL0     H34802   0.764   5.859   8.837 -0.8055  2.4099  0.0198
  977MOL0     H34803   0.914   5.952   8.869  0.6643  0.5024 -2.3741
  977MOL0     H34804   0.929   5.762   9.019 -2.8880 -1.1120  0.4461
  977MOL0     H34805   1.007   5.689   8.875  0.7881 -0.7814  2.5559
  977MOL0     H34806   0.949   6.506   8.318  1.5118  1.3192 -2.5645
  977MOL0     H34807   1.089   6.683   8.261 -1.9657  1.2606  1.8498
  977MOL0     H34808   1.497   6.833   8.481  0.7223  0.3515 -1.9428
  977MOL0     H34809   1.711   6.979   8.502 -1.7842 -5.0994 -0.0480
  977MOL0     H34810   1.623   8.135   7.572 -0.1113 -1.0730  0.3440
  977MOL0     H34811   1.525   8.340   7.624  0.3563 -1.7318  0.9936
  977MOL0     H34812   1.562   8.845   7.603 -0.4259  1.1608  0.1898
  977MOL0     H34813   1.447   9.052   7.632  1.6296 -0.7600 -0.2405
  977MOL0     H34814   1.066   9.110   7.425  1.9142  1.3463  0.1286
  977MOL0     H34815   0.995   9.049   7.583  1.5876 -0.9643  0.6974
  977MOL0     H34816   0.924   9.286   7.493  0.1810  3.8134  0.0535
  977MOL0     H34817   1.084   9.329   7.517 -0.4486 -0.9399 -0.7375
  977MOL0     H34818   0.887   9.352   7.712  1.3727  0.7477 -0.8487
  977MOL0     H34819   0.983   9.209   7.769  0.3567 -0.0704  2.1181
  977MOL0     H34820   1.055   9.502   7.706 -0.4708 -0.7878 -0.2663
  977MOL0     H34821   1.185   9.381   7.718  0.8546 -0.4311  2.8684
  977MOL0     H34822   1.096   9.409   8.130  3.4955 -0.0344 -0.4697
  977MOL0     H34823   1.080   8.877   7.495  0.4454 -0.0906  0.7720
  977MOL0     H34824   1.206   8.601   7.328 -0.8158  0.9302 -0.1112
  977MOL0     H34825   1.133   8.579   7.491 -0.9896  0.0144  0.0790
  977MOL0     H34826   1.074   8.705   7.377  0.0535  1.7646  1.5585
  978MOL0     O34827   0.715   0.407   6.398  0.0945  0.1972 -0.3191
  978MOL0     C34828   0.783   0.380   6.300 -0.5609  0.4206  0.7123
  978MOL0     O34829   0.906   0.434   6.270 -0.3587 -0.1651 -0.3871
  978MOL0     C34830   0.953   0.533   6.341 -0.0942 -0.7502  0.4459
  978MOL0     C34831   1.083   0.526   6.372 -0.7580 -0.5456  0.9039
  978MOL0     C34832   1.157   0.615   6.446  0.0680 -1.0420  1.2649
  978MOL0     C34833   1.090   0.728   6.492 -0.8513  0.1741  0.2355
  978MOL0     O34834   1.149   0.829   6.560 -0.1389 -0.6877 -0.4093
  978MOL0     C34835   1.254   0.791   6.659  0.6298  0.7576 -0.0805
  978MOL0     C34836   1.291   0.901   6.767 -0.2701 -0.5144  0.7113
  978MOL0     C34837   1.335   1.031   6.689  0.2349 -1.0529  0.0904
  978MOL0     C34838   1.386   1.128   6.800  0.4024  0.2584  0.5100
  978MOL0     C34839   1.447   1.261   6.744 -0.4523  0.9431 -0.2301
  978MOL0     C34840   1.523   1.334   6.845 -0.2146 -0.4093 -0.4178
  978MOL0     C34841   1.605   1.468   6.808  0.6630  0.4751  0.8354
  978MOL0     C34842   1.662   1.562   6.919  0.8732 -1.5965  0.5795
  978MOL0     N34843   1.724   1.689   6.874 -0.7590  0.2067 -0.3591
  978MOL0     C34844   1.724   1.805   6.940  0.0426  0.5948  0.2998
  978MOL0     C34845   1.816   1.886   6.872  0.4383  0.4058 -0.0287
  978MOL0     C34846   1.860   2.014   6.921  0.8274 -0.2567 -0.1837
  978MOL0     C34847   2.013   2.016   6.951  0.4871  0.1325 -0.1011
  978MOL0     C34848   2.096   2.018   6.827  0.8038 -0.1956 -0.9782
  978MOL0     C34849   2.068   2.127   6.721  0.1877  0.0670 -0.2478
  978MOL0     O34850   2.052   2.253   6.788  0.0890 -0.0295  0.0954
  978MOL0     C34851   2.158   2.317   6.842  0.1408  0.8633  0.0078
  978MOL0     C34852   2.290   2.288   6.827  0.1186  1.2025  0.0020
  978MOL0     C34853   2.392   2.354   6.894 -0.6572  0.1469  0.0422
  978MOL0     C34854   2.536   2.314   6.858  0.1642 -0.2234 -1.0023
  978MOL0     C34855   2.362   2.449   6.988  0.4378  0.0226 -1.2144
  978MOL0     C34856   2.471   2.533   7.056 -0.8728 -1.0715 -1.0367
  978MOL0     O34857   2.488   2.501   7.182  0.3871  0.1445 -0.0104
  978MOL0     C34858   2.553   2.581   7.270 -0.3691  0.0749 -0.8375
  978MOL0     C34859   2.592   2.508   7.382 -0.6569  0.0187 -0.3041
  978MOL0     C34860   2.686   2.565   7.472  0.1791  0.5766  0.0352
  978MOL0     C34861   2.717   2.702   7.475  0.0632 -0.1136  0.8306
  978MOL0     O34862   2.808   2.760   7.553 -0.5773  0.5970  0.0939
  978MOL0     C34863   2.817   2.706   7.685  0.1442  0.7191  0.2402
  978MOL0     C34864   2.838   2.834   7.768  0.2528 -0.5424  0.9575
  978MOL0     C34865   2.877   2.792   7.915  0.4712 -0.3380  0.0739
  978MOL0     C34866   2.931   2.912   8.003 -0.4499 -1.0339 -0.1839
  978MOL0     C34867   2.806   2.999   8.034  0.4210  0.0568  0.4201
  978MOL0     C34868   2.849   3.076   8.168  0.0201  0.1825 -0.2324
  978MOL0     C34869   2.968   3.178   8.147 -0.4596  0.3036 -0.4576
  978MOL0     C34870   3.000   3.240   8.289  1.1177 -0.2106 -0.2679
  978MOL0    Cl34871   3.134   3.347   8.290 -0.3361  0.4899  0.8111
  978MOL0     C34872   2.666   2.786   7.366 -0.4302  0.3567 -0.4270
  978MOL0     C34873   2.585   2.724   7.263  0.1124  0.4051  0.2130
  978MOL0     O34874   2.541   2.607   6.983  0.3997  0.0663 -0.1911
  978MOL0     C34875   2.225   2.483   7.013 -0.7250  0.1937  0.1505
  978MOL0     C34876   2.125   2.426   6.927  0.5237 -0.3164  0.6276
  978MOL0     N34877   1.856   1.819   6.756 -0.3865  0.4369  0.1920
  978MOL0     N34878   1.791   1.701   6.759 -0.0192 -0.8707  0.2832
  978MOL0     C34879   0.963   0.746   6.449 -0.0161 -1.0415  0.0800
  978MOL0     C34880   0.886   0.653   6.376  0.5128 -0.1645 -0.5920
  978MOL0     C34881   0.729   0.277   6.203 -0.1194  0.1347  0.2747
  978MOL0     C34882   0.821   0.216   6.121  0.4170 -0.8534  0.5731
  978MOL0     C34883   0.795   0.125   6.028 -0.3755  0.0116  0.6572
  978MOL0     C34884   0.664   0.071   6.022  0.2324 -0.0028  0.9043
  978MOL0     O34885   0.625  -0.028   5.935  0.3609 -0.0304 -0.8265
  978MOL0     C34886   0.718  -0.093   5.850  0.1846  0.5789 -0.3163
  978MOL0     C34887   0.782  -0.198   5.923 -0.2613 -0.1691  0.5485
  978MOL0     C34888   0.681  -0.314   5.959  0.0562  0.1096 -0.0593
  978MOL0     C34889   0.716  -0.415   6.078 -0.2519 -0.8139  0.2512
  978MOL0     C34890   0.848  -0.470   6.060 -0.1493  0.0511  0.4077
  978MOL0     C34891   0.958  -0.513   6.062 -0.4940  0.1446  0.1871
  978MOL0     C34892   0.573   0.123   6.128  0.3212  0.4266  0.2310
  978MOL0     C34893   0.597   0.231   6.214 -0.3188  0.1971  0.5898
  978MOL0     C34894   0.484   0.269   6.307  0.5080 -0.1615 -0.1193
  978MOL0     H34895   1.149   0.445   6.343  2.5503  0.3072  4.9594
  978MOL0     H34896   1.263   0.606   6.470  0.4117  2.0921  1.3550
  978MOL0     H34897   1.345   0.757   6.609  1.6119  2.1213  0.7088
  978MOL0     H34898   1.204   0.712   6.716 -2.5834  1.6647 -1.4403
  978MOL0     H34899   1.199   0.922   6.822 -0.5274  1.3873 -0.3416
  978MOL0     H34900   1.362   0.861   6.839  1.2654 -0.9074 -0.9472
  978MOL0     H34901   1.415   1.013   6.617  1.3439  1.4118  0.5824
  978MOL0     H34902   1.239   1.053   6.640 -1.1786 -3.5137  1.5208
  978MOL0     H34903   1.313   1.151   6.878  1.4049  3.7289  0.5523
  978MOL0     H34904   1.466   1.076   6.853 -0.5138  0.5848  2.2983
  978MOL0     H34905   1.368   1.324   6.702 -0.4399  3.0995  2.6139
  978MOL0     H34906   1.521   1.241   6.667  0.8156 -1.0569  1.3875
  978MOL0     H34907   1.456   1.356   6.928 -0.4586  1.8427 -1.1158
  978MOL0     H34908   1.600   1.270   6.887 -0.8434  0.1797  1.7498
  978MOL0     H34909   1.548   1.520   6.730  1.2348 -1.5667 -1.0482
  978MOL0     H34910   1.695   1.429   6.758 -0.1435  0.9728 -1.1040
  978MOL0     H34911   1.571   1.584   6.976  0.3623 -0.7295 -0.5261
  978MOL0     H34912   1.731   1.507   6.982  2.6676  0.7285  0.7596
  978MOL0     H34913   1.683   1.828   7.038  0.7549 -2.2547  1.3527
  978MOL0     H34914   1.803   2.035   7.012  1.2242 -1.8489  0.4590
  978MOL0     H34915   1.831   2.092   6.850 -0.5965  1.6948  2.3684
  978MOL0     H34916   2.035   2.105   7.011  1.4447  0.3669 -0.7865
  978MOL0     H34917   2.043   1.931   7.013 -0.8764 -0.1588  0.2122
  978MOL0     H34918   2.199   2.026   6.865  0.5174 -2.5121  0.5534
  978MOL0     H34919   2.076   1.920   6.783 -2.6867 -1.0591  2.0410
  978MOL0     H34920   2.155   2.118   6.655  1.4966 -3.4783  1.6731
  978MOL0     H34921   1.989   2.099   6.651  1.0205  1.6683 -1.9038
  978MOL0     H34922   2.328   2.208   6.763  0.3174  1.6570 -0.4504
  978MOL0     H34923   2.601   2.349   6.939 -2.2033 -0.7600  1.2883
  978MOL0     H34924   2.560   2.349   6.757  1.4094 -2.9756 -1.7247
  978MOL0     H34925   2.563   2.209   6.845  1.0182 -0.7095  3.2077
  978MOL0     H34926   2.582   2.401   7.397  1.8172  0.0252  2.2405
  978MOL0     H34927   2.740   2.499   7.540  2.1884  2.3227  0.2558
  978MOL0     H34928   2.725   2.654   7.715  1.3776 -0.5924  1.9320
  978MOL0     H34929   2.899   2.634   7.683 -1.5842 -1.3803  1.5217
  978MOL0     H34930   2.922   2.894   7.734  0.5500 -0.3527  1.9773
  978MOL0     H34931   2.746   2.894   7.766  0.0182 -0.8580  1.7087
  978MOL0     H34932   2.957   2.718   7.907  1.5341  0.4738  2.1455
  978MOL0     H34933   2.799   2.740   7.972  1.1118  0.9862  2.3290
  978MOL0     H34934   3.008   2.973   7.954  2.1878 -3.3453  0.8033
  978MOL0     H34935   2.969   2.861   8.092  0.8436 -1.4949 -0.9619
  978MOL0     H34936   2.784   3.079   7.962  1.6158  1.7688  1.8655
  978MOL0     H34937   2.712   2.943   8.041 -1.7988  3.3033 -0.8296
  978MOL0     H34938   2.878   3.004   8.244  1.7553  0.8048 -0.2582
  978MOL0     H34939   2.759   3.133   8.194 -0.0288  0.3416 -0.7184
  978MOL0     H34940   2.940   3.259   8.079  1.0471  1.3339  0.0991
  978MOL0     H34941   3.058   3.131   8.107 -1.0777 -0.0931 -1.4227
  978MOL0     H34942   3.031   3.158   8.355  0.3537  0.0868  0.4759
  978MOL0     H34943   2.911   3.291   8.326  1.9996  1.1638  0.0265
  978MOL0     H34944   2.679   2.893   7.358 -0.8942  0.4781  0.3122
  978MOL0     H34945   2.545   2.770   7.174  1.4419 -0.4923 -0.8978
  978MOL0     H34946   2.205   2.562   7.085  3.9123  2.7072 -0.9227
  978MOL0     H34947   2.021   2.452   6.948 -0.3149 -1.2382 -1.9051
  978MOL0     H34948   0.908   0.836   6.473  0.1158 -0.6050 -1.1380
  978MOL0     H34949   0.780   0.676   6.364  0.8633  0.7476 -2.1602
  978MOL0     H34950   0.918   0.263   6.126 -0.7556  1.7288  0.3947
  978MOL0     H34951   0.878   0.105   5.961 -0.8005 -0.3632  0.2336
  978MOL0     H34952   0.655  -0.132   5.770  2.0188 -2.1380 -0.5525
  978MOL0     H34953   0.792  -0.026   5.804 -2.6133  3.1907 -1.3896
  978MOL0     H34954   0.828  -0.152   6.011 -2.4992 -1.2463  2.3601
  978MOL0     H34955   0.867  -0.235   5.866 -0.5516 -2.2987  1.4189
  978MOL0     H34956   0.584  -0.272   5.988  0.0694 -0.6858  1.2118
  978MOL0     H34957   0.669  -0.371   5.867  2.0864  0.5204 -0.6391
  978MOL0     H34958   0.649  -0.501   6.077  0.8462 -1.6872  0.3338
  978MOL0     H34959   0.705  -0.362   6.173 -0.4006  3.2651 -1.8158
  978MOL0     H34960   1.055  -0.556   6.078 -0.6809  0.6377  3.3802
  978MOL0     H34961   0.480   0.068   6.122 -0.7652  1.6487  3.6505
  978MOL0     H34962   0.520   0.253   6.408  2.7492  0.2756 -0.8045
  978MOL0     H34963   0.447   0.372   6.304 -2.7618 -1.1408  1.6671
  978MOL0     H34964   0.396   0.207   6.286  0.7662 -1.5539  2.4871
  979MOL0     O34965   0.002   1.983   8.145  0.2626 -0.1341  0.4006
  979MOL0     C34966   0.039   1.892   8.223 -0.5873 -0.2419 -0.5243
  979MOL0     O34967  -0.009   1.770   8.221  0.0041  0.1838 -0.5509
  979MOL0     C34968  -0.072   1.727   8.108 -0.0830 -1.1905 -0.1322
  979MOL0     C34969  -0.206   1.695   8.102 -0.7153  0.7129 -0.2211
  979MOL0     C34970  -0.264   1.656   7.987  1.1794 -0.1173 -0.0399
  979MOL0     C34971  -0.195   1.664   7.871 -0.8243 -0.7149  0.7921
  979MOL0     O34972  -0.258   1.632   7.752 -0.1455  0.7096  0.3045
  979MOL0     C34973  -0.258   1.736   7.659  0.2518 -0.2247  0.2795
  979MOL0     C34974  -0.331   1.687   7.529 -0.5195 -0.5480 -0.4761
  979MOL0     C34975  -0.242   1.586   7.459  0.8519 -0.8304  0.5959
  979MOL0     C34976  -0.304   1.558   7.319  0.3619 -0.2170 -0.0755
  979MOL0     C34977  -0.242   1.432   7.258  0.0557 -0.7677  0.0501
  979MOL0     C34978  -0.109   1.454   7.186 -0.8051  0.3127  0.2080
  979MOL0     C34979  -0.110   1.573   7.093 -0.4096 -0.5707  0.0033
  979MOL0     C34980  -0.004   1.528   6.987  0.2248 -0.7100  0.6149
  979MOL0     N34981   0.128   1.559   7.042  0.4040 -0.3235 -0.0189
  979MOL0     C34982   0.172   1.689   7.071  0.5880 -0.3775  0.9922
  979MOL0     C34983   0.306   1.676   7.104 -0.5698 -0.2883  0.5851
  979MOL0     C34984   0.399   1.782   7.146  1.1385 -0.2575 -0.0360
  979MOL0     C34985   0.434   1.886   7.040  0.4900 -0.2155  0.0130
  979MOL0     C34986   0.475   2.025   7.108 -0.1745 -0.0796  0.6254
  979MOL0     C34987   0.352   2.109   7.156 -0.5018  0.8051 -0.0732
  979MOL0     O34988   0.348   2.129   7.298 -0.8408 -0.5974 -0.5487
  979MOL0     C34989   0.446   2.211   7.352 -0.1021  0.1345  0.2713
  979MOL0     C34990   0.524   2.313   7.288 -0.5304  0.5717  0.3193
  979MOL0     C34991   0.611   2.395   7.356  1.0977 -0.4515  0.3804
  979MOL0     C34992   0.689   2.506   7.275  0.3764 -0.0293  1.0042
  979MOL0     C34993   0.615   2.396   7.497 -0.0753 -1.2078  0.2685
  979MOL0     C34994   0.681   2.507   7.580  0.2379 -0.3982  0.3641
  979MOL0     O34995   0.787   2.574   7.521 -0.2056 -0.3557  0.1444
  979MOL0     C34996   0.853   2.678   7.591 -0.4813  0.0588  0.7755
  979MOL0     C34997   0.856   2.703   7.728  0.7075  0.1897  0.0260
  979MOL0     C34998   0.922   2.820   7.772 -0.0713 -0.7291  0.4475
  979MOL0     C34999   0.989   2.910   7.683  0.5879 -1.8546  1.0171
  979MOL0     O35000   1.037   3.042   7.714  0.3339  0.4498  0.5162
  979MOL0     C35001   0.946   3.114   7.795  0.5597 -0.3327  0.1877
  979MOL0     C35002   0.808   3.151   7.731  0.4224 -0.5688 -0.1631
  979MOL0     C35003   0.813   3.207   7.589  0.5228  0.3841  0.2712
  979MOL0     C35004   0.669   3.247   7.555  0.1272 -0.0337  0.0078
  979MOL0     C35005   0.659   3.322   7.411 -0.1742  0.8639  0.8112
  979MOL0     C35006   0.528   3.393   7.376 -0.2711 -1.2395  1.0047
  979MOL0     C35007   0.536   3.474   7.252  0.1056 -0.1036 -0.1719
  979MOL0     C35008   0.535   3.386   7.126 -0.3267  0.0632 -0.0843
  979MOL0    Cl35009   0.597   3.475   6.990  0.2154  0.1855 -0.1012
  979MOL0     C35010   1.000   2.858   7.549  0.3747  0.4437 -0.2954
  979MOL0     C35011   0.926   2.752   7.507  0.3339  0.5256  0.0447
  979MOL0     O35012   0.628   2.534   7.683 -0.1680 -0.2501 -0.0730
  979MOL0     C35013   0.541   2.301   7.560 -0.3365 -0.1335  0.1511
  979MOL0     C35014   0.466   2.211   7.485  0.2516 -0.8745  0.4648
  979MOL0     N35015   0.343   1.540   7.081 -0.0441 -0.6927 -0.5022
  979MOL0     N35016   0.232   1.478   7.053  0.4029 -0.6599  0.0354
  979MOL0     C35017  -0.055   1.688   7.875 -0.4549  0.0014 -0.2302
  979MOL0     C35018   0.008   1.706   7.996  0.2539 -0.5517 -0.1848
  979MOL0     C35019   0.153   1.901   8.319 -0.3066 -0.0387 -0.6119
  979MOL0     C35020   0.230   1.790   8.354 -0.7129  0.0492 -0.9839
  979MOL0     C35021   0.344   1.797   8.442 -0.4493  0.4148 -0.3725
  979MOL0     C35022   0.391   1.912   8.496 -0.8652 -0.8488  0.2051
  979MOL0     O35023   0.508   1.898   8.568  0.4475 -0.8929 -0.2498
  979MOL0     C35024   0.535   2.003   8.660 -0.2407  0.4221  0.1884
  979MOL0     C35025   0.628   2.119   8.615  0.1540 -0.0446 -0.0134
  979MOL0     C35026   0.755   2.076   8.548  0.0173  0.2091  0.4939
  979MOL0     C35027   0.839   2.192   8.515 -0.5553 -0.5902 -0.0061
  979MOL0     C35028   0.961   2.141   8.461 -0.3449  0.2822 -0.3462
  979MOL0     C35029   1.054   2.090   8.397  0.8989 -0.0540 -0.4673
  979MOL0     C35030   0.320   2.029   8.456  0.1776 -0.1845  0.8902
  979MOL0     C35031   0.207   2.026   8.368  1.1689 -0.7587  0.4937
  979MOL0     C35032   0.153   2.160   8.332  0.4051 -0.7859  0.8237
  979MOL0     H35033  -0.269   1.698   8.190  0.2194  0.8610  0.4675
  979MOL0     H35034  -0.370   1.635   7.974  0.8788  1.5789 -0.5497
  979MOL0     H35035  -0.158   1.770   7.631 -0.5936  1.9505 -0.3660
  979MOL0     H35036  -0.313   1.821   7.701  2.1923  0.3255  1.8182
  979MOL0     H35037  -0.424   1.649   7.571 -0.5271  0.7435  0.7620
  979MOL0     H35038  -0.351   1.769   7.459  1.5834  0.1937 -0.2888
  979MOL0     H35039  -0.139   1.621   7.444  1.4904 -3.1557 -0.8115
  979MOL0     H35040  -0.239   1.495   7.520  1.9769 -0.2812  1.4185
  979MOL0     H35041  -0.413   1.554   7.326  0.0204  2.1388 -2.2930
  979MOL0     H35042  -0.299   1.647   7.255 -3.5386  0.7635  0.7375
  979MOL0     H35043  -0.314   1.404   7.180 -1.1245  2.3707 -0.1471
  979MOL0     H35044  -0.227   1.346   7.324  1.5032 -1.9057 -1.6980
  979MOL0     H35045  -0.025   1.448   7.255 -1.1889  2.5962  0.9419
  979MOL0     H35046  -0.110   1.374   7.110 -1.7122  1.2087 -0.7674
  979MOL0     H35047  -0.088   1.663   7.152  1.0768 -1.5747  1.0604
  979MOL0     H35048  -0.207   1.594   7.047 -0.2866  0.7236  0.2799
  979MOL0     H35049  -0.015   1.425   6.951  1.7567 -0.2955 -1.2281
  979MOL0     H35050  -0.026   1.598   6.905 -4.1474 -1.3069  1.0306
  979MOL0     H35051   0.116   1.781   7.073  2.3082  0.7404 -0.0117
  979MOL0     H35052   0.497   1.747   7.182  1.2173  1.3562  1.4478
  979MOL0     H35053   0.358   1.832   7.234  1.4756  0.9027 -0.5267
  979MOL0     H35054   0.526   1.855   6.990  2.0176 -0.8116  2.9291
  979MOL0     H35055   0.354   1.902   6.967 -0.5723  2.4587  1.6217
  979MOL0     H35056   0.552   2.006   7.183  2.0548  1.1219 -1.2210
  979MOL0     H35057   0.521   2.089   7.033 -1.0631 -1.6216 -1.3197
  979MOL0     H35058   0.350   2.197   7.090  1.3750  0.0469 -1.2405
  979MOL0     H35059   0.261   2.058   7.127  1.1974 -2.3053 -0.3360
  979MOL0     H35060   0.534   2.323   7.181  2.2890  3.0436  0.6855
  979MOL0     H35061   0.637   2.601   7.290 -2.3958 -1.3671  0.3895
  979MOL0     H35062   0.676   2.491   7.168 -1.5508 -0.1304  1.2178
  979MOL0     H35063   0.797   2.514   7.294  0.0226  1.2019  2.8116
  979MOL0     H35064   0.800   2.642   7.798 -1.3281  0.8956 -0.9378
  979MOL0     H35065   0.921   2.864   7.871 -0.1860 -1.1785  0.6501
  979MOL0     H35066   0.942   3.070   7.895  0.7007 -1.1867 -0.1744
  979MOL0     H35067   0.984   3.214   7.817 -2.0893  0.6143  0.8506
  979MOL0     H35068   0.752   3.057   7.730 -3.9133  1.4069  5.1673
  979MOL0     H35069   0.756   3.217   7.801  0.2209 -2.6193  1.7192
  979MOL0     H35070   0.854   3.139   7.514  1.2194  2.4274 -1.2763
  979MOL0     H35071   0.875   3.296   7.603 -0.8319  1.3285  0.4096
  979MOL0     H35072   0.635   3.309   7.638 -1.2275 -1.3534  0.4834
  979MOL0     H35073   0.599   3.163   7.559 -0.0046 -0.0293 -1.6135
  979MOL0     H35074   0.747   3.385   7.417  1.6349 -1.4370  0.2027
  979MOL0     H35075   0.687   3.243   7.340  4.2234  3.2910 -0.4783
  979MOL0     H35076   0.511   3.468   7.455  1.5501  1.5406 -1.0338
  979MOL0     H35077   0.448   3.322   7.357 -2.4357  1.3040  0.0302
  979MOL0     H35078   0.630   3.531   7.258 -0.6705  1.7410 -3.0491
  979MOL0     H35079   0.441   3.528   7.244 -0.1452 -0.5546 -0.2744
  979MOL0     H35080   0.432   3.363   7.095  0.4459 -2.3092 -1.0877
  979MOL0     H35081   0.586   3.290   7.133 -1.1276 -0.4330 -0.7767
  979MOL0     H35082   1.049   2.920   7.475  1.4445  3.8476  2.9907
  979MOL0     H35083   0.930   2.725   7.402  0.3823 -2.6572  0.7673
  979MOL0     H35084   0.540   2.296   7.668 -2.4781  0.3466  0.2080
  979MOL0     H35085   0.413   2.127   7.529 -0.8066  0.7013  2.3195
  979MOL0     H35086   0.003   1.688   7.783  0.4246 -0.9660  0.2978
  979MOL0     H35087   0.112   1.736   7.999 -0.2297  1.2147  0.2124
  979MOL0     H35088   0.199   1.693   8.316 -1.2536 -0.5935  0.9597
  979MOL0     H35089   0.403   1.706   8.448 -1.0368 -0.0912 -1.8953
  979MOL0     H35090   0.445   2.038   8.712 -0.1769  1.9528 -0.6775
  979MOL0     H35091   0.591   1.947   8.735 -1.2866  0.3239  0.9323
  979MOL0     H35092   0.655   2.162   8.712 -3.0820  0.9923  0.5431
  979MOL0     H35093   0.572   2.185   8.548 -0.3882 -1.3538 -0.8913
  979MOL0     H35094   0.812   2.003   8.607  0.0517  1.2559  1.8082
  979MOL0     H35095   0.737   2.026   8.453  0.5377 -0.7741  0.8942
  979MOL0     H35096   0.851   2.251   8.607 -1.9710  1.6514 -1.1783
  979MOL0     H35097   0.788   2.251   8.439 -0.3266 -0.5286 -0.1121
  979MOL0     H35098   1.123   2.038   8.334 -3.7926 -2.4729 -4.3472
  979MOL0     H35099   0.352   2.124   8.498  1.7940 -0.5191  0.4800
  979MOL0     H35100   0.206   2.253   8.355 -3.7626  1.2947  3.1096
  979MOL0     H35101   0.135   2.167   8.224  4.2004 -0.0715  0.1050
  979MOL0     H35102   0.056   2.186   8.375 -1.3988  0.6681 -3.4731
  980MOL0     O35103   6.767   1.137   7.415 -0.4282  0.0693  0.0905
  980MOL0     C35104   6.877   1.159   7.461  0.2053  0.2843 -0.0473
  980MOL0     O35105   6.945   1.076   7.545 -0.4509 -0.8527 -0.5067
  980MOL0     C35106   6.860   0.995   7.623 -0.3973 -0.6816 -0.2833
  980MOL0     C35107   6.876   0.859   7.592  0.8646  0.0693 -0.3887
  980MOL0     C35108   6.807   0.754   7.659 -0.0211  0.0765 -0.5048
  980MOL0     C35109   6.723   0.800   7.766  0.2456 -0.1737 -0.5043
  980MOL0     O35110   6.646   0.717   7.842  0.3677 -0.2411 -0.0968
  980MOL0     C35111   6.690   0.586   7.863 -0.7241 -0.7347 -0.1193
  980MOL0     C35112   6.597   0.529   7.960  0.2889 -0.1630 -0.9475
  980MOL0     C35113   6.651   0.395   8.007 -0.2530  0.2944 -0.4235
  980MOL0     C35114   6.760   0.394   8.113  0.2385 -0.5279 -0.6852
  980MOL0     C35115   6.771   0.262   8.195 -0.2129 -0.2522 -0.4570
  980MOL0     C35116   6.804   0.137   8.105  0.2729 -0.5728  0.3957
  980MOL0     C35117   6.740   0.005   8.170 -0.6233 -0.1136  0.1053
  980MOL0     C35118   6.796  -0.010   8.319 -1.1122  0.5039 -0.7165
  980MOL0     N35119   6.772  -0.143   8.382  0.0543 -0.0032 -0.1236
  980MOL0     C35120   6.865  -0.241   8.406 -0.3444 -0.6743  0.0856
  980MOL0     C35121   6.804  -0.338   8.483  0.0127 -1.1806 -0.6063
  980MOL0     C35122   6.883  -0.437   8.556  0.4833 -0.6134  1.3978
  980MOL0     C35123   6.961  -0.387   8.675 -0.0464  1.1745 -0.0048
  980MOL0     C35124   6.887  -0.335   8.796  0.4565  0.4641  0.5350
  980MOL0     C35125   6.845  -0.187   8.779  0.9965  0.8468  1.2060
  980MOL0     O35126   6.953  -0.099   8.762  0.4546 -0.2816  1.1162
  980MOL0     C35127   6.934   0.023   8.702  0.3993  1.2954 -0.1235
  980MOL0     C35128   7.037   0.092   8.634 -0.2004  0.1948 -0.7870
  980MOL0     C35129   7.023   0.216   8.569  0.1039  0.8504  0.1018
  980MOL0     C35130   7.144   0.273   8.490 -0.1474  0.0076 -0.3288
  980MOL0     C35131   6.898   0.274   8.584 -0.0316  0.1051  1.0575
  980MOL0     C35132   6.867   0.412   8.534  0.1642 -0.0561 -1.1753
  980MOL0     O35133   6.967   0.507   8.548 -0.3806  0.1838  0.1028
  980MOL0     C35134   6.938   0.640   8.506  0.0977 -0.0188 -0.0610
  980MOL0     C35135   6.927   0.741   8.594  0.4294  0.0596 -0.0557
  980MOL0     C35136   6.892   0.869   8.558  1.0233 -0.2372 -0.0241
  980MOL0     C35137   6.864   0.906   8.427 -0.2006 -0.4338  0.7092
  980MOL0     O35138   6.822   1.026   8.386  0.9147 -0.8380  0.5765
  980MOL0     C35139   6.767   1.130   8.475 -0.5021  0.5276  0.9573
  980MOL0     C35140   6.840   1.268   8.491  0.7433 -0.5348  0.0028
  980MOL0     C35141   6.963   1.273   8.579  0.3502  0.4425 -0.3181
  980MOL0     C35142   6.935   1.329   8.722 -0.9176  0.0108  0.2876
  980MOL0     C35143   6.868   1.226   8.820 -0.9784  0.3683  0.2036
  980MOL0     C35144   6.821   1.305   8.947  0.3056  0.0749 -0.2252
  980MOL0     C35145   6.778   1.220   9.068 -0.3514  0.3787  0.3435
  980MOL0     C35146   6.894   1.165   9.148  0.3917 -0.6057  0.0789
  980MOL0    Cl35147   6.823   1.115   9.294 -0.2536 -0.0306 -0.4897
  980MOL0     C35148   6.881   0.803   8.335  0.0119 -0.7545  0.6775
  980MOL0     C35149   6.902   0.670   8.372 -1.3149  0.4177 -0.4935
  980MOL0     O35150   6.758   0.430   8.483 -0.3773  0.2934  0.0873
  980MOL0     C35151   6.795   0.203   8.638 -0.8641  0.5141  0.5048
  980MOL0     C35152   6.809   0.081   8.708 -0.1530  0.6347 -0.4866
  980MOL0     N35153   6.676  -0.296   8.508 -0.5499 -0.0230 -0.0234
  980MOL0     N35154   6.660  -0.188   8.452 -0.0109  1.3520  0.1653
  980MOL0     C35155   6.698   0.935   7.787 -0.1926 -0.6407 -0.2142
  980MOL0     C35156   6.777   1.031   7.723  0.3379  0.6207 -0.5846
  980MOL0     C35157   6.961   1.270   7.398  0.1630  0.2952  1.0288
  980MOL0     C35158   7.101   1.275   7.428  0.8471  0.7668 -0.2652
  980MOL0     C35159   7.186   1.374   7.390 -0.3303 -0.6288 -0.2751
  980MOL0     C35160   7.132   1.476   7.309 -0.1566 -0.1666 -0.0735
  980MOL0     O35161   7.194   1.600   7.290  0.2456  0.3357 -0.5779
  980MOL0     C35162   7.335   1.602   7.292 -0.7226 -0.2503 -0.9758
  980MOL0     C35163   7.380   1.735   7.225 -1.0441 -0.6945 -0.1523
  980MOL0     C35164   7.330   1.862   7.299 -0.0374 -1.4220 -1.3092
  980MOL0     C35165   7.348   1.975   7.199  1.1033 -0.3191  0.2710
  980MOL0     C35166   7.342   2.112   7.256 -0.1805  0.0941 -0.5185
  980MOL0     C35167   7.335   2.229   7.292 -0.1598  0.9917 -0.5809
  980MOL0     C35168   7.004   1.474   7.265 -0.2505 -0.6907 -0.8679
  980MOL0     C35169   6.913   1.370   7.310  0.8015 -0.8710  0.7820
  980MOL0     C35170   6.766   1.382   7.272 -0.8015  0.4293 -0.6538
  980MOL0     H35171   6.942   0.837   7.508  0.4964 -0.1810 -0.6137
  980MOL0     H35172   6.827   0.653   7.624  0.7548  0.2565 -0.6076
  980MOL0     H35173   6.791   0.591   7.906 -0.8268 -1.6954  0.2784
  980MOL0     H35174   6.676   0.529   7.771 -2.6876  0.6912 -0.7639
  980MOL0     H35175   6.576   0.591   8.048 -1.1816 -0.5734 -0.9714
  980MOL0     H35176   6.498   0.509   7.918  0.3898  0.1711 -1.3502
  980MOL0     H35177   6.563   0.341   8.042  0.1052 -2.2534 -3.0551
  980MOL0     H35178   6.682   0.346   7.914  0.9574  0.4954 -0.1525
  980MOL0     H35179   6.856   0.423   8.067 -0.4864 -0.8534 -2.4876
  980MOL0     H35180   6.735   0.468   8.189 -2.0079 -1.3894 -0.5115
  980MOL0     H35181   6.681   0.251   8.257  0.3412  0.7609  0.5751
  980MOL0     H35182   6.847   0.277   8.272 -1.4146 -0.2594  0.7810
  980MOL0     H35183   6.770   0.149   8.001  1.1952  0.8693  0.2439
  980MOL0     H35184   6.911   0.121   8.096  0.2895  0.5263 -2.8924
  980MOL0     H35185   6.760  -0.078   8.101 -2.7832 -0.2578 -0.4221
  980MOL0     H35186   6.631   0.021   8.174 -0.0317  5.2320  1.8809
  980MOL0     H35187   6.898   0.028   8.313 -1.3877  1.2198 -1.0131
  980MOL0     H35188   6.740   0.065   8.376 -0.2669  0.2930  0.4290
  980MOL0     H35189   6.973  -0.229   8.396 -0.5340  1.7338  0.3388
  980MOL0     H35190   6.966  -0.471   8.493 -0.3542  1.8547 -1.2600
  980MOL0     H35191   6.817  -0.518   8.587 -0.8565 -1.5959 -3.2907
  980MOL0     H35192   7.028  -0.466   8.710  1.2962  1.8110 -1.0432
  980MOL0     H35193   7.031  -0.316   8.630  1.5307 -1.9744 -3.0582
  980MOL0     H35194   6.805  -0.402   8.824  0.7389  1.4246  4.2469
  980MOL0     H35195   6.945  -0.331   8.889  1.3796  3.6320 -0.0487
  980MOL0     H35196   6.777  -0.180   8.694  0.0317  0.5184  1.9288
  980MOL0     H35197   6.787  -0.156   8.867 -0.6972  1.2586  0.0089
  980MOL0     H35198   7.136   0.048   8.621 -0.8695 -1.9633  0.7438
  980MOL0     H35199   7.231   0.236   8.545 -1.4460 -0.8279  1.2452
  980MOL0     H35200   7.145   0.383   8.492 -1.1130  0.0466  2.3082
  980MOL0     H35201   7.142   0.233   8.389 -0.3228 -0.6524 -0.0662
  980MOL0     H35202   6.925   0.714   8.700 -2.9384 -2.6502 -0.6359
  980MOL0     H35203   6.872   0.936   8.641 -0.4120 -2.2375  1.3526
  980MOL0     H35204   6.669   1.146   8.428 -0.2107  3.4441  1.1494
  980MOL0     H35205   6.735   1.090   8.572 -2.8529 -2.7699 -0.9514
  980MOL0     H35206   6.881   1.301   8.395  0.1308 -0.2819 -0.1825
  980MOL0     H35207   6.769   1.345   8.523  0.9571  0.0006 -0.8036
  980MOL0     H35208   7.032   1.345   8.535 -0.3997  0.7097 -1.0772
  980MOL0     H35209   7.002   1.170   8.578 -0.2621  0.2034 -0.2316
  980MOL0     H35210   6.873   1.419   8.716  0.2771  1.0514  2.5399
  980MOL0     H35211   7.030   1.362   8.765 -1.5670  2.6525 -0.1143
  980MOL0     H35212   6.778   1.185   8.775  0.9860 -0.9005 -2.8926
  980MOL0     H35213   6.934   1.145   8.853  0.0626  0.6207 -1.1977
  980MOL0     H35214   6.743   1.374   8.914  1.7589  1.7193 -0.3786
  980MOL0     H35215   6.895   1.383   8.967 -1.7784  1.8904  0.8364
  980MOL0     H35216   6.702   1.149   9.034 -0.3313  0.0283  1.0192
  980MOL0     H35217   6.726   1.278   9.145 -0.7224  1.8057 -0.9326
  980MOL0     H35218   6.959   1.252   9.161 -4.1919  3.6034 -2.0181
  980MOL0     H35219   6.940   1.082   9.093 -1.0843 -2.5170  1.5765
  980MOL0     H35220   6.864   0.822   8.229 -2.3309 -2.0643  0.7546
  980MOL0     H35221   6.906   0.597   8.292  1.5414  0.1404 -0.2068
  980MOL0     H35222   6.696   0.249   8.639 -0.4954  1.3568 -0.1505
  980MOL0     H35223   6.727   0.021   8.746  0.8022 -0.3399  0.0599
  980MOL0     H35224   6.638   0.957   7.875  1.1367 -5.3605  2.1707
  980MOL0     H35225   6.773   1.134   7.758 -1.8646  0.6638 -0.8262
  980MOL0     H35226   7.140   1.200   7.496 -2.3448 -1.5192 -0.7125
  980MOL0     H35227   7.282   1.393   7.438 -1.2515  0.7150  1.0956
  980MOL0     H35228   7.375   1.596   7.393 -0.7017  0.1444 -0.9595
  980MOL0     H35229   7.374   1.518   7.233 -0.4834 -0.0785 -1.0664
  980MOL0     H35230   7.362   1.743   7.118  0.5637 -1.7097 -0.5286
  980MOL0     H35231   7.486   1.737   7.252 -1.5223 -1.4386  2.0263
  980MOL0     H35232   7.222   1.855   7.317  0.2179 -1.3815  0.4401
  980MOL0     H35233   7.381   1.877   7.395 -2.5099  0.2000 -0.1377
  980MOL0     H35234   7.284   1.962   7.111 -0.5679 -2.2309  1.6547
  980MOL0     H35235   7.456   1.974   7.180  1.4073  2.1521  1.5220
  980MOL0     H35236   7.328   2.327   7.335 -0.7689  0.0835  1.5103
  980MOL0     H35237   6.968   1.560   7.209 -0.6237  2.2451  3.4126
  980MOL0     H35238   6.736   1.284   7.234 -1.0892  0.4456 -0.4705
  980MOL0     H35239   6.702   1.400   7.359 -1.5119  1.7547 -1.4231
  980MOL0     H35240   6.747   1.456   7.194  0.1578 -1.7969 -3.1432
  981MOL0     O35241   5.329   5.674   5.598 -0.5591 -0.2487 -0.0506
  981MOL0     C35242   5.377   5.565   5.565  0.1035  0.8315  0.3328
  981MOL0     O35243   5.318   5.439   5.562  0.2975  0.6290  0.1310
  981MOL0     C35244   5.217   5.419   5.658  0.7119  0.7076 -0.3304
  981MOL0     C35245   5.121   5.326   5.628  0.7410 -0.3763  0.2691
  981MOL0     C35246   5.046   5.274   5.723  1.4464 -1.1140  0.7465
  981MOL0     C35247   5.034   5.329   5.850 -0.1826 -0.6075 -0.6973
  981MOL0     O35248   4.947   5.274   5.933  0.0993 -0.4611  0.9192
  981MOL0     C35249   4.984   5.150   5.997  0.5045 -0.8074  0.4549
  981MOL0     C35250   4.927   5.020   5.939  0.2492 -0.7956 -0.0766
  981MOL0     C35251   4.992   4.896   6.005  0.5400 -0.3177 -0.0192
  981MOL0     C35252   4.988   4.767   5.917 -0.1650  0.2272  0.2829
  981MOL0     C35253   5.010   4.638   5.997 -0.0401  0.5722 -0.1976
  981MOL0     C35254   5.066   4.518   5.918 -0.0299 -1.0552 -0.7117
  981MOL0     C35255   4.984   4.454   5.808  0.3923 -0.1830 -1.3441
  981MOL0     C35256   4.834   4.435   5.831 -0.4211  0.3081 -1.4548
  981MOL0     N35257   4.799   4.363   5.956 -0.4062  0.5642 -0.4583
  981MOL0     C35258   4.674   4.308   5.979  0.7004 -0.8095 -0.3895
  981MOL0     C35259   4.682   4.260   6.109  0.9207  0.8933  0.3187
  981MOL0     C35260   4.563   4.198   6.173  1.2763  0.7649  0.1851
  981MOL0     C35261   4.476   4.305   6.247 -0.1858  0.9883  0.6983
  981MOL0     C35262   4.444   4.437   6.173  0.6536 -0.2467 -0.3880
  981MOL0     C35263   4.391   4.536   6.282 -0.1630 -0.1430  0.5129
  981MOL0     O35264   4.252   4.510   6.298  0.0531 -0.0928 -0.5964
  981MOL0     C35265   4.156   4.570   6.220 -0.5272 -0.4560 -0.2042
  981MOL0     C35266   4.023   4.524   6.232 -0.1825  0.3169  0.0275
  981MOL0     C35267   3.928   4.579   6.152 -0.3602  0.2584 -0.3202
  981MOL0     C35268   3.792   4.511   6.164  0.8586 -0.6756 -0.6596
  981MOL0     C35269   3.956   4.673   6.055 -0.4343  0.9384 -0.0960
  981MOL0     C35270   3.855   4.732   5.964  0.0286  0.1433  0.4604
  981MOL0     O35271   3.719   4.676   5.967  0.3373 -0.7633  0.4766
  981MOL0     C35272   3.643   4.711   5.859 -0.6988 -0.1666  0.0987
  981MOL0     C35273   3.581   4.835   5.851 -1.1370  0.4054  0.4605
  981MOL0     C35274   3.492   4.867   5.744 -0.4714  0.3043 -0.3278
  981MOL0     C35275   3.494   4.785   5.633  0.7058  1.6561  0.3281
  981MOL0     O35276   3.430   4.808   5.517  0.3959 -0.9015  0.8222
  981MOL0     C35277   3.502   4.908   5.443  0.8254  0.8846  0.8396
  981MOL0     C35278   3.398   5.007   5.381 -0.4622 -0.5748 -0.3340
  981MOL0     C35279   3.292   4.951   5.290 -0.5593 -0.0350 -0.1589
  981MOL0     C35280   3.208   5.065   5.221 -0.0898  0.0734 -0.7057
  981MOL0     C35281   3.103   5.004   5.127  0.1230 -0.0009  0.1589
  981MOL0     C35282   2.999   4.890   5.179 -0.3869 -0.5339 -0.5203
  981MOL0     C35283   2.863   4.927   5.122  0.8693  0.4452  0.2142
  981MOL0     C35284   2.865   4.899   4.959 -0.3564  0.1214 -0.4211
  981MOL0    Cl35285   2.707   4.948   4.888  0.0521  0.3805  0.0985
  981MOL0     C35286   3.552   4.656   5.639  0.6289  0.6599  0.7242
  981MOL0     C35287   3.621   4.617   5.759 -0.2583 -0.1244  0.3239
  981MOL0     O35288   3.897   4.813   5.886 -0.0619 -0.4070 -0.2939
  981MOL0     C35289   4.089   4.697   6.031  1.0192  0.2182 -0.6999
  981MOL0     C35290   4.188   4.661   6.125 -0.3493  0.0958 -0.3363
  981MOL0     N35291   4.808   4.256   6.153  0.6700  0.0435  0.3838
  981MOL0     N35292   4.876   4.327   6.067 -0.1589  0.4174  0.7314
  981MOL0     C35293   5.128   5.436   5.885 -0.5429 -0.1704  0.4917
  981MOL0     C35294   5.226   5.466   5.790 -1.2256 -0.4535 -0.4788
  981MOL0     C35295   5.498   5.555   5.474  0.2966 -1.3786  0.2101
  981MOL0     C35296   5.547   5.425   5.435 -0.1478  1.4918  0.1284
  981MOL0     C35297   5.673   5.399   5.368  0.1690 -1.1677  0.3844
  981MOL0     C35298   5.741   5.509   5.324  0.8741  0.0488  0.1003
  981MOL0     O35299   5.854   5.491   5.250  0.7247  0.1635 -0.2753
  981MOL0     C35300   5.848   5.524   5.109 -0.0178 -0.8681 -0.2895
  981MOL0     C35301   5.781   5.420   5.030  0.1285 -0.4411  1.2247
  981MOL0     C35302   5.804   5.479   4.886 -0.0712  0.3088  0.5030
  981MOL0     C35303   5.720   5.408   4.775 -0.0466 -0.1713  1.2006
  981MOL0     C35304   5.747   5.483   4.645  0.3939  0.0193 -0.1465
  981MOL0     C35305   5.729   5.554   4.550 -0.1374  0.9180 -0.5838
  981MOL0     C35306   5.687   5.637   5.341  0.4576 -0.2941  0.1137
  981MOL0     C35307   5.571   5.668   5.420  0.1030 -0.1718 -0.3352
  981MOL0     C35308   5.517   5.811   5.429 -0.2503  0.5693  0.1151
  981MOL0     H35309   5.104   5.291   5.526 -2.7588  0.4660  0.4323
  981MOL0     H35310   4.962   5.210   5.698 -0.8618  2.7832 -2.7708
  981MOL0     H35311   4.947   5.160   6.100 -3.6160 -1.6249 -0.7604
  981MOL0     H35312   5.092   5.137   5.998  0.4947 -0.9511 -0.1360
  981MOL0     H35313   4.818   5.013   5.930  0.1897  0.9623 -1.2233
  981MOL0     H35314   4.962   5.018   5.835  3.2329 -1.2784  0.8365
  981MOL0     H35315   5.095   4.918   6.035  0.3916 -1.2009  1.2057
  981MOL0     H35316   4.933   4.883   6.096 -0.4923 -3.4414 -1.0123
  981MOL0     H35317   4.896   4.760   5.859  0.2139 -3.3751 -0.0906
  981MOL0     H35318   5.071   4.783   5.847 -0.5866  0.7184 -0.1130
  981MOL0     H35319   4.915   4.600   6.032  1.3536 -1.9638  1.0587
  981MOL0     H35320   5.057   4.653   6.095 -1.3324 -0.0436  0.5378
  981MOL0     H35321   5.163   4.549   5.876  0.8321 -0.7391  1.3738
  981MOL0     H35322   5.095   4.442   5.991  4.5323 -0.2827 -1.4095
  981MOL0     H35323   5.029   4.355   5.813 -0.4719 -0.6603 -2.5449
  981MOL0     H35324   5.008   4.489   5.707 -0.2878 -0.9147 -1.7688
  981MOL0     H35325   4.781   4.529   5.849  0.4509  0.2447  2.3121
  981MOL0     H35326   4.792   4.379   5.747  1.9979 -0.3554 -2.3084
  981MOL0     H35327   4.586   4.310   5.916  1.3579  0.2632 -1.3225
  981MOL0     H35328   4.592   4.120   6.244  2.5004  0.1509 -0.9594
  981MOL0     H35329   4.507   4.137   6.102  3.1842 -1.4638  0.4633
  981MOL0     H35330   4.384   4.256   6.282 -0.2133  0.9769  0.6094
  981MOL0     H35331   4.532   4.329   6.338 -0.7604  1.8100  0.8465
  981MOL0     H35332   4.529   4.474   6.115 -0.2525 -0.7578 -2.1501
  981MOL0     H35333   4.361   4.428   6.102 -1.1447  0.2401  1.5473
  981MOL0     H35334   4.437   4.515   6.379 -0.5717  0.1477  0.7744
  981MOL0     H35335   4.407   4.640   6.254  2.5179 -0.0522  2.1025
  981MOL0     H35336   4.006   4.444   6.303  1.5754 -0.6983 -0.6223
  981MOL0     H35337   3.714   4.585   6.183 -0.2049 -1.4559 -1.8194
  981MOL0     H35338   3.795   4.439   6.245  1.8465 -0.6713 -0.6804
  981MOL0     H35339   3.770   4.453   6.074  0.5611  2.5680 -2.8862
  981MOL0     H35340   3.600   4.914   5.924 -1.9699  0.2457  0.8608
  981MOL0     H35341   3.444   4.964   5.754 -2.2914 -0.6716  0.9476
  981MOL0     H35342   3.577   4.956   5.507  3.0991 -3.0111  1.3725
  981MOL0     H35343   3.546   4.855   5.359 -1.8350  1.4841 -1.0644
  981MOL0     H35344   3.349   5.057   5.464 -1.3993  1.8486 -2.2178
  981MOL0     H35345   3.462   5.077   5.327  2.0901 -3.1242 -0.8688
  981MOL0     H35346   3.226   4.886   5.348 -0.2468 -1.2673 -1.1228
  981MOL0     H35347   3.335   4.898   5.204 -0.1751 -1.3665  0.8153
  981MOL0     H35348   3.273   5.127   5.160 -3.6251  1.7105 -3.1335
  981MOL0     H35349   3.164   5.122   5.304 -1.4633 -0.4434 -1.0448
  981MOL0     H35350   3.043   5.091   5.098  0.3454  0.6246  1.5039
  981MOL0     H35351   3.153   4.963   5.038  0.3438  0.6961 -0.0473
  981MOL0     H35352   2.994   4.895   5.289  0.3641 -1.4533 -0.4232
  981MOL0     H35353   3.007   4.788   5.141 -2.2335 -0.1223 -2.1589
  981MOL0     H35354   2.829   5.030   5.131  0.5464  0.8996 -4.0647
  981MOL0     H35355   2.783   4.871   5.171  1.3470 -0.8661 -0.4328
  981MOL0     H35356   2.893   4.796   4.938  1.9214  0.6455 -0.1922
  981MOL0     H35357   2.943   4.964   4.920 -0.8048  0.7221 -0.3411
  981MOL0     H35358   3.549   4.587   5.555  2.3558  1.6082 -0.1647
  981MOL0     H35359   3.658   4.516   5.774  1.1863  0.7659  3.5787
  981MOL0     H35360   4.121   4.775   5.963  0.6557  1.3040  0.3345
  981MOL0     H35361   4.283   4.706   6.099 -0.8003 -0.3271 -3.0221
  981MOL0     H35362   5.140   5.473   5.986  2.8915  0.2957  0.0609
  981MOL0     H35363   5.305   5.536   5.816  0.2930 -2.0293 -0.6759
  981MOL0     H35364   5.496   5.331   5.456 -1.8200  2.1355 -0.8090
  981MOL0     H35365   5.702   5.297   5.348  0.4009 -0.8424 -1.0655
  981MOL0     H35366   5.801   5.622   5.096 -2.4562 -2.1341 -1.7254
  981MOL0     H35367   5.954   5.526   5.083  0.8611  2.6957  2.6831
  981MOL0     H35368   5.675   5.428   5.054 -0.1398  2.3977 -0.5204
  981MOL0     H35369   5.815   5.316   5.034 -0.5717 -0.8795 -1.8989
  981MOL0     H35370   5.779   5.584   4.872  6.7519  2.1182 -2.1976
  981MOL0     H35371   5.908   5.464   4.858 -0.1270 -0.7010  0.7857
  981MOL0     H35372   5.613   5.400   4.794 -0.0685 -0.9861  0.7521
  981MOL0     H35373   5.755   5.306   4.761 -1.3768 -0.4690 -0.1787
  981MOL0     H35374   5.725   5.618   4.464 -0.0346 -0.4739 -1.6621
  981MOL0     H35375   5.747   5.720   5.305 -0.3513 -0.8541 -2.7928
  981MOL0     H35376   5.421   5.821   5.377  0.1052 -1.3361 -1.0069
  981MOL0     H35377   5.500   5.835   5.535 -0.2636 -1.1235  0.5372
  981MOL0     H35378   5.596   5.875   5.391  1.0340 -0.8189  0.3263
  982MOL0     O35379   7.658   3.331   8.536 -0.5030  0.5486 -0.1331
  982MOL0     C35380   7.701   3.431   8.497 -1.3186 -0.3659  0.8950
  982MOL0     O35381   7.631   3.526   8.433 -0.0276 -0.1503  0.3255
  982MOL0     C35382   7.494   3.538   8.438  0.8707 -0.3667 -0.4984
  982MOL0     C35383   7.420   3.510   8.552  1.0049  0.2572  0.1844
  982MOL0     C35384   7.281   3.533   8.550 -0.0294  0.2958 -1.0447
  982MOL0     C35385   7.217   3.589   8.436  0.1200 -0.4196 -0.6600
  982MOL0     O35386   7.076   3.605   8.449  0.5830 -0.4729 -0.4444
  982MOL0     C35387   6.986   3.600   8.342  0.0211  0.3725  0.2752
  982MOL0     C35388   6.938   3.738   8.311 -0.4044 -0.0902 -0.4647
  982MOL0     C35389   6.817   3.725   8.226 -0.0789 -0.1003 -0.1888
  982MOL0     C35390   6.784   3.867   8.168  0.8674 -0.6392 -0.7594
  982MOL0     C35391   6.667   3.870   8.074 -0.4129 -0.2311  0.3105
  982MOL0     C35392   6.646   4.020   8.022  0.1215  0.3303  0.4932
  982MOL0     C35393   6.543   4.000   7.919  1.3407 -0.2026  0.7751
  982MOL0     C35394   6.528   4.127   7.827  0.8188 -0.2039 -0.9594
  982MOL0     N35395   6.462   4.236   7.899 -0.1802 -1.1628 -0.0698
  982MOL0     C35396   6.535   4.331   7.973 -0.0261 -0.3488 -0.2101
  982MOL0     C35397   6.439   4.406   8.041  0.3777 -0.1003  0.1234
  982MOL0     C35398   6.465   4.525   8.132 -1.0779  0.1389 -0.6585
  982MOL0     C35399   6.495   4.468   8.271 -0.0695 -0.2163  0.3552
  982MOL0     C35400   6.521   4.584   8.368 -0.9807  0.1071  0.9785
  982MOL0     C35401   6.492   4.534   8.514 -0.1744  0.9070 -0.4502
  982MOL0     O35402   6.509   4.629   8.610  0.0969  0.0117  0.3254
  982MOL0     C35403   6.450   4.614   8.733 -0.1199 -0.1026  0.5184
  982MOL0     C35404   6.507   4.694   8.834 -0.0309  0.7519 -1.1432
  982MOL0     C35405   6.483   4.669   8.969  0.4415  0.8215  0.0862
  982MOL0     C35406   6.537   4.754   9.087 -0.8079 -0.7807  0.3227
  982MOL0     C35407   6.389   4.565   9.003  0.2086  0.9394  1.0515
  982MOL0     C35408   6.352   4.527   9.140 -0.9811  0.2077 -0.1771
  982MOL0     O35409   6.439   4.419   9.194 -0.3687 -1.1752  0.1363
  982MOL0     C35410   6.408   4.380   9.318  0.5119  0.2870 -0.8369
  982MOL0     C35411   6.502   4.384   9.423 -0.1742 -0.6258  0.9789
  982MOL0     C35412   6.463   4.331   9.555 -0.5570 -0.8955  0.4759
  982MOL0     C35413   6.332   4.285   9.575  0.3011 -0.1824 -0.6900
  982MOL0     O35414   6.279   4.240   9.690  0.0783  0.3261 -0.4997
  982MOL0     C35415   6.344   4.261   9.821 -0.2671 -0.6757  0.4836
  982MOL0     C35416   6.272   4.184   9.932 -0.1273  0.6795  0.5848
  982MOL0     C35417   6.341   4.206  10.063  0.1772  0.2328 -0.5942
  982MOL0     C35418   6.281   4.111  10.157 -0.0144  0.2340 -0.5088
  982MOL0     C35419   6.360   4.086  10.276 -0.7073 -1.0495 -0.7926
  982MOL0     C35420   6.403   4.203  10.363  0.0760  0.2236  0.6099
  982MOL0     C35421   6.453   4.167  10.501 -0.5960  0.6934 -0.3587
  982MOL0     C35422   6.555   4.054  10.515 -0.6924  0.4411  0.2363
  982MOL0    Cl35423   6.459   3.906  10.548  0.2721  0.0833 -0.3544
  982MOL0     C35424   6.244   4.272   9.464 -0.1744 -0.1268 -0.0698
  982MOL0     C35425   6.284   4.318   9.337 -0.2726  0.0610 -0.7993
  982MOL0     O35426   6.253   4.575   9.194 -0.0408  0.3251 -0.1427
  982MOL0     C35427   6.333   4.493   8.897  0.7056 -0.2797 -1.0561
  982MOL0     C35428   6.354   4.516   8.767 -0.1074 -0.3224  0.4547
  982MOL0     N35429   6.313   4.347   8.014 -0.5856  0.2112 -0.1066
  982MOL0     N35430   6.331   4.247   7.937  0.9239  0.9335 -0.4207
  982MOL0     C35431   7.295   3.622   8.330 -0.6774 -0.1600  0.3463
  982MOL0     C35432   7.436   3.596   8.326  1.2007 -0.7815 -0.4308
  982MOL0     C35433   7.844   3.462   8.519 -0.2311 -0.0072  0.3726
  982MOL0     C35434   7.908   3.525   8.414  0.0987 -0.9242  0.6063
  982MOL0     C35435   8.049   3.537   8.399 -0.3634 -1.2183 -1.1107
  982MOL0     C35436   8.131   3.487   8.496 -0.2475  0.4636 -0.2957
  982MOL0     O35437   8.273   3.498   8.492  0.5872  0.1998  0.1853
  982MOL0     C35438   8.330   3.590   8.395  0.9126 -0.2128 -0.9827
  982MOL0     C35439   8.306   3.733   8.427 -0.0130 -0.6400 -0.2546
  982MOL0     C35440   8.290   3.762   8.578 -0.1453  0.4084 -0.6957
  982MOL0     C35441   8.259   3.916   8.619 -0.0965 -0.4222 -0.3138
  982MOL0     C35442   8.235   3.905   8.761 -0.1092  0.4080  0.4208
  982MOL0     C35443   8.207   3.884   8.876  1.0049 -1.0177 -0.5581
  982MOL0     C35444   8.071   3.421   8.607 -1.0352  0.9019 -0.1596
  982MOL0     C35445   7.931   3.409   8.614  0.1043  0.7866 -0.1406
  982MOL0     C35446   7.872   3.324   8.729 -0.1156  0.9557 -0.3179
  982MOL0     H35447   7.454   3.458   8.641 -1.5366 -0.0345  1.0677
  982MOL0     H35448   7.235   3.498   8.642  3.1243 -0.5477  0.3606
  982MOL0     H35449   6.894   3.547   8.367 -0.7183 -0.4759 -3.5995
  982MOL0     H35450   7.028   3.549   8.254 -0.3739  3.2593 -1.7034
  982MOL0     H35451   6.900   3.782   8.404 -0.4530 -3.3057  1.1523
  982MOL0     H35452   7.020   3.800   8.273  0.1353  1.9356  3.4315
  982MOL0     H35453   6.846   3.656   8.147  1.9053 -1.5477  1.7115
  982MOL0     H35454   6.730   3.698   8.287  1.6655  0.2785  2.6506
  982MOL0     H35455   6.766   3.935   8.252  0.8502  2.0216 -2.7767
  982MOL0     H35456   6.868   3.901   8.107 -0.0693  1.0878 -1.1495
  982MOL0     H35457   6.567   3.842   8.108 -0.4152  1.4284  1.8200
  982MOL0     H35458   6.686   3.794   7.997  0.5396  0.7086 -0.4190
  982MOL0     H35459   6.604   4.079   8.104  3.4375 -0.4324  2.9502
  982MOL0     H35460   6.741   4.056   7.982 -1.2736  0.3800 -3.2024
  982MOL0     H35461   6.441   3.981   7.954  0.7129 -0.5656 -1.1590
  982MOL0     H35462   6.568   3.918   7.851  1.7874  1.0339 -0.5771
  982MOL0     H35463   6.624   4.162   7.787  0.8904 -1.4041 -1.8923
  982MOL0     H35464   6.465   4.109   7.740  0.0775  2.5647 -1.0957
  982MOL0     H35465   6.642   4.347   7.967 -0.1617  0.4180 -0.6467
  982MOL0     H35466   6.380   4.593   8.146 -1.2709 -0.3957  1.0615
  982MOL0     H35467   6.545   4.594   8.103 -0.5626 -0.1617  0.0025
  982MOL0     H35468   6.401   4.423   8.306  0.8554 -0.3863  2.8863
  982MOL0     H35469   6.584   4.405   8.258 -0.2760 -0.3275 -0.5912
  982MOL0     H35470   6.613   4.640   8.350 -1.2420 -0.2034 -1.7476
  982MOL0     H35471   6.445   4.661   8.349 -0.6355 -0.3367 -3.2311
  982MOL0     H35472   6.399   4.477   8.509  1.9591 -2.8024 -2.5517
  982MOL0     H35473   6.568   4.458   8.535 -1.2453  0.1868  0.9563
  982MOL0     H35474   6.599   4.749   8.816  0.4431  1.0049  1.6200
  982MOL0     H35475   6.606   4.834   9.058  0.1536 -0.9445  2.0243
  982MOL0     H35476   6.595   4.698   9.161 -0.3742 -2.2546 -1.0714
  982MOL0     H35477   6.454   4.807   9.134 -1.6488  1.8504 -3.6594
  982MOL0     H35478   6.603   4.423   9.413  0.4602 -2.0041  1.6746
  982MOL0     H35479   6.536   4.319   9.635 -0.3474  1.3405  0.6657
  982MOL0     H35480   6.446   4.221   9.816 -0.4090 -0.8976 -0.7553
  982MOL0     H35481   6.349   4.366   9.853  1.3260 -0.7900  0.6936
  982MOL0     H35482   6.170   4.222   9.931 -0.9764 -1.4896  0.1151
  982MOL0     H35483   6.272   4.083   9.891 -3.0216  1.4157 -1.5038
  982MOL0     H35484   6.337   4.308  10.102 -1.0343  0.0510 -0.1947
  982MOL0     H35485   6.446   4.174  10.062 -0.1465 -1.4019  2.6706
  982MOL0     H35486   6.281   4.014  10.105  1.0290  0.6450 -1.3248
  982MOL0     H35487   6.188   4.155  10.195 -0.2749 -0.5005 -0.2850
  982MOL0     H35488   6.312   4.005  10.331  1.9654 -1.3350  1.3054
  982MOL0     H35489   6.453   4.045  10.234 -1.3747 -2.4864 -0.9214
  982MOL0     H35490   6.311   4.261  10.367 -0.5840 -0.7491 -0.0315
  982MOL0     H35491   6.485   4.244  10.302  0.9498 -4.9338 -2.2286
  982MOL0     H35492   6.359   4.145  10.552 -1.2983  1.7408 -1.1845
  982MOL0     H35493   6.502   4.255  10.544 -0.0720  0.2527 -0.0327
  982MOL0     H35494   6.616   4.066  10.605  1.4950 -1.5051 -0.8621
  982MOL0     H35495   6.616   4.047  10.424 -0.3565  3.2905  0.1332
  982MOL0     H35496   6.144   4.231   9.470 -0.6026  0.8795 -0.0429
  982MOL0     H35497   6.209   4.314   9.259  3.0630  1.8787 -4.4856
  982MOL0     H35498   6.255   4.419   8.913  2.2632 -1.7502  0.1124
  982MOL0     H35499   6.287   4.467   8.697 -1.5275  2.0211  0.0943
  982MOL0     H35500   7.248   3.661   8.240 -1.4832 -2.2704 -0.1903
  982MOL0     H35501   7.487   3.622   8.234 -2.2639  1.7411 -1.8332
  982MOL0     H35502   7.856   3.553   8.323  2.6757  0.0152 -0.6840
  982MOL0     H35503   8.088   3.583   8.309  0.2189 -1.3822 -0.9528
  982MOL0     H35504   8.437   3.569   8.397  0.8906 -0.4857 -2.0142
  982MOL0     H35505   8.303   3.555   8.295 -0.7429 -2.6636  0.2185
  982MOL0     H35506   8.231   3.784   8.365  1.7212  0.5128 -1.5005
  982MOL0     H35507   8.396   3.786   8.395 -0.6520 -0.2123 -1.3984
  982MOL0     H35508   8.206   3.707   8.621  1.6237 -0.7208  1.5298
  982MOL0     H35509   8.384   3.735   8.629  0.6085 -0.4931 -2.4575
  982MOL0     H35510   8.170   3.952   8.567  0.8729  0.7469 -1.2087
  982MOL0     H35511   8.341   3.986   8.599 -1.1891  0.3036 -2.6787
  982MOL0     H35512   8.187   3.848   8.974  1.7283 -1.8621 -0.7076
  982MOL0     H35513   8.132   3.385   8.689  3.6045  4.8767 -1.3320
  982MOL0     H35514   7.871   3.216   8.709  4.4750  0.6462  0.2511
  982MOL0     H35515   7.937   3.347   8.813  0.5454 -0.5519 -0.3904
  982MOL0     H35516   7.772   3.348   8.767 -0.1041  2.2409 -1.0507
  983MOL0     O35517   2.037   7.125   3.761 -0.2208 -1.1275  0.0981
  983MOL0     C35518   2.130   7.203   3.788  0.7956  0.1174  0.3596
  983MOL0     O35519   2.135   7.268   3.907 -0.6276  0.3272  0.3426
  983MOL0     C35520   2.036   7.260   3.997  0.3178 -0.3076 -0.1181
  983MOL0     C35521   1.988   7.380   4.036 -0.3273  0.2112 -0.2096
  983MOL0     C35522   1.910   7.393   4.147 -0.6049 -0.3096 -0.1651
  983MOL0     C35523   1.876   7.273   4.214  0.3002  0.0089  0.0978
  983MOL0     O35524   1.785   7.283   4.319 -0.8780 -0.0929 -0.1580
  983MOL0     C35525   1.649   7.253   4.297  0.5906  0.8409  0.8202
  983MOL0     C35526   1.567   7.312   4.413 -0.5093 -0.2132  0.9590
  983MOL0     C35527   1.449   7.216   4.463 -0.1275 -0.2044  0.7849
  983MOL0     C35528   1.345   7.207   4.346 -0.6937 -0.8110  0.3866
  983MOL0     C35529   1.211   7.156   4.402 -0.0220  0.4936  0.3264
  983MOL0     C35530   1.096   7.196   4.307 -0.4540  0.4519  0.4920
  983MOL0     C35531   0.984   7.089   4.340 -0.7128 -0.5106  0.2716
  983MOL0     C35532   0.845   7.127   4.280  0.2400  0.3589  0.0504
  983MOL0     N35533   0.754   7.022   4.285 -0.5937  0.5026 -0.3259
  983MOL0     C35534   0.691   6.964   4.177  0.0671  0.0488  0.2314
  983MOL0     C35535   0.598   6.887   4.229  0.1733  0.3074 -0.2827
  983MOL0     C35536   0.510   6.784   4.156 -0.8170 -0.4063  0.5310
  983MOL0     C35537   0.504   6.638   4.222  0.5473  0.1725  0.0853
  983MOL0     C35538   0.641   6.570   4.215 -0.2626  0.1468  1.0239
  983MOL0     C35539   0.694   6.537   4.075 -0.4237  0.3242  1.6088
  983MOL0     O35540   0.813   6.468   4.077 -0.1975  0.4336 -0.5120
  983MOL0     C35541   0.917   6.531   4.126 -0.0650 -0.5721  0.5849
  983MOL0     C35542   1.018   6.455   4.189 -0.2388  0.3388  0.1220
  983MOL0     C35543   1.136   6.514   4.225  0.2634  0.1669 -0.1170
  983MOL0     C35544   1.244   6.412   4.272  0.0291  0.2542 -0.5334
  983MOL0     C35545   1.149   6.654   4.215 -0.4960 -0.1051  0.3184
  983MOL0     C35546   1.276   6.721   4.252  0.9112 -0.4052  0.6336
  983MOL0     O35547   1.380   6.655   4.294 -1.3867 -0.2103 -0.5304
  983MOL0     C35548   1.488   6.726   4.351  1.2588  0.4519  0.4813
  983MOL0     C35549   1.479   6.774   4.476 -0.0945 -0.2260 -1.0103
  983MOL0     C35550   1.587   6.836   4.532  0.3570  0.2793 -0.3579
  983MOL0     C35551   1.700   6.863   4.454  0.4747  0.0526 -0.1638
  983MOL0     O35552   1.811   6.923   4.500 -0.8082 -0.4133  0.0854
  983MOL0     C35553   1.934   6.853   4.497 -0.6676 -0.5433 -0.2628
  983MOL0     C35554   2.028   6.936   4.587 -0.1036  0.7269  0.1217
  983MOL0     C35555   2.069   7.068   4.519 -0.5855 -1.1659 -0.0590
  983MOL0     C35556   2.126   7.156   4.621  0.5843 -0.3145  0.1248
  983MOL0     C35557   2.179   7.298   4.595  0.2387  0.1432  0.3309
  983MOL0     C35558   2.071   7.372   4.521 -0.0014  0.3821  0.7980
  983MOL0     C35559   2.109   7.515   4.463  0.1570  1.1820 -0.2359
  983MOL0     C35560   1.987   7.606   4.449 -0.9128 -0.2305  0.8635
  983MOL0    Cl35561   1.916   7.642   4.616 -0.5690  0.2678  0.0698
  983MOL0     C35562   1.704   6.823   4.321  0.3589  0.1060  0.2730
  983MOL0     C35563   1.601   6.745   4.270  0.1808  0.1757 -0.0547
  983MOL0     O35564   1.273   6.842   4.246  0.0026  0.9339 -0.0468
  983MOL0     C35565   1.050   6.725   4.154  1.1139  0.3923  0.4955
  983MOL0     C35566   0.932   6.672   4.111 -0.1168 -0.0805 -0.9447
  983MOL0     N35567   0.607   6.896   4.370 -0.6366 -0.5924  0.8934
  983MOL0     N35568   0.695   6.976   4.400 -0.1371 -0.7126 -0.6027
  983MOL0     C35569   1.919   7.144   4.175  0.3216  0.5833  0.4068
  983MOL0     C35570   2.002   7.138   4.063 -0.5849 -0.0237  0.7295
  983MOL0     C35571   2.250   7.213   3.696 -0.3592  0.1544 -0.5835
  983MOL0     C35572   2.322   7.335   3.704  0.2125 -0.1673 -0.9340
  983MOL0     C35573   2.423   7.355   3.617  0.4191  0.4256  0.6029
  983MOL0     C35574   2.459   7.263   3.512 -0.1088  0.6647 -0.1491
  983MOL0     O35575   2.570   7.280   3.429  0.5099 -0.1333 -0.7504
  983MOL0     C35576   2.619   7.415   3.422 -0.9164 -0.0364  0.3754
  983MOL0     C35577   2.697   7.425   3.299 -0.0650  0.8989  0.5527
  983MOL0     C35578   2.614   7.376   3.178 -0.1598  0.6927  0.2299
  983MOL0     C35579   2.655   7.436   3.044 -1.1455 -0.3505  0.1621
  983MOL0     C35580   2.579   7.388   2.930  0.7908  0.3274 -0.7994
  983MOL0     C35581   2.505   7.362   2.836  0.5656  0.5286  0.6434
  983MOL0     C35582   2.380   7.149   3.503  0.6047 -0.1964 -1.2003
  983MOL0     C35583   2.278   7.121   3.594  0.2255  0.5032  0.3925
  983MOL0     C35584   2.201   6.990   3.579  0.2182  0.0998  0.3730
  983MOL0     H35585   2.029   7.475   4.002 -2.3556  0.7974 -1.1651
  983MOL0     H35586   1.881   7.494   4.174 -0.0686  0.8593 -3.5068
  983MOL0     H35587   1.640   7.144   4.309  0.4847  0.7204 -0.2082
  983MOL0     H35588   1.632   7.287   4.194  3.0057  1.6731  0.6330
  983MOL0     H35589   1.631   7.325   4.501  1.7383 -0.4895 -0.5494
  983MOL0     H35590   1.519   7.407   4.388 -1.3907 -1.2249 -1.5048
  983MOL0     H35591   1.492   7.117   4.478  1.8416  0.8401  2.5890
  983MOL0     H35592   1.405   7.256   4.556 -3.0798 -1.2682 -0.0357
  983MOL0     H35593   1.311   7.307   4.315 -1.0024  0.1785  3.5299
  983MOL0     H35594   1.383   7.153   4.259  0.6775  1.0429 -0.2321
  983MOL0     H35595   1.192   7.193   4.503  0.6201 -2.1776  1.5327
  983MOL0     H35596   1.229   7.048   4.415 -0.7589  0.0159 -2.2011
  983MOL0     H35597   1.056   7.297   4.321 -1.1288  0.1470  0.8245
  983MOL0     H35598   1.140   7.190   4.207 -0.5589  2.1320  0.3151
  983MOL0     H35599   0.976   7.079   4.449  2.2743  0.6460  0.6861
  983MOL0     H35600   1.011   6.989   4.303 -0.5189 -0.6902  0.8810
  983MOL0     H35601   0.802   7.216   4.328 -1.5298 -0.3878 -0.0812
  983MOL0     H35602   0.847   7.151   4.174  0.9786 -2.2483 -0.5950
  983MOL0     H35603   0.709   6.971   4.070 -0.5667 -1.4298 -0.0084
  983MOL0     H35604   0.541   6.776   4.052 -0.8087  0.7107  0.4404
  983MOL0     H35605   0.411   6.830   4.152 -0.9631 -0.6439  1.1645
  983MOL0     H35606   0.463   6.646   4.323 -0.7529 -1.1116 -0.3114
  983MOL0     H35607   0.437   6.568   4.172 -0.6363  1.4243 -0.1494
  983MOL0     H35608   0.708   6.642   4.263  0.4613 -2.5098  4.3996
  983MOL0     H35609   0.649   6.482   4.279  3.5518  0.5749  1.3513
  983MOL0     H35610   0.628   6.469   4.021  2.9998 -2.2174  0.2929
  983MOL0     H35611   0.708   6.636   4.029 -0.0586  0.2210  1.5017
  983MOL0     H35612   0.992   6.350   4.194  0.0688  0.0092 -2.9313
  983MOL0     H35613   1.272   6.422   4.377  1.7627  0.5800 -0.9930
  983MOL0     H35614   1.332   6.429   4.210 -1.7550  0.4815 -3.1380
  983MOL0     H35615   1.210   6.308   4.275 -0.0912  0.3018  2.2869
  983MOL0     H35616   1.396   6.770   4.546  0.3933 -1.3637 -0.4573
  983MOL0     H35617   1.585   6.871   4.635 -0.4888 -1.4128  0.2432
  983MOL0     H35618   1.923   6.750   4.533 -0.5545 -0.2271  0.7120
  983MOL0     H35619   1.978   6.848   4.397  0.3356  0.0605  0.1314
  983MOL0     H35620   1.983   6.950   4.685 -0.1946  0.1217  0.1650
  983MOL0     H35621   2.118   6.877   4.607  2.2965  4.2742  0.7544
  983MOL0     H35622   1.983   7.121   4.476 -1.1131  0.7701  2.9878
  983MOL0     H35623   2.138   7.041   4.439  0.5701  0.5877  0.2808
  983MOL0     H35624   2.206   7.111   4.679 -0.9444  3.2809  5.8177
  983MOL0     H35625   2.050   7.167   4.699  1.0909  8.1021  0.4116
  983MOL0     H35626   2.217   7.355   4.680  0.6678  0.3251  0.0201
  983MOL0     H35627   2.265   7.302   4.528  0.8482 -0.9008  1.0159
  983MOL0     H35628   1.975   7.374   4.574 -0.1268  3.7592  0.6632
  983MOL0     H35629   2.050   7.321   4.427  0.9568  1.6535 -0.1338
  983MOL0     H35630   2.174   7.495   4.377  0.9206  0.9980  0.3789
  983MOL0     H35631   2.172   7.568   4.535  0.3829  1.8649 -0.9217
  983MOL0     H35632   1.929   7.557   4.370  2.3384  1.4153 -2.8645
  983MOL0     H35633   2.008   7.708   4.417 -1.0139 -0.6370 -0.5786
  983MOL0     H35634   1.788   6.847   4.258 -0.7614  0.7540 -1.0286
  983MOL0     H35635   1.597   6.710   4.167  3.0266  1.6712 -0.7929
  983MOL0     H35636   1.047   6.832   4.136 -0.4967  0.4874  1.1755
  983MOL0     H35637   0.861   6.734   4.056 -1.0398 -0.2578  0.0097
  983MOL0     H35638   1.885   7.049   4.216 -0.5773  0.7349  0.0542
  983MOL0     H35639   2.049   7.048   4.026 -1.5510 -0.5742  0.8138
  983MOL0     H35640   2.301   7.405   3.785  0.6990 -1.0494 -0.0174
  983MOL0     H35641   2.479   7.444   3.640 -2.0882  2.3789 -0.3700
  983MOL0     H35642   2.537   7.487   3.417 -2.2152 -1.4402  0.6002
  983MOL0     H35643   2.692   7.438   3.500  3.8535  0.8517 -3.8366
  983MOL0     H35644   2.793   7.372   3.304 -0.9744 -0.8883  0.1513
  983MOL0     H35645   2.723   7.528   3.272 -2.6754  1.1363 -1.4853
  983MOL0     H35646   2.625   7.269   3.161 -2.8803  0.1158  1.4507
  983MOL0     H35647   2.509   7.382   3.208 -0.6211 -2.6508 -0.3658
  983MOL0     H35648   2.762   7.416   3.031 -0.3614  2.2884  1.8235
  983MOL0     H35649   2.655   7.545   3.049  2.6895 -0.2421  2.3454
  983MOL0     H35650   2.448   7.335   2.750  2.3402  0.3692 -0.5529
  983MOL0     H35651   2.393   7.074   3.425  0.4176 -0.3098 -1.1229
  983MOL0     H35652   2.228   6.928   3.493 -1.1129  0.9476 -0.7050
  983MOL0     H35653   2.196   6.929   3.669 -1.8701 -1.2630 -0.5894
  983MOL0     H35654   2.093   7.004   3.563  0.2016  0.1025  0.4871
  984MOL0     O35655  10.150   3.872   4.425  1.5434  0.1318  0.8851
  984MOL0     C35656  10.221   3.871   4.526 -0.8200 -0.0289  0.7718
  984MOL0     O35657  10.235   3.975   4.610 -0.3330 -0.3660  0.2332
  984MOL0     C35658  10.118   4.013   4.675  0.2246  0.7250 -0.7425
  984MOL0     C35659  10.133   4.141   4.730 -0.0966  0.9701 -0.0042
  984MOL0     C35660  10.032   4.202   4.803  0.1351  0.2623 -0.0038
  984MOL0     C35661   9.913   4.125   4.833 -0.5852 -0.3726  0.3879
  984MOL0     O35662   9.820   4.177   4.920 -0.1496 -0.2114 -0.2086
  984MOL0     C35663   9.849   4.276   5.019  0.3191 -0.2295 -0.5052
  984MOL0     C35664   9.744   4.252   5.133  0.6460 -0.1904  0.1026
  984MOL0     C35665   9.596   4.282   5.101 -0.4878  0.1184  0.8934
  984MOL0     C35666   9.504   4.270   5.221  0.2968  0.6140 -0.1455
  984MOL0     C35667   9.352   4.272   5.185 -0.3892  0.4042  0.4118
  984MOL0     C35668   9.281   4.222   5.306 -0.4156  0.0969 -0.0425
  984MOL0     C35669   9.129   4.211   5.291 -0.0335 -0.4446 -0.3707
  984MOL0     C35670   9.047   4.325   5.228 -0.5117 -0.2350 -0.7079
  984MOL0     N35671   9.031   4.431   5.339  1.1120  1.2223  0.5654
  984MOL0     C35672   8.920   4.435   5.417  0.3136 -0.3054  0.2099
  984MOL0     C35673   8.961   4.512   5.518  1.1262 -0.5088  0.0102
  984MOL0     C35674   8.880   4.518   5.642  0.6360 -0.4713  0.0328
  984MOL0     C35675   8.731   4.547   5.623  0.8496 -0.2170  0.5519
  984MOL0     C35676   8.639   4.513   5.750  0.5195  0.0579 -0.7475
  984MOL0     C35677   8.682   4.579   5.884 -0.7553 -0.5240 -0.5438
  984MOL0     O35678   8.582   4.596   5.991 -1.1389  0.3002 -0.5205
  984MOL0     C35679   8.493   4.701   5.979  0.3603 -0.5132 -0.4495
  984MOL0     C35680   8.508   4.811   5.890  0.9588  0.6380 -0.4136
  984MOL0     C35681   8.419   4.915   5.892  0.5489 -0.7981  0.7020
  984MOL0     C35682   8.448   5.039   5.802 -0.2524  0.7064 -0.0711
  984MOL0     C35683   8.322   4.921   6.005  0.2035  0.3509 -0.6479
  984MOL0     C35684   8.216   5.026   6.034 -0.0173 -0.1312  0.3872
  984MOL0     O35685   8.196   5.127   5.942 -0.4014 -0.8508  0.2487
  984MOL0     C35686   8.166   5.251   6.000  0.1698 -1.1891 -0.8685
  984MOL0     C35687   8.099   5.341   5.911 -0.0628 -0.4480  0.0057
  984MOL0     C35688   8.075   5.468   5.962  0.7137  0.4502  0.2042
  984MOL0     C35689   8.098   5.506   6.098 -0.7762 -0.4884  0.6499
  984MOL0     O35690   8.055   5.628   6.144  0.2325  0.4996  0.1100
  984MOL0     C35691   8.148   5.709   6.219 -0.3775 -0.5421 -0.7558
  984MOL0     C35692   8.255   5.769   6.128 -0.2023 -0.5352  0.5063
  984MOL0     C35693   8.358   5.854   6.202 -0.3021  0.0520  0.5414
  984MOL0     C35694   8.465   5.787   6.278  0.2846 -0.0467 -0.1466
  984MOL0     C35695   8.593   5.866   6.298 -0.8409 -0.2612 -0.0660
  984MOL0     C35696   8.674   5.888   6.174 -0.3908 -0.6889 -0.7052
  984MOL0     C35697   8.829   5.909   6.193  0.0229  0.2115  0.4848
  984MOL0     C35698   8.900   5.882   6.056  0.1336 -0.9076 -0.0359
  984MOL0    Cl35699   9.061   5.960   6.042 -0.2597  0.4721  0.2908
  984MOL0     C35700   8.167   5.417   6.181 -0.4321 -0.6418 -0.2015
  984MOL0     C35701   8.205   5.293   6.130  0.5283  0.3895 -0.5619
  984MOL0     O35702   8.161   5.013   6.143  0.9143 -0.0725  0.4613
  984MOL0     C35703   8.310   4.807   6.093 -0.5425  0.7139 -0.3231
  984MOL0     C35704   8.406   4.705   6.085 -0.3767  0.5269 -0.4910
  984MOL0     N35705   9.090   4.547   5.502 -0.3099  0.3006  0.5482
  984MOL0     N35706   9.124   4.513   5.385  1.2923  0.4626  0.4169
  984MOL0     C35707   9.892   4.009   4.769  0.8271  0.3115 -0.3966
  984MOL0     C35708   9.992   3.956   4.693  0.0476  0.1288  0.6421
  984MOL0     C35709  10.332   3.763   4.534 -0.2313  0.3122 -0.6379
  984MOL0     C35710  10.444   3.786   4.615  0.0939  0.7951  0.5123
  984MOL0     C35711  10.530   3.677   4.658  0.4049 -0.5277  0.8500
  984MOL0     C35712  10.509   3.557   4.604  0.4130  0.2174 -0.7261
  984MOL0     O35713  10.593   3.454   4.639  1.1061  0.0474  0.1071
  984MOL0     C35714  10.619   3.343   4.552 -0.1719  0.1717 -0.5424
  984MOL0     C35715  10.717   3.256   4.630  1.3440  0.0407  0.4791
  984MOL0     C35716  10.709   3.108   4.595  0.3527 -0.4301 -0.0221
  984MOL0     C35717  10.703   3.082   4.433 -0.4764 -0.2678 -0.4363
  984MOL0     C35718  10.823   3.115   4.365  0.1301  0.3895  0.2997
  984MOL0     C35719  10.927   3.169   4.328  0.0261  0.4277 -0.2159
  984MOL0     C35720  10.400   3.537   4.513 -0.9673  0.5639 -0.2640
  984MOL0     C35721  10.313   3.635   4.479  0.4826 -0.1326  0.0805
  984MOL0     C35722  10.179   3.591   4.411 -0.6922 -0.1420  0.6297
  984MOL0     H35723  10.226   4.194   4.712  0.0386  0.7682  0.0967
  984MOL0     H35724  10.044   4.303   4.840  2.2779  1.0039 -2.4720
  984MOL0     H35725   9.843   4.377   4.979 -2.9648  1.0290  2.6456
  984MOL0     H35726   9.944   4.259   5.070 -0.8426 -1.1233  1.4545
  984MOL0     H35727   9.758   4.152   5.174 -1.0431  0.5544  2.6859
  984MOL0     H35728   9.762   4.321   5.216  0.3968  2.7791 -2.1376
  984MOL0     H35729   9.594   4.381   5.055  0.1012  0.0786  0.7745
  984MOL0     H35730   9.552   4.223   5.020  0.7598  1.7474 -1.0748
  984MOL0     H35731   9.533   4.174   5.264 -1.0216  0.4840  0.5199
  984MOL0     H35732   9.517   4.349   5.295 -3.2320  0.2295  1.0890
  984MOL0     H35733   9.350   4.200   5.102  2.6758 -1.2110  1.5877
  984MOL0     H35734   9.317   4.369   5.149  1.1938  0.1739 -2.0517
  984MOL0     H35735   9.294   4.114   5.318 -3.2190 -0.2787  0.2435
  984MOL0     H35736   9.321   4.260   5.400 -3.4081  1.2650  0.8722
  984MOL0     H35737   9.093   4.195   5.393  2.8233  0.4941  0.8730
  984MOL0     H35738   9.115   4.115   5.241 -1.9850 -0.0084 -0.7649
  984MOL0     H35739   9.097   4.372   5.143  0.7157  1.7552  1.0226
  984MOL0     H35740   8.947   4.297   5.194 -1.5297  3.8675 -1.6066
  984MOL0     H35741   8.826   4.381   5.424 -2.6984  4.2863 -0.3872
  984MOL0     H35742   8.933   4.587   5.709  4.4847 -3.4174  0.4120
  984MOL0     H35743   8.879   4.415   5.679 -2.9784 -0.0039  1.6484
  984MOL0     H35744   8.697   4.645   5.588 -0.3951 -1.1281 -0.9303
  984MOL0     H35745   8.698   4.490   5.536  1.8112  1.2407 -0.8131
  984MOL0     H35746   8.540   4.552   5.726  0.6687  2.1998  1.6698
  984MOL0     H35747   8.629   4.406   5.771 -1.3132  0.4544  0.6959
  984MOL0     H35748   8.754   4.515   5.937 -1.3924 -0.7911  0.0113
  984MOL0     H35749   8.726   4.677   5.863 -3.3802  1.0422  0.7516
  984MOL0     H35750   8.594   4.817   5.824  3.2834 -0.4072  2.3039
  984MOL0     H35751   8.382   5.033   5.715  0.4274  1.0468 -0.6149
  984MOL0     H35752   8.555   5.035   5.781 -0.3559 -3.1016 -0.6176
  984MOL0     H35753   8.431   5.132   5.857 -0.4785 -0.0283  1.1398
  984MOL0     H35754   8.069   5.306   5.812  1.3388 -2.2210  0.1654
  984MOL0     H35755   8.041   5.554   5.905 -1.7610 -0.0916  0.7286
  984MOL0     H35756   8.098   5.783   6.282 -0.1575 -2.8801  2.3905
  984MOL0     H35757   8.196   5.651   6.298 -2.4672  2.5745  3.1699
  984MOL0     H35758   8.304   5.692   6.068 -2.1034 -0.7165 -0.9023
  984MOL0     H35759   8.201   5.840   6.064 -1.7057 -1.3818  0.7847
  984MOL0     H35760   8.320   5.937   6.261  0.9552  0.3438  0.9700
  984MOL0     H35761   8.405   5.893   6.111 -0.8762 -2.7472 -1.0908
  984MOL0     H35762   8.502   5.699   6.224  1.4836  0.9766 -1.0737
  984MOL0     H35763   8.425   5.762   6.376  1.7952  2.3386  1.1781
  984MOL0     H35764   8.583   5.958   6.355  2.3639  1.0220 -1.3532
  984MOL0     H35765   8.661   5.801   6.354  1.2026  1.0734 -0.8844
  984MOL0     H35766   8.636   5.972   6.114  1.1443  1.4417  1.1252
  984MOL0     H35767   8.663   5.799   6.111  0.1769 -1.7136  0.6040
  984MOL0     H35768   8.862   5.836   6.268  0.0772 -1.5789 -1.2306
  984MOL0     H35769   8.850   6.010   6.231  0.2171 -0.2548  1.6626
  984MOL0     H35770   8.844   5.919   5.970  1.7183 -1.5919 -1.4341
  984MOL0     H35771   8.901   5.779   6.020 -1.5133 -0.3985 -1.6683
  984MOL0     H35772   8.183   5.446   6.284 -1.7640  0.6714 -0.3331
  984MOL0     H35773   8.255   5.228   6.201  1.7955 -0.7745 -2.4116
  984MOL0     H35774   8.251   4.805   6.184 -1.8743  1.9888 -1.1211
  984MOL0     H35775   8.411   4.622   6.155  2.3976 -2.2537 -3.6538
  984MOL0     H35776   9.800   3.957   4.792  0.7814  0.8001  0.5898
  984MOL0     H35777   9.980   3.854   4.656 -0.2678  0.2840  0.3118
  984MOL0     H35778  10.462   3.881   4.665 -2.0180  0.8011  1.3382
  984MOL0     H35779  10.600   3.695   4.739 -0.5211  0.0707  1.5419
  984MOL0     H35780  10.525   3.289   4.540 -0.6093  0.5444  0.9490
  984MOL0     H35781  10.660   3.363   4.453 -2.0696 -1.0407 -1.6385
  984MOL0     H35782  10.695   3.262   4.737 -0.9389 -4.5109  0.5086
  984MOL0     H35783  10.818   3.293   4.610  0.6836  2.0745  0.7035
  984MOL0     H35784  10.794   3.057   4.641  0.4461 -1.8982 -1.7057
  984MOL0     H35785  10.614   3.066   4.630 -0.2879  2.6502  2.3558
  984MOL0     H35786  10.622   3.146   4.398 -1.8506 -1.8023 -0.2070
  984MOL0     H35787  10.687   2.976   4.410 -0.6168 -0.0824 -1.2322
  984MOL0     H35788  11.013   3.224   4.297  1.0861 -1.6889 -1.2430
  984MOL0     H35789  10.389   3.435   4.476  2.1567  0.2947 -0.7637
  984MOL0     H35790  10.095   3.591   4.481 -1.3011  1.6340 -0.0493
  984MOL0     H35791  10.154   3.655   4.326 -2.4113 -1.0238  0.4209
  984MOL0     H35792  10.178   3.488   4.373 -0.7028  0.1795 -0.2804
  985MOL0     O35793   5.966   2.290   1.242  0.7380 -0.4334 -0.2459
  985MOL0     C35794   5.844   2.305   1.249  0.4286 -0.5725  0.1083
  985MOL0     O35795   5.764   2.256   1.346 -0.1396  0.3203 -0.2809
  985MOL0     C35796   5.821   2.170   1.434  0.0099 -0.1474  0.1204
  985MOL0     C35797   5.797   2.186   1.572 -0.6667  0.2985  0.3614
  985MOL0     C35798   5.850   2.095   1.661  0.4627 -0.7294  0.7263
  985MOL0     C35799   5.929   1.994   1.618  0.5433  0.4882 -1.0524
  985MOL0     O35800   5.991   1.917   1.723  0.6855  0.2640  0.5013
  985MOL0     C35801   6.097   1.840   1.682  0.6826  0.4049 -0.1924
  985MOL0     C35802   6.188   1.828   1.802  0.3077  0.6609  1.0630
  985MOL0     C35803   6.315   1.746   1.763 -0.7658 -0.4031  0.1888
  985MOL0     C35804   6.348   1.641   1.866 -0.0129  0.2515  0.3202
  985MOL0     C35805   6.489   1.577   1.838 -0.6454 -0.0398  0.1069
  985MOL0     C35806   6.526   1.463   1.924 -0.4903 -0.0793 -0.3667
  985MOL0     C35807   6.429   1.348   1.910  0.0436  1.2970 -0.2623
  985MOL0     C35808   6.442   1.284   1.761 -0.0471  0.0787  0.0965
  985MOL0     N35809   6.332   1.188   1.731 -0.9148 -0.3058  0.9944
  985MOL0     C35810   6.201   1.206   1.706 -0.1443  0.1870  0.3558
  985MOL0     C35811   6.139   1.091   1.695 -0.2355  0.3868  0.0430
  985MOL0     C35812   5.994   1.070   1.661 -0.2240  1.1903  0.3118
  985MOL0     C35813   5.952   0.979   1.781 -0.2054 -0.1726 -0.1481
  985MOL0     C35814   5.796   0.964   1.785 -0.6981  0.6835  0.0653
  985MOL0     C35815   5.756   0.898   1.923  1.3493  1.0663 -0.2281
  985MOL0     O35816   5.616   0.873   1.928  0.1372 -0.4813  0.4453
  985MOL0     C35817   5.566   0.789   1.832  0.0947 -0.2053  0.4743
  985MOL0     C35818   5.445   0.824   1.774 -0.5123  0.4261  0.0711
  985MOL0     C35819   5.383   0.741   1.679 -0.3005  0.5437  0.0603
  985MOL0     C35820   5.248   0.778   1.620 -0.0832 -0.1287 -1.5254
  985MOL0     C35821   5.453   0.622   1.634 -0.6375  0.5284 -0.5447
  985MOL0     C35822   5.401   0.525   1.535 -0.5878  0.7794  1.8109
  985MOL0     O35823   5.426   0.388   1.549 -0.0899 -0.1770 -0.6286
  985MOL0     C35824   5.401   0.306   1.440 -0.7766  0.0893 -0.5176
  985MOL0     C35825   5.279   0.274   1.386 -0.2241 -0.4354 -0.5751
  985MOL0     C35826   5.272   0.194   1.277 -0.1265  0.8301  0.4638
  985MOL0     C35827   5.385   0.139   1.217 -1.1483 -0.1765  0.0095
  985MOL0     O35828   5.360   0.057   1.108 -0.1221  0.6665  0.5090
  985MOL0     C35829   5.320   0.133   0.988 -0.4168 -0.0075 -0.7236
  985MOL0     C35830   5.244   0.048   0.891 -0.5674  0.1304  1.3192
  985MOL0     C35831   5.146   0.119   0.794 -0.5637  0.2860  0.4335
  985MOL0     C35832   5.192   0.243   0.736 -0.1669 -0.1129 -0.3377
  985MOL0     C35833   5.086   0.308   0.658  0.4601  0.6160  0.3182
  985MOL0     C35834   5.128   0.434   0.591 -0.6352 -0.3682 -0.4665
  985MOL0     C35835   5.015   0.512   0.520 -0.3781  1.0134 -0.2317
  985MOL0     C35836   5.073   0.594   0.420  0.2738 -0.0825 -0.7595
  985MOL0    Cl35837   5.196   0.702   0.502  0.0458 -0.3232 -0.0972
  985MOL0     C35838   5.510   0.165   1.276 -0.3057 -0.3013  0.3573
  985MOL0     C35839   5.514   0.243   1.386 -0.0393  0.0449  0.9892
  985MOL0     O35840   5.356   0.567   1.430 -0.0737  0.7074 -0.1419
  985MOL0     C35841   5.583   0.585   1.689  0.3053 -0.6024 -0.4611
  985MOL0     C35842   5.637   0.671   1.784  0.0916 -0.4840  0.1077
  985MOL0     N35843   6.238   0.999   1.680 -0.2470 -0.1510 -0.8748
  985MOL0     N35844   6.346   1.059   1.721 -0.9136  0.6125  0.1127
  985MOL0     C35845   5.953   1.977   1.484 -1.1939 -0.0606  0.5944
  985MOL0     C35846   5.892   2.058   1.389 -0.8398 -0.0325 -0.0440
  985MOL0     C35847   5.772   2.377   1.142 -0.5274 -0.0099  0.2866
  985MOL0     C35848   5.647   2.346   1.106 -0.3972  0.8487  0.8581
  985MOL0     C35849   5.582   2.423   1.023 -0.7054 -0.4569  0.6230
  985MOL0     C35850   5.634   2.535   0.956  0.6603  0.0521  0.2376
  985MOL0     O35851   5.559   2.602   0.871 -0.4035  0.6149 -0.5589
  985MOL0     C35852   5.513   2.727   0.916  0.3368 -0.9591  0.5357
  985MOL0     C35853   5.408   2.693   1.029 -0.7272  0.3735  0.8292
  985MOL0     C35854   5.312   2.812   1.033 -0.2689 -0.8837 -0.5372
  985MOL0     C35855   5.243   2.810   1.169  0.1619  1.1243  0.0479
  985MOL0     C35856   5.119   2.894   1.165 -0.9171  1.4804  0.1610
  985MOL0     C35857   5.012   2.936   1.170 -0.0483  0.3719  0.1767
  985MOL0     C35858   5.759   2.570   0.998 -0.5094 -0.4795 -0.0917
  985MOL0     C35859   5.830   2.503   1.096 -0.2141  0.6175 -0.0762
  985MOL0     C35860   5.957   2.562   1.153  0.5683  0.1205  0.2290
  985MOL0     H35861   5.724   2.259   1.607  2.2405  1.5974  4.4071
  985MOL0     H35862   5.817   2.092   1.764 -0.8098 -0.0299  0.3741
  985MOL0     H35863   6.153   1.873   1.594 -2.1589  1.5448 -1.7088
  985MOL0     H35864   6.053   1.746   1.649  2.8652 -0.6461 -0.2716
  985MOL0     H35865   6.209   1.927   1.844 -0.5480  1.1459  0.3819
  985MOL0     H35866   6.128   1.775   1.877 -1.5195  1.1748  0.0460
  985MOL0     H35867   6.318   1.697   1.665  0.5109 -1.3183  0.6594
  985MOL0     H35868   6.410   1.801   1.760  0.1264 -1.8923  0.3211
  985MOL0     H35869   6.347   1.678   1.969 -2.2331  0.7935  0.1518
  985MOL0     H35870   6.267   1.568   1.864  2.2079 -2.3632 -2.0293
  985MOL0     H35871   6.560   1.656   1.866  0.9452 -2.0682  2.2794
  985MOL0     H35872   6.515   1.550   1.736  1.6836 -1.9707  1.1100
  985MOL0     H35873   6.630   1.430   1.915 -0.9598 -2.5939  1.9901
  985MOL0     H35874   6.511   1.493   2.028 -1.1843  0.8313 -0.7143
  985MOL0     H35875   6.331   1.384   1.941 -0.0131 -0.3060  1.6507
  985MOL0     H35876   6.459   1.273   1.984  0.5878  3.3609  1.7012
  985MOL0     H35877   6.415   1.367   1.695 -1.2828  1.5656  2.3644
  985MOL0     H35878   6.544   1.251   1.736 -1.1783 -2.3894 -1.7387
  985MOL0     H35879   6.142   1.297   1.702 -0.7552 -0.2005  0.4739
  985MOL0     H35880   5.980   1.016   1.567  0.0618  0.5803  0.6139
  985MOL0     H35881   5.945   1.167   1.664 -4.2054 -0.5911 -0.4148
  985MOL0     H35882   5.995   0.879   1.775  1.5484  0.3973  1.7122
  985MOL0     H35883   5.985   1.015   1.878 -1.0730 -1.9422  0.8436
  985MOL0     H35884   5.736   1.053   1.767 -0.4012  0.5153 -2.1045
  985MOL0     H35885   5.767   0.897   1.703  0.1145  1.0678 -0.5479
  985MOL0     H35886   5.814   0.807   1.936 -1.0997 -0.9732 -2.4111
  985MOL0     H35887   5.794   0.958   2.006  0.0810  2.5250 -0.6478
  985MOL0     H35888   5.402   0.922   1.792  0.2497  0.8680 -0.4223
  985MOL0     H35889   5.185   0.805   1.705  0.7228 -0.1781 -0.8941
  985MOL0     H35890   5.196   0.696   1.570 -1.5178  0.6029 -1.2837
  985MOL0     H35891   5.256   0.871   1.564 -0.2312  0.5359 -0.4801
  985MOL0     H35892   5.182   0.305   1.425  0.3294 -0.5243  0.9618
  985MOL0     H35893   5.180   0.156   1.234  1.7978 -2.6903 -0.9400
  985MOL0     H35894   5.264   0.223   1.013  1.1568  1.7864 -3.1851
  985MOL0     H35895   5.411   0.175   0.943  0.5944  2.6547  3.3051
  985MOL0     H35896   5.314  -0.004   0.824 -1.2262  4.6755 -3.6567
  985MOL0     H35897   5.181  -0.028   0.938 -5.0078  2.3830 -0.3894
  985MOL0     H35898   5.061   0.158   0.851 -2.0453 -1.6585 -0.3383
  985MOL0     H35899   5.111   0.047   0.720  0.5980  0.3091 -0.1641
  985MOL0     H35900   5.279   0.222   0.673 -1.9816 -0.5260 -2.8843
  985MOL0     H35901   5.220   0.315   0.813  0.5163 -2.6913  1.9816
  985MOL0     H35902   5.054   0.249   0.572  0.2365  3.0887 -1.4001
  985MOL0     H35903   4.996   0.326   0.718  0.2113 -0.8136  0.3949
  985MOL0     H35904   5.215   0.412   0.529 -0.4452 -2.0416  0.3391
  985MOL0     H35905   5.178   0.493   0.669 -1.4852  0.7204 -0.7169
  985MOL0     H35906   4.959   0.567   0.596 -2.3797 -1.3419  0.1169
  985MOL0     H35907   4.948   0.446   0.464  1.9438  0.1628 -2.1738
  985MOL0     H35908   4.992   0.648   0.370  0.7306  0.2574 -1.1398
  985MOL0     H35909   5.115   0.536   0.338 -0.5942  1.1233 -2.1096
  985MOL0     H35910   5.605   0.122   1.246  0.2975 -1.0931  3.0500
  985MOL0     H35911   5.613   0.243   1.431 -0.6288 -1.7977  2.4254
  985MOL0     H35912   5.646   0.509   1.645 -0.1560 -0.0360 -2.1641
  985MOL0     H35913   5.729   0.654   1.839  0.0808  3.9655  1.9053
  985MOL0     H35914   5.996   1.883   1.452  1.5109  1.8659 -2.0021
  985MOL0     H35915   5.904   2.041   1.282  0.5130 -1.7161  0.3301
  985MOL0     H35916   5.589   2.258   1.133 -0.2129  0.1305 -0.9628
  985MOL0     H35917   5.482   2.382   1.010 -2.5123  3.4186  1.0324
  985MOL0     H35918   5.594   2.798   0.939  1.8075 -0.9646 -3.6794
  985MOL0     H35919   5.457   2.772   0.833  1.1813  1.2522  1.0797
  985MOL0     H35920   5.466   2.672   1.120  1.5811 -1.4660 -0.9413
  985MOL0     H35921   5.350   2.602   1.015  0.7807 -0.5426  0.2633
  985MOL0     H35922   5.359   2.909   1.016  1.0486 -1.4555 -0.2989
  985MOL0     H35923   5.234   2.803   0.957  0.5801  3.2374 -2.1577
  985MOL0     H35924   5.313   2.834   1.249  0.4454 -0.4643  0.3231
  985MOL0     H35925   5.204   2.711   1.199  1.6415  0.6960  0.6435
  985MOL0     H35926   4.920   2.987   1.191  0.5879  1.5330  0.2145
  985MOL0     H35927   5.798   2.651   0.938 -0.6232  0.1332  0.6453
  985MOL0     H35928   5.974   2.669   1.144 -2.7250  0.7731  0.4409
  985MOL0     H35929   5.968   2.546   1.261  0.2501  2.4518  0.6549
  985MOL0     H35930   6.042   2.515   1.104 -0.8450 -2.7168  0.2780
  986MOL0     O35931   0.432   7.020   8.850 -0.0927 -0.2561 -0.7262
  986MOL0     C35932   0.454   6.917   8.793 -0.1845 -0.1867  0.6786
  986MOL0     O35933   0.565   6.892   8.729  0.2323 -0.4252 -0.1199
  986MOL0     C35934   0.668   6.985   8.723  0.7713 -0.4155 -0.1634
  986MOL0     C35935   0.712   7.018   8.590 -0.1964  0.4636 -0.1766
  986MOL0     C35936   0.809   7.120   8.573 -0.5690  0.8613  0.3491
  986MOL0     C35937   0.852   7.185   8.680  0.6245  0.2211 -1.1474
  986MOL0     O35938   0.963   7.267   8.675 -0.2951  0.2170  0.2498
  986MOL0     C35939   0.969   7.367   8.573 -0.0303  0.7098 -0.1330
  986MOL0     C35940   1.081   7.459   8.600 -0.7693  0.0146  0.4701
  986MOL0     C35941   1.109   7.567   8.487 -1.1210  0.3281 -0.1630
  986MOL0     C35942   0.999   7.676   8.477  0.6859 -0.3535 -0.0879
  986MOL0     C35943   1.044   7.810   8.463  0.6301 -0.0772 -0.1672
  986MOL0     C35944   0.920   7.899   8.469  0.8197  0.8814  0.3359
  986MOL0     C35945   0.944   8.033   8.392  1.0979  0.0754 -0.4471
  986MOL0     C35946   0.940   8.159   8.494  0.9430  0.1083  0.7011
  986MOL0     N35947   1.067   8.167   8.567 -0.4779  0.4388  0.0250
  986MOL0     C35948   1.182   8.180   8.499  0.3541  0.0469  0.6433
  986MOL0     C35949   1.274   8.172   8.591 -0.2655  0.7619 -0.1695
  986MOL0     C35950   1.418   8.207   8.560 -0.6478  0.5697  0.4138
  986MOL0     C35951   1.464   8.325   8.640 -0.6898 -0.0069  0.6871
  986MOL0     C35952   1.420   8.457   8.573  0.7165  0.6051  0.3715
  986MOL0     C35953   1.478   8.579   8.664 -0.4945  0.4241 -0.1373
  986MOL0     O35954   1.435   8.710   8.615 -0.4960  0.7135  0.8995
  986MOL0     C35955   1.327   8.777   8.664  0.3643  0.6543  1.2264
  986MOL0     C35956   1.266   8.873   8.579 -0.1638  0.1108  0.5278
  986MOL0     C35957   1.156   8.952   8.630  0.1239  0.2611  0.2410
  986MOL0     C35958   1.105   9.061   8.553 -0.1091  0.3260  0.6497
  986MOL0     C35959   1.100   8.918   8.753 -0.3612  0.0962  0.1097
  986MOL0     C35960   0.992   8.996   8.803 -0.8025 -0.7327 -0.0098
  986MOL0     O35961   0.881   8.951   8.860  0.3524 -0.1620  0.2108
  986MOL0     C35962   0.778   9.038   8.882  0.5542 -0.0856  1.5177
  986MOL0     C35963   0.696   9.013   8.990 -0.6251 -0.1368  0.1337
  986MOL0     C35964   0.583   9.093   9.011 -1.5637 -1.0800  0.6075
  986MOL0     C35965   0.550   9.182   8.909  0.0848  0.3593  0.7461
  986MOL0     O35966   0.438   9.255   8.921 -0.3490  0.1649 -0.3429
  986MOL0     C35967   0.432   9.398   8.905  0.0209  0.2114  0.0138
  986MOL0     C35968   0.297   9.453   8.917  0.5892 -0.0552 -0.5634
  986MOL0     C35969   0.241   9.424   9.061 -0.2988 -0.6687  0.2883
  986MOL0     C35970   0.094   9.472   9.069  0.0923 -0.0266  0.3485
  986MOL0     C35971   0.039   9.451   9.212 -0.1109  0.5775 -0.9391
  986MOL0     C35972   0.075   9.562   9.309 -0.0532  0.2187 -0.3663
  986MOL0     C35973   0.022   9.532   9.458 -0.0105 -0.9678  0.3196
  986MOL0     C35974   0.126   9.463   9.549  0.5696 -0.3581  0.2386
  986MOL0    Cl35975   0.060   9.430   9.711  0.2487  0.0340 -0.1691
  986MOL0     C35976   0.632   9.212   8.805 -1.4183  1.3786  0.3849
  986MOL0     C35977   0.747   9.134   8.786 -1.0020  0.1387  0.6210
  986MOL0     O35978   1.030   9.113   8.814  0.3139  0.4176 -0.2288
  986MOL0     C35979   1.157   8.810   8.827  0.7355 -0.4461  1.0645
  986MOL0     C35980   1.267   8.741   8.785 -0.9518  0.2517 -0.1368
  986MOL0     N35981   1.222   8.144   8.714  0.2468 -0.2480  0.3604
  986MOL0     N35982   1.096   8.131   8.696 -0.1412 -0.0652  0.3716
  986MOL0     C35983   0.818   7.161   8.803  0.1759 -0.3035 -0.2488
  986MOL0     C35984   0.719   7.066   8.833 -0.9330 -0.0569  0.9577
  986MOL0     C35985   0.348   6.813   8.804  0.6494 -0.1225  1.1732
  986MOL0     C35986   0.391   6.680   8.827 -0.3036 -0.7236 -0.7641
  986MOL0     C35987   0.298   6.577   8.836 -0.6167  1.2251 -0.1722
  986MOL0     C35988   0.164   6.606   8.827 -0.1666  0.3779 -0.7992
  986MOL0     O35989   0.061   6.521   8.860 -1.2361  0.6492  0.3305
  986MOL0     C35990   0.067   6.471   8.991 -0.7840 -0.2439  0.5556
  986MOL0     C35991   0.091   6.319   8.992  0.1406 -0.8440  0.8943
  986MOL0     C35992  -0.022   6.255   8.910  0.0546 -0.1754  0.3353
  986MOL0     C35993   0.003   6.099   8.901  0.6206 -0.1637 -0.1743
  986MOL0     C35994  -0.066   6.024   9.008  0.6919 -0.3942 -0.6528
  986MOL0     C35995  -0.107   5.966   9.110 -0.3149 -0.6066 -0.9941
  986MOL0     C35996   0.126   6.732   8.794  0.5862 -0.4346 -0.6056
  986MOL0     C35997   0.212   6.836   8.775 -0.2458  0.0935 -0.2527
  986MOL0     C35998   0.170   6.971   8.739 -0.2309 -1.0119 -0.3830
  986MOL0     H35999   0.673   6.960   8.507 -1.6987 -2.1136  2.1640
  986MOL0     H36000   0.854   7.137   8.476  1.9635 -3.3771  0.5551
  986MOL0     H36001   0.875   7.422   8.572  0.9713  2.4987  0.2208
  986MOL0     H36002   0.995   7.324   8.476 -2.2389  2.4577 -1.5706
  986MOL0     H36003   1.069   7.510   8.696 -0.9982  3.6254 -1.3473
  986MOL0     H36004   1.173   7.402   8.620 -1.6471 -0.9017  2.1542
  986MOL0     H36005   1.207   7.616   8.492 -1.4532  0.9303  0.7335
  986MOL0     H36006   1.113   7.511   8.393  0.5022  1.6237 -0.9239
  986MOL0     H36007   0.934   7.652   8.392  0.2080  1.3358 -0.2348
  986MOL0     H36008   0.935   7.674   8.565  1.7232  0.7152  0.7081
  986MOL0     H36009   1.080   7.817   8.360 -1.8798  3.2075 -0.9807
  986MOL0     H36010   1.115   7.845   8.538  2.3708 -1.3544 -1.1160
  986MOL0     H36011   0.835   7.846   8.425  0.1109  1.8561  0.5188
  986MOL0     H36012   0.878   7.913   8.569  1.1460  0.5053  0.5300
  986MOL0     H36013   0.857   8.043   8.327 -0.1615 -2.7947  0.6464
  986MOL0     H36014   1.030   8.033   8.324  1.9804 -0.8830  0.6160
  986MOL0     H36015   0.926   8.254   8.443 -0.2845 -0.7591 -0.6581
  986MOL0     H36016   0.864   8.142   8.571 -0.2622  0.7644 -0.3200
  986MOL0     H36017   1.189   8.199   8.392 -2.7606 -0.7912  0.1831
  986MOL0     H36018   1.421   8.225   8.453 -2.0524  1.1651  0.4482
  986MOL0     H36019   1.483   8.124   8.590  0.9046  1.2322 -0.9731
  986MOL0     H36020   1.422   8.328   8.741  0.4928  1.0018  1.1683
  986MOL0     H36021   1.572   8.332   8.651 -0.2868 -0.2604 -2.2929
  986MOL0     H36022   1.450   8.467   8.468  0.7959  0.2462  0.3615
  986MOL0     H36023   1.311   8.458   8.572  0.6731 -1.2433  0.5883
  986MOL0     H36024   1.464   8.560   8.771  0.9769 -2.7934 -0.3854
  986MOL0     H36025   1.586   8.579   8.651 -0.3448  2.6943  0.6275
  986MOL0     H36026   1.305   8.883   8.478 -5.2831 -6.7109 -2.9777
  986MOL0     H36027   1.008   9.103   8.581 -1.1551 -1.0204 -0.7248
  986MOL0     H36028   1.093   9.029   8.449  0.1009 -1.2100  1.0816
  986MOL0     H36029   1.178   9.141   8.564  0.5526 -0.3425  1.2094
  986MOL0     H36030   0.717   8.940   9.068 -0.4445 -1.3436 -1.0053
  986MOL0     H36031   0.519   9.096   9.099 -0.1009  4.3054  1.8640
  986MOL0     H36032   0.494   9.460   8.971  0.4694  0.3140 -0.4910
  986MOL0     H36033   0.465   9.424   8.804 -2.1610 -2.9870 -1.6892
  986MOL0     H36034   0.297   9.562   8.904 -0.4671 -0.3245 -3.5390
  986MOL0     H36035   0.224   9.417   8.844  1.1524  0.8802 -1.6081
  986MOL0     H36036   0.308   9.484   9.124  2.8857 -0.8233 -2.6404
  986MOL0     H36037   0.259   9.318   9.082  0.5639 -0.1525  2.5724
  986MOL0     H36038   0.058   9.403   8.992  2.4517  1.4842 -2.3228
  986MOL0     H36039   0.087   9.573   9.028  0.5986  0.2178  0.8490
  986MOL0     H36040  -0.069   9.435   9.214 -0.0468  0.1442 -0.7335
  986MOL0     H36041   0.076   9.355   9.248 -0.9609  1.3201  2.2801
  986MOL0     H36042   0.058   9.662   9.267  1.6927  0.8712  0.3795
  986MOL0     H36043   0.184   9.554   9.310 -0.1133 -1.3402  2.3798
  986MOL0     H36044  -0.066   9.468   9.450  0.9174 -2.3810  1.0873
  986MOL0     H36045  -0.011   9.624   9.508  0.8993 -0.6433  0.3323
  986MOL0     H36046   0.213   9.528   9.558 -1.2213  2.2306  0.0839
  986MOL0     H36047   0.153   9.371   9.495 -1.0889  0.0631 -1.4067
  986MOL0     H36048   0.617   9.290   8.731 -0.0597  0.1798 -1.2376
  986MOL0     H36049   0.814   9.155   8.703  1.6016 -1.7828  2.0611
  986MOL0     H36050   1.115   8.789   8.925 -2.7714 -0.5694 -0.3138
  986MOL0     H36051   1.298   8.660   8.850 -0.9817  0.6854  0.4208
  986MOL0     H36052   0.869   7.210   8.885 -2.0584 -1.1876  1.7938
  986MOL0     H36053   0.680   7.050   8.933 -0.6854  0.4384  1.1367
  986MOL0     H36054   0.495   6.657   8.847 -1.2350 -2.6816  2.8111
  986MOL0     H36055   0.331   6.473   8.835 -0.5624  1.2291  0.7628
  986MOL0     H36056   0.141   6.520   9.055 -0.1384  1.8560 -1.6607
  986MOL0     H36057  -0.030   6.495   9.036 -0.7666 -0.6929  0.8479
  986MOL0     H36058   0.092   6.279   9.094 -0.0393 -1.1884  0.7629
  986MOL0     H36059   0.184   6.289   8.944 -2.5838 -5.0207 -2.6073
  986MOL0     H36060  -0.122   6.273   8.949 -0.0437  0.8115 -0.3282
  986MOL0     H36061  -0.029   6.293   8.808  0.5029  1.3818  0.8574
  986MOL0     H36062   0.110   6.075   8.899  0.1859 -2.2578  0.1351
  986MOL0     H36063  -0.032   6.057   8.806 -4.0217  0.2327  1.1586
  986MOL0     H36064  -0.148   5.935   9.205  0.2788 -2.8008 -1.3817
  986MOL0     H36065   0.020   6.755   8.788 -0.2505 -3.8628 -0.9325
  986MOL0     H36066   0.065   6.961   8.710  0.3949 -5.4371 -1.9252
  986MOL0     H36067   0.186   7.050   8.813  3.3051 -1.4149 -0.5397
  986MOL0     H36068   0.214   7.002   8.644 -1.6253 -2.7909 -1.6785
  987MOL0     O36069   6.941  11.217   1.208 -0.1993 -0.0016 -0.3353
  987MOL0     C36070   6.923  11.334   1.226 -0.1664 -0.0716  0.1888
  987MOL0     O36071   7.018  11.420   1.271 -0.3022  0.2365  0.2439
  987MOL0     C36072   7.151  11.390   1.286 -0.5990 -0.4162 -0.2680
  987MOL0     C36073   7.201  11.280   1.364 -0.1459  0.2666  0.5093
  987MOL0     C36074   7.336  11.267   1.377  0.7944 -0.2529  0.1434
  987MOL0     C36075   7.428  11.343   1.306 -0.3917 -1.0076  0.2947
  987MOL0     O36076   7.553  11.324   1.337  0.4597  0.5173  0.7306
  987MOL0     C36077   7.619  11.428   1.411  1.2707  0.2041  0.2023
  987MOL0     C36078   7.757  11.390   1.462  0.7759 -0.7283 -0.3487
  987MOL0     C36079   7.843  11.303   1.376  0.2259 -0.4381  0.5681
  987MOL0     C36080   7.864  11.378   1.242  0.1794  0.3458 -0.0054
  987MOL0     C36081   7.943  11.290   1.146  0.0907 -1.2315 -0.8009
  987MOL0     C36082   7.953  11.354   1.006 -1.3120  0.0124  0.1270
  987MOL0     C36083   7.829  11.312   0.926 -0.2444  0.2611 -0.8625
  987MOL0     C36084   7.844  11.357   0.789  0.3866  0.1358  0.1123
  987MOL0     N36085   7.807  11.494   0.778  0.5421 -0.2451  0.2330
  987MOL0     C36086   7.681  11.548   0.737 -0.3717 -0.0284 -0.0205
  987MOL0     C36087   7.710  11.678   0.723  0.2007 -0.3050 -0.0079
  987MOL0     C36088   7.613  11.758   0.649 -0.0352 -0.6709 -0.2250
  987MOL0     C36089   7.622  11.906   0.691  0.7403 -0.9430 -0.1885
  987MOL0     C36090   7.705  11.990   0.596  0.1966 -0.0371  0.0989
  987MOL0     C36091   7.772  12.097   0.668 -0.1766  0.1772  0.4359
  987MOL0     O36092   7.838  12.180   0.568 -0.8731 -0.0971 -0.6710
  987MOL0     C36093   7.940  12.126   0.491  0.3574  0.5561 -0.3057
  987MOL0     C36094   8.015  12.011   0.524  0.5827  0.4160 -0.5183
  987MOL0     C36095   8.104  11.958   0.425 -0.6863  0.0236  0.6948
  987MOL0     C36096   8.176  11.834   0.469  0.8435 -0.2843  0.2635
  987MOL0     C36097   8.126  12.018   0.302 -0.9444  0.2350  0.1298
  987MOL0     C36098   8.244  11.981   0.209 -0.8149  0.2866  0.5561
  987MOL0     O36099   8.251  12.042   0.085 -0.5063  0.0406  0.0300
  987MOL0     C36100   8.325  11.984  -0.019  0.3645 -0.2688 -0.7196
  987MOL0     C36101   8.399  12.073  -0.092  0.2411  0.1890 -0.0832
  987MOL0     C36102   8.484  12.031  -0.195  0.7419 -0.2490 -0.0139
  987MOL0     C36103   8.505  11.894  -0.221 -0.4472 -0.5644 -0.3988
  987MOL0     O36104   8.594  11.849  -0.313  0.3057  1.0207  0.6959
  987MOL0     C36105   8.703  11.761  -0.260  0.8840 -1.0322  0.8332
  987MOL0     C36106   8.832  11.853  -0.244 -0.8177 -0.5106 -0.6809
  987MOL0     C36107   8.896  11.904  -0.371 -0.8298  0.2030  0.1417
  987MOL0     C36108   8.982  12.029  -0.330  0.5827 -0.0969  0.2379
  987MOL0     C36109   9.002  12.120  -0.451 -0.8496  0.5921 -0.2928
  987MOL0     C36110   9.054  12.041  -0.579  0.1491  0.4968 -0.9158
  987MOL0     C36111   9.048  12.131  -0.714 -0.2598  0.3080  0.5374
  987MOL0     C36112   9.157  12.106  -0.827  0.7653  0.9977 -0.5463
  987MOL0    Cl36113   9.150  11.927  -0.868  0.2704  0.6637  0.4183
  987MOL0     C36114   8.436  11.807  -0.132  0.6455  0.0317  0.1887
  987MOL0     C36115   8.346  11.845  -0.031  1.0328 -1.0623 -0.1269
  987MOL0     O36116   8.328  11.896   0.251 -0.0171 -0.7859 -0.4599
  987MOL0     C36117   8.051  12.132   0.275  0.1274  0.5367  0.0826
  987MOL0     C36118   7.960  12.186   0.370 -1.0186  0.1951 -0.0161
  987MOL0     N36119   7.840  11.706   0.756  0.3807 -0.4820 -0.0595
  987MOL0     N36120   7.897  11.596   0.786  0.0060 -0.1889 -0.7905
  987MOL0     C36121   7.379  11.437   1.215 -0.4530  0.7098 -0.8431
  987MOL0     C36122   7.243  11.460   1.212 -0.5338  0.0013 -0.3573
  987MOL0     C36123   6.781  11.379   1.224  0.2552 -0.6791 -0.0390
  987MOL0     C36124   6.671  11.285   1.207  0.0318  0.7103 -0.3043
  987MOL0     C36125   6.538  11.322   1.204 -1.0440 -0.1573 -0.3921
  987MOL0     C36126   6.497  11.454   1.230 -0.2606  0.0068 -0.3432
  987MOL0     O36127   6.365  11.482   1.226  0.7950  0.3942 -0.1209
  987MOL0     C36128   6.331  11.491   1.095  0.3353  0.2074 -0.2113
  987MOL0     C36129   6.222  11.394   1.061  0.9155  0.1280 -0.6163
  987MOL0     C36130   6.086  11.421   1.140  0.0051  0.5935  0.0468
  987MOL0     C36131   5.975  11.351   1.078 -0.3499  0.0829 -0.1956
  987MOL0     C36132   5.838  11.393   1.129 -1.0505  0.2295  0.2421
  987MOL0     C36133   5.748  11.438   1.195  0.1589 -0.0432  0.0908
  987MOL0     C36134   6.595  11.550   1.256 -0.4837  0.0709 -0.0820
  987MOL0     C36135   6.737  11.519   1.250 -0.9305 -0.3934 -0.0761
  987MOL0     C36136   6.837  11.635   1.237 -0.2940 -0.2983  0.0894
  987MOL0     H36137   7.124  11.236   1.426  1.1935  0.2910  2.2986
  987MOL0     H36138   7.364  11.187   1.446 -2.0747 -2.5234 -1.1000
  987MOL0     H36139   7.546  11.446   1.490  1.5596 -3.0332  1.3625
  987MOL0     H36140   7.633  11.519   1.352  0.4632 -1.2067 -2.3398
  987MOL0     H36141   7.806  11.485   1.488 -2.5378  1.4479 -1.3579
  987MOL0     H36142   7.735  11.338   1.555 -0.3936  3.0854  1.7285
  987MOL0     H36143   7.933  11.268   1.426  0.5358 -0.7961 -0.2249
  987MOL0     H36144   7.793  11.208   1.351  2.4291 -1.3767 -0.4902
  987MOL0     H36145   7.767  11.408   1.200 -0.5878  0.8035  1.9836
  987MOL0     H36146   7.902  11.480   1.257 -1.3869  0.7013  2.1350
  987MOL0     H36147   7.898  11.191   1.147 -0.0321 -1.2071 -2.2271
  987MOL0     H36148   8.044  11.273   1.186  0.1921 -1.5556 -1.1876
  987MOL0     H36149   7.976  11.460   1.023  0.4421  0.1639 -2.5151
  987MOL0     H36150   8.043  11.309   0.965 -2.2438 -1.1379 -0.7042
  987MOL0     H36151   7.743  11.363   0.970  2.0247  4.7491 -0.9802
  987MOL0     H36152   7.814  11.206   0.946  0.9587  0.3467  0.6973
  987MOL0     H36153   7.945  11.347   0.749 -0.1832 -0.2782 -1.2648
  987MOL0     H36154   7.774  11.301   0.726 -1.8367  3.6087 -0.7553
  987MOL0     H36155   7.594  11.496   0.699  1.5155 -1.2955 -3.0208
  987MOL0     H36156   7.513  11.729   0.683  1.0994 -1.6062  2.6779
  987MOL0     H36157   7.637  11.746   0.543  4.0371  1.6805  0.2035
  987MOL0     H36158   7.517  11.935   0.686  1.4855  2.5361  1.5937
  987MOL0     H36159   7.652  11.928   0.794 -1.0801  3.9124 -0.4651
  987MOL0     H36160   7.785  11.934   0.547  4.1168  0.9196  4.6871
  987MOL0     H36161   7.640  12.036   0.521 -0.4335 -1.1617 -0.0790
  987MOL0     H36162   7.702  12.167   0.714 -1.4063  0.6694 -2.0126
  987MOL0     H36163   7.845  12.054   0.738  0.9556  1.4061  0.0665
  987MOL0     H36164   8.002  11.959   0.618 -5.5548  1.8938 -0.1102
  987MOL0     H36165   8.274  11.863   0.507 -0.2090  2.0245  1.4083
  987MOL0     H36166   8.209  11.763   0.393  1.6315  0.6361 -0.2754
  987MOL0     H36167   8.122  11.790   0.553  1.0705 -0.1213  0.4934
  987MOL0     H36168   8.398  12.180  -0.076 -0.8266 -0.0695  2.0006
  987MOL0     H36169   8.531  12.108  -0.256 -0.7193 -0.5047 -1.5186
  987MOL0     H36170   8.676  11.717  -0.164  2.1073  0.9114  2.1400
  987MOL0     H36171   8.729  11.696  -0.344  0.7998  1.1387 -0.9996
  987MOL0     H36172   8.801  11.936  -0.179  2.5087 -1.0941  1.9523
  987MOL0     H36173   8.912  11.797  -0.195  1.1711  1.3382 -1.6425
  987MOL0     H36174   8.819  11.944  -0.438  1.6091  2.3605 -1.6092
  987MOL0     H36175   8.953  11.824  -0.419  2.2888  1.7890  0.9001
  987MOL0     H36176   9.080  11.995  -0.299  2.0685  0.6298 -3.1792
  987MOL0     H36177   8.940  12.092  -0.251 -1.6897  0.1770 -1.0866
  987MOL0     H36178   8.904  12.167  -0.464 -0.7814  0.4113 -1.6128
  987MOL0     H36179   9.072  12.201  -0.427 -0.7535  0.9824 -1.7582
  987MOL0     H36180   9.004  11.945  -0.590  1.4333 -0.6463  2.1608
  987MOL0     H36181   9.160  12.020  -0.564  0.7888  1.4740 -3.4741
  987MOL0     H36182   9.055  12.238  -0.690 -0.1689  0.5901 -0.6924
  987MOL0     H36183   8.955  12.108  -0.767  0.1824 -1.7761  0.5998
  987MOL0     H36184   9.256  12.146  -0.802  0.0222  3.8993 -1.8073
  987MOL0     H36185   9.131  12.154  -0.922  0.2430  3.5551  0.8096
  987MOL0     H36186   8.439  11.700  -0.154 -1.9015 -0.4455  1.7333
  987MOL0     H36187   8.289  11.780   0.035 -1.9107 -0.7155 -2.0986
  987MOL0     H36188   8.046  12.171   0.173 -0.0752  2.7073  0.8786
  987MOL0     H36189   7.893  12.268   0.347  0.9846  1.8054 -0.4590
  987MOL0     H36190   7.454  11.493   1.160 -0.3087  0.8858 -0.4721
  987MOL0     H36191   7.214  11.539   1.143 -1.9569  0.9260  1.2317
  987MOL0     H36192   6.704  11.182   1.198  0.4327  0.1992  4.4118
  987MOL0     H36193   6.464  11.249   1.173 -1.2895  1.1565 -3.2802
  987MOL0     H36194   6.300  11.594   1.073  2.0161  0.7959  0.0352
  987MOL0     H36195   6.411  11.487   1.021  2.1840 -1.5294  1.7428
  987MOL0     H36196   6.246  11.292   1.092 -0.3499  0.3193  1.1148
  987MOL0     H36197   6.200  11.388   0.954 -0.5683 -0.8617 -0.2840
  987MOL0     H36198   6.103  11.391   1.243 -0.2107  0.6697  0.1055
  987MOL0     H36199   6.070  11.529   1.144  0.5943  0.7239 -0.8361
  987MOL0     H36200   5.997  11.245   1.092 -0.7765  0.0136 -0.0311
  987MOL0     H36201   5.970  11.356   0.969  0.6186 -1.7323 -0.3605
  987MOL0     H36202   5.666  11.472   1.255 -2.9148 -1.8087 -2.6977
  987MOL0     H36203   6.564  11.652   1.276 -3.6652 -0.5990 -1.0647
  987MOL0     H36204   6.899  11.634   1.146 -0.8363 -0.9994 -0.2869
  987MOL0     H36205   6.772  11.722   1.225  0.4489  0.3580  0.7308
  987MOL0     H36206   6.905  11.652   1.321  2.5693  2.6143 -2.5411
  988MOL0     O36207   3.718   3.417   7.489 -0.0563 -0.4323 -0.0831
  988MOL0     C36208   3.704   3.339   7.391 -0.1283  0.2215 -0.0995
  988MOL0     O36209   3.585   3.268   7.355  0.2127  0.3660  0.2041
  988MOL0     C36210   3.469   3.290   7.424 -1.1474 -0.4271  1.0593
  988MOL0     C36211   3.409   3.190   7.490  0.7309 -0.1556  0.1679
  988MOL0     C36212   3.292   3.200   7.552 -1.2432  0.2738  0.3327
  988MOL0     C36213   3.235   3.325   7.558 -0.6640  0.3601 -0.4862
  988MOL0     O36214   3.118   3.333   7.630 -0.1392  0.9676  0.0879
  988MOL0     C36215   3.011   3.239   7.614  0.2723  0.3392  0.4233
  988MOL0     C36216   2.887   3.327   7.581  0.2124  0.3595 -0.2664
  988MOL0     C36217   2.768   3.246   7.527  1.9317 -1.4077  0.2801
  988MOL0     C36218   2.658   3.348   7.486  0.1579 -0.3000  0.2174
  988MOL0     C36219   2.526   3.290   7.422  0.1507  0.2974 -0.0145
  988MOL0     C36220   2.405   3.351   7.480 -0.6138  0.7686  0.1677
  988MOL0     C36221   2.377   3.496   7.433  0.0604  0.4157 -0.2366
  988MOL0     C36222   2.232   3.541   7.449 -0.0374 -0.4977 -0.9202
  988MOL0     N36223   2.127   3.443   7.410 -0.4444 -0.1704 -0.4146
  988MOL0     C36224   2.048   3.367   7.480 -0.3775  0.7371 -0.3327
  988MOL0     C36225   1.945   3.328   7.400 -0.1831 -0.1002  0.0505
  988MOL0     C36226   1.848   3.215   7.435 -0.7627  1.1107  0.1600
  988MOL0     C36227   1.774   3.258   7.569  0.6058 -0.3722  0.3620
  988MOL0     C36228   1.628   3.203   7.590 -0.3603  0.4985 -0.8205
  988MOL0     C36229   1.539   3.296   7.514  0.0861 -0.1316 -0.0397
  988MOL0     O36230   1.469   3.235   7.404  0.3286  0.3534 -0.1218
  988MOL0     C36231   1.441   3.102   7.415 -0.1355 -0.1357  0.1876
  988MOL0     C36232   1.506   3.027   7.322  0.9771 -0.0591  0.1556
  988MOL0     C36233   1.482   2.885   7.327 -1.2415 -0.4199 -0.4089
  988MOL0     C36234   1.544   2.811   7.212  0.5414 -0.0865  0.3601
  988MOL0     C36235   1.405   2.826   7.433 -0.2082 -0.1145 -0.0638
  988MOL0     C36236   1.385   2.683   7.445 -0.5189 -0.1424 -0.3993
  988MOL0     O36237   1.252   2.654   7.470  0.2591  0.6792 -0.0524
  988MOL0     C36238   1.218   2.526   7.501 -0.6114 -0.3044  0.1077
  988MOL0     C36239   1.117   2.477   7.427 -0.4178 -0.8166 -0.6858
  988MOL0     C36240   1.065   2.349   7.458 -0.0545  0.6167 -0.1167
  988MOL0     C36241   1.115   2.266   7.559  0.6193 -0.7714 -0.6193
  988MOL0     O36242   1.071   2.143   7.600  0.1609  0.1297  0.1533
  988MOL0     C36243   0.951   2.094   7.538 -0.0476 -0.7747  0.1819
  988MOL0     C36244   0.897   1.973   7.618  0.6954 -0.1098  1.4483
  988MOL0     C36245   0.750   1.925   7.568 -0.0142  0.3131  0.7927
  988MOL0     C36246   0.685   1.816   7.647  0.5266  0.3615 -0.4239
  988MOL0     C36247   0.549   1.775   7.586 -0.4519 -0.1129 -0.0864
  988MOL0     C36248   0.529   1.623   7.599  0.0924 -0.2154 -0.3592
  988MOL0     C36249   0.378   1.594   7.609 -0.7576 -0.4944 -0.9588
  988MOL0     C36250   0.325   1.612   7.466 -0.1462  0.5419  0.4613
  988MOL0    Cl36251   0.150   1.598   7.451  0.1497  0.2153  0.0615
  988MOL0     C36252   1.231   2.306   7.615  0.7361  0.5611  0.7017
  988MOL0     C36253   1.281   2.440   7.596  0.2115 -0.2684 -0.1805
  988MOL0     O36254   1.469   2.610   7.404 -0.5640  0.4173 -0.1651
  988MOL0     C36255   1.351   2.906   7.523  0.2103 -0.0111 -0.0482
  988MOL0     C36256   1.360   3.048   7.512  0.2627  0.4190  0.1074
  988MOL0     N36257   1.971   3.379   7.273  0.6744 -0.3538  0.2103
  988MOL0     N36258   2.074   3.454   7.282 -0.0782 -0.2554  0.5852
  988MOL0     C36259   3.304   3.439   7.506 -0.7062  0.0114  0.0285
  988MOL0     C36260   3.427   3.425   7.438 -0.6422 -0.2869  0.7251
  988MOL0     C36261   3.824   3.319   7.294 -0.1814  0.5454 -0.3177
  988MOL0     C36262   3.805   3.238   7.180  0.0651 -0.2038 -0.0765
  988MOL0     C36263   3.904   3.214   7.081 -1.2578  0.6324 -0.9444
  988MOL0     C36264   4.037   3.268   7.095 -0.2741 -0.0037 -0.6710
  988MOL0     O36265   4.142   3.240   7.009 -0.4059 -0.3433  0.6502
  988MOL0     C36266   4.121   3.235   6.866  0.3001  0.1022  0.4295
  988MOL0     C36267   4.160   3.364   6.802  0.1403  0.1535  0.3873
  988MOL0     C36268   4.198   3.356   6.654 -0.3063  0.9206  0.3244
  988MOL0     C36269   4.347   3.356   6.635 -0.0504 -0.6112  0.2143
  988MOL0     C36270   4.379   3.303   6.494 -0.0137  0.2128 -0.8241
  988MOL0     C36271   4.390   3.268   6.378  0.0395 -0.5381  0.4965
  988MOL0     C36272   4.054   3.350   7.211 -0.0244 -0.8612  0.3112
  988MOL0     C36273   3.955   3.372   7.315 -0.0509  0.0925  0.4765
  988MOL0     C36274   3.988   3.443   7.442  0.4121  0.1120  0.9082
  988MOL0     H36275   3.455   3.092   7.497  2.0418  0.5757  4.6581
  988MOL0     H36276   3.240   3.121   7.606 -1.6714 -3.2606 -4.5134
  988MOL0     H36277   3.004   3.195   7.713  2.3053  1.9807  1.3987
  988MOL0     H36278   3.019   3.159   7.540 -1.3239 -0.1864  0.7878
  988MOL0     H36279   2.860   3.393   7.663 -1.9647 -0.6969 -0.0821
  988MOL0     H36280   2.916   3.396   7.501  4.6609 -1.6991 -0.7581
  988MOL0     H36281   2.799   3.185   7.442  1.4669  1.3304 -2.0103
  988MOL0     H36282   2.723   3.183   7.604  0.1332 -0.5717 -0.0265
  988MOL0     H36283   2.626   3.400   7.577 -2.0308 -0.8424 -0.1850
  988MOL0     H36284   2.701   3.418   7.414 -2.1291 -2.1476 -3.2509
  988MOL0     H36285   2.529   3.181   7.419  1.0416  0.2145  2.1343
  988MOL0     H36286   2.528   3.323   7.317 -0.4845 -2.7361 -1.0744
  988MOL0     H36287   2.322   3.286   7.450 -0.4865  0.3119  0.8010
  988MOL0     H36288   2.400   3.336   7.588  3.8664 -0.5123  0.3742
  988MOL0     H36289   2.414   3.511   7.331  0.7719 -2.2892 -0.4552
  988MOL0     H36290   2.431   3.561   7.502  0.8702  1.8068 -2.0757
  988MOL0     H36291   2.219   3.561   7.556 -1.6920 -0.2209 -1.1438
  988MOL0     H36292   2.213   3.633   7.393 -0.7961 -0.1266 -0.0840
  988MOL0     H36293   2.073   3.333   7.580  3.1616 -1.2202 -1.7137
  988MOL0     H36294   1.907   3.126   7.456  0.9142  1.9585 -0.7328
  988MOL0     H36295   1.783   3.176   7.356  0.2863  3.1181 -1.8125
  988MOL0     H36296   1.833   3.229   7.657  1.8393  0.2856 -0.2228
  988MOL0     H36297   1.780   3.366   7.582 -2.5528  0.5371 -3.7458
  988MOL0     H36298   1.640   3.105   7.544 -3.7615  0.1451 -1.2093
  988MOL0     H36299   1.598   3.200   7.695 -2.4202 -1.5212 -1.3922
  988MOL0     H36300   1.475   3.320   7.600  1.0613 -3.3050  1.7380
  988MOL0     H36301   1.587   3.387   7.477  1.5704 -0.5732  0.7338
  988MOL0     H36302   1.564   3.075   7.244  2.7283  0.4797  1.7371
  988MOL0     H36303   1.602   2.725   7.245  3.0267  1.8312  1.3893
  988MOL0     H36304   1.631   2.862   7.168 -0.2931 -0.6240 -2.0686
  988MOL0     H36305   1.485   2.789   7.123  4.2334  1.3994 -2.7320
  988MOL0     H36306   1.085   2.544   7.348  1.3855 -0.7809 -1.4443
  988MOL0     H36307   0.968   2.327   7.416 -0.9737  1.6028  1.3860
  988MOL0     H36308   0.870   2.168   7.547 -3.2557 -4.1754  2.3773
  988MOL0     H36309   0.972   2.073   7.433 -0.5112  0.7473 -0.2440
  988MOL0     H36310   0.975   1.898   7.603  3.6300  2.9108  0.5501
  988MOL0     H36311   0.905   1.999   7.724  0.9958  1.4215  1.0772
  988MOL0     H36312   0.753   1.884   7.467 -1.6689 -0.0424  0.8496
  988MOL0     H36313   0.677   2.007   7.565  1.1570  1.3458 -1.4469
  988MOL0     H36314   0.681   1.846   7.752 -0.5785 -0.3314 -0.2471
  988MOL0     H36315   0.747   1.726   7.645  0.5185  0.1251  2.9666
  988MOL0     H36316   0.465   1.823   7.639 -2.2694 -2.9113 -0.2204
  988MOL0     H36317   0.527   1.786   7.480 -4.3163  0.3283  0.6115
  988MOL0     H36318   0.583   1.586   7.687  1.5822  2.4109 -0.0533
  988MOL0     H36319   0.574   1.577   7.510 -1.9436 -1.1547 -0.9542
  988MOL0     H36320   0.323   1.670   7.666 -1.3011 -1.5421 -0.0525
  988MOL0     H36321   0.365   1.499   7.662 -3.2666 -0.1610 -0.8716
  988MOL0     H36322   0.381   1.545   7.400  2.1058  0.0340  2.7260
  988MOL0     H36323   0.343   1.711   7.422 -0.6322  1.9893  3.2522
  988MOL0     H36324   1.280   2.235   7.681  1.7645  0.3559 -0.2507
  988MOL0     H36325   1.370   2.475   7.647  0.6450 -2.7040  0.8586
  988MOL0     H36326   1.280   2.869   7.596  0.9366  2.0141  1.8173
  988MOL0     H36327   1.292   3.108   7.571 -0.6731  1.1790 -1.6567
  988MOL0     H36328   3.265   3.540   7.514 -1.6967 -0.1573 -2.0134
  988MOL0     H36329   3.468   3.515   7.394 -1.5941  0.4233  1.2484
  988MOL0     H36330   3.712   3.183   7.168  0.3296 -1.5033  2.8822
  988MOL0     H36331   3.879   3.147   6.999 -0.4724  0.3591 -0.9691
  988MOL0     H36332   4.180   3.152   6.827 -0.1753 -0.2358  0.4190
  988MOL0     H36333   4.023   3.212   6.824  1.2388  1.7459 -2.9475
  988MOL0     H36334   4.243   3.409   6.858  2.7822 -1.3017 -2.1201
  988MOL0     H36335   4.077   3.435   6.809 -0.9636 -1.1852  1.5003
  988MOL0     H36336   4.162   3.266   6.603 -0.1240 -1.7122  4.3525
  988MOL0     H36337   4.137   3.436   6.611 -0.0493  1.7053  1.3866
  988MOL0     H36338   4.407   3.301   6.708  1.0330  1.8881  1.3504
  988MOL0     H36339   4.392   3.453   6.659  0.5981 -1.3127  2.0125
  988MOL0     H36340   4.406   3.251   6.273  1.9351 -1.4949  0.8932
  988MOL0     H36341   4.152   3.392   7.231  0.1901 -1.0822 -0.2369
  988MOL0     H36342   3.921   3.530   7.441  0.6158  0.2697 -0.1090
  988MOL0     H36343   3.958   3.391   7.533  5.2139  0.0732  2.7218
  988MOL0     H36344   4.094   3.463   7.460  0.7592  0.0038 -0.8850
  989MOL0     O36345   6.349   8.736   4.887 -0.9641 -0.3877  0.7706
  989MOL0     C36346   6.235   8.780   4.915 -0.5241  0.1283  1.1752
  989MOL0     O36347   6.205   8.910   4.963 -0.6404  0.1441 -0.1260
  989MOL0     C36348   6.319   8.982   4.981 -1.0421 -0.2530 -0.4316
  989MOL0     C36349   6.397   9.043   4.884 -0.2406 -0.1138  0.1450
  989MOL0     C36350   6.512   9.116   4.917 -0.0666  0.2097  0.2027
  989MOL0     C36351   6.558   9.126   5.047  0.5269 -0.8428  0.1074
  989MOL0     O36352   6.673   9.188   5.092 -0.2859  1.2663  0.2028
  989MOL0     C36353   6.708   9.302   5.019 -0.7020 -0.5190 -0.1525
  989MOL0     C36354   6.832   9.380   5.080  0.2230  0.0064  0.4904
  989MOL0     C36355   6.970   9.325   5.038 -0.0598  0.3171  0.2622
  989MOL0     C36356   7.068   9.337   5.160  0.1277  0.3906  0.6129
  989MOL0     C36357   7.051   9.207   5.246  0.5967 -0.9005 -0.5840
  989MOL0     C36358   7.125   9.216   5.386  0.6531 -0.2406  0.1261
  989MOL0     C36359   7.075   9.331   5.472 -0.2810  0.2090  0.5599
  989MOL0     C36360   6.954   9.284   5.555  0.1499 -0.2291  0.4983
  989MOL0     N36361   6.897   9.382   5.651  0.1312 -0.0070  0.1009
  989MOL0     C36362   6.840   9.499   5.610  1.0713 -1.3916 -0.0413
  989MOL0     C36363   6.792   9.550   5.732  0.3216  0.4576 -0.3190
  989MOL0     C36364   6.713   9.674   5.735  0.3195  1.2335 -0.6575
  989MOL0     C36365   6.566   9.644   5.793  0.7976 -0.0131 -0.3163
  989MOL0     C36366   6.481   9.772   5.821  0.0271  0.4654  0.1364
  989MOL0     C36367   6.340   9.728   5.866 -0.7567 -0.1514  0.0265
  989MOL0     O36368   6.250   9.838   5.909 -0.2926  0.1702  0.6235
  989MOL0     C36369   6.117   9.808   5.933  0.3397 -0.5174  0.1190
  989MOL0     C36370   6.016   9.901   5.909  0.3198  0.1815 -0.3649
  989MOL0     C36371   5.888   9.873   5.944  0.4735 -0.6158 -0.5872
  989MOL0     C36372   5.788   9.983   5.920  0.5092  0.2390  0.6002
  989MOL0     C36373   5.852   9.741   5.990  0.1259  0.2571  0.3666
  989MOL0     C36374   5.714   9.698   6.017 -0.1548 -0.6639  0.2376
  989MOL0     O36375   5.695   9.613   6.114 -0.5822  0.5477  1.2479
  989MOL0     C36376   5.582   9.551   6.160  0.1244 -1.1049  0.2953
  989MOL0     C36377   5.546   9.553   6.298  0.3374 -0.1221 -1.0573
  989MOL0     C36378   5.434   9.466   6.336  0.1444  0.3525  0.5337
  989MOL0     C36379   5.383   9.365   6.252 -0.6007 -0.0222  0.4577
  989MOL0     O36380   5.292   9.269   6.274  0.7997  0.3334  0.1495
  989MOL0     C36381   5.264   9.244   6.405  0.0195  0.0037 -0.9291
  989MOL0     C36382   5.152   9.138   6.407 -0.8891 -0.1308  0.3345
  989MOL0     C36383   5.122   9.073   6.546 -0.1801 -0.4492  1.4887
  989MOL0     C36384   5.002   8.987   6.518  0.7578 -0.2181 -0.6330
  989MOL0     C36385   4.957   8.912   6.651  0.6011  0.9175  1.0244
  989MOL0     C36386   4.826   8.837   6.631  0.0322  0.2533 -0.2375
  989MOL0     C36387   4.814   8.724   6.731 -0.1462 -0.4577  0.6622
  989MOL0     C36388   4.794   8.764   6.881 -0.4490  0.7413  0.0738
  989MOL0    Cl36389   4.953   8.794   6.964 -0.0844 -0.4709  0.1545
  989MOL0     C36390   5.412   9.372   6.119 -0.4859 -1.0303 -0.9052
  989MOL0     C36391   5.503   9.466   6.071  0.2465 -0.0687 -0.1626
  989MOL0     O36392   5.619   9.749   5.951  0.5882 -0.6547  0.5125
  989MOL0     C36393   5.956   9.646   6.013  1.4567 -0.5623  0.7492
  989MOL0     C36394   6.088   9.689   5.999  1.3158 -0.6667  0.7822
  989MOL0     N36395   6.831   9.462   5.841 -0.3659 -0.2781 -0.1757
  989MOL0     N36396   6.911   9.375   5.788 -0.0572 -0.0430  0.5475
  989MOL0     C36397   6.477   9.066   5.146  0.3898 -0.2805 -0.0004
  989MOL0     C36398   6.351   9.001   5.112 -0.2436 -0.4562  0.3065
  989MOL0     C36399   6.121   8.696   4.902 -0.7692  0.4360  0.5250
  989MOL0     C36400   5.992   8.760   4.889 -0.2902  0.4285  0.4443
  989MOL0     C36401   5.869   8.686   4.884 -0.4970 -0.4438  0.1044
  989MOL0     C36402   5.878   8.537   4.876  0.8730 -0.4281  0.0641
  989MOL0     O36403   5.757   8.468   4.859  0.8939 -0.1760  0.1412
  989MOL0     C36404   5.758   8.325   4.850 -0.2568  0.2320  1.1488
  989MOL0     C36405   5.625   8.289   4.779  1.2896  0.6692 -0.4831
  989MOL0     C36406   5.499   8.320   4.864  0.8016 -0.4196 -0.2373
  989MOL0     C36407   5.433   8.454   4.839 -0.1283 -0.3200  0.0557
  989MOL0     C36408   5.325   8.479   4.944  0.3333 -0.0134  0.4784
  989MOL0     C36409   5.246   8.505   5.031 -0.0795 -0.0277  1.2677
  989MOL0     C36410   6.005   8.475   4.887 -0.0871  0.0169  0.2786
  989MOL0     C36411   6.125   8.556   4.910  1.3437  0.2135  0.5677
  989MOL0     C36412   6.239   8.461   4.945  0.5833  0.2594 -0.6506
  989MOL0     H36413   6.364   9.026   4.782  0.3716  0.7776 -0.2234
  989MOL0     H36414   6.576   9.153   4.837  0.9065 -2.1588 -0.1841
  989MOL0     H36415   6.628   9.376   5.030  0.4471  0.8092 -0.3909
  989MOL0     H36416   6.734   9.296   4.913  4.7884  0.5206  0.7804
  989MOL0     H36417   6.825   9.483   5.042  0.6667 -0.6828 -1.5762
  989MOL0     H36418   6.818   9.391   5.188  2.0794 -1.2278  0.8943
  989MOL0     H36419   6.966   9.228   4.988 -3.3385  0.5203 -0.1332
  989MOL0     H36420   6.999   9.401   4.964  0.7578  0.7894  1.0425
  989MOL0     H36421   7.166   9.340   5.112 -0.9432  0.8179 -1.7324
  989MOL0     H36422   7.060   9.430   5.216 -1.2628 -1.3549  3.5304
  989MOL0     H36423   7.099   9.132   5.183  1.0944 -0.9529 -0.1434
  989MOL0     H36424   6.943   9.189   5.249 -0.2277  1.5636 -5.0937
  989MOL0     H36425   7.134   9.119   5.435 -0.5308  0.4623  1.8311
  989MOL0     H36426   7.224   9.250   5.353 -0.2688  1.6760 -0.8349
  989MOL0     H36427   7.056   9.422   5.414 -3.9582 -0.1581  0.9879
  989MOL0     H36428   7.165   9.339   5.533  1.3053  0.1386 -1.6297
  989MOL0     H36429   6.870   9.255   5.491 -1.7742 -0.7870  3.1179
  989MOL0     H36430   6.976   9.195   5.615 -0.2595  1.2252  2.9682
  989MOL0     H36431   6.830   9.538   5.509 -2.1346 -1.6701  0.0669
  989MOL0     H36432   6.701   9.712   5.633 -0.3959  2.1881 -0.2295
  989MOL0     H36433   6.773   9.737   5.800  2.4072 -1.8824  0.6767
  989MOL0     H36434   6.523   9.586   5.711 -0.4763  2.5462 -1.5717
  989MOL0     H36435   6.572   9.595   5.891  0.6398  0.8230  0.1278
  989MOL0     H36436   6.520   9.823   5.910 -1.3010  0.9760  0.4507
  989MOL0     H36437   6.483   9.840   5.736 -1.0771 -0.3052 -0.5311
  989MOL0     H36438   6.298   9.671   5.783  0.7204 -1.2716  0.0238
  989MOL0     H36439   6.352   9.662   5.952  0.3794  3.0185  2.4921
  989MOL0     H36440   6.030   9.995   5.855 -0.4826  0.2752 -0.4274
  989MOL0     H36441   5.733   9.999   6.013 -1.7608  0.6706 -0.7340
  989MOL0     H36442   5.717   9.976   5.837  3.6292  0.9373 -2.3601
  989MOL0     H36443   5.838  10.076   5.893  0.7150  0.3126  1.2130
  989MOL0     H36444   5.600   9.605   6.376  0.2440 -2.4338  0.6390
  989MOL0     H36445   5.395   9.491   6.434 -0.1500  2.4746 -0.0614
  989MOL0     H36446   5.352   9.197   6.450 -0.0000  1.3374  0.5537
  989MOL0     H36447   5.239   9.326   6.472  1.4454 -0.8282  0.6933
  989MOL0     H36448   5.062   9.181   6.362 -1.3960  0.9556  2.3088
  989MOL0     H36449   5.186   9.056   6.342  1.4517  1.1671 -0.1976
  989MOL0     H36450   5.090   9.147   6.620  3.2096  0.9540  1.7547
  989MOL0     H36451   5.205   9.010   6.580 -0.8669 -2.5027 -0.4544
  989MOL0     H36452   5.015   8.919   6.433  0.9261 -1.6208  0.4819
  989MOL0     H36453   4.929   9.063   6.486  0.8084  0.6939  1.2883
  989MOL0     H36454   5.039   8.840   6.653  0.5329  0.6475 -2.0125
  989MOL0     H36455   4.942   8.968   6.744 -1.8832 -0.1623  1.3572
  989MOL0     H36456   4.805   8.795   6.532  2.3314 -0.6055 -0.4190
  989MOL0     H36457   4.745   8.905   6.660  1.5825  1.2751  1.9783
  989MOL0     H36458   4.904   8.665   6.712 -0.7627 -1.1597 -0.2379
  989MOL0     H36459   4.725   8.666   6.705 -1.0138  0.5467  1.3066
  989MOL0     H36460   4.732   8.686   6.925 -0.8881  0.8930 -0.2687
  989MOL0     H36461   4.727   8.850   6.891 -3.2566 -1.3448  0.5156
  989MOL0     H36462   5.373   9.294   6.055  2.2257 -1.1751 -2.5094
  989MOL0     H36463   5.515   9.475   5.964  0.0402  4.2602  0.0204
  989MOL0     H36464   5.939   9.542   6.036  2.9218 -2.1355 -4.1276
  989MOL0     H36465   6.162   9.613   6.022  2.1907  0.1475  0.7382
  989MOL0     H36466   6.508   9.058   5.250 -4.1402  0.7510  1.6206
  989MOL0     H36467   6.302   8.945   5.192  1.1606 -0.4017  1.2382
  989MOL0     H36468   5.988   8.868   4.876  0.1994  0.1873 -2.3248
  989MOL0     H36469   5.776   8.741   4.883 -0.8931 -0.9987  2.0278
  989MOL0     H36470   5.842   8.289   4.790 -2.4514 -0.2118 -1.8845
  989MOL0     H36471   5.773   8.276   4.947 -0.3729 -1.7961  0.1938
  989MOL0     H36472   5.629   8.180   4.782 -4.1086  0.2281  0.9225
  989MOL0     H36473   5.626   8.336   4.680  2.7151  1.9874  0.1088
  989MOL0     H36474   5.413   8.261   4.829 -1.0556  0.9084  1.7970
  989MOL0     H36475   5.507   8.291   4.969  0.9948  1.4690  0.2916
  989MOL0     H36476   5.392   8.465   4.738 -0.2463  4.6603  0.3980
  989MOL0     H36477   5.511   8.531   4.834  0.5532 -0.7281  2.9251
  989MOL0     H36478   5.184   8.522   5.117 -0.6187 -0.5135  0.9830
  989MOL0     H36479   6.025   8.368   4.885  3.1779  0.4623  2.0016
  989MOL0     H36480   6.331   8.520   4.944  0.2444  0.8422 -2.8350
  989MOL0     H36481   6.225   8.420   5.045 -3.7154 -2.9805 -2.2509
  989MOL0     H36482   6.240   8.375   4.878 -0.5069 -3.6225  3.7900
  990MOL0     O36483   3.191  10.512   4.869  0.3635  0.2623 -0.5035
  990MOL0     C36484   3.198  10.550   4.753  0.8765 -0.6368  0.3383
  990MOL0     O36485   3.260  10.475   4.661 -0.2204  0.9039  0.8738
  990MOL0     C36486   3.344  10.376   4.685  0.1214 -1.1159 -0.0020
  990MOL0     C36487   3.424  10.353   4.798 -0.1353  0.6837 -0.4747
  990MOL0     C36488   3.518  10.247   4.800 -0.9532  0.4798  0.2289
  990MOL0     C36489   3.520  10.154   4.695 -0.3962  0.6895 -0.1978
  990MOL0     O36490   3.618  10.059   4.707 -0.5192  0.2159  0.4777
  990MOL0     C36491   3.565   9.931   4.683 -0.4126 -0.1834  0.6979
  990MOL0     C36492   3.631   9.873   4.556 -0.5065 -0.3924 -0.3676
  990MOL0     C36493   3.570   9.746   4.520 -0.0833  0.6044  0.6024
  990MOL0     C36494   3.661   9.706   4.398 -1.1391 -0.0378  0.5097
  990MOL0     C36495   3.604   9.578   4.343 -0.3094 -0.0653  0.2694
  990MOL0     C36496   3.648   9.458   4.424  0.2117 -0.0981 -0.6307
  990MOL0     C36497   3.564   9.403   4.538 -0.7184 -1.1018 -0.1443
  990MOL0     C36498   3.414   9.418   4.505 -0.5281 -1.0915 -0.4504
  990MOL0     N36499   3.339   9.341   4.602 -0.0823 -0.7047 -0.4179
  990MOL0     C36500   3.309   9.209   4.584  0.0886 -0.3001  0.4258
  990MOL0     C36501   3.214   9.188   4.689 -0.1439  0.1747  0.2184
  990MOL0     C36502   3.148   9.049   4.721  0.5780 -0.0393 -0.9210
  990MOL0     C36503   3.128   9.021   4.873  1.3279 -1.3264 -0.2432
  990MOL0     C36504   3.035   8.893   4.895  0.3713 -0.0577  0.1269
  990MOL0     C36505   3.103   8.771   4.827 -0.4578  0.7204 -0.3697
  990MOL0     O36506   3.025   8.663   4.879 -0.3816  0.2861 -0.0056
  990MOL0     C36507   3.070   8.533   4.879  0.7671  0.0879  0.2293
  990MOL0     C36508   2.998   8.433   4.941  0.4721  0.0387  0.1012
  990MOL0     C36509   3.040   8.301   4.944 -0.0689  0.4093  0.2783
  990MOL0     C36510   2.954   8.198   5.019 -1.0966 -0.3797 -0.0678
  990MOL0     C36511   3.155   8.264   4.861  0.3715 -1.0567  0.0959
  990MOL0     C36512   3.209   8.124   4.852 -0.0278  0.0769 -0.1775
  990MOL0     O36513   3.336   8.113   4.804 -0.6687  0.3242  1.0034
  990MOL0     C36514   3.401   7.999   4.770  1.3108 -0.2791  0.2478
  990MOL0     C36515   3.340   7.866   4.741 -0.9194 -1.1241 -0.3355
  990MOL0     C36516   3.411   7.765   4.690 -0.2876 -0.7729 -1.2038
  990MOL0     C36517   3.548   7.766   4.688  0.6735  0.0032  0.3753
  990MOL0     O36518   3.598   7.644   4.649 -0.0951  1.1163  0.5449
  990MOL0     C36519   3.741   7.620   4.636  0.2673 -0.7091  0.9707
  990MOL0     C36520   3.761   7.482   4.558  0.4833 -0.0084 -0.8066
  990MOL0     C36521   3.706   7.371   4.660 -0.7289 -0.8504  0.0444
  990MOL0     C36522   3.714   7.246   4.574  0.7592 -0.3856 -1.1998
  990MOL0     C36523   3.676   7.118   4.640 -0.3272  0.3013 -0.0449
  990MOL0     C36524   3.800   7.077   4.727 -0.0348 -0.2062  0.8159
  990MOL0     C36525   3.744   7.031   4.858 -0.5762 -0.6520 -0.0255
  990MOL0     C36526   3.652   6.910   4.859  0.7480  0.7118  0.3586
  990MOL0    Cl36527   3.743   6.765   4.806  0.0660  0.5045  0.3847
  990MOL0     C36528   3.620   7.882   4.721  0.1168 -0.5476 -0.8055
  990MOL0     C36529   3.544   8.001   4.763 -0.2247 -0.4103  0.0455
  990MOL0     O36530   3.128   8.030   4.866  0.6511 -0.2958  0.4852
  990MOL0     C36531   3.216   8.366   4.785 -0.4118 -0.1279 -0.2143
  990MOL0     C36532   3.172   8.493   4.796 -0.8716  0.1691 -0.1382
  990MOL0     N36533   3.183   9.316   4.751  0.0415 -0.5049  0.5205
  990MOL0     N36534   3.263   9.407   4.695  0.7283  0.1611  0.1400
  990MOL0     C36535   3.445  10.178   4.579 -0.0614  0.7169  0.3898
  990MOL0     C36536   3.352  10.287   4.577  0.2502 -0.6499  0.9060
  990MOL0     C36537   3.136  10.678   4.700 -0.6386  0.8575  0.2829
  990MOL0     C36538   3.145  10.701   4.563  0.5518  0.2006 -0.6385
  990MOL0     C36539   3.086  10.813   4.499 -0.7924  0.1439 -0.5712
  990MOL0     C36540   3.018  10.902   4.573 -0.7965 -0.7328  0.0433
  990MOL0     O36541   2.966  11.005   4.501  0.0092 -0.1691  0.0524
  990MOL0     C36542   2.907  11.122   4.572  0.0720 -0.0732  0.6555
  990MOL0     C36543   2.872  11.214   4.450 -0.6521  0.4211 -0.1005
  990MOL0     C36544   2.791  11.338   4.480  0.6081 -0.1698  0.5535
  990MOL0     C36545   2.646  11.291   4.481 -0.7326 -0.3611 -0.0058
  990MOL0     C36546   2.555  11.374   4.558 -0.1772  0.5605 -1.7691
  990MOL0     C36547   2.485  11.441   4.639 -0.0097 -0.0381  0.5178
  990MOL0     C36548   2.997  10.878   4.709  0.0911  0.9086  0.9615
  990MOL0     C36549   3.062  10.771   4.776 -0.6756  0.8227 -0.6484
  990MOL0     C36550   3.038  10.755   4.925  1.3309 -0.3168  0.5332
  990MOL0     H36551   3.411  10.430   4.873 -0.6867  0.8752 -0.7595
  990MOL0     H36552   3.574  10.231   4.891  0.1933 -2.9647 -0.9137
  990MOL0     H36553   3.458   9.929   4.661 -0.8383 -2.5416  2.5318
  990MOL0     H36554   3.589   9.874   4.773 -3.0317  0.1262  1.6870
  990MOL0     H36555   3.629   9.946   4.475  1.0505 -1.4504 -1.4265
  990MOL0     H36556   3.739   9.865   4.575 -0.4190 -0.3967 -0.8614
  990MOL0     H36557   3.573   9.667   4.595  1.3758 -3.1161 -2.9760
  990MOL0     H36558   3.474   9.774   4.476  1.6042  1.3943 -3.0595
  990MOL0     H36559   3.672   9.783   4.321  0.9429  0.2866  1.0733
  990MOL0     H36560   3.765   9.694   4.430 -1.2878 -0.0291  1.0045
  990MOL0     H36561   3.645   9.560   4.244  0.8891 -0.3500  0.7999
  990MOL0     H36562   3.496   9.585   4.328 -0.0064  1.0589 -1.7752
  990MOL0     H36563   3.674   9.382   4.350 -0.2008  0.9089 -1.8521
  990MOL0     H36564   3.742   9.483   4.475  0.2666 -5.5091  2.6170
  990MOL0     H36565   3.594   9.446   4.633 -1.7262  1.0030 -0.7271
  990MOL0     H36566   3.584   9.296   4.553 -1.0960 -0.7550  3.6495
  990MOL0     H36567   3.392   9.525   4.507  3.6029 -0.0470  1.7517
  990MOL0     H36568   3.403   9.391   4.399 -2.2421  1.0073 -0.8682
  990MOL0     H36569   3.356   9.139   4.515  0.5285  0.1846  0.2274
  990MOL0     H36570   3.219   8.974   4.683  0.7531 -0.3637  0.0172
  990MOL0     H36571   3.050   9.047   4.672  0.3207  1.5051 -0.5293
  990MOL0     H36572   3.219   9.027   4.933  0.0108  3.6383  1.7518
  990MOL0     H36573   3.069   9.105   4.910  1.6413 -1.0172 -0.4356
  990MOL0     H36574   3.024   8.880   5.003 -2.3076  1.7643  0.1643
  990MOL0     H36575   2.935   8.906   4.852 -0.4170  0.7888  2.1277
  990MOL0     H36576   3.076   8.764   4.722 -3.9613 -2.4518  0.4995
  990MOL0     H36577   3.208   8.757   4.854 -0.8314 -1.5029  0.1191
  990MOL0     H36578   2.914   8.464   5.002 -1.9965  0.6523 -3.2897
  990MOL0     H36579   2.858   8.225   5.064 -1.5311 -0.9434 -0.6449
  990MOL0     H36580   3.016   8.135   5.084 -1.1844  1.3230  1.7378
  990MOL0     H36581   2.919   8.119   4.953 -1.2498 -2.6942  2.5681
  990MOL0     H36582   3.233   7.850   4.753 -1.1915 -0.3098 -1.4365
  990MOL0     H36583   3.358   7.673   4.667  0.4016 -1.4562 -0.2131
  990MOL0     H36584   3.782   7.697   4.570  0.3924 -1.6142 -0.0491
  990MOL0     H36585   3.797   7.623   4.729 -0.2195  1.8151  1.2389
  990MOL0     H36586   3.700   7.481   4.468  0.7538  1.1065 -1.0114
  990MOL0     H36587   3.866   7.472   4.528 -0.0274 -0.8761 -2.4108
  990MOL0     H36588   3.601   7.388   4.687 -1.7257 -2.4967 -2.4003
  990MOL0     H36589   3.780   7.361   4.740  2.2850  2.8804 -1.9702
  990MOL0     H36590   3.813   7.223   4.534  0.6973  1.1717 -2.3405
  990MOL0     H36591   3.664   7.278   4.482  2.0652  2.8120 -0.9379
  990MOL0     H36592   3.581   7.126   4.693 -0.0922  0.3849  0.3695
  990MOL0     H36593   3.655   7.043   4.563 -1.5333  2.3690 -1.8530
  990MOL0     H36594   3.875   7.157   4.734  1.6625 -1.4929 -1.3914
  990MOL0     H36595   3.848   7.000   4.666  0.3278  0.7790 -0.1854
  990MOL0     H36596   3.688   7.110   4.910  0.8311  1.6226 -1.7731
  990MOL0     H36597   3.833   7.000   4.912 -1.1612 -0.8926  0.8292
  990MOL0     H36598   3.567   6.916   4.790  2.1683  0.8763 -1.4609
  990MOL0     H36599   3.620   6.897   4.963  0.6614 -0.2722  0.2168
  990MOL0     H36600   3.727   7.893   4.711  0.0063  2.0723  0.1926
  990MOL0     H36601   3.595   8.091   4.797 -1.4839  0.2045  0.3604
  990MOL0     H36602   3.303   8.351   4.722  0.9992  3.4084  0.6752
  990MOL0     H36603   3.226   8.557   4.727  0.1940  0.8544  1.2874
  990MOL0     H36604   3.456  10.114   4.492  0.2454  1.2414  0.0454
  990MOL0     H36605   3.299  10.308   4.485  1.5346  1.4035  0.5710
  990MOL0     H36606   3.203  10.633   4.500  2.5798  0.4521  0.8594
  990MOL0     H36607   3.106  10.814   4.393 -3.8900  1.8469 -1.2451
  990MOL0     H36608   2.825  11.105   4.642 -0.2807  2.5270  0.9936
  990MOL0     H36609   2.979  11.175   4.635  1.1225 -1.3472  0.5645
  990MOL0     H36610   2.833  11.160   4.363  3.1730 -1.7747 -0.7036
  990MOL0     H36611   2.969  11.251   4.414 -1.1523  3.2064  1.1752
  990MOL0     H36612   2.828  11.371   4.577 -0.9308 -0.3418  1.2127
  990MOL0     H36613   2.816  11.414   4.406  1.5512 -2.2408 -1.4013
  990MOL0     H36614   2.643  11.193   4.530  1.4455 -0.3479  0.2840
  990MOL0     H36615   2.607  11.298   4.379 -0.2593 -0.1043 -0.1747
  990MOL0     H36616   2.436  11.515   4.701  0.0532  0.3458  0.1127
  990MOL0     H36617   2.951  10.951   4.774 -0.9452  0.0070  1.2862
  990MOL0     H36618   2.963  10.822   4.970  0.2239 -0.3644 -1.1406
  990MOL0     H36619   3.003  10.654   4.948 -1.5757  0.2093 -1.0733
  990MOL0     H36620   3.135  10.776   4.969  1.5443  2.0793 -0.8995
  991MOL0     O36621   5.480   2.466  10.735 -0.2588  0.0315  0.9204
  991MOL0     C36622   5.453   2.572  10.792  0.7190  0.6330  0.6119
  991MOL0     O36623   5.544   2.656  10.826 -0.8237 -0.6217 -0.5663
  991MOL0     C36624   5.680   2.630  10.823  0.6981  0.2790 -0.4825
  991MOL0     C36625   5.741   2.498  10.842  0.4779  0.1920  1.2767
  991MOL0     C36626   5.875   2.480  10.839 -0.9292  0.0097  0.4298
  991MOL0     C36627   5.965   2.588  10.841 -0.6710  0.0337  0.2360
  991MOL0     O36628   6.095   2.556  10.855 -0.1123 -0.0104  0.5125
  991MOL0     C36629   6.209   2.647  10.865  0.2386 -0.1912  0.3126
  991MOL0     C36630   6.330   2.559  10.925 -0.3864  0.6870  0.5292
  991MOL0     C36631   6.438   2.520  10.817  0.3592 -0.5386 -0.1063
  991MOL0     C36632   6.546   2.437  10.875  0.8372  0.3488  0.9874
  991MOL0     C36633   6.642   2.376  10.767  0.1256 -0.1571 -0.1467
  991MOL0     C36634   6.757   2.478  10.729  0.5226 -1.1582  0.0773
  991MOL0     C36635   6.788   2.464  10.578  0.0010 -0.0702 -0.4482
  991MOL0     C36636   6.902   2.555  10.535 -0.1211  0.1948  0.0574
  991MOL0     N36637   6.945   2.501  10.405 -0.2684 -0.1384 -0.2677
  991MOL0     C36638   6.868   2.448  10.299  0.3073 -0.6025 -0.1830
  991MOL0     C36639   6.959   2.437  10.195  0.1777  0.7945  0.7310
  991MOL0     C36640   6.937   2.375  10.062  0.2789  0.1656 -0.9002
  991MOL0     C36641   6.953   2.229  10.059 -0.8466  0.0648  0.2256
  991MOL0     C36642   6.929   2.176   9.911  0.3046 -0.0062 -0.0828
  991MOL0     C36643   7.043   2.207   9.817  1.4406 -0.1504 -0.3403
  991MOL0     O36644   7.047   2.121   9.707  0.0716 -0.1518  0.4937
  991MOL0     C36645   7.143   2.119   9.621 -0.6087  0.4322 -0.9435
  991MOL0     C36646   7.236   2.215   9.582  0.0186  0.5490 -0.3012
  991MOL0     C36647   7.321   2.194   9.469  0.4975  0.4016 -0.1281
  991MOL0     C36648   7.402   2.322   9.425 -0.6116  0.6672 -0.5293
  991MOL0     C36649   7.316   2.069   9.401 -0.4807  0.3134 -0.7448
  991MOL0     C36650   7.416   2.030   9.290 -0.2162 -0.0377  0.6875
  991MOL0     O36651   7.538   2.087   9.312 -1.0210 -0.6865  0.3642
  991MOL0     C36652   7.625   2.081   9.203 -0.7145 -0.0330 -0.1451
  991MOL0     C36653   7.751   2.036   9.215 -0.5659  0.2870 -0.5316
  991MOL0     C36654   7.848   2.050   9.116  0.3405  0.2549  0.2730
  991MOL0     C36655   7.811   2.101   8.993 -0.2548  0.8986  0.4478
  991MOL0     O36656   7.891   2.125   8.888  0.4682 -0.0487  0.6072
  991MOL0     C36657   8.033   2.154   8.908  0.3755  0.0316  0.4614
  991MOL0     C36658   8.106   2.148   8.774 -0.1727  0.0092  0.7423
  991MOL0     C36659   8.239   2.225   8.773 -0.1568 -0.0333 -0.9625
  991MOL0     C36660   8.345   2.171   8.681 -0.6397  0.6409  0.1239
  991MOL0     C36661   8.488   2.232   8.709  0.4551  0.6937 -0.3244
  991MOL0     C36662   8.571   2.200   8.587  0.6547  0.2476 -0.9823
  991MOL0     C36663   8.704   2.256   8.586 -0.3491 -0.0580  0.5508
  991MOL0     C36664   8.760   2.295   8.445 -0.9353 -1.2491 -0.6311
  991MOL0    Cl36665   8.898   2.413   8.433 -0.3608 -0.2046 -0.2144
  991MOL0     C36666   7.673   2.134   8.976 -0.1059 -0.0431  0.5281
  991MOL0     C36667   7.585   2.128   9.080  0.2715  0.1854  0.4965
  991MOL0     O36668   7.397   1.936   9.213  0.6525 -0.2425 -0.3738
  991MOL0     C36669   7.232   1.969   9.452 -0.3661 -0.4143  0.0879
  991MOL0     C36670   7.143   1.995   9.561 -0.7455  0.4533 -0.1133
  991MOL0     N36671   7.081   2.484  10.241  0.2472  0.3130 -0.4387
  991MOL0     N36672   7.076   2.496  10.372  0.2475 -0.7444  0.2297
  991MOL0     C36673   5.905   2.716  10.851 -0.6217 -0.6760 -0.1509
  991MOL0     C36674   5.769   2.736  10.832  0.7927 -0.3700 -2.0218
  991MOL0     C36675   5.312   2.596  10.837 -0.3859  0.6484 -0.3720
  991MOL0     C36676   5.289   2.715  10.908  0.0312 -0.1022 -0.5268
  991MOL0     C36677   5.167   2.746  10.966 -0.3599  0.1695  0.0068
  991MOL0     C36678   5.056   2.663  10.936 -1.4168 -0.2952 -0.6369
  991MOL0     O36679   4.931   2.696  10.982  0.4674  0.1779 -0.2887
  991MOL0     C36680   4.861   2.782  10.888  0.7380  0.1682  0.5295
  991MOL0     C36681   4.877   2.933  10.927  0.2410 -0.0253  0.1752
  991MOL0     C36682   4.779   2.978  11.038 -0.0279 -0.8531  0.0794
  991MOL0     C36683   4.828   3.092  11.122 -0.6382  0.5894  0.3491
  991MOL0     C36684   4.836   3.214  11.042  0.0329  0.0232 -0.5050
  991MOL0     C36685   4.868   3.312  10.977  0.1268 -0.0671  0.7395
  991MOL0     C36686   5.083   2.547  10.866  0.2847  0.0302 -0.2294
  991MOL0     C36687   5.206   2.510  10.812 -0.0571 -0.7566 -0.6374
  991MOL0     C36688   5.216   2.373  10.735 -0.8801 -0.0023  0.6844
  991MOL0     H36689   5.677   2.411  10.851  0.2443  0.3939  1.6064
  991MOL0     H36690   5.912   2.379  10.845 -0.9123 -0.0211 -0.1335
  991MOL0     H36691   6.191   2.728  10.936 -0.3044  1.2467 -1.3770
  991MOL0     H36692   6.242   2.699  10.774  1.7714 -0.9002  0.4328
  991MOL0     H36693   6.374   2.623  11.002  1.7966 -2.1478  1.8216
  991MOL0     H36694   6.287   2.466  10.965 -0.0242  0.0603 -0.5137
  991MOL0     H36695   6.394   2.465  10.733 -1.2819  1.2201 -0.4514
  991MOL0     H36696   6.486   2.612  10.784  2.3534 -1.0625  1.1651
  991MOL0     H36697   6.575   2.505  10.956 -1.9282  0.1306  2.2951
  991MOL0     H36698   6.500   2.351  10.925  0.2174 -1.2401 -2.0864
  991MOL0     H36699   6.580   2.344  10.683  1.5835  1.3156 -1.8694
  991MOL0     H36700   6.692   2.292  10.815 -0.1125 -0.0980  0.2071
  991MOL0     H36701   6.729   2.581  10.752 -2.6163 -1.5294 -1.4983
  991MOL0     H36702   6.840   2.462  10.799 -0.6159  2.1339  2.4716
  991MOL0     H36703   6.706   2.492  10.512  0.8948  1.8414 -0.8222
  991MOL0     H36704   6.814   2.361  10.551 -0.4045  0.0982 -1.5412
  991MOL0     H36705   6.863   2.656  10.516 -1.8447 -0.7574 -1.8777
  991MOL0     H36706   6.981   2.544  10.610  0.4990  0.2668 -0.5800
  991MOL0     H36707   6.761   2.432  10.310  0.5493 -1.5936  0.8279
  991MOL0     H36708   7.021   2.419  10.008 -0.3603 -0.3838 -2.3986
  991MOL0     H36709   6.839   2.405  10.023  0.2591 -1.2142 -1.9860
  991MOL0     H36710   7.040   2.186  10.110 -1.3677  0.1156  1.2058
  991MOL0     H36711   6.870   2.186  10.117 -0.0387  0.9811  2.1663
  991MOL0     H36712   6.905   2.069   9.921 -0.2963  0.0994 -0.3422
  991MOL0     H36713   6.836   2.217   9.872  0.7786  2.1227  0.8666
  991MOL0     H36714   7.024   2.312   9.791 -0.1338 -0.4278 -0.4140
  991MOL0     H36715   7.141   2.203   9.865  0.9945  1.8593  0.8739
  991MOL0     H36716   7.238   2.303   9.646 -1.0955  1.0060 -0.8667
  991MOL0     H36717   7.346   2.416   9.431 -0.0953  1.1176 -2.0715
  991MOL0     H36718   7.456   2.316   9.330 -1.1153  2.4246 -0.9679
  991MOL0     H36719   7.478   2.328   9.503  0.2878  1.7697 -1.4544
  991MOL0     H36720   7.793   2.010   9.312 -0.0085  2.3790 -0.1493
  991MOL0     H36721   7.950   2.018   9.135  0.2976 -1.6494 -2.1521
  991MOL0     H36722   8.048   2.249   8.960  2.9817  0.2216 -0.4688
  991MOL0     H36723   8.082   2.082   8.974  2.7569  1.6403  0.5734
  991MOL0     H36724   8.127   2.043   8.753 -1.5017 -0.0954 -0.2222
  991MOL0     H36725   8.045   2.194   8.695  0.8819 -1.2805 -0.9033
  991MOL0     H36726   8.290   2.219   8.869  1.6223 -0.6408 -1.8964
  991MOL0     H36727   8.217   2.330   8.754 -0.4520  0.7464  2.8932
  991MOL0     H36728   8.318   2.207   8.581 -0.3662  2.2957  0.6179
  991MOL0     H36729   8.354   2.062   8.687  0.3159  0.7559  1.0557
  991MOL0     H36730   8.483   2.340   8.724 -1.4948  1.0154 -2.7285
  991MOL0     H36731   8.536   2.189   8.798  0.5251 -1.0248 -1.1493
  991MOL0     H36732   8.524   2.244   8.498  3.7445  0.1810 -2.8131
  991MOL0     H36733   8.580   2.093   8.569  1.0497  0.1005  0.0359
  991MOL0     H36734   8.774   2.190   8.639  0.9720  0.0459 -0.9981
  991MOL0     H36735   8.706   2.343   8.653 -0.9422 -0.8804  1.6621
  991MOL0     H36736   8.685   2.340   8.379 -1.1874  0.8514  0.9750
  991MOL0     H36737   8.792   2.211   8.383 -1.3028 -0.0372 -2.5428
  991MOL0     H36738   7.653   2.165   8.875 -3.4734 -3.0672  0.0788
  991MOL0     H36739   7.483   2.161   9.063  0.1019 -0.1195  0.8907
  991MOL0     H36740   7.216   1.876   9.400  1.2531 -0.6100 -0.0884
  991MOL0     H36741   7.085   1.908   9.590  2.6245 -3.4344 -3.6976
  991MOL0     H36742   5.965   2.806  10.846 -1.0879 -0.3777 -0.4218
  991MOL0     H36743   5.724   2.834  10.840  0.9789 -0.3163 -1.6303
  991MOL0     H36744   5.376   2.777  10.929 -2.1792  2.0034  3.6796
  991MOL0     H36745   5.161   2.836  11.027  1.3264 -0.1917  0.7571
  991MOL0     H36746   4.898   2.770  10.786 -1.1147  0.6887 -0.2445
  991MOL0     H36747   4.752   2.771  10.888  0.7408  0.1285  0.1572
  991MOL0     H36748   4.840   2.991  10.842 -0.1363  0.9205  0.9660
  991MOL0     H36749   4.984   2.939  10.951  0.1401  0.1531  0.5830
  991MOL0     H36750   4.687   3.003  10.984  0.1779 -0.3262 -0.0337
  991MOL0     H36751   4.746   2.903  11.111  1.3092 -0.7379  0.8460
  991MOL0     H36752   4.928   3.079  11.164 -0.8550  1.3378  1.1201
  991MOL0     H36753   4.764   3.114  11.208  2.5728  0.7575  2.8766
  991MOL0     H36754   4.903   3.397  10.921  0.0903 -1.2981 -1.2489
  991MOL0     H36755   4.998   2.482  10.850 -0.4473  1.1116 -0.8888
  991MOL0     H36756   5.297   2.307  10.770 -2.1901 -0.9252  2.1261
  991MOL0     H36757   5.118   2.325  10.726  0.0667 -2.0076  0.3334
  991MOL0     H36758   5.251   2.394  10.634 -0.9692  2.5994  1.1291
  992MOL0     O36759   7.925  11.220   3.953 -0.6041 -0.5069  0.0737
  992MOL0     C36760   7.966  11.260   3.841 -0.2378 -0.6698 -0.6390
  992MOL0     O36761   7.915  11.355   3.761  0.7004 -0.5383  0.0277
  992MOL0     C36762   7.799  11.425   3.790 -0.5102 -0.3598 -0.4122
  992MOL0     C36763   7.722  11.398   3.901 -0.4027 -0.1231 -0.4735
  992MOL0     C36764   7.602  11.466   3.917  0.3918 -0.9411  0.1677
  992MOL0     C36765   7.554  11.566   3.826  0.1484 -1.0576  0.4882
  992MOL0     O36766   7.449  11.643   3.856  0.2253 -0.3070  0.1582
  992MOL0     C36767   7.330  11.564   3.839 -0.5624  0.0660  0.3410
  992MOL0     C36768   7.220  11.643   3.909  0.8595 -0.0839 -0.3491
  992MOL0     C36769   7.093  11.566   3.923 -0.2310 -0.3475  0.1901
  992MOL0     C36770   7.003  11.629   4.035  0.3786  0.8371 -0.0296
  992MOL0     C36771   6.922  11.754   4.006  0.4979 -0.9126 -0.8364
  992MOL0     C36772   6.818  11.772   4.122 -0.3170 -0.3516  0.2231
  992MOL0     C36773   6.691  11.692   4.091  0.4722 -0.6905 -0.3953
  992MOL0     C36774   6.597  11.702   4.216 -0.3918 -0.4154  0.5332
  992MOL0     N36775   6.478  11.621   4.194 -0.2490  0.0196 -0.1055
  992MOL0     C36776   6.371  11.657   4.126 -0.7962 -0.1680 -0.1620
  992MOL0     C36777   6.280  11.567   4.156 -0.1007  1.2088  0.0182
  992MOL0     C36778   6.131  11.564   4.121  0.0802 -1.4121 -0.6509
  992MOL0     C36779   6.080  11.709   4.109 -0.7812 -0.1225  0.8982
  992MOL0     C36780   5.922  11.718   4.119 -0.3704 -0.2726 -0.0650
  992MOL0     C36781   5.858  11.640   4.000 -0.6105 -0.0825 -1.0175
  992MOL0     O36782   5.919  11.670   3.877 -0.0754 -0.5171  0.4472
  992MOL0     C36783   5.858  11.598   3.771 -0.9033  0.4615 -0.5243
  992MOL0     C36784   5.910  11.618   3.644 -1.0081  0.0437 -0.3680
  992MOL0     C36785   5.861  11.552   3.529  0.2283  0.5110 -0.5358
  992MOL0     C36786   5.907  11.589   3.393 -0.0950  0.3316  0.5596
  992MOL0     C36787   5.748  11.466   3.539 -0.9226 -0.7155  0.0446
  992MOL0     C36788   5.670  11.399   3.426 -0.1382 -0.1141  0.5386
  992MOL0     O36789   5.563  11.322   3.473 -0.5636 -0.3149  1.0735
  992MOL0     C36790   5.472  11.262   3.379 -0.0080  0.0578 -0.0619
  992MOL0     C36791   5.508  11.206   3.260 -0.9086  0.1420  1.2058
  992MOL0     C36792   5.426  11.122   3.189 -0.1928 -0.4686  0.2968
  992MOL0     C36793   5.292  11.122   3.233 -0.5353  0.2619  0.2912
  992MOL0     O36794   5.195  11.064   3.156 -0.6735 -0.4699 -0.6167
  992MOL0     C36795   5.228  10.988   3.044 -0.1703 -0.0673  1.1787
  992MOL0     C36796   5.124  10.912   2.974  0.3875 -0.4639 -0.3858
  992MOL0     C36797   5.034  11.005   2.892  0.0869 -0.8947  0.1740
  992MOL0     C36798   4.915  10.921   2.840  0.4148 -0.4151  0.6229
  992MOL0     C36799   4.818  10.993   2.744 -0.3332 -0.3971 -0.1162
  992MOL0     C36800   4.734  10.896   2.654  0.2601 -0.2267 -1.0597
  992MOL0     C36801   4.643  10.805   2.740 -0.5533  0.3801  0.3819
  992MOL0     C36802   4.526  10.745   2.671  0.9271  0.1624  0.7579
  992MOL0    Cl36803   4.390  10.714   2.764 -0.2893 -0.0427 -0.7818
  992MOL0     C36804   5.248  11.187   3.343 -0.1761  0.3646 -0.2346
  992MOL0     C36805   5.335  11.248   3.420 -0.0810  0.1069 -0.0678
  992MOL0     O36806   5.686  11.427   3.310  0.3179 -0.1671  0.0688
  992MOL0     C36807   5.702  11.436   3.676 -0.0415 -0.4256 -0.3047
  992MOL0     C36808   5.759  11.496   3.782 -0.2308 -0.9855  0.1535
  992MOL0     N36809   6.345  11.478   4.236  0.0596 -0.4386  0.4009
  992MOL0     N36810   6.465  11.502   4.251  0.2466  0.4339 -0.1743
  992MOL0     C36811   7.622  11.571   3.702 -0.3900 -0.3136  0.4088
  992MOL0     C36812   7.740  11.499   3.685  0.0029 -0.3457  0.5289
  992MOL0     C36813   8.105  11.207   3.806  0.6624 -0.4341 -0.0557
  992MOL0     C36814   8.183  11.301   3.740 -0.4950  0.4814 -0.4616
  992MOL0     C36815   8.301  11.250   3.668  0.3300  0.0485  0.6264
  992MOL0     C36816   8.350  11.126   3.686 -0.4280 -0.0470 -0.4645
  992MOL0     O36817   8.473  11.108   3.628 -0.3223  0.3559 -0.0761
  992MOL0     C36818   8.569  11.056   3.726  0.2148 -0.5474 -0.9947
  992MOL0     C36819   8.706  11.067   3.664 -0.6470 -0.6184 -0.5696
  992MOL0     C36820   8.812  11.076   3.779 -0.2218 -0.1077 -0.0832
  992MOL0     C36821   8.873  11.212   3.788 -0.1222 -0.1708 -0.1306
  992MOL0     C36822   8.968  11.205   3.896 -0.0137  0.3466 -0.2139
  992MOL0     C36823   9.046  11.200   3.991 -0.7234 -0.2552  0.7658
  992MOL0     C36824   8.280  11.035   3.768 -0.1401 -0.0146  0.0931
  992MOL0     C36825   8.152  11.068   3.818  0.1937 -0.8830  0.1952
  992MOL0     C36826   8.085  10.949   3.899  0.1934 -0.2641 -0.2415
  992MOL0     H36827   7.750  11.338   3.986  0.4177 -0.3531 -0.8962
  992MOL0     H36828   7.550  11.455   4.011  0.5159  1.3498  0.5786
  992MOL0     H36829   7.334  11.465   3.885  1.3888 -0.4685 -0.8392
  992MOL0     H36830   7.310  11.571   3.731  2.0557  2.1049 -0.1170
  992MOL0     H36831   7.250  11.678   4.008 -1.0879  3.7739 -0.9279
  992MOL0     H36832   7.197  11.728   3.845 -0.5031  0.0363  0.2821
  992MOL0     H36833   7.028  11.571   3.835 -2.4721  4.1627  1.7830
  992MOL0     H36834   7.125  11.464   3.944 -0.9868 -0.5742  0.2543
  992MOL0     H36835   6.927  11.552   4.048 -1.2702  2.1534 -1.3441
  992MOL0     H36836   7.054  11.645   4.130  1.5473 -0.0562 -0.4783
  992MOL0     H36837   6.875  11.746   3.908 -0.7448 -1.9199 -0.1888
  992MOL0     H36838   6.982  11.845   4.000 -0.9909  0.0066 -2.9332
  992MOL0     H36839   6.859  11.731   4.215  2.3408  0.4973 -0.4734
  992MOL0     H36840   6.808  11.881   4.130 -0.5137 -0.2482 -1.1462
  992MOL0     H36841   6.718  11.590   4.064  1.9039 -0.1404 -1.1468
  992MOL0     H36842   6.634  11.751   4.019 -0.7296  0.8649  1.7248
  992MOL0     H36843   6.657  11.654   4.293 -0.3634 -0.1160  0.6973
  992MOL0     H36844   6.579  11.806   4.246 -0.2552 -0.2282 -0.0204
  992MOL0     H36845   6.373  11.754   4.077  2.3007 -0.4776 -0.9076
  992MOL0     H36846   6.079  11.515   4.204  2.0487 -0.8014  1.0354
  992MOL0     H36847   6.114  11.507   4.030 -0.0633 -2.8287  0.2322
  992MOL0     H36848   6.122  11.774   4.186  0.7769 -0.5481  0.4443
  992MOL0     H36849   6.119  11.737   4.010  0.3149 -0.7297  1.1462
  992MOL0     H36850   5.880  11.671   4.209  0.1315 -0.7331 -0.0625
  992MOL0     H36851   5.880  11.817   4.099 -0.1857  0.2990  2.1447
  992MOL0     H36852   5.870  11.533   4.019  3.3571  0.0572 -1.8289
  992MOL0     H36853   5.752  11.665   4.001 -0.1536  2.4093  2.1060
  992MOL0     H36854   5.972  11.707   3.632 -3.1576  1.4947 -1.2433
  992MOL0     H36855   5.916  11.500   3.331 -0.4383  0.3042  0.5495
  992MOL0     H36856   6.005  11.635   3.410  0.7820 -2.0816  2.6084
  992MOL0     H36857   5.850  11.668   3.343  1.8789  0.1756 -2.1400
  992MOL0     H36858   5.599  11.239   3.212 -1.2350 -2.1410 -1.1807
  992MOL0     H36859   5.468  11.055   3.115  0.2341 -2.2528  2.0407
  992MOL0     H36860   5.284  11.055   2.978 -0.9539 -0.2388  0.3247
  992MOL0     H36861   5.307  10.918   3.071  0.6341 -0.1700 -1.1644
  992MOL0     H36862   5.174  10.831   2.921  2.1150 -0.9189  1.7828
  992MOL0     H36863   5.060  10.869   3.053  2.9114  0.1714  2.1640
  992MOL0     H36864   5.095  11.042   2.809 -0.9570 -0.0698 -0.2641
  992MOL0     H36865   4.985  11.096   2.929  0.5810 -0.5765  0.0607
  992MOL0     H36866   4.857  10.873   2.919 -3.1891 -0.6582 -1.9141
  992MOL0     H36867   4.954  10.835   2.785  0.1661  0.8922 -1.7671
  992MOL0     H36868   4.758  11.069   2.796  1.8267 -1.0256  3.6867
  992MOL0     H36869   4.873  11.046   2.666 -0.6885 -0.3732 -0.3530
  992MOL0     H36870   4.798  10.829   2.597  0.9444  2.8591 -4.2632
  992MOL0     H36871   4.670  10.955   2.588 -0.1212 -0.0859 -0.5758
  992MOL0     H36872   4.600  10.873   2.814 -2.9561  1.3702 -1.7649
  992MOL0     H36873   4.695  10.726   2.794  0.6110 -0.6256 -2.0271
  992MOL0     H36874   4.555  10.651   2.623 -2.1175 -1.5965  2.0820
  992MOL0     H36875   4.486  10.802   2.586 -0.5330 -4.9721 -2.4232
  992MOL0     H36876   5.144  11.207   3.370 -0.2403 -0.4851  0.1803
  992MOL0     H36877   5.316  11.292   3.517 -1.2200  2.4184 -1.2716
  992MOL0     H36878   5.623  11.363   3.694  0.9056 -1.4259 -0.1145
  992MOL0     H36879   5.716  11.470   3.878 -2.0198 -1.1910 -0.6768
  992MOL0     H36880   7.596  11.650   3.632 -3.6203 -1.1373  0.5493
  992MOL0     H36881   7.781  11.506   3.584 -3.3735 -1.4395 -1.0653
  992MOL0     H36882   8.167  11.407   3.727  0.9895  0.5819 -1.6765
  992MOL0     H36883   8.365  11.314   3.608 -0.8503  1.5887  0.9560
  992MOL0     H36884   8.580  11.128   3.808  2.5467 -2.7411  0.7625
  992MOL0     H36885   8.532  10.966   3.775 -0.6300  0.8108  0.9920
  992MOL0     H36886   8.704  11.159   3.604  0.5255 -0.9306 -1.1106
  992MOL0     H36887   8.717  10.989   3.587 -1.1760  2.1405 -3.6816
  992MOL0     H36888   8.772  11.030   3.870 -2.7693  1.9167 -0.0602
  992MOL0     H36889   8.897  11.012   3.754  1.1595  0.1180  3.3828
  992MOL0     H36890   8.794  11.288   3.795 -0.6507 -0.6156 -1.1269
  992MOL0     H36891   8.930  11.234   3.698  0.0225  2.2327  0.4685
  992MOL0     H36892   9.118  11.189   4.069 -1.5544  0.4102  1.6583
  992MOL0     H36893   8.323  10.937   3.782  1.0159  0.5179  0.4656
  992MOL0     H36894   8.097  10.867   3.829  0.9932  0.2605 -0.7293
  992MOL0     H36895   8.151  10.926   3.983 -1.4942 -0.3499  1.1154
  992MOL0     H36896   7.977  10.953   3.916  0.0699 -0.6159 -0.9060
  993MOL0     O36897   1.088   1.257   3.418  0.3502 -0.4806  0.2472
  993MOL0     C36898   0.988   1.320   3.398  0.0150 -0.2409 -0.3614
  993MOL0     O36899   0.936   1.352   3.272  0.0847 -0.4450  0.0372
  993MOL0     C36900   0.972   1.297   3.151 -0.1670 -0.4411  0.0370
  993MOL0     C36901   0.898   1.188   3.115  0.1688  0.1571 -0.0389
  993MOL0     C36902   0.924   1.110   2.997 -0.8954 -0.5947  1.1080
  993MOL0     C36903   1.051   1.133   2.933  0.3847 -0.5739  0.5120
  993MOL0     O36904   1.076   1.048   2.828 -0.2709 -0.0457 -0.0158
  993MOL0     C36905   1.218   1.020   2.810  0.2004  0.1333 -0.2855
  993MOL0     C36906   1.236   0.888   2.736 -0.4014  0.6010  0.3809
  993MOL0     C36907   1.175   0.904   2.590 -0.0853 -0.1727 -0.0689
  993MOL0     C36908   1.179   0.775   2.510  0.3928 -0.1194  0.1492
  993MOL0     C36909   1.129   0.787   2.372  0.2462 -0.0688  0.3517
  993MOL0     C36910   0.981   0.836   2.369  0.3068  0.3949 -0.5304
  993MOL0     C36911   0.912   0.836   2.231  0.1859 -0.4304 -0.7748
  993MOL0     C36912   0.884   0.690   2.183 -0.6893 -0.3050 -0.1126
  993MOL0     N36913   0.822   0.691   2.048  1.2364  0.0422  0.4800
  993MOL0     C36914   0.834   0.594   1.959  0.0878  0.2810 -0.1234
  993MOL0     C36915   0.736   0.612   1.863  0.1058  0.2411 -0.5275
  993MOL0     C36916   0.728   0.535   1.740  0.5022 -0.7441  0.3939
  993MOL0     C36917   0.584   0.511   1.703 -0.7357  0.7221 -0.6053
  993MOL0     C36918   0.571   0.412   1.581  0.0192 -0.0476  0.3148
  993MOL0     C36919   0.414   0.413   1.552 -0.1946 -0.7808 -0.4376
  993MOL0     O36920   0.359   0.282   1.606 -0.7855 -0.0443  0.1479
  993MOL0     C36921   0.230   0.288   1.636  0.1863  0.1634 -1.1925
  993MOL0     C36922   0.135   0.365   1.569 -0.7976  0.4195 -0.7980
  993MOL0     C36923   0.010   0.377   1.628 -0.2284  0.0881  0.0585
  993MOL0     C36924  -0.076   0.471   1.553  0.5850  0.4707 -0.4211
  993MOL0     C36925  -0.029   0.319   1.750  0.7889  0.4517  0.2095
  993MOL0     C36926  -0.160   0.326   1.823 -0.1473  0.3915  0.0298
  993MOL0     O36927  -0.161   0.287   1.955 -0.1788 -0.2915 -0.5189
  993MOL0     C36928  -0.270   0.311   2.030  0.4145 -0.2936 -0.3152
  993MOL0     C36929  -0.315   0.443   2.059 -0.8758 -0.7730  0.4988
  993MOL0     C36930  -0.413   0.459   2.147  0.0816  0.1197 -1.3565
  993MOL0     C36931  -0.503   0.358   2.193  0.3130 -0.5822  0.1161
  993MOL0     O36932  -0.606   0.399   2.273 -0.6325  0.3282  0.0998
  993MOL0     C36933  -0.666   0.300   2.359 -0.1381 -0.7873  0.4052
  993MOL0     C36934  -0.770   0.379   2.438  0.6725 -0.1723  0.6125
  993MOL0     C36935  -0.710   0.484   2.531  1.6650  0.1668 -0.4445
  993MOL0     C36936  -0.825   0.541   2.620  0.1504 -0.2623 -0.4905
  993MOL0     C36937  -0.746   0.612   2.728  0.0551 -0.8136 -0.4275
  993MOL0     C36938  -0.707   0.760   2.679 -0.0137 -0.8705 -0.4556
  993MOL0     C36939  -0.664   0.863   2.784 -0.4609  0.2523 -0.1610
  993MOL0     C36940  -0.651   1.005   2.726  0.6972  0.5511  0.4394
  993MOL0    Cl36941  -0.669   1.104   2.875 -0.1843 -0.6543 -0.6463
  993MOL0     C36942  -0.461   0.225   2.164 -0.5372 -0.3740 -0.5650
  993MOL0     C36943  -0.340   0.206   2.093  0.4314  0.0529 -1.5302
  993MOL0     O36944  -0.258   0.348   1.759 -0.0157 -0.3156 -0.6745
  993MOL0     C36945   0.072   0.254   1.816  0.3871  1.1498  0.1332
  993MOL0     C36946   0.195   0.220   1.757 -0.4483 -0.4153 -0.0939
  993MOL0     N36947   0.667   0.714   1.896 -0.2805 -0.3426  0.4601
  993MOL0     N36948   0.715   0.764   2.005 -0.6461  0.5041  0.0121
  993MOL0     C36949   1.132   1.236   2.975  0.5906  0.4660  0.1238
  993MOL0     C36950   1.088   1.324   3.069  0.0469  0.0474 -0.3921
  993MOL0     C36951   0.909   1.358   3.521 -0.1096 -0.1738  0.3908
  993MOL0     C36952   0.969   1.363   3.648 -0.9896  0.3104  0.8432
  993MOL0     C36953   0.894   1.395   3.757  0.2888  0.1687 -0.5678
  993MOL0     C36954   0.756   1.422   3.747  0.6014 -0.3898 -0.3270
  993MOL0     O36955   0.667   1.449   3.845 -0.1284 -0.7967  0.2370
  993MOL0     C36956   0.687   1.384   3.973  0.6892  0.6485  0.7447
  993MOL0     C36957   0.732   1.465   4.087 -0.4235  0.1570  0.0267
  993MOL0     C36958   0.653   1.586   4.133  0.2969  0.1986 -0.1221
  993MOL0     C36959   0.511   1.554   4.166 -0.1239 -0.8449  0.7296
  993MOL0     C36960   0.485   1.446   4.266 -0.0504 -0.6824  0.2471
  993MOL0     C36961   0.452   1.352   4.334 -0.1845 -0.0096  0.2967
  993MOL0     C36962   0.708   1.418   3.618 -0.0873 -0.0050  0.0067
  993MOL0     C36963   0.776   1.379   3.506  0.4317 -0.1812 -0.3694
  993MOL0     C36964   0.694   1.349   3.393 -0.3297 -0.0840 -0.9265
  993MOL0     H36965   0.802   1.175   3.164  0.2122  2.2747  0.6728
  993MOL0     H36966   0.852   1.048   2.943 -0.3148  1.8964 -2.9209
  993MOL0     H36967   1.273   1.007   2.904 -1.2164 -3.4427  0.2022
  993MOL0     H36968   1.265   1.100   2.752  2.5899 -1.7252 -1.0993
  993MOL0     H36969   1.338   0.850   2.732 -0.7477 -0.2969 -0.1116
  993MOL0     H36970   1.187   0.805   2.787  0.1173 -0.3469 -0.6294
  993MOL0     H36971   1.068   0.917   2.609 -0.3513 -1.4644 -0.5847
  993MOL0     H36972   1.214   0.985   2.528 -0.6113  0.6455  0.6411
  993MOL0     H36973   1.282   0.738   2.505  0.7147  0.7136  0.3351
  993MOL0     H36974   1.128   0.697   2.567 -0.2486  0.5158  0.4611
  993MOL0     H36975   1.137   0.687   2.327  2.6936 -0.1212  0.8024
  993MOL0     H36976   1.193   0.854   2.315  1.8717 -0.6618  1.4227
  993MOL0     H36977   0.915   0.787   2.441 -0.4373  0.7116 -0.9813
  993MOL0     H36978   0.983   0.939   2.407  0.5127  0.5265 -0.8964
  993MOL0     H36979   0.980   0.899   2.172  1.9082 -0.4910  1.0279
  993MOL0     H36980   0.818   0.891   2.233 -0.4137 -1.3043 -2.6342
  993MOL0     H36981   0.979   0.634   2.182 -1.8592 -2.3967 -0.8731
  993MOL0     H36982   0.817   0.645   2.257  0.1354  1.3007  1.6941
  993MOL0     H36983   0.903   0.510   1.970 -0.4293 -0.0497  0.6857
  993MOL0     H36984   0.776   0.438   1.755 -0.3463 -1.3587 -0.6315
  993MOL0     H36985   0.776   0.591   1.660  2.0783 -1.7926  0.5693
  993MOL0     H36986   0.530   0.469   1.789 -1.2682  2.6016  0.0339
  993MOL0     H36987   0.531   0.602   1.675 -0.5935  2.0122  2.8552
  993MOL0     H36988   0.620   0.446   1.489 -0.4080 -3.6079 -1.4335
  993MOL0     H36989   0.623   0.316   1.594 -1.7048 -1.1109 -0.2051
  993MOL0     H36990   0.365   0.494   1.606 -2.0732 -2.1199 -0.0245
  993MOL0     H36991   0.398   0.423   1.444 -0.9749  2.1008 -0.1294
  993MOL0     H36992   0.159   0.410   1.474 -0.2320  0.3883 -0.6744
  993MOL0     H36993  -0.167   0.421   1.517  0.7922 -0.3479  0.1486
  993MOL0     H36994  -0.032   0.542   1.483 -1.2714  1.0438 -1.0539
  993MOL0     H36995  -0.121   0.537   1.627  2.0574  3.5732 -2.0843
  993MOL0     H36996  -0.258   0.522   2.011 -0.7273 -2.3715 -2.1760
  993MOL0     H36997  -0.440   0.559   2.180  0.9628  0.4299 -1.5365
  993MOL0     H36998  -0.717   0.229   2.294  1.2084 -0.9543 -0.5105
  993MOL0     H36999  -0.586   0.255   2.418  2.4013 -0.9978 -2.8834
  993MOL0     H37000  -0.840   0.434   2.374 -1.0266  0.1942  2.6662
  993MOL0     H37001  -0.839   0.310   2.489 -0.9154  0.7103 -0.2652
  993MOL0     H37002  -0.667   0.562   2.468  1.9698  1.2405  1.0247
  993MOL0     H37003  -0.630   0.439   2.592  1.2489  1.5609  1.2191
  993MOL0     H37004  -0.892   0.472   2.673  0.2829  0.1572  0.2326
  993MOL0     H37005  -0.893   0.610   2.569  1.0470  2.8085  2.1275
  993MOL0     H37006  -0.825   0.627   2.802 -0.3248 -3.1753 -0.2752
  993MOL0     H37007  -0.665   0.556   2.777 -1.6425 -1.4405  1.8373
  993MOL0     H37008  -0.788   0.802   2.618  1.1774  0.2608 -1.3119
  993MOL0     H37009  -0.614   0.747   2.622 -0.7931 -0.8932 -1.7789
  993MOL0     H37010  -0.571   0.828   2.829 -0.1452 -1.8296 -2.2476
  993MOL0     H37011  -0.743   0.856   2.859  0.5769  0.2962  0.9753
  993MOL0     H37012  -0.726   1.016   2.646  1.5774 -1.5062 -0.7512
  993MOL0     H37013  -0.558   1.014   2.670  0.5290  2.1132  0.3638
  993MOL0     H37014  -0.508   0.137   2.208  0.4785  0.5777  2.7325
  993MOL0     H37015  -0.309   0.105   2.071 -0.2400 -0.6727  0.6105
  993MOL0     H37016   0.066   0.213   1.916  0.9345  0.5222 -0.0770
  993MOL0     H37017   0.270   0.160   1.809 -0.7376 -0.5526  0.1689
  993MOL0     H37018   1.225   1.250   2.920  1.5820 -6.6593 -1.0132
  993MOL0     H37019   1.156   1.402   3.102  0.7509 -0.9751  0.6209
  993MOL0     H37020   1.077   1.360   3.641 -1.0778 -1.8903 -0.7597
  993MOL0     H37021   0.943   1.376   3.851  0.5412 -0.1316 -0.7585
  993MOL0     H37022   0.607   1.323   4.016  0.3471  1.6644  1.6007
  993MOL0     H37023   0.764   1.307   3.960  1.1712  0.7539  2.6830
  993MOL0     H37024   0.832   1.501   4.062 -0.6710 -2.0632 -5.7295
  993MOL0     H37025   0.753   1.396   4.170 -0.5789  0.1068  0.0259
  993MOL0     H37026   0.701   1.624   4.224  0.3861  1.9062 -0.8524
  993MOL0     H37027   0.662   1.662   4.055  1.6644 -1.3396 -1.5267
  993MOL0     H37028   0.462   1.517   4.075  0.2250 -1.5540  0.8218
  993MOL0     H37029   0.463   1.645   4.204  1.6794  1.6222 -2.3894
  993MOL0     H37030   0.425   1.278   4.407 -1.3568  1.5505  1.5230
  993MOL0     H37031   0.605   1.451   3.607  0.3879  3.5567  3.7046
  993MOL0     H37032   0.731   1.259   3.343 -1.4790 -1.1345  0.0181
  993MOL0     H37033   0.588   1.331   3.415 -0.0658 -0.9826 -0.3337
  993MOL0     H37034   0.694   1.428   3.317  0.3714  0.5939 -0.2345
  994MOL0     O37035   2.755  11.464   6.604  0.0499 -0.7988  1.4024
  994MOL0     C37036   2.757  11.513   6.488  0.5103  0.0787 -0.0761
  994MOL0     O37037   2.658  11.486   6.396 -0.1428  0.7183 -0.1712
  994MOL0     C37038   2.549  11.395   6.425 -1.2585 -0.0900 -0.2638
  994MOL0     C37039   2.545  11.290   6.341  0.3078  0.3655 -0.1559
  994MOL0     C37040   2.439  11.193   6.354  0.1495  0.3759 -0.0626
  994MOL0     C37041   2.365  11.202   6.470  0.7141 -0.4596 -0.3390
  994MOL0     O37042   2.288  11.097   6.505  0.2784  0.1845 -0.1566
  994MOL0     C37043   2.173  11.070   6.426 -0.2151 -0.7469 -0.0128
  994MOL0     C37044   2.195  10.938   6.349 -0.2241  0.4875 -0.4141
  994MOL0     C37045   2.092  10.913   6.235  0.7975 -0.1194  0.3039
  994MOL0     C37046   1.936  10.899   6.279  0.1195  0.7477 -0.7130
  994MOL0     C37047   1.849  10.824   6.168 -0.4909  0.4950  0.9360
  994MOL0     C37048   1.876  10.669   6.159 -0.0709 -0.1086 -0.2016
  994MOL0     C37049   1.950  10.630   6.034  0.0127 -0.2792  0.3337
  994MOL0     C37050   1.859  10.631   5.911  0.4275  0.1141 -0.0381
  994MOL0     N37051   1.756  10.522   5.901 -0.1243  0.5898  0.7900
  994MOL0     C37052   1.682  10.493   5.790 -0.9142  0.9022  0.4267
  994MOL0     C37053   1.598  10.394   5.831  0.0509  0.7981  0.2180
  994MOL0     C37054   1.487  10.317   5.765 -0.7419 -0.3454  0.7133
  994MOL0     C37055   1.338  10.348   5.815 -1.0696 -0.0915 -0.1813
  994MOL0     C37056   1.227  10.288   5.728 -0.7045 -0.3082 -1.3732
  994MOL0     C37057   1.088  10.279   5.793  0.0294  0.0921  0.0597
  994MOL0     O37058   1.088  10.174   5.888  0.0058  0.1853 -0.7145
  994MOL0     C37059   0.979  10.131   5.958  0.6273  0.5634 -0.0714
  994MOL0     C37060   0.855  10.149   5.900  0.9257  0.2944  0.4263
  994MOL0     C37061   0.733  10.122   5.974 -1.1167  0.4519  0.9116
  994MOL0     C37062   0.607  10.144   5.894 -0.3402  0.2473  0.0206
  994MOL0     C37063   0.740  10.073   6.109  0.0955  0.1774  1.1116
  994MOL0     C37064   0.616  10.060   6.187  0.0304 -0.3498  0.1004
  994MOL0     O37065   0.530  10.160   6.183 -0.8097  1.5881 -0.1027
  994MOL0     C37066   0.418  10.163   6.265  0.3835  0.6175  0.1381
  994MOL0     C37067   0.299  10.096   6.234 -1.1922  0.6929 -0.7215
  994MOL0     C37068   0.185  10.107   6.320  1.2585  1.0222 -0.0180
  994MOL0     C37069   0.181  10.180   6.439  0.0523 -1.0115 -0.2108
  994MOL0     O37070   0.081  10.200   6.528  0.1578  0.1850  0.0732
  994MOL0     C37071  -0.010  10.087   6.540 -0.2454 -0.5787 -0.4171
  994MOL0     C37072  -0.162  10.133   6.537  0.4696 -0.1964  0.3776
  994MOL0     C37073  -0.194  10.260   6.617 -0.5916 -0.0690 -0.3340
  994MOL0     C37074  -0.334  10.288   6.651 -0.5140  0.8425  0.4027
  994MOL0     C37075  -0.401  10.189   6.737  0.2078 -0.6701 -0.1880
  994MOL0     C37076  -0.525  10.243   6.807  0.2651 -0.3492 -0.7496
  994MOL0     C37077  -0.575  10.134   6.899  0.8967 -0.1264  0.0599
  994MOL0     C37078  -0.722  10.161   6.938  0.8485 -0.3121 -0.0501
  994MOL0    Cl37079  -0.738  10.302   7.043  0.1916  0.3400  0.0450
  994MOL0     C37080   0.304  10.250   6.465 -0.4205 -0.0165  0.1887
  994MOL0     C37081   0.412  10.244   6.382 -0.8043 -0.0253 -0.3125
  994MOL0     O37082   0.615   9.973   6.271  0.0367 -0.2316  0.8895
  994MOL0     C37083   0.869  10.042   6.165 -0.5183 -0.7677  0.8072
  994MOL0     C37084   0.983  10.077   6.085  0.5267  0.7530 -0.4088
  994MOL0     N37085   1.643  10.351   5.961 -0.5969  0.1349  0.5443
  994MOL0     N37086   1.737  10.426   5.995 -0.2644 -0.4474  0.4043
  994MOL0     C37087   2.366  11.316   6.557 -0.2575 -0.1464 -1.1259
  994MOL0     C37088   2.465  11.407   6.530 -0.4076  0.6625 -0.3970
  994MOL0     C37089   2.850  11.619   6.475 -0.2026 -0.8622  0.3187
  994MOL0     C37090   2.988  11.608   6.433 -0.4721 -0.3349 -0.0402
  994MOL0     C37091   3.079  11.712   6.426  0.8295 -1.0570  0.1054
  994MOL0     C37092   3.027  11.839   6.464  0.2286 -0.6858 -0.5356
  994MOL0     O37093   3.102  11.953   6.452 -0.4217 -0.4172  0.0384
  994MOL0     C37094   3.236  11.954   6.504 -0.0517 -0.2860 -0.9371
  994MOL0     C37095   3.310  12.085   6.466  0.5014 -0.1402 -0.4028
  994MOL0     C37096   3.261  12.207   6.534  0.1635 -0.2641 -0.6482
  994MOL0     C37097   3.249  12.201   6.693 -0.4310 -0.5472 -0.6515
  994MOL0     C37098   3.369  12.169   6.778  0.0614 -0.5949 -0.6858
  994MOL0     C37099   3.468  12.140   6.847 -0.1945 -0.7455 -0.2253
  994MOL0     C37100   2.892  11.855   6.504  0.2053 -0.5995 -0.0003
  994MOL0     C37101   2.799  11.749   6.505 -0.4309  0.4063  0.6345
  994MOL0     C37102   2.659  11.777   6.536 -0.1022 -0.1517 -0.4108
  994MOL0     H37103   2.612  11.292   6.255 -1.1960 -1.8840 -1.4741
  994MOL0     H37104   2.433  11.101   6.298  0.3477  0.5533 -0.3765
  994MOL0     H37105   2.147  11.148   6.353 -4.0589 -1.6840  0.1016
  994MOL0     H37106   2.085  11.058   6.490 -1.0072  2.0459 -0.4078
  994MOL0     H37107   2.297  10.938   6.309  0.1214  2.5406  0.3242
  994MOL0     H37108   2.178  10.849   6.410 -1.7483  1.9638  1.4519
  994MOL0     H37109   2.094  10.999   6.167  0.3075  0.4516  0.9896
  994MOL0     H37110   2.123  10.823   6.183  0.7930  1.4361 -2.5709
  994MOL0     H37111   1.927  10.841   6.372  0.5674  1.3046 -0.3141
  994MOL0     H37112   1.897  10.997   6.307 -1.1286 -0.2656  1.3064
  994MOL0     H37113   1.863  10.863   6.067  2.0524  1.9019  1.7473
  994MOL0     H37114   1.747  10.839   6.203 -0.4428  0.4404  1.1012
  994MOL0     H37115   1.942  10.646   6.244  0.0444 -0.9464 -0.5053
  994MOL0     H37116   1.783  10.613   6.170  0.0162  0.0071  1.3072
  994MOL0     H37117   1.991  10.529   6.052  3.2239  0.6275 -1.0899
  994MOL0     H37118   2.027  10.707   6.028 -0.1794  0.0784  1.9536
  994MOL0     H37119   1.804  10.724   5.902 -1.4568 -0.9930 -0.4481
  994MOL0     H37120   1.930  10.635   5.828  0.4927 -2.6480 -0.2184
  994MOL0     H37121   1.677  10.552   5.699  3.8259  2.5479  0.9578
  994MOL0     H37122   1.527  10.217   5.783  4.6816  1.6860  1.7596
  994MOL0     H37123   1.490  10.330   5.656 -2.0503  3.0989  0.9494
  994MOL0     H37124   1.324  10.305   5.915  0.3275 -2.1530 -0.8059
  994MOL0     H37125   1.325  10.457   5.820  1.2245  0.1883  1.5178
  994MOL0     H37126   1.230  10.353   5.641  1.5693 -1.3498 -2.1540
  994MOL0     H37127   1.255  10.192   5.684  0.2762 -0.2765 -0.8597
  994MOL0     H37128   1.074  10.379   5.835 -0.3724 -0.2583  0.7933
  994MOL0     H37129   1.016  10.266   5.711  1.1005 -2.3392 -0.5632
  994MOL0     H37130   0.848  10.197   5.803 -2.3432  0.6352  0.7152
  994MOL0     H37131   0.529  10.090   5.948  0.1467  1.4215  1.9762
  994MOL0     H37132   0.610  10.099   5.794 -0.3363 -0.6657  0.4198
  994MOL0     H37133   0.582  10.250   5.904  1.1971  0.4311  3.0261
  994MOL0     H37134   0.307  10.018   6.159 -0.7791 -0.5587  0.5754
  994MOL0     H37135   0.103  10.052   6.278 -0.3112  2.2424  1.3084
  994MOL0     H37136   0.001  10.020   6.454  1.0431 -1.8796  0.7154
  994MOL0     H37137   0.004  10.035   6.635 -1.4013  0.7095  0.4804
  994MOL0     H37138  -0.200  10.164   6.439 -0.8494  0.9192  1.2124
  994MOL0     H37139  -0.221  10.051   6.577  0.6542  0.3122  1.7600
  994MOL0     H37140  -0.141  10.341   6.566  1.1026 -1.9336 -1.6960
  994MOL0     H37141  -0.132  10.258   6.706  2.6705  2.5545 -2.2946
  994MOL0     H37142  -0.395  10.303   6.562  0.2080  0.9355 -0.0881
  994MOL0     H37143  -0.323  10.380   6.710  3.4472  0.1127  1.1479
  994MOL0     H37144  -0.438  10.105   6.677 -4.5591  2.4041 -2.1921
  994MOL0     H37145  -0.337  10.139   6.811 -3.0842 -3.6122  0.9849
  994MOL0     H37146  -0.604  10.245   6.732 -0.8725 -2.2219  0.3406
  994MOL0     H37147  -0.523  10.344   6.848 -2.4719 -0.5123 -0.0836
  994MOL0     H37148  -0.509  10.135   6.986  0.7197  0.3590  0.1904
  994MOL0     H37149  -0.560  10.038   6.848 -3.7411 -1.0298 -0.0484
  994MOL0     H37150  -0.745  10.074   6.999  0.1325  1.0990  1.7741
  994MOL0     H37151  -0.781  10.170   6.846  0.6540  0.7039  0.1592
  994MOL0     H37152   0.321  10.297   6.561  0.9498 -1.4021  0.6630
  994MOL0     H37153   0.502  10.304   6.395  0.8827 -2.8510  2.3413
  994MOL0     H37154   0.872  10.010   6.269  2.8186  5.9331  3.3989
  994MOL0     H37155   1.079  10.057   6.130 -0.2104  1.5552  1.6376
  994MOL0     H37156   2.297  11.331   6.640  1.0282  1.1373 -0.2403
  994MOL0     H37157   2.484  11.494   6.593 -0.3134  0.0315  0.4635
  994MOL0     H37158   3.029  11.513   6.401 -0.1074 -0.6343  1.2425
  994MOL0     H37159   3.182  11.701   6.394  1.0895 -0.4621  0.7269
  994MOL0     H37160   3.230  11.932   6.611  1.1434  0.8819 -0.5959
  994MOL0     H37161   3.306  11.879   6.467  2.0377  1.8519 -1.5349
  994MOL0     H37162   3.304  12.116   6.362  1.1091  3.6922  0.5529
  994MOL0     H37163   3.413  12.066   6.498  1.2219 -3.6481 -4.0432
  994MOL0     H37164   3.337  12.286   6.523  1.2941 -1.1137  0.6706
  994MOL0     H37165   3.164  12.238   6.496 -0.9523 -1.4378  1.1231
  994MOL0     H37166   3.175  12.128   6.727  1.6590 -1.8206  1.4778
  994MOL0     H37167   3.207  12.291   6.739 -1.4430 -2.7353  3.2111
  994MOL0     H37168   3.533  12.110   6.926  1.3369  1.6962 -0.4580
  994MOL0     H37169   2.850  11.954   6.514  0.4667 -0.4905  0.0401
  994MOL0     H37170   2.592  11.740   6.458 -0.7165 -1.9413  0.8965
  994MOL0     H37171   2.626  11.736   6.632  1.4162 -2.1806 -0.6873
  994MOL0     H37172   2.646  11.885   6.553  2.0612  0.4959 -2.4185
  995MOL0     O37173   3.110   9.248   9.766  0.3956  0.3616  0.7565
  995MOL0     C37174   3.173   9.195   9.675  0.1151 -0.8580 -0.0716
  995MOL0     O37175   3.289   9.122   9.691  0.6672 -0.7357  0.2713
  995MOL0     C37176   3.323   9.064   9.807 -0.5072 -0.2832  0.0031
  995MOL0     C37177   3.454   9.075   9.857  0.4773 -0.2924  0.2582
  995MOL0     C37178   3.473   9.011   9.983 -0.4182 -0.5902  0.2252
  995MOL0     C37179   3.386   8.940  10.065  0.4154 -1.1047  0.2426
  995MOL0     O37180   3.432   8.887  10.183 -0.5163  0.4959  0.2223
  995MOL0     C37181   3.365   8.781  10.244  1.2686  0.6194  0.5525
  995MOL0     C37182   3.456   8.712  10.348  0.1503 -0.9199  0.5807
  995MOL0     C37183   3.569   8.790  10.413  0.3733  0.5905  0.1321
  995MOL0     C37184   3.640   8.694  10.506  0.2504  0.8588  0.3102
  995MOL0     C37185   3.774   8.741  10.554  0.6671  0.4648  0.4977
  995MOL0     C37186   3.901   8.709  10.468  0.0535  0.3224 -1.1024
  995MOL0     C37187   4.025   8.787  10.523 -0.7632 -0.0541  0.3742
  995MOL0     C37188   4.149   8.736  10.447 -0.6950 -0.0611 -0.0595
  995MOL0     N37189   4.191   8.596  10.498 -0.2786  1.2001  0.7835
  995MOL0     C37190   4.262   8.552  10.604 -0.2854 -0.2111 -0.2801
  995MOL0     C37191   4.270   8.417  10.603  0.6000  0.2389 -0.2174
  995MOL0     C37192   4.353   8.343  10.704  0.0595  0.5688  0.6713
  995MOL0     C37193   4.299   8.201  10.715  0.2275 -0.0285  0.8401
  995MOL0     C37194   4.354   8.122  10.832  0.0884 -0.2343  0.3140
  995MOL0     C37195   4.459   8.024  10.793  0.0008  0.6289  0.0773
  995MOL0     O37196   4.522   7.963  10.915 -0.1332 -0.4116 -0.5197
  995MOL0     C37197   4.445   7.896  11.000  1.1575  0.1459  0.4241
  995MOL0     C37198   4.389   7.774  10.969 -0.0850  0.0707  0.6271
  995MOL0     C37199   4.308   7.702  11.062 -0.8447 -0.4485 -0.4125
  995MOL0     C37200   4.292   7.558  11.039 -0.7293 -0.0934 -0.3928
  995MOL0     C37201   4.263   7.766  11.180  0.6307  0.0830 -0.3870
  995MOL0     C37202   4.169   7.699  11.284  0.1683 -0.6869  0.7865
  995MOL0     O37203   4.163   7.746  11.405 -0.1411 -0.5039  0.0905
  995MOL0     C37204   4.117   7.665  11.506  0.0078 -0.6200  0.2314
  995MOL0     C37205   3.989   7.603  11.517 -0.9994  0.2471  0.9830
  995MOL0     C37206   3.957   7.498  11.603  0.2566 -0.0572  0.1916
  995MOL0     C37207   4.065   7.449  11.690 -0.3393 -0.8275 -0.6245
  995MOL0     O37208   4.072   7.331  11.757 -0.2924  0.3762 -0.4113
  995MOL0     C37209   3.950   7.250  11.740  0.1338 -0.5154 -0.6165
  995MOL0     C37210   4.003   7.123  11.819  0.4852  0.0835 -0.2043
  995MOL0     C37211   4.032   7.156  11.974  0.4860  0.0992 -0.0336
  995MOL0     C37212   3.998   7.040  12.073 -0.5292  0.2966  0.2395
  995MOL0     C37213   4.123   6.968  12.121 -0.4743  0.1266  0.1253
  995MOL0     C37214   4.086   6.828  12.178  0.2490 -0.4138  0.3459
  995MOL0     C37215   4.054   6.731  12.057 -0.1091  0.0863 -0.2273
  995MOL0     C37216   4.088   6.584  12.087  0.0399 -0.5011 -0.5627
  995MOL0    Cl37217   3.969   6.506  12.199  0.5063  0.2443 -0.2035
  995MOL0     C37218   4.185   7.521  11.694 -1.0290 -0.1345  0.4848
  995MOL0     C37219   4.205   7.634  11.611  0.0662 -0.2549  0.5818
  995MOL0     O37220   4.103   7.606  11.239  0.5564  0.5150  0.1060
  995MOL0     C37221   4.316   7.892  11.205  0.4063  0.5224 -0.2874
  995MOL0     C37222   4.406   7.959  11.114 -0.3131  0.0821 -0.1340
  995MOL0     N37223   4.192   8.375  10.499 -0.0195  0.0734  0.2747
  995MOL0     N37224   4.150   8.478  10.428  0.2525 -0.3609 -0.1293
  995MOL0     C37225   3.253   8.946  10.018 -0.0180 -0.7256 -0.0100
  995MOL0     C37226   3.230   8.995   9.888  0.4189  0.7268  0.1891
  995MOL0     C37227   3.153   9.247   9.537 -0.8658  0.5351 -0.0291
  995MOL0     C37228   3.268   9.274   9.460  0.5609  0.5838  0.7947
  995MOL0     C37229   3.256   9.296   9.328 -0.1256  0.4025 -0.6833
  995MOL0     C37230   3.136   9.313   9.265  0.8285 -0.2640  0.0008
  995MOL0     O37231   3.144   9.309   9.123 -1.0083 -0.2826  0.8967
  995MOL0     C37232   3.024   9.342   9.050 -0.5597  0.0086 -0.2422
  995MOL0     C37233   3.053   9.419   8.917 -0.9199  1.1422 -0.1875
  995MOL0     C37234   3.160   9.338   8.835  0.2516  0.0033 -0.0608
  995MOL0     C37235   3.221   9.415   8.722  0.9286 -1.0030  0.3746
  995MOL0     C37236   3.117   9.435   8.614  0.7647 -0.3423 -0.3838
  995MOL0     C37237   3.039   9.441   8.523  0.1982  0.5255 -0.6026
  995MOL0     C37238   3.018   9.285   9.336 -0.5552 -0.0802  0.6246
  995MOL0     C37239   3.024   9.250   9.473 -0.8658 -0.2793  0.4770
  995MOL0     C37240   2.900   9.217   9.547 -0.1956  0.2450  0.3983
  995MOL0     H37241   3.537   9.131   9.816  0.0880  0.8956  1.0442
  995MOL0     H37242   3.571   9.020  10.028 -0.1574 -0.9405 -0.2682
  995MOL0     H37243   3.336   8.716  10.161  2.0724  0.3548  0.4711
  995MOL0     H37244   3.266   8.800  10.285  0.6694 -1.8385  0.3661
  995MOL0     H37245   3.399   8.656  10.422 -2.2641 -0.4552 -0.8344
  995MOL0     H37246   3.506   8.642  10.280  2.3572  2.2851 -1.3742
  995MOL0     H37247   3.634   8.843  10.342 -1.2815 -1.1426 -2.9066
  995MOL0     H37248   3.515   8.858  10.480 -0.6714  0.8174 -0.9048
  995MOL0     H37249   3.583   8.669  10.596  3.1675  0.2018  2.1437
  995MOL0     H37250   3.655   8.595  10.462  3.6517  1.7310 -0.8347
  995MOL0     H37251   3.793   8.711  10.657  0.1143 -0.1480  0.4262
  995MOL0     H37252   3.758   8.849  10.558 -1.3087  0.2520 -0.1822
  995MOL0     H37253   3.912   8.600  10.476  0.2051  0.2796 -1.8464
  995MOL0     H37254   3.897   8.736  10.362  0.7583  0.7799 -1.0183
  995MOL0     H37255   4.040   8.757  10.627  2.7745 -1.3873 -0.3758
  995MOL0     H37256   4.003   8.893  10.506  2.3061  0.5811 -0.1867
  995MOL0     H37257   4.135   8.745  10.339 -1.8378  0.7211  0.1443
  995MOL0     H37258   4.237   8.800  10.462 -0.5883  0.7654 -3.3890
  995MOL0     H37259   4.301   8.622  10.677 -1.5002 -1.3340  1.5435
  995MOL0     H37260   4.345   8.394  10.800 -1.2441 -2.7636  2.4905
  995MOL0     H37261   4.459   8.344  10.680  0.0125  4.7272 -0.1667
  995MOL0     H37262   4.190   8.205  10.723  0.0184  1.7527 -1.7802
  995MOL0     H37263   4.321   8.143  10.625 -0.4644  0.5092  0.3175
  995MOL0     H37264   4.394   8.196  10.903 -3.3422  0.8225  1.3305
  995MOL0     H37265   4.271   8.081  10.890  0.5411 -0.5598  0.7434
  995MOL0     H37266   4.415   7.957  10.718  1.7123  0.3183 -0.6841
  995MOL0     H37267   4.542   8.070  10.738 -0.4122 -0.1799 -1.2908
  995MOL0     H37268   4.424   7.730  10.876 -0.6669  0.5358  0.1742
  995MOL0     H37269   4.303   7.504  11.133 -2.2631 -1.9678 -1.2189
  995MOL0     H37270   4.366   7.534  10.962  1.0661  1.3364  0.7974
  995MOL0     H37271   4.191   7.543  11.001 -0.6995 -1.1454 -0.0663
  995MOL0     H37272   3.924   7.643  11.440 -0.0990  1.7921  0.9821
  995MOL0     H37273   3.858   7.455  11.607  0.1802  0.1652  1.0633
  995MOL0     H37274   3.864   7.297  11.790  1.4164  0.0231  1.1799
  995MOL0     H37275   3.926   7.217  11.639  0.7966  0.1361 -0.9919
  995MOL0     H37276   3.931   7.043  11.799 -1.9285  1.9858  0.3913
  995MOL0     H37277   4.101   7.101  11.774  0.9786  0.7211  0.5321
  995MOL0     H37278   3.957   7.232  12.001 -0.4137 -0.9378  0.4495
  995MOL0     H37279   4.133   7.194  11.993  0.1264 -0.4646  3.7604
  995MOL0     H37280   3.929   6.974  12.019 -2.9166  1.1838  2.0550
  995MOL0     H37281   3.950   7.074  12.165  2.4738  2.1746  1.2640
  995MOL0     H37282   4.201   6.952  12.046 -0.7908  4.6801 -1.4964
  995MOL0     H37283   4.164   7.034  12.198 -1.3719 -0.9439  1.5794
  995MOL0     H37284   4.013   6.847  12.257  1.8230 -1.1113  2.0516
  995MOL0     H37285   4.179   6.791  12.223  1.8418  4.4430  1.6388
  995MOL0     H37286   4.108   6.767  11.969 -0.3651 -3.5019 -2.0168
  995MOL0     H37287   3.948   6.743  12.034  0.1900 -1.1762 -2.5043
  995MOL0     H37288   4.181   6.581  12.143  1.8251  1.6115 -3.1487
  995MOL0     H37289   4.091   6.521  11.998 -2.0850 -0.7551 -0.5238
  995MOL0     H37290   4.256   7.491  11.769  0.9920  1.0586 -0.8577
  995MOL0     H37291   4.297   7.691  11.621  0.8167 -0.9055 -1.9481
  995MOL0     H37292   4.295   7.941  11.300  1.8605  0.3500  0.1424
  995MOL0     H37293   4.434   8.060  11.140 -0.3988 -0.3782  1.8855
  995MOL0     H37294   3.178   8.905  10.085 -1.9383  0.4124 -1.3333
  995MOL0     H37295   3.129   8.978   9.852  0.4517  0.2681  0.3129
  995MOL0     H37296   3.363   9.284   9.510  0.1736  2.2692  1.2534
  995MOL0     H37297   3.350   9.309   9.275  0.9463  0.8899  1.2154
  995MOL0     H37298   2.974   9.249   9.022  1.8766 -0.6303 -2.9989
  995MOL0     H37299   2.958   9.402   9.113 -1.7518 -2.2417  0.7586
  995MOL0     H37300   3.107   9.509   8.947  0.3317  0.7715 -1.1936
  995MOL0     H37301   2.965   9.448   8.860 -0.4905  0.8159 -1.0347
  995MOL0     H37302   3.236   9.303   8.905  0.3687  0.0163 -0.1793
  995MOL0     H37303   3.111   9.249   8.796  1.0309  0.4426 -2.1923
  995MOL0     H37304   3.309   9.366   8.679  3.0024  1.8322  1.0649
  995MOL0     H37305   3.239   9.518   8.756 -3.6116  0.7333 -1.6732
  995MOL0     H37306   2.964   9.450   8.447 -1.3787 -1.9430  0.5295
  995MOL0     H37307   2.931   9.269   9.274 -0.4594 -1.4731  0.8083
  995MOL0     H37308   2.892   9.253   9.650 -0.4788  0.6834  0.2266
  995MOL0     H37309   2.816   9.249   9.484 -1.1268 -0.5572  1.1869
  995MOL0     H37310   2.886   9.109   9.560 -3.4686  0.4317 -0.5695
  996MOL0     O37311   9.089   8.604   3.663 -0.3396  1.0733 -0.2386
  996MOL0     C37312   9.174   8.516   3.644 -0.6003 -0.3097  1.2339
  996MOL0     O37313   9.302   8.524   3.689 -0.9140  0.6824 -0.5533
  996MOL0     C37314   9.343   8.624   3.766 -0.5067  0.3940 -0.3023
  996MOL0     C37315   9.450   8.586   3.851  0.2671  1.0194  0.3348
  996MOL0     C37316   9.520   8.669   3.935  0.4356  0.0659  0.6044
  996MOL0     C37317   9.477   8.809   3.927 -0.2137  0.4098 -1.0254
  996MOL0     O37318   9.531   8.888   4.027 -0.8156 -0.1476 -0.0377
  996MOL0     C37319   9.490   9.025   4.045  0.3359  0.3976 -0.2970
  996MOL0     C37320   9.568   9.100   4.163  0.3660  0.2648 -0.8305
  996MOL0     C37321   9.521   9.066   4.307  0.1912  0.4365  0.0061
  996MOL0     C37322   9.599   9.161   4.406 -0.0516  0.6427  0.1586
  996MOL0     C37323   9.566   9.120   4.541  1.5007 -0.6151 -0.6133
  996MOL0     C37324   9.418   9.155   4.579  0.3694  0.4582  0.2981
  996MOL0     C37325   9.404   9.148   4.729 -0.0294  0.0598 -0.5625
  996MOL0     C37326   9.374   8.993   4.765 -0.4055 -1.0086  0.3776
  996MOL0     N37327   9.339   8.987   4.908 -0.4060  0.5857 -0.0086
  996MOL0     C37328   9.408   9.023   5.023 -0.4883 -0.1669  0.6853
  996MOL0     C37329   9.326   8.988   5.122 -0.1002 -0.2618  0.5579
  996MOL0     C37330   9.354   9.018   5.268  0.8272 -0.2313 -0.2521
  996MOL0     C37331   9.218   9.061   5.348 -0.5136  0.2178 -0.5510
  996MOL0     C37332   9.250   9.130   5.479  0.3615  0.1112  0.2158
  996MOL0     C37333   9.125   9.142   5.564 -1.8030 -0.0350 -0.3394
  996MOL0     O37334   9.036   9.029   5.576 -0.2165 -0.1732 -0.4620
  996MOL0     C37335   9.096   8.933   5.656  0.6771  0.1065  0.0157
  996MOL0     C37336   9.191   8.845   5.616 -0.2824  1.1060 -0.3133
  996MOL0     C37337   9.262   8.759   5.704 -0.1357  0.0892  0.3665
  996MOL0     C37338   9.367   8.661   5.649 -0.6663 -0.2017  0.2443
  996MOL0     C37339   9.222   8.749   5.837  0.0344  0.4799  0.3716
  996MOL0     C37340   9.281   8.668   5.938  0.4391 -0.0543  0.3116
  996MOL0     O37341   9.199   8.623   6.043 -0.1482  1.1461  0.0853
  996MOL0     C37342   9.256   8.553   6.146  0.6231 -0.0899 -0.5250
  996MOL0     C37343   9.294   8.422   6.124 -0.6206  0.4280  0.3881
  996MOL0     C37344   9.354   8.350   6.233  0.5325 -1.0940 -0.8063
  996MOL0     C37345   9.388   8.425   6.349  0.8015  0.3495 -0.9015
  996MOL0     O37346   9.447   8.382   6.464 -0.4627  0.4006 -0.6127
  996MOL0     C37347   9.558   8.285   6.450  0.0142  0.8841  1.3869
  996MOL0     C37348   9.674   8.362   6.389 -0.3550 -0.2799  0.5203
  996MOL0     C37349   9.802   8.274   6.372 -0.1187  0.4137 -0.7422
  996MOL0     C37350   9.827   8.185   6.497 -0.2149 -0.0799  0.0635
  996MOL0     C37351   9.975   8.145   6.500  0.2444 -0.3406 -0.6559
  996MOL0     C37352  10.017   8.075   6.637  0.2655 -0.1498 -1.3005
  996MOL0     C37353   9.991   8.164   6.753 -0.2264 -0.3535 -0.5839
  996MOL0     C37354  10.121   8.172   6.834  1.2029 -0.1222  0.0302
  996MOL0    Cl37355  10.187   8.021   6.881  0.1522  0.3832  0.1287
  996MOL0     C37356   9.339   8.553   6.367  0.8811 -0.5322  0.5502
  996MOL0     C37357   9.275   8.617   6.265 -0.3709 -0.7571  0.2412
  996MOL0     O37358   9.409   8.653   5.943 -0.5712  0.0841 -0.2818
  996MOL0     C37359   9.114   8.834   5.880 -0.5043  0.0577  0.3857
  996MOL0     C37360   9.065   8.928   5.792  0.9981 -0.0490  0.6346
  996MOL0     N37361   9.199   8.949   5.072 -0.6110 -0.5519  0.4525
  996MOL0     N37362   9.213   8.953   4.946 -0.5040 -0.4191  0.3267
  996MOL0     C37363   9.376   8.851   3.844 -0.0037 -0.4401 -0.0030
  996MOL0     C37364   9.309   8.761   3.767 -0.2424 -0.3479  0.5773
  996MOL0     C37365   9.135   8.395   3.567  0.2566 -0.3848 -0.6446
  996MOL0     C37366   9.016   8.340   3.616 -0.6994 -1.1593  1.0460
  996MOL0     C37367   8.981   8.218   3.560 -0.1562  0.8225 -0.8397
  996MOL0     C37368   9.056   8.159   3.451 -0.2924 -1.3776  0.3930
  996MOL0     O37369   9.018   8.044   3.379 -0.4987 -0.0880  0.0551
  996MOL0     C37370   8.951   7.943   3.465  0.2741  0.2664  0.3452
  996MOL0     C37371   8.804   7.938   3.419 -0.4275 -0.2491 -0.7819
  996MOL0     C37372   8.777   7.923   3.273  0.3962 -0.0989  1.4592
  996MOL0     C37373   8.759   7.787   3.223 -0.1348  0.8827 -0.9632
  996MOL0     C37374   8.735   7.759   3.083 -0.6266  0.3424  0.0528
  996MOL0     C37375   8.709   7.727   2.971  0.1004  0.3874  0.4294
  996MOL0     C37376   9.172   8.219   3.412  0.8012 -0.7447 -0.0899
  996MOL0     C37377   9.211   8.332   3.471  0.0302 -0.3905  0.7108
  996MOL0     C37378   9.346   8.378   3.426  0.6644 -0.0338  0.2473
  996MOL0     H37379   9.480   8.482   3.850  1.3543  1.3284 -0.6350
  996MOL0     H37380   9.586   8.625   4.009 -0.9238 -3.6418 -0.1266
  996MOL0     H37381   9.384   9.033   4.068  0.1996 -3.9421  1.4370
  996MOL0     H37382   9.507   9.076   3.949 -1.9568  1.8402 -0.0221
  996MOL0     H37383   9.672   9.067   4.150  0.1256 -2.1620  2.0618
  996MOL0     H37384   9.544   9.206   4.151 -4.1364 -0.1229  2.3204
  996MOL0     H37385   9.413   9.077   4.308  0.0181 -0.9118  1.8606
  996MOL0     H37386   9.548   8.962   4.327 -1.1245  0.0717 -0.0651
  996MOL0     H37387   9.707   9.159   4.387 -0.1515 -0.3344 -0.3600
  996MOL0     H37388   9.566   9.263   4.384  0.0158  0.2855 -1.8322
  996MOL0     H37389   9.636   9.177   4.603  1.5589 -1.8207  0.4773
  996MOL0     H37390   9.591   9.019   4.574 -0.9563 -1.6458 -1.6701
  996MOL0     H37391   9.396   9.258   4.550 -2.1210 -0.4058 -1.1687
  996MOL0     H37392   9.355   9.099   4.510  0.8949  0.8615 -0.5230
  996MOL0     H37393   9.323   9.218   4.754 -2.6480 -2.5705 -1.0931
  996MOL0     H37394   9.484   9.196   4.786 -1.9158  2.5216  0.1926
  996MOL0     H37395   9.296   8.963   4.693 -0.9017  0.6376  0.2000
  996MOL0     H37396   9.461   8.932   4.738  0.4339  0.0451  0.6529
  996MOL0     H37397   9.503   9.071   5.045 -1.5373  2.5520 -0.2846
  996MOL0     H37398   9.433   9.094   5.274  0.6428 -0.0813  0.2907
  996MOL0     H37399   9.406   8.926   5.298  0.4400 -1.0692 -2.0279
  996MOL0     H37400   9.160   9.131   5.287  1.2258  1.7520 -0.5204
  996MOL0     H37401   9.149   8.975   5.346 -1.6606  1.0781  0.4348
  996MOL0     H37402   9.324   9.067   5.529  1.2245  1.2817  0.4648
  996MOL0     H37403   9.305   9.223   5.463  0.5633 -0.2293 -1.2301
  996MOL0     H37404   9.151   9.176   5.665 -0.7384 -0.7469 -0.3587
  996MOL0     H37405   9.078   9.236   5.535  0.2375  1.9468  2.1987
  996MOL0     H37406   9.207   8.838   5.509  0.4235 -0.1224 -0.1478
  996MOL0     H37407   9.454   8.689   5.710 -3.0731  0.7099  3.5704
  996MOL0     H37408   9.385   8.679   5.543 -1.4936  0.4320  0.1980
  996MOL0     H37409   9.343   8.556   5.673  2.0921 -0.7198  1.0559
  996MOL0     H37410   9.283   8.382   6.024 -0.8129 -0.3353  0.7070
  996MOL0     H37411   9.397   8.251   6.223  1.0244 -0.8215 -1.4894
  996MOL0     H37412   9.598   8.231   6.536  1.8101  0.0520  0.0887
  996MOL0     H37413   9.527   8.207   6.379  0.9188  1.7698 -0.0241
  996MOL0     H37414   9.643   8.411   6.296 -1.4401  0.3151  1.1866
  996MOL0     H37415   9.693   8.437   6.466 -1.9458  2.2155 -1.3699
  996MOL0     H37416   9.896   8.326   6.349  0.1255  0.7505  0.8858
  996MOL0     H37417   9.789   8.209   6.285 -0.5325  1.3131 -1.3799
  996MOL0     H37418   9.761   8.098   6.494  1.1409 -1.3705  3.3260
  996MOL0     H37419   9.797   8.243   6.584  0.0972 -0.7047  0.5980
  996MOL0     H37420  10.003   8.081   6.416  3.4650 -1.6532  1.2389
  996MOL0     H37421  10.039   8.233   6.491  2.4394 -1.8807 -0.7992
  996MOL0     H37422  10.123   8.051   6.625  1.8313  2.8118  3.9066
  996MOL0     H37423   9.953   7.986   6.640 -0.3955  0.3248 -1.1349
  996MOL0     H37424   9.922   8.116   6.824 -1.3594 -0.1443 -1.5181
  996MOL0     H37425   9.947   8.261   6.727 -0.2883 -0.2762 -0.1962
  996MOL0     H37426  10.086   8.214   6.929  3.2651 -0.7709  1.1458
  996MOL0     H37427  10.183   8.248   6.785  2.0411 -1.1326 -0.4943
  996MOL0     H37428   9.341   8.598   6.466 -1.3079  0.5531  0.1566
  996MOL0     H37429   9.242   8.720   6.260  0.7883 -0.4084 -0.9893
  996MOL0     H37430   9.072   8.843   5.979 -2.2356 -0.6826 -0.2400
  996MOL0     H37431   9.002   9.001   5.840 -2.6398 -2.8609  0.5733
  996MOL0     H37432   9.341   8.953   3.850  0.8650 -0.1357  0.1459
  996MOL0     H37433   9.230   8.806   3.707 -1.3401  1.6608  3.3471
  996MOL0     H37434   8.954   8.398   3.682  1.2168 -0.1057  2.0229
  996MOL0     H37435   8.887   8.173   3.590  1.3429 -1.3085  0.9392
  996MOL0     H37436   8.997   7.850   3.431 -1.5856  0.4365 -3.0477
  996MOL0     H37437   8.950   7.956   3.573  0.3312 -1.2231  0.5393
  996MOL0     H37438   8.753   8.030   3.451 -0.9472  0.3947 -3.2209
  996MOL0     H37439   8.748   7.856   3.465 -1.7210  2.1358  2.2208
  996MOL0     H37440   8.684   7.978   3.259  0.5348  0.0802  1.2173
  996MOL0     H37441   8.861   7.970   3.220 -1.0301  1.8136  0.7764
  996MOL0     H37442   8.683   7.729   3.276  0.9317 -0.2071 -0.5866
  996MOL0     H37443   8.853   7.734   3.238  0.2176  1.5226 -0.8914
  996MOL0     H37444   8.691   7.703   2.868 -2.8226  3.8691 -0.0853
  996MOL0     H37445   9.225   8.182   3.325  0.7792 -1.3482  0.1545
  996MOL0     H37446   9.375   8.480   3.453 -0.2131  0.2177  0.2933
  996MOL0     H37447   9.421   8.311   3.468 -1.2448 -1.7392  1.0873
  996MOL0     H37448   9.347   8.355   3.319 -0.4024 -2.9505  0.7803
  997MOL0     O37449   7.077   7.032   6.198  0.4166  0.1364 -0.2323
  997MOL0     C37450   7.083   7.067   6.084 -0.6954  0.0750  0.6542
  997MOL0     O37451   7.192   7.130   6.027  0.0494 -0.6475 -0.2859
  997MOL0     C37452   7.313   7.138   6.092 -0.2208 -0.1760  0.5773
  997MOL0     C37453   7.387   7.250   6.067  0.9187 -0.3755  0.0039
  997MOL0     C37454   7.516   7.258   6.106 -0.2219  0.3005 -0.5931
  997MOL0     C37455   7.576   7.163   6.182 -0.3889  0.2271 -0.4551
  997MOL0     O37456   7.702   7.202   6.229  0.1377 -0.3081 -0.2974
  997MOL0     C37457   7.751   7.163   6.355 -0.1402  0.8187  0.1634
  997MOL0     C37458   7.728   7.283   6.442  0.3115 -0.4780  0.1778
  997MOL0     C37459   7.764   7.253   6.590 -0.0258  0.2231 -0.5414
  997MOL0     C37460   7.757   7.375   6.675 -0.1971 -0.3349 -0.5256
  997MOL0     C37461   7.846   7.366   6.801 -0.3560 -0.3305 -0.4103
  997MOL0     C37462   7.991   7.296   6.803  1.1370  0.8941  0.1756
  997MOL0     C37463   8.099   7.338   6.905 -0.9880 -1.1190 -0.7134
  997MOL0     C37464   8.151   7.487   6.891 -0.5239 -0.3518  0.9659
  997MOL0     N37465   8.228   7.491   6.774  0.8558 -0.5425  0.3476
  997MOL0     C37466   8.206   7.588   6.676 -0.9081 -0.1452 -0.1385
  997MOL0     C37467   8.332   7.612   6.632 -0.2306  0.6147 -0.2269
  997MOL0     C37468   8.379   7.692   6.520 -0.0049 -0.3673  0.0910
  997MOL0     C37469   8.334   7.836   6.553 -1.2672  0.0615  0.3329
  997MOL0     C37470   8.409   7.933   6.457 -0.4910 -0.3639 -0.0294
  997MOL0     C37471   8.317   8.049   6.414  0.3532  0.0680 -0.0566
  997MOL0     O37472   8.246   8.106   6.523 -0.1388  0.0649  0.1442
  997MOL0     C37473   8.160   8.208   6.499  0.0904 -0.5207 -0.8037
  997MOL0     C37474   8.049   8.221   6.586 -0.9989 -0.6185 -0.0674
  997MOL0     C37475   7.959   8.328   6.574  0.8730 -0.8474  0.3326
  997MOL0     C37476   7.849   8.345   6.676  0.2409  0.1927 -0.0620
  997MOL0     C37477   7.985   8.424   6.470  0.8079  0.3026 -0.1513
  997MOL0     C37478   7.903   8.546   6.450  0.6986 -0.1823  0.0899
  997MOL0     O37479   7.909   8.600   6.325 -0.9133 -0.2656 -0.4720
  997MOL0     C37480   7.839   8.710   6.291  0.6921 -0.2497  0.4571
  997MOL0     C37481   7.701   8.717   6.301 -0.1656 -0.4355  0.7480
  997MOL0     C37482   7.631   8.828   6.257  1.1094 -0.4365  0.1736
  997MOL0     C37483   7.702   8.936   6.207 -0.8643 -0.4166  0.0010
  997MOL0     O37484   7.644   9.057   6.166  0.3704 -0.4528  0.2437
  997MOL0     C37485   7.544   9.047   6.069 -0.1182  1.4020 -0.1871
  997MOL0     C37486   7.435   9.156   6.081  0.1985  0.6270 -0.0824
  997MOL0     C37487   7.386   9.229   5.953 -0.1073 -0.0741 -0.2126
  997MOL0     C37488   7.486   9.334   5.903  0.7179 -0.7131  0.0136
  997MOL0     C37489   7.543   9.308   5.767 -0.5729  0.0574 -0.3956
  997MOL0     C37490   7.447   9.368   5.661  0.0356 -0.6179 -0.0078
  997MOL0     C37491   7.484   9.311   5.525 -0.3853  0.2213 -0.2889
  997MOL0     C37492   7.624   9.331   5.465  0.0811  0.5732 -0.2385
  997MOL0    Cl37493   7.659   9.503   5.459  0.1055  0.1243  0.1974
  997MOL0     C37494   7.841   8.932   6.202 -0.0971  0.5042 -1.6176
  997MOL0     C37495   7.910   8.821   6.244  0.6628  0.3284  0.3313
  997MOL0     O37496   7.843   8.598   6.548  0.3536  0.1924 -0.7028
  997MOL0     C37497   8.089   8.399   6.382  0.2008 -0.2682 -0.3113
  997MOL0     C37498   8.179   8.297   6.398  0.2686  0.7815 -0.4280
  997MOL0     N37499   8.425   7.543   6.713 -0.0446 -0.2758 -0.3753
  997MOL0     N37500   8.354   7.458   6.785 -0.7541 -0.5198  0.4490
  997MOL0     C37501   7.509   7.054   6.220  0.5300 -0.0790  0.4136
  997MOL0     C37502   7.376   7.035   6.168 -0.9837 -0.7179  0.3356
  997MOL0     C37503   6.979   7.045   5.986  0.3874 -0.8501 -0.2335
  997MOL0     C37504   7.000   7.041   5.846 -0.2089 -0.1112  0.0113
  997MOL0     C37505   6.902   7.007   5.753 -0.0366  0.1372  0.0192
  997MOL0     C37506   6.773   6.961   5.792  0.1690 -0.3971  0.4951
  997MOL0     O37507   6.663   6.925   5.711 -0.0468 -0.0469  0.2972
  997MOL0     C37508   6.676   6.892   5.568 -0.1971 -0.0567 -0.1308
  997MOL0     C37509   6.703   6.743   5.548  0.2843 -0.3584  0.7923
  997MOL0     C37510   6.611   6.647   5.625 -0.2754 -0.1484 -0.1994
  997MOL0     C37511   6.464   6.660   5.567  0.2389 -0.2270  0.1557
  997MOL0     C37512   6.363   6.578   5.634 -0.4411 -0.0404 -0.5491
  997MOL0     C37513   6.284   6.511   5.695 -0.2456 -0.3431  0.2583
  997MOL0     C37514   6.747   6.970   5.927  0.6960  1.0572 -0.5976
  997MOL0     C37515   6.850   6.995   6.032  1.4225  0.8293  0.9543
  997MOL0     C37516   6.809   6.987   6.174  0.3336 -0.0924 -0.1317
  997MOL0     H37517   7.341   7.334   6.016 -0.6800  0.5036  2.6530
  997MOL0     H37518   7.577   7.341   6.070  1.5455 -1.8838 -3.0838
  997MOL0     H37519   7.858   7.138   6.355  0.4146  2.7589 -2.3238
  997MOL0     H37520   7.701   7.076   6.400  0.7696 -0.1237 -0.5950
  997MOL0     H37521   7.782   7.374   6.415 -0.4288  1.3074  4.0557
  997MOL0     H37522   7.622   7.305   6.423  0.2519 -1.7301 -1.1854
  997MOL0     H37523   7.700   7.174   6.630 -2.0092  1.3632 -1.3273
  997MOL0     H37524   7.866   7.212   6.590 -0.9068 -2.2657 -3.2227
  997MOL0     H37525   7.794   7.466   6.626  2.6091 -0.7319  0.6592
  997MOL0     H37526   7.650   7.392   6.689 -0.0059  0.8883 -0.4520
  997MOL0     H37527   7.794   7.297   6.868  3.4657 -1.3845  1.7570
  997MOL0     H37528   7.857   7.471   6.831  0.9089 -0.5151 -0.1509
  997MOL0     H37529   7.980   7.187   6.799 -0.5594  1.0266 -3.3145
  997MOL0     H37530   8.029   7.305   6.700  2.5796 -3.7411  0.0964
  997MOL0     H37531   8.178   7.263   6.893  0.4752  0.2782 -0.1045
  997MOL0     H37532   8.066   7.326   7.008 -1.8376 -1.3096 -1.0000
  997MOL0     H37533   8.071   7.561   6.897  0.9282  1.3613 -0.0142
  997MOL0     H37534   8.212   7.502   6.980  1.3446  0.5822 -0.4089
  997MOL0     H37535   8.110   7.635   6.654 -0.9493  1.1195  2.3670
  997MOL0     H37536   8.329   7.647   6.434  1.8322 -1.8042 -0.3029
  997MOL0     H37537   8.484   7.682   6.491 -0.7432  0.6550 -3.3379
  997MOL0     H37538   8.227   7.852   6.537 -1.4869 -2.7339 -1.5247
  997MOL0     H37539   8.371   7.863   6.653  2.3808 -0.9416 -0.5865
  997MOL0     H37540   8.496   7.980   6.504 -0.5953 -0.8203  0.6440
  997MOL0     H37541   8.443   7.877   6.370 -1.7342 -0.5354 -0.4191
  997MOL0     H37542   8.369   8.133   6.368 -2.5819  2.6788  1.0527
  997MOL0     H37543   8.250   8.012   6.335 -0.2288  1.3976 -0.2095
  997MOL0     H37544   8.042   8.144   6.663 -0.5456  1.4756  2.2153
  997MOL0     H37545   7.750   8.348   6.630 -1.0236 -3.4372  1.9798
  997MOL0     H37546   7.866   8.435   6.736 -0.0149 -0.1679  0.5639
  997MOL0     H37547   7.844   8.264   6.750  0.3787  0.7338  0.5475
  997MOL0     H37548   7.662   8.628   6.350  0.7454 -0.9850  0.4974
  997MOL0     H37549   7.524   8.814   6.270  1.5188 -2.8416  1.4700
  997MOL0     H37550   7.594   9.052   5.971  1.5832  3.6379  0.7192
  997MOL0     H37551   7.499   8.948   6.074  0.7489  1.0080  0.0303
  997MOL0     H37552   7.354   9.117   6.145  1.4491  0.3996  1.4306
  997MOL0     H37553   7.472   9.237   6.145  0.4207 -1.6635  2.9223
  997MOL0     H37554   7.291   9.272   5.985 -0.5316 -1.0761 -0.0672
  997MOL0     H37555   7.360   9.156   5.875 -3.4485  0.7262 -0.0140
  997MOL0     H37556   7.562   9.331   5.981 -1.8042  0.5007  2.7342
  997MOL0     H37557   7.442   9.435   5.901  1.0053 -0.5886 -0.0940
  997MOL0     H37558   7.642   9.351   5.750 -0.1686 -0.6478  0.1493
  997MOL0     H37559   7.544   9.199   5.759  2.7363  0.0438 -1.1719
  997MOL0     H37560   7.434   9.476   5.650 -0.9667 -0.5154  1.7816
  997MOL0     H37561   7.343   9.346   5.688  0.4102 -2.9065 -0.2287
  997MOL0     H37562   7.419   9.351   5.447  0.0799  0.7945 -0.3856
  997MOL0     H37563   7.453   9.207   5.515 -2.8974  1.1054 -3.0783
  997MOL0     H37564   7.613   9.282   5.368  2.1073 -1.2744  0.3888
  997MOL0     H37565   7.712   9.297   5.521  1.1813  0.9699 -1.6520
  997MOL0     H37566   7.895   9.017   6.161  1.0793  1.0746  0.8959
  997MOL0     H37567   8.016   8.812   6.222  0.5242 -1.0210  0.1340
  997MOL0     H37568   8.111   8.476   6.308 -0.5893  2.3258  2.0081
  997MOL0     H37569   8.272   8.303   6.343 -0.3005 -0.1462 -1.5393
  997MOL0     H37570   7.550   6.978   6.286  1.5726 -0.2156 -0.3767
  997MOL0     H37571   7.325   6.944   6.198  1.8712 -1.6084  3.0060
  997MOL0     H37572   7.095   7.076   5.808  1.0056 -3.1187 -0.0325
  997MOL0     H37573   6.920   7.027   5.647  1.9350  2.5054  0.6893
  997MOL0     H37574   6.581   6.917   5.521 -0.0223 -0.4620 -0.7275
  997MOL0     H37575   6.740   6.955   5.506 -0.5079  0.1210 -0.2720
  997MOL0     H37576   6.808   6.724   5.571  0.1215 -1.7099  0.5162
  997MOL0     H37577   6.697   6.729   5.439  0.3156 -1.0849  0.8854
  997MOL0     H37578   6.656   6.547   5.628 -1.3333 -0.9834 -4.5727
  997MOL0     H37579   6.614   6.672   5.731  1.2445  3.5369 -0.9449
  997MOL0     H37580   6.481   6.649   5.460 -1.7166  1.2548 -0.3631
  997MOL0     H37581   6.434   6.764   5.581 -2.6769 -1.0575  0.8042
  997MOL0     H37582   6.208   6.462   5.751 -1.6287  1.0311 -0.3465
  997MOL0     H37583   6.651   6.935   5.964  0.1660  3.5890  0.5823
  997MOL0     H37584   6.704   6.958   6.175  0.5846 -1.0323  0.1211
  997MOL0     H37585   6.860   6.913   6.237 -0.6072  1.5344  2.7011
  997MOL0     H37586   6.811   7.081   6.229 -2.4590 -0.0202 -0.0006
  998MOL0     O37587   3.559   8.433  11.027  0.3343  0.0060  0.1215
  998MOL0     C37588   3.672   8.409  10.993 -0.9558  0.4869  0.4654
  998MOL0     O37589   3.781   8.408  11.083  0.2189  0.2584  0.5282
  998MOL0     C37590   3.765   8.437  11.220  0.4225  0.3231  0.4857
  998MOL0     C37591   3.663   8.395  11.296 -0.0915 -0.1757  0.5037
  998MOL0     C37592   3.664   8.429  11.433  0.0511 -0.0195 -0.0213
  998MOL0     C37593   3.762   8.523  11.481 -0.2658 -0.1021  0.2812
  998MOL0     O37594   3.759   8.578  11.611 -0.0247  0.1527  0.3924
  998MOL0     C37595   3.655   8.544  11.699  0.0339 -0.5959  0.3635
  998MOL0     C37596   3.703   8.616  11.821  0.0524  0.1078 -0.0007
  998MOL0     C37597   3.602   8.623  11.933 -0.0393  0.4939  0.4941
  998MOL0     C37598   3.643   8.688  12.064  0.6113 -0.6756 -0.1175
  998MOL0     C37599   3.527   8.690  12.168 -0.3945  0.1371 -0.3559
  998MOL0     C37600   3.448   8.807  12.143 -0.0805 -0.2259 -0.0438
  998MOL0     C37601   3.333   8.827  12.248  0.3509  0.5470 -0.5599
  998MOL0     C37602   3.212   8.743  12.183 -0.0273  0.7513 -0.7355
  998MOL0     N37603   3.084   8.802  12.208  0.3828  0.2335  0.2377
  998MOL0     C37604   3.032   8.915  12.159  0.7865  0.1996  1.0228
  998MOL0     C37605   2.909   8.938  12.199  0.0485 -0.0893 -0.6502
  998MOL0     C37606   2.824   9.061  12.166 -0.4060 -0.8964 -1.0238
  998MOL0     C37607   2.790   9.149  12.287  0.1091 -0.1773  1.4586
  998MOL0     C37608   2.647   9.117  12.338  0.1535 -0.0170 -0.1646
  998MOL0     C37609   2.619   8.969  12.370 -0.0648 -0.7819  1.2895
  998MOL0     O37610   2.493   8.949  12.437 -0.1606  0.3100 -0.0570
  998MOL0     C37611   2.476   8.813  12.470  0.1638  0.0334  0.6723
  998MOL0     C37612   2.351   8.767  12.510  0.5544  0.2636  0.1452
  998MOL0     C37613   2.324   8.633  12.545  0.3275  0.8185  0.2735
  998MOL0     C37614   2.189   8.579  12.570  0.4966 -0.5348 -0.3302
  998MOL0     C37615   2.428   8.539  12.532 -0.0062  0.6794 -0.1023
  998MOL0     C37616   2.412   8.398  12.555 -1.5575  0.0748 -0.4157
  998MOL0     O37617   2.482   8.306  12.480 -0.0321  0.6742 -0.3432
  998MOL0     C37618   2.445   8.178  12.504 -0.1709  0.0182  0.5527
  998MOL0     C37619   2.516   8.091  12.577 -0.2677  0.2094  0.6870
  998MOL0     C37620   2.474   7.959  12.586  0.8076 -0.0718  0.2425
  998MOL0     C37621   2.350   7.919  12.534 -0.1038  0.4474 -0.7486
  998MOL0     O37622   2.315   7.791  12.568  0.7188  0.4978 -0.3006
  998MOL0     C37623   2.194   7.727  12.527 -0.2581 -0.1870 -0.0282
  998MOL0     C37624   2.142   7.667  12.661  0.3424 -0.2478  0.6597
  998MOL0     C37625   2.037   7.556  12.623  1.2622 -0.1246  0.7290
  998MOL0     C37626   1.973   7.490  12.746 -0.2692  0.4488 -0.8555
  998MOL0     C37627   2.080   7.415  12.845  0.4215  0.2411 -0.0909
  998MOL0     C37628   2.019   7.313  12.940  0.0212 -0.7993 -0.0664
  998MOL0     C37629   2.123   7.275  13.054  1.5549  0.0188 -0.1720
  998MOL0     C37630   2.084   7.161  13.152  0.6023  0.5668  0.3972
  998MOL0    Cl37631   1.983   7.044  13.067 -0.3434  0.4893  0.2705
  998MOL0     C37632   2.266   8.011  12.475 -0.2679 -0.3748 -0.4679
  998MOL0     C37633   2.317   8.143  12.460 -0.3438 -0.8704  0.9923
  998MOL0     O37634   2.338   8.365  12.649 -0.3097  0.4158  0.0484
  998MOL0     C37635   2.555   8.574  12.505  0.5054 -0.5727  0.5214
  998MOL0     C37636   2.576   8.710  12.466 -0.4764  0.1316  0.1410
  998MOL0     N37637   2.881   8.821  12.270  0.3172  0.2223 -0.3504
  998MOL0     N37638   2.983   8.741  12.274 -0.0889 -0.2298 -1.0367
  998MOL0     C37639   3.862   8.566  11.395 -0.0775 -0.4936  0.0707
  998MOL0     C37640   3.858   8.532  11.265  0.6704 -0.0775  0.5795
  998MOL0     C37641   3.712   8.387  10.850 -0.1680  0.3099 -1.4558
  998MOL0     C37642   3.837   8.359  10.820  0.0862  0.7070  0.1878
  998MOL0     C37643   3.885   8.338  10.688  0.2622  0.4172 -0.0369
  998MOL0     C37644   3.791   8.342  10.583  0.3090 -0.0779  0.2540
  998MOL0     O37645   3.854   8.317  10.467 -0.2135  0.1584  0.6324
  998MOL0     C37646   3.782   8.232  10.371 -0.2885  0.1581  0.1382
  998MOL0     C37647   3.776   8.317  10.236  0.0556  0.5200 -0.4989
  998MOL0     C37648   3.915   8.368  10.204 -0.7522  0.1435  0.3415
  998MOL0     C37649   3.935   8.399  10.058 -0.3861  0.9167  0.0779
  998MOL0     C37650   3.961   8.272   9.976  0.2511  0.1371  0.2123
  998MOL0     C37651   3.986   8.164   9.930 -1.3558 -0.6360 -0.0794
  998MOL0     C37652   3.654   8.363  10.624  0.4257 -0.0714  0.1376
  998MOL0     C37653   3.609   8.385  10.754 -0.7868  0.4958  0.5520
  998MOL0     C37654   3.460   8.386  10.771 -0.1706 -0.1574 -0.4460
  998MOL0     H37655   3.586   8.325  11.265  1.7124 -2.2422  0.4188
  998MOL0     H37656   3.578   8.397  11.491  0.0360 -0.8720 -0.5006
  998MOL0     H37657   3.635   8.440  11.726 -2.5311 -1.1948 -3.2337
  998MOL0     H37658   3.558   8.572  11.657 -0.5136 -3.8859 -0.8264
  998MOL0     H37659   3.792   8.562  11.852  0.3492  0.2296 -0.6214
  998MOL0     H37660   3.729   8.719  11.793 -0.0487 -0.9981 -5.1116
  998MOL0     H37661   3.515   8.684  11.907 -0.7400  0.4555  2.5107
  998MOL0     H37662   3.571   8.520  11.952 -1.3335  0.9719  1.0969
  998MOL0     H37663   3.730   8.641  12.111  0.6866  0.7860  1.2967
  998MOL0     H37664   3.677   8.791  12.056  0.0897 -0.6090 -1.8998
  998MOL0     H37665   3.571   8.687  12.268 -2.5664  2.8324  0.8024
  998MOL0     H37666   3.471   8.597  12.151 -1.7699  1.1608 -1.6527
  998MOL0     H37667   3.510   8.897  12.130 -0.7807  0.8623  3.2021
  998MOL0     H37668   3.392   8.802  12.049 -2.9168  1.9259  1.3732
  998MOL0     H37669   3.321   8.936  12.254 -1.9417  0.2472  2.5101
  998MOL0     H37670   3.358   8.786  12.346 -1.4544  0.0817 -0.2683
  998MOL0     H37671   3.226   8.733  12.075  2.5957 -1.7468 -0.2759
  998MOL0     H37672   3.216   8.639  12.218  0.7041  1.2002  0.5884
  998MOL0     H37673   3.085   8.995  12.108  1.4765 -0.4465  0.7118
  998MOL0     H37674   2.733   9.029  12.113 -0.4418 -0.6150 -1.1354
  998MOL0     H37675   2.883   9.135  12.113 -0.3014  1.7214  2.3739
  998MOL0     H37676   2.860   9.139  12.370  0.6299  0.8722  1.1572
  998MOL0     H37677   2.797   9.254  12.258 -2.0927 -0.9106 -2.5077
  998MOL0     H37678   2.640   9.165  12.436  3.0032 -2.2655  1.2925
  998MOL0     H37679   2.570   9.156  12.272 -0.3918 -1.0409 -0.1613
  998MOL0     H37680   2.614   8.922  12.271 -0.8868 -1.5924  1.7014
  998MOL0     H37681   2.697   8.932  12.436  0.8382 -0.8823  0.1987
  998MOL0     H37682   2.268   8.837  12.512 -2.0944 -2.2100 -4.6937
  998MOL0     H37683   2.113   8.657  12.556 -0.4669 -1.1675  1.1045
  998MOL0     H37684   2.178   8.552  12.675 -1.8707  0.9352 -0.1299
  998MOL0     H37685   2.156   8.508  12.493 -1.5775  0.7430 -0.7175
  998MOL0     H37686   2.616   8.123  12.603  0.4370  0.9315 -2.5181
  998MOL0     H37687   2.534   7.896  12.650  0.0195  0.8928  2.0004
  998MOL0     H37688   2.124   7.799  12.483  0.2104  1.3981  1.6825
  998MOL0     H37689   2.213   7.643  12.460  1.6497  0.1461  0.0260
  998MOL0     H37690   2.228   7.628  12.718 -0.5046 -2.1031  0.7372
  998MOL0     H37691   2.096   7.744  12.724  3.0576  0.1313  2.3869
  998MOL0     H37692   2.074   7.469  12.567  1.9456  0.1404  0.7684
  998MOL0     H37693   1.955   7.594  12.562  3.0659  2.0164 -0.4818
  998MOL0     H37694   1.907   7.406  12.723  1.5845 -1.3976  0.2540
  998MOL0     H37695   1.918   7.572  12.794 -2.5350 -0.4998 -1.6891
  998MOL0     H37696   2.157   7.364  12.787  0.5251  1.2849 -0.8836
  998MOL0     H37697   2.137   7.496  12.892 -0.6551  0.9049  0.1107
  998MOL0     H37698   1.987   7.219  12.893 -1.7661 -1.2906  1.9332
  998MOL0     H37699   1.941   7.365  12.997  0.8517  1.4394 -0.9051
  998MOL0     H37700   2.146   7.369  13.105 -1.0711  1.8123 -2.0109
  998MOL0     H37701   2.205   7.226  13.000  0.3812 -2.0750 -0.1720
  998MOL0     H37702   2.028   7.214  13.230  0.6231  0.3373  0.5684
  998MOL0     H37703   2.166   7.106  13.200 -1.3236 -2.1252  0.8527
  998MOL0     H37704   2.167   7.994  12.434 -0.6084 -2.9957  1.2057
  998MOL0     H37705   2.256   8.218  12.409  0.8946 -0.0251  0.7024
  998MOL0     H37706   2.644   8.511  12.503  0.7946 -0.1569  0.2089
  998MOL0     H37707   2.674   8.725  12.421 -0.3591 -0.9714 -0.0057
  998MOL0     H37708   3.940   8.631  11.434 -0.0448 -1.2395  1.2806
  998MOL0     H37709   3.922   8.561  11.182  0.3823  1.1259  0.7649
  998MOL0     H37710   3.919   8.363  10.892 -0.6152 -0.2561  1.0664
  998MOL0     H37711   3.989   8.338  10.657  0.2959  0.3777  0.0780
  998MOL0     H37712   3.839   8.140  10.357 -4.4842 -3.2954  3.2653
  998MOL0     H37713   3.685   8.193  10.402 -0.8860 -0.6702 -2.5657
  998MOL0     H37714   3.704   8.399  10.241  1.2416  1.6637 -1.5167
  998MOL0     H37715   3.739   8.250  10.157 -2.4273  0.5833  0.5028
  998MOL0     H37716   3.931   8.462  10.257 -0.7685  0.0623  0.4921
  998MOL0     H37717   3.988   8.289  10.224  0.9253  0.9377 -2.1968
  998MOL0     H37718   4.021   8.466  10.046 -1.0355  1.3355 -3.0940
  998MOL0     H37719   3.853   8.460  10.017 -1.6963 -0.2521  0.8452
  998MOL0     H37720   4.013   8.067   9.893 -0.9308 -0.7761  0.5809
  998MOL0     H37721   3.580   8.367  10.545  0.4189  3.6504  0.1581
  998MOL0     H37722   3.414   8.369  10.674 -1.2414  0.3032 -0.0302
  998MOL0     H37723   3.425   8.301  10.831  0.2554 -0.4020 -0.5350
  998MOL0     H37724   3.430   8.478  10.822  0.9933 -0.5193  1.0019
  999MOL0     O37725   2.390   1.240   9.773 -0.7726  0.9889 -0.1899
  999MOL0     C37726   2.349   1.129   9.796 -0.4415 -0.1359  0.2256
  999MOL0     O37727   2.302   1.041   9.701  0.5104 -0.2573  0.5271
  999MOL0     C37728   2.277   1.099   9.579  0.3453 -0.6319 -0.0112
  999MOL0     C37729   2.163   1.180   9.560 -1.8908  1.1111  0.1903
  999MOL0     C37730   2.130   1.210   9.429 -0.2834  0.5381  0.2372
  999MOL0     C37731   2.205   1.173   9.317  0.1474 -0.8990  0.6264
  999MOL0     O37732   2.167   1.204   9.191 -0.0323 -0.0356 -0.2033
  999MOL0     C37733   2.261   1.207   9.085 -0.0960  0.7402  0.2079
  999MOL0     C37734   2.241   1.077   9.000  0.3733 -0.2770 -0.3330
  999MOL0     C37735   2.098   1.064   8.949 -0.2362 -0.0178  0.1487
  999MOL0     C37736   2.092   1.092   8.796 -0.2726 -0.3878  0.8320
  999MOL0     C37737   1.948   1.097   8.736  0.8180  0.2469  0.6211
  999MOL0     C37738   1.970   1.141   8.595 -0.1457  0.7268 -0.2407
  999MOL0     C37739   1.833   1.151   8.524 -0.1217 -0.0210 -0.0333
  999MOL0     C37740   1.850   1.200   8.377  0.2873  0.1316  0.4930
  999MOL0     N37741   1.897   1.094   8.288  0.6902  0.2773 -0.2182
  999MOL0     C37742   1.817   0.985   8.251  0.1554  0.4742 -0.5408
  999MOL0     C37743   1.891   0.919   8.156  0.0668  0.0786  0.4347
  999MOL0     C37744   1.870   0.780   8.093  0.4160 -0.0244 -0.2740
  999MOL0     C37745   1.922   0.782   7.947 -0.8437  0.7453  0.3562
  999MOL0     C37746   1.913   0.648   7.885  0.2248 -0.6172  0.5643
  999MOL0     C37747   1.942   0.664   7.740  0.7013  0.6520 -0.4151
  999MOL0     O37748   1.837   0.737   7.672  0.0962  0.4103 -0.1509
  999MOL0     C37749   1.779   0.692   7.551  0.1443 -0.2243 -0.5303
  999MOL0     C37750   1.807   0.581   7.469  0.1462 -0.1646 -0.8190
  999MOL0     C37751   1.756   0.563   7.342 -0.4235 -0.1319 -0.6916
  999MOL0     C37752   1.784   0.425   7.277  0.7617  0.4115 -0.1570
  999MOL0     C37753   1.674   0.659   7.288  0.4635  0.1430  0.2899
  999MOL0     C37754   1.616   0.656   7.149  0.4621 -0.2481 -0.3905
  999MOL0     O37755   1.604   0.529   7.096 -0.8829 -0.1456 -0.6004
  999MOL0     C37756   1.576   0.517   6.965  0.9056 -0.1844 -0.3812
  999MOL0     C37757   1.469   0.435   6.933 -0.1073  0.3339 -0.5715
  999MOL0     C37758   1.419   0.406   6.811 -0.6977 -0.5309 -0.0593
  999MOL0     C37759   1.465   0.471   6.704 -0.8389 -0.3021 -0.2438
  999MOL0     O37760   1.419   0.446   6.584 -0.1235 -0.7914  0.2753
  999MOL0     C37761   1.487   0.326   6.529 -0.5826 -0.6044  0.8552
  999MOL0     C37762   1.470   0.321   6.371  0.2251  1.4775 -0.0736
  999MOL0     C37763   1.541   0.212   6.295  0.5865 -0.4049 -0.2089
  999MOL0     C37764   1.537   0.231   6.144 -0.9602 -0.2152  0.7537
  999MOL0     C37765   1.411   0.176   6.083  0.5786 -0.9944  0.0598
  999MOL0     C37766   1.437   0.108   5.940 -1.0310 -1.1097 -0.1998
  999MOL0     C37767   1.319   0.046   5.881 -0.2533  0.3759 -0.0077
  999MOL0     C37768   1.280  -0.089   5.948  0.7091  0.9849 -0.6171
  999MOL0    Cl37769   1.130  -0.144   5.877  0.0720 -0.1182 -0.4569
  999MOL0     C37770   1.580   0.561   6.724  0.3849  0.0017  0.4102
  999MOL0     C37771   1.636   0.585   6.856  1.2138 -0.5883 -0.1840
  999MOL0     O37772   1.589   0.764   7.092  0.3944 -0.6999 -0.2689
  999MOL0     C37773   1.650   0.777   7.367  0.7649 -0.3694  0.3905
  999MOL0     C37774   1.699   0.793   7.496 -0.1269 -0.5500  0.5871
  999MOL0     N37775   2.003   0.991   8.131 -0.6023 -0.2123  0.0534
  999MOL0     N37776   2.009   1.092   8.208 -0.4229 -1.2570  0.0653
  999MOL0     C37777   2.313   1.086   9.338  0.0843 -0.0489  0.2400
  999MOL0     C37778   2.339   1.045   9.460  0.4462  0.0825 -1.4630
  999MOL0     C37779   2.349   1.079   9.939 -0.0619 -1.3141  0.5590
  999MOL0     C37780   2.351   0.944   9.967  0.3130 -0.0949  0.1915
  999MOL0     C37781   2.355   0.888  10.104 -0.2690  0.0847  0.5466
  999MOL0     C37782   2.388   0.979  10.199 -0.6254  0.3307  0.1641
  999MOL0     O37783   2.427   0.933  10.330  0.0094  0.1890  0.2451
  999MOL0     C37784   2.312   0.899  10.402 -0.1904 -0.6765  0.5275
  999MOL0     C37785   2.347   0.894  10.553  0.4658  0.0665  0.5481
  999MOL0     C37786   2.341   1.031  10.621 -0.1547 -0.5705 -0.1068
  999MOL0     C37787   2.371   1.017  10.770 -0.2557 -0.4067  0.3241
  999MOL0     C37788   2.306   0.923  10.856  0.5009 -0.2523 -0.1467
  999MOL0     C37789   2.272   0.841  10.942  0.4863 -0.1329  0.5453
  999MOL0     C37790   2.388   1.113  10.166 -0.8324 -0.5299 -0.3253
  999MOL0     C37791   2.370   1.163  10.046  0.5712  0.4462  0.1491
  999MOL0     C37792   2.382   1.313  10.030 -0.1338 -0.0218 -0.4330
  999MOL0     H37793   2.113   1.225   9.644 -1.7847 -0.8586  1.3833
  999MOL0     H37794   2.037   1.265   9.419  0.3353  2.2067  2.7769
  999MOL0     H37795   2.365   1.216   9.116 -0.1473 -2.0689  1.5461
  999MOL0     H37796   2.239   1.287   9.015 -0.7823 -0.1631 -0.6399
  999MOL0     H37797   2.319   1.083   8.923  0.1366 -1.7849 -0.7285
  999MOL0     H37798   2.260   0.984   9.055  0.1802 -1.5268 -2.2796
  999MOL0     H37799   2.063   0.961   8.963  0.2608 -0.2256 -0.0932
  999MOL0     H37800   2.030   1.126   9.007 -1.7517 -1.6983  0.2314
  999MOL0     H37801   2.145   1.186   8.777  0.7267 -0.9932  0.4950
  999MOL0     H37802   2.144   1.012   8.741 -2.1825 -0.3895 -1.0956
  999MOL0     H37803   1.886   1.166   8.794 -0.6671 -1.3326  1.0107
  999MOL0     H37804   1.904   0.997   8.742  0.9236 -0.2932 -3.9539
  999MOL0     H37805   2.023   1.237   8.600  0.8241  0.1400  2.9064
  999MOL0     H37806   2.032   1.070   8.539 -0.4011  0.7743 -0.5868
  999MOL0     H37807   1.773   1.229   8.573 -0.3263  1.2022 -2.1033
  999MOL0     H37808   1.782   1.055   8.536  1.3363 -0.5119  3.0397
  999MOL0     H37809   1.750   1.237   8.358  0.3648  2.9432  4.4124
  999MOL0     H37810   1.915   1.287   8.368 -1.8745  2.0594  2.4332
  999MOL0     H37811   1.733   0.943   8.306  0.8447 -1.1960 -0.7071
  999MOL0     H37812   1.767   0.743   8.089  1.3526 -2.7258 -1.9048
  999MOL0     H37813   1.918   0.702   8.152 -2.3557 -1.8973 -0.2854
  999MOL0     H37814   1.866   0.864   7.900 -0.8886  1.4233  1.5594
  999MOL0     H37815   2.027   0.809   7.935 -0.2946 -1.3363  0.1280
  999MOL0     H37816   1.983   0.589   7.947  0.5668  1.3752  2.1759
  999MOL0     H37817   1.816   0.598   7.896  0.1844 -0.4400  1.0548
  999MOL0     H37818   2.042   0.707   7.730  1.2168 -0.1972  0.9335
  999MOL0     H37819   1.959   0.565   7.698  0.8434  1.1255 -1.5273
  999MOL0     H37820   1.873   0.510   7.518 -0.4140 -1.3266 -1.7238
  999MOL0     H37821   1.864   0.375   7.332  0.0528  1.9390  2.4122
  999MOL0     H37822   1.818   0.445   7.175  2.6604 -1.0100  0.1380
  999MOL0     H37823   1.702   0.353   7.268 -2.4404  3.7773 -0.4336
  999MOL0     H37824   1.412   0.378   7.006 -1.8361 -0.6595 -2.6061
  999MOL0     H37825   1.345   0.328   6.799  0.7943 -2.2364  1.2406
  999MOL0     H37826   1.593   0.338   6.551 -0.4354  0.8514 -0.4747
  999MOL0     H37827   1.451   0.232   6.573  0.1221 -3.0210 -3.1924
  999MOL0     H37828   1.363   0.315   6.353  0.4992 -1.6625 -1.2968
  999MOL0     H37829   1.508   0.419   6.340  2.8291  0.6916  0.3392
  999MOL0     H37830   1.508   0.111   6.320 -3.2589 -0.1000 -2.9865
  999MOL0     H37831   1.645   0.225   6.326 -0.5168  1.7164  3.1737
  999MOL0     H37832   1.623   0.173   6.110 -0.2366  0.0160  2.1331
  999MOL0     H37833   1.556   0.336   6.120 -0.5694  0.0727  2.2719
  999MOL0     H37834   1.351   0.114   6.150 -1.8718  3.0958  1.9807
  999MOL0     H37835   1.342   0.258   6.062 -0.1343 -1.8934 -1.2726
  999MOL0     H37836   1.507   0.025   5.953  1.1625  0.6986 -0.0262
  999MOL0     H37837   1.490   0.185   5.884  0.9355 -0.4303  2.4205
  999MOL0     H37838   1.332   0.009   5.779 -3.2644 -0.5861 -0.1323
  999MOL0     H37839   1.238   0.119   5.889 -0.2650  0.3435  0.1832
  999MOL0     H37840   1.269  -0.072   6.055 -1.4387  0.8884 -0.7641
  999MOL0     H37841   1.358  -0.164   5.929  1.0744  1.2372 -0.1049
  999MOL0     H37842   1.617   0.624   6.644  0.0738 -1.1594 -0.6801
  999MOL0     H37843   1.719   0.651   6.878  2.8073 -2.7604  0.6337
  999MOL0     H37844   1.597   0.864   7.328 -1.6658 -1.0373  1.9787
  999MOL0     H37845   1.692   0.885   7.553 -1.3263  1.5567 -2.6735
  999MOL0     H37846   2.370   1.042   9.257 -0.4361 -2.2450  0.9925
  999MOL0     H37847   2.415   0.969   9.476  0.4811  0.6533  1.7932
  999MOL0     H37848   2.346   0.875   9.884 -0.1372 -2.5003  2.0874
  999MOL0     H37849   2.340   0.782  10.122 -2.6855  0.2140 -0.3805
  999MOL0     H37850   2.237   0.979  10.388 -1.2642 -1.7406  0.0526
  999MOL0     H37851   2.278   0.801  10.371  1.8053 -1.3018  0.1901
  999MOL0     H37852   2.448   0.862  10.580  0.1422  0.5820  2.5094
  999MOL0     H37853   2.285   0.818  10.601  2.0688 -2.0648 -0.6412
  999MOL0     H37854   2.415   1.101  10.581 -1.4792 -0.0214 -1.7186
  999MOL0     H37855   2.245   1.082  10.604  1.2224  2.2139 -0.1372
  999MOL0     H37856   2.370   1.115  10.818 -0.2961  0.4203 -1.3251
  999MOL0     H37857   2.477   0.992  10.778  0.4729  2.2292 -0.1970
  999MOL0     H37858   2.241   0.773  11.018  1.0991  1.2297  2.0796
  999MOL0     H37859   2.400   1.175  10.255 -1.3261  0.0986 -0.6861
  999MOL0     H37860   2.368   1.374  10.120 -1.2506 -0.6897 -0.1356
  999MOL0     H37861   2.481   1.335   9.988 -0.1615  1.6198  0.3058
  999MOL0     H37862   2.309   1.349   9.958  0.5652 -0.5807 -1.4525
 1000MOL0     O37863   3.104   2.280   9.737  0.1804  0.0395  0.7092
 1000MOL0     C37864   3.046   2.175   9.725  0.2293 -0.2131  0.1672
 1000MOL0     O37865   2.970   2.106   9.817  0.0868  0.6782 -1.0886
 1000MOL0     C37866   2.937   2.144   9.942  0.0942  0.9324  0.5604
 1000MOL0     C37867   2.884   2.038  10.015 -0.2164  0.0928  0.5191
 1000MOL0     C37868   2.844   2.046  10.152 -0.5263 -0.2462 -0.4093
 1000MOL0     C37869   2.873   2.162  10.219 -0.2079  0.1137  0.0541
 1000MOL0     O37870   2.812   2.183  10.340 -0.8006 -0.3265  0.3277
 1000MOL0     C37871   2.892   2.246  10.442 -0.1075 -0.2391  1.3681
 1000MOL0     C37872   2.825   2.263  10.577 -0.2185  0.7985 -0.2756
 1000MOL0     C37873   2.779   2.130  10.640 -1.3431 -0.4023  0.0118
 1000MOL0     C37874   2.728   2.168  10.780  0.5708  0.4051  0.7132
 1000MOL0     C37875   2.602   2.261  10.790 -0.1789 -0.2732 -0.0292
 1000MOL0     C37876   2.465   2.218  10.714 -0.4806  0.8657 -0.2438
 1000MOL0     C37877   2.342   2.295  10.731  0.6911 -0.3379 -0.6201
 1000MOL0     C37878   2.231   2.253  10.634  0.5632 -0.5449 -0.9058
 1000MOL0     N37879   2.125   2.360  10.618 -0.6173  0.2170 -0.2554
 1000MOL0     C37880   1.998   2.361  10.664 -0.0440  0.5425 -0.5969
 1000MOL0     C37881   1.939   2.464  10.610 -0.8268 -0.7201  0.6339
 1000MOL0     C37882   1.804   2.514  10.623 -0.4024  0.1588 -0.3301
 1000MOL0     C37883   1.715   2.426  10.711 -0.0249 -0.7603  0.4204
 1000MOL0     C37884   1.568   2.471  10.712 -0.7485  0.0784 -0.5787
 1000MOL0     C37885   1.470   2.364  10.744  0.5269 -0.1063  0.5292
 1000MOL0     O37886   1.336   2.414  10.775 -0.0075 -0.7453 -0.5296
 1000MOL0     C37887   1.226   2.340  10.735 -0.2240 -0.2047  1.7785
 1000MOL0     C37888   1.111   2.405  10.698  0.2515  0.6716 -0.6415
 1000MOL0     C37889   0.994   2.340  10.655  0.4444  0.0010  0.2124
 1000MOL0     C37890   0.874   2.422  10.597 -0.7301 -0.0268 -0.4470
 1000MOL0     C37891   0.990   2.199  10.659 -0.0184 -0.8369  0.2902
 1000MOL0     C37892   0.882   2.114  10.597 -0.1296  0.6743 -0.2548
 1000MOL0     O37893   0.890   1.989  10.650 -0.5419  0.1618  0.2060
 1000MOL0     C37894   0.780   1.914  10.654  0.5987  0.6135  0.7468
 1000MOL0     C37895   0.752   1.833  10.547 -0.3330 -0.5802  0.7805
 1000MOL0     C37896   0.647   1.742  10.552 -0.0065 -0.2282 -0.4314
 1000MOL0     C37897   0.575   1.728  10.673 -0.4628 -0.0801  0.5522
 1000MOL0     O37898   0.494   1.621  10.684  0.1046  0.3634  0.5853
 1000MOL0     C37899   0.364   1.641  10.622 -0.4141 -0.5361 -0.0651
 1000MOL0     C37900   0.254   1.571  10.702  0.0820  0.5524 -0.1641
 1000MOL0     C37901   0.284   1.596  10.853 -1.2876 -0.0022 -0.5981
 1000MOL0     C37902   0.187   1.517  10.937 -0.1815 -0.2069 -0.7629
 1000MOL0     C37903   0.220   1.564  11.088 -0.2993 -0.1258  0.4749
 1000MOL0     C37904   0.159   1.704  11.123 -0.1080  0.8216  0.0868
 1000MOL0     C37905   0.148   1.722  11.280  0.1788 -0.1378 -0.5065
 1000MOL0     C37906   0.129   1.869  11.318 -0.6713  1.0963 -0.5449
 1000MOL0    Cl37907  -0.040   1.903  11.252 -0.1992 -0.1089 -0.4344
 1000MOL0     C37908   0.601   1.814  10.776  0.4367  0.1087  0.1042
 1000MOL0     C37909   0.700   1.915  10.768  0.2716 -0.3664 -0.9609
 1000MOL0     O37910   0.792   2.157  10.530  0.9012 -0.3611  0.0880
 1000MOL0     C37911   1.101   2.134  10.715 -0.6217  0.8711 -0.5894
 1000MOL0     C37912   1.217   2.200  10.750  0.4687  0.3214  0.3696
 1000MOL0     N37913   2.037   2.542  10.536  0.8805 -0.5066 -0.7700
 1000MOL0     N37914   2.140   2.464  10.535 -0.7370 -0.0911 -0.1081
 1000MOL0     C37915   2.926   2.270  10.141  0.9420  0.3219 -0.1223
 1000MOL0     C37916   2.962   2.261  10.009  0.2160  0.0946  0.0316
 1000MOL0     C37917   3.069   2.096   9.611 -0.5773  0.6476  0.5166
 1000MOL0     C37918   3.196   2.125   9.549 -0.0402  0.1304  0.4847
 1000MOL0     C37919   3.216   2.078   9.422 -0.1958 -0.3566 -0.5851
 1000MOL0     C37920   3.117   2.001   9.348  0.3134 -0.6112 -1.0613
 1000MOL0     O37921   3.144   1.963   9.224 -0.5704 -0.2740 -0.5350
 1000MOL0     C37922   3.138   2.064   9.125 -0.9483  0.5889  0.1865
 1000MOL0     C37923   3.216   2.003   9.003 -0.0575 -0.4067  0.2211
 1000MOL0     C37924   3.217   2.104   8.890  0.0233  0.3155  0.6605
 1000MOL0     C37925   3.270   2.051   8.757  0.1065 -0.8626  0.2898
 1000MOL0     C37926   3.192   1.935   8.705 -0.6471 -0.0656 -0.3327
 1000MOL0     C37927   3.135   1.837   8.677 -1.1050  0.5270 -0.6502
 1000MOL0     C37928   3.001   1.975   9.418  0.4788  0.5490 -0.1570
 1000MOL0     C37929   2.979   1.999   9.553 -0.1584  0.4287 -0.3533
 1000MOL0     C37930   2.848   1.964   9.617 -0.0840  0.2439 -0.8701
 1000MOL0     H37931   2.869   1.951   9.952 -1.5983  1.4444 -1.1210
 1000MOL0     H37932   2.791   1.974  10.213  3.1725 -1.6009  1.4984
 1000MOL0     H37933   2.927   2.344  10.408  2.9649 -2.1196 -1.5648
 1000MOL0     H37934   2.978   2.177  10.434 -0.0490 -0.0349 -0.2006
 1000MOL0     H37935   2.888   2.323  10.643 -1.3790  0.5556  1.0871
 1000MOL0     H37936   2.740   2.327  10.551  2.8600  4.6816 -1.9275
 1000MOL0     H37937   2.692   2.095  10.585 -1.8229 -1.9678  1.6743
 1000MOL0     H37938   2.852   2.053  10.665 -1.6433 -0.1501  1.7949
 1000MOL0     H37939   2.696   2.076  10.829  1.0958 -0.3004 -0.2569
 1000MOL0     H37940   2.807   2.216  10.838  0.2071 -2.7481  4.2443
 1000MOL0     H37941   2.643   2.362  10.776 -1.3958 -0.0913 -3.0546
 1000MOL0     H37942   2.566   2.243  10.891 -2.0127 -2.2554 -0.9539
 1000MOL0     H37943   2.482   2.181  10.612 -0.4429 -1.1356  0.4377
 1000MOL0     H37944   2.450   2.125  10.770  0.1130 -0.5664 -2.3470
 1000MOL0     H37945   2.340   2.404  10.728 -3.8528 -0.2648 -2.8570
 1000MOL0     H37946   2.309   2.277  10.834 -0.2208  0.1977 -0.8061
 1000MOL0     H37947   2.273   2.229  10.537 -2.6872 -1.3172 -2.2623
 1000MOL0     H37948   2.184   2.159  10.666  0.9459 -0.5816 -0.4453
 1000MOL0     H37949   1.951   2.290  10.731 -0.5052  3.3070  2.2773
 1000MOL0     H37950   1.756   2.523  10.525  0.0190  0.9817 -0.4754
 1000MOL0     H37951   1.807   2.620  10.649  0.8280  0.2759 -0.8666
 1000MOL0     H37952   1.713   2.327  10.664 -1.1255  0.5235 -2.5096
 1000MOL0     H37953   1.769   2.430  10.805  0.2795 -0.8666  0.2518
 1000MOL0     H37954   1.573   2.548  10.790  5.6485  1.7551 -2.0793
 1000MOL0     H37955   1.531   2.515  10.619  1.1508 -0.0716 -1.4428
 1000MOL0     H37956   1.463   2.308  10.650  0.9740  3.0508 -1.5288
 1000MOL0     H37957   1.495   2.301  10.830 -0.1003 -0.4727  0.4495
 1000MOL0     H37958   1.117   2.512  10.681 -0.6001  0.3859 -3.1087
 1000MOL0     H37959   0.856   2.391  10.494  1.8756  1.2957 -1.4002
 1000MOL0     H37960   0.885   2.531  10.599 -0.0741 -0.0804  1.4209
 1000MOL0     H37961   0.786   2.396  10.657 -1.7442 -1.1541 -2.3506
 1000MOL0     H37962   0.826   1.810  10.471 -0.4184  0.4467  0.3627
 1000MOL0     H37963   0.640   1.657  10.485  0.4411 -0.1094 -0.6319
 1000MOL0     H37964   0.363   1.750  10.625  2.1676 -0.4758  1.2205
 1000MOL0     H37965   0.364   1.603  10.519 -1.6741  1.6528 -0.9314
 1000MOL0     H37966   0.158   1.606  10.663  0.9112  1.9502 -1.0332
 1000MOL0     H37967   0.257   1.469  10.662 -1.1781  1.2612 -2.1834
 1000MOL0     H37968   0.281   1.703  10.876  1.7545 -0.3261  2.0639
 1000MOL0     H37969   0.380   1.552  10.884 -1.9985 -2.7451 -1.9325
 1000MOL0     H37970   0.208   1.410  10.925 -2.5051 -0.8016  0.0033
 1000MOL0     H37971   0.082   1.529  10.910  0.1672  1.6473 -1.3746
 1000MOL0     H37972   0.178   1.483  11.148 -1.8581  0.8718  0.7857
 1000MOL0     H37973   0.326   1.555  11.113 -0.0317  2.6811  0.6449
 1000MOL0     H37974   0.060   1.690  11.079 -0.2852 -1.2796  1.0035
 1000MOL0     H37975   0.208   1.791  11.079 -0.8093 -0.6051 -3.9226
 1000MOL0     H37976   0.238   1.693  11.335 -1.1743 -0.3478  1.7026
 1000MOL0     H37977   0.066   1.656  11.310 -0.5583 -0.8710 -3.7534
 1000MOL0     H37978   0.214   1.932  11.290 -1.5056  1.0223 -3.6070
 1000MOL0     H37979   0.135   1.861  11.427  0.4880 -2.9713 -0.7419
 1000MOL0     H37980   0.549   1.785  10.867 -1.7886  2.0589 -0.4492
 1000MOL0     H37981   0.716   1.994  10.841  1.3136 -0.3460 -1.1960
 1000MOL0     H37982   1.112   2.029  10.738  2.2203  1.2291 -0.0116
 1000MOL0     H37983   1.298   2.144  10.796 -0.2921 -1.7794 -0.6935
 1000MOL0     H37984   2.931   2.367  10.189 -2.0652 -0.1136  1.3172
 1000MOL0     H37985   3.006   2.348   9.961  2.7190 -0.7880  0.5866
 1000MOL0     H37986   3.277   2.189   9.584  3.6910 -2.7257 -2.1260
 1000MOL0     H37987   3.309   2.096   9.369  0.5352  2.4920  1.4338
 1000MOL0     H37988   3.033   2.075   9.097 -1.8677  0.7680  3.3183
 1000MOL0     H37989   3.182   2.159   9.155  2.8199 -0.2801 -1.9430
 1000MOL0     H37990   3.176   1.906   8.972  2.1433 -1.8501  1.6330
 1000MOL0     H37991   3.316   1.986   9.044  0.0663 -1.1638 -0.3612
 1000MOL0     H37992   3.111   2.122   8.873 -0.3545 -1.1886  1.2524
 1000MOL0     H37993   3.273   2.196   8.907  3.2383 -0.7001 -2.8505
 1000MOL0     H37994   3.378   2.037   8.764  0.0410 -2.3984 -1.1343
 1000MOL0     H37995   3.259   2.132   8.684  0.5420 -1.3965 -0.3729
 1000MOL0     H37996   3.080   1.746   8.663  0.9298 -0.8707 -0.1898
 1000MOL0     H37997   2.926   1.909   9.377  2.2336 -1.9215  0.3916
 1000MOL0     H37998   2.792   1.900   9.548  0.0862  2.4898 -3.2638
 1000MOL0     H37999   2.870   1.924   9.716  1.1901 -0.8473 -1.5653
 1000MOL0     H38000   2.786   2.051   9.640 -0.8201 -1.1267  3.0950
 1001MOL0     O38001   6.041   7.435   8.069  0.4200 -0.6920 -0.2306
 1001MOL0     C38002   6.008   7.321   8.037 -0.9525 -0.1419  0.2173
 1001MOL0     O38003   5.888   7.263   8.067 -0.3865  0.2542  1.0092
 1001MOL0     C38004   5.783   7.341   8.116 -0.0130  0.4404 -0.2590
 1001MOL0     C38005   5.748   7.352   8.261  0.6121  0.7913  0.7803
 1001MOL0     C38006   5.631   7.423   8.290  0.1087 -0.2871 -0.4396
 1001MOL0     C38007   5.551   7.487   8.189  0.0933 -0.7979  0.2351
 1001MOL0     O38008   5.432   7.544   8.227 -0.4240 -0.3715  0.4845
 1001MOL0     C38009   5.328   7.554   8.122 -1.2840 -0.7118  0.6586
 1001MOL0     C38010   5.190   7.539   8.187  0.2575 -0.3389  0.2560
 1001MOL0     C38011   5.098   7.604   8.081 -0.0071  0.2923 -1.0854
 1001MOL0     C38012   4.951   7.581   8.121  0.0533 -0.5540  0.9358
 1001MOL0     C38013   4.900   7.639   8.251  0.0544 -0.4488  0.5075
 1001MOL0     C38014   4.891   7.792   8.247  0.3746 -0.6474  0.0639
 1001MOL0     C38015   5.024   7.840   8.310  0.0337  0.3892 -0.2465
 1001MOL0     C38016   5.008   7.832   8.467  0.9116  0.5376 -1.0974
 1001MOL0     N38017   4.927   7.939   8.523  0.4289 -0.2557  1.4644
 1001MOL0     C38018   4.792   7.945   8.558 -0.6439  0.8897 -0.2242
 1001MOL0     C38019   4.773   8.065   8.606  0.1759  0.8776 -0.3818
 1001MOL0     C38020   4.636   8.123   8.627 -0.2810  0.3292 -0.1109
 1001MOL0     C38021   4.537   8.132   8.514 -1.3845  0.1249 -0.5435
 1001MOL0     C38022   4.474   7.998   8.466 -0.9556  0.0474  0.9840
 1001MOL0     C38023   4.347   8.025   8.374 -0.0403 -0.7650  0.1146
 1001MOL0     O38024   4.282   7.901   8.344  0.2187 -0.7325  1.0017
 1001MOL0     C38025   4.259   7.859   8.211  0.4126 -0.5744  0.2477
 1001MOL0     C38026   4.251   7.724   8.194  0.2219 -0.3457 -0.4266
 1001MOL0     C38027   4.202   7.660   8.081  0.2008 -0.4332 -1.3619
 1001MOL0     C38028   4.174   7.509   8.103  1.0131 -1.3800  0.0458
 1001MOL0     C38029   4.176   7.734   7.962  0.0671 -1.2457 -1.0817
 1001MOL0     C38030   4.131   7.678   7.829 -0.9407 -0.3964  0.4681
 1001MOL0     O38031   4.090   7.552   7.819 -0.0666  0.4423  0.4403
 1001MOL0     C38032   4.116   7.480   7.701 -0.3962  0.2396  0.4000
 1001MOL0     C38033   4.226   7.403   7.685  0.2755  0.2987  0.2215
 1001MOL0     C38034   4.250   7.326   7.574 -0.4908 -0.3433 -0.3166
 1001MOL0     C38035   4.152   7.328   7.474 -0.5134 -1.4646 -0.3896
 1001MOL0     O38036   4.182   7.289   7.348  0.3889  0.0689 -0.2515
 1001MOL0     C38037   4.271   7.376   7.284 -0.1078 -0.0154  0.5125
 1001MOL0     C38038   4.281   7.355   7.132 -0.2142  0.0796  0.0401
 1001MOL0     C38039   4.326   7.212   7.086 -1.0674 -0.7941  0.2872
 1001MOL0     C38040   4.330   7.195   6.939 -0.3674  0.8702  0.7297
 1001MOL0     C38041   4.373   7.059   6.905  0.0776  1.0704  0.1345
 1001MOL0     C38042   4.523   7.037   6.933  0.1253 -0.0970  0.8575
 1001MOL0     C38043   4.599   7.124   6.822  0.3298  0.0180 -0.2243
 1001MOL0     C38044   4.759   7.113   6.828 -0.6009 -0.3440  0.5480
 1001MOL0    Cl38045   4.805   6.945   6.813 -0.0728 -0.1159 -0.0338
 1001MOL0     C38046   4.029   7.401   7.492 -0.4852 -0.1818 -0.1396
 1001MOL0     C38047   4.014   7.480   7.602 -0.6588  0.4863  0.4179
 1001MOL0     O38048   4.142   7.748   7.730  0.9708  0.1102  0.5947
 1001MOL0     C38049   4.205   7.875   7.980  1.1053  1.0713  0.2120
 1001MOL0     C38050   4.242   7.935   8.098 -0.0546  0.0919  0.8867
 1001MOL0     N38051   4.896   8.119   8.618 -0.1454  0.2744 -0.0624
 1001MOL0     N38052   4.987   8.044   8.576 -0.0509 -0.2673  0.0948
 1001MOL0     C38053   5.598   7.478   8.052  0.5619  0.2716 -0.1511
 1001MOL0     C38054   5.710   7.400   8.016  0.4325 -0.5211 -0.0515
 1001MOL0     C38055   6.111   7.221   7.991  0.8038  1.1125  0.2006
 1001MOL0     C38056   6.105   7.077   8.018 -0.2131  0.9546  0.9266
 1001MOL0     C38057   6.201   6.984   7.961 -0.4342 -1.0809  0.3067
 1001MOL0     C38058   6.301   7.029   7.876  0.5841  0.6042  0.8729
 1001MOL0     O38059   6.386   6.923   7.831 -0.3000 -0.2112 -0.1083
 1001MOL0     C38060   6.512   6.964   7.783 -0.1455  0.0671  1.0382
 1001MOL0     C38061   6.610   7.022   7.885  0.3214 -0.6674  0.6852
 1001MOL0     C38062   6.745   7.058   7.817  0.7090 -0.1863  1.6078
 1001MOL0     C38063   6.856   7.066   7.918  1.2319 -0.6141 -0.6313
 1001MOL0     C38064   6.978   7.028   7.847  0.7898 -0.2890  0.0326
 1001MOL0     C38065   7.090   7.019   7.805 -0.2107 -0.3035  0.1336
 1001MOL0     C38066   6.308   7.166   7.857  0.6943 -0.7712  0.4764
 1001MOL0     C38067   6.214   7.263   7.910  0.1235 -0.0397  0.7660
 1001MOL0     C38068   6.223   7.403   7.856  0.4842 -0.3109 -0.2674
 1001MOL0     H38069   5.799   7.307   8.345 -1.4529 -1.4380  0.9711
 1001MOL0     H38070   5.597   7.427   8.393  2.2196 -1.1128  0.3338
 1001MOL0     H38071   5.344   7.488   8.036 -3.0159  2.2841 -2.2268
 1001MOL0     H38072   5.322   7.650   8.070 -1.3032 -1.7258 -1.3161
 1001MOL0     H38073   5.161   7.436   8.210 -0.4848 -0.9937 -3.0362
 1001MOL0     H38074   5.191   7.592   8.283  1.0830  1.1268 -0.5276
 1001MOL0     H38075   5.114   7.710   8.064  2.9111  0.3768  1.2292
 1001MOL0     H38076   5.119   7.552   7.987  1.4215 -0.3809 -0.4286
 1001MOL0     H38077   4.885   7.627   8.046 -1.4451 -0.1726  2.4282
 1001MOL0     H38078   4.934   7.474   8.130  1.9523 -0.7556  2.8733
 1001MOL0     H38079   4.962   7.614   8.338  1.1864  1.0634  0.1845
 1001MOL0     H38080   4.804   7.591   8.273 -1.0152  0.7444 -1.3116
 1001MOL0     H38081   4.890   7.843   8.151  1.8632 -0.1921  0.2563
 1001MOL0     H38082   4.804   7.824   8.305 -1.7343 -2.6719 -1.7700
 1001MOL0     H38083   5.045   7.946   8.293  3.7370 -0.4288 -1.9184
 1001MOL0     H38084   5.106   7.784   8.264  1.0344  3.4229 -2.4467
 1001MOL0     H38085   4.962   7.738   8.499 -0.0927  1.1113 -0.8051
 1001MOL0     H38086   5.105   7.831   8.517  0.6335 -2.0263 -0.4524
 1001MOL0     H38087   4.717   7.870   8.536  0.4621 -0.9564  1.9096
 1001MOL0     H38088   4.658   8.218   8.677 -0.1262 -0.1629  0.7817
 1001MOL0     H38089   4.593   8.055   8.701  0.2056  2.9938  2.8523
 1001MOL0     H38090   4.451   8.194   8.541  0.0718  1.6471  0.8346
 1001MOL0     H38091   4.579   8.191   8.433  2.7858 -0.8855  0.6297
 1001MOL0     H38092   4.544   7.943   8.402  0.3026  3.2285 -0.5698
 1001MOL0     H38093   4.460   7.926   8.548  4.6108  1.3784  3.5808
 1001MOL0     H38094   4.270   8.082   8.427 -1.2092 -2.5884  0.4826
 1001MOL0     H38095   4.373   8.082   8.284 -0.5179 -0.1561  0.3529
 1001MOL0     H38096   4.270   7.665   8.283  1.9216  0.5707 -0.1489
 1001MOL0     H38097   4.250   7.440   8.066  3.4804  0.4058  1.4653
 1001MOL0     H38098   4.078   7.480   8.058  1.2999 -3.6876  0.7793
 1001MOL0     H38099   4.168   7.499   8.212 -1.3579  1.6291  0.3355
 1001MOL0     H38100   4.294   7.402   7.770 -2.9469 -2.2382  3.0424
 1001MOL0     H38101   4.348   7.278   7.568 -0.0749  0.6648 -3.3127
 1001MOL0     H38102   4.245   7.480   7.303 -1.9267 -0.2127 -0.6786
 1001MOL0     H38103   4.372   7.352   7.318 -0.5672 -0.9204  1.2878
 1001MOL0     H38104   4.179   7.360   7.091 -0.0119 -1.5993 -0.7764
 1001MOL0     H38105   4.358   7.422   7.093  0.9359 -0.2497  1.6567
 1001MOL0     H38106   4.263   7.140   7.139 -0.1559 -0.9712  1.1743
 1001MOL0     H38107   4.431   7.210   7.117 -1.5332  0.9138  2.2418
 1001MOL0     H38108   4.389   7.267   6.882  2.3008 -3.5066 -2.6548
 1001MOL0     H38109   4.228   7.205   6.900  0.2572  0.2312 -1.1913
 1001MOL0     H38110   4.315   6.996   6.971  0.3372  0.0702 -0.5642
 1001MOL0     H38111   4.352   7.026   6.803  2.1906  0.9987 -0.3397
 1001MOL0     H38112   4.531   6.929   6.914 -1.7103  0.0264 -0.9002
 1001MOL0     H38113   4.569   7.042   7.032  4.5482 -0.7610 -0.9395
 1001MOL0     H38114   4.573   7.229   6.838 -0.5523 -0.2345  0.0482
 1001MOL0     H38115   4.572   7.078   6.727  3.1735 -1.7641 -0.3087
 1001MOL0     H38116   4.776   7.150   6.930  2.2710  1.8894 -0.6044
 1001MOL0     H38117   4.806   7.178   6.753 -1.0511  3.0550  2.9759
 1001MOL0     H38118   3.962   7.418   7.408 -1.1919 -0.1023  0.4266
 1001MOL0     H38119   3.925   7.541   7.615  1.7819  4.1389  1.2457
 1001MOL0     H38120   4.187   7.943   7.896 -0.3481  0.3520 -0.0938
 1001MOL0     H38121   4.255   8.043   8.105  1.1667 -0.0047  0.2886
 1001MOL0     H38122   5.549   7.530   7.970 -1.3612  1.1621  1.4892
 1001MOL0     H38123   5.740   7.389   7.912  2.9386 -2.4522  0.7783
 1001MOL0     H38124   6.026   7.036   8.080  1.7817 -1.1167  2.2447
 1001MOL0     H38125   6.181   6.881   7.988 -0.8408 -1.0135  0.2684
 1001MOL0     H38126   6.557   6.883   7.726  0.2186  1.7044 -1.1525
 1001MOL0     H38127   6.493   7.047   7.714 -0.1918  2.2317  3.5046
 1001MOL0     H38128   6.621   6.952   7.969  1.8582  0.4088  1.4435
 1001MOL0     H38129   6.561   7.114   7.916 -2.7158 -1.3528 -1.6539
 1001MOL0     H38130   6.771   6.980   7.744 -2.2655  0.2911 -0.1047
 1001MOL0     H38131   6.734   7.151   7.761 -0.0823 -2.1654 -1.7994
 1001MOL0     H38132   6.835   6.993   7.997 -0.4765  2.0580  1.5949
 1001MOL0     H38133   6.879   7.166   7.955 -1.5782 -0.9496  2.5074
 1001MOL0     H38134   7.190   7.016   7.768 -0.5567  2.0007 -1.1638
 1001MOL0     H38135   6.386   7.209   7.795  2.5012 -3.1924  0.9110
 1001MOL0     H38136   6.316   7.412   7.800 -1.0866 -2.4751 -3.5679
 1001MOL0     H38137   6.142   7.417   7.784  1.0317 -0.8457 -0.9947
 1001MOL0     H38138   6.212   7.483   7.929  0.2859  0.9037 -1.5921
 1002MOL0     O38139   2.548   1.462   7.957  0.3136  0.1348 -1.4811
 1002MOL0     C38140   2.623   1.400   8.038  0.3636  0.9554 -0.0047
 1002MOL0     O38141   2.582   1.353   8.162  1.2263 -0.2861  0.2613
 1002MOL0     C38142   2.456   1.392   8.213 -0.3989 -1.1904  0.3422
 1002MOL0     C38143   2.347   1.313   8.191  0.4403 -1.0771 -0.4484
 1002MOL0     C38144   2.219   1.367   8.223  0.9694  0.0541 -0.0396
 1002MOL0     C38145   2.203   1.503   8.268  0.1636 -0.3647 -0.4346
 1002MOL0     O38146   2.077   1.540   8.309  0.1391 -0.0930 -0.1354
 1002MOL0     C38147   2.014   1.618   8.205  0.5657  0.4306  0.5444
 1002MOL0     C38148   1.935   1.738   8.251 -0.2741  0.1597  0.1922
 1002MOL0     C38149   1.801   1.695   8.316 -0.5021  0.5889  0.0877
 1002MOL0     C38150   1.693   1.676   8.199  0.1044 -0.7602 -1.0371
 1002MOL0     C38151   1.557   1.661   8.260 -0.8608 -0.1532 -0.3848
 1002MOL0     C38152   1.548   1.525   8.329  0.6280  0.0105 -0.1660
 1002MOL0     C38153   1.398   1.493   8.349 -0.8016 -0.8957 -0.6252
 1002MOL0     C38154   1.365   1.379   8.446  0.0717 -0.2084  0.5436
 1002MOL0     N38155   1.415   1.253   8.392  0.0811  0.4108 -0.1240
 1002MOL0     C38156   1.377   1.194   8.273  0.1844  1.4423  0.1206
 1002MOL0     C38157   1.448   1.074   8.274  0.1679 -0.0029  0.4822
 1002MOL0     C38158   1.439   0.968   8.171  0.3122 -0.7694  1.1160
 1002MOL0     C38159   1.325   0.878   8.200  0.3427 -0.3622 -1.1519
 1002MOL0     C38160   1.328   0.812   8.343 -0.2009 -0.4642  0.1900
 1002MOL0     C38161   1.453   0.732   8.389 -0.4259 -0.7387 -0.3267
 1002MOL0     O38162   1.430   0.681   8.522 -0.0765 -0.5337  0.8786
 1002MOL0     C38163   1.501   0.729   8.616  0.0889 -0.7346 -0.8015
 1002MOL0     C38164   1.505   0.860   8.661  0.3056 -0.6260  1.2856
 1002MOL0     C38165   1.565   0.887   8.778  0.3495  0.8721  0.0995
 1002MOL0     C38166   1.598   1.032   8.795 -0.0596 -0.3741 -0.1022
 1002MOL0     C38167   1.611   0.786   8.861  1.1881  0.2674  0.6548
 1002MOL0     C38168   1.662   0.816   8.996  0.4407 -0.2830  0.1949
 1002MOL0     O38169   1.734   0.718   9.052  0.1118  0.1800 -0.2248
 1002MOL0     C38170   1.775   0.743   9.173 -0.4462  0.1387 -1.4256
 1002MOL0     C38171   1.699   0.722   9.292 -0.5409  0.2826  0.9562
 1002MOL0     C38172   1.747   0.754   9.423  0.6207  0.7707 -0.5358
 1002MOL0     C38173   1.866   0.822   9.432  0.5046 -0.4658  0.4201
 1002MOL0     O38174   1.930   0.852   9.555 -0.7898 -0.8959  0.0433
 1002MOL0     C38175   1.912   0.990   9.602 -0.0190  0.6117  0.4426
 1002MOL0     C38176   1.774   0.996   9.674 -0.8054  1.0650  0.5071
 1002MOL0     C38177   1.724   0.901   9.785  0.3214  0.2304  0.3199
 1002MOL0     C38178   1.579   0.917   9.825  0.3457 -0.9327  0.0250
 1002MOL0     C38179   1.526   1.059   9.860  0.7904  0.5138  0.4256
 1002MOL0     C38180   1.604   1.127   9.967  0.2831 -0.2219  0.1136
 1002MOL0     C38181   1.562   1.279   9.974  0.0961  0.4958  0.5288
 1002MOL0     C38182   1.574   1.333  10.112  0.4002 -0.2921 -0.0958
 1002MOL0    Cl38183   1.491   1.501  10.117  0.1874  0.2099  0.0027
 1002MOL0     C38184   1.939   0.845   9.308  0.6637 -0.3289  0.6033
 1002MOL0     C38185   1.900   0.801   9.181 -0.0376 -0.7595 -0.1839
 1002MOL0     O38186   1.612   0.910   9.056  0.3477  0.6748  0.0066
 1002MOL0     C38187   1.587   0.655   8.833 -0.1085 -0.5311 -0.1517
 1002MOL0     C38188   1.534   0.625   8.708  0.0262  0.4087  0.0533
 1002MOL0     N38189   1.536   1.072   8.381  0.0632  0.0890 -0.1742
 1002MOL0     N38190   1.514   1.179   8.460  0.7316 -0.2161  0.0107
 1002MOL0     C38191   2.315   1.582   8.298  0.9543  0.6055  0.9470
 1002MOL0     C38192   2.441   1.521   8.279 -0.1291 -0.3926 -0.9323
 1002MOL0     C38193   2.758   1.346   7.992  0.9352 -0.2629  0.1318
 1002MOL0     C38194   2.839   1.267   8.073  0.6941  0.7147  0.1010
 1002MOL0     C38195   2.978   1.246   8.036  0.5344  0.2884  0.4721
 1002MOL0     C38196   3.030   1.293   7.921  0.6732  0.4240  0.2418
 1002MOL0     O38197   3.164   1.278   7.878 -0.5516  0.1138 -0.3741
 1002MOL0     C38198   3.250   1.181   7.949  0.8598  0.0679 -1.2249
 1002MOL0     C38199   3.394   1.190   7.903  0.3290 -0.4963  0.1893
 1002MOL0     C38200   3.453   1.336   7.941 -0.3009  0.0333 -0.1880
 1002MOL0     C38201   3.414   1.452   7.855  0.7982 -0.0933 -0.1512
 1002MOL0     C38202   3.400   1.444   7.715  0.3062  0.2496  0.0887
 1002MOL0     C38203   3.406   1.458   7.596 -1.4061  0.3066  0.4689
 1002MOL0     C38204   2.944   1.365   7.837 -0.5109  0.1911 -0.5690
 1002MOL0     C38205   2.810   1.386   7.868  1.1376 -0.4203 -1.1491
 1002MOL0     C38206   2.734   1.450   7.755 -0.7126  0.2454  0.2200
 1002MOL0     H38207   2.347   1.212   8.150  2.2208 -1.7493  1.0586
 1002MOL0     H38208   2.130   1.304   8.217 -0.1245  1.6194 -0.9295
 1002MOL0     H38209   1.951   1.544   8.155  1.4403  0.5313 -0.7497
 1002MOL0     H38210   2.082   1.658   8.129 -1.1431  2.1275 -0.1841
 1002MOL0     H38211   2.005   1.785   8.320 -1.0369  0.7953  0.5399
 1002MOL0     H38212   1.920   1.801   8.163  0.5138  1.8951  1.2653
 1002MOL0     H38213   1.814   1.594   8.357 -3.7039 -1.9776 -4.3796
 1002MOL0     H38214   1.776   1.769   8.393  2.6754  2.6380 -0.6554
 1002MOL0     H38215   1.695   1.764   8.134 -2.0035 -0.7814 -1.1868
 1002MOL0     H38216   1.709   1.589   8.135  1.6988 -0.7413 -0.7060
 1002MOL0     H38217   1.477   1.668   8.186 -0.4222 -1.8848 -1.1000
 1002MOL0     H38218   1.528   1.746   8.321 -3.0000 -1.9642  1.2963
 1002MOL0     H38219   1.596   1.449   8.267  0.7003  1.6580 -2.2400
 1002MOL0     H38220   1.602   1.533   8.424 -0.1026  4.2688  0.0771
 1002MOL0     H38221   1.359   1.465   8.251 -2.6662  0.8410 -0.4577
 1002MOL0     H38222   1.353   1.580   8.397  0.2114 -0.8171  0.2313
 1002MOL0     H38223   1.407   1.397   8.545 -0.5047  0.3771  0.6867
 1002MOL0     H38224   1.256   1.366   8.449 -0.1282  0.8317 -0.8090
 1002MOL0     H38225   1.300   1.239   8.212 -0.4821  0.6121  0.3277
 1002MOL0     H38226   1.529   0.907   8.153  0.4022 -0.6097  1.0233
 1002MOL0     H38227   1.408   1.011   8.075 -3.8266 -0.5694  2.3918
 1002MOL0     H38228   1.224   0.918   8.188 -0.6004 -1.5729  1.7565
 1002MOL0     H38229   1.341   0.793   8.133  0.5995  0.2517 -1.8727
 1002MOL0     H38230   1.308   0.895   8.412  3.2220  0.5961  0.0920
 1002MOL0     H38231   1.244   0.745   8.364  1.6605 -2.0254  3.5198
 1002MOL0     H38232   1.465   0.644   8.325  1.2157 -0.6180 -0.2113
 1002MOL0     H38233   1.545   0.790   8.390  0.2330 -1.3788 -4.5941
 1002MOL0     H38234   1.479   0.937   8.589  2.7957 -1.2675 -0.4497
 1002MOL0     H38235   1.525   1.080   8.862  1.6995 -0.8168  2.2842
 1002MOL0     H38236   1.606   1.081   8.698  2.1534  0.1599  0.3021
 1002MOL0     H38237   1.696   1.033   8.843 -0.1160 -2.3070  0.1260
 1002MOL0     H38238   1.610   0.668   9.261  0.3335 -1.2942  1.1061
 1002MOL0     H38239   1.695   0.755   9.518 -0.8331  0.8739 -1.3147
 1002MOL0     H38240   1.999   1.023   9.659  0.9527 -0.1947 -0.5281
 1002MOL0     H38241   1.893   1.048   9.511 -0.7336 -2.6000 -1.6374
 1002MOL0     H38242   1.770   1.098   9.711 -0.8895  1.7893 -1.3709
 1002MOL0     H38243   1.696   0.996   9.598 -0.2669  3.1988 -0.1038
 1002MOL0     H38244   1.781   0.924   9.876 -2.7104  2.8416  1.7546
 1002MOL0     H38245   1.756   0.800   9.754  2.1050  1.3563 -1.8119
 1002MOL0     H38246   1.554   0.853   9.910 -0.1366  0.8848  1.2976
 1002MOL0     H38247   1.532   0.879   9.733  0.9335  0.4515 -0.8889
 1002MOL0     H38248   1.525   1.122   9.771  2.0327 -0.4328 -0.2929
 1002MOL0     H38249   1.421   1.045   9.889  0.3298 -0.6552 -1.6028
 1002MOL0     H38250   1.713   1.117   9.958  0.2413 -2.2045  1.3216
 1002MOL0     H38251   1.579   1.073  10.059 -1.8698  1.7131  0.7676
 1002MOL0     H38252   1.455   1.282   9.952 -0.1393 -0.4161  1.4815
 1002MOL0     H38253   1.615   1.347   9.907 -2.3916  2.3630  0.2947
 1002MOL0     H38254   1.677   1.348  10.146 -0.2687  1.1792  1.4509
 1002MOL0     H38255   1.529   1.269  10.187  1.2835 -1.0303 -0.1816
 1002MOL0     H38256   2.030   0.904   9.315  0.0428  1.2670 -2.7412
 1002MOL0     H38257   1.956   0.821   9.090  1.7488  0.2295  1.0748
 1002MOL0     H38258   1.604   0.581   8.910  1.9686  1.7644  1.8084
 1002MOL0     H38259   1.534   0.519   8.683  1.8069  0.6487 -1.1277
 1002MOL0     H38260   2.316   1.685   8.333  0.9808  1.8484 -2.3279
 1002MOL0     H38261   2.530   1.582   8.292 -0.7077  0.4134 -0.7053
 1002MOL0     H38262   2.801   1.219   8.162 -0.9158  0.5087 -0.6529
 1002MOL0     H38263   3.045   1.185   8.097  0.6386 -0.5473 -0.4576
 1002MOL0     H38264   3.248   1.206   8.055 -2.3593 -0.9152 -0.9282
 1002MOL0     H38265   3.215   1.080   7.925 -1.2462  1.0230 -2.4860
 1002MOL0     H38266   3.403   1.181   7.794  2.7406  1.4447  0.1469
 1002MOL0     H38267   3.453   1.111   7.950  1.8465  1.3251  1.4833
 1002MOL0     H38268   3.441   1.363   8.046  0.2303  1.7208 -0.5278
 1002MOL0     H38269   3.559   1.318   7.925 -0.0752 -3.1378  3.5465
 1002MOL0     H38270   3.496   1.525   7.863  2.3492 -1.6528 -1.1833
 1002MOL0     H38271   3.330   1.501   7.905  0.7922 -1.7946  1.6673
 1002MOL0     H38272   3.419   1.445   7.490 -0.4053 -0.3957  0.6597
 1002MOL0     H38273   2.992   1.407   7.749  0.3643  0.4401  0.0146
 1002MOL0     H38274   2.799   1.479   7.672 -0.8544  3.0833  0.9789
 1002MOL0     H38275   2.644   1.395   7.726 -3.0105  2.2800  2.8380
 1002MOL0     H38276   2.706   1.548   7.795  2.7622  2.2171 -1.7002
 1003MOL0     O38277   1.246   9.363   2.994  0.3687 -0.0457 -0.3715
 1003MOL0     C38278   1.320   9.425   2.915  0.6349  0.9227 -0.3317
 1003MOL0     O38279   1.416   9.367   2.835  0.1692 -0.3494 -0.6804
 1003MOL0     C38280   1.466   9.247   2.864  0.1321  0.4179  1.2264
 1003MOL0     C38281   1.503   9.209   2.995  0.4158  0.1880 -0.6236
 1003MOL0     C38282   1.571   9.086   3.011 -0.0254  0.9470  0.2891
 1003MOL0     C38283   1.608   8.999   2.909  0.2266 -0.5251  0.5272
 1003MOL0     O38284   1.703   8.899   2.941 -0.0070 -0.5235 -0.5577
 1003MOL0     C38285   1.821   8.959   2.998 -0.0495 -0.2538 -0.1879
 1003MOL0     C38286   1.929   8.874   2.938 -0.7545  0.4612  0.5297
 1003MOL0     C38287   1.949   8.918   2.787  0.4672 -0.3499  0.6643
 1003MOL0     C38288   2.017   8.799   2.723 -0.7421  1.0734  0.1451
 1003MOL0     C38289   2.078   8.847   2.594 -0.0173  0.1686 -0.9005
 1003MOL0     C38290   2.159   8.743   2.510 -0.0749  0.0500 -0.3365
 1003MOL0     C38291   2.211   8.801   2.379 -0.3620 -0.6810 -0.7185
 1003MOL0     C38292   2.112   8.775   2.273 -0.0040 -0.0508 -0.2982
 1003MOL0     N38293   2.171   8.824   2.151  1.1822 -0.0563  0.1140
 1003MOL0     C38294   2.119   8.928   2.086 -0.6463  0.2199  0.3753
 1003MOL0     C38295   2.176   8.914   1.970  0.4293  0.4202  0.8452
 1003MOL0     C38296   2.137   9.016   1.865  0.0735  0.2848  0.1847
 1003MOL0     C38297   2.005   8.968   1.790 -0.5565 -0.8201 -0.9774
 1003MOL0     C38298   1.975   9.070   1.679 -0.1594  0.4216  1.1594
 1003MOL0     C38299   1.949   8.998   1.543 -0.3897  0.1966 -0.1562
 1003MOL0     O38300   1.848   9.075   1.470  0.0369 -0.3818  0.2977
 1003MOL0     C38301   1.777   9.022   1.363 -0.5187 -0.0860  0.6792
 1003MOL0     C38302   1.819   8.904   1.290  0.1361 -0.1358 -0.3886
 1003MOL0     C38303   1.757   8.858   1.175  0.9245 -1.0460  0.5456
 1003MOL0     C38304   1.809   8.736   1.105 -0.1631  1.0116  0.3642
 1003MOL0     C38305   1.640   8.942   1.133  0.6642  1.0916  1.5329
 1003MOL0     C38306   1.566   8.912   1.014  0.2792  0.6188 -0.1794
 1003MOL0     O38307   1.531   8.781   0.986 -0.3444 -0.2623  0.2644
 1003MOL0     C38308   1.489   8.759   0.849  0.3856 -0.0655 -0.6007
 1003MOL0     C38309   1.565   8.663   0.770 -0.6084  0.5333  1.1697
 1003MOL0     C38310   1.534   8.629   0.640  0.0324  0.9307 -0.0598
 1003MOL0     C38311   1.426   8.687   0.574  0.1531  0.3449 -0.4892
 1003MOL0     O38312   1.409   8.657   0.440 -0.0328 -0.6095  0.0123
 1003MOL0     C38313   1.313   8.726   0.366  0.6836  0.8990  0.4518
 1003MOL0     C38314   1.279   8.640   0.241  0.3142 -0.3243 -0.1714
 1003MOL0     C38315   1.270   8.723   0.112 -0.6687  0.2036 -0.2775
 1003MOL0     C38316   1.198   8.659  -0.003 -0.5215  0.8677  0.4341
 1003MOL0     C38317   1.057   8.624   0.027  0.5004  0.2480 -0.7368
 1003MOL0     C38318   1.031   8.478  -0.015  0.7174 -0.2953 -0.6622
 1003MOL0     C38319   0.899   8.420   0.034 -0.3290 -1.1284 -0.6152
 1003MOL0     C38320   0.896   8.367   0.171  0.0924 -0.3905 -0.4069
 1003MOL0    Cl38321   0.951   8.192   0.166 -0.6605  0.4755 -0.7442
 1003MOL0     C38322   1.353   8.780   0.641 -0.1870  0.0620 -0.6763
 1003MOL0     C38323   1.390   8.824   0.773 -0.1298 -0.2685  0.2442
 1003MOL0     O38324   1.532   9.011   0.947  0.3058  0.7495  0.4453
 1003MOL0     C38325   1.595   9.048   1.214  0.7468 -0.0568 -0.2885
 1003MOL0     C38326   1.667   9.089   1.326 -0.0649  0.3176  0.4230
 1003MOL0     N38327   2.258   8.802   1.953  1.1028  0.1407 -0.0177
 1003MOL0     N38328   2.249   8.746   2.069 -0.7210 -0.0463 -0.6379
 1003MOL0     C38329   1.560   9.026   2.783 -0.8695 -0.8616  0.3808
 1003MOL0     C38330   1.501   9.152   2.759 -0.6559 -0.4060  0.1922
 1003MOL0     C38331   1.294   9.569   2.895 -0.4492 -0.1603 -0.0917
 1003MOL0     C38332   1.402   9.635   2.832 -0.3045 -0.4498  0.0086
 1003MOL0     C38333   1.396   9.766   2.793  0.3340  0.2429  0.2250
 1003MOL0     C38334   1.283   9.845   2.817 -0.7702  0.3277  0.7837
 1003MOL0     O38335   1.296   9.981   2.781  0.5949  0.2594  0.2006
 1003MOL0     C38336   1.335  10.069   2.879 -0.6172  0.2125  0.1701
 1003MOL0     C38337   1.436  10.171   2.815  0.1236 -0.6332 -0.1831
 1003MOL0     C38338   1.481  10.275   2.922 -0.4594 -0.2188 -0.7292
 1003MOL0     C38339   1.560  10.387   2.848  0.1796  0.4399  0.0318
 1003MOL0     C38340   1.690  10.337   2.801 -0.1184 -0.1730  0.0961
 1003MOL0     C38341   1.794  10.289   2.765 -0.0099 -0.4726  0.8117
 1003MOL0     C38342   1.169   9.785   2.870 -0.8559  0.4411 -0.3414
 1003MOL0     C38343   1.178   9.647   2.921 -0.1838 -0.2862  0.0997
 1003MOL0     C38344   1.061   9.586   2.985 -0.1070 -0.5635  1.1023
 1003MOL0     H38345   1.498   9.281   3.076  2.6862  0.7596 -0.9427
 1003MOL0     H38346   1.609   9.066   3.111  1.5998 -0.2224 -0.5348
 1003MOL0     H38347   1.815   8.945   3.106 -0.4210 -0.0330 -0.1797
 1003MOL0     H38348   1.829   9.065   2.974  0.0996 -0.2884 -0.2922
 1003MOL0     H38349   2.024   8.904   2.983 -0.9748  3.3761 -0.7464
 1003MOL0     H38350   1.924   8.770   2.970  1.4722  0.5215  1.2746
 1003MOL0     H38351   1.850   8.924   2.741  0.0433 -1.9866  1.2665
 1003MOL0     H38352   2.010   9.008   2.781 -0.9341  0.5762 -0.0405
 1003MOL0     H38353   2.100   8.753   2.777  0.5207  0.1066 -2.4166
 1003MOL0     H38354   1.950   8.718   2.692  1.4440 -0.3359 -1.1547
 1003MOL0     H38355   2.151   8.923   2.624 -0.5287  1.3561 -2.5215
 1003MOL0     H38356   2.003   8.894   2.530 -2.1228 -1.3470  0.2965
 1003MOL0     H38357   2.250   8.715   2.564 -1.4659 -3.4730  0.5270
 1003MOL0     H38358   2.103   8.650   2.495  1.8847 -1.5906  1.8259
 1003MOL0     H38359   2.304   8.750   2.352 -0.4076 -0.1349 -1.9861
 1003MOL0     H38360   2.243   8.904   2.395 -2.1252 -0.3397  0.9535
 1003MOL0     H38361   2.103   8.666   2.268  3.7460 -0.4896 -0.1879
 1003MOL0     H38362   2.015   8.820   2.293  0.7021  2.3480 -1.8163
 1003MOL0     H38363   2.058   9.008   2.127 -0.3623  0.5373  0.1869
 1003MOL0     H38364   2.220   9.010   1.794 -1.0941 -0.4986 -1.1712
 1003MOL0     H38365   2.130   9.118   1.905  3.2849  1.3861 -1.6656
 1003MOL0     H38366   2.017   8.866   1.755  0.5176 -0.8147 -0.6750
 1003MOL0     H38367   1.923   8.956   1.861  0.4806 -0.4453  0.3357
 1003MOL0     H38368   1.881   9.120   1.704 -1.1764 -1.9361  2.4705
 1003MOL0     H38369   2.056   9.142   1.664  0.7698 -0.2526  2.6112
 1003MOL0     H38370   2.041   8.997   1.484 -1.2758 -1.3843 -1.6021
 1003MOL0     H38371   1.910   8.897   1.558  0.4603 -0.1189 -0.0044
 1003MOL0     H38372   1.916   8.863   1.315  1.7733  2.2817 -2.3581
 1003MOL0     H38373   1.797   8.738   0.996  0.1931 -1.3377  0.2281
 1003MOL0     H38374   1.740   8.656   1.134  1.1880  0.4013  2.0523
 1003MOL0     H38375   1.910   8.718   1.144 -0.2104 -1.0209 -0.3023
 1003MOL0     H38376   1.645   8.604   0.814 -0.8171  0.6501  1.7143
 1003MOL0     H38377   1.593   8.550   0.592  0.5978 -0.1602  2.2890
 1003MOL0     H38378   1.221   8.743   0.423  1.3172 -0.0673  1.8215
 1003MOL0     H38379   1.353   8.823   0.333 -0.4043  1.6167  1.1612
 1003MOL0     H38380   1.355   8.562   0.238  0.2103 -0.5235  1.5491
 1003MOL0     H38381   1.191   8.575   0.242 -0.6030  0.8720 -0.6227
 1003MOL0     H38382   1.370   8.753   0.080  1.0953 -2.1213  2.6221
 1003MOL0     H38383   1.203   8.807   0.135  2.0218  1.8063  2.3198
 1003MOL0     H38384   1.264   8.584  -0.047 -1.1757  1.3408 -1.4411
 1003MOL0     H38385   1.204   8.730  -0.086  4.4562 -1.2873 -1.4381
 1003MOL0     H38386   1.040   8.634   0.135 -0.7382  1.0257 -0.9846
 1003MOL0     H38387   0.985   8.690  -0.022  0.3202  0.5786 -0.0438
 1003MOL0     H38388   1.111   8.407   0.009 -1.0279 -2.2991 -0.4620
 1003MOL0     H38389   1.014   8.481  -0.123 -3.2930  0.0757 -0.1655
 1003MOL0     H38390   0.880   8.332  -0.028 -0.5402 -1.8327  0.4189
 1003MOL0     H38391   0.827   8.502   0.025  3.5501  2.7821  0.6121
 1003MOL0     H38392   0.795   8.383   0.209 -0.0734  0.5892 -1.2269
 1003MOL0     H38393   0.955   8.424   0.244 -3.3514 -1.4217  3.5665
 1003MOL0     H38394   1.275   8.846   0.605  2.2454  4.3840  1.2305
 1003MOL0     H38395   1.331   8.908   0.808  0.2477  0.5809 -1.0839
 1003MOL0     H38396   1.504   9.101   1.188  1.5143  0.7820 -1.3787
 1003MOL0     H38397   1.646   9.175   1.389  4.9093 -0.0353  3.0643
 1003MOL0     H38398   1.585   8.958   2.702  4.0705  1.3524 -0.3883
 1003MOL0     H38399   1.472   9.179   2.658 -1.5109 -0.6225  0.3673
 1003MOL0     H38400   1.489   9.583   2.794  0.4678  0.2940  0.7254
 1003MOL0     H38401   1.474   9.815   2.735 -1.1242  0.9534 -1.2159
 1003MOL0     H38402   1.245  10.113   2.922 -0.7866  1.7854 -1.6539
 1003MOL0     H38403   1.390  10.031   2.966  1.4809  3.2818  0.3462
 1003MOL0     H38404   1.389  10.230   2.736 -0.5675  1.2502  1.5812
 1003MOL0     H38405   1.522  10.114   2.778  0.9313  0.5734 -0.2056
 1003MOL0     H38406   1.392  10.320   2.969  1.2569  2.6344  0.1002
 1003MOL0     H38407   1.557  10.239   2.992  0.2209 -0.3695 -1.5396
 1003MOL0     H38408   1.589  10.468   2.915  0.1463 -0.8380  1.6537
 1003MOL0     H38409   1.491  10.431   2.775 -3.1956 -1.2176  1.9888
 1003MOL0     H38410   1.887  10.253   2.725  0.7866  0.0661  2.1088
 1003MOL0     H38411   1.082   9.845   2.898 -0.2811  0.5129  1.4405
 1003MOL0     H38412   0.975   9.652   2.997  1.2074  1.8838 -1.7145
 1003MOL0     H38413   1.024   9.503   2.924  1.4533  0.8586 -2.0273
 1003MOL0     H38414   1.088   9.549   3.084 -0.5244 -1.3273  0.9355
 1004MOL0     O38415   9.984   9.514   8.252  0.9216  0.0786 -0.2254
 1004MOL0     C38416   9.892   9.583   8.291  0.7389 -0.0046  0.2704
 1004MOL0     O38417   9.895   9.725   8.280 -0.2693 -0.2764 -0.1971
 1004MOL0     C38418  10.006   9.802   8.236  0.9033 -0.5094  0.2475
 1004MOL0     C38419   9.972   9.927   8.193 -0.6076 -0.0844  0.5620
 1004MOL0     C38420  10.065  10.008   8.131  0.4483 -0.2739  0.8437
 1004MOL0     C38421  10.206   9.971   8.124  0.6637  0.5073  0.0526
 1004MOL0     O38422  10.288  10.062   8.075 -0.7979  0.6238 -1.0603
 1004MOL0     C38423  10.325  10.060   7.935 -0.0391 -0.0855  0.1804
 1004MOL0     C38424  10.470  10.102   7.922  0.6163 -0.4024  0.0274
 1004MOL0     C38425  10.513  10.168   7.781  0.2257  0.5354  0.2610
 1004MOL0     C38426  10.467  10.099   7.654 -0.1892  0.5870  0.0266
 1004MOL0     C38427  10.505  10.172   7.526 -0.0530 -0.6912 -0.4124
 1004MOL0     C38428  10.411  10.131   7.414  0.3167  0.5742 -0.7128
 1004MOL0     C38429  10.442  10.200   7.282 -0.2301 -0.2103  0.1625
 1004MOL0     C38430  10.329  10.266   7.212  0.0215  0.5629  0.2082
 1004MOL0     N38431  10.356  10.303   7.070  0.2758 -0.6008 -0.9667
 1004MOL0     C38432  10.429  10.411   7.032  0.7690 -0.2652 -0.3163
 1004MOL0     C38433  10.453  10.380   6.897  0.5340 -0.7569 -0.2696
 1004MOL0     C38434  10.526  10.475   6.815  0.0122 -0.3430  0.5488
 1004MOL0     C38435  10.631  10.409   6.735  0.2371 -0.3190  0.6819
 1004MOL0     C38436  10.593  10.393   6.593 -0.4819 -0.4446  0.1495
 1004MOL0     C38437  10.708  10.332   6.506  0.0870 -0.1022  0.1709
 1004MOL0     O38438  10.823  10.425   6.495  0.7895 -0.5619 -0.0454
 1004MOL0     C38439  10.942  10.400   6.426 -0.0141 -0.0939 -0.2498
 1004MOL0     C38440  11.026  10.506   6.422 -0.1980 -0.2120  0.5829
 1004MOL0     C38441  11.149  10.516   6.362  0.6924 -0.3178  0.5845
 1004MOL0     C38442  11.207  10.656   6.357 -0.7270  0.1879  0.1577
 1004MOL0     C38443  11.186  10.394   6.294  1.9272  0.2729  0.1176
 1004MOL0     C38444  11.309  10.388   6.208  0.9528 -0.4712 -0.0566
 1004MOL0     O38445  11.397  10.487   6.219  0.6591 -0.2950  0.3452
 1004MOL0     C38446  11.508  10.495   6.138  0.2469 -0.0883  0.6143
 1004MOL0     C38447  11.625  10.442   6.179 -0.7549  0.7028  0.5974
 1004MOL0     C38448  11.743  10.438   6.098 -0.3131 -0.2900 -0.0816
 1004MOL0     C38449  11.739  10.499   5.966 -0.0611 -0.4450 -0.3791
 1004MOL0     O38450  11.840  10.506   5.872 -0.3930  0.5634 -0.1878
 1004MOL0     C38451  11.844  10.413   5.763  0.4559  0.0822  0.4467
 1004MOL0     C38452  11.857  10.267   5.815 -0.6454 -0.3871 -0.4607
 1004MOL0     C38453  11.897  10.172   5.706 -0.9868  0.2547  0.7333
 1004MOL0     C38454  11.831  10.179   5.570  0.3908  0.7611 -0.3521
 1004MOL0     C38455  11.891  10.096   5.459 -0.0236 -0.6457 -0.2350
 1004MOL0     C38456  11.799  10.104   5.330 -0.2919 -0.5075  0.4146
 1004MOL0     C38457  11.865  10.019   5.215  0.7612 -0.9872 -0.0652
 1004MOL0     C38458  11.891   9.869   5.246  0.4123 -0.8319  0.3496
 1004MOL0    Cl38459  12.011   9.833   5.111  0.4113 -0.3150  0.1627
 1004MOL0     C38460  11.613  10.548   5.928 -0.6590 -1.3735  0.0030
 1004MOL0     C38461  11.494  10.543   6.009 -0.5041  0.1561  0.1744
 1004MOL0     O38462  11.338  10.273   6.163  0.3058 -0.3642 -0.4459
 1004MOL0     C38463  11.104  10.279   6.298  0.4275  0.2447 -0.2964
 1004MOL0     C38464  10.983  10.276   6.381 -0.0270  0.1660 -0.4132
 1004MOL0     N38465  10.392  10.260   6.859  0.4308  0.5580  0.4877
 1004MOL0     N38466  10.337  10.220   6.967  0.6044 -0.3593  1.3291
 1004MOL0     C38467  10.239   9.853   8.181 -0.1565  0.7822 -0.1558
 1004MOL0     C38468  10.141   9.772   8.226  0.2398  0.5361  0.5279
 1004MOL0     C38469   9.770   9.529   8.366  0.6219  0.7338  0.4111
 1004MOL0     C38470   9.652   9.594   8.370 -0.3931 -0.5390  0.2065
 1004MOL0     C38471   9.544   9.567   8.453 -0.0474  0.2798 -0.0430
 1004MOL0     C38472   9.558   9.458   8.540 -1.0388 -0.3674 -0.2352
 1004MOL0     O38473   9.469   9.411   8.628  0.2968 -0.0470 -0.7654
 1004MOL0     C38474   9.397   9.503   8.708 -0.2850 -0.0410 -1.2923
 1004MOL0     C38475   9.379   9.467   8.856 -0.0533 -0.1673 -0.7406
 1004MOL0     C38476   9.283   9.559   8.920  0.8494  0.0108 -0.2076
 1004MOL0     C38477   9.243   9.492   9.051 -0.3811 -1.1616  0.1818
 1004MOL0     C38478   9.363   9.479   9.138  1.0899 -0.0358  0.6826
 1004MOL0     C38479   9.451   9.457   9.216 -0.2662 -0.1161 -0.6678
 1004MOL0     C38480   9.681   9.385   8.543  0.5225  0.1631  0.0398
 1004MOL0     C38481   9.787   9.419   8.461  0.4523  0.5449  0.8171
 1004MOL0     C38482   9.907   9.337   8.483  0.1437 -0.9167 -0.1698
 1004MOL0     H38483   9.867   9.951   8.203 -0.3101  0.6072  2.5293
 1004MOL0     H38484  10.026  10.094   8.079 -0.7751 -1.3231 -0.0481
 1004MOL0     H38485  10.265  10.134   7.881  1.1230  0.9915  0.3098
 1004MOL0     H38486  10.307   9.962   7.890 -1.6481 -0.1965  1.0041
 1004MOL0     H38487  10.480  10.188   7.989 -0.6383 -0.4145  0.2465
 1004MOL0     H38488  10.536  10.020   7.952 -1.6780 -1.8777  1.2346
 1004MOL0     H38489  10.475  10.270   7.786 -0.0567  0.4785 -0.5441
 1004MOL0     H38490  10.622  10.178   7.785  0.1304  1.4912  0.5777
 1004MOL0     H38491  10.514  10.002   7.638  0.4397  0.7450  0.8420
 1004MOL0     H38492  10.360  10.080   7.670  0.2396 -1.6766  0.5816
 1004MOL0     H38493  10.610  10.150   7.503  0.0970 -1.8713  1.2305
 1004MOL0     H38494  10.482  10.278   7.540  0.9920 -0.6565  1.3537
 1004MOL0     H38495  10.413  10.022   7.406 -2.8070 -0.1248  4.1750
 1004MOL0     H38496  10.309  10.155   7.445  1.0923  2.1629  0.7315
 1004MOL0     H38497  10.480  10.119   7.220 -1.4539 -0.1384 -0.7192
 1004MOL0     H38498  10.531  10.264   7.288  0.1871 -0.5205 -1.9260
 1004MOL0     H38499  10.249  10.192   7.209 -1.1261  1.7951 -0.6732
 1004MOL0     H38500  10.314  10.352   7.279  1.0717  0.0491  1.1328
 1004MOL0     H38501  10.458  10.500   7.087  1.0823 -1.1506  1.0202
 1004MOL0     H38502  10.575  10.546   6.882 -0.1593 -0.4531  0.7920
 1004MOL0     H38503  10.456  10.527   6.750  1.5541 -1.5509 -2.2967
 1004MOL0     H38504  10.720  10.474   6.738 -0.6830  0.9410  1.6690
 1004MOL0     H38505  10.669  10.312   6.768  1.8047 -0.5762 -1.6385
 1004MOL0     H38506  10.504  10.330   6.584 -1.3889  1.0435 -2.3786
 1004MOL0     H38507  10.571  10.490   6.549  0.2428 -0.3760 -0.0698
 1004MOL0     H38508  10.749  10.235   6.535 -0.4045 -0.8128 -1.4142
 1004MOL0     H38509  10.673  10.314   6.404  1.2559 -2.1603  0.0730
 1004MOL0     H38510  10.972  10.598   6.442 -2.5184 -1.4101  0.1929
 1004MOL0     H38511  11.220  10.668   6.249  0.4962 -0.2387  0.2445
 1004MOL0     H38512  11.295  10.669   6.421 -2.3888 -0.7682  2.8113
 1004MOL0     H38513  11.137  10.724   6.407  0.4242  0.5599  1.3037
 1004MOL0     H38514  11.623  10.394   6.277  0.1751  1.5002  1.0276
 1004MOL0     H38515  11.839  10.395   6.127 -1.1858 -3.6912 -1.7215
 1004MOL0     H38516  11.768  10.432   5.686  0.3037  1.7695  0.9598
 1004MOL0     H38517  11.934  10.426   5.703 -1.1539 -2.7386 -2.9942
 1004MOL0     H38518  11.925  10.249   5.898 -0.6572  0.1014 -0.3391
 1004MOL0     H38519  11.758  10.248   5.858 -0.8426 -1.9799 -1.5380
 1004MOL0     H38520  11.889  10.069   5.742 -0.3298 -0.6928 -1.6432
 1004MOL0     H38521  12.003  10.189   5.685 -1.4026  0.8447 -1.0717
 1004MOL0     H38522  11.828  10.283   5.538 -0.7813  0.6201 -0.7261
 1004MOL0     H38523  11.727  10.149   5.583  1.1169 -1.6897  0.4907
 1004MOL0     H38524  11.988  10.142   5.440 -0.3128  1.0811  2.1232
 1004MOL0     H38525  11.895   9.994   5.500 -2.5245 -1.1027 -0.9185
 1004MOL0     H38526  11.788  10.209   5.300 -2.7145 -1.3437 -2.0207
 1004MOL0     H38527  11.698  10.067   5.346 -0.8316  0.6936 -0.1330
 1004MOL0     H38528  11.963  10.064   5.195  0.8084  0.2514  2.5839
 1004MOL0     H38529  11.798  10.015   5.128 -0.7212 -5.6349  0.9814
 1004MOL0     H38530  11.804   9.804   5.229  0.0849 -0.4581  0.5800
 1004MOL0     H38531  11.931   9.850   5.346 -1.8948 -0.0625  1.4969
 1004MOL0     H38532  11.598  10.579   5.825  0.1094 -1.3667 -0.1057
 1004MOL0     H38533  11.396  10.560   5.966 -0.5512 -1.9587 -0.7001
 1004MOL0     H38534  11.141  10.188   6.253 -0.0245  0.2228 -0.6293
 1004MOL0     H38535  10.933  10.181   6.393 -1.0779  0.7820  0.2083
 1004MOL0     H38536  10.344   9.828   8.196 -0.4561  0.2979  1.4292
 1004MOL0     H38537  10.177   9.677   8.264  3.8068  0.9376 -1.4594
 1004MOL0     H38538   9.643   9.665   8.288 -3.3293 -0.9360  0.0693
 1004MOL0     H38539   9.444   9.603   8.430  0.5939  2.0849 -0.1763
 1004MOL0     H38540   9.439   9.603   8.692  3.2184 -1.1868 -0.1440
 1004MOL0     H38541   9.298   9.521   8.665 -1.9996 -0.0980  2.2237
 1004MOL0     H38542   9.480   9.473   8.897 -0.3732  2.2021 -0.1871
 1004MOL0     H38543   9.351   9.362   8.867  0.4519 -0.4546 -1.9242
 1004MOL0     H38544   9.310   9.665   8.930  2.4823 -0.3148 -0.9007
 1004MOL0     H38545   9.187   9.562   8.868  0.2665  3.9660  0.7098
 1004MOL0     H38546   9.199   9.392   9.038  0.0744 -1.1627 -1.5417
 1004MOL0     H38547   9.167   9.544   9.111  2.3476  2.3102  0.9438
 1004MOL0     H38548   9.522   9.420   9.288 -1.8677 -0.1817  0.9456
 1004MOL0     H38549   9.691   9.309   8.620  1.3727  0.4797  0.2497
 1004MOL0     H38550   9.888   9.280   8.575 -0.8098 -0.3405  0.0083
 1004MOL0     H38551   9.923   9.265   8.403 -1.7688 -0.7063 -0.7914
 1004MOL0     H38552  10.000   9.394   8.492 -0.5882  0.2527  0.2492
 1005MOL0     O38553   3.332   7.858   7.347  0.5909  0.6514 -0.1817
 1005MOL0     C38554   3.250   7.927   7.283  0.3741 -0.0635  0.8469
 1005MOL0     O38555   3.262   8.061   7.268  0.3023 -0.1446  0.0091
 1005MOL0     C38556   3.305   8.158   7.363 -0.8052 -0.3746  0.3384
 1005MOL0     C38557   3.285   8.294   7.349  0.1811 -1.0423  0.2954
 1005MOL0     C38558   3.330   8.392   7.435 -0.6360 -0.6947  0.0653
 1005MOL0     C38559   3.411   8.350   7.540 -0.3897 -0.8770  0.6768
 1005MOL0     O38560   3.484   8.446   7.610 -0.4229 -0.3895 -1.0061
 1005MOL0     C38561   3.530   8.406   7.742 -0.3052 -0.3038  0.3644
 1005MOL0     C38562   3.542   8.538   7.815  0.8393 -0.1821 -0.4940
 1005MOL0     C38563   3.610   8.648   7.728 -0.6617  0.6711 -1.0450
 1005MOL0     C38564   3.749   8.605   7.677  0.7429 -0.0218  0.0209
 1005MOL0     C38565   3.799   8.704   7.567  0.5187 -1.0294  0.5726
 1005MOL0     C38566   3.918   8.799   7.602  0.0542 -0.2520 -0.1277
 1005MOL0     C38567   3.858   8.905   7.707 -0.4240 -0.3501  0.2105
 1005MOL0     C38568   3.978   8.986   7.762 -0.3088  0.2280 -1.1843
 1005MOL0     N38569   4.061   9.071   7.670  0.1221  0.3997 -0.2992
 1005MOL0     C38570   4.187   9.033   7.618  0.8976 -0.2520  1.0607
 1005MOL0     C38571   4.213   9.134   7.526  0.3883  0.2329 -0.5590
 1005MOL0     C38572   4.344   9.128   7.441 -0.0976 -0.1682  1.0030
 1005MOL0     C38573   4.426   9.261   7.430  0.1064  0.2393  0.4140
 1005MOL0     C38574   4.378   9.340   7.302 -0.2792  0.2355  0.6261
 1005MOL0     C38575   4.457   9.478   7.287  0.4662 -0.3400  0.6732
 1005MOL0     O38576   4.407   9.548   7.172  0.3155  0.0017 -1.1351
 1005MOL0     C38577   4.445   9.681   7.153  0.5692  0.8513  0.5188
 1005MOL0     C38578   4.562   9.739   7.206  0.2265  0.0082 -0.2604
 1005MOL0     C38579   4.588   9.877   7.199  0.2314  0.4622 -0.1038
 1005MOL0     C38580   4.714   9.933   7.260 -0.4303 -0.5807  0.1084
 1005MOL0     C38581   4.491   9.963   7.137 -0.8787  1.4118  0.0787
 1005MOL0     C38582   4.503  10.107   7.155  0.2138 -0.7654 -0.6213
 1005MOL0     O38583   4.412  10.152   7.246  0.5116 -0.0030 -0.5546
 1005MOL0     C38584   4.386  10.283   7.265 -0.5999 -0.9168  0.5684
 1005MOL0     C38585   4.388  10.380   7.164 -0.6592  0.2649 -0.0992
 1005MOL0     C38586   4.356  10.515   7.201 -0.2687 -0.4522  0.0351
 1005MOL0     C38587   4.332  10.557   7.338 -0.5230  0.3089 -0.7359
 1005MOL0     O38588   4.305  10.681   7.384  0.0385  0.1341  0.1254
 1005MOL0     C38589   4.350  10.790   7.307 -0.3993 -0.1124  0.5156
 1005MOL0     C38590   4.351  10.917   7.387 -0.3775  0.7890 -0.5466
 1005MOL0     C38591   4.381  11.036   7.295  0.3047 -0.5975  0.4898
 1005MOL0     C38592   4.348  11.171   7.358  0.0159 -0.5074  0.7616
 1005MOL0     C38593   4.406  11.306   7.298  0.6579 -0.4932 -0.9126
 1005MOL0     C38594   4.551  11.319   7.337 -0.0971 -0.2917 -0.1464
 1005MOL0     C38595   4.612  11.445   7.254 -0.4807  0.1259  0.0300
 1005MOL0     C38596   4.742  11.499   7.303 -0.1064 -0.9683  0.4049
 1005MOL0    Cl38597   4.741  11.536   7.471 -0.3565 -1.0594  0.3848
 1005MOL0     C38598   4.339  10.453   7.435  0.5931 -0.0387 -0.0886
 1005MOL0     C38599   4.364  10.324   7.398  0.1692  0.3590 -0.4428
 1005MOL0     O38600   4.574  10.174   7.086 -0.0031  0.4627 -0.0728
 1005MOL0     C38601   4.380   9.903   7.069 -1.2586 -0.2875  0.2586
 1005MOL0     C38602   4.359   9.769   7.076  0.0175 -0.2540 -0.6483
 1005MOL0     N38603   4.109   9.227   7.526 -0.1658  0.4054 -1.0923
 1005MOL0     N38604   4.017   9.185   7.608  0.4684  0.3076  0.2749
 1005MOL0     C38605   3.435   8.214   7.559  0.3901  0.6359 -0.7140
 1005MOL0     C38606   3.374   8.124   7.479 -1.4138 -0.2218  0.3013
 1005MOL0     C38607   3.157   7.870   7.183  0.5051  0.4045 -0.0989
 1005MOL0     C38608   3.161   7.924   7.050  0.0671  0.9208  0.8267
 1005MOL0     C38609   3.082   7.854   6.955  0.4691 -0.3242  0.5212
 1005MOL0     C38610   3.009   7.743   6.988  0.0796  0.9037  0.0927
 1005MOL0     O38611   2.914   7.683   6.911  0.6018 -0.8960 -0.2931
 1005MOL0     C38612   2.879   7.742   6.782 -0.8331 -0.9092 -0.3577
 1005MOL0     C38613   2.801   7.638   6.714  0.1699  0.4237 -0.1408
 1005MOL0     C38614   2.880   7.575   6.595  0.2112 -0.4926 -0.0594
 1005MOL0     C38615   2.784   7.499   6.513  0.6499  0.2480  1.0183
 1005MOL0     C38616   2.855   7.402   6.436 -0.3871 -0.5953 -0.6757
 1005MOL0     C38617   2.905   7.317   6.371  0.8229 -0.3134 -0.3226
 1005MOL0     C38618   3.018   7.694   7.120 -0.2537 -0.0475 -0.1149
 1005MOL0     C38619   3.083   7.757   7.223  0.4961  0.2529  0.6860
 1005MOL0     C38620   3.093   7.687   7.358 -0.5187 -0.0205 -0.9404
 1005MOL0     H38621   3.232   8.342   7.268  1.0210  1.8157  1.3058
 1005MOL0     H38622   3.298   8.492   7.411 -0.0968 -0.6291 -0.4184
 1005MOL0     H38623   3.631   8.364   7.736  1.0509  2.7932 -0.1495
 1005MOL0     H38624   3.469   8.338   7.802 -2.9002  3.3065  2.1739
 1005MOL0     H38625   3.442   8.574   7.838  0.3604 -0.7854 -1.5694
 1005MOL0     H38626   3.596   8.521   7.909  0.2148 -0.9718 -0.2709
 1005MOL0     H38627   3.545   8.676   7.645 -0.3971 -0.7095 -1.7308
 1005MOL0     H38628   3.629   8.730   7.799  0.8490 -1.0823  0.7123
 1005MOL0     H38629   3.807   8.596   7.770 -2.6416 -0.7402  2.2626
 1005MOL0     H38630   3.738   8.512   7.621  0.1751  0.4112 -0.6009
 1005MOL0     H38631   3.715   8.770   7.545  1.1067 -0.5200 -0.2043
 1005MOL0     H38632   3.823   8.656   7.472  4.3779 -1.3222  1.4982
 1005MOL0     H38633   4.002   8.748   7.649  0.0923 -2.3921 -2.3062
 1005MOL0     H38634   3.944   8.850   7.508 -1.4914  1.3307  0.2519
 1005MOL0     H38635   3.809   8.873   7.799 -3.5329  1.4584 -0.6535
 1005MOL0     H38636   3.777   8.962   7.660  0.4550 -1.5107 -3.0319
 1005MOL0     H38637   3.935   9.050   7.840 -3.1738 -2.2906 -0.5197
 1005MOL0     H38638   4.055   8.923   7.807 -2.1313  2.0162  5.7346
 1005MOL0     H38639   4.253   8.950   7.642  0.6587 -0.3626  1.3304
 1005MOL0     H38640   4.323   9.097   7.338  2.7945 -1.1216  0.6205
 1005MOL0     H38641   4.409   9.049   7.479 -0.8504 -1.7429 -0.8192
 1005MOL0     H38642   4.415   9.331   7.513 -1.1324  0.5338  0.0259
 1005MOL0     H38643   4.530   9.235   7.409  0.2878  2.3460 -1.7354
 1005MOL0     H38644   4.395   9.275   7.216  3.2454  0.7380  0.8061
 1005MOL0     H38645   4.276   9.377   7.313 -0.1744  0.3671  1.1820
 1005MOL0     H38646   4.443   9.529   7.383  0.2064  2.7361 -0.8798
 1005MOL0     H38647   4.563   9.462   7.268  0.2081 -0.5470 -0.7039
 1005MOL0     H38648   4.626   9.681   7.272 -0.6848  1.1495  1.7434
 1005MOL0     H38649   4.745  10.016   7.195 -4.3021 -0.5461 -2.0288
 1005MOL0     H38650   4.797   9.862   7.254  0.6742  0.6086  0.7364
 1005MOL0     H38651   4.702   9.978   7.359 -0.0888 -0.0641 -0.0778
 1005MOL0     H38652   4.390  10.347   7.060 -5.5554 -0.5355 -0.1917
 1005MOL0     H38653   4.330  10.584   7.121 -0.2858  0.0142  0.4391
 1005MOL0     H38654   4.454  10.775   7.277  0.5249 -0.3407  3.5302
 1005MOL0     H38655   4.283  10.809   7.222  1.5812  2.5215 -0.6047
 1005MOL0     H38656   4.252  10.927   7.432 -0.1269  1.3327 -0.1039
 1005MOL0     H38657   4.423  10.909   7.469 -3.3214  0.5091  2.2394
 1005MOL0     H38658   4.329  11.045   7.199  1.0866  1.5120  0.2148
 1005MOL0     H38659   4.485  11.034   7.262  0.2394 -1.8926  0.3359
 1005MOL0     H38660   4.393  11.161   7.456 -1.2788 -1.7966  1.2575
 1005MOL0     H38661   4.239  11.184   7.361 -0.3245 -1.9392 -1.9925
 1005MOL0     H38662   4.389  11.313   7.191 -0.0761 -0.8428 -0.8254
 1005MOL0     H38663   4.361  11.386   7.359  3.8238 -1.1991  2.7504
 1005MOL0     H38664   4.601  11.224   7.317 -1.0952 -1.3072  1.8727
 1005MOL0     H38665   4.561  11.332   7.445 -0.1561  0.8586 -0.2671
 1005MOL0     H38666   4.540  11.527   7.259  0.3730  0.8506  0.8011
 1005MOL0     H38667   4.616  11.414   7.149 -0.8405 -1.0856  0.3594
 1005MOL0     H38668   4.771  11.590   7.249  1.0810  1.3551  4.5166
 1005MOL0     H38669   4.820  11.423   7.290  2.6478  1.8269 -0.7371
 1005MOL0     H38670   4.305  10.462   7.537  0.9809  1.2955 -0.0607
 1005MOL0     H38671   4.351  10.248   7.474 -2.3247 -1.4826 -2.5559
 1005MOL0     H38672   4.322   9.970   7.007 -0.1032  0.4811 -0.0378
 1005MOL0     H38673   4.274   9.717   7.034 -0.3549 -3.0020  2.9198
 1005MOL0     H38674   3.493   8.177   7.643  0.7008 -0.5758 -1.4341
 1005MOL0     H38675   3.404   8.020   7.492  0.4512 -0.0615 -1.9597
 1005MOL0     H38676   3.223   8.005   7.013 -0.3514  0.0129 -2.1668
 1005MOL0     H38677   3.082   7.899   6.856 -1.6236 -2.4125 -0.5244
 1005MOL0     H38678   2.813   7.828   6.796 -0.9755 -1.2500  1.3110
 1005MOL0     H38679   2.967   7.786   6.735  1.0622  0.3251  3.8494
 1005MOL0     H38680   2.705   7.675   6.677 -1.2655 -1.4808  1.4039
 1005MOL0     H38681   2.771   7.556   6.781 -1.0550  0.9426 -0.0148
 1005MOL0     H38682   2.951   7.640   6.542  3.8983 -0.9502  3.7766
 1005MOL0     H38683   2.947   7.502   6.641  0.6469  0.7616  1.3812
 1005MOL0     H38684   2.728   7.566   6.447  3.6653  2.5940  0.6188
 1005MOL0     H38685   2.711   7.451   6.579  0.3070 -0.8305 -0.1015
 1005MOL0     H38686   2.955   7.229   6.333  0.3615 -1.1543  0.9448
 1005MOL0     H38687   2.970   7.598   7.139  0.2257 -0.8638 -2.5627
 1005MOL0     H38688   3.137   7.750   7.436 -0.0548 -2.1342  0.5976
 1005MOL0     H38689   2.998   7.643   7.390 -1.2043 -0.1737 -3.0387
 1005MOL0     H38690   3.158   7.599   7.352 -0.7148 -0.1813 -0.7353
 1006MOL0     O38691   1.327   2.481   4.890 -0.0581 -0.0502  0.3582
 1006MOL0     C38692   1.387   2.479   4.783  0.2476  0.0782 -0.0851
 1006MOL0     O38693   1.416   2.362   4.717  0.0021 -1.0755 -0.0975
 1006MOL0     C38694   1.446   2.265   4.798  0.1707  0.6666  0.8600
 1006MOL0     C38695   1.397   2.138   4.753 -0.3838 -0.7528 -0.1323
 1006MOL0     C38696   1.419   2.026   4.823 -0.0686 -0.0714 -0.4725
 1006MOL0     C38697   1.486   2.027   4.952 -0.1706  0.3667 -0.0350
 1006MOL0     O38698   1.521   1.905   5.015  0.4189  0.3573  0.4679
 1006MOL0     C38699   1.659   1.891   5.048 -0.4515 -0.6492 -0.2563
 1006MOL0     C38700   1.738   1.806   4.936  0.3161 -0.6974 -0.6240
 1006MOL0     C38701   1.863   1.748   5.004 -0.1788  0.0111  0.7437
 1006MOL0     C38702   1.920   1.652   4.901 -0.1371  0.1778 -0.0318
 1006MOL0     C38703   2.079   1.625   4.898  0.1092 -0.4414  0.2815
 1006MOL0     C38704   2.125   1.558   5.035 -0.8793 -0.8403  0.1487
 1006MOL0     C38705   2.076   1.405   5.053 -0.4782 -0.2189  0.7292
 1006MOL0     C38706   2.159   1.337   5.153  0.7067 -0.0309  0.5832
 1006MOL0     N38707   2.140   1.413   5.286 -0.1145  0.3576  0.0625
 1006MOL0     C38708   2.242   1.466   5.363 -0.6692 -0.0831 -0.7656
 1006MOL0     C38709   2.184   1.544   5.453  0.4670  0.4345  0.0203
 1006MOL0     C38710   2.239   1.622   5.560  0.7116  0.5230 -0.2709
 1006MOL0     C38711   2.218   1.767   5.535 -0.1833  0.6371  0.1988
 1006MOL0     C38712   2.286   1.832   5.408 -0.7087 -0.1469 -0.1182
 1006MOL0     C38713   2.441   1.853   5.399 -0.2614  0.4196 -0.6129
 1006MOL0     O38714   2.518   1.732   5.378 -1.3179  0.2259 -0.0975
 1006MOL0     C38715   2.652   1.740   5.403  0.4688  2.3488 -1.2858
 1006MOL0     C38716   2.712   1.613   5.416  0.1544 -1.1994  0.1886
 1006MOL0     C38717   2.852   1.601   5.447  0.1703 -0.1998  0.8321
 1006MOL0     C38718   2.907   1.461   5.456  0.1188 -0.0187  0.6145
 1006MOL0     C38719   2.917   1.719   5.488  0.8920  0.1073 -0.6743
 1006MOL0     C38720   3.060   1.714   5.541  0.2898  0.2569 -0.1501
 1006MOL0     O38721   3.080   1.784   5.653  0.0873 -0.4725 -0.7999
 1006MOL0     C38722   3.203   1.784   5.697 -0.4067  0.1629 -0.2252
 1006MOL0     C38723   3.296   1.874   5.629 -0.1142 -0.1792  0.4753
 1006MOL0     C38724   3.430   1.846   5.668 -0.5387  0.2802 -0.4017
 1006MOL0     C38725   3.464   1.749   5.766 -0.6447 -0.0247  0.2107
 1006MOL0     O38726   3.590   1.724   5.801  0.2974  0.9906  0.5820
 1006MOL0     C38727   3.713   1.792   5.760  0.1795 -0.5141 -0.5161
 1006MOL0     C38728   3.805   1.729   5.654  0.6653  0.5761  1.6648
 1006MOL0     C38729   3.913   1.830   5.619  0.5513 -0.8937  0.1958
 1006MOL0     C38730   3.938   1.811   5.470  0.2719  0.9996  0.3096
 1006MOL0     C38731   4.059   1.908   5.443  0.1429 -0.4653  0.1985
 1006MOL0     C38732   4.126   1.866   5.305  0.5942 -0.2854  0.0361
 1006MOL0     C38733   4.033   1.892   5.186 -0.0690  1.2632 -0.4273
 1006MOL0     C38734   4.115   1.886   5.042  0.7710 -0.1836 -0.7293
 1006MOL0    Cl38735   4.006   1.888   4.895  0.0416 -0.0571 -0.4400
 1006MOL0     C38736   3.366   1.686   5.836 -0.4682  0.3708  0.0883
 1006MOL0     C38737   3.233   1.699   5.805  0.2999  0.4566 -0.3593
 1006MOL0     O38738   3.142   1.651   5.478 -0.5326 -0.0838  0.3610
 1006MOL0     C38739   2.856   1.835   5.470 -0.1220  0.0746  0.0512
 1006MOL0     C38740   2.732   1.848   5.427  1.0937  0.4969  0.0920
 1006MOL0     N38741   2.042   1.535   5.436  0.3924 -0.3246 -0.5138
 1006MOL0     N38742   2.017   1.450   5.334  0.2800 -0.0379  0.1818
 1006MOL0     C38743   1.532   2.147   5.006  0.3646 -0.2599 -0.7705
 1006MOL0     C38744   1.518   2.260   4.919  0.5412  0.1587 -0.8650
 1006MOL0     C38745   1.413   2.602   4.712 -0.7140 -0.3222  0.0182
 1006MOL0     C38746   1.491   2.599   4.591  0.1444 -0.5283 -0.1804
 1006MOL0     C38747   1.517   2.711   4.507 -0.0228 -0.5021 -0.0974
 1006MOL0     C38748   1.461   2.838   4.558 -0.7699 -0.7587  1.0996
 1006MOL0     O38749   1.478   2.960   4.491  0.0354 -0.5782 -0.3779
 1006MOL0     C38750   1.477   2.964   4.350  0.4949 -0.6842  0.0419
 1006MOL0     C38751   1.393   3.083   4.305  0.4193  0.3600 -1.0707
 1006MOL0     C38752   1.377   3.106   4.151 -0.0020 -0.6303  0.0343
 1006MOL0     C38753   1.311   2.998   4.068  1.0590  0.5186  0.0043
 1006MOL0     C38754   1.312   3.033   3.928  0.1839  0.0631 -0.5521
 1006MOL0     C38755   1.332   3.087   3.823 -1.0622  1.0959 -0.4695
 1006MOL0     C38756   1.380   2.841   4.666  0.0258 -0.0940 -0.4408
 1006MOL0     C38757   1.358   2.731   4.748  0.1130 -0.9374  0.1757
 1006MOL0     C38758   1.270   2.758   4.867  0.7648  0.3825  0.4392
 1006MOL0     H38759   1.344   2.126   4.659  1.4157 -1.6706 -1.0909
 1006MOL0     H38760   1.380   1.935   4.779  3.0065 -2.8923  2.0554
 1006MOL0     H38761   1.660   1.825   5.136  1.6590 -1.6202 -0.9480
 1006MOL0     H38762   1.707   1.984   5.079 -1.7116 -0.1093  0.1474
 1006MOL0     H38763   1.672   1.729   4.896  1.3110 -2.4303  0.9080
 1006MOL0     H38764   1.759   1.872   4.851  2.3477 -1.6448 -0.9205
 1006MOL0     H38765   1.927   1.831   5.037  1.2532 -0.8697  0.2994
 1006MOL0     H38766   1.838   1.689   5.093  2.3652 -1.5579  0.5144
 1006MOL0     H38767   1.871   1.557   4.922 -0.2010 -0.4466 -2.7291
 1006MOL0     H38768   1.886   1.692   4.806 -1.8117 -1.6629 -0.2633
 1006MOL0     H38769   2.138   1.715   4.880  0.5283 -1.0338 -1.4952
 1006MOL0     H38770   2.109   1.559   4.816  1.7666 -1.7914  1.8726
 1006MOL0     H38771   2.234   1.549   5.036 -0.9096 -1.2648  0.1328
 1006MOL0     H38772   2.090   1.620   5.118 -0.6926 -0.7312  0.1459
 1006MOL0     H38773   2.078   1.340   4.965 -0.4693  0.2030  0.4128
 1006MOL0     H38774   1.972   1.414   5.087 -0.2033  0.7176  1.3692
 1006MOL0     H38775   2.135   1.230   5.153  0.5857 -0.0170 -0.3924
 1006MOL0     H38776   2.265   1.347   5.128  0.8946  2.1060  1.9493
 1006MOL0     H38777   2.349   1.463   5.346 -0.6038 -0.0536 -0.3688
 1006MOL0     H38778   2.345   1.598   5.574  1.0485  1.0359 -1.7792
 1006MOL0     H38779   2.192   1.589   5.654 -3.9559 -1.5735 -2.9784
 1006MOL0     H38780   2.111   1.783   5.519  0.3809  2.9814 -1.8512
 1006MOL0     H38781   2.241   1.829   5.622  5.2834 -0.7547  0.1261
 1006MOL0     H38782   2.264   1.769   5.321  1.9504  0.5268 -1.4081
 1006MOL0     H38783   2.245   1.932   5.390  1.9293  1.3268  1.4813
 1006MOL0     H38784   2.443   1.905   5.303 -1.1882 -0.3569 -1.0838
 1006MOL0     H38785   2.481   1.914   5.480  1.7891  1.9924 -2.6950
 1006MOL0     H38786   2.647   1.526   5.412  1.1484 -2.1810  2.8217
 1006MOL0     H38787   2.975   1.453   5.371  0.6785  0.8786  0.9647
 1006MOL0     H38788   2.836   1.378   5.463  1.1805 -0.8113  3.0951
 1006MOL0     H38789   2.960   1.441   5.550 -1.1253 -0.0951  1.3176
 1006MOL0     H38790   3.269   1.943   5.550 -0.0987 -3.2273 -2.4241
 1006MOL0     H38791   3.503   1.918   5.634 -0.2445 -1.4554 -3.8449
 1006MOL0     H38792   3.681   1.890   5.723 -0.8305 -0.8213 -0.4723
 1006MOL0     H38793   3.778   1.812   5.845 -0.6947  1.4093 -0.2509
 1006MOL0     H38794   3.848   1.633   5.682 -0.1639 -0.0346  0.9173
 1006MOL0     H38795   3.752   1.695   5.564 -0.0883  0.3479  2.1782
 1006MOL0     H38796   4.006   1.803   5.671  2.8642  3.7615 -0.8901
 1006MOL0     H38797   3.886   1.936   5.628 -3.5026 -1.9402  3.0839
 1006MOL0     H38798   3.844   1.829   5.416  0.7808  0.4354 -0.8027
 1006MOL0     H38799   3.962   1.707   5.446  1.2732  1.2452  0.1681
 1006MOL0     H38800   4.034   2.014   5.449 -3.5529 -1.0274 -1.9841
 1006MOL0     H38801   4.129   1.892   5.524 -1.0542  0.4134  1.4504
 1006MOL0     H38802   4.137   1.757   5.304  2.3142 -0.1483  0.7470
 1006MOL0     H38803   4.224   1.911   5.290  0.4589  0.2331  0.7143
 1006MOL0     H38804   3.990   1.989   5.214  2.3646  2.0208  1.0014
 1006MOL0     H38805   3.948   1.823   5.180  1.4377 -0.5747 -2.9302
 1006MOL0     H38806   4.183   1.801   5.045 -2.3308 -2.9129 -1.6088
 1006MOL0     H38807   4.181   1.972   5.051  0.0011  0.4142 -0.6512
 1006MOL0     H38808   3.378   1.626   5.926 -0.7133 -0.6166 -0.5157
 1006MOL0     H38809   3.158   1.640   5.857 -0.5084  3.2966  1.9429
 1006MOL0     H38810   2.902   1.932   5.488 -0.9141  0.3394  0.7071
 1006MOL0     H38811   2.688   1.946   5.408 -0.4964 -0.3805 -0.9875
 1006MOL0     H38812   1.597   2.158   5.093 -0.4969  3.3272 -0.4350
 1006MOL0     H38813   1.568   2.354   4.936  2.5069 -0.7539 -1.3437
 1006MOL0     H38814   1.525   2.500   4.564 -1.1064 -1.2466  0.7643
 1006MOL0     H38815   1.569   2.696   4.412 -1.1050  1.6853 -1.1051
 1006MOL0     H38816   1.581   2.973   4.316  0.0008 -1.2191 -1.7259
 1006MOL0     H38817   1.433   2.868   4.322 -0.2901 -1.2435  2.8560
 1006MOL0     H38818   1.433   3.173   4.352  1.9492 -0.6741 -0.3506
 1006MOL0     H38819   1.291   3.059   4.336  0.9367 -1.7036 -0.8414
 1006MOL0     H38820   1.303   3.186   4.142  2.0670  1.1289 -2.5878
 1006MOL0     H38821   1.469   3.140   4.104 -1.3590  1.0064 -1.6058
 1006MOL0     H38822   1.211   2.974   4.107  1.7948 -0.4415  1.3722
 1006MOL0     H38823   1.365   2.903   4.074  3.8955  2.0869  0.8813
 1006MOL0     H38824   1.350   3.131   3.727  1.1662 -1.3202 -1.2806
 1006MOL0     H38825   1.333   2.936   4.690 -1.5409 -0.4023 -2.0715
 1006MOL0     H38826   1.173   2.708   4.860 -0.1257  1.8124  2.0586
 1006MOL0     H38827   1.315   2.730   4.963 -3.1647  0.8127  2.5954
 1006MOL0     H38828   1.251   2.864   4.881 -2.8215 -0.3890  2.7581
 1007MOL0     O38829   7.001   3.917   5.474 -0.7141  0.6715  0.0110
 1007MOL0     C38830   6.900   3.927   5.538  0.0702 -0.2333 -0.0973
 1007MOL0     O38831   6.859   3.842   5.635  0.5912  0.0332 -0.5713
 1007MOL0     C38832   6.932   3.725   5.644 -0.3360 -0.0132  0.5085
 1007MOL0     C38833   7.064   3.710   5.690 -0.4961  1.5834 -0.3384
 1007MOL0     C38834   7.128   3.580   5.705  0.5037  0.1051  0.1922
 1007MOL0     C38835   7.063   3.463   5.667  0.3679  0.6755  0.9313
 1007MOL0     O38836   7.129   3.344   5.666  0.6985  0.5585  0.5836
 1007MOL0     C38837   7.063   3.221   5.706  0.3749 -0.2783  0.0024
 1007MOL0     C38838   7.081   3.122   5.592  0.2497  1.3219 -0.4170
 1007MOL0     C38839   7.027   3.166   5.459  0.9140  0.2490 -0.5377
 1007MOL0     C38840   7.116   3.122   5.352 -1.1030 -0.4947  0.2767
 1007MOL0     C38841   7.117   3.208   5.226  0.2143  0.3488 -1.2296
 1007MOL0     C38842   7.179   3.341   5.236  0.3140  0.1875 -0.4187
 1007MOL0     C38843   7.224   3.397   5.098  0.6554 -0.4554 -0.3950
 1007MOL0     C38844   7.274   3.548   5.109 -0.1847 -0.7137 -0.0228
 1007MOL0     N38845   7.401   3.562   5.187 -0.7507 -0.4791  0.0815
 1007MOL0     C38846   7.434   3.681   5.252 -0.9826 -0.0223 -1.1777
 1007MOL0     C38847   7.565   3.654   5.280 -0.0054 -0.5870 -0.0724
 1007MOL0     C38848   7.644   3.742   5.373 -0.2760  1.4036 -1.0823
 1007MOL0     C38849   7.628   3.697   5.523  0.3135  0.3451 -0.6805
 1007MOL0     C38850   7.487   3.765   5.572 -0.5830  0.3121  0.0932
 1007MOL0     C38851   7.479   3.761   5.727 -0.7127 -0.1642 -0.1121
 1007MOL0     O38852   7.358   3.819   5.771  0.7805  0.3235 -0.5838
 1007MOL0     C38853   7.345   3.833   5.915  0.2922 -0.3969  0.0966
 1007MOL0     C38854   7.253   3.754   5.977  0.1836 -0.9407  0.0225
 1007MOL0     C38855   7.235   3.764   6.120 -0.1064  0.0074  1.3649
 1007MOL0     C38856   7.137   3.668   6.179 -0.1784  0.4849 -0.1408
 1007MOL0     C38857   7.302   3.865   6.192  0.5821 -0.0306  0.8265
 1007MOL0     C38858   7.276   3.889   6.332  0.0518  0.0609 -0.3348
 1007MOL0     O38859   7.372   3.937   6.407  0.0364 -0.4128 -0.4975
 1007MOL0     C38860   7.339   4.012   6.509  0.2914  0.5509  0.3882
 1007MOL0     C38861   7.359   4.150   6.513 -0.6268 -0.0289  1.2001
 1007MOL0     C38862   7.317   4.232   6.620  0.4277  0.1651  0.7136
 1007MOL0     C38863   7.251   4.171   6.729  0.2786  0.9570 -0.6552
 1007MOL0     O38864   7.213   4.244   6.838 -0.2211 -0.3880  0.0552
 1007MOL0     C38865   7.131   4.189   6.943  0.6474 -1.1026  0.1671
 1007MOL0     C38866   7.069   4.309   7.028  0.0783  0.3645  0.1645
 1007MOL0     C38867   7.009   4.437   6.954  0.3830  0.0974  0.4036
 1007MOL0     C38868   6.999   4.558   7.043 -0.9220 -0.4988 -0.5164
 1007MOL0     C38869   6.905   4.663   6.995 -0.0225 -0.1209 -0.2421
 1007MOL0     C38870   6.958   4.752   6.884  0.4462 -0.1276  0.1457
 1007MOL0     C38871   6.856   4.871   6.870  1.0277  0.8554  0.1754
 1007MOL0     C38872   6.910   4.974   6.769  0.5838  0.2170 -0.8926
 1007MOL0    Cl38873   6.828   4.965   6.620 -0.1728  0.3540  0.1152
 1007MOL0     C38874   7.233   4.032   6.721  0.2260 -0.3806  0.4277
 1007MOL0     C38875   7.275   3.955   6.613 -0.0389  0.4290  0.1111
 1007MOL0     O38876   7.161   3.874   6.367 -0.3587 -1.2886  0.5134
 1007MOL0     C38877   7.374   3.962   6.120  0.4551  1.4184  0.3997
 1007MOL0     C38878   7.405   3.938   5.981 -0.3192  0.0093  0.5857
 1007MOL0     N38879   7.607   3.531   5.222 -0.5373  0.1823  0.1545
 1007MOL0     N38880   7.506   3.473   5.175  0.0899  0.7526 -0.0851
 1007MOL0     C38881   6.935   3.474   5.624 -0.3254 -0.8453  0.1014
 1007MOL0     C38882   6.870   3.597   5.620 -0.2094 -0.1797  0.2478
 1007MOL0     C38883   6.818   4.048   5.536 -0.5270 -0.3979 -0.5427
 1007MOL0     C38884   6.750   4.093   5.655 -0.2876  0.6756  0.2019
 1007MOL0     C38885   6.670   4.208   5.649  0.1682  0.5261  0.4889
 1007MOL0     C38886   6.653   4.266   5.529 -0.0371  0.0411 -0.4320
 1007MOL0     O38887   6.556   4.361   5.536 -0.2032 -0.0725  0.0178
 1007MOL0     C38888   6.526   4.433   5.421  0.5177 -0.4111  0.1468
 1007MOL0     C38889   6.394   4.506   5.432  0.5610  0.3405  0.1824
 1007MOL0     C38890   6.390   4.626   5.534 -0.1736 -0.1923  0.9618
 1007MOL0     C38891   6.304   4.742   5.495  0.2929  0.7280  0.0862
 1007MOL0     C38892   6.160   4.705   5.468 -0.2911  0.4152  0.8126
 1007MOL0     C38893   6.045   4.672   5.453  0.1414  1.0385  0.1861
 1007MOL0     C38894   6.712   4.225   5.402  0.1768  0.6576  0.0301
 1007MOL0     C38895   6.803   4.115   5.416  0.3722  0.1976  0.5248
 1007MOL0     C38896   6.862   4.082   5.283 -0.8684  0.6679 -0.2808
 1007MOL0     H38897   7.119   3.797   5.726  2.1183 -0.4842  1.0902
 1007MOL0     H38898   7.230   3.565   5.740  0.3999  2.0986  1.4971
 1007MOL0     H38899   6.956   3.236   5.726  0.0524  1.0256 -2.3944
 1007MOL0     H38900   7.100   3.169   5.795  4.9996  3.1726  0.5010
 1007MOL0     H38901   7.189   3.107   5.603  0.1389 -0.0995 -1.0468
 1007MOL0     H38902   7.035   3.026   5.620  0.2121  1.4278 -0.1080
 1007MOL0     H38903   6.924   3.132   5.443  1.0872  0.7416 -3.1290
 1007MOL0     H38904   7.036   3.274   5.464  1.1046  0.2114 -0.0423
 1007MOL0     H38905   7.214   3.117   5.402  1.7807  0.2140 -4.6413
 1007MOL0     H38906   7.096   3.017   5.327  1.9987 -1.7913  2.5484
 1007MOL0     H38907   7.012   3.224   5.199 -0.4252  0.0650  0.8463
 1007MOL0     H38908   7.165   3.149   5.147  1.3355 -0.6489  0.1292
 1007MOL0     H38909   7.108   3.411   5.282 -0.6832 -2.1638  1.8629
 1007MOL0     H38910   7.268   3.341   5.301  0.6741  0.7113 -0.8943
 1007MOL0     H38911   7.139   3.398   5.029  1.6693 -0.1102 -1.6579
 1007MOL0     H38912   7.305   3.330   5.069  0.7553  0.3505 -2.0625
 1007MOL0     H38913   7.278   3.585   5.006  3.4508 -0.5635  0.0698
 1007MOL0     H38914   7.201   3.617   5.152  0.9245 -1.0771  2.6042
 1007MOL0     H38915   7.374   3.766   5.285  1.3223  1.8820 -1.6249
 1007MOL0     H38916   7.619   3.849   5.370 -1.4150  1.2269  0.8649
 1007MOL0     H38917   7.751   3.736   5.348 -0.5087  1.2332 -2.0723
 1007MOL0     H38918   7.637   3.589   5.532 -0.3729  0.4536  4.6903
 1007MOL0     H38919   7.700   3.742   5.592 -2.7758  0.6995  2.5823
 1007MOL0     H38920   7.477   3.868   5.536 -1.8312  0.1011 -0.2101
 1007MOL0     H38921   7.412   3.701   5.525 -1.1611  1.9345 -1.3111
 1007MOL0     H38922   7.494   3.656   5.756  1.8153 -0.3762 -1.8931
 1007MOL0     H38923   7.561   3.822   5.765  0.4577 -0.5770 -1.8542
 1007MOL0     H38924   7.197   3.685   5.914  0.9993 -0.0438 -1.7364
 1007MOL0     H38925   7.032   3.681   6.151 -1.9519 -1.0715  4.7052
 1007MOL0     H38926   7.134   3.659   6.288 -0.6071 -1.5478 -0.2760
 1007MOL0     H38927   7.175   3.569   6.153  0.5202  1.4393 -3.1400
 1007MOL0     H38928   7.421   4.195   6.436 -1.5949  0.6129  0.7740
 1007MOL0     H38929   7.351   4.334   6.631  2.0495 -0.2067 -0.5737
 1007MOL0     H38930   7.053   4.131   6.893 -0.0543  0.8657 -1.1373
 1007MOL0     H38931   7.193   4.131   7.012  1.6893 -0.6555 -0.3822
 1007MOL0     H38932   6.993   4.273   7.098  2.0628  0.2775  2.3733
 1007MOL0     H38933   7.146   4.346   7.097 -2.4002  2.1014  2.1926
 1007MOL0     H38934   6.918   4.403   6.904  1.4265 -2.0658 -0.1662
 1007MOL0     H38935   7.075   4.470   6.874  1.9149  0.7300  1.8682
 1007MOL0     H38936   7.098   4.603   7.045 -1.3779  0.5272  1.3713
 1007MOL0     H38937   6.973   4.525   7.144 -0.8271 -1.4225 -0.7827
 1007MOL0     H38938   6.803   4.629   6.973  0.0971 -0.9852  0.4599
 1007MOL0     H38939   6.903   4.734   7.078  0.8283  1.0713 -1.2020
 1007MOL0     H38940   6.962   4.691   6.793 -3.6342  0.9114 -0.9458
 1007MOL0     H38941   7.059   4.784   6.909  1.3081 -1.6638 -1.1407
 1007MOL0     H38942   6.855   4.910   6.972  2.4549  3.3944 -0.6919
 1007MOL0     H38943   6.758   4.833   6.840  0.9511  0.2081  1.2046
 1007MOL0     H38944   7.018   4.963   6.762  0.6475 -0.2546  0.4108
 1007MOL0     H38945   6.887   5.072   6.812  0.6339  1.0761 -2.7178
 1007MOL0     H38946   7.184   3.987   6.807 -2.0228 -0.0535 -0.5946
 1007MOL0     H38947   7.259   3.848   6.614 -0.3971  0.4631 -0.7480
 1007MOL0     H38948   7.416   4.046   6.173 -0.0902  1.4527  0.7897
 1007MOL0     H38949   7.466   4.016   5.938  0.8308  0.3150  2.6523
 1007MOL0     H38950   6.880   3.394   5.574  0.6612 -3.8362  3.3564
 1007MOL0     H38951   6.779   3.594   5.560  2.6172 -1.3598 -4.4872
 1007MOL0     H38952   6.754   4.030   5.743  2.1971 -2.3343 -1.8251
 1007MOL0     H38953   6.616   4.251   5.733 -1.5404  2.2765 -1.3754
 1007MOL0     H38954   6.604   4.504   5.394  1.3976 -1.2323  0.4879
 1007MOL0     H38955   6.520   4.356   5.344 -1.9336  3.2482 -3.8466
 1007MOL0     H38956   6.315   4.433   5.452 -0.5152  1.0294 -1.3781
 1007MOL0     H38957   6.365   4.541   5.333  1.0210  0.9076  0.2442
 1007MOL0     H38958   6.361   4.590   5.633  2.2875 -2.1201  1.0812
 1007MOL0     H38959   6.492   4.661   5.555 -1.4728  2.7570  3.0710
 1007MOL0     H38960   6.353   4.801   5.417 -1.6452  1.8716 -0.3252
 1007MOL0     H38961   6.301   4.814   5.576 -0.6754 -1.5451  2.2082
 1007MOL0     H38962   5.944   4.637   5.454  0.9356 -1.5369 -0.9748
 1007MOL0     H38963   6.709   4.276   5.306  2.4087 -0.7908 -0.8692
 1007MOL0     H38964   6.969   4.106   5.283 -0.2327 -1.8664  0.5854
 1007MOL0     H38965   6.864   3.973   5.273 -0.8940  0.6386  0.0395
 1007MOL0     H38966   6.815   4.122   5.192 -1.6561 -1.5277 -0.9178
 1008MOL0     O38967   6.453   8.114   6.520 -0.2867  0.0716  0.0194
 1008MOL0     C38968   6.345   8.063   6.520  0.4928  0.2807 -0.6356
 1008MOL0     O38969   6.276   8.019   6.419  0.2610  0.2670 -0.0513
 1008MOL0     C38970   6.345   7.987   6.304 -0.4083  0.4550  1.1370
 1008MOL0     C38971   6.398   7.860   6.291 -0.3817 -0.5541 -1.4798
 1008MOL0     C38972   6.457   7.820   6.171 -0.8152 -0.1203 -0.7826
 1008MOL0     C38973   6.477   7.909   6.062  0.1062 -0.5106  0.1069
 1008MOL0     O38974   6.541   7.885   5.944  0.3716  0.0188  0.5348
 1008MOL0     C38975   6.428   7.835   5.861  0.7782 -0.3950 -0.6201
 1008MOL0     C38976   6.465   7.771   5.729  0.1279  0.3359 -0.2361
 1008MOL0     C38977   6.539   7.862   5.632  0.1990  0.7865  0.1801
 1008MOL0     C38978   6.625   7.776   5.536 -0.6588 -0.2743 -0.5764
 1008MOL0     C38979   6.743   7.850   5.472 -0.2258  0.8815 -0.0651
 1008MOL0     C38980   6.691   7.930   5.350 -0.3788 -0.0713  0.3291
 1008MOL0     C38981   6.785   8.014   5.265 -0.5129 -0.3558 -0.3604
 1008MOL0     C38982   6.850   8.137   5.339  0.2500  0.1329 -0.6032
 1008MOL0     N38983   6.955   8.181   5.256  0.2683 -0.8420  0.7110
 1008MOL0     C38984   6.936   8.245   5.138  0.1575  0.2671  0.7747
 1008MOL0     C38985   7.053   8.258   5.074 -0.2702 -0.0004 -0.6252
 1008MOL0     C38986   7.090   8.355   4.959 -0.0372  0.2161 -0.3952
 1008MOL0     C38987   7.175   8.473   5.009  1.3308  0.2476  0.4847
 1008MOL0     C38988   7.184   8.579   4.897  0.3205 -0.5562  0.9109
 1008MOL0     C38989   7.239   8.529   4.763 -0.5508  0.0021 -0.5406
 1008MOL0     O38990   7.222   8.626   4.663  0.1588 -0.2683  0.7774
 1008MOL0     C38991   7.343   8.662   4.605 -0.4316  0.3972 -0.4905
 1008MOL0     C38992   7.436   8.737   4.683  0.0469  0.2811  0.3179
 1008MOL0     C38993   7.558   8.781   4.632  0.0811 -1.4129  0.5017
 1008MOL0     C38994   7.638   8.860   4.732 -0.4781  0.1884  0.6200
 1008MOL0     C38995   7.599   8.732   4.507 -0.4885  0.4605 -0.0357
 1008MOL0     C38996   7.732   8.748   4.455 -0.2735  0.0859 -0.1255
 1008MOL0     O38997   7.818   8.775   4.548  0.5515 -0.8855  0.0599
 1008MOL0     C38998   7.943   8.796   4.503 -0.2688  0.6079 -0.7162
 1008MOL0     C38999   8.007   8.718   4.412 -0.9001 -0.0061  0.3247
 1008MOL0     C39000   8.126   8.746   4.358 -0.8517 -0.0356 -0.8033
 1008MOL0     C39001   8.181   8.880   4.389 -0.0032  0.9113  0.0868
 1008MOL0     O39002   8.300   8.908   4.337 -0.8212 -0.5587 -0.2494
 1008MOL0     C39003   8.383   9.000   4.411 -0.3767  0.3548  0.3644
 1008MOL0     C39004   8.376   9.145   4.371 -0.4370  0.5680 -0.4667
 1008MOL0     C39005   8.514   9.218   4.385  0.3045 -0.6115  0.3239
 1008MOL0     C39006   8.542   9.349   4.318  0.3735 -0.4702 -0.5853
 1008MOL0     C39007   8.649   9.442   4.391 -0.3041  0.5939 -0.0351
 1008MOL0     C39008   8.799   9.401   4.402  0.1263  1.0995  0.2023
 1008MOL0     C39009   8.877   9.472   4.514 -0.1138 -0.5655 -0.0508
 1008MOL0     C39010   8.941   9.599   4.458  0.7522 -1.0210 -0.2076
 1008MOL0    Cl39011   9.053   9.660   4.579  0.2766 -0.4524 -0.2065
 1008MOL0     C39012   8.109   8.967   4.475 -0.7936  1.1686 -0.4242
 1008MOL0     C39013   7.988   8.920   4.535  0.2546 -0.5146 -0.0859
 1008MOL0     O39014   7.750   8.754   4.337 -0.5395  0.5915 -0.0318
 1008MOL0     C39015   7.504   8.670   4.426 -0.3217  1.0479 -0.2318
 1008MOL0     C39016   7.384   8.636   4.472  0.4548  0.7522  0.3407
 1008MOL0     N39017   7.141   8.189   5.149 -0.1148  0.0522 -0.2089
 1008MOL0     N39018   7.084   8.144   5.257 -0.2082  0.1082 -0.4051
 1008MOL0     C39019   6.426   8.032   6.080  0.3622 -1.0250 -0.0295
 1008MOL0     C39020   6.355   8.068   6.194  0.2073  0.0460 -1.0374
 1008MOL0     C39021   6.275   8.036   6.653 -0.0443  0.8947  0.0164
 1008MOL0     C39022   6.163   7.950   6.653  0.6436 -0.3916 -0.6182
 1008MOL0     C39023   6.094   7.927   6.770 -0.3325  0.9742 -0.4626
 1008MOL0     C39024   6.135   7.983   6.893 -0.0747 -0.3726 -0.2685
 1008MOL0     O39025   6.082   7.944   7.007  0.5323 -0.5381 -0.4577
 1008MOL0     C39026   6.163   7.855   7.081 -0.3038  0.8436 -0.1299
 1008MOL0     C39027   6.097   7.810   7.217 -0.2936  0.0295  0.5997
 1008MOL0     C39028   6.173   7.699   7.285  0.3209 -0.0665 -0.3057
 1008MOL0     C39029   6.235   7.597   7.186  0.6492 -0.2326  0.4236
 1008MOL0     C39030   6.263   7.478   7.262 -0.3685  0.7845  0.0073
 1008MOL0     C39031   6.294   7.388   7.340  0.0288 -0.1049 -0.4481
 1008MOL0     C39032   6.252   8.058   6.894 -0.2926 -0.4103 -0.0471
 1008MOL0     C39033   6.326   8.093   6.777 -0.5109  0.1260 -0.8286
 1008MOL0     C39034   6.450   8.167   6.785 -0.2198 -0.0205  0.0178
 1008MOL0     H39035   6.396   7.788   6.372  2.1027  0.1640 -0.6876
 1008MOL0     H39036   6.497   7.720   6.156  3.8431  0.8750  2.6467
 1008MOL0     H39037   6.374   7.927   5.836 -1.1268 -1.8924 -2.2838
 1008MOL0     H39038   6.361   7.772   5.920  1.2242 -1.8002 -1.5745
 1008MOL0     H39039   6.535   7.695   5.763 -0.2570  0.7392  1.5699
 1008MOL0     H39040   6.376   7.735   5.677 -0.4697  3.3388 -1.5283
 1008MOL0     H39041   6.465   7.909   5.566 -0.6360  4.1962  3.2401
 1008MOL0     H39042   6.591   7.949   5.673  0.6073  0.9048 -0.5705
 1008MOL0     H39043   6.656   7.691   5.598 -3.7782 -0.4434  0.9444
 1008MOL0     H39044   6.574   7.732   5.449  0.9425  0.5882 -2.0181
 1008MOL0     H39045   6.819   7.777   5.442  2.7269  3.1367  1.3728
 1008MOL0     H39046   6.791   7.917   5.545  0.5885  0.3760 -0.1219
 1008MOL0     H39047   6.646   7.859   5.279 -0.6279 -0.5696  0.9747
 1008MOL0     H39048   6.618   8.005   5.383  0.6203  3.6000 -4.5681
 1008MOL0     H39049   6.739   8.058   5.176  0.2108 -1.4334 -1.2955
 1008MOL0     H39050   6.867   7.954   5.226  2.1686  3.2767 -0.8447
 1008MOL0     H39051   6.775   8.217   5.342  2.2939  2.1839 -1.1771
 1008MOL0     H39052   6.889   8.103   5.436 -1.1476 -1.9342 -0.7033
 1008MOL0     H39053   6.840   8.287   5.108  0.6926  1.4074  0.6068
 1008MOL0     H39054   6.997   8.392   4.913 -0.5518  1.1562  1.3231
 1008MOL0     H39055   7.150   8.297   4.888 -0.7618 -0.5765 -0.3829
 1008MOL0     H39056   7.117   8.507   5.095 -1.7279 -3.4392  0.1748
 1008MOL0     H39057   7.276   8.448   5.043  2.3653  0.4325 -2.2129
 1008MOL0     H39058   7.083   8.611   4.869  0.2390 -1.2517  0.3800
 1008MOL0     H39059   7.229   8.674   4.927 -3.3059  1.6584 -0.0318
 1008MOL0     H39060   7.344   8.500   4.767 -0.6140 -0.8036 -2.8567
 1008MOL0     H39061   7.182   8.441   4.730 -2.6800  1.0682  0.0976
 1008MOL0     H39062   7.409   8.748   4.788 -2.1125 -0.1781 -0.1303
 1008MOL0     H39063   7.731   8.809   4.761  2.3169  2.8332 -2.7199
 1008MOL0     H39064   7.595   8.899   4.824  0.3996  2.2263  0.2275
 1008MOL0     H39065   7.650   8.950   4.671 -0.9811  0.2698  0.6378
 1008MOL0     H39066   7.966   8.621   4.383  0.5815  0.1314 -2.6093
 1008MOL0     H39067   8.184   8.671   4.304  2.9187  0.9775  1.4570
 1008MOL0     H39068   8.376   8.990   4.520 -1.0160 -0.7637  0.2335
 1008MOL0     H39069   8.481   8.963   4.383 -1.4837 -2.1518 -0.4408
 1008MOL0     H39070   8.360   9.149   4.263  1.5525  1.0669 -0.7708
 1008MOL0     H39071   8.296   9.191   4.430  0.6783 -0.5913  2.1509
 1008MOL0     H39072   8.598   9.148   4.380  0.7530 -0.4656  3.6254
 1008MOL0     H39073   8.521   9.247   4.490 -1.2222  1.9369 -0.1848
 1008MOL0     H39074   8.447   9.403   4.327 -0.3900 -1.8371 -0.1386
 1008MOL0     H39075   8.560   9.332   4.212 -4.0490 -3.3765 -1.1274
 1008MOL0     H39076   8.645   9.542   4.349 -3.3450  1.1782  1.3923
 1008MOL0     H39077   8.606   9.453   4.491 -3.9692  1.1268 -1.5216
 1008MOL0     H39078   8.855   9.422   4.310  2.1467 -0.2842  1.0435
 1008MOL0     H39079   8.803   9.292   4.412  2.0948  1.0948 -0.2876
 1008MOL0     H39080   8.955   9.411   4.561  2.9156  2.5230 -0.6266
 1008MOL0     H39081   8.805   9.501   4.590  0.2882 -0.7727  0.4186
 1008MOL0     H39082   8.855   9.664   4.439 -0.9837 -2.7211  1.3087
 1008MOL0     H39083   8.986   9.580   4.361 -0.1758  3.5916 -1.8012
 1008MOL0     H39084   8.159   9.061   4.492 -0.5228  1.7933 -3.9675
 1008MOL0     H39085   7.948   8.999   4.598 -1.6800  1.7087 -3.7367
 1008MOL0     H39086   7.524   8.643   4.322  0.6143  2.5634 -0.4809
 1008MOL0     H39087   7.328   8.576   4.401 -1.4940 -0.4236  2.7366
 1008MOL0     H39088   6.423   8.104   5.999 -1.8120 -0.4544  0.4818
 1008MOL0     H39089   6.303   8.163   6.192  0.4976  0.1930 -2.3200
 1008MOL0     H39090   6.127   7.901   6.564 -0.0639 -0.3367 -0.3730
 1008MOL0     H39091   5.999   7.877   6.758 -0.7243  2.0001 -1.9806
 1008MOL0     H39092   6.156   7.765   7.019 -2.8693 -0.3814  1.7567
 1008MOL0     H39093   6.257   7.901   7.113 -1.1393 -0.1584  4.5145
 1008MOL0     H39094   5.993   7.780   7.204  0.2546 -1.5158 -0.5431
 1008MOL0     H39095   6.088   7.895   7.286  1.3279  0.2891  0.5436
 1008MOL0     H39096   6.240   7.745   7.358 -2.2537  0.3784  1.9312
 1008MOL0     H39097   6.096   7.646   7.342 -0.7064  1.5169 -0.1451
 1008MOL0     H39098   6.332   7.636   7.154 -0.7590  2.4017 -0.9869
 1008MOL0     H39099   6.173   7.561   7.103  4.1409 -1.5910 -1.8043
 1008MOL0     H39100   6.326   7.314   7.411  0.9561  2.4243  1.9818
 1008MOL0     H39101   6.282   8.100   6.990  2.7607  0.2361 -1.1597
 1008MOL0     H39102   6.440   8.250   6.714  2.2693  0.4606  0.1338
 1008MOL0     H39103   6.462   8.195   6.890  2.0899  0.8917 -0.4225
 1008MOL0     H39104   6.533   8.101   6.757  0.2952  1.1157 -1.2220
 1009MOL0     O39105  10.851   5.410   3.792 -0.1329 -0.8496 -0.1750
 1009MOL0     C39106  10.803   5.336   3.708  0.0999  0.2074 -0.9764
 1009MOL0     O39107  10.866   5.221   3.659  0.6719  0.0395  0.2339
 1009MOL0     C39108  10.999   5.183   3.672  0.7569 -0.2549 -0.3216
 1009MOL0     C39109  11.030   5.052   3.662 -0.6211  0.2380  0.2941
 1009MOL0     C39110  11.161   5.005   3.682 -0.7990  0.5135  0.5913
 1009MOL0     C39111  11.267   5.091   3.700 -0.5693 -1.1169 -0.1473
 1009MOL0     O39112  11.397   5.040   3.733  0.8217 -0.0613 -0.1567
 1009MOL0     C39113  11.438   5.018   3.875 -0.3042 -0.3587  0.2982
 1009MOL0     C39114  11.499   4.877   3.885  0.1384 -0.1015  0.2416
 1009MOL0     C39115  11.631   4.872   3.799 -0.0657  0.5664 -0.2163
 1009MOL0     C39116  11.664   4.728   3.765  0.7792  0.8952  0.4376
 1009MOL0     C39117  11.771   4.727   3.656 -0.3135  0.0036 -0.3416
 1009MOL0     C39118  11.868   4.609   3.664  0.1864  0.3016 -0.2291
 1009MOL0     C39119  11.970   4.617   3.778  0.5389 -0.9039 -0.1029
 1009MOL0     C39120  12.055   4.489   3.778 -0.1626 -0.1641  0.4015
 1009MOL0     N39121  12.163   4.490   3.681 -0.2775 -0.3615  0.4659
 1009MOL0     C39122  12.290   4.537   3.701 -1.1380 -1.2928  1.1433
 1009MOL0     C39123  12.351   4.499   3.590  0.0191 -0.0380  0.0806
 1009MOL0     C39124  12.499   4.527   3.547  0.6521  0.3505 -0.5733
 1009MOL0     C39125  12.555   4.387   3.509 -0.3620  0.4076 -0.0614
 1009MOL0     C39126  12.594   4.295   3.624  0.5361  0.2091 -0.0123
 1009MOL0     C39127  12.705   4.196   3.600 -0.7396  0.0331  0.2904
 1009MOL0     O39128  12.834   4.243   3.572 -0.3180  0.3430 -0.1354
 1009MOL0     C39129  12.903   4.307   3.673  0.6424  0.5149  1.0911
 1009MOL0     C39130  13.003   4.382   3.627 -0.0169 -0.5169  0.4570
 1009MOL0     C39131  13.104   4.424   3.719 -0.7579 -0.0994 -0.1524
 1009MOL0     C39132  13.229   4.461   3.637  0.3937 -0.5089 -0.2806
 1009MOL0     C39133  13.091   4.418   3.856 -0.1581 -0.4142  0.5818
 1009MOL0     C39134  13.188   4.481   3.952 -0.7391  0.5722 -0.5546
 1009MOL0     O39135  13.134   4.502   4.075 -0.0448  0.4751 -0.4870
 1009MOL0     C39136  13.205   4.566   4.180 -1.4585  0.4444  0.6282
 1009MOL0     C39137  13.132   4.652   4.262 -0.4009  0.4100  0.0147
 1009MOL0     C39138  13.193   4.736   4.360  0.0832  0.5421 -0.0611
 1009MOL0     C39139  13.331   4.738   4.376  0.2337  0.5797  0.3176
 1009MOL0     O39140  13.384   4.804   4.478  0.0670  0.4402  0.2612
 1009MOL0     C39141  13.382   4.946   4.460 -0.1348  0.3791 -1.2315
 1009MOL0     C39142  13.370   5.021   4.597  0.5515  0.8514 -0.0484
 1009MOL0     C39143  13.496   4.983   4.691  0.7543  0.5868  0.1563
 1009MOL0     C39144  13.521   5.114   4.777 -0.1588  0.5039  0.9314
 1009MOL0     C39145  13.661   5.095   4.851  1.0403 -0.2013 -0.7194
 1009MOL0     C39146  13.790   5.162   4.796 -0.1035  0.3512  0.2939
 1009MOL0     C39147  13.796   5.310   4.778  0.0087  1.1619  0.0839
 1009MOL0     C39148  13.755   5.370   4.915  0.4601 -0.0096  0.3650
 1009MOL0    Cl39149  13.579   5.400   4.913  0.1494 -0.2277  0.3990
 1009MOL0     C39150  13.407   4.649   4.300  0.4767 -0.8269  0.3296
 1009MOL0     C39151  13.345   4.564   4.204 -0.0531 -0.2403  0.0999
 1009MOL0     O39152  13.305   4.506   3.908  0.3138 -0.0325  0.2895
 1009MOL0     C39153  12.977   4.356   3.906  0.8875 -0.5667  1.0244
 1009MOL0     C39154  12.887   4.300   3.817 -0.5716 -0.2714  0.0777
 1009MOL0     N39155  12.254   4.457   3.495  0.8919 -0.6756 -0.3783
 1009MOL0     N39156  12.131   4.452   3.551  0.4822 -0.8235  0.2742
 1009MOL0     C39157  11.235   5.231   3.712  0.0842  0.6254 -0.6809
 1009MOL0     C39158  11.098   5.272   3.701 -0.1848 -0.9591  0.5810
 1009MOL0     C39159  10.667   5.352   3.660  0.0676 -0.6086  0.5558
 1009MOL0     C39160  10.657   5.343   3.519 -0.4866 -0.5156 -0.1899
 1009MOL0     C39161  10.531   5.359   3.459  0.5126  0.1350  0.2185
 1009MOL0     C39162  10.421   5.402   3.527 -0.3022  0.6474  0.3438
 1009MOL0     O39163  10.312   5.424   3.439  0.5011  0.7697 -0.7290
 1009MOL0     C39164  10.195   5.476   3.503 -0.4365  0.6229 -0.0192
 1009MOL0     C39165  10.198   5.625   3.514 -0.8800  0.0508 -0.1082
 1009MOL0     C39166  10.186   5.689   3.368 -0.0794 -0.9470 -1.0604
 1009MOL0     C39167  10.143   5.833   3.370  0.2740  0.9366  0.4105
 1009MOL0     C39168  10.250   5.922   3.421 -0.5739  0.6550 -0.5690
 1009MOL0     C39169  10.341   5.995   3.458 -0.8830  0.1561 -0.3181
 1009MOL0     C39170  10.439   5.430   3.663  0.9260  0.1112 -0.0725
 1009MOL0     C39171  10.554   5.404   3.735  0.4505  0.9710 -0.2984
 1009MOL0     C39172  10.562   5.418   3.894  0.0132  0.8444 -0.0465
 1009MOL0     H39173  10.949   4.986   3.631 -0.7888  0.2987  0.6069
 1009MOL0     H39174  11.173   4.897   3.682 -0.2113  0.5680 -0.2733
 1009MOL0     H39175  11.352   5.036   3.940 -0.9800  2.2017 -1.1837
 1009MOL0     H39176  11.507   5.091   3.916 -0.5287 -0.5905  1.1091
 1009MOL0     H39177  11.521   4.844   3.987  1.7060 -0.8453 -0.2960
 1009MOL0     H39178  11.423   4.815   3.836  1.6534 -0.7119 -1.4417
 1009MOL0     H39179  11.635   4.937   3.712  0.6819  2.8101  1.4126
 1009MOL0     H39180  11.706   4.902   3.872 -0.4966 -0.7814  0.8324
 1009MOL0     H39181  11.698   4.670   3.852  2.2132  1.8584  0.5427
 1009MOL0     H39182  11.578   4.675   3.722 -0.4820  0.5634  3.1282
 1009MOL0     H39183  11.827   4.820   3.651 -1.2794  0.5305 -3.0748
 1009MOL0     H39184  11.711   4.727   3.564  0.6877 -2.7194 -1.1115
 1009MOL0     H39185  11.816   4.513   3.660  0.0127  0.4249 -2.7756
 1009MOL0     H39186  11.931   4.612   3.575  1.0234  2.1173  0.3822
 1009MOL0     H39187  11.919   4.646   3.870  2.6037  4.5229 -0.3103
 1009MOL0     H39188  12.040   4.699   3.760 -2.9003  2.1614 -0.7663
 1009MOL0     H39189  12.098   4.484   3.878  0.8320  0.3364  0.0158
 1009MOL0     H39190  11.987   4.403   3.776 -3.0029  1.7004  4.4153
 1009MOL0     H39191  12.328   4.597   3.782  0.6365  1.2410 -1.3663
 1009MOL0     H39192  12.559   4.569   3.629  2.0591 -3.2282  0.4080
 1009MOL0     H39193  12.490   4.588   3.457 -0.8370  1.2275  0.1385
 1009MOL0     H39194  12.490   4.337   3.437  1.8122  2.4579 -3.7538
 1009MOL0     H39195  12.649   4.400   3.454 -1.1040 -1.7988 -1.9895
 1009MOL0     H39196  12.627   4.364   3.703 -1.1379  1.8153 -0.6386
 1009MOL0     H39197  12.505   4.238   3.651  0.6210 -0.4078 -1.0053
 1009MOL0     H39198  12.715   4.144   3.696  3.0851  2.8743  1.6749
 1009MOL0     H39199  12.680   4.122   3.523  1.0135 -3.5302  2.8218
 1009MOL0     H39200  13.031   4.396   3.523  2.7495 -2.3336  0.8318
 1009MOL0     H39201  13.210   4.454   3.530 -0.0241 -1.4042 -0.1566
 1009MOL0     H39202  13.313   4.405   3.678  1.1533  0.2233 -0.8143
 1009MOL0     H39203  13.262   4.564   3.653  3.2022 -0.7957 -3.2801
 1009MOL0     H39204  13.027   4.669   4.238 -0.4402 -0.1847 -0.2584
 1009MOL0     H39205  13.121   4.795   4.416 -2.6268  0.2061 -2.9071
 1009MOL0     H39206  13.477   4.975   4.415  0.0044  1.6114 -0.1816
 1009MOL0     H39207  13.295   4.973   4.400 -1.8369 -1.0132  0.4787
 1009MOL0     H39208  13.366   5.128   4.573  0.3328  0.8256 -0.1327
 1009MOL0     H39209  13.275   4.998   4.647 -1.5395  3.3309 -2.4949
 1009MOL0     H39210  13.580   4.949   4.629 -2.2567 -1.2283 -3.3136
 1009MOL0     H39211  13.465   4.902   4.757 -4.4113  0.1178 -2.3980
 1009MOL0     H39212  13.436   5.128   4.846 -0.4315  1.7965  0.3624
 1009MOL0     H39213  13.526   5.210   4.726 -1.9687 -0.1369 -0.5789
 1009MOL0     H39214  13.645   5.126   4.954 -0.4849 -1.4066 -0.5524
 1009MOL0     H39215  13.681   4.989   4.868  4.6090  0.5604  0.6354
 1009MOL0     H39216  13.793   5.108   4.701  1.1483 -0.9078  0.9968
 1009MOL0     H39217  13.882   5.131   4.846 -0.5543  1.4880  1.9070
 1009MOL0     H39218  13.728   5.343   4.700  1.8709 -1.1687 -2.7506
 1009MOL0     H39219  13.900   5.326   4.749  0.2164 -0.3308 -0.0723
 1009MOL0     H39220  13.800   5.468   4.936  2.1438 -0.5782 -0.4101
 1009MOL0     H39221  13.777   5.300   4.996 -1.5267 -1.4875 -0.2871
 1009MOL0     H39222  13.513   4.645   4.323  0.6313  3.2125  1.0262
 1009MOL0     H39223  13.414   4.524   4.131 -0.6488  1.3956 -1.4490
 1009MOL0     H39224  12.964   4.328   4.010 -2.6987 -0.8329  0.6376
 1009MOL0     H39225  12.806   4.241   3.859  1.2737 -1.2345  2.6013
 1009MOL0     H39226  11.316   5.301   3.728  2.0716 -1.5951 -0.5178
 1009MOL0     H39227  11.074   5.378   3.695  2.4857 -0.3230 -0.6058
 1009MOL0     H39228  10.747   5.316   3.465 -1.2600 -2.3945 -0.6298
 1009MOL0     H39229  10.533   5.343   3.351  0.8315 -0.7819  0.3450
 1009MOL0     H39230  10.104   5.455   3.446 -1.3347 -0.2411  1.6744
 1009MOL0     H39231  10.183   5.445   3.607 -1.5965 -1.9457 -0.8310
 1009MOL0     H39232  10.294   5.650   3.560 -0.3474  1.4874 -1.8839
 1009MOL0     H39233  10.109   5.652   3.571 -1.6148 -2.5637  0.1393
 1009MOL0     H39234  10.278   5.684   3.308  0.8668  2.2882 -0.1029
 1009MOL0     H39235  10.101   5.649   3.314 -0.1047  0.5435 -2.1830
 1009MOL0     H39236  10.057   5.830   3.437 -0.7051 -0.4149 -0.8401
 1009MOL0     H39237  10.114   5.871   3.272  0.1234 -3.2130 -1.3825
 1009MOL0     H39238  10.414   6.060   3.501 -0.8541  0.6981 -1.1613
 1009MOL0     H39239  10.356   5.457   3.728  0.4181  1.5103 -1.2568
 1009MOL0     H39240  10.613   5.510   3.925 -0.8117  1.8092 -1.4419
 1009MOL0     H39241  10.465   5.418   3.944 -0.9164  0.7433 -1.7748
 1009MOL0     H39242  10.629   5.342   3.935 -0.9274 -0.9075 -1.6183
 1010MOL0     O39243   0.352  10.460   4.155 -0.2695 -0.0614 -0.8629
 1010MOL0     C39244   0.334  10.432   4.276 -0.3928  0.0253  0.2099
 1010MOL0     O39245   0.339  10.302   4.322  0.6887  0.5540 -0.3560
 1010MOL0     C39246   0.305  10.195   4.231  0.1583  0.3913 -0.6372
 1010MOL0     C39247   0.176  10.161   4.197 -0.1264 -0.0204 -0.2179
 1010MOL0     C39248   0.148  10.038   4.139 -0.1579 -0.2738 -0.3550
 1010MOL0     C39249   0.246   9.949   4.097  0.5061 -0.7430 -0.7252
 1010MOL0     O39250   0.211   9.829   4.046 -0.1035  0.4470 -0.2066
 1010MOL0     C39251   0.314   9.737   3.992 -0.3185 -0.4940  0.3069
 1010MOL0     C39252   0.250   9.623   3.921  0.5633 -0.0575 -0.2047
 1010MOL0     C39253   0.134   9.556   4.008  0.0301  0.5511  0.2977
 1010MOL0     C39254   0.081   9.435   3.930  0.4454 -0.1557 -0.5305
 1010MOL0     C39255  -0.024   9.355   4.010 -0.1733  0.1067 -0.4368
 1010MOL0     C39256  -0.096   9.251   3.927  0.0151 -0.5254  0.0693
 1010MOL0     C39257  -0.199   9.318   3.846 -0.2577 -0.8681  0.7013
 1010MOL0     C39258  -0.240   9.214   3.738 -0.5111  0.5607 -0.7114
 1010MOL0     N39259  -0.356   9.255   3.665  0.4987 -0.1644 -0.6520
 1010MOL0     C39260  -0.358   9.377   3.601  0.9728 -0.0917 -0.7710
 1010MOL0     C39261  -0.465   9.360   3.515 -0.0178 -0.8659 -0.7841
 1010MOL0     C39262  -0.516   9.469   3.425 -0.8884 -0.2253  0.0708
 1010MOL0     C39263  -0.655   9.437   3.373  0.8712  0.5510  0.4673
 1010MOL0     C39264  -0.772   9.508   3.453 -0.3965  0.4381  0.5477
 1010MOL0     C39265  -0.771   9.461   3.605 -0.3813  0.2954 -0.0970
 1010MOL0     O39266  -0.892   9.513   3.646  0.2859 -0.7409 -0.4142
 1010MOL0     C39267  -0.938   9.487   3.771  0.1895 -0.1140  0.1989
 1010MOL0     C39268  -1.051   9.563   3.809  0.0038  0.0990  0.1949
 1010MOL0     C39269  -1.100   9.560   3.944 -0.1550  0.1411  0.5344
 1010MOL0     C39270  -1.214   9.658   3.980  0.6520  0.4509 -0.4669
 1010MOL0     C39271  -1.038   9.469   4.039 -0.3918 -0.9839 -0.3931
 1010MOL0     C39272  -1.086   9.452   4.172  0.1745 -0.4588 -0.5579
 1010MOL0     O39273  -1.204   9.513   4.216 -0.1465  0.6293 -0.0474
 1010MOL0     C39274  -1.211   9.542   4.348  0.7311 -0.0477 -0.7591
 1010MOL0     C39275  -1.311   9.472   4.423 -0.6963 -0.0928  0.2327
 1010MOL0     C39276  -1.318   9.513   4.563  0.9824 -0.3846 -0.2152
 1010MOL0     C39277  -1.247   9.620   4.618 -1.0830  0.0761  0.7608
 1010MOL0     O39278  -1.262   9.676   4.742  0.6648  0.1594  0.1924
 1010MOL0     C39279  -1.226   9.578   4.848  0.2771  0.2183  0.1446
 1010MOL0     C39280  -1.175   9.653   4.972 -0.2994 -0.1357 -0.7775
 1010MOL0     C39281  -1.104   9.575   5.082  0.5179 -0.9181 -0.5688
 1010MOL0     C39282  -1.157   9.443   5.112 -0.4996 -0.2082 -0.5861
 1010MOL0     C39283  -1.056   9.356   5.192 -0.0008  0.2320  0.6516
 1010MOL0     C39284  -0.948   9.294   5.096  0.0401  0.7886 -0.4676
 1010MOL0     C39285  -0.890   9.164   5.156  0.1068 -0.5233 -0.1626
 1010MOL0     C39286  -0.755   9.122   5.097 -0.4354 -0.2873 -0.2045
 1010MOL0    Cl39287  -0.747   9.106   4.927  0.2513  0.1438  0.3526
 1010MOL0     C39288  -1.155   9.681   4.530 -0.2002  0.9080  0.4611
 1010MOL0     C39289  -1.138   9.651   4.400  0.1536 -0.4224 -0.0173
 1010MOL0     O39290  -1.007   9.398   4.252  0.2487 -0.0444 -0.8643
 1010MOL0     C39291  -0.926   9.393   3.989 -0.2159 -0.3349  0.0696
 1010MOL0     C39292  -0.876   9.410   3.866  0.4704  0.4266 -0.0240
 1010MOL0     N39293  -0.532   9.236   3.543  0.8778 -1.1041  0.6762
 1010MOL0     N39294  -0.462   9.169   3.637  0.0917 -0.3133  0.1481
 1010MOL0     C39295   0.380   9.985   4.121  0.6403 -0.0158 -1.0853
 1010MOL0     C39296   0.409  10.103   4.197  0.8776  0.1061  0.8695
 1010MOL0     C39297   0.294  10.533   4.368  0.0005 -0.1335 -0.1652
 1010MOL0     C39298   0.331  10.669   4.341  0.0841  0.3073  0.9008
 1010MOL0     C39299   0.292  10.767   4.433 -0.1375  0.5730 -0.6546
 1010MOL0     C39300   0.229  10.737   4.552 -0.9320 -0.1991  0.6116
 1010MOL0     O39301   0.208  10.837   4.654 -0.0268  0.0537  0.1120
 1010MOL0     C39302   0.318  10.932   4.666  0.7421  0.5701 -0.0985
 1010MOL0     C39303   0.437  10.855   4.719 -1.0941  0.5909 -0.2093
 1010MOL0     C39304   0.434  10.843   4.875 -0.2104 -1.1965  0.1420
 1010MOL0     C39305   0.313  10.757   4.935  0.4097  0.5712  0.3671
 1010MOL0     C39306   0.348  10.619   4.900  0.4742  0.3274  0.1645
 1010MOL0     C39307   0.371  10.506   4.866  0.0738 -1.0180 -0.3103
 1010MOL0     C39308   0.186  10.612   4.566  0.8450  0.7883 -1.3433
 1010MOL0     C39309   0.205  10.504   4.482 -0.9179 -0.3427  1.1741
 1010MOL0     C39310   0.146  10.363   4.518  0.4845  0.1705  0.5868
 1010MOL0     H39311   0.099  10.234   4.221  0.9545  0.9496  0.3911
 1010MOL0     H39312   0.045  10.004   4.135 -0.4448  0.5065  0.1499
 1010MOL0     H39313   0.380   9.698   4.070  0.1232 -0.8870 -0.2480
 1010MOL0     H39314   0.380   9.794   3.926 -2.1205  1.6560  0.2689
 1010MOL0     H39315   0.218   9.645   3.819  0.6851 -1.5064 -0.5806
 1010MOL0     H39316   0.327   9.548   3.900  2.7640  2.4020 -1.5816
 1010MOL0     H39317   0.170   9.525   4.106  2.2892 -0.9014 -0.8925
 1010MOL0     H39318   0.047   9.620   4.021  0.4997  0.8935  1.8628
 1010MOL0     H39319   0.053   9.465   3.829 -0.7973 -0.0674 -0.1768
 1010MOL0     H39320   0.163   9.366   3.908  2.8037  1.9707  1.0376
 1010MOL0     H39321  -0.099   9.425   4.047 -4.4218 -3.6885 -1.0192
 1010MOL0     H39322   0.026   9.302   4.092 -0.4988  0.2595 -0.1373
 1010MOL0     H39323  -0.031   9.192   3.862  0.5527  0.6331 -0.4894
 1010MOL0     H39324  -0.147   9.182   3.993  1.4625 -1.2642  0.4428
 1010MOL0     H39325  -0.164   9.411   3.800 -2.1243  0.0612  1.0213
 1010MOL0     H39326  -0.292   9.337   3.902 -0.5469 -0.8410  0.2162
 1010MOL0     H39327  -0.160   9.210   3.664 -0.1622 -0.5835 -0.2952
 1010MOL0     H39328  -0.258   9.114   3.779  0.3318  0.1102 -1.4190
 1010MOL0     H39329  -0.284   9.457   3.600 -0.4513  1.3468 -3.2206
 1010MOL0     H39330  -0.444   9.484   3.344 -2.1578 -0.0751 -1.0747
 1010MOL0     H39331  -0.521   9.562   3.482 -2.4323 -0.6092  0.5985
 1010MOL0     H39332  -0.680   9.469   3.271  1.0381  1.5086  0.7193
 1010MOL0     H39333  -0.676   9.330   3.371  0.7530  0.4663  2.8672
 1010MOL0     H39334  -0.758   9.614   3.427  0.0347  1.4260  4.2070
 1010MOL0     H39335  -0.865   9.470   3.410  1.7616 -1.9840 -2.3822
 1010MOL0     H39336  -0.763   9.353   3.625 -1.6769  0.2709  0.3993
 1010MOL0     H39337  -0.681   9.499   3.655  1.4443  1.7016 -4.0501
 1010MOL0     H39338  -1.097   9.628   3.735 -2.4472 -1.1380  0.5492
 1010MOL0     H39339  -1.250   9.728   3.903  0.1677  0.4572 -0.2413
 1010MOL0     H39340  -1.197   9.718   4.070  1.4668  1.8597 -1.5147
 1010MOL0     H39341  -1.311   9.608   3.983  0.9038 -0.1073 -1.2696
 1010MOL0     H39342  -1.362   9.390   4.373  1.1896  1.3057 -4.5189
 1010MOL0     H39343  -1.386   9.462   4.630 -0.7715  0.1204 -1.5380
 1010MOL0     H39344  -1.309   9.508   4.852  0.5287 -0.0587  0.8319
 1010MOL0     H39345  -1.139   9.514   4.826  0.3738  0.4282 -0.0947
 1010MOL0     H39346  -1.101   9.727   4.940  1.4087 -2.0656 -1.5285
 1010MOL0     H39347  -1.258   9.706   5.019 -1.6902 -2.1534 -0.8216
 1010MOL0     H39348  -1.095   9.640   5.169 -2.1158 -2.8484  1.3184
 1010MOL0     H39349  -1.004   9.573   5.040  0.3489  3.1735 -1.5011
 1010MOL0     H39350  -1.186   9.389   5.021  1.1306  1.4331 -2.1762
 1010MOL0     H39351  -1.247   9.459   5.172  0.6522 -3.3094  2.2964
 1010MOL0     H39352  -1.005   9.406   5.274 -2.2091  2.3610  0.8487
 1010MOL0     H39353  -1.129   9.279   5.219  0.0014 -1.1484 -2.7729
 1010MOL0     H39354  -0.870   9.371   5.093 -2.4975  3.7781  2.1766
 1010MOL0     H39355  -0.978   9.280   4.992 -0.1387  1.0974 -0.4610
 1010MOL0     H39356  -0.966   9.086   5.143  0.6784 -1.3165  1.1311
 1010MOL0     H39357  -0.884   9.166   5.265  1.3627 -3.8466 -0.0770
 1010MOL0     H39358  -0.717   9.028   5.138  0.4393  0.5312  0.9454
 1010MOL0     H39359  -0.684   9.200   5.127  0.4096 -0.4092 -1.7763
 1010MOL0     H39360  -1.099   9.772   4.548 -0.6775  1.4048 -0.4958
 1010MOL0     H39361  -1.070   9.715   4.346  1.7489 -1.4656  0.6546
 1010MOL0     H39362  -0.879   9.324   4.058  0.6519 -0.3443 -0.5208
 1010MOL0     H39363  -0.789   9.349   3.843 -0.6463 -0.5724 -1.8587
 1010MOL0     H39364   0.467   9.930   4.086 -0.3844 -2.4934  0.0396
 1010MOL0     H39365   0.512  10.122   4.225 -0.0294  5.0897  1.8134
 1010MOL0     H39366   0.373  10.696   4.245 -2.0003 -2.1153 -0.8271
 1010MOL0     H39367   0.341  10.862   4.413  2.1108 -0.4100 -0.1044
 1010MOL0     H39368   0.334  10.994   4.578 -0.4454  0.8949 -0.1071
 1010MOL0     H39369   0.286  11.012   4.733  0.5244  0.9724 -0.6719
 1010MOL0     H39370   0.522  10.917   4.692  0.3102 -0.9782  0.4494
 1010MOL0     H39371   0.447  10.758   4.670 -0.9213 -0.4355  1.7502
 1010MOL0     H39372   0.525  10.802   4.921 -0.9802 -2.2437  0.7755
 1010MOL0     H39373   0.427  10.946   4.910  3.3528 -1.1307  1.1417
 1010MOL0     H39374   0.215  10.775   4.891  0.6183 -0.7526 -0.7163
 1010MOL0     H39375   0.309  10.772   5.043  1.3372  0.8632  0.3712
 1010MOL0     H39376   0.370  10.401   4.844 -1.1433 -1.2805  0.8498
 1010MOL0     H39377   0.134  10.597   4.659  3.0294 -0.9021 -0.2999
 1010MOL0     H39378   0.089  10.375   4.611  0.4442 -3.3197  1.1502
 1010MOL0     H39379   0.078  10.345   4.435 -1.0790  3.8613  0.8576
 1010MOL0     H39380   0.231  10.297   4.540  0.6550  0.4669  0.8221
 1011MOL0     O39381   6.096   8.230   4.572  0.4672  0.5262 -0.5691
 1011MOL0     C39382   6.074   8.106   4.586 -0.2738 -0.1186 -0.3944
 1011MOL0     O39383   6.165   8.015   4.606  0.5510  0.2552 -0.0127
 1011MOL0     C39384   6.296   8.058   4.603 -0.1522  0.0419  0.3223
 1011MOL0     C39385   6.352   8.128   4.711 -0.4753 -0.3815  0.3891
 1011MOL0     C39386   6.481   8.178   4.697 -0.0879 -0.0134  0.1126
 1011MOL0     C39387   6.557   8.138   4.582  0.3276  0.1050 -0.4111
 1011MOL0     O39388   6.680   8.193   4.574  0.8216 -0.8124  0.8129
 1011MOL0     C39389   6.780   8.130   4.504 -0.7032  0.1522  0.7070
 1011MOL0     C39390   6.914   8.195   4.534 -1.4539 -0.6076 -0.2061
 1011MOL0     C39391   7.045   8.143   4.470 -0.1420  0.8673  0.8015
 1011MOL0     C39392   7.175   8.195   4.535 -0.4144 -0.6259 -0.3496
 1011MOL0     C39393   7.306   8.154   4.459 -0.0713  0.7328  0.4047
 1011MOL0     C39394   7.425   8.233   4.498  0.7420 -1.4000 -0.4543
 1011MOL0     C39395   7.529   8.184   4.394  0.4408 -0.0960 -0.2160
 1011MOL0     C39396   7.642   8.273   4.387  0.2434  0.0667  1.2555
 1011MOL0     N39397   7.725   8.258   4.505 -0.1488 -0.4616  0.1912
 1011MOL0     C39398   7.809   8.153   4.527 -0.3581 -0.6602 -0.5301
 1011MOL0     C39399   7.875   8.200   4.640  0.6897 -0.0934  0.8501
 1011MOL0     C39400   7.994   8.139   4.710  0.2269  0.3836 -0.2227
 1011MOL0     C39401   8.031   8.185   4.847 -0.5899  0.1194  0.0827
 1011MOL0     C39402   8.163   8.123   4.891  0.0082 -0.6661  0.3176
 1011MOL0     C39403   8.280   8.220   4.860  0.2117 -0.5709 -0.2827
 1011MOL0     O39404   8.396   8.173   4.948  0.4616  0.4157 -0.4941
 1011MOL0     C39405   8.462   8.049   4.919  0.6471  1.0056  0.2511
 1011MOL0     C39406   8.486   7.949   5.022 -0.1157 -1.4208 -0.3224
 1011MOL0     C39407   8.561   7.837   4.994  0.2872 -0.5346  0.2983
 1011MOL0     C39408   8.598   7.738   5.108 -0.6878 -0.0306  0.0007
 1011MOL0     C39409   8.596   7.806   4.856  0.3021 -0.0651 -0.5611
 1011MOL0     C39410   8.667   7.687   4.821 -1.1242 -0.5089  0.6245
 1011MOL0     O39411   8.597   7.622   4.721  0.4426  0.0344  0.7266
 1011MOL0     C39412   8.617   7.484   4.701 -0.1766 -0.3570 -0.1033
 1011MOL0     C39413   8.718   7.403   4.765 -0.4071 -0.1965  1.0753
 1011MOL0     C39414   8.736   7.261   4.740 -0.2759  0.6628 -0.1529
 1011MOL0     C39415   8.647   7.192   4.653 -0.0229  0.0283 -0.2756
 1011MOL0     O39416   8.687   7.064   4.626 -0.2514 -0.0756  0.6303
 1011MOL0     C39417   8.612   6.982   4.536  0.3189 -0.4959  0.0513
 1011MOL0     C39418   8.674   6.842   4.543  0.2413  0.3640  1.0658
 1011MOL0     C39419   8.604   6.761   4.664  0.2567  0.4087  0.0066
 1011MOL0     C39420   8.623   6.606   4.652  0.2527 -0.4449  0.6817
 1011MOL0     C39421   8.567   6.546   4.771  0.6140 -0.4832 -1.1686
 1011MOL0     C39422   8.542   6.394   4.756  0.2223 -0.1491  0.4653
 1011MOL0     C39423   8.502   6.333   4.890 -0.5582  0.3774 -0.0889
 1011MOL0     C39424   8.457   6.191   4.848 -0.3915  0.2503 -0.4643
 1011MOL0    Cl39425   8.411   6.125   5.006  0.3151  0.3005 -0.0486
 1011MOL0     C39426   8.559   7.271   4.581  0.6514  0.3490 -0.0100
 1011MOL0     C39427   8.542   7.415   4.598 -0.3302  0.2385  0.4597
 1011MOL0     O39428   8.790   7.678   4.847 -0.3457  0.0186 -1.2159
 1011MOL0     C39429   8.558   7.894   4.752  0.0049 -0.1013  0.8249
 1011MOL0     C39430   8.499   8.015   4.786 -0.4311  0.1200 -0.0127
 1011MOL0     N39431   7.814   8.318   4.679  0.0136 -0.9110  0.2510
 1011MOL0     N39432   7.719   8.354   4.596 -0.2630  0.5596 -0.3311
 1011MOL0     C39433   6.505   8.054   4.480  0.3978  0.3947  0.4204
 1011MOL0     C39434   6.372   8.011   4.493 -0.1719  0.1344  0.0605
 1011MOL0     C39435   5.930   8.071   4.580 -0.8288 -0.2218 -0.8587
 1011MOL0     C39436   5.893   7.944   4.639 -0.1613  0.0144 -0.0194
 1011MOL0     C39437   5.761   7.904   4.661 -0.1509 -0.4808  0.0415
 1011MOL0     C39438   5.659   7.981   4.607 -1.3382  0.1547  0.4235
 1011MOL0     O39439   5.522   7.959   4.608  0.0669 -0.1133 -0.3888
 1011MOL0     C39440   5.481   7.833   4.643  1.1320 -0.3301  0.0235
 1011MOL0     C39441   5.334   7.815   4.617  1.7899  0.8918 -0.6249
 1011MOL0     C39442   5.291   7.666   4.617 -0.0658  0.1569  0.2637
 1011MOL0     C39443   5.236   7.615   4.747 -0.0612  0.8962 -0.0047
 1011MOL0     C39444   5.329   7.608   4.857 -0.2907 -0.0427  0.4175
 1011MOL0     C39445   5.397   7.588   4.953  0.1918  0.3323  0.0876
 1011MOL0     C39446   5.695   8.100   4.533  0.4055 -0.0123 -0.2697
 1011MOL0     C39447   5.821   8.153   4.530 -0.0793 -0.1013  0.5680
 1011MOL0     C39448   5.834   8.291   4.480  0.1151  0.3103  0.5316
 1011MOL0     H39449   6.300   8.159   4.801 -1.6383  1.5898 -0.8875
 1011MOL0     H39450   6.529   8.248   4.765  1.3627  2.6396 -3.3006
 1011MOL0     H39451   6.766   8.161   4.400 -0.7744  1.2623  1.0337
 1011MOL0     H39452   6.777   8.024   4.527 -1.4359 -0.8686 -3.3208
 1011MOL0     H39453   6.915   8.303   4.517  2.1427 -0.5601 -0.4454
 1011MOL0     H39454   6.925   8.177   4.642  2.2228  4.0073  0.5274
 1011MOL0     H39455   7.043   8.034   4.475  0.7118  0.6561 -1.8790
 1011MOL0     H39456   7.045   8.182   4.368  1.8596 -0.5224  0.2066
 1011MOL0     H39457   7.173   8.304   4.533  2.1585 -0.5394 -1.5961
 1011MOL0     H39458   7.176   8.152   4.636 -0.5197  1.5864  0.6445
 1011MOL0     H39459   7.287   8.158   4.352  0.7558  0.2104  0.2288
 1011MOL0     H39460   7.319   8.048   4.480 -1.0562  0.8212  1.5344
 1011MOL0     H39461   7.390   8.336   4.489 -2.9692 -2.5092 -0.1551
 1011MOL0     H39462   7.440   8.206   4.603 -2.6295  4.6066  2.0747
 1011MOL0     H39463   7.483   8.166   4.297 -1.0536  3.3912 -0.2858
 1011MOL0     H39464   7.570   8.091   4.434 -0.7902 -0.3995  0.3909
 1011MOL0     H39465   7.704   8.252   4.299  0.5610 -0.7261  1.6585
 1011MOL0     H39466   7.610   8.377   4.377 -2.9438 -0.8911  0.4977
 1011MOL0     H39467   7.829   8.058   4.478  1.2937 -1.7205  2.0262
 1011MOL0     H39468   8.083   8.165   4.652 -1.7301  3.7301 -2.0489
 1011MOL0     H39469   7.983   8.030   4.704 -0.7344  0.5332 -1.8822
 1011MOL0     H39470   8.042   8.294   4.851 -1.9603  0.5282 -3.4987
 1011MOL0     H39471   7.954   8.154   4.918  2.2853 -2.2088  2.4348
 1011MOL0     H39472   8.151   8.118   5.000  0.0002  2.0062  0.5019
 1011MOL0     H39473   8.179   8.021   4.856  2.1088  0.3771 -2.0273
 1011MOL0     H39474   8.306   8.220   4.754 -0.9965  1.3380 -0.6298
 1011MOL0     H39475   8.264   8.326   4.881 -3.2008 -0.8055 -1.1795
 1011MOL0     H39476   8.469   7.984   5.123  2.0606 -2.9952  0.6676
 1011MOL0     H39477   8.701   7.704   5.094 -1.0577 -0.4698 -1.9138
 1011MOL0     H39478   8.535   7.650   5.087 -0.4850 -0.1984  0.0913
 1011MOL0     H39479   8.578   7.778   5.208  3.2020 -0.3211  1.0383
 1011MOL0     H39480   8.788   7.446   4.836 -1.5408 -0.4636  2.4076
 1011MOL0     H39481   8.814   7.197   4.778 -3.1603 -1.8904  1.9616
 1011MOL0     H39482   8.505   6.979   4.557 -0.4410 -0.7535 -3.2457
 1011MOL0     H39483   8.619   7.021   4.434  0.5244  2.2362  1.0378
 1011MOL0     H39484   8.658   6.787   4.450 -0.5604  1.6585  0.4195
 1011MOL0     H39485   8.783   6.844   4.552  0.4361 -1.1362 -0.4786
 1011MOL0     H39486   8.496   6.774   4.673  0.0366 -1.0722 -0.2743
 1011MOL0     H39487   8.658   6.787   4.755  1.2659  0.1135 -0.4887
 1011MOL0     H39488   8.729   6.584   4.641  0.4647  1.0413 -0.4833
 1011MOL0     H39489   8.562   6.565   4.571 -1.0356  0.9471  0.8968
 1011MOL0     H39490   8.641   6.557   4.851 -1.5056  0.6654  0.7520
 1011MOL0     H39491   8.475   6.593   4.807  1.5861 -1.1351  2.5705
 1011MOL0     H39492   8.636   6.342   4.739  0.9146  1.1623  0.1787
 1011MOL0     H39493   8.483   6.382   4.664  2.1580 -1.9034 -0.6250
 1011MOL0     H39494   8.426   6.383   4.951 -0.5941 -0.3874  0.5143
 1011MOL0     H39495   8.584   6.322   4.961 -1.4764  0.2515  0.9856
 1011MOL0     H39496   8.539   6.135   4.803 -1.2695  2.1321 -5.0192
 1011MOL0     H39497   8.379   6.194   4.771 -0.1352  1.4412 -0.6984
 1011MOL0     H39498   8.509   7.227   4.495  1.5253  4.6554 -3.0075
 1011MOL0     H39499   8.477   7.471   4.531 -0.8537 -0.4509  0.3780
 1011MOL0     H39500   8.576   7.868   4.648  1.1905  0.2502  0.9167
 1011MOL0     H39501   8.471   8.081   4.704 -0.4550  1.0026  0.6883
 1011MOL0     H39502   6.565   8.028   4.394 -1.1365  0.8280 -0.8408
 1011MOL0     H39503   6.320   7.943   4.427 -0.0676  1.8514 -1.8950
 1011MOL0     H39504   5.972   7.883   4.681 -0.5476  0.4599  1.4103
 1011MOL0     H39505   5.740   7.806   4.702 -3.0368  0.3334  0.7524
 1011MOL0     H39506   5.536   7.758   4.587  2.6047  0.9639 -0.3391
 1011MOL0     H39507   5.490   7.816   4.751  1.1658  1.6713  0.3801
 1011MOL0     H39508   5.299   7.858   4.522  1.9787  2.2347 -0.1074
 1011MOL0     H39509   5.276   7.870   4.691  0.5216  0.3063 -1.1326
 1011MOL0     H39510   5.204   7.651   4.552 -0.2853 -1.0204  0.7938
 1011MOL0     H39511   5.373   7.607   4.575  0.6454  0.0554  1.7587
 1011MOL0     H39512   5.203   7.513   4.729  1.9435  0.4945 -1.7983
 1011MOL0     H39513   5.155   7.687   4.763  1.0910  2.8016 -2.0205
 1011MOL0     H39514   5.450   7.563   5.043 -0.6185 -2.0907 -0.0345
 1011MOL0     H39515   5.605   8.149   4.497 -1.5762 -3.3098 -0.2700
 1011MOL0     H39516   5.839   8.362   4.564  3.0818  0.0678  0.6835
 1011MOL0     H39517   5.923   8.301   4.418  1.4952  3.2722  2.6982
 1011MOL0     H39518   5.748   8.315   4.417  0.0176 -1.7464 -0.2020
 1012MOL0     O39519  10.539   6.047   7.413 -0.5325  0.6703 -0.0081
 1012MOL0     C39520  10.578   6.039   7.530  0.3979 -0.0613 -0.3039
 1012MOL0     O39521  10.636   6.144   7.599  0.1107  0.3320 -0.8981
 1012MOL0     C39522  10.657   6.274   7.559  1.1840  0.3981 -0.7019
 1012MOL0     C39523  10.630   6.332   7.434 -0.4386  0.2738  1.0660
 1012MOL0     C39524  10.673   6.465   7.402 -0.7542  0.1654 -0.2738
 1012MOL0     C39525  10.729   6.550   7.496 -0.1928  1.3535 -0.6940
 1012MOL0     O39526  10.766   6.679   7.471  0.1947  0.4420 -0.0276
 1012MOL0     C39527  10.806   6.716   7.340  0.3537  0.9604 -0.2210
 1012MOL0     C39528  10.893   6.839   7.344 -0.1949 -0.2434 -0.4275
 1012MOL0     C39529  11.021   6.804   7.433  0.7955  0.2382  0.2795
 1012MOL0     C39530  11.116   6.933   7.435 -0.3059 -0.4825  0.5728
 1012MOL0     C39531  11.256   6.894   7.495  0.9505  0.0201  0.1726
 1012MOL0     C39532  11.297   6.977   7.621  0.2072 -0.4936 -1.5138
 1012MOL0     C39533  11.441   6.936   7.657 -0.9349  0.4657 -1.4212
 1012MOL0     C39534  11.464   6.976   7.814  0.5409 -0.2731  0.0118
 1012MOL0     N39535  11.417   7.117   7.835  0.2699  0.0460  0.5988
 1012MOL0     C39536  11.465   7.226   7.767 -1.1393 -0.4816  0.1011
 1012MOL0     C39537  11.380   7.331   7.788  0.3099  0.5199  0.1766
 1012MOL0     C39538  11.390   7.474   7.771 -0.7203 -0.3710  0.3909
 1012MOL0     C39539  11.308   7.506   7.655  1.3933  0.6685  0.2810
 1012MOL0     C39540  11.284   7.657   7.629  0.2304 -0.4360 -1.5810
 1012MOL0     C39541  11.323   7.711   7.490 -0.1108  1.0485 -0.4522
 1012MOL0     O39542  11.265   7.836   7.462 -1.0470 -0.4604  0.3895
 1012MOL0     C39543  11.135   7.855   7.467 -0.1378 -0.9448  0.1141
 1012MOL0     C39544  11.042   7.774   7.395 -0.5523 -0.4151 -0.8012
 1012MOL0     C39545  10.904   7.781   7.413  0.0034 -0.2218  0.7115
 1012MOL0     C39546  10.821   7.663   7.350 -0.5918  0.2905 -0.5060
 1012MOL0     C39547  10.857   7.885   7.497 -0.2534 -0.7875 -0.4284
 1012MOL0     C39548  10.715   7.903   7.523  0.5383  0.6091 -0.5719
 1012MOL0     O39549  10.650   7.914   7.408 -0.2629 -0.5524 -0.2299
 1012MOL0     C39550  10.520   7.861   7.395 -0.1788  0.2238  0.5588
 1012MOL0     C39551  10.445   7.788   7.481 -0.6464 -0.1348 -0.1106
 1012MOL0     C39552  10.316   7.758   7.442  0.4480 -0.4741  0.4760
 1012MOL0     C39553  10.263   7.810   7.317  1.1387 -0.1429 -0.2645
 1012MOL0     O39554  10.134   7.787   7.267  0.6304 -0.8026 -0.7741
 1012MOL0     C39555  10.039   7.708   7.342 -0.8151  0.0638 -0.7663
 1012MOL0     C39556   9.906   7.766   7.338 -1.1991 -0.8398  0.3307
 1012MOL0     C39557   9.846   7.794   7.203  0.2681 -0.6413 -0.3121
 1012MOL0     C39558   9.718   7.883   7.209 -0.0747  0.2240  0.4415
 1012MOL0     C39559   9.652   7.893   7.078  0.1663 -0.3797  0.3748
 1012MOL0     C39560   9.522   7.978   7.076 -0.9767 -0.3776  0.0972
 1012MOL0     C39561   9.544   8.131   7.106  0.4504  0.9649  0.5847
 1012MOL0     C39562   9.477   8.225   7.001  0.9468 -0.2161 -0.0626
 1012MOL0    Cl39563   9.582   8.216   6.855 -0.6465  0.3716  0.5462
 1012MOL0     C39564  10.333   7.895   7.240  0.5322 -1.0284 -1.0078
 1012MOL0     C39565  10.469   7.920   7.278  0.4153 -0.2061  0.1451
 1012MOL0     O39566  10.666   7.905   7.638 -0.0295 -0.1990  0.4772
 1012MOL0     C39567  10.943   7.963   7.579 -0.1370 -1.0709  0.7767
 1012MOL0     C39568  11.085   7.944   7.564  0.2594 -0.2392 -0.3406
 1012MOL0     N39569  11.275   7.277   7.853  0.2845 -0.1623 -0.0251
 1012MOL0     N39570  11.294   7.149   7.881 -0.2133 -0.3950  0.7640
 1012MOL0     C39571  10.741   6.493   7.621  1.4859  0.2786  0.9350
 1012MOL0     C39572  10.697   6.364   7.655 -1.8547 -0.5866 -0.0994
 1012MOL0     C39573  10.561   5.901   7.592 -0.5854 -0.7403 -0.5384
 1012MOL0     C39574  10.616   5.885   7.719 -0.4449 -0.9637  0.3458
 1012MOL0     C39575  10.617   5.757   7.785 -0.0440  0.1950 -0.0640
 1012MOL0     C39576  10.563   5.648   7.720  0.0284  0.3229 -0.4425
 1012MOL0     O39577  10.566   5.524   7.776 -0.6896 -0.4571 -0.8246
 1012MOL0     C39578  10.707   5.483   7.804 -0.2816 -0.8850  0.6173
 1012MOL0     C39579  10.773   5.462   7.673  0.3398  0.2787 -0.3677
 1012MOL0     C39580  10.696   5.357   7.583 -0.3331 -1.1890  0.0605
 1012MOL0     C39581  10.768   5.313   7.456  0.3153 -0.2003 -1.4133
 1012MOL0     C39582  10.867   5.207   7.481 -0.7786  0.0030  0.5015
 1012MOL0     C39583  10.936   5.107   7.500 -1.0964  0.3619  0.3153
 1012MOL0     C39584  10.506   5.666   7.593 -0.5490 -0.7883  0.3133
 1012MOL0     C39585  10.503   5.785   7.528 -0.0360 -0.8298 -0.6011
 1012MOL0     C39586  10.450   5.789   7.382 -0.4736 -0.0298  1.2709
 1012MOL0     H39587  10.583   6.276   7.354 -1.5794  0.9674  1.2280
 1012MOL0     H39588  10.667   6.498   7.299 -2.9152  0.0883 -0.2129
 1012MOL0     H39589  10.723   6.735   7.271 -0.0690  2.5506  0.6787
 1012MOL0     H39590  10.864   6.640   7.287  1.5185  2.7997 -1.7353
 1012MOL0     H39591  10.931   6.872   7.247 -0.1056  0.7134 -0.0783
 1012MOL0     H39592  10.836   6.920   7.390  2.2009  1.3272 -0.0405
 1012MOL0     H39593  11.003   6.766   7.534  1.3098 -0.3722  0.1455
 1012MOL0     H39594  11.060   6.722   7.373 -1.4255  1.0938 -2.5525
 1012MOL0     H39595  11.128   6.968   7.332 -1.6947  2.2682  1.2157
 1012MOL0     H39596  11.075   7.012   7.499  2.5269  1.5079  0.1313
 1012MOL0     H39597  11.324   6.903   7.409 -1.7322  2.0489 -1.9142
 1012MOL0     H39598  11.250   6.790   7.528  0.0036 -1.1294 -3.1675
 1012MOL0     H39599  11.297   7.086   7.608  2.2768 -0.4606 -1.6229
 1012MOL0     H39600  11.227   6.949   7.700  0.9119  5.0274  1.5775
 1012MOL0     H39601  11.516   6.979   7.590 -0.2039  2.9894  0.8274
 1012MOL0     H39602  11.440   6.828   7.639 -4.7384  0.5995 -3.0558
 1012MOL0     H39603  11.395   6.908   7.863 -1.5052 -0.9975 -3.5352
 1012MOL0     H39604  11.569   6.960   7.841  0.2881 -0.5181  0.8941
 1012MOL0     H39605  11.561   7.247   7.719  0.7953 -0.3621  3.6606
 1012MOL0     H39606  11.496   7.475   7.747 -0.7714 -0.6952  0.1529
 1012MOL0     H39607  11.365   7.531   7.861  0.0685  1.9954 -0.8085
 1012MOL0     H39608  11.350   7.451   7.571  0.2029 -1.6266  1.0935
 1012MOL0     H39609  11.207   7.466   7.671  0.9732  1.0186 -1.2642
 1012MOL0     H39610  11.181   7.685   7.652  1.5456  1.4396  3.2128
 1012MOL0     H39611  11.339   7.717   7.702  0.4291 -3.1903  0.6923
 1012MOL0     H39612  11.432   7.717   7.485 -0.0812  3.2750  1.1313
 1012MOL0     H39613  11.287   7.643   7.413  1.1210  1.3006 -1.2800
 1012MOL0     H39614  11.066   7.692   7.328  0.5574 -0.0818 -0.8203
 1012MOL0     H39615  10.712   7.678   7.343 -1.6101 -4.0186  2.0108
 1012MOL0     H39616  10.838   7.570   7.405  2.1749 -0.7563 -2.8602
 1012MOL0     H39617  10.861   7.653   7.249  1.5876  1.8933  0.1303
 1012MOL0     H39618  10.478   7.732   7.568 -0.1151  0.6006  0.1658
 1012MOL0     H39619  10.256   7.689   7.501 -1.4700  2.7206  2.5546
 1012MOL0     H39620  10.053   7.606   7.305  1.0067 -0.0427  0.1188
 1012MOL0     H39621  10.064   7.708   7.448  2.0297 -2.9592 -1.2619
 1012MOL0     H39622   9.832   7.711   7.397 -1.4427 -1.1375 -0.2438
 1012MOL0     H39623   9.918   7.860   7.392 -1.1516 -1.0728  0.7369
 1012MOL0     H39624   9.813   7.704   7.151  2.9249 -1.8154 -0.1486
 1012MOL0     H39625   9.924   7.842   7.141  0.5450 -0.3037  0.2831
 1012MOL0     H39626   9.751   7.985   7.230 -2.3722  1.3365 -0.9319
 1012MOL0     H39627   9.648   7.854   7.288 -2.4990  2.2004 -0.8311
 1012MOL0     H39628   9.700   7.950   6.998 -2.0879  1.3837  0.1530
 1012MOL0     H39629   9.640   7.791   7.041 -0.0467 -0.4685  0.6894
 1012MOL0     H39630   9.446   7.933   7.141 -2.2510 -1.3877 -1.9949
 1012MOL0     H39631   9.477   7.973   6.976 -1.3008  3.6069 -0.1334
 1012MOL0     H39632   9.650   8.153   7.123  0.6978 -0.0940  0.5192
 1012MOL0     H39633   9.503   8.144   7.207 -1.7369 -1.0971  0.0519
 1012MOL0     H39634   9.481   8.328   7.040  4.7567  0.7226 -2.3772
 1012MOL0     H39635   9.373   8.208   6.972  2.1409 -0.1816 -5.1926
 1012MOL0     H39636  10.287   7.944   7.155 -0.2889  1.1307  0.5570
 1012MOL0     H39637  10.528   7.986   7.216  0.6713  0.5776  1.1941
 1012MOL0     H39638  10.907   8.048   7.636  2.4047  3.1745 -3.2438
 1012MOL0     H39639  11.151   7.984   7.640 -0.1797 -1.7690  0.8903
 1012MOL0     H39640  10.772   6.555   7.704  0.5953 -1.2591  2.4875
 1012MOL0     H39641  10.705   6.325   7.756 -2.9274 -0.3853  0.0827
 1012MOL0     H39642  10.670   5.962   7.773  1.7948  0.3358 -3.3715
 1012MOL0     H39643  10.662   5.750   7.884  0.4472  0.1974 -0.2871
 1012MOL0     H39644  10.745   5.561   7.871 -0.5634 -1.6333  1.6888
 1012MOL0     H39645  10.712   5.399   7.874 -0.0160  1.3688  3.4951
 1012MOL0     H39646  10.869   5.415   7.697  0.0675  0.5853  1.4623
 1012MOL0     H39647  10.791   5.561   7.630 -0.7664  1.5606  1.9443
 1012MOL0     H39648  10.658   5.275   7.644 -3.4756  1.1337  1.5347
 1012MOL0     H39649  10.607   5.406   7.542  1.3708  1.4363 -0.7259
 1012MOL0     H39650  10.813   5.409   7.427 -2.5869  2.7206  2.5137
 1012MOL0     H39651  10.696   5.289   7.378 -0.2444 -1.1635 -0.6240
 1012MOL0     H39652  11.007   5.029   7.514  1.1338  2.5044  1.6884
 1012MOL0     H39653  10.461   5.585   7.536 -3.4574  1.0842 -0.2755
 1012MOL0     H39654  10.368   5.862   7.381 -0.8907 -0.4878  1.2890
 1012MOL0     H39655  10.530   5.832   7.321 -0.9709  0.3371  0.8667
 1012MOL0     H39656  10.424   5.691   7.341  0.0974 -0.5075  2.0334
 1013MOL0     O39657   1.688   6.135   5.002 -0.9457  0.1900  0.2562
 1013MOL0     C39658   1.593   6.208   4.987  0.2709  0.0372  0.4224
 1013MOL0     O39659   1.593   6.328   4.907  0.2192  0.4204 -0.0900
 1013MOL0     C39660   1.705   6.365   4.843 -0.2641 -0.5991  0.5312
 1013MOL0     C39661   1.707   6.387   4.700 -0.1068 -0.0481 -0.1651
 1013MOL0     C39662   1.822   6.418   4.631 -0.2667 -0.1304 -0.3440
 1013MOL0     C39663   1.940   6.423   4.705 -0.0952 -0.0082  0.8573
 1013MOL0     O39664   2.053   6.431   4.624  1.0620 -0.6867 -0.4406
 1013MOL0     C39665   2.133   6.546   4.652  0.0330 -0.0807 -0.8625
 1013MOL0     C39666   2.277   6.500   4.686 -0.3636  0.3979 -0.7391
 1013MOL0     C39667   2.349   6.410   4.586 -1.0053 -0.3481  0.1657
 1013MOL0     C39668   2.495   6.407   4.628  0.1174  0.1420  0.2026
 1013MOL0     C39669   2.579   6.336   4.518  0.7179  0.2770  0.1615
 1013MOL0     C39670   2.730   6.347   4.523  0.8311 -0.9574  0.1811
 1013MOL0     C39671   2.799   6.254   4.415  0.4082  0.0673  0.0995
 1013MOL0     C39672   2.934   6.321   4.359  0.0688  0.5493 -0.4971
 1013MOL0     N39673   3.032   6.324   4.469  0.6961  0.3396 -0.0813
 1013MOL0     C39674   3.091   6.219   4.531  0.0500  0.2848  0.1223
 1013MOL0     C39675   3.185   6.280   4.605  0.0272 -0.2468  0.4577
 1013MOL0     C39676   3.301   6.216   4.682 -0.1473  0.0995  0.7732
 1013MOL0     C39677   3.380   6.302   4.775 -0.7734 -0.4433  0.4281
 1013MOL0     C39678   3.520   6.251   4.796 -0.3997  0.4261  0.0320
 1013MOL0     C39679   3.538   6.107   4.828 -0.1450 -0.6837 -0.8745
 1013MOL0     O39680   3.678   6.078   4.856 -0.2451  0.2980  1.1585
 1013MOL0     C39681   3.705   5.949   4.893  0.6092  0.0080  0.4437
 1013MOL0     C39682   3.830   5.935   4.949  0.5404  0.6027 -0.4950
 1013MOL0     C39683   3.879   5.812   4.996  0.1142 -0.5702 -0.1488
 1013MOL0     C39684   4.001   5.816   5.085  0.0603 -0.3267  0.8379
 1013MOL0     C39685   3.793   5.694   4.983 -0.1329 -0.1133  0.1508
 1013MOL0     C39686   3.844   5.558   5.018  0.2174 -0.0116  0.0830
 1013MOL0     O39687   3.736   5.468   5.023  0.4928  0.2698  0.2792
 1013MOL0     C39688   3.745   5.362   5.105 -0.7917  0.2261 -0.4819
 1013MOL0     C39689   3.651   5.257   5.077  0.2216 -0.5805 -0.1223
 1013MOL0     C39690   3.667   5.136   5.152  0.3890 -0.2939  0.9031
 1013MOL0     C39691   3.765   5.118   5.249  0.2470  0.2124 -0.7804
 1013MOL0     O39692   3.778   4.991   5.304 -0.8971  0.3141  0.5587
 1013MOL0     C39693   3.912   4.946   5.329  0.3392  0.0303 -0.5573
 1013MOL0     C39694   3.929   4.804   5.388  0.1333  0.5604 -0.0467
 1013MOL0     C39695   3.877   4.707   5.278  0.2663  0.1617 -0.4148
 1013MOL0     C39696   3.918   4.561   5.323 -0.0253  0.3780  0.2405
 1013MOL0     C39697   3.836   4.490   5.419  0.2488  0.1347  0.0267
 1013MOL0     C39698   3.929   4.379   5.481  0.9335 -0.2024 -0.1953
 1013MOL0     C39699   3.851   4.356   5.617 -0.4001 -0.7969 -0.6059
 1013MOL0     C39700   3.859   4.219   5.672 -0.5467  0.4898 -0.7087
 1013MOL0    Cl39701   3.754   4.215   5.814 -0.5313 -0.6527  0.4457
 1013MOL0     C39702   3.857   5.228   5.273 -1.0569  0.2909 -0.5342
 1013MOL0     C39703   3.853   5.346   5.198  1.3677 -0.1006 -0.4329
 1013MOL0     O39704   3.963   5.518   5.011 -0.5319 -0.3649  0.6859
 1013MOL0     C39705   3.657   5.710   4.940  0.0431 -0.6367  0.2277
 1013MOL0     C39706   3.617   5.836   4.889  0.1810  0.1046  0.4053
 1013MOL0     N39707   3.178   6.413   4.584  0.5335 -0.5955  0.4609
 1013MOL0     N39708   3.081   6.447   4.503  0.3012  0.6535  0.4232
 1013MOL0     C39709   1.946   6.402   4.842 -0.2663  0.4453 -0.0493
 1013MOL0     C39710   1.829   6.363   4.912 -0.1942  0.0417 -0.1535
 1013MOL0     C39711   1.464   6.180   5.063  0.2448 -0.7044 -0.2608
 1013MOL0     C39712   1.383   6.298   5.087  0.0830  0.0244 -0.3395
 1013MOL0     C39713   1.265   6.295   5.169  0.4576  1.5483 -0.7454
 1013MOL0     C39714   1.235   6.175   5.234 -0.2483  0.4623 -0.1675
 1013MOL0     O39715   1.146   6.183   5.343  0.1256 -0.6644 -0.3354
 1013MOL0     C39716   1.119   6.075   5.430 -0.0723  0.9405 -0.0186
 1013MOL0     C39717   1.025   6.114   5.543 -0.0346 -0.9638 -0.0788
 1013MOL0     C39718   1.067   6.246   5.619  0.4673  1.0936  0.0694
 1013MOL0     C39719   0.965   6.280   5.733 -0.3344 -1.0871 -0.8709
 1013MOL0     C39720   0.946   6.162   5.823  0.1622  0.0973  0.2196
 1013MOL0     C39721   0.945   6.064   5.900 -0.3785 -0.5605  0.7917
 1013MOL0     C39722   1.302   6.058   5.191  0.2519  1.2468  0.1724
 1013MOL0     C39723   1.422   6.056   5.111 -0.3583 -0.1614 -0.2121
 1013MOL0     C39724   1.494   5.926   5.076 -0.4689 -0.5769 -1.1135
 1013MOL0     H39725   1.612   6.387   4.649  0.2235  0.4818 -0.7992
 1013MOL0     H39726   1.815   6.447   4.526  2.2874  2.9480  0.1837
 1013MOL0     H39727   2.098   6.610   4.733  1.5839  1.1123 -1.0913
 1013MOL0     H39728   2.134   6.605   4.560  1.9130  0.3825 -0.5831
 1013MOL0     H39729   2.334   6.593   4.694  1.5663 -0.5437 -2.6129
 1013MOL0     H39730   2.282   6.460   4.788  0.1060  2.1926 -0.0189
 1013MOL0     H39731   2.295   6.316   4.595 -2.3190  0.3724  0.0769
 1013MOL0     H39732   2.332   6.445   4.484  0.0089 -0.5531 -0.0796
 1013MOL0     H39733   2.517   6.514   4.633  1.3239 -0.1520  2.1492
 1013MOL0     H39734   2.507   6.375   4.732  0.3456  0.0230  0.1406
 1013MOL0     H39735   2.543   6.369   4.420 -0.5999 -2.0376 -0.1970
 1013MOL0     H39736   2.549   6.231   4.524  0.5732  0.2421 -0.9312
 1013MOL0     H39737   2.749   6.452   4.499 -0.6358 -0.5761  0.5862
 1013MOL0     H39738   2.778   6.314   4.616  0.0129 -1.4931  0.4234
 1013MOL0     H39739   2.722   6.237   4.339 -2.5414  0.8998  2.6860
 1013MOL0     H39740   2.830   6.162   4.465  3.1678  0.4771 -0.6853
 1013MOL0     H39741   2.971   6.262   4.275 -0.3985  0.1143 -0.3971
 1013MOL0     H39742   2.911   6.416   4.310  1.3448  0.4950 -1.2716
 1013MOL0     H39743   3.068   6.114   4.516 -2.0526  0.7128  0.0539
 1013MOL0     H39744   3.371   6.190   4.602 -3.5587  2.1735 -3.2778
 1013MOL0     H39745   3.263   6.126   4.732 -0.8752  0.6274  1.1813
 1013MOL0     H39746   3.402   6.398   4.729  2.5807 -1.7180 -1.0108
 1013MOL0     H39747   3.332   6.316   4.873  0.4186  0.9478  0.8512
 1013MOL0     H39748   3.586   6.261   4.709 -0.2547 -2.4925 -0.3086
 1013MOL0     H39749   3.565   6.319   4.869  3.6007 -0.8725 -0.9792
 1013MOL0     H39750   3.492   6.091   4.926 -1.2492  2.2774 -0.7992
 1013MOL0     H39751   3.499   6.048   4.744  3.1574  1.1341 -3.9682
 1013MOL0     H39752   3.900   6.018   4.960  2.9252 -1.0049 -2.3936
 1013MOL0     H39753   3.954   5.793   5.181  0.4116  0.5038  1.2150
 1013MOL0     H39754   4.050   5.912   5.104  2.6297 -1.9623  3.3769
 1013MOL0     H39755   4.073   5.741   5.052  0.1503 -1.7975  3.9960
 1013MOL0     H39756   3.572   5.274   5.005 -0.7709  0.0800  1.0897
 1013MOL0     H39757   3.607   5.055   5.112 -0.3320  0.3865  0.5755
 1013MOL0     H39758   3.963   4.962   5.233  0.0598  0.6933 -0.6027
 1013MOL0     H39759   3.969   5.008   5.400 -0.4770  1.0587 -0.7771
 1013MOL0     H39760   4.030   4.786   5.424  0.4920  1.6064 -0.4850
 1013MOL0     H39761   3.866   4.822   5.476 -1.8465 -0.7143 -1.1251
 1013MOL0     H39762   3.920   4.732   5.180  4.5622  0.2093  1.2826
 1013MOL0     H39763   3.768   4.707   5.279  0.2015  3.0357  1.1429
 1013MOL0     H39764   4.014   4.575   5.373 -0.2149 -1.9580  1.4020
 1013MOL0     H39765   3.931   4.498   5.234 -1.6641 -0.6254  0.6601
 1013MOL0     H39766   3.796   4.571   5.481 -1.4951  0.1905 -1.1188
 1013MOL0     H39767   3.752   4.433   5.379 -0.4311  1.3717 -0.3744
 1013MOL0     H39768   4.031   4.409   5.505  1.2860 -1.0505 -0.5696
 1013MOL0     H39769   3.939   4.289   5.419 -1.1072 -0.4490 -0.2239
 1013MOL0     H39770   3.748   4.392   5.612  0.4626  1.8931 -0.3315
 1013MOL0     H39771   3.909   4.414   5.689 -2.9965 -0.4635  1.3633
 1013MOL0     H39772   3.961   4.194   5.703 -0.7713 -0.5645 -0.7794
 1013MOL0     H39773   3.821   4.145   5.601  1.4386 -0.2410 -1.0775
 1013MOL0     H39774   3.934   5.229   5.349 -3.3511 -1.5493  1.9995
 1013MOL0     H39775   3.924   5.425   5.219  0.0189  0.7158  1.2942
 1013MOL0     H39776   3.589   5.629   4.916 -2.7467  2.3633 -3.2279
 1013MOL0     H39777   3.516   5.840   4.851  0.6807 -0.0942 -1.0126
 1013MOL0     H39778   2.024   6.436   4.909  1.3224  0.1246 -1.6544
 1013MOL0     H39779   1.836   6.351   5.019  0.2660 -1.4462 -0.3243
 1013MOL0     H39780   1.420   6.397   5.061  1.0772 -0.3251 -0.2917
 1013MOL0     H39781   1.210   6.386   5.192  0.3145  0.9333  1.5819
 1013MOL0     H39782   1.084   5.996   5.363 -2.6934  2.0274 -0.0531
 1013MOL0     H39783   1.215   6.045   5.475 -0.3376  2.4327  1.6536
 1013MOL0     H39784   1.007   6.032   5.614 -0.5319 -0.3197  0.5634
 1013MOL0     H39785   0.926   6.139   5.503 -0.8591 -1.2335  1.6894
 1013MOL0     H39786   1.166   6.233   5.664  0.0145 -1.4736  0.5117
 1013MOL0     H39787   1.081   6.331   5.552  2.6653  1.3501  0.7655
 1013MOL0     H39788   0.867   6.308   5.691  0.8548 -0.5556 -3.4658
 1013MOL0     H39789   1.002   6.365   5.791  0.5274 -0.8156 -1.8001
 1013MOL0     H39790   0.951   5.978   5.963  0.4733 -1.4386 -0.4467
 1013MOL0     H39791   1.264   5.963   5.230 -0.7499  0.6906 -2.0225
 1013MOL0     H39792   1.501   5.927   4.967 -0.2615 -2.8245 -1.1689
 1013MOL0     H39793   1.595   5.935   5.118  0.4486 -1.3722 -3.0319
 1013MOL0     H39794   1.441   5.833   5.099  4.0457 -3.1872  0.0024
 1014MOL0     O39795   9.791   1.985   4.057 -0.2571 -0.2054  1.1383
 1014MOL0     C39796   9.873   1.917   4.001 -0.6417  1.3616 -0.3162
 1014MOL0     O39797  10.006   1.909   4.037 -0.1635 -0.1485  0.6352
 1014MOL0     C39798  10.054   2.024   4.098 -0.3132 -0.2165 -1.0673
 1014MOL0     C39799  10.137   2.022   4.213 -0.8066  0.7756  0.0113
 1014MOL0     C39800  10.189   2.141   4.265  0.0499  0.7029  0.4213
 1014MOL0     C39801  10.166   2.267   4.204 -0.2087 -0.0326  0.7866
 1014MOL0     O39802  10.207   2.387   4.251  0.3002 -0.3079  0.3748
 1014MOL0     C39803  10.344   2.415   4.294  0.1144  0.3081 -0.6605
 1014MOL0     C39804  10.331   2.547   4.371 -0.2867  0.5366 -1.1674
 1014MOL0     C39805  10.336   2.671   4.290  0.1445  0.5862 -0.1154
 1014MOL0     C39806  10.283   2.787   4.384  0.6244 -0.3728 -0.5627
 1014MOL0     C39807  10.269   2.919   4.301 -0.5229 -0.4029  0.5264
 1014MOL0     C39808  10.408   2.981   4.285  0.2749  0.7490  0.7362
 1014MOL0     C39809  10.405   3.100   4.178  0.2989 -0.2223  0.2513
 1014MOL0     C39810  10.325   3.221   4.218  0.2428 -0.4309  0.6482
 1014MOL0     N39811  10.367   3.338   4.140 -0.7868  0.6087 -0.2557
 1014MOL0     C39812  10.302   3.398   4.034 -0.6816  0.7333 -0.0979
 1014MOL0     C39813  10.353   3.520   4.020  0.0464  0.4048 -0.5031
 1014MOL0     C39814  10.309   3.627   3.927 -0.4466 -0.7324  0.6154
 1014MOL0     C39815  10.262   3.739   4.012  0.0721  0.0940  0.0259
 1014MOL0     C39816  10.192   3.855   3.940 -0.6868 -0.0245  1.0958
 1014MOL0     C39817  10.140   3.971   4.042 -0.3705 -0.5542 -0.7813
 1014MOL0     O39818  10.224   4.083   4.031 -0.0661 -0.1903  0.6984
 1014MOL0     C39819  10.223   4.177   4.132 -0.5090 -0.6542  0.0293
 1014MOL0     C39820  10.333   4.271   4.125  0.5675 -0.3661 -0.7747
 1014MOL0     C39821  10.334   4.382   4.216  0.0057 -0.2887 -0.9816
 1014MOL0     C39822  10.425   4.494   4.198  0.4415 -0.2357 -0.8353
 1014MOL0     C39823  10.243   4.397   4.319  0.0466 -0.2390 -0.0640
 1014MOL0     C39824  10.237   4.503   4.418 -1.3744  0.3268 -0.4977
 1014MOL0     O39825  10.357   4.573   4.456  0.3261 -0.0724  0.7340
 1014MOL0     C39826  10.340   4.666   4.560 -0.5016 -0.3023  0.3302
 1014MOL0     C39827  10.357   4.808   4.533 -0.5396  0.2411 -0.1248
 1014MOL0     C39828  10.381   4.896   4.643 -0.2055  0.1691  0.4582
 1014MOL0     C39829  10.368   4.851   4.778  0.3026 -0.2878  0.7252
 1014MOL0     O39830  10.384   4.946   4.874  0.0325  0.0158  0.7953
 1014MOL0     C39831  10.403   4.903   5.014  0.4168 -0.2678  0.5570
 1014MOL0     C39832  10.458   5.013   5.107  0.4224 -0.1191  0.9411
 1014MOL0     C39833  10.589   5.086   5.075 -1.0256 -0.8819 -0.0521
 1014MOL0     C39834  10.607   5.225   5.139 -0.4440 -0.9742 -0.5721
 1014MOL0     C39835  10.751   5.287   5.131 -0.1312 -0.3321  0.0909
 1014MOL0     C39836  10.758   5.428   5.194 -0.1387  0.4965  0.3684
 1014MOL0     C39837  10.900   5.471   5.202  0.2636 -0.5093  1.2128
 1014MOL0     C39838  10.899   5.601   5.279  0.7879  0.0385 -0.4980
 1014MOL0    Cl39839  10.861   5.741   5.169 -0.5181 -0.2296 -0.6192
 1014MOL0     C39840  10.347   4.718   4.801  0.5187 -0.3397  0.1026
 1014MOL0     C39841  10.334   4.635   4.697 -0.4276 -0.5155  0.3051
 1014MOL0     O39842  10.129   4.535   4.463  1.2737  0.3383 -0.8591
 1014MOL0     C39843  10.145   4.295   4.335 -1.2057 -0.3353  0.1511
 1014MOL0     C39844  10.139   4.190   4.243 -0.6595  0.6869 -0.8166
 1014MOL0     N39845  10.461   3.529   4.107  0.3610  0.0329  0.5273
 1014MOL0     N39846  10.468   3.423   4.173  0.2213 -0.4202 -0.6122
 1014MOL0     C39847  10.086   2.269   4.088  0.0454 -0.7748 -0.3555
 1014MOL0     C39848  10.033   2.149   4.037 -0.3472  0.0115  0.7055
 1014MOL0     C39849   9.830   1.838   3.882  0.6279  0.4600 -0.0411
 1014MOL0     C39850   9.924   1.803   3.782 -0.1182  0.1156  0.0117
 1014MOL0     C39851   9.889   1.732   3.669  0.2573 -0.3091 -0.3767
 1014MOL0     C39852   9.760   1.678   3.655  0.4014  0.5006 -0.2720
 1014MOL0     O39853   9.744   1.601   3.546  0.4086  0.2099  0.7032
 1014MOL0     C39854   9.630   1.516   3.527  0.1902  1.1536 -0.0626
 1014MOL0     C39855   9.639   1.385   3.615 -0.1452  0.1704 -0.1208
 1014MOL0     C39856   9.766   1.307   3.584  0.5351 -0.3839  0.4878
 1014MOL0     C39857   9.747   1.168   3.634  0.1399 -0.9958  1.0085
 1014MOL0     C39858   9.715   1.072   3.526 -1.1687 -0.5389 -0.0745
 1014MOL0     C39859   9.695   0.996   3.433 -0.4231 -0.0346  0.4375
 1014MOL0     C39860   9.662   1.716   3.752  0.1032 -0.2138 -0.4004
 1014MOL0     C39861   9.692   1.796   3.870 -1.2355 -0.0371  0.8250
 1014MOL0     C39862   9.573   1.830   3.947 -0.1399  0.1465 -0.3111
 1014MOL0     H39863  10.165   1.932   4.267 -1.3265 -0.6395 -1.9774
 1014MOL0     H39864  10.256   2.134   4.350  2.4834  1.5410 -1.3173
 1014MOL0     H39865  10.415   2.404   4.211 -1.4314 -4.5929 -1.6946
 1014MOL0     H39866  10.369   2.333   4.363  0.7070 -1.1584 -2.5105
 1014MOL0     H39867  10.240   2.554   4.431 -0.0683 -1.5040 -0.5378
 1014MOL0     H39868  10.408   2.544   4.449 -2.6896 -2.9043  1.3430
 1014MOL0     H39869  10.439   2.680   4.254 -0.3985  0.2942 -1.8267
 1014MOL0     H39870  10.266   2.650   4.209  0.7030 -0.9501 -0.2264
 1014MOL0     H39871  10.180   2.770   4.416  0.4990 -0.9813 -1.2689
 1014MOL0     H39872  10.351   2.824   4.462 -1.2130  3.2052 -0.4271
 1014MOL0     H39873  10.211   2.989   4.361  1.8623  0.3384  2.1015
 1014MOL0     H39874  10.216   2.909   4.206 -0.9528  0.3206  0.6867
 1014MOL0     H39875  10.426   3.029   4.381  0.2909  1.6628  0.2800
 1014MOL0     H39876  10.487   2.910   4.259  1.2875  2.0070  0.2688
 1014MOL0     H39877  10.357   3.054   4.091 -1.4958 -2.7648  2.4065
 1014MOL0     H39878  10.505   3.124   4.142  0.7290 -4.8459 -2.4523
 1014MOL0     H39879  10.218   3.206   4.206 -0.0679  0.9816  1.4309
 1014MOL0     H39880  10.341   3.255   4.320  0.6270 -0.5824  0.6427
 1014MOL0     H39881  10.217   3.357   3.980 -1.4229 -0.9376  2.1669
 1014MOL0     H39882  10.230   3.604   3.855 -3.0330  1.4681  2.5202
 1014MOL0     H39883  10.391   3.657   3.862 -2.2673 -0.5637 -1.7527
 1014MOL0     H39884  10.196   3.686   4.081  0.8072 -1.2579 -0.2782
 1014MOL0     H39885  10.346   3.782   4.067 -1.1474  2.4629  0.1681
 1014MOL0     H39886  10.258   3.896   3.863 -2.8822 -4.1859 -3.5322
 1014MOL0     H39887  10.102   3.813   3.895  1.2939 -1.1332 -2.1926
 1014MOL0     H39888  10.037   4.006   4.027 -0.2932  1.7041  2.8277
 1014MOL0     H39889  10.136   3.931   4.143 -0.8317 -1.1172 -1.0178
 1014MOL0     H39890  10.392   4.274   4.034 -2.0085  4.1294 -2.6455
 1014MOL0     H39891  10.500   4.488   4.277 -0.5130 -2.5237 -0.0220
 1014MOL0     H39892  10.368   4.587   4.201  0.9386  0.1266 -1.9425
 1014MOL0     H39893  10.478   4.484   4.103  1.9426  3.8482 -0.6267
 1014MOL0     H39894  10.363   4.856   4.436 -0.8098 -0.3624 -0.4463
 1014MOL0     H39895  10.407   4.998   4.615 -1.0806  0.0450 -0.8923
 1014MOL0     H39896  10.307   4.876   5.058  1.2535  0.2677  2.8415
 1014MOL0     H39897  10.482   4.828   5.021  2.5940  1.9169  0.5821
 1014MOL0     H39898  10.387   5.096   5.102  0.6206  0.1704  2.4468
 1014MOL0     H39899  10.459   4.968   5.207  1.9881  0.0934  1.0397
 1014MOL0     H39900  10.596   5.096   4.966  1.0158  0.8400  0.1688
 1014MOL0     H39901  10.672   5.023   5.108 -2.2693 -1.8030  1.4432
 1014MOL0     H39902  10.585   5.234   5.246  2.4570  2.6525 -0.0913
 1014MOL0     H39903  10.545   5.289   5.076  1.0837  1.6237  0.4164
 1014MOL0     H39904  10.825   5.212   5.162  2.7523  1.0554 -2.7241
 1014MOL0     H39905  10.777   5.289   5.024 -1.8845 -3.2435 -0.5042
 1014MOL0     H39906  10.718   5.413   5.295  2.3950 -0.7266  1.2654
 1014MOL0     H39907  10.687   5.492   5.141  1.1091  0.8463 -0.9488
 1014MOL0     H39908  10.953   5.488   5.108 -0.1832  3.9953  1.5870
 1014MOL0     H39909  10.954   5.391   5.255 -2.3760 -2.7240  0.7931
 1014MOL0     H39910  11.003   5.608   5.314  0.5938 -1.4766  0.4781
 1014MOL0     H39911  10.833   5.606   5.366  1.8243 -1.2638  0.4131
 1014MOL0     H39912  10.337   4.668   4.896 -1.4840  0.6630  0.4775
 1014MOL0     H39913  10.329   4.532   4.730  3.0358 -0.2138  2.3469
 1014MOL0     H39914  10.074   4.319   4.414  0.6572  0.1465  1.7715
 1014MOL0     H39915  10.052   4.125   4.253  2.5257 -3.6271  2.3829
 1014MOL0     H39916  10.055   2.361   4.039 -2.1085 -2.2746 -1.9923
 1014MOL0     H39917   9.973   2.143   3.947  1.7795 -1.0334 -0.7395
 1014MOL0     H39918  10.030   1.824   3.790  0.7394 -3.8341  1.3055
 1014MOL0     H39919   9.956   1.693   3.593  0.6131 -2.8201  1.0749
 1014MOL0     H39920   9.549   1.580   3.564 -0.9147  2.5181 -4.2869
 1014MOL0     H39921   9.615   1.493   3.421 -0.8399 -0.4915  0.4029
 1014MOL0     H39922   9.554   1.319   3.597  1.1398 -2.0487  1.4600
 1014MOL0     H39923   9.629   1.417   3.719 -2.2365  1.9294 -0.7781
 1014MOL0     H39924   9.793   1.313   3.478  0.7290 -0.2933  0.5414
 1014MOL0     H39925   9.831   1.361   3.654  0.3152 -1.0562  1.2226
 1014MOL0     H39926   9.676   1.161   3.717 -0.3979  1.6867  0.8634
 1014MOL0     H39927   9.845   1.135   3.671  2.0397  3.3035  0.4680
 1014MOL0     H39928   9.668   0.925   3.358 -0.5486  1.7007 -1.2248
 1014MOL0     H39929   9.560   1.687   3.732 -0.3471  0.4982  0.7707
 1014MOL0     H39930   9.573   1.939   3.958 -0.8784  0.0091  1.2585
 1014MOL0     H39931   9.479   1.792   3.905  1.0796 -1.9739 -1.2990
 1014MOL0     H39932   9.588   1.788   4.047  2.7585  0.9620 -0.3116
 1015MOL0     O39933   5.488   9.798  10.590  0.6913  0.7466 -1.5520
 1015MOL0     C39934   5.408   9.702  10.570  0.8552 -0.5730 -0.0579
 1015MOL0     O39935   5.301   9.673  10.652  0.3664  0.1782  0.6360
 1015MOL0     C39936   5.282   9.747  10.766  0.9876  0.2147  0.5014
 1015MOL0     C39937   5.267   9.671  10.875 -0.5826  0.6320  0.1150
 1015MOL0     C39938   5.240   9.736  10.998  0.2742 -0.0571 -0.0324
 1015MOL0     C39939   5.238   9.876  11.014  0.8233  0.4918 -0.1525
 1015MOL0     O39940   5.193   9.927  11.138 -0.3363 -0.3601  1.2027
 1015MOL0     C39941   5.294   9.976  11.216 -0.3686  0.0439 -0.7816
 1015MOL0     C39942   5.333   9.875  11.317 -0.5270  0.0747 -0.2075
 1015MOL0     C39943   5.245   9.870  11.447  0.1768  0.2437 -0.0838
 1015MOL0     C39944   5.207   9.731  11.482 -0.1990  0.1278 -0.3660
 1015MOL0     C39945   5.129   9.717  11.605  0.6693  0.9920 -0.3003
 1015MOL0     C39946   5.182   9.780  11.735 -0.1094 -0.3699  0.6082
 1015MOL0     C39947   5.067   9.810  11.832  0.6674  0.1188  0.2472
 1015MOL0     C39948   5.095   9.873  11.967 -0.2755 -0.4945  0.3443
 1015MOL0     N39949   5.117  10.023  11.942  0.1690  0.0907  0.4039
 1015MOL0     C39950   5.227  10.089  11.915  0.1067  0.5101  0.1343
 1015MOL0     C39951   5.197  10.215  11.913  0.0121 -1.0835  0.5340
 1015MOL0     C39952   5.306  10.319  11.919 -0.8213  0.4409 -0.0126
 1015MOL0     C39953   5.298  10.416  12.045  0.1001  0.5322 -0.1209
 1015MOL0     C39954   5.374  10.364  12.170  0.2178  0.5245  0.0967
 1015MOL0     C39955   5.324  10.233  12.228 -0.0593  0.5600 -0.3062
 1015MOL0     O39956   5.348  10.242  12.373 -0.4652 -0.4026  0.1067
 1015MOL0     C39957   5.238  10.214  12.452  0.2672  0.1869  0.2169
 1015MOL0     C39958   5.177  10.096  12.443  0.1722  0.7257  0.7543
 1015MOL0     C39959   5.067  10.046  12.525  0.3250 -0.5296  0.7807
 1015MOL0     C39960   5.039   9.895  12.521 -0.0889 -0.0270 -0.4671
 1015MOL0     C39961   5.020  10.138  12.619  0.3930  0.5385 -0.3040
 1015MOL0     C39962   4.904  10.117  12.702 -0.0349  0.8971  0.4096
 1015MOL0     O39963   4.868  10.221  12.772  1.5078  0.4313 -0.1093
 1015MOL0     C39964   4.766  10.204  12.861  0.1018  0.0152 -0.2875
 1015MOL0     C39965   4.633  10.214  12.828  0.0426 -0.0027 -0.3868
 1015MOL0     C39966   4.534  10.216  12.929 -0.5623  0.0407 -1.0872
 1015MOL0     C39967   4.580  10.235  13.064 -0.3249 -0.5085 -0.9122
 1015MOL0     O39968   4.487  10.257  13.171 -0.8599  0.0680 -0.1822
 1015MOL0     C39969   4.505  10.356  13.269  0.0876 -0.8431  1.0145
 1015MOL0     C39970   4.365  10.414  13.312  0.5321 -0.9261  0.1078
 1015MOL0     C39971   4.277  10.309  13.376  0.1753  0.0801 -0.8223
 1015MOL0     C39972   4.147  10.373  13.445  0.2120  0.4605 -0.1466
 1015MOL0     C39973   4.079  10.280  13.541  0.1362  0.2129 -0.4798
 1015MOL0     C39974   3.993  10.346  13.642  0.5546 -0.8410 -0.9145
 1015MOL0     C39975   4.056  10.321  13.781 -0.1210 -0.7312  0.1918
 1015MOL0     C39976   3.975  10.384  13.900  0.2946 -0.7095 -0.2588
 1015MOL0    Cl39977   3.966  10.554  13.882  0.4357 -0.2527  0.0439
 1015MOL0     C39978   4.720  10.250  13.085  0.8088  0.7299  0.4350
 1015MOL0     C39979   4.813  10.223  12.989  0.0857 -1.1702  0.2660
 1015MOL0     O39980   4.834  10.020  12.686  0.4971  0.4949 -0.6497
 1015MOL0     C39981   5.090  10.255  12.635 -1.3176 -0.2817 -0.4132
 1015MOL0     C39982   5.201  10.297  12.546 -0.1516  0.3267 -0.1135
 1015MOL0     N39983   5.065  10.230  11.914  0.2001  0.1273  0.7216
 1015MOL0     N39984   5.015  10.113  11.929  0.0803  0.4081 -0.4190
 1015MOL0     C39985   5.266   9.947  10.899 -0.0975 -0.3711  0.6201
 1015MOL0     C39986   5.278   9.888  10.779  0.2344  0.0285 -0.0804
 1015MOL0     C39987   5.434   9.595  10.486  0.1289 -1.0714 -0.1470
 1015MOL0     C39988   5.446   9.466  10.532 -0.6721 -0.8326  0.1069
 1015MOL0     C39989   5.516   9.374  10.459  0.6098 -0.5656 -0.5452
 1015MOL0     C39990   5.555   9.405  10.330 -1.2365 -0.4084 -0.9218
 1015MOL0     O39991   5.605   9.308  10.251  0.0282  0.1440  0.8486
 1015MOL0     C39992   5.537   9.181  10.269  0.7074  0.0685 -0.5515
 1015MOL0     C39993   5.527   9.104  10.140 -0.4884  0.4149  0.1574
 1015MOL0     C39994   5.670   9.103  10.080 -0.7270  0.1886 -0.0523
 1015MOL0     C39995   5.785   9.045  10.169  0.6932 -0.2654 -0.0379
 1015MOL0     C39996   5.900   8.994  10.102 -0.3126 -0.2398  0.3552
 1015MOL0     C39997   5.999   8.938  10.072 -0.7651  0.3307  0.7271
 1015MOL0     C39998   5.529   9.525  10.275 -0.3051  0.3807  0.2340
 1015MOL0     C39999   5.474   9.629  10.356 -0.2857 -0.6743  0.6032
 1015MOL0     C40000   5.459   9.763  10.288  0.5275 -0.0715 -0.8856
 1015MOL0     H40001   5.258   9.563  10.879  0.9979  0.4623 -0.2582
 1015MOL0     H40002   5.227   9.673  11.085 -1.6839 -0.6643 -0.7201
 1015MOL0     H40003   5.266  10.061  11.280  3.8202  1.7568 -0.9006
 1015MOL0     H40004   5.389  10.004  11.171  1.9456 -1.6692  2.6060
 1015MOL0     H40005   5.350   9.778  11.271  1.7346  0.9012 -1.2735
 1015MOL0     H40006   5.433   9.892  11.359 -1.1809 -1.1729  2.0138
 1015MOL0     H40007   5.302   9.913  11.529 -0.7068  0.4270  0.4537
 1015MOL0     H40008   5.159   9.936  11.430  0.7728  0.7639 -1.1907
 1015MOL0     H40009   5.148   9.681  11.404  1.7856  1.2658 -2.7053
 1015MOL0     H40010   5.300   9.674  11.483 -0.6080 -0.5838  1.9421
 1015MOL0     H40011   5.119   9.608  11.610  0.9478  0.9450 -0.7165
 1015MOL0     H40012   5.033   9.768  11.589  1.2086  1.7722 -1.1400
 1015MOL0     H40013   5.263   9.715  11.771  1.8694  0.1829 -2.4125
 1015MOL0     H40014   5.222   9.879  11.713 -1.6520 -0.1681 -1.6104
 1015MOL0     H40015   5.008   9.720  11.850 -0.7279  0.5313 -1.8477
 1015MOL0     H40016   4.999   9.879  11.780  3.4744  2.0855 -1.0909
 1015MOL0     H40017   5.014   9.861  12.039 -1.1436  1.5744 -0.2033
 1015MOL0     H40018   5.179   9.817  12.008 -0.5222 -0.6363  0.6546
 1015MOL0     H40019   5.322  10.038  11.902 -0.9131 -0.9250 -2.3784
 1015MOL0     H40020   5.317  10.372  11.824  2.1572  1.8079  0.9746
 1015MOL0     H40021   5.396  10.259  11.930 -1.2754 -0.4468 -0.9367
 1015MOL0     H40022   5.334  10.506  11.994 -1.5336  0.5462 -1.3376
 1015MOL0     H40023   5.194  10.439  12.072 -0.9783 -2.0617 -1.5984
 1015MOL0     H40024   5.471  10.330  12.132  0.2135  0.1560  0.4164
 1015MOL0     H40025   5.398  10.439  12.246  1.4688  2.2797 -1.9178
 1015MOL0     H40026   5.216  10.230  12.211  0.2641  1.2995 -2.7965
 1015MOL0     H40027   5.367  10.143  12.184  1.0909  1.3154 -0.7711
 1015MOL0     H40028   5.221  10.021  12.378 -0.6565 -1.3265  2.4362
 1015MOL0     H40029   5.117   9.826  12.488  0.1315  0.2769 -0.5833
 1015MOL0     H40030   4.953   9.880  12.455  1.1246 -1.3128 -1.8439
 1015MOL0     H40031   5.012   9.863  12.622 -1.3697  0.6722 -0.5694
 1015MOL0     H40032   4.609  10.207  12.722  2.0539  1.6411 -1.0240
 1015MOL0     H40033   4.426  10.219  12.919 -0.6347  1.7143 -0.2038
 1015MOL0     H40034   4.571  10.324  13.350  0.5627  1.8727  1.8058
 1015MOL0     H40035   4.553  10.438  13.215 -2.8772 -0.3039 -1.0514
 1015MOL0     H40036   4.378  10.504  13.374  2.2975  0.1881 -1.7696
 1015MOL0     H40037   4.324  10.463  13.223 -0.1780  2.5993  2.1804
 1015MOL0     H40038   4.334  10.248  13.446  0.1966  1.2023  0.1829
 1015MOL0     H40039   4.239  10.250  13.292  0.9520 -0.2473 -0.9540
 1015MOL0     H40040   4.072  10.418  13.380 -1.1259 -1.5449 -0.0699
 1015MOL0     H40041   4.186  10.450  13.513  2.5319  0.8061 -1.7228
 1015MOL0     H40042   4.016  10.212  13.483 -0.5432  0.3928  0.0418
 1015MOL0     H40043   4.155  10.230  13.601 -2.9173 -1.1292  2.5799
 1015MOL0     H40044   3.895  10.297  13.648 -0.0915  0.4963 -0.0192
 1015MOL0     H40045   3.975  10.453  13.628 -2.1973 -1.0307  0.4114
 1015MOL0     H40046   4.156  10.366  13.778 -0.7979  0.7424 -1.6176
 1015MOL0     H40047   4.058  10.215  13.806  0.9201 -0.2553  2.4117
 1015MOL0     H40048   4.022  10.360  13.996 -1.3969  2.3357  1.5085
 1015MOL0     H40049   3.870  10.352  13.903 -0.3283  1.2441 -0.2661
 1015MOL0     H40050   4.755  10.290  13.179  0.7377  1.3373  0.2093
 1015MOL0     H40051   4.918  10.237  13.012 -0.0114 -0.0874  0.1218
 1015MOL0     H40052   5.058  10.339  12.695 -2.4476 -0.2864 -0.9828
 1015MOL0     H40053   5.252  10.391  12.565  1.8700 -0.8342  0.4335
 1015MOL0     H40054   5.273  10.051  10.930 -0.1275 -0.6397  1.5618
 1015MOL0     H40055   5.286   9.955  10.694  0.1460  0.2247  0.0667
 1015MOL0     H40056   5.431   9.436  10.635  1.3087 -0.4686  0.5372
 1015MOL0     H40057   5.541   9.278  10.501 -2.8847 -0.8052  1.3261
 1015MOL0     H40058   5.596   9.124  10.342 -0.9532 -0.2314  0.5942
 1015MOL0     H40059   5.439   9.193  10.315  1.0732  1.1672 -0.0293
 1015MOL0     H40060   5.450   9.151  10.078 -1.2095 -0.8748  0.0263
 1015MOL0     H40061   5.496   8.999  10.149 -4.0147  1.2764 -0.5194
 1015MOL0     H40062   5.656   9.054   9.983 -5.0815 -0.2300  0.5939
 1015MOL0     H40063   5.699   9.206  10.056  0.1530 -0.1357 -0.4310
 1015MOL0     H40064   5.736   8.965  10.224 -0.5273  0.9740  0.7149
 1015MOL0     H40065   5.821   9.117  10.243 -0.2881 -1.6637  1.8879
 1015MOL0     H40066   6.093   8.893  10.045 -3.1599 -2.3830 -4.5965
 1015MOL0     H40067   5.554   9.535  10.170  1.2737  1.7389  0.7046
 1015MOL0     H40068   5.504   9.753  10.189 -1.9965 -0.0499 -2.1117
 1015MOL0     H40069   5.353   9.783  10.271  0.3284 -1.4606 -1.4336
 1015MOL0     H40070   5.496   9.853  10.337  0.3781 -1.3507  1.7188
 1016MOL0     O40071   5.762   3.546  11.009  0.1578 -0.2809 -0.1774
 1016MOL0     C40072   5.754   3.560  11.131  0.9822  0.2523  0.2072
 1016MOL0     O40073   5.664   3.501  11.203  0.5553  0.4332 -0.2720
 1016MOL0     C40074   5.566   3.424  11.143  0.1428 -0.1587 -0.3543
 1016MOL0     C40075   5.542   3.294  11.165  1.2040  0.8377  0.3021
 1016MOL0     C40076   5.434   3.225  11.109 -0.0674 -0.0699 -0.6808
 1016MOL0     C40077   5.342   3.292  11.031  1.3515 -0.4250 -0.2191
 1016MOL0     O40078   5.250   3.214  10.966  0.4659  0.0238  1.1519
 1016MOL0     C40079   5.193   3.274  10.843  0.0219  0.1913 -0.3199
 1016MOL0     C40080   5.119   3.150  10.793  0.1474 -0.4183 -0.8263
 1016MOL0     C40081   5.041   3.179  10.665 -0.7893 -0.3120 -0.4578
 1016MOL0     C40082   5.117   3.202  10.532  0.1938  0.1170  0.0645
 1016MOL0     C40083   5.023   3.247  10.421 -0.5012 -0.1464 -0.5753
 1016MOL0     C40084   4.992   3.405  10.423 -0.6387 -0.4760  0.0225
 1016MOL0     C40085   4.874   3.427  10.336 -0.4998 -0.1945 -0.4017
 1016MOL0     C40086   4.804   3.543  10.405 -0.2824 -0.3144  1.0136
 1016MOL0     N40087   4.713   3.611  10.308  0.9282 -0.1739  0.2079
 1016MOL0     C40088   4.757   3.704  10.224  0.1147 -0.5639 -0.2560
 1016MOL0     C40089   4.647   3.745  10.152 -0.4757 -0.0184 -0.8548
 1016MOL0     C40090   4.669   3.847  10.043  0.5357  1.0516  0.0790
 1016MOL0     C40091   4.538   3.895   9.978  0.6145 -0.0743  0.7957
 1016MOL0     C40092   4.565   3.957   9.842  1.2345 -0.4975 -0.2747
 1016MOL0     C40093   4.437   3.986   9.765 -0.1021  0.7348  0.4866
 1016MOL0     O40094   4.364   4.098   9.815 -0.0230  0.5736  0.6142
 1016MOL0     C40095   4.311   4.183   9.728  0.1595  0.9647 -0.3753
 1016MOL0     C40096   4.169   4.179   9.708 -0.6319  0.2694 -0.2939
 1016MOL0     C40097   4.110   4.272   9.621 -0.7575 -0.6430  0.4902
 1016MOL0     C40098   3.959   4.245   9.604  0.0244 -0.5599  0.2073
 1016MOL0     C40099   4.188   4.371   9.559 -0.2606 -0.8302  0.0296
 1016MOL0     C40100   4.140   4.481   9.478  0.6826 -0.9155  0.5462
 1016MOL0     O40101   4.209   4.592   9.480  0.5006  0.3878 -0.9074
 1016MOL0     C40102   4.191   4.684   9.383 -0.1141  1.0951  0.0552
 1016MOL0     C40103   4.101   4.788   9.404 -0.1893  0.0221 -0.1894
 1016MOL0     C40104   4.071   4.879   9.302  0.8105  0.2968 -0.1646
 1016MOL0     C40105   4.137   4.860   9.176 -0.6516  0.4047  1.0662
 1016MOL0     O40106   4.122   4.954   9.077 -0.4140 -0.2572  0.1716
 1016MOL0     C40107   4.235   5.038   9.043  0.0761  0.5815 -0.1368
 1016MOL0     C40108   4.180   5.159   8.951 -0.9878 -0.7930 -1.5022
 1016MOL0     C40109   4.108   5.111   8.823  0.6512 -0.6478  0.6761
 1016MOL0     C40110   4.092   5.222   8.715  0.4063  1.0398 -0.0706
 1016MOL0     C40111   3.993   5.182   8.599 -0.4661  0.3989  0.3925
 1016MOL0     C40112   3.921   5.304   8.541 -0.7066  1.0547  0.1450
 1016MOL0     C40113   4.013   5.374   8.438 -0.4612  0.1260  0.5518
 1016MOL0     C40114   4.058   5.283   8.319  0.2370 -0.1959 -0.0316
 1016MOL0    Cl40115   4.111   5.382   8.177  0.2794  0.0906  0.0354
 1016MOL0     C40116   4.234   4.762   9.157  0.1939  0.0816  0.0050
 1016MOL0     C40117   4.262   4.668   9.257  0.5294 -0.3867 -0.6095
 1016MOL0     O40118   4.049   4.460   9.402 -1.2420  0.5015  0.1144
 1016MOL0     C40119   4.327   4.373   9.581  0.2484 -0.3019 -1.6762
 1016MOL0     C40120   4.392   4.286   9.679  0.5921  0.1995 -0.2541
 1016MOL0     N40121   4.547   3.649  10.181  0.6002 -0.6222  0.3951
 1016MOL0     N40122   4.581   3.584  10.289  1.1390  0.7303 -0.3829
 1016MOL0     C40123   5.367   3.431  11.008 -0.3931 -0.1528  0.3885
 1016MOL0     C40124   5.482   3.485  11.060  0.7448 -1.0173 -0.0891
 1016MOL0     C40125   5.872   3.618  11.212 -0.0170  0.8608  0.3124
 1016MOL0     C40126   5.883   3.594  11.355 -0.7941 -0.7965 -0.2208
 1016MOL0     C40127   5.999   3.625  11.431  0.4066  0.2357  0.5631
 1016MOL0     C40128   6.107   3.679  11.364 -0.1412 -0.0215  0.0848
 1016MOL0     O40129   6.227   3.702  11.424 -0.2012  0.2469 -0.2619
 1016MOL0     C40130   6.229   3.835  11.465  0.4418 -1.3718 -0.5544
 1016MOL0     C40131   6.346   3.905  11.388 -1.0280  1.0529  0.4847
 1016MOL0     C40132   6.355   4.053  11.410  0.2558  0.1788  0.3751
 1016MOL0     C40133   6.496   4.099  11.359  0.6832 -0.5501  0.6787
 1016MOL0     C40134   6.496   4.243  11.310 -0.2851  0.0199  0.9503
 1016MOL0     C40135   6.487   4.356  11.271  0.6657 -0.0478  0.3753
 1016MOL0     C40136   6.101   3.695  11.228  0.1975 -0.4716  0.2510
 1016MOL0     C40137   5.987   3.676  11.152  0.3059 -0.1547 -0.1500
 1016MOL0     C40138   5.997   3.712  11.003  0.1319 -0.5978 -0.3523
 1016MOL0     H40139   5.608   3.235  11.227  2.2216 -0.7536 -2.1256
 1016MOL0     H40140   5.428   3.120  11.135  3.4891  0.4305  3.3997
 1016MOL0     H40141   5.267   3.303  10.767  1.2387 -2.1983 -0.1333
 1016MOL0     H40142   5.118   3.347  10.874 -0.0530 -1.3067  3.4907
 1016MOL0     H40143   5.181   3.060  10.791  2.4964  0.6995  4.4839
 1016MOL0     H40144   5.043   3.114  10.864  1.5750 -1.1661  0.3743
 1016MOL0     H40145   4.968   3.099  10.653 -0.6134 -0.7258  1.1042
 1016MOL0     H40146   4.979   3.268  10.679  0.2410  0.1977  1.0655
 1016MOL0     H40147   5.191   3.282  10.540 -1.0893  1.2967  0.5375
 1016MOL0     H40148   5.171   3.110  10.506 -3.0667 -1.5077 -1.5655
 1016MOL0     H40149   4.924   3.203  10.434 -0.4584 -0.2918 -0.7445
 1016MOL0     H40150   5.055   3.215  10.321 -2.7301 -0.2734 -1.2966
 1016MOL0     H40151   4.985   3.442  10.526  1.2566 -1.7217  0.6627
 1016MOL0     H40152   5.084   3.449  10.383  1.4148 -3.0429  1.5307
 1016MOL0     H40153   4.812   3.337  10.334 -2.7542  1.2849 -2.6787
 1016MOL0     H40154   4.901   3.457  10.234  4.9867 -1.2088  0.4319
 1016MOL0     H40155   4.738   3.507  10.484 -3.0565  0.1253 -0.9230
 1016MOL0     H40156   4.870   3.625  10.433 -0.6549  0.4226 -0.1989
 1016MOL0     H40157   4.862   3.729  10.210  0.3416 -0.8612  0.8383
 1016MOL0     H40158   4.726   3.799   9.963  3.1319  5.2133 -0.8553
 1016MOL0     H40159   4.733   3.930  10.074  0.9539  0.1053  1.9388
 1016MOL0     H40160   4.467   3.812   9.975 -1.8961  1.9591 -1.6095
 1016MOL0     H40161   4.497   3.967  10.050  0.6112  0.8439 -0.0958
 1016MOL0     H40162   4.623   4.048   9.859  2.6028 -1.2015 -0.9928
 1016MOL0     H40163   4.631   3.892   9.783 -0.8096  1.3058 -5.0223
 1016MOL0     H40164   4.451   4.007   9.659 -2.2545  2.2180  0.4317
 1016MOL0     H40165   4.375   3.897   9.774  2.1177 -1.4620 -3.4253
 1016MOL0     H40166   4.109   4.103   9.757  1.5708 -1.7392 -0.5260
 1016MOL0     H40167   3.901   4.322   9.552  0.1549  0.7879  1.9611
 1016MOL0     H40168   3.905   4.239   9.699 -1.2806 -0.1433 -0.4867
 1016MOL0     H40169   3.950   4.151   9.549  4.7712 -0.8015 -0.6238
 1016MOL0     H40170   4.062   4.809   9.504  0.5785 -1.0928  0.3643
 1016MOL0     H40171   4.006   4.958   9.336  2.9110  1.1929  2.1590
 1016MOL0     H40172   4.301   5.078   9.121 -0.1406  2.1511 -0.7134
 1016MOL0     H40173   4.295   4.976   8.976  3.1233  0.1797  2.7222
 1016MOL0     H40174   4.115   5.213   9.019  0.4790 -1.5584  0.6182
 1016MOL0     H40175   4.264   5.224   8.923 -2.0946  0.9438 -0.9155
 1016MOL0     H40176   4.008   5.083   8.854 -0.9897  0.5446 -2.9891
 1016MOL0     H40177   4.158   5.023   8.781 -0.3104 -0.2438 -1.4688
 1016MOL0     H40178   4.186   5.249   8.666 -0.2892  0.2793 -1.9269
 1016MOL0     H40179   4.050   5.306   8.772 -0.5793  0.0626  0.6784
 1016MOL0     H40180   4.047   5.135   8.516 -4.2207  1.8013 -3.2389
 1016MOL0     H40181   3.926   5.100   8.626  0.1597  0.4501  2.2469
 1016MOL0     H40182   3.895   5.381   8.614  0.1220 -1.3544  3.2366
 1016MOL0     H40183   3.836   5.264   8.485 -1.6120  1.0267  1.4862
 1016MOL0     H40184   4.101   5.415   8.489  2.5373  2.4677 -5.3903
 1016MOL0     H40185   3.968   5.461   8.390  1.1785 -0.6726 -2.7479
 1016MOL0     H40186   3.989   5.202   8.295  0.4774 -1.1101  2.1250
 1016MOL0     H40187   4.150   5.235   8.353  1.0440  2.9295  2.6956
 1016MOL0     H40188   4.282   4.754   9.060  0.1373  1.5992 -0.1745
 1016MOL0     H40189   4.331   4.587   9.237  2.3031  1.4907 -2.6472
 1016MOL0     H40190   4.386   4.450   9.533  1.2889 -2.9017 -4.9822
 1016MOL0     H40191   4.498   4.288   9.704  0.6394 -1.7152 -0.1161
 1016MOL0     H40192   5.287   3.480  10.954 -1.6201 -1.3665  1.0366
 1016MOL0     H40193   5.491   3.593  11.061 -0.8014 -0.7262  4.0603
 1016MOL0     H40194   5.801   3.552  11.412  0.8594 -1.0035  2.1583
 1016MOL0     H40195   6.004   3.617  11.539 -1.7613  3.3805  1.0449
 1016MOL0     H40196   6.139   3.894  11.446 -0.7188 -3.6259 -2.5393
 1016MOL0     H40197   6.254   3.848  11.571  0.6127  0.8839 -0.8137
 1016MOL0     H40198   6.330   3.889  11.282  0.0009  0.2652  0.4317
 1016MOL0     H40199   6.443   3.858  11.409 -0.9587  1.3541  0.8669
 1016MOL0     H40200   6.269   4.099  11.360 -1.0192 -2.3865  0.0199
 1016MOL0     H40201   6.346   4.085  11.514 -3.2954 -2.1123  0.9360
 1016MOL0     H40202   6.529   4.036  11.276 -2.0832  0.5288 -1.3968
 1016MOL0     H40203   6.572   4.085  11.436  1.8556  1.1872 -0.1159
 1016MOL0     H40204   6.480   4.456  11.232 -1.6793  1.1441  3.3996
 1016MOL0     H40205   6.194   3.727  11.182  0.2945 -0.8478  0.1868
 1016MOL0     H40206   5.997   3.632  10.929 -2.3818 -0.3797 -0.6810
 1016MOL0     H40207   5.914   3.779  10.979  0.1223 -0.3104  0.4299
 1016MOL0     H40208   6.088   3.772  10.998 -0.4817  0.9333  3.3418
 1017MOL0     O40209   1.987   8.101   3.135 -0.1638  0.2574  0.0358
 1017MOL0     C40210   1.914   8.073   3.044  0.2185 -0.7102  0.4558
 1017MOL0     O40211   1.784   8.059   3.058 -1.4197  0.3864  0.5753
 1017MOL0     C40212   1.733   8.007   3.177 -0.4519 -0.1705 -0.2216
 1017MOL0     C40213   1.796   7.918   3.274 -0.4028 -0.2122  0.8029
 1017MOL0     C40214   1.730   7.852   3.375  0.6535  0.4051  0.5560
 1017MOL0     C40215   1.589   7.847   3.380  0.8844  0.4607  0.4059
 1017MOL0     O40216   1.528   7.763   3.468 -0.8034 -0.7933 -0.7009
 1017MOL0     C40217   1.402   7.711   3.463  0.0074  0.8185 -0.6364
 1017MOL0     C40218   1.307   7.707   3.585  0.1671 -0.1803 -0.0409
 1017MOL0     C40219   1.288   7.853   3.641  0.0963 -0.2031 -0.0619
 1017MOL0     C40220   1.197   7.834   3.761  1.1880  0.3745  0.4570
 1017MOL0     C40221   1.143   7.971   3.801  1.4490  0.0893  0.5552
 1017MOL0     C40222   1.023   7.952   3.908  0.5242 -0.3740  0.8875
 1017MOL0     C40223   1.065   7.897   4.035 -0.8451 -0.5926  0.9878
 1017MOL0     C40224   0.969   7.890   4.140  0.1381  0.1248  0.2257
 1017MOL0     N40225   0.915   8.021   4.182 -0.4357  0.4317  0.1696
 1017MOL0     C40226   0.801   8.075   4.148 -0.6203 -0.2923 -0.3673
 1017MOL0     C40227   0.800   8.198   4.208  0.0178 -0.1364  1.0468
 1017MOL0     C40228   0.683   8.293   4.222 -0.7296  0.8698 -0.3663
 1017MOL0     C40229   0.652   8.387   4.107 -0.1025 -0.8760 -0.3250
 1017MOL0     C40230   0.763   8.496   4.113  0.0064  0.7527 -0.4272
 1017MOL0     C40231   0.889   8.466   4.025  0.0131  0.0746 -0.5244
 1017MOL0     O40232   1.002   8.532   4.083 -0.1735  0.5473  0.4596
 1017MOL0     C40233   1.126   8.503   4.028 -0.1432  0.4828 -0.5470
 1017MOL0     C40234   1.227   8.587   4.072 -0.0931 -0.7824 -0.1153
 1017MOL0     C40235   1.356   8.576   4.020 -0.0057  0.4643 -1.1890
 1017MOL0     C40236   1.451   8.692   4.063 -1.1131  1.0941 -0.7353
 1017MOL0     C40237   1.399   8.464   3.949 -0.5781 -1.2406 -0.7503
 1017MOL0     C40238   1.542   8.435   3.900  0.0096  0.6246 -0.4222
 1017MOL0     O40239   1.558   8.305   3.870 -0.6706  0.1908  0.0372
 1017MOL0     C40240   1.675   8.265   3.800 -0.3158 -0.3746 -0.5041
 1017MOL0     C40241   1.805   8.278   3.859 -0.3108 -0.0004  0.4595
 1017MOL0     C40242   1.923   8.245   3.789  0.4412 -0.9640  0.0433
 1017MOL0     C40243   1.917   8.197   3.658  0.0663 -0.3629  0.3457
 1017MOL0     O40244   2.038   8.158   3.604 -0.3127  0.5893  0.3822
 1017MOL0     C40245   2.052   8.128   3.470 -0.3919 -0.4508 -0.6165
 1017MOL0     C40246   2.183   8.167   3.398 -0.5094 -0.0457  0.3393
 1017MOL0     C40247   2.298   8.075   3.442 -1.0081  0.4715  0.6505
 1017MOL0     C40248   2.426   8.085   3.369 -0.8451 -0.2974  0.4932
 1017MOL0     C40249   2.434   8.016   3.235  0.4558  0.9776 -0.0428
 1017MOL0     C40250   2.575   7.998   3.195 -0.0908 -0.4989 -0.7512
 1017MOL0     C40251   2.597   7.901   3.078 -0.3059  0.2098  0.2543
 1017MOL0     C40252   2.747   7.872   3.062  0.5659  0.3808 -0.8930
 1017MOL0    Cl40253   2.799   7.762   3.186 -0.0662 -0.1924 -0.2409
 1017MOL0     C40254   1.792   8.191   3.588 -0.9110 -0.6630 -0.7691
 1017MOL0     C40255   1.674   8.221   3.662  0.2553 -0.5990 -0.9265
 1017MOL0     O40256   1.626   8.522   3.887  0.5659 -0.5793  0.0855
 1017MOL0     C40257   1.297   8.366   3.925  0.0033 -0.1156 -0.2733
 1017MOL0     C40258   1.164   8.389   3.963  0.1894  0.5149 -0.8996
 1017MOL0     N40259   0.925   8.231   4.257  0.3623 -0.1402 -0.7882
 1017MOL0     N40260   0.995   8.124   4.229  0.4058 -0.1419  0.2076
 1017MOL0     C40261   1.516   7.949   3.300 -0.3926  0.1174  0.1203
 1017MOL0     C40262   1.594   8.027   3.200 -0.7003  0.5411  0.5461
 1017MOL0     C40263   1.967   8.025   2.912  0.4458  0.1237 -0.6654
 1017MOL0     C40264   1.879   7.975   2.820 -0.3512  0.3850  0.1573
 1017MOL0     C40265   1.927   7.930   2.688  0.2234  0.1727 -0.0129
 1017MOL0     C40266   2.046   7.963   2.643 -0.6406  0.0591 -0.4793
 1017MOL0     O40267   2.069   7.937   2.509  1.0285  0.0952  0.2015
 1017MOL0     C40268   2.191   7.964   2.448 -0.5545 -0.1576  0.2688
 1017MOL0     C40269   2.290   7.850   2.471 -1.4812  0.3321  0.3080
 1017MOL0     C40270   2.416   7.860   2.391 -0.6479  0.0195 -0.0991
 1017MOL0     C40271   2.509   7.737   2.409 -0.0608  0.1210  0.4597
 1017MOL0     C40272   2.531   7.693   2.551 -0.0085 -0.3681 -0.2583
 1017MOL0     C40273   2.555   7.680   2.670  0.5718 -0.4494 -0.3455
 1017MOL0     C40274   2.136   8.029   2.732  0.9487  0.2073  0.5441
 1017MOL0     C40275   2.102   8.052   2.867 -0.4068 -0.4750 -0.8772
 1017MOL0     C40276   2.223   8.092   2.953  0.4001 -0.1713 -0.5223
 1017MOL0     H40277   1.903   7.911   3.252 -0.6442  1.5104 -1.3478
 1017MOL0     H40278   1.775   7.785   3.448 -1.0573  1.0409  2.2976
 1017MOL0     H40279   1.432   7.608   3.445  2.3056  0.6162  3.0797
 1017MOL0     H40280   1.341   7.750   3.382 -2.2657 -2.0142 -0.4421
 1017MOL0     H40281   1.213   7.655   3.561  0.2528  0.5488 -2.2345
 1017MOL0     H40282   1.362   7.654   3.663 -0.0886 -3.4269 -1.8688
 1017MOL0     H40283   1.383   7.899   3.669 -1.5333  1.2460  3.8940
 1017MOL0     H40284   1.237   7.918   3.569 -0.6950  0.8651  1.4060
 1017MOL0     H40285   1.122   7.757   3.742  1.9214  0.1710 -1.9109
 1017MOL0     H40286   1.263   7.801   3.842  2.5246  0.2733 -0.6475
 1017MOL0     H40287   1.105   8.017   3.709  0.9140  1.1851  1.2908
 1017MOL0     H40288   1.213   8.047   3.836 -1.7039  3.4622  0.1519
 1017MOL0     H40289   0.977   8.050   3.920  3.8898  1.5145 -0.0657
 1017MOL0     H40290   0.946   7.887   3.867  0.9057  0.3397 -1.0748
 1017MOL0     H40291   1.155   7.952   4.064  0.2045 -0.8844 -1.5107
 1017MOL0     H40292   1.090   7.792   4.020 -3.6146 -1.2605  0.4978
 1017MOL0     H40293   0.888   7.829   4.101  2.2380 -1.8921 -1.2743
 1017MOL0     H40294   1.015   7.843   4.227 -0.3552  1.4171  1.2253
 1017MOL0     H40295   0.717   8.039   4.089 -2.1911  0.3475  1.3596
 1017MOL0     H40296   0.692   8.354   4.313 -2.2446  0.1156  0.3191
 1017MOL0     H40297   0.596   8.231   4.242 -0.5761 -0.0328 -2.3140
 1017MOL0     H40298   0.638   8.338   4.011  0.2269 -1.7951  0.0895
 1017MOL0     H40299   0.552   8.428   4.128 -0.4404 -2.0195  0.4108
 1017MOL0     H40300   0.712   8.590   4.091 -0.9418 -0.0801 -1.9882
 1017MOL0     H40301   0.792   8.503   4.218 -0.3373 -1.1322 -0.1635
 1017MOL0     H40302   0.912   8.359   4.027 -0.9155 -0.1218  0.4320
 1017MOL0     H40303   0.876   8.506   3.924  0.8270  1.1893 -0.2055
 1017MOL0     H40304   1.191   8.657   4.147 -1.4483  0.3868 -1.7686
 1017MOL0     H40305   1.477   8.767   3.988  1.7993  0.1266 -0.8111
 1017MOL0     H40306   1.543   8.657   4.111 -3.0437 -0.0751  2.4771
 1017MOL0     H40307   1.405   8.745   4.147  0.6123  0.9522  0.3629
 1017MOL0     H40308   1.811   8.323   3.958 -0.6749  1.1092 -0.0176
 1017MOL0     H40309   2.016   8.234   3.844 -0.1768 -0.9185  1.0996
 1017MOL0     H40310   2.056   8.019   3.456  0.8890 -0.1832 -2.8135
 1017MOL0     H40311   1.972   8.173   3.411 -3.4265 -5.6546 -1.1084
 1017MOL0     H40312   2.190   8.146   3.291  0.7768  0.9198  0.2035
 1017MOL0     H40313   2.202   8.274   3.412 -0.8595  0.2838 -1.4891
 1017MOL0     H40314   2.270   7.969   3.439 -3.0016  0.9712 -1.1022
 1017MOL0     H40315   2.319   8.077   3.549  1.0160  2.1324  0.2813
 1017MOL0     H40316   2.505   8.038   3.428  0.8860  0.4448 -1.1395
 1017MOL0     H40317   2.456   8.189   3.351  2.9964 -0.9178  2.3052
 1017MOL0     H40318   2.382   7.919   3.228  2.0028 -0.0051  1.3944
 1017MOL0     H40319   2.390   8.084   3.162  0.2040  0.2584 -0.5782
 1017MOL0     H40320   2.640   7.960   3.274 -0.7649 -0.4624 -0.1728
 1017MOL0     H40321   2.611   8.092   3.153 -1.7788  1.6633  2.2979
 1017MOL0     H40322   2.566   7.929   2.977 -1.3037 -2.1832 -0.1656
 1017MOL0     H40323   2.545   7.811   3.110 -1.9577  0.8721 -0.4740
 1017MOL0     H40324   2.807   7.963   3.056  3.7816 -1.6475 -2.1011
 1017MOL0     H40325   2.769   7.839   2.960  0.9855  3.5108 -1.9027
 1017MOL0     H40326   1.794   8.175   3.480  2.4832 -2.0278 -0.6182
 1017MOL0     H40327   1.578   8.216   3.612 -0.9001 -0.3479  1.1353
 1017MOL0     H40328   1.310   8.274   3.869 -1.1531 -0.8296  0.5939
 1017MOL0     H40329   1.095   8.307   3.947  0.6576  0.6405 -4.2240
 1017MOL0     H40330   1.408   7.946   3.299 -0.3660 -2.4575 -0.5552
 1017MOL0     H40331   1.541   8.099   3.137 -0.8950  1.7726  2.0387
 1017MOL0     H40332   1.771   7.970   2.833 -0.5565 -1.6167 -1.7341
 1017MOL0     H40333   1.864   7.865   2.628 -0.1815  0.2475  0.3235
 1017MOL0     H40334   2.179   7.978   2.340  2.1584  2.5088  0.1850
 1017MOL0     H40335   2.243   8.055   2.479  0.4031 -0.1186 -1.3719
 1017MOL0     H40336   2.225   7.771   2.432 -3.5622  2.5953 -1.0827
 1017MOL0     H40337   2.321   7.835   2.575  0.8049 -2.5340 -0.6464
 1017MOL0     H40338   2.396   7.872   2.284 -0.6597  3.0597  0.1377
 1017MOL0     H40339   2.462   7.950   2.432  2.6802 -1.7292  0.3389
 1017MOL0     H40340   2.605   7.768   2.367 -1.1237  0.2723 -1.9862
 1017MOL0     H40341   2.472   7.660   2.342 -1.9162  2.1574 -0.9940
 1017MOL0     H40342   2.573   7.668   2.775 -1.3369 -1.7840 -0.1215
 1017MOL0     H40343   2.229   8.072   2.695 -0.4064  3.8903  0.9388
 1017MOL0     H40344   2.202   8.045   3.049 -1.2876 -1.3467 -1.4130
 1017MOL0     H40345   2.323   8.059   2.922  0.3702 -0.0953 -0.7040
 1017MOL0     H40346   2.225   8.201   2.953 -0.2858 -0.1100 -2.7419
 1018MOL0     O40347   1.343   7.621   6.297 -0.8077 -0.4643  0.4078
 1018MOL0     C40348   1.271   7.716   6.343 -0.0527 -0.1313  0.7061
 1018MOL0     O40349   1.209   7.709   6.474  0.1279 -0.1347 -0.0910
 1018MOL0     C40350   1.171   7.587   6.523  0.6478  0.1442  0.0434
 1018MOL0     C40351   1.177   7.565   6.659 -0.5005 -0.2368 -0.2104
 1018MOL0     C40352   1.112   7.447   6.711  0.2406  0.4567 -0.5622
 1018MOL0     C40353   1.061   7.343   6.634 -0.1263 -0.6283 -0.7947
 1018MOL0     O40354   0.993   7.239   6.694 -1.0091  0.3150  0.2597
 1018MOL0     C40355   1.067   7.125   6.733  0.4659  0.1583 -0.6168
 1018MOL0     C40356   1.138   7.061   6.612  0.2644  0.9660 -0.1400
 1018MOL0     C40357   1.154   6.905   6.625 -0.1804 -0.2334  0.5576
 1018MOL0     C40358   1.298   6.870   6.589 -0.8567 -0.0424  0.3876
 1018MOL0     C40359   1.317   6.724   6.542 -0.4203  0.0935  0.5026
 1018MOL0     C40360   1.458   6.694   6.506  0.3357  0.8809  0.3502
 1018MOL0     C40361   1.485   6.549   6.457 -0.1935 -0.5555  0.0769
 1018MOL0     C40362   1.487   6.428   6.548  0.5965 -0.8155  0.5165
 1018MOL0     N40363   1.364   6.418   6.628  0.0077  0.9553  0.3854
 1018MOL0     C40364   1.363   6.403   6.769 -0.1062 -0.0358  0.7980
 1018MOL0     C40365   1.237   6.402   6.801  0.7082  0.9794 -0.5743
 1018MOL0     C40366   1.173   6.401   6.946  0.4493  0.4666 -0.7781
 1018MOL0     C40367   1.165   6.536   7.015  0.6617 -0.8868 -0.0315
 1018MOL0     C40368   1.063   6.635   6.941 -0.7526 -0.4252 -0.5696
 1018MOL0     C40369   1.066   6.774   6.995  0.1195  0.0474 -0.3219
 1018MOL0     O40370   0.968   6.862   6.933  0.9414  0.2056 -0.0710
 1018MOL0     C40371   0.841   6.851   6.985  0.5200 -0.0437 -0.4296
 1018MOL0     C40372   0.745   6.928   6.915 -0.6038  0.0692 -1.1388
 1018MOL0     C40373   0.602   6.912   6.932 -0.2344  0.2750  0.3846
 1018MOL0     C40374   0.511   7.007   6.859  0.4728  0.7118  0.6897
 1018MOL0     C40375   0.558   6.833   7.038  0.2304 -0.4341 -0.6450
 1018MOL0     C40376   0.419   6.794   7.070  0.4946  0.1298 -0.7371
 1018MOL0     O40377   0.398   6.733   7.198 -0.5272  0.6666  0.4934
 1018MOL0     C40378   0.271   6.702   7.244  0.7397  0.0074  0.6963
 1018MOL0     C40379   0.186   6.790   7.316  0.6397 -0.4721 -0.4117
 1018MOL0     C40380   0.060   6.744   7.360 -0.6491 -0.1920 -0.6276
 1018MOL0     C40381   0.018   6.616   7.352  0.3538  0.3144  0.2143
 1018MOL0     O40382  -0.111   6.582   7.399 -0.1892 -0.2935  0.2742
 1018MOL0     C40383  -0.177   6.457   7.371 -0.1213  0.0029 -0.8639
 1018MOL0     C40384  -0.331   6.479   7.395 -0.6262 -0.1216  0.3286
 1018MOL0     C40385  -0.390   6.337   7.404  0.4665  0.2662  0.1637
 1018MOL0     C40386  -0.545   6.337   7.380 -0.1973 -0.0480  0.5689
 1018MOL0     C40387  -0.589   6.189   7.358  0.6950  0.3937 -0.8863
 1018MOL0     C40388  -0.563   6.100   7.480  0.0598  0.0645 -0.6383
 1018MOL0     C40389  -0.625   5.957   7.457  0.3517  0.8483  0.1098
 1018MOL0     C40390  -0.633   5.873   7.583  0.1624 -0.0298  0.2410
 1018MOL0    Cl40391  -0.600   5.955   7.741 -0.0174  0.4278 -0.0580
 1018MOL0     C40392   0.107   6.524   7.301  0.7563 -0.2966  0.1271
 1018MOL0     C40393   0.230   6.563   7.238 -0.3869  0.5770  0.5640
 1018MOL0     O40394   0.329   6.821   6.994 -0.0787 -0.9810  1.3513
 1018MOL0     C40395   0.650   6.774   7.122 -0.1562 -0.2364  0.6118
 1018MOL0     C40396   0.794   6.769   7.096  0.3958  0.4626  0.3570
 1018MOL0     N40397   1.161   6.417   6.683  0.4284  0.2729 -0.0677
 1018MOL0     N40398   1.234   6.416   6.578 -0.3230  1.1154  0.7808
 1018MOL0     C40399   1.071   7.365   6.498  0.7621  0.1441  0.3448
 1018MOL0     C40400   1.124   7.479   6.448  0.0324  1.3185 -0.1918
 1018MOL0     C40401   1.242   7.830   6.258 -0.2024 -0.8674  0.0613
 1018MOL0     C40402   1.105   7.861   6.277 -0.4649 -0.3449 -0.0120
 1018MOL0     C40403   1.047   7.946   6.175 -0.7902  0.0545  0.0544
 1018MOL0     C40404   1.124   8.016   6.081  0.0464  0.1423 -0.1807
 1018MOL0     O40405   1.053   8.098   5.995 -0.5436  0.2172 -0.5046
 1018MOL0     C40406   1.102   8.128   5.863  0.1907  0.3781 -0.8385
 1018MOL0     C40407   0.983   8.197   5.789 -0.2540 -0.2565  0.8487
 1018MOL0     C40408   1.028   8.253   5.642 -0.4107 -1.1216 -0.0664
 1018MOL0     C40409   1.043   8.149   5.535 -0.2319 -0.0839  0.0397
 1018MOL0     C40410   1.177   8.090   5.524 -0.4106 -0.1723 -1.3803
 1018MOL0     C40411   1.282   8.032   5.532  0.7499  0.2720  0.0477
 1018MOL0     C40412   1.258   7.987   6.080 -0.3590  1.3965  0.6059
 1018MOL0     C40413   1.321   7.894   6.163  0.0518 -1.0637  1.2899
 1018MOL0     C40414   1.475   7.864   6.148 -0.2304 -1.0747  0.1148
 1018MOL0     H40415   1.219   7.637   6.729  2.2949 -1.8738 -0.0701
 1018MOL0     H40416   1.118   7.437   6.819 -1.5310  1.2809 -0.3679
 1018MOL0     H40417   0.999   7.052   6.778  1.4665 -0.0446  0.6183
 1018MOL0     H40418   1.144   7.144   6.808  0.6909 -2.2151 -0.1551
 1018MOL0     H40419   1.100   7.091   6.514 -0.5880 -2.0382 -0.8499
 1018MOL0     H40420   1.234   7.114   6.614  1.2416 -0.6073 -1.7453
 1018MOL0     H40421   1.122   6.868   6.723  0.9173  2.8631  2.2614
 1018MOL0     H40422   1.088   6.864   6.549 -0.7626  0.4334  0.6862
 1018MOL0     H40423   1.325   6.937   6.507  1.1125 -1.3260 -0.0747
 1018MOL0     H40424   1.371   6.894   6.668  2.6586 -0.5918 -2.4347
 1018MOL0     H40425   1.257   6.709   6.452  1.9464 -1.4862 -0.9487
 1018MOL0     H40426   1.276   6.655   6.617 -1.5018 -0.1002 -0.2415
 1018MOL0     H40427   1.492   6.761   6.427  1.8563 -0.4330 -0.1778
 1018MOL0     H40428   1.510   6.720   6.599  1.2046  1.0158 -0.1662
 1018MOL0     H40429   1.586   6.548   6.415 -0.7938 -0.8390 -1.4081
 1018MOL0     H40430   1.431   6.541   6.362  1.6752  1.8729 -1.2753
 1018MOL0     H40431   1.497   6.335   6.492 -0.9329 -1.6445  1.5639
 1018MOL0     H40432   1.574   6.437   6.614  0.5467  1.3810  0.3745
 1018MOL0     H40433   1.441   6.385   6.842  1.8028  0.7958 -0.9603
 1018MOL0     H40434   1.228   6.332   7.011  0.6816  0.5241 -0.9115
 1018MOL0     H40435   1.074   6.356   6.937  0.7173  0.2590 -4.3674
 1018MOL0     H40436   1.134   6.527   7.120 -1.4466  1.3165 -0.3848
 1018MOL0     H40437   1.269   6.567   7.010  1.2503 -2.7136 -0.0967
 1018MOL0     H40438   1.083   6.643   6.834  2.6408 -0.8262 -0.0938
 1018MOL0     H40439   0.962   6.594   6.950 -0.1033 -1.8913  0.6558
 1018MOL0     H40440   1.048   6.778   7.103  0.7850  1.1413 -0.2393
 1018MOL0     H40441   1.164   6.820   6.976 -0.2467  0.8789 -0.2402
 1018MOL0     H40442   0.780   7.002   6.844 -1.2889  0.7766 -0.7513
 1018MOL0     H40443   0.454   6.942   6.792  2.5218 -1.2537  0.7467
 1018MOL0     H40444   0.561   7.085   6.802  1.0657 -0.2087 -0.0806
 1018MOL0     H40445   0.431   7.046   6.923 -1.0477 -1.9020  0.5454
 1018MOL0     H40446   0.212   6.891   7.344  0.2679 -0.1644 -1.1401
 1018MOL0     H40447  -0.008   6.803   7.419  0.8790  4.0837 -2.7584
 1018MOL0     H40448  -0.155   6.409   7.276  0.7649 -2.1308  0.3431
 1018MOL0     H40449  -0.148   6.388   7.450  0.5782  1.8577  0.5758
 1018MOL0     H40450  -0.342   6.542   7.484  1.6733 -0.8815  1.2119
 1018MOL0     H40451  -0.381   6.533   7.314 -4.4259 -0.5022  2.1980
 1018MOL0     H40452  -0.358   6.302   7.503  0.1669 -0.9211 -0.1496
 1018MOL0     H40453  -0.342   6.281   7.324  2.2818  0.5221  1.0233
 1018MOL0     H40454  -0.582   6.405   7.303  0.4974 -0.2959  0.0067
 1018MOL0     H40455  -0.592   6.377   7.471 -0.9753  4.0642 -1.4025
 1018MOL0     H40456  -0.697   6.192   7.344  0.4935  0.7154  0.6117
 1018MOL0     H40457  -0.550   6.146   7.265  1.9938 -0.8497  0.1937
 1018MOL0     H40458  -0.591   6.152   7.573  2.5832  0.4584  0.0028
 1018MOL0     H40459  -0.455   6.092   7.497  1.1544  1.8879 -5.2401
 1018MOL0     H40460  -0.579   5.895   7.380 -1.3896 -1.7133  1.0063
 1018MOL0     H40461  -0.730   5.962   7.426  0.1234  0.5910  0.8117
 1018MOL0     H40462  -0.569   5.785   7.572 -1.9237 -1.7401  1.0714
 1018MOL0     H40463  -0.734   5.831   7.587  0.3793 -0.5681  4.3303
 1018MOL0     H40464   0.074   6.420   7.302 -0.6689  0.1051  2.6888
 1018MOL0     H40465   0.284   6.481   7.193 -1.9729  0.2974 -0.9473
 1018MOL0     H40466   0.624   6.709   7.205 -0.4159 -0.3131  0.4721
 1018MOL0     H40467   0.862   6.706   7.152 -0.0020 -0.5051 -0.2222
 1018MOL0     H40468   1.029   7.279   6.446 -1.5967  1.2414  0.2886
 1018MOL0     H40469   1.142   7.470   6.342  3.1490 -2.3250  0.4279
 1018MOL0     H40470   1.043   7.823   6.357 -0.4310  1.3769  0.8837
 1018MOL0     H40471   0.939   7.944   6.166 -0.6215 -0.5243 -2.6668
 1018MOL0     H40472   1.193   8.189   5.856  2.2559 -2.3610  0.3668
 1018MOL0     H40473   1.131   8.029   5.827 -1.6991 -1.4319  2.2079
 1018MOL0     H40474   0.979   8.293   5.841  2.7101  1.5610 -1.9136
 1018MOL0     H40475   0.893   8.135   5.792 -1.8706  1.9347  0.9224
 1018MOL0     H40476   0.963   8.337   5.613  0.4895 -0.8306 -1.3453
 1018MOL0     H40477   1.129   8.292   5.659 -0.0534 -1.6513 -0.8912
 1018MOL0     H40478   1.002   8.194   5.444 -0.6410  1.8767  1.1300
 1018MOL0     H40479   0.979   8.066   5.567 -0.2190 -0.5949 -1.2001
 1018MOL0     H40480   1.377   7.983   5.543 -0.0178 -1.5782 -1.1314
 1018MOL0     H40481   1.323   8.033   6.006 -0.3917  1.0860  0.3853
 1018MOL0     H40482   1.509   7.828   6.246 -3.3702 -0.9014  1.3900
 1018MOL0     H40483   1.484   7.785   6.073 -0.8602 -0.5952 -0.4819
 1018MOL0     H40484   1.528   7.955   6.116 -0.8068 -1.4896 -2.1679
 1019MOL0     O40485   5.573   1.409   1.461 -0.3773  0.7235  0.2500
 1019MOL0     C40486   5.697   1.422   1.474  0.0029 -0.2503  0.9432
 1019MOL0     O40487   5.777   1.405   1.588  0.2696  0.8825 -0.0917
 1019MOL0     C40488   5.724   1.355   1.709  0.9070  0.3347 -0.3570
 1019MOL0     C40489   5.589   1.308   1.731 -0.6246  0.6839 -0.1166
 1019MOL0     C40490   5.543   1.274   1.862 -0.0641  0.3050  0.3423
 1019MOL0     C40491   5.639   1.267   1.971  0.3516 -0.8381  0.4278
 1019MOL0     O40492   5.616   1.241   2.103  0.6907 -0.4542  0.1948
 1019MOL0     C40493   5.473   1.206   2.126  0.5324 -1.0278  0.0948
 1019MOL0     C40494   5.437   1.199   2.275 -0.1995  0.5850  0.5447
 1019MOL0     C40495   5.463   1.331   2.345 -0.3972  0.7508 -0.3516
 1019MOL0     C40496   5.329   1.408   2.372 -0.8554 -0.4900 -0.6891
 1019MOL0     C40497   5.289   1.494   2.260  0.1401 -0.4079 -0.1193
 1019MOL0     C40498   5.190   1.608   2.304 -0.2651 -0.3446 -0.3009
 1019MOL0     C40499   5.187   1.724   2.195  0.7607  0.6140 -0.2481
 1019MOL0     C40500   5.143   1.663   2.061  0.1495 -0.7467 -0.7790
 1019MOL0     N40501   5.102   1.781   1.981 -0.6554  0.7964 -0.9012
 1019MOL0     C40502   5.178   1.850   1.893  0.1717  0.3123 -0.9058
 1019MOL0     C40503   5.095   1.953   1.854  0.2610 -0.1119 -0.1960
 1019MOL0     C40504   5.132   2.070   1.758  0.9401  0.4394 -0.5175
 1019MOL0     C40505   5.041   2.103   1.641  0.1982 -0.3685 -0.3298
 1019MOL0     C40506   4.909   2.167   1.679 -0.3310 -0.2566  0.1992
 1019MOL0     C40507   4.853   2.229   1.551 -1.0299  0.1235 -0.2819
 1019MOL0     O40508   4.844   2.116   1.464 -0.3930 -0.6658  0.2201
 1019MOL0     C40509   4.733   2.137   1.386  1.0763 -1.1836  0.0624
 1019MOL0     C40510   4.714   2.251   1.302  0.5994 -0.1438  0.0690
 1019MOL0     C40511   4.611   2.231   1.197  0.3573 -0.3449  0.5499
 1019MOL0     C40512   4.610   2.328   1.081 -0.6947 -0.6037 -0.3652
 1019MOL0     C40513   4.520   2.115   1.190 -0.2550 -0.4668 -0.6386
 1019MOL0     C40514   4.408   2.090   1.086 -0.4163  0.3851  1.3296
 1019MOL0     O40515   4.374   1.958   1.092  0.5406 -0.1976  0.9099
 1019MOL0     C40516   4.278   1.907   1.002  0.8298  0.1643  0.2890
 1019MOL0     C40517   4.177   1.831   1.053  0.3797 -0.5048 -0.8218
 1019MOL0     C40518   4.080   1.776   0.971  0.4359  0.1276  0.5083
 1019MOL0     C40519   4.086   1.788   0.831 -0.2541 -0.9878 -0.2689
 1019MOL0     O40520   3.996   1.707   0.760 -0.1222 -0.4666  0.0980
 1019MOL0     C40521   4.017   1.675   0.617 -0.4005 -0.9361 -0.5771
 1019MOL0     C40522   3.908   1.568   0.596  0.3707  1.1615  0.3203
 1019MOL0     C40523   3.958   1.432   0.653  0.1309  0.1416 -0.1738
 1019MOL0     C40524   3.845   1.333   0.635  0.0741 -0.1897  0.1721
 1019MOL0     C40525   3.896   1.209   0.706 -0.5017 -0.1938  0.2929
 1019MOL0     C40526   3.788   1.100   0.736  0.4449 -0.7899  0.2693
 1019MOL0     C40527   3.745   1.024   0.618  0.1095 -0.4003  1.1737
 1019MOL0     C40528   3.655   0.910   0.666  0.6806  0.9983  0.0051
 1019MOL0    Cl40529   3.533   0.954   0.789 -0.0369 -0.1651  0.1923
 1019MOL0     C40530   4.203   1.861   0.780 -0.0202  0.1704  1.6323
 1019MOL0     C40531   4.287   1.926   0.866 -0.1342  0.4189 -0.0321
 1019MOL0     O40532   4.363   2.174   1.004  0.3475 -0.3820 -0.2474
 1019MOL0     C40533   4.552   2.007   1.282  0.7616 -0.4324 -0.8955
 1019MOL0     C40534   4.645   2.029   1.389 -0.2405 -0.0809 -0.0622
 1019MOL0     N40535   4.981   1.947   1.923  0.8889 -0.5646 -1.0055
 1019MOL0     N40536   4.983   1.844   1.993 -0.0132  0.5723 -0.1989
 1019MOL0     C40537   5.777   1.308   1.950  0.6642  0.5572  0.4792
 1019MOL0     C40538   5.804   1.360   1.819  0.0873  0.0279 -0.0428
 1019MOL0     C40539   5.771   1.462   1.351 -0.4519 -0.2963  0.3499
 1019MOL0     C40540   5.711   1.546   1.250 -0.0157 -0.5268 -0.4570
 1019MOL0     C40541   5.757   1.557   1.120 -0.1925  0.1818  0.1926
 1019MOL0     C40542   5.880   1.497   1.080  0.7115 -0.3641  0.4166
 1019MOL0     O40543   5.934   1.504   0.953 -0.0226  0.5853 -0.5689
 1019MOL0     C40544   5.883   1.599   0.864 -1.2924  0.0272  0.2698
 1019MOL0     C40545   5.985   1.620   0.747  0.2753 -0.1318 -0.8215
 1019MOL0     C40546   6.086   1.740   0.773  0.2880  0.2916  0.4405
 1019MOL0     C40547   6.183   1.762   0.659  1.4137  0.5982  0.6433
 1019MOL0     C40548   6.279   1.864   0.693 -0.5716 -1.0767  0.5379
 1019MOL0     C40549   6.355   1.954   0.712 -0.9427  0.0054 -0.0324
 1019MOL0     C40550   5.938   1.426   1.179  0.6032  0.3556 -0.5731
 1019MOL0     C40551   5.894   1.411   1.315 -0.3265 -0.4697 -0.2642
 1019MOL0     C40552   5.962   1.304   1.396 -1.0320 -0.2890  0.9579
 1019MOL0     H40553   5.518   1.309   1.649  3.1965  0.6084 -3.8400
 1019MOL0     H40554   5.435   1.264   1.873 -0.3260  4.2661  4.1277
 1019MOL0     H40555   5.470   1.104   2.087  2.5825 -1.5264  1.1157
 1019MOL0     H40556   5.394   1.261   2.074  0.3162 -0.3005  1.1516
 1019MOL0     H40557   5.338   1.154   2.286  0.6367 -1.8987 -1.2820
 1019MOL0     H40558   5.507   1.127   2.317 -0.5834  0.5657  1.1736
 1019MOL0     H40559   5.520   1.323   2.438  1.8715 -0.2474 -1.7476
 1019MOL0     H40560   5.531   1.391   2.285  2.3943 -1.3289  0.5586
 1019MOL0     H40561   5.252   1.334   2.394  0.9687 -2.6962 -1.3548
 1019MOL0     H40562   5.346   1.470   2.460  0.6059  1.4889 -2.2615
 1019MOL0     H40563   5.235   1.430   2.190 -2.2938  0.3422  0.9355
 1019MOL0     H40564   5.379   1.532   2.212  1.1320  1.7116  3.0414
 1019MOL0     H40565   5.092   1.566   2.329 -0.5195 -0.9452 -2.1203
 1019MOL0     H40566   5.210   1.662   2.397 -6.4560 -1.2775  2.0678
 1019MOL0     H40567   5.290   1.762   2.192  0.7012  0.9184  0.9573
 1019MOL0     H40568   5.116   1.799   2.231  1.8868  0.1641  3.3578
 1019MOL0     H40569   5.229   1.614   2.014 -0.2830  0.2198 -2.7026
 1019MOL0     H40570   5.065   1.587   2.065  0.0819 -0.6160  2.1948
 1019MOL0     H40571   5.281   1.827   1.869  0.1734 -0.9436  0.1861
 1019MOL0     H40572   5.234   2.056   1.720 -0.1358 -3.6259 -2.5302
 1019MOL0     H40573   5.122   2.158   1.822 -0.3812  1.6895 -2.3657
 1019MOL0     H40574   5.092   2.186   1.591  0.9697 -1.3180 -1.1858
 1019MOL0     H40575   5.036   2.018   1.572 -1.3095  0.5079 -1.3594
 1019MOL0     H40576   4.851   2.084   1.721 -0.4273 -0.7996 -0.9832
 1019MOL0     H40577   4.910   2.251   1.750  3.8751 -0.7442  0.9763
 1019MOL0     H40578   4.761   2.285   1.572  0.2779  1.4224  2.5000
 1019MOL0     H40579   4.918   2.304   1.505 -1.0732  1.0024  1.0445
 1019MOL0     H40580   4.784   2.333   1.289  0.1409  0.4245  1.0265
 1019MOL0     H40581   4.505   2.352   1.062 -1.0502 -0.5386  1.4666
 1019MOL0     H40582   4.668   2.298   0.994  0.9992 -0.4290  0.6582
 1019MOL0     H40583   4.651   2.425   1.110  1.7863 -1.7539  0.2571
 1019MOL0     H40584   4.168   1.836   1.161  1.5732  5.6227 -0.6582
 1019MOL0     H40585   3.987   1.730   1.002  0.2829 -0.2601 -0.4926
 1019MOL0     H40586   3.993   1.763   0.556 -1.0890 -0.4465  0.3804
 1019MOL0     H40587   4.121   1.643   0.602 -0.4041 -1.4979  0.5246
 1019MOL0     H40588   3.814   1.596   0.643  0.3824 -1.8191  2.3604
 1019MOL0     H40589   3.910   1.550   0.488  1.8110  0.9302  0.3691
 1019MOL0     H40590   3.990   1.439   0.757 -0.9798  2.6432  0.0783
 1019MOL0     H40591   4.048   1.409   0.596 -1.1104 -0.2869 -2.0788
 1019MOL0     H40592   3.828   1.313   0.529  1.9734  2.8366 -0.8259
 1019MOL0     H40593   3.754   1.371   0.683 -1.2593 -1.7705 -0.9890
 1019MOL0     H40594   3.979   1.165   0.649  1.3074  3.5809 -0.2935
 1019MOL0     H40595   3.939   1.246   0.799 -1.3348  2.3446 -0.2571
 1019MOL0     H40596   3.699   1.147   0.778  0.6907  1.8859 -1.9437
 1019MOL0     H40597   3.830   1.030   0.810 -1.5821 -2.5254 -0.1421
 1019MOL0     H40598   3.831   0.974   0.572 -1.7183 -0.3175 -2.7273
 1019MOL0     H40599   3.692   1.092   0.551  1.0707 -1.3872 -0.6803
 1019MOL0     H40600   3.711   0.827   0.711  1.1806  1.9753  1.2603
 1019MOL0     H40601   3.599   0.873   0.580 -3.1696  1.3078  2.1508
 1019MOL0     H40602   4.229   1.856   0.675 -0.8424  0.4071  1.4135
 1019MOL0     H40603   4.374   1.978   0.828 -0.3228  2.0513  1.6049
 1019MOL0     H40604   4.508   1.909   1.269 -1.1670  0.0362  1.4793
 1019MOL0     H40605   4.667   1.948   1.458  3.8298  0.6563 -0.2194
 1019MOL0     H40606   5.854   1.311   2.026  0.7709  0.9895  0.3554
 1019MOL0     H40607   5.903   1.396   1.795  0.2157 -0.4766 -0.2853
 1019MOL0     H40608   5.624   1.607   1.272 -0.8262 -1.0220 -2.1193
 1019MOL0     H40609   5.695   1.620   1.057 -2.6292 -1.0305  1.2313
 1019MOL0     H40610   5.787   1.563   0.825 -0.9126  0.5226 -1.1966
 1019MOL0     H40611   5.872   1.696   0.915  2.5421  1.2247 -0.8269
 1019MOL0     H40612   5.939   1.639   0.650  0.2351  3.1796 -0.2735
 1019MOL0     H40613   6.034   1.522   0.754 -1.3539 -1.0388 -1.4892
 1019MOL0     H40614   6.017   1.825   0.772  0.3253  0.4061  2.3790
 1019MOL0     H40615   6.138   1.729   0.869  3.4629  3.0714 -0.8157
 1019MOL0     H40616   6.125   1.789   0.571  3.9147  1.6095 -0.8204
 1019MOL0     H40617   6.239   1.673   0.626  1.1141 -0.1172  1.9943
 1019MOL0     H40618   6.434   2.026   0.715 -1.5030  0.6901 -0.9563
 1019MOL0     H40619   6.029   1.372   1.153 -0.4466 -1.4864 -0.6178
 1019MOL0     H40620   6.032   1.247   1.335 -2.9285  1.0067 -2.7978
 1019MOL0     H40621   6.020   1.360   1.470  0.4456  2.3567 -1.9612
 1019MOL0     H40622   5.892   1.235   1.444  2.1401 -1.4810  4.2525
 1020MOL0     O40623   3.230  10.860   1.313  0.4543 -0.1039 -0.3144
 1020MOL0     C40624   3.158  10.922   1.233  0.3659  0.4273  1.2853
 1020MOL0     O40625   3.200  10.946   1.103  0.6543 -0.5205  0.7016
 1020MOL0     C40626   3.328  10.916   1.055 -0.1611 -0.6096  0.0838
 1020MOL0     C40627   3.415  10.805   1.081  0.6421 -0.7810 -1.1285
 1020MOL0     C40628   3.532  10.793   1.009 -0.1618  0.1702 -0.6238
 1020MOL0     C40629   3.575  10.894   0.921 -0.3110  1.3059  0.3285
 1020MOL0     O40630   3.681  10.879   0.834  0.0210  0.4810 -0.5179
 1020MOL0     C40631   3.771  10.985   0.817 -1.0914  0.5113  0.3994
 1020MOL0     C40632   3.756  11.059   0.683 -0.4534  0.7093 -0.1362
 1020MOL0     C40633   3.794  10.976   0.557  0.2774  0.4289 -0.8112
 1020MOL0     C40634   3.809  11.076   0.438  0.4904 -0.0589 -0.4242
 1020MOL0     C40635   3.850  11.015   0.313  0.6252 -0.6209  0.0750
 1020MOL0     C40636   3.985  10.950   0.324 -0.0645  0.6052  0.1742
 1020MOL0     C40637   4.019  10.891   0.190  0.9529 -0.6809 -0.2208
 1020MOL0     C40638   4.040  10.991   0.083 -0.1776  0.6727 -0.7783
 1020MOL0     N40639   4.121  10.945  -0.033 -0.1074  0.3874 -0.7046
 1020MOL0     C40640   4.116  10.812  -0.074 -0.5913  0.6241  0.0006
 1020MOL0     C40641   4.196  10.811  -0.181 -0.3878  0.3028  1.0276
 1020MOL0     C40642   4.234  10.691  -0.256 -0.7694 -0.7383 -0.5490
 1020MOL0     C40643   4.368  10.630  -0.228  0.6998 -0.1509  0.3097
 1020MOL0     C40644   4.357  10.476  -0.269 -0.3239  0.2612  0.5583
 1020MOL0     C40645   4.488  10.399  -0.243  0.2888  0.8357  1.1149
 1020MOL0     O40646   4.481  10.256  -0.275  0.0487 -0.6581 -0.3668
 1020MOL0     C40647   4.447  10.222  -0.409 -0.4234 -0.0361 -0.1621
 1020MOL0     C40648   4.505  10.275  -0.527 -0.3518  0.3352  0.1514
 1020MOL0     C40649   4.460  10.235  -0.657 -0.0626 -0.6480  0.0563
 1020MOL0     C40650   4.529  10.302  -0.776 -0.7053  1.0324 -0.6740
 1020MOL0     C40651   4.353  10.145  -0.666  0.5996 -0.1311 -1.0182
 1020MOL0     C40652   4.291  10.092  -0.797 -0.3921 -0.0012  0.5569
 1020MOL0     O40653   4.194   9.996  -0.789  0.0218 -0.2198 -0.1603
 1020MOL0     C40654   4.165   9.951  -0.917 -0.4889  0.6336  0.1495
 1020MOL0     C40655   4.047   9.991  -0.971  0.6854  0.1891  0.9012
 1020MOL0     C40656   4.017   9.960  -1.105 -0.7661 -0.2704  0.8316
 1020MOL0     C40657   4.098   9.872  -1.174 -0.1767  0.1808 -0.0929
 1020MOL0     O40658   4.081   9.841  -1.304  0.4832  0.3753 -0.1946
 1020MOL0     C40659   4.013   9.927  -1.399 -0.3300 -0.1014 -0.0251
 1020MOL0     C40660   4.099  10.053  -1.440  0.4416  0.6814 -1.0280
 1020MOL0     C40661   4.059  10.102  -1.580 -0.3044 -0.6176  0.0846
 1020MOL0     C40662   4.128  10.239  -1.633 -0.3872  0.5182  0.3649
 1020MOL0     C40663   4.263  10.208  -1.711 -0.0779 -0.5730  0.6157
 1020MOL0     C40664   4.253  10.154  -1.853 -0.5337  0.8173  0.0233
 1020MOL0     C40665   4.390  10.123  -1.915  0.6102 -0.3002 -0.3798
 1020MOL0     C40666   4.368  10.057  -2.052 -0.2282  0.7582  0.7195
 1020MOL0    Cl40667   4.287   9.893  -2.036  0.3831 -0.2440 -0.0905
 1020MOL0     C40668   4.220   9.823  -1.116  0.1347 -0.8522  0.1394
 1020MOL0     C40669   4.246   9.860  -0.987  0.6070  0.1137 -0.2826
 1020MOL0     O40670   4.338  10.137  -0.902  0.1921 -0.2278 -0.0472
 1020MOL0     C40671   4.290  10.097  -0.542  0.4631  0.0007 -0.4706
 1020MOL0     C40672   4.346  10.131  -0.417 -0.5765  0.0931  0.0879
 1020MOL0     N40673   4.259  10.932  -0.199  0.3205 -1.0594 -0.1875
 1020MOL0     N40674   4.213  11.013  -0.105 -0.5645 -0.1417 -0.3529
 1020MOL0     C40675   3.499  11.007   0.908 -0.0090  0.3127 -0.0864
 1020MOL0     C40676   3.368  11.013   0.963 -0.0136  0.3153 -0.1812
 1020MOL0     C40677   3.028  10.983   1.263 -0.4946 -0.7352  0.1416
 1020MOL0     C40678   2.990  11.100   1.189 -0.4222  0.1678  0.6424
 1020MOL0     C40679   2.857  11.146   1.195  0.5040 -0.2633  0.7444
 1020MOL0     C40680   2.767  11.092   1.275  0.1077 -0.3095 -0.4980
 1020MOL0     O40681   2.647  11.152   1.287  0.3628  0.3220  0.4274
 1020MOL0     C40682   2.532  11.085   1.237  0.1630 -0.4258  0.1467
 1020MOL0     C40683   2.542  10.988   1.120  0.0598 -0.8142 -0.0727
 1020MOL0     C40684   2.571  11.058   0.991  0.3822 -1.8297  0.5500
 1020MOL0     C40685   2.596  10.966   0.876  0.1161  0.4055 -0.0329
 1020MOL0     C40686   2.485  10.877   0.853 -0.1015  0.0796  0.5115
 1020MOL0     C40687   2.384  10.809   0.845  0.2943  0.1512 -0.5179
 1020MOL0     C40688   2.795  10.985   1.344  0.0188 -0.2702 -1.0833
 1020MOL0     C40689   2.923  10.931   1.335  0.5473  0.4451 -0.8143
 1020MOL0     C40690   2.953  10.818   1.434 -0.5947 -0.8959 -0.5103
 1020MOL0     H40691   3.394  10.735   1.161  2.0604  0.3277  0.2998
 1020MOL0     H40692   3.590  10.701   1.003  2.2741  1.5173  0.4693
 1020MOL0     H40693   3.868  10.935   0.824 -2.3544 -1.8854  2.4229
 1020MOL0     H40694   3.774  11.056   0.900  2.3982 -0.3306  1.1331
 1020MOL0     H40695   3.655  11.099   0.671 -0.4572  2.3560  3.8612
 1020MOL0     H40696   3.811  11.152   0.669 -1.9812  1.4810 -1.3690
 1020MOL0     H40697   3.881  10.909   0.563 -0.8691 -0.9908  0.5305
 1020MOL0     H40698   3.710  10.908   0.541  0.9102 -0.1457 -1.8787
 1020MOL0     H40699   3.714  11.129   0.429  1.4755  1.8320 -0.0779
 1020MOL0     H40700   3.874  11.157   0.471  1.9673 -1.2584 -0.2931
 1020MOL0     H40701   3.855  11.098   0.242  2.1430  0.1399  1.0235
 1020MOL0     H40702   3.784  10.935   0.279  0.6237 -1.0632  1.0653
 1020MOL0     H40703   4.060  11.021   0.359 -1.1016  2.4674 -1.2342
 1020MOL0     H40704   3.986  10.863   0.391 -1.0683  0.6880  0.3138
 1020MOL0     H40705   3.940  10.825   0.154  0.6052 -0.8451  0.8235
 1020MOL0     H40706   4.112  10.835   0.206  0.5757 -1.1206  0.5011
 1020MOL0     H40707   3.940  11.024   0.052 -0.5812  0.9211  0.7113
 1020MOL0     H40708   4.094  11.078   0.123 -0.8849  2.0266 -2.6281
 1020MOL0     H40709   4.061  10.724  -0.040 -0.0017  0.3680  0.2948
 1020MOL0     H40710   4.248  10.719  -0.361  2.9209  2.2759  0.5256
 1020MOL0     H40711   4.150  10.623  -0.238 -0.7346 -0.1708  2.2809
 1020MOL0     H40712   4.448  10.676  -0.287 -0.3845 -0.2096 -1.2518
 1020MOL0     H40713   4.398  10.645  -0.124 -0.1116  1.1039  0.3687
 1020MOL0     H40714   4.274  10.431  -0.213 -1.0203  2.8241  1.7272
 1020MOL0     H40715   4.338  10.462  -0.376 -2.4269 -3.7073  1.2578
 1020MOL0     H40716   4.576  10.447  -0.286  1.4174  0.0409  2.4727
 1020MOL0     H40717   4.511  10.397  -0.136  1.7965  1.2328  0.8209
 1020MOL0     H40718   4.577  10.352  -0.503  0.4491 -1.3495  4.0719
 1020MOL0     H40719   4.553  10.237  -0.861 -0.6872  1.9873 -1.4195
 1020MOL0     H40720   4.623  10.335  -0.730  0.9818 -2.5939 -1.2080
 1020MOL0     H40721   4.468  10.387  -0.808 -0.1589  0.7703 -2.5259
 1020MOL0     H40722   3.964  10.047  -0.930 -0.5000  1.8794 -3.3016
 1020MOL0     H40723   3.919   9.985  -1.143  0.4312  0.5713 -1.9791
 1020MOL0     H40724   4.004   9.863  -1.487 -1.4942  0.3245 -0.2324
 1020MOL0     H40725   3.913   9.962  -1.373  0.4860  1.4192  1.3293
 1020MOL0     H40726   4.080  10.131  -1.366  2.1347 -0.6377  0.8997
 1020MOL0     H40727   4.207  10.042  -1.425  0.2920  2.2358  1.6151
 1020MOL0     H40728   3.950  10.110  -1.588 -0.4196  0.9796  2.2985
 1020MOL0     H40729   4.079  10.026  -1.656  0.7213  1.2021 -1.5505
 1020MOL0     H40730   4.157  10.292  -1.542  0.5772 -1.9362  1.5500
 1020MOL0     H40731   4.049  10.288  -1.693 -1.2122  1.1608  1.9242
 1020MOL0     H40732   4.319  10.302  -1.714 -2.5467  0.9784 -0.7521
 1020MOL0     H40733   4.307  10.132  -1.645  0.6581 -0.2566  0.4971
 1020MOL0     H40734   4.192  10.221  -1.915 -0.4145 -0.6950 -1.8105
 1020MOL0     H40735   4.189  10.067  -1.867 -0.9316  1.5282 -3.4496
 1020MOL0     H40736   4.449  10.053  -1.855 -0.9360 -0.6389  0.8256
 1020MOL0     H40737   4.448  10.213  -1.933 -0.7643  0.5273 -0.8340
 1020MOL0     H40738   4.466  10.053  -2.100 -1.3634 -1.4041 -1.6717
 1020MOL0     H40739   4.318  10.119  -2.125 -1.4892  1.3014  2.0046
 1020MOL0     H40740   4.284   9.749  -1.163 -0.2287 -3.4948  3.3873
 1020MOL0     H40741   4.316   9.796  -0.934  1.4881  0.2026 -1.3077
 1020MOL0     H40742   4.212  10.022  -0.539  3.1190 -2.9063 -0.1077
 1020MOL0     H40743   4.291  10.100  -0.328 -2.2829  1.9509 -0.2354
 1020MOL0     H40744   3.521  11.090   0.843 -2.2731  0.1453 -1.1655
 1020MOL0     H40745   3.307  11.101   0.941 -0.9839 -0.3377 -0.1914
 1020MOL0     H40746   3.039  11.141   1.102 -3.5474  0.4468 -1.1304
 1020MOL0     H40747   2.821  11.224   1.129  2.7716  2.8581  2.8809
 1020MOL0     H40748   2.468  11.038   1.311 -1.5084 -1.7453 -2.0070
 1020MOL0     H40749   2.463  11.161   1.200 -0.6504 -2.3316 -2.5773
 1020MOL0     H40750   2.447  10.934   1.116 -1.2329  0.7648  3.8214
 1020MOL0     H40751   2.619  10.915   1.144 -1.9665 -2.3609  2.2908
 1020MOL0     H40752   2.484  11.116   0.958  0.0494 -1.8879  1.3098
 1020MOL0     H40753   2.655  11.126   1.000 -0.4817 -0.7967  0.9952
 1020MOL0     H40754   2.688  10.914   0.905 -0.6513 -1.1817 -0.3335
 1020MOL0     H40755   2.632  11.035   0.798  0.8886 -1.3861 -1.3337
 1020MOL0     H40756   2.288  10.763   0.851 -0.5866  1.5207 -2.6067
 1020MOL0     H40757   2.720  10.942   1.409 -1.0126  1.4838 -1.0508
 1020MOL0     H40758   2.969  10.864   1.531  1.6996 -0.9765 -0.7872
 1020MOL0     H40759   2.867  10.751   1.443 -0.6293 -0.8035 -0.1528
 1020MOL0     H40760   3.044  10.764   1.405  0.9985  1.7709 -0.8495
 1021MOL0     O40761  11.088   2.598   5.892  0.2758  0.4129  0.3698
 1021MOL0     C40762  11.168   2.680   5.847 -0.1555  0.1559 -0.7289
 1021MOL0     O40763  11.158   2.757   5.732  0.2600  0.4286 -0.7729
 1021MOL0     C40764  11.047   2.752   5.656  0.3197  1.0020 -0.6389
 1021MOL0     C40765  10.918   2.739   5.715  0.4972 -0.2720 -0.0001
 1021MOL0     C40766  10.809   2.729   5.630 -0.6219  0.8245  0.3264
 1021MOL0     C40767  10.828   2.742   5.490  1.0019 -0.0509 -0.3254
 1021MOL0     O40768  10.720   2.763   5.403  0.2117  0.5037 -0.4579
 1021MOL0     C40769  10.589   2.724   5.460 -0.0958 -0.8464  0.4061
 1021MOL0     C40770  10.491   2.713   5.341 -0.2525  0.5441  0.7794
 1021MOL0     C40771  10.334   2.708   5.381 -1.2236 -0.0138  0.1900
 1021MOL0     C40772  10.307   2.577   5.440  0.2385 -0.4407 -0.4291
 1021MOL0     C40773  10.165   2.594   5.513 -0.2910  0.2701  0.1288
 1021MOL0     C40774  10.046   2.608   5.414  0.1353 -0.1871 -0.4379
 1021MOL0     C40775   9.907   2.612   5.479 -0.2712 -0.5845  0.2679
 1021MOL0     C40776   9.786   2.628   5.394  0.2035  0.2441  0.8594
 1021MOL0     N40777   9.669   2.664   5.476  0.1896  0.1902  0.4482
 1021MOL0     C40778   9.550   2.591   5.489 -0.6512  0.1517 -0.3135
 1021MOL0     C40779   9.470   2.653   5.572 -0.0750 -0.1524  0.5595
 1021MOL0     C40780   9.340   2.594   5.625  0.5043 -0.3217  0.3656
 1021MOL0     C40781   9.224   2.635   5.534  0.6950 -0.3871 -0.3058
 1021MOL0     C40782   9.202   2.785   5.539 -0.1447 -0.2498  0.0218
 1021MOL0     C40783   9.065   2.819   5.474 -1.0150  0.0607 -0.0481
 1021MOL0     O40784   9.081   2.775   5.333 -0.3698  0.0828  0.3223
 1021MOL0     C40785   8.973   2.782   5.249 -0.0965 -0.2349  0.4386
 1021MOL0     C40786   8.862   2.856   5.257  0.4533 -1.1606 -0.5400
 1021MOL0     C40787   8.751   2.861   5.171  0.2287 -0.1122  0.5520
 1021MOL0     C40788   8.633   2.933   5.208  0.5598 -0.4822  0.7059
 1021MOL0     C40789   8.756   2.781   5.057 -0.8373 -0.5102  0.5073
 1021MOL0     C40790   8.642   2.743   4.968 -0.2168  0.4533 -0.3320
 1021MOL0     O40791   8.608   2.611   4.979  0.2814  0.1534  0.7972
 1021MOL0     C40792   8.533   2.553   4.883  0.6977 -0.0661 -0.5103
 1021MOL0     C40793   8.524   2.597   4.744 -0.2177 -0.4473 -0.1845
 1021MOL0     C40794   8.438   2.529   4.659 -0.1548 -0.5114  0.4056
 1021MOL0     C40795   8.373   2.408   4.692  0.1170  0.1146 -0.6926
 1021MOL0     O40796   8.294   2.332   4.614  0.2313 -0.1813  0.4364
 1021MOL0     C40797   8.162   2.379   4.576  0.9045  0.0071  0.6105
 1021MOL0     C40798   8.067   2.253   4.543 -0.5070  0.0689 -0.0591
 1021MOL0     C40799   7.916   2.303   4.513  0.0227  0.9389  0.2012
 1021MOL0     C40800   7.816   2.181   4.519 -0.3618  0.0208 -0.8808
 1021MOL0     C40801   7.727   2.182   4.648  0.0458  0.1337 -0.0994
 1021MOL0     C40802   7.641   2.308   4.673  0.5602  0.5494  0.1702
 1021MOL0     C40803   7.575   2.355   4.543  0.2502 -0.3760  0.3525
 1021MOL0     C40804   7.555   2.507   4.564  0.7987 -0.0444 -0.4636
 1021MOL0    Cl40805   7.705   2.600   4.515 -0.0545 -0.1842 -0.0397
 1021MOL0     C40806   8.378   2.368   4.827 -0.2639  0.9131  0.4307
 1021MOL0     C40807   8.459   2.444   4.918 -0.8538  0.5297  0.3620
 1021MOL0     O40808   8.575   2.821   4.899  0.3492 -0.1913 -0.3925
 1021MOL0     C40809   8.866   2.702   5.046 -0.8743  0.8672  0.5599
 1021MOL0     C40810   8.974   2.700   5.134 -0.7042  0.2392 -0.1528
 1021MOL0     N40811   9.534   2.776   5.602 -0.1261  0.0745  0.1608
 1021MOL0     N40812   9.643   2.782   5.545  0.3023  0.6883  0.7260
 1021MOL0     C40813  10.956   2.762   5.435 -0.1796  0.0734  0.6422
 1021MOL0     C40814  11.066   2.779   5.518  0.4053  0.7171  0.8353
 1021MOL0     C40815  11.293   2.688   5.932 -0.7036 -0.5748  0.4796
 1021MOL0     C40816  11.285   2.650   6.067  0.0666  0.6494 -0.5026
 1021MOL0     C40817  11.393   2.664   6.153  0.5829  0.1262  0.9338
 1021MOL0     C40818  11.515   2.721   6.103 -0.3517 -0.1577  0.6299
 1021MOL0     O40819  11.623   2.714   6.194 -0.0721 -0.2294 -0.1914
 1021MOL0     C40820  11.760   2.745   6.161 -0.4617  0.2168 -0.3700
 1021MOL0     C40821  11.788   2.897   6.179  0.8663 -0.8605  0.0511
 1021MOL0     C40822  11.738   2.950   6.316 -0.0845 -0.8110  0.2450
 1021MOL0     C40823  11.805   2.895   6.446  1.2698 -0.3403  0.1821
 1021MOL0     C40824  11.946   2.895   6.447  0.1027 -0.2622 -0.5173
 1021MOL0     C40825  12.073   2.902   6.472 -0.2462  0.8864 -0.2461
 1021MOL0     C40826  11.531   2.751   5.969  0.7022  0.2745 -0.7265
 1021MOL0     C40827  11.425   2.731   5.878  0.8721  0.3501 -1.1188
 1021MOL0     C40828  11.444   2.743   5.738  0.2605 -1.3844 -0.4458
 1021MOL0     H40829  10.902   2.745   5.822  1.4897 -2.0412  0.2856
 1021MOL0     H40830  10.716   2.694   5.672 -0.4387 -2.0617 -1.3882
 1021MOL0     H40831  10.541   2.795   5.528 -2.3707 -0.5206 -1.4216
 1021MOL0     H40832  10.599   2.622   5.498  1.8621  0.0770  2.6731
 1021MOL0     H40833  10.513   2.803   5.283 -3.0337  0.4174 -0.6241
 1021MOL0     H40834  10.526   2.627   5.284  0.5443  0.8833  0.7397
 1021MOL0     H40835  10.326   2.784   5.459  1.3438  0.3178  0.2021
 1021MOL0     H40836  10.279   2.734   5.290  1.0601  0.3455 -1.1705
 1021MOL0     H40837  10.320   2.490   5.375  2.0410  0.4010 -1.2715
 1021MOL0     H40838  10.387   2.551   5.510 -0.7959 -3.0132 -0.0675
 1021MOL0     H40839  10.170   2.678   5.584 -1.3394 -0.0062  0.5568
 1021MOL0     H40840  10.157   2.511   5.583 -2.6217 -0.4045 -0.8406
 1021MOL0     H40841  10.074   2.704   5.369  0.8922  0.9627  2.2361
 1021MOL0     H40842  10.057   2.520   5.351 -0.3043  0.4448 -1.4140
 1021MOL0     H40843   9.905   2.697   5.548 -1.3367 -2.0623  2.1527
 1021MOL0     H40844   9.903   2.528   5.549 -0.8000  0.6404  1.7735
 1021MOL0     H40845   9.796   2.705   5.318 -0.2567  0.0597  0.6097
 1021MOL0     H40846   9.755   2.541   5.335  1.7206 -0.6599  1.3379
 1021MOL0     H40847   9.516   2.493   5.456 -0.4888 -0.4976  1.3536
 1021MOL0     H40848   9.328   2.607   5.733 -1.7210 -4.7931  0.8995
 1021MOL0     H40849   9.343   2.485   5.617  1.5545 -0.7443  4.2351
 1021MOL0     H40850   9.238   2.613   5.428  0.4028 -0.0161 -0.4227
 1021MOL0     H40851   9.137   2.586   5.578 -1.3443  1.9554 -1.4481
 1021MOL0     H40852   9.216   2.825   5.640 -0.2920  1.3887 -0.5708
 1021MOL0     H40853   9.275   2.841   5.479  0.2774 -0.6179  0.1943
 1021MOL0     H40854   8.984   2.770   5.528 -1.9693  0.3446 -1.1929
 1021MOL0     H40855   9.040   2.925   5.465  0.7139  0.4714 -0.5400
 1021MOL0     H40856   8.855   2.914   5.349 -1.1402 -1.8993 -0.1551
 1021MOL0     H40857   8.667   3.036   5.224  0.7500 -0.5977  1.0691
 1021MOL0     H40858   8.587   2.900   5.302 -0.5963  0.2168  0.3949
 1021MOL0     H40859   8.554   2.936   5.133  0.4163  2.2136  0.8776
 1021MOL0     H40860   8.579   2.684   4.709  2.8104 -2.1050  0.1736
 1021MOL0     H40861   8.430   2.567   4.557  1.4133  0.0857  0.4854
 1021MOL0     H40862   8.113   2.440   4.653  1.2801  1.2620 -0.1164
 1021MOL0     H40863   8.176   2.435   4.483  2.6734 -1.0631  0.2001
 1021MOL0     H40864   8.106   2.206   4.453 -2.9524 -0.3421 -0.9686
 1021MOL0     H40865   8.079   2.184   4.626  0.6171  0.1388 -0.1556
 1021MOL0     H40866   7.896   2.332   4.409 -3.4070 -1.0677  0.1526
 1021MOL0     H40867   7.891   2.384   4.582  1.0062  0.9526  0.5603
 1021MOL0     H40868   7.877   2.091   4.509  0.0104  0.2851 -1.0449
 1021MOL0     H40869   7.748   2.178   4.434  0.3678 -0.2787 -1.4642
 1021MOL0     H40870   7.661   2.095   4.637  0.1034  0.3222 -2.3077
 1021MOL0     H40871   7.791   2.158   4.734  1.1447 -1.7828 -1.3715
 1021MOL0     H40872   7.714   2.381   4.710  1.6502  0.2920 -1.3666
 1021MOL0     H40873   7.575   2.297   4.760  1.9675  3.5777  1.7790
 1021MOL0     H40874   7.479   2.304   4.560  0.5088 -0.5619  1.3165
 1021MOL0     H40875   7.622   2.334   4.447 -1.0191  0.4430 -0.4908
 1021MOL0     H40876   7.531   2.527   4.669 -3.8067 -1.0864 -1.1327
 1021MOL0     H40877   7.477   2.551   4.501  1.1445  0.1702 -0.7452
 1021MOL0     H40878   8.320   2.280   4.856 -2.2529  1.8387 -0.5445
 1021MOL0     H40879   8.469   2.410   5.021 -0.9978 -2.2220 -0.4753
 1021MOL0     H40880   8.884   2.646   4.955 -0.2199  0.2928  1.0342
 1021MOL0     H40881   9.064   2.645   5.110 -0.9055 -1.1927  2.0605
 1021MOL0     H40882  10.949   2.782   5.328 -1.4481 -1.1421  0.4666
 1021MOL0     H40883  11.170   2.796   5.490  0.1348 -0.6505 -1.1789
 1021MOL0     H40884  11.198   2.594   6.101 -0.6911  1.6507 -0.7570
 1021MOL0     H40885  11.391   2.628   6.255  4.5760 -2.5074  0.2873
 1021MOL0     H40886  11.829   2.715   6.240 -0.5708 -1.1733 -0.7881
 1021MOL0     H40887  11.800   2.697   6.072 -3.1579 -0.7813 -1.1215
 1021MOL0     H40888  11.713   2.948   6.117 -0.1705 -3.2074 -0.7527
 1021MOL0     H40889  11.890   2.928   6.157  1.6434 -1.9205  1.9944
 1021MOL0     H40890  11.752   3.059   6.316 -2.3155 -0.3779  3.6169
 1021MOL0     H40891  11.629   2.943   6.304  0.1105  0.0116 -3.1429
 1021MOL0     H40892  11.776   2.792   6.465  2.1921 -0.4525  1.0877
 1021MOL0     H40893  11.765   2.956   6.528  1.8689  0.8610 -0.3846
 1021MOL0     H40894  12.177   2.895   6.495 -0.0912 -1.9873 -1.3962
 1021MOL0     H40895  11.632   2.782   5.942  1.6595 -0.1124  2.0075
 1021MOL0     H40896  11.552   2.751   5.723  0.8504 -3.8609  1.7422
 1021MOL0     H40897  11.404   2.651   5.693 -3.1540 -1.6928  2.7244
 1021MOL0     H40898  11.390   2.834   5.708 -0.1501 -1.7260 -0.7764
 1022MOL0     O40899   7.641   0.989   3.747  0.4569 -0.6718 -0.0913
 1022MOL0     C40900   7.561   1.040   3.817  0.7605 -0.1794 -0.7651
 1022MOL0     O40901   7.518   1.164   3.805 -1.0617 -0.0569  0.0407
 1022MOL0     C40902   7.555   1.255   3.704 -0.1144 -0.3782  0.4408
 1022MOL0     C40903   7.685   1.313   3.690  0.3946  0.2617 -0.7517
 1022MOL0     C40904   7.718   1.393   3.580 -0.1229 -0.1010  0.2028
 1022MOL0     C40905   7.633   1.429   3.471 -1.3205  0.2168 -0.0734
 1022MOL0     O40906   7.671   1.506   3.364  0.1854  0.3613  0.7997
 1022MOL0     C40907   7.758   1.613   3.386 -0.2822 -0.5565 -0.6806
 1022MOL0     C40908   7.911   1.563   3.368  0.9249  0.0089  0.2424
 1022MOL0     C40909   7.948   1.538   3.218  0.6855 -0.4557 -0.8493
 1022MOL0     C40910   8.091   1.494   3.212 -0.1253 -0.4782  0.2803
 1022MOL0     C40911   8.186   1.628   3.205  0.2245  0.2220 -0.0706
 1022MOL0     C40912   8.190   1.696   3.070 -0.8676 -0.7041 -0.1469
 1022MOL0     C40913   8.162   1.608   2.944  1.2812  0.3095 -0.0075
 1022MOL0     C40914   8.266   1.488   2.906  0.1992 -0.4810 -0.3777
 1022MOL0     N40915   8.217   1.388   2.815  0.5053 -0.0502  0.5023
 1022MOL0     C40916   8.116   1.388   2.730  0.2742 -0.1580  0.0226
 1022MOL0     C40917   8.117   1.267   2.664  0.5730  0.0220 -0.5995
 1022MOL0     C40918   8.035   1.213   2.546  1.3149  0.3729 -0.7041
 1022MOL0     C40919   8.108   1.204   2.417 -0.3447 -0.2869  0.5966
 1022MOL0     C40920   8.133   1.353   2.364 -0.2544  0.1732 -0.4848
 1022MOL0     C40921   8.131   1.352   2.209 -0.1350  0.2575 -0.0180
 1022MOL0     O40922   8.254   1.400   2.153  0.0599  0.0438  0.3788
 1022MOL0     C40923   8.272   1.533   2.131 -0.7451  0.1967 -0.7930
 1022MOL0     C40924   8.399   1.579   2.074  0.3757  0.7470 -0.0499
 1022MOL0     C40925   8.430   1.711   2.053 -0.5145 -0.9481  1.0014
 1022MOL0     C40926   8.565   1.732   1.998 -0.6995  0.6500 -0.3887
 1022MOL0     C40927   8.336   1.817   2.090  0.2566 -0.3375 -0.6507
 1022MOL0     C40928   8.356   1.958   2.072  0.7074 -0.0999 -0.0362
 1022MOL0     O40929   8.242   2.040   2.086 -0.2981  0.4802 -0.4022
 1022MOL0     C40930   8.271   2.172   2.084  0.7892  0.4988 -0.2011
 1022MOL0     C40931   8.236   2.248   2.198 -0.5205  0.0246  1.0098
 1022MOL0     C40932   8.244   2.384   2.185 -0.8658 -0.7919  0.0948
 1022MOL0     C40933   8.273   2.458   2.066  0.5353 -0.3947 -0.4648
 1022MOL0     O40934   8.288   2.594   2.055 -0.1914 -0.2303  0.0667
 1022MOL0     C40935   8.215   2.673   2.162 -0.8147  0.9016  0.1163
 1022MOL0     C40936   8.217   2.813   2.118 -0.5555 -0.3338  0.0472
 1022MOL0     C40937   8.161   2.901   2.232  0.4067 -0.8792 -0.7816
 1022MOL0     C40938   8.132   3.035   2.175  0.1396  0.3632 -0.2736
 1022MOL0     C40939   8.032   3.117   2.260 -1.0339  1.7225  1.1058
 1022MOL0     C40940   7.992   3.247   2.200  0.0872  0.2155  0.2796
 1022MOL0     C40941   7.922   3.330   2.315  0.2191 -0.6223  0.8535
 1022MOL0     C40942   7.880   3.471   2.274 -0.1338  0.3336  0.3511
 1022MOL0    Cl40943   7.849   3.582   2.415  0.6559 -0.0080  0.2608
 1022MOL0     C40944   8.298   2.374   1.961 -1.3774  0.3820 -0.1677
 1022MOL0     C40945   8.301   2.237   1.967  0.4384 -0.0005  0.5131
 1022MOL0     O40946   8.463   1.994   2.035 -0.3664 -0.2377  0.3820
 1022MOL0     C40947   8.207   1.780   2.136 -0.4472  0.0284  0.2327
 1022MOL0     C40948   8.176   1.636   2.157  0.1836 -1.1307  0.1548
 1022MOL0     N40949   8.215   1.190   2.725 -0.5278 -0.4253 -0.1851
 1022MOL0     N40950   8.279   1.269   2.807  0.4321  0.0357 -0.4870
 1022MOL0     C40951   7.498   1.380   3.491  0.1039  0.4567  0.4176
 1022MOL0     C40952   7.472   1.297   3.603  0.8153 -0.0547  0.3759
 1022MOL0     C40953   7.511   0.960   3.938  0.3375  0.5208  0.3413
 1022MOL0     C40954   7.391   1.005   3.999  0.4476  0.7566 -0.3457
 1022MOL0     C40955   7.344   0.946   4.114  0.4168 -0.3904  0.9282
 1022MOL0     C40956   7.418   0.846   4.179 -0.9266 -0.8114  0.0716
 1022MOL0     O40957   7.366   0.796   4.299  0.5160  1.1729 -0.2363
 1022MOL0     C40958   7.440   0.682   4.355 -0.1397  0.5674  0.6413
 1022MOL0     C40959   7.400   0.661   4.503 -0.3451  0.7036 -0.4185
 1022MOL0     C40960   7.256   0.621   4.523 -0.0423 -1.3949  0.2138
 1022MOL0     C40961   7.251   0.539   4.648  0.3094 -0.4086 -0.3328
 1022MOL0     C40962   7.293   0.609   4.765  0.0198 -0.6352  0.2963
 1022MOL0     C40963   7.313   0.682   4.865  0.6014 -0.0246  0.5521
 1022MOL0     C40964   7.529   0.793   4.115 -0.6540  0.2941  0.7665
 1022MOL0     C40965   7.571   0.852   3.996  0.0271  0.9500  0.0639
 1022MOL0     C40966   7.686   0.786   3.933 -0.1883  0.2284 -0.6256
 1022MOL0     H40967   7.768   1.293   3.758 -1.2810 -0.4521  1.1842
 1022MOL0     H40968   7.817   1.433   3.598  0.7025 -1.1976 -1.5809
 1022MOL0     H40969   7.756   1.649   3.489  1.9989  1.1210 -1.1342
 1022MOL0     H40970   7.738   1.698   3.320  0.1613  1.0744  1.1832
 1022MOL0     H40971   7.979   1.637   3.410 -1.8521  3.0466 -0.1752
 1022MOL0     H40972   7.923   1.464   3.414 -3.3890 -1.2785 -0.8941
 1022MOL0     H40973   7.894   1.451   3.179 -1.2228 -0.1294  0.8929
 1022MOL0     H40974   7.936   1.625   3.154  0.6677 -0.6093 -1.0564
 1022MOL0     H40975   8.113   1.456   3.312 -2.9902  2.3483  2.1917
 1022MOL0     H40976   8.114   1.418   3.138 -2.1936  2.3239 -3.5618
 1022MOL0     H40977   8.288   1.598   3.231  0.8680  0.7240 -1.8838
 1022MOL0     H40978   8.155   1.696   3.285 -2.1176  0.2331 -0.9292
 1022MOL0     H40979   8.120   1.781   3.069 -1.2328 -1.0033 -0.8121
 1022MOL0     H40980   8.290   1.738   3.056 -1.0591  1.5710  3.6432
 1022MOL0     H40981   8.155   1.691   2.873  3.4078  2.9790  2.6195
 1022MOL0     H40982   8.061   1.567   2.946  1.3572  0.0964  2.5384
 1022MOL0     H40983   8.354   1.540   2.868 -1.1893  3.3166  1.0600
 1022MOL0     H40984   8.298   1.436   2.997  0.6686 -2.5542 -1.6735
 1022MOL0     H40985   8.055   1.475   2.706 -0.2466 -0.6007 -0.2785
 1022MOL0     H40986   7.933   1.252   2.542  1.1170  0.1867  1.3389
 1022MOL0     H40987   8.016   1.109   2.575  3.4038  0.6297  2.0356
 1022MOL0     H40988   8.207   1.159   2.431 -1.4420 -2.8341  0.8103
 1022MOL0     H40989   8.049   1.144   2.348 -3.7013  0.2460  2.7766
 1022MOL0     H40990   8.057   1.424   2.396  1.6097  1.6683  0.8922
 1022MOL0     H40991   8.221   1.388   2.419 -0.5608 -2.5982  2.0412
 1022MOL0     H40992   8.117   1.250   2.173 -0.8693  0.4905 -0.4069
 1022MOL0     H40993   8.049   1.413   2.169  0.0134  1.6555  1.6898
 1022MOL0     H40994   8.474   1.504   2.051  2.3439  1.3467  3.6673
 1022MOL0     H40995   8.631   1.792   2.060  1.3588  1.5258 -3.2396
 1022MOL0     H40996   8.552   1.794   1.909 -0.3328  1.6571  0.2510
 1022MOL0     H40997   8.623   1.644   1.968  1.4329  2.4714 -1.8242
 1022MOL0     H40998   8.194   2.212   2.292 -1.7544 -0.7669  0.1971
 1022MOL0     H40999   8.222   2.445   2.272 -3.1594 -1.3733 -0.0162
 1022MOL0     H41000   8.120   2.623   2.184 -2.0505  3.1318  0.1208
 1022MOL0     H41001   8.267   2.668   2.258  1.8885  0.7188 -1.2525
 1022MOL0     H41002   8.321   2.843   2.100 -1.0863  0.3654 -2.2725
 1022MOL0     H41003   8.159   2.808   2.026 -0.3261 -2.4237 -0.0341
 1022MOL0     H41004   8.231   2.906   2.316  0.6486 -0.9153 -0.9789
 1022MOL0     H41005   8.071   2.852   2.270  1.8329 -1.1860  2.5486
 1022MOL0     H41006   8.091   3.012   2.076 -0.2649 -0.0026 -0.0202
 1022MOL0     H41007   8.226   3.092   2.169  2.5489 -3.2853 -0.5957
 1022MOL0     H41008   7.956   3.047   2.294  0.3150  0.4351  1.5785
 1022MOL0     H41009   8.090   3.148   2.348  1.7521 -0.9652  0.3975
 1022MOL0     H41010   7.922   3.245   2.116 -1.5060  4.8189  1.1895
 1022MOL0     H41011   8.075   3.307   2.161  0.1060  0.7101  1.0581
 1022MOL0     H41012   7.999   3.340   2.393  1.7682 -1.9294 -0.4464
 1022MOL0     H41013   7.837   3.272   2.350 -3.1553  0.6733 -4.0983
 1022MOL0     H41014   7.783   3.466   2.225 -1.0474  3.4569  1.6272
 1022MOL0     H41015   7.958   3.521   2.216  1.5286  2.1719  3.8314
 1022MOL0     H41016   8.340   2.408   1.867  0.8379 -0.0520  0.5874
 1022MOL0     H41017   8.323   2.175   1.880  0.0910  0.0234  0.4094
 1022MOL0     H41018   8.132   1.855   2.156 -2.6316 -1.1511 -2.7785
 1022MOL0     H41019   8.072   1.614   2.183 -2.0634  1.9680 -4.6660
 1022MOL0     H41020   7.420   1.400   3.419  2.5448  1.0798 -2.2536
 1022MOL0     H41021   7.370   1.263   3.622  0.4835  0.3114 -0.6944
 1022MOL0     H41022   7.323   1.070   3.946  0.1427  0.0576 -0.8296
 1022MOL0     H41023   7.251   0.990   4.146 -0.1913  0.2927 -1.6024
 1022MOL0     H41024   7.437   0.584   4.307  1.6080 -0.4352  2.4459
 1022MOL0     H41025   7.545   0.713   4.353 -0.1183  0.6089  1.8820
 1022MOL0     H41026   7.428   0.749   4.562  1.8302  0.1950 -0.6109
 1022MOL0     H41027   7.471   0.584   4.536  0.4460  1.5446 -0.1103
 1022MOL0     H41028   7.195   0.708   4.548  2.1609  0.1031  0.6091
 1022MOL0     H41029   7.207   0.569   4.440 -3.8519  3.3831 -1.0052
 1022MOL0     H41030   7.301   0.441   4.641  0.4489 -0.2277 -4.3065
 1022MOL0     H41031   7.146   0.516   4.665  0.2708  1.1866  1.9560
 1022MOL0     H41032   7.331   0.759   4.938 -0.6981  1.4812 -0.6580
 1022MOL0     H41033   7.583   0.704   4.146  2.2456  1.4407 -0.6833
 1022MOL0     H41034   7.735   0.708   3.991 -2.3016 -1.8450 -1.4491
 1022MOL0     H41035   7.655   0.723   3.849  3.0633  0.7367 -2.3463
 1022MOL0     H41036   7.759   0.860   3.900  0.0092 -0.2968 -1.3910
 1023MOL0     O41037   9.000   6.740   6.911  0.3091 -0.5773 -0.3825
 1023MOL0     C41038   9.045   6.730   7.021  0.0785  0.3520 -1.1703
 1023MOL0     O41039   9.029   6.619   7.099 -0.4748  1.0206 -0.6578
 1023MOL0     C41040   8.944   6.514   7.062 -0.7988 -0.7149 -0.3677
 1023MOL0     C41041   8.970   6.404   7.137 -0.0280 -0.0954 -0.3788
 1023MOL0     C41042   8.910   6.285   7.111 -0.8928 -1.0753 -0.5765
 1023MOL0     C41043   8.796   6.291   7.024 -0.2652  0.1936  1.1586
 1023MOL0     O41044   8.724   6.178   6.996 -0.9311  0.4416 -0.4038
 1023MOL0     C41045   8.646   6.122   7.101  0.5980 -0.7052  0.1319
 1023MOL0     C41046   8.670   5.972   7.127 -0.4192 -1.1462 -0.3548
 1023MOL0     C41047   8.643   5.878   7.010 -0.9557  0.7152 -0.3527
 1023MOL0     C41048   8.699   5.730   7.039  0.5646  0.2503 -0.5902
 1023MOL0     C41049   8.662   5.619   6.939  0.2677  0.3235  0.3829
 1023MOL0     C41050   8.722   5.638   6.801  0.7066  0.4668  0.0249
 1023MOL0     C41051   8.666   5.540   6.706 -0.2213  1.3077 -1.1297
 1023MOL0     C41052   8.520   5.572   6.668 -0.2220 -0.1759  0.1932
 1023MOL0     N41053   8.469   5.459   6.585 -0.5462  0.3461  0.7556
 1023MOL0     C41054   8.411   5.342   6.635 -0.2447 -1.0722  0.1939
 1023MOL0     C41055   8.364   5.288   6.524 -0.3863  0.0772 -0.2409
 1023MOL0     C41056   8.287   5.156   6.511 -0.1578  0.3943 -0.0784
 1023MOL0     C41057   8.369   5.052   6.435  0.5016 -0.0153 -0.4689
 1023MOL0     C41058   8.512   5.023   6.489  0.5148 -0.5426  0.3710
 1023MOL0     C41059   8.522   4.994   6.640  1.1241  0.8895 -0.0547
 1023MOL0     O41060   8.656   4.962   6.664  0.5662  0.0457 -0.4618
 1023MOL0     C41061   8.707   4.832   6.645  0.0810 -0.5598  0.4816
 1023MOL0     C41062   8.849   4.826   6.638  0.0037 -0.5683  0.1962
 1023MOL0     C41063   8.918   4.707   6.643  0.2327 -0.4367  1.2872
 1023MOL0     C41064   9.074   4.709   6.653 -0.0945 -0.8500  1.3256
 1023MOL0     C41065   8.846   4.588   6.629  1.1590  0.4068 -0.4470
 1023MOL0     C41066   8.899   4.443   6.645 -0.9260  0.2646  0.1454
 1023MOL0     O41067   8.816   4.346   6.710 -0.1193 -0.0919 -0.0079
 1023MOL0     C41068   8.871   4.226   6.754  0.7601 -0.1282  0.0264
 1023MOL0     C41069   9.001   4.196   6.794 -0.1795  0.5517 -0.1436
 1023MOL0     C41070   9.029   4.061   6.841 -0.7450 -0.6605 -0.3734
 1023MOL0     C41071   8.933   3.962   6.835 -0.3131 -0.1575 -0.2613
 1023MOL0     O41072   8.949   3.826   6.863  0.1092  0.4293  0.3998
 1023MOL0     C41073   9.024   3.794   6.981  0.6769 -1.6442  0.2369
 1023MOL0     C41074   9.116   3.677   6.955 -0.0280 -0.3141  0.4821
 1023MOL0     C41075   9.149   3.612   7.090 -0.0958  0.2411  0.4410
 1023MOL0     C41076   9.292   3.556   7.087  0.3541 -0.7172 -0.3996
 1023MOL0     C41077   9.320   3.491   7.226 -0.8404 -0.0739 -0.5094
 1023MOL0     C41078   9.252   3.347   7.240  1.2934 -0.9926 -0.5606
 1023MOL0     C41079   9.305   3.282   7.373  0.9717 -0.0897 -0.6520
 1023MOL0     C41080   9.228   3.159   7.423  0.1921  0.2898 -0.2369
 1023MOL0    Cl41081   9.326   3.094   7.558  0.1541 -0.2622 -0.2302
 1023MOL0     C41082   8.801   3.997   6.805 -0.7365  0.9987 -0.6948
 1023MOL0     C41083   8.768   4.128   6.765 -0.8116  0.0483 -1.3464
 1023MOL0     O41084   9.011   4.415   6.596 -0.1399 -0.6687  0.3391
 1023MOL0     C41085   8.703   4.589   6.625 -0.3472 -0.3621  0.6535
 1023MOL0     C41086   8.634   4.712   6.639  0.9528  0.8492 -0.6138
 1023MOL0     N41087   8.394   5.357   6.402 -0.2766  0.3608 -0.8325
 1023MOL0     N41088   8.452   5.469   6.445 -0.2299 -0.1371  0.1068
 1023MOL0     C41089   8.762   6.413   6.958  0.0111  0.5575  0.6121
 1023MOL0     C41090   8.837   6.523   6.969  0.0652  0.5875 -0.6718
 1023MOL0     C41091   9.136   6.837   7.084  0.7756 -0.6141 -0.1307
 1023MOL0     C41092   9.217   6.810   7.188 -0.7348  0.5677  0.0027
 1023MOL0     C41093   9.300   6.897   7.249 -0.1508 -0.8349  1.1959
 1023MOL0     C41094   9.303   7.027   7.202  0.5153 -0.6277  0.4783
 1023MOL0     O41095   9.370   7.136   7.234  0.3793 -0.2007 -0.7506
 1023MOL0     C41096   9.406   7.142   7.378  0.8035  0.0630 -0.6773
 1023MOL0     C41097   9.558   7.141   7.385  1.4296  0.2387  0.4570
 1023MOL0     C41098   9.632   7.031   7.296  0.1188 -0.1482 -0.1436
 1023MOL0     C41099   9.784   7.024   7.303 -0.2256  0.5291 -0.1213
 1023MOL0     C41100   9.815   6.964   7.435  0.2463  0.1127 -0.0802
 1023MOL0     C41101   9.842   6.918   7.543 -0.2048 -0.2873  0.0665
 1023MOL0     C41102   9.225   7.055   7.088 -0.1924 -0.3266  0.1461
 1023MOL0     C41103   9.134   6.969   7.032  0.1407  0.9889  0.7304
 1023MOL0     C41104   9.062   7.022   6.913  0.5036  0.5572  1.4854
 1023MOL0     H41105   9.039   6.409   7.221 -2.8745  3.3118  2.0725
 1023MOL0     H41106   8.946   6.193   7.156  0.7654 -0.3269 -0.2885
 1023MOL0     H41107   8.540   6.139   7.079 -0.1904 -4.0216  0.8082
 1023MOL0     H41108   8.675   6.177   7.191  3.8532 -1.2542 -0.4713
 1023MOL0     H41109   8.779   5.969   7.139  0.1189  0.5058 -3.8419
 1023MOL0     H41110   8.626   5.942   7.223  1.1362  2.5777  1.7378
 1023MOL0     H41111   8.534   5.867   7.008 -0.9791 -1.8132  3.3575
 1023MOL0     H41112   8.683   5.905   6.912  1.4057  0.2646  0.4258
 1023MOL0     H41113   8.807   5.748   7.033  0.4432  1.5004  0.3978
 1023MOL0     H41114   8.684   5.705   7.145 -0.0053 -0.3957 -0.8201
 1023MOL0     H41115   8.553   5.615   6.933  0.2161  2.8179 -1.9667
 1023MOL0     H41116   8.702   5.530   6.990  0.7209 -0.8921 -1.9520
 1023MOL0     H41117   8.694   5.739   6.771  1.5995  0.4962 -0.7611
 1023MOL0     H41118   8.830   5.623   6.806  0.5404 -2.9653 -2.6231
 1023MOL0     H41119   8.672   5.443   6.756  1.2325  2.3499  0.8504
 1023MOL0     H41120   8.715   5.525   6.610 -3.7846 -2.2213 -2.6739
 1023MOL0     H41121   8.454   5.592   6.754  2.1164 -0.4453  2.1819
 1023MOL0     H41122   8.507   5.662   6.607 -1.6073 -0.7714 -0.4254
 1023MOL0     H41123   8.400   5.293   6.732 -0.4954 -0.8184  0.2931
 1023MOL0     H41124   8.190   5.161   6.459 -1.2249 -2.7127  1.3601
 1023MOL0     H41125   8.276   5.117   6.613  1.2859  1.4113  0.5002
 1023MOL0     H41126   8.324   4.953   6.449 -0.4747  0.1593 -2.1201
 1023MOL0     H41127   8.373   5.070   6.327 -0.8987  4.6232  0.0777
 1023MOL0     H41128   8.540   4.933   6.433  1.8908  1.2883 -2.0825
 1023MOL0     H41129   8.579   5.105   6.467  0.2736 -0.4800 -0.1624
 1023MOL0     H41130   8.501   5.081   6.703 -1.7957  0.7009 -0.6366
 1023MOL0     H41131   8.459   4.910   6.668  0.7585  0.4346 -2.0406
 1023MOL0     H41132   8.906   4.918   6.633  0.2291 -0.7640 -1.2632
 1023MOL0     H41133   9.112   4.662   6.561 -2.9151 -2.3082  0.7867
 1023MOL0     H41134   9.100   4.654   6.744  0.3461 -1.1896  1.0010
 1023MOL0     H41135   9.107   4.813   6.645 -1.0426 -0.6424 -4.6610
 1023MOL0     H41136   9.086   4.263   6.781  0.3196  0.1350  0.8455
 1023MOL0     H41137   9.131   4.056   6.879 -1.0757  2.4023  1.2687
 1023MOL0     H41138   9.082   3.868   7.037  1.0948 -3.1889  1.9433
 1023MOL0     H41139   8.947   3.767   7.054  1.9530 -0.0858  2.2524
 1023MOL0     H41140   9.069   3.600   6.894  2.8197 -0.6410 -1.5294
 1023MOL0     H41141   9.205   3.716   6.903  1.0015  0.0728  2.4355
 1023MOL0     H41142   9.080   3.528   7.103  2.1023 -1.6593  0.5147
 1023MOL0     H41143   9.143   3.681   7.174 -3.0511  2.0482 -1.0829
 1023MOL0     H41144   9.361   3.638   7.067  0.2665 -0.1948  1.2980
 1023MOL0     H41145   9.308   3.479   7.011  2.9458 -2.2785  1.5263
 1023MOL0     H41146   9.429   3.483   7.239 -0.4687  1.5831 -2.1121
 1023MOL0     H41147   9.289   3.559   7.306 -4.6330 -1.1051 -0.9024
 1023MOL0     H41148   9.267   3.284   7.152 -2.9267  0.4329 -2.5636
 1023MOL0     H41149   9.143   3.353   7.237  0.9877 -4.4202 -0.1711
 1023MOL0     H41150   9.299   3.354   7.456 -2.7978 -1.2577  0.2595
 1023MOL0     H41151   9.410   3.255   7.357  0.8423 -2.9300  2.1490
 1023MOL0     H41152   9.225   3.081   7.346  1.5138 -0.9497  0.9100
 1023MOL0     H41153   9.129   3.189   7.458  0.6217  1.4413  0.0030
 1023MOL0     H41154   8.721   3.924   6.801  1.1832 -1.1820 -3.6161
 1023MOL0     H41155   8.663   4.149   6.743 -1.0822 -2.2960 -2.5878
 1023MOL0     H41156   8.639   4.502   6.619 -0.2243 -0.6221  2.6213
 1023MOL0     H41157   8.527   4.711   6.658  0.9259  0.6920 -0.7755
 1023MOL0     H41158   8.674   6.408   6.895  2.5836 -0.7804 -3.2497
 1023MOL0     H41159   8.813   6.615   6.917 -2.3851 -0.1526 -0.9670
 1023MOL0     H41160   9.208   6.712   7.232 -1.6550  1.3288  1.5985
 1023MOL0     H41161   9.343   6.877   7.347 -3.3453 -0.0100  2.9302
 1023MOL0     H41162   9.374   7.238   7.419  0.7864 -0.4335  0.5253
 1023MOL0     H41163   9.361   7.061   7.436  0.6553  0.9355  0.4511
 1023MOL0     H41164   9.582   7.126   7.490 -1.0433 -2.6326  0.7448
 1023MOL0     H41165   9.592   7.237   7.345  1.1951  0.7698  1.5018
 1023MOL0     H41166   9.593   6.930   7.313 -2.2568  0.5920 -0.8950
 1023MOL0     H41167   9.606   7.047   7.191 -2.3479 -2.3450  0.0205
 1023MOL0     H41168   9.829   7.124   7.297  0.4024  0.3060  0.6991
 1023MOL0     H41169   9.819   6.964   7.219  3.2569  1.5159  0.4667
 1023MOL0     H41170   9.879   6.881   7.637  0.2093  1.8172  0.7824
 1023MOL0     H41171   9.247   7.153   7.047 -1.0946  0.8533  2.3228
 1023MOL0     H41172   9.075   7.127   6.885  2.6887 -0.3359 -1.4873
 1023MOL0     H41173   9.107   6.985   6.820 -2.2520  1.2106 -0.2144
 1023MOL0     H41174   8.957   6.993   6.918  0.2097  0.6759 -1.6497
 1024MOL0     O41175   6.291  10.244   5.492 -0.4326  0.1534 -1.0603
 1024MOL0     C41176   6.188  10.262   5.556 -0.4134 -0.1228  0.1786
 1024MOL0     O41177   6.069  10.295   5.497  0.2523 -0.3292 -0.5025
 1024MOL0     C41178   6.065  10.309   5.360  0.0334 -0.4447 -0.3977
 1024MOL0     C41179   6.008  10.204   5.296  1.3319 -1.8385  0.7012
 1024MOL0     C41180   6.021  10.198   5.155  0.0637  0.3331  0.1319
 1024MOL0     C41181   6.079  10.298   5.079 -0.0769  0.3750  0.9097
 1024MOL0     O41182   6.082  10.274   4.941  0.0593 -0.6283 -0.2926
 1024MOL0     C41183   6.125  10.390   4.859  1.0444  1.0146 -0.7590
 1024MOL0     C41184   6.129  10.351   4.708 -1.0137  0.2002 -0.5172
 1024MOL0     C41185   6.232  10.437   4.632 -0.3418  0.4372  0.0282
 1024MOL0     C41186   6.234  10.407   4.482  0.2712 -0.1201  0.2067
 1024MOL0     C41187   6.295  10.528   4.418  0.4644 -0.1988  0.3010
 1024MOL0     C41188   6.271  10.524   4.263  0.0279  0.4866 -0.2256
 1024MOL0     C41189   6.340  10.395   4.203  0.8015  0.5951 -0.0572
 1024MOL0     C41190   6.325  10.387   4.053  0.0022 -0.0814  0.3677
 1024MOL0     N41191   6.420  10.290   3.997  0.9831  0.4440 -0.1767
 1024MOL0     C41192   6.400  10.152   3.995 -0.2866  0.2169  0.7260
 1024MOL0     C41193   6.517  10.111   3.936  0.9072 -0.4003  0.7972
 1024MOL0     C41194   6.562   9.968   3.924 -0.9612 -0.6761 -1.1883
 1024MOL0     C41195   6.718   9.954   3.897  0.9332  0.0700 -0.4132
 1024MOL0     C41196   6.757   9.815   3.922  0.7130  0.1343 -0.4384
 1024MOL0     C41197   6.735   9.725   3.793 -0.6392 -0.0324 -0.3520
 1024MOL0     O41198   6.833   9.770   3.699  0.5844  0.1679  0.4083
 1024MOL0     C41199   6.833   9.698   3.582  1.0137  0.1392  0.9169
 1024MOL0     C41200   6.758   9.592   3.545  0.0293  0.6526 -0.0363
 1024MOL0     C41201   6.781   9.535   3.413 -0.4051  0.7324 -0.0778
 1024MOL0     C41202   6.689   9.427   3.368  0.4762 -0.0539  0.2645
 1024MOL0     C41203   6.886   9.587   3.327  0.3654  1.5281  0.4320
 1024MOL0     C41204   6.908   9.535   3.188 -0.9931  1.0340  0.4160
 1024MOL0     O41205   6.829   9.575   3.094 -0.0975 -0.2218  0.4166
 1024MOL0     C41206   6.829   9.514   2.970 -0.2485 -0.2284 -0.5399
 1024MOL0     C41207   6.729   9.423   2.940 -0.2858 -0.3175 -0.0093
 1024MOL0     C41208   6.713   9.373   2.813 -0.4335  0.8138 -0.7854
 1024MOL0     C41209   6.813   9.398   2.723 -0.6673 -1.0103 -0.2946
 1024MOL0     O41210   6.796   9.342   2.596 -0.3066  0.2170  0.0174
 1024MOL0     C41211   6.873   9.381   2.474  0.6915  0.1450  0.3136
 1024MOL0     C41212   6.795   9.293   2.372  0.4009  0.1091  0.6745
 1024MOL0     C41213   6.648   9.336   2.351 -0.0894 -0.7766 -0.4587
 1024MOL0     C41214   6.593   9.283   2.216  0.4663 -0.0955 -0.4046
 1024MOL0     C41215   6.444   9.290   2.202 -0.0984  0.6181  0.3620
 1024MOL0     C41216   6.392   9.208   2.078 -0.9159 -0.3080  1.0201
 1024MOL0     C41217   6.242   9.207   2.100  0.3076  0.1667 -0.0915
 1024MOL0     C41218   6.164   9.169   1.970 -0.4492  0.1148  0.6419
 1024MOL0    Cl41219   6.132   9.314   1.882  0.0330  0.2905 -0.4418
 1024MOL0     C41220   6.913   9.494   2.748  0.8394 -0.8807 -0.1921
 1024MOL0     C41221   6.926   9.550   2.877  1.2935 -0.9541  0.1620
 1024MOL0     O41222   7.003   9.462   3.166  0.0689 -0.0789 -0.7673
 1024MOL0     C41223   6.949   9.699   3.372  0.2820 -0.3674  0.9449
 1024MOL0     C41224   6.922   9.756   3.493 -1.1345 -0.4754  0.1320
 1024MOL0     N41225   6.589  10.216   3.882  0.0832 -0.3900 -0.6422
 1024MOL0     N41226   6.535  10.318   3.923  1.1984 -0.9824  0.7475
 1024MOL0     C41227   6.127  10.410   5.146 -0.3675  0.2485 -0.6812
 1024MOL0     C41228   6.117  10.416   5.293 -0.5115 -0.3837  0.7521
 1024MOL0     C41229   6.196  10.234   5.700  0.2228 -0.3646 -0.0946
 1024MOL0     C41230   6.306  10.171   5.751 -0.0268 -0.7572  0.4208
 1024MOL0     C41231   6.325  10.150   5.887 -0.2112  0.5929  0.7462
 1024MOL0     C41232   6.225  10.177   5.979 -0.3424 -0.4262  0.6222
 1024MOL0     O41233   6.253  10.153   6.105 -0.6952 -0.1042 -0.4553
 1024MOL0     C41234   6.198  10.234   6.212 -0.8174 -0.1212 -0.0974
 1024MOL0     C41235   6.069  10.177   6.255 -0.6794  0.0940  1.0255
 1024MOL0     C41236   5.978  10.295   6.300  0.8525 -0.3323 -0.1692
 1024MOL0     C41237   5.848  10.234   6.349 -0.1425  0.2091  0.2598
 1024MOL0     C41238   5.768  10.347   6.396  0.0989  0.0122  0.4300
 1024MOL0     C41239   5.699  10.434   6.429 -0.4224  0.7778  0.2995
 1024MOL0     C41240   6.109  10.232   5.928 -0.5604  0.2201 -0.0484
 1024MOL0     C41241   6.091  10.269   5.791 -0.5979  1.0337 -0.5994
 1024MOL0     C41242   5.964  10.348   5.763 -0.1551  0.3559  0.5522
 1024MOL0     H41243   5.964  10.128   5.360 -5.0970  0.4108 -0.3818
 1024MOL0     H41244   5.994  10.102   5.111 -1.4428  0.8530 -0.1442
 1024MOL0     H41245   6.226  10.416   4.894  0.2422  0.1053  2.5983
 1024MOL0     H41246   6.058  10.475   4.873  1.4857  0.9711  2.4122
 1024MOL0     H41247   6.160  10.247   4.702 -0.9471  0.0945  1.1670
 1024MOL0     H41248   6.031  10.363   4.661 -0.6406  1.5725 -0.9985
 1024MOL0     H41249   6.214  10.543   4.652  3.3356  1.1693  0.1415
 1024MOL0     H41250   6.334  10.418   4.667  0.2192 -2.4368 -2.7423
 1024MOL0     H41251   6.287  10.314   4.459  0.3928  0.3372 -1.4796
 1024MOL0     H41252   6.133  10.396   4.442  0.5853 -0.5015 -0.5116
 1024MOL0     H41253   6.403  10.527   4.436  0.2568  1.6728  1.8684
 1024MOL0     H41254   6.252  10.626   4.441  2.7294  1.2930 -1.3355
 1024MOL0     H41255   6.162  10.516   4.258  0.0748 -1.2370  0.6585
 1024MOL0     H41256   6.312  10.614   4.216  0.9377 -0.2670 -0.9041
 1024MOL0     H41257   6.296  10.310   4.255  0.8167  1.8519  2.1308
 1024MOL0     H41258   6.446  10.393   4.230 -0.1177  0.6565  4.3281
 1024MOL0     H41259   6.224  10.352   4.030  0.7823 -0.5516 -2.8516
 1024MOL0     H41260   6.336  10.487   4.011  3.1771 -1.1259 -1.6376
 1024MOL0     H41261   6.324  10.088   4.038 -0.8275 -0.2429 -0.8506
 1024MOL0     H41262   6.508   9.906   3.852  0.2664 -0.3487 -2.4374
 1024MOL0     H41263   6.536   9.932   4.024 -2.2753  2.7574 -0.1753
 1024MOL0     H41264   6.730   9.977   3.791 -1.2816  0.9032 -0.5520
 1024MOL0     H41265   6.769  10.024   3.964 -0.3526 -1.5881  2.4939
 1024MOL0     H41266   6.860   9.806   3.959  0.9236 -2.2342 -1.4077
 1024MOL0     H41267   6.691   9.783   4.003  0.1194 -0.7462 -1.2562
 1024MOL0     H41268   6.749   9.618   3.812 -0.0624 -0.3021 -2.1696
 1024MOL0     H41269   6.635   9.738   3.750 -0.2863 -2.1833 -1.9555
 1024MOL0     H41270   6.675   9.566   3.610 -0.6435  1.2344 -0.6513
 1024MOL0     H41271   6.712   9.336   3.424  0.1534 -2.9989 -3.8739
 1024MOL0     H41272   6.700   9.400   3.262  0.7037 -4.7800  1.2776
 1024MOL0     H41273   6.587   9.458   3.392  0.8133  1.3648 -0.0441
 1024MOL0     H41274   6.667   9.399   3.025 -1.9454  2.0264 -0.4586
 1024MOL0     H41275   6.635   9.299   2.798 -1.5150  1.1152  2.6242
 1024MOL0     H41276   6.855   9.487   2.457  0.5729  0.7529  3.5843
 1024MOL0     H41277   6.981   9.365   2.465  0.6120 -0.6871  0.7465
 1024MOL0     H41278   6.852   9.308   2.279 -1.1514  0.9005 -0.1859
 1024MOL0     H41279   6.808   9.186   2.392  1.0194 -0.6368 -2.9905
 1024MOL0     H41280   6.634   9.443   2.369 -1.9603 -1.5461  3.8667
 1024MOL0     H41281   6.583   9.299   2.430 -0.0015  0.7466  0.3522
 1024MOL0     H41282   6.620   9.177   2.215  0.6384 -0.0659  0.3422
 1024MOL0     H41283   6.643   9.328   2.129 -6.6104  1.5741 -4.3485
 1024MOL0     H41284   6.402   9.248   2.293  1.5950  2.3986  2.0696
 1024MOL0     H41285   6.419   9.396   2.190 -2.5002  0.2673  1.8156
 1024MOL0     H41286   6.444   9.113   2.094  6.1450  2.7340 -0.1273
 1024MOL0     H41287   6.422   9.249   1.981 -2.3854 -0.3535  0.5208
 1024MOL0     H41288   6.206   9.306   2.129  1.4548  0.3050  0.9778
 1024MOL0     H41289   6.217   9.130   2.174  1.3513  0.1815  0.2973
 1024MOL0     H41290   6.066   9.130   1.998 -0.7828  0.4476 -0.0374
 1024MOL0     H41291   6.217   9.091   1.915 -3.1949 -1.9274  0.6807
 1024MOL0     H41292   7.001   9.510   2.687 -0.2665  0.6890 -1.4693
 1024MOL0     H41293   7.006   9.613   2.915  0.9533 -0.8668  0.7509
 1024MOL0     H41294   7.024   9.749   3.311 -0.3558  0.1619  0.5825
 1024MOL0     H41295   6.987   9.835   3.527  1.5772 -1.6310 -1.9814
 1024MOL0     H41296   6.185  10.487   5.096  1.1367 -1.1989 -1.2860
 1024MOL0     H41297   6.156  10.508   5.336 -1.5247  1.2955 -1.6696
 1024MOL0     H41298   6.391  10.132   5.696  1.1551  2.9871 -0.7285
 1024MOL0     H41299   6.418  10.100   5.913 -2.5639 -3.5371  2.1900
 1024MOL0     H41300   6.263  10.229   6.300 -0.5902  3.0074  0.0178
 1024MOL0     H41301   6.189  10.340   6.188  1.5239  0.7217  2.2735
 1024MOL0     H41302   6.091  10.106   6.336 -0.6618  1.4373  2.2251
 1024MOL0     H41303   6.014  10.117   6.181 -2.5459 -1.4567  3.4860
 1024MOL0     H41304   6.024  10.355   6.378 -1.4452 -0.6806  1.5646
 1024MOL0     H41305   5.957  10.356   6.212 -0.7163 -0.6226 -0.0229
 1024MOL0     H41306   5.865  10.171   6.436 -2.6066  1.5945  1.8582
 1024MOL0     H41307   5.805  10.174   6.268  1.3253  0.8404 -1.0465
 1024MOL0     H41308   5.638  10.514   6.464 -0.7987  0.3205  0.7108
 1024MOL0     H41309   6.042  10.265   6.008  0.3543 -1.6887  1.5919
 1024MOL0     H41310   5.892  10.284   5.711 -0.7231  0.7350  0.8692
 1024MOL0     H41311   5.926  10.389   5.857  2.8734 -1.9892  3.0490
 1024MOL0     H41312   5.990  10.436   5.705  0.4310  0.0166  0.2885
  11.57112  11.57112  11.57112
